FOO
141312
    1MOL0     O    1   5.379   6.062   5.563  0.7635 -0.6186 -0.6530
    1MOL0     C    2   5.304   6.154   5.532  0.3116 -0.1371  0.8386
    1MOL0     O    3   5.336   6.260   5.445  0.1116  0.4965  0.1352
    1MOL0     C    4   5.467   6.276   5.411 -0.7047  0.3801 -0.9635
    1MOL0     C    5   5.531   6.392   5.451 -0.2718 -0.1031  0.0501
    1MOL0     C    6   5.656   6.426   5.411  0.4427  0.7934 -0.2028
    1MOL0     C    7   5.722   6.336   5.327 -0.7385 -1.0771 -0.8953
    1MOL0     O    8   5.853   6.369   5.302  0.7757 -0.2193 -0.0622
    1MOL0     C    9   5.933   6.294   5.213  0.3179  0.9689  0.3593
    1MOL0     C   10   6.057   6.368   5.174 -0.7491 -0.9311 -0.0219
    1MOL0     C   11   6.161   6.272   5.125 -0.7264  0.0226  0.0545
    1MOL0     C   12   6.291   6.344   5.079  0.7589  0.4563  0.0603
    1MOL0     C   13   6.386   6.227   5.030 -0.1481 -1.1291  0.2854
    1MOL0     C   14   6.508   6.291   4.956  0.1565 -0.4109  0.6985
    1MOL0     C   15   6.632   6.205   4.971  0.1843 -0.0149  0.0529
    1MOL0     C   16   6.741   6.235   4.868 -1.1270 -1.0160  0.0208
    1MOL0     N   17   6.790   6.375   4.875  0.5804 -0.2567  0.1997
    1MOL0     C   18   6.858   6.436   4.975  0.6165 -0.8185  0.6355
    1MOL0     C   19   6.895   6.558   4.923  0.0532 -0.1039 -0.0101
    1MOL0     C   20   6.950   6.681   4.989  0.9094 -0.2805 -0.1430
    1MOL0     C   21   7.071   6.627   5.064  0.0285 -0.8310  0.0846
    1MOL0     C   22   7.177   6.558   4.984 -0.0361  0.3824 -0.1883
    1MOL0     C   23   7.212   6.610   4.841 -0.3319 -1.2944 -0.8231
    1MOL0     O   24   7.247   6.758   4.840 -0.3602  0.1545  0.0529
    1MOL0     C   25   7.366   6.783   4.911  0.2789 -0.5362 -0.0954
    1MOL0     C   26   7.393   6.920   4.939 -0.0099 -0.2051 -0.4878
    1MOL0     C   27   7.514   6.963   4.998  0.8776  0.1218 -0.2560
    1MOL0     C   28   7.529   7.111   4.996 -0.7688  0.0594 -0.2028
    1MOL0     C   29   7.600   6.860   5.050  0.0339 -0.0408  0.0026
    1MOL0     C   30   7.731   6.888   5.117 -0.2130 -0.3559  0.6002
    1MOL0     O   31   7.815   6.788   5.149 -0.0187 -0.3827  0.4799
    1MOL0     C   32   7.934   6.822   5.214  0.1643 -0.5711  0.3104
    1MOL0     C   33   8.041   6.896   5.153  0.2525  0.0434  0.7368
    1MOL0     C   34   8.162   6.908   5.223 -0.4522 -0.5439  0.0712
    1MOL0     C   35   8.181   6.860   5.353  0.1424  0.8627 -0.5166
    1MOL0     O   36   8.292   6.885   5.433 -0.0643  0.0203  0.6712
    1MOL0     C   37   8.370   7.003   5.407  0.3288 -0.0329 -0.0077
    1MOL0     C   38   8.438   7.052   5.539 -0.3360 -0.6536 -0.0177
    1MOL0     C   39   8.499   7.191   5.510  0.2409  0.6751  0.2240
    1MOL0     C   40   8.612   7.234   5.607 -0.2201  0.0774 -0.1888
    1MOL0     C   41   8.643   7.386   5.574 -0.0553  0.5282 -0.6354
    1MOL0     C   42   8.591   7.488   5.667  0.8377  0.1474 -0.6159
    1MOL0     C   43   8.652   7.482   5.812  0.7859  0.1312  0.5307
    1MOL0     C   44   8.614   7.605   5.887 -0.2766 -0.1487 -0.3678
    1MOL0    Cl   45   8.668   7.585   6.045 -0.0906 -0.5930  0.2042
    1MOL0     C   46   8.080   6.774   5.405 -0.8996 -0.1108 -0.8838
    1MOL0     C   47   7.956   6.767   5.344  0.7011  0.5073  0.7554
    1MOL0     O   48   7.748   7.010   5.146  0.3043 -0.0684 -0.5371
    1MOL0     C   49   7.570   6.727   5.028  0.0184  0.2946 -0.3794
    1MOL0     C   50   7.459   6.692   4.960 -0.0059  0.1707  0.7884
    1MOL0     N   51   6.853   6.563   4.793  0.2837  0.0065 -0.4329
    1MOL0     N   52   6.790   6.452   4.766 -0.1005  0.4359 -0.0953
    1MOL0     C   53   5.668   6.216   5.287  0.3871 -0.4106 -0.2564
    1MOL0     C   54   5.540   6.192   5.331  0.2173  0.5701  0.5298
    1MOL0     C   55   5.164   6.169   5.581 -0.2615  0.5119  0.5582
    1MOL0     C   56   5.104   6.298   5.593  0.1905 -1.3347 -0.1231
    1MOL0     C   57   4.967   6.311   5.626 -0.5170 -1.1484  0.0533
    1MOL0     C   58   4.899   6.199   5.671  0.1730  0.3400  0.5132
    1MOL0     O   59   4.766   6.202   5.711 -0.1843 -0.0070 -0.3549
    1MOL0     C   60   4.727   6.302   5.811 -0.9286 -0.5703 -0.1633
    1MOL0     C   61   4.666   6.421   5.746 -0.0764 -0.1115 -0.4360
    1MOL0     C   62   4.527   6.378   5.689 -0.3184  0.2818  0.6331
    1MOL0     C   63   4.422   6.376   5.801  0.5570  0.2274 -0.4785
    1MOL0     C   64   4.290   6.354   5.737 -0.2385 -0.0470  0.1743
    1MOL0     C   65   4.175   6.343   5.695  1.0401  0.2684 -0.0002
    1MOL0     C   66   4.964   6.076   5.668  0.0290  0.1359  0.3562
    1MOL0     C   67   5.094   6.056   5.621  0.3210 -0.3356 -0.3554
    1MOL0     C   68   5.157   5.921   5.643  0.3623  0.4097  0.4951
    1MOL0     H   69   5.473   6.463   5.508 -0.5717 -1.3223  1.3219
    1MOL0     H   70   5.713   6.511   5.447  3.1590 -0.0649 -2.1410
    1MOL0     H   71   5.887   6.276   5.115  2.1538  1.7563 -0.6916
    1MOL0     H   72   5.958   6.199   5.261 -0.6331  0.9332  0.8132
    1MOL0     H   73   6.024   6.439   5.097 -0.2998  0.3794  0.9503
    1MOL0     H   74   6.100   6.427   5.255 -1.6181 -1.7111  1.0322
    1MOL0     H   75   6.186   6.209   5.211 -3.5149 -3.4416 -1.4355
    1MOL0     H   76   6.119   6.200   5.054 -2.3195  0.8445  0.1014
    1MOL0     H   77   6.267   6.413   4.998  1.2292 -0.4377 -0.8673
    1MOL0     H   78   6.330   6.395   5.168  0.6856  0.3355  0.1622
    1MOL0     H   79   6.332   6.152   4.972  0.1246 -1.9867  1.1281
    1MOL0     H   80   6.415   6.176   5.122  0.4684 -0.4573  0.4729
    1MOL0     H   81   6.488   6.305   4.849 -1.1512  2.0580  1.1975
    1MOL0     H   82   6.534   6.389   4.995  0.1205 -0.3356  0.5319
    1MOL0     H   83   6.606   6.098   4.963  1.4048 -0.4568  1.5346
    1MOL0     H   84   6.666   6.215   5.074 -1.0534  2.4243  0.2929
    1MOL0     H   85   6.832   6.176   4.875  0.6876  1.5107 -0.9611
    1MOL0     H   86   6.705   6.214   4.766 -1.7697 -0.5765  0.1474
    1MOL0     H   87   6.884   6.408   5.077 -0.9542  3.8473  2.5506
    1MOL0     H   88   6.877   6.720   5.061  1.3063  0.1676  0.0184
    1MOL0     H   89   6.963   6.766   4.922 -0.8164  0.2930  0.2074
    1MOL0     H   90   7.109   6.726   5.091 -2.3457 -0.5852  3.0689
    1MOL0     H   91   7.043   6.573   5.155  0.1547 -0.9030  0.0817
    1MOL0     H   92   7.254   6.577   5.059 -1.0813  0.6194  0.8378
    1MOL0     H   93   7.158   6.451   4.977 -0.7160  0.5683 -1.6045
    1MOL0     H   94   7.298   6.554   4.803 -0.1366 -1.7930  0.2992
    1MOL0     H   95   7.126   6.592   4.775 -0.3355 -0.5199 -1.0356
    1MOL0     H   96   7.318   6.990   4.905  0.1265  0.9206  1.3448
    1MOL0     H   97   7.442   7.153   4.945  0.1604 -0.3904 -2.2539
    1MOL0     H   98   7.619   7.138   4.940  0.7723 -0.8090  1.7264
    1MOL0     H   99   7.537   7.136   5.102 -0.8733 -1.2849  0.1397
    1MOL0     H  100   8.013   6.938   5.057 -0.8188 -0.1605  0.9453
    1MOL0     H  101   8.245   6.956   5.172 -0.5274  0.4625  0.8426
    1MOL0     H  102   8.449   6.992   5.332 -0.9235 -0.6585 -1.2873
    1MOL0     H  103   8.303   7.084   5.376 -0.4422 -0.9177 -0.7258
    1MOL0     H  104   8.364   7.052   5.620  1.6208 -1.8512  1.8806
    1MOL0     H  105   8.515   6.980   5.566  0.1395 -0.5097 -0.9489
    1MOL0     H  106   8.420   7.267   5.502  0.1630  0.8636  2.2910
    1MOL0     H  107   8.544   7.186   5.411 -1.0775  1.6725 -0.4709
    1MOL0     H  108   8.702   7.176   5.585 -0.2160  1.0417 -3.1846
    1MOL0     H  109   8.585   7.230   5.713  2.8257  0.4672  0.7118
    1MOL0     H  110   8.752   7.386   5.581  0.0676 -1.5743  7.1914
    1MOL0     H  111   8.595   7.402   5.477 -1.7881 -1.7950 -0.2391
    1MOL0     H  112   8.483   7.477   5.681  0.9487  1.8963  2.6368
    1MOL0     H  113   8.607   7.583   5.616  0.9476  0.1452 -0.5874
    1MOL0     H  114   8.761   7.479   5.801  0.8610  0.9180  1.0496
    1MOL0     H  115   8.616   7.392   5.863  1.6170  0.0877  1.0631
    1MOL0     H  116   8.505   7.607   5.893 -0.2712 -1.9250  0.9713
    1MOL0     H  117   8.655   7.695   5.839  5.1001 -0.9162  2.0118
    1MOL0     H  118   8.098   6.732   5.503  1.4998  1.7117 -0.4192
    1MOL0     H  119   7.871   6.726   5.397 -1.1069 -1.0375 -2.9374
    1MOL0     H  120   7.639   6.646   5.050  0.2919  1.2500  2.8091
    1MOL0     H  121   7.445   6.586   4.944  1.9668 -0.5167  2.9240
    1MOL0     H  122   5.721   6.146   5.223 -0.9659 -1.8303  0.1008
    1MOL0     H  123   5.490   6.101   5.301 -0.2885  1.0710 -0.1853
    1MOL0     H  124   5.166   6.384   5.570 -1.3293 -0.3918 -0.9251
    1MOL0     H  125   4.914   6.406   5.629 -0.1657 -0.9762  1.0601
    1MOL0     H  126   4.666   6.264   5.894 -2.0409  1.6974  0.1388
    1MOL0     H  127   4.825   6.334   5.850  0.0809  0.3669 -3.1571
    1MOL0     H  128   4.732   6.454   5.665 -0.2167  1.4567  0.0626
    1MOL0     H  129   4.662   6.502   5.819 -4.0835  0.2439 -0.8072
    1MOL0     H  130   4.488   6.441   5.608 -3.4468 -0.7889  1.1641
    1MOL0     H  131   4.538   6.280   5.643  0.2423  0.5939  0.0799
    1MOL0     H  132   4.428   6.477   5.844  0.4795 -0.4375  1.1636
    1MOL0     H  133   4.438   6.305   5.882 -0.0307  0.9012  0.2515
    1MOL0     H  134   4.084   6.346   5.640  3.5173  1.0087 -4.5574
    1MOL0     H  135   4.912   5.992   5.714 -1.4246 -0.8372 -2.8144
    1MOL0     H  136   5.223   5.925   5.730  2.0064  3.1282 -0.7281
    1MOL0     H  137   5.081   5.844   5.654 -0.7518  0.8741 -2.8648
    1MOL0     H  138   5.214   5.891   5.555  0.3500 -1.5061  1.0922
    2MOL0     O  139   0.459   5.748   1.161  0.6871 -0.3327  0.5080
    2MOL0     C  140   0.526   5.714   1.066 -0.1079  0.5925 -0.3458
    2MOL0     O  141   0.659   5.727   1.060 -0.2803 -0.5031 -0.1943
    2MOL0     C  142   0.729   5.798   1.157 -0.2666  0.3805 -0.6432
    2MOL0     C  143   0.704   5.931   1.197 -0.3423 -0.4380 -0.9222
    2MOL0     C  144   0.805   5.999   1.272  0.3364  0.3306 -0.2424
    2MOL0     C  145   0.926   5.943   1.303  0.1477  0.0666 -0.6855
    2MOL0     O  146   1.035   5.996   1.376 -0.4867 -0.4317 -0.0831
    2MOL0     C  147   1.019   6.127   1.426 -0.2025 -0.1242  0.1681
    2MOL0     C  148   1.140   6.153   1.504 -0.5889  0.6334  0.6220
    2MOL0     C  149   1.131   6.089   1.643 -0.0280  1.1700  0.1194
    2MOL0     C  150   1.245   6.124   1.740 -0.2023 -0.7040 -0.1212
    2MOL0     C  151   1.251   6.275   1.774 -0.0533  0.1026 -0.0339
    2MOL0     C  152   1.345   6.311   1.885 -0.1557 -0.2155  0.3320
    2MOL0     C  153   1.345   6.465   1.902 -0.0560  0.1436  0.7920
    2MOL0     C  154   1.449   6.521   1.990  0.8383 -0.0439 -0.0898
    2MOL0     N  155   1.566   6.564   1.912 -0.1744 -0.3193  0.1768
    2MOL0     C  156   1.665   6.479   1.856 -0.2455  0.5149  0.7089
    2MOL0     C  157   1.739   6.568   1.781  0.6598  0.2503 -0.8626
    2MOL0     C  158   1.848   6.519   1.694  0.0708  0.5952  0.5426
    2MOL0     C  159   1.800   6.402   1.597 -0.3360 -0.6506  0.7869
    2MOL0     C  160   1.888   6.372   1.475 -0.4549 -0.6899  0.8622
    2MOL0     C  161   2.024   6.315   1.513  0.5841 -0.0066  0.1128
    2MOL0     O  162   2.094   6.429   1.559  0.7116 -0.4234 -0.6779
    2MOL0     C  163   2.223   6.408   1.590 -0.1984 -0.7128  0.4380
    2MOL0     C  164   2.270   6.489   1.695  0.6039  0.2395 -0.4701
    2MOL0     C  165   2.402   6.486   1.737  0.1905 -0.8994 -0.3081
    2MOL0     C  166   2.454   6.575   1.852 -0.0612  0.3076  0.5103
    2MOL0     C  167   2.500   6.416   1.659 -0.5410  0.1453  0.0677
    2MOL0     C  168   2.644   6.410   1.685 -1.2975  1.1752 -0.5219
    2MOL0     O  169   2.712   6.521   1.746 -0.3409 -0.0568  0.8672
    2MOL0     C  170   2.853   6.515   1.758  0.0151  0.7206 -0.2865
    2MOL0     C  171   2.924   6.628   1.708  1.0698 -0.0948  0.2691
    2MOL0     C  172   3.062   6.636   1.707 -0.7623  0.0051  0.3876
    2MOL0     C  173   3.136   6.536   1.772  0.0035 -0.5449  0.2324
    2MOL0     O  174   3.272   6.528   1.786 -0.5195  0.2698 -0.9656
    2MOL0     C  175   3.362   6.628   1.736 -0.1489  0.2431 -0.1871
    2MOL0     C  176   3.511   6.602   1.750  0.4865  0.1619  0.0320
    2MOL0     C  177   3.551   6.564   1.892  0.0133  0.2244 -0.5385
    2MOL0     C  178   3.697   6.605   1.921  0.3491  0.6371  0.3541
    2MOL0     C  179   3.798   6.547   1.826 -0.3832 -0.4586  0.8424
    2MOL0     C  180   3.923   6.636   1.815  0.3906  0.6116 -0.9311
    2MOL0     C  181   4.032   6.563   1.737 -0.5629  0.0802  0.8124
    2MOL0     C  182   4.158   6.647   1.715  0.3261  0.2435 -0.0314
    2MOL0    Cl  183   4.237   6.716   1.862  0.3776 -0.6682  0.3370
    2MOL0     C  184   3.065   6.422   1.829  0.4111  0.3722  0.0503
    2MOL0     C  185   2.927   6.409   1.824  0.5914 -0.5514  0.2683
    2MOL0     O  186   2.693   6.296   1.680 -0.4546 -0.1114  0.0090
    2MOL0     C  187   2.452   6.339   1.549 -0.5468 -0.1568 -0.6027
    2MOL0     C  188   2.318   6.331   1.516 -1.0552  0.4820  0.1883
    2MOL0     N  189   1.687   6.697   1.795  0.6588  0.5681 -0.2515
    2MOL0     N  190   1.581   6.693   1.871 -0.7763  0.4205 -0.3189
    2MOL0     C  191   0.945   5.810   1.271 -0.1660  0.8939  0.2263
    2MOL0     C  192   0.851   5.739   1.192 -0.5255 -0.2177  0.3545
    2MOL0     C  193   0.470   5.663   0.933 -0.3294  0.9477  0.6275
    2MOL0     C  194   0.555   5.637   0.823  0.0530 -0.2472 -0.1389
    2MOL0     C  195   0.511   5.553   0.721 -0.7385 -0.4866  0.5924
    2MOL0     C  196   0.382   5.498   0.730 -0.8318 -0.0540 -0.3008
    2MOL0     O  197   0.342   5.397   0.645 -0.0797 -0.0376  0.2759
    2MOL0     C  198   0.430   5.339   0.548 -0.1244 -0.5092 -0.5155
    2MOL0     C  199   0.431   5.425   0.415 -0.3526  0.1706 -0.1019
    2MOL0     C  200   0.468   5.336   0.299 -0.3044  0.8590 -0.3981
    2MOL0     C  201   0.369   5.231   0.251  0.1676  0.3635  0.6607
    2MOL0     C  202   0.252   5.295   0.193 -0.4333  0.3884 -0.7502
    2MOL0     C  203   0.171   5.359   0.129 -0.5438 -0.1617 -0.0751
    2MOL0     C  204   0.287   5.537   0.826  0.4957  0.3246 -0.1777
    2MOL0     C  205   0.334   5.623   0.926  0.6996 -0.1614  0.7933
    2MOL0     C  206   0.234   5.676   1.026  0.5075  0.5873  0.7932
    2MOL0     H  207   0.604   5.967   1.176 -1.6188 -2.3164  1.4668
    2MOL0     H  208   0.781   6.097   1.312  3.4807  1.9467 -1.9620
    2MOL0     H  209   0.941   6.126   1.502  0.0412  1.0877  0.4472
    2MOL0     H  210   1.001   6.195   1.343 -1.0541  0.1484  0.5674
    2MOL0     H  211   1.225   6.109   1.451 -1.6179 -1.0878  0.3235
    2MOL0     H  212   1.157   6.261   1.505  2.3955  0.2453  1.9790
    2MOL0     H  213   1.033   6.102   1.689  0.0584  0.0901  0.6489
    2MOL0     H  214   1.152   5.982   1.634  1.5038  1.3617  1.1046
    2MOL0     H  215   1.241   6.076   1.838  1.8483 -1.0145 -0.1360
    2MOL0     H  216   1.344   6.101   1.699 -0.1589 -1.0472  0.1740
    2MOL0     H  217   1.148   6.300   1.800  0.3770  0.9374  0.9816
    2MOL0     H  218   1.283   6.324   1.681  0.6115 -2.0179 -0.9673
    2MOL0     H  219   1.308   6.262   1.975 -1.1933  2.9180  1.7433
    2MOL0     H  220   1.445   6.272   1.865 -0.3155 -0.8485  0.7318
    2MOL0     H  221   1.247   6.497   1.939 -1.2304 -3.0684  0.7685
    2MOL0     H  222   1.354   6.514   1.805 -2.7856 -2.8675 -1.1932
    2MOL0     H  223   1.407   6.613   2.030  0.2580  0.5665 -1.9965
    2MOL0     H  224   1.478   6.458   2.075 -0.2769  2.0339  1.9718
    2MOL0     H  225   1.672   6.371   1.863 -0.6270  0.5195  1.2771
    2MOL0     H  226   1.928   6.483   1.759 -0.0243  1.5028  1.1794
    2MOL0     H  227   1.890   6.598   1.633  0.5550  0.5695  0.8355
    2MOL0     H  228   1.786   6.309   1.653 -0.7962 -2.3914 -2.0669
    2MOL0     H  229   1.710   6.439   1.546  1.7621  2.3002 -1.1227
    2MOL0     H  230   1.842   6.290   1.419  0.2699 -0.2327 -0.4564
    2MOL0     H  231   1.897   6.462   1.413 -0.9052 -0.7756  0.6705
    2MOL0     H  232   2.008   6.237   1.588 -0.2718  0.4386  0.4062
    2MOL0     H  233   2.063   6.263   1.425 -2.8887 -2.0213 -0.4137
    2MOL0     H  234   2.199   6.559   1.740  1.9668  0.7288  1.0250
    2MOL0     H  235   2.494   6.515   1.935  2.0512  0.9440 -0.0199
    2MOL0     H  236   2.373   6.639   1.890  0.6432  0.3917  1.9433
    2MOL0     H  237   2.527   6.644   1.811 -0.4262 -0.5657 -1.7503
    2MOL0     H  238   2.864   6.709   1.665  2.1913  2.3648  3.0144
    2MOL0     H  239   3.104   6.724   1.658 -0.6642 -0.4205 -0.3051
    2MOL0     H  240   3.331   6.641   1.632 -0.6335 -1.3749 -0.2645
    2MOL0     H  241   3.339   6.725   1.782 -0.1543  0.8013 -1.3302
    2MOL0     H  242   3.531   6.518   1.683 -0.4298 -1.3340  1.5491
    2MOL0     H  243   3.579   6.685   1.727  0.7129 -0.1517 -0.4425
    2MOL0     H  244   3.532   6.456   1.898  0.4673  0.0273 -2.1671
    2MOL0     H  245   3.487   6.618   1.963  1.3581  1.2639 -0.0716
    2MOL0     H  246   3.713   6.563   2.021 -2.2419 -1.4160  0.0170
    2MOL0     H  247   3.711   6.713   1.916  1.4686  0.5507  1.3275
    2MOL0     H  248   3.838   6.454   1.866 -0.9951 -1.7558 -1.3858
    2MOL0     H  249   3.760   6.524   1.726 -0.4116  0.2585  0.6787
    2MOL0     H  250   3.959   6.666   1.914 -0.7353 -2.0898  0.3896
    2MOL0     H  251   3.893   6.724   1.758  0.7048 -0.5890 -3.0252
    2MOL0     H  252   4.005   6.523   1.639  2.6718 -1.2500  0.3437
    2MOL0     H  253   4.062   6.475   1.796  0.1006  0.1129  0.5233
    2MOL0     H  254   4.133   6.733   1.652 -3.6241  0.6698  1.7863
    2MOL0     H  255   4.236   6.583   1.672  2.6072  1.0639  2.5524
    2MOL0     H  256   3.127   6.350   1.883  1.1682  0.1124 -1.1224
    2MOL0     H  257   2.880   6.318   1.859  1.2502 -1.7477 -1.7858
    2MOL0     H  258   2.523   6.287   1.485  1.5008  0.6955  0.8624
    2MOL0     H  259   2.292   6.275   1.426 -2.3759  1.1945  0.1167
    2MOL0     H  260   1.044   5.771   1.295  0.9596  2.0858 -2.1649
    2MOL0     H  261   0.872   5.637   1.163  0.2711 -0.4990  1.8652
    2MOL0     H  262   0.657   5.675   0.822  0.7338 -1.9669 -1.6464
    2MOL0     H  263   0.575   5.533   0.636  1.4998  0.9521  1.8483
    2MOL0     H  264   0.528   5.328   0.595  0.3606 -0.6294 -1.5328
    2MOL0     H  265   0.392   5.237   0.537  0.0947 -0.4789 -1.7035
    2MOL0     H  266   0.498   5.511   0.426  1.1857 -1.2365  2.3885
    2MOL0     H  267   0.332   5.468   0.398 -0.8106 -0.8503 -0.1254
    2MOL0     H  268   0.491   5.404   0.217 -3.2498  1.6820 -0.6629
    2MOL0     H  269   0.564   5.290   0.326 -1.1598 -0.0519  1.2293
    2MOL0     H  270   0.336   5.161   0.328 -1.6810 -1.7627 -1.8624
    2MOL0     H  271   0.423   5.167   0.181  1.4233  2.4467 -0.3825
    2MOL0     H  272   0.091   5.415   0.085  0.7868  0.8075 -1.3450
    2MOL0     H  273   0.184   5.509   0.810  0.0595  1.0239  1.2625
    2MOL0     H  274   0.133   5.646   0.996  0.6473  1.3484 -0.5416
    2MOL0     H  275   0.254   5.628   1.122  0.4997 -1.0888 -0.0058
    2MOL0     H  276   0.244   5.785   1.031  1.1860  0.6216 -0.7179
    3MOL0     O  277   0.270   1.923   5.195  0.3401  0.1114  0.1929
    3MOL0     C  278   0.212   1.817   5.169  0.0711  0.0092 -0.2994
    3MOL0     O  279   0.266   1.698   5.172  0.3955 -0.1077  0.7609
    3MOL0     C  280   0.396   1.700   5.215 -0.3474  0.3136  0.8408
    3MOL0     C  281   0.501   1.688   5.115  0.1810 -0.0357 -0.8706
    3MOL0     C  282   0.637   1.686   5.152 -0.8586 -0.0984 -0.5824
    3MOL0     C  283   0.666   1.701   5.291  0.1361  0.5650  1.4439
    3MOL0     O  284   0.797   1.704   5.320  0.4277 -0.4926 -0.4576
    3MOL0     C  285   0.840   1.637   5.438 -0.1153  0.2206  0.4948
    3MOL0     C  286   0.985   1.663   5.449  0.7936  0.0511  0.1257
    3MOL0     C  287   1.055   1.576   5.547 -0.0720  0.4071  0.3852
    3MOL0     C  288   1.093   1.436   5.485 -0.1290 -0.8836 -0.9002
    3MOL0     C  289   1.156   1.345   5.584  0.7171 -0.7843 -0.6251
    3MOL0     C  290   1.275   1.400   5.665 -0.2748 -0.3593  0.2995
    3MOL0     C  291   1.404   1.420   5.589  0.1485 -0.8014  0.3380
    3MOL0     C  292   1.506   1.518   5.638 -0.3994 -0.2186  0.4419
    3MOL0     N  293   1.531   1.507   5.785  0.3854 -0.7906  0.2185
    3MOL0     C  294   1.475   1.593   5.875  0.0318  0.7659 -0.2953
    3MOL0     C  295   1.550   1.570   5.985  0.4755 -0.3725  0.2273
    3MOL0     C  296   1.560   1.646   6.119 -0.0588 -0.0723 -0.1297
    3MOL0     C  297   1.620   1.786   6.104  0.3283 -0.1682 -0.0878
    3MOL0     C  298   1.632   1.872   6.232 -0.0566 -0.6520 -0.0939
    3MOL0     C  299   1.736   1.988   6.217  0.4460 -0.0050 -0.2814
    3MOL0     O  300   1.756   2.050   6.345 -0.1955  0.4287 -0.2970
    3MOL0     C  301   1.822   2.168   6.328 -0.4552 -0.0953  0.3569
    3MOL0     C  302   1.822   2.251   6.442  0.1062  0.6010 -0.1791
    3MOL0     C  303   1.888   2.375   6.445  0.3112 -0.3985  0.1651
    3MOL0     C  304   1.867   2.459   6.564  0.2114 -0.3951  0.9543
    3MOL0     C  305   1.975   2.404   6.340 -0.9752  0.5337 -0.1847
    3MOL0     C  306   2.073   2.523   6.351  0.7341 -0.0741 -0.1171
    3MOL0     O  307   2.124   2.578   6.233 -0.6097  0.3972  0.0827
    3MOL0     C  308   2.212   2.686   6.251 -0.3062 -0.4241  0.0236
    3MOL0     C  309   2.171   2.812   6.244  0.9515  0.0988 -0.4242
    3MOL0     C  310   2.252   2.922   6.257 -0.1517 -0.6788 -0.8212
    3MOL0     C  311   2.388   2.901   6.282  0.4208 -0.5808  0.3085
    3MOL0     O  312   2.478   2.997   6.306 -0.2264 -0.5195  0.0035
    3MOL0     C  313   2.455   3.116   6.225  0.1019  0.5900  0.4039
    3MOL0     C  314   2.578   3.201   6.254  0.8065 -0.4146 -0.2762
    3MOL0     C  315   2.553   3.346   6.203  1.3415 -0.0977  0.3278
    3MOL0     C  316   2.672   3.441   6.215 -0.0733  0.3217  0.0289
    3MOL0     C  317   2.632   3.590   6.188  0.9776  0.1448 -0.1086
    3MOL0     C  318   2.751   3.671   6.142  0.5596  0.7087 -0.8116
    3MOL0     C  319   2.707   3.814   6.102 -0.4244  0.5710 -0.7224
    3MOL0     C  320   2.829   3.902   6.089 -1.1881 -0.8025  0.2553
    3MOL0    Cl  321   2.889   3.967   6.255 -0.2208 -0.2495  0.3380
    3MOL0     C  322   2.430   2.768   6.304 -1.0487 -0.2339  1.0892
    3MOL0     C  323   2.344   2.662   6.286 -0.1437 -0.6306 -0.2464
    3MOL0     O  324   2.118   2.556   6.459  0.4292  0.1779 -0.4682
    3MOL0     C  325   1.983   2.324   6.229 -0.4450  0.3847  0.0407
    3MOL0     C  326   1.916   2.207   6.227 -0.2594  0.1111 -0.4610
    3MOL0     N  327   1.634   1.460   5.959  0.5043 -0.3978 -0.0798
    3MOL0     N  328   1.625   1.429   5.837 -0.3223 -0.4084  0.0910
    3MOL0     C  329   0.567   1.716   5.384  0.2753  0.2372  0.8100
    3MOL0     C  330   0.430   1.715   5.346 -0.2787  0.1929 -0.4603
    3MOL0     C  331   0.068   1.829   5.136 -0.5241 -0.2239 -0.3636
    3MOL0     C  332  -0.020   1.747   5.203  0.8609  0.1511  0.6561
    3MOL0     C  333  -0.158   1.759   5.192  0.2909  0.0353  0.0021
    3MOL0     C  334  -0.213   1.840   5.099  0.6893 -0.4222 -0.0961
    3MOL0     O  335  -0.349   1.848   5.078  0.7429  0.1953  0.0552
    3MOL0     C  336  -0.430   1.742   5.126 -0.0829 -0.1288  0.0036
    3MOL0     C  337  -0.567   1.764   5.066 -0.0166 -0.5069  0.7519
    3MOL0     C  338  -0.656   1.657   5.120  0.6296  0.0505 -0.2656
    3MOL0     C  339  -0.805   1.688   5.071 -0.3183 -0.4359 -0.2248
    3MOL0     C  340  -0.900   1.604   5.143 -0.5966  0.5288 -0.2408
    3MOL0     C  341  -0.973   1.531   5.206  0.7855  0.1194  0.0909
    3MOL0     C  342  -0.126   1.920   5.016 -0.5034 -0.4425  0.0807
    3MOL0     C  343   0.014   1.922   5.046 -0.3834 -0.4224 -0.5763
    3MOL0     C  344   0.094   2.021   4.970 -0.0851 -1.5027  0.2913
    3MOL0     H  345   0.474   1.675   5.011  2.0614 -0.4481 -1.3435
    3MOL0     H  346   0.721   1.655   5.091 -0.0246 -2.5593  1.6188
    3MOL0     H  347   0.825   1.528   5.430 -0.0018  0.2740 -0.6007
    3MOL0     H  348   0.789   1.657   5.532  0.3611  0.5459  0.6884
    3MOL0     H  349   1.029   1.651   5.350  3.4317 -0.3764  1.2671
    3MOL0     H  350   0.999   1.765   5.485 -0.4145  0.0174  0.7478
    3MOL0     H  351   1.154   1.617   5.570 -0.0433  0.0509  0.9214
    3MOL0     H  352   1.003   1.561   5.642 -1.7353  0.7054 -0.4443
    3MOL0     H  353   1.003   1.387   5.445 -1.1270 -0.9605  1.2660
    3MOL0     H  354   1.167   1.454   5.407 -0.6324 -1.9362 -1.6539
    3MOL0     H  355   1.189   1.254   5.532 -0.5182 -2.1510  0.8762
    3MOL0     H  356   1.076   1.314   5.651  1.9644  0.1980  1.4191
    3MOL0     H  357   1.243   1.488   5.722  0.2375 -1.0895  1.7561
    3MOL0     H  358   1.297   1.329   5.745 -0.1764 -0.6505  0.0135
    3MOL0     H  359   1.393   1.464   5.490  1.7184  0.9083  0.8786
    3MOL0     H  360   1.454   1.323   5.587  1.1376 -0.5820  4.5674
    3MOL0     H  361   1.606   1.497   5.598 -0.1359  2.4808 -0.5313
    3MOL0     H  362   1.476   1.615   5.599 -0.6761 -1.0627 -1.5678
    3MOL0     H  363   1.396   1.666   5.861  1.0052  2.2449  1.5077
    3MOL0     H  364   1.601   1.579   6.194 -0.9240 -3.0477 -2.1301
    3MOL0     H  365   1.455   1.660   6.149  0.9571  2.4926  2.7420
    3MOL0     H  366   1.716   1.767   6.056  0.7719  0.3246  0.5981
    3MOL0     H  367   1.561   1.838   6.028  2.0687 -1.1671 -2.2377
    3MOL0     H  368   1.541   1.920   6.270 -0.0820  0.0171 -0.9839
    3MOL0     H  369   1.675   1.799   6.302 -0.7184 -0.5956  0.3866
    3MOL0     H  370   1.826   1.936   6.183  0.4449  0.3151 -0.7873
    3MOL0     H  371   1.703   2.061   6.142 -0.8756  1.6862  1.8388
    3MOL0     H  372   1.759   2.230   6.528 -0.9126  3.2176 -0.2084
    3MOL0     H  373   1.941   2.439   6.642  2.3893 -1.0419 -1.1777
    3MOL0     H  374   1.768   2.441   6.609  0.0720 -0.7106  0.5296
    3MOL0     H  375   1.861   2.564   6.536 -0.3770 -0.7947 -0.5102
    3MOL0     H  376   2.069   2.828   6.211  0.8926 -3.3671 -2.4043
    3MOL0     H  377   2.214   3.023   6.246  0.1851 -0.4851 -0.2222
    3MOL0     H  378   2.464   3.085   6.120  3.4423 -2.3635  1.3253
    3MOL0     H  379   2.365   3.167   6.260 -0.7025 -2.2612  2.9393
    3MOL0     H  380   2.596   3.206   6.362  0.0346 -0.3120 -0.1448
    3MOL0     H  381   2.666   3.151   6.214  0.1860 -2.5319  0.8573
    3MOL0     H  382   2.479   3.392   6.269  2.2514  0.2934  1.0876
    3MOL0     H  383   2.519   3.324   6.101 -1.6427  0.4459  1.1079
    3MOL0     H  384   2.749   3.409   6.144 -0.7211  0.2767 -0.6652
    3MOL0     H  385   2.720   3.423   6.312 -1.2991 -1.1577  0.4000
    3MOL0     H  386   2.554   3.589   6.111 -0.0455 -0.5258  0.9033
    3MOL0     H  387   2.581   3.635   6.273 -0.9952  0.2736 -1.2982
    3MOL0     H  388   2.793   3.631   6.049  1.3133  0.6041 -0.4367
    3MOL0     H  389   2.818   3.670   6.229 -0.0762 -0.9309 -0.3118
    3MOL0     H  390   2.643   3.846   6.185  2.4401  0.2328  1.7964
    3MOL0     H  391   2.660   3.811   6.004  0.5945  0.1592 -1.2127
    3MOL0     H  392   2.789   3.989   6.035 -0.3488 -0.9548 -0.6374
    3MOL0     H  393   2.913   3.865   6.030 -0.4177  1.0763  0.0871
    3MOL0     H  394   2.524   2.755   6.357 -0.6427  3.1455  1.4445
    3MOL0     H  395   2.379   2.560   6.303 -2.2259 -1.7469 -2.1420
    3MOL0     H  396   2.047   2.351   6.146 -0.6733 -0.0842 -0.2934
    3MOL0     H  397   1.944   2.140   6.147 -3.3028  0.9577 -2.3950
    3MOL0     H  398   0.595   1.708   5.488 -1.1860  1.3475  1.3255
    3MOL0     H  399   0.347   1.707   5.416  2.2721 -0.4738  2.7683
    3MOL0     H  400   0.004   1.674   5.280 -0.3937 -1.1573 -0.1195
    3MOL0     H  401  -0.218   1.701   5.261  1.2233 -0.6257  0.2753
    3MOL0     H  402  -0.391   1.649   5.084 -2.6783 -0.6666 -1.3751
    3MOL0     H  403  -0.428   1.732   5.235 -0.6161  0.8428  0.1138
    3MOL0     H  404  -0.562   1.763   4.957  0.5687 -0.7085  0.7736
    3MOL0     H  405  -0.606   1.864   5.091 -1.8822 -0.5525 -1.6682
    3MOL0     H  406  -0.628   1.561   5.076 -0.1802  0.0223 -0.7421
    3MOL0     H  407  -0.662   1.668   5.229  0.3189  2.1875 -0.4413
    3MOL0     H  408  -0.810   1.659   4.965  1.0808 -0.1088 -0.4024
    3MOL0     H  409  -0.827   1.794   5.084  2.3747 -0.1081  2.6718
    3MOL0     H  410  -1.041   1.462   5.252  0.4740  1.5792  1.9295
    3MOL0     H  411  -0.169   1.981   4.937 -3.3150 -1.2595  0.8598
    3MOL0     H  412   0.182   1.974   4.926  0.0695  0.3105 -1.4659
    3MOL0     H  413   0.035   2.065   4.890  3.6503  0.5736 -1.6107
    3MOL0     H  414   0.134   2.102   5.032  0.3890 -0.7299 -0.9830
    4MOL0     O  415   5.393   5.170   2.420 -0.2388  0.8733 -0.4002
    4MOL0     C  416   5.295   5.240   2.436  0.7932  0.7550  0.2469
    4MOL0     O  417   5.282   5.350   2.514 -0.5320 -0.1484  0.2687
    4MOL0     C  418   5.387   5.399   2.584 -0.2533  0.0083  0.4510
    4MOL0     C  419   5.361   5.400   2.721  0.1392  0.3672 -0.7998
    4MOL0     C  420   5.453   5.459   2.812 -0.7057 -0.5357  0.3923
    4MOL0     C  421   5.576   5.502   2.772  0.5942 -0.3139 -0.2047
    4MOL0     O  422   5.649   5.559   2.873  0.3088 -0.8026  0.3542
    4MOL0     C  423   5.778   5.609   2.830 -0.3056  0.2288 -0.0010
    4MOL0     C  424   5.829   5.690   2.951 -0.1068  0.6479  0.6036
    4MOL0     C  425   5.845   5.614   3.082 -0.0724 -0.0402  0.1518
    4MOL0     C  426   5.987   5.548   3.074  0.1391 -0.6385 -0.9507
    4MOL0     C  427   6.024   5.462   3.193  0.7492 -0.9291  0.0144
    4MOL0     C  428   6.161   5.407   3.178 -0.0427 -0.3494  0.3628
    4MOL0     C  429   6.217   5.333   3.300  0.1397  0.5521  0.0391
    4MOL0     C  430   6.276   5.438   3.403  0.3767 -0.1675 -0.5524
    4MOL0     N  431   6.387   5.520   3.359 -0.2241  0.5845  0.1774
    4MOL0     C  432   6.519   5.502   3.391  0.0179 -0.1798 -0.0242
    4MOL0     C  433   6.576   5.614   3.344 -0.7778  1.0469 -0.2334
    4MOL0     C  434   6.724   5.643   3.364 -0.0061  0.5766  0.0679
    4MOL0     C  435   6.744   5.705   3.502 -0.2348 -0.1828  0.1306
    4MOL0     C  436   6.879   5.771   3.543  0.5508 -0.3421  0.1621
    4MOL0     C  437   6.988   5.667   3.535 -0.2821  0.0953 -0.0266
    4MOL0     O  438   7.106   5.708   3.613 -0.1493  0.0140 -0.2074
    4MOL0     C  439   7.226   5.660   3.563  0.3787  0.1665 -0.1177
    4MOL0     C  440   7.253   5.532   3.568  0.3836  0.1090  0.1974
    4MOL0     C  441   7.372   5.474   3.528  0.5913  0.3721  0.1354
    4MOL0     C  442   7.382   5.325   3.521 -0.3757  0.5324 -0.1721
    4MOL0     C  443   7.477   5.564   3.485 -0.6672 -0.2743 -0.8353
    4MOL0     C  444   7.623   5.532   3.453  0.1220 -0.0813 -0.1080
    4MOL0     O  445   7.711   5.629   3.419 -0.2299  0.4106  0.0617
    4MOL0     C  446   7.844   5.599   3.396 -0.6280 -0.4164 -0.1429
    4MOL0     C  447   7.950   5.675   3.444 -0.1011 -0.5896 -0.2769
    4MOL0     C  448   8.080   5.641   3.420  0.6494 -0.4677 -1.1309
    4MOL0     C  449   8.118   5.534   3.336 -0.0546  0.2256  0.0301
    4MOL0     O  450   8.245   5.510   3.297 -0.0624  0.3609  0.0951
    4MOL0     C  451   8.360   5.591   3.343 -0.7944  0.0690 -0.5941
    4MOL0     C  452   8.500   5.553   3.281 -0.5269  0.1753 -0.9344
    4MOL0     C  453   8.565   5.421   3.340 -0.0055  0.2422 -0.3076
    4MOL0     C  454   8.715   5.408   3.296  0.0709  0.3085 -0.6331
    4MOL0     C  455   8.784   5.302   3.376 -1.0453 -0.0233  0.3327
    4MOL0     C  456   8.937   5.299   3.338  0.3473  0.4506 -0.8145
    4MOL0     C  457   9.015   5.183   3.408 -0.4423 -0.1478 -0.6022
    4MOL0     C  458   9.168   5.203   3.421 -0.8028  0.2502  0.3060
    4MOL0    Cl  459   9.205   5.339   3.533  0.0668 -0.1595  0.1685
    4MOL0     C  460   8.015   5.452   3.286 -0.6547  0.1906 -0.0740
    4MOL0     C  461   7.886   5.487   3.316  0.1486  0.1511 -0.0739
    4MOL0     O  462   7.655   5.413   3.473  0.5301 -0.8458 -0.0775
    4MOL0     C  463   7.450   5.705   3.485 -0.8751  0.0305  0.2257
    4MOL0     C  464   7.324   5.751   3.526  0.8095  0.3790 -0.3789
    4MOL0     N  465   6.486   5.689   3.270 -0.0755  0.9710  0.1010
    4MOL0     N  466   6.371   5.637   3.291  0.1778 -0.3475  0.0222
    4MOL0     C  467   5.607   5.491   2.634  0.0156  0.0913 -0.1057
    4MOL0     C  468   5.517   5.442   2.544 -0.6233 -0.7219  0.3377
    4MOL0     C  469   5.182   5.194   2.359  0.3379  0.1453  0.4067
    4MOL0     C  470   5.191   5.142   2.224  0.1035 -0.0976 -0.2034
    4MOL0     C  471   5.082   5.101   2.148 -0.3898 -0.0246 -0.2188
    4MOL0     C  472   4.960   5.090   2.210 -0.1480 -0.5221  0.7500
    4MOL0     O  473   4.860   5.050   2.125  0.4043  1.0538 -0.5272
    4MOL0     C  474   4.730   5.037   2.183 -0.0130  0.5606  0.6596
    4MOL0     C  475   4.638   4.979   2.073 -0.1525  0.2602 -0.1168
    4MOL0     C  476   4.506   4.927   2.111  0.6333 -0.9545  0.6581
    4MOL0     C  477   4.519   4.817   2.205 -0.0126  0.1432  0.7121
    4MOL0     C  478   4.388   4.758   2.213  0.5343 -0.4617  0.1087
    4MOL0     C  479   4.271   4.725   2.222  0.0939 -0.1851  0.7946
    4MOL0     C  480   4.944   5.136   2.345  0.2898 -0.0994 -0.1365
    4MOL0     C  481   5.053   5.188   2.415  1.2004 -0.0888 -1.2309
    4MOL0     C  482   5.023   5.224   2.557 -0.3376 -0.1930 -0.4113
    4MOL0     H  483   5.269   5.361   2.762  0.3039 -0.9232 -1.6147
    4MOL0     H  484   5.423   5.464   2.916 -0.3453  0.3964  0.4610
    4MOL0     H  485   5.766   5.683   2.750  0.5511 -0.5951 -0.9130
    4MOL0     H  486   5.855   5.533   2.815  0.2941  0.9870 -0.8263
    4MOL0     H  487   5.926   5.737   2.931 -0.9004  2.1010  0.0317
    4MOL0     H  488   5.768   5.780   2.965  0.5561  1.2024  0.0323
    4MOL0     H  489   5.845   5.672   3.174 -1.5934 -1.8096  1.3521
    4MOL0     H  490   5.769   5.537   3.100 -0.5315  0.1080 -1.0603
    4MOL0     H  491   5.989   5.481   2.987 -0.0686 -1.2214 -0.5159
    4MOL0     H  492   6.071   5.617   3.075  1.1668 -1.8589 -0.2859
    4MOL0     H  493   5.951   5.382   3.212  1.5282 -1.4374  0.9512
    4MOL0     H  494   6.023   5.525   3.282 -1.7780  1.0408 -1.2709
    4MOL0     H  495   6.146   5.336   3.096  0.9169 -0.0839 -0.0572
    4MOL0     H  496   6.232   5.479   3.137 -0.5927 -0.9162 -1.6868
    4MOL0     H  497   6.294   5.266   3.260  0.3011 -0.1367  1.4635
    4MOL0     H  498   6.152   5.264   3.353 -0.7045  2.0867  1.0989
    4MOL0     H  499   6.194   5.503   3.434 -0.9787 -2.7718  1.6393
    4MOL0     H  500   6.311   5.369   3.480 -0.5091 -1.5380 -1.3401
    4MOL0     H  501   6.559   5.411   3.433 -1.3138 -0.5868  0.4109
    4MOL0     H  502   6.752   5.720   3.292 -0.0562  0.5466  0.0158
    4MOL0     H  503   6.792   5.559   3.351  1.8513  1.7313  1.7962
    4MOL0     H  504   6.665   5.779   3.520 -0.7713 -0.8380  0.5180
    4MOL0     H  505   6.728   5.628   3.577  0.4964 -0.4952 -0.0258
    4MOL0     H  506   6.902   5.862   3.488  1.4123 -0.0599  0.9633
    4MOL0     H  507   6.870   5.797   3.648  0.8697  1.1683 -0.1713
    4MOL0     H  508   6.961   5.565   3.566  0.1881 -1.2833 -3.6404
    4MOL0     H  509   7.006   5.660   3.427 -2.2154 -1.2097 -0.3293
    4MOL0     H  510   7.177   5.463   3.605 -0.5714  0.5313 -0.9314
    4MOL0     H  511   7.447   5.291   3.602  1.4701  3.2520 -0.4071
    4MOL0     H  512   7.428   5.296   3.426  0.5329  0.4380  0.2865
    4MOL0     H  513   7.281   5.283   3.528  0.1509 -0.5682  1.2367
    4MOL0     H  514   7.918   5.758   3.506 -1.8758 -1.8974  0.6229
    4MOL0     H  515   8.148   5.714   3.463  0.9742 -0.4078 -1.7203
    4MOL0     H  516   8.336   5.695   3.318  0.0968  0.3751 -0.2246
    4MOL0     H  517   8.373   5.583   3.452  1.0153  0.4476 -0.7539
    4MOL0     H  518   8.499   5.550   3.172  0.7372  4.6294 -1.2643
    4MOL0     H  519   8.567   5.635   3.308 -1.0384  0.2894  0.0165
    4MOL0     H  520   8.515   5.327   3.317  0.2197 -0.2811  1.2066
    4MOL0     H  521   8.576   5.434   3.448  1.2427  2.2869 -0.6225
    4MOL0     H  522   8.767   5.503   3.312 -0.8739  0.3547  3.4515
    4MOL0     H  523   8.711   5.377   3.191 -0.1839  0.9566 -0.8177
    4MOL0     H  524   8.763   5.312   3.483  0.0220  2.2612  0.3744
    4MOL0     H  525   8.760   5.199   3.348  2.1395 -1.0820  1.1222
    4MOL0     H  526   8.977   5.393   3.377  0.3167 -0.3891  1.3957
    4MOL0     H  527   8.949   5.300   3.230  0.2605 -0.8986 -0.8626
    4MOL0     H  528   9.005   5.094   3.346  4.0029  2.1257 -5.4971
    4MOL0     H  529   8.970   5.163   3.506 -2.0566  1.4694 -0.9462
    4MOL0     H  530   9.207   5.219   3.320 -0.3121 -2.0290  0.0816
    4MOL0     H  531   9.204   5.104   3.450 -0.6353  0.3432  0.4144
    4MOL0     H  532   8.044   5.361   3.234  2.4465 -0.1843  2.0361
    4MOL0     H  533   7.815   5.427   3.259 -2.2031  1.4588  1.3041
    4MOL0     H  534   7.516   5.786   3.454 -0.3700  0.9278  3.3783
    4MOL0     H  535   7.302   5.857   3.530 -2.4341 -0.1699 -1.3263
    4MOL0     H  536   5.699   5.536   2.599 -1.1835  2.5985 -0.2547
    4MOL0     H  537   5.537   5.445   2.438  0.7426  1.2210  0.5905
    4MOL0     H  538   5.292   5.150   2.183 -0.6532 -0.2494 -2.2003
    4MOL0     H  539   5.087   5.060   2.048 -0.1518 -3.4097  1.0533
    4MOL0     H  540   4.748   4.973   2.270  0.5061 -0.4382 -0.1571
    4MOL0     H  541   4.697   5.135   2.219 -1.0809 -0.5607  2.9494
    4MOL0     H  542   4.691   4.900   2.019  1.1422  0.0765  1.3443
    4MOL0     H  543   4.628   5.066   2.007  2.0587  0.6199 -0.0440
    4MOL0     H  544   4.459   5.008   2.166 -0.0133 -1.1080  0.3358
    4MOL0     H  545   4.452   4.910   2.018 -1.6032  0.8236  1.5472
    4MOL0     H  546   4.543   4.851   2.306 -4.7425  0.8405  1.8797
    4MOL0     H  547   4.575   4.734   2.162 -0.1689  0.9436 -1.1318
    4MOL0     H  548   4.169   4.694   2.219  0.8755 -3.0823  1.1526
    4MOL0     H  549   4.846   5.138   2.393  1.1448 -0.3421  1.6902
    4MOL0     H  550   5.025   5.331   2.582  3.5361 -0.5306  1.4727
    4MOL0     H  551   4.924   5.190   2.587 -1.2183  2.7485  0.3520
    4MOL0     H  552   5.099   5.175   2.619 -2.5548 -0.2052  2.4980
    5MOL0     O  553   0.938   7.748  10.767 -0.8023  0.1856 -0.1396
    5MOL0     C  554   0.878   7.748  10.662  0.3548 -0.0620  0.2740
    5MOL0     O  555   0.928   7.781  10.537  0.2204 -0.0609  0.3426
    5MOL0     C  556   1.066   7.806  10.525  0.3154  0.0942  0.6083
    5MOL0     C  557   1.123   7.920  10.578 -0.6167 -0.0845 -0.1459
    5MOL0     C  558   1.260   7.942  10.564  0.1560 -0.1774  0.3896
    5MOL0     C  559   1.343   7.864  10.487 -1.1465  0.6307 -0.7031
    5MOL0     O  560   1.473   7.901  10.485 -0.5341  0.7697 -0.0557
    5MOL0     C  561   1.572   7.803  10.442  0.9205 -0.3244 -0.2331
    5MOL0     C  562   1.715   7.872  10.458 -0.4861  0.3588 -0.2664
    5MOL0     C  563   1.821   7.760  10.462 -0.2629  0.4187  0.4186
    5MOL0     C  564   1.960   7.820  10.483  1.2038 -0.5232  0.0277
    5MOL0     C  565   2.048   7.714  10.550 -0.6102  1.1921 -0.5774
    5MOL0     C  566   2.187   7.770  10.592  0.6163  0.3236  0.7839
    5MOL0     C  567   2.263   7.661  10.664  0.3853 -0.0254  0.5514
    5MOL0     C  568   2.401   7.711  10.721  0.5197 -0.2981  0.1826
    5MOL0     N  569   2.495   7.758  10.622  0.9795  0.3842 -0.3420
    5MOL0     C  570   2.551   7.667  10.531  0.3497  0.1969 -0.4799
    5MOL0     C  571   2.628   7.743  10.452  0.8062  0.2547 -0.1313
    5MOL0     C  572   2.700   7.683  10.335 -0.9608  1.2019 -1.0254
    5MOL0     C  573   2.837   7.645  10.383  0.0262 -0.6017  0.7882
    5MOL0     C  574   2.907   7.551  10.278  0.4468 -0.2936  0.2711
    5MOL0     C  575   3.012   7.457  10.342 -0.4168  0.0237 -0.1971
    5MOL0     O  576   3.096   7.531  10.436  0.1420 -0.2863  0.0990
    5MOL0     C  577   3.232   7.507  10.443  0.5397  0.0872 -0.2024
    5MOL0     C  578   3.286   7.399  10.376  0.6620  0.1425  0.4248
    5MOL0     C  579   3.424   7.370  10.368  0.9504  0.2274  0.0234
    5MOL0     C  580   3.476   7.250  10.300  0.9956  0.2400  0.3246
    5MOL0     C  581   3.511   7.465  10.430 -0.2212  0.4744  0.7030
    5MOL0     C  582   3.658   7.444  10.444  0.1107  0.1995 -0.1137
    5MOL0     O  583   3.727   7.408  10.337  0.2460  0.3738 -0.4306
    5MOL0     C  584   3.857   7.372  10.349 -0.3420 -0.6892  0.3192
    5MOL0     C  585   3.910   7.254  10.280 -0.5962  0.2441 -0.4674
    5MOL0     C  586   4.051   7.220  10.277 -0.1911 -0.2957 -0.6791
    5MOL0     C  587   4.136   7.314  10.324 -0.3657  0.1751  0.0673
    5MOL0     O  588   4.269   7.269  10.327  0.3104 -0.6154  0.2169
    5MOL0     C  589   4.370   7.372  10.322 -0.1204 -0.9617 -0.3685
    5MOL0     C  590   4.497   7.315  10.265 -0.5492 -0.2969  0.1490
    5MOL0     C  591   4.607   7.424  10.247 -0.9622  0.3236 -0.1262
    5MOL0     C  592   4.654   7.481  10.383 -0.2714 -0.2179 -0.2633
    5MOL0     C  593   4.749   7.603  10.370 -0.1145  0.3855 -0.1296
    5MOL0     C  594   4.876   7.559  10.312  0.1479 -0.1764 -0.0932
    5MOL0     C  595   4.994   7.650  10.341  0.0869  0.7367 -0.0739
    5MOL0     C  596   5.118   7.611  10.259  0.3508 -0.0256  0.2751
    5MOL0    Cl  597   5.261   7.638  10.368 -0.1702 -0.1111  0.1471
    5MOL0     C  598   4.091   7.440  10.371 -0.0213 -0.1911  0.4596
    5MOL0     C  599   3.959   7.461  10.390  0.1016  0.0194  0.4359
    5MOL0     O  600   3.717   7.492  10.539 -0.1030  0.3629 -0.3275
    5MOL0     C  601   3.452   7.576  10.494  0.1593  0.0631 -0.1071
    5MOL0     C  602   3.310   7.597  10.505 -0.9326 -0.5646 -0.0199
    5MOL0     N  603   2.618   7.873  10.492 -0.5416  0.2309 -0.3522
    5MOL0     N  604   2.537   7.882  10.593  0.2826 -0.2857  0.3223
    5MOL0     C  605   1.290   7.752  10.428  1.0350  0.0696  0.1029
    5MOL0     C  606   1.154   7.718  10.449  0.6290 -0.5132 -0.4469
    5MOL0     C  607   0.734   7.723  10.673 -0.3333 -0.3139  0.4151
    5MOL0     C  608   0.675   7.753  10.805  0.1490  0.9445 -0.0944
    5MOL0     C  609   0.537   7.725  10.825  0.4370 -0.2754 -0.2213
    5MOL0     C  610   0.457   7.681  10.716 -0.2022  0.9868  1.2369
    5MOL0     O  611   0.330   7.646  10.729 -0.6207  0.3567  0.6079
    5MOL0     C  612   0.269   7.644  10.857  0.5741  0.5312  0.4337
    5MOL0     C  613   0.160   7.544  10.859  0.2663  0.2052  0.1056
    5MOL0     C  614   0.115   7.526  11.008  0.2518 -0.0977 -0.7166
    5MOL0     C  615  -0.024   7.452  11.010  0.1056 -0.2396  1.4029
    5MOL0     C  616  -0.073   7.429  11.150  0.9306 -0.4700  0.4064
    5MOL0     C  617  -0.112   7.426  11.267 -0.3094 -0.0293  0.6889
    5MOL0     C  618   0.516   7.657  10.594  0.3357  0.9744 -0.1979
    5MOL0     C  619   0.657   7.670  10.574 -0.7712 -0.5289  0.8393
    5MOL0     C  620   0.710   7.649  10.437 -0.0147  0.6022  0.0266
    5MOL0     H  621   1.053   7.969  10.644 -1.1696 -1.2123  0.1164
    5MOL0     H  622   1.296   8.021  10.629  0.1688 -1.1030  1.5562
    5MOL0     H  623   1.542   7.788  10.338 -2.3614 -1.4191  0.7567
    5MOL0     H  624   1.565   7.714  10.506 -1.9137 -0.6273 -0.8283
    5MOL0     H  625   1.731   7.945  10.378  0.2972 -0.2784 -0.7014
    5MOL0     H  626   1.735   7.921  10.554 -2.2327  2.0053 -0.6905
    5MOL0     H  627   1.793   7.685  10.536  3.6400 -1.0974  0.5771
    5MOL0     H  628   1.829   7.705  10.368 -0.5549  0.4075  0.3990
    5MOL0     H  629   1.998   7.867  10.392  0.5599 -2.5575 -1.3473
    5MOL0     H  630   1.951   7.902  10.555  1.4947  0.2529 -0.7951
    5MOL0     H  631   2.063   7.634  10.477  0.3435  0.5019  0.3563
    5MOL0     H  632   1.991   7.686  10.639 -1.4469  1.7708 -0.9140
    5MOL0     H  633   2.237   7.810  10.503 -0.5451  3.1175  1.2941
    5MOL0     H  634   2.171   7.856  10.657 -1.1677  1.6000 -1.2022
    5MOL0     H  635   2.275   7.569  10.608  1.9945  0.8190 -0.5721
    5MOL0     H  636   2.211   7.632  10.756 -3.3479  0.4290 -1.2122
    5MOL0     H  637   2.373   7.790  10.791 -0.8526  0.1187 -0.8165
    5MOL0     H  638   2.442   7.629  10.782 -0.2051 -0.6650  0.1803
    5MOL0     H  639   2.540   7.564  10.499 -2.1130 -0.1201  1.0656
    5MOL0     H  640   2.712   7.754  10.253  0.6789 -0.0615 -1.9562
    5MOL0     H  641   2.640   7.606  10.286 -1.0480 -0.1687  1.0696
    5MOL0     H  642   2.897   7.734  10.400 -0.1430 -0.3719  0.1844
    5MOL0     H  643   2.818   7.594  10.478  0.5461 -1.9064  0.2255
    5MOL0     H  644   2.829   7.492  10.228 -1.3159  0.3470  2.1097
    5MOL0     H  645   2.964   7.601  10.199  1.8976 -0.1694  1.3761
    5MOL0     H  646   2.972   7.371  10.397  2.5074  0.4032  2.8700
    5MOL0     H  647   3.065   7.408  10.260 -0.3839 -1.2359  0.5577
    5MOL0     H  648   3.217   7.320  10.350 -1.7133  1.4869  2.2907
    5MOL0     H  649   3.580   7.229  10.327  1.6833  1.2859 -1.3505
    5MOL0     H  650   3.485   7.263  10.191 -3.3870  1.0253 -0.1403
    5MOL0     H  651   3.427   7.153  10.314  2.9018 -1.3439 -2.9158
    5MOL0     H  652   3.836   7.188  10.236 -2.2293  1.4697  0.3049
    5MOL0     H  653   4.078   7.123  10.238  1.8359  0.0106 -0.1527
    5MOL0     H  654   4.346   7.459  10.260  1.1794  0.7370  1.4088
    5MOL0     H  655   4.386   7.404  10.425 -0.9354 -1.7251  0.0129
    5MOL0     H  656   4.531   7.228  10.322  0.4006 -1.2399 -1.7688
    5MOL0     H  657   4.486   7.271  10.166  2.6250  0.2999 -0.5912
    5MOL0     H  658   4.578   7.501  10.175 -0.6054  1.3697  0.8280
    5MOL0     H  659   4.691   7.366  10.208 -0.4664  0.6678  0.4295
    5MOL0     H  660   4.692   7.408  10.455  1.0165  1.9539  1.4277
    5MOL0     H  661   4.565   7.523  10.431  0.0139  0.5510 -0.3853
    5MOL0     H  662   4.704   7.683  10.310 -2.0751  2.0910  3.2818
    5MOL0     H  663   4.766   7.642  10.471  0.7839  3.7165 -1.4204
    5MOL0     H  664   4.872   7.545  10.203  0.2649 -1.3490  0.0403
    5MOL0     H  665   4.892   7.456  10.347 -0.7191 -0.8637 -1.6137
    5MOL0     H  666   5.032   7.624  10.440  1.2838  1.5102 -0.3031
    5MOL0     H  667   4.984   7.758  10.327  0.9417  1.2698  2.7677
    5MOL0     H  668   5.128   7.680  10.175  1.3151  0.4611  0.7694
    5MOL0     H  669   5.106   7.504  10.235  0.2075  0.2847 -1.1398
    5MOL0     H  670   4.159   7.513  10.414  0.0002 -1.2470  2.3394
    5MOL0     H  671   3.931   7.561  10.422  0.3586 -0.4267  2.1647
    5MOL0     H  672   3.520   7.641  10.547  0.3723 -0.9762  0.9162
    5MOL0     H  673   3.267   7.683  10.554 -2.0701 -0.7444 -0.6544
    5MOL0     H  674   1.351   7.680  10.374  1.2097  0.1650  0.1729
    5MOL0     H  675   1.115   7.631  10.397 -2.7466  1.4012 -1.4022
    5MOL0     H  676   0.729   7.780  10.895  1.2299  0.1805 -0.4936
    5MOL0     H  677   0.509   7.741  10.928  2.8283 -3.6874  1.1096
    5MOL0     H  678   0.334   7.606  10.937 -0.7683 -1.0539  0.8390
    5MOL0     H  679   0.225   7.741  10.885  0.0264  0.6977 -0.9330
    5MOL0     H  680   0.196   7.451  10.814 -0.7462 -0.6217  0.9350
    5MOL0     H  681   0.075   7.584  10.802 -0.1283 -0.9504 -0.1476
    5MOL0     H  682   0.188   7.461  11.058  0.3532 -0.6799 -1.6047
    5MOL0     H  683   0.105   7.617  11.067  0.7517 -2.5234  3.5826
    5MOL0     H  684  -0.021   7.358  10.955 -1.2838  1.0879 -1.1366
    5MOL0     H  685  -0.096   7.511  10.953 -0.0249 -2.6308 -1.1083
    5MOL0     H  686  -0.124   7.401  11.371  0.4963  0.1675  0.8404
    5MOL0     H  687   0.456   7.613  10.516  0.3710 -0.0353  0.3352
    5MOL0     H  688   0.720   7.747  10.390 -1.8349  2.2448  2.7629
    5MOL0     H  689   0.803   7.592  10.427  0.1015  0.6477  0.7942
    5MOL0     H  690   0.646   7.577  10.386  1.4993 -0.6431 -0.1931
    6MOL0     O  691   7.332  10.980   3.269 -0.1351  0.2576  0.1033
    6MOL0     C  692   7.263  10.909   3.198 -0.2613  0.1455  1.2130
    6MOL0     O  693   7.310  10.799   3.130 -0.5091  0.4205  0.7827
    6MOL0     C  694   7.441  10.761   3.132 -0.7622 -0.6608 -0.0299
    6MOL0     C  695   7.544  10.823   3.062 -0.5759  0.0748 -0.3045
    6MOL0     C  696   7.677  10.778   3.071  0.7456  0.2496  0.0062
    6MOL0     C  697   7.714  10.672   3.160  1.1219 -1.3781 -0.5979
    6MOL0     O  698   7.840  10.630   3.159 -0.1093 -0.2488  0.7949
    6MOL0     C  699   7.889  10.544   3.259  0.2191  0.2372 -0.2407
    6MOL0     C  700   8.045  10.564   3.270  0.5208  0.7456  0.1146
    6MOL0     C  701   8.117  10.526   3.145  0.5498  0.0105  0.4114
    6MOL0     C  702   8.268  10.549   3.163  0.1813  0.1222  0.5332
    6MOL0     C  703   8.351  10.524   3.043 -0.3479  0.5207 -0.2535
    6MOL0     C  704   8.500  10.525   3.079 -0.0731 -0.0365 -0.1910
    6MOL0     C  705   8.555  10.390   3.117  0.7097 -0.5655  0.6637
    6MOL0     C  706   8.667  10.406   3.210 -0.0428 -0.4890 -0.4883
    6MOL0     N  707   8.765  10.304   3.186 -0.2094  0.4786  0.2087
    6MOL0     C  708   8.747  10.172   3.221  0.3993 -0.3690 -0.5895
    6MOL0     C  709   8.863  10.105   3.178 -0.5557 -0.9476 -0.5118
    6MOL0     C  710   8.894   9.963   3.186  0.4563 -0.0276 -0.6015
    6MOL0     C  711   9.046   9.912   3.165 -0.1030  0.1408  0.0029
    6MOL0     C  712   9.067   9.760   3.167 -0.0036  0.1868 -0.3476
    6MOL0     C  713   9.212   9.719   3.161  0.2351  0.2867 -0.1217
    6MOL0     O  714   9.288   9.790   3.061 -0.0029  0.7675 -0.6779
    6MOL0     C  715   9.418   9.817   3.088 -0.1229 -0.4169  0.1951
    6MOL0     C  716   9.496   9.731   3.175 -0.4879 -0.2598 -0.7286
    6MOL0     C  717   9.633   9.750   3.200  0.1446 -0.5379  0.0695
    6MOL0     C  718   9.709   9.645   3.278 -0.0742 -0.6732  0.4453
    6MOL0     C  719   9.698   9.868   3.149  0.3968 -0.0294  0.0962
    6MOL0     C  720   9.841   9.911   3.163 -1.0963  0.5728 -0.8098
    6MOL0     O  721   9.940   9.815   3.218  0.5149  0.1124  0.5494
    6MOL0     C  722  10.069   9.854   3.186 -0.2329  0.2559 -0.0283
    6MOL0     C  723  10.116   9.876   3.054 -0.4810  0.1917  0.8601
    6MOL0     C  724  10.250   9.903   3.032  0.4364  0.0247  0.3502
    6MOL0     C  725  10.338   9.884   3.136 -0.1519  0.0368 -0.9856
    6MOL0     O  726  10.463   9.929   3.107  1.4031  0.1262  0.2752
    6MOL0     C  727  10.573   9.837   3.116 -0.7598 -0.0260  0.0573
    6MOL0     C  728  10.714   9.893   3.086  0.6062  0.6871 -0.5645
    6MOL0     C  729  10.817   9.783   3.061 -0.4701  0.1498  0.6139
    6MOL0     C  730  10.961   9.830   3.075  0.4611 -0.6067 -0.2331
    6MOL0     C  731  11.064   9.715   3.056  0.4495 -0.4595  0.8418
    6MOL0     C  732  11.053   9.638   2.925 -0.3180  0.1834  0.4024
    6MOL0     C  733  11.180   9.564   2.878  0.0262  0.2371 -0.7898
    6MOL0     C  734  11.203   9.435   2.951  0.5804  0.0367  0.2664
    6MOL0    Cl  735  11.067   9.333   2.960 -0.0793  0.1358  0.3780
    6MOL0     C  736  10.297   9.857   3.270 -0.5731  0.9912  0.3397
    6MOL0     C  737  10.161   9.845   3.293 -0.4033  0.6723  0.2840
    6MOL0     O  738   9.873  10.022   3.128 -0.2740 -0.1477 -0.0310
    6MOL0     C  739   9.616   9.946   3.071  0.1367 -0.3220  0.6832
    6MOL0     C  740   9.479   9.929   3.042 -0.5068 -0.4502 -0.1341
    6MOL0     N  741   8.954  10.199   3.127  0.3957  0.1675 -0.2026
    6MOL0     N  742   8.898  10.316   3.142  0.2400  0.1229  0.3927
    6MOL0     C  743   7.613  10.614   3.239 -0.1314  0.1591  0.2268
    6MOL0     C  744   7.482  10.666   3.230  0.7778 -0.0611  0.2183
    6MOL0     C  745   7.128  10.952   3.179  0.1485 -0.2927  0.0526
    6MOL0     C  746   7.054  10.869   3.094  0.1448 -0.4874 -0.5885
    6MOL0     C  747   6.920  10.895   3.068 -0.1046  0.1887  0.2938
    6MOL0     C  748   6.856  10.997   3.130  0.6569 -1.0640 -0.0957
    6MOL0     O  749   6.726  11.024   3.115  0.2746 -0.4313 -0.5545
    6MOL0     C  750   6.635  10.911   3.133 -0.5696 -0.3074  0.1881
    6MOL0     C  751   6.600  10.854   2.993  0.4723 -0.2337 -0.3330
    6MOL0     C  752   6.537  10.711   3.009  0.6923 -0.3499 -0.3372
    6MOL0     C  753   6.637  10.607   3.071  0.7272 -0.2310  0.0926
    6MOL0     C  754   6.617  10.592   3.212  0.4218 -0.4389  0.2094
    6MOL0     C  755   6.612  10.583   3.333  0.2445  0.1100  0.4619
    6MOL0     C  756   6.926  11.080   3.216  0.3874 -0.4815  0.3504
    6MOL0     C  757   7.063  11.066   3.236  0.9325  0.1780 -0.1142
    6MOL0     C  758   7.127  11.184   3.308  0.7952 -0.1269 -0.6824
    6MOL0     H  759   7.526  10.896   2.984  2.7433  0.3726 -0.9337
    6MOL0     H  760   7.758  10.822   3.014 -1.2961  1.3127 -2.2314
    6MOL0     H  761   7.865  10.444   3.222  2.1198  0.6158 -2.7327
    6MOL0     H  762   7.843  10.551   3.358 -0.6311  1.2728 -0.6929
    6MOL0     H  763   8.065  10.670   3.287  1.9231  0.3364  1.2223
    6MOL0     H  764   8.086  10.502   3.350  1.7629 -0.1062 -1.1210
    6MOL0     H  765   8.105  10.418   3.128 -1.8195  0.5435 -1.8490
    6MOL0     H  766   8.068  10.578   3.063 -1.6300  0.0394  1.6619
    6MOL0     H  767   8.274  10.657   3.181  0.8507  0.0760  0.6156
    6MOL0     H  768   8.298  10.497   3.255 -0.7376 -0.8327  0.3019
    6MOL0     H  769   8.334  10.609   2.976 -2.0274  3.3985  3.4765
    6MOL0     H  770   8.315  10.435   2.989  2.0806  0.5500 -2.0733
    6MOL0     H  771   8.557  10.567   2.996 -3.1026  0.7323 -2.0175
    6MOL0     H  772   8.524  10.601   3.153  1.0237  1.0521 -1.6054
    6MOL0     H  773   8.583  10.336   3.026  1.9451  1.6667 -0.3808
    6MOL0     H  774   8.485  10.327   3.172  0.1183 -0.7419 -0.2689
    6MOL0     H  775   8.718  10.502   3.198  1.2375 -1.0144  0.4528
    6MOL0     H  776   8.634  10.393   3.313 -2.2081 -1.9110 -1.2805
    6MOL0     H  777   8.666  10.132   3.282  0.7823  0.3338  0.4023
    6MOL0     H  778   8.831   9.920   3.107 -0.1551 -2.1461  0.9488
    6MOL0     H  779   8.870   9.922   3.284  0.1236  3.2873  0.8473
    6MOL0     H  780   9.083   9.938   3.066  1.0725 -1.7210 -0.1024
    6MOL0     H  781   9.106   9.958   3.244 -0.6162  1.8578 -0.5756
    6MOL0     H  782   9.025   9.726   3.263 -0.4319 -0.2235 -0.6788
    6MOL0     H  783   9.018   9.709   3.084  1.7768 -1.2225 -0.5867
    6MOL0     H  784   9.262   9.727   3.258 -1.7136 -0.0337  0.9595
    6MOL0     H  785   9.221   9.611   3.142  3.0710  0.0057  2.0094
    6MOL0     H  786   9.448   9.645   3.219 -0.3501  1.0837  2.2991
    6MOL0     H  787   9.796   9.610   3.222 -0.1233  0.1050 -0.1342
    6MOL0     H  788   9.657   9.550   3.297 -1.9034  0.8044  3.6016
    6MOL0     H  789   9.742   9.687   3.373  1.0026 -2.0252  0.6993
    6MOL0     H  790  10.046   9.879   2.971  2.0957 -2.2090 -1.5989
    6MOL0     H  791  10.290   9.920   2.932 -2.7644 -0.0806 -1.0688
    6MOL0     H  792  10.579   9.815   3.222  4.0486  1.3115  0.2726
    6MOL0     H  793  10.562   9.745   3.057  1.5221  0.0522 -0.5900
    6MOL0     H  794  10.706   9.960   3.000  4.4331 -0.6521 -2.1662
    6MOL0     H  795  10.749   9.957   3.168 -0.1184  1.2617 -0.6907
    6MOL0     H  796  10.792   9.736   2.966  0.2866  0.2627  0.3465
    6MOL0     H  797  10.807   9.704   3.136 -1.1999 -1.3830 -1.0411
    6MOL0     H  798  10.972   9.880   3.171 -2.5827  1.0376 -0.6229
    6MOL0     H  799  10.984   9.910   3.003 -0.0789  2.2059  2.4915
    6MOL0     H  800  11.156   9.774   3.052 -0.6678  1.4321  1.7459
    6MOL0     H  801  11.074   9.647   3.141 -0.9610 -1.8755 -0.0557
    6MOL0     H  802  11.024   9.705   2.843  1.0070  1.3490  0.8412
    6MOL0     H  803  10.975   9.564   2.941  0.2876 -0.5245  0.1402
    6MOL0     H  804  11.272   9.620   2.899  0.5328 -0.4251 -1.2239
    6MOL0     H  805  11.170   9.554   2.770  0.4647 -0.2349 -0.7933
    6MOL0     H  806  11.223   9.466   3.054 -0.1482  0.0953  0.3965
    6MOL0     H  807  11.284   9.376   2.906 -1.0359 -1.1277 -1.3037
    6MOL0     H  808  10.365   9.863   3.354  3.6997  2.3836 -2.8024
    6MOL0     H  809  10.129   9.824   3.395  0.2548 -0.2030  0.3295
    6MOL0     H  810   9.665  10.028   3.018  1.3374 -1.5824 -0.2181
    6MOL0     H  811   9.425   9.985   2.966 -2.5016 -2.3071 -0.1988
    6MOL0     H  812   7.624  10.532   3.309  0.7372 -0.0329 -0.1178
    6MOL0     H  813   7.402  10.637   3.298  0.2799  0.6479 -0.0520
    6MOL0     H  814   7.099  10.786   3.041 -0.0712 -0.9340 -0.0766
    6MOL0     H  815   6.873  10.834   2.991  1.6149  1.5508 -1.9636
    6MOL0     H  816   6.678  10.832   3.196  2.6370 -0.1050 -1.5098
    6MOL0     H  817   6.542  10.934   3.184 -0.7927 -2.2662  0.7545
    6MOL0     H  818   6.685  10.843   2.924  1.6709  3.0788  0.4722
    6MOL0     H  819   6.526  10.918   2.944  1.2667 -1.2839 -3.1278
    6MOL0     H  820   6.445  10.711   3.068  1.2138  4.4132  0.8880
    6MOL0     H  821   6.527  10.671   2.908  0.9249  1.0754 -0.9392
    6MOL0     H  822   6.739  10.637   3.043  0.9571  0.6896  1.8261
    6MOL0     H  823   6.624  10.506   3.030  1.8622  0.3598 -1.8353
    6MOL0     H  824   6.598  10.553   3.435 -0.6853  0.7720  0.5380
    6MOL0     H  825   6.880  11.154   3.281  0.6048  0.2152 -0.2778
    6MOL0     H  826   7.163  11.152   3.406 -0.7189  0.3162  0.0581
    6MOL0     H  827   7.210  11.217   3.246  1.2940 -1.5072 -0.7934
    6MOL0     H  828   7.051  11.259   3.331  0.5414 -1.0428  1.8603
    7MOL0     O  829   3.836   0.631   8.690 -0.2152 -0.4569 -0.4570
    7MOL0     C  830   3.800   0.746   8.708  0.6122 -0.8771  0.8310
    7MOL0     O  831   3.872   0.841   8.769 -0.1552 -0.5230  0.0277
    7MOL0     C  832   3.980   0.806   8.840  0.1446  0.1541 -0.2374
    7MOL0     C  833   3.962   0.754   8.967 -0.1282 -0.6229  0.2312
    7MOL0     C  834   4.075   0.731   9.049 -0.0713 -0.1356  0.9499
    7MOL0     C  835   4.202   0.761   9.009  0.3420 -0.6340  0.4796
    7MOL0     O  836   4.293   0.728   9.097  0.8057  0.5611  0.1802
    7MOL0     C  837   4.418   0.792   9.095 -0.2480  0.3156  0.1563
    7MOL0     C  838   4.506   0.747   9.222 -0.2281  0.5052  0.5826
    7MOL0     C  839   4.515   0.597   9.246 -0.0605  0.0778 -0.9458
    7MOL0     C  840   4.598   0.535   9.131 -0.3733 -0.0940 -0.1068
    7MOL0     C  841   4.577   0.377   9.136 -0.1400  0.4860 -0.7671
    7MOL0     C  842   4.655   0.308   9.023  0.2561 -0.0713  0.5232
    7MOL0     C  843   4.803   0.338   9.022  1.1673  0.1755 -0.9513
    7MOL0     C  844   4.874   0.261   8.915  1.1271  1.1799  0.2386
    7MOL0     N  845   4.827   0.300   8.778  0.0456  0.1647 -0.5314
    7MOL0     C  846   4.852   0.415   8.702 -0.3858  0.3579 -0.0680
    7MOL0     C  847   4.766   0.396   8.595 -0.4533 -0.1958  0.3333
    7MOL0     C  848   4.746   0.483   8.474  0.6898 -0.5065  0.1837
    7MOL0     C  849   4.610   0.475   8.393 -0.1733 -0.0431  0.1494
    7MOL0     C  850   4.596   0.579   8.279 -0.2109 -1.1407  0.3271
    7MOL0     C  851   4.610   0.511   8.139  0.9677  0.4852 -0.1765
    7MOL0     O  852   4.739   0.446   8.132 -0.0327  0.3655 -0.4089
    7MOL0     C  853   4.849   0.516   8.087  0.3267  0.8526  0.8487
    7MOL0     C  854   4.977   0.453   8.065  0.0409 -0.4103  0.6377
    7MOL0     C  855   5.096   0.524   8.024 -0.8073 -0.9209 -1.2975
    7MOL0     C  856   5.225   0.443   8.009  0.3427 -0.0829 -0.4500
    7MOL0     C  857   5.089   0.663   8.004  0.4980 -0.4542 -0.4789
    7MOL0     C  858   5.197   0.756   7.969 -0.2110  0.2102  0.1539
    7MOL0     O  859   5.157   0.872   7.911  0.1159 -0.1642  0.0441
    7MOL0     C  860   5.226   0.986   7.926 -0.2205  0.2540  0.0986
    7MOL0     C  861   5.309   1.020   8.035  0.6666  0.8476  0.4697
    7MOL0     C  862   5.374   1.142   8.032  0.0894 -0.2288 -0.5580
    7MOL0     C  863   5.370   1.227   7.920 -0.5031  0.1926  0.2641
    7MOL0     O  864   5.450   1.343   7.912  0.3793 -1.0152 -0.9521
    7MOL0     C  865   5.464   1.421   7.793  0.2453 -0.8339 -0.2250
    7MOL0     C  866   5.555   1.344   7.688  1.1167  1.1316 -0.5200
    7MOL0     C  867   5.589   1.437   7.572  0.2487  0.2890  0.7982
    7MOL0     C  868   5.668   1.564   7.606 -0.0136  0.2060  0.1221
    7MOL0     C  869   5.715   1.636   7.487  0.2932 -0.7445  0.6962
    7MOL0     C  870   5.603   1.662   7.379 -0.0532  0.2746 -0.4148
    7MOL0     C  871   5.636   1.775   7.283 -0.0634 -0.1189  0.4432
    7MOL0     C  872   5.760   1.752   7.204  0.2399 -0.2059  0.5798
    7MOL0    Cl  873   5.732   1.612   7.098 -0.3511  0.1677 -0.0256
    7MOL0     C  874   5.279   1.198   7.816  0.4664  0.2873 -0.6006
    7MOL0     C  875   5.206   1.075   7.822 -0.0814 -0.4872  0.4166
    7MOL0     O  876   5.309   0.727   8.003 -0.1118  0.8278 -0.0011
    7MOL0     C  877   4.961   0.717   8.022  0.1236 -0.7394 -0.5477
    7MOL0     C  878   4.847   0.655   8.052  0.6129 -0.3753  0.9824
    7MOL0     N  879   4.705   0.275   8.605 -0.3716 -0.3127  0.2674
    7MOL0     N  880   4.751   0.221   8.709  0.1716  0.1035 -0.1218
    7MOL0     C  881   4.214   0.820   8.886  0.2004 -1.1124 -0.6861
    7MOL0     C  882   4.105   0.842   8.802 -0.2780  0.6288  0.0109
    7MOL0     C  883   3.675   0.782   8.653  0.7869 -0.0545 -0.3684
    7MOL0     C  884   3.655   0.909   8.591  0.3147  0.7063 -0.1956
    7MOL0     C  885   3.535   0.935   8.528  1.1164  0.0796 -0.1151
    7MOL0     C  886   3.432   0.842   8.525  0.3257 -0.3623  0.0464
    7MOL0     O  887   3.327   0.869   8.437 -0.3942  0.1522  0.3653
    7MOL0     C  888   3.263   0.760   8.370  0.1174  0.5552  0.3715
    7MOL0     C  889   3.154   0.802   8.276 -0.2406 -0.2755  0.1555
    7MOL0     C  890   3.048   0.875   8.358  0.6488  0.2677  0.5503
    7MOL0     C  891   2.910   0.872   8.295 -0.0634  0.7897  0.9807
    7MOL0     C  892   2.816   0.949   8.378 -0.2074 -0.6127 -0.2923
    7MOL0     C  893   2.747   1.013   8.452  0.4345  0.2330  0.6141
    7MOL0     C  894   3.442   0.728   8.601 -0.5749  0.2689  0.2516
    7MOL0     C  895   3.559   0.692   8.667 -0.1131 -0.3212  0.5632
    7MOL0     C  896   3.568   0.555   8.725  1.0885 -0.2594  0.4623
    7MOL0     H  897   3.864   0.745   9.012  0.4442  0.3697  1.7833
    7MOL0     H  898   4.062   0.694   9.150 -2.2518 -1.7157  0.1805
    7MOL0     H  899   4.406   0.901   9.096  1.2858  0.5149  1.0621
    7MOL0     H  900   4.478   0.772   9.005  1.1081  1.6443  0.7135
    7MOL0     H  901   4.609   0.782   9.207 -0.1810 -0.4948 -1.9691
    7MOL0     H  902   4.468   0.792   9.314 -2.0074 -3.2443  1.8924
    7MOL0     H  903   4.559   0.578   9.344 -0.1429  2.9816 -0.2540
    7MOL0     H  904   4.417   0.549   9.242 -0.4510  0.9119 -2.1690
    7MOL0     H  905   4.557   0.575   9.038  1.3711  0.6449 -0.5865
    7MOL0     H  906   4.706   0.547   9.131  0.0355 -2.7393 -2.6545
    7MOL0     H  907   4.474   0.345   9.123  0.2568 -0.9473 -0.5587
    7MOL0     H  908   4.608   0.340   9.235 -0.7717 -0.0255 -0.7558
    7MOL0     H  909   4.648   0.199   9.030  1.3307 -0.2640 -0.8998
    7MOL0     H  910   4.602   0.343   8.934 -0.9271 -2.2470  0.3025
    7MOL0     H  911   4.853   0.308   9.114 -0.4588 -1.6358 -0.5945
    7MOL0     H  912   4.817   0.445   9.004 -1.6745  0.7064 -0.4845
    7MOL0     H  913   4.982   0.268   8.925  1.4385 -2.0883  0.3656
    7MOL0     H  914   4.849   0.156   8.934 -0.7310  1.7867  1.4253
    7MOL0     H  915   4.920   0.497   8.725  1.5497 -1.4819  1.1346
    7MOL0     H  916   4.823   0.455   8.401  1.0774  2.7719 -0.8364
    7MOL0     H  917   4.763   0.589   8.496  0.7024 -0.2239 -1.0855
    7MOL0     H  918   4.594   0.375   8.351 -0.8895  0.7311 -1.5185
    7MOL0     H  919   4.517   0.476   8.450  1.1732 -0.8197  2.4935
    7MOL0     H  920   4.500   0.632   8.283  1.1054  1.3803  0.9934
    7MOL0     H  921   4.672   0.657   8.289 -1.4724  0.3127 -0.7593
    7MOL0     H  922   4.527   0.440   8.126  0.8245  0.2909  1.5412
    7MOL0     H  923   4.606   0.584   8.059  2.8105 -0.6674 -1.4083
    7MOL0     H  924   4.988   0.346   8.080  2.0443 -0.1914  1.0825
    7MOL0     H  925   5.191   0.339   8.003  0.7411 -0.2196 -0.3374
    7MOL0     H  926   5.300   0.473   8.083 -0.5978  1.8438 -0.2027
    7MOL0     H  927   5.272   0.454   7.910 -1.4784 -4.3744 -2.0264
    7MOL0     H  928   5.314   0.959   8.124  2.5274  0.6354  0.2485
    7MOL0     H  929   5.430   1.170   8.121 -2.0263  2.9395 -0.0801
    7MOL0     H  930   5.363   1.449   7.764  0.4747  1.3936  0.9564
    7MOL0     H  931   5.517   1.511   7.824 -0.0598  1.0618 -4.5040
    7MOL0     H  932   5.646   1.319   7.743  0.9382  1.9901  0.1888
    7MOL0     H  933   5.515   1.249   7.651  0.3377  0.8973  0.8657
    7MOL0     H  934   5.490   1.462   7.531  0.0897  0.1818  1.1198
    7MOL0     H  935   5.648   1.379   7.501 -0.4220 -0.0650  0.5124
    7MOL0     H  936   5.756   1.539   7.666  0.3769  0.2667 -0.4194
    7MOL0     H  937   5.602   1.635   7.655 -2.3148 -1.3372 -0.5735
    7MOL0     H  938   5.767   1.728   7.515  2.9388 -2.0955  0.5171
    7MOL0     H  939   5.793   1.574   7.440 -0.0023 -0.3626 -0.3274
    7MOL0     H  940   5.516   1.701   7.434 -0.0057  0.7258 -0.6544
    7MOL0     H  941   5.563   1.573   7.329 -1.0766  0.4919 -0.0218
    7MOL0     H  942   5.639   1.867   7.342 -0.2037 -1.0122  1.8895
    7MOL0     H  943   5.552   1.768   7.213  0.9462 -2.1326 -0.6810
    7MOL0     H  944   5.842   1.735   7.275 -0.8405  1.1706  2.2425
    7MOL0     H  945   5.780   1.840   7.143 -0.2921  0.5390  1.4536
    7MOL0     H  946   5.261   1.260   7.728 -1.7680 -3.2479 -2.8838
    7MOL0     H  947   5.127   1.049   7.752 -2.9763  1.6250  2.6730
    7MOL0     H  948   4.948   0.825   8.016 -0.4828 -0.4669  3.2936
    7MOL0     H  949   4.758   0.716   8.070  0.2931 -0.5250 -0.0521
    7MOL0     H  950   4.316   0.843   8.859  1.2652 -1.7630  2.3996
    7MOL0     H  951   4.113   0.886   8.703 -1.0241  0.5651 -0.0856
    7MOL0     H  952   3.735   0.982   8.589  1.7636 -0.8177 -2.3435
    7MOL0     H  953   3.532   1.022   8.464 -1.1042 -0.5992 -1.0098
    7MOL0     H  954   3.338   0.706   8.311 -2.6898 -1.1446 -1.9511
    7MOL0     H  955   3.223   0.680   8.432  0.9268 -1.2799 -1.3670
    7MOL0     H  956   3.118   0.723   8.209  0.9997 -1.3876  0.7435
    7MOL0     H  957   3.210   0.877   8.220  0.3222 -0.4017  0.5374
    7MOL0     H  958   3.048   0.837   8.460  0.6052 -2.9146 -0.5106
    7MOL0     H  959   3.067   0.983   8.351  1.3666  0.2031  1.4647
    7MOL0     H  960   2.875   0.769   8.306  0.9170  0.3285 -0.0311
    7MOL0     H  961   2.910   0.901   8.190  1.5457 -1.4826  0.2831
    7MOL0     H  962   2.690   1.077   8.515 -0.1366 -0.1926  0.5382
    7MOL0     H  963   3.358   0.659   8.605  1.0491 -1.8058  0.2687
    7MOL0     H  964   3.642   0.492   8.673 -0.2961  0.0297 -1.9732
    7MOL0     H  965   3.590   0.574   8.831 -2.5209  2.0603  0.9424
    7MOL0     H  966   3.486   0.484   8.737  2.7085 -2.6657 -1.5412
    8MOL0     O  967   3.793   7.740   0.371 -0.6157 -0.0495 -0.7064
    8MOL0     C  968   3.708   7.678   0.431  0.2161  0.1491 -0.4305
    8MOL0     O  969   3.730   7.568   0.503 -0.8485  0.8106 -0.6401
    8MOL0     C  970   3.853   7.517   0.534  0.1890 -0.2039 -0.4159
    8MOL0     C  971   3.957   7.605   0.562  0.6590  0.7586 -0.0392
    8MOL0     C  972   4.073   7.538   0.610 -0.1297  0.4863 -0.4277
    8MOL0     C  973   4.096   7.401   0.614  0.6662 -0.3398  0.1414
    8MOL0     O  974   4.215   7.360   0.661  0.5119  0.0399  0.5308
    8MOL0     C  975   4.278   7.241   0.608 -0.1104  0.2919  0.4540
    8MOL0     C  976   4.380   7.274   0.501 -0.1261 -0.5982 -0.8495
    8MOL0     C  977   4.320   7.304   0.365 -0.2558  0.3226  0.0116
    8MOL0     C  978   4.244   7.189   0.298  0.1381  0.4617 -0.5738
    8MOL0     C  979   4.170   7.203   0.166  0.3540  0.0619  0.3483
    8MOL0     C  980   4.085   7.336   0.150 -0.0751  0.1848  0.7930
    8MOL0     C  981   4.011   7.337   0.013  0.0850  0.6787 -0.8509
    8MOL0     C  982   3.988   7.477  -0.045  0.2161 -0.5321  0.4186
    8MOL0     N  983   3.912   7.461  -0.169 -0.3851  0.4780 -0.4611
    8MOL0     C  984   3.819   7.548  -0.216  0.0247 -0.7332 -0.0649
    8MOL0     C  985   3.799   7.501  -0.336 -0.0387  0.9853 -0.4223
    8MOL0     C  986   3.712   7.575  -0.429  0.3167  0.5619 -0.3251
    8MOL0     C  987   3.563   7.596  -0.388 -0.1655  0.7918  0.1018
    8MOL0     C  988   3.477   7.468  -0.401  0.0621 -0.1185 -0.0695
    8MOL0     C  989   3.333   7.491  -0.366  0.8025 -0.8174 -0.9168
    8MOL0     O  990   3.268   7.611  -0.413  0.1836  0.5991  0.2659
    8MOL0     C  991   3.132   7.599  -0.391  0.3306  0.4244  0.7259
    8MOL0     C  992   3.058   7.664  -0.482  0.2362 -0.0692  0.7097
    8MOL0     C  993   2.916   7.667  -0.486  0.5028  0.7277  0.2454
    8MOL0     C  994   2.849   7.756  -0.582  0.3661  0.2364  0.1754
    8MOL0     C  995   2.842   7.606  -0.380 -0.9299  1.2947  0.5407
    8MOL0     C  996   2.696   7.597  -0.379 -0.1718  0.5005 -0.2762
    8MOL0     O  997   2.635   7.652  -0.278 -0.3797 -0.0749 -0.4172
    8MOL0     C  998   2.496   7.637  -0.271  0.0956  0.0474  0.2284
    8MOL0     C  999   2.422   7.513  -0.260 -0.5189  0.1216 -1.0050
    8MOL0     C 1000   2.282   7.511  -0.260 -0.1639 -0.5798  0.7809
    8MOL0     C 1001   2.207   7.629  -0.281  0.5210 -0.0163  0.6923
    8MOL0     O 1002   2.069   7.614  -0.291  0.3104  0.1864  0.1155
    8MOL0     C 1003   1.993   7.704  -0.366 -0.2587 -0.5166 -0.3411
    8MOL0     C 1004   1.851   7.646  -0.367 -0.3454  0.1371 -0.0151
    8MOL0     C 1005   1.737   7.744  -0.425 -0.1894  0.7529 -1.1287
    8MOL0     C 1006   1.605   7.670  -0.446  0.4857 -1.4417  0.2815
    8MOL0     C 1007   1.495   7.758  -0.501 -0.4866  0.4650  0.0964
    8MOL0     C 1008   1.359   7.685  -0.519  0.7854  1.1385 -0.2022
    8MOL0     C 1009   1.353   7.571  -0.622  1.5143  0.3104 -0.2422
    8MOL0     C 1010   1.208   7.508  -0.643 -0.0460 -0.2246 -0.9916
    8MOL0    Cl 1011   1.210   7.377  -0.757  0.1093 -0.0469  0.0411
    8MOL0     C 1012   2.278   7.751  -0.306  0.1487 -0.4580 -1.0959
    8MOL0     C 1013   2.424   7.754  -0.296  0.8342 -0.8753 -0.6739
    8MOL0     O 1014   2.645   7.518  -0.455  0.3175 -0.8042 -0.2602
    8MOL0     C 1015   2.916   7.534  -0.287 -0.9123  0.2519 -0.6117
    8MOL0     C 1016   3.056   7.530  -0.288 -1.1072  0.2191 -0.6827
    8MOL0     N 1017   3.878   7.395  -0.365  0.4224  0.1644 -0.0509
    8MOL0     N 1018   3.943   7.360  -0.261 -0.5365 -0.2828 -0.2289
    8MOL0     C 1019   3.981   7.318   0.586 -0.7217 -0.0742  0.3729
    8MOL0     C 1020   3.867   7.372   0.542  0.2466 -0.0472  0.6510
    8MOL0     C 1021   3.566   7.732   0.440  0.0408 -0.2294 -0.2197
    8MOL0     C 1022   3.464   7.645   0.472 -0.2477  0.3156 -0.7201
    8MOL0     C 1023   3.331   7.697   0.475  0.0017 -0.3167 -0.8552
    8MOL0     C 1024   3.304   7.837   0.463  0.0161  0.2759 -0.1303
    8MOL0     O 1025   3.170   7.879   0.470 -0.2068  0.1528  0.2790
    8MOL0     C 1026   3.146   8.016   0.450  0.8014  0.2067  0.1850
    8MOL0     C 1027   2.993   8.046   0.491  0.5710  0.0952  0.1773
    8MOL0     C 1028   2.899   8.000   0.381 -1.2471  0.3449 -0.6469
    8MOL0     C 1029   2.744   7.995   0.419  0.1521 -0.1914 -0.1300
    8MOL0     C 1030   2.690   8.104   0.508  0.8205  0.4518  0.5568
    8MOL0     C 1031   2.624   8.169   0.588  0.2811 -0.3364  0.4281
    8MOL0     C 1032   3.409   7.919   0.422 -0.3627  0.6328 -0.8514
    8MOL0     C 1033   3.536   7.870   0.406 -0.3298 -0.8369  0.2450
    8MOL0     C 1034   3.629   7.977   0.355 -0.5767  0.3435 -0.5125
    8MOL0     H 1035   3.954   7.714   0.559 -1.0892  0.8688  2.3773
    8MOL0     H 1036   4.146   7.600   0.662 -1.0048  0.3953  0.9802
    8MOL0     H 1037   4.215   7.158   0.576 -1.1285  1.3112 -0.2998
    8MOL0     H 1038   4.340   7.188   0.680 -0.3268 -1.0048 -0.2931
    8MOL0     H 1039   4.431   7.365   0.537 -0.0589 -1.3369  1.0584
    8MOL0     H 1040   4.451   7.192   0.492  2.1263  1.2755 -1.2117
    8MOL0     H 1041   4.255   7.388   0.388  2.3243  2.3480  0.4066
    8MOL0     H 1042   4.405   7.334   0.302  0.4699  2.1062  1.7438
    8MOL0     H 1043   4.287   7.091   0.317 -1.4489 -0.3628 -1.0293
    8MOL0     H 1044   4.155   7.182   0.361 -1.5550 -2.1241 -2.9938
    8MOL0     H 1045   4.091   7.128   0.153 -3.0283  3.2446  0.8338
    8MOL0     H 1046   4.250   7.202   0.091  0.1271  0.0018  0.1049
    8MOL0     H 1047   4.000   7.341   0.219 -0.7165  0.1466  0.0254
    8MOL0     H 1048   4.154   7.420   0.157 -0.5328  0.5222  1.2576
    8MOL0     H 1049   3.917   7.283   0.031  2.1247 -2.8844  0.1181
    8MOL0     H 1050   4.066   7.270  -0.055  1.1863 -1.2328  1.7524
    8MOL0     H 1051   3.942   7.544   0.028  0.8841 -0.5429  0.8550
    8MOL0     H 1052   4.081   7.529  -0.069  0.4893 -0.7231  1.0380
    8MOL0     H 1053   3.775   7.637  -0.172 -1.7183 -1.8825  0.6438
    8MOL0     H 1054   3.722   7.529  -0.527  0.7341  1.4526 -0.7156
    8MOL0     H 1055   3.773   7.664  -0.447  1.9407 -0.5277 -0.4708
    8MOL0     H 1056   3.561   7.621  -0.281  0.5914 -1.6696  0.7524
    8MOL0     H 1057   3.522   7.669  -0.458 -1.5769  0.3114  0.3916
    8MOL0     H 1058   3.483   7.435  -0.505  1.4801 -1.1801  0.3219
    8MOL0     H 1059   3.512   7.387  -0.337 -1.8819 -2.3135 -1.5943
    8MOL0     H 1060   3.267   7.408  -0.394 -1.2993  0.5392 -0.1965
    8MOL0     H 1061   3.327   7.500  -0.257  1.2406  1.6862 -1.0382
    8MOL0     H 1062   3.122   7.722  -0.548 -1.7086  1.7136  0.2972
    8MOL0     H 1063   2.830   7.850  -0.529 -1.4931  0.0896 -0.1709
    8MOL0     H 1064   2.759   7.726  -0.637  2.6616  1.5315 -4.8347
    8MOL0     H 1065   2.924   7.769  -0.660  0.4564 -0.0934  0.2076
    8MOL0     H 1066   2.488   7.428  -0.245 -0.4388  0.2620 -0.5385
    8MOL0     H 1067   2.217   7.425  -0.246 -0.7290  0.1727  3.2102
    8MOL0     H 1068   1.977   7.799  -0.314 -1.1458 -1.4237  1.1189
    8MOL0     H 1069   2.038   7.710  -0.466  1.3835 -3.1336  0.1422
    8MOL0     H 1070   1.858   7.551  -0.419 -0.4552 -1.2477  2.3289
    8MOL0     H 1071   1.824   7.624  -0.263 -1.5165  0.1902 -0.2894
    8MOL0     H 1072   1.767   7.775  -0.525 -1.1717  2.9231 -0.7957
    8MOL0     H 1073   1.732   7.827  -0.354  1.3801  0.8924 -1.1547
    8MOL0     H 1074   1.573   7.617  -0.356 -0.4810 -1.7290 -0.2077
    8MOL0     H 1075   1.621   7.586  -0.514 -1.3319 -2.3716  0.9353
    8MOL0     H 1076   1.485   7.842  -0.432 -2.1445  0.6720 -0.3273
    8MOL0     H 1077   1.531   7.804  -0.594  2.6238  0.1901  1.0725
    8MOL0     H 1078   1.287   7.763  -0.545 -0.9556  0.7711  3.0635
    8MOL0     H 1079   1.325   7.645  -0.423  0.2357 -0.1841 -0.9135
    8MOL0     H 1080   1.405   7.489  -0.572 -1.9344 -2.6213 -1.0632
    8MOL0     H 1081   1.384   7.600  -0.722 -0.3335 -2.5406 -1.7738
    8MOL0     H 1082   1.136   7.580  -0.681  0.6066  0.0738 -1.6906
    8MOL0     H 1083   1.177   7.477  -0.543  0.6673 -1.6233 -1.1641
    8MOL0     H 1084   2.239   7.850  -0.325  0.9869  0.0200 -0.4103
    8MOL0     H 1085   2.478   7.847  -0.313 -0.1681  0.1577  1.3339
    8MOL0     H 1086   2.859   7.475  -0.215  0.1459  1.0391  0.9309
    8MOL0     H 1087   3.100   7.462  -0.216  2.9694  1.3788 -1.7842
    8MOL0     H 1088   3.986   7.210   0.583  1.9608 -0.0122  0.3972
    8MOL0     H 1089   3.776   7.317   0.520  0.0667  0.2959  0.5176
    8MOL0     H 1090   3.486   7.547   0.513 -3.7991  0.2585  1.6151
    8MOL0     H 1091   3.251   7.627   0.496 -1.2446  0.0822 -3.7783
    8MOL0     H 1092   3.211   8.071   0.518 -1.2323  0.1506  2.2960
    8MOL0     H 1093   3.156   8.052   0.347  0.5095  0.5305  0.2682
    8MOL0     H 1094   2.969   8.151   0.507 -1.7187 -0.0159 -2.0447
    8MOL0     H 1095   2.957   7.997   0.582 -3.2593 -2.6923 -2.4834
    8MOL0     H 1096   2.912   8.076   0.304  2.1652  0.8717  0.3081
    8MOL0     H 1097   2.936   7.902   0.348 -1.6652  0.2173 -0.7424
    8MOL0     H 1098   2.734   7.903   0.478  3.1258 -0.9586 -0.6667
    8MOL0     H 1099   2.687   7.980   0.327  0.3086 -2.6392  0.0846
    8MOL0     H 1100   2.566   8.225   0.660  0.5837 -1.6225  1.7036
    8MOL0     H 1101   3.397   8.025   0.407  1.4488  1.3316  1.9290
    8MOL0     H 1102   3.594   8.080   0.349  0.1630  0.5310 -2.3197
    8MOL0     H 1103   3.723   7.979   0.412 -1.6639 -0.5678  1.4071
    8MOL0     H 1104   3.651   7.958   0.250 -1.3174  0.6600 -0.7284
    9MOL0     O 1105   9.410   4.419   6.178 -0.2938  0.2254  0.9661
    9MOL0     C 1106   9.371   4.494   6.085  0.6096 -0.0095 -0.3113
    9MOL0     O 1107   9.453   4.541   5.987 -0.5709  0.3013  0.2167
    9MOL0     C 1108   9.586   4.543   6.022 -0.2810 -0.2426  1.1721
    9MOL0     C 1109   9.641   4.635   6.115 -0.0370 -0.0158 -0.3636
    9MOL0     C 1110   9.769   4.621   6.160 -0.2501 -0.2665 -0.8452
    9MOL0     C 1111   9.859   4.546   6.082 -0.1802  0.2583  0.0647
    9MOL0     O 1112   9.986   4.555   6.126 -0.8202  0.4360 -0.4564
    9MOL0     C 1113  10.086   4.526   6.027  0.1200 -1.1409 -0.1130
    9MOL0     C 1114  10.213   4.479   6.097  0.3554  0.3981 -0.1971
    9MOL0     C 1115  10.342   4.477   6.005 -0.3124  0.3122 -1.0065
    9MOL0     C 1116  10.466   4.450   6.095  0.1521 -0.8492  0.6425
    9MOL0     C 1117  10.595   4.460   6.020  0.1893  1.1252  0.0021
    9MOL0     C 1118  10.717   4.451   6.115 -0.2881 -0.1205 -0.1162
    9MOL0     C 1119  10.829   4.443   6.006  0.5848  0.2113  0.4039
    9MOL0     C 1120  10.969   4.437   6.075  0.9386  0.0941 -0.2096
    9MOL0     N 1121  11.079   4.437   5.977 -0.6595  0.5196  0.5404
    9MOL0     C 1122  11.108   4.535   5.890 -0.0985 -0.5606 -0.7471
    9MOL0     C 1123  11.229   4.508   5.848 -0.4685  0.2639 -0.8958
    9MOL0     C 1124  11.306   4.587   5.749  0.1025  1.0923  0.0223
    9MOL0     C 1125  11.413   4.493   5.685  0.1324  0.1668  0.8328
    9MOL0     C 1126  11.462   4.567   5.566  0.1200 -0.1238  0.2491
    9MOL0     C 1127  11.581   4.493   5.509  0.6933  0.6409  1.1603
    9MOL0     O 1128  11.638   4.572   5.400  0.4351 -1.0595 -0.5865
    9MOL0     C 1129  11.741   4.516   5.340 -0.9264 -0.4251  0.7381
    9MOL0     C 1130  11.807   4.394   5.381 -0.0884 -0.1010  0.1280
    9MOL0     C 1131  11.923   4.347   5.321 -0.6311  0.1163 -0.5809
    9MOL0     C 1132  11.989   4.219   5.359 -0.7851 -0.2013 -0.9417
    9MOL0     C 1133  11.989   4.439   5.232 -0.0514  0.4002  0.7398
    9MOL0     C 1134  12.118   4.409   5.156 -0.5242 -0.2442 -0.4174
    9MOL0     O 1135  12.145   4.281   5.128 -0.6597  0.4897 -0.2199
    9MOL0     C 1136  12.273   4.242   5.085  1.3289 -0.1980  0.8566
    9MOL0     C 1137  12.391   4.293   5.122  0.1741 -0.4523  0.3920
    9MOL0     C 1138  12.507   4.256   5.068  0.7037  0.1678  0.3020
    9MOL0     C 1139  12.515   4.159   4.978 -0.3704  0.6419  0.7443
    9MOL0     O 1140  12.639   4.120   4.923  0.6629  0.7889 -0.3823
    9MOL0     C 1141  12.645   3.984   4.894 -0.7853 -0.3111  0.5512
    9MOL0     C 1142  12.790   3.935   4.899  0.1807 -0.4720  0.8308
    9MOL0     C 1143  12.788   3.784   4.887 -0.6278  0.8816 -0.1535
    9MOL0     C 1144  12.931   3.731   4.862  0.5631  0.8478 -0.1560
    9MOL0     C 1145  12.933   3.573   4.862  0.4241 -0.1834 -1.0493
    9MOL0     C 1146  13.077   3.533   4.838  0.3095 -0.0213 -0.4231
    9MOL0     C 1147  13.096   3.385   4.863  0.8424 -0.0802 -0.4499
    9MOL0     C 1148  13.009   3.288   4.780 -0.3672 -0.0233  0.0918
    9MOL0    Cl 1149  13.054   3.121   4.799 -0.3116 -0.1496  0.2616
    9MOL0     C 1150  12.401   4.089   4.953 -0.0356  0.3840  0.8040
    9MOL0     C 1151  12.279   4.121   5.012  0.2304  0.3859  0.4278
    9MOL0     O 1152  12.191   4.505   5.124 -0.1518 -0.3063 -0.1285
    9MOL0     C 1153  11.929   4.562   5.188  0.5916 -0.2058 -0.2894
    9MOL0     C 1154  11.807   4.600   5.249  0.8707  0.1248 -0.1099
    9MOL0     N 1155  11.268   4.385   5.902 -0.2491  0.5763 -0.3770
    9MOL0     N 1156  11.183   4.353   5.996  0.3687  0.5537  0.8496
    9MOL0     C 1157   9.816   4.470   5.966 -0.6004  0.2866  0.1010
    9MOL0     C 1158   9.676   4.458   5.947  0.4019 -0.1755 -0.5003
    9MOL0     C 1159   9.222   4.530   6.081  0.8183 -0.9620  0.2951
    9MOL0     C 1160   9.133   4.471   6.172  0.5771 -1.2232 -0.2422
    9MOL0     C 1161   8.995   4.506   6.167 -0.1117 -0.0781 -0.3864
    9MOL0     C 1162   8.940   4.581   6.060 -0.3017  0.5418  0.7957
    9MOL0     O 1163   8.806   4.594   6.043 -0.1487 -0.3310 -0.2669
    9MOL0     C 1164   8.750   4.619   5.915  0.5785 -0.4784  0.6417
    9MOL0     C 1165   8.601   4.630   5.937 -0.2881 -1.0741  0.0584
    9MOL0     C 1166   8.540   4.630   5.801 -0.3595 -0.2374  0.9032
    9MOL0     C 1167   8.388   4.638   5.820 -0.2242 -0.7290 -0.6412
    9MOL0     C 1168   8.305   4.661   5.699 -0.0859  0.1127  0.5069
    9MOL0     C 1169   8.225   4.686   5.609 -0.4674 -0.3170 -1.0262
    9MOL0     C 1170   9.032   4.651   5.980 -1.1017 -0.2088 -0.0953
    9MOL0     C 1171   9.169   4.621   5.978 -0.2173  0.3500 -0.4562
    9MOL0     C 1172   9.250   4.680   5.870 -0.3694 -0.3268 -0.4451
    9MOL0     H 1173   9.573   4.707   6.159 -0.5357 -0.8798  0.3091
    9MOL0     H 1174   9.806   4.681   6.243  1.5645  1.2071 -2.5949
    9MOL0     H 1175  10.114   4.620   5.979 -2.2082  0.0407  0.6965
    9MOL0     H 1176  10.060   4.455   5.948  1.0045 -0.2567 -1.2285
    9MOL0     H 1177  10.233   4.557   6.171  0.1259 -0.4271  0.7643
    9MOL0     H 1178  10.204   4.385   6.153  1.3705 -0.7839 -1.9133
    9MOL0     H 1179  10.330   4.387   5.945 -0.8020 -0.7169  0.5807
    9MOL0     H 1180  10.349   4.573   5.951 -0.7494  0.9454  0.0350
    9MOL0     H 1181  10.484   4.519   6.178  2.7899 -1.2132  0.4665
    9MOL0     H 1182  10.457   4.348   6.135 -0.6381 -0.7642  0.6938
    9MOL0     H 1183  10.604   4.553   5.962  0.9215 -0.0729 -1.9119
    9MOL0     H 1184  10.591   4.382   5.944  0.6752  0.4995  0.6059
    9MOL0     H 1185  10.727   4.534   6.185 -1.0650  0.3621 -0.5514
    9MOL0     H 1186  10.717   4.357   6.171  2.1558 -1.9786 -2.9415
    9MOL0     H 1187  10.825   4.530   5.940 -0.1058  1.2682  1.7884
    9MOL0     H 1188  10.817   4.353   5.946 -1.0763  1.1382 -0.7176
    9MOL0     H 1189  10.986   4.520   6.143  0.5652 -0.3925  0.4888
    9MOL0     H 1190  10.974   4.343   6.131  1.1317  0.4206  0.3185
    9MOL0     H 1191  11.052   4.627   5.878 -0.1520 -0.2110  1.6909
    9MOL0     H 1192  11.351   4.671   5.803  1.6492  1.3939 -1.6742
    9MOL0     H 1193  11.243   4.630   5.672  1.0294  2.9102  0.2364
    9MOL0     H 1194  11.500   4.476   5.750 -0.1454 -1.5633  0.7800
    9MOL0     H 1195  11.385   4.390   5.662 -1.2079  0.3818  1.4289
    9MOL0     H 1196  11.384   4.578   5.490  0.2048  0.4357  0.2398
    9MOL0     H 1197  11.495   4.665   5.600 -1.2875 -0.3470  2.4349
    9MOL0     H 1198  11.651   4.487   5.593  1.5426 -0.9885  0.4030
    9MOL0     H 1199  11.553   4.390   5.482 -1.7497  1.4856  0.2277
    9MOL0     H 1200  11.756   4.323   5.445  0.8365 -1.9455 -1.1015
    9MOL0     H 1201  12.093   4.235   5.391 -1.4051 -0.4361  1.3190
    9MOL0     H 1202  11.997   4.151   5.274  1.3223 -0.2922 -0.7195
    9MOL0     H 1203  11.936   4.157   5.432  2.0183 -1.7340 -0.0533
    9MOL0     H 1204  12.398   4.377   5.191  0.2486 -1.5172  1.7270
    9MOL0     H 1205  12.604   4.295   5.097  1.5296 -3.1427  2.5688
    9MOL0     H 1206  12.593   3.929   4.972 -0.6556  0.3485  1.1070
    9MOL0     H 1207  12.598   3.969   4.796 -1.0453  2.4890  0.1677
    9MOL0     H 1208  12.845   3.978   4.814 -0.0872 -2.0465 -0.1804
    9MOL0     H 1209  12.840   3.973   4.988  0.1277  2.9553 -0.4358
    9MOL0     H 1210  12.720   3.748   4.809 -0.9022  2.0907 -0.4880
    9MOL0     H 1211  12.758   3.737   4.981  0.2311 -3.1590 -1.7141
    9MOL0     H 1212  12.995   3.774   4.940 -1.6565 -2.1202  3.6531
    9MOL0     H 1213  12.973   3.766   4.766 -0.5477 -0.2263 -1.0613
    9MOL0     H 1214  12.904   3.536   4.961 -0.5320 -1.8947 -1.9167
    9MOL0     H 1215  12.864   3.538   4.785 -0.3714  1.9033 -1.3442
    9MOL0     H 1216  13.155   3.588   4.892  0.6854 -1.3148  0.4008
    9MOL0     H 1217  13.094   3.550   4.732 -0.6391 -1.7613 -0.8993
    9MOL0     H 1218  13.068   3.375   4.968  0.7934  0.5871 -0.3905
    9MOL0     H 1219  13.202   3.359   4.850  1.1308  0.2613  0.9519
    9MOL0     H 1220  13.013   3.313   4.673  3.3666 -0.9012 -0.1315
    9MOL0     H 1221  12.905   3.291   4.814 -0.7072 -1.5441 -0.7144
    9MOL0     H 1222  12.400   4.009   4.879  0.4195  0.2325  0.9626
    9MOL0     H 1223  12.191   4.063   4.987  1.6509 -1.5509 -0.3769
    9MOL0     H 1224  11.973   4.642   5.129 -1.9350  0.9721 -0.7087
    9MOL0     H 1225  11.765   4.696   5.218  3.5521  1.1616 -0.7985
    9MOL0     H 1226   9.876   4.412   5.897 -1.2863 -0.6727  0.2842
    9MOL0     H 1227   9.627   4.379   5.891  1.6897 -1.7882  0.5642
    9MOL0     H 1228   9.177   4.419   6.257 -2.4061 -0.9569  1.5875
    9MOL0     H 1229   8.932   4.466   6.246 -2.2725  0.6773 -1.6536
    9MOL0     H 1230   8.780   4.711   5.864 -0.9632 -0.3094 -0.0108
    9MOL0     H 1231   8.775   4.537   5.847 -2.6302 -0.2999 -0.9683
    9MOL0     H 1232   8.568   4.717   5.994 -1.4490  0.7837 -3.1788
    9MOL0     H 1233   8.569   4.537   5.985 -0.7400 -0.5460  0.8033
    9MOL0     H 1234   8.571   4.711   5.735 -3.5809 -0.9538 -1.7254
    9MOL0     H 1235   8.562   4.534   5.754  1.3050 -0.2054  1.5423
    9MOL0     H 1236   8.369   4.733   5.872  1.4699 -1.6833  1.9008
    9MOL0     H 1237   8.348   4.553   5.875 -0.4054  0.5629  1.3538
    9MOL0     H 1238   8.144   4.706   5.543 -0.2989  1.3080 -0.7814
    9MOL0     H 1239   8.995   4.724   5.908 -0.8235 -0.4589 -0.4999
    9MOL0     H 1240   9.198   4.749   5.803  1.5547  0.1509 -1.5084
    9MOL0     H 1241   9.333   4.737   5.912 -0.8267 -1.4391  2.1321
    9MOL0     H 1242   9.287   4.605   5.800  1.7724 -0.0131  0.2794
   10MOL0     O 1243   3.782   6.376   4.273  0.7244 -1.0207  0.0386
   10MOL0     C 1244   3.823   6.494   4.266  0.1907  0.8501  0.5149
   10MOL0     O 1245   3.908   6.536   4.179  0.1386  0.5952 -0.1210
   10MOL0     C 1246   4.008   6.453   4.121  0.1271 -0.2597 -1.0891
   10MOL0     C 1247   4.069   6.338   4.186  0.1680  0.1002 -0.0984
   10MOL0     C 1248   4.173   6.269   4.127  1.0387  0.1363  0.1699
   10MOL0     C 1249   4.211   6.310   3.995  0.1577  0.4346 -0.1582
   10MOL0     O 1250   4.307   6.234   3.938  0.4640  0.4086 -0.4251
   10MOL0     C 1251   4.442   6.284   3.945 -0.0211 -0.4578  0.2231
   10MOL0     C 1252   4.462   6.437   3.921  0.6067  0.5131  0.0174
   10MOL0     C 1253   4.612   6.479   3.911 -0.0629 -0.0369 -0.6101
   10MOL0     C 1254   4.629   6.629   3.885 -0.9379  0.2243  0.1702
   10MOL0     C 1255   4.774   6.637   3.853 -0.8739 -0.5648  1.0093
   10MOL0     C 1256   4.806   6.780   3.811 -0.0506 -0.8093  0.3061
   10MOL0     C 1257   4.953   6.810   3.816  0.4822  0.2232 -0.2595
   10MOL0     C 1258   4.982   6.962   3.788  0.0592  0.3797 -0.0453
   10MOL0     N 1259   5.124   6.982   3.752  0.3089  0.6452 -0.3055
   10MOL0     C 1260   5.215   6.898   3.694  0.2464 -0.0369 -0.3950
   10MOL0     C 1261   5.331   6.964   3.681  0.2923  0.8520  0.1323
   10MOL0     C 1262   5.462   6.912   3.633 -0.3359 -0.2749 -0.7281
   10MOL0     C 1263   5.554   6.880   3.750 -1.1507  0.5940 -0.0338
   10MOL0     C 1264   5.690   6.839   3.687 -0.0644  0.2304 -0.0508
   10MOL0     C 1265   5.781   6.778   3.788 -0.6848  0.2774  0.5419
   10MOL0     O 1266   5.857   6.897   3.833  0.4108 -0.3382  0.6196
   10MOL0     C 1267   5.998   6.883   3.834 -0.4294 -0.3941  0.3494
   10MOL0     C 1268   6.080   6.971   3.756 -0.0117  0.4037 -0.1706
   10MOL0     C 1269   6.216   6.968   3.763 -0.4429  0.1451  0.0497
   10MOL0     C 1270   6.279   7.082   3.672  0.2018 -0.8321  0.1736
   10MOL0     C 1271   6.284   6.862   3.831  0.5623  0.3660  0.3273
   10MOL0     C 1272   6.429   6.853   3.853 -0.2803 -0.6177 -0.0821
   10MOL0     O 1273   6.496   6.736   3.891 -0.2586  0.8200  0.7512
   10MOL0     C 1274   6.635   6.744   3.879  0.6955 -0.5194 -1.0077
   10MOL0     C 1275   6.692   6.745   3.753  0.0957  0.0377 -0.4139
   10MOL0     C 1276   6.830   6.760   3.736 -0.5069  0.0512  0.2510
   10MOL0     C 1277   6.915   6.778   3.847 -0.6030 -1.0079 -0.2392
   10MOL0     O 1278   7.053   6.785   3.830  0.1372  0.0996  0.1881
   10MOL0     C 1279   7.138   6.846   3.930  0.1077  0.2919 -0.0518
   10MOL0     C 1280   7.289   6.873   3.889 -0.1287 -0.0147 -0.0515
   10MOL0     C 1281   7.308   6.986   3.789 -0.1345 -0.2267  0.4616
   10MOL0     C 1282   7.459   6.994   3.758  0.8518 -0.2901 -0.0772
   10MOL0     C 1283   7.498   7.131   3.685 -0.4535  0.7219 -0.4839
   10MOL0     C 1284   7.472   7.123   3.534  0.5017  0.5769 -0.7530
   10MOL0     C 1285   7.527   7.252   3.478  0.3702 -0.7190 -0.1056
   10MOL0     C 1286   7.440   7.314   3.375 -0.4687  1.0740  0.1188
   10MOL0    Cl 1287   7.279   7.368   3.442 -0.3026 -0.0376 -0.1111
   10MOL0     C 1288   6.855   6.786   3.975 -0.0321 -0.2048 -0.2627
   10MOL0     C 1289   6.717   6.765   3.995 -0.2198  0.3643  0.1159
   10MOL0     O 1290   6.483   6.962   3.849  0.0345 -0.3224  0.0806
   10MOL0     C 1291   6.207   6.767   3.889 -0.2331  0.3886  0.4649
   10MOL0     C 1292   6.066   6.777   3.896  0.2038  0.4296  0.0483
   10MOL0     N 1293   5.305   7.094   3.723 -0.5986  0.1045 -0.9382
   10MOL0     N 1294   5.183   7.110   3.757  0.3774  0.0657  0.7346
   10MOL0     C 1295   4.147   6.422   3.934 -0.4755 -0.1652 -0.5272
   10MOL0     C 1296   4.056   6.494   3.996 -0.7206  0.1581 -0.2647
   10MOL0     C 1297   3.789   6.590   4.373  0.5587 -0.3541  0.6855
   10MOL0     C 1298   3.694   6.559   4.476 -0.6962 -0.0554  0.0722
   10MOL0     C 1299   3.660   6.645   4.579  0.4919 -0.7486 -0.4110
   10MOL0     C 1300   3.711   6.774   4.576  0.3622  0.0607  0.0600
   10MOL0     O 1301   3.679   6.869   4.674  0.2838 -0.6111 -0.1307
   10MOL0     C 1302   3.648   6.818   4.809 -0.2274  0.9673  0.3308
   10MOL0     C 1303   3.674   6.924   4.907  0.2075  0.0231 -0.1239
   10MOL0     C 1304   3.602   7.051   4.879  0.5656 -1.6721  0.1860
   10MOL0     C 1305   3.603   7.141   5.000 -0.8526  0.0966  0.5833
   10MOL0     C 1306   3.742   7.188   5.029  0.1637  0.3169 -1.0247
   10MOL0     C 1307   3.856   7.235   5.064 -0.4855  0.5393  0.8269
   10MOL0     C 1308   3.796   6.817   4.476 -0.2876 -0.3223 -0.3778
   10MOL0     C 1309   3.840   6.729   4.375 -0.2496 -0.2499 -0.1850
   10MOL0     C 1310   3.929   6.792   4.268 -0.5942 -0.5050 -0.2265
   10MOL0     H 1311   4.047   6.309   4.288  0.4959 -0.0246 -0.0615
   10MOL0     H 1312   4.223   6.186   4.177  0.1742 -1.0521 -0.8785
   10MOL0     H 1313   4.509   6.231   3.877  1.1093  2.2023 -0.8728
   10MOL0     H 1314   4.491   6.272   4.042  2.7383 -1.7397 -1.2167
   10MOL0     H 1315   4.421   6.461   3.822  0.7214  0.4257 -0.0520
   10MOL0     H 1316   4.412   6.494   4.000  1.5663  0.0085  1.0181
   10MOL0     H 1317   4.672   6.456   4.000 -1.3179 -0.9976  0.0312
   10MOL0     H 1318   4.654   6.419   3.830  0.9280  0.8667 -0.7828
   10MOL0     H 1319   4.574   6.657   3.795  1.5449  2.5165 -0.7567
   10MOL0     H 1320   4.600   6.697   3.966 -1.7332 -2.5947  2.4224
   10MOL0     H 1321   4.797   6.565   3.773 -1.3591 -1.8818  2.0270
   10MOL0     H 1322   4.840   6.616   3.938  3.3845 -0.2096 -1.8801
   10MOL0     H 1323   4.765   6.790   3.711 -0.6752 -1.1998  0.5123
   10MOL0     H 1324   4.761   6.844   3.888  0.5063 -2.4477  2.0803
   10MOL0     H 1325   4.987   6.739   3.741 -2.4607 -2.0491  0.3946
   10MOL0     H 1326   4.986   6.788   3.918 -0.3638  0.5221  0.0884
   10MOL0     H 1327   4.931   7.009   3.703  0.1434  1.3497  0.4281
   10MOL0     H 1328   4.955   7.032   3.867  1.3605  2.8353 -1.6575
   10MOL0     H 1329   5.186   6.799   3.660  0.9481 -1.1877  2.0729
   10MOL0     H 1330   5.509   6.981   3.561 -0.5135 -2.2878 -2.9030
   10MOL0     H 1331   5.445   6.826   3.568  2.0385 -1.8232  0.5617
   10MOL0     H 1332   5.566   6.961   3.823  0.0452 -1.3200  2.0295
   10MOL0     H 1333   5.522   6.794   3.810  1.3118 -0.1364  0.3644
   10MOL0     H 1334   5.677   6.761   3.612 -0.5124 -0.6166  0.9034
   10MOL0     H 1335   5.741   6.927   3.646  0.9044 -0.5273 -0.5063
   10MOL0     H 1336   5.716   6.730   3.862 -1.8561 -0.1885 -0.7535
   10MOL0     H 1337   5.841   6.698   3.743 -1.8955  1.4892 -3.6078
   10MOL0     H 1338   6.024   7.054   3.715  1.0373  2.5199  2.3780
   10MOL0     H 1339   6.318   7.153   3.746  1.5092  0.4593 -1.6613
   10MOL0     H 1340   6.211   7.138   3.606 -0.1490 -0.4534  0.8452
   10MOL0     H 1341   6.362   7.044   3.612  0.2170  1.3282 -1.2951
   10MOL0     H 1342   6.631   6.745   3.663 -0.4647  2.8485 -0.1063
   10MOL0     H 1343   6.867   6.766   3.634  1.6256  1.3734  1.0314
   10MOL0     H 1344   7.093   6.943   3.955 -0.1664 -0.4593  2.7464
   10MOL0     H 1345   7.142   6.781   4.018 -0.6059 -0.3842 -0.5120
   10MOL0     H 1346   7.351   6.900   3.976  1.2106 -0.0249 -0.9682
   10MOL0     H 1347   7.335   6.781   3.852  2.5170  0.3546  2.0020
   10MOL0     H 1348   7.274   7.077   3.838 -2.1354 -2.1655  2.9467
   10MOL0     H 1349   7.258   6.968   3.693 -2.2874  1.7118  1.1382
   10MOL0     H 1350   7.492   6.922   3.683  1.8257  1.5537 -1.5298
   10MOL0     H 1351   7.507   6.988   3.855 -2.7894 -0.3415  1.8954
   10MOL0     H 1352   7.427   7.205   3.722  0.2840  1.4053 -0.4067
   10MOL0     H 1353   7.598   7.169   3.707 -0.6870  0.1838  1.7361
   10MOL0     H 1354   7.364   7.114   3.523  0.5418 -0.5042 -0.3705
   10MOL0     H 1355   7.518   7.038   3.483 -0.3844 -0.9222  0.8504
   10MOL0     H 1356   7.629   7.233   3.443  1.1131  3.2594 -0.5284
   10MOL0     H 1357   7.529   7.331   3.554 -1.2433 -0.7118 -0.0353
   10MOL0     H 1358   7.433   7.246   3.289 -2.4346  1.6321 -0.2155
   10MOL0     H 1359   7.498   7.398   3.336  1.9718 -0.3250  0.4901
   10MOL0     H 1360   6.922   6.817   4.054  0.2503 -1.9738  0.2315
   10MOL0     H 1361   6.668   6.773   4.092 -1.5227 -2.4118 -0.2236
   10MOL0     H 1362   6.243   6.683   3.949 -1.9647 -0.2449  0.6735
   10MOL0     H 1363   6.028   6.685   3.940  3.5401 -1.1611 -0.0567
   10MOL0     H 1364   4.172   6.443   3.830 -4.0639  3.0607 -0.9715
   10MOL0     H 1365   4.019   6.583   3.945  0.1564  0.6021 -0.1490
   10MOL0     H 1366   3.652   6.460   4.473  2.0385 -1.3068 -0.5202
   10MOL0     H 1367   3.585   6.616   4.651 -1.0489  0.0256 -1.6184
   10MOL0     H 1368   3.541   6.793   4.808 -0.2243  0.6342 -2.8881
   10MOL0     H 1369   3.703   6.725   4.825 -0.1111  0.9222 -0.3184
   10MOL0     H 1370   3.782   6.934   4.923  0.2961 -1.5843  0.4056
   10MOL0     H 1371   3.646   6.889   5.007 -1.7085 -0.4970 -0.8017
   10MOL0     H 1372   3.634   7.087   4.781 -1.9281  0.5772  0.0915
   10MOL0     H 1373   3.498   7.028   4.856 -0.0587  0.5013  0.6561
   10MOL0     H 1374   3.564   7.092   5.089 -0.5473  0.7941  1.1061
   10MOL0     H 1375   3.536   7.226   4.987 -2.3736 -1.1325 -0.0110
   10MOL0     H 1376   3.958   7.264   5.077 -0.3303  0.5360 -0.2201
   10MOL0     H 1377   3.835   6.918   4.478 -2.0285  0.3734  0.2261
   10MOL0     H 1378   3.966   6.893   4.288  0.7510 -1.0335  0.0748
   10MOL0     H 1379   4.023   6.737   4.269 -0.0077  0.4393  1.3511
   10MOL0     H 1380   3.882   6.795   4.169 -1.0469 -0.4513 -0.0165
   11MOL0     O 1381  11.125   1.037   0.327  1.0640 -0.2164 -0.4683
   11MOL0     C 1382  11.037   1.124   0.353  0.5336  0.9384  0.0166
   11MOL0     O 1383  10.985   1.156   0.484 -0.4783  0.5961 -0.0672
   11MOL0     C 1384  11.002   1.058   0.579  0.4442  0.3921 -0.0963
   11MOL0     C 1385  10.894   1.014   0.660  0.1060 -0.2528 -0.3878
   11MOL0     C 1386  10.920   0.919   0.760 -0.8342  0.1390 -0.2864
   11MOL0     C 1387  11.047   0.876   0.790  0.5256 -0.5234  0.2856
   11MOL0     O 1388  11.079   0.798   0.894  0.7319 -0.0207 -0.9194
   11MOL0     C 1389  11.005   0.675   0.906 -0.1135 -0.0533  0.5334
   11MOL0     C 1390  11.062   0.576   0.810 -0.3123 -0.6771 -0.1071
   11MOL0     C 1391  11.194   0.529   0.874  0.7646 -0.7352 -0.7678
   11MOL0     C 1392  11.222   0.385   0.824  0.5607 -0.7578  0.4081
   11MOL0     C 1393  11.335   0.343   0.918 -0.4400  0.2693 -0.4638
   11MOL0     C 1394  11.361   0.198   0.910 -0.4007 -0.0333  0.1072
   11MOL0     C 1395  11.477   0.178   1.003  0.1098 -0.9627 -0.5160
   11MOL0     C 1396  11.526   0.030   0.998  0.5616 -0.1231  0.4034
   11MOL0     N 1397  11.617  -0.008   1.102  0.2978 -0.0353 -0.3168
   11MOL0     C 1398  11.751   0.025   1.079 -0.1702  0.4106 -0.3896
   11MOL0     C 1399  11.810  -0.010   1.199 -0.4392 -0.5563 -1.0300
   11MOL0     C 1400  11.965  -0.003   1.222  0.0885  0.5233  1.2204
   11MOL0     C 1401  12.047  -0.049   1.101  0.1337  0.6231  0.3848
   11MOL0     C 1402  12.196  -0.018   1.122 -0.4935  0.3968 -0.8064
   11MOL0     C 1403  12.281  -0.058   1.002 -0.5864  0.0862 -0.4502
   11MOL0     O 1404  12.271  -0.196   0.968 -1.1701 -0.0038 -0.2889
   11MOL0     C 1405  12.373  -0.249   0.903  0.0338 -0.0151  0.4475
   11MOL0     C 1406  12.472  -0.179   0.835  0.2381  0.5956 -0.5825
   11MOL0     C 1407  12.582  -0.245   0.787 -0.1469  0.2800 -0.4511
   11MOL0     C 1408  12.678  -0.171   0.704 -0.8537 -0.2823  0.0098
   11MOL0     C 1409  12.601  -0.384   0.799 -0.0029 -0.4052  1.3190
   11MOL0     C 1410  12.721  -0.469   0.762  0.4248 -0.7656 -0.4714
   11MOL0     O 1411  12.697  -0.601   0.724 -0.1503  0.9861  0.5496
   11MOL0     C 1412  12.791  -0.690   0.685  0.2071  0.6506 -0.3004
   11MOL0     C 1413  12.733  -0.807   0.642  0.0193  0.2380  0.7386
   11MOL0     C 1414  12.810  -0.920   0.604  0.8236  0.0986  0.3024
   11MOL0     C 1415  12.947  -0.919   0.624 -0.6901 -0.1064  0.2718
   11MOL0     O 1416  13.029  -1.020   0.606 -0.6008  0.8108  0.0332
   11MOL0     C 1417  12.980  -1.151   0.571  0.0478 -0.6683 -0.6694
   11MOL0     C 1418  12.967  -1.180   0.418 -0.5413 -0.7792 -0.2894
   11MOL0     C 1419  12.895  -1.311   0.383  0.0126  0.4083  0.9145
   11MOL0     C 1420  12.764  -1.337   0.461  0.7803  0.2726  0.1757
   11MOL0     C 1421  12.689  -1.462   0.406 -0.0405  0.3935  0.6857
   11MOL0     C 1422  12.761  -1.589   0.445  0.0231 -0.1341 -0.3277
   11MOL0     C 1423  12.696  -1.714   0.388  0.1362 -0.2203  0.4652
   11MOL0     C 1424  12.749  -1.840   0.446 -0.3959  0.0646 -1.2222
   11MOL0    Cl 1425  12.687  -1.854   0.611  0.4533 -0.1330  0.2205
   11MOL0     C 1426  13.011  -0.797   0.666 -0.4340  0.6796 -0.4632
   11MOL0     C 1427  12.932  -0.690   0.698 -0.6146 -0.3336  0.2647
   11MOL0     O 1428  12.829  -0.413   0.754 -0.2010 -0.3229  0.2617
   11MOL0     C 1429  12.500  -0.457   0.869 -0.0610  0.1092  0.9880
   11MOL0     C 1430  12.387  -0.385   0.911  0.3452  0.1961 -0.0695
   11MOL0     N 1431  11.714  -0.060   1.286 -0.1806  0.2076 -1.0060
   11MOL0     N 1432  11.602  -0.057   1.233 -0.2758 -0.2561 -0.0347
   11MOL0     C 1433  11.152   0.935   0.725 -0.2013 -0.6580 -0.6148
   11MOL0     C 1434  11.132   1.027   0.619  0.3867  0.3681  0.4354
   11MOL0     C 1435  10.983   1.207   0.243  0.4507 -1.1019 -1.1523
   11MOL0     C 1436  11.074   1.290   0.172  0.6239 -0.1605  0.1260
   11MOL0     C 1437  11.029   1.378   0.074  0.3668 -0.2077 -0.1642
   11MOL0     C 1438  10.893   1.388   0.047  0.7904  0.4907  0.5330
   11MOL0     O 1439  10.844   1.481  -0.042 -0.4031  0.2458  0.6349
   11MOL0     C 1440  10.935   1.579  -0.096 -0.0627 -0.8261 -0.2182
   11MOL0     C 1441  10.863   1.659  -0.207  1.1031  0.2009  0.6845
   11MOL0     C 1442  10.942   1.770  -0.284  0.0579  0.5284 -0.0020
   11MOL0     C 1443  10.877   1.788  -0.420 -0.4259 -0.8783 -0.2246
   11MOL0     C 1444  10.927   1.914  -0.478 -0.1941 -0.5463  1.1608
   11MOL0     C 1445  10.986   2.013  -0.520 -0.4259  0.7151 -0.2770
   11MOL0     C 1446  10.803   1.306   0.112  0.5704 -0.4194  0.1144
   11MOL0     C 1447  10.848   1.223   0.217 -0.1996 -0.4177 -0.3381
   11MOL0     C 1448  10.742   1.150   0.293  0.0928  1.2087  0.4648
   11MOL0     H 1449  10.795   1.052   0.636  0.9821  2.5065  0.1016
   11MOL0     H 1450  10.838   0.875   0.816  1.1831 -0.8025  2.1119
   11MOL0     H 1451  10.902   0.681   0.870  0.1870 -0.1224 -0.3803
   11MOL0     H 1452  10.997   0.635   1.007 -0.3555 -3.6468 -0.7755
   11MOL0     H 1453  10.992   0.494   0.788 -1.3352  0.5045 -1.4863
   11MOL0     H 1454  11.082   0.616   0.710  1.9330 -3.3406 -0.8795
   11MOL0     H 1455  11.277   0.599   0.865  0.0373  0.3148  0.3646
   11MOL0     H 1456  11.176   0.525   0.982 -1.3366  1.3969 -0.9539
   11MOL0     H 1457  11.131   0.329   0.845 -1.5964  2.1259 -0.5390
   11MOL0     H 1458  11.240   0.376   0.716  0.6762  2.1641  0.0758
   11MOL0     H 1459  11.317   0.373   1.022 -2.1024  0.5136 -0.8035
   11MOL0     H 1460  11.424   0.400   0.889  0.3058 -0.7179 -0.2069
   11MOL0     H 1461  11.275   0.141   0.949 -1.2391  1.4051  0.4223
   11MOL0     H 1462  11.393   0.160   0.813  1.0978 -0.7178  0.8346
   11MOL0     H 1463  11.449   0.199   1.106 -0.8742 -3.9196 -0.0664
   11MOL0     H 1464  11.558   0.241   0.965  0.2321 -1.4149 -1.0275
   11MOL0     H 1465  11.438  -0.035   1.005  0.5484 -0.1492  0.0556
   11MOL0     H 1466  11.562   0.006   0.897 -0.9249  2.4083 -0.8468
   11MOL0     H 1467  11.797   0.066   0.989  1.2307  0.0358  0.1342
   11MOL0     H 1468  11.996  -0.061   1.309 -1.1579  0.2331  1.4956
   11MOL0     H 1469  11.991   0.102   1.241 -0.6552  0.7521  1.0197
   11MOL0     H 1470  12.034  -0.157   1.100  2.3232  0.3063  0.9746
   11MOL0     H 1471  12.007   0.009   1.017 -0.4835 -1.0205 -0.4886
   11MOL0     H 1472  12.217   0.087   1.146 -1.1569  0.3795 -0.0860
   11MOL0     H 1473  12.229  -0.075   1.209 -0.1099 -1.7936 -2.3148
   11MOL0     H 1474  12.247   0.004   0.919  0.7368  0.7497 -0.5193
   11MOL0     H 1475  12.386  -0.033   1.019 -0.1509 -0.4215 -2.1684
   11MOL0     H 1476  12.459  -0.073   0.816 -0.3077 -0.0281 -4.8154
   11MOL0     H 1477  12.764  -0.139   0.764 -0.6616 -1.4554  0.3963
   11MOL0     H 1478  12.633  -0.077   0.669 -0.2300  0.5659  1.3967
   11MOL0     H 1479  12.705  -0.220   0.611  1.2623 -0.1177  0.4832
   11MOL0     H 1480  12.625  -0.819   0.639 -0.0070  0.4620  0.7721
   11MOL0     H 1481  12.757  -1.003   0.557 -0.2964  0.6237  0.6023
   11MOL0     H 1482  13.041  -1.223   0.626 -0.3797  1.0252  2.2256
   11MOL0     H 1483  12.887  -1.168   0.626 -0.3261 -2.0804 -1.6860
   11MOL0     H 1484  12.912  -1.094   0.376  1.7912  0.7034 -0.4880
   11MOL0     H 1485  13.062  -1.182   0.365 -0.9212  0.6784 -1.0967
   11MOL0     H 1486  12.952  -1.402   0.402 -1.4157 -0.8275 -0.3923
   11MOL0     H 1487  12.877  -1.305   0.275 -1.7561  2.1718  1.2433
   11MOL0     H 1488  12.702  -1.248   0.442 -0.9493 -1.2953 -2.0401
   11MOL0     H 1489  12.798  -1.357   0.563  1.2770 -1.2694 -0.2737
   11MOL0     H 1490  12.584  -1.469   0.438 -0.8455  0.8671 -1.6726
   11MOL0     H 1491  12.667  -1.463   0.299  0.1717 -1.4730  0.6328
   11MOL0     H 1492  12.761  -1.600   0.554 -0.1685  0.5443 -0.2525
   11MOL0     H 1493  12.863  -1.576   0.407 -0.7775  0.7857 -2.3209
   11MOL0     H 1494  12.721  -1.722   0.282 -0.0539 -1.2623  0.4939
   11MOL0     H 1495  12.587  -1.700   0.388  0.2818  2.5190 -3.2083
   11MOL0     H 1496  12.858  -1.848   0.449 -0.5022 -2.7901 -2.3188
   11MOL0     H 1497  12.714  -1.920   0.381  0.2135 -1.8142  0.6443
   11MOL0     H 1498  13.117  -0.794   0.690 -0.6630  2.6170  0.4907
   11MOL0     H 1499  12.989  -0.603   0.726 -0.8417  0.9550 -2.9162
   11MOL0     H 1500  12.503  -0.565   0.884 -0.1744  0.2583  2.1170
   11MOL0     H 1501  12.330  -0.448   0.978  1.5011 -0.9272 -0.0863
   11MOL0     H 1502  11.246   0.891   0.757 -0.3433  0.2343  1.1288
   11MOL0     H 1503  11.222   1.058   0.567  0.9195  0.5338  1.4298
   11MOL0     H 1504  11.179   1.281   0.198  0.4945 -0.0042  0.7202
   11MOL0     H 1505  11.100   1.447   0.028  1.9354 -0.2258  2.0660
   11MOL0     H 1506  10.972   1.641  -0.014 -0.8423  0.5954 -0.9065
   11MOL0     H 1507  11.018   1.529  -0.147  0.4730 -1.0553  0.8524
   11MOL0     H 1508  10.774   1.700  -0.158  0.7532 -1.7247  1.7852
   11MOL0     H 1509  10.827   1.589  -0.283  0.1365 -1.0600  2.2490
   11MOL0     H 1510  10.936   1.855  -0.214 -0.1727 -0.2147  0.9034
   11MOL0     H 1511  11.040   1.727  -0.306  0.3530 -1.1005  3.7024
   11MOL0     H 1512  10.770   1.790  -0.401  0.0644  1.1066  3.2053
   11MOL0     H 1513  10.895   1.702  -0.485  0.2183 -0.9765  0.0698
   11MOL0     H 1514  11.031   2.101  -0.560 -0.7935  1.7188  1.4541
   11MOL0     H 1515  10.697   1.318   0.092  0.7355 -0.0548 -0.5580
   11MOL0     H 1516  10.779   1.051   0.321 -1.1153  0.5880 -0.0446
   11MOL0     H 1517  10.737   1.212   0.383 -0.0979 -0.5284  1.6989
   11MOL0     H 1518  10.648   1.133   0.240 -0.3623 -1.0848  1.8712
   12MOL0     O 1519   1.874   7.703   7.450  0.5700  0.1593 -0.3278
   12MOL0     C 1520   1.875   7.724   7.569 -0.6945 -0.3655 -0.8101
   12MOL0     O 1521   1.957   7.667   7.661  0.3286 -0.3311 -0.8296
   12MOL0     C 1522   2.044   7.568   7.637 -0.0970 -0.7770  0.1030
   12MOL0     C 1523   2.062   7.467   7.728 -0.8790  0.1398 -0.4044
   12MOL0     C 1524   2.167   7.373   7.721  1.0962  0.3261  0.7270
   12MOL0     C 1525   2.265   7.393   7.632 -0.7164  0.8634 -0.1422
   12MOL0     O 1526   2.361   7.297   7.632  0.0057  0.0177 -0.2474
   12MOL0     C 1527   2.397   7.240   7.501 -0.2170  0.5918 -0.2102
   12MOL0     C 1528   2.437   7.097   7.507 -0.2827 -0.0113  0.8774
   12MOL0     C 1529   2.577   7.081   7.563 -0.6717 -0.0241 -0.2495
   12MOL0     C 1530   2.677   7.054   7.449 -0.5709  0.4724  0.1780
   12MOL0     C 1531   2.807   7.008   7.518  0.1315 -0.0676  0.1407
   12MOL0     C 1532   2.932   6.990   7.437  0.6105 -0.3916  0.2056
   12MOL0     C 1533   3.060   6.964   7.519 -0.0891 -0.3397 -0.5224
   12MOL0     C 1534   3.187   6.929   7.445  0.1648  0.7319 -0.1098
   12MOL0     N 1535   3.304   6.953   7.531 -0.6287  0.3015 -0.3669
   12MOL0     C 1536   3.321   6.927   7.666  0.4862  0.4016  0.0534
   12MOL0     C 1537   3.441   6.972   7.694 -0.7822 -0.3929  0.0309
   12MOL0     C 1538   3.498   6.995   7.829  0.6717  0.2102 -0.8005
   12MOL0     C 1539   3.646   6.940   7.837 -0.9671 -0.0385 -0.0140
   12MOL0     C 1540   3.695   6.956   7.979  0.2272 -0.4351  0.1265
   12MOL0     C 1541   3.841   6.926   8.014  0.6843  0.8801  0.1910
   12MOL0     O 1542   3.919   7.008   7.939  0.0783 -0.6922  0.5367
   12MOL0     C 1543   4.052   7.024   7.954 -0.0286 -0.7096 -0.5796
   12MOL0     C 1544   4.128   6.945   8.036  0.4527 -0.3599  0.5338
   12MOL0     C 1545   4.262   6.954   8.048 -0.0818  0.1342 -1.0820
   12MOL0     C 1546   4.335   6.853   8.134  0.1663  0.7137  0.0236
   12MOL0     C 1547   4.326   7.062   7.985 -1.2801 -0.6448 -0.5472
   12MOL0     C 1548   4.473   7.086   7.988  0.4790 -0.5126  0.3590
   12MOL0     O 1549   4.529   7.122   7.869 -0.1487  0.4298 -0.2884
   12MOL0     C 1550   4.660   7.146   7.871 -0.0688 -0.2581  0.7093
   12MOL0     C 1551   4.744   7.037   7.843  0.0034  0.3599  0.0408
   12MOL0     C 1552   4.879   7.053   7.820 -0.2312  1.0668 -0.6444
   12MOL0     C 1553   4.942   7.173   7.849  0.6602  0.4524  0.1679
   12MOL0     O 1554   5.078   7.179   7.822 -0.1835 -0.2484  0.0164
   12MOL0     C 1555   5.144   7.302   7.776 -0.5561  1.1479 -0.2890
   12MOL0     C 1556   5.298   7.283   7.770 -0.2707 -0.6251 -0.1655
   12MOL0     C 1557   5.347   7.167   7.681  0.0554 -0.3470 -0.0751
   12MOL0     C 1558   5.500   7.168   7.670  0.0282  0.1165 -0.1427
   12MOL0     C 1559   5.568   7.117   7.798  0.5115  0.5307  0.2982
   12MOL0     C 1560   5.719   7.097   7.775 -1.4380  0.3095  0.7096
   12MOL0     C 1561   5.784   7.231   7.743  0.1598  0.0621  0.3325
   12MOL0     C 1562   5.931   7.192   7.713  0.0552  0.2365 -0.6759
   12MOL0    Cl 1563   6.013   7.324   7.632  0.0948  0.0840  0.2420
   12MOL0     C 1564   4.861   7.281   7.872  0.2471 -0.5382 -0.2768
   12MOL0     C 1565   4.717   7.274   7.883  0.4999  0.0094 -0.0889
   12MOL0     O 1566   4.529   7.095   8.097 -0.2144 -0.2368  0.3748
   12MOL0     C 1567   4.256   7.151   7.912  0.6894 -0.3182  0.3995
   12MOL0     C 1568   4.117   7.127   7.895 -0.4419  0.2484  0.4492
   12MOL0     N 1569   3.504   7.034   7.586  0.1590  0.2203 -0.5031
   12MOL0     N 1570   3.422   7.012   7.492  0.3914 -0.5953  1.0319
   12MOL0     C 1571   2.247   7.487   7.532  0.3753  0.6090  0.7894
   12MOL0     C 1572   2.142   7.580   7.533 -0.2420 -0.1239 -0.1391
   12MOL0     C 1573   1.788   7.821   7.616 -0.0524  0.1920  0.3796
   12MOL0     C 1574   1.820   7.897   7.736  0.4880 -0.0688  0.0060
   12MOL0     C 1575   1.755   8.006   7.782  1.5845  0.7176  0.3570
   12MOL0     C 1576   1.635   8.042   7.721 -0.4991  0.5358 -0.5953
   12MOL0     O 1577   1.579   8.152   7.761  0.0472 -0.6524 -0.2234
   12MOL0     C 1578   1.448   8.185   7.718  0.6792  0.2622  0.1590
   12MOL0     C 1579   1.411   8.319   7.797  0.9999  0.0792  0.3016
   12MOL0     C 1580   1.389   8.290   7.953 -0.0715  0.1943 -0.2951
   12MOL0     C 1581   1.347   8.424   8.020 -0.1534  0.0218  0.9125
   12MOL0     C 1582   1.461   8.519   8.022  0.2336  0.0056 -0.4155
   12MOL0     C 1583   1.545   8.602   8.025  0.8898  0.3128  0.6171
   12MOL0     C 1584   1.595   7.967   7.608 -0.4417 -0.9508 -0.0503
   12MOL0     C 1585   1.671   7.861   7.549  0.6613 -0.2059 -0.1252
   12MOL0     C 1586   1.606   7.783   7.431  0.5738  0.6378  0.9928
   12MOL0     H 1587   1.994   7.456   7.812 -1.7005 -3.7932 -1.3442
   12MOL0     H 1588   2.176   7.289   7.789 -0.3660 -0.5066 -0.0649
   12MOL0     H 1589   2.475   7.299   7.453  1.4282  0.8175  2.5291
   12MOL0     H 1590   2.309   7.230   7.437 -0.3321  0.8707 -0.0950
   12MOL0     H 1591   2.363   7.048   7.571 -1.9879 -0.1073 -1.0727
   12MOL0     H 1592   2.432   7.053   7.407  1.2119 -0.5665  1.0224
   12MOL0     H 1593   2.609   7.168   7.622  2.3055 -3.0242  3.0909
   12MOL0     H 1594   2.576   6.989   7.622 -2.6738  0.5325  0.6894
   12MOL0     H 1595   2.640   6.982   7.375  0.2344 -0.0563  0.2731
   12MOL0     H 1596   2.692   7.152   7.403 -1.3982  0.4682 -0.1204
   12MOL0     H 1597   2.788   6.909   7.558  1.9307 -1.5607 -2.4104
   12MOL0     H 1598   2.826   7.077   7.600 -1.8944 -1.1367  1.5914
   12MOL0     H 1599   2.921   6.904   7.370 -1.0318  1.1783 -1.6756
   12MOL0     H 1600   2.936   7.083   7.379  1.9667 -0.9270 -0.5980
   12MOL0     H 1601   3.042   6.877   7.583 -0.2741 -0.3622 -0.6026
   12MOL0     H 1602   3.080   7.056   7.574 -1.3108  0.2323 -0.9802
   12MOL0     H 1603   3.182   6.823   7.423 -0.8829  0.6285  0.5502
   12MOL0     H 1604   3.193   6.985   7.351 -3.2593 -1.9514 -2.1307
   12MOL0     H 1605   3.243   6.885   7.730  0.1183 -1.0882 -1.2892
   12MOL0     H 1606   3.436   6.947   7.904  1.3944  2.3582  1.3023
   12MOL0     H 1607   3.495   7.102   7.854 -2.6414  0.1396 -0.4618
   12MOL0     H 1608   3.649   6.836   7.804 -2.4580 -0.8569  2.1708
   12MOL0     H 1609   3.716   6.996   7.775 -2.0770  2.5825  0.9302
   12MOL0     H 1610   3.675   7.057   8.014 -1.0739 -0.4488 -0.5456
   12MOL0     H 1611   3.630   6.891   8.039 -0.0747  0.8253  1.2084
   12MOL0     H 1612   3.866   6.937   8.119  2.5520  2.2727 -0.3424
   12MOL0     H 1613   3.871   6.827   7.979  3.6093  0.0837  4.2720
   12MOL0     H 1614   4.077   6.866   8.092  1.3332 -0.5432  1.0948
   12MOL0     H 1615   4.264   6.781   8.175  0.9736 -0.7146 -0.9919
   12MOL0     H 1616   4.393   6.899   8.215  0.2474 -0.9482  0.9523
   12MOL0     H 1617   4.405   6.801   8.067 -0.3758  0.7582 -0.5864
   12MOL0     H 1618   4.704   6.938   7.824  3.5585 -1.4760  1.2374
   12MOL0     H 1619   4.933   6.967   7.782 -3.5360 -0.9763 -1.1259
   12MOL0     H 1620   5.116   7.332   7.674  0.1663 -0.5191 -1.0200
   12MOL0     H 1621   5.125   7.383   7.847 -0.1236 -0.7097  2.0589
   12MOL0     H 1622   5.342   7.377   7.734 -1.5825 -0.1103 -0.4927
   12MOL0     H 1623   5.338   7.277   7.872 -0.1992  1.6232 -0.0077
   12MOL0     H 1624   5.299   7.182   7.584  0.2544  0.3584 -0.0673
   12MOL0     H 1625   5.305   7.069   7.709 -2.9311  0.4680 -1.3050
   12MOL0     H 1626   5.524   7.271   7.642 -0.1790  0.7548  1.9032
   12MOL0     H 1627   5.515   7.113   7.577 -4.8651  2.1260 -2.4762
   12MOL0     H 1628   5.561   7.190   7.879 -0.4542 -0.7122  1.3679
   12MOL0     H 1629   5.514   7.026   7.824  1.2907 -0.4990 -1.4430
   12MOL0     H 1630   5.738   7.035   7.687 -0.4429 -0.3480  1.3492
   12MOL0     H 1631   5.772   7.054   7.861  0.6137  1.5531  0.1291
   12MOL0     H 1632   5.786   7.287   7.837  0.4171 -2.5569  1.9895
   12MOL0     H 1633   5.737   7.282   7.659 -0.4307 -0.6897  0.1987
   12MOL0     H 1634   5.939   7.108   7.644 -0.7999  1.4032 -2.2833
   12MOL0     H 1635   5.992   7.184   7.803  0.1266  1.6047 -0.5869
   12MOL0     H 1636   4.906   7.379   7.865  3.3228 -1.7335  0.8585
   12MOL0     H 1637   4.654   7.362   7.881 -1.6820 -1.4599  0.2093
   12MOL0     H 1638   4.305   7.237   7.867  1.7406 -0.4078  1.3338
   12MOL0     H 1639   4.058   7.185   7.825 -3.2794 -2.5083  0.3395
   12MOL0     H 1640   2.328   7.501   7.461 -0.3026  0.8845  0.0529
   12MOL0     H 1641   2.136   7.661   7.461 -0.3939 -1.0397 -1.1860
   12MOL0     H 1642   1.912   7.867   7.785 -0.4516  1.1148  2.7394
   12MOL0     H 1643   1.805   8.052   7.867  0.6585  1.2221  0.6409
   12MOL0     H 1644   1.449   8.205   7.610 -0.1885 -0.9518 -0.0913
   12MOL0     H 1645   1.382   8.099   7.732 -1.1274  1.2624 -1.6957
   12MOL0     H 1646   1.319   8.356   7.751  0.6814 -3.1535 -2.0522
   12MOL0     H 1647   1.495   8.389   7.783  1.3201 -0.2932  0.3339
   12MOL0     H 1648   1.304   8.222   7.957  1.5126 -1.9216 -0.6375
   12MOL0     H 1649   1.473   8.241   8.004 -1.5972  0.4553  2.6823
   12MOL0     H 1650   1.325   8.396   8.123  1.7692  0.5963  1.5166
   12MOL0     H 1651   1.259   8.474   7.978  0.5448 -0.3783 -1.1654
   12MOL0     H 1652   1.616   8.681   8.017  0.0143  0.9494 -1.6751
   12MOL0     H 1653   1.508   8.005   7.555  0.3684  0.2281 -0.5833
   12MOL0     H 1654   1.650   7.815   7.336  1.0618  0.6867  1.2333
   12MOL0     H 1655   1.623   7.676   7.443  2.2181  0.5622 -1.3210
   12MOL0     H 1656   1.498   7.802   7.425  0.4610 -0.2834 -2.5586
   13MOL0     O 1657   4.046   4.700   6.113  0.6631 -0.5588  0.7667
   13MOL0     C 1658   3.955   4.770   6.162  0.1942 -0.5281 -0.0918
   13MOL0     O 1659   3.939   4.800   6.298  0.1654  0.0664  0.1635
   13MOL0     C 1660   4.043   4.785   6.383 -0.6203 -0.1976 -0.4014
   13MOL0     C 1661   4.000   4.773   6.520 -0.3360 -0.0239 -0.4251
   13MOL0     C 1662   4.088   4.758   6.624 -0.4385 -0.3361 -0.1989
   13MOL0     C 1663   4.223   4.778   6.598 -0.1824  0.1344 -0.5602
   13MOL0     O 1664   4.313   4.751   6.696  0.0842 -0.3761 -0.3905
   13MOL0     C 1665   4.341   4.615   6.726  0.3874  0.2021  0.4058
   13MOL0     C 1666   4.478   4.559   6.677  0.2319 -0.6770  0.0698
   13MOL0     C 1667   4.601   4.644   6.707 -0.6972  0.0479 -0.5396
   13MOL0     C 1668   4.715   4.543   6.674  0.3982  0.6049 -0.3682
   13MOL0     C 1669   4.846   4.622   6.681 -0.9027 -0.0466 -1.0842
   13MOL0     C 1670   4.961   4.543   6.622 -0.5392  0.1475  0.8809
   13MOL0     C 1671   5.091   4.628   6.614  0.3279 -1.1091  0.6275
   13MOL0     C 1672   5.203   4.527   6.573  0.0437  0.4158 -0.3398
   13MOL0     N 1673   5.330   4.598   6.564  0.4486 -0.0072 -0.3076
   13MOL0     C 1674   5.397   4.682   6.656  0.1726  0.3682  0.1546
   13MOL0     C 1675   5.485   4.745   6.583  0.4031 -0.8365  0.2701
   13MOL0     C 1676   5.584   4.853   6.615  0.3672 -0.2294 -0.4424
   13MOL0     C 1677   5.727   4.806   6.609 -0.1434  0.0305  0.5798
   13MOL0     C 1678   5.764   4.677   6.688 -0.0926  0.0036 -0.6711
   13MOL0     C 1679   5.909   4.634   6.669  0.5906  0.1596  0.5744
   13MOL0     O 1680   5.934   4.616   6.527  0.1864  0.2921 -0.3599
   13MOL0     C 1681   6.061   4.638   6.475 -0.1214 -0.0177  0.6571
   13MOL0     C 1682   6.066   4.665   6.342 -0.2296 -0.3028  0.8403
   13MOL0     C 1683   6.191   4.710   6.279  0.1170  0.5539 -0.3375
   13MOL0     C 1684   6.174   4.747   6.132 -0.7221 -0.5840 -0.3103
   13MOL0     C 1685   6.299   4.744   6.366 -0.1755 -0.6770  0.7828
   13MOL0     C 1686   6.432   4.797   6.330 -0.5529 -0.4375 -0.0967
   13MOL0     O 1687   6.536   4.750   6.410  0.0816  0.5099  0.6865
   13MOL0     C 1688   6.654   4.821   6.401  0.5438 -0.7082 -0.9566
   13MOL0     C 1689   6.674   4.933   6.480 -0.7694 -0.8405 -0.0636
   13MOL0     C 1690   6.791   5.003   6.475  0.8570 -0.5483  0.2171
   13MOL0     C 1691   6.896   4.959   6.386 -0.5142 -0.0136  0.1159
   13MOL0     O 1692   7.006   5.036   6.373 -0.0219 -0.1799 -0.0858
   13MOL0     C 1693   7.128   4.971   6.329 -0.3854 -0.3471 -0.0668
   13MOL0     C 1694   7.256   5.039   6.378  0.1426  0.2965 -0.0681
   13MOL0     C 1695   7.277   5.049   6.530 -0.4087 -0.0876  0.8961
   13MOL0     C 1696   7.395   5.138   6.564 -0.4290 -0.2427  0.3705
   13MOL0     C 1697   7.436   5.120   6.711 -0.9043  0.5810  0.1483
   13MOL0     C 1698   7.573   5.179   6.733 -0.9732  0.7744  0.6797
   13MOL0     C 1699   7.627   5.171   6.873 -0.6467  0.2278 -0.0667
   13MOL0     C 1700   7.780   5.180   6.872  0.0333  0.5729  0.2559
   13MOL0    Cl 1701   7.833   5.338   6.816 -0.2689 -0.0381 -0.6392
   13MOL0     C 1702   6.876   4.848   6.302 -0.0643  0.0471  0.3106
   13MOL0     C 1703   6.760   4.771   6.327  0.3088  0.7486  0.3994
   13MOL0     O 1704   6.440   4.879   6.238 -0.3695 -0.0940  0.1860
   13MOL0     C 1705   6.293   4.694   6.500  0.2143 -0.2973  0.2429
   13MOL0     C 1706   6.173   4.653   6.556 -0.6186  0.3469  0.4363
   13MOL0     N 1707   5.471   4.705   6.450 -0.1529  0.2795 -0.8764
   13MOL0     N 1708   5.379   4.613   6.439  0.1261 -0.5210  0.4739
   13MOL0     C 1709   4.266   4.801   6.467  0.4945  0.6613 -0.3437
   13MOL0     C 1710   4.175   4.793   6.357 -0.7541  0.2944  0.9988
   13MOL0     C 1711   3.857   4.825   6.069 -0.0469 -0.2139  0.1937
   13MOL0     C 1712   3.747   4.874   6.128  0.5862 -0.8182  0.3318
   13MOL0     C 1713   3.638   4.937   6.066 -0.2893  0.3899 -0.4797
   13MOL0     C 1714   3.639   4.961   5.929 -0.6215  0.0554 -0.0878
   13MOL0     O 1715   3.539   5.025   5.856  0.5480 -0.6475 -0.8743
   13MOL0     C 1716   3.417   5.052   5.926 -0.3981 -0.4432 -0.6722
   13MOL0     C 1717   3.311   5.096   5.830  0.4318 -0.0860  0.1463
   13MOL0     C 1718   3.273   4.984   5.738 -0.7665 -0.3523  0.5228
   13MOL0     C 1719   3.188   5.034   5.619  0.9318 -1.1223 -0.3115
   13MOL0     C 1720   3.066   5.100   5.671 -0.3749  0.4008 -0.3321
   13MOL0     C 1721   2.950   5.125   5.694 -0.2092  0.3916 -0.2085
   13MOL0     C 1722   3.739   4.893   5.862 -0.3530 -0.8389 -0.2387
   13MOL0     C 1723   3.855   4.825   5.926  0.7736 -0.3842 -0.6814
   13MOL0     C 1724   3.975   4.785   5.842 -0.5400 -1.0911  0.0557
   13MOL0     H 1725   3.895   4.767   6.544 -0.6458  0.0273 -1.6857
   13MOL0     H 1726   4.049   4.750   6.725  1.4527  0.5576  0.6527
   13MOL0     H 1727   4.257   4.553   6.692  1.6059 -0.0860 -2.3825
   13MOL0     H 1728   4.349   4.623   6.835  3.8310  1.2516  0.1845
   13MOL0     H 1729   4.491   4.462   6.727  2.2789  0.2438  1.4349
   13MOL0     H 1730   4.474   4.544   6.569  1.7365 -3.9352  0.3455
   13MOL0     H 1731   4.611   4.727   6.636  0.1795 -1.2681 -2.0247
   13MOL0     H 1732   4.602   4.668   6.813 -0.3612  2.2274 -0.9914
   13MOL0     H 1733   4.721   4.462   6.748  2.3327  0.2638 -0.8409
   13MOL0     H 1734   4.696   4.504   6.574  2.3896  2.3930 -1.5078
   13MOL0     H 1735   4.863   4.643   6.787 -1.3786  1.0131 -1.2048
   13MOL0     H 1736   4.847   4.721   6.635  0.8957  0.5315  0.0837
   13MOL0     H 1737   4.970   4.453   6.683  2.5790  0.6468  1.3180
   13MOL0     H 1738   4.940   4.522   6.516  0.9323  1.2968  0.3241
   13MOL0     H 1739   5.111   4.657   6.717  3.5232 -0.8325  0.0173
   13MOL0     H 1740   5.070   4.715   6.551  0.6835 -1.6726 -0.2993
   13MOL0     H 1741   5.211   4.437   6.636 -1.2161  1.4035  1.3201
   13MOL0     H 1742   5.182   4.495   6.471 -1.5852  1.0845 -0.2416
   13MOL0     H 1743   5.381   4.692   6.763  0.4287 -2.1447  0.5005
   13MOL0     H 1744   5.578   4.896   6.715  3.4333  1.3103 -0.8070
   13MOL0     H 1745   5.579   4.938   6.545  0.1685 -0.4476 -0.6963
   13MOL0     H 1746   5.760   4.783   6.507  2.0342 -0.1079  1.2518
   13MOL0     H 1747   5.776   4.895   6.648 -0.4621  0.8572 -0.8535
   13MOL0     H 1748   5.746   4.693   6.795  2.4737  0.2777 -0.2270
   13MOL0     H 1749   5.702   4.600   6.642  1.0335  1.0475 -4.2844
   13MOL0     H 1750   5.974   4.715   6.704 -0.9618  1.0849  1.4537
   13MOL0     H 1751   5.931   4.548   6.733  1.1216  0.1975  0.4468
   13MOL0     H 1752   5.977   4.648   6.283 -1.7946  1.7491  2.4905
   13MOL0     H 1753   6.268   4.730   6.079 -1.2473 -1.7021 -0.9293
   13MOL0     H 1754   6.140   4.850   6.122  1.6003  0.2617  0.0394
   13MOL0     H 1755   6.104   4.686   6.074  0.2624  0.3649 -2.6125
   13MOL0     H 1756   6.592   4.978   6.535  0.8104  0.1782  1.5551
   13MOL0     H 1757   6.812   5.094   6.532  2.9653 -2.3724  2.6023
   13MOL0     H 1758   7.131   4.873   6.376 -0.5821  0.9087  2.7834
   13MOL0     H 1759   7.126   4.951   6.221 -1.1379 -0.8983  0.0419
   13MOL0     H 1760   7.343   4.989   6.334  1.1000  2.0445 -0.2348
   13MOL0     H 1761   7.275   5.140   6.340  2.9793 -0.7129 -1.6895
   13MOL0     H 1762   7.294   4.946   6.563  1.5595  0.5133  1.9049
   13MOL0     H 1763   7.182   5.082   6.572 -0.5289  1.5704 -0.5594
   13MOL0     H 1764   7.370   5.243   6.545 -0.6408 -0.3193  0.2254
   13MOL0     H 1765   7.475   5.105   6.497 -2.8924 -3.3380 -1.3045
   13MOL0     H 1766   7.352   5.165   6.764 -0.5056 -0.8698  2.1356
   13MOL0     H 1767   7.437   5.014   6.739  0.5993  1.1432  2.5926
   13MOL0     H 1768   7.565   5.284   6.705 -4.8932  0.0779 -1.5186
   13MOL0     H 1769   7.643   5.122   6.672 -0.2493  0.7891  1.4741
   13MOL0     H 1770   7.600   5.079   6.927  1.4054 -0.0174  0.6295
   13MOL0     H 1771   7.599   5.263   6.925  2.9721  1.9046 -0.7712
   13MOL0     H 1772   7.829   5.102   6.812 -2.3088 -0.8065  0.0042
   13MOL0     H 1773   7.809   5.178   6.978  0.0366 -0.9553  0.2469
   13MOL0     H 1774   6.952   4.823   6.229  0.9198  2.3688  0.4605
   13MOL0     H 1775   6.748   4.681   6.269 -1.4447  1.3034 -0.1507
   13MOL0     H 1776   6.382   4.714   6.559  2.0085 -1.0034 -2.0736
   13MOL0     H 1777   6.160   4.629   6.661 -2.0259 -1.3236 -0.0673
   13MOL0     H 1778   4.372   4.817   6.453  0.4112  2.6232  0.7773
   13MOL0     H 1779   4.219   4.814   6.260 -0.6665 -0.8670  0.7737
   13MOL0     H 1780   3.744   4.862   6.236 -0.9628  0.0885  0.4026
   13MOL0     H 1781   3.551   4.977   6.117 -0.3395  1.4100 -1.3259
   13MOL0     H 1782   3.373   4.965   5.975 -1.7588  0.7189  0.2542
   13MOL0     H 1783   3.429   5.129   6.003  1.3570 -1.9055  0.6076
   13MOL0     H 1784   3.329   5.189   5.776 -0.6773  0.7878  1.2252
   13MOL0     H 1785   3.224   5.127   5.890  0.3559  1.0444 -0.5157
   13MOL0     H 1786   3.359   4.926   5.702 -0.8230 -0.8246  1.1363
   13MOL0     H 1787   3.208   4.912   5.789  0.9903 -1.0196  1.9285
   13MOL0     H 1788   3.156   4.959   5.546 -1.2216 -0.9872  0.4050
   13MOL0     H 1789   3.237   5.115   5.564 -1.8802 -0.1562 -1.6247
   13MOL0     H 1790   2.850   5.126   5.730  0.5499 -0.0988  2.0711
   13MOL0     H 1791   3.741   4.889   5.754  0.9208 -3.2944 -0.1979
   13MOL0     H 1792   3.968   4.676   5.834 -1.8483 -0.9353 -1.4258
   13MOL0     H 1793   3.962   4.824   5.740 -0.8322  0.5896  0.7043
   13MOL0     H 1794   4.074   4.819   5.875 -0.7186  1.3012 -1.6192
   14MOL0     O 1795   2.068   4.916   6.615  0.1346  0.5846 -0.5803
   14MOL0     C 1796   1.980   4.996   6.641  0.3441  0.0774  0.4884
   14MOL0     O 1797   1.984   5.124   6.623 -0.3288 -0.2703 -0.5203
   14MOL0     C 1798   2.089   5.175   6.553 -0.1541 -0.2044 -0.2860
   14MOL0     C 1799   2.211   5.213   6.614  0.4091  0.1896 -0.3154
   14MOL0     C 1800   2.323   5.242   6.540 -0.6164  0.2226  0.3096
   14MOL0     C 1801   2.322   5.236   6.405  0.0922 -0.6028  0.6935
   14MOL0     O 1802   2.436   5.272   6.343  0.1289 -0.4345  0.1515
   14MOL0     C 1803   2.477   5.202   6.223  0.0949  0.5127  0.1147
   14MOL0     C 1804   2.624   5.221   6.191  1.0407 -0.9424  0.8753
   14MOL0     C 1805   2.653   5.164   6.055 -0.7552 -0.0528 -0.3413
   14MOL0     C 1806   2.789   5.220   6.000  0.1951 -0.2694  0.3630
   14MOL0     C 1807   2.915   5.134   6.011  0.1905 -0.5889  0.0379
   14MOL0     C 1808   2.959   5.105   6.154  0.1599  0.5873 -0.1539
   14MOL0     C 1809   3.062   4.992   6.167 -0.0844 -0.6702 -0.0871
   14MOL0     C 1810   3.206   5.016   6.186 -0.7021 -0.1790  0.1816
   14MOL0     N 1811   3.256   5.059   6.320 -0.4980 -0.2644 -0.3020
   14MOL0     C 1812   3.226   5.158   6.408 -0.8401 -0.2055  0.0516
   14MOL0     C 1813   3.328   5.172   6.494 -0.4696  0.6091 -0.7606
   14MOL0     C 1814   3.327   5.284   6.605 -0.0709 -0.2716 -0.5124
   14MOL0     C 1815   3.277   5.211   6.739  0.1452  0.3212 -0.6442
   14MOL0     C 1816   3.380   5.115   6.783 -0.2093  0.0630  0.3508
   14MOL0     C 1817   3.515   5.176   6.824  0.1917  0.9347  1.2969
   14MOL0     O 1818   3.512   5.277   6.922  0.6481 -0.0543 -0.0746
   14MOL0     C 1819   3.632   5.332   6.971  0.5231 -0.4225  0.8216
   14MOL0     C 1820   3.626   5.454   7.037 -0.3655 -1.2478  0.5479
   14MOL0     C 1821   3.745   5.515   7.092 -0.1233 -0.7453 -0.5689
   14MOL0     C 1822   3.725   5.649   7.148  0.5082 -0.8088  0.4734
   14MOL0     C 1823   3.870   5.445   7.086 -0.4699 -0.2319  0.0431
   14MOL0     C 1824   4.003   5.498   7.139  0.0701  0.3995 -0.0153
   14MOL0     O 1825   4.117   5.412   7.147 -0.7755  0.4862 -0.2226
   14MOL0     C 1826   4.233   5.445   7.223 -0.2697  0.8792  0.3683
   14MOL0     C 1827   4.240   5.483   7.358  0.3672  0.3273 -0.3093
   14MOL0     C 1828   4.366   5.521   7.412  0.4696 -0.0543 -0.1607
   14MOL0     C 1829   4.484   5.514   7.340 -1.3091 -0.1518 -0.5403
   14MOL0     O 1830   4.600   5.549   7.409 -0.2110 -0.1581 -0.1379
   14MOL0     C 1831   4.695   5.631   7.334  0.1334  0.4747 -0.6402
   14MOL0     C 1832   4.802   5.686   7.428 -0.3601 -0.3765 -0.1227
   14MOL0     C 1833   4.750   5.758   7.564  0.5197  1.1065  0.5763
   14MOL0     C 1834   4.845   5.853   7.639  0.4823 -0.6394  0.7401
   14MOL0     C 1835   4.991   5.806   7.672  0.1208  0.4299  0.5676
   14MOL0     C 1836   5.089   5.798   7.555 -0.2163  1.0250  0.0255
   14MOL0     C 1837   5.222   5.732   7.608  0.2463 -0.0998 -0.2407
   14MOL0     C 1838   5.340   5.758   7.512 -0.6799  0.6469 -0.3161
   14MOL0    Cl 1839   5.283   5.684   7.357 -0.2757  0.0267  0.1438
   14MOL0     C 1840   4.482   5.459   7.214  0.2007  0.4467 -0.1459
   14MOL0     C 1841   4.357   5.429   7.159  0.1682  0.1553 -0.0640
   14MOL0     O 1842   4.006   5.613   7.184 -0.5568 -0.2156  0.3148
   14MOL0     C 1843   3.868   5.317   7.029 -0.7718  0.1665 -0.6557
   14MOL0     C 1844   3.757   5.266   6.968  0.2521 -0.2444 -0.4915
   14MOL0     N 1845   3.424   5.077   6.459 -0.4812 -0.0353 -0.5194
   14MOL0     N 1846   3.382   5.007   6.355  0.2469 -0.9437  0.2113
   14MOL0     C 1847   2.202   5.199   6.336  0.3416 -1.0665 -0.2855
   14MOL0     C 1848   2.086   5.174   6.409 -0.0717  1.2935 -1.1456
   14MOL0     C 1849   1.862   4.946   6.706  0.5524  0.4579 -0.5335
   14MOL0     C 1850   1.806   5.020   6.809  0.3161  0.4534  0.6427
   14MOL0     C 1851   1.692   4.976   6.878 -0.4739 -0.1128 -0.1609
   14MOL0     C 1852   1.624   4.862   6.845 -0.9615  0.1819  0.0947
   14MOL0     O 1853   1.519   4.830   6.926  0.8413  0.0866  0.8045
   14MOL0     C 1854   1.453   4.705   6.931 -0.1462 -0.3844  0.0272
   14MOL0     C 1855   1.347   4.684   7.041  0.3166 -0.3172  0.3718
   14MOL0     C 1856   1.398   4.714   7.180 -0.4825  0.2320 -0.3290
   14MOL0     C 1857   1.289   4.713   7.284 -0.2040  0.0557 -0.0981
   14MOL0     C 1858   1.349   4.718   7.418  0.2490  0.5966  0.5864
   14MOL0     C 1859   1.420   4.726   7.600 -0.6943 -0.4482 -0.1688
   14MOL0     C 1860   1.678   4.778   6.749 -0.0455 -0.1128 -0.2327
   14MOL0     C 1861   1.789   4.825   6.673 -0.3262 -0.5964 -0.2446
   14MOL0     C 1862   1.842   4.720   6.579 -0.2118 -0.2105 -0.1855
   14MOL0     H 1863   2.230   5.218   6.720  0.8459  3.3395 -0.4526
   14MOL0     H 1864   2.413   5.265   6.596 -0.6982  1.9463 -0.1768
   14MOL0     H 1865   2.415   5.232   6.138 -2.0133 -4.4680 -0.4697
   14MOL0     H 1866   2.465   5.094   6.239 -1.9590  0.3784 -1.7857
   14MOL0     H 1867   2.643   5.329   6.184  0.8347 -0.9674 -0.1280
   14MOL0     H 1868   2.683   5.183   6.275  1.3113  1.7788  2.0363
   14MOL0     H 1869   2.667   5.056   6.060  2.1326  0.2422  0.0042
   14MOL0     H 1870   2.564   5.193   5.999 -1.2108  0.2046  0.4961
   14MOL0     H 1871   2.776   5.241   5.894 -1.1869  1.5532  0.8326
   14MOL0     H 1872   2.803   5.321   6.041 -0.5431  1.2497 -2.7882
   14MOL0     H 1873   3.001   5.170   5.953 -0.5012  1.6334  0.3207
   14MOL0     H 1874   2.885   5.037   5.969  2.1341 -1.6528  0.9960
   14MOL0     H 1875   2.987   5.196   6.207  0.6884  0.7611 -0.7141
   14MOL0     H 1876   2.869   5.065   6.201 -0.3700 -0.0883 -1.6775
   14MOL0     H 1877   3.052   4.938   6.073 -0.1361  0.6845 -0.8807
   14MOL0     H 1878   3.028   4.927   6.249 -0.0797 -1.6822 -0.8682
   14MOL0     H 1879   3.247   4.917   6.164 -0.9747 -0.3216  0.3172
   14MOL0     H 1880   3.230   5.090   6.108  0.0969 -1.4602 -0.8388
   14MOL0     H 1881   3.136   5.218   6.395 -0.5148  0.1989 -0.3977
   14MOL0     H 1882   3.259   5.368   6.586  0.9109  0.5048 -0.6458
   14MOL0     H 1883   3.419   5.341   6.621  0.1527 -1.0026  1.0973
   14MOL0     H 1884   3.246   5.288   6.809  1.9240  0.4167  0.0831
   14MOL0     H 1885   3.188   5.152   6.714  1.2683 -0.9320 -1.8884
   14MOL0     H 1886   3.343   5.079   6.879  0.5147 -1.8705 -0.0530
   14MOL0     H 1887   3.387   5.019   6.730  0.7158 -0.3837  1.2380
   14MOL0     H 1888   3.580   5.096   6.860  0.5547  0.8096  0.4016
   14MOL0     H 1889   3.557   5.206   6.728  1.1263 -0.5769  1.1922
   14MOL0     H 1890   3.533   5.510   7.049  1.0100  0.5665  4.0340
   14MOL0     H 1891   3.753   5.633   7.253 -0.0413 -1.1899  0.5694
   14MOL0     H 1892   3.623   5.687   7.137  0.3427 -1.5448 -0.6799
   14MOL0     H 1893   3.782   5.723   7.092 -0.2127  0.1577  0.9817
   14MOL0     H 1894   4.147   5.478   7.414  1.2211 -0.5833  1.0680
   14MOL0     H 1895   4.367   5.567   7.510 -2.1296 -1.8131  0.8119
   14MOL0     H 1896   4.748   5.579   7.253  0.7002  3.5275 -2.3725
   14MOL0     H 1897   4.646   5.716   7.287 -0.2699  0.3564 -0.4327
   14MOL0     H 1898   4.857   5.595   7.454 -2.3718 -0.9423  2.6691
   14MOL0     H 1899   4.861   5.756   7.369 -1.0614 -1.0862 -1.7264
   14MOL0     H 1900   4.729   5.666   7.619  0.0687  0.8879  0.0475
   14MOL0     H 1901   4.653   5.805   7.545 -0.7811 -1.7918 -0.5668
   14MOL0     H 1902   4.781   5.888   7.720 -1.5281  1.0582 -1.4325
   14MOL0     H 1903   4.861   5.948   7.586 -1.6333 -0.7716 -0.2471
   14MOL0     H 1904   5.021   5.875   7.752 -0.2010  2.2586 -0.8352
   14MOL0     H 1905   4.992   5.701   7.702  0.8642 -1.1913 -4.3210
   14MOL0     H 1906   5.103   5.896   7.509 -1.5000 -0.1543 -3.1328
   14MOL0     H 1907   5.052   5.726   7.481  3.5756 -2.2592  0.9310
   14MOL0     H 1908   5.193   5.626   7.613 -2.4395  0.3753 -3.0409
   14MOL0     H 1909   5.254   5.778   7.702  4.8526 -0.9795 -1.0900
   14MOL0     H 1910   5.429   5.701   7.542 -1.7179 -0.1972  1.2953
   14MOL0     H 1911   5.363   5.865   7.507  0.8250  0.6641  3.3501
   14MOL0     H 1912   4.579   5.446   7.167  0.9679 -3.7440  2.0800
   14MOL0     H 1913   4.361   5.391   7.058 -0.7865 -1.5850  0.5107
   14MOL0     H 1914   3.958   5.260   7.048  0.1802  1.4771 -1.0603
   14MOL0     H 1915   3.752   5.165   6.929 -0.6108 -0.7621  0.8712
   14MOL0     H 1916   2.204   5.194   6.227  1.0914 -0.7581 -0.2905
   14MOL0     H 1917   2.001   5.135   6.353  0.4388  1.7856 -2.2973
   14MOL0     H 1918   1.841   5.118   6.837 -0.0171  0.8486 -0.2970
   14MOL0     H 1919   1.663   5.044   6.958 -0.5106 -0.2269 -0.0780
   14MOL0     H 1920   1.400   4.678   6.839 -1.4896  1.9160  0.0588
   14MOL0     H 1921   1.537   4.637   6.950 -0.3625 -0.6077  0.2036
   14MOL0     H 1922   1.329   4.576   7.032 -0.7687 -0.1866  0.8672
   14MOL0     H 1923   1.260   4.746   7.018  0.7875 -0.1608 -1.0732
   14MOL0     H 1924   1.464   4.629   7.198 -0.6785  0.2431  0.5036
   14MOL0     H 1925   1.456   4.806   7.184  0.9123 -0.5074 -2.2773
   14MOL0     H 1926   1.230   4.623   7.268 -1.6769  1.3201 -2.5003
   14MOL0     H 1927   1.225   4.801   7.271  0.3579  0.8038  1.8899
   14MOL0     H 1928   1.453   4.728   7.702  0.6142 -0.4088 -0.5779
   14MOL0     H 1929   1.636   4.680   6.733 -0.4079 -0.2653  1.4807
   14MOL0     H 1930   1.752   4.668   6.544  0.1616 -2.0318  1.4238
   14MOL0     H 1931   1.896   4.766   6.495 -1.8028  1.0280 -0.5761
   14MOL0     H 1932   1.906   4.644   6.625  2.3398 -0.0097 -3.0224
   15MOL0     O 1933   9.567   7.150   7.612 -0.8022 -0.2783 -0.5472
   15MOL0     C 1934   9.521   7.120   7.503 -0.4012  1.0595  1.0369
   15MOL0     O 1935   9.597   7.121   7.397  0.3711 -0.1733  0.0686
   15MOL0     C 1936   9.730   7.095   7.423  0.0056 -0.0602 -0.5055
   15MOL0     C 1937   9.769   6.968   7.462  0.7394 -0.5537 -0.5418
   15MOL0     C 1938   9.897   6.936   7.484  0.3964  0.6769 -0.3292
   15MOL0     C 1939   9.998   7.032   7.466  0.7546  0.0307  0.8808
   15MOL0     O 1940  10.133   7.011   7.483  1.0923  0.4038  0.3065
   15MOL0     C 1941  10.189   6.940   7.373 -0.4646  0.5249  0.2952
   15MOL0     C 1942  10.225   6.800   7.433 -0.1991  0.1381  0.1013
   15MOL0     C 1943  10.281   6.703   7.325  0.3446  0.3940 -0.7606
   15MOL0     C 1944  10.178   6.672   7.219  0.1599  0.1433  0.1682
   15MOL0     C 1945  10.074   6.572   7.266 -0.0219  0.0013  0.7053
   15MOL0     C 1946   9.974   6.543   7.158 -0.5979 -0.1219  0.4227
   15MOL0     C 1947   9.840   6.483   7.208 -0.1273  0.3819  0.7872
   15MOL0     C 1948   9.840   6.340   7.261 -0.1439 -0.2613  0.4749
   15MOL0     N 1949   9.713   6.288   7.298  0.7927 -0.5424  0.1395
   15MOL0     C 1950   9.640   6.214   7.213  0.4845  0.0883  0.7638
   15MOL0     C 1951   9.552   6.144   7.293 -0.9858 -0.7903  0.0784
   15MOL0     C 1952   9.446   6.042   7.256 -1.0330 -0.4795  0.1103
   15MOL0     C 1953   9.351   6.113   7.155 -0.8401  0.3869 -0.5055
   15MOL0     C 1954   9.231   6.180   7.232 -0.8176  0.0438  0.5081
   15MOL0     C 1955   9.121   6.225   7.125  0.7835 -0.7316 -0.7461
   15MOL0     O 1956   9.003   6.267   7.202 -0.8632  0.7359  0.8089
   15MOL0     C 1957   8.887   6.195   7.177  0.3760  0.3528  0.1350
   15MOL0     C 1958   8.845   6.167   7.045  0.1468  0.2859  0.4483
   15MOL0     C 1959   8.724   6.103   7.014  0.1950 -0.1819 -0.5145
   15MOL0     C 1960   8.705   6.072   6.868 -0.2488 -0.2178  0.3057
   15MOL0     C 1961   8.642   6.064   7.125  0.5831 -0.0623 -0.4585
   15MOL0     C 1962   8.516   5.982   7.097  0.7310 -0.0316 -0.0200
   15MOL0     O 1963   8.450   5.936   7.210 -0.4900  0.0751 -0.4345
   15MOL0     C 1964   8.320   5.893   7.195 -0.2783 -0.1526  0.0746
   15MOL0     C 1965   8.237   5.976   7.123  0.4863 -0.4653 -0.4167
   15MOL0     C 1966   8.101   5.946   7.103 -0.9876 -0.0321 -0.5175
   15MOL0     C 1967   8.053   5.826   7.145  0.2558  0.0322 -0.4428
   15MOL0     O 1968   7.915   5.802   7.142 -0.1213  0.1066 -0.2367
   15MOL0     C 1969   7.847   5.835   7.014  0.6967 -0.8311  0.0475
   15MOL0     C 1970   7.695   5.822   7.036 -0.7066  0.0417  0.3826
   15MOL0     C 1971   7.636   5.960   7.065 -0.1561  0.1977 -0.5118
   15MOL0     C 1972   7.481   5.957   7.045  0.2810  0.0941 -0.3703
   15MOL0     C 1973   7.395   5.923   7.169  0.0634  0.2487 -0.0088
   15MOL0     C 1974   7.259   5.945   7.117  0.1049  0.1421 -0.0421
   15MOL0     C 1975   7.156   5.887   7.216 -0.3067 -0.7477 -0.3330
   15MOL0     C 1976   7.157   5.949   7.353 -0.2713 -0.0986 -0.6368
   15MOL0    Cl 1977   7.119   6.128   7.355 -0.2517 -0.0729 -0.1672
   15MOL0     C 1978   8.134   5.742   7.216  0.2009  0.1134  0.0682
   15MOL0     C 1979   8.271   5.771   7.235  0.1171  0.0221  0.6662
   15MOL0     O 1980   8.472   5.967   6.988 -0.2239  0.9658  0.4913
   15MOL0     C 1981   8.675   6.094   7.250 -0.0264 -0.6368 -0.8416
   15MOL0     C 1982   8.797   6.154   7.282  0.1927  0.4507 -0.1806
   15MOL0     N 1983   9.572   6.186   7.425 -0.5283  0.0276  0.3862
   15MOL0     N 1984   9.670   6.271   7.419  0.5812  0.1841  0.2832
   15MOL0     C 1985   9.961   7.158   7.419 -1.0520  0.2575  0.0999
   15MOL0     C 1986   9.832   7.187   7.394 -0.4652 -0.3929  0.0454
   15MOL0     C 1987   9.382   7.114   7.495 -0.7503  1.1546 -0.7673
   15MOL0     C 1988   9.304   7.219   7.543 -0.2160 -0.2239 -0.4103
   15MOL0     C 1989   9.162   7.214   7.540  0.5655 -0.4338 -0.1896
   15MOL0     C 1990   9.096   7.108   7.468 -0.3295 -0.6490  0.0832
   15MOL0     O 1991   8.956   7.116   7.457  0.3033  0.0169 -0.3019
   15MOL0     C 1992   8.886   7.006   7.386  0.1545  0.3704  0.0964
   15MOL0     C 1993   8.731   7.008   7.423  0.1522  0.0656  0.1682
   15MOL0     C 1994   8.643   7.061   7.309  0.1718 -0.7794  0.4500
   15MOL0     C 1995   8.509   7.110   7.369 -0.1065  0.0080  0.4398
   15MOL0     C 1996   8.497   7.254   7.404 -0.7775  0.5178  0.6376
   15MOL0     C 1997   8.491   7.374   7.437 -1.0890 -0.0109  0.6138
   15MOL0     C 1998   9.182   7.006   7.422  0.0735  0.4466  0.9722
   15MOL0     C 1999   9.319   7.009   7.430 -0.9202 -0.1382 -0.0794
   15MOL0     C 2000   9.407   6.890   7.371 -0.5676  0.0898 -0.0131
   15MOL0     H 2001   9.688   6.901   7.487 -1.2366  1.8364 -0.1743
   15MOL0     H 2002   9.930   6.841   7.525 -2.0882 -0.3204 -0.4780
   15MOL0     H 2003  10.283   6.983   7.336 -0.5023  1.3723  1.1389
   15MOL0     H 2004  10.118   6.957   7.291 -2.3277  2.0298  2.1119
   15MOL0     H 2005  10.307   6.809   7.505 -0.0920  0.7646 -0.0939
   15MOL0     H 2006  10.136   6.764   7.486  1.3972 -2.7683  1.0397
   15MOL0     H 2007  10.363   6.743   7.265 -1.0886  0.3818 -2.8362
   15MOL0     H 2008  10.297   6.602   7.366 -1.2756  0.0746 -0.8660
   15MOL0     H 2009  10.139   6.766   7.180  0.9741  0.1137 -0.7498
   15MOL0     H 2010  10.224   6.620   7.135  1.6463 -2.7088  2.5494
   15MOL0     H 2011  10.028   6.615   7.355  0.1622 -2.1051  1.8942
   15MOL0     H 2012  10.105   6.470   7.294 -0.4497 -0.5072 -0.5925
   15MOL0     H 2013   9.950   6.635   7.105 -3.2586 -0.7237  0.4223
   15MOL0     H 2014  10.003   6.480   7.073  0.6542  1.3051 -0.2402
   15MOL0     H 2015   9.781   6.478   7.117  1.7785 -2.2209 -0.4584
   15MOL0     H 2016   9.797   6.546   7.287  0.0165  0.0597  1.1284
   15MOL0     H 2017   9.879   6.280   7.177  0.2401 -0.3833  0.7350
   15MOL0     H 2018   9.911   6.323   7.343  1.2839 -2.1403 -1.0335
   15MOL0     H 2019   9.672   6.181   7.115  1.7117  0.7893  0.9010
   15MOL0     H 2020   9.389   5.996   7.337  0.5242 -0.8079  1.0630
   15MOL0     H 2021   9.497   5.966   7.197 -1.7893  1.4046 -3.2521
   15MOL0     H 2022   9.408   6.183   7.093  0.8263 -0.7976 -0.3446
   15MOL0     H 2023   9.313   6.034   7.090 -3.6161  0.9506  0.2667
   15MOL0     H 2024   9.187   6.099   7.291  1.0689 -1.5612 -0.1930
   15MOL0     H 2025   9.271   6.256   7.300 -0.2422 -1.7022  2.2266
   15MOL0     H 2026   9.163   6.315   7.079  0.7245 -0.0042  0.5901
   15MOL0     H 2027   9.099   6.142   7.056  3.5508 -0.7340 -1.7576
   15MOL0     H 2028   8.905   6.195   6.960  1.5275 -0.9162  0.9947
   15MOL0     H 2029   8.621   6.129   6.826 -2.1271 -0.9156  2.8835
   15MOL0     H 2030   8.690   5.967   6.840  3.2389 -0.8638  0.3297
   15MOL0     H 2031   8.799   6.093   6.815  1.2947  0.4357  3.0870
   15MOL0     H 2032   8.281   6.071   7.095 -0.7501 -0.6865 -3.5625
   15MOL0     H 2033   8.042   6.028   7.063  1.8637  2.8338  0.6657
   15MOL0     H 2034   7.867   5.941   6.991 -1.9254  0.9100  4.5182
   15MOL0     H 2035   7.878   5.766   6.935  1.9336 -0.0962 -0.1443
   15MOL0     H 2036   7.643   5.797   6.943 -1.5721  0.5320  0.7221
   15MOL0     H 2037   7.658   5.752   7.111 -2.0994  0.7615  0.4056
   15MOL0     H 2038   7.677   6.027   6.989 -0.2371  0.8951  0.0484
   15MOL0     H 2039   7.658   5.997   7.166 -1.0744  0.6925 -0.4830
   15MOL0     H 2040   7.450   5.885   6.968 -3.9872 -1.1963  2.2126
   15MOL0     H 2041   7.451   6.058   7.016 -3.0413 -0.3999  0.9642
   15MOL0     H 2042   7.414   5.822   7.206 -0.6775 -0.1601 -0.7033
   15MOL0     H 2043   7.418   5.992   7.250 -2.2476  0.8953  0.1632
   15MOL0     H 2044   7.245   5.894   7.022  2.5905 -0.0501 -0.3468
   15MOL0     H 2045   7.250   6.053   7.098  1.4235  0.2639 -0.0477
   15MOL0     H 2046   7.165   5.779   7.230  1.7274 -0.1826  4.3485
   15MOL0     H 2047   7.061   5.914   7.167  0.5746  0.3019 -1.5230
   15MOL0     H 2048   7.252   5.936   7.407  0.3534  2.9415 -0.8227
   15MOL0     H 2049   7.080   5.907   7.417 -1.0115 -0.5953 -1.8306
   15MOL0     H 2050   8.085   5.648   7.243 -3.2057  1.4470 -0.9528
   15MOL0     H 2051   8.336   5.699   7.284  2.2204  1.5376  0.2326
   15MOL0     H 2052   8.607   6.055   7.326  1.8388  0.3103  1.4571
   15MOL0     H 2053   8.837   6.165   7.383  1.1490 -1.6700 -0.2741
   15MOL0     H 2054  10.044   7.228   7.408 -2.9368  2.3425 -1.9606
   15MOL0     H 2055   9.803   7.286   7.360 -1.2599 -0.4050  0.6587
   15MOL0     H 2056   9.343   7.304   7.597  1.9618 -2.4525  1.7887
   15MOL0     H 2057   9.094   7.291   7.575 -1.4853 -2.2422  0.0151
   15MOL0     H 2058   8.897   7.014   7.277  0.4575  0.0387  0.0994
   15MOL0     H 2059   8.930   6.912   7.422 -3.0284 -1.8236 -1.2820
   15MOL0     H 2060   8.715   7.074   7.509  2.0149 -0.9864  1.3954
   15MOL0     H 2061   8.686   6.911   7.450 -3.8400  1.2233 -1.4734
   15MOL0     H 2062   8.687   7.141   7.249 -0.2711 -0.0471  1.0800
   15MOL0     H 2063   8.628   6.969   7.251 -0.0416 -1.1539  1.0822
   15MOL0     H 2064   8.483   7.054   7.459 -1.2123  1.5060  1.0819
   15MOL0     H 2065   8.437   7.080   7.293 -2.5422  2.1374  1.7606
   15MOL0     H 2066   8.483   7.476   7.469  0.5172 -0.1764  1.6353
   15MOL0     H 2067   9.148   6.923   7.361  0.6445  0.6389  0.3780
   15MOL0     H 2068   9.348   6.799   7.358 -0.3068 -0.2254  0.9493
   15MOL0     H 2069   9.453   6.923   7.278 -0.8823 -0.3940 -0.3460
   15MOL0     H 2070   9.489   6.860   7.436 -0.8512 -0.2630  0.1853
   16MOL0     O 2071   7.352   9.264   6.964  0.4089  0.2414  0.7020
   16MOL0     C 2072   7.371   9.291   6.845  0.2365  0.3316 -0.4566
   16MOL0     O 2073   7.489   9.352   6.800 -0.2705  0.6832 -0.3116
   16MOL0     C 2074   7.565   9.404   6.899  0.7898 -0.3549 -0.0694
   16MOL0     C 2075   7.560   9.543   6.920 -0.2752 -0.0258  0.2764
   16MOL0     C 2076   7.637   9.604   7.019  0.4324  0.9758 -0.6844
   16MOL0     C 2077   7.726   9.526   7.095  0.9635  0.9488 -0.0750
   16MOL0     O 2078   7.824   9.573   7.184  0.4219  0.5749 -0.1122
   16MOL0     C 2079   7.808   9.695   7.252 -0.1979 -0.6514  0.1191
   16MOL0     C 2080   7.936   9.715   7.328  0.2178 -0.2883 -0.0263
   16MOL0     C 2081   8.061   9.740   7.239  0.2307 -0.1900  0.2396
   16MOL0     C 2082   8.185   9.789   7.307  0.4282 -0.5319  0.0748
   16MOL0     C 2083   8.312   9.787   7.225 -0.1049  0.0213 -1.1213
   16MOL0     C 2084   8.429   9.853   7.291  0.4424 -0.4788  0.0318
   16MOL0     C 2085   8.519   9.742   7.360 -0.0319 -0.1783 -0.6899
   16MOL0     C 2086   8.659   9.798   7.381  0.0304  1.0891 -0.2971
   16MOL0     N 2087   8.747   9.805   7.260  0.0602  0.5899 -0.0697
   16MOL0     C 2088   8.787   9.927   7.208 -0.1257  0.8574 -0.9832
   16MOL0     C 2089   8.849   9.888   7.092  0.2768 -0.9996  0.1505
   16MOL0     C 2090   8.907   9.985   6.988 -0.3132 -0.0284 -0.3683
   16MOL0     C 2091   9.057  10.012   7.016 -0.0715  0.0752  0.0108
   16MOL0     C 2092   9.096  10.156   6.984 -0.1101  0.4617  0.3889
   16MOL0     C 2093   9.241  10.188   7.022 -0.1560 -0.1834 -0.0640
   16MOL0     O 2094   9.262  10.148   7.159  0.0125  0.0559  0.2933
   16MOL0     C 2095   9.386  10.170   7.206  0.3675  1.1648  0.0472
   16MOL0     C 2096   9.394  10.133   7.341 -1.0635  0.6971 -0.6841
   16MOL0     C 2097   9.518  10.122   7.408 -0.2345 -0.7790 -0.2624
   16MOL0     C 2098   9.527  10.078   7.553 -0.5380 -0.7148 -0.1867
   16MOL0     C 2099   9.638  10.150   7.337 -0.8895  0.6323  0.0460
   16MOL0     C 2100   9.771  10.142   7.399  0.0586 -0.1667 -0.9344
   16MOL0     O 2101   9.782  10.219   7.506 -0.2977 -0.6499 -0.1996
   16MOL0     C 2102   9.921  10.249   7.532  0.7668  0.3602 -0.3076
   16MOL0     C 2103   9.997  10.164   7.622  0.3519 -0.4094 -0.7063
   16MOL0     C 2104  10.122  10.208   7.673 -0.8768 -0.3691  0.5559
   16MOL0     C 2105  10.181  10.331   7.647  0.2084  0.1657 -0.0209
   16MOL0     O 2106  10.303  10.361   7.690 -0.5091 -0.5574  0.0246
   16MOL0     C 2107  10.295  10.379   7.837 -0.7484  0.5640 -0.5585
   16MOL0     C 2108  10.412  10.454   7.901  0.2635  1.2380 -0.3731
   16MOL0     C 2109  10.542  10.364   7.874 -0.2850 -0.4525  0.4573
   16MOL0     C 2110  10.546  10.213   7.893 -0.4283 -0.0263 -0.7985
   16MOL0     C 2111  10.684  10.148   7.891 -0.5262  0.1158  0.0558
   16MOL0     C 2112  10.676  10.005   7.831  0.1652  0.1764 -0.4627
   16MOL0     C 2113  10.816   9.938   7.826  0.4271 -0.3266 -0.6663
   16MOL0     C 2114  10.922   9.999   7.734  1.0130 -0.3060 -0.0924
   16MOL0    Cl 2115  10.851  10.000   7.574 -0.3813  0.0990  0.6109
   16MOL0     C 2116  10.110  10.416   7.562  0.0669 -0.4086  0.1912
   16MOL0     C 2117   9.978  10.378   7.518  0.2699  0.1970 -0.3204
   16MOL0     O 2118   9.860  10.068   7.349 -0.7592  0.3092 -0.2016
   16MOL0     C 2119   9.629  10.189   7.197  0.1248 -0.1123  0.0717
   16MOL0     C 2120   9.504  10.185   7.136  0.6443  0.1757 -0.1093
   16MOL0     N 2121   8.827   9.754   7.071  0.2558 -0.0385  0.4703
   16MOL0     N 2122   8.758   9.700   7.170  0.1951 -0.5827  0.7047
   16MOL0     C 2123   7.726   9.386   7.062 -0.5846 -0.1722 -0.1608
   16MOL0     C 2124   7.651   9.330   6.964  0.1360  0.1414  0.0487
   16MOL0     C 2125   7.286   9.242   6.738  0.3161 -0.0471 -0.1841
   16MOL0     C 2126   7.343   9.214   6.618  0.6494  0.2463 -0.0856
   16MOL0     C 2127   7.275   9.167   6.508  0.1147  0.1999  0.0334
   16MOL0     C 2128   7.139   9.148   6.513  0.1787 -0.6187  0.2471
   16MOL0     O 2129   7.074   9.109   6.400  0.0218 -0.6438 -0.6679
   16MOL0     C 2130   6.936   9.073   6.412  0.3650 -0.4924  1.0673
   16MOL0     C 2131   6.887   9.014   6.276 -0.0019 -0.1678 -0.0080
   16MOL0     C 2132   6.735   8.983   6.302  0.0561  0.4193  0.3853
   16MOL0     C 2133   6.690   8.875   6.191  0.5965 -0.5008  0.4020
   16MOL0     C 2134   6.547   8.841   6.200 -0.1445  0.3501 -0.4158
   16MOL0     C 2135   6.433   8.809   6.236  0.7390 -0.7070  0.5762
   16MOL0     C 2136   7.074   9.191   6.628  0.4391 -0.1217 -0.3524
   16MOL0     C 2137   7.141   9.233   6.745 -0.6210  0.4055  0.0859
   16MOL0     C 2138   7.062   9.274   6.866  0.2636 -0.9458  0.0431
   16MOL0     H 2139   7.485   9.596   6.861 -1.2015 -2.8250 -1.2740
   16MOL0     H 2140   7.619   9.710   7.032 -2.7354  0.7310 -2.2205
   16MOL0     H 2141   7.719   9.694   7.315  0.9162 -1.1172  1.7419
   16MOL0     H 2142   7.789   9.777   7.183  0.5890 -0.1387  0.5014
   16MOL0     H 2143   7.928   9.801   7.394  2.2501  0.8407 -1.1271
   16MOL0     H 2144   7.955   9.620   7.379 -0.2619 -1.6372 -2.2345
   16MOL0     H 2145   8.069   9.642   7.190 -4.3548 -1.1134  0.9083
   16MOL0     H 2146   8.040   9.814   7.162 -0.1531 -0.9101 -0.3589
   16MOL0     H 2147   8.171   9.892   7.340 -0.5290 -0.1386 -1.4572
   16MOL0     H 2148   8.189   9.723   7.395  0.3157  0.2342  0.6655
   16MOL0     H 2149   8.295   9.840   7.130  2.4133  0.1192 -1.5886
   16MOL0     H 2150   8.335   9.684   7.197  0.7670  0.0175 -0.4356
   16MOL0     H 2151   8.489   9.913   7.223 -1.4799  1.0021 -0.4710
   16MOL0     H 2152   8.393   9.922   7.368 -1.5338  0.9512 -2.0403
   16MOL0     H 2153   8.524   9.651   7.299 -0.7376 -0.2599 -0.6279
   16MOL0     H 2154   8.470   9.702   7.450  0.6365 -0.5460 -0.4793
   16MOL0     H 2155   8.660   9.892   7.438 -0.0167  1.4574 -0.8972
   16MOL0     H 2156   8.709   9.732   7.452  2.8947  2.4421 -0.9038
   16MOL0     H 2157   8.777  10.026   7.250 -0.5720  0.7705 -0.8809
   16MOL0     H 2158   8.847  10.075   6.970  0.0747  0.6209  1.4112
   16MOL0     H 2159   8.910   9.927   6.895  0.1204 -0.2980 -0.1928
   16MOL0     H 2160   9.086   9.997   7.121  2.1333  2.2997 -0.1830
   16MOL0     H 2161   9.124   9.950   6.955 -2.4781 -1.4747 -1.1945
   16MOL0     H 2162   9.079  10.188   6.880  1.2164 -0.4551 -0.1363
   16MOL0     H 2163   9.028  10.222   7.039  0.1599  0.1393  1.1202
   16MOL0     H 2164   9.311  10.141   6.952  1.6931  1.7082  0.4310
   16MOL0     H 2165   9.257  10.295   7.005 -2.0199 -0.1680 -2.2234
   16MOL0     H 2166   9.302  10.119   7.398 -0.6504 -1.5260 -0.4952
   16MOL0     H 2167   9.450  10.003   7.574  2.1095 -3.0725  1.9320
   16MOL0     H 2168   9.514  10.165   7.617 -1.7079  0.5656 -2.0861
   16MOL0     H 2169   9.625  10.039   7.583  1.4899  2.1539 -2.4969
   16MOL0     H 2170   9.948  10.074   7.657 -2.2653  0.6912 -1.2696
   16MOL0     H 2171  10.188  10.147   7.733  0.1251 -0.8354 -0.9860
   16MOL0     H 2172  10.198  10.416   7.872 -0.7621 -0.4463  0.5318
   16MOL0     H 2173  10.298  10.284   7.890  1.6967  0.4603 -0.7759
   16MOL0     H 2174  10.432  10.558   7.872 -1.9403  2.0168  0.6408
   16MOL0     H 2175  10.386  10.463   8.007 -0.7549  0.1297 -0.5063
   16MOL0     H 2176  10.612  10.414   7.941 -2.9352  1.0205  2.3026
   16MOL0     H 2177  10.564  10.385   7.768 -0.8008  0.1845  0.4688
   16MOL0     H 2178  10.484  10.158   7.822  2.4308  2.0104 -5.3866
   16MOL0     H 2179  10.511  10.200   7.995  0.2711  2.4654 -0.1777
   16MOL0     H 2180  10.747  10.208   7.824 -0.5608 -2.3689 -2.3528
   16MOL0     H 2181  10.727  10.143   7.992  0.3110  2.2210 -0.1323
   16MOL0     H 2182  10.638  10.011   7.729  0.3591  1.6648 -0.4662
   16MOL0     H 2183  10.607   9.935   7.879  1.9309 -2.7756 -1.9002
   16MOL0     H 2184  10.801   9.834   7.795 -1.3971  0.2450 -1.8623
   16MOL0     H 2185  10.854   9.938   7.929 -3.3303  1.9418  0.9395
   16MOL0     H 2186  11.015   9.941   7.736  2.0974  1.3902  0.8566
   16MOL0     H 2187  10.947  10.101   7.764  1.1519 -0.8463  1.7729
   16MOL0     H 2188  10.148  10.514   7.535  0.5910  0.5102  3.7022
   16MOL0     H 2189   9.932  10.456   7.459  0.9053  0.3721 -0.5930
   16MOL0     H 2190   9.713  10.223   7.137  0.5130 -0.1502  0.5847
   16MOL0     H 2191   9.507  10.207   7.030  1.9012 -1.0574 -0.3596
   16MOL0     H 2192   7.806   9.331   7.112 -0.2703 -2.6846 -3.0680
   16MOL0     H 2193   7.663   9.225   6.939  0.6342 -0.1256  1.3607
   16MOL0     H 2194   7.451   9.212   6.606  0.7101 -2.1895  0.3630
   16MOL0     H 2195   7.317   9.138   6.412  1.2948  4.1920 -0.8643
   16MOL0     H 2196   6.920   8.996   6.489 -1.3006  0.7604  2.0547
   16MOL0     H 2197   6.874   9.161   6.428  2.5022  0.9320  1.9292
   16MOL0     H 2198   6.946   8.924   6.256 -1.3568 -1.0930  0.0009
   16MOL0     H 2199   6.899   9.084   6.193 -1.4456  1.8796  1.4249
   16MOL0     H 2200   6.715   8.943   6.402  0.2193 -0.4977  0.0657
   16MOL0     H 2201   6.671   9.069   6.284 -1.8082 -1.0745 -0.4585
   16MOL0     H 2202   6.741   8.780   6.208 -0.8622 -1.6631 -1.2827
   16MOL0     H 2203   6.711   8.914   6.090 -0.4719  0.7195  0.6163
   16MOL0     H 2204   6.344   8.764   6.274 -0.3426  0.0819 -0.9080
   16MOL0     H 2205   6.966   9.189   6.635  0.4139 -2.3111 -0.7318
   16MOL0     H 2206   6.959   9.291   6.833 -0.2666  0.9214  2.3781
   16MOL0     H 2207   7.078   9.192   6.937 -1.7887 -1.0546  0.4267
   16MOL0     H 2208   7.103   9.365   6.912  1.1092 -0.1118 -2.1868
   17MOL0     O 2209   6.270   5.370   9.817  0.6289 -0.2125  0.3295
   17MOL0     C 2210   6.182   5.321   9.741 -0.0128 -0.6377 -0.5629
   17MOL0     O 2211   6.166   5.343   9.606 -0.2282  0.3054  0.0856
   17MOL0     C 2212   6.260   5.417   9.549  0.2497  0.5448 -0.4950
   17MOL0     C 2213   6.266   5.551   9.573  0.1143  0.3107  0.7115
   17MOL0     C 2214   6.373   5.632   9.516 -0.1242  0.4170 -0.0300
   17MOL0     C 2215   6.481   5.565   9.447 -0.3378 -0.4888 -0.8857
   17MOL0     O 2216   6.572   5.651   9.381  0.0793  0.3315 -0.2659
   17MOL0     C 2217   6.678   5.575   9.321 -0.8781 -0.7147  0.4949
   17MOL0     C 2218   6.804   5.668   9.316  1.1943 -0.1236 -0.3383
   17MOL0     C 2219   6.911   5.585   9.248 -1.4029 -1.1068  0.2137
   17MOL0     C 2220   7.023   5.689   9.212 -0.4910  0.0809  0.2190
   17MOL0     C 2221   7.134   5.626   9.132 -0.7069  0.5103 -1.0017
   17MOL0     C 2222   7.219   5.539   9.231  0.0456 -0.8117  0.4429
   17MOL0     C 2223   7.329   5.457   9.171 -0.1531  0.2544  0.4545
   17MOL0     C 2224   7.413   5.529   9.051  0.2238 -0.0257  0.1720
   17MOL0     N 2225   7.514   5.436   9.015 -0.6852  0.4860  0.3977
   17MOL0     C 2226   7.541   5.383   8.897 -0.6279  0.6067  0.2537
   17MOL0     C 2227   7.656   5.309   8.918 -0.1459  0.4731 -0.2462
   17MOL0     C 2228   7.727   5.237   8.811 -0.2134  0.9313  0.0967
   17MOL0     C 2229   7.881   5.227   8.835  0.7855  0.1711 -0.3896
   17MOL0     C 2230   7.953   5.126   8.749 -0.5176 -0.0476  0.1937
   17MOL0     C 2231   8.088   5.080   8.809 -0.1164  0.0075 -1.1328
   17MOL0     O 2232   8.047   5.012   8.925 -0.4331  0.1840  0.6898
   17MOL0     C 2233   8.142   4.944   8.993  0.3262 -0.7913  0.2784
   17MOL0     C 2234   8.104   4.862   9.101 -0.1477  0.2706  0.5444
   17MOL0     C 2235   8.186   4.794   9.184  0.2605 -0.0093 -0.6777
   17MOL0     C 2236   8.120   4.704   9.291  0.0555 -0.3419  1.1173
   17MOL0     C 2237   8.321   4.806   9.153 -0.2897  0.1729 -0.5999
   17MOL0     C 2238   8.430   4.736   9.223 -0.5834 -0.1365  0.7545
   17MOL0     O 2239   8.554   4.724   9.172  0.0174 -0.0798  0.4069
   17MOL0     C 2240   8.650   4.656   9.243  0.9551 -0.0128  0.3071
   17MOL0     C 2241   8.735   4.571   9.167  0.0289 -0.2668 -0.5772
   17MOL0     C 2242   8.854   4.516   9.224  0.5228 -0.6553 -1.2791
   17MOL0     C 2243   8.862   4.522   9.367  0.4203  0.8420  0.2692
   17MOL0     O 2244   8.966   4.452   9.429 -0.0172 -0.2583 -0.7874
   17MOL0     C 2245   8.969   4.419   9.570  0.1135  0.2120 -0.6782
   17MOL0     C 2246   9.092   4.330   9.598  0.3283  0.5406  0.2471
   17MOL0     C 2247   9.224   4.395   9.562 -0.7719 -0.0109  0.0345
   17MOL0     C 2248   9.342   4.314   9.616 -0.3423  0.2623  0.1785
   17MOL0     C 2249   9.476   4.377   9.603 -0.7304 -0.5120 -0.3730
   17MOL0     C 2250   9.589   4.285   9.650 -0.3940 -0.0947  0.0731
   17MOL0     C 2251   9.726   4.364   9.653 -0.0287  0.3994  0.1522
   17MOL0     C 2252   9.843   4.261   9.685 -0.2616 -0.6240  0.7744
   17MOL0    Cl 2253   9.989   4.363   9.700 -0.2465 -0.2207  0.3158
   17MOL0     C 2254   8.785   4.606   9.438 -0.4498  0.2450  0.1930
   17MOL0     C 2255   8.677   4.680   9.381 -0.0563  0.2242  0.2439
   17MOL0     O 2256   8.395   4.692   9.333 -0.3914  0.6037 -0.2355
   17MOL0     C 2257   8.363   4.879   9.036  0.0208 -0.0278  0.3004
   17MOL0     C 2258   8.281   4.946   8.958 -0.4445 -0.4268 -0.6321
   17MOL0     N 2259   7.683   5.312   9.053 -0.6882 -0.3293 -0.9747
   17MOL0     N 2260   7.605   5.394   9.107 -0.3640 -1.1300  0.4539
   17MOL0     C 2261   6.463   5.426   9.415  0.1181  0.1364 -0.8681
   17MOL0     C 2262   6.353   5.350   9.466 -0.1891 -1.1113  0.3220
   17MOL0     C 2263   6.068   5.242   9.801  0.1639 -0.4060 -0.1928
   17MOL0     C 2264   5.998   5.155   9.721 -0.4370 -1.1410  0.1444
   17MOL0     C 2265   5.889   5.080   9.776 -0.2432 -0.6121  0.5944
   17MOL0     C 2266   5.859   5.088   9.911  0.1299  0.5826  0.2883
   17MOL0     O 2267   5.767   5.007   9.962  0.5431 -0.8390 -0.8790
   17MOL0     C 2268   5.647   5.080   9.996 -0.3030 -0.6377 -0.1121
   17MOL0     C 2269   5.543   4.970  10.020 -0.3316 -0.4495  1.2264
   17MOL0     C 2270   5.403   5.021  10.060  0.3220  0.2047 -0.3578
   17MOL0     C 2271   5.307   5.073   9.948 -0.2844  0.0606 -0.6736
   17MOL0     C 2272   5.261   4.977   9.848 -0.8027  0.2493  0.0432
   17MOL0     C 2273   5.218   4.899   9.765  0.5871 -0.4240  0.5433
   17MOL0     C 2274   5.939   5.170   9.991 -0.7502  0.8306 -0.5694
   17MOL0     C 2275   6.037   5.257   9.941  0.4848 -0.0925  0.7882
   17MOL0     C 2276   6.087   5.351  10.040 -0.0959 -0.3573  0.3606
   17MOL0     H 2277   6.191   5.593   9.640  0.4542  1.8474  0.1717
   17MOL0     H 2278   6.387   5.738   9.534 -1.6185  0.8029 -0.9620
   17MOL0     H 2279   6.647   5.544   9.221 -0.3016 -2.1287  0.7403
   17MOL0     H 2280   6.704   5.494   9.389 -2.6454 -1.5498  0.2402
   17MOL0     H 2281   6.774   5.762   9.269 -1.0729  0.7249  2.4904
   17MOL0     H 2282   6.835   5.694   9.417 -1.3896  0.3428  0.4164
   17MOL0     H 2283   6.942   5.500   9.309 -1.9086 -4.0459 -3.2734
   17MOL0     H 2284   6.876   5.559   9.147  0.1996  2.2873 -1.3975
   17MOL0     H 2285   6.975   5.765   9.151 -0.1278 -0.3943 -0.6656
   17MOL0     H 2286   7.059   5.739   9.302  1.2509 -1.7510  0.6080
   17MOL0     H 2287   7.199   5.702   9.089 -0.6320  0.7961 -0.3990
   17MOL0     H 2288   7.095   5.560   9.054  1.7521 -1.5237 -0.6543
   17MOL0     H 2289   7.265   5.599   9.310 -2.0691  0.5161  0.7395
   17MOL0     H 2290   7.158   5.463   9.280 -1.4861 -0.8672 -1.4678
   17MOL0     H 2291   7.291   5.358   9.144  0.8153 -0.7914  2.6939
   17MOL0     H 2292   7.398   5.430   9.251 -1.0135  0.7786  1.3920
   17MOL0     H 2293   7.346   5.565   8.973  0.8593  0.6232 -0.0883
   17MOL0     H 2294   7.466   5.617   9.089 -1.5566  0.4651  1.6885
   17MOL0     H 2295   7.485   5.399   8.806  1.0695 -1.9238 -1.3506
   17MOL0     H 2296   7.702   5.277   8.713 -0.2369  1.4762  0.3225
   17MOL0     H 2297   7.687   5.136   8.826 -0.7915  1.1726  0.2010
   17MOL0     H 2298   7.927   5.326   8.825  0.4649  0.4829  1.0000
   17MOL0     H 2299   7.899   5.210   8.941 -0.3250  0.1516 -0.1917
   17MOL0     H 2300   7.886   5.041   8.742  0.5010 -1.1556  2.5409
   17MOL0     H 2301   7.966   5.160   8.646 -2.4591 -1.0404 -0.4196
   17MOL0     H 2302   8.135   5.011   8.738 -0.2485 -1.5546  0.2332
   17MOL0     H 2303   8.148   5.169   8.827 -1.0844  0.2896  1.0316
   17MOL0     H 2304   7.996   4.862   9.110 -0.6445  1.7224 -3.4758
   17MOL0     H 2305   8.012   4.703   9.273  0.5497 -2.2777 -2.8783
   17MOL0     H 2306   8.130   4.730   9.396 -2.4927  0.7664  1.1645
   17MOL0     H 2307   8.162   4.603   9.282 -1.1550 -0.6913 -2.2408
   17MOL0     H 2308   8.728   4.570   9.059  2.7853  0.7828 -0.8501
   17MOL0     H 2309   8.926   4.463   9.163  0.9957 -1.8174  0.2327
   17MOL0     H 2310   8.981   4.513   9.623  0.1739  1.3670 -2.6378
   17MOL0     H 2311   8.877   4.367   9.599 -0.7900  0.7688 -2.3654
   17MOL0     H 2312   9.100   4.318   9.707 -0.6448 -0.1367  0.2562
   17MOL0     H 2313   9.087   4.236   9.543  1.3520  1.2726 -1.1479
   17MOL0     H 2314   9.230   4.492   9.612 -0.8916 -0.7146  1.4528
   17MOL0     H 2315   9.239   4.406   9.454 -0.5200 -0.8445 -0.0228
   17MOL0     H 2316   9.360   4.222   9.560  1.0721  0.6570 -0.0633
   17MOL0     H 2317   9.334   4.296   9.724  0.8385  0.9596  0.4085
   17MOL0     H 2318   9.496   4.418   9.504  2.1809  0.6557  0.5820
   17MOL0     H 2319   9.460   4.465   9.667  0.7474  0.8362 -1.7769
   17MOL0     H 2320   9.599   4.206   9.575  0.1159 -0.6521  0.7172
   17MOL0     H 2321   9.569   4.231   9.743 -0.7168  0.6588  0.4531
   17MOL0     H 2322   9.727   4.414   9.750  0.1833 -1.9737  1.4457
   17MOL0     H 2323   9.736   4.424   9.562  1.5794 -0.2145 -0.1018
   17MOL0     H 2324   9.853   4.198   9.596 -1.0911  0.8966 -0.4517
   17MOL0     H 2325   9.821   4.194   9.768  1.6209 -4.0627 -1.2946
   17MOL0     H 2326   8.801   4.627   9.543  0.2269  0.2865  0.0881
   17MOL0     H 2327   8.618   4.743   9.447 -1.9716 -0.2419 -0.9591
   17MOL0     H 2328   8.469   4.871   9.014 -0.1106  0.1207 -0.3871
   17MOL0     H 2329   8.314   4.998   8.869 -1.6699 -1.1608 -1.5480
   17MOL0     H 2330   6.527   5.377   9.342 -0.9615  0.2176 -1.9025
   17MOL0     H 2331   6.331   5.245   9.453  0.3369 -0.8678 -3.5484
   17MOL0     H 2332   6.014   5.153   9.613  0.4461 -1.1515  0.2717
   17MOL0     H 2333   5.826   5.025   9.707  1.0736 -0.5957 -0.6781
   17MOL0     H 2334   5.673   5.136  10.087  3.7472 -2.0869 -0.1723
   17MOL0     H 2335   5.604   5.135   9.912  0.1844  1.0313  0.6820
   17MOL0     H 2336   5.590   4.910  10.098  1.4848 -0.0919  0.4656
   17MOL0     H 2337   5.535   4.905   9.933 -0.8223  0.3824  0.6425
   17MOL0     H 2338   5.347   4.947  10.118  0.0247 -0.3300 -1.3223
   17MOL0     H 2339   5.419   5.106  10.127  0.4853  0.0625 -0.2134
   17MOL0     H 2340   5.357   5.149   9.887 -1.8535  0.5680 -1.4016
   17MOL0     H 2341   5.218   5.122   9.989  0.7239  2.0081 -0.6699
   17MOL0     H 2342   5.172   4.829   9.698  0.3432 -1.1631  1.4589
   17MOL0     H 2343   5.918   5.171  10.097  0.8945  0.8420 -0.2155
   17MOL0     H 2344   6.179   5.309  10.081  0.0780 -0.4999 -0.1762
   17MOL0     H 2345   6.108   5.446   9.992 -0.1677 -0.3502  0.3420
   17MOL0     H 2346   6.018   5.370  10.124 -1.2246 -1.4840 -0.2742
   18MOL0     O 2347  10.920   0.831   8.427 -0.1182 -0.8176 -0.0412
   18MOL0     C 2348  10.897   0.908   8.519  0.1392  0.0564 -1.0461
   18MOL0     O 2349  10.988   0.952   8.611  0.2771 -0.2635 -0.3484
   18MOL0     C 2350  11.119   0.987   8.575 -0.5234  0.7592  0.0614
   18MOL0     C 2351  11.142   1.120   8.542  0.4785  0.3437 -0.0739
   18MOL0     C 2352  11.270   1.156   8.496 -0.0585  0.6847  0.4101
   18MOL0     C 2353  11.379   1.065   8.501 -1.0536 -0.1539  0.5306
   18MOL0     O 2354  11.507   1.102   8.472  0.1955  0.2005  0.3070
   18MOL0     C 2355  11.572   1.157   8.585  0.3015 -0.3905  0.5904
   18MOL0     C 2356  11.682   1.242   8.523 -0.1090 -0.9495 -0.9287
   18MOL0     C 2357  11.781   1.306   8.622 -0.5525  0.1996 -0.4559
   18MOL0     C 2358  11.889   1.378   8.554 -0.9227  0.2739 -0.0755
   18MOL0     C 2359  11.999   1.291   8.501 -0.6450  0.4152  0.7096
   18MOL0     C 2360  12.098   1.374   8.408  0.4421 -0.0658 -1.1008
   18MOL0     C 2361  12.145   1.515   8.470 -0.0611 -0.3034  1.8173
   18MOL0     C 2362  12.261   1.582   8.398 -0.5635 -0.1630 -0.2009
   18MOL0     N 2363  12.374   1.493   8.388  0.1160  0.2710 -0.5529
   18MOL0     C 2364  12.454   1.441   8.500 -0.0384 -0.1360  1.5164
   18MOL0     C 2365  12.509   1.333   8.446 -1.1907 -0.5582  0.0571
   18MOL0     C 2366  12.598   1.232   8.512  0.0045 -0.4196 -0.0989
   18MOL0     C 2367  12.750   1.254   8.493  0.2364 -0.5804  0.2887
   18MOL0     C 2368  12.845   1.148   8.554  0.0131  0.0255 -0.4570
   18MOL0     C 2369  12.994   1.183   8.534 -0.5948  0.0993  0.7241
   18MOL0     O 2370  13.016   1.227   8.395  0.0450  0.1956  0.7982
   18MOL0     C 2371  13.148   1.244   8.358 -0.3932  0.0678  0.2138
   18MOL0     C 2372  13.179   1.261   8.225  0.5675 -0.2120  0.0239
   18MOL0     C 2373  13.308   1.264   8.174 -0.2867 -0.6163 -0.0422
   18MOL0     C 2374  13.319   1.269   8.025  0.2329 -0.4698 -0.0677
   18MOL0     C 2375  13.420   1.258   8.264 -0.0418 -0.2956  0.3199
   18MOL0     C 2376  13.565   1.271   8.229 -1.0627 -1.2052  1.4977
   18MOL0     O 2377  13.656   1.270   8.331 -0.3240  0.0266  0.2333
   18MOL0     C 2378  13.785   1.290   8.304  0.0091 -0.0004  0.6225
   18MOL0     C 2379  13.846   1.406   8.344  0.3093  0.6501  0.5411
   18MOL0     C 2380  13.978   1.427   8.328 -0.4975  0.9998  0.2893
   18MOL0     C 2381  14.057   1.326   8.258  0.5224 -0.1017 -0.0991
   18MOL0     O 2382  14.183   1.375   8.251  0.5810  0.7115  0.0641
   18MOL0     C 2383  14.274   1.271   8.210  0.4845 -0.3171  0.8277
   18MOL0     C 2384  14.387   1.337   8.134  0.5059 -0.6227 -0.1744
   18MOL0     C 2385  14.493   1.229   8.105  0.1570  0.1659  0.6998
   18MOL0     C 2386  14.601   1.289   8.029 -0.6359  0.2189  0.0367
   18MOL0     C 2387  14.709   1.183   7.994 -0.2989 -0.4357 -0.4244
   18MOL0     C 2388  14.798   1.239   7.886  0.0379  0.3154 -0.5921
   18MOL0     C 2389  14.904   1.137   7.848 -0.3720  0.0909 -1.2487
   18MOL0     C 2390  15.000   1.198   7.738  0.8239  0.3787  0.2417
   18MOL0    Cl 2391  15.119   1.073   7.684  0.2125 -0.0939  0.1462
   18MOL0     C 2392  13.999   1.211   8.219 -0.2909 -0.4507  0.3175
   18MOL0     C 2393  13.863   1.191   8.243 -0.2399  0.6821 -0.3267
   18MOL0     O 2394  13.598   1.295   8.109  0.3145 -0.3560 -0.9992
   18MOL0     C 2395  13.387   1.253   8.399  0.2215  0.2373  0.7825
   18MOL0     C 2396  13.261   1.246   8.450 -0.6050 -0.3098  0.3498
   18MOL0     N 2397  12.486   1.338   8.307 -0.3739  0.1436  0.0003
   18MOL0     N 2398  12.408   1.433   8.269  0.1130  0.0310 -0.0505
   18MOL0     C 2399  11.358   0.936   8.543  0.0445 -0.5407 -0.4020
   18MOL0     C 2400  11.232   0.898   8.579 -0.3848 -0.3764  0.1381
   18MOL0     C 2401  10.748   0.941   8.537 -0.5853 -0.0018 -0.6025
   18MOL0     C 2402  10.724   1.012   8.657  0.4433  0.5884  0.0454
   18MOL0     C 2403  10.589   1.045   8.691 -0.7594 -0.1417  0.3102
   18MOL0     C 2404  10.484   0.980   8.625  0.0793 -0.6709 -0.6341
   18MOL0     O 2405  10.363   0.990   8.682  0.0575 -0.5562 -0.4125
   18MOL0     C 2406  10.265   0.887   8.678 -0.6821 -0.5727 -1.0026
   18MOL0     C 2407  10.305   0.788   8.790  0.4109 -0.7927  0.0048
   18MOL0     C 2408  10.323   0.856   8.929 -0.4434 -0.3276  0.3360
   18MOL0     C 2409  10.373   0.761   9.038  0.9919  0.3828  0.8844
   18MOL0     C 2410  10.272   0.654   9.054  0.2328 -0.4263  0.0461
   18MOL0     C 2411  10.183   0.576   9.078  0.2212  0.5831 -0.5176
   18MOL0     C 2412  10.515   0.903   8.513  0.1671  0.1263 -0.2401
   18MOL0     C 2413  10.643   0.895   8.459  0.5787  0.1584  0.5623
   18MOL0     C 2414  10.658   0.831   8.318 -0.8182 -1.0003 -0.7063
   18MOL0     H 2415  11.052   1.180   8.542 -0.5608 -1.0579 -3.0468
   18MOL0     H 2416  11.287   1.257   8.460 -0.8770  1.2610  1.5669
   18MOL0     H 2417  11.629   1.087   8.647  0.0455 -0.9817  0.1663
   18MOL0     H 2418  11.510   1.229   8.638 -0.4186 -1.1552  0.8089
   18MOL0     H 2419  11.740   1.183   8.452 -0.7849  0.8163 -3.0660
   18MOL0     H 2420  11.631   1.325   8.473 -1.2787 -0.2818  1.2326
   18MOL0     H 2421  11.722   1.373   8.685 -0.0225  1.0975 -0.8910
   18MOL0     H 2422  11.834   1.231   8.681  0.0338  1.7927  1.0997
   18MOL0     H 2423  11.858   1.442   8.471  0.5254  2.6570  1.1024
   18MOL0     H 2424  11.935   1.453   8.619 -2.3767  2.7374 -1.7094
   18MOL0     H 2425  11.953   1.216   8.436  2.1291 -1.5872  0.8757
   18MOL0     H 2426  12.069   1.245   8.571  0.2152  0.6288  0.0012
   18MOL0     H 2427  12.182   1.325   8.359  0.1207  0.7586 -2.5141
   18MOL0     H 2428  12.037   1.397   8.321  2.5626 -0.1380 -2.6865
   18MOL0     H 2429  12.178   1.516   8.575 -0.0611  3.4631  1.9418
   18MOL0     H 2430  12.063   1.587   8.462 -0.2483 -0.7596 -2.8769
   18MOL0     H 2431  12.224   1.610   8.298 -0.8869 -2.1849 -0.6895
   18MOL0     H 2432  12.292   1.670   8.455 -1.5325  0.5302 -0.7038
   18MOL0     H 2433  12.450   1.463   8.606  1.6632  0.5713  1.4629
   18MOL0     H 2434  12.572   1.134   8.473  1.8634 -0.9626 -0.0922
   18MOL0     H 2435  12.575   1.231   8.619 -1.9313 -2.4381 -0.4773
   18MOL0     H 2436  12.769   1.265   8.386  1.0172  1.7052  0.6076
   18MOL0     H 2437  12.761   1.353   8.538 -1.3286 -0.3670  0.2715
   18MOL0     H 2438  12.820   1.144   8.661 -0.5779  1.1586 -0.5415
   18MOL0     H 2439  12.821   1.056   8.501 -1.7042  0.6153 -0.7560
   18MOL0     H 2440  13.024   1.263   8.602 -1.5729  1.2648 -0.1630
   18MOL0     H 2441  13.058   1.096   8.552 -1.5498 -1.1318 -1.4509
   18MOL0     H 2442  13.096   1.263   8.155  1.7439 -1.7463 -1.5145
   18MOL0     H 2443  13.377   1.359   8.002  3.1526 -2.0331  0.5976
   18MOL0     H 2444  13.219   1.267   7.981 -0.3936  1.1686  1.1822
   18MOL0     H 2445  13.372   1.175   8.003 -0.9032 -1.6953  2.1011
   18MOL0     H 2446  13.788   1.487   8.387 -0.2299  0.6329 -0.1282
   18MOL0     H 2447  14.025   1.515   8.370  0.7009 -0.3743  1.9747
   18MOL0     H 2448  14.304   1.203   8.290 -0.6351  0.3941  1.8874
   18MOL0     H 2449  14.235   1.214   8.125 -1.2276 -0.0979  1.4337
   18MOL0     H 2450  14.352   1.397   8.049 -2.2742 -1.8741 -0.0409
   18MOL0     H 2451  14.430   1.410   8.203  3.5527 -0.5154 -2.0402
   18MOL0     H 2452  14.441   1.151   8.048 -1.9068  1.0827  1.2439
   18MOL0     H 2453  14.533   1.194   8.201  3.4022  1.6667  0.0184
   18MOL0     H 2454  14.639   1.373   8.088  0.0013  0.2160 -0.3520
   18MOL0     H 2455  14.563   1.331   7.935 -3.0185 -0.1174  0.7837
   18MOL0     H 2456  14.760   1.175   8.090 -0.8878  0.8158  0.0122
   18MOL0     H 2457  14.670   1.087   7.961 -0.9232  0.1770 -1.5254
   18MOL0     H 2458  14.842   1.333   7.921  0.4361 -0.6059  1.5354
   18MOL0     H 2459  14.727   1.252   7.804  0.5997  0.7499 -1.0238
   18MOL0     H 2460  14.869   1.039   7.813  1.6713 -1.5895  1.0531
   18MOL0     H 2461  14.959   1.102   7.936 -3.6245 -1.3152  0.3998
   18MOL0     H 2462  15.048   1.289   7.776  1.7608  0.4149 -0.9806
   18MOL0     H 2463  14.936   1.229   7.655  1.0720  1.2875  0.3845
   18MOL0     H 2464  14.047   1.125   8.174  1.8932  0.3761  0.9593
   18MOL0     H 2465  13.820   1.092   8.226  0.8977  0.1953 -0.4748
   18MOL0     H 2466  13.472   1.246   8.467 -0.0392 -0.7250  1.0202
   18MOL0     H 2467  13.258   1.202   8.549 -1.7321 -1.7458 -0.2687
   18MOL0     H 2468  11.444   0.870   8.554  0.3170  0.0962  1.6675
   18MOL0     H 2469  11.207   0.798   8.613  1.5372 -0.8586  0.2377
   18MOL0     H 2470  10.798   1.071   8.711  0.8311  1.0136 -0.9204
   18MOL0     H 2471  10.557   1.089   8.785 -0.3843 -2.2194  1.4925
   18MOL0     H 2472  10.169   0.929   8.710 -0.8042 -0.4876 -1.4776
   18MOL0     H 2473  10.249   0.834   8.584 -0.3288 -0.9646 -0.8437
   18MOL0     H 2474  10.399   0.743   8.758 -0.1070 -0.8719 -1.4515
   18MOL0     H 2475  10.229   0.709   8.793  1.5546 -2.0071 -1.7612
   18MOL0     H 2476  10.401   0.933   8.919 -1.9174  1.4615  1.8348
   18MOL0     H 2477  10.237   0.907   8.972 -0.3458  1.8208 -1.8237
   18MOL0     H 2478  10.372   0.813   9.135 -1.3573  0.6267  0.7853
   18MOL0     H 2479  10.473   0.723   9.016  1.3230  1.0596  1.1870
   18MOL0     H 2480  10.102   0.514   9.109 -1.1969  0.5583 -3.8209
   18MOL0     H 2481  10.433   0.851   8.465  0.9721 -1.1873 -0.2367
   18MOL0     H 2482  10.555   0.811   8.286 -0.8345 -1.9346 -0.0934
   18MOL0     H 2483  10.711   0.897   8.248 -0.7915 -0.7343 -0.4407
   18MOL0     H 2484  10.704   0.732   8.323  1.0282 -0.1197  1.1687
   19MOL0     O 2485   9.566   1.221   6.007 -0.1823  0.1240  1.2506
   19MOL0     C 2486   9.495   1.321   5.986  0.0212  0.7461  0.4523
   19MOL0     O 2487   9.481   1.388   5.858  0.0629  0.2374  0.0043
   19MOL0     C 2488   9.524   1.319   5.742 -0.6210 -0.2653 -0.3399
   19MOL0     C 2489   9.428   1.255   5.658  0.4039 -0.0390 -0.3698
   19MOL0     C 2490   9.481   1.184   5.549 -0.1895  0.2605  0.4651
   19MOL0     C 2491   9.619   1.183   5.512 -0.8077  0.2649 -0.2323
   19MOL0     O 2492   9.660   1.122   5.395  0.0199  0.5872  0.6163
   19MOL0     C 2493   9.790   1.059   5.390 -0.2880 -0.4855  0.0666
   19MOL0     C 2494   9.794   0.969   5.270 -0.2765 -0.0826 -0.3608
   19MOL0     C 2495   9.922   0.897   5.256 -0.1310 -0.5115 -0.5093
   19MOL0     C 2496   9.916   0.765   5.187  0.4284 -0.3613  0.9810
   19MOL0     C 2497  10.055   0.700   5.165  0.7189  0.3447 -0.0463
   19MOL0     C 2498  10.053   0.564   5.089  0.0534 -0.3395  0.3517
   19MOL0     C 2499  10.188   0.502   5.076 -0.5893 -0.7543  0.4817
   19MOL0     C 2500  10.275   0.568   4.971 -0.0031  0.2288  0.1696
   19MOL0     N 2501  10.205   0.551   4.842  0.0220 -0.0925  0.0162
   19MOL0     C 2502  10.209   0.435   4.769  0.4609  0.3759 -0.2595
   19MOL0     C 2503  10.168   0.467   4.646  0.6525 -0.0827 -0.2656
   19MOL0     C 2504  10.150   0.373   4.528  0.0066 -0.1455  0.1051
   19MOL0     C 2505  10.019   0.292   4.552 -0.4227 -0.0367  0.1649
   19MOL0     C 2506   9.890   0.371   4.526  0.2502 -0.6533 -0.2767
   19MOL0     C 2507   9.771   0.290   4.585  0.6834  0.7271 -0.2913
   19MOL0     O 2508   9.752   0.175   4.490  0.3522 -0.2886 -0.7947
   19MOL0     C 2509   9.629   0.145   4.430 -0.0704  0.7284  0.4344
   19MOL0     C 2510   9.614   0.022   4.358 -0.0276  0.2886  0.4678
   19MOL0     C 2511   9.482  -0.023   4.311 -0.8315  0.3764 -0.1757
   19MOL0     C 2512   9.471  -0.162   4.255 -0.8854 -0.1304 -0.6870
   19MOL0     C 2513   9.370   0.059   4.336 -0.3057  0.5151 -0.7099
   19MOL0     C 2514   9.235   0.030   4.280  0.1736 -0.8711 -0.9766
   19MOL0     O 2515   9.142   0.127   4.324  0.2437 -0.3907 -0.0596
   19MOL0     C 2516   9.014   0.131   4.292  0.4218 -0.2137 -0.7116
   19MOL0     C 2517   8.942   0.008   4.287 -0.5911 -0.1939  0.9376
   19MOL0     C 2518   8.803   0.012   4.279  0.1130  0.0116  1.0405
   19MOL0     C 2519   8.733   0.133   4.256  0.5360  0.5756  0.2036
   19MOL0     O 2520   8.600   0.116   4.245  0.1089 -0.3086  0.5848
   19MOL0     C 2521   8.512   0.220   4.203 -0.7691 -0.0244  0.1858
   19MOL0     C 2522   8.378   0.161   4.177  0.1737 -0.0992  0.1607
   19MOL0     C 2523   8.366   0.055   4.066  0.5687 -0.5015  0.1396
   19MOL0     C 2524   8.399   0.115   3.925 -0.7788  1.0812 -0.8770
   19MOL0     C 2525   8.387   0.013   3.820 -0.3744 -0.2417 -0.1617
   19MOL0     C 2526   8.248  -0.050   3.790 -0.0881 -0.0251  0.1026
   19MOL0     C 2527   8.270  -0.190   3.734  0.5774  0.1390 -0.8505
   19MOL0     C 2528   8.127  -0.241   3.703  0.0253  0.2877  0.2016
   19MOL0    Cl 2529   8.124  -0.411   3.666 -0.1854 -0.3006  0.0733
   19MOL0     C 2530   8.802   0.257   4.259 -0.6670  0.0904 -0.2518
   19MOL0     C 2531   8.941   0.255   4.280 -0.1305 -1.0238 -0.8424
   19MOL0     O 2532   9.222  -0.059   4.201  0.3650 -0.9666 -0.3466
   19MOL0     C 2533   9.393   0.180   4.400  0.1964 -0.3349  1.0166
   19MOL0     C 2534   9.517   0.230   4.436  0.5126  0.6585 -0.0404
   19MOL0     N 2535  10.170   0.603   4.639 -0.3479 -0.1702 -0.0667
   19MOL0     N 2536  10.197   0.658   4.752 -0.9274  0.1203 -0.6722
   19MOL0     C 2537   9.711   1.251   5.600 -0.2671 -0.6600  0.8893
   19MOL0     C 2538   9.662   1.306   5.718 -0.0834 -0.0182  0.3940
   19MOL0     C 2539   9.414   1.372   6.106 -0.5229  0.1899  0.0479
   19MOL0     C 2540   9.340   1.491   6.086 -0.5206 -0.2628  0.1115
   19MOL0     C 2541   9.252   1.547   6.173 -0.1653  0.1208  0.0129
   19MOL0     C 2542   9.244   1.489   6.297  0.5985  0.1614 -0.5745
   19MOL0     O 2543   9.172   1.541   6.405  0.0891 -0.8518 -0.2839
   19MOL0     C 2544   9.044   1.592   6.378  0.0227  0.2584 -0.5923
   19MOL0     C 2545   8.936   1.483   6.370 -1.1264  0.9660  0.0319
   19MOL0     C 2546   8.946   1.379   6.486  0.8896  0.0394 -0.0779
   19MOL0     C 2547   8.810   1.315   6.510  0.4613 -0.1138  0.3655
   19MOL0     C 2548   8.725   1.414   6.584 -0.1661 -0.4120 -0.3809
   19MOL0     C 2549   8.665   1.493   6.653  0.5501  0.4800 -0.4682
   19MOL0     C 2550   9.319   1.374   6.321  0.4298 -0.6203 -0.4554
   19MOL0     C 2551   9.406   1.315   6.231 -0.4987 -0.4402 -0.1287
   19MOL0     C 2552   9.470   1.180   6.265  0.2225 -0.1173 -0.4871
   19MOL0     H 2553   9.326   1.259   5.693  0.8927  0.0761  1.1176
   19MOL0     H 2554   9.418   1.124   5.484  0.1327 -0.7235  1.0354
   19MOL0     H 2555   9.822   1.005   5.480 -2.0171 -0.1756  0.9257
   19MOL0     H 2556   9.868   1.128   5.358  0.2436 -1.8539 -1.7067
   19MOL0     H 2557   9.714   0.894   5.271  1.2810 -1.8110 -0.6000
   19MOL0     H 2558   9.781   1.029   5.180  1.6213  0.1334 -0.5261
   19MOL0     H 2559   9.988   0.967   5.204 -1.7475  1.2937 -0.2526
   19MOL0     H 2560   9.956   0.875   5.358 -1.5563  1.6280  0.5072
   19MOL0     H 2561   9.862   0.708   5.263  2.8853 -2.3125  1.3812
   19MOL0     H 2562   9.855   0.767   5.097 -1.2624 -0.1897  2.0914
   19MOL0     H 2563  10.096   0.679   5.265  0.3884  0.2156  0.0642
   19MOL0     H 2564  10.117   0.769   5.108  1.5197  1.3953  1.9921
   19MOL0     H 2565   9.983   0.498   5.142  0.4334 -1.3719 -0.4169
   19MOL0     H 2566  10.002   0.585   4.995  1.2694  0.2961 -0.1848
   19MOL0     H 2567  10.169   0.395   5.060  2.1685 -1.0009 -1.8912
   19MOL0     H 2568  10.237   0.519   5.172  0.0662  2.1655 -0.2851
   19MOL0     H 2569  10.298   0.671   4.997 -1.0888  1.0385 -1.8498
   19MOL0     H 2570  10.362   0.502   4.967 -0.1781  0.0067 -3.3459
   19MOL0     H 2571  10.225   0.337   4.811  0.4470  0.5554  0.1689
   19MOL0     H 2572  10.235   0.305   4.537 -0.8010 -1.0675  1.1176
   19MOL0     H 2573  10.145   0.425   4.432 -1.1087  2.4644  1.4677
   19MOL0     H 2574  10.023   0.203   4.489  2.2219  0.0267  0.1529
   19MOL0     H 2575  10.024   0.263   4.658  3.2425 -1.6437 -0.3015
   19MOL0     H 2576   9.884   0.464   4.582  0.4602 -0.3818 -0.7008
   19MOL0     H 2577   9.870   0.406   4.424 -0.5412  0.9446  0.3786
   19MOL0     H 2578   9.792   0.259   4.688  3.9956  2.4866 -0.2837
   19MOL0     H 2579   9.681   0.351   4.593 -0.2779 -0.2609 -2.6001
   19MOL0     H 2580   9.689  -0.056   4.367 -2.2562 -2.3075 -1.6315
   19MOL0     H 2581   9.467  -0.153   4.146  2.1325 -2.6951 -1.1585
   19MOL0     H 2582   9.380  -0.203   4.299 -0.7386  2.6709  2.6863
   19MOL0     H 2583   9.558  -0.224   4.279 -0.4326  0.9018  0.4738
   19MOL0     H 2584   8.976  -0.095   4.283 -1.4241 -0.5353 -4.7562
   19MOL0     H 2585   8.758  -0.087   4.283  1.0167 -0.4295  0.8656
   19MOL0     H 2586   8.514   0.307   4.269  0.2526  1.7678 -2.0689
   19MOL0     H 2587   8.549   0.264   4.109 -3.1812  1.2681 -0.2440
   19MOL0     H 2588   8.334   0.125   4.271  0.8380  3.5321  2.0734
   19MOL0     H 2589   8.319   0.249   4.152  1.8675  0.8089 -0.8034
   19MOL0     H 2590   8.264   0.017   4.056  0.2883  0.2965 -0.1501
   19MOL0     H 2591   8.436  -0.023   4.097  3.4663  1.2902 -1.3772
   19MOL0     H 2592   8.500   0.157   3.929 -0.1133 -0.4712  2.2532
   19MOL0     H 2593   8.331   0.199   3.911  0.4448  2.2948  0.1504
   19MOL0     H 2594   8.421   0.059   3.727  0.2088 -0.2119  0.0646
   19MOL0     H 2595   8.458  -0.064   3.850 -0.6475 -0.2855  0.3832
   19MOL0     H 2596   8.190   0.015   3.725 -0.5708  1.5780  2.0384
   19MOL0     H 2597   8.189  -0.062   3.882  1.8821 -0.0160  1.4437
   19MOL0     H 2598   8.329  -0.252   3.802  0.5420 -0.1499 -1.0814
   19MOL0     H 2599   8.323  -0.183   3.638 -0.0680 -1.2319 -1.3319
   19MOL0     H 2600   8.087  -0.169   3.631  2.3655  2.9043  1.3280
   19MOL0     H 2601   8.066  -0.234   3.794 -1.0604  1.0321 -0.5477
   19MOL0     H 2602   8.751   0.351   4.241  0.2539  0.8590  0.9747
   19MOL0     H 2603   8.996   0.348   4.291  0.6407 -0.9575 -4.2044
   19MOL0     H 2604   9.313   0.253   4.403  1.4733  1.1535  0.2325
   19MOL0     H 2605   9.511   0.333   4.471  2.4999 -0.0854  2.8452
   19MOL0     H 2606   9.817   1.263   5.584 -0.3498 -0.1440  0.7227
   19MOL0     H 2607   9.732   1.364   5.777  0.7159  1.0925 -1.5640
   19MOL0     H 2608   9.358   1.535   5.988 -2.3437 -1.8467 -1.0232
   19MOL0     H 2609   9.189   1.633   6.152 -1.1891 -1.3560 -3.5975
   19MOL0     H 2610   9.012   1.647   6.467 -1.1246 -0.6480 -0.4132
   19MOL0     H 2611   9.038   1.662   6.294  1.0501  0.2505 -0.6850
   19MOL0     H 2612   8.957   1.434   6.274  2.5938 -2.1559  2.1646
   19MOL0     H 2613   8.838   1.531   6.371 -1.1802  0.9237 -1.2582
   19MOL0     H 2614   9.004   1.292   6.456  0.1864 -0.2618 -0.5958
   19MOL0     H 2615   8.993   1.426   6.573 -2.0477 -0.0795  1.7338
   19MOL0     H 2616   8.803   1.222   6.567  0.5061 -0.5790 -0.3825
   19MOL0     H 2617   8.775   1.290   6.409  2.1437 -0.6803 -0.1198
   19MOL0     H 2618   8.605   1.561   6.708  1.1273  0.5355  0.1097
   19MOL0     H 2619   9.304   1.341   6.424 -0.7296  1.7447  0.2135
   19MOL0     H 2620   9.579   1.178   6.275  0.2259  0.2500 -0.4179
   19MOL0     H 2621   9.441   1.148   6.365  1.0330  0.1955 -0.1368
   19MOL0     H 2622   9.439   1.101   6.196  2.8109 -2.2054  0.5620
   20MOL0     O 2623   7.420   5.780   4.224  0.3143  0.0853  0.5408
   20MOL0     C 2624   7.324   5.765   4.301  1.4067  0.6978  0.2018
   20MOL0     O 2625   7.324   5.807   4.431 -0.9342 -0.5551 -0.0840
   20MOL0     C 2626   7.438   5.862   4.483  0.4349  0.2411 -0.0802
   20MOL0     C 2627   7.520   5.955   4.423 -0.7439  0.3470 -0.0869
   20MOL0     C 2628   7.630   6.016   4.486  0.6893  0.6885  0.3803
   20MOL0     C 2629   7.655   5.971   4.615  0.2592 -0.0646  0.6625
   20MOL0     O 2630   7.766   6.018   4.688 -0.2115  0.2517 -0.0693
   20MOL0     C 2631   7.847   6.114   4.622  0.9284  0.0782  0.4272
   20MOL0     C 2632   7.963   6.174   4.710  0.5061  0.0922 -0.0293
   20MOL0     C 2633   8.052   6.071   4.777  0.0040 -0.0364  0.0893
   20MOL0     C 2634   8.172   6.136   4.849  0.7336  0.2799  0.0297
   20MOL0     C 2635   8.233   6.024   4.949  0.2078 -0.2424 -0.5688
   20MOL0     C 2636   8.361   6.074   5.015  0.0875 -0.5414  0.0295
   20MOL0     C 2637   8.468   6.146   4.921  0.5567 -0.4552  0.5563
   20MOL0     C 2638   8.500   6.070   4.788  0.0036 -0.2279  0.2971
   20MOL0     N 2639   8.583   5.954   4.812 -0.0950 -0.5088 -0.0081
   20MOL0     C 2640   8.536   5.839   4.861 -0.6309 -0.8194 -0.7118
   20MOL0     C 2641   8.636   5.748   4.854 -0.3110 -0.3248  0.0171
   20MOL0     C 2642   8.634   5.604   4.903 -0.0388 -0.8771 -0.0512
   20MOL0     C 2643   8.526   5.517   4.842 -0.0648  0.6296 -0.7901
   20MOL0     C 2644   8.570   5.475   4.700  0.2075  0.0948  0.2566
   20MOL0     C 2645   8.453   5.405   4.637 -0.4840  0.1485 -0.3326
   20MOL0     O 2646   8.405   5.298   4.698 -0.1035 -0.7196 -0.1649
   20MOL0     C 2647   8.276   5.254   4.676  0.4369  0.6841 -0.5850
   20MOL0     C 2648   8.207   5.184   4.780 -0.2215 -0.2042  0.6350
   20MOL0     C 2649   8.077   5.154   4.770  0.8089 -0.2704  0.2287
   20MOL0     C 2650   8.023   5.084   4.898 -0.5544 -0.3380  0.2919
   20MOL0     C 2651   8.003   5.178   4.650  0.4726 -1.1889 -0.8845
   20MOL0     C 2652   7.863   5.140   4.624 -0.4044 -0.1581 -0.8804
   20MOL0     O 2653   7.833   5.111   4.493  0.8319  0.0381  0.3803
   20MOL0     C 2654   7.717   5.047   4.457  0.4199  0.4833 -0.2308
   20MOL0     C 2655   7.685   5.066   4.326  0.8486 -0.6482  0.7582
   20MOL0     C 2656   7.567   5.006   4.278 -0.9688 -0.1077 -0.0806
   20MOL0     C 2657   7.481   4.934   4.354  0.0253  0.2010  0.2085
   20MOL0     O 2658   7.371   4.875   4.303 -0.3526  0.1514 -0.3447
   20MOL0     C 2659   7.315   4.926   4.180 -0.7761  0.4072  0.1895
   20MOL0     C 2660   7.185   4.846   4.161 -0.1119  1.1785 -0.2326
   20MOL0     C 2661   7.215   4.701   4.115 -0.5932  0.8099  0.1566
   20MOL0     C 2662   7.211   4.599   4.224 -0.1609  0.3351 -0.1674
   20MOL0     C 2663   7.289   4.471   4.181 -0.5121 -0.1958 -1.2471
   20MOL0     C 2664   7.297   4.378   4.299  0.3968  0.4491  0.4374
   20MOL0     C 2665   7.363   4.246   4.248  0.2383 -0.1067 -0.7657
   20MOL0     C 2666   7.381   4.153   4.364  0.6142  0.7463  0.0427
   20MOL0    Cl 2667   7.235   4.112   4.465 -0.0879  0.1541 -0.1643
   20MOL0     C 2668   7.516   4.902   4.481 -0.5429  0.1364 -0.1613
   20MOL0     C 2669   7.636   4.956   4.535  1.2783 -0.2218 -0.4673
   20MOL0     O 2670   7.793   5.124   4.722 -0.4265 -0.5073  0.2279
   20MOL0     C 2671   8.074   5.246   4.545  0.2167 -0.7761 -1.0108
   20MOL0     C 2672   8.209   5.277   4.560  0.6006 -0.2343  0.7509
   20MOL0     N 2673   8.751   5.811   4.800  0.4542 -0.1041  0.2760
   20MOL0     N 2674   8.712   5.940   4.774 -0.4426  0.8229 -0.0120
   20MOL0     C 2675   7.572   5.884   4.685 -0.1723 -0.0454  0.1250
   20MOL0     C 2676   7.465   5.836   4.620  0.9955 -0.4850  0.6799
   20MOL0     C 2677   7.190   5.731   4.245  0.0725 -0.2636  0.2021
   20MOL0     C 2678   7.174   5.738   4.103 -0.3900  0.2576  0.0376
   20MOL0     C 2679   7.052   5.706   4.040 -0.0003 -0.1178 -0.1564
   20MOL0     C 2680   6.946   5.654   4.111 -0.7551 -0.1813  0.4650
   20MOL0     O 2681   6.841   5.618   4.038  0.0494 -0.0160  0.0631
   20MOL0     C 2682   6.729   5.561   4.108 -0.7621  1.0985  0.4862
   20MOL0     C 2683   6.601   5.527   4.015  0.6288 -0.0831  0.3886
   20MOL0     C 2684   6.569   5.637   3.910  0.1810 -0.0825 -0.0753
   20MOL0     C 2685   6.468   5.586   3.815  0.1576  0.2224  0.2333
   20MOL0     C 2686   6.333   5.553   3.877 -0.0730 -0.8388  0.3013
   20MOL0     C 2687   6.223   5.547   3.938 -0.2050 -0.2513  0.7468
   20MOL0     C 2688   6.962   5.650   4.247  0.5549 -0.8118 -0.7213
   20MOL0     C 2689   7.079   5.684   4.316 -0.9607 -0.7799 -0.1013
   20MOL0     C 2690   7.082   5.651   4.461  0.4121 -0.8824 -0.2184
   20MOL0     H 2691   7.497   5.995   4.324  2.8150 -2.4033 -2.2770
   20MOL0     H 2692   7.692   6.089   4.435  0.2099  0.7114 -0.1770
   20MOL0     H 2693   7.798   6.198   4.570  2.2067  0.0939 -0.8210
   20MOL0     H 2694   7.894   6.060   4.539  1.0131 -0.6157  0.9191
   20MOL0     H 2695   8.018   6.256   4.662  0.9034  0.2863  0.7367
   20MOL0     H 2696   7.920   6.230   4.794  1.7508 -3.4454  3.2494
   20MOL0     H 2697   7.988   6.016   4.847 -0.7890 -0.0509 -0.6298
   20MOL0     H 2698   8.098   5.999   4.709  0.7932  0.5446  0.0043
   20MOL0     H 2699   8.237   6.172   4.768  2.9195 -0.9950  1.1202
   20MOL0     H 2700   8.140   6.226   4.903 -2.9069 -0.2821 -0.9571
   20MOL0     H 2701   8.229   5.923   4.907 -0.6404  0.4367 -2.2449
   20MOL0     H 2702   8.160   6.019   5.030  0.1014  1.1375 -0.5473
   20MOL0     H 2703   8.350   6.139   5.103  1.9796 -1.1191  0.7503
   20MOL0     H 2704   8.420   5.991   5.057  1.5083  0.1322 -0.5653
   20MOL0     H 2705   8.561   6.164   4.977  0.8133  1.3233 -0.3625
   20MOL0     H 2706   8.421   6.243   4.899 -1.2404 -0.7683  2.5688
   20MOL0     H 2707   8.405   6.038   4.746  0.0790 -1.0015  0.7049
   20MOL0     H 2708   8.551   6.134   4.714 -1.7004 -2.3830 -2.9854
   20MOL0     H 2709   8.435   5.824   4.897 -0.9674  2.2128 -0.1552
   20MOL0     H 2710   8.626   5.608   5.012 -0.7260  1.1616 -0.1430
   20MOL0     H 2711   8.731   5.563   4.874 -0.1853 -0.6624 -0.8636
   20MOL0     H 2712   8.514   5.436   4.914  1.4969 -2.6835 -3.9656
   20MOL0     H 2713   8.427   5.563   4.831  0.0166  0.7096 -1.2132
   20MOL0     H 2714   8.588   5.565   4.641 -0.6243 -0.0003 -0.1550
   20MOL0     H 2715   8.653   5.408   4.720  0.7160  1.3066  2.5596
   20MOL0     H 2716   8.377   5.482   4.623 -0.0590  0.9664  1.5176
   20MOL0     H 2717   8.492   5.380   4.538  0.7963 -0.0956  0.2074
   20MOL0     H 2718   8.271   5.154   4.863  1.9988  2.9084  0.2370
   20MOL0     H 2719   7.957   5.000   4.876  2.5318 -2.5688 -1.1676
   20MOL0     H 2720   7.956   5.155   4.948  0.2354  3.1716 -3.0727
   20MOL0     H 2721   8.106   5.061   4.965  3.3153  0.5818 -3.7124
   20MOL0     H 2722   7.732   5.136   4.258 -0.1469 -1.1020 -0.4360
   20MOL0     H 2723   7.526   5.027   4.180 -2.3683 -1.7686  0.0862
   20MOL0     H 2724   7.285   5.030   4.194  0.6853  0.8866 -0.1210
   20MOL0     H 2725   7.385   4.915   4.097  0.4828 -0.4023  1.3104
   20MOL0     H 2726   7.125   4.831   4.251 -0.3074 -1.6653 -0.7530
   20MOL0     H 2727   7.113   4.889   4.091 -1.0471 -2.3975 -1.6711
   20MOL0     H 2728   7.311   4.702   4.061 -1.3374  0.7561 -1.2017
   20MOL0     H 2729   7.133   4.683   4.044 -0.5074  1.5468 -0.1425
   20MOL0     H 2730   7.108   4.573   4.249 -0.6320  2.1877 -0.0648
   20MOL0     H 2731   7.265   4.646   4.306  1.7757  0.0030 -1.1818
   20MOL0     H 2732   7.222   4.429   4.105 -2.5681  3.8394 -1.9161
   20MOL0     H 2733   7.392   4.494   4.152 -0.3210 -3.0002 -3.2620
   20MOL0     H 2734   7.197   4.362   4.341  0.4005  1.6183  0.9169
   20MOL0     H 2735   7.359   4.421   4.377 -1.6742 -0.5258  2.7823
   20MOL0     H 2736   7.467   4.261   4.217  1.4978  1.8902  3.6474
   20MOL0     H 2737   7.301   4.197   4.172 -0.0057 -2.4723  0.8345
   20MOL0     H 2738   7.449   4.209   4.430 -0.0091  0.3066  1.0832
   20MOL0     H 2739   7.427   4.063   4.323 -1.7479 -0.0228 -1.1015
   20MOL0     H 2740   7.455   4.842   4.549 -1.1350  0.4246 -0.4295
   20MOL0     H 2741   7.676   4.920   4.629  1.1313 -0.6779 -0.5738
   20MOL0     H 2742   8.026   5.251   4.448 -1.1006 -2.6129 -0.5046
   20MOL0     H 2743   8.270   5.318   4.480 -0.7297 -0.6041 -0.4955
   20MOL0     H 2744   7.604   5.854   4.784  0.9196  0.1612 -0.1591
   20MOL0     H 2745   7.394   5.775   4.676 -1.8729 -1.1298 -3.2071
   20MOL0     H 2746   7.256   5.771   4.039  0.3645 -0.3632  0.6673
   20MOL0     H 2747   7.041   5.722   3.933  0.5227 -4.1937 -0.9760
   20MOL0     H 2748   6.752   5.464   4.154  0.0569  0.4509 -1.2019
   20MOL0     H 2749   6.685   5.626   4.184 -0.3083  2.0640 -0.0674
   20MOL0     H 2750   6.509   5.511   4.070 -1.6646  1.0600 -2.8184
   20MOL0     H 2751   6.630   5.437   3.959  1.6407  1.7371 -2.2498
   20MOL0     H 2752   6.532   5.730   3.953 -0.7767 -0.2617 -0.4841
   20MOL0     H 2753   6.667   5.657   3.867  1.6518 -0.5090  2.8338
   20MOL0     H 2754   6.515   5.503   3.762 -1.4139 -0.3776 -0.2619
   20MOL0     H 2755   6.461   5.664   3.738  0.3928  1.6226  1.5797
   20MOL0     H 2756   6.127   5.539   3.984 -0.0773  1.9292  1.5423
   20MOL0     H 2757   6.874   5.645   4.310  1.5281 -0.7988  0.6922
   20MOL0     H 2758   7.071   5.746   4.515  1.0986 -0.4846 -0.7609
   20MOL0     H 2759   6.999   5.585   4.486 -0.4275 -0.0085 -0.5889
   20MOL0     H 2760   7.175   5.612   4.501 -0.4817 -2.1596  0.6722
   21MOL0     O 2761   1.012   0.685  11.087  0.8909 -0.0405  0.6766
   21MOL0     C 2762   0.998   0.594  11.169  0.9390 -0.0335 -0.2142
   21MOL0     O 2763   1.101   0.514  11.206 -0.9269  0.8096 -0.0678
   21MOL0     C 2764   1.228   0.566  11.193  0.0539  0.1374  0.0060
   21MOL0     C 2765   1.275   0.652  11.291 -0.9450 -0.1873 -0.4811
   21MOL0     C 2766   1.417   0.697  11.290  0.0478  0.3175  0.1448
   21MOL0     C 2767   1.504   0.658  11.185  0.9985 -0.0273  0.5158
   21MOL0     O 2768   1.629   0.717  11.179 -0.4445 -0.2330  0.5693
   21MOL0     C 2769   1.720   0.666  11.072 -0.3224 -0.4611  0.6527
   21MOL0     C 2770   1.864   0.717  11.095 -0.2137  0.2309 -0.1784
   21MOL0     C 2771   1.944   0.644  11.205  0.0833 -0.9896 -0.3100
   21MOL0     C 2772   2.100   0.660  11.190 -0.2632 -0.0114  0.2636
   21MOL0     C 2773   2.170   0.684  11.328  0.2172 -0.8069  0.2510
   21MOL0     C 2774   2.142   0.822  11.387 -0.7666 -1.1716  0.3138
   21MOL0     C 2775   2.195   0.843  11.524 -0.3370  0.2463 -0.0137
   21MOL0     C 2776   2.349   0.860  11.532  0.0266 -0.5965 -0.1411
   21MOL0     N 2777   2.430   0.749  11.498 -0.8078  0.3784 -0.2759
   21MOL0     C 2778   2.451   0.623  11.562 -0.0256 -0.2235  0.5249
   21MOL0     C 2779   2.544   0.562  11.479  0.1790  0.5285  0.3874
   21MOL0     C 2780   2.600   0.421  11.503  0.2439  1.5848  0.0353
   21MOL0     C 2781   2.747   0.420  11.530 -0.7938  0.3329  0.5615
   21MOL0     C 2782   2.795   0.275  11.556  0.1101 -0.1461  0.4270
   21MOL0     C 2783   2.933   0.269  11.628 -0.4125  0.8360 -0.2592
   21MOL0     O 2784   2.999   0.146  11.611 -0.1047 -0.2254 -0.3154
   21MOL0     C 2785   3.127   0.137  11.663  0.2189 -0.4049  0.8135
   21MOL0     C 2786   3.193   0.233  11.737  0.4255 -0.5159 -0.1305
   21MOL0     C 2787   3.317   0.208  11.788  0.3957 -0.4158 -0.1972
   21MOL0     C 2788   3.358   0.311  11.897  0.8516  0.3829  0.2156
   21MOL0     C 2789   3.388   0.089  11.749 -0.3229  0.8378 -1.2826
   21MOL0     C 2790   3.527   0.053  11.799  0.0368 -0.8495  0.4806
   21MOL0     O 2791   3.610  -0.012  11.716  0.3676  0.7556 -1.2403
   21MOL0     C 2792   3.736  -0.050  11.753  0.6652 -0.7860 -0.1201
   21MOL0     C 2793   3.774  -0.182  11.731 -0.1620  0.4709 -0.7864
   21MOL0     C 2794   3.906  -0.227  11.764  0.4706  0.4403 -0.2148
   21MOL0     C 2795   4.003  -0.131  11.797 -1.5611 -0.2987 -0.2753
   21MOL0     O 2796   4.131  -0.167  11.831  0.0537  0.1582  0.2960
   21MOL0     C 2797   4.147  -0.298  11.890  0.7202  0.3502  0.1559
   21MOL0     C 2798   4.304  -0.314  11.904  0.1298 -0.8879 -0.1222
   21MOL0     C 2799   4.350  -0.452  11.961  0.5557 -0.1810 -0.2699
   21MOL0     C 2800   4.498  -0.479  11.935 -0.8071  0.0569 -0.1728
   21MOL0     C 2801   4.542  -0.609  12.005 -0.9321  0.1795  0.0755
   21MOL0     C 2802   4.686  -0.652  11.967 -0.2371  0.0625 -0.7103
   21MOL0     C 2803   4.800  -0.554  12.002 -0.0841  0.6265  1.3800
   21MOL0     C 2804   4.927  -0.588  11.931  0.1710  0.2347 -0.2534
   21MOL0    Cl 2805   5.038  -0.450  11.932 -0.5602 -0.0465 -0.4730
   21MOL0     C 2806   3.970   0.004  11.804  0.3506  0.4338 -0.0810
   21MOL0     C 2807   3.837   0.041  11.789  0.2238 -0.8356  0.4025
   21MOL0     O 2808   3.560   0.103  11.905  1.1164 -0.0762  0.0279
   21MOL0     C 2809   3.326  -0.004  11.670  0.9855  0.0255  0.5531
   21MOL0     C 2810   3.194   0.024  11.625  0.3395  0.2833 -0.4480
   21MOL0     N 2811   2.583   0.647  11.378 -0.2488  0.7828  0.3021
   21MOL0     N 2812   2.510   0.745  11.387  0.1285 -0.1262 -0.2470
   21MOL0     C 2813   1.446   0.572  11.083 -0.7351  0.5545  1.0837
   21MOL0     C 2814   1.312   0.538  11.088 -1.2515  1.2285 -0.1052
   21MOL0     C 2815   0.868   0.576  11.233 -0.0040  0.4431  0.3661
   21MOL0     C 2816   0.794   0.693  11.252 -0.2850 -0.3769  0.0985
   21MOL0     C 2817   0.664   0.681  11.298  0.2979  0.3199 -0.1343
   21MOL0     C 2818   0.607   0.555  11.333 -0.1645  0.2320 -0.4398
   21MOL0     O 2819   0.479   0.535  11.367  0.4641  0.1194  0.1633
   21MOL0     C 2820   0.434   0.585  11.494 -0.1312  0.0130  0.2506
   21MOL0     C 2821   0.281   0.562  11.517 -0.2347 -0.1526  0.0820
   21MOL0     C 2822   0.239   0.411  11.509  0.6741  0.4573  0.2871
   21MOL0     C 2823   0.231   0.350  11.373 -0.2856 -0.0616  1.1677
   21MOL0     C 2824   0.140   0.230  11.368 -0.3323 -0.2411  0.4406
   21MOL0     C 2825   0.075   0.131  11.370  0.0723  0.0475  0.3843
   21MOL0     C 2826   0.687   0.443  11.318 -0.1473 -0.0445  0.0851
   21MOL0     C 2827   0.817   0.448  11.273  0.0069 -0.3426  0.2565
   21MOL0     C 2828   0.901   0.328  11.251 -0.0709  0.0138 -0.5831
   21MOL0     H 2829   1.211   0.669  11.377  0.2143 -1.5999  0.7101
   21MOL0     H 2830   1.452   0.758  11.373  0.2971 -1.3328  1.3057
   21MOL0     H 2831   1.690   0.698  10.971  1.6721 -3.8885 -1.2388
   21MOL0     H 2832   1.722   0.557  11.064 -0.6533 -0.3746 -1.0724
   21MOL0     H 2833   1.914   0.711  10.998 -0.2070  1.3314 -0.2511
   21MOL0     H 2834   1.870   0.823  11.122 -0.4064 -0.3956  2.6066
   21MOL0     H 2835   1.920   0.691  11.301 -0.6209 -1.2908 -0.3312
   21MOL0     H 2836   1.915   0.539  11.218 -1.2239 -1.0781 -3.1101
   21MOL0     H 2837   2.150   0.576  11.141 -0.7349  0.1088 -0.4497
   21MOL0     H 2838   2.130   0.746  11.129  0.0622  0.7646  1.4861
   21MOL0     H 2839   2.276   0.667  11.306 -0.0572  2.0262 -4.5124
   21MOL0     H 2840   2.127   0.608  11.394 -1.5756  0.1421  0.2252
   21MOL0     H 2841   2.181   0.899  11.320 -2.0140 -4.0077 -4.1471
   21MOL0     H 2842   2.035   0.843  11.399 -0.1984  0.9213  2.5661
   21MOL0     H 2843   2.167   0.757  11.586 -1.7053  0.5405 -0.1976
   21MOL0     H 2844   2.152   0.933  11.570 -0.7339  0.3239 -0.5316
   21MOL0     H 2845   2.379   0.948  11.475 -0.2489 -0.1618  0.3705
   21MOL0     H 2846   2.374   0.909  11.626  0.1776 -0.6388 -0.1583
   21MOL0     H 2847   2.399   0.595  11.653 -3.5327  2.8748 -0.2618
   21MOL0     H 2848   2.577   0.363  11.414 -2.2583  1.5809  0.6162
   21MOL0     H 2849   2.546   0.366  11.581 -0.9087  0.8899 -1.2166
   21MOL0     H 2850   2.806   0.461  11.447  2.3059 -0.8109  2.0380
   21MOL0     H 2851   2.760   0.484  11.618 -1.9656  0.6907  0.4892
   21MOL0     H 2852   2.718   0.212  11.603  0.5766 -2.7293 -2.0077
   21MOL0     H 2853   2.809   0.228  11.458  0.6949  0.2182  0.3356
   21MOL0     H 2854   2.996   0.352  11.593 -0.3153  1.5123  1.4095
   21MOL0     H 2855   2.914   0.281  11.735 -0.5807  1.4094 -0.3480
   21MOL0     H 2856   3.141   0.325  11.760  1.3500 -0.4851  2.0021
   21MOL0     H 2857   3.322   0.287  11.997  1.7100  0.0137  0.4465
   21MOL0     H 2858   3.309   0.403  11.863 -0.4681 -0.2653  0.2860
   21MOL0     H 2859   3.462   0.344  11.884  0.8685  0.0505 -0.5829
   21MOL0     H 2860   3.699  -0.248  11.687  0.4327  0.0529 -1.1936
   21MOL0     H 2861   3.939  -0.329  11.751  2.5379  0.9018  0.9986
   21MOL0     H 2862   4.097  -0.290  11.987  0.3852  0.3493 -0.0143
   21MOL0     H 2863   4.102  -0.380  11.834 -0.0818  1.4200 -0.8128
   21MOL0     H 2864   4.348  -0.282  11.809 -1.1100  2.1964  0.2204
   21MOL0     H 2865   4.336  -0.246  11.984 -0.5476  0.1341 -0.6909
   21MOL0     H 2866   4.295  -0.535  11.916 -0.6930 -0.2496  1.2940
   21MOL0     H 2867   4.328  -0.459  12.068  0.7493  1.4751 -0.0952
   21MOL0     H 2868   4.552  -0.389  11.966 -1.8356 -0.0511  2.1990
   21MOL0     H 2869   4.518  -0.490  11.828  1.6525 -0.0921  0.2381
   21MOL0     H 2870   4.525  -0.597  12.112 -0.6144 -4.1701  0.8129
   21MOL0     H 2871   4.481  -0.694  11.974 -0.9813  0.7434 -1.4770
   21MOL0     H 2872   4.685  -0.664  11.859 -0.3035  0.5990 -0.7700
   21MOL0     H 2873   4.717  -0.749  12.008  1.9489 -0.1451 -2.6499
   21MOL0     H 2874   4.815  -0.549  12.110  0.2637  0.0746  1.3616
   21MOL0     H 2875   4.782  -0.451  11.969  1.3554  1.1256  2.0638
   21MOL0     H 2876   4.911  -0.620  11.828 -1.3659 -1.3039  0.4000
   21MOL0     H 2877   4.970  -0.673  11.985 -1.4174 -1.0328 -0.8892
   21MOL0     H 2878   4.041   0.085  11.818 -1.2978  1.9576 -0.1989
   21MOL0     H 2879   3.814   0.147  11.789  2.2347 -0.3505 -0.9376
   21MOL0     H 2880   3.371  -0.099  11.642  1.5653  0.9035 -1.6983
   21MOL0     H 2881   3.130  -0.036  11.563 -1.8399  1.3676  0.6351
   21MOL0     H 2882   1.505   0.543  10.996 -1.3025  0.2739  0.7895
   21MOL0     H 2883   1.264   0.466  11.022 -0.8914 -0.6855  1.6202
   21MOL0     H 2884   0.828   0.790  11.216  1.1346 -1.3305 -1.3016
   21MOL0     H 2885   0.593   0.762  11.308 -0.7584 -0.5052 -0.7535
   21MOL0     H 2886   0.477   0.531  11.579 -1.0812 -0.5662  0.3716
   21MOL0     H 2887   0.454   0.693  11.500  0.4085 -0.0794  0.1675
   21MOL0     H 2888   0.225   0.622  11.445  0.6018 -1.1440 -1.4439
   21MOL0     H 2889   0.266   0.604  11.617 -1.0385  0.6886 -0.3808
   21MOL0     H 2890   0.309   0.349  11.566 -0.4387 -0.1019  1.0720
   21MOL0     H 2891   0.140   0.396  11.552  0.2803 -0.0546 -0.7629
   21MOL0     H 2892   0.330   0.311  11.349  0.6168  2.5475  0.2784
   21MOL0     H 2893   0.210   0.417  11.289 -2.9309  0.1730  1.9291
   21MOL0     H 2894   0.019   0.040  11.360 -2.3899  1.1350  2.8780
   21MOL0     H 2895   0.640   0.351  11.351  0.1267  0.1057  0.9087
   21MOL0     H 2896   0.940   0.332  11.149  0.5684  1.5976 -0.3051
   21MOL0     H 2897   0.984   0.325  11.323 -0.4698  3.2307  0.1744
   21MOL0     H 2898   0.840   0.238  11.256  2.6522 -1.8746  2.0035
   22MOL0     O 2899  10.572   7.752   1.220 -0.2610  0.2737  0.0577
   22MOL0     C 2900  10.561   7.646   1.156 -0.4730 -0.8120 -1.1151
   22MOL0     O 2901  10.670   7.580   1.118  0.3958 -0.4120  0.1560
   22MOL0     C 2902  10.802   7.620   1.149 -0.2242 -0.0474 -0.3696
   22MOL0     C 2903  10.889   7.631   1.046  0.1723 -0.5838 -0.5407
   22MOL0     C 2904  11.020   7.661   1.070 -0.1478 -0.3440  0.8240
   22MOL0     C 2905  11.070   7.664   1.200  0.9310  0.1071 -0.2022
   22MOL0     O 2906  11.202   7.683   1.226 -0.2185 -0.6327 -0.7933
   22MOL0     C 2907  11.260   7.641   1.351 -0.2398  0.7859 -0.0502
   22MOL0     C 2908  11.410   7.640   1.343  0.1826  0.4716  0.4350
   22MOL0     C 2909  11.472   7.769   1.281  0.5010 -0.8826 -0.6091
   22MOL0     C 2910  11.618   7.761   1.260  0.3664 -1.0274  0.8536
   22MOL0     C 2911  11.681   7.895   1.201  0.0975  0.3874  0.8921
   22MOL0     C 2912  11.834   7.879   1.204  0.3419  1.0887 -0.3877
   22MOL0     C 2913  11.908   7.980   1.117  0.3481  0.0813 -0.7052
   22MOL0     C 2914  11.883   7.978   0.964 -0.4375 -0.5789 -0.7720
   22MOL0     N 2915  11.995   8.055   0.896 -0.2531  0.0239 -0.9780
   22MOL0     C 2916  12.015   8.190   0.910  1.1799  0.4599 -0.2004
   22MOL0     C 2917  12.134   8.213   0.845  0.2632 -0.4128  0.2251
   22MOL0     C 2918  12.186   8.359   0.814  0.8377  0.0175  0.0385
   22MOL0     C 2919  12.334   8.371   0.788  0.8536  0.5371 -0.4461
   22MOL0     C 2920  12.421   8.306   0.906 -0.1273  0.2711 -0.5555
   22MOL0     C 2921  12.569   8.318   0.884  0.5006 -0.4775 -0.7307
   22MOL0     O 2922  12.637   8.266   1.009  0.6915  0.1196 -0.3139
   22MOL0     C 2923  12.771   8.281   1.020  0.2578 -0.0255  0.4236
   22MOL0     C 2924  12.833   8.231   1.132 -0.0758 -0.5388 -0.4099
   22MOL0     C 2925  12.974   8.221   1.153  0.7033 -0.4649 -0.1064
   22MOL0     C 2926  13.018   8.166   1.295 -0.2288  0.7638 -0.5079
   22MOL0     C 2927  13.063   8.273   1.053 -0.0964 -0.4341 -0.2166
   22MOL0     C 2928  13.209   8.265   1.066  0.3569 -0.4668 -0.1228
   22MOL0     O 2929  13.272   8.361   0.996  0.6755 -0.2820 -0.5271
   22MOL0     C 2930  13.405   8.356   1.009 -0.0616 -0.0482 -0.0159
   22MOL0     C 2931  13.473   8.436   1.098 -0.4711 -0.2022 -0.1728
   22MOL0     C 2932  13.606   8.443   1.109 -0.1307 -0.6569 -0.1116
   22MOL0     C 2933  13.690   8.359   1.032 -0.4711  0.2347 -0.0852
   22MOL0     O 2934  13.828   8.360   1.052 -0.4200  0.2953  0.0655
   22MOL0     C 2935  13.876   8.246   1.111  0.0433  0.7894 -0.2491
   22MOL0     C 2936  14.004   8.271   1.180  0.6831 -0.4142 -0.1590
   22MOL0     C 2937  14.102   8.362   1.116 -0.6683 -0.4247  0.1236
   22MOL0     C 2938  14.132   8.333   0.962  0.4658  1.0172 -0.3850
   22MOL0     C 2939  14.277   8.348   0.923 -0.3874 -0.4408 -0.3735
   22MOL0     C 2940  14.296   8.486   0.857  0.1390  0.2183 -0.2626
   22MOL0     C 2941  14.450   8.509   0.836 -0.0958 -0.2679 -0.4709
   22MOL0     C 2942  14.514   8.428   0.724 -0.3304  0.4866  0.4002
   22MOL0    Cl 2943  14.685   8.388   0.748 -0.0959  0.4969 -0.3733
   22MOL0     C 2944  13.627   8.280   0.937  0.0199 -0.1118 -0.1351
   22MOL0     C 2945  13.490   8.279   0.924 -0.5473 -0.3825  1.5378
   22MOL0     O 2946  13.266   8.180   1.138  0.6855 -0.0493  0.3860
   22MOL0     C 2947  12.999   8.333   0.939 -0.3323  0.6709 -0.1700
   22MOL0     C 2948  12.859   8.333   0.920  0.9556  0.7636 -0.1260
   22MOL0     N 2949  12.181   8.095   0.784  0.3784  0.0617  0.7854
   22MOL0     N 2950  12.085   8.006   0.806 -0.7195  0.0288 -0.0414
   22MOL0     C 2951  10.978   7.658   1.306 -0.4032  1.2267  0.2843
   22MOL0     C 2952  10.845   7.626   1.278 -0.5793  0.6539  0.0062
   22MOL0     C 2953  10.425   7.601   1.099 -0.7600 -0.2165 -0.2584
   22MOL0     C 2954  10.318   7.690   1.122 -0.7209  0.0694 -0.0827
   22MOL0     C 2955  10.185   7.661   1.069  0.6056 -0.3515  0.4950
   22MOL0     C 2956  10.170   7.549   0.988  0.5543 -0.2773  0.0585
   22MOL0     O 2957  10.048   7.522   0.930  0.4030 -0.7763 -0.1099
   22MOL0     C 2958   9.988   7.635   0.858 -0.5674 -0.6734  0.0914
   22MOL0     C 2959   9.857   7.581   0.787 -1.1564 -0.0403 -1.5028
   22MOL0     C 2960   9.770   7.515   0.895 -0.3376 -0.0615 -0.5633
   22MOL0     C 2961   9.637   7.454   0.852  0.1036 -0.2760 -0.1775
   22MOL0     C 2962   9.656   7.334   0.763  0.3831 -0.0226  0.4109
   22MOL0     C 2963   9.667   7.248   0.674  0.4447 -0.0050 -0.1377
   22MOL0     C 2964  10.272   7.455   0.973  1.0358  0.1400 -0.7324
   22MOL0     C 2965  10.401   7.481   1.027 -0.7513  1.2335  0.0843
   22MOL0     C 2966  10.514   7.387   0.999  0.0723  0.0631 -0.4254
   22MOL0     H 2967  10.835   7.628   0.952  0.4190 -0.4854 -0.6885
   22MOL0     H 2968  11.085   7.672   0.984 -2.2269  2.1122 -0.5839
   22MOL0     H 2969  11.224   7.541   1.377 -1.1321  0.5931 -1.9035
   22MOL0     H 2970  11.233   7.708   1.433 -0.1359  0.3962  0.3082
   22MOL0     H 2971  11.446   7.626   1.445  0.3960  3.8179  0.9017
   22MOL0     H 2972  11.435   7.553   1.281  1.8859  0.7926  0.6437
   22MOL0     H 2973  11.434   7.790   1.181 -1.0297 -1.8277 -0.2522
   22MOL0     H 2974  11.459   7.850   1.353 -0.5943 -0.9234 -0.7401
   22MOL0     H 2975  11.667   7.742   1.357  1.6762 -0.2263  0.3826
   22MOL0     H 2976  11.641   7.682   1.187  1.0620 -0.7529  0.7706
   22MOL0     H 2977  11.643   7.983   1.254 -2.5135  1.5102 -2.4298
   22MOL0     H 2978  11.636   7.906   1.101 -1.2536 -0.7894  1.3414
   22MOL0     H 2979  11.872   7.887   1.306  1.3491  0.1074 -0.6656
   22MOL0     H 2980  11.862   7.782   1.160 -2.3405 -1.3683  2.8224
   22MOL0     H 2981  12.015   7.957   1.118  0.4690  0.5328 -1.9491
   22MOL0     H 2982  11.898   8.080   1.161  0.8709  0.0056 -0.3986
   22MOL0     H 2983  11.879   7.875   0.926  0.8978 -1.2570  0.8153
   22MOL0     H 2984  11.787   8.027   0.948 -0.1390  0.5316  0.7140
   22MOL0     H 2985  11.948   8.263   0.955  1.1245  1.7334 -2.2107
   22MOL0     H 2986  12.166   8.414   0.907  0.1572 -1.9408  1.1117
   22MOL0     H 2987  12.121   8.402   0.737 -0.5204 -3.3490 -0.8901
   22MOL0     H 2988  12.362   8.331   0.690  2.5823  1.6651 -0.4503
   22MOL0     H 2989  12.348   8.479   0.781  0.0623  0.9143  2.5595
   22MOL0     H 2990  12.397   8.349   1.003  3.3423  0.7737  0.2122
   22MOL0     H 2991  12.404   8.198   0.904  2.1080 -0.2288  1.8600
   22MOL0     H 2992  12.597   8.255   0.799  2.3030 -1.0255  0.2381
   22MOL0     H 2993  12.591   8.424   0.871 -1.0439 -0.1100 -0.5021
   22MOL0     H 2994  12.777   8.188   1.215 -1.6790  3.5899  0.8996
   22MOL0     H 2995  13.078   8.240   1.349  0.7958  0.1871 -0.8223
   22MOL0     H 2996  13.086   8.084   1.270 -0.7331 -0.2858  1.4105
   22MOL0     H 2997  12.937   8.138   1.362  1.1142  1.5129  1.5085
   22MOL0     H 2998  13.424   8.507   1.165  1.2014  0.2298  0.6543
   22MOL0     H 2999  13.646   8.522   1.172 -2.6143  3.3370 -3.0111
   22MOL0     H 3000  13.811   8.222   1.196  0.5398 -0.5198 -0.2055
   22MOL0     H 3001  13.895   8.162   1.043  0.8540  1.1666 -0.4960
   22MOL0     H 3002  13.970   8.320   1.272 -1.7634  0.2454 -1.3343
   22MOL0     H 3003  14.046   8.172   1.199  1.0149 -0.3281 -0.4576
   22MOL0     H 3004  14.193   8.347   1.175  0.0403 -0.1864 -0.8761
   22MOL0     H 3005  14.069   8.466   1.129  3.2799  1.1339 -0.5992
   22MOL0     H 3006  14.081   8.402   0.895  0.0612  1.1679  0.0724
   22MOL0     H 3007  14.101   8.230   0.939 -2.3517  1.8722 -0.7786
   22MOL0     H 3008  14.336   8.326   1.013 -1.3529 -1.5886  0.0079
   22MOL0     H 3009  14.292   8.272   0.847 -2.0558 -0.2536 -0.9272
   22MOL0     H 3010  14.251   8.571   0.909  1.1312  0.3288  0.4218
   22MOL0     H 3011  14.237   8.475   0.764  1.3730 -0.4350 -0.9988
   22MOL0     H 3012  14.505   8.492   0.928  0.6522  1.2492 -0.5985
   22MOL0     H 3013  14.468   8.613   0.807  2.9334 -1.0787 -1.8773
   22MOL0     H 3014  14.518   8.492   0.636  0.4116  0.3078  0.2943
   22MOL0     H 3015  14.462   8.333   0.709  1.9034 -0.5823 -1.0553
   22MOL0     H 3016  13.688   8.208   0.882 -1.5244 -0.1481 -1.9254
   22MOL0     H 3017  13.447   8.218   0.845 -0.6585 -1.0710  2.1234
   22MOL0     H 3018  13.054   8.380   0.859 -2.8812  1.1895 -1.7366
   22MOL0     H 3019  12.821   8.375   0.828 -4.0456 -2.6374 -0.0217
   22MOL0     H 3020  11.013   7.676   1.407  2.4419 -1.9326  0.0593
   22MOL0     H 3021  10.784   7.611   1.367  0.0127  1.0258  0.4768
   22MOL0     H 3022  10.333   7.786   1.170  0.0327 -0.8094  1.5332
   22MOL0     H 3023  10.102   7.729   1.082  0.0021  0.3055 -4.5795
   22MOL0     H 3024   9.961   7.716   0.926  2.0239  0.0498  0.3612
   22MOL0     H 3025  10.060   7.660   0.780  0.1911 -2.4390  0.1834
   22MOL0     H 3026   9.884   7.512   0.707  2.9177 -3.4989  2.3003
   22MOL0     H 3027   9.794   7.659   0.743 -2.5183 -1.4327 -2.1482
   22MOL0     H 3028   9.823   7.427   0.932 -2.1717 -0.5178  1.2065
   22MOL0     H 3029   9.760   7.589   0.976  0.8065  0.4711 -0.8872
   22MOL0     H 3030   9.572   7.529   0.804  0.7708  0.1578 -0.4187
   22MOL0     H 3031   9.589   7.411   0.940 -1.4301  0.6610 -0.5143
   22MOL0     H 3032   9.686   7.170   0.603 -2.1280  1.0575 -2.1604
   22MOL0     H 3033  10.262   7.362   0.919  1.0885 -0.5407  0.3922
   22MOL0     H 3034  10.469   7.295   0.961  0.7923  0.0647 -1.3114
   22MOL0     H 3035  10.578   7.440   0.928 -0.2969  1.5163  0.2933
   22MOL0     H 3036  10.568   7.358   1.090 -2.6636  1.4987  1.8418
   23MOL0     O 3037   2.859  10.722  10.631  0.2752  0.3109  1.7779
   23MOL0     C 3038   2.890  10.611  10.675  0.0865 -0.5426  0.1305
   23MOL0     O 3039   3.009  10.577  10.738 -0.2010 -1.0690 -0.1131
   23MOL0     C 3040   3.117  10.662  10.762 -0.2258  0.5899 -0.4506
   23MOL0     C 3041   3.243  10.613  10.751  0.6973  0.0305  0.6029
   23MOL0     C 3042   3.361  10.688  10.767  0.3818  0.0536  0.6515
   23MOL0     C 3043   3.348  10.828  10.799 -0.0379  0.0879 -0.2946
   23MOL0     O 3044   3.440  10.926  10.799 -0.3823 -0.2398 -0.5838
   23MOL0     C 3045   3.576  10.889  10.810  0.2985 -0.3562 -0.3382
   23MOL0     C 3046   3.660  11.016  10.784 -0.0387  0.4788  0.1954
   23MOL0     C 3047   3.611  11.135  10.861  0.7589  0.3643 -0.1022
   23MOL0     C 3048   3.689  11.260  10.834 -0.1185 -0.2746  0.3703
   23MOL0     C 3049   3.626  11.379  10.903  0.3995  0.0846  0.3555
   23MOL0     C 3050   3.677  11.514  10.841  0.1718 -1.1650 -0.2092
   23MOL0     C 3051   3.634  11.630  10.932 -0.1148  0.2457  0.2269
   23MOL0     C 3052   3.648  11.770  10.875  0.1264 -0.1332 -0.1617
   23MOL0     N 3053   3.605  11.861  10.977  0.0626 -0.5121  0.7064
   23MOL0     C 3054   3.692  11.954  11.029 -0.2875 -0.7764 -0.0806
   23MOL0     C 3055   3.617  12.050  11.078 -0.0816 -0.7012  0.3525
   23MOL0     C 3056   3.672  12.187  11.119 -0.1533 -0.1182  0.1168
   23MOL0     C 3057   3.726  12.169  11.262  0.2975  0.8666 -0.0235
   23MOL0     C 3058   3.768  12.297  11.317  0.2193 -0.1469 -0.1947
   23MOL0     C 3059   3.900  12.355  11.258  0.5055  0.6680  0.4002
   23MOL0     O 3060   3.995  12.254  11.236 -0.2398  0.6932 -0.7175
   23MOL0     C 3061   4.124  12.291  11.202 -0.5529 -0.6156  0.3790
   23MOL0     C 3062   4.142  12.401  11.116  0.6876 -0.8342 -0.4033
   23MOL0     C 3063   4.274  12.436  11.072 -0.7510  0.7783  0.6347
   23MOL0     C 3064   4.283  12.552  10.981  0.3017 -0.6120  0.4271
   23MOL0     C 3065   4.383  12.367  11.125 -0.5522 -0.0037  0.5098
   23MOL0     C 3066   4.515  12.400  11.098 -0.8021 -0.2477 -0.5186
   23MOL0     O 3067   4.608  12.296  11.120 -0.0834 -0.5138 -0.6029
   23MOL0     C 3068   4.739  12.334  11.084 -0.1382  0.1569 -0.3466
   23MOL0     C 3069   4.837  12.346  11.179 -0.2921  0.1915  0.2537
   23MOL0     C 3070   4.970  12.380  11.142  0.6814  0.4215  0.2043
   23MOL0     C 3071   5.006  12.411  11.011  0.0957  0.2117  0.0020
   23MOL0     O 3072   5.135  12.446  10.995  0.1276  0.5549 -0.8380
   23MOL0     C 3073   5.168  12.474  10.865 -0.4017 -0.5557  0.7180
   23MOL0     C 3074   5.322  12.497  10.854  0.1265  0.2270  0.3420
   23MOL0     C 3075   5.360  12.644  10.895  0.3573  0.1121  0.3102
   23MOL0     C 3076   5.507  12.657  10.898 -0.2184  0.2663  0.3850
   23MOL0     C 3077   5.544  12.805  10.893 -0.4982 -0.4572  0.0214
   23MOL0     C 3078   5.520  12.869  11.036 -0.2255  0.2951 -0.4130
   23MOL0     C 3079   5.553  13.023  11.043  0.0903 -0.7823 -0.2304
   23MOL0     C 3080   5.437  13.111  10.990 -0.6342  0.0008  0.6212
   23MOL0    Cl 3081   5.482  13.285  10.977  0.2956 -0.3945 -0.1684
   23MOL0     C 3082   4.904  12.403  10.917  0.5215 -0.3323  1.4527
   23MOL0     C 3083   4.771  12.367  10.947 -0.4439  0.4070 -0.2673
   23MOL0     O 3084   4.551  12.516  11.066 -0.4573 -0.7762  0.4464
   23MOL0     C 3085   4.363  12.252  11.203  0.2507  0.1387  0.5288
   23MOL0     C 3086   4.234  12.214  11.239  0.0444 -0.4109 -0.1585
   23MOL0     N 3087   3.493  12.010  11.066  1.1898  0.2082 -0.3594
   23MOL0     N 3088   3.481  11.889  11.014  0.4620 -0.8320  1.1175
   23MOL0     C 3089   3.221  10.879  10.821  0.2006 -0.6257  0.3988
   23MOL0     C 3090   3.108  10.796  10.785 -0.8475 -0.2845  0.2210
   23MOL0     C 3091   2.791  10.495  10.674  0.4213  0.4205  0.6851
   23MOL0     C 3092   2.838  10.369  10.719  0.1145  0.3565  0.3463
   23MOL0     C 3093   2.763  10.257  10.726 -0.3730  0.3113 -0.0303
   23MOL0     C 3094   2.626  10.264  10.704 -0.6095 -0.1900  0.9590
   23MOL0     O 3095   2.545  10.160  10.736  0.1354 -0.3597 -0.2502
   23MOL0     C 3096   2.598  10.024  10.720  1.0298  0.5647  0.3051
   23MOL0     C 3097   2.490   9.926  10.683  0.5178 -0.2564 -0.3559
   23MOL0     C 3098   2.412   9.869  10.804  0.3293  0.2649  0.2021
   23MOL0     C 3099   2.314   9.963  10.878 -1.7411  0.0701  0.4291
   23MOL0     C 3100   2.207  10.009  10.801 -0.0395 -0.1076  0.2564
   23MOL0     C 3101   2.109  10.051  10.741 -0.4644 -0.3238 -0.1158
   23MOL0     C 3102   2.573  10.386  10.658 -0.2968  0.3591  0.2697
   23MOL0     C 3103   2.654  10.502  10.634  0.6941  0.2932 -0.0832
   23MOL0     C 3104   2.584  10.625  10.587 -0.1510  0.4698  0.6302
   23MOL0     H 3105   3.246  10.508  10.725 -0.5783  0.3998 -1.3023
   23MOL0     H 3106   3.454  10.632  10.759 -0.3007 -0.9609 -0.3627
   23MOL0     H 3107   3.595  10.816  10.732 -2.7581  0.0778 -1.6437
   23MOL0     H 3108   3.604  10.857  10.911 -0.4406  0.2122  0.0685
   23MOL0     H 3109   3.765  10.991  10.803  0.2681 -0.8699 -2.6577
   23MOL0     H 3110   3.652  11.039  10.677  0.2909  2.4249  0.5631
   23MOL0     H 3111   3.506  11.155  10.837 -0.1024 -2.2934  1.0930
   23MOL0     H 3112   3.618  11.119  10.969 -2.0543 -0.0342  0.0960
   23MOL0     H 3113   3.795  11.246  10.858  0.0070 -0.8434 -0.4757
   23MOL0     H 3114   3.688  11.280  10.727 -4.0651 -0.1400  0.2711
   23MOL0     H 3115   3.652  11.371  11.009 -0.2758 -1.6058  0.4323
   23MOL0     H 3116   3.517  11.377  10.904  0.2233  0.8593 -3.3214
   23MOL0     H 3117   3.785  11.527  10.827  0.0324  1.1871  0.4783
   23MOL0     H 3118   3.634  11.522  10.741 -0.9373 -0.3350  0.3293
   23MOL0     H 3119   3.689  11.625  11.026  0.0981  1.7423  0.1996
   23MOL0     H 3120   3.530  11.619  10.963  0.4677 -0.6524  1.9811
   23MOL0     H 3121   3.748  11.795  10.840 -0.2684 -1.0638 -2.1045
   23MOL0     H 3122   3.580  11.778  10.790  0.6367  1.6287 -0.4467
   23MOL0     H 3123   3.800  11.958  11.021 -0.1399 -0.6234  1.6125
   23MOL0     H 3124   3.588  12.257  11.128 -3.3822 -3.6700 -0.2726
   23MOL0     H 3125   3.742  12.233  11.048 -1.0730  0.6741 -0.3091
   23MOL0     H 3126   3.653  12.124  11.330  2.2868 -0.1418  1.5487
   23MOL0     H 3127   3.815  12.105  11.256  0.1161  0.7044 -1.3840
   23MOL0     H 3128   3.688  12.372  11.314  0.0788 -0.3085 -0.6482
   23MOL0     H 3129   3.793  12.278  11.422  0.2025  0.9940  0.0313
   23MOL0     H 3130   3.874  12.405  11.164  0.3147  2.6094  1.4366
   23MOL0     H 3131   3.931  12.436  11.324  0.2956  1.2672 -0.2197
   23MOL0     H 3132   4.056  12.456  11.080  0.3336 -1.2226 -0.1785
   23MOL0     H 3133   4.337  12.522  10.891  1.2202 -0.2489  0.8328
   23MOL0     H 3134   4.333  12.635  11.032 -0.5818  0.6500 -0.6948
   23MOL0     H 3135   4.185  12.584  10.947  0.0623  0.8015  2.2505
   23MOL0     H 3136   4.814  12.319  11.281  0.8870 -3.0188 -0.2116
   23MOL0     H 3137   5.045  12.385  11.221 -0.2506 -0.3111  1.1652
   23MOL0     H 3138   5.143  12.388  10.801  0.4637  0.7196 -1.4438
   23MOL0     H 3139   5.112  12.559  10.825 -1.0500 -2.1528 -2.0580
   23MOL0     H 3140   5.374  12.424  10.917 -0.2224  1.1205  1.7027
   23MOL0     H 3141   5.356  12.479  10.751 -1.5999 -2.1323  0.1125
   23MOL0     H 3142   5.315  12.658  10.994 -1.8146  0.3169 -0.6404
   23MOL0     H 3143   5.308  12.710  10.825 -0.8252 -1.2450 -0.1549
   23MOL0     H 3144   5.561  12.617  10.811  0.0262  0.5071  0.4251
   23MOL0     H 3145   5.544  12.609  10.989 -0.3382  1.3151  0.9976
   23MOL0     H 3146   5.649  12.825  10.868 -0.9863  3.5266  0.5576
   23MOL0     H 3147   5.477  12.851  10.819 -1.0008 -1.4229 -0.1353
   23MOL0     H 3148   5.579  12.818  11.113  1.0310 -0.8954 -2.1012
   23MOL0     H 3149   5.416  12.846  11.062 -0.9627  3.8403  0.4002
   23MOL0     H 3150   5.651  13.043  10.997  1.8579  0.4447  3.6665
   23MOL0     H 3151   5.582  13.053  11.144 -0.3394  1.1145 -0.6267
   23MOL0     H 3152   5.345  13.096  11.048 -2.0805  0.1617 -1.5333
   23MOL0     H 3153   5.418  13.069  10.891  0.3602  1.3222 -0.1557
   23MOL0     H 3154   4.924  12.444  10.818  1.4350 -1.2060  1.2519
   23MOL0     H 3155   4.701  12.359  10.865  0.1335 -2.1072 -0.5847
   23MOL0     H 3156   4.445  12.196  11.248  3.4132  3.3270 -0.6999
   23MOL0     H 3157   4.218  12.127  11.302 -0.0028 -0.1275  0.2227
   23MOL0     H 3158   3.207  10.982  10.852  1.8257 -0.3083  0.1744
   23MOL0     H 3159   3.014  10.849  10.791 -0.9660 -0.4661  0.0012
   23MOL0     H 3160   2.939  10.362  10.757  0.5917  0.5876 -0.8341
   23MOL0     H 3161   2.806  10.161  10.754 -1.8823 -1.2668 -2.7218
   23MOL0     H 3162   2.670  10.017  10.638 -2.4123  2.8184 -3.2508
   23MOL0     H 3163   2.644   9.992  10.814 -0.6845 -1.5971  0.4805
   23MOL0     H 3164   2.550   9.844  10.642  2.1339  0.5778  0.2676
   23MOL0     H 3165   2.412   9.961  10.615 -1.0003 -1.3181  0.7612
   23MOL0     H 3166   2.361   9.782  10.763  0.6101  1.0396 -1.8809
   23MOL0     H 3167   2.488   9.832  10.874  2.2976  1.1916 -1.3352
   23MOL0     H 3168   2.380  10.044  10.909 -1.7341  0.6364 -0.9907
   23MOL0     H 3169   2.285   9.910  10.969  0.2321 -1.0932  0.4476
   23MOL0     H 3170   2.030  10.080  10.676  0.2904  0.0464 -0.8848
   23MOL0     H 3171   2.467  10.389  10.638 -0.3217 -0.5571  0.2045
   23MOL0     H 3172   2.639  10.668  10.503  0.4051  1.7806  1.6356
   23MOL0     H 3173   2.484  10.607  10.545  1.6234 -2.9780 -2.7307
   23MOL0     H 3174   2.589  10.706  10.660  0.6049  0.7501  0.2759
   24MOL0     O 3175   7.614   2.368   9.055 -0.0924 -0.7425 -1.0299
   24MOL0     C 3176   7.589   2.253   9.092  1.1262  0.5761  0.4401
   24MOL0     O 3177   7.631   2.193   9.205  0.4167 -0.4916 -0.1731
   24MOL0     C 3178   7.694   2.278   9.294 -0.8222  0.2518  0.3427
   24MOL0     C 3179   7.625   2.305   9.413 -0.2299 -0.5610  0.7962
   24MOL0     C 3180   7.682   2.402   9.500  0.2691 -1.0764  0.2711
   24MOL0     C 3181   7.805   2.469   9.470  0.3434 -0.0113  0.0842
   24MOL0     O 3182   7.871   2.558   9.552 -0.7860  0.1199  0.2316
   24MOL0     C 3183   7.827   2.571   9.691 -0.3927 -0.6857 -0.0549
   24MOL0     C 3184   7.933   2.660   9.751  0.1204  0.0605  0.0635
   24MOL0     C 3185   8.073   2.597   9.734 -0.1120  0.7577  0.3863
   24MOL0     C 3186   8.076   2.467   9.808 -0.2685 -0.0016 -0.1908
   24MOL0     C 3187   8.218   2.410   9.811  0.1661 -0.1601  0.0647
   24MOL0     C 3188   8.223   2.301   9.924 -0.0596  0.0080  0.7819
   24MOL0     C 3189   8.362   2.238   9.942  0.2476 -0.4226 -0.5731
   24MOL0     C 3190   8.367   2.133  10.053  0.4293 -0.3605 -0.6902
   24MOL0     N 3191   8.504   2.095  10.080 -0.4569  0.1009 -0.6950
   24MOL0     C 3192   8.596   2.161  10.162  0.1495 -0.0338 -0.0475
   24MOL0     C 3193   8.702   2.077  10.160 -0.0418  0.3304  1.2919
   24MOL0     C 3194   8.822   2.092  10.251  0.5957 -1.2060  0.5625
   24MOL0     C 3195   8.799   2.084  10.402  0.3227 -0.4728  0.1331
   24MOL0     C 3196   8.768   1.943  10.442 -0.1655  0.2030  0.1282
   24MOL0     C 3197   8.903   1.872  10.446 -0.0139  1.1076  0.2811
   24MOL0     O 3198   8.917   1.746  10.512 -0.0954 -0.4181  0.4792
   24MOL0     C 3199   9.016   1.654  10.489  0.1590 -0.0594 -0.7318
   24MOL0     C 3200   9.108   1.665  10.388  0.1520 -0.2622  0.4160
   24MOL0     C 3201   9.212   1.571  10.371  0.1903 -0.4352 -0.3970
   24MOL0     C 3202   9.304   1.582  10.246  0.2698 -0.1084 -1.0600
   24MOL0     C 3203   9.223   1.464  10.467 -0.4448 -0.4625  0.5706
   24MOL0     C 3204   9.334   1.367  10.474  0.2962 -0.1070 -0.3859
   24MOL0     O 3205   9.314   1.262  10.557 -0.5121 -0.1861  0.1668
   24MOL0     C 3206   9.370   1.139  10.537 -0.1378  0.2346 -0.5744
   24MOL0     C 3207   9.388   1.061  10.649 -0.1260  0.0535 -0.5282
   24MOL0     C 3208   9.449   0.942  10.662 -0.0945  0.1202  0.5110
   24MOL0     C 3209   9.495   0.879  10.541 -0.3312 -1.0158 -0.1954
   24MOL0     O 3210   9.542   0.748  10.532  0.5780 -0.4596 -0.1159
   24MOL0     C 3211   9.609   0.700  10.637 -0.1018 -0.1038 -0.2059
   24MOL0     C 3212   9.745   0.661  10.579 -0.5451 -0.2241  0.0102
   24MOL0     C 3213   9.842   0.607  10.689  0.1124 -1.0552  0.1150
   24MOL0     C 3214   9.968   0.548  10.618 -0.0051 -0.2743  0.2025
   24MOL0     C 3215  10.053   0.472  10.721 -0.2511  0.4897  0.4036
   24MOL0     C 3216  10.197   0.431  10.674 -0.3810  0.5245 -0.0920
   24MOL0     C 3217  10.262   0.352  10.793 -0.8267  0.0947 -0.1600
   24MOL0     C 3218  10.401   0.314  10.749  0.0277 -0.7790 -0.5327
   24MOL0    Cl 3219  10.497   0.224  10.876  0.1306  0.0320  0.6894
   24MOL0     C 3220   9.471   0.957  10.422  0.6165  0.8884  0.6444
   24MOL0     C 3221   9.414   1.087  10.423 -0.7877 -0.0281 -0.2440
   24MOL0     O 3222   9.437   1.387  10.410 -0.2007  0.4451  0.5323
   24MOL0     C 3223   9.119   1.450  10.558  1.1708 -0.0262 -0.4401
   24MOL0     C 3224   9.024   1.551  10.571  0.5306  0.5566  0.2504
   24MOL0     N 3225   8.677   1.967  10.077  1.0008  0.0626  0.2040
   24MOL0     N 3226   8.553   1.974  10.034 -0.2688  0.0948  0.1068
   24MOL0     C 3227   7.869   2.435   9.346 -0.1856 -0.2428  0.1939
   24MOL0     C 3228   7.815   2.339   9.262  0.1333 -0.2634 -0.2060
   24MOL0     C 3229   7.485   2.177   9.008  0.3372 -0.1562 -0.7409
   24MOL0     C 3230   7.422   2.057   9.059 -0.0614 -0.2503  0.9643
   24MOL0     C 3231   7.314   1.993   8.992 -0.3138 -0.7567 -0.1346
   24MOL0     C 3232   7.260   2.043   8.875  0.6276  0.0689 -0.4181
   24MOL0     O 3233   7.138   1.991   8.837  0.1940 -0.5738  0.0321
   24MOL0     C 3234   7.084   2.027   8.706 -0.2308  0.0323 -0.2180
   24MOL0     C 3235   6.982   1.921   8.666 -0.0435  0.9716  0.1240
   24MOL0     C 3236   6.912   1.969   8.536 -0.1279 -0.1620 -0.0664
   24MOL0     C 3237   6.832   2.093   8.546  0.6246 -0.7247  0.9422
   24MOL0     C 3238   6.738   2.124   8.437  0.0010  0.2552  0.1260
   24MOL0     C 3239   6.659   2.150   8.349  0.0291 -0.2236 -0.9253
   24MOL0     C 3240   7.331   2.149   8.823  0.2021 -0.1394  0.9434
   24MOL0     C 3241   7.440   2.213   8.879 -0.0647 -0.4527  0.1103
   24MOL0     C 3242   7.498   2.329   8.799  0.1771  0.0928  0.4746
   24MOL0     H 3243   7.536   2.250   9.440 -0.5053 -0.6431 -0.2391
   24MOL0     H 3244   7.622   2.433   9.585 -0.5439  0.7237 -0.8864
   24MOL0     H 3245   7.814   2.481   9.751 -1.0959 -0.2489  0.4667
   24MOL0     H 3246   7.731   2.623   9.686 -0.7708 -1.4728 -1.5428
   24MOL0     H 3247   7.931   2.761   9.709  0.1424  1.4426  3.1096
   24MOL0     H 3248   7.909   2.682   9.855  1.1303  2.5471 -0.1698
   24MOL0     H 3249   8.105   2.585   9.630 -0.7137 -2.5927  0.4625
   24MOL0     H 3250   8.145   2.664   9.782  2.3932 -0.2523 -1.7781
   24MOL0     H 3251   8.038   2.475   9.910 -1.4641 -1.0832 -0.5208
   24MOL0     H 3252   8.012   2.390   9.763 -0.3679 -1.2944  2.0335
   24MOL0     H 3253   8.299   2.482   9.827 -1.1899  1.5703 -0.4860
   24MOL0     H 3254   8.235   2.366   9.712  1.3166  2.0972 -0.7984
   24MOL0     H 3255   8.193   2.336  10.023  0.6709 -0.4615  1.1714
   24MOL0     H 3256   8.150   2.223   9.901 -1.9453  1.2591  2.1790
   24MOL0     H 3257   8.424   2.319   9.983  0.5591 -0.5700 -0.7454
   24MOL0     H 3258   8.410   2.202   9.850  0.0047  1.4347 -1.4795
   24MOL0     H 3259   8.326   2.175  10.145 -0.8671  0.0147 -1.4080
   24MOL0     H 3260   8.302   2.052  10.019 -0.0307 -1.4844  2.5727
   24MOL0     H 3261   8.581   2.249  10.223 -1.5866 -1.5366  1.8107
   24MOL0     H 3262   8.860   2.191  10.226 -0.7070 -0.7744  0.1888
   24MOL0     H 3263   8.898   2.019  10.222 -0.0958 -2.1087  0.9958
   24MOL0     H 3264   8.887   2.127  10.451  0.5938  0.1359 -0.8639
   24MOL0     H 3265   8.715   2.148  10.429  0.2331 -0.2632 -0.6352
   24MOL0     H 3266   8.728   1.940  10.543  2.6698 -1.7452  1.3242
   24MOL0     H 3267   8.698   1.895  10.373 -0.9213  1.9057 -0.3281
   24MOL0     H 3268   8.931   1.864  10.340 -1.6132 -0.6567 -0.0584
   24MOL0     H 3269   8.979   1.938  10.490 -0.7029  0.7274  2.1243
   24MOL0     H 3270   9.107   1.746  10.315  0.6815 -0.2856  0.3799
   24MOL0     H 3271   9.273   1.664  10.181  0.8369  1.1599  0.2157
   24MOL0     H 3272   9.294   1.492  10.186 -0.8216 -1.1664  0.6143
   24MOL0     H 3273   9.409   1.600  10.272 -0.7207  1.3957  2.4777
   24MOL0     H 3274   9.345   1.108  10.738 -1.0215 -1.8086  0.0818
   24MOL0     H 3275   9.446   0.893  10.758 -0.2332 -1.0337 -0.0662
   24MOL0     H 3276   9.620   0.772  10.718  0.5822 -0.5121  0.0748
   24MOL0     H 3277   9.571   0.609  10.683  0.0288 -1.8829 -3.3046
   24MOL0     H 3278   9.732   0.589  10.498 -0.4272 -0.7323  0.4330
   24MOL0     H 3279   9.803   0.748  10.548 -0.3034 -0.5690 -0.5204
   24MOL0     H 3280   9.802   0.540  10.765  0.5008 -0.5864  0.7390
   24MOL0     H 3281   9.878   0.697  10.739  2.2470 -0.4524 -2.2745
   24MOL0     H 3282  10.032   0.625  10.573  1.9853 -2.6872 -1.3957
   24MOL0     H 3283   9.927   0.487  10.536 -0.7879 -2.0623  1.8479
   24MOL0     H 3284  10.073   0.535  10.808  2.8280  1.8440 -1.1359
   24MOL0     H 3285  10.005   0.382  10.761 -0.2795  0.2193 -0.2171
   24MOL0     H 3286  10.253   0.522  10.649 -1.7923  2.7242  3.8615
   24MOL0     H 3287  10.184   0.367  10.586  1.2778 -0.1744  0.1379
   24MOL0     H 3288  10.204   0.261  10.810 -0.4775 -0.4063 -1.5115
   24MOL0     H 3289  10.268   0.409  10.886 -0.1765 -0.9371  0.4475
   24MOL0     H 3290  10.451   0.408  10.724  0.2432 -1.2755 -2.0755
   24MOL0     H 3291  10.395   0.256  10.657 -0.4446  0.6431 -1.4411
   24MOL0     H 3292   9.512   0.916  10.330  0.7327  3.4189 -0.5159
   24MOL0     H 3293   9.416   1.132  10.324  0.4175  0.2370 -0.1127
   24MOL0     H 3294   9.123   1.369  10.630  0.7592  1.6166  1.5275
   24MOL0     H 3295   8.948   1.551  10.649  0.5004 -2.6588  0.3617
   24MOL0     H 3296   7.954   2.487   9.303 -0.4903 -1.1087 -1.5550
   24MOL0     H 3297   7.846   2.331   9.158 -2.5781  1.0162 -1.2082
   24MOL0     H 3298   7.447   2.018   9.157 -0.3550 -1.8937  0.4259
   24MOL0     H 3299   7.262   1.911   9.041 -1.4971  1.0899  1.8929
   24MOL0     H 3300   7.041   2.127   8.714 -1.4277 -0.5103  0.4830
   24MOL0     H 3301   7.157   2.036   8.625  1.4309  1.8654  1.3740
   24MOL0     H 3302   6.910   1.913   8.748 -0.4028 -3.1283 -0.4097
   24MOL0     H 3303   7.028   1.825   8.645 -0.6442  0.9920 -1.4024
   24MOL0     H 3304   6.979   1.970   8.450 -0.4116  0.9504 -0.2770
   24MOL0     H 3305   6.836   1.894   8.514 -0.4545 -0.4179  1.7869
   24MOL0     H 3306   6.901   2.178   8.559  0.1979 -0.2855  0.3818
   24MOL0     H 3307   6.775   2.083   8.638  2.9065  0.2273  2.5561
   24MOL0     H 3308   6.585   2.175   8.275  2.6301  2.6101 -2.8230
   24MOL0     H 3309   7.288   2.190   8.733 -1.9275 -0.9655  1.5063
   24MOL0     H 3310   7.465   2.426   8.835 -0.5570  0.6304 -1.5148
   24MOL0     H 3311   7.607   2.322   8.797  0.1342 -0.7390  0.4816
   24MOL0     H 3312   7.473   2.319   8.693  0.3766  1.0058  0.3371
   25MOL0     O 3313  11.260   9.048   3.662 -0.2512  0.4427 -0.5382
   25MOL0     C 3314  11.222   8.934   3.678  0.0606 -0.0980  0.0425
   25MOL0     O 3315  11.275   8.845   3.771  0.1664 -0.2453  0.6944
   25MOL0     C 3316  11.395   8.875   3.821 -0.4653 -0.2132 -0.4475
   25MOL0     C 3317  11.406   8.963   3.932  0.3053 -0.6207  0.3154
   25MOL0     C 3318  11.521   8.982   4.003 -0.3597  0.3637  0.0786
   25MOL0     C 3319  11.631   8.908   3.973 -0.8719  0.4796 -0.3380
   25MOL0     O 3320  11.743   8.941   4.047 -0.4087  0.5194  0.2655
   25MOL0     C 3321  11.820   8.828   4.090 -0.6669 -0.3071  0.1486
   25MOL0     C 3322  11.929   8.868   4.188  0.7227 -0.0161 -0.8281
   25MOL0     C 3323  12.036   8.953   4.126  0.0334  0.1048 -0.0861
   25MOL0     C 3324  12.154   8.952   4.215 -0.3683  0.2078 -0.5042
   25MOL0     C 3325  12.272   9.012   4.137 -0.0256 -0.1020  0.0197
   25MOL0     C 3326  12.411   8.999   4.210  0.0297 -0.1239  0.1276
   25MOL0     C 3327  12.522   9.058   4.133  0.4045 -0.5991  0.5641
   25MOL0     C 3328  12.588   8.960   4.033 -0.4449  0.1056  0.3640
   25MOL0     N 3329  12.660   8.853   4.102  0.1225 -0.9097  0.0825
   25MOL0     C 3330  12.790   8.856   4.154  0.1268 -0.0085  1.0837
   25MOL0     C 3331  12.812   8.743   4.217 -0.0572  0.2918 -0.6425
   25MOL0     C 3332  12.944   8.703   4.282 -0.0923  0.4703 -0.5675
   25MOL0     C 3333  13.006   8.600   4.200  0.8555  0.3991  0.3023
   25MOL0     C 3334  13.075   8.665   4.078  0.8913  0.1341  0.6802
   25MOL0     C 3335  13.209   8.730   4.108  0.1705  0.2197  0.5932
   25MOL0     O 3336  13.299   8.627   4.142 -0.4499  0.3589  0.2361
   25MOL0     C 3337  13.423   8.662   4.186 -0.6241 -0.6426  0.2572
   25MOL0     C 3338  13.508   8.563   4.223 -0.8703  0.5843 -1.1483
   25MOL0     C 3339  13.647   8.588   4.254  1.0693 -0.7954  0.0057
   25MOL0     C 3340  13.728   8.462   4.291  0.2417 -0.3428 -0.0407
   25MOL0     C 3341  13.692   8.717   4.273  0.1160 -1.6388 -0.8940
   25MOL0     C 3342  13.838   8.755   4.310  0.1415  0.9690  0.1020
   25MOL0     O 3343  13.859   8.884   4.338  0.5539  0.2319  0.4049
   25MOL0     C 3344  13.982   8.939   4.343 -0.0322  0.5125 -0.3133
   25MOL0     C 3345  13.990   9.060   4.280 -0.5485  0.0702  0.6021
   25MOL0     C 3346  14.115   9.118   4.253  0.4074 -0.4270 -0.0444
   25MOL0     C 3347  14.229   9.063   4.318 -0.0465  0.1746  0.5470
   25MOL0     O 3348  14.344   9.136   4.311  0.0147  0.6364 -0.7043
   25MOL0     C 3349  14.465   9.100   4.398  0.2989  0.1355  0.3753
   25MOL0     C 3350  14.583   9.169   4.329 -0.0448  0.3772 -0.0873
   25MOL0     C 3351  14.709   9.180   4.414  0.0524 -0.3986 -0.0817
   25MOL0     C 3352  14.831   9.236   4.331  0.2323  0.2312 -0.1755
   25MOL0     C 3353  14.958   9.225   4.423  0.4868 -0.1698  0.0467
   25MOL0     C 3354  15.056   9.327   4.359  0.5289 -0.3893  0.0538
   25MOL0     C 3355  15.185   9.333   4.442  0.3033 -0.0566 -0.1922
   25MOL0     C 3356  15.258   9.461   4.423  0.0005 -0.0610 -0.0526
   25MOL0    Cl 3357  15.176   9.612   4.494 -0.0694 -0.2058 -0.3554
   25MOL0     C 3358  14.221   8.940   4.379 -0.5009  0.9465  0.0140
   25MOL0     C 3359  14.096   8.881   4.398  0.3077 -0.1658 -0.1458
   25MOL0     O 3360  13.920   8.672   4.275 -0.3458 -0.4128 -0.5609
   25MOL0     C 3361  13.597   8.827   4.248  0.2864  0.9192  0.2141
   25MOL0     C 3362  13.464   8.801   4.208  0.7446 -0.0820 -0.6921
   25MOL0     N 3363  12.690   8.670   4.212 -0.5614 -0.3198 -0.2008
   25MOL0     N 3364  12.603   8.739   4.143 -0.1325  0.6158 -0.0693
   25MOL0     C 3365  11.631   8.815   3.865 -0.0371 -0.4988 -0.6391
   25MOL0     C 3366  11.510   8.801   3.792 -0.3612  0.1367  0.3114
   25MOL0     C 3367  11.099   8.893   3.598 -0.1449 -0.8062  0.3140
   25MOL0     C 3368  11.018   8.790   3.656 -0.2478 -0.1814  0.2209
   25MOL0     C 3369  10.900   8.748   3.603  0.1855 -0.5235  0.0072
   25MOL0     C 3370  10.869   8.804   3.486  0.2343 -0.1682  0.2886
   25MOL0     O 3371  10.747   8.758   3.437  0.6001  0.3918 -0.4707
   25MOL0     C 3372  10.680   8.841   3.345 -0.3957 -0.0793 -0.2234
   25MOL0     C 3373  10.545   8.797   3.290 -0.6823 -0.4417  0.5724
   25MOL0     C 3374  10.439   8.788   3.403 -0.9444 -0.2253  0.1606
   25MOL0     C 3375  10.312   8.713   3.366 -0.2249 -0.4559 -0.3575
   25MOL0     C 3376  10.215   8.694   3.469  0.3822  0.4117  0.2989
   25MOL0     C 3377  10.125   8.660   3.539  0.9000 -0.1417 -0.0621
   25MOL0     C 3378  10.940   8.901   3.416  0.1309 -0.0778 -0.6118
   25MOL0     C 3379  11.059   8.954   3.472  0.6045 -0.3160 -0.7680
   25MOL0     C 3380  11.128   9.069   3.400  0.0349 -0.2688  0.7712
   25MOL0     H 3381  11.324   9.029   3.960  0.4371 -0.0117 -0.6789
   25MOL0     H 3382  11.514   9.057   4.082 -2.4335  1.5674 -1.1325
   25MOL0     H 3383  11.863   8.777   4.003 -2.4164 -1.5406 -0.0643
   25MOL0     H 3384  11.760   8.746   4.131 -0.9490 -1.1332 -1.8034
   25MOL0     H 3385  11.872   8.926   4.261 -0.6298 -1.2899 -0.8399
   25MOL0     H 3386  11.976   8.782   4.236  0.5160 -0.6062 -1.6551
   25MOL0     H 3387  12.055   8.900   4.032 -0.8307 -0.7343  0.1948
   25MOL0     H 3388  12.000   9.054   4.103 -1.5784  0.4013  3.2376
   25MOL0     H 3389  12.118   9.011   4.300 -1.5488  1.3371 -1.7268
   25MOL0     H 3390  12.182   8.856   4.258  2.0069  1.5888  1.3078
   25MOL0     H 3391  12.253   9.119   4.123 -2.1054 -0.7589 -3.1186
   25MOL0     H 3392  12.285   8.969   4.038  0.0912 -0.3600  0.1461
   25MOL0     H 3393  12.407   9.034   4.313  2.5513  0.5784  0.0401
   25MOL0     H 3394  12.427   8.891   4.221 -1.1006 -0.4748 -1.3448
   25MOL0     H 3395  12.596   9.098   4.202  1.9967  0.5953 -1.7329
   25MOL0     H 3396  12.496   9.153   4.085  0.5096  0.6328  2.8165
   25MOL0     H 3397  12.507   8.917   3.975 -1.5213  1.5091  0.7803
   25MOL0     H 3398  12.657   9.021   3.974  0.3357  1.6853  2.7428
   25MOL0     H 3399  12.858   8.940   4.143 -0.5288  0.4861  0.7177
   25MOL0     H 3400  12.930   8.652   4.377  2.7625 -2.7108 -1.6558
   25MOL0     H 3401  13.006   8.791   4.303  0.9392 -0.1895 -0.7623
   25MOL0     H 3402  13.072   8.537   4.260  1.1883 -0.8262 -1.3070
   25MOL0     H 3403  12.926   8.535   4.163  0.5796  0.4447  0.7982
   25MOL0     H 3404  13.076   8.590   3.998 -2.1618 -0.1334  0.7789
   25MOL0     H 3405  13.009   8.740   4.033 -2.1191 -1.8333  1.5020
   25MOL0     H 3406  13.252   8.768   4.015  1.9136 -2.7567  0.0657
   25MOL0     H 3407  13.196   8.813   4.178  0.2882 -0.9283  1.9971
   25MOL0     H 3408  13.465   8.463   4.224 -1.7288  0.9476 -0.0838
   25MOL0     H 3409  13.778   8.478   4.387 -2.5436  0.3454  1.4050
   25MOL0     H 3410  13.813   8.444   4.224 -0.9000 -2.8397 -0.9210
   25MOL0     H 3411  13.668   8.371   4.296  0.0573 -0.1901  0.8007
   25MOL0     H 3412  13.897   9.109   4.257 -0.0578  2.0040  2.4537
   25MOL0     H 3413  14.127   9.208   4.193  0.4888 -0.0170  0.5788
   25MOL0     H 3414  14.446   9.136   4.500 -0.2864  1.8119 -0.2962
   25MOL0     H 3415  14.488   8.994   4.391  3.2800  0.6148  1.5204
   25MOL0     H 3416  14.611   9.132   4.231 -2.1023 -1.4955 -0.0478
   25MOL0     H 3417  14.539   9.268   4.314 -3.2074 -0.9760 -0.4977
   25MOL0     H 3418  14.737   9.082   4.454  1.3179  0.7802  2.1441
   25MOL0     H 3419  14.702   9.246   4.500 -0.6814  0.6385 -0.9141
   25MOL0     H 3420  14.811   9.341   4.311 -3.6495  0.0400  1.8995
   25MOL0     H 3421  14.842   9.180   4.237 -4.7514 -0.1095 -0.7797
   25MOL0     H 3422  14.933   9.255   4.525 -2.7025 -4.2208  0.7344
   25MOL0     H 3423  14.992   9.121   4.415  1.7094  0.3694 -4.5188
   25MOL0     H 3424  15.013   9.428   4.351  1.6008  0.2870  2.0973
   25MOL0     H 3425  15.078   9.288   4.260  0.3346 -0.3631  0.0003
   25MOL0     H 3426  15.255   9.259   4.403 -0.6473  0.1860 -2.5641
   25MOL0     H 3427  15.167   9.316   4.549  1.6906  0.1580  0.0950
   25MOL0     H 3428  15.279   9.469   4.316 -0.3845 -2.5700 -0.3874
   25MOL0     H 3429  15.354   9.452   4.475 -0.2720 -0.3154  0.4224
   25MOL0     H 3430  14.308   8.885   4.414  0.2625  0.0349 -3.0245
   25MOL0     H 3431  14.093   8.783   4.447  1.1883 -0.3697 -0.4875
   25MOL0     H 3432  13.629   8.931   4.256  2.5363  0.4208 -1.2635
   25MOL0     H 3433  13.394   8.885   4.200 -0.4906 -1.0434 -0.3113
   25MOL0     H 3434  11.713   8.745   3.854 -1.6680 -2.1897 -3.0230
   25MOL0     H 3435  11.515   8.727   3.713  0.4609 -0.0491  0.5347
   25MOL0     H 3436  11.037   8.745   3.754 -2.1556 -3.3461 -0.7017
   25MOL0     H 3437  10.838   8.683   3.664  0.5062  1.1203  2.2291
   25MOL0     H 3438  10.671   8.946   3.377 -0.3461  0.4591 -1.8567
   25MOL0     H 3439  10.739   8.843   3.253 -0.1358 -0.2969 -0.0628
   25MOL0     H 3440  10.564   8.697   3.249 -0.8526  0.3602 -1.5776
   25MOL0     H 3441  10.513   8.858   3.206  2.4544 -1.0986 -1.2211
   25MOL0     H 3442  10.496   8.741   3.484 -0.1205  2.3379  1.1775
   25MOL0     H 3443  10.420   8.887   3.445  0.8325  0.6694 -1.0099
   25MOL0     H 3444  10.337   8.612   3.334  0.9600 -0.0853 -0.6723
   25MOL0     H 3445  10.261   8.755   3.279  0.1759 -0.8088 -0.7696
   25MOL0     H 3446  10.047   8.624   3.603 -0.4864 -0.0185 -1.5917
   25MOL0     H 3447  10.917   8.934   3.315  0.2989  1.1020 -0.2715
   25MOL0     H 3448  11.081   9.103   3.307  0.0862 -2.0114  0.0694
   25MOL0     H 3449  11.121   9.152   3.471 -2.8094  2.5275 -2.4210
   25MOL0     H 3450  11.230   9.059   3.363  0.7760  1.3110  2.2480
   26MOL0     O 3451   6.709   6.839   1.012 -0.6116  0.2637  0.1088
   26MOL0     C 3452   6.739   6.867   0.894  0.3044  0.0420 -0.0344
   26MOL0     O 3453   6.651   6.896   0.793  0.1735  0.4309  0.4090
   26MOL0     C 3454   6.517   6.909   0.826  0.3655  0.0750 -0.5326
   26MOL0     C 3455   6.462   7.032   0.845  0.4166 -0.3996  0.1810
   26MOL0     C 3456   6.324   7.050   0.874 -0.4732  0.2091  0.1432
   26MOL0     C 3457   6.233   6.941   0.891  0.5678  0.8747 -0.5229
   26MOL0     O 3458   6.105   6.957   0.939  0.1819  0.3013  0.1986
   26MOL0     C 3459   6.023   6.842   0.971  0.6656  0.5977 -0.4206
   26MOL0     C 3460   5.882   6.897   1.017  0.3167 -0.7154  0.2943
   26MOL0     C 3461   5.800   6.982   0.915 -0.0544  1.4593  0.4981
   26MOL0     C 3462   5.652   6.971   0.959  0.1577  0.6252 -0.2780
   26MOL0     C 3463   5.556   7.030   0.854  0.3751 -0.1152 -0.5332
   26MOL0     C 3464   5.517   7.178   0.880  1.0389  0.1156  0.2445
   26MOL0     C 3465   5.461   7.246   0.756  0.5841  0.0757 -0.5081
   26MOL0     C 3466   5.555   7.355   0.700 -0.6749  1.1021 -0.8010
   26MOL0     N 3467   5.686   7.305   0.651  0.3416  0.2357 -0.9207
   26MOL0     C 3468   5.799   7.327   0.729 -0.4350  0.0105 -0.2966
   26MOL0     C 3469   5.892   7.241   0.693  0.0156 -0.1980  0.7162
   26MOL0     C 3470   6.031   7.245   0.738 -0.6421 -0.8180 -0.1105
   26MOL0     C 3471   6.120   7.309   0.625  0.1972 -0.7363 -1.0884
   26MOL0     C 3472   6.178   7.203   0.531  0.1861  0.0438  0.1763
   26MOL0     C 3473   6.249   7.264   0.415 -0.6997 -0.4435  0.5243
   26MOL0     O 3474   6.313   7.391   0.452 -0.5237  0.2047  0.9199
   26MOL0     C 3475   6.437   7.389   0.508  0.1036 -0.8335 -0.2888
   26MOL0     C 3476   6.489   7.518   0.534  0.2399 -0.2031  0.1282
   26MOL0     C 3477   6.615   7.538   0.606  0.6642  0.1580  0.0594
   26MOL0     C 3478   6.670   7.679   0.626 -0.3705  0.1372 -0.1219
   26MOL0     C 3479   6.692   7.421   0.635 -0.5313  0.0792 -0.1449
   26MOL0     C 3480   6.826   7.421   0.713 -0.6416  0.3534  0.0252
   26MOL0     O 3481   6.878   7.293   0.744 -0.0096  0.0774 -0.6883
   26MOL0     C 3482   6.997   7.300   0.814  0.1020  0.3936 -0.3033
   26MOL0     C 3483   6.992   7.285   0.955  0.2028  0.1410 -0.7359
   26MOL0     C 3484   7.108   7.291   1.031  0.3680 -0.1411 -0.2896
   26MOL0     C 3485   7.228   7.306   0.974 -0.7914 -0.3638 -0.2763
   26MOL0     O 3486   7.339   7.306   1.056 -0.2667 -0.0665 -0.2733
   26MOL0     C 3487   7.473   7.302   1.000  0.6550  1.0054  0.4339
   26MOL0     C 3488   7.585   7.319   1.108  1.0527 -0.0541 -0.4995
   26MOL0     C 3489   7.718   7.291   1.035  0.2952 -0.0894 -0.7531
   26MOL0     C 3490   7.827   7.340   1.129  0.0803  0.2134 -0.3176
   26MOL0     C 3491   7.958   7.323   1.061  0.5957 -0.6286 -0.1285
   26MOL0     C 3492   8.074   7.376   1.138 -0.2795 -0.3343  0.1024
   26MOL0     C 3493   8.211   7.323   1.103 -0.3449  0.0944 -0.4458
   26MOL0     C 3494   8.319   7.410   1.176 -0.6214 -0.1088 -0.0257
   26MOL0    Cl 3495   8.494   7.367   1.128 -0.3541  0.1270 -0.2755
   26MOL0     C 3496   7.241   7.306   0.832  0.3148 -0.1867 -0.4388
   26MOL0     C 3497   7.127   7.295   0.749  0.5573  0.2942 -0.2216
   26MOL0     O 3498   6.876   7.525   0.740  0.0621 -0.5508 -0.6934
   26MOL0     C 3499   6.640   7.294   0.597 -0.2151  0.1120 -0.1130
   26MOL0     C 3500   6.516   7.276   0.534 -1.0172 -0.2176 -0.0683
   26MOL0     N 3501   5.841   7.159   0.596  1.0941 -0.1327 -0.7701
   26MOL0     N 3502   5.717   7.196   0.572  0.3938 -0.7806  0.0724
   26MOL0     C 3503   6.293   6.817   0.877 -0.5231  0.6428  0.0922
   26MOL0     C 3504   6.430   6.797   0.851  0.2594  0.3960  0.0398
   26MOL0     C 3505   6.884   6.881   0.855  0.2249  0.0911  0.0095
   26MOL0     C 3506   6.913   6.868   0.721  0.6533  0.2112 -0.2659
   26MOL0     C 3507   7.036   6.892   0.673 -0.0712  0.2637  0.3887
   26MOL0     C 3508   7.144   6.914   0.749 -0.3326 -0.3386 -0.3502
   26MOL0     O 3509   7.258   6.941   0.684  0.4775 -0.2723  0.1885
   26MOL0     C 3510   7.380   6.977   0.740  0.0506 -0.2041  0.2943
   26MOL0     C 3511   7.453   6.870   0.820 -0.1932  0.2963  0.7082
   26MOL0     C 3512   7.531   6.780   0.725  0.1662  1.1529  0.0949
   26MOL0     C 3513   7.677   6.812   0.693 -0.0573 -0.1753 -0.1516
   26MOL0     C 3514   7.731   6.718   0.598 -0.7344  0.4758  1.4660
   26MOL0     C 3515   7.762   6.654   0.500 -0.3499 -0.3633 -0.3834
   26MOL0     C 3516   7.120   6.917   0.890  0.1147 -0.4891  0.2697
   26MOL0     C 3517   6.988   6.919   0.942 -0.3770 -0.9863 -0.0006
   26MOL0     C 3518   6.980   6.962   1.088 -0.5905 -0.0425  0.5887
   26MOL0     H 3519   6.525   7.119   0.833  2.5799 -1.9529 -0.2077
   26MOL0     H 3520   6.288   7.153   0.879  0.2239  0.4776 -0.2162
   26MOL0     H 3521   6.068   6.788   1.055 -0.9015 -1.9550 -1.0977
   26MOL0     H 3522   6.000   6.770   0.892 -1.1195  1.3543 -0.6478
   26MOL0     H 3523   5.822   6.809   1.043 -0.4183 -1.4608 -3.3457
   26MOL0     H 3524   5.900   6.951   1.111  4.0039 -0.8721 -0.1612
   26MOL0     H 3525   5.831   7.087   0.909  1.7216  0.9091 -1.0910
   26MOL0     H 3526   5.803   6.941   0.814  0.8555  1.1754  0.6283
   26MOL0     H 3527   5.624   6.867   0.978  0.5802  0.7482  1.1088
   26MOL0     H 3528   5.633   7.021   1.054  1.3568 -1.0026  0.8878
   26MOL0     H 3529   5.463   6.972   0.859 -0.9041  1.8134 -0.6504
   26MOL0     H 3530   5.595   7.009   0.754 -0.3605  0.7900 -1.0313
   26MOL0     H 3531   5.455   7.186   0.970  1.3427 -1.9890  0.7095
   26MOL0     H 3532   5.609   7.231   0.907  0.0175  2.1301 -0.1251
   26MOL0     H 3533   5.364   7.291   0.776  0.6052 -0.1188  0.0816
   26MOL0     H 3534   5.439   7.172   0.679 -2.4095  0.5022 -0.1663
   26MOL0     H 3535   5.505   7.411   0.621 -0.8559 -1.8431 -2.9252
   26MOL0     H 3536   5.579   7.428   0.779  0.2611 -1.4363  1.3990
   26MOL0     H 3537   5.816   7.399   0.808  2.6012 -1.4960  0.5567
   26MOL0     H 3538   6.062   7.144   0.769  1.6168  1.1524  5.2608
   26MOL0     H 3539   6.040   7.297   0.834  0.8090 -4.8969  2.2662
   26MOL0     H 3540   6.045   7.367   0.570 -0.6511 -2.5496 -1.9467
   26MOL0     H 3541   6.199   7.367   0.672 -0.7095  0.6212 -1.1608
   26MOL0     H 3542   6.250   7.140   0.586  1.6477  1.0451 -0.5301
   26MOL0     H 3543   6.096   7.140   0.496  0.6842  1.3877 -3.9047
   26MOL0     H 3544   6.309   7.182   0.375 -3.2406 -3.3019  2.1226
   26MOL0     H 3545   6.172   7.289   0.342 -0.7677 -0.7128  0.5020
   26MOL0     H 3546   6.424   7.602   0.510  1.4979  0.6262 -0.5275
   26MOL0     H 3547   6.776   7.702   0.611 -0.6768  1.1504 -0.8801
   26MOL0     H 3548   6.660   7.696   0.733 -0.6427 -0.8384  0.0205
   26MOL0     H 3549   6.615   7.751   0.565  0.5087  0.0558 -1.0447
   26MOL0     H 3550   6.894   7.276   1.001 -0.7426 -1.0636 -2.8238
   26MOL0     H 3551   7.112   7.290   1.139  3.4503  0.1306 -0.3200
   26MOL0     H 3552   7.485   7.207   0.948 -5.5082  0.1873 -0.3028
   26MOL0     H 3553   7.491   7.385   0.930  3.2355 -0.9813 -1.4344
   26MOL0     H 3554   7.572   7.418   1.154  2.3018  0.5728 -1.4303
   26MOL0     H 3555   7.571   7.253   1.194 -1.0852  0.1452 -0.6511
   26MOL0     H 3556   7.733   7.334   0.935  3.3805 -1.1353 -0.8379
   26MOL0     H 3557   7.729   7.183   1.021  1.6743 -0.0171 -0.3399
   26MOL0     H 3558   7.822   7.273   1.215  2.7582  1.2227  0.7407
   26MOL0     H 3559   7.814   7.444   1.160  2.0379  0.7598 -1.1604
   26MOL0     H 3560   7.970   7.214   1.054  0.9492 -0.7003  1.2426
   26MOL0     H 3561   7.951   7.361   0.959 -0.0699 -0.2713  0.0451
   26MOL0     H 3562   8.067   7.349   1.244 -0.7897  0.1517  0.1972
   26MOL0     H 3563   8.091   7.483   1.126  0.1813 -0.6043 -2.0200
   26MOL0     H 3564   8.219   7.334   0.994 -1.1811  1.0225 -0.4293
   26MOL0     H 3565   8.222   7.216   1.124  0.6485 -0.2086 -2.2678
   26MOL0     H 3566   8.304   7.399   1.284  2.1844  0.1389  0.4488
   26MOL0     H 3567   8.307   7.514   1.143  4.0126  0.1773 -1.4367
   26MOL0     H 3568   7.333   7.310   0.775 -0.0265  1.4555 -0.9273
   26MOL0     H 3569   7.130   7.294   0.641 -1.6122  2.1400 -0.3634
   26MOL0     H 3570   6.701   7.206   0.618 -0.5758 -0.3143 -0.8185
   26MOL0     H 3571   6.488   7.173   0.513 -1.3453 -0.1714  0.1260
   26MOL0     H 3572   6.225   6.734   0.893 -1.7313  1.7699  1.0434
   26MOL0     H 3573   6.454   6.694   0.825 -1.3970  0.7401 -3.4033
   26MOL0     H 3574   6.837   6.844   0.647 -1.5595 -3.0776  2.7206
   26MOL0     H 3575   7.042   6.888   0.565 -1.3911 -2.2284  0.3457
   26MOL0     H 3576   7.451   7.006   0.662 -0.0525  0.4158  0.4236
   26MOL0     H 3577   7.357   7.055   0.813 -0.5195 -1.0140  0.9918
   26MOL0     H 3578   7.385   6.810   0.883 -0.3090 -1.7899 -1.2685
   26MOL0     H 3579   7.522   6.918   0.889  1.5833 -0.6237 -0.3534
   26MOL0     H 3580   7.542   6.681   0.772  0.4667 -0.1852 -2.5805
   26MOL0     H 3581   7.476   6.759   0.633 -0.1993  1.0908  0.3279
   26MOL0     H 3582   7.736   6.815   0.785 -0.6341 -0.7767  0.2463
   26MOL0     H 3583   7.678   6.913   0.650 -1.8313  0.2906  0.8048
   26MOL0     H 3584   7.798   6.600   0.414  1.1087 -3.0095  1.7191
   26MOL0     H 3585   7.203   6.953   0.949 -0.0465  1.0405 -0.3885
   26MOL0     H 3586   6.995   6.871   1.147  1.3540  0.8003  1.4921
   26MOL0     H 3587   7.063   7.031   1.108  2.4140 -2.3331 -2.7281
   26MOL0     H 3588   6.886   7.009   1.115 -0.0655  1.1083  0.4773
   27MOL0     O 3589   7.758   5.352  10.271 -0.9479  0.1379 -0.4388
   27MOL0     C 3590   7.739   5.304  10.158 -0.6305 -0.0459 -0.0436
   27MOL0     O 3591   7.835   5.310  10.061 -0.1917  0.0541  0.3080
   27MOL0     C 3592   7.960   5.365  10.085  0.8316  0.2639 -0.2632
   27MOL0     C 3593   8.060   5.303  10.008 -0.1078  0.6153  1.5657
   27MOL0     C 3594   8.195   5.344  10.011 -0.5670  0.1832 -0.3621
   27MOL0     C 3595   8.233   5.450  10.094 -0.8265  0.5269  0.3469
   27MOL0     O 3596   8.363   5.502  10.109  0.1522 -0.0829  0.4448
   27MOL0     C 3597   8.466   5.420  10.051  1.3758  0.2879 -0.2285
   27MOL0     C 3598   8.498   5.505   9.920 -0.6495  0.7396  0.5801
   27MOL0     C 3599   8.647   5.476   9.884 -0.0547 -0.1000 -0.4995
   27MOL0     C 3600   8.689   5.573   9.771 -1.0683 -0.0955 -1.2219
   27MOL0     C 3601   8.815   5.513   9.710 -0.7913  0.6116  0.5447
   27MOL0     C 3602   8.876   5.606   9.604  0.5814  1.3413 -0.1391
   27MOL0     C 3603   8.960   5.521   9.509 -0.3932 -0.0228 -0.2251
   27MOL0     C 3604   9.104   5.490   9.564  0.3608 -0.4665 -0.0193
   27MOL0     N 3605   9.181   5.394   9.485 -0.6275  0.0702 -0.9577
   27MOL0     C 3606   9.274   5.417   9.392  0.0813  0.2624  0.1632
   27MOL0     C 3607   9.293   5.302   9.332  0.4490  0.2836  1.1133
   27MOL0     C 3608   9.391   5.268   9.218  0.0647 -0.1982  0.9117
   27MOL0     C 3609   9.523   5.225   9.269  0.3671  0.5277 -0.1205
   27MOL0     C 3610   9.615   5.154   9.163  0.3125 -0.4177  0.4927
   27MOL0     C 3611   9.748   5.114   9.225  0.0921  0.6361 -0.0033
   27MOL0     O 3612   9.850   5.205   9.202 -0.3476  0.3433  0.3222
   27MOL0     C 3613   9.930   5.237   9.302  0.5222  0.4465 -0.6764
   27MOL0     C 3614  10.057   5.187   9.296 -0.8738  0.1434 -0.3990
   27MOL0     C 3615  10.142   5.190   9.409  0.6960 -0.3240  0.6893
   27MOL0     C 3616  10.284   5.139   9.389  0.6394  0.1603 -0.2998
   27MOL0     C 3617  10.086   5.222   9.538 -0.4539 -0.4333 -0.4006
   27MOL0     C 3618  10.162   5.185   9.670  0.2774 -0.2535 -0.9074
   27MOL0     O 3619  10.132   5.269   9.772  0.4461  0.5846  0.1065
   27MOL0     C 3620  10.202   5.248   9.888  0.5294  0.0053  0.2027
   27MOL0     C 3621  10.244   5.368   9.948 -0.6202  0.4364  0.7549
   27MOL0     C 3622  10.309   5.368  10.077 -0.0573 -0.0620  0.5073
   27MOL0     C 3623  10.317   5.242  10.144  0.8063 -1.0300 -0.6961
   27MOL0     O 3624  10.386   5.223  10.259  0.1539  0.3488  0.1704
   27MOL0     C 3625  10.338   5.292  10.373  0.1862  0.7073  0.5691
   27MOL0     C 3626  10.435   5.298  10.495  0.0126  0.5515 -0.0212
   27MOL0     C 3627  10.569   5.346  10.446 -0.0069  0.4025  0.6659
   27MOL0     C 3628  10.637   5.449  10.549 -0.8837 -0.8277 -0.4929
   27MOL0     C 3629  10.777   5.503  10.509  0.2091 -0.1833 -0.9888
   27MOL0     C 3630  10.754   5.605  10.396 -0.3271  0.3511 -0.1757
   27MOL0     C 3631  10.692   5.739  10.445  0.1723  0.7981  0.8858
   27MOL0     C 3632  10.622   5.833  10.335 -0.0046  0.4066  0.0828
   27MOL0    Cl 3633  10.508   5.737  10.242  0.0404 -0.0342 -0.1661
   27MOL0     C 3634  10.246   5.130  10.103  0.5360 -0.4040  0.4424
   27MOL0     C 3635  10.195   5.131   9.968  0.5539  0.3193  0.2320
   27MOL0     O 3636  10.227   5.085   9.674  0.1214 -0.3496 -0.4444
   27MOL0     C 3637   9.956   5.283   9.544  0.8835 -0.2268  0.2949
   27MOL0     C 3638   9.879   5.284   9.428  0.1286 -0.5966  0.7400
   27MOL0     N 3639   9.212   5.210   9.393 -0.1264  0.8389 -0.0084
   27MOL0     N 3640   9.158   5.257   9.498  0.4860 -0.2397  0.8928
   27MOL0     C 3641   8.129   5.511  10.175  0.4281  0.7456  0.0197
   27MOL0     C 3642   7.997   5.473  10.169  0.6237 -0.1544 -0.3026
   27MOL0     C 3643   7.614   5.247  10.105 -0.4693 -0.2913  0.4581
   27MOL0     C 3644   7.591   5.274   9.965  0.1637 -0.0688  0.1625
   27MOL0     C 3645   7.481   5.221   9.904 -0.3753  0.1161 -0.4701
   27MOL0     C 3646   7.400   5.140   9.984 -0.0782  0.6570 -0.1520
   27MOL0     O 3647   7.279   5.084   9.929 -0.3161  0.7816  0.0181
   27MOL0     C 3648   7.169   5.178   9.915 -0.5553 -0.6891 -0.1697
   27MOL0     C 3649   7.073   5.192  10.029 -0.0348  1.1235 -0.4230
   27MOL0     C 3650   6.996   5.326  10.028 -0.0011 -0.1405 -0.5046
   27MOL0     C 3651   6.876   5.304  10.134  0.3844  0.3073 -0.2518
   27MOL0     C 3652   6.826   5.440  10.167 -0.4403  1.0839 -0.3240
   27MOL0     C 3653   6.771   5.545  10.197  0.1289  0.1609  0.6543
   27MOL0     C 3654   7.419   5.121  10.123  0.9029 -0.3774  0.7390
   27MOL0     C 3655   7.530   5.169  10.184  0.2444 -0.3492 -0.5587
   27MOL0     C 3656   7.552   5.140  10.333  0.2662  0.1691  0.2053
   27MOL0     H 3657   8.033   5.219   9.945  0.6215  0.5469  1.3447
   27MOL0     H 3658   8.270   5.299   9.949  0.9961  1.3014  0.6386
   27MOL0     H 3659   8.445   5.314  10.037 -1.5680  1.0460 -2.6070
   27MOL0     H 3660   8.551   5.433  10.118 -0.2492  0.4972  1.9221
   27MOL0     H 3661   8.433   5.486   9.834 -0.0417  1.9224 -0.1758
   27MOL0     H 3662   8.483   5.610   9.948 -0.1067  0.1511  3.3756
   27MOL0     H 3663   8.709   5.499   9.971 -0.3354 -2.6485  0.4477
   27MOL0     H 3664   8.657   5.369   9.866 -1.3198 -0.7043  1.9702
   27MOL0     H 3665   8.605   5.580   9.702 -0.3103 -1.4607 -2.3290
   27MOL0     H 3666   8.701   5.672   9.815  0.8159 -1.1080  0.7634
   27MOL0     H 3667   8.789   5.424   9.653  1.6006  0.1958 -0.0005
   27MOL0     H 3668   8.895   5.492   9.781 -1.2107  2.9326  1.8109
   27MOL0     H 3669   8.790   5.650   9.554  0.7205  0.9535 -0.7397
   27MOL0     H 3670   8.940   5.677   9.656  1.4384 -1.8347  3.6656
   27MOL0     H 3671   8.977   5.573   9.414 -0.7838 -0.5338 -0.5805
   27MOL0     H 3672   8.906   5.429   9.483  1.6229 -1.5740  0.8078
   27MOL0     H 3673   9.155   5.585   9.580 -1.3900  0.5982 -0.4989
   27MOL0     H 3674   9.093   5.441   9.661  0.5424 -3.4015 -1.3645
   27MOL0     H 3675   9.313   5.518   9.387 -0.2118  0.4002  0.6043
   27MOL0     H 3676   9.405   5.353   9.151  1.8444 -0.9555  0.2728
   27MOL0     H 3677   9.357   5.180   9.163 -4.8522  2.2310 -0.4959
   27MOL0     H 3678   9.581   5.304   9.317  0.8198  0.1703 -0.0741
   27MOL0     H 3679   9.507   5.162   9.357 -0.2599  0.1341 -0.5122
   27MOL0     H 3680   9.560   5.062   9.143  0.7572 -1.2638  2.9025
   27MOL0     H 3681   9.632   5.216   9.074  1.0554 -2.5825 -0.9694
   27MOL0     H 3682   9.732   5.080   9.328  0.7380 -0.4802 -0.2474
   27MOL0     H 3683   9.785   5.025   9.173  0.1409  2.0093 -2.4564
   27MOL0     H 3684  10.087   5.140   9.203 -2.9203 -2.1963 -0.0021
   27MOL0     H 3685  10.335   5.128   9.485  1.0726  0.7941 -0.4494
   27MOL0     H 3686  10.340   5.204   9.321  1.0686  1.0286  0.8416
   27MOL0     H 3687  10.286   5.038   9.345 -0.2488 -0.2901  0.6513
   27MOL0     H 3688  10.249   5.460   9.891 -1.1920  0.8251  1.3160
   27MOL0     H 3689  10.334   5.463  10.124  2.6247 -1.3376  1.8849
   27MOL0     H 3690  10.326   5.399  10.356 -2.4647  0.9718  3.3298
   27MOL0     H 3691  10.240   5.253  10.403 -0.3697  1.7508  0.1347
   27MOL0     H 3692  10.384   5.362  10.567 -0.6300 -2.2998  2.2917
   27MOL0     H 3693  10.436   5.198  10.539 -2.8144  0.8037  0.8270
   27MOL0     H 3694  10.549   5.388  10.347 -0.6896 -1.3712 -0.0081
   27MOL0     H 3695  10.637   5.262  10.427  1.0358  1.1108  1.2290
   27MOL0     H 3696  10.664   5.392  10.638 -0.8289  1.2006  0.8604
   27MOL0     H 3697  10.565   5.522  10.587  0.1935  0.5295 -0.9579
   27MOL0     H 3698  10.829   5.551  10.592 -0.4617  1.6558 -1.5680
   27MOL0     H 3699  10.824   5.413  10.470  2.4327 -0.4207  1.9393
   27MOL0     H 3700  10.694   5.560  10.317 -0.1094  1.9327 -1.2734
   27MOL0     H 3701  10.846   5.620  10.338  0.7574 -2.3343  0.6810
   27MOL0     H 3702  10.774   5.796  10.490 -1.3947  2.6008  1.5908
   27MOL0     H 3703  10.616   5.726  10.523  0.5145 -1.2023  0.9344
   27MOL0     H 3704  10.700   5.859  10.263  0.9634 -1.6362  0.3364
   27MOL0     H 3705  10.576   5.918  10.386  4.4539  2.7494  0.7083
   27MOL0     H 3706  10.240   5.040  10.163  3.4095 -1.1025 -0.1545
   27MOL0     H 3707  10.139   5.049   9.924  1.3725  0.2183 -0.6646
   27MOL0     H 3708   9.911   5.316   9.637  1.0923 -0.1461  0.3651
   27MOL0     H 3709   9.781   5.329   9.437  0.8480  1.8054 -1.9792
   27MOL0     H 3710   8.149   5.601  10.233  0.6029  0.7921 -0.1113
   27MOL0     H 3711   7.919   5.520  10.228 -1.4899 -3.0126 -0.6182
   27MOL0     H 3712   7.664   5.326   9.903 -0.0170 -0.3110 -0.2597
   27MOL0     H 3713   7.440   5.236   9.805  1.7782  0.7870 -1.3063
   27MOL0     H 3714   7.198   5.280   9.888  0.2296 -0.9977 -0.5136
   27MOL0     H 3715   7.113   5.135   9.832 -0.9898 -0.4893  0.0170
   27MOL0     H 3716   7.128   5.181  10.123 -0.8126  3.3098  0.3464
   27MOL0     H 3717   7.004   5.108  10.039  3.0787 -1.6162 -0.3179
   27MOL0     H 3718   7.058   5.411  10.058 -2.4655  1.1971  1.0655
   27MOL0     H 3719   6.945   5.345   9.933 -2.5685  2.9128  1.3322
   27MOL0     H 3720   6.920   5.261  10.224 -1.6360 -0.5069  0.3954
   27MOL0     H 3721   6.794   5.239  10.102 -1.0216  0.8533  2.0249
   27MOL0     H 3722   6.723   5.639  10.215 -1.7321  0.3631 -3.9858
   27MOL0     H 3723   7.343   5.063  10.174  0.8166  0.7375  1.9306
   27MOL0     H 3724   7.565   5.233  10.390 -0.0273  0.9816 -1.0150
   27MOL0     H 3725   7.468   5.090  10.382 -0.1300 -0.4100 -1.0164
   27MOL0     H 3726   7.642   5.079  10.342  0.6577  0.5127 -1.1584
   28MOL0     O 3727   7.738   6.504   1.770  0.1932  0.1108 -0.0786
   28MOL0     C 3728   7.626   6.474   1.803 -0.1534  1.0658  0.8911
   28MOL0     O 3729   7.588   6.351   1.859 -0.2472 -0.0840 -0.1343
   28MOL0     C 3730   7.688   6.289   1.929  0.2027 -0.7530 -0.6948
   28MOL0     C 3731   7.652   6.248   2.060  0.6990  0.2362 -0.5118
   28MOL0     C 3732   7.740   6.170   2.136 -0.0560  0.0370 -0.1776
   28MOL0     C 3733   7.864   6.132   2.094  1.0175  1.1546 -0.0923
   28MOL0     O 3734   7.941   6.061   2.181  0.0364 -0.3739  0.3115
   28MOL0     C 3735   8.082   6.054   2.159  0.6014 -0.5569 -0.1990
   28MOL0     C 3736   8.160   5.991   2.272 -0.1495 -0.2235 -0.1632
   28MOL0     C 3737   8.306   5.982   2.223  0.2768  0.0012  0.4309
   28MOL0     C 3738   8.396   5.936   2.343  0.0110  0.4239  0.4014
   28MOL0     C 3739   8.544   5.928   2.292  0.1932  0.6269 -0.1572
   28MOL0     C 3740   8.624   5.872   2.409  0.7893 -0.2209 -0.0758
   28MOL0     C 3741   8.756   5.835   2.369 -0.9321  0.2653  0.0342
   28MOL0     C 3742   8.865   5.951   2.375 -0.2873 -0.6902 -0.0946
   28MOL0     N 3743   9.003   5.893   2.388  0.6393 -0.2572 -0.5609
   28MOL0     C 3744   9.101   5.882   2.293 -0.0307 -0.2692  0.0913
   28MOL0     C 3745   9.218   5.865   2.355  0.9674 -0.0679  0.2273
   28MOL0     C 3746   9.353   5.857   2.285 -0.2665 -0.3962 -0.0279
   28MOL0     C 3747   9.431   5.989   2.329 -0.0744 -0.6185 -0.1855
   28MOL0     C 3748   9.543   6.013   2.239 -0.2766  0.4227  0.5442
   28MOL0     C 3749   9.648   5.900   2.238  0.6105 -0.3709  0.4713
   28MOL0     O 3750   9.750   5.935   2.153  0.2774 -0.5133  0.4022
   28MOL0     C 3751   9.868   5.871   2.157 -0.0283 -0.8777  0.0702
   28MOL0     C 3752   9.972   5.919   2.076  0.1386 -0.2498 -0.4648
   28MOL0     C 3753  10.109   5.875   2.088 -0.1541  0.0394  0.2846
   28MOL0     C 3754  10.209   5.934   1.997 -0.0128 -0.4445 -0.2210
   28MOL0     C 3755  10.139   5.770   2.183  0.8593 -0.4908 -0.7625
   28MOL0     C 3756  10.269   5.712   2.202  0.2566  0.5087  0.3735
   28MOL0     O 3757  10.288   5.636   2.316  0.0163 -0.2942 -0.4946
   28MOL0     C 3758  10.402   5.569   2.343 -0.2913  0.0860 -0.0674
   28MOL0     C 3759  10.394   5.473   2.449  1.0323  0.1244 -0.0301
   28MOL0     C 3760  10.505   5.404   2.505 -0.1114 -0.5221  0.4462
   28MOL0     C 3761  10.633   5.432   2.451  0.2307  0.7536  0.2050
   28MOL0     O 3762  10.731   5.362   2.506  0.1662  0.6406  0.0080
   28MOL0     C 3763  10.863   5.425   2.500 -0.0857  0.2439  0.9977
   28MOL0     C 3764  10.879   5.525   2.617 -0.0310  0.5291 -0.7772
   28MOL0     C 3765  11.024   5.551   2.657 -0.1401  0.1312  0.6260
   28MOL0     C 3766  11.092   5.632   2.543  0.0176  0.7145 -0.8419
   28MOL0     C 3767  11.231   5.691   2.565 -0.6562  0.5950 -0.3859
   28MOL0     C 3768  11.277   5.751   2.440 -0.9485 -0.8495 -0.5998
   28MOL0     C 3769  11.416   5.807   2.457  0.1164  1.1011 -0.2301
   28MOL0     C 3770  11.517   5.706   2.407  0.0675 -0.0036 -0.3592
   28MOL0    Cl 3771  11.671   5.774   2.466 -0.1368 -0.6401  0.3372
   28MOL0     C 3772  10.643   5.532   2.353 -0.4303 -0.6207  0.4268
   28MOL0     C 3773  10.531   5.600   2.303 -0.1168  0.6059  0.1346
   28MOL0     O 3774  10.352   5.723   2.117  0.3776  0.0089  1.0289
   28MOL0     C 3775  10.033   5.720   2.258 -0.5119 -0.0001 -0.1527
   28MOL0     C 3776   9.901   5.769   2.249  0.1154 -0.7574  0.9056
   28MOL0     N 3777   9.194   5.862   2.491  0.5618 -0.7891  0.0561
   28MOL0     N 3778   9.062   5.869   2.503 -0.5224 -0.6205  0.4281
   28MOL0     C 3779   7.902   6.174   1.962  0.5151 -1.3413  0.6243
   28MOL0     C 3780   7.810   6.248   1.877 -0.6778  0.5733  0.8551
   28MOL0     C 3781   7.506   6.550   1.762 -0.7142 -1.0204 -0.1700
   28MOL0     C 3782   7.381   6.490   1.722  0.0768  0.0795  0.8497
   28MOL0     C 3783   7.274   6.571   1.690 -0.0885 -1.0693 -1.1994
   28MOL0     C 3784   7.281   6.708   1.681 -0.0433 -0.4809  0.3843
   28MOL0     O 3785   7.172   6.785   1.638 -0.4184  0.3098 -0.1229
   28MOL0     C 3786   7.044   6.735   1.622 -0.0920 -0.0054 -0.8718
   28MOL0     C 3787   6.947   6.850   1.607 -0.0354  0.1411  0.6201
   28MOL0     C 3788   6.958   6.968   1.710 -0.0003  0.2370  0.7398
   28MOL0     C 3789   6.825   7.051   1.720 -0.5276 -0.0741  0.0334
   28MOL0     C 3790   6.838   7.140   1.834 -0.3489 -0.0334  0.3785
   28MOL0     C 3791   6.837   7.214   1.929  0.4543 -0.2756 -0.0360
   28MOL0     C 3792   7.400   6.767   1.721  0.9699 -0.7592  0.1585
   28MOL0     C 3793   7.517   6.693   1.760 -0.3769  0.6270  0.2079
   28MOL0     C 3794   7.634   6.777   1.806 -0.7907  0.7548  0.4942
   28MOL0     H 3795   7.548   6.260   2.090  0.0015  1.1121 -3.0278
   28MOL0     H 3796   7.717   6.143   2.239 -4.8010 -2.1864 -1.5196
   28MOL0     H 3797   8.123   6.155   2.158 -0.3070 -0.0389  3.0806
   28MOL0     H 3798   8.108   5.996   2.071 -3.0928  0.7765 -2.4045
   28MOL0     H 3799   8.152   6.049   2.364  1.4302  0.1303 -0.2161
   28MOL0     H 3800   8.110   5.896   2.290  0.2795 -0.0263  2.3382
   28MOL0     H 3801   8.310   5.918   2.135 -1.2824 -1.5207  1.4023
   28MOL0     H 3802   8.351   6.076   2.188  0.6226 -0.6984 -1.0837
   28MOL0     H 3803   8.402   6.023   2.409  0.8610  0.8081 -0.1659
   28MOL0     H 3804   8.365   5.851   2.404  1.0697  2.1195  3.5503
   28MOL0     H 3805   8.575   6.030   2.265  1.5910  1.2110  3.1412
   28MOL0     H 3806   8.551   5.864   2.203 -2.4612  2.1361 -1.5935
   28MOL0     H 3807   8.622   5.946   2.490  3.7987 -0.0771 -0.0449
   28MOL0     H 3808   8.579   5.782   2.452  3.0622 -1.2856  0.2132
   28MOL0     H 3809   8.752   5.787   2.270 -2.3145 -1.2786  0.7802
   28MOL0     H 3810   8.794   5.754   2.432  0.3046  0.9034  0.1310
   28MOL0     H 3811   8.846   6.014   2.288  0.7571  1.2934  1.0722
   28MOL0     H 3812   8.856   6.011   2.466 -0.8679 -0.9857  0.0507
   28MOL0     H 3813   9.096   5.906   2.187  1.7257  3.5887  0.7028
   28MOL0     H 3814   9.334   5.863   2.177 -0.9304  4.0188  0.1520
   28MOL0     H 3815   9.408   5.768   2.317  3.2596  1.6873  0.3104
   28MOL0     H 3816   9.375   6.081   2.318  0.8464  0.0304  0.3847
   28MOL0     H 3817   9.463   5.973   2.433 -0.1740  0.5915  0.0361
   28MOL0     H 3818   9.500   6.055   2.147  1.5716 -0.4036 -0.7521
   28MOL0     H 3819   9.590   6.101   2.284  1.0525 -0.1663  0.3396
   28MOL0     H 3820   9.684   5.892   2.341  0.1876 -0.6443  0.6017
   28MOL0     H 3821   9.595   5.809   2.208  1.8447 -0.3721 -2.0033
   28MOL0     H 3822   9.937   5.998   2.010  0.8145  2.0219  1.7531
   28MOL0     H 3823  10.160   5.994   1.919 -1.5989 -0.6128  0.5947
   28MOL0     H 3824  10.254   5.854   1.939 -1.2573 -0.1556 -1.6661
   28MOL0     H 3825  10.281   5.994   2.054 -0.4269 -1.1752  1.1124
   28MOL0     H 3826  10.293   5.457   2.486  1.8438  0.2194  2.3830
   28MOL0     H 3827  10.492   5.332   2.585  0.9026  0.8347  1.8680
   28MOL0     H 3828  10.927   5.339   2.521  1.2186  1.2638  1.3252
   28MOL0     H 3829  10.897   5.464   2.404 -2.0639 -1.2737 -0.4039
   28MOL0     H 3830  10.822   5.616   2.597  0.4812  0.8315 -0.8643
   28MOL0     H 3831  10.833   5.488   2.710  2.6336  0.0970  0.4564
   28MOL0     H 3832  11.081   5.459   2.676 -1.4481 -0.4754  1.8272
   28MOL0     H 3833  11.031   5.603   2.753  1.5783  0.0118  0.5971
   28MOL0     H 3834  11.025   5.718   2.529  2.9835  3.2204 -0.6759
   28MOL0     H 3835  11.081   5.571   2.453 -2.1935  0.8279 -0.7207
   28MOL0     H 3836  11.240   5.763   2.647 -0.7291 -0.3556  0.4768
   28MOL0     H 3837  11.298   5.609   2.592 -0.7985  0.7207  0.3568
   28MOL0     H 3838  11.218   5.836   2.406 -3.2051 -1.4580  1.5195
   28MOL0     H 3839  11.276   5.676   2.360  0.3104 -2.7383  1.0480
   28MOL0     H 3840  11.440   5.830   2.562  2.0386 -1.9922  0.1480
   28MOL0     H 3841  11.446   5.886   2.388 -0.9481  1.7979  0.0918
   28MOL0     H 3842  11.512   5.690   2.299 -0.0600 -0.2582 -0.3186
   28MOL0     H 3843  11.499   5.611   2.459  2.6254 -0.6378 -0.4831
   28MOL0     H 3844  10.732   5.573   2.307 -0.7413 -1.3645 -0.8901
   28MOL0     H 3845  10.552   5.692   2.249  0.4723 -0.8245 -2.2460
   28MOL0     H 3846  10.061   5.642   2.328  2.5373  0.5841 -0.5501
   28MOL0     H 3847   9.821   5.737   2.315 -1.0386 -0.1578 -0.1538
   28MOL0     H 3848   7.995   6.160   1.908  0.2286  1.1693 -0.6786
   28MOL0     H 3849   7.840   6.271   1.775 -0.0463 -1.3927  0.5738
   28MOL0     H 3850   7.371   6.382   1.721 -1.5361  0.1109  3.6189
   28MOL0     H 3851   7.180   6.525   1.662 -2.0274  0.7764  1.7627
   28MOL0     H 3852   7.042   6.666   1.537 -0.8553  0.3334 -1.1304
   28MOL0     H 3853   7.012   6.682   1.713 -0.2180 -0.2809 -1.0757
   28MOL0     H 3854   6.846   6.808   1.603 -0.2797  0.4786  2.2862
   28MOL0     H 3855   6.982   6.891   1.512  1.3009  2.4048  1.9980
   28MOL0     H 3856   6.990   6.911   1.798  2.0877 -1.6385 -1.0870
   28MOL0     H 3857   7.042   7.031   1.677  0.2736 -1.6531 -2.6862
   28MOL0     H 3858   6.734   6.990   1.725 -1.8407  1.7160 -0.6920
   28MOL0     H 3859   6.815   7.115   1.631 -1.3983 -0.6252 -0.2801
   28MOL0     H 3860   6.822   7.275   2.015  0.3330 -0.3710  0.0098
   28MOL0     H 3861   7.402   6.875   1.711 -0.4595 -0.5366  1.8008
   28MOL0     H 3862   7.736   6.736   1.800 -0.8808  0.4417  1.0447
   28MOL0     H 3863   7.634   6.862   1.737  0.3207  0.2723 -0.1415
   28MOL0     H 3864   7.623   6.806   1.910  1.0349 -1.7042  1.4983
   29MOL0     O 3865   0.465   2.918   3.472  0.0550  0.3686 -0.0539
   29MOL0     C 3866   0.439   2.998   3.560  0.7135 -0.4984 -0.0014
   29MOL0     O 3867   0.539   3.067   3.634  0.0580 -0.4260  0.1776
   29MOL0     C 3868   0.670   3.060   3.596  0.5993  1.3937  0.4266
   29MOL0     C 3869   0.768   3.060   3.692 -0.1310 -0.2542  1.1135
   29MOL0     C 3870   0.901   3.046   3.668 -1.1753 -0.5818 -0.2151
   29MOL0     C 3871   0.947   3.041   3.537  0.5421  0.7435 -0.8432
   29MOL0     O 3872   1.086   3.035   3.531  0.6831  0.4589 -0.0767
   29MOL0     C 3873   1.145   3.029   3.405 -0.1066 -0.5247  0.0174
   29MOL0     C 3874   1.296   3.003   3.429  0.2248  0.5152  0.0421
   29MOL0     C 3875   1.381   2.987   3.313  0.2146  0.5154 -0.1013
   29MOL0     C 3876   1.525   2.984   3.377 -0.0622  0.1179  0.4539
   29MOL0     C 3877   1.632   3.006   3.271  0.0221  0.3174  0.1832
   29MOL0     C 3878   1.631   2.891   3.165  0.1917  0.4223  0.4990
   29MOL0     C 3879   1.753   2.903   3.070  0.2832  0.0274 -0.2008
   29MOL0     C 3880   1.757   2.800   2.960  0.1796 -0.1008 -0.1842
   29MOL0     N 3881   1.874   2.823   2.878 -0.1328 -0.0481 -0.6746
   29MOL0     C 3882   1.870   2.827   2.743 -0.3796 -0.5747  0.5473
   29MOL0     C 3883   1.993   2.844   2.708  0.2133  0.3323  0.0784
   29MOL0     C 3884   2.031   2.869   2.565 -0.4217 -1.0163  0.7837
   29MOL0     C 3885   2.003   3.013   2.507 -0.3146  0.2163 -0.7844
   29MOL0     C 3886   2.006   3.022   2.357 -0.4762 -0.1399 -0.9067
   29MOL0     C 3887   2.050   3.156   2.301 -0.5854  0.3017 -0.3999
   29MOL0     O 3888   1.946   3.256   2.319 -0.2440  0.3174  0.2453
   29MOL0     C 3889   1.970   3.382   2.265  0.2922  0.0900  0.2877
   29MOL0     C 3890   1.877   3.482   2.274  0.0875  0.1446  0.0422
   29MOL0     C 3891   1.886   3.610   2.224  0.3260 -0.5395  0.6037
   29MOL0     C 3892   1.761   3.692   2.215 -0.5966 -0.2374 -0.7046
   29MOL0     C 3893   2.008   3.651   2.167 -0.2362  0.1941 -0.7618
   29MOL0     C 3894   2.041   3.781   2.103 -0.2351 -0.4162  0.8036
   29MOL0     O 3895   2.161   3.785   2.031  0.3663  0.5934 -0.6508
   29MOL0     C 3896   2.235   3.895   1.993  0.8547 -0.5222  0.8129
   29MOL0     C 3897   2.319   3.885   1.884  0.3635 -0.7287  0.8257
   29MOL0     C 3898   2.422   3.973   1.847  0.1357  0.4351  0.1192
   29MOL0     C 3899   2.433   4.091   1.917 -0.5206  0.7049 -0.5391
   29MOL0     O 3900   2.529   4.181   1.881 -0.0867 -0.5109  0.7090
   29MOL0     C 3901   2.598   4.247   1.988  0.2588 -0.8767  0.5236
   29MOL0     C 3902   2.732   4.297   1.930 -0.4142 -0.9034  0.5773
   29MOL0     C 3903   2.797   4.392   2.034  0.3388 -0.2048 -0.1111
   29MOL0     C 3904   2.910   4.481   1.986  0.4844  0.1766  0.3327
   29MOL0     C 3905   2.956   4.585   2.083 -0.3964  0.3702  0.4363
   29MOL0     C 3906   2.856   4.702   2.075 -0.2677  0.8000  0.0524
   29MOL0     C 3907   2.857   4.790   2.195  0.2387 -0.6325 -0.7395
   29MOL0     C 3908   2.718   4.852   2.200 -0.2606 -0.4137  0.2083
   29MOL0    Cl 3909   2.597   4.731   2.240  0.2856  0.0230  0.2396
   29MOL0     C 3910   2.340   4.113   2.022  1.1818  0.1414 -0.2726
   29MOL0     C 3911   2.243   4.013   2.061  0.2838  0.1627  0.5939
   29MOL0     O 3912   1.969   3.875   2.123  0.0419 -0.6119  0.0640
   29MOL0     C 3913   2.105   3.549   2.153  0.6296  0.0337 -0.7357
   29MOL0     C 3914   2.088   3.416   2.193 -0.2834  0.5422  0.6912
   29MOL0     N 3915   2.078   2.825   2.814  1.1060 -0.2671 -0.1913
   29MOL0     N 3916   2.006   2.812   2.920 -0.0165  0.7118  0.3090
   29MOL0     C 3917   0.855   3.027   3.438 -0.6500 -0.0821 -0.2609
   29MOL0     C 3918   0.720   3.035   3.465  0.7754  0.9876  0.1180
   29MOL0     C 3919   0.293   3.012   3.582  0.1460  0.4681  0.0953
   29MOL0     C 3920   0.203   2.933   3.506 -0.6794 -0.6394 -0.0523
   29MOL0     C 3921   0.063   2.936   3.517  0.6244  0.0532  0.4125
   29MOL0     C 3922  -0.002   3.028   3.604  0.3815  0.6744  0.4723
   29MOL0     O 3923  -0.141   3.034   3.614 -0.0453  0.2919 -0.6383
   29MOL0     C 3924  -0.236   2.943   3.547  0.1083 -0.1949 -0.1171
   29MOL0     C 3925  -0.299   3.007   3.426  0.1125 -1.1123  0.0768
   29MOL0     C 3926  -0.382   2.913   3.331  0.5803  0.0805 -0.6859
   29MOL0     C 3927  -0.536   2.912   3.365 -1.0595  0.5837 -0.2040
   29MOL0     C 3928  -0.624   2.868   3.251  0.5424 -0.4452 -0.2377
   29MOL0     C 3929  -0.703   2.859   3.157  0.0355  0.0381 -0.0843
   29MOL0     C 3930   0.087   3.109   3.686  0.0392  0.6785 -0.7009
   29MOL0     C 3931   0.229   3.103   3.676 -0.8901  1.4013  0.5335
   29MOL0     C 3932   0.307   3.205   3.760 -0.3587  0.3960  0.0014
   29MOL0     H 3933   0.739   3.071   3.796  0.7508 -3.2638  1.7466
   29MOL0     H 3934   0.965   3.049   3.755 -2.7214  0.1865  0.9557
   29MOL0     H 3935   1.137   3.131   3.366  0.5535  0.6123  2.5931
   29MOL0     H 3936   1.095   2.956   3.341 -0.9211 -0.4441  0.5384
   29MOL0     H 3937   1.335   3.079   3.498  2.2469  0.6062 -1.1546
   29MOL0     H 3938   1.300   2.913   3.491 -1.1595 -0.8425 -1.7337
   29MOL0     H 3939   1.361   2.890   3.266 -0.8494  0.1559  1.0301
   29MOL0     H 3940   1.361   3.068   3.243 -1.9516 -0.8366 -1.1791
   29MOL0     H 3941   1.534   3.069   3.446 -0.9221  0.7373 -0.1722
   29MOL0     H 3942   1.537   2.892   3.434  0.4612  0.3128  0.6695
   29MOL0     H 3943   1.728   3.001   3.324 -0.9607  0.4531  2.0721
   29MOL0     H 3944   1.617   3.101   3.220 -1.9322  0.8812  1.6945
   29MOL0     H 3945   1.625   2.796   3.219  0.4738  1.6577  2.8286
   29MOL0     H 3946   1.536   2.894   3.110  0.1502  0.7601  0.5923
   29MOL0     H 3947   1.847   2.888   3.124  1.4776 -0.8080 -2.3981
   29MOL0     H 3948   1.760   2.999   3.018 -0.8041 -2.3109 -5.2750
   29MOL0     H 3949   1.763   2.700   3.005  0.4432  0.9949  2.4305
   29MOL0     H 3950   1.663   2.813   2.906  0.3098  0.2716 -0.3225
   29MOL0     H 3951   1.783   2.831   2.677 -0.2646  0.5674  0.4453
   29MOL0     H 3952   1.981   2.807   2.490  0.9047  1.3770 -2.3545
   29MOL0     H 3953   2.136   2.842   2.547  0.2597  2.2455 -0.9285
   29MOL0     H 3954   1.911   3.057   2.548  0.9699  1.2594  1.1650
   29MOL0     H 3955   2.074   3.073   2.565 -0.8684 -0.3068  0.4647
   29MOL0     H 3956   2.074   2.945   2.317  1.3892  1.5040 -1.0623
   29MOL0     H 3957   1.904   3.007   2.321 -0.4678  1.2478 -1.5799
   29MOL0     H 3958   2.138   3.189   2.356 -0.8458 -1.2220  1.0476
   29MOL0     H 3959   2.065   3.134   2.195  2.8859 -3.1540  0.5802
   29MOL0     H 3960   1.788   3.444   2.322 -0.8789  0.4018 -1.4986
   29MOL0     H 3961   1.763   3.785   2.273  1.4360 -0.0411 -1.0029
   29MOL0     H 3962   1.678   3.633   2.254  0.9524 -0.7606  2.0049
   29MOL0     H 3963   1.740   3.721   2.111  0.6690 -0.5567 -1.0593
   29MOL0     H 3964   2.307   3.789   1.834 -1.9683  1.2228 -2.7819
   29MOL0     H 3965   2.496   3.962   1.769 -0.4846 -1.7637 -0.2205
   29MOL0     H 3966   2.530   4.325   2.021 -2.6561 -3.8770  2.2881
   29MOL0     H 3967   2.617   4.194   2.082  0.2053 -1.3610  0.2676
   29MOL0     H 3968   2.794   4.207   1.920 -1.1267 -1.3022 -0.5116
   29MOL0     H 3969   2.729   4.337   1.828  0.6387 -2.3360 -0.0584
   29MOL0     H 3970   2.830   4.347   2.128  2.9773  0.0116 -0.8673
   29MOL0     H 3971   2.717   4.462   2.059  0.5567  0.2760 -0.7170
   29MOL0     H 3972   2.875   4.522   1.890 -0.4607 -2.9125 -0.7739
   29MOL0     H 3973   2.992   4.412   1.964  1.4057  1.1526  0.6597
   29MOL0     H 3974   2.972   4.542   2.182 -1.9861 -0.3709  0.3934
   29MOL0     H 3975   3.053   4.622   2.048 -1.2422  2.0852 -0.2508
   29MOL0     H 3976   2.753   4.667   2.060 -0.9490  3.6132 -2.8297
   29MOL0     H 3977   2.885   4.756   1.985 -0.3405 -0.7940 -0.9704
   29MOL0     H 3978   2.941   4.860   2.186 -0.3513  0.0889 -0.6332
   29MOL0     H 3979   2.865   4.728   2.284  0.4287 -0.6065 -0.7383
   29MOL0     H 3980   2.689   4.890   2.101 -3.7394 -1.1349  0.8045
   29MOL0     H 3981   2.708   4.927   2.278  0.7279 -0.6341  0.5683
   29MOL0     H 3982   2.340   4.206   2.080 -0.5355  0.2642 -0.4128
   29MOL0     H 3983   2.191   4.030   2.155  2.9212 -0.1200  2.2001
   29MOL0     H 3984   2.206   3.561   2.115  2.2487 -1.9049  2.4653
   29MOL0     H 3985   2.170   3.350   2.168 -0.5972  0.3592  0.1433
   29MOL0     H 3986   0.879   3.011   3.333 -4.3916 -0.2325 -1.2550
   29MOL0     H 3987   0.651   3.020   3.382  1.1992  0.3419 -0.1271
   29MOL0     H 3988   0.243   2.864   3.433  1.4210  0.6974 -0.2725
   29MOL0     H 3989   0.013   2.865   3.452 -1.1011  1.8979 -0.3884
   29MOL0     H 3990  -0.185   2.853   3.511 -1.2998 -2.1657  2.4374
   29MOL0     H 3991  -0.316   2.915   3.616  0.6815  1.8217  1.4556
   29MOL0     H 3992  -0.220   3.040   3.358 -1.1314  1.1990 -0.3590
   29MOL0     H 3993  -0.356   3.090   3.467 -0.1644 -1.5780  0.6524
   29MOL0     H 3994  -0.368   2.951   3.229  4.1951 -1.2061 -0.8198
   29MOL0     H 3995  -0.350   2.809   3.346  0.4937  0.5516  4.0142
   29MOL0     H 3996  -0.566   3.011   3.399  1.6682  0.6915  2.2757
   29MOL0     H 3997  -0.559   2.864   3.460 -1.0904  1.0365  0.0202
   29MOL0     H 3998  -0.746   2.828   3.064  0.1351 -0.5303  0.0590
   29MOL0     H 3999   0.038   3.175   3.757  2.2351  1.0112  0.6002
   29MOL0     H 4000   0.325   3.297   3.703  0.1745  0.0321 -0.4287
   29MOL0     H 4001   0.255   3.235   3.851 -0.3687 -1.7237  0.7469
   29MOL0     H 4002   0.406   3.170   3.790  0.0846  1.5303 -0.0971
   30MOL0     O 4003   3.269   9.689   1.732 -0.5725 -0.2387 -0.2040
   30MOL0     C 4004   3.169   9.694   1.662  0.3282 -0.1309  0.4295
   30MOL0     O 4005   3.152   9.644   1.531 -0.2242 -0.4517 -0.7951
   30MOL0     C 4006   3.264   9.603   1.462 -0.5694 -0.6393 -0.4262
   30MOL0     C 4007   3.398   9.633   1.486 -0.8597  0.3252  0.0308
   30MOL0     C 4008   3.493   9.572   1.395 -0.2588 -0.3669  0.4505
   30MOL0     C 4009   3.461   9.491   1.292  0.1044  1.0552  0.1184
   30MOL0     O 4010   3.548   9.427   1.205  0.1948 -0.4381 -0.4115
   30MOL0     C 4011   3.676   9.391   1.249  0.5467 -0.0298 -0.5976
   30MOL0     C 4012   3.771   9.495   1.217  0.9865 -0.1380  0.1947
   30MOL0     C 4013   3.796   9.500   1.060  0.0170  1.2856  0.1347
   30MOL0     C 4014   3.864   9.634   1.023 -0.3790  0.3996 -0.2524
   30MOL0     C 4015   3.880   9.657   0.875 -0.4581  0.6933 -0.2399
   30MOL0     C 4016   4.000   9.565   0.828  0.0802 -0.3671  0.6068
   30MOL0     C 4017   4.010   9.559   0.668 -0.2787  0.4784 -0.1936
   30MOL0     C 4018   4.135   9.476   0.640 -0.6172 -0.0755  0.6269
   30MOL0     N 4019   4.248   9.569   0.639 -0.0430 -0.3934 -0.2290
   30MOL0     C 4020   4.316   9.604   0.523  0.3788 -0.1670 -0.5917
   30MOL0     C 4021   4.408   9.692   0.577  0.7551 -0.2011  0.0637
   30MOL0     C 4022   4.492   9.768   0.489 -0.6265  0.0646 -0.5976
   30MOL0     C 4023   4.447   9.919   0.474  0.1396  0.4993  0.2405
   30MOL0     C 4024   4.553  10.005   0.396 -0.5324  0.4621 -0.2538
   30MOL0     C 4025   4.549   9.975   0.254 -0.5047  0.3835 -0.1310
   30MOL0     O 4026   4.421  10.019   0.217  0.2385  0.6615  0.2977
   30MOL0     C 4027   4.359   9.963   0.105 -0.1800 -0.3732 -0.6534
   30MOL0     C 4028   4.225   9.931   0.120 -0.1308  0.0032  0.3609
   30MOL0     C 4029   4.150   9.895   0.004 -0.1055  0.0918 -0.6203
   30MOL0     C 4030   4.006   9.869   0.019 -0.0411  0.0233 -0.0530
   30MOL0     C 4031   4.213   9.876  -0.119 -0.4154 -0.2293  0.1796
   30MOL0     C 4032   4.143   9.812  -0.242 -0.6535 -0.4781 -0.6132
   30MOL0     O 4033   4.017   9.765  -0.229 -1.0099  0.1591  0.0739
   30MOL0     C 4034   3.943   9.719  -0.335 -1.0099  0.1886 -0.0431
   30MOL0     C 4035   3.804   9.733  -0.320 -1.0394 -0.1543 -0.2105
   30MOL0     C 4036   3.721   9.673  -0.406  0.6416  1.2339  0.1274
   30MOL0     C 4037   3.769   9.603  -0.520 -0.2834  0.4316  0.1156
   30MOL0     O 4038   3.693   9.555  -0.624 -0.1005 -0.2686  0.0665
   30MOL0     C 4039   3.559   9.599  -0.631 -0.0670 -0.0613 -0.6215
   30MOL0     C 4040   3.492   9.527  -0.753 -0.7965  0.4414 -0.7786
   30MOL0     C 4041   3.333   9.535  -0.742  0.3446  0.5965 -0.2793
   30MOL0     C 4042   3.269   9.436  -0.642 -0.5904 -0.3667 -0.3885
   30MOL0     C 4043   3.122   9.462  -0.626  0.2893  0.5952  0.1176
   30MOL0     C 4044   3.048   9.355  -0.541 -0.1730 -0.1406 -0.2420
   30MOL0     C 4045   3.112   9.330  -0.402  0.3705  0.8618  0.8400
   30MOL0     C 4046   3.035   9.228  -0.308 -0.1118 -0.0519  0.8033
   30MOL0    Cl 4047   2.864   9.272  -0.295  0.0636 -0.1097 -0.0914
   30MOL0     C 4048   3.905   9.590  -0.535  0.3423  0.1482  0.0122
   30MOL0     C 4049   3.995   9.642  -0.443  0.0547  0.0086  0.4329
   30MOL0     O 4050   4.200   9.814  -0.346  0.5283 -0.6251 -0.1752
   30MOL0     C 4051   4.349   9.904  -0.133 -0.0520 -0.2313  0.9250
   30MOL0     C 4052   4.426   9.951  -0.024 -0.1457  0.2638  0.0454
   30MOL0     N 4053   4.404   9.705   0.714  0.1918  0.3504  0.3672
   30MOL0     N 4054   4.309   9.625   0.744 -0.2671  0.3205 -0.6606
   30MOL0     C 4055   3.321   9.466   1.273 -0.8757  0.5264  0.3315
   30MOL0     C 4056   3.226   9.529   1.357 -0.0679 -0.2389 -0.5549
   30MOL0     C 4057   3.045   9.747   1.724  1.0247  0.0954 -0.4813
   30MOL0     C 4058   2.953   9.797   1.630 -0.2344  0.4427 -0.3781
   30MOL0     C 4059   2.834   9.843   1.674 -0.6677 -0.3420 -0.1442
   30MOL0     C 4060   2.800   9.852   1.808  0.5524  0.3526  0.2432
   30MOL0     O 4061   2.677   9.900   1.852 -0.0800 -0.1849  0.0902
   30MOL0     C 4062   2.569   9.941   1.760  0.5681 -0.3626 -0.9129
   30MOL0     C 4063   2.490   9.816   1.719 -0.5207 -0.9612 -0.5482
   30MOL0     C 4064   2.406   9.851   1.598  0.2570  0.1435  0.6829
   30MOL0     C 4065   2.350   9.729   1.539  0.7882  0.0942  0.3676
   30MOL0     C 4066   2.224   9.687   1.620  0.0532 -0.0328  0.0519
   30MOL0     C 4067   2.145   9.643   1.702 -0.5281 -0.5536 -0.4501
   30MOL0     C 4068   2.888   9.798   1.897 -0.1480  0.3504 -0.4871
   30MOL0     C 4069   3.010   9.738   1.864  0.6194 -0.6815  0.0129
   30MOL0     C 4070   3.089   9.660   1.966  0.1946  0.5724 -0.1346
   30MOL0     H 4071   3.418   9.708   1.562 -1.2271  0.8830 -0.4172
   30MOL0     H 4072   3.597   9.599   1.409 -0.7007  1.5525  0.3094
   30MOL0     H 4073   3.720   9.306   1.197  3.0885  0.9354 -0.1670
   30MOL0     H 4074   3.676   9.358   1.354  0.6885  2.5833  0.2836
   30MOL0     H 4075   3.725   9.590   1.247  0.4905 -1.5117  4.5812
   30MOL0     H 4076   3.861   9.476   1.276 -0.0783 -2.7774  1.1588
   30MOL0     H 4077   3.862   9.419   1.028 -1.5833 -0.1029  0.2326
   30MOL0     H 4078   3.700   9.481   1.011  0.5967 -4.6148  0.6565
   30MOL0     H 4079   3.807   9.720   1.060  0.5296  0.8758  0.0891
   30MOL0     H 4080   3.961   9.628   1.074 -0.9410 -0.8821  0.7177
   30MOL0     H 4081   3.916   9.757   0.849 -0.1252  0.4920 -0.5774
   30MOL0     H 4082   3.788   9.637   0.820 -0.3472 -1.0345  0.1239
   30MOL0     H 4083   4.091   9.600   0.878 -0.4538  2.6602 -0.3222
   30MOL0     H 4084   3.985   9.464   0.868 -0.0059 -0.6652 -0.1672
   30MOL0     H 4085   4.021   9.655   0.616  2.4244  0.0505 -0.5365
   30MOL0     H 4086   3.928   9.496   0.631 -0.7231 -0.4114  2.1296
   30MOL0     H 4087   4.148   9.388   0.704  2.0357 -1.3508 -1.4669
   30MOL0     H 4088   4.127   9.434   0.539  0.8361  0.0939  0.4314
   30MOL0     H 4089   4.311   9.578   0.417  0.7842  0.5700 -0.7968
   30MOL0     H 4090   4.496   9.729   0.387  2.5125 -1.4313 -0.0291
   30MOL0     H 4091   4.591   9.751   0.532 -0.6281  0.5443 -0.3983
   30MOL0     H 4092   4.349   9.929   0.426  0.0015 -0.9019  0.1884
   30MOL0     H 4093   4.425   9.956   0.575 -3.0273  2.0310 -0.8564
   30MOL0     H 4094   4.529  10.111   0.406  0.1940  0.5525  0.6981
   30MOL0     H 4095   4.652   9.982   0.435 -1.1373  0.5932  1.4568
   30MOL0     H 4096   4.627  10.027   0.198 -0.6488 -0.3335 -1.0466
   30MOL0     H 4097   4.553   9.868   0.232 -3.4207  0.5105 -1.8483
   30MOL0     H 4098   4.166   9.953   0.209 -1.5160 -0.2059 -0.4781
   30MOL0     H 4099   3.977   9.764   0.015 -1.9023  0.4661  0.9245
   30MOL0     H 4100   3.946   9.927  -0.052 -0.7551  2.2140  2.2221
   30MOL0     H 4101   3.974   9.909   0.115  1.3805  1.9357 -0.3265
   30MOL0     H 4102   3.766   9.780  -0.231 -1.1012 -0.0443 -0.2950
   30MOL0     H 4103   3.613   9.671  -0.403  0.3726 -4.6828 -1.0446
   30MOL0     H 4104   3.504   9.568  -0.542  1.0837 -0.4018 -0.0127
   30MOL0     H 4105   3.569   9.707  -0.645 -1.2896  0.0671 -0.5519
   30MOL0     H 4106   3.532   9.575  -0.843  0.0786 -0.1098 -0.6965
   30MOL0     H 4107   3.527   9.424  -0.744  0.1454  0.9128  1.9305
   30MOL0     H 4108   3.274   9.516  -0.832 -3.4029  1.2801  1.8162
   30MOL0     H 4109   3.313   9.636  -0.704  0.4207  0.3299  0.4846
   30MOL0     H 4110   3.323   9.453  -0.549  1.3965  1.2814 -1.7600
   30MOL0     H 4111   3.294   9.331  -0.657  1.7773 -0.1920  1.7455
   30MOL0     H 4112   3.095   9.551  -0.567 -0.5017 -0.0997  0.8372
   30MOL0     H 4113   3.087   9.471  -0.729  0.6489  2.9696  0.1351
   30MOL0     H 4114   3.040   9.258  -0.591 -0.5567  0.2654 -0.9787
   30MOL0     H 4115   2.943   9.378  -0.517 -1.3210 -4.1028 -0.6598
   30MOL0     H 4116   3.140   9.425  -0.357  2.2701 -0.2750  2.2143
   30MOL0     H 4117   3.214   9.297  -0.423  0.3989  2.4457 -1.9482
   30MOL0     H 4118   3.077   9.229  -0.207  2.3042  0.8699 -0.1488
   30MOL0     H 4119   3.047   9.129  -0.352  0.3594  0.5190 -0.3914
   30MOL0     H 4120   3.943   9.543  -0.625  0.5672 -0.0419  0.2022
   30MOL0     H 4121   4.100   9.617  -0.455 -0.4449 -3.2275  1.7467
   30MOL0     H 4122   4.409   9.908  -0.223  1.0376  3.2354  1.6909
   30MOL0     H 4123   4.529   9.985  -0.030  0.2457 -1.1419 -2.7601
   30MOL0     H 4124   3.284   9.403   1.193 -0.0202  0.9122 -0.3863
   30MOL0     H 4125   3.120   9.507   1.352 -0.3015  0.7504 -0.1491
   30MOL0     H 4126   2.972   9.805   1.523  0.0913  1.4904 -0.2546
   30MOL0     H 4127   2.762   9.881   1.602 -2.6592  0.3058  2.0575
   30MOL0     H 4128   2.491  10.002   1.805  1.0502 -0.3474 -0.0819
   30MOL0     H 4129   2.604  10.007   1.680  0.2891 -0.6564 -1.2800
   30MOL0     H 4130   2.429   9.792   1.807  3.3960 -1.9467  2.2017
   30MOL0     H 4131   2.563   9.734   1.713  1.0386  0.1940  1.3450
   30MOL0     H 4132   2.329   9.923   1.629  0.5985  2.3494 -3.0283
   30MOL0     H 4133   2.478   9.899   1.532  0.2223 -0.5093  0.1700
   30MOL0     H 4134   2.418   9.645   1.524  0.8733  0.4417 -1.4210
   30MOL0     H 4135   2.318   9.746   1.436  1.5263  0.9197  0.2639
   30MOL0     H 4136   2.062   9.609   1.760  0.3477 -2.5230 -0.2862
   30MOL0     H 4137   2.852   9.784   1.999 -1.7184  0.7450 -0.9708
   30MOL0     H 4138   3.134   9.565   1.934  3.3646  1.9157 -0.0106
   30MOL0     H 4139   3.174   9.716   2.006 -0.1767  0.4379  0.8609
   30MOL0     H 4140   3.035   9.629   2.055 -0.2796 -0.0180 -0.6172
   31MOL0     O 4141   1.825   6.651   3.982  0.2842 -0.4711 -0.0484
   31MOL0     C 4142   1.757   6.751   3.978  0.1384 -0.5586 -0.1510
   31MOL0     O 4143   1.793   6.866   3.914  0.1783  0.5356  0.1662
   31MOL0     C 4144   1.914   6.864   3.838  0.5199 -0.1343 -0.5274
   31MOL0     C 4145   2.028   6.922   3.891  0.0943  0.5515  0.2803
   31MOL0     C 4146   2.144   6.931   3.822 -0.5631  0.8159  0.0919
   31MOL0     C 4147   2.155   6.874   3.693 -0.2456  0.3501  0.3664
   31MOL0     O 4148   2.262   6.888   3.604  0.4356 -0.5794 -0.2630
   31MOL0     C 4149   2.396   6.892   3.666  0.4570  0.5104 -0.0114
   31MOL0     C 4150   2.450   7.033   3.655  0.1058  0.0795  0.3204
   31MOL0     C 4151   2.566   7.060   3.753  0.0001 -0.7309 -0.0032
   31MOL0     C 4152   2.616   7.202   3.733  0.1361 -0.6147 -0.0839
   31MOL0     C 4153   2.704   7.240   3.845 -0.0426 -0.6741 -0.8932
   31MOL0     C 4154   2.747   7.392   3.835  0.0156 -0.8165 -0.3017
   31MOL0     C 4155   2.815   7.438   3.971  0.5315  0.7322 -0.8607
   31MOL0     C 4156   2.862   7.580   3.980 -0.3207 -0.2671  0.4663
   31MOL0     N 4157   2.951   7.623   3.875 -0.9730  0.3115  0.2103
   31MOL0     C 4158   3.067   7.548   3.847 -0.1219 -0.5966  0.2185
   31MOL0     C 4159   3.117   7.605   3.741  0.4214 -0.0728  0.6298
   31MOL0     C 4160   3.224   7.557   3.650  0.3132  0.3663 -0.8472
   31MOL0     C 4161   3.320   7.472   3.731 -0.3844 -0.1861 -0.4449
   31MOL0     C 4162   3.425   7.421   3.643 -0.2091  0.3935 -0.3712
   31MOL0     C 4163   3.527   7.323   3.711  0.6833 -0.4323 -0.1857
   31MOL0     O 4164   3.603   7.396   3.810  0.2478 -0.4480 -0.2843
   31MOL0     C 4165   3.715   7.336   3.867  0.3602  0.4311 -1.0124
   31MOL0     C 4166   3.764   7.208   3.834 -0.3118 -0.3086  0.0856
   31MOL0     C 4167   3.889   7.169   3.878 -0.2146  0.3348 -0.2271
   31MOL0     C 4168   3.944   7.047   3.811  0.6636  0.1007 -0.1082
   31MOL0     C 4169   3.947   7.233   3.993 -0.3288 -0.0519  0.9450
   31MOL0     C 4170   4.068   7.167   4.055  0.2145  0.8515  0.0309
   31MOL0     O 4171   4.097   7.032   4.033 -0.3302  0.3637 -0.1376
   31MOL0     C 4172   4.229   7.000   4.063 -0.2643 -0.1235 -0.2198
   31MOL0     C 4173   4.333   7.051   3.981 -0.0730  0.4437 -0.0028
   31MOL0     C 4174   4.468   7.011   4.007  0.1894 -0.2107  0.5888
   31MOL0     C 4175   4.503   6.920   4.106 -0.2431  0.1264  0.7166
   31MOL0     O 4176   4.633   6.888   4.124 -0.5908  0.3239 -0.2481
   31MOL0     C 4177   4.674   6.837   4.253 -0.4783  0.8936  1.2186
   31MOL0     C 4178   4.824   6.816   4.239  1.1713  0.6736  0.4237
   31MOL0     C 4179   4.910   6.946   4.218 -0.2792  0.4718 -0.1330
   31MOL0     C 4180   5.062   6.918   4.223  0.6692  0.2669  0.4768
   31MOL0     C 4181   5.148   7.032   4.171 -0.9089  0.4154 -0.5522
   31MOL0     C 4182   5.294   6.987   4.147 -0.4517  0.1098  0.3250
   31MOL0     C 4183   5.387   7.079   4.083 -0.2310 -0.6851  0.5841
   31MOL0     C 4184   5.478   7.157   4.187 -0.1164 -0.1486  0.2245
   31MOL0    Cl 4185   5.391   7.297   4.262 -0.0357 -0.1024  0.2557
   31MOL0     C 4186   4.402   6.875   4.189 -0.2680  0.1121 -0.0978
   31MOL0     C 4187   4.267   6.913   4.169  0.9152 -0.1181 -0.3141
   31MOL0     O 4188   4.139   7.238   4.125  0.1306 -0.9930  0.0770
   31MOL0     C 4189   3.895   7.353   4.033 -0.1862  0.7158 -0.3751
   31MOL0     C 4190   3.783   7.404   3.969  0.7760 -0.3507 -0.1623
   31MOL0     N 4191   3.047   7.723   3.713 -0.7279  0.6686 -0.0733
   31MOL0     N 4192   2.937   7.724   3.784  0.4315 -0.2353  0.1292
   31MOL0     C 4193   2.046   6.811   3.642 -0.2287  0.5150 -0.0878
   31MOL0     C 4194   1.921   6.800   3.715  0.3980 -0.0969  0.4657
   31MOL0     C 4195   1.614   6.738   4.024  0.2883  0.7400 -0.8531
   31MOL0     C 4196   1.527   6.847   3.992 -0.8259  0.3691  0.2917
   31MOL0     C 4197   1.397   6.853   4.031  0.2941  0.0352  0.1371
   31MOL0     C 4198   1.343   6.732   4.087  0.0482 -0.4522 -0.2100
   31MOL0     O 4199   1.207   6.712   4.099  0.2750 -0.0608  0.2653
   31MOL0     C 4200   1.119   6.815   4.115  0.5693 -0.0626  1.0073
   31MOL0     C 4201   0.987   6.773   4.188 -0.2585  0.4815  0.0229
   31MOL0     C 4202   0.883   6.715   4.095  0.4047  0.4160 -0.4524
   31MOL0     C 4203   0.747   6.710   4.170  0.1846  0.3427 -0.3273
   31MOL0     C 4204   0.653   6.622   4.091 -0.4865  0.2702 -0.0150
   31MOL0     C 4205   0.573   6.555   4.028  0.1719 -0.0124  0.1930
   31MOL0     C 4206   1.431   6.634   4.132 -0.2015  0.6795 -0.2013
   31MOL0     C 4207   1.568   6.635   4.112 -0.4127  0.1731  0.2894
   31MOL0     C 4208   1.648   6.520   4.164 -0.0365 -0.5676 -0.3835
   31MOL0     H 4209   2.028   6.968   3.989 -2.3231 -4.2594  2.9096
   31MOL0     H 4210   2.233   6.975   3.865  1.3587 -1.5943 -1.1754
   31MOL0     H 4211   2.459   6.821   3.612  1.0051  1.9419 -1.3666
   31MOL0     H 4212   2.396   6.865   3.772  0.5981 -0.2253 -0.1939
   31MOL0     H 4213   2.489   7.041   3.553 -1.8797  1.4637 -0.4028
   31MOL0     H 4214   2.371   7.109   3.662  0.2734  0.6096 -2.3141
   31MOL0     H 4215   2.534   7.057   3.858 -0.3535  0.0530 -0.0813
   31MOL0     H 4216   2.654   6.997   3.738  0.2866 -0.2739 -0.2598
   31MOL0     H 4217   2.678   7.214   3.644  0.9823 -0.4912  0.5164
   31MOL0     H 4218   2.526   7.264   3.729 -0.2893 -1.1257  1.1178
   31MOL0     H 4219   2.797   7.182   3.846 -0.3581 -1.3389 -3.7264
   31MOL0     H 4220   2.652   7.230   3.941 -0.3636 -0.4609 -1.0462
   31MOL0     H 4221   2.809   7.416   3.749  1.6458  0.0135  1.0332
   31MOL0     H 4222   2.649   7.439   3.829 -0.7817 -2.3233  0.3080
   31MOL0     H 4223   2.906   7.378   3.978 -0.7714 -1.1343  2.0098
   31MOL0     H 4224   2.746   7.414   4.052  2.2401 -0.6431  0.2821
   31MOL0     H 4225   2.783   7.655   3.982 -2.5424 -2.4967  1.8876
   31MOL0     H 4226   2.912   7.585   4.077  0.8464 -3.0373  0.1151
   31MOL0     H 4227   3.104   7.450   3.875  3.9763  0.4298 -0.9548
   31MOL0     H 4228   3.281   7.645   3.620  2.1282 -1.1062 -2.0064
   31MOL0     H 4229   3.179   7.502   3.566 -1.5116  0.4717  0.0231
   31MOL0     H 4230   3.361   7.530   3.814 -4.1089  4.1343 -1.2454
   31MOL0     H 4231   3.274   7.379   3.767 -0.1239  0.2448  1.0607
   31MOL0     H 4232   3.378   7.376   3.555 -2.6273  3.0694 -0.5912
   31MOL0     H 4233   3.490   7.505   3.615  1.0935  0.0442  1.4347
   31MOL0     H 4234   3.470   7.241   3.756 -0.8768  0.6855 -0.0303
   31MOL0     H 4235   3.591   7.291   3.629  0.9713 -0.1206 -0.0886
   31MOL0     H 4236   3.712   7.150   3.758  0.0232 -0.8103  0.2333
   31MOL0     H 4237   3.879   7.037   3.723 -1.6802 -4.3364  1.7787
   31MOL0     H 4238   3.932   6.957   3.872  1.3576 -0.2038 -0.4040
   31MOL0     H 4239   4.047   7.052   3.776  0.2789  0.8427 -1.2012
   31MOL0     H 4240   4.329   7.116   3.894 -0.1614  1.0433  0.4438
   31MOL0     H 4241   4.548   7.058   3.951  0.0214 -0.9406 -0.2797
   31MOL0     H 4242   4.649   6.907   4.333 -0.0501  3.4113 -0.7254
   31MOL0     H 4243   4.624   6.741   4.267  1.7371 -0.6139 -0.4661
   31MOL0     H 4244   4.854   6.766   4.331 -0.3404 -0.4954  0.3086
   31MOL0     H 4245   4.840   6.753   4.151 -0.5257  2.2328 -1.0988
   31MOL0     H 4246   4.897   7.016   4.302  0.3448 -0.2489  0.5861
   31MOL0     H 4247   4.875   6.997   4.128  1.3006  0.4595 -0.7794
   31MOL0     H 4248   5.083   6.833   4.157  1.4612 -0.4487  1.6193
   31MOL0     H 4249   5.091   6.885   4.323 -1.0837  0.7799  1.1921
   31MOL0     H 4250   5.099   7.059   4.077 -0.9860  0.7888 -0.4077
   31MOL0     H 4251   5.134   7.117   4.239 -1.9543 -2.7548  3.5480
   31MOL0     H 4252   5.288   6.900   4.081 -0.2105  1.4397 -1.5176
   31MOL0     H 4253   5.335   6.944   4.239  0.0216  0.8841  0.4912
   31MOL0     H 4254   5.341   7.143   4.008 -2.8791 -2.7164  0.3243
   31MOL0     H 4255   5.450   7.015   4.021 -3.1922 -2.8729 -0.3771
   31MOL0     H 4256   5.565   7.197   4.134 -0.8511  0.1170 -0.8199
   31MOL0     H 4257   5.518   7.091   4.264  1.4140  1.0069  0.4725
   31MOL0     H 4258   4.422   6.799   4.264 -1.7476 -0.0684  0.1473
   31MOL0     H 4259   4.180   6.883   4.226  1.7335 -1.0735  0.4641
   31MOL0     H 4260   3.944   7.404   4.116  0.3706  0.3460 -0.4684
   31MOL0     H 4261   3.746   7.501   4.001  1.6214  0.7457 -2.3009
   31MOL0     H 4262   2.054   6.762   3.545  1.4034 -0.5006  0.5116
   31MOL0     H 4263   1.840   6.741   3.673 -0.1668 -0.9224  2.5840
   31MOL0     H 4264   1.571   6.916   3.920  1.8933  0.1547  1.6119
   31MOL0     H 4265   1.336   6.943   4.026  0.4029  0.0408 -1.7697
   31MOL0     H 4266   1.159   6.905   4.164 -2.1185  2.8541 -1.6439
   31MOL0     H 4267   1.102   6.862   4.018 -3.0355 -2.0771  0.4681
   31MOL0     H 4268   0.947   6.860   4.240 -0.5016  0.8580 -0.7755
   31MOL0     H 4269   1.014   6.693   4.258  1.0246  0.4864 -0.4333
   31MOL0     H 4270   0.872   6.781   4.009 -0.2691 -0.4761 -1.0575
   31MOL0     H 4271   0.922   6.618   4.065 -0.9912 -0.3687  0.1603
   31MOL0     H 4272   0.702   6.809   4.158 -0.9861 -0.0680  0.4961
   31MOL0     H 4273   0.749   6.674   4.273 -1.7983  3.1031  0.7922
   31MOL0     H 4274   0.495   6.497   3.983 -0.7531  0.9582  0.4743
   31MOL0     H 4275   1.384   6.551   4.185  0.0653  0.6032 -0.0827
   31MOL0     H 4276   1.728   6.577   4.213 -0.2580 -0.5620 -0.0262
   31MOL0     H 4277   1.591   6.472   4.244  0.0257 -0.3984 -0.2367
   31MOL0     H 4278   1.693   6.460   4.084  0.0048 -2.1072  0.7592
   32MOL0     O 4279   3.619   0.848   1.970  0.4239  0.2741 -0.7515
   32MOL0     C 4280   3.576   0.741   1.934 -0.0592 -0.1499 -0.1068
   32MOL0     O 4281   3.655   0.633   1.885  0.1936 -1.0956  0.5960
   32MOL0     C 4282   3.784   0.658   1.888 -0.2338 -0.3482  0.0946
   32MOL0     C 4283   3.867   0.646   2.001 -0.2963  0.2379 -0.5916
   32MOL0     C 4284   4.004   0.684   1.992 -0.0053  0.2274  0.5074
   32MOL0     C 4285   4.061   0.718   1.866  0.2164 -0.5499 -1.2423
   32MOL0     O 4286   4.195   0.750   1.868  0.4843  0.3819  0.6312
   32MOL0     C 4287   4.250   0.819   1.754 -0.1611 -0.0702  0.6382
   32MOL0     C 4288   4.306   0.712   1.657 -0.2988  0.6517 -0.0349
   32MOL0     C 4289   4.429   0.627   1.693 -0.3452 -1.0446 -0.5623
   32MOL0     C 4290   4.456   0.505   1.601  0.6335  0.2701 -0.1224
   32MOL0     C 4291   4.558   0.403   1.655 -0.1684 -0.0743  0.2919
   32MOL0     C 4292   4.705   0.447   1.633 -0.7484  0.4058  0.0424
   32MOL0     C 4293   4.805   0.329   1.642  0.9908 -0.8008 -0.1459
   32MOL0     C 4294   4.796   0.237   1.765  0.4511 -0.7216  0.3524
   32MOL0     N 4295   4.926   0.159   1.782 -0.2554 -0.2917  0.1626
   32MOL0     C 4296   4.986   0.085   1.678  0.1368 -0.4399 -0.3139
   32MOL0     C 4297   5.112   0.055   1.731 -0.0964  0.2401 -0.9984
   32MOL0     C 4298   5.213  -0.029   1.662  0.7159 -0.0673 -0.3772
   32MOL0     C 4299   5.284   0.048   1.542 -0.1249 -0.0621 -0.3029
   32MOL0     C 4300   5.335   0.184   1.585  0.7291  0.3293 -0.0299
   32MOL0     C 4301   5.455   0.225   1.490  0.3502 -0.3490 -0.5266
   32MOL0     O 4302   5.556   0.122   1.517 -0.4282 -0.0401 -0.0566
   32MOL0     C 4303   5.676   0.141   1.447 -0.4482  0.4425 -1.0212
   32MOL0     C 4304   5.782   0.050   1.474  0.5537 -1.0761  0.5615
   32MOL0     C 4305   5.898   0.052   1.394  0.3977  0.9637 -0.2611
   32MOL0     C 4306   6.000  -0.057   1.429  0.7544  1.0402  0.0506
   32MOL0     C 4307   5.919   0.151   1.288  0.6648 -0.9543  0.2159
   32MOL0     C 4308   6.048   0.162   1.211  0.2332 -0.6199 -0.7981
   32MOL0     O 4309   6.154   0.094   1.257 -0.9958 -0.4764 -0.0086
   32MOL0     C 4310   6.263   0.099   1.175 -0.3023 -0.2192 -0.0482
   32MOL0     C 4311   6.274   0.003   1.082  0.6595 -0.7212  0.4961
   32MOL0     C 4312   6.380   0.002   0.991 -0.5627  0.7385  0.0634
   32MOL0     C 4313   6.489   0.090   0.999  0.8349 -0.0598  0.6276
   32MOL0     O 4314   6.585   0.085   0.902 -0.9060  0.0402 -0.4601
   32MOL0     C 4315   6.684  -0.026   0.919 -0.4506 -0.1111 -0.1081
   32MOL0     C 4316   6.824   0.006   0.855 -0.2567  0.3919  0.4955
   32MOL0     C 4317   6.883   0.117   0.930 -0.1827 -0.5813  0.1092
   32MOL0     C 4318   6.961   0.069   1.052  1.1117 -0.4193 -0.8377
   32MOL0     C 4319   7.001   0.187   1.129  0.2677 -1.1672 -0.1799
   32MOL0     C 4320   7.120   0.145   1.218  0.0839 -0.4309  0.1963
   32MOL0     C 4321   7.147   0.262   1.310  0.2921 -0.1213 -0.3568
   32MOL0     C 4322   7.267   0.246   1.402 -0.6651  0.5125  0.1273
   32MOL0    Cl 4323   7.274   0.385   1.520  0.2613 -0.0905  0.5923
   32MOL0     C 4324   6.479   0.185   1.103 -0.0378  0.1547 -0.9929
   32MOL0     C 4325   6.368   0.185   1.201 -0.5182 -0.1504  0.4339
   32MOL0     O 4326   6.042   0.240   1.118 -0.1436 -0.1634  0.3338
   32MOL0     C 4327   5.811   0.239   1.268  0.0645  0.6356  0.3389
   32MOL0     C 4328   5.695   0.226   1.340 -0.4886 -0.2382 -0.2247
   32MOL0     N 4329   5.121   0.108   1.859  0.8114  0.0829  0.4298
   32MOL0     N 4330   5.012   0.167   1.892  0.2666 -0.3413  0.1669
   32MOL0     C 4331   3.979   0.710   1.749 -0.0519  0.3039 -0.2074
   32MOL0     C 4332   3.845   0.682   1.762  0.4541  0.5778  0.0908
   32MOL0     C 4333   3.427   0.729   1.941  0.6045 -0.4093  0.4596
   32MOL0     C 4334   3.367   0.679   1.822 -0.6474 -0.0815 -0.3358
   32MOL0     C 4335   3.226   0.664   1.819 -0.1969  0.2654  0.7547
   32MOL0     C 4336   3.143   0.692   1.926 -0.2258 -0.0658  0.5742
   32MOL0     O 4337   3.005   0.690   1.913  0.3221  0.3318 -0.4186
   32MOL0     C 4338   2.928   0.721   2.027 -0.0517 -0.4487 -0.0274
   32MOL0     C 4339   2.782   0.673   2.007 -0.4699 -0.4345 -0.7382
   32MOL0     C 4340   2.771   0.521   1.975 -0.4133 -0.1287  0.0273
   32MOL0     C 4341   2.634   0.460   1.983 -0.3947 -0.1771  0.3480
   32MOL0     C 4342   2.552   0.523   1.880  0.4886 -0.6231  0.2506
   32MOL0     C 4343   2.489   0.587   1.796 -0.0821 -0.2327  0.1286
   32MOL0     C 4344   3.208   0.759   2.034  0.1465  0.2676 -0.0656
   32MOL0     C 4345   3.346   0.773   2.050  0.4385  0.0068  0.3923
   32MOL0     C 4346   3.405   0.829   2.182  0.4742  0.1978  0.6260
   32MOL0     H 4347   3.832   0.638   2.103  1.8360  2.5130  0.4427
   32MOL0     H 4348   4.068   0.695   2.079  1.9633 -0.7631 -0.7537
   32MOL0     H 4349   4.338   0.876   1.785 -1.3505  1.2858  1.6387
   32MOL0     H 4350   4.184   0.884   1.695  0.2929 -0.5411 -0.4239
   32MOL0     H 4351   4.227   0.646   1.621 -0.2006  0.3733  0.2616
   32MOL0     H 4352   4.333   0.762   1.563  0.4464  1.3491  0.5302
   32MOL0     H 4353   4.510   0.701   1.685 -1.9262  0.9408  0.8550
   32MOL0     H 4354   4.425   0.608   1.800  1.5348 -1.0041 -0.4391
   32MOL0     H 4355   4.369   0.440   1.594  1.0639 -0.3560  0.1930
   32MOL0     H 4356   4.482   0.532   1.499 -2.6730  3.2422 -0.3556
   32MOL0     H 4357   4.543   0.311   1.597 -0.5299 -0.4075  0.8954
   32MOL0     H 4358   4.533   0.380   1.759  0.0783 -2.1805 -0.0627
   32MOL0     H 4359   4.727   0.492   1.536  0.5735  0.8300  0.5154
   32MOL0     H 4360   4.736   0.522   1.706  0.6101 -1.7929  1.8741
   32MOL0     H 4361   4.904   0.373   1.627 -0.0855  1.2095 -1.7637
   32MOL0     H 4362   4.774   0.258   1.564 -3.0075  0.9200 -0.3538
   32MOL0     H 4363   4.796   0.303   1.853  1.7817  0.2583 -0.3505
   32MOL0     H 4364   4.712   0.168   1.749 -0.3049  0.2801 -0.1297
   32MOL0     H 4365   4.939   0.056   1.585 -2.1706  2.0465 -0.0500
   32MOL0     H 4366   5.173  -0.121   1.618  1.5729 -0.6007 -0.0737
   32MOL0     H 4367   5.291  -0.061   1.731  0.8380 -0.7174 -0.8067
   32MOL0     H 4368   5.368  -0.017   1.520  1.1982  0.7578  1.9748
   32MOL0     H 4369   5.211   0.067   1.463  0.1814 -1.0558 -0.8347
   32MOL0     H 4370   5.254   0.257   1.593  1.5392  1.1272  1.0774
   32MOL0     H 4371   5.375   0.172   1.686 -1.2677  0.1906  0.7938
   32MOL0     H 4372   5.411   0.220   1.389  1.8156 -2.1227 -1.1336
   32MOL0     H 4373   5.498   0.322   1.514  1.6761 -1.4212  1.7074
   32MOL0     H 4374   5.765  -0.028   1.548  2.5186 -1.0209  1.1227
   32MOL0     H 4375   6.079  -0.015   1.493 -0.1613  2.0426  0.5454
   32MOL0     H 4376   6.040  -0.099   1.336 -2.6365  1.2451 -1.6277
   32MOL0     H 4377   5.947  -0.137   1.482 -2.3335  1.7870 -1.6998
   32MOL0     H 4378   6.193  -0.068   1.072  1.2695 -1.3481 -0.1009
   32MOL0     H 4379   6.376  -0.077   0.917  1.3041  0.7041 -0.0606
   32MOL0     H 4380   6.702  -0.054   1.023  2.5712  3.7246  0.6312
   32MOL0     H 4381   6.659  -0.112   0.856 -0.1046  0.9130 -1.7107
   32MOL0     H 4382   6.884  -0.085   0.849 -0.5298  0.3107 -2.6099
   32MOL0     H 4383   6.803   0.041   0.754 -0.6170  0.2556  0.5209
   32MOL0     H 4384   6.813   0.196   0.959  1.5295  1.1548 -0.2500
   32MOL0     H 4385   6.957   0.165   0.866 -0.0383 -1.9272 -0.7671
   32MOL0     H 4386   7.053   0.026   1.012  0.1507 -1.0989 -2.4202
   32MOL0     H 4387   6.915  -0.015   1.105  0.3630 -0.1621 -1.0671
   32MOL0     H 4388   7.026   0.267   1.060 -0.8113  0.3128  1.0856
   32MOL0     H 4389   6.919   0.228   1.188  1.7080  0.6445  0.6591
   32MOL0     H 4390   7.211   0.138   1.157 -2.7558  0.8815 -4.7419
   32MOL0     H 4391   7.108   0.044   1.257  1.3100 -1.1207 -1.1344
   32MOL0     H 4392   7.063   0.276   1.379  0.7682  0.9506  0.0482
   32MOL0     H 4393   7.159   0.357   1.256  0.9173  0.3185  0.5160
   32MOL0     H 4394   7.365   0.246   1.354 -0.2085 -2.4987  0.8540
   32MOL0     H 4395   7.251   0.148   1.450  1.5457 -0.3437 -0.7763
   32MOL0     H 4396   6.559   0.256   1.121 -0.7589  0.5722  0.7114
   32MOL0     H 4397   6.363   0.249   1.288 -3.5298 -0.5392  0.6568
   32MOL0     H 4398   5.816   0.313   1.189  1.3465  1.2398  0.9515
   32MOL0     H 4399   5.609   0.284   1.310  0.7642  1.5408 -0.5813
   32MOL0     H 4400   4.020   0.728   1.650 -0.1103 -2.5589 -0.8578
   32MOL0     H 4401   3.786   0.684   1.670  2.2495 -2.3438 -1.2694
   32MOL0     H 4402   3.432   0.659   1.737 -1.2656 -1.8828 -0.4300
   32MOL0     H 4403   3.178   0.632   1.727  0.5525  2.6468 -0.5518
   32MOL0     H 4404   2.975   0.669   2.111 -1.3657  2.1700  2.4895
   32MOL0     H 4405   2.928   0.829   2.048 -0.7608 -0.6343  0.9889
   32MOL0     H 4406   2.746   0.737   1.926  0.9766  3.1470  1.1932
   32MOL0     H 4407   2.725   0.694   2.098  1.8502 -0.0921  0.7260
   32MOL0     H 4408   2.816   0.497   1.878  0.9923  3.6165 -0.4280
   32MOL0     H 4409   2.833   0.469   2.049 -0.7993  1.4371  1.5253
   32MOL0     H 4410   2.582   0.474   2.079 -0.7710  1.1455 -0.0247
   32MOL0     H 4411   2.637   0.352   1.964  1.3779  0.0238 -0.6388
   32MOL0     H 4412   2.428   0.651   1.735  3.1031  3.6807  0.6535
   32MOL0     H 4413   3.164   0.795   2.126  1.9856 -0.2780  1.0817
   32MOL0     H 4414   3.326   0.831   2.257 -1.9570  1.9782 -1.8059
   32MOL0     H 4415   3.482   0.760   2.221 -0.8170 -1.1828  0.8389
   32MOL0     H 4416   3.449   0.929   2.178 -1.1766  0.9359  0.0196
   33MOL0     O 4417   7.692  10.918  11.351 -0.2744 -0.5406  0.3941
   33MOL0     C 4418   7.661  10.928  11.467  0.4268 -1.6404  0.2408
   33MOL0     O 4419   7.749  10.948  11.568 -0.2081 -0.6830  0.0741
   33MOL0     C 4420   7.867  10.879  11.559  0.8165  0.0780 -0.6746
   33MOL0     C 4421   7.993  10.938  11.553  0.2793  1.0630  0.3821
   33MOL0     C 4422   8.110  10.868  11.540 -0.1045  1.0023 -0.6597
   33MOL0     C 4423   8.110  10.723  11.530 -0.3906 -0.5542 -1.2709
   33MOL0     O 4424   8.235  10.668  11.534 -0.1748 -0.5175 -0.3783
   33MOL0     C 4425   8.257  10.530  11.498  0.3822  0.0363 -0.0704
   33MOL0     C 4426   8.264  10.441  11.616 -1.5990 -0.1359 -0.2505
   33MOL0     C 4427   8.373  10.490  11.717 -0.2324  0.5626 -0.0443
   33MOL0     C 4428   8.512  10.461  11.665 -0.2154 -0.4347 -0.1016
   33MOL0     C 4429   8.617  10.426  11.767  0.4593  0.2136  0.1813
   33MOL0     C 4430   8.639  10.531  11.883  1.3175  0.5966 -0.4004
   33MOL0     C 4431   8.717  10.655  11.838 -0.0731  0.2487 -0.5964
   33MOL0     C 4432   8.731  10.762  11.947 -0.3384 -0.2050  0.0868
   33MOL0     N 4433   8.842  10.861  11.923 -0.7288 -0.7111  0.9487
   33MOL0     C 4434   8.889  10.951  12.010  0.3205 -0.2886  0.1041
   33MOL0     C 4435   8.996  11.007  11.947  0.5139  0.0439  0.0124
   33MOL0     C 4436   9.067  11.130  12.003  0.0506 -0.4990  0.1508
   33MOL0     C 4437   9.019  11.242  11.905 -0.7243 -0.1846  0.5691
   33MOL0     C 4438   9.054  11.383  11.953  0.7899 -0.2721  0.3634
   33MOL0     C 4439   9.201  11.413  11.990  1.0662  0.2367  0.5672
   33MOL0     O 4440   9.290  11.377  11.884  0.1238  0.4020  0.7349
   33MOL0     C 4441   9.430  11.400  11.905  0.8250 -0.2507  0.5157
   33MOL0     C 4442   9.513  11.360  11.810 -1.1906 -0.6793  0.2074
   33MOL0     C 4443   9.656  11.353  11.828 -0.2798 -0.2322  0.0471
   33MOL0     C 4444   9.732  11.287  11.717  0.1280  0.4488 -1.3035
   33MOL0     C 4445   9.716  11.409  11.942  0.3755  0.8628 -0.1318
   33MOL0     C 4446   9.858  11.417  11.963  0.5324  0.3997 -1.0116
   33MOL0     O 4447   9.895  11.491  12.069 -0.6150  1.2387  0.0500
   33MOL0     C 4448  10.020  11.544  12.083  0.5433  0.5984  0.1972
   33MOL0     C 4449  10.105  11.581  11.975 -0.8994 -0.5375  0.4984
   33MOL0     C 4450  10.228  11.642  11.999 -0.2220 -0.0847  0.1902
   33MOL0     C 4451  10.268  11.669  12.130  0.3967  0.6677  0.4814
   33MOL0     O 4452  10.395  11.701  12.167  0.1244 -0.1226 -0.3075
   33MOL0     C 4453  10.501  11.685  12.068 -0.2563 -0.4116 -1.0234
   33MOL0     C 4454  10.644  11.690  12.123 -0.4070  0.0179  0.2562
   33MOL0     C 4455  10.648  11.628  12.265 -0.2970  1.1128  0.0291
   33MOL0     C 4456  10.798  11.645  12.317 -0.2608 -0.2309 -0.5868
   33MOL0     C 4457  10.834  11.587  12.457  0.3496  0.0387 -0.2912
   33MOL0     C 4458  10.961  11.661  12.525 -0.2880  0.2925  0.2285
   33MOL0     C 4459  10.970  11.615  12.667 -0.1028 -0.6832 -0.7149
   33MOL0     C 4460  11.112  11.636  12.730  0.5810 -0.3882 -0.1390
   33MOL0    Cl 4461  11.225  11.550  12.633 -0.2291 -0.0918 -0.1896
   33MOL0     C 4462  10.181  11.636  12.231  1.1549  0.0679 -0.3099
   33MOL0     C 4463  10.056  11.587  12.211  0.0575  0.9645  0.5780
   33MOL0     O 4464   9.936  11.365  11.890  0.4027 -0.4331  0.5828
   33MOL0     C 4465   9.626  11.467  12.040 -0.5579  0.8322  0.4538
   33MOL0     C 4466   9.486  11.462  12.017 -0.3823 -0.4831 -0.4749
   33MOL0     N 4467   9.030  10.931  11.835  0.6090  0.4019  0.2149
   33MOL0     N 4468   8.934  10.843  11.824  0.3067 -0.4802  0.2869
   33MOL0     C 4469   7.984  10.660  11.541  0.3607  0.0692 -0.3651
   33MOL0     C 4470   7.864  10.733  11.544 -0.2215  0.0806  0.1082
   33MOL0     C 4471   7.518  10.916  11.500  0.2916  0.1100 -0.0478
   33MOL0     C 4472   7.486  10.921  11.642 -0.2345 -0.9373  0.5391
   33MOL0     C 4473   7.361  10.901  11.684  0.2935 -0.1401  0.5097
   33MOL0     C 4474   7.256  10.865  11.596  1.0276  0.3683  0.1284
   33MOL0     O 4475   7.127  10.843  11.656  0.5744 -0.3359 -0.3901
   33MOL0     C 4476   7.023  10.810  11.555  0.9710 -0.0588  0.4072
   33MOL0     C 4477   6.890  10.775  11.633 -0.6407 -0.4291 -0.0452
   33MOL0     C 4478   6.836  10.888  11.712  0.7304  0.3209  0.6117
   33MOL0     C 4479   6.683  10.872  11.726  0.1674  0.5436 -0.3894
   33MOL0     C 4480   6.626  11.000  11.765  0.3666 -0.2458 -0.3099
   33MOL0     C 4481   6.595  11.120  11.796  1.5242  0.7214  0.2959
   33MOL0     C 4482   7.283  10.860  11.462 -0.2991  0.8412 -0.0760
   33MOL0     C 4483   7.415  10.885  11.413  0.4672 -0.5896  0.5680
   33MOL0     C 4484   7.426  10.862  11.259 -0.4749  1.1468  0.2207
   33MOL0     H 4485   7.999  11.046  11.559  1.5088  0.9429  2.2253
   33MOL0     H 4486   8.202  10.922  11.552  0.1124  0.4089  0.4943
   33MOL0     H 4487   8.348  10.533  11.439  0.8393  1.8339  0.6706
   33MOL0     H 4488   8.175  10.494  11.435  0.4378 -3.5910  1.6467
   33MOL0     H 4489   8.168  10.443  11.666 -1.4044  1.0937  0.1064
   33MOL0     H 4490   8.285  10.338  11.587  2.0056 -0.2552  2.1506
   33MOL0     H 4491   8.356  10.594  11.748  4.7685  0.6259  3.7372
   33MOL0     H 4492   8.354  10.436  11.811  0.9403  0.0072 -0.1113
   33MOL0     H 4493   8.495  10.384  11.588 -3.1961 -1.9655  1.8781
   33MOL0     H 4494   8.558  10.549  11.619 -1.1967  1.3652  2.1289
   33MOL0     H 4495   8.706  10.400  11.710 -0.0970 -0.4115 -0.4240
   33MOL0     H 4496   8.591  10.335  11.821  1.9977 -1.9473 -2.4720
   33MOL0     H 4497   8.539  10.564  11.914  0.2957 -1.2028 -1.5811
   33MOL0     H 4498   8.669  10.478  11.974 -1.0423 -1.2817 -0.6024
   33MOL0     H 4499   8.673  10.700  11.748 -1.8972 -1.7371 -0.7627
   33MOL0     H 4500   8.812  10.608  11.809  0.7664  0.4357  1.6366
   33MOL0     H 4501   8.639  10.820  11.956  0.0887  0.4983 -0.0241
   33MOL0     H 4502   8.757  10.719  12.044  0.4879 -0.1317 -0.0930
   33MOL0     H 4503   8.841  10.985  12.101  0.5613 -0.0244  0.1310
   33MOL0     H 4504   9.174  11.111  12.004  0.3666  1.1502 -0.2885
   33MOL0     H 4505   9.026  11.156  12.102 -2.1149 -1.0027 -0.5595
   33MOL0     H 4506   9.071  11.220  11.811 -1.4270 -1.4868  0.4579
   33MOL0     H 4507   8.912  11.245  11.883 -0.7670  0.8707  0.8936
   33MOL0     H 4508   9.021  11.455  11.877 -0.9632 -2.3644 -0.9706
   33MOL0     H 4509   8.989  11.398  12.040  1.4471  0.3335  0.7661
   33MOL0     H 4510   9.201  11.519  12.016 -0.9286  0.2284  0.7356
   33MOL0     H 4511   9.226  11.359  12.082  0.1099 -3.0505 -0.9385
   33MOL0     H 4512   9.469  11.329  11.716  0.1883  2.4683 -1.6150
   33MOL0     H 4513   9.674  11.250  11.631  2.3681 -1.1975 -2.2290
   33MOL0     H 4514   9.790  11.201  11.752 -1.4249 -1.7114 -3.6175
   33MOL0     H 4515   9.801  11.367  11.687 -0.8371  2.5363  1.6156
   33MOL0     H 4516  10.086  11.551  11.873  0.5977 -2.5951  0.7593
   33MOL0     H 4517  10.282  11.674  11.910 -1.8073 -0.3297 -0.8875
   33MOL0     H 4518  10.486  11.595  12.008 -0.0555  0.5379 -2.5429
   33MOL0     H 4519  10.486  11.768  11.998 -1.6696  1.6621  1.5399
   33MOL0     H 4520  10.722  11.646  12.061  1.0330  2.8392 -0.0817
   33MOL0     H 4521  10.682  11.791  12.134 -1.3217  0.2147  2.0379
   33MOL0     H 4522  10.637  11.520  12.255 -0.2156  1.1497 -0.4526
   33MOL0     H 4523  10.568  11.655  12.334  0.0339 -0.2861  1.0059
   33MOL0     H 4524  10.829  11.750  12.313  0.8855 -0.3113  2.8781
   33MOL0     H 4525  10.845  11.585  12.239 -2.7565 -0.4038 -2.0587
   33MOL0     H 4526  10.738  11.591  12.510 -0.3348 -0.5842 -1.4343
   33MOL0     H 4527  10.856  11.480  12.459 -0.4998 -0.1446  1.9087
   33MOL0     H 4528  10.949  11.769  12.511 -1.4223  0.2852  0.9498
   33MOL0     H 4529  11.048  11.625  12.470 -0.4250  0.5981 -0.2006
   33MOL0     H 4530  10.955  11.507  12.657  0.4859 -0.6866 -1.5932
   33MOL0     H 4531  10.893  11.659  12.731  1.6248  1.7339 -0.1664
   33MOL0     H 4532  11.107  11.602  12.834 -1.3902 -1.1348 -0.4512
   33MOL0     H 4533  11.136  11.742  12.716  2.3450 -0.7715 -0.3035
   33MOL0     H 4534  10.223  11.655  12.330 -2.6964  0.4809  1.4398
   33MOL0     H 4535   9.996  11.558  12.298 -0.7768  0.5613 -0.1075
   33MOL0     H 4536   9.669  11.500  12.134 -1.4914  2.3070  0.4005
   33MOL0     H 4537   9.425  11.503  12.097 -0.7495  0.3268 -1.1502
   33MOL0     H 4538   7.982  10.551  11.536 -2.2103  0.0217  0.2908
   33MOL0     H 4539   7.763  10.693  11.545  0.0512 -0.7258 -1.3980
   33MOL0     H 4540   7.550  10.950  11.725 -2.7702 -0.5412  2.4729
   33MOL0     H 4541   7.333  10.896  11.789 -0.6067 -1.6470  0.2373
   33MOL0     H 4542   7.000  10.895  11.490 -0.7387 -0.7541  0.0443
   33MOL0     H 4543   7.059  10.730  11.489  1.5601  0.2131  0.3973
   33MOL0     H 4544   6.909  10.686  11.694  5.4310 -0.9713 -2.0013
   33MOL0     H 4545   6.811  10.749  11.562 -0.9422 -0.8835  0.4437
   33MOL0     H 4546   6.882  10.889  11.811 -1.6217  0.7542  1.7703
   33MOL0     H 4547   6.866  10.983  11.667  1.7790  1.2222  3.0525
   33MOL0     H 4548   6.665  10.796  11.802 -0.8951 -0.5589 -1.6964
   33MOL0     H 4549   6.637  10.839  11.633 -0.8994  2.8522 -0.7494
   33MOL0     H 4550   6.568  11.217  11.834  0.1931 -0.5166  2.7996
   33MOL0     H 4551   7.207  10.836  11.388  0.9179 -0.8206 -0.8565
   33MOL0     H 4552   7.483  10.938  11.204  1.6273 -1.0984 -0.9016
   33MOL0     H 4553   7.483  10.773  11.233  1.5087  1.9928  1.4694
   33MOL0     H 4554   7.325  10.859  11.215 -0.3585  1.3266 -0.0644
   34MOL0     O 4555   1.232   3.194   8.359 -0.1356 -0.8584  0.0404
   34MOL0     C 4556   1.287   3.214   8.471  0.4759  0.7446 -0.8987
   34MOL0     O 4557   1.423   3.223   8.501  0.2829 -0.4732 -0.6831
   34MOL0     C 4558   1.508   3.221   8.398 -0.8058 -0.2038  0.3694
   34MOL0     C 4559   1.500   3.300   8.277  0.1213 -0.3353  0.0827
   34MOL0     C 4560   1.610   3.309   8.193  0.3429  0.1471  0.2673
   34MOL0     C 4561   1.725   3.234   8.225  0.5878  0.2665 -0.1170
   34MOL0     O 4562   1.834   3.249   8.136  0.0663  0.1997 -0.0428
   34MOL0     C 4563   1.972   3.211   8.173  0.2163 -0.6938 -0.0187
   34MOL0     C 4564   2.023   3.291   8.283 -0.4593 -0.9319 -1.0295
   34MOL0     C 4565   2.177   3.257   8.315 -0.7230  0.5101 -1.0577
   34MOL0     C 4566   2.273   3.333   8.226 -0.7731  0.6196  0.9139
   34MOL0     C 4567   2.415   3.342   8.287  0.4987 -0.2963  0.4036
   34MOL0     C 4568   2.511   3.418   8.185  0.5161  0.4160  0.4397
   34MOL0     C 4569   2.663   3.423   8.229  0.1305 -0.0461  0.2256
   34MOL0     C 4570   2.744   3.445   8.100  0.0935  0.9124  0.2118
   34MOL0     N 4571   2.883   3.420   8.125 -0.6054 -0.8063  0.0103
   34MOL0     C 4572   2.972   3.493   8.205  0.0389 -0.3116  0.1697
   34MOL0     C 4573   3.062   3.403   8.242 -0.4188  0.1579  0.2775
   34MOL0     C 4574   3.169   3.431   8.342  0.1797 -0.0571 -0.1246
   34MOL0     C 4575   3.288   3.491   8.275  0.1293 -0.5002  0.4678
   34MOL0     C 4576   3.361   3.561   8.381 -1.0787 -0.5035 -0.4187
   34MOL0     C 4577   3.488   3.633   8.322 -0.8567  0.3516 -0.2663
   34MOL0     O 4578   3.578   3.690   8.423  0.4793 -0.1870  0.6665
   34MOL0     C 4579   3.702   3.737   8.384 -0.8212  0.3714  0.5183
   34MOL0     C 4580   3.744   3.758   8.255  0.4858 -0.9801  1.2668
   34MOL0     C 4581   3.865   3.817   8.225 -0.3383 -0.0275  0.0809
   34MOL0     C 4582   3.901   3.834   8.078  0.1396  0.3839 -0.2849
   34MOL0     C 4583   3.945   3.863   8.335  0.0637 -0.1884 -0.2029
   34MOL0     C 4584   4.078   3.917   8.301  0.7156 -0.3065 -0.8325
   34MOL0     O 4585   4.092   4.057   8.294  0.5786  0.2216  0.4769
   34MOL0     C 4586   4.219   4.100   8.282  0.6325 -0.1496 -0.3084
   34MOL0     C 4587   4.307   4.083   8.392 -0.5004  0.0548 -0.1899
   34MOL0     C 4588   4.433   4.134   8.392  0.3867  0.4050 -0.5317
   34MOL0     C 4589   4.469   4.214   8.285  1.2350 -0.6064  0.5974
   34MOL0     O 4590   4.586   4.281   8.274  0.1975 -0.2580  0.0450
   34MOL0     C 4591   4.699   4.223   8.339  0.0403 -0.3629  0.2409
   34MOL0     C 4592   4.829   4.260   8.264 -0.0378  0.1449 -0.5509
   34MOL0     C 4593   4.941   4.198   8.330 -0.6675  0.0963 -0.3544
   34MOL0     C 4594   5.069   4.203   8.242  0.0150  0.2047  0.0777
   34MOL0     C 4595   5.190   4.127   8.308  0.1215  0.0236 -0.4066
   34MOL0     C 4596   5.315   4.118   8.217  0.0805 -0.3709 -0.7082
   34MOL0     C 4597   5.360   4.249   8.154 -0.1633  0.6567  0.1268
   34MOL0     C 4598   5.487   4.235   8.071  0.3542 -0.0594  0.3345
   34MOL0    Cl 4599   5.623   4.230   8.198 -0.4357  0.0745  0.1238
   34MOL0     C 4600   4.381   4.233   8.178 -0.1512  0.5034  0.7275
   34MOL0     C 4601   4.254   4.176   8.175 -0.5436 -0.4509  0.0100
   34MOL0     O 4602   4.159   3.833   8.279 -1.0051 -0.2190 -0.2382
   34MOL0     C 4603   3.909   3.840   8.469  0.1414 -0.2710  0.2162
   34MOL0     C 4604   3.783   3.782   8.485 -0.6900  0.0173 -0.1538
   34MOL0     N 4605   3.037   3.286   8.169 -0.6955  0.4118  0.0886
   34MOL0     N 4606   2.933   3.296   8.096 -0.2917  0.5046 -0.7225
   34MOL0     C 4607   1.736   3.157   8.340  0.2817 -0.1126 -0.4670
   34MOL0     C 4608   1.620   3.145   8.425 -0.1579  0.9314  0.1657
   34MOL0     C 4609   1.195   3.235   8.594 -0.4071  0.6599  0.4435
   34MOL0     C 4610   1.241   3.313   8.704 -0.3619 -0.0285 -0.0805
   34MOL0     C 4611   1.160   3.336   8.820 -0.8965 -0.1317  0.7686
   34MOL0     C 4612   1.035   3.275   8.822 -1.1939 -0.2919  0.1874
   34MOL0     O 4613   0.970   3.286   8.940 -0.5264 -0.1239 -0.1073
   34MOL0     C 4614   0.920   3.157   8.987  0.1557  0.3130  0.3172
   34MOL0     C 4615   0.933   3.169   9.139 -0.0180  0.5496 -0.7267
   34MOL0     C 4616   1.080   3.200   9.185  0.2597 -0.3332 -0.6963
   34MOL0     C 4617   1.092   3.204   9.335  0.2153 -0.3666 -1.0160
   34MOL0     C 4618   1.113   3.066   9.382  0.1062  0.4970  0.4988
   34MOL0     C 4619   1.121   2.950   9.401 -0.0213  0.4826 -0.0656
   34MOL0     C 4620   0.990   3.198   8.712  0.1253 -0.6021  0.0307
   34MOL0     C 4621   1.067   3.175   8.605 -0.8813  0.2777  0.8381
   34MOL0     C 4622   1.009   3.075   8.501 -0.1627  0.5440  0.2401
   34MOL0     H 4623   1.413   3.365   8.279  1.8021  2.0653  0.6819
   34MOL0     H 4624   1.622   3.359   8.097  0.6429 -0.3788  0.0256
   34MOL0     H 4625   2.033   3.226   8.083 -0.0872 -4.2795 -0.9698
   34MOL0     H 4626   1.981   3.104   8.194  1.0431 -0.1715  2.8437
   34MOL0     H 4627   2.014   3.398   8.265 -0.6322  0.2803  4.5504
   34MOL0     H 4628   1.965   3.276   8.374  1.2704 -2.3700 -0.0983
   34MOL0     H 4629   2.206   3.266   8.420  1.7878  2.3378 -1.8034
   34MOL0     H 4630   2.186   3.149   8.296  1.0282  0.3036  0.6395
   34MOL0     H 4631   2.287   3.271   8.137  1.9771  2.7034 -0.2439
   34MOL0     H 4632   2.239   3.429   8.186  1.0857 -0.5280 -4.1786
   34MOL0     H 4633   2.458   3.243   8.303  2.0333  0.5701  1.9974
   34MOL0     H 4634   2.419   3.392   8.384 -0.2360  2.2808 -0.7763
   34MOL0     H 4635   2.504   3.372   8.086 -2.2103  0.7355  0.4193
   34MOL0     H 4636   2.481   3.523   8.176  1.2353  0.4920 -1.7476
   34MOL0     H 4637   2.689   3.331   8.283 -0.8256  2.2933  5.2450
   34MOL0     H 4638   2.688   3.506   8.296  3.5611 -0.2647 -0.5844
   34MOL0     H 4639   2.721   3.365   8.029  0.1126  0.2124  0.9778
   34MOL0     H 4640   2.718   3.541   8.055 -1.3283  1.7454  2.6342
   34MOL0     H 4641   2.943   3.583   8.259  1.7564 -1.5345  3.4412
   34MOL0     H 4642   3.204   3.352   8.409  0.2164  2.0956  2.5746
   34MOL0     H 4643   3.122   3.508   8.404  0.6995  0.3385 -0.2104
   34MOL0     H 4644   3.332   3.406   8.223  1.8983 -0.5096  1.8981
   34MOL0     H 4645   3.258   3.571   8.206 -1.5973  1.1708  2.9757
   34MOL0     H 4646   3.313   3.655   8.412 -0.3954 -0.3902  0.3468
   34MOL0     H 4647   3.386   3.490   8.460  0.1773  2.7544  2.4009
   34MOL0     H 4648   3.547   3.564   8.260  0.8732 -0.2503  1.9120
   34MOL0     H 4649   3.451   3.716   8.262  0.3725  2.4384  1.7140
   34MOL0     H 4650   3.670   3.741   8.178  2.8419 -0.2826 -1.3014
   34MOL0     H 4651   3.946   3.931   8.055 -3.7169  2.7329  1.1981
   34MOL0     H 4652   3.813   3.833   8.015 -0.4881  1.3186  0.5552
   34MOL0     H 4653   3.963   3.750   8.044  0.4620  0.8181 -0.7847
   34MOL0     H 4654   4.279   4.019   8.476  1.3936 -0.6156 -0.0104
   34MOL0     H 4655   4.505   4.114   8.471  1.6549 -1.5043 -2.0978
   34MOL0     H 4656   4.703   4.259   8.442  3.6034  1.5312 -0.3906
   34MOL0     H 4657   4.686   4.116   8.326  0.2636 -0.1701 -2.0766
   34MOL0     H 4658   4.830   4.221   8.161 -1.7589  1.0010 -0.9290
   34MOL0     H 4659   4.835   4.369   8.263 -0.1113  0.2095  1.7342
   34MOL0     H 4660   4.938   4.092   8.357  2.6100 -0.6403 -2.2752
   34MOL0     H 4661   4.968   4.255   8.420  0.0413 -2.8757  1.4636
   34MOL0     H 4662   5.098   4.308   8.232 -1.1071  0.4516 -0.8081
   34MOL0     H 4663   5.040   4.161   8.146 -0.7626  1.9756 -0.4990
   34MOL0     H 4664   5.225   4.173   8.401  0.1898 -1.3802  0.2936
   34MOL0     H 4665   5.158   4.026   8.333  1.6941 -0.6685 -1.0828
   34MOL0     H 4666   5.302   4.043   8.138 -1.0265 -0.1144 -0.7875
   34MOL0     H 4667   5.394   4.078   8.281 -0.9946  1.9742  2.3050
   34MOL0     H 4668   5.366   4.328   8.229 -1.5132  1.9663 -1.0710
   34MOL0     H 4669   5.285   4.286   8.083 -0.1758  3.0165  1.2697
   34MOL0     H 4670   5.506   4.320   8.004  3.2105 -0.6463  0.2504
   34MOL0     H 4671   5.477   4.149   8.005  0.7667  0.5841 -0.5894
   34MOL0     H 4672   4.416   4.287   8.091  0.1546 -0.4616  0.2400
   34MOL0     H 4673   4.179   4.192   8.098 -3.0035 -1.5603  2.0175
   34MOL0     H 4674   3.982   3.862   8.547  2.3960 -0.4251 -1.7326
   34MOL0     H 4675   3.750   3.768   8.588 -2.9960  2.4210 -0.4609
   34MOL0     H 4676   1.824   3.097   8.362 -0.2279 -1.4475 -1.8780
   34MOL0     H 4677   1.631   3.089   8.517  0.8061  2.0594  0.7562
   34MOL0     H 4678   1.341   3.355   8.695  0.1042 -1.3838 -1.9206
   34MOL0     H 4679   1.205   3.396   8.898  2.3981  0.7100 -1.5320
   34MOL0     H 4680   0.814   3.150   8.958  0.0785 -0.0084  0.6693
   34MOL0     H 4681   0.974   3.072   8.944  2.6417  3.0249 -2.4735
   34MOL0     H 4682   0.906   3.073   9.183  2.6968  1.2576  2.9721
   34MOL0     H 4683   0.856   3.240   9.171 -1.2675 -0.2556 -1.8307
   34MOL0     H 4684   1.150   3.130   9.139 -0.0657 -0.2465 -1.3328
   34MOL0     H 4685   1.096   3.300   9.144 -0.4245  1.0694  2.2132
   34MOL0     H 4686   1.002   3.260   9.366  0.2685  1.0927 -3.2585
   34MOL0     H 4687   1.171   3.273   9.366 -2.3122  2.3577 -0.1029
   34MOL0     H 4688   1.126   2.847   9.429 -1.8296  0.5179  0.4977
   34MOL0     H 4689   0.887   3.165   8.719  0.5283 -1.8491  0.2450
   34MOL0     H 4690   0.909   3.036   8.524  0.2354  0.6539  2.3710
   34MOL0     H 4691   0.989   3.120   8.403 -0.7437 -1.6022 -0.6762
   34MOL0     H 4692   1.084   2.995   8.502 -1.1134 -0.4503 -2.0787
   35MOL0     O 4693   1.719   4.541   4.061  0.7373  0.8179  0.4305
   35MOL0     C 4694   1.638   4.615   4.009  0.4310 -0.5798  1.0890
   35MOL0     O 4695   1.670   4.710   3.917 -0.0082  0.3913 -0.4603
   35MOL0     C 4696   1.793   4.729   3.860  0.0108  0.3527  0.7178
   35MOL0     C 4697   1.875   4.624   3.820 -0.5635  0.3864  1.1686
   35MOL0     C 4698   1.990   4.642   3.748 -0.1160  0.6800 -0.2575
   35MOL0     C 4699   2.033   4.775   3.711  0.0339  0.9833 -1.1085
   35MOL0     O 4700   2.145   4.809   3.635 -0.7844  0.4162 -0.3291
   35MOL0     C 4701   2.223   4.703   3.568  0.0442 -0.9990  0.0037
   35MOL0     C 4702   2.320   4.757   3.471  0.4312 -0.5141  0.1236
   35MOL0     C 4703   2.427   4.832   3.547 -0.1940  0.2144  0.0531
   35MOL0     C 4704   2.536   4.862   3.449 -0.0693 -0.1668 -0.8739
   35MOL0     C 4705   2.666   4.905   3.510 -0.2571 -0.1814 -0.0658
   35MOL0     C 4706   2.753   4.959   3.403  0.0357  0.0757  0.2164
   35MOL0     C 4707   2.880   5.046   3.462 -0.6437  0.5783  0.8798
   35MOL0     C 4708   2.992   4.952   3.506  0.1801 -0.8456 -0.0414
   35MOL0     N 4709   3.097   5.025   3.584  0.2123  0.0134  0.3772
   35MOL0     C 4710   3.179   5.108   3.515 -0.4227  0.1157  0.6393
   35MOL0     C 4711   3.265   5.151   3.611 -1.4820  0.3010  0.1426
   35MOL0     C 4712   3.379   5.251   3.584  0.2032  0.6695 -0.6670
   35MOL0     C 4713   3.511   5.188   3.586 -0.3982 -0.6464  0.2343
   35MOL0     C 4714   3.548   5.103   3.708 -1.2472  0.7040 -0.9945
   35MOL0     C 4715   3.533   5.173   3.841  0.3685 -0.1884 -0.0354
   35MOL0     O 4716   3.627   5.279   3.862  0.0489 -0.3804  0.0083
   35MOL0     C 4717   3.757   5.267   3.894 -0.0540 -0.2066 -0.7522
   35MOL0     C 4718   3.827   5.150   3.912 -0.9469  0.6521  0.3609
   35MOL0     C 4719   3.968   5.148   3.928 -0.1258 -0.0096 -0.4801
   35MOL0     C 4720   4.038   5.020   3.892 -0.7783  0.0405  0.3219
   35MOL0     C 4721   4.045   5.268   3.946  0.1497 -0.3309 -0.0306
   35MOL0     C 4722   4.191   5.276   3.975 -0.9025 -0.4578 -0.6319
   35MOL0     O 4723   4.258   5.395   3.945  0.2609 -0.2821  0.8888
   35MOL0     C 4724   4.391   5.391   3.984 -0.1939  0.7721  0.4824
   35MOL0     C 4725   4.434   5.454   4.100  0.2506  0.0073 -0.7366
   35MOL0     C 4726   4.573   5.460   4.136 -0.1616  0.9402 -0.3450
   35MOL0     C 4727   4.665   5.399   4.048  0.0791 -0.6843 -0.3374
   35MOL0     O 4728   4.794   5.392   4.087  0.0704 -0.0487  0.7435
   35MOL0     C 4729   4.885   5.295   4.034  1.1179 -0.1087  1.1657
   35MOL0     C 4730   5.009   5.301   4.119 -0.0166  0.0060 -0.3637
   35MOL0     C 4731   5.104   5.420   4.094  0.0720  0.2668 -0.4504
   35MOL0     C 4732   5.242   5.379   4.161 -0.2815  0.4761  0.2340
   35MOL0     C 4733   5.343   5.491   4.148 -0.1947 -0.0520  0.5509
   35MOL0     C 4734   5.465   5.456   4.220 -1.5818  0.2012 -0.8561
   35MOL0     C 4735   5.563   5.576   4.244  0.3764  0.8535  0.1190
   35MOL0     C 4736   5.685   5.535   4.319  0.4943  0.4766  0.2823
   35MOL0    Cl 4737   5.802   5.433   4.225 -0.1516 -0.0244  0.2299
   35MOL0     C 4738   4.620   5.346   3.928  0.1725 -0.4806  1.1852
   35MOL0     C 4739   4.483   5.333   3.901  0.4464  0.5861  0.0410
   35MOL0     O 4740   4.244   5.172   4.007 -0.5405 -0.2435  0.2466
   35MOL0     C 4741   3.968   5.386   3.930 -0.1309  0.9577 -0.7676
   35MOL0     C 4742   3.831   5.381   3.910 -0.3149  0.3098  0.3787
   35MOL0     N 4743   3.229   5.094   3.739 -0.2169  0.0693 -0.2053
   35MOL0     N 4744   3.131   5.010   3.715 -0.2894 -0.5804  0.1805
   35MOL0     C 4745   1.943   4.880   3.743  0.4044  0.5423 -0.5806
   35MOL0     C 4746   1.835   4.856   3.820  0.1710  0.0803 -0.0867
   35MOL0     C 4747   1.493   4.608   4.038 -0.1279  0.0031 -0.1835
   35MOL0     C 4748   1.454   4.498   4.103  0.1533 -0.0904 -0.1411
   35MOL0     C 4749   1.319   4.469   4.140  0.0314  0.5318  0.6611
   35MOL0     C 4750   1.217   4.551   4.092 -0.1139  0.3840  0.4490
   35MOL0     O 4751   1.089   4.514   4.126 -0.2757 -0.4655 -0.1950
   35MOL0     C 4752   0.977   4.612   4.104 -0.4807  0.5389  0.3588
   35MOL0     C 4753   0.851   4.540   4.158 -0.5752  0.4442  0.6450
   35MOL0     C 4754   0.842   4.545   4.309 -1.0720 -0.3841 -0.4824
   35MOL0     C 4755   0.755   4.450   4.383  0.5140 -0.2673 -0.4590
   35MOL0     C 4756   0.613   4.474   4.333 -0.7003  0.0355 -0.1027
   35MOL0     C 4757   0.501   4.497   4.292 -0.3901  0.5275  0.4282
   35MOL0     C 4758   1.255   4.666   4.028 -0.1400  0.6879  0.1539
   35MOL0     C 4759   1.390   4.693   3.994 -0.4162  0.2022 -0.0461
   35MOL0     C 4760   1.412   4.835   3.939  0.5046  0.1256 -0.0641
   35MOL0     H 4761   1.842   4.522   3.837  0.2892 -0.0212  0.4789
   35MOL0     H 4762   2.060   4.566   3.714 -0.1180  0.0770  1.0448
   35MOL0     H 4763   2.160   4.636   3.507 -0.5018 -0.7675  0.3124
   35MOL0     H 4764   2.276   4.642   3.642  0.1741 -1.7911 -0.7235
   35MOL0     H 4765   2.365   4.681   3.407 -0.3058 -1.0322  0.2169
   35MOL0     H 4766   2.276   4.834   3.407 -0.6591  0.2662  1.7495
   35MOL0     H 4767   2.390   4.917   3.605  3.2048  1.4591  0.6228
   35MOL0     H 4768   2.463   4.756   3.617 -2.2050 -1.1740 -0.3146
   35MOL0     H 4769   2.563   4.769   3.398 -1.0278 -1.7382  1.2903
   35MOL0     H 4770   2.504   4.938   3.377  2.3194  0.9530 -0.8662
   35MOL0     H 4771   2.709   4.829   3.576 -0.7419 -1.4238 -1.1388
   35MOL0     H 4772   2.647   4.994   3.570  1.3137  2.6316 -3.3661
   35MOL0     H 4773   2.783   4.874   3.342  1.4292 -0.7355  1.9367
   35MOL0     H 4774   2.694   5.023   3.336 -1.1529  0.0615  1.2177
   35MOL0     H 4775   2.851   5.117   3.541  0.6091  1.5788  0.4828
   35MOL0     H 4776   2.912   5.110   3.380  2.6185 -1.7648  0.1532
   35MOL0     H 4777   2.953   4.883   3.581  2.5864 -1.1182  1.0672
   35MOL0     H 4778   3.035   4.901   3.420 -0.7874  0.4467 -1.3382
   35MOL0     H 4779   3.164   5.139   3.412 -0.8009 -0.4301  0.5286
   35MOL0     H 4780   3.383   5.343   3.644  2.1139  0.4236 -0.3523
   35MOL0     H 4781   3.362   5.283   3.481 -3.0576  0.6449 -0.2456
   35MOL0     H 4782   3.511   5.122   3.499 -2.1274 -0.0079 -0.2773
   35MOL0     H 4783   3.587   5.263   3.563 -1.7434  0.0225 -2.4684
   35MOL0     H 4784   3.483   5.015   3.715  1.0517 -0.9627  1.0277
   35MOL0     H 4785   3.649   5.062   3.697 -1.4104  0.3282 -1.1187
   35MOL0     H 4786   3.434   5.215   3.863  0.8520  0.3133  1.2789
   35MOL0     H 4787   3.545   5.105   3.926 -0.0272 -1.2623 -0.8061
   35MOL0     H 4788   3.783   5.052   3.896 -0.6588  0.1104  2.6199
   35MOL0     H 4789   4.107   5.041   3.810 -0.5211  3.2142  1.2301
   35MOL0     H 4790   3.972   4.946   3.846 -0.2684  0.6733 -1.4861
   35MOL0     H 4791   4.092   4.972   3.975 -0.7323  0.1787  0.3715
   35MOL0     H 4792   4.364   5.502   4.168 -1.2621 -0.8498 -1.6304
   35MOL0     H 4793   4.605   5.498   4.232  1.1508  2.0408 -1.1753
   35MOL0     H 4794   4.838   5.196   4.028 -1.2883  0.8890  2.0147
   35MOL0     H 4795   4.918   5.325   3.934 -0.2850 -0.8932  0.4281
   35MOL0     H 4796   4.983   5.289   4.224  0.1226  1.1813 -0.1775
   35MOL0     H 4797   5.061   5.208   4.095  2.2464  0.7472  1.3633
   35MOL0     H 4798   5.050   5.500   4.145 -3.3681 -1.1030 -1.6428
   35MOL0     H 4799   5.110   5.452   3.990 -0.8081  3.3088  0.3281
   35MOL0     H 4800   5.281   5.287   4.118 -2.1232 -0.4420  0.4441
   35MOL0     H 4801   5.225   5.347   4.264  3.4802 -1.3332  0.4617
   35MOL0     H 4802   5.366   5.499   4.041 -2.3620  0.8428  0.1056
   35MOL0     H 4803   5.290   5.585   4.165 -2.2920 -1.1880  0.6124
   35MOL0     H 4804   5.523   5.381   4.166 -0.3815 -0.2360  0.9467
   35MOL0     H 4805   5.442   5.408   4.316  0.9995  1.0715  0.2977
   35MOL0     H 4806   5.517   5.651   4.309  0.4917 -0.5366  1.8735
   35MOL0     H 4807   5.589   5.610   4.143  0.4945  0.9490  0.1818
   35MOL0     H 4808   5.662   5.490   4.417 -0.9033  3.8276  1.6376
   35MOL0     H 4809   5.738   5.627   4.345 -1.2891  1.2746  1.2111
   35MOL0     H 4810   4.688   5.296   3.859  0.8716 -0.2256  1.6826
   35MOL0     H 4811   4.450   5.284   3.810 -0.1205 -1.9827  1.5451
   35MOL0     H 4812   4.022   5.480   3.923  2.8221 -0.6312 -0.8164
   35MOL0     H 4813   3.784   5.476   3.885 -0.3884 -0.1603 -1.3567
   35MOL0     H 4814   1.976   4.982   3.730  0.6046  0.4529 -0.7771
   35MOL0     H 4815   1.771   4.942   3.840  1.4615  1.3518 -1.1751
   35MOL0     H 4816   1.538   4.440   4.139  3.8614  3.3697 -2.3205
   35MOL0     H 4817   1.290   4.389   4.208  0.4725 -0.8358 -0.6848
   35MOL0     H 4818   1.006   4.699   4.164  0.7100 -0.1227  0.7868
   35MOL0     H 4819   0.978   4.638   3.998  1.4876 -0.3429  0.1106
   35MOL0     H 4820   0.847   4.435   4.127  1.8386  0.8700 -1.4828
   35MOL0     H 4821   0.768   4.596   4.114  1.2572  2.9325  0.1481
   35MOL0     H 4822   0.938   4.519   4.356 -1.0663 -2.6151 -1.5546
   35MOL0     H 4823   0.815   4.647   4.336  0.9105  0.3215 -0.9369
   35MOL0     H 4824   0.754   4.479   4.488 -0.0190 -1.2101 -0.1895
   35MOL0     H 4825   0.784   4.344   4.384  2.7490  0.2228  3.0062
   35MOL0     H 4826   0.404   4.512   4.250 -0.1597 -0.2578 -0.4287
   35MOL0     H 4827   1.166   4.721   3.997 -2.2540 -2.5123  0.0857
   35MOL0     H 4828   1.429   4.832   3.831 -1.8261 -0.4687 -0.4724
   35MOL0     H 4829   1.323   4.897   3.955  0.3847  0.2315 -1.0789
   35MOL0     H 4830   1.490   4.895   3.986 -2.1430  1.8771  2.4463
   36MOL0     O 4831   3.405   4.300   3.354 -0.3868  0.5698  1.2596
   36MOL0     C 4832   3.384   4.188   3.310  0.0263  0.6991  0.5156
   36MOL0     O 4833   3.484   4.104   3.261  0.8513  0.5141 -0.6123
   36MOL0     C 4834   3.608   4.138   3.204  0.1020 -0.0020 -0.0437
   36MOL0     C 4835   3.666   4.259   3.190 -0.3961  0.2563 -0.0334
   36MOL0     C 4836   3.793   4.274   3.146 -0.2664  0.6029  0.6877
   36MOL0     C 4837   3.858   4.162   3.091 -0.8128  0.0695 -0.6857
   36MOL0     O 4838   3.976   4.200   3.044  0.4254 -0.1577  1.2247
   36MOL0     C 4839   4.065   4.096   2.992  0.0566  0.4983 -0.4325
   36MOL0     C 4840   4.206   4.158   2.985  0.8088 -0.1865 -0.3610
   36MOL0     C 4841   4.309   4.049   3.020  0.0294 -0.8265 -0.9105
   36MOL0     C 4842   4.457   4.111   2.994 -0.1597  0.3712 -0.2206
   36MOL0     C 4843   4.556   4.033   3.085 -0.6800 -0.0041  0.6306
   36MOL0     C 4844   4.548   4.075   3.228  0.3332  0.0487 -0.2863
   36MOL0     C 4845   4.593   4.222   3.262  0.8704 -0.0825 -0.0501
   36MOL0     C 4846   4.631   4.241   3.412 -0.9029 -0.5281  0.4653
   36MOL0     N 4847   4.758   4.187   3.456 -0.2228  0.1474  0.5325
   36MOL0     C 4848   4.880   4.195   3.394 -0.6070  0.5927 -0.6364
   36MOL0     C 4849   4.975   4.151   3.480  0.4805  0.2726 -0.9728
   36MOL0     C 4850   5.126   4.141   3.457 -0.7168  0.4287 -0.4546
   36MOL0     C 4851   5.204   4.228   3.558 -0.0462  0.2206  0.1994
   36MOL0     C 4852   5.184   4.381   3.554 -0.1625 -0.4666 -0.9497
   36MOL0     C 4853   5.230   4.441   3.416 -0.2530 -0.1757  0.2858
   36MOL0     O 4854   5.370   4.427   3.398 -0.3536  0.2485 -0.6341
   36MOL0     C 4855   5.464   4.495   3.472  0.5306  0.6697  0.8031
   36MOL0     C 4856   5.432   4.592   3.569  0.7921  0.8878 -0.7668
   36MOL0     C 4857   5.536   4.662   3.626 -0.4845 -0.2019 -0.5400
   36MOL0     C 4858   5.488   4.772   3.715 -0.0305  0.2727  0.1159
   36MOL0     C 4859   5.671   4.636   3.603  0.0652  0.3283  0.6367
   36MOL0     C 4860   5.788   4.716   3.655  0.0655 -0.6104 -0.0484
   36MOL0     O 4861   5.774   4.774   3.780 -0.2802  0.1697 -0.6367
   36MOL0     C 4862   5.880   4.815   3.863  0.4784 -0.7270  0.1474
   36MOL0     C 4863   5.850   4.885   3.976  0.2834 -0.2005  0.2470
   36MOL0     C 4864   5.958   4.927   4.057  0.1302 -0.0655 -0.4360
   36MOL0     C 4865   6.087   4.881   4.029  0.1731 -0.1957 -0.2133
   36MOL0     O 4866   6.203   4.908   4.112 -0.0394 -0.0563  0.0082
   36MOL0     C 4867   6.185   4.997   4.225 -0.8980 -0.0227  0.9818
   36MOL0     C 4868   6.230   5.139   4.181  0.5594 -0.5352  0.4353
   36MOL0     C 4869   6.366   5.149   4.093 -0.0618  0.3462 -0.6838
   36MOL0     C 4870   6.484   5.071   4.144  0.2757  0.2415  0.3761
   36MOL0     C 4871   6.616   5.111   4.092 -0.2912 -0.0057  0.1223
   36MOL0     C 4872   6.634   5.116   3.941 -0.3628  0.3978  0.6930
   36MOL0     C 4873   6.780   5.142   3.909 -0.0007 -0.9301  0.0072
   36MOL0     C 4874   6.810   5.152   3.759 -0.6607 -0.7184 -0.0397
   36MOL0    Cl 4875   6.710   5.273   3.683  0.1811  0.2516 -0.2773
   36MOL0     C 4876   6.109   4.788   3.928  0.4235 -0.4190  0.5291
   36MOL0     C 4877   6.008   4.767   3.842 -0.1713 -0.7119 -0.9334
   36MOL0     O 4878   5.880   4.743   3.581  0.1326  0.6692 -0.1677
   36MOL0     C 4879   5.708   4.541   3.513  0.2349  0.5559  0.1396
   36MOL0     C 4880   5.597   4.468   3.451 -0.0389  0.0462 -0.8655
   36MOL0     N 4881   4.907   4.102   3.593  0.5442  0.1555  0.8303
   36MOL0     N 4882   4.778   4.122   3.572  0.2472  0.7820 -0.5534
   36MOL0     C 4883   3.800   4.035   3.101  0.6201  0.3870  0.0599
   36MOL0     C 4884   3.676   4.020   3.160 -0.5012  0.1270 -0.8625
   36MOL0     C 4885   3.249   4.129   3.323 -0.1296  0.4788 -0.7185
   36MOL0     C 4886   3.244   3.991   3.369  0.1976  0.6931 -0.5722
   36MOL0     C 4887   3.119   3.932   3.386 -0.3575 -0.2633  0.7311
   36MOL0     C 4888   2.996   4.005   3.369 -0.2222 -0.1983 -0.7510
   36MOL0     O 4889   2.876   3.934   3.401 -0.4107  0.2596 -0.3515
   36MOL0     C 4890   2.758   4.007   3.415  0.1184  0.4642  0.4763
   36MOL0     C 4891   2.634   3.910   3.413 -0.2331 -0.3937 -0.3362
   36MOL0     C 4892   2.491   3.972   3.405 -0.4850  0.3984  0.0179
   36MOL0     C 4893   2.394   3.903   3.313 -1.1401  0.2615  0.1274
   36MOL0     C 4894   2.269   3.967   3.322  0.1330  0.7337  0.1007
   36MOL0     C 4895   2.158   4.017   3.345  0.0002 -0.1429  0.5699
   36MOL0     C 4896   3.005   4.141   3.342  0.6374  0.0517 -1.1867
   36MOL0     C 4897   3.127   4.204   3.319 -0.7902 -0.3194  0.3963
   36MOL0     C 4898   3.114   4.349   3.276  0.5823 -0.2312 -0.6110
   36MOL0     H 4899   3.616   4.350   3.222 -2.0106 -0.7280  0.3806
   36MOL0     H 4900   3.842   4.370   3.138  2.4588 -0.7648 -0.2590
   36MOL0     H 4901   4.050   4.052   2.893  1.7039 -0.3167 -0.3595
   36MOL0     H 4902   4.066   4.013   3.062  1.4370  2.3115  1.8397
   36MOL0     H 4903   4.214   4.223   2.898 -1.8207  0.4997 -0.1686
   36MOL0     H 4904   4.214   4.225   3.071  2.2631 -0.8682  0.0787
   36MOL0     H 4905   4.288   4.014   3.121  1.0442 -0.8402 -0.6967
   36MOL0     H 4906   4.289   3.967   2.951 -0.8320 -0.8603 -0.6313
   36MOL0     H 4907   4.494   4.095   2.892  0.3726  1.4714 -0.2155
   36MOL0     H 4908   4.469   4.217   3.016  0.8936  0.4523 -1.1043
   36MOL0     H 4909   4.651   4.074   3.050 -0.6258 -1.3617 -0.9378
   36MOL0     H 4910   4.551   3.924   3.075  1.7001 -0.0621 -0.6661
   36MOL0     H 4911   4.449   4.045   3.264  0.8833  0.6983  1.9095
   36MOL0     H 4912   4.620   4.009   3.278  1.2408  0.9574 -0.3734
   36MOL0     H 4913   4.509   4.289   3.241  0.9828  0.6528  1.7150
   36MOL0     H 4914   4.663   4.260   3.186 -3.4184  1.9931 -3.4546
   36MOL0     H 4915   4.627   4.347   3.440  1.3221 -0.0366 -0.8092
   36MOL0     H 4916   4.559   4.192   3.479 -0.0729 -2.0843  0.2715
   36MOL0     H 4917   4.897   4.216   3.289  1.3264 -2.0412 -0.9308
   36MOL0     H 4918   5.140   4.178   3.355  0.3176 -0.8093 -0.7882
   36MOL0     H 4919   5.172   4.042   3.458 -0.3647  0.5927 -0.1292
   36MOL0     H 4920   5.173   4.196   3.658  1.7142  0.1650  0.7551
   36MOL0     H 4921   5.311   4.210   3.558  0.3096  2.0767  1.3855
   36MOL0     H 4922   5.078   4.400   3.576  0.0716 -1.1698  0.9448
   36MOL0     H 4923   5.240   4.426   3.637 -2.2767 -1.9684  1.4494
   36MOL0     H 4924   5.170   4.392   3.338  0.3767 -2.1186  0.9447
   36MOL0     H 4925   5.206   4.547   3.418  0.6788  0.0418  2.5773
   36MOL0     H 4926   5.329   4.623   3.587  0.4488 -0.6434  0.0225
   36MOL0     H 4927   5.399   4.821   3.675 -0.2514  0.9379  1.3586
   36MOL0     H 4928   5.563   4.850   3.731  3.1100 -2.1920 -1.2932
   36MOL0     H 4929   5.473   4.726   3.814  0.1270  1.3223  0.6391
   36MOL0     H 4930   5.747   4.914   3.992 -0.1153 -0.4346 -1.7120
   36MOL0     H 4931   5.941   4.996   4.139  2.3141  1.3091 -1.0604
   36MOL0     H 4932   6.085   4.991   4.269 -0.9409  2.4941  1.3961
   36MOL0     H 4933   6.246   4.972   4.312 -0.0625  0.5248  0.5725
   36MOL0     H 4934   6.146   5.189   4.131 -0.1741 -1.1857  1.0072
   36MOL0     H 4935   6.243   5.198   4.272 -2.8174  1.5595 -0.2504
   36MOL0     H 4936   6.384   5.256   4.089 -0.1911  0.4251  0.5361
   36MOL0     H 4937   6.349   5.115   3.990  0.8719  1.2552 -1.1603
   36MOL0     H 4938   6.465   4.964   4.132 -0.7707  0.4937 -0.3437
   36MOL0     H 4939   6.485   5.089   4.252 -0.6596 -1.4608  0.7131
   36MOL0     H 4940   6.643   5.211   4.127  0.9810 -0.2570 -0.1074
   36MOL0     H 4941   6.686   5.046   4.145 -1.6064  0.9549  3.3075
   36MOL0     H 4942   6.575   5.197   3.899 -0.9181  0.3426  1.3489
   36MOL0     H 4943   6.597   5.024   3.895  2.0542 -0.9737  1.2938
   36MOL0     H 4944   6.843   5.067   3.957  2.7897  1.1276 -0.1671
   36MOL0     H 4945   6.812   5.235   3.957  2.0329 -1.8021  0.4370
   36MOL0     H 4946   6.795   5.052   3.717 -2.1791 -0.2979 -0.5744
   36MOL0     H 4947   6.914   5.173   3.734 -0.0083 -1.8084  1.6351
   36MOL0     H 4948   6.210   4.755   3.908  0.6739 -0.5483  1.9248
   36MOL0     H 4949   6.037   4.692   3.769  0.5072 -0.3026 -1.0916
   36MOL0     H 4950   5.805   4.515   3.473  0.0727  2.3430 -1.6161
   36MOL0     H 4951   5.610   4.383   3.385  1.5150 -1.4521  1.2587
   36MOL0     H 4952   3.849   3.941   3.078  1.1322  0.6871 -0.0956
   36MOL0     H 4953   3.643   3.918   3.178  1.4095 -0.2246  1.1754
   36MOL0     H 4954   3.330   3.933   3.401  0.2279  1.6112  1.0856
   36MOL0     H 4955   3.125   3.824   3.394 -0.6340 -0.4258 -0.8730
   36MOL0     H 4956   2.751   4.068   3.506  0.9765  1.9902 -0.4322
   36MOL0     H 4957   2.739   4.072   3.329 -0.3868 -1.7257 -1.1451
   36MOL0     H 4958   2.640   3.848   3.503  0.6971 -0.0811 -0.1781
   36MOL0     H 4959   2.641   3.852   3.320  1.4589  1.9207 -1.7400
   36MOL0     H 4960   2.449   3.974   3.507 -0.5809 -0.7506  0.0096
   36MOL0     H 4961   2.506   4.076   3.373  0.2782 -0.3247 -2.1548
   36MOL0     H 4962   2.386   3.799   3.348 -0.7659 -0.0288 -0.6236
   36MOL0     H 4963   2.433   3.899   3.211  2.7328 -1.1376  1.4648
   36MOL0     H 4964   2.060   4.058   3.358  0.0769 -0.4618  2.3976
   36MOL0     H 4965   2.918   4.205   3.354  1.9767  1.6635  0.4437
   36MOL0     H 4966   3.012   4.383   3.257 -0.5745 -0.3872  4.1889
   36MOL0     H 4967   3.156   4.414   3.353  0.2149 -1.3382  0.5486
   36MOL0     H 4968   3.181   4.364   3.191  2.9713 -0.0007  1.2171
   37MOL0     O 4969   9.524   2.214   7.123  0.1227  0.1966  0.0045
   37MOL0     C 4970   9.448   2.127   7.082  0.2637 -0.6502 -1.4214
   37MOL0     O 4971   9.481   2.000   7.035 -0.3725  0.3944  0.9212
   37MOL0     C 4972   9.616   1.960   7.039  0.3296  0.2548  0.0545
   37MOL0     C 4973   9.697   1.991   6.929  1.2842 -0.4572 -0.9891
   37MOL0     C 4974   9.834   1.983   6.937  0.3027  1.0928  0.1502
   37MOL0     C 4975   9.894   1.932   7.056 -0.2695 -0.6076  0.2002
   37MOL0     O 4976  10.029   1.937   7.065  0.3220  0.7386  0.0730
   37MOL0     C 4977  10.072   2.043   7.154  0.5688 -0.2568  0.9408
   37MOL0     C 4978  10.220   2.027   7.178  0.2762 -0.3359  0.0928
   37MOL0     C 4979  10.297   2.045   7.049  0.5081  0.4305  0.4130
   37MOL0     C 4980  10.442   2.089   7.071 -0.6751 -0.0378  0.0340
   37MOL0     C 4981  10.521   1.987   7.154 -0.5604 -0.4635 -0.3958
   37MOL0     C 4982  10.655   2.038   7.201 -0.6111  0.4797 -0.0335
   37MOL0     C 4983  10.745   1.918   7.242 -0.1243 -0.1653  0.0486
   37MOL0     C 4984  10.881   1.974   7.279 -0.9839  0.0349  0.4387
   37MOL0     N 4985  10.964   1.859   7.314  0.1902 -0.5798 -0.3721
   37MOL0     C 4986  10.988   1.747   7.242  0.0884  0.4245  0.7632
   37MOL0     C 4987  11.097   1.692   7.290  0.0421  0.5335  0.3719
   37MOL0     C 4988  11.155   1.574   7.227 -0.6190  0.4218 -0.5118
   37MOL0     C 4989  11.295   1.531   7.274  0.3453 -0.1733 -0.6979
   37MOL0     C 4990  11.342   1.404   7.206 -0.5667  0.1280 -0.2513
   37MOL0     C 4991  11.472   1.356   7.272 -0.3427 -0.7030 -0.0051
   37MOL0     O 4992  11.490   1.218   7.213 -0.6909 -0.1102 -0.1525
   37MOL0     C 4993  11.623   1.187   7.227  1.4916 -0.1747 -0.4600
   37MOL0     C 4994  11.671   1.169   7.351  0.2392  0.0206  0.2297
   37MOL0     C 4995  11.809   1.143   7.375  0.5884  0.4307 -0.0869
   37MOL0     C 4996  11.837   1.127   7.519  0.5416 -0.7124  0.1427
   37MOL0     C 4997  11.904   1.137   7.273 -0.2502  0.0553  0.2061
   37MOL0     C 4998  12.048   1.118   7.278 -0.1083 -0.4888 -0.2688
   37MOL0     O 4999  12.111   1.111   7.163  0.3569 -0.0218 -0.3513
   37MOL0     C 5000  12.244   1.106   7.162 -0.2211 -0.7550 -0.8965
   37MOL0     C 5001  12.322   1.215   7.205 -0.0791 -0.0203 -0.3455
   37MOL0     C 5002  12.461   1.210   7.196 -0.3878 -0.0483  0.1477
   37MOL0     C 5003  12.526   1.103   7.134 -0.2460  0.5949  0.1081
   37MOL0     O 5004  12.660   1.101   7.104  0.4369 -0.0632  0.4965
   37MOL0     C 5005  12.745   1.205   7.154  0.4559  0.2600  0.5357
   37MOL0     C 5006  12.884   1.171   7.111 -0.6498 -0.8894 -0.1847
   37MOL0     C 5007  12.986   1.283   7.145 -0.4696  0.0590  0.0307
   37MOL0     C 5008  12.994   1.385   7.034  0.2141 -0.3097 -0.2957
   37MOL0     C 5009  13.016   1.527   7.085 -0.8746  0.3275  0.4845
   37MOL0     C 5010  13.149   1.546   7.155 -0.0921 -1.0650 -0.4043
   37MOL0     C 5011  13.166   1.688   7.211  0.1356  0.3432 -0.3873
   37MOL0     C 5012  13.311   1.709   7.266  0.8944 -0.2053 -0.4568
   37MOL0    Cl 5013  13.337   1.630   7.415  0.3185  0.2587 -0.1586
   37MOL0     C 5014  12.451   0.988   7.101 -0.2492  0.2624  0.2141
   37MOL0     C 5015  12.307   0.993   7.118 -0.8624  0.3581  0.0565
   37MOL0     O 5016  12.103   1.126   7.385 -0.2481 -0.3352 -0.2980
   37MOL0     C 5017  11.849   1.157   7.143  0.1317 -0.2623  0.2391
   37MOL0     C 5018  11.709   1.178   7.119 -0.8739 -0.8755 -0.7458
   37MOL0     N 5019  11.135   1.757   7.400  0.0603  0.5225  0.2393
   37MOL0     N 5020  11.051   1.857   7.414  0.0723  0.0983 -1.8225
   37MOL0     C 5021   9.812   1.887   7.157  0.2409  0.0515 -0.6868
   37MOL0     C 5022   9.672   1.899   7.156  0.4883  0.1001 -0.1693
   37MOL0     C 5023   9.308   2.174   7.083  0.2579 -0.4767 -0.1348
   37MOL0     C 5024   9.207   2.084   7.047 -0.3221  0.3574  0.8642
   37MOL0     C 5025   9.076   2.120   7.041 -0.5555  0.3137  0.7445
   37MOL0     C 5026   9.037   2.252   7.063  0.6269 -0.2455  0.1032
   37MOL0     O 5027   8.904   2.286   7.044  0.8834 -0.5805 -0.2118
   37MOL0     C 5028   8.824   2.347   7.149  0.9826 -0.2096 -1.2871
   37MOL0     C 5029   8.853   2.287   7.291 -0.4722 -0.9698  0.3566
   37MOL0     C 5030   8.802   2.142   7.317 -0.6591  0.3029 -0.1011
   37MOL0     C 5031   8.842   2.110   7.458  0.1915 -0.0380  0.0727
   37MOL0     C 5032   8.825   1.972   7.490 -0.2540 -0.7340 -0.5243
   37MOL0     C 5033   8.799   1.852   7.517 -0.6912 -0.4762  1.0246
   37MOL0     C 5034   9.132   2.343   7.105 -0.1691 -0.1345  0.4553
   37MOL0     C 5035   9.266   2.307   7.115  0.3038 -0.1317  0.2415
   37MOL0     C 5036   9.354   2.426   7.151 -0.1216  0.4905 -0.3925
   37MOL0     H 5037   9.650   2.040   6.844 -0.2200  0.3001  0.2248
   37MOL0     H 5038   9.908   2.012   6.863 -0.4688  2.9403  0.0517
   37MOL0     H 5039  10.021   2.036   7.251 -2.3705 -1.3984 -0.5556
   37MOL0     H 5040  10.052   2.145   7.117 -1.5856 -1.1525 -0.6179
   37MOL0     H 5041  10.247   2.111   7.242  0.8741 -0.3012 -0.1999
   37MOL0     H 5042  10.238   1.937   7.239 -1.4527  0.1213  1.3479
   37MOL0     H 5043  10.299   1.951   6.992 -0.8180 -0.1813  1.3260
   37MOL0     H 5044  10.248   2.119   6.985  0.2364 -0.9769 -1.1034
   37MOL0     H 5045  10.486   2.115   6.974 -0.9543  2.7926  0.5927
   37MOL0     H 5046  10.447   2.187   7.120 -0.5380  0.1922 -0.4332
   37MOL0     H 5047  10.537   1.898   7.092  1.1686  1.1364 -2.3901
   37MOL0     H 5048  10.457   1.954   7.237  1.5332 -2.4946  0.5346
   37MOL0     H 5049  10.701   2.097   7.121  0.1853  1.9166  1.4138
   37MOL0     H 5050  10.656   2.108   7.285  2.8635  1.1109 -0.4657
   37MOL0     H 5051  10.748   1.856   7.152  1.1666  0.1664 -0.1571
   37MOL0     H 5052  10.690   1.860   7.318 -2.0301  0.9981 -0.3666
   37MOL0     H 5053  10.916   2.038   7.197 -1.7210  0.6494  0.5953
   37MOL0     H 5054  10.862   2.043   7.361 -3.3851 -0.2463  0.1674
   37MOL0     H 5055  10.945   1.716   7.147 -1.3547  3.3607  0.3343
   37MOL0     H 5056  11.172   1.585   7.119 -0.8651  0.9493 -0.5001
   37MOL0     H 5057  11.086   1.491   7.238  0.6479 -0.5450  0.4572
   37MOL0     H 5058  11.367   1.608   7.247 -1.7156  1.5368 -1.6974
   37MOL0     H 5059  11.293   1.516   7.383 -1.3831 -0.3267 -0.7079
   37MOL0     H 5060  11.265   1.331   7.233  0.0046 -0.2122  0.5018
   37MOL0     H 5061  11.357   1.411   7.098  0.1863 -3.1005 -0.4490
   37MOL0     H 5062  11.548   1.431   7.248 -1.8879  0.2547 -2.1706
   37MOL0     H 5063  11.465   1.359   7.382 -0.4300  1.4889 -0.0382
   37MOL0     H 5064  11.597   1.170   7.430  1.7160 -1.0238  1.7164
   37MOL0     H 5065  11.751   1.134   7.586  1.2450  1.5653  0.9250
   37MOL0     H 5066  11.906   1.201   7.561 -1.3967  0.5248  1.3534
   37MOL0     H 5067  11.879   1.026   7.522 -1.4864 -1.5986  1.6622
   37MOL0     H 5068  12.282   1.306   7.249  0.9587 -0.4277  1.5725
   37MOL0     H 5069  12.515   1.299   7.227  0.1361 -0.1947 -0.3303
   37MOL0     H 5070  12.717   1.306   7.120 -0.3576 -0.1893 -0.1692
   37MOL0     H 5071  12.742   1.214   7.263  1.5945 -1.1171  0.7019
   37MOL0     H 5072  12.918   1.083   7.168  2.0456  1.6876  2.5537
   37MOL0     H 5073  12.894   1.165   7.002  3.5635  2.9829 -0.3017
   37MOL0     H 5074  13.076   1.222   7.142 -1.7760 -2.0077  0.9408
   37MOL0     H 5075  12.976   1.318   7.248 -0.6896  0.2913 -0.0676
   37MOL0     H 5076  12.903   1.386   6.973 -0.5981  0.5439  0.8743
   37MOL0     H 5077  13.081   1.365   6.971  0.6295  2.0383 -0.5519
   37MOL0     H 5078  13.027   1.604   7.008  1.1421  1.2157  1.5929
   37MOL0     H 5079  12.940   1.560   7.156  0.4631 -1.5389  2.9104
   37MOL0     H 5080  13.231   1.517   7.089  1.5854  2.5932 -0.2017
   37MOL0     H 5081  13.150   1.478   7.240 -0.5806  0.5598  0.9770
   37MOL0     H 5082  13.094   1.698   7.292 -1.0267 -2.7146 -0.8809
   37MOL0     H 5083  13.142   1.768   7.140  0.4631 -0.6412 -1.6466
   37MOL0     H 5084  13.324   1.816   7.285 -1.5610  0.2115 -0.8432
   37MOL0     H 5085  13.387   1.685   7.191 -2.2359 -1.1742 -3.5976
   37MOL0     H 5086  12.502   0.901   7.061  0.3389  0.7001 -0.0047
   37MOL0     H 5087  12.246   0.907   7.089  0.8706 -0.7661 -0.4011
   37MOL0     H 5088  11.899   1.178   7.048 -1.2414  2.5967  0.0223
   37MOL0     H 5089  11.666   1.191   7.019 -1.9761 -2.2741 -0.4903
   37MOL0     H 5090   9.862   1.853   7.247 -2.8270 -0.1635  1.0979
   37MOL0     H 5091   9.616   1.865   7.243  2.8328  0.9090  1.7830
   37MOL0     H 5092   9.236   1.983   7.021  2.4003  1.0940  0.7082
   37MOL0     H 5093   9.001   2.048   7.007 -0.1831  0.6312 -0.8520
   37MOL0     H 5094   8.845   2.454   7.149  2.0481 -0.4024 -1.7087
   37MOL0     H 5095   8.721   2.340   7.113  0.9981 -0.1016 -1.3514
   37MOL0     H 5096   8.812   2.358   7.362 -0.4944 -0.1509 -0.4533
   37MOL0     H 5097   8.961   2.288   7.309 -0.2962  0.3038 -0.6214
   37MOL0     H 5098   8.696   2.144   7.291 -0.3449  0.9932 -1.3923
   37MOL0     H 5099   8.866   2.076   7.258  0.8506 -2.0771  3.8079
   37MOL0     H 5100   8.786   2.186   7.513 -1.1354  1.4684 -3.0956
   37MOL0     H 5101   8.946   2.130   7.485 -0.5043  0.3786  2.7825
   37MOL0     H 5102   8.791   1.747   7.534 -1.5727 -0.2748  1.8941
   37MOL0     H 5103   9.101   2.447   7.113  0.7478  0.3189 -1.2963
   37MOL0     H 5104   9.436   2.440   7.080  0.1538  0.4249 -0.0937
   37MOL0     H 5105   9.298   2.520   7.151  0.1298  0.6547 -1.8690
   37MOL0     H 5106   9.401   2.417   7.250 -1.4207 -1.3261  0.0996
   38MOL0     O 5107   7.373   4.727   1.099  0.5501 -0.0546  0.2111
   38MOL0     C 5108   7.291   4.654   1.154 -0.3815  0.6610  0.0825
   38MOL0     O 5109   7.317   4.581   1.271 -1.3975 -0.4428  0.1801
   38MOL0     C 5110   7.415   4.624   1.364 -0.1840 -0.2199  0.6083
   38MOL0     C 5111   7.478   4.748   1.365  0.8063 -0.1572 -0.0410
   38MOL0     C 5112   7.576   4.784   1.457  0.0797  0.7779 -0.9906
   38MOL0     C 5113   7.600   4.700   1.569 -0.3920 -0.2057  0.3456
   38MOL0     O 5114   7.686   4.722   1.669  0.1912 -0.2700 -0.1695
   38MOL0     C 5115   7.784   4.828   1.654 -0.2398 -0.0562 -0.2640
   38MOL0     C 5116   7.866   4.815   1.784 -0.1679 -0.3313 -0.0628
   38MOL0     C 5117   7.981   4.711   1.780 -0.9375  0.1420 -0.4067
   38MOL0     C 5118   8.053   4.701   1.920 -0.6868  0.1691  0.1779
   38MOL0     C 5119   8.194   4.647   1.911  0.2796 -0.8589 -0.7255
   38MOL0     C 5120   8.257   4.670   2.056 -0.8096  0.0705  0.0482
   38MOL0     C 5121   8.404   4.623   2.041  1.3521 -0.1550  0.5227
   38MOL0     C 5122   8.486   4.640   2.172  0.4694  0.8744  0.3075
   38MOL0     N 5123   8.617   4.569   2.163 -0.5119 -0.5882 -0.0305
   38MOL0     C 5124   8.695   4.570   2.052 -0.0150 -0.3870 -0.2422
   38MOL0     C 5125   8.813   4.530   2.093  0.2927 -0.3708 -0.8131
   38MOL0     C 5126   8.937   4.516   2.001  1.1050 -0.5278 -0.2118
   38MOL0     C 5127   9.060   4.450   2.062 -0.0087  0.1920  0.4999
   38MOL0     C 5128   9.175   4.454   1.959  0.6927 -0.3031  1.0272
   38MOL0     C 5129   9.289   4.362   1.987 -0.7566 -0.1226 -0.4827
   38MOL0     O 5130   9.359   4.411   2.098  0.1283 -0.3026  0.2157
   38MOL0     C 5131   9.489   4.382   2.120 -0.1388  0.6493 -0.0362
   38MOL0     C 5132   9.537   4.404   2.249  0.4902 -0.5290  0.2136
   38MOL0     C 5133   9.673   4.415   2.280 -0.2907  0.2519  0.0743
   38MOL0     C 5134   9.712   4.461   2.415 -0.1973  0.1119 -0.2439
   38MOL0     C 5135   9.768   4.375   2.184  0.1736  0.3503  0.1475
   38MOL0     C 5136   9.914   4.383   2.200 -1.2272  0.1316 -0.4384
   38MOL0     O 5137   9.973   4.346   2.321  0.0048  0.0173 -0.0640
   38MOL0     C 5138  10.100   4.368   2.356  0.2463 -0.6043  0.0305
   38MOL0     C 5139  10.131   4.389   2.492 -0.7149  0.8448 -0.5677
   38MOL0     C 5140  10.258   4.412   2.539  0.1984 -0.1929  0.1621
   38MOL0     C 5141  10.357   4.437   2.443  0.7690  0.0820 -0.0502
   38MOL0     O 5142  10.480   4.455   2.490  0.1595  0.0746 -0.4473
   38MOL0     C 5143  10.572   4.544   2.417 -0.6418  0.0020  0.0544
   38MOL0     C 5144  10.690   4.569   2.518 -0.4813 -0.9083  0.1419
   38MOL0     C 5145  10.656   4.650   2.647  0.4947  0.5633  0.1128
   38MOL0     C 5146  10.636   4.802   2.627  0.3514 -0.3214  0.0647
   38MOL0     C 5147  10.535   4.855   2.723 -0.3392  0.4418  1.1436
   38MOL0     C 5148  10.521   5.005   2.710 -0.0812 -0.3607  0.6920
   38MOL0     C 5149  10.442   5.065   2.824  0.3021  0.1175 -0.0987
   38MOL0     C 5150  10.295   5.028   2.830  0.0253  0.0377  0.5545
   38MOL0    Cl 5151  10.238   5.060   2.665  0.1230 -0.0091 -0.1634
   38MOL0     C 5152  10.336   4.404   2.309 -0.1974 -0.4487 -0.0977
   38MOL0     C 5153  10.209   4.367   2.269  0.5244  0.3698 -0.1187
   38MOL0     O 5154   9.976   4.405   2.099 -0.6308  0.0946  0.7177
   38MOL0     C 5155   9.717   4.321   2.065 -0.3677  0.0292 -0.9147
   38MOL0     C 5156   9.580   4.332   2.028 -1.0931 -0.4112 -0.4445
   38MOL0     N 5157   8.806   4.504   2.226 -0.1579  0.4341 -0.6009
   38MOL0     N 5158   8.692   4.534   2.268  0.3282 -0.0835  0.3837
   38MOL0     C 5159   7.545   4.573   1.569  0.5602 -0.3725  0.7321
   38MOL0     C 5160   7.453   4.537   1.467  0.1078  0.9818  0.5953
   38MOL0     C 5161   7.158   4.628   1.090 -0.2253  0.7020 -0.4095
   38MOL0     C 5162   7.072   4.530   1.150 -0.2532 -0.6645  1.0191
   38MOL0     C 5163   6.941   4.515   1.103 -0.0927 -0.7308 -0.2977
   38MOL0     C 5164   6.906   4.576   0.988 -0.4501 -0.3863  0.3382
   38MOL0     O 5165   6.778   4.565   0.934  0.3856 -0.0528 -0.3682
   38MOL0     C 5166   6.671   4.510   1.017 -0.8652  0.7142  0.1958
   38MOL0     C 5167   6.557   4.493   0.916  0.1940  1.2495 -0.3324
   38MOL0     C 5168   6.479   4.624   0.888 -0.2985  0.0329 -0.4485
   38MOL0     C 5169   6.348   4.594   0.822  0.1737 -0.2493 -0.0392
   38MOL0     C 5170   6.372   4.566   0.682 -0.6088  0.0722  0.4355
   38MOL0     C 5171   6.424   4.538   0.571  0.2676 -0.3826  0.3356
   38MOL0     C 5172   6.989   4.670   0.924  0.0843  0.5849 -0.9218
   38MOL0     C 5173   7.110   4.708   0.983  0.8018 -0.5025  0.7210
   38MOL0     C 5174   7.171   4.830   0.921 -0.0156 -0.1443 -0.0899
   38MOL0     H 5175   7.466   4.824   1.289 -0.2352  0.2913  0.5468
   38MOL0     H 5176   7.634   4.876   1.447  1.2584  0.1981  0.3124
   38MOL0     H 5177   7.747   4.931   1.654  0.1359  0.1174 -2.1933
   38MOL0     H 5178   7.845   4.813   1.565  0.1412  0.0766 -0.0271
   38MOL0     H 5179   7.919   4.909   1.802 -0.0379 -0.8603  2.8580
   38MOL0     H 5180   7.799   4.811   1.870  0.6935  3.1907  0.9519
   38MOL0     H 5181   7.944   4.615   1.743  1.3974 -1.4982  1.1926
   38MOL0     H 5182   8.053   4.739   1.702  0.3524  0.2431  0.7858
   38MOL0     H 5183   8.062   4.802   1.961 -4.2995  0.0863  1.5386
   38MOL0     H 5184   7.994   4.642   1.991 -1.7184  0.4129 -0.4468
   38MOL0     H 5185   8.255   4.701   1.838 -1.3189  1.2048 -0.6084
   38MOL0     H 5186   8.189   4.538   1.901 -0.7554 -0.9169  0.2319
   38MOL0     H 5187   8.254   4.777   2.079 -2.7741 -0.2507  1.4185
   38MOL0     H 5188   8.197   4.610   2.124 -0.1891 -1.4964 -0.7259
   38MOL0     H 5189   8.455   4.673   1.958  1.4605 -0.4604  0.4054
   38MOL0     H 5190   8.404   4.518   2.010 -0.2081  0.2828 -1.1246
   38MOL0     H 5191   8.493   4.746   2.196 -2.7172  1.4265 -0.8503
   38MOL0     H 5192   8.424   4.596   2.251  1.1187 -1.9896 -0.6688
   38MOL0     H 5193   8.662   4.608   1.955 -0.5213  3.3940  1.2625
   38MOL0     H 5194   8.960   4.614   1.956 -0.6482 -1.4522 -3.4475
   38MOL0     H 5195   8.916   4.452   1.915 -0.2468  0.6471 -0.8019
   38MOL0     H 5196   9.085   4.500   2.156 -2.6218  0.4088  1.1573
   38MOL0     H 5197   9.029   4.346   2.074  0.3213  0.2865  2.3956
   38MOL0     H 5198   9.128   4.418   1.867  1.0363  1.6905 -0.0010
   38MOL0     H 5199   9.205   4.559   1.955  1.1317 -0.4663 -0.5869
   38MOL0     H 5200   9.241   4.264   2.004 -1.8305  0.5776  0.6943
   38MOL0     H 5201   9.347   4.357   1.895 -1.6478  0.2062 -1.0695
   38MOL0     H 5202   9.461   4.441   2.316  0.6196  1.1049 -0.4844
   38MOL0     H 5203   9.778   4.546   2.394  1.7774 -1.7173 -1.9446
   38MOL0     H 5204   9.779   4.387   2.459  2.0805  0.9416 -2.0506
   38MOL0     H 5205   9.629   4.498   2.475 -0.0477  0.4166 -0.2228
   38MOL0     H 5206  10.048   4.395   2.562  0.4959  2.5111  0.8074
   38MOL0     H 5207  10.297   4.434   2.638  1.1688  0.9440 -0.4458
   38MOL0     H 5208  10.612   4.495   2.328 -1.7739 -3.9772  1.5055
   38MOL0     H 5209  10.521   4.637   2.390 -0.4613  0.8502  2.4243
   38MOL0     H 5210  10.720   4.470   2.554  4.2260  0.3765  0.4124
   38MOL0     H 5211  10.775   4.612   2.464 -2.2381 -0.1546 -2.2049
   38MOL0     H 5212  10.745   4.652   2.710 -0.0868 -0.0287  0.9616
   38MOL0     H 5213  10.574   4.600   2.698 -0.9127  2.3942 -0.2419
   38MOL0     H 5214  10.603   4.831   2.526 -0.6053  1.7442  0.9173
   38MOL0     H 5215  10.736   4.844   2.641  1.3820 -2.0402 -1.6302
   38MOL0     H 5216  10.439   4.808   2.700 -0.7320  0.6836  2.2539
   38MOL0     H 5217  10.561   4.836   2.828  2.1963 -1.6458  0.2471
   38MOL0     H 5218  10.498   5.041   2.610  1.4511 -2.0995 -0.3653
   38MOL0     H 5219  10.627   5.033   2.720 -0.1691  0.5714 -0.6863
   38MOL0     H 5220  10.448   5.174   2.823 -1.2712  0.2326  0.0460
   38MOL0     H 5221  10.489   5.041   2.920 -0.4997  1.4991  0.6812
   38MOL0     H 5222  10.247   5.098   2.900  0.2437  0.1263  0.6161
   38MOL0     H 5223  10.284   4.925   2.863  3.2235 -1.7558 -3.2152
   38MOL0     H 5224  10.413   4.405   2.232 -1.2967 -2.3642 -1.2994
   38MOL0     H 5225  10.215   4.354   2.162 -1.5502  1.7563 -0.4606
   38MOL0     H 5226   9.784   4.281   1.990  1.0065 -0.4416  0.4935
   38MOL0     H 5227   9.551   4.292   1.931 -1.1429 -0.0015 -0.5969
   38MOL0     H 5228   7.563   4.506   1.652  1.2321 -1.5549 -0.3391
   38MOL0     H 5229   7.405   4.440   1.472 -1.1456  1.6367  2.3568
   38MOL0     H 5230   7.093   4.476   1.242  1.6850 -1.3525  0.2184
   38MOL0     H 5231   6.873   4.449   1.157  0.1610 -0.5463  0.2612
   38MOL0     H 5232   6.703   4.411   1.051 -0.4761  0.9745  0.5849
   38MOL0     H 5233   6.643   4.567   1.106  0.7585 -3.5986  3.8502
   38MOL0     H 5234   6.490   4.416   0.953 -0.1653  0.8606 -1.7443
   38MOL0     H 5235   6.586   4.459   0.816  0.5277  1.0004 -0.1536
   38MOL0     H 5236   6.452   4.669   0.984 -0.9077  1.2390 -1.1595
   38MOL0     H 5237   6.528   4.700   0.827 -1.5804  1.6634  0.4772
   38MOL0     H 5238   6.290   4.686   0.827  0.0263 -0.4128  2.2920
   38MOL0     H 5239   6.302   4.514   0.880  0.3557  0.9742  1.8596
   38MOL0     H 5240   6.466   4.511   0.477 -1.2721 -1.3575 -0.1268
   38MOL0     H 5241   6.940   4.722   0.843  0.4525 -1.9747 -2.9008
   38MOL0     H 5242   7.205   4.893   1.003  1.2961 -1.8703  0.7773
   38MOL0     H 5243   7.259   4.810   0.858  0.1671  1.5181 -0.3942
   38MOL0     H 5244   7.095   4.888   0.869 -1.8872 -0.3335  2.2709
   39MOL0     O 5245   2.522   0.391   9.389  0.1175  0.1983  0.5089
   39MOL0     C 5246   2.476   0.497   9.425 -0.1540  0.3950 -0.2134
   39MOL0     O 5247   2.547   0.612   9.444  0.0679  0.3285  0.4582
   39MOL0     C 5248   2.683   0.604   9.459  1.0797 -0.3714  1.2472
   39MOL0     C 5249   2.729   0.549   9.583  0.3868 -0.7588 -0.3312
   39MOL0     C 5250   2.867   0.533   9.604  0.3663 -0.7879  0.2503
   39MOL0     C 5251   2.952   0.568   9.493  0.3762  0.3764 -0.0737
   39MOL0     O 5252   3.083   0.554   9.517  0.1563  0.4590  0.1084
   39MOL0     C 5253   3.183   0.571   9.417  0.4069 -0.5612  0.8658
   39MOL0     C 5254   3.316   0.548   9.499  0.0899  0.2485  0.4646
   39MOL0     C 5255   3.386   0.683   9.519  0.3452 -0.2531  0.2121
   39MOL0     C 5256   3.504   0.681   9.621  0.4243  1.0859  0.1566
   39MOL0     C 5257   3.574   0.806   9.624 -0.5889  0.6686  0.4411
   39MOL0     C 5258   3.658   0.811   9.751 -0.0953  1.1297 -1.3203
   39MOL0     C 5259   3.751   0.936   9.763  0.2543  0.2687 -0.3135
   39MOL0     C 5260   3.800   0.964   9.901 -0.9411  0.5129  0.2982
   39MOL0     N 5261   3.901   0.867   9.942 -0.2257  0.7212 -0.5165
   39MOL0     C 5262   4.038   0.899   9.934 -0.7102  0.4083  0.2593
   39MOL0     C 5263   4.094   0.786   9.990  0.2713  0.3636  0.0873
   39MOL0     C 5264   4.238   0.753   9.985  0.2389 -0.0256  0.0424
   39MOL0     C 5265   4.290   0.719  10.129  0.7051 -0.6173  0.3061
   39MOL0     C 5266   4.287   0.839  10.226  0.8157  0.1641 -0.0823
   39MOL0     C 5267   4.365   0.809  10.357 -0.3113 -0.1223  0.5154
   39MOL0     O 5268   4.508   0.800  10.333  0.0490 -0.7892 -0.4576
   39MOL0     C 5269   4.583   0.740  10.434  0.2718 -1.4729 -0.1391
   39MOL0     C 5270   4.550   0.749  10.572 -0.3231  0.2136 -0.6492
   39MOL0     C 5271   4.640   0.695  10.672 -0.5357  0.5360 -0.2028
   39MOL0     C 5272   4.594   0.696  10.820 -0.7622  0.4355  1.3418
   39MOL0     C 5273   4.760   0.634  10.628  0.3103 -0.4000  0.2196
   39MOL0     C 5274   4.859   0.568  10.700  0.7610 -0.9011 -0.5017
   39MOL0     O 5275   4.916   0.461  10.643  0.1030 -0.2684 -0.7532
   39MOL0     C 5276   5.035   0.411  10.693  0.1670 -0.0660  0.4150
   39MOL0     C 5277   5.154   0.412  10.618 -0.2829 -0.2804  0.1853
   39MOL0     C 5278   5.270   0.344  10.661  0.4693 -1.2486 -0.5046
   39MOL0     C 5279   5.277   0.291  10.784  1.5308 -0.3178 -0.0606
   39MOL0     O 5280   5.386   0.226  10.828 -0.1496  0.2694  0.9037
   39MOL0     C 5281   5.366   0.107  10.902 -0.4875  0.1446  0.5508
   39MOL0     C 5282   5.496   0.042  10.918 -0.0032 -0.0960 -0.1452
   39MOL0     C 5283   5.603   0.114  11.001  0.4181 -0.1183  0.1163
   39MOL0     C 5284   5.720   0.016  11.028 -0.7586  0.1403  0.0353
   39MOL0     C 5285   5.810   0.058  11.145  0.4412  0.1178 -0.3564
   39MOL0     C 5286   5.898   0.180  11.119 -0.0958  0.0567  0.5695
   39MOL0     C 5287   6.002   0.196  11.234 -0.4645  0.3662  0.2483
   39MOL0     C 5288   6.095   0.317  11.213  0.1850  0.3811  0.5357
   39MOL0    Cl 5289   6.181   0.302  11.055 -0.5239  0.4548  0.2815
   39MOL0     C 5290   5.161   0.302  10.867  1.0068  0.4728  0.6320
   39MOL0     C 5291   5.040   0.360  10.815 -1.0661  0.4740 -0.2286
   39MOL0     O 5292   4.893   0.629  10.804  0.2298  0.1263  0.0543
   39MOL0     C 5293   4.788   0.632  10.485 -0.3121 -0.4412 -1.5080
   39MOL0     C 5294   4.700   0.685  10.394  0.6098 -0.4827  0.3147
   39MOL0     N 5295   3.996   0.700  10.033 -0.0083  0.4394  0.2810
   39MOL0     N 5296   3.876   0.749  10.008 -0.6025 -0.6126 -0.8757
   39MOL0     C 5297   2.903   0.630   9.382 -0.9199 -0.3613  0.6678
   39MOL0     C 5298   2.770   0.634   9.358 -0.3442  0.1099 -0.0555
   39MOL0     C 5299   2.328   0.520   9.419 -0.1433 -0.2017  0.2472
   39MOL0     C 5300   2.251   0.450   9.320 -0.4495 -0.5172 -0.0243
   39MOL0     C 5301   2.122   0.491   9.286  0.8418 -0.5589 -0.8202
   39MOL0     C 5302   2.054   0.587   9.367 -0.0485  0.0171  0.6481
   39MOL0     O 5303   1.930   0.630   9.339 -0.0650 -0.5053  0.0138
   39MOL0     C 5304   1.886   0.633   9.201  0.4432  0.1112  0.4060
   39MOL0     C 5305   1.764   0.531   9.201 -0.1828 -0.4289 -0.3462
   39MOL0     C 5306   1.639   0.591   9.270 -0.6305  0.4740  1.6157
   39MOL0     C 5307   1.534   0.488   9.289  0.2952  0.2599 -0.2858
   39MOL0     C 5308   1.467   0.455   9.164 -0.1370 -0.1461  0.0504
   39MOL0     C 5309   1.407   0.448   9.059  0.2675 -0.5177  0.5290
   39MOL0     C 5310   2.117   0.629   9.485  0.2764  0.5410 -0.6626
   39MOL0     C 5311   2.256   0.611   9.498 -0.4870  0.0229 -0.3231
   39MOL0     C 5312   2.322   0.679   9.615  0.7833  0.2592  0.7321
   39MOL0     H 5313   2.654   0.517   9.654  0.2271  0.3502  0.0257
   39MOL0     H 5314   2.897   0.490   9.700  2.0333 -1.0534 -0.3561
   39MOL0     H 5315   3.178   0.675   9.382  4.2001 -0.1746  1.0112
   39MOL0     H 5316   3.179   0.503   9.332  2.6949  1.1569 -0.7688
   39MOL0     H 5317   3.300   0.501   9.596  1.8069  3.3696  2.4372
   39MOL0     H 5318   3.377   0.483   9.436  1.9988 -1.3343  3.6573
   39MOL0     H 5319   3.432   0.711   9.424  1.0991  0.4837  0.7810
   39MOL0     H 5320   3.311   0.753   9.558 -0.9406 -1.4971  0.0609
   39MOL0     H 5321   3.458   0.654   9.717 -0.1093 -0.1149 -0.4124
   39MOL0     H 5322   3.580   0.603   9.611 -0.7145 -0.1333  0.7682
   39MOL0     H 5323   3.502   0.888   9.628  0.0597  1.3060 -0.5101
   39MOL0     H 5324   3.630   0.812   9.530 -0.4936  0.0523  0.4490
   39MOL0     H 5325   3.582   0.808   9.829 -0.3524 -2.8258 -1.5339
   39MOL0     H 5326   3.717   0.721   9.770  0.0290  1.4810  0.1147
   39MOL0     H 5327   3.680   1.014   9.732  0.6874 -0.0554 -2.2677
   39MOL0     H 5328   3.835   0.946   9.693  0.3530 -0.4707 -0.3098
   39MOL0     H 5329   3.836   1.067   9.899  0.2881  0.0905 -1.6679
   39MOL0     H 5330   3.705   0.955   9.954 -0.2721 -0.1172  1.4232
   39MOL0     H 5331   4.091   0.982   9.888  2.0567 -1.3592 -0.0362
   39MOL0     H 5332   4.300   0.836   9.951  1.9216 -1.2999 -0.1199
   39MOL0     H 5333   4.258   0.672   9.914  0.0028  1.3444 -1.6310
   39MOL0     H 5334   4.229   0.636  10.165 -1.3885 -0.7253 -3.0262
   39MOL0     H 5335   4.395   0.691  10.113  1.2964  1.5048  0.2121
   39MOL0     H 5336   4.333   0.928  10.182 -1.2250  1.1533 -0.3142
   39MOL0     H 5337   4.180   0.860  10.231  0.5144 -1.4340  1.0033
   39MOL0     H 5338   4.345   0.896  10.420  2.5747 -2.3591  5.0196
   39MOL0     H 5339   4.326   0.717  10.401 -2.2246  0.3289 -0.1673
   39MOL0     H 5340   4.458   0.791  10.612 -0.6314  0.7801 -1.9113
   39MOL0     H 5341   4.487   0.720  10.826 -1.2292 -1.6067  1.7060
   39MOL0     H 5342   4.641   0.765  10.890  1.8582 -0.0418  0.1721
   39MOL0     H 5343   4.606   0.590  10.842  1.0461  0.4242  0.4586
   39MOL0     H 5344   5.158   0.459  10.520 -3.6366 -0.9302 -0.3644
   39MOL0     H 5345   5.362   0.350  10.603  1.3398  0.1494  0.9358
   39MOL0     H 5346   5.321   0.125  11.000 -0.9428 -0.9291  0.5473
   39MOL0     H 5347   5.304   0.041  10.841  0.8536  1.3243 -2.3142
   39MOL0     H 5348   5.467  -0.052  10.966 -3.0388  0.5865 -0.4379
   39MOL0     H 5349   5.532   0.010  10.819 -4.2443 -2.1777 -1.2804
   39MOL0     H 5350   5.562   0.152  11.095 -1.3732  2.7395 -1.6449
   39MOL0     H 5351   5.629   0.211  10.956 -1.0958  1.8159  3.0575
   39MOL0     H 5352   5.772  -0.002  10.933  1.2434  0.1786  1.0613
   39MOL0     H 5353   5.690  -0.086  11.052  0.4516  0.3059  2.5832
   39MOL0     H 5354   5.748   0.075  11.234  1.1697  0.1414  0.1548
   39MOL0     H 5355   5.872  -0.030  11.166  0.5134  1.1689  6.0264
   39MOL0     H 5356   5.842   0.272  11.103 -3.2116 -1.6940  0.7249
   39MOL0     H 5357   5.949   0.164  11.024  0.4784 -0.4259  0.9430
   39MOL0     H 5358   6.046   0.098  11.253  1.9278  1.1262 -0.9998
   39MOL0     H 5359   5.954   0.219  11.329 -2.4794  3.4882 -1.3284
   39MOL0     H 5360   6.177   0.332  11.284 -1.1732 -3.6993  3.3785
   39MOL0     H 5361   6.032   0.406  11.219 -2.9742 -1.5592 -1.2521
   39MOL0     H 5362   5.154   0.261  10.968 -1.7914  0.1036  0.3572
   39MOL0     H 5363   4.955   0.355  10.882 -0.7264  2.7559  0.4793
   39MOL0     H 5364   4.885   0.593  10.455  0.5014  1.8786 -2.1342
   39MOL0     H 5365   4.722   0.662  10.290 -0.9058 -1.1734  0.1291
   39MOL0     H 5366   2.974   0.655   9.304 -1.9127  1.0314  0.1617
   39MOL0     H 5367   2.729   0.672   9.265  0.2659  0.7373 -0.0731
   39MOL0     H 5368   2.306   0.383   9.255  0.9377  2.0443 -1.6719
   39MOL0     H 5369   2.078   0.435   9.205 -0.3032 -1.3974  0.3461
   39MOL0     H 5370   1.850   0.733   9.175 -0.9478 -0.6873 -0.9329
   39MOL0     H 5371   1.965   0.603   9.131  2.1501 -0.9620  2.6798
   39MOL0     H 5372   1.802   0.437   9.243 -3.1079 -0.4952  2.5029
   39MOL0     H 5373   1.738   0.505   9.098  2.4300 -1.0757 -0.9313
   39MOL0     H 5374   1.670   0.633   9.366  0.0450  1.5406  0.9482
   39MOL0     H 5375   1.600   0.679   9.218 -2.2360 -1.1180 -0.0237
   39MOL0     H 5376   1.454   0.529   9.351 -0.5962 -0.6855 -0.7845
   39MOL0     H 5377   1.562   0.397   9.342 -2.3490 -0.6911 -0.3806
   39MOL0     H 5378   1.363   0.419   8.966  1.3348  3.9167 -1.6130
   39MOL0     H 5379   2.046   0.683   9.546 -2.7850 -0.3005 -3.2051
   39MOL0     H 5380   2.381   0.600   9.662  0.4685 -0.6095 -0.2957
   39MOL0     H 5381   2.379   0.766   9.583  1.4800  1.0697  3.8353
   39MOL0     H 5382   2.243   0.708   9.685 -1.9026  1.2071 -2.4556
   40MOL0     O 5383   1.847   1.028   5.762  0.3009  0.5613 -0.0349
   40MOL0     C 5384   1.860   0.922   5.704  0.5925 -0.5127 -0.3088
   40MOL0     O 5385   1.930   0.899   5.592  0.0754  0.2918  0.3389
   40MOL0     C 5386   2.032   0.984   5.552 -0.2178 -0.7875 -0.5850
   40MOL0     C 5387   2.154   0.997   5.621 -0.1413  0.1672  0.1173
   40MOL0     C 5388   2.260   1.078   5.580  0.5239 -0.7743 -0.2421
   40MOL0     C 5389   2.248   1.148   5.464 -0.2606 -0.3148  0.5206
   40MOL0     O 5390   2.368   1.206   5.422 -1.0142 -0.4695 -0.2182
   40MOL0     C 5391   2.387   1.232   5.281  0.4144 -0.1203 -0.1288
   40MOL0     C 5392   2.532   1.275   5.250  0.1226 -0.3662 -0.0182
   40MOL0     C 5393   2.643   1.182   5.280  0.0501  0.8808  0.1554
   40MOL0     C 5394   2.782   1.227   5.238  0.5569 -0.1377 -0.0336
   40MOL0     C 5395   2.872   1.101   5.247 -0.0310 -0.2440 -0.1580
   40MOL0     C 5396   3.014   1.120   5.200  0.2998 -0.0883  0.0565
   40MOL0     C 5397   3.109   1.027   5.274 -0.0935  0.0431 -0.3515
   40MOL0     C 5398   3.249   1.060   5.234  0.0187 -0.4638  0.0826
   40MOL0     N 5399   3.339   0.959   5.293 -0.0191 -0.8812 -0.2738
   40MOL0     C 5400   3.377   0.839   5.235  0.0573 -1.0641 -0.0017
   40MOL0     C 5401   3.428   0.770   5.334  0.0323  0.7396 -0.3377
   40MOL0     C 5402   3.507   0.640   5.312 -0.2697 -0.3367 -0.2890
   40MOL0     C 5403   3.530   0.541   5.431  0.9018 -0.3843 -1.4127
   40MOL0     C 5404   3.393   0.496   5.472  0.7410 -0.2210 -0.3605
   40MOL0     C 5405   3.400   0.448   5.614 -0.1577 -1.0921  0.6154
   40MOL0     O 5406   3.281   0.379   5.645  0.2721 -0.1341  0.5644
   40MOL0     C 5407   3.229   0.394   5.770 -0.1441  0.4626  0.6168
   40MOL0     C 5408   3.312   0.388   5.881  0.6331  0.7985  0.3623
   40MOL0     C 5409   3.268   0.407   6.008 -0.1125  0.7186  0.0245
   40MOL0     C 5410   3.369   0.389   6.117  0.9030 -0.8300  0.1970
   40MOL0     C 5411   3.126   0.422   6.031 -0.0117  0.9930  0.1422
   40MOL0     C 5412   3.055   0.441   6.165 -0.2996  0.3392 -0.1209
   40MOL0     O 5413   2.924   0.474   6.158 -0.0979  0.4310  0.0255
   40MOL0     C 5414   2.851   0.487   6.274 -0.5515 -0.1895  0.3127
   40MOL0     C 5415   2.746   0.390   6.313  0.7690 -0.6155  0.6596
   40MOL0     C 5416   2.663   0.413   6.420 -0.1119 -0.3701  0.0480
   40MOL0     C 5417   2.683   0.528   6.494 -0.2192 -0.2060 -0.3196
   40MOL0     O 5418   2.605   0.571   6.589  0.2316 -0.2754 -0.2142
   40MOL0     C 5419   2.474   0.513   6.608 -0.5855 -0.9114 -0.8693
   40MOL0     C 5420   2.392   0.622   6.673 -0.1094 -0.5770  0.0517
   40MOL0     C 5421   2.340   0.720   6.563  0.3628  0.0282  0.3458
   40MOL0     C 5422   2.271   0.841   6.617  0.4013 -0.7862 -1.1811
   40MOL0     C 5423   2.229   0.943   6.518  0.3963 -0.2205  0.1780
   40MOL0     C 5424   2.342   1.008   6.434  0.9405  0.0311 -0.0958
   40MOL0     C 5425   2.455   1.052   6.526 -0.1649 -0.2787 -0.0593
   40MOL0     C 5426   2.560   1.119   6.440  0.4705 -0.4043 -0.3291
   40MOL0    Cl 5427   2.663   0.988   6.370 -0.7500 -0.4972  0.5331
   40MOL0     C 5428   2.786   0.621   6.461 -0.3036 -0.3903 -0.6100
   40MOL0     C 5429   2.872   0.605   6.351  0.4238  0.2484 -0.2279
   40MOL0     O 5430   3.119   0.430   6.272 -0.7010  0.1209  0.1365
   40MOL0     C 5431   3.045   0.431   5.920  0.5733  1.0297 -0.0126
   40MOL0     C 5432   3.097   0.408   5.794  1.0230 -0.3345  0.1732
   40MOL0     N 5433   3.420   0.840   5.454  0.6102 -0.7420  0.2427
   40MOL0     N 5434   3.362   0.957   5.424  0.1391  0.0788 -0.4071
   40MOL0     C 5435   2.128   1.137   5.384 -0.9750  0.7320  0.4381
   40MOL0     C 5436   2.016   1.064   5.434 -0.4236  0.5788 -0.0525
   40MOL0     C 5437   1.772   0.808   5.748 -0.3609  0.0009 -0.4204
   40MOL0     C 5438   1.751   0.697   5.656 -0.2210  0.1296 -0.5325
   40MOL0     C 5439   1.662   0.593   5.684  0.2405  0.0091  0.4686
   40MOL0     C 5440   1.601   0.586   5.808  0.5391  0.0023 -0.3574
   40MOL0     O 5441   1.501   0.495   5.851 -0.0969 -0.4501 -0.1275
   40MOL0     C 5442   1.469   0.389   5.768  0.4934  0.3631 -0.3334
   40MOL0     C 5443   1.384   0.282   5.840 -0.5805 -0.0034 -0.3233
   40MOL0     C 5444   1.283   0.349   5.928  0.1421 -0.3920 -0.1254
   40MOL0     C 5445   1.168   0.254   5.959 -0.3181 -0.5726 -0.0677
   40MOL0     C 5446   1.102   0.201   5.835 -0.2887 -0.7894 -0.3601
   40MOL0     C 5447   1.037   0.162   5.741  0.1504  0.3228 -0.3845
   40MOL0     C 5448   1.618   0.682   5.903 -0.4656 -0.1098 -0.0583
   40MOL0     C 5449   1.701   0.795   5.873  0.4430  0.5520  0.1365
   40MOL0     C 5450   1.725   0.897   5.985  0.0065  0.4003 -0.5002
   40MOL0     H 5451   2.152   0.930   5.706 -1.0744  3.1136  2.5781
   40MOL0     H 5452   2.351   1.076   5.638  0.7281  0.3130 -0.4958
   40MOL0     H 5453   2.321   1.307   5.236  0.8068 -0.3939 -1.1712
   40MOL0     H 5454   2.372   1.137   5.231 -1.3795 -0.6793  1.3639
   40MOL0     H 5455   2.540   1.299   5.144 -2.3934  1.9542  0.2148
   40MOL0     H 5456   2.560   1.366   5.302  0.6445 -0.5776  0.0740
   40MOL0     H 5457   2.646   1.162   5.387  2.1696 -0.3987 -0.0769
   40MOL0     H 5458   2.622   1.090   5.225 -2.9649  1.6052 -0.0756
   40MOL0     H 5459   2.788   1.264   5.135  1.9501 -1.3053 -0.3971
   40MOL0     H 5460   2.819   1.310   5.299 -2.4094  0.9025  0.4874
   40MOL0     H 5461   2.835   1.011   5.197  0.2720 -2.9775  4.0382
   40MOL0     H 5462   2.870   1.074   5.353 -0.5868  2.6140  0.6435
   40MOL0     H 5463   3.026   1.108   5.092 -2.9382  1.3920 -0.5720
   40MOL0     H 5464   3.040   1.226   5.210  0.1154 -0.1097  0.8368
   40MOL0     H 5465   3.077   0.924   5.257  0.1456 -0.3875  1.6238
   40MOL0     H 5466   3.089   1.051   5.379 -2.6768 -1.3519 -0.4399
   40MOL0     H 5467   3.252   1.048   5.125 -0.3317 -0.3622  0.0617
   40MOL0     H 5468   3.268   1.160   5.272 -2.1565  0.3492 -0.7787
   40MOL0     H 5469   3.367   0.827   5.127  0.5511 -2.5772  0.0963
   40MOL0     H 5470   3.603   0.672   5.272  0.2276 -0.4842  0.7520
   40MOL0     H 5471   3.457   0.581   5.235 -2.0403  0.0464  0.5215
   40MOL0     H 5472   3.590   0.455   5.401  0.4577 -0.5383 -1.8686
   40MOL0     H 5473   3.597   0.578   5.510  0.3341 -0.2686 -0.9802
   40MOL0     H 5474   3.312   0.569   5.460  0.8724 -0.2262 -1.3277
   40MOL0     H 5475   3.373   0.408   5.411  0.6412 -3.3532  3.7381
   40MOL0     H 5476   3.482   0.375   5.619 -0.5706 -1.5941  0.1656
   40MOL0     H 5477   3.416   0.519   5.696 -0.0402 -1.5401  0.9844
   40MOL0     H 5478   3.418   0.381   5.857  0.7671  3.1895 -0.0312
   40MOL0     H 5479   3.352   0.459   6.199 -1.8590 -0.6779 -0.4148
   40MOL0     H 5480   3.474   0.400   6.087  0.3430 -0.3555 -1.7080
   40MOL0     H 5481   3.369   0.289   6.163  2.0553 -0.8077  0.2815
   40MOL0     H 5482   2.735   0.296   6.260  1.0381 -0.2976  0.0247
   40MOL0     H 5483   2.585   0.343   6.446  1.1149 -1.1803  1.7441
   40MOL0     H 5484   2.437   0.498   6.506  0.7402 -0.2557 -1.4740
   40MOL0     H 5485   2.473   0.419   6.665 -2.1901  0.6077  1.7799
   40MOL0     H 5486   2.304   0.578   6.721 -1.1930 -0.2210 -1.5344
   40MOL0     H 5487   2.454   0.677   6.744 -1.5135  1.7501 -0.4053
   40MOL0     H 5488   2.262   0.673   6.502  1.8793  1.8959 -3.3682
   40MOL0     H 5489   2.427   0.737   6.499 -0.1648 -2.6028 -1.2177
   40MOL0     H 5490   2.318   0.894   6.699 -2.1388  0.1872 -0.2432
   40MOL0     H 5491   2.183   0.796   6.665 -0.8388 -1.2483 -3.6728
   40MOL0     H 5492   2.156   0.901   6.449  1.5276 -0.4781 -0.8960
   40MOL0     H 5493   2.179   1.026   6.569 -1.5640 -1.9730  1.2404
   40MOL0     H 5494   2.307   1.098   6.383  2.1525  0.6523  0.1321
   40MOL0     H 5495   2.374   0.935   6.359 -1.4489 -1.2932  0.0850
   40MOL0     H 5496   2.499   0.967   6.579  1.0671  2.0048  2.8415
   40MOL0     H 5497   2.418   1.129   6.594 -2.0734  1.3138 -2.7042
   40MOL0     H 5498   2.613   1.189   6.506 -1.0875 -0.4827  1.0625
   40MOL0     H 5499   2.530   1.177   6.352  0.7617  0.2511 -0.0022
   40MOL0     H 5500   2.792   0.713   6.519 -1.6498 -1.4359  1.3039
   40MOL0     H 5501   2.956   0.672   6.340  0.3009  0.4499  0.0343
   40MOL0     H 5502   2.938   0.435   5.937  0.2449 -2.2276 -0.5753
   40MOL0     H 5503   3.033   0.404   5.707 -0.9294 -1.4245  1.5904
   40MOL0     H 5504   2.121   1.184   5.286  3.6238 -4.0263 -2.7225
   40MOL0     H 5505   1.927   1.053   5.373 -0.5414  1.8050 -0.1199
   40MOL0     H 5506   1.799   0.687   5.559  1.5791 -1.3192  0.4276
   40MOL0     H 5507   1.645   0.512   5.615 -2.8747  0.7716  0.2151
   40MOL0     H 5508   1.405   0.418   5.683  1.5812  0.5295 -1.1126
   40MOL0     H 5509   1.564   0.344   5.739 -0.3651 -2.4546  0.8313
   40MOL0     H 5510   1.446   0.222   5.908  1.0217 -0.4710 -2.1238
   40MOL0     H 5511   1.349   0.214   5.762 -2.3525 -2.3979  2.3346
   40MOL0     H 5512   1.333   0.387   6.018 -1.5963  0.2143  0.6290
   40MOL0     H 5513   1.246   0.432   5.868  3.4717  0.8173 -0.7482
   40MOL0     H 5514   1.090   0.305   6.016 -1.4898 -2.2851 -0.0695
   40MOL0     H 5515   1.204   0.171   6.020  0.5209  0.5422  0.9983
   40MOL0     H 5516   0.975   0.122   5.663  0.5933 -2.0337  0.4088
   40MOL0     H 5517   1.560   0.678   5.995 -0.2089  0.6935  0.1510
   40MOL0     H 5518   1.683   0.863   6.080  1.4586  3.5648  1.4372
   40MOL0     H 5519   1.833   0.912   5.993  0.0590  0.5534 -1.4027
   40MOL0     H 5520   1.681   0.995   5.965  1.4866  1.3586  0.6282
   41MOL0     O 5521   8.872   6.400   0.988  0.5468 -0.5305  0.1831
   41MOL0     C 5522   8.878   6.506   1.042 -0.3316 -1.3172  0.3537
   41MOL0     O 5523   8.994   6.548   1.103  0.4409 -0.2134 -0.2544
   41MOL0     C 5524   9.120   6.497   1.077 -0.7714 -0.2909  0.7406
   41MOL0     C 5525   9.165   6.448   0.951  0.2912  0.3339 -0.0457
   41MOL0     C 5526   9.303   6.413   0.927 -0.2924  0.4116 -0.0423
   41MOL0     C 5527   9.394   6.427   1.032 -0.2005  0.0599  0.6798
   41MOL0     O 5528   9.518   6.395   0.996  0.1225  0.1721 -0.1779
   41MOL0     C 5529   9.596   6.343   1.108  0.3385 -0.5170  0.1445
   41MOL0     C 5530   9.734   6.307   1.051  0.7791  0.8680 -0.9902
   41MOL0     C 5531   9.817   6.432   1.030  0.0915 -0.4370  0.5853
   41MOL0     C 5532   9.959   6.398   0.982  0.0477  0.7576  0.2348
   41MOL0     C 5533  10.038   6.351   1.112  0.4279  0.0883  0.7481
   41MOL0     C 5534  10.088   6.477   1.193  0.8265  0.1061 -0.1340
   41MOL0     C 5535  10.205   6.447   1.286 -0.0730 -0.9647 -0.2767
   41MOL0     C 5536  10.324   6.418   1.207 -0.1461 -0.4563  0.2018
   41MOL0     N 5537  10.450   6.418   1.284  0.0199  0.4526 -0.0020
   41MOL0     C 5538  10.550   6.333   1.249 -0.6495  0.5628 -0.0827
   41MOL0     C 5539  10.632   6.319   1.355  0.8206 -0.6007  0.5182
   41MOL0     C 5540  10.756   6.235   1.345  0.6699  0.4948  0.1191
   41MOL0     C 5541  10.861   6.319   1.272 -0.3563  0.2524 -0.6877
   41MOL0     C 5542  10.974   6.230   1.266 -0.9455  0.7044  0.1255
   41MOL0     C 5543  11.092   6.283   1.184  0.7082  0.0905 -0.0634
   41MOL0     O 5544  11.200   6.187   1.195 -0.0178 -0.3102 -0.1368
   41MOL0     C 5545  11.308   6.202   1.112 -0.4156 -0.5148  0.9707
   41MOL0     C 5546  11.422   6.122   1.137 -0.2460  0.6616 -0.3477
   41MOL0     C 5547  11.542   6.133   1.063  0.0065  0.2502  0.3957
   41MOL0     C 5548  11.649   6.042   1.103 -0.4180  0.8048  0.8132
   41MOL0     C 5549  11.555   6.236   0.960  0.0894 -1.2358 -0.0620
   41MOL0     C 5550  11.675   6.269   0.888  0.0255  0.8012  0.1814
   41MOL0     O 5551  11.685   6.391   0.827  0.0321  0.1448  0.6871
   41MOL0     C 5552  11.778   6.424   0.729 -0.7002  0.1736  0.5181
   41MOL0     C 5553  11.917   6.390   0.727 -0.3629  0.3103 -0.4631
   41MOL0     C 5554  12.008   6.446   0.627 -0.6712  0.0905 -0.4119
   41MOL0     C 5555  11.965   6.529   0.526 -0.4285  0.7051  0.4302
   41MOL0     O 5556  12.040   6.575   0.415 -0.2584 -0.0120 -0.0035
   41MOL0     C 5557  12.176   6.519   0.390 -0.2063  0.3275 -0.5757
   41MOL0     C 5558  12.227   6.531   0.244  0.3749 -0.2813  0.0494
   41MOL0     C 5559  12.374   6.477   0.237  0.1427  0.4272  0.1883
   41MOL0     C 5560  12.419   6.481   0.099 -0.3621 -0.2094  0.0702
   41MOL0     C 5561  12.571   6.446   0.081 -0.6418  0.5067 -0.6177
   41MOL0     C 5562  12.606   6.452  -0.057 -0.0622  0.0508 -1.1684
   41MOL0     C 5563  12.738   6.382  -0.101 -0.1388  0.4315  0.1144
   41MOL0     C 5564  12.747   6.404  -0.253  0.1692  0.1066  0.3563
   41MOL0    Cl 5565  12.873   6.313  -0.332 -0.3133 -0.2456  0.2248
   41MOL0     C 5566  11.829   6.554   0.524 -0.1946  0.5907  0.5256
   41MOL0     C 5567  11.745   6.514   0.624 -0.0086 -0.3239 -1.5358
   41MOL0     O 5568  11.763   6.178   0.873  0.1108 -0.4273  0.0051
   41MOL0     C 5569  11.438   6.313   0.929  0.1222  0.4391 -0.4458
   41MOL0     C 5570  11.315   6.290   1.004 -1.0381  0.2249  0.3098
   41MOL0     N 5571  10.580   6.391   1.458  0.5780  0.3907  0.1698
   41MOL0     N 5572  10.468   6.445   1.418  0.0710 -0.8814 -0.3892
   41MOL0     C 5573   9.359   6.478   1.153  0.4994 -0.7915  0.2314
   41MOL0     C 5574   9.223   6.516   1.169  0.5899 -0.6166 -0.4095
   41MOL0     C 5575   8.748   6.593   1.058 -0.8834  0.7538  0.0014
   41MOL0     C 5576   8.746   6.695   1.153 -0.1306  0.6366 -0.6556
   41MOL0     C 5577   8.636   6.773   1.187 -0.1513  0.6361  0.2697
   41MOL0     C 5578   8.520   6.759   1.109 -0.4196 -0.5686 -0.1982
   41MOL0     O 5579   8.417   6.851   1.127  0.7250  0.4853  0.5317
   41MOL0     C 5580   8.286   6.805   1.083  0.1609  0.4580 -0.5717
   41MOL0     C 5581   8.173   6.902   1.132 -0.0054 -0.2349  0.0921
   41MOL0     C 5582   8.040   6.827   1.101  0.0223 -0.7401  0.6004
   41MOL0     C 5583   7.926   6.926   1.077  0.1069 -0.3157  0.9094
   41MOL0     C 5584   7.792   6.868   1.098  0.3428 -0.4079  0.8426
   41MOL0     C 5585   7.682   6.817   1.105  0.1166 -0.1037  0.1481
   41MOL0     C 5586   8.515   6.656   1.018  0.3809  0.4718 -0.0323
   41MOL0     C 5587   8.625   6.567   0.993  0.2074  0.4681 -0.0065
   41MOL0     C 5588   8.586   6.461   0.893 -0.1392 -0.6444  0.0945
   41MOL0     H 5589   9.101   6.439   0.863  1.6005 -0.0697 -0.9901
   41MOL0     H 5590   9.334   6.379   0.829  1.6698  0.4429  0.5280
   41MOL0     H 5591   9.538   6.267   1.162 -2.4409  1.0731 -0.4219
   41MOL0     H 5592   9.609   6.420   1.183 -0.5948 -1.3771  1.2303
   41MOL0     H 5593   9.787   6.240   1.119 -0.1972 -0.1844 -1.2288
   41MOL0     H 5594   9.726   6.253   0.956  1.6767 -0.4665 -0.3390
   41MOL0     H 5595   9.774   6.494   0.952 -0.4709 -1.4155  0.0929
   41MOL0     H 5596   9.824   6.488   1.123 -1.0496  0.9110 -0.1080
   41MOL0     H 5597   9.971   6.321   0.906  0.9500  1.8286 -0.7432
   41MOL0     H 5598  10.008   6.482   0.933 -1.8952  1.0536 -1.3181
   41MOL0     H 5599  10.123   6.294   1.074 -0.2212 -0.1856 -0.3290
   41MOL0     H 5600   9.988   6.285   1.183  4.2984 -0.8679  2.8580
   41MOL0     H 5601  10.125   6.546   1.115  0.1306  2.0449  1.1709
   41MOL0     H 5602  10.009   6.530   1.246  1.5746  1.5654 -0.3954
   41MOL0     H 5603  10.173   6.356   1.339 -1.9771  1.0234  2.3042
   41MOL0     H 5604  10.223   6.528   1.358 -1.6888 -2.1765  1.6305
   41MOL0     H 5605  10.318   6.331   1.140  0.1390  1.6115 -2.6937
   41MOL0     H 5606  10.342   6.494   1.130  2.6786 -1.5405 -0.3152
   41MOL0     H 5607  10.566   6.296   1.148 -1.5076  2.0849 -0.8127
   41MOL0     H 5608  10.742   6.134   1.308  1.4117  0.5271 -0.2795
   41MOL0     H 5609  10.784   6.213   1.448  0.3138 -1.6257 -0.1935
   41MOL0     H 5610  10.822   6.341   1.172 -1.1138  2.5411  0.0545
   41MOL0     H 5611  10.900   6.409   1.320  0.9354 -0.9356  0.6113
   41MOL0     H 5612  11.002   6.211   1.370 -1.1545  3.6411  0.8089
   41MOL0     H 5613  10.958   6.133   1.217  2.0955  1.3781 -2.5682
   41MOL0     H 5614  11.051   6.293   1.084 -0.2272  0.3206  0.3282
   41MOL0     H 5615  11.126   6.383   1.216 -1.2404  1.0148 -0.7122
   41MOL0     H 5616  11.414   6.043   1.211 -0.7834  2.0299  1.0933
   41MOL0     H 5617  11.675   5.983   1.014  0.8466  0.3492  1.4535
   41MOL0     H 5618  11.608   5.969   1.173  1.0051  1.1950  2.1069
   41MOL0     H 5619  11.735   6.089   1.151  0.9940 -0.1605 -0.6478
   41MOL0     H 5620  11.955   6.315   0.796 -3.0788 -2.0146 -1.2796
   41MOL0     H 5621  12.108   6.406   0.638 -0.1796  1.1851 -0.8002
   41MOL0     H 5622  12.245   6.569   0.459 -2.3999 -0.7975  2.6818
   41MOL0     H 5623  12.177   6.411   0.410  0.8888  0.3033 -0.6684
   41MOL0     H 5624  12.160   6.472   0.182  1.1510 -0.8397 -0.2801
   41MOL0     H 5625  12.225   6.635   0.211 -0.5895 -0.3467 -0.1144
   41MOL0     H 5626  12.378   6.373   0.270  0.9352  0.1655 -0.6800
   41MOL0     H 5627  12.445   6.539   0.292  2.0214 -3.1166  2.0910
   41MOL0     H 5628  12.395   6.582   0.064 -1.6462 -0.8510 -1.0194
   41MOL0     H 5629  12.357   6.417   0.036 -0.3067  0.2591 -0.4726
   41MOL0     H 5630  12.644   6.495   0.146  0.7074  0.4590 -2.0385
   41MOL0     H 5631  12.574   6.340   0.106  1.6672  0.1118 -2.2217
   41MOL0     H 5632  12.613   6.557  -0.085 -0.1121  0.6398  0.9218
   41MOL0     H 5633  12.522   6.409  -0.112 -0.4350  0.0268 -0.5892
   41MOL0     H 5634  12.738   6.281  -0.059 -1.0987  0.0044 -0.8844
   41MOL0     H 5635  12.819   6.438  -0.053 -0.8803  1.1634  0.5451
   41MOL0     H 5636  12.745   6.511  -0.276 -0.0897 -0.1081 -0.6636
   41MOL0     H 5637  12.660   6.367  -0.308  1.1909 -0.0476 -1.2221
   41MOL0     H 5638  11.796   6.609   0.436  1.5610  1.3625  0.2862
   41MOL0     H 5639  11.642   6.549   0.631  0.6024  1.2139  0.8688
   41MOL0     H 5640  11.444   6.388   0.851  0.6798 -0.1924 -1.0186
   41MOL0     H 5641  11.232   6.350   0.968 -0.5158  1.4989  1.1419
   41MOL0     H 5642   9.423   6.490   1.240 -0.3934 -1.9020  1.0834
   41MOL0     H 5643   9.195   6.566   1.261  2.8378 -0.5165  0.2568
   41MOL0     H 5644   8.839   6.719   1.204  0.9786 -0.8444 -1.8933
   41MOL0     H 5645   8.642   6.851   1.263 -2.4213  1.2193 -0.0786
   41MOL0     H 5646   8.286   6.795   0.974  1.8892 -0.0660 -0.5638
   41MOL0     H 5647   8.277   6.704   1.126  1.9331 -0.2484 -1.7585
   41MOL0     H 5648   8.190   7.003   1.094  0.6181  0.3450  1.8178
   41MOL0     H 5649   8.177   6.904   1.241  1.2775  1.3725  0.0613
   41MOL0     H 5650   8.038   6.755   1.018 -1.0568 -1.6067  1.3542
   41MOL0     H 5651   8.023   6.769   1.192  1.5342 -1.3465  0.5300
   41MOL0     H 5652   7.940   6.972   0.979 -1.0575 -0.2275  0.7735
   41MOL0     H 5653   7.935   7.009   1.148  1.4108  0.2406  0.1352
   41MOL0     H 5654   7.583   6.775   1.113 -0.5815  0.7088 -2.9114
   41MOL0     H 5655   8.439   6.640   0.942  1.1764 -2.7486 -0.2963
   41MOL0     H 5656   8.531   6.382   0.944 -1.9336 -1.9805 -3.5490
   41MOL0     H 5657   8.524   6.496   0.810  0.8276 -0.8312 -0.7200
   41MOL0     H 5658   8.676   6.418   0.849  1.2905 -0.6537  2.8169
   42MOL0     O 5659   5.455   6.569   5.013 -0.5809 -0.8806  0.0750
   42MOL0     C 5660   5.475   6.648   5.109 -0.0557  0.1874  0.1930
   42MOL0     O 5661   5.595   6.697   5.146 -0.3921  0.6044 -0.0112
   42MOL0     C 5662   5.698   6.710   5.053  0.5166  0.6175 -0.3454
   42MOL0     C 5663   5.822   6.673   5.090 -0.4499 -0.3717  0.4591
   42MOL0     C 5664   5.938   6.685   5.007 -0.2717 -0.4846  0.7719
   42MOL0     C 5665   5.928   6.739   4.874  0.4064 -0.3004 -0.1689
   42MOL0     O 5666   6.033   6.769   4.786  0.2657  0.3584 -0.0218
   42MOL0     C 5667   6.161   6.727   4.813 -0.4302  0.0968 -0.2168
   42MOL0     C 5668   6.261   6.763   4.693  0.9333 -0.2118 -0.3965
   42MOL0     C 5669   6.359   6.648   4.674 -0.1499  1.0464 -0.6340
   42MOL0     C 5670   6.484   6.674   4.591  1.0354  0.3068  0.1452
   42MOL0     C 5671   6.568   6.782   4.653  0.9575 -0.4942  0.1411
   42MOL0     C 5672   6.710   6.803   4.596 -1.0080 -0.2216  0.4185
   42MOL0     C 5673   6.801   6.910   4.676 -0.6622  0.1465 -0.1634
   42MOL0     C 5674   6.945   6.912   4.630 -0.0675  0.3460 -0.1982
   42MOL0     N 5675   7.009   7.037   4.683 -0.4766 -0.1244  0.8948
   42MOL0     C 5676   7.039   7.067   4.817 -0.0903 -0.2221 -0.3134
   42MOL0     C 5677   7.116   7.177   4.815 -0.0149  0.2107  0.3503
   42MOL0     C 5678   7.155   7.260   4.941 -0.2336 -0.1277 -0.5387
   42MOL0     C 5679   7.254   7.370   4.905  0.6979  0.9812 -0.6086
   42MOL0     C 5680   7.289   7.442   5.032 -0.7312  0.4578 -0.4708
   42MOL0     C 5681   7.384   7.561   5.010 -0.4593 -0.4060  0.5094
   42MOL0     O 5682   7.495   7.525   4.929 -0.1146  0.2116 -0.3947
   42MOL0     C 5683   7.623   7.547   4.982 -0.0925  0.3913 -0.9685
   42MOL0     C 5684   7.671   7.452   5.070 -0.1298  0.8802  0.7577
   42MOL0     C 5685   7.794   7.466   5.138 -0.4782  0.1622 -0.1825
   42MOL0     C 5686   7.848   7.347   5.221 -0.7115  0.6589  0.2663
   42MOL0     C 5687   7.875   7.577   5.111  0.3598 -0.5812  0.1674
   42MOL0     C 5688   8.003   7.609   5.173  0.5207  0.2969  1.2812
   42MOL0     O 5689   8.094   7.678   5.088 -0.1987 -0.1158  0.2977
   42MOL0     C 5690   8.227   7.697   5.124 -0.1363 -0.9732  0.5575
   42MOL0     C 5691   8.275   7.827   5.124  0.0810 -0.6257  0.3209
   42MOL0     C 5692   8.402   7.854   5.151 -0.0052 -0.0653 -1.0438
   42MOL0     C 5693   8.490   7.745   5.174  0.0196 -0.4255 -0.3548
   42MOL0     O 5694   8.622   7.771   5.193 -0.2004 -0.0799  0.2780
   42MOL0     C 5695   8.714   7.751   5.076  0.3421  0.4234  0.1907
   42MOL0     C 5696   8.848   7.730   5.129  1.0042 -0.3588  0.2378
   42MOL0     C 5697   8.963   7.719   5.029 -0.1195  0.5022 -0.4094
   42MOL0     C 5698   8.963   7.591   4.940 -0.0158  0.4170 -0.7354
   42MOL0     C 5699   9.093   7.581   4.873 -1.4472  0.2242  0.2411
   42MOL0     C 5700   9.104   7.489   4.762  0.8998  0.0433 -0.0634
   42MOL0     C 5701   9.253   7.469   4.714 -0.3532 -0.1365  1.0988
   42MOL0     C 5702   9.267   7.427   4.576 -0.0368  1.1140  0.8491
   42MOL0    Cl 5703   9.438   7.370   4.563  0.0455 -0.0787 -0.1919
   42MOL0     C 5704   8.439   7.618   5.177  0.0035  0.3696  0.7649
   42MOL0     C 5705   8.303   7.590   5.160 -0.2509  0.3653 -0.3029
   42MOL0     O 5706   8.027   7.565   5.278 -0.1475 -0.4771 -0.0092
   42MOL0     C 5707   7.830   7.672   5.018 -0.1482  0.4938  0.3718
   42MOL0     C 5708   7.707   7.653   4.956  0.0703 -0.2689 -0.6571
   42MOL0     N 5709   7.145   7.191   4.678  0.8928 -0.5863  0.0192
   42MOL0     N 5710   7.080   7.118   4.599  0.4450  0.4797 -0.1764
   42MOL0     C 5711   5.797   6.774   4.836 -1.0782  0.1234  0.5193
   42MOL0     C 5712   5.681   6.760   4.919 -0.0367 -0.1831  0.5186
   42MOL0     C 5713   5.359   6.682   5.196 -0.3534  1.0787 -0.1648
   42MOL0     C 5714   5.382   6.720   5.334  0.2271 -0.4275  0.5957
   42MOL0     C 5715   5.270   6.737   5.413 -0.6530 -0.3986 -0.4472
   42MOL0     C 5716   5.134   6.739   5.371  0.9156  0.3200 -0.5198
   42MOL0     O 5717   5.037   6.779   5.460 -0.0362  0.1685 -0.2697
   42MOL0     C 5718   4.905   6.744   5.413  0.6559  0.9261  0.1328
   42MOL0     C 5719   4.797   6.735   5.522 -0.5711 -0.3390 -0.7247
   42MOL0     C 5720   4.798   6.861   5.608  0.4270  0.1000 -0.3160
   42MOL0     C 5721   4.674   6.870   5.693  0.3826 -0.3551 -1.4742
   42MOL0     C 5722   4.692   6.780   5.816  0.2678 -0.6816  0.8613
   42MOL0     C 5723   4.698   6.723   5.927  0.2658 -0.3780  0.3821
   42MOL0     C 5724   5.116   6.698   5.242  0.9049 -0.4628 -0.1629
   42MOL0     C 5725   5.222   6.666   5.154 -0.7372 -0.2856  0.1236
   42MOL0     C 5726   5.172   6.623   5.022 -0.2883  0.1951 -0.2251
   42MOL0     H 5727   5.840   6.643   5.193 -1.8496 -0.1558  0.7971
   42MOL0     H 5728   6.033   6.653   5.049  1.8691 -0.9461 -3.8492
   42MOL0     H 5729   6.162   6.617   4.813  0.6334  0.0778 -1.4826
   42MOL0     H 5730   6.195   6.771   4.907  1.4237  1.1491 -1.3030
   42MOL0     H 5731   6.201   6.783   4.604 -1.7144  1.9819  1.7096
   42MOL0     H 5732   6.307   6.854   4.732 -1.5635  0.6833  0.6480
   42MOL0     H 5733   6.401   6.610   4.768 -2.5106 -1.5101 -0.4997
   42MOL0     H 5734   6.304   6.558   4.644  0.6715 -0.2235  1.4171
   42MOL0     H 5735   6.545   6.583   4.585  1.1042  0.4206 -1.2047
   42MOL0     H 5736   6.468   6.699   4.486  1.5355  1.6111  0.3661
   42MOL0     H 5737   6.583   6.762   4.759  2.6639  0.0448  0.0472
   42MOL0     H 5738   6.518   6.879   4.646 -1.2453 -1.3278  2.8646
   42MOL0     H 5739   6.765   6.713   4.570 -3.3440 -1.0811 -1.9950
   42MOL0     H 5740   6.692   6.851   4.499  0.6885 -2.2850 -0.9793
   42MOL0     H 5741   6.800   6.891   4.783 -1.7552  4.7019  0.8507
   42MOL0     H 5742   6.760   7.012   4.665  0.4161  1.0398  3.0218
   42MOL0     H 5743   6.999   6.824   4.666 -3.2368 -1.5152  0.4123
   42MOL0     H 5744   6.927   6.921   4.523 -3.7067  2.3061  0.4287
   42MOL0     H 5745   6.976   7.028   4.895 -1.4028 -0.1322 -1.2960
   42MOL0     H 5746   7.184   7.192   5.022 -0.6309 -0.5125 -0.7149
   42MOL0     H 5747   7.063   7.305   4.978 -0.1597 -0.2237 -0.2317
   42MOL0     H 5748   7.348   7.324   4.874  1.0841 -2.1005  4.0642
   42MOL0     H 5749   7.219   7.437   4.826  0.1988  1.3912 -0.0537
   42MOL0     H 5750   7.200   7.489   5.076 -0.1653  2.9368 -1.8025
   42MOL0     H 5751   7.332   7.367   5.099 -2.7245 -1.0619 -0.7782
   42MOL0     H 5752   7.339   7.649   4.964  1.6212 -0.4583 -1.8698
   42MOL0     H 5753   7.410   7.587   5.114 -0.5088 -1.3234  0.7631
   42MOL0     H 5754   7.607   7.369   5.099 -2.1133  1.4130 -1.6935
   42MOL0     H 5755   7.928   7.295   5.167 -1.4391  0.1887 -0.3803
   42MOL0     H 5756   7.768   7.273   5.222 -0.8619  0.7812 -0.9942
   42MOL0     H 5757   7.874   7.381   5.322  0.6126  0.7623 -0.0922
   42MOL0     H 5758   8.209   7.907   5.089 -0.1106 -1.5654 -1.5620
   42MOL0     H 5759   8.428   7.959   5.157 -4.6967  1.2352  1.1715
   42MOL0     H 5760   8.683   7.661   5.022  3.0668 -1.6055  1.6952
   42MOL0     H 5761   8.714   7.836   5.008  0.1849  1.4108  1.3841
   42MOL0     H 5762   8.868   7.816   5.194 -1.2949  1.2889 -1.0829
   42MOL0     H 5763   8.850   7.638   5.188  0.0965 -0.0183  0.8183
   42MOL0     H 5764   9.054   7.714   5.091 -0.5648 -0.0273  0.2202
   42MOL0     H 5765   8.959   7.810   4.968  0.0986 -0.7787 -2.4140
   42MOL0     H 5766   8.889   7.586   4.860 -0.9637  0.7737  0.0886
   42MOL0     H 5767   8.947   7.502   5.003  2.1001  1.7057  1.8348
   42MOL0     H 5768   9.114   7.683   4.839 -2.2094  0.8249  1.5201
   42MOL0     H 5769   9.179   7.562   4.937  0.9199 -1.8781 -3.2412
   42MOL0     H 5770   9.045   7.528   4.679  2.4060  1.8832 -0.3446
   42MOL0     H 5771   9.073   7.388   4.792  2.3958 -0.3156  0.3660
   42MOL0     H 5772   9.304   7.397   4.778  2.1253 -1.5072 -2.1343
   42MOL0     H 5773   9.304   7.565   4.721 -2.5114  1.4108 -1.9546
   42MOL0     H 5774   9.253   7.507   4.503 -0.4536  0.5583  0.3025
   42MOL0     H 5775   9.203   7.339   4.558  2.7766 -0.8002 -0.5068
   42MOL0     H 5776   8.507   7.533   5.177 -0.0567  0.2033 -2.0930
   42MOL0     H 5777   8.266   7.489   5.152 -1.8299  0.9903 -1.6391
   42MOL0     H 5778   7.888   7.757   4.983  0.8216 -1.9225 -4.9398
   42MOL0     H 5779   7.675   7.732   4.888  0.4466 -1.3379 -2.1193
   42MOL0     H 5780   5.780   6.809   4.735 -4.1366 -1.7764  0.2518
   42MOL0     H 5781   5.582   6.787   4.884 -0.5774 -2.5885  0.0258
   42MOL0     H 5782   5.482   6.720   5.375  1.0918 -0.2178 -1.3622
   42MOL0     H 5783   5.309   6.764   5.511 -0.5340  0.7045 -0.7825
   42MOL0     H 5784   4.877   6.828   5.349 -3.5192  1.4822  2.3540
   42MOL0     H 5785   4.916   6.641   5.379  2.6588  0.6295  1.5041
   42MOL0     H 5786   4.819   6.656   5.595 -0.0781  1.3992  1.1212
   42MOL0     H 5787   4.698   6.722   5.480 -1.9788  2.5581  1.3204
   42MOL0     H 5788   4.884   6.868   5.677 -1.1547 -0.0553  1.7709
   42MOL0     H 5789   4.807   6.948   5.542 -1.7368 -0.7398 -1.7944
   42MOL0     H 5790   4.588   6.843   5.632 -0.3642 -0.2281 -0.5027
   42MOL0     H 5791   4.655   6.971   5.729  1.0433 -0.0825 -1.8696
   42MOL0     H 5792   4.680   6.671   6.019 -1.8609  2.4953  1.7583
   42MOL0     H 5793   5.014   6.698   5.204 -0.3104 -0.3756  2.7951
   42MOL0     H 5794   5.079   6.672   4.990  0.9558  1.7360 -1.7013
   42MOL0     H 5795   5.240   6.637   4.937 -1.0592 -4.2999 -1.8404
   42MOL0     H 5796   5.150   6.518   5.042  0.0356 -0.0252 -0.9946
   43MOL0     O 5797  10.281   6.381   5.971 -0.8155 -0.4557 -0.5441
   43MOL0     C 5798  10.369   6.468   5.971  1.3261  0.1818  0.2146
   43MOL0     O 5799  10.487   6.454   5.904 -0.1220 -0.0952  0.0515
   43MOL0     C 5800  10.529   6.327   5.866  0.1718 -1.2623 -0.5315
   43MOL0     C 5801  10.559   6.231   5.962 -0.6770  0.0223  0.2968
   43MOL0     C 5802  10.615   6.107   5.928  0.3017  0.0004 -0.1609
   43MOL0     C 5803  10.633   6.076   5.788 -0.2260  0.3159  0.0480
   43MOL0     O 5804  10.688   5.962   5.738 -0.4013 -0.3626  0.0965
   43MOL0     C 5805  10.767   5.896   5.845  0.3478 -0.3710  0.6516
   43MOL0     C 5806  10.879   5.797   5.800  0.7063 -0.2240  0.1620
   43MOL0     C 5807  10.819   5.678   5.727  1.4391  0.4643  0.0873
   43MOL0     C 5808  10.928   5.566   5.686  0.0332 -0.7238 -0.0510
   43MOL0     C 5809  10.853   5.442   5.623 -0.6983  0.0094 -0.0304
   43MOL0     C 5810  10.940   5.334   5.573 -0.7058  0.1723 -0.0563
   43MOL0     C 5811  10.865   5.207   5.526  0.1806 -0.4221  0.3941
   43MOL0     C 5812  10.789   5.221   5.392 -0.2013 -0.3216 -0.9692
   43MOL0     N 5813  10.744   5.083   5.359 -0.0521 -1.0892  0.3264
   43MOL0     C 5814  10.821   4.982   5.298  0.0153  0.3747  0.2725
   43MOL0     C 5815  10.731   4.888   5.266 -0.0933  0.3698 -0.6172
   43MOL0     C 5816  10.749   4.747   5.205 -0.3370  0.2800 -0.0801
   43MOL0     C 5817  10.711   4.734   5.059 -0.0650  0.2888  0.3228
   43MOL0     C 5818  10.690   4.591   5.005  0.3437 -0.7386 -0.7518
   43MOL0     C 5819  10.788   4.488   5.052  0.5920 -0.2865 -0.5818
   43MOL0     O 5820  10.908   4.517   4.984  0.4895  0.4651  0.9059
   43MOL0     C 5821  11.000   4.427   4.939 -0.9312 -0.2117  0.3071
   43MOL0     C 5822  11.003   4.293   4.983  0.8329 -0.0509 -0.4408
   43MOL0     C 5823  11.106   4.207   4.942  0.4430 -0.2798  0.5882
   43MOL0     C 5824  11.099   4.072   4.996 -0.0148 -0.1514 -0.4433
   43MOL0     C 5825  11.202   4.255   4.845  0.0359  0.0079  0.3228
   43MOL0     C 5826  11.326   4.175   4.793 -0.3256 -0.1923  1.2223
   43MOL0     O 5827  11.390   4.235   4.680 -0.0315 -0.2053 -0.0841
   43MOL0     C 5828  11.490   4.176   4.605 -0.4459  0.6217  0.1322
   43MOL0     C 5829  11.571   4.269   4.531 -0.7678 -0.1003  0.1883
   43MOL0     C 5830  11.669   4.211   4.454 -0.6536  0.2695 -0.0701
   43MOL0     C 5831  11.704   4.075   4.451 -0.4253 -0.1878 -0.4850
   43MOL0     O 5832  11.803   4.020   4.370 -0.6881  0.3990  0.3788
   43MOL0     C 5833  11.888   4.102   4.297 -0.3968  0.1325  1.0285
   43MOL0     C 5834  12.010   4.020   4.254  0.0943  0.5801 -0.4881
   43MOL0     C 5835  12.123   4.098   4.179 -0.1376  0.6067 -0.0070
   43MOL0     C 5836  12.202   4.006   4.098  0.0243  0.2121  0.3649
   43MOL0     C 5837  12.136   3.951   3.972  0.1407 -0.2281  0.4318
   43MOL0     C 5838  12.235   3.892   3.870 -0.0068  0.8878  0.0717
   43MOL0     C 5839  12.169   3.868   3.732 -0.1037 -0.3908 -0.5615
   43MOL0     C 5840  12.273   3.904   3.617  1.0710  0.0028  0.2014
   43MOL0    Cl 5841  12.207   3.852   3.457 -0.2489  0.2226  0.0317
   43MOL0     C 5842  11.632   3.991   4.529  0.7099  0.1636  0.5141
   43MOL0     C 5843  11.526   4.040   4.601 -0.8245 -0.5199 -0.5597
   43MOL0     O 5844  11.365   4.083   4.862 -0.2271  0.2349  0.1239
   43MOL0     C 5845  11.188   4.385   4.793 -0.2115  0.1780  0.2956
   43MOL0     C 5846  11.092   4.466   4.849 -0.3526 -0.3652 -0.0243
   43MOL0     N 5847  10.603   4.931   5.301 -0.7913  0.0236 -0.1282
   43MOL0     N 5848  10.615   5.052   5.351  0.5725  0.2421  0.3773
   43MOL0     C 5849  10.585   6.177   5.699  0.3201  0.2975  0.4539
   43MOL0     C 5850  10.545   6.305   5.734 -0.1997 -0.1436 -0.0899
   43MOL0     C 5851  10.336   6.605   6.015  0.6027 -0.1055 -0.9306
   43MOL0     C 5852  10.420   6.705   5.963  0.0484 -0.6628  0.8051
   43MOL0     C 5853  10.415   6.838   6.011 -0.7524  0.5550 -0.7528
   43MOL0     C 5854  10.316   6.878   6.095 -0.4101 -0.6912  0.7618
   43MOL0     O 5855  10.310   7.016   6.117  0.2817  0.6118  0.2296
   43MOL0     C 5856  10.212   7.095   6.051  0.8760  0.7706 -0.0670
   43MOL0     C 5857  10.250   7.113   5.902  0.4587  0.5804  0.3803
   43MOL0     C 5858  10.375   7.204   5.883 -1.1907 -0.5719 -0.1212
   43MOL0     C 5859  10.450   7.192   5.754  0.8552 -0.4560  1.1778
   43MOL0     C 5860  10.576   7.277   5.747  0.8265  0.7923 -0.7608
   43MOL0     C 5861  10.666   7.352   5.746  0.8071 -0.2513  0.6463
   43MOL0     C 5862  10.226   6.787   6.145 -0.3586 -0.4587 -0.3814
   43MOL0     C 5863  10.236   6.650   6.111 -0.2953  0.8033 -0.4673
   43MOL0     C 5864  10.114   6.556   6.154 -0.2871 -1.8109 -0.6223
   43MOL0     H 5865  10.535   6.247   6.066 -2.4272  0.5974 -0.1669
   43MOL0     H 5866  10.640   6.041   6.010 -1.1370 -2.2850 -1.4443
   43MOL0     H 5867  10.694   5.837   5.901 -0.2452 -1.6722 -1.4000
   43MOL0     H 5868  10.812   5.960   5.922  2.3313 -0.4664 -0.3701
   43MOL0     H 5869  10.945   5.849   5.730 -1.0850  0.0613 -1.4061
   43MOL0     H 5870  10.924   5.759   5.892  2.9379  2.5247  0.3302
   43MOL0     H 5871  10.731   5.635   5.775  0.6359  3.2644  1.3367
   43MOL0     H 5872  10.786   5.716   5.630  0.5694  2.2353  1.0273
   43MOL0     H 5873  10.997   5.610   5.614 -0.5370 -0.5009 -0.4723
   43MOL0     H 5874  10.977   5.546   5.782 -0.0186  1.5005  0.5007
   43MOL0     H 5875  10.793   5.484   5.542 -2.1536 -2.7442 -0.4939
   43MOL0     H 5876  10.788   5.405   5.702 -0.9703  0.2801 -0.1280
   43MOL0     H 5877  10.999   5.370   5.488  1.2710 -0.3225  1.0374
   43MOL0     H 5878  11.008   5.303   5.653 -2.5931 -2.1939  0.7601
   43MOL0     H 5879  10.796   5.176   5.605 -1.6855  1.7032 -0.2936
   43MOL0     H 5880  10.930   5.120   5.515  0.7348 -0.0593  0.7368
   43MOL0     H 5881  10.706   5.293   5.393 -1.7377 -2.0078  0.5144
   43MOL0     H 5882  10.858   5.251   5.312  3.3926  0.1775  2.0146
   43MOL0     H 5883  10.928   4.973   5.281  0.1481  0.3473  1.0676
   43MOL0     H 5884  10.687   4.684   5.270 -2.0621  2.2478  0.2839
   43MOL0     H 5885  10.855   4.718   5.208 -0.2775  0.2943 -1.4619
   43MOL0     H 5886  10.626   4.799   5.035 -0.4927 -0.2231  0.4416
   43MOL0     H 5887  10.798   4.778   5.008  0.0268  0.1225  0.3374
   43MOL0     H 5888  10.591   4.562   5.040  0.9496 -1.3167  0.5363
   43MOL0     H 5889  10.684   4.600   4.896 -1.4934  1.2308 -0.5448
   43MOL0     H 5890  10.801   4.480   5.161 -1.5837 -1.2915 -0.3516
   43MOL0     H 5891  10.757   4.389   5.018 -1.9316  0.7538 -1.5728
   43MOL0     H 5892  10.930   4.262   5.058  0.6085 -1.4186 -1.1982
   43MOL0     H 5893  10.998   4.040   5.022  0.5110 -0.3321  1.5231
   43MOL0     H 5894  11.161   4.069   5.087 -0.3949 -0.4620 -0.1934
   43MOL0     H 5895  11.142   3.999   4.928  1.6113  0.3290  0.0211
   43MOL0     H 5896  11.553   4.376   4.535  3.1803  0.7883 -1.4265
   43MOL0     H 5897  11.730   4.268   4.385 -0.1680  0.7621  0.7478
   43MOL0     H 5898  11.837   4.149   4.212  1.7081  1.9074  0.6633
   43MOL0     H 5899  11.928   4.177   4.366  0.2176  0.7388  0.0303
   43MOL0     H 5900  12.046   3.974   4.347 -0.1882 -0.2810 -0.7928
   43MOL0     H 5901  11.978   3.933   4.196  1.1382 -0.3473  0.2768
   43MOL0     H 5902  12.192   4.141   4.251 -0.2487  1.1874 -0.2479
   43MOL0     H 5903  12.076   4.178   4.121  3.5753  1.8371 -1.5800
   43MOL0     H 5904  12.237   3.927   4.166  0.4528  1.5890  1.8076
   43MOL0     H 5905  12.295   4.054   4.068  0.5280 -0.1663  1.2651
   43MOL0     H 5906  12.053   3.885   4.000 -1.1697  0.4967 -1.5099
   43MOL0     H 5907  12.076   4.026   3.919  0.4366 -0.4626 -0.2543
   43MOL0     H 5908  12.274   3.797   3.909 -1.0886 -1.4027 -3.7705
   43MOL0     H 5909  12.320   3.957   3.849  0.6065 -0.6374 -2.6722
   43MOL0     H 5910  12.075   3.923   3.720  0.1919 -0.0908 -1.6848
   43MOL0     H 5911  12.147   3.761   3.726  0.1203 -0.3780 -2.5021
   43MOL0     H 5912  12.370   3.854   3.632  2.0774  1.3998 -1.2599
   43MOL0     H 5913  12.296   4.011   3.613  1.0625 -0.0119 -0.4999
   43MOL0     H 5914  11.657   3.885   4.526 -3.7973 -1.1370 -2.7352
   43MOL0     H 5915  11.459   3.972   4.653 -2.2500  1.3164  0.1328
   43MOL0     H 5916  11.263   4.428   4.727 -0.8844  1.6684  0.4602
   43MOL0     H 5917  11.077   4.569   4.816 -0.7083 -1.2322 -2.8451
   43MOL0     H 5918  10.580   6.151   5.593 -2.2742 -2.2321  1.0726
   43MOL0     H 5919  10.529   6.372   5.650  0.4464 -1.1478 -1.0504
   43MOL0     H 5920  10.498   6.693   5.888  1.0449 -0.5406  1.8026
   43MOL0     H 5921  10.479   6.919   5.977 -0.0037  0.4004  0.2663
   43MOL0     H 5922  10.113   7.047   6.054  1.3804 -0.2975  3.1925
   43MOL0     H 5923  10.215   7.199   6.082  0.9101  1.2918 -1.7177
   43MOL0     H 5924  10.169   7.170   5.856  0.4825 -0.8751 -1.5810
   43MOL0     H 5925  10.267   7.016   5.854  0.4602 -0.0337  1.5707
   43MOL0     H 5926  10.341   7.304   5.908  1.8360  0.5154  0.0867
   43MOL0     H 5927  10.449   7.181   5.960 -1.2413  3.3123  1.3047
   43MOL0     H 5928  10.374   7.221   5.680  0.9846 -0.9232  0.8519
   43MOL0     H 5929  10.484   7.088   5.748 -1.1045 -1.1734  1.7115
   43MOL0     H 5930  10.742   7.428   5.734  2.3108 -1.8349 -0.3647
   43MOL0     H 5931  10.150   6.825   6.212  0.9939  2.8594 -0.5620
   43MOL0     H 5932  10.153   6.462   6.194  1.7477 -1.1603 -0.9690
   43MOL0     H 5933  10.061   6.603   6.238  0.6910  0.4951 -1.2015
   43MOL0     H 5934  10.055   6.527   6.067 -0.4490  1.5587 -1.7910
   44MOL0     O 5935   7.994   1.395   0.971  0.1108 -0.6475  0.0696
   44MOL0     C 5936   7.893   1.426   0.900 -0.1303 -0.6768  0.0991
   44MOL0     O 5937   7.901   1.460   0.767 -0.1693 -0.8026  0.3562
   44MOL0     C 5938   8.021   1.421   0.706 -0.1147  0.1174  0.5627
   44MOL0     C 5939   8.101   1.519   0.653 -0.3523  0.4537  0.3957
   44MOL0     C 5940   8.210   1.478   0.569  0.1698 -0.2221 -0.8239
   44MOL0     C 5941   8.246   1.347   0.556 -0.3756 -0.8431 -0.5671
   44MOL0     O 5942   8.356   1.318   0.475  0.4109 -0.9522  0.0336
   44MOL0     C 5943   8.420   1.187   0.484  0.7534 -0.6980  0.4915
   44MOL0     C 5944   8.557   1.208   0.422  0.0957 -0.1766  0.5075
   44MOL0     C 5945   8.638   1.082   0.442 -0.6197  0.8825 -0.9107
   44MOL0     C 5946   8.777   1.101   0.384  0.2335  0.3702  0.4547
   44MOL0     C 5947   8.869   0.995   0.440  0.1753 -0.1236  0.3451
   44MOL0     C 5948   9.008   0.988   0.395  0.7328  0.7656  0.4106
   44MOL0     C 5949   9.072   0.863   0.456  0.6947 -0.1867 -0.3032
   44MOL0     C 5950   9.189   0.815   0.363 -0.3170  0.1927  0.0466
   44MOL0     N 5951   9.244   0.688   0.400 -0.1735  0.0524 -0.1560
   44MOL0     C 5952   9.328   0.613   0.326 -0.0565 -0.1513  1.0562
   44MOL0     C 5953   9.347   0.500   0.396 -0.0051  0.3048  0.0032
   44MOL0     C 5954   9.442   0.386   0.363  0.1550 -0.7904  0.2499
   44MOL0     C 5955   9.563   0.378   0.458 -0.7297  0.1113  0.0386
   44MOL0     C 5956   9.644   0.506   0.455  0.0749  0.9944  0.3308
   44MOL0     C 5957   9.780   0.503   0.528 -0.1097 -0.2418 -0.0980
   44MOL0     O 5958   9.829   0.640   0.514  0.5801 -0.2775 -0.2937
   44MOL0     C 5959   9.947   0.677   0.570  0.3173  0.2475 -0.5717
   44MOL0     C 5960   9.964   0.809   0.553 -0.0593  0.1673  0.2771
   44MOL0     C 5961  10.087   0.868   0.592 -0.0158  0.5773 -1.0117
   44MOL0     C 5962  10.107   1.013   0.587 -0.4104 -0.5129 -0.2946
   44MOL0     C 5963  10.183   0.790   0.667 -1.1763  0.6098 -0.7176
   44MOL0     C 5964  10.306   0.829   0.735 -0.3000 -0.6401  0.3730
   44MOL0     O 5965  10.363   0.737   0.823 -0.4323 -0.6355  0.3646
   44MOL0     C 5966  10.471   0.760   0.907 -0.4883  0.2730  0.6863
   44MOL0     C 5967  10.522   0.889   0.943  0.7970  0.6734 -0.5129
   44MOL0     C 5968  10.609   0.902   1.046  0.8557  0.0587 -0.1016
   44MOL0     C 5969  10.657   0.789   1.123  0.0710 -0.4710  0.6724
   44MOL0     O 5970  10.746   0.810   1.227  1.0855  0.2462  0.2492
   44MOL0     C 5971  10.826   0.698   1.273  0.6045  0.3222  0.7096
   44MOL0     C 5972  10.884   0.742   1.406  0.3758 -0.0398  0.7988
   44MOL0     C 5973  10.930   0.612   1.480 -0.5584 -0.2385 -0.9279
   44MOL0     C 5974  10.808   0.579   1.563  0.3690  0.5881 -0.0581
   44MOL0     C 5975  10.835   0.457   1.664 -0.5208  1.0182  0.1825
   44MOL0     C 5976  10.972   0.463   1.731 -0.5732  0.8697  0.7136
   44MOL0     C 5977  10.969   0.585   1.821 -1.0037  0.8536 -0.6497
   44MOL0     C 5978  11.056   0.563   1.946 -0.2351  0.3926  0.1823
   44MOL0    Cl 5979  11.213   0.520   1.881  0.3429 -0.0425  0.0467
   44MOL0     C 5980  10.603   0.662   1.088  0.5168 -1.3701 -0.2563
   44MOL0     C 5981  10.524   0.650   0.979 -0.2461  0.0275  0.9811
   44MOL0     O 5982  10.368   0.933   0.697 -0.0576  0.4017  0.4502
   44MOL0     C 5983  10.153   0.652   0.678  0.6929  0.1899  0.0087
   44MOL0     C 5984  10.032   0.597   0.637 -1.2188 -0.0007 -0.1535
   44MOL0     N 5985   9.270   0.511   0.513  0.5964  0.0019  0.6395
   44MOL0     N 5986   9.201   0.618   0.511 -0.2730  0.3562  0.2534
   44MOL0     C 5987   8.168   1.247   0.612 -0.6433 -0.3660 -0.2166
   44MOL0     C 5988   8.050   1.285   0.682 -0.1783  0.6357 -0.2649
   44MOL0     C 5989   7.762   1.435   0.971 -0.2701 -1.0921  0.9566
   44MOL0     C 5990   7.654   1.495   0.891  0.8611  0.9391 -1.1890
   44MOL0     C 5991   7.530   1.519   0.952  0.0141  0.0697  0.8205
   44MOL0     C 5992   7.509   1.503   1.090  0.5110 -0.5576  0.9879
   44MOL0     O 5993   7.390   1.530   1.151  0.1150  0.0364  0.4166
   44MOL0     C 5994   7.338   1.653   1.114 -0.3505  0.3305  0.1496
   44MOL0     C 5995   7.222   1.637   1.027  0.2623  0.1916 -0.3297
   44MOL0     C 5996   7.152   1.766   1.000  0.8595 -0.4341  0.3165
   44MOL0     C 5997   7.056   1.809   1.100  0.2938  0.4469 -0.3015
   44MOL0     C 5998   6.936   1.724   1.103  1.0689 -0.2790 -0.1817
   44MOL0     C 5999   6.847   1.638   1.107 -0.2178  0.3951  0.1556
   44MOL0     C 6000   7.609   1.456   1.162 -1.3063  0.3221  0.1258
   44MOL0     C 6001   7.736   1.418   1.111  0.3074  0.1690  0.1143
   44MOL0     C 6002   7.835   1.353   1.209 -0.6962  0.4569  0.5217
   44MOL0     H 6003   8.090   1.625   0.670  2.7976  1.1432 -1.1361
   44MOL0     H 6004   8.269   1.549   0.510  0.5205 -0.1595 -0.4061
   44MOL0     H 6005   8.363   1.113   0.427 -0.0877 -0.1350  0.5917
   44MOL0     H 6006   8.438   1.156   0.588  0.2301  2.3619  1.5740
   44MOL0     H 6007   8.541   1.218   0.314 -1.4429 -0.7568  0.6444
   44MOL0     H 6008   8.597   1.301   0.463 -0.8094  0.7608 -0.6519
   44MOL0     H 6009   8.641   1.055   0.548 -2.9644  2.2383 -0.4322
   44MOL0     H 6010   8.591   1.000   0.388  0.4120  0.8638 -1.8027
   44MOL0     H 6011   8.771   1.087   0.276 -1.3831 -2.9278  0.8524
   44MOL0     H 6012   8.822   1.198   0.409 -2.3251  1.3108  1.6970
   44MOL0     H 6013   8.826   0.904   0.396  2.1112  0.2353 -2.5219
   44MOL0     H 6014   8.859   0.991   0.549  1.7734 -3.1762  0.4843
   44MOL0     H 6015   9.013   0.979   0.286 -0.0528 -2.1995  0.5507
   44MOL0     H 6016   9.068   1.078   0.414  0.1915  0.9196  1.4570
   44MOL0     H 6017   9.005   0.778   0.469  1.7140 -1.0185 -0.3109
   44MOL0     H 6018   9.106   0.886   0.558 -0.9497 -0.4782  0.3319
   44MOL0     H 6019   9.148   0.811   0.262 -0.2214 -0.3703  0.0302
   44MOL0     H 6020   9.265   0.894   0.366 -2.3433  2.2529 -0.3900
   44MOL0     H 6021   9.364   0.638   0.227 -1.7648 -0.0064  0.4333
   44MOL0     H 6022   9.484   0.401   0.263  2.3743  0.2937  1.2722
   44MOL0     H 6023   9.370   0.304   0.370 -3.5058  2.2476  1.6254
   44MOL0     H 6024   9.534   0.353   0.560 -1.9991 -3.1842 -0.9944
   44MOL0     H 6025   9.624   0.297   0.416  1.5694  1.2756  0.9642
   44MOL0     H 6026   9.651   0.549   0.354 -1.7735  2.2182  0.6761
   44MOL0     H 6027   9.575   0.576   0.504 -1.4080  2.0700 -3.0007
   44MOL0     H 6028   9.764   0.478   0.633  3.1793  3.0661  1.4120
   44MOL0     H 6029   9.841   0.426   0.480 -1.1172 -1.0192 -0.1789
   44MOL0     H 6030   9.885   0.858   0.497  1.2703  3.6742  1.1879
   44MOL0     H 6031  10.202   1.045   0.541  2.2681 -0.9621  4.3168
   44MOL0     H 6032  10.113   1.056   0.687  0.7619 -0.1986 -0.4811
   44MOL0     H 6033  10.027   1.057   0.527  1.2969  1.2298 -1.4371
   44MOL0     H 6034  10.471   0.975   0.902  0.8866  0.9096 -0.1388
   44MOL0     H 6035  10.651   0.997   1.078  1.2060  0.0959 -0.6599
   44MOL0     H 6036  10.778   0.600   1.279  1.2252 -0.0025  0.4947
   44MOL0     H 6037  10.902   0.677   1.197 -0.9887 -2.6177 -0.2474
   44MOL0     H 6038  10.975   0.800   1.388  0.4016 -0.0458  0.9065
   44MOL0     H 6039  10.821   0.806   1.468 -0.3411  0.1416 -0.0944
   44MOL0     H 6040  11.025   0.628   1.532 -1.8246 -1.8796  2.1683
   44MOL0     H 6041  10.938   0.526   1.413 -2.4664 -1.8130  0.7237
   44MOL0     H 6042  10.716   0.558   1.508  0.1377 -4.0380  1.6637
   44MOL0     H 6043  10.778   0.664   1.625  1.9294  0.5285  0.8308
   44MOL0     H 6044  10.759   0.447   1.742  3.0061  0.0870  3.8336
   44MOL0     H 6045  10.841   0.366   1.604  3.0109 -0.7016  2.7807
   44MOL0     H 6046  11.061   0.451   1.668 -0.8161 -2.1720  0.7739
   44MOL0     H 6047  10.966   0.371   1.791  0.7491 -0.0457 -0.4853
   44MOL0     H 6048  10.865   0.606   1.848 -0.6457  1.3190  0.4014
   44MOL0     H 6049  11.002   0.676   1.770 -1.2962  0.8445 -0.8647
   44MOL0     H 6050  11.017   0.488   2.016 -3.3680  1.1979 -0.5680
   44MOL0     H 6051  11.067   0.656   2.002 -2.4095  0.9553 -0.2527
   44MOL0     H 6052  10.605   0.586   1.165  0.9616 -1.0255  0.0812
   44MOL0     H 6053  10.478   0.554   0.960 -0.8559  0.3823  0.6249
   44MOL0     H 6054  10.223   0.583   0.724  2.2876  0.7060 -1.5547
   44MOL0     H 6055  10.006   0.493   0.649  0.8652 -0.7337 -1.4174
   44MOL0     H 6056   8.197   1.145   0.588  2.0306  0.2208  0.2972
   44MOL0     H 6057   7.979   1.209   0.713 -0.6466  1.9881  2.1922
   44MOL0     H 6058   7.671   1.507   0.785  1.7243  0.4133 -1.1223
   44MOL0     H 6059   7.439   1.549   0.900 -0.0335  1.0777  1.4605
   44MOL0     H 6060   7.307   1.714   1.199 -1.8945 -1.1360  0.6963
   44MOL0     H 6061   7.410   1.716   1.062 -0.8805  1.5551  0.8577
   44MOL0     H 6062   7.153   1.577   1.086 -0.1025 -2.0249 -2.8117
   44MOL0     H 6063   7.236   1.573   0.939 -2.4523  1.6901 -2.0292
   44MOL0     H 6064   7.227   1.841   0.974  1.4204 -0.7227  1.0587
   44MOL0     H 6065   7.091   1.753   0.910 -2.2115  0.7426  2.0848
   44MOL0     H 6066   7.022   1.912   1.085 -0.5841  0.0847 -0.8776
   44MOL0     H 6067   7.104   1.804   1.199 -1.3767 -4.2773  0.5227
   44MOL0     H 6068   6.784   1.556   1.137  2.0286 -1.6069 -0.3086
   44MOL0     H 6069   7.594   1.446   1.269 -2.8012  1.7811  0.0995
   44MOL0     H 6070   7.875   1.425   1.282 -0.3472  0.9569 -0.1524
   44MOL0     H 6071   7.773   1.279   1.260 -2.1978  0.1055 -1.6676
   44MOL0     H 6072   7.912   1.286   1.170 -3.0615 -2.3140  0.3348
   45MOL0     O 6073   4.431   9.400   4.055 -0.6945 -0.0541  0.5985
   45MOL0     C 6074   4.314   9.362   4.073 -0.0995 -0.1948 -0.2479
   45MOL0     O 6075   4.257   9.371   4.196 -0.2683  0.3396  0.0187
   45MOL0     C 6076   4.331   9.411   4.311  0.4652  0.4332  0.8739
   45MOL0     C 6077   4.448   9.344   4.341  0.2534  0.4378 -0.8977
   45MOL0     C 6078   4.510   9.365   4.462 -0.3199  0.2363 -0.2811
   45MOL0     C 6079   4.466   9.465   4.555 -0.8814  0.0405  0.1893
   45MOL0     O 6080   4.534   9.474   4.673 -0.4107 -0.0263  0.0244
   45MOL0     C 6081   4.518   9.568   4.783 -0.6475 -0.3174 -0.0670
   45MOL0     C 6082   4.460   9.501   4.905 -0.4420 -0.2787 -0.0494
   45MOL0     C 6083   4.551   9.390   4.958  0.0673  0.8463  0.3911
   45MOL0     C 6084   4.462   9.322   5.063 -0.2477 -0.5610 -0.4906
   45MOL0     C 6085   4.535   9.279   5.188 -0.4889  0.5042  0.4460
   45MOL0     C 6086   4.631   9.166   5.163 -0.5288  0.0471  0.4194
   45MOL0     C 6087   4.709   9.123   5.288  0.1210 -0.1850 -0.0131
   45MOL0     C 6088   4.793   9.226   5.356 -0.0350  0.7947 -0.2205
   45MOL0     N 6089   4.889   9.281   5.255 -0.2280  0.0688 -0.0611
   45MOL0     C 6090   4.943   9.398   5.277 -0.3908 -0.6029  0.2929
   45MOL0     C 6091   5.037   9.408   5.177 -0.1082 -0.3591  0.9374
   45MOL0     C 6092   5.116   9.534   5.169  0.3973  0.0599 -0.4543
   45MOL0     C 6093   5.036   9.644   5.099  0.3943 -0.7100  0.0013
   45MOL0     C 6094   5.112   9.772   5.082 -0.4278  0.2608 -0.3919
   45MOL0     C 6095   5.149   9.845   5.217 -0.1466 -0.0211  0.2379
   45MOL0     O 6096   5.172   9.981   5.195 -0.7816  0.3991  0.1976
   45MOL0     C 6097   5.296  10.022   5.180 -0.2851 -0.2676  0.1225
   45MOL0     C 6098   5.419   9.953   5.182  0.2579 -0.3506 -0.7955
   45MOL0     C 6099   5.543  10.015   5.162  0.3629  0.4013 -0.1225
   45MOL0     C 6100   5.661   9.920   5.172  0.0747 -0.2401 -0.4724
   45MOL0     C 6101   5.552  10.152   5.136 -0.8705 -0.2565 -0.5629
   45MOL0     C 6102   5.691  10.226   5.126  0.3029  0.1079  0.3475
   45MOL0     O 6103   5.805  10.151   5.133 -0.2681 -0.1589  0.3607
   45MOL0     C 6104   5.931  10.209   5.105  0.4517  0.3795 -0.4645
   45MOL0     C 6105   5.951  10.332   5.045 -0.2491  0.2205 -0.2352
   45MOL0     C 6106   6.076  10.379   5.007  0.2393  0.7434 -0.9050
   45MOL0     C 6107   6.184  10.300   5.039  0.5664 -0.2878  0.0413
   45MOL0     O 6108   6.311  10.348   5.005 -0.6711  0.7580  0.4801
   45MOL0     C 6109   6.428  10.282   5.061 -0.3416 -0.1113 -0.1054
   45MOL0     C 6110   6.545  10.382   5.059  0.4529  0.5040 -0.1136
   45MOL0     C 6111   6.512  10.511   5.130  0.2171 -1.3434 -0.2019
   45MOL0     C 6112   6.624  10.556   5.226 -0.6236 -0.2309  0.1628
   45MOL0     C 6113   6.602  10.695   5.291  0.4759  0.0300  0.3968
   45MOL0     C 6114   6.676  10.736   5.415 -0.4466  1.0131  0.6410
   45MOL0     C 6115   6.644  10.880   5.460  0.1213 -0.1817 -0.0829
   45MOL0     C 6116   6.669  10.893   5.608  0.4106 -0.2323 -0.1731
   45MOL0    Cl 6117   6.578  11.029   5.662 -0.9976 -0.3403 -0.2165
   45MOL0     C 6118   6.168  10.172   5.101  0.3559  0.4800  0.5664
   45MOL0     C 6119   6.032  10.117   5.134 -0.4584 -0.5789  0.3315
   45MOL0     O 6120   5.684  10.349   5.131 -0.0272 -0.4449  0.0368
   45MOL0     C 6121   5.433  10.223   5.128  0.9398  0.3866  0.4003
   45MOL0     C 6122   5.306  10.162   5.150 -0.1000 -0.3733  0.2013
   45MOL0     N 6123   5.051   9.292   5.101  0.9980 -0.2279 -0.0061
   45MOL0     N 6124   4.950   9.220   5.147 -0.4263  0.2093 -0.0103
   45MOL0     C 6125   4.357   9.542   4.521  0.3781  0.2167 -0.8216
   45MOL0     C 6126   4.287   9.512   4.403 -0.3452 -0.1264  0.6977
   45MOL0     C 6127   4.232   9.321   3.949 -0.3760  0.5106  0.0340
   45MOL0     C 6128   4.290   9.237   3.857  0.5872 -0.3363  0.5583
   45MOL0     C 6129   4.214   9.174   3.757 -0.7171  0.2940 -0.1684
   45MOL0     C 6130   4.085   9.219   3.728  0.4700  0.0546 -0.1170
   45MOL0     O 6131   4.002   9.185   3.628  0.6072  0.0847  0.1809
   45MOL0     C 6132   4.010   9.048   3.580  0.3199 -0.2636  0.3262
   45MOL0     C 6133   3.940   8.958   3.677 -0.0413  0.3938  0.5027
   45MOL0     C 6134   3.790   9.004   3.685  0.0562  0.5346  0.0887
   45MOL0     C 6135   3.703   8.919   3.776  0.9872  0.3318  0.0679
   45MOL0     C 6136   3.707   8.777   3.733 -0.2103  0.8952  0.5630
   45MOL0     C 6137   3.722   8.665   3.677  0.1712 -0.2677  0.4098
   45MOL0     C 6138   4.020   9.305   3.816 -0.2585 -0.0586  0.1293
   45MOL0     C 6139   4.096   9.357   3.927  0.2458 -0.3450 -0.2697
   45MOL0     C 6140   4.006   9.421   4.029  0.4825 -0.2543  0.6399
   45MOL0     H 6141   4.482   9.265   4.276 -0.9831 -0.8735 -0.0227
   45MOL0     H 6142   4.603   9.316   4.489 -0.7259  0.7332  2.3869
   45MOL0     H 6143   4.469   9.663   4.756 -0.3705  0.4026  1.7823
   45MOL0     H 6144   4.616   9.596   4.824 -0.5434 -1.9639  0.8811
   45MOL0     H 6145   4.464   9.573   4.988  2.3103 -3.6789  3.0829
   45MOL0     H 6146   4.360   9.466   4.878 -0.0436 -0.7756 -0.9051
   45MOL0     H 6147   4.576   9.321   4.877 -1.6441  1.9445 -1.1473
   45MOL0     H 6148   4.642   9.436   4.999  0.5804  2.2948 -2.1593
   45MOL0     H 6149   4.392   9.401   5.093 -0.0800 -0.4672 -0.3487
   45MOL0     H 6150   4.403   9.249   5.007 -0.0883 -0.2545 -1.0679
   45MOL0     H 6151   4.468   9.255   5.271  0.3285  0.4462  1.1017
   45MOL0     H 6152   4.583   9.368   5.229  0.5989  0.5753 -0.9105
   45MOL0     H 6153   4.577   9.079   5.125  0.3532  0.3162 -1.5673
   45MOL0     H 6154   4.710   9.186   5.090 -1.1855  1.6548  0.1129
   45MOL0     H 6155   4.783   9.053   5.248 -1.1227 -1.4156 -0.1862
   45MOL0     H 6156   4.643   9.066   5.354  0.2555  0.0809  0.3566
   45MOL0     H 6157   4.734   9.302   5.409 -1.6184  0.6194 -1.6217
   45MOL0     H 6158   4.846   9.169   5.433 -0.8622 -1.2823 -1.1239
   45MOL0     H 6159   4.918   9.468   5.356 -1.1819 -0.2451 -0.2605
   45MOL0     H 6160   5.217   9.520   5.130  0.2576 -0.4797 -0.6270
   45MOL0     H 6161   5.134   9.572   5.270  0.3239 -0.9272 -0.0604
   45MOL0     H 6162   4.990   9.618   5.003 -0.2794  1.4178 -0.2990
   45MOL0     H 6163   4.945   9.668   5.155  0.0776  0.8287 -1.1059
   45MOL0     H 6164   5.204   9.747   5.029  0.0740  3.2787 -1.1754
   45MOL0     H 6165   5.063   9.836   5.008  3.2259  1.3558 -2.1163
   45MOL0     H 6166   5.055   9.852   5.274  0.0017  0.9762  0.3911
   45MOL0     H 6167   5.226   9.794   5.275 -0.3292 -1.3086 -0.6176
   45MOL0     H 6168   5.423   9.845   5.188 -0.5617 -0.3744 -0.5072
   45MOL0     H 6169   5.728   9.944   5.254 -0.5576  1.5041 -0.4166
   45MOL0     H 6170   5.725   9.923   5.083  1.2437  0.1781  0.3529
   45MOL0     H 6171   5.633   9.818   5.197  2.2913  0.1003  4.3621
   45MOL0     H 6172   5.875  10.409   5.034  1.1680  1.6847 -0.2456
   45MOL0     H 6173   6.078  10.475   4.956 -0.5168  1.5137  0.4547
   45MOL0     H 6174   6.406  10.241   5.160 -3.2217 -2.4210 -1.5502
   45MOL0     H 6175   6.442  10.194   4.997 -0.1338  0.6835 -1.1698
   45MOL0     H 6176   6.625  10.334   5.117 -1.8512 -0.5642  2.3962
   45MOL0     H 6177   6.584  10.404   4.960 -1.2618  1.6572 -0.5688
   45MOL0     H 6178   6.422  10.505   5.191  0.2914 -0.6851 -0.0129
   45MOL0     H 6179   6.490  10.591   5.059  0.9799 -1.5924 -0.7344
   45MOL0     H 6180   6.727  10.551   5.189  0.3589 -0.6626  2.7113
   45MOL0     H 6181   6.630  10.481   5.305 -2.6110 -0.3087  0.2992
   45MOL0     H 6182   6.626  10.768   5.213  0.5997  1.6937  1.9537
   45MOL0     H 6183   6.495  10.703   5.312  0.1319 -0.1275 -1.1420
   45MOL0     H 6184   6.784  10.719   5.419 -0.7416 -0.8892  2.4357
   45MOL0     H 6185   6.649  10.660   5.489  0.5879 -0.6131 -0.5692
   45MOL0     H 6186   6.540  10.897   5.434  1.1126  3.6541 -2.3448
   45MOL0     H 6187   6.700  10.951   5.399 -0.3737 -0.3395 -0.7225
   45MOL0     H 6188   6.776  10.913   5.620  0.5719  0.0647 -1.9249
   45MOL0     H 6189   6.642  10.800   5.658  0.9859 -0.6607 -0.6457
   45MOL0     H 6190   6.250  10.102   5.120 -0.3582 -0.4222  0.3887
   45MOL0     H 6191   6.020  10.017   5.175  0.5898 -1.6540 -1.8331
   45MOL0     H 6192   5.441  10.330   5.109  1.2989  0.0416 -1.5650
   45MOL0     H 6193   5.213  10.216   5.152  0.5330  0.8490 -1.5662
   45MOL0     H 6194   4.335   9.628   4.584 -0.7532  0.3227 -1.3344
   45MOL0     H 6195   4.199   9.568   4.372  0.8538  1.1641 -0.4665
   45MOL0     H 6196   4.395   9.215   3.873  1.0537  1.9452  1.0095
   45MOL0     H 6197   4.265   9.103   3.693  2.5959  1.0176  1.4304
   45MOL0     H 6198   3.963   9.057   3.481 -1.1781 -1.4624  0.8918
   45MOL0     H 6199   4.112   9.012   3.563  0.8179  0.8679  0.8619
   45MOL0     H 6200   3.978   8.965   3.779 -3.6507  1.6801  1.9476
   45MOL0     H 6201   3.953   8.854   3.644 -0.7892  0.0493  1.2512
   45MOL0     H 6202   3.790   9.102   3.733  0.3393 -0.1968  1.6507
   45MOL0     H 6203   3.744   9.023   3.587 -1.8007  2.6647  1.3024
   45MOL0     H 6204   3.601   8.955   3.762  0.6136  0.1503  2.0966
   45MOL0     H 6205   3.733   8.942   3.878 -0.4887  0.6392  0.4493
   45MOL0     H 6206   3.715   8.564   3.642 -0.9015 -0.2420  0.5163
   45MOL0     H 6207   3.915   9.323   3.796 -0.0271  1.0939 -0.0917
   45MOL0     H 6208   3.978   9.362   4.117 -1.0722  2.9586  2.5101
   45MOL0     H 6209   4.067   9.499   4.075 -1.2429  1.6089 -0.0813
   45MOL0     H 6210   3.921   9.470   3.981 -0.5977 -2.5011  0.1644
   46MOL0     O 6211   5.795   8.046   8.588  0.5207 -0.2317 -0.0824
   46MOL0     C 6212   5.731   7.972   8.518 -0.7832 -0.1989 -0.3003
   46MOL0     O 6213   5.773   7.932   8.392  0.6576 -0.4464 -0.3060
   46MOL0     C 6214   5.896   7.969   8.341  0.7310  0.3205  0.9279
   46MOL0     C 6215   5.901   8.007   8.205 -0.0995  0.2916 -0.0087
   46MOL0     C 6216   6.019   8.045   8.144  0.2189 -0.0527 -0.0419
   46MOL0     C 6217   6.140   8.035   8.213 -0.3275 -1.0157  0.3916
   46MOL0     O 6218   6.271   8.069   8.173  0.3319  0.8134 -0.5170
   46MOL0     C 6219   6.294   8.096   8.037  0.3560 -0.1484  0.0427
   46MOL0     C 6220   6.446   8.105   8.014  0.8668 -0.0099 -0.8813
   46MOL0     C 6221   6.486   8.115   7.866 -0.3539 -0.3064 -0.8196
   46MOL0     C 6222   6.457   8.248   7.803 -0.5401  0.4671  0.5842
   46MOL0     C 6223   6.481   8.261   7.655  0.0767 -0.9034 -0.3720
   46MOL0     C 6224   6.447   8.402   7.599  1.1537  0.8366 -0.8973
   46MOL0     C 6225   6.474   8.393   7.446  0.4295 -0.8028 -0.0812
   46MOL0     C 6226   6.417   8.508   7.357 -0.5424 -0.0846 -0.2885
   46MOL0     N 6227   6.500   8.626   7.378 -0.1350 -0.7954 -0.1783
   46MOL0     C 6228   6.612   8.653   7.304  0.7077  0.1726 -0.6270
   46MOL0     C 6229   6.658   8.762   7.358 -0.2930 -1.6450  0.1880
   46MOL0     C 6230   6.781   8.823   7.294 -0.0719  0.2695  0.4177
   46MOL0     C 6231   6.757   8.963   7.236  0.0194  0.4247 -0.4183
   46MOL0     C 6232   6.889   9.039   7.197 -0.5221  0.5309  0.8018
   46MOL0     C 6233   6.993   8.954   7.128 -0.1970 -0.0975 -0.2981
   46MOL0     O 6234   6.950   8.904   6.999 -1.1793 -0.5085 -0.0068
   46MOL0     C 6235   7.047   8.881   6.896  0.0909  0.2931 -0.4383
   46MOL0     C 6236   7.187   8.860   6.922  0.8205  0.5352  0.1350
   46MOL0     C 6237   7.275   8.819   6.824  0.1950  0.0224  0.7618
   46MOL0     C 6238   7.413   8.792   6.860 -0.5960  0.2033 -0.2117
   46MOL0     C 6239   7.230   8.812   6.687  0.3454  0.2501 -0.2841
   46MOL0     C 6240   7.313   8.760   6.568  0.6767 -0.5394  0.4209
   46MOL0     O 6241   7.266   8.796   6.436  0.6645  0.6493 -0.5511
   46MOL0     C 6242   7.346   8.818   6.334 -0.2707  0.9891  0.5978
   46MOL0     C 6243   7.453   8.739   6.303 -0.4927  0.0906  0.3336
   46MOL0     C 6244   7.515   8.741   6.173  0.3906  0.0579  0.2445
   46MOL0     C 6245   7.465   8.818   6.068 -0.2657  0.1202  0.2147
   46MOL0     O 6246   7.527   8.807   5.948 -0.1131 -0.2669  0.6839
   46MOL0     C 6247   7.450   8.857   5.829 -0.4587 -0.2886 -0.7565
   46MOL0     C 6248   7.352   8.756   5.780  0.0437 -0.6306 -0.7326
   46MOL0     C 6249   7.405   8.639   5.711 -0.9832  0.4264  0.1547
   46MOL0     C 6250   7.302   8.526   5.713 -0.3589 -0.5426 -0.5364
   46MOL0     C 6251   7.316   8.435   5.585 -0.4670 -0.0696 -0.2882
   46MOL0     C 6252   7.197   8.345   5.574 -0.1378  0.4945  0.2699
   46MOL0     C 6253   7.174   8.240   5.679  0.5149 -0.0220  0.2597
   46MOL0     C 6254   7.030   8.188   5.680 -0.1980 -0.3105 -0.0558
   46MOL0    Cl 6255   6.991   8.115   5.521  0.0196 -0.0779 -0.1773
   46MOL0     C 6256   7.358   8.903   6.104  1.0418  0.6348  0.3139
   46MOL0     C 6257   7.296   8.896   6.232  0.0340  0.1267  0.1882
   46MOL0     O 6258   7.411   8.686   6.593 -0.0111  0.1209 -0.4076
   46MOL0     C 6259   7.095   8.858   6.660  0.4599  0.3466  0.7330
   46MOL0     C 6260   7.000   8.875   6.760 -0.0822  0.3944  0.3697
   46MOL0     N 6261   6.573   8.803   7.462  0.1956 -0.2460 -0.0832
   46MOL0     N 6262   6.474   8.722   7.469 -0.6041  0.1784  0.6632
   46MOL0     C 6263   6.134   7.984   8.341  0.7357  0.4910  0.3917
   46MOL0     C 6264   6.016   7.936   8.404  0.1289 -0.1141 -0.3398
   46MOL0     C 6265   5.602   7.912   8.561  0.7088  0.0811  0.0726
   46MOL0     C 6266   5.561   7.786   8.508 -0.6352 -0.0365 -1.2185
   46MOL0     C 6267   5.437   7.725   8.535  0.3226  0.4104 -0.2906
   46MOL0     C 6268   5.351   7.781   8.629  0.4776 -0.0808 -0.3547
   46MOL0     O 6269   5.230   7.716   8.657 -0.0200 -0.0847  0.2866
   46MOL0     C 6270   5.144   7.769   8.764 -0.2556  0.5088 -0.0681
   46MOL0     C 6271   5.042   7.672   8.813  0.3966  0.3495  0.3265
   46MOL0     C 6272   4.952   7.626   8.700  0.0531 -0.1435 -0.1442
   46MOL0     C 6273   4.846   7.537   8.768 -0.0410  0.0781 -0.2115
   46MOL0     C 6274   4.779   7.445   8.670 -0.7919 -1.0280  1.0522
   46MOL0     C 6275   4.708   7.383   8.592  0.4071 -0.0509 -0.6866
   46MOL0     C 6276   5.394   7.902   8.695 -0.5631  0.7409 -0.5839
   46MOL0     C 6277   5.508   7.969   8.652  0.1880 -0.3507  0.2826
   46MOL0     C 6278   5.530   8.084   8.731  0.0139 -0.1219 -0.7903
   46MOL0     H 6279   5.805   8.004   8.154  0.4231 -0.6049 -0.9683
   46MOL0     H 6280   6.020   8.074   8.040  0.3772  1.1238  0.2762
   46MOL0     H 6281   6.240   8.186   8.006 -0.6651  0.2901  2.7641
   46MOL0     H 6282   6.252   8.018   7.973 -0.9620 -1.1723  2.0619
   46MOL0     H 6283   6.487   8.191   8.067  0.1272 -1.0554  1.5313
   46MOL0     H 6284   6.489   8.014   8.057 -2.0525 -0.6265  1.0884
   46MOL0     H 6285   6.595   8.113   7.857 -0.3880  0.9129 -1.7692
   46MOL0     H 6286   6.450   8.020   7.826  0.1053 -1.9493  2.3725
   46MOL0     H 6287   6.349   8.256   7.823 -0.2047  1.8139  2.0204
   46MOL0     H 6288   6.510   8.335   7.843  2.3653 -0.1822 -1.5348
   46MOL0     H 6289   6.421   8.181   7.609 -0.6973 -1.4156  1.3972
   46MOL0     H 6290   6.588   8.246   7.638  0.2354 -1.5621  1.0176
   46MOL0     H 6291   6.341   8.425   7.611  0.8613  1.1462 -3.5176
   46MOL0     H 6292   6.507   8.485   7.636  1.4415  0.3015 -0.1301
   46MOL0     H 6293   6.431   8.301   7.405 -1.3518  1.0511 -2.7055
   46MOL0     H 6294   6.583   8.389   7.439  0.4872  0.0430  0.2353
   46MOL0     H 6295   6.417   8.481   7.251  2.0504 -0.1426 -0.3265
   46MOL0     H 6296   6.317   8.526   7.399 -1.9261 -0.4190 -3.1857
   46MOL0     H 6297   6.662   8.585   7.235  1.6420 -1.5481  1.6001
   46MOL0     H 6298   6.811   8.761   7.209 -0.9064  2.3081 -1.4908
   46MOL0     H 6299   6.859   8.836   7.369 -0.0302  3.7177 -0.0646
   46MOL0     H 6300   6.691   8.946   7.150 -1.0097  1.7522  0.0749
   46MOL0     H 6301   6.700   9.030   7.301 -0.4236 -0.0583 -0.3006
   46MOL0     H 6302   6.854   9.118   7.130 -2.0592 -0.2761  0.5907
   46MOL0     H 6303   6.929   9.084   7.288  1.5407 -0.0962  0.2520
   46MOL0     H 6304   7.074   9.025   7.112 -1.8580  2.4517  1.7456
   46MOL0     H 6305   7.035   8.876   7.193 -2.4741 -2.1645 -1.1337
   46MOL0     H 6306   7.222   8.862   7.025  0.2896  2.7218  0.3171
   46MOL0     H 6307   7.433   8.829   6.961  0.5594  3.0790 -1.3932
   46MOL0     H 6308   7.484   8.845   6.796  0.4818 -1.5617 -0.5475
   46MOL0     H 6309   7.440   8.687   6.848 -0.2199  0.4051 -1.1908
   46MOL0     H 6310   7.490   8.657   6.364  0.5973 -0.6503 -1.2696
   46MOL0     H 6311   7.598   8.672   6.160 -2.8040 -3.6772 -2.8768
   46MOL0     H 6312   7.399   8.951   5.850 -0.2613  0.1727 -2.2207
   46MOL0     H 6313   7.521   8.887   5.751 -0.2835 -0.6333 -0.7317
   46MOL0     H 6314   7.290   8.730   5.866 -0.6903  1.1441 -0.6859
   46MOL0     H 6315   7.286   8.808   5.710  0.8455 -1.7911 -2.4198
   46MOL0     H 6316   7.500   8.619   5.762 -0.3282  0.4605 -1.0008
   46MOL0     H 6317   7.435   8.656   5.607  0.2720 -2.3905 -0.0568
   46MOL0     H 6318   7.205   8.572   5.733 -0.9470 -3.0866  3.6877
   46MOL0     H 6319   7.316   8.459   5.799  1.4526 -0.9440 -1.0903
   46MOL0     H 6320   7.328   8.504   5.501 -0.4807 -0.5481 -0.6819
   46MOL0     H 6321   7.403   8.369   5.585  2.2289  3.1894 -0.8419
   46MOL0     H 6322   7.211   8.288   5.482 -2.2962 -0.2664  0.3368
   46MOL0     H 6323   7.114   8.414   5.555  1.7664  2.5417 -1.1181
   46MOL0     H 6324   7.190   8.281   5.779 -0.7732 -1.2235  0.9753
   46MOL0     H 6325   7.243   8.158   5.661  2.3268  1.8030 -1.8265
   46MOL0     H 6326   6.962   8.272   5.697  0.7008  0.3024  0.6360
   46MOL0     H 6327   7.001   8.121   5.761 -0.3495  0.8241  0.8624
   46MOL0     H 6328   7.307   8.965   6.031 -0.1534 -2.1650 -1.3689
   46MOL0     H 6329   7.208   8.952   6.262  1.0295  0.8925  1.7534
   46MOL0     H 6330   7.057   8.859   6.558  1.0869  0.5789  0.4964
   46MOL0     H 6331   6.897   8.903   6.738 -0.1946  0.2557  0.7120
   46MOL0     H 6332   6.227   7.971   8.396 -0.2253 -0.4864  1.8560
   46MOL0     H 6333   6.008   7.895   8.504 -0.6709  2.3361  0.6747
   46MOL0     H 6334   5.628   7.737   8.438  3.4217 -0.0252  2.2544
   46MOL0     H 6335   5.408   7.633   8.486 -1.4469  0.1700  1.1173
   46MOL0     H 6336   5.213   7.804   8.843  0.6216  1.8699 -1.3788
   46MOL0     H 6337   5.101   7.859   8.721 -1.1027  0.5317  0.7928
   46MOL0     H 6338   4.978   7.735   8.876 -0.7315  1.2710 -1.6300
   46MOL0     H 6339   5.082   7.586   8.867 -1.9030 -1.1851 -0.2518
   46MOL0     H 6340   4.907   7.711   8.648 -1.5681  1.0589  2.9472
   46MOL0     H 6341   5.008   7.564   8.629  0.4728 -0.9489  0.8591
   46MOL0     H 6342   4.767   7.603   8.803 -0.7943 -1.8629  1.9762
   46MOL0     H 6343   4.893   7.487   8.852  2.7976 -0.3567 -1.9174
   46MOL0     H 6344   4.646   7.328   8.524 -1.6108 -1.5871  2.2028
   46MOL0     H 6345   5.322   7.955   8.757 -0.4399 -0.3003  0.4761
   46MOL0     H 6346   5.434   8.124   8.765 -1.1328 -1.4158 -2.3406
   46MOL0     H 6347   5.586   8.048   8.819 -0.3141 -0.8230 -0.8598
   46MOL0     H 6348   5.584   8.162   8.678 -0.8139 -0.0832 -1.5938
   47MOL0     O 6349   2.579   7.713   7.454  0.2421 -0.7407  0.0016
   47MOL0     C 6350   2.530   7.741   7.567  0.0999 -0.0979 -0.5134
   47MOL0     O 6351   2.577   7.700   7.686 -1.5142 -0.7792  0.2458
   47MOL0     C 6352   2.701   7.638   7.678  0.3802  0.2422 -0.4829
   47MOL0     C 6353   2.705   7.494   7.665  0.3886 -1.2440 -0.0494
   47MOL0     C 6354   2.834   7.431   7.660 -0.2365 -0.2230 -0.0188
   47MOL0     C 6355   2.952   7.510   7.684 -0.2546  0.2288  0.1454
   47MOL0     O 6356   3.074   7.455   7.677 -0.3227 -0.0733 -0.2528
   47MOL0     C 6357   3.103   7.365   7.784  0.1426  0.2540 -0.2344
   47MOL0     C 6358   3.247   7.324   7.759 -0.4599 -0.4102  0.1301
   47MOL0     C 6359   3.356   7.433   7.742 -0.0297  0.6365  0.1816
   47MOL0     C 6360   3.495   7.369   7.742 -0.0951 -0.0219 -0.3038
   47MOL0     C 6361   3.585   7.420   7.630 -0.0575  0.3505 -1.0764
   47MOL0     C 6362   3.629   7.568   7.644 -0.3135  0.1417 -0.4235
   47MOL0     C 6363   3.762   7.590   7.577 -0.5259  1.4226 -0.0990
   47MOL0     C 6364   3.824   7.720   7.623  0.6026 -0.8165  0.5837
   47MOL0     N 6365   3.932   7.771   7.538 -0.0958  0.2449  0.3411
   47MOL0     C 6366   3.941   7.755   7.409 -0.2659  0.6015 -0.9647
   47MOL0     C 6367   4.060   7.806   7.380 -0.3467  0.2804 -0.0772
   47MOL0     C 6368   4.115   7.814   7.237  0.4714  0.3052 -0.4162
   47MOL0     C 6369   4.161   7.680   7.174  1.0062 -0.4128 -0.2448
   47MOL0     C 6370   4.285   7.629   7.234  0.4550 -0.1548 -0.0428
   47MOL0     C 6371   4.337   7.500   7.173 -0.0094  0.4248 -0.4595
   47MOL0     O 6372   4.464   7.457   7.216 -0.9774  0.0296  0.3097
   47MOL0     C 6373   4.584   7.526   7.188  0.7598 -0.0908 -0.4586
   47MOL0     C 6374   4.687   7.496   7.279 -0.3818 -0.0655  0.8106
   47MOL0     C 6375   4.812   7.557   7.264 -1.0139 -0.1043 -0.0268
   47MOL0     C 6376   4.913   7.511   7.367  0.0364  0.2952  1.4861
   47MOL0     C 6377   4.834   7.657   7.161 -0.2642 -0.0364 -0.2326
   47MOL0     C 6378   4.962   7.729   7.132 -0.2367 -0.6910  0.4988
   47MOL0     O 6379   4.964   7.806   7.010  0.5653  0.2877  0.6128
   47MOL0     C 6380   5.078   7.876   6.974 -0.4456 -0.0536  0.3361
   47MOL0     C 6381   5.208   7.896   7.030 -0.1987  0.5143  0.2078
   47MOL0     C 6382   5.290   7.995   6.983  0.4729  0.0445 -0.1339
   47MOL0     C 6383   5.255   8.067   6.864 -0.3289  0.3269 -0.3476
   47MOL0     O 6384   5.343   8.160   6.804 -0.1175  0.0560 -0.4139
   47MOL0     C 6385   5.483   8.134   6.807 -0.6942  0.4486  0.8855
   47MOL0     C 6386   5.528   8.189   6.669  0.0170 -0.1789  0.2094
   47MOL0     C 6387   5.514   8.335   6.663 -1.0407 -0.9761  0.1213
   47MOL0     C 6388   5.563   8.388   6.524  0.2062 -0.4549 -0.3491
   47MOL0     C 6389   5.717   8.419   6.529 -0.9927 -0.5557  0.0978
   47MOL0     C 6390   5.755   8.522   6.421  0.8622 -0.0075 -0.6726
   47MOL0     C 6391   5.895   8.569   6.455 -0.2730 -0.3101  0.2629
   47MOL0     C 6392   5.913   8.697   6.383 -0.0240 -0.0761  0.0771
   47MOL0    Cl 6393   6.049   8.672   6.269  0.8151  0.2565  0.8538
   47MOL0     C 6394   5.130   8.043   6.801 -0.3488 -0.8087 -0.4713
   47MOL0     C 6395   5.045   7.942   6.854  0.4054 -0.7762  0.6201
   47MOL0     O 6396   5.062   7.698   7.199 -0.0698  0.4282  0.7459
   47MOL0     C 6397   4.722   7.692   7.080  1.1385  0.3344 -0.5163
   47MOL0     C 6398   4.598   7.623   7.093 -0.3969 -0.0501  0.4567
   47MOL0     N 6399   4.116   7.860   7.492  0.4101  0.3336  0.6471
   47MOL0     N 6400   4.029   7.846   7.585 -0.7605 -0.8771 -0.4191
   47MOL0     C 6401   2.939   7.643   7.709  0.2318  0.9561  0.8969
   47MOL0     C 6402   2.817   7.705   7.699  0.1102 -0.0259  0.2597
   47MOL0     C 6403   2.412   7.830   7.568 -0.1375 -0.4690 -0.4738
   47MOL0     C 6404   2.398   7.923   7.463  0.2461  0.2968 -0.3364
   47MOL0     C 6405   2.284   7.999   7.454  0.8692 -0.0391 -0.4695
   47MOL0     C 6406   2.187   7.994   7.556  0.1818 -0.4347 -0.7012
   47MOL0     O 6407   2.072   8.065   7.556 -0.4052 -0.2747 -0.2241
   47MOL0     C 6408   2.045   8.156   7.452 -0.1473  0.8700  0.3496
   47MOL0     C 6409   1.903   8.224   7.468 -0.0743  0.1546  0.4336
   47MOL0     C 6410   1.875   8.315   7.594  0.6707  0.4725  0.1013
   47MOL0     C 6411   1.963   8.439   7.609  0.4139  0.5475  0.0989
   47MOL0     C 6412   1.906   8.483   7.737  0.1313 -0.7293 -0.2667
   47MOL0     C 6413   1.860   8.540   7.838 -0.2936 -0.2834  0.6376
   47MOL0     C 6414   2.205   7.906   7.661  0.0037  0.1854  0.1326
   47MOL0     C 6415   2.315   7.828   7.670 -1.5882  0.5838 -0.3362
   47MOL0     C 6416   2.321   7.728   7.790 -0.6391 -0.5805 -0.3114
   47MOL0     H 6417   2.613   7.443   7.636 -0.4838  0.1928  0.1150
   47MOL0     H 6418   2.842   7.323   7.651  0.1008 -0.6703  3.9926
   47MOL0     H 6419   3.027   7.286   7.782 -2.3554  2.4724  0.6932
   47MOL0     H 6420   3.096   7.417   7.881 -1.5506  0.8251 -0.6250
   47MOL0     H 6421   3.283   7.259   7.839  0.9754 -2.7139 -2.2566
   47MOL0     H 6422   3.238   7.265   7.668  0.2463  0.1527 -0.3125
   47MOL0     H 6423   3.341   7.474   7.642  0.6731  0.2756 -0.0785
   47MOL0     H 6424   3.345   7.520   7.808 -1.6163  0.7284 -0.1723
   47MOL0     H 6425   3.538   7.379   7.842 -2.6533  3.5695  0.6473
   47MOL0     H 6426   3.491   7.262   7.720  5.1078 -0.7138  0.7904
   47MOL0     H 6427   3.536   7.402   7.534 -1.2252 -1.4777 -0.2068
   47MOL0     H 6428   3.670   7.352   7.638 -0.0845  0.5367  1.9166
   47MOL0     H 6429   3.547   7.631   7.607 -1.9111 -2.5277 -1.7418
   47MOL0     H 6430   3.642   7.589   7.751  1.0632 -0.9404 -0.3583
   47MOL0     H 6431   3.741   7.609   7.471  0.4972 -1.2137 -0.8639
   47MOL0     H 6432   3.830   7.506   7.594 -3.2538 -0.8672  0.4246
   47MOL0     H 6433   3.741   7.791   7.623  0.9366 -0.4009  1.6960
   47MOL0     H 6434   3.860   7.711   7.726 -1.1999  3.0836  1.7606
   47MOL0     H 6435   3.875   7.708   7.336  0.7244 -0.3148 -1.3060
   47MOL0     H 6436   4.172   7.906   7.222 -0.6021  1.1917  0.7442
   47MOL0     H 6437   4.016   7.828   7.191  0.0659  0.3080  0.4284
   47MOL0     H 6438   4.081   7.606   7.185 -0.8753  1.6410  0.7399
   47MOL0     H 6439   4.176   7.694   7.066 -2.9972 -3.4611 -1.4600
   47MOL0     H 6440   4.359   7.709   7.228  0.3510  0.0784  1.4200
   47MOL0     H 6441   4.257   7.617   7.339  0.3970 -0.1329 -0.0557
   47MOL0     H 6442   4.267   7.424   7.210  0.0338 -0.1061 -1.4436
   47MOL0     H 6443   4.334   7.505   7.064  2.8235  0.1507 -0.6061
   47MOL0     H 6444   4.674   7.428   7.363  2.9868  1.6808  2.9376
   47MOL0     H 6445   4.989   7.459   7.307 -0.3564  1.8797 -0.5005
   47MOL0     H 6446   4.865   7.442   7.437 -0.4437  1.1561  2.0192
   47MOL0     H 6447   4.953   7.590   7.431  1.2702  1.0728 -0.1655
   47MOL0     H 6448   5.230   7.846   7.124 -0.0313  1.3774  0.6346
   47MOL0     H 6449   5.385   8.013   7.032  0.9672 -1.2417 -0.5883
   47MOL0     H 6450   5.534   8.179   6.893  3.8041 -0.8253 -0.8243
   47MOL0     H 6451   5.502   8.027   6.814  1.2611  0.7574  0.8080
   47MOL0     H 6452   5.635   8.167   6.661  0.8112  2.4301  2.1185
   47MOL0     H 6453   5.483   8.146   6.579  1.8073 -0.0138 -0.8189
   47MOL0     H 6454   5.563   8.388   6.745 -0.3863  4.4080 -3.2687
   47MOL0     H 6455   5.408   8.357   6.678 -1.0181  1.3757 -2.3407
   47MOL0     H 6456   5.510   8.481   6.505 -0.5875 -0.9627 -0.6788
   47MOL0     H 6457   5.541   8.312   6.449  2.7230 -2.6283  0.9407
   47MOL0     H 6458   5.738   8.462   6.627 -3.3586  1.8555 -0.3075
   47MOL0     H 6459   5.779   8.332   6.510 -0.3148 -0.1288  0.3322
   47MOL0     H 6460   5.687   8.608   6.424  1.0797  0.1631 -0.6716
   47MOL0     H 6461   5.753   8.476   6.322  1.5862  0.5759 -0.9612
   47MOL0     H 6462   5.979   8.501   6.438 -0.2949 -0.3906  0.4739
   47MOL0     H 6463   5.903   8.593   6.561  0.4385 -0.5784  0.2732
   47MOL0     H 6464   5.939   8.775   6.456  0.4721 -1.4515  1.4266
   47MOL0     H 6465   5.820   8.736   6.342  0.3410  0.2164 -0.4955
   47MOL0     H 6466   5.102   8.105   6.716 -1.5637 -0.3403  0.2395
   47MOL0     H 6467   4.949   7.927   6.807  0.4246  0.1898  0.2465
   47MOL0     H 6468   4.738   7.769   7.006  2.1980  0.8272  0.1942
   47MOL0     H 6469   4.516   7.658   7.032  1.5914  0.9750 -1.8241
   47MOL0     H 6470   3.020   7.702   7.750  0.0605  0.0409  2.6218
   47MOL0     H 6471   2.813   7.813   7.711 -1.5171 -0.2498  2.0728
   47MOL0     H 6472   2.471   7.936   7.385  0.2884 -0.8794 -0.5157
   47MOL0     H 6473   2.267   8.068   7.372 -2.8703 -0.5031 -0.2745
   47MOL0     H 6474   2.131   8.223   7.443  0.1523  0.4112 -0.2525
   47MOL0     H 6475   2.044   8.099   7.359  1.0064  1.4375 -0.0190
   47MOL0     H 6476   1.828   8.145   7.480 -3.1317  2.6051 -1.2725
   47MOL0     H 6477   1.883   8.280   7.376  1.7090  2.2252  1.2138
   47MOL0     H 6478   1.771   8.346   7.586 -0.7055 -3.4704  0.7506
   47MOL0     H 6479   1.898   8.250   7.679  1.1988  0.4754 -0.0349
   47MOL0     H 6480   1.932   8.504   7.527 -3.2695 -0.5940  0.3942
   47MOL0     H 6481   2.071   8.422   7.599  0.1006 -0.0126 -3.9113
   47MOL0     H 6482   1.812   8.596   7.915  1.4780  1.0926  0.7938
   47MOL0     H 6483   2.125   7.909   7.735  1.6819  1.4402  1.9794
   47MOL0     H 6484   2.241   7.747   7.862 -0.2775 -0.5699  0.0938
   47MOL0     H 6485   2.326   7.624   7.756 -0.8248 -0.5310 -0.4988
   47MOL0     H 6486   2.410   7.748   7.850  1.5027 -1.6026 -2.9363
   48MOL0     O 6487   8.103  11.123   1.971 -0.6611 -0.2626  0.3720
   48MOL0     C 6488   8.129  11.246   1.963  0.0457 -0.1856  0.0115
   48MOL0     O 6489   8.252  11.306   2.002 -0.1637 -0.1717  0.4889
   48MOL0     C 6490   8.356  11.223   2.039 -0.6169  0.5331  0.7581
   48MOL0     C 6491   8.465  11.206   1.947  0.2766 -0.4136  0.7416
   48MOL0     C 6492   8.582  11.137   1.978  0.2866 -0.2947  0.0291
   48MOL0     C 6493   8.583  11.060   2.098 -0.7814 -0.0326 -0.1375
   48MOL0     O 6494   8.689  10.977   2.137  0.3352 -0.5234  0.2030
   48MOL0     C 6495   8.765  11.044   2.235  0.9236  0.2503  0.0228
   48MOL0     C 6496   8.851  10.952   2.319  0.6040  0.3866  0.2686
   48MOL0     C 6497   8.763  10.859   2.413  0.1298  0.7035 -0.3028
   48MOL0     C 6498   8.692  10.939   2.517 -0.2623 -0.1080  0.8311
   48MOL0     C 6499   8.591  10.875   2.603 -0.0571  0.5768 -0.2560
   48MOL0     C 6500   8.479  10.811   2.531  0.5737 -0.1738 -0.3915
   48MOL0     C 6501   8.421  10.706   2.627  0.6084 -0.2478 -0.0067
   48MOL0     C 6502   8.298  10.643   2.549 -0.2474  0.6291  0.4101
   48MOL0     N 6503   8.212  10.547   2.627  0.5156  0.0996 -0.2106
   48MOL0     C 6504   8.093  10.575   2.689  0.5070 -0.3033 -0.1476
   48MOL0     C 6505   8.057  10.457   2.748 -0.1049 -0.3953  0.5642
   48MOL0     C 6506   7.924  10.453   2.829 -0.4846 -0.1031  0.8255
   48MOL0     C 6507   7.824  10.363   2.758  0.5913 -0.6219  0.3229
   48MOL0     C 6508   7.670  10.386   2.795 -0.2532 -0.7541  0.1689
   48MOL0     C 6509   7.636  10.407   2.943  0.9897 -0.4920  0.7217
   48MOL0     O 6510   7.502  10.371   2.975 -0.1648 -0.3202  0.7381
   48MOL0     C 6511   7.393  10.430   2.915  0.0973 -0.0442  0.1527
   48MOL0     C 6512   7.278  10.348   2.913 -0.8045  0.4868 -0.1551
   48MOL0     C 6513   7.152  10.395   2.886 -0.1940 -0.1622  0.2460
   48MOL0     C 6514   7.048  10.292   2.872  0.0056  0.3841  0.5585
   48MOL0     C 6515   7.135  10.532   2.850 -0.0818 -0.6947 -0.0135
   48MOL0     C 6516   7.005  10.597   2.825  0.1767 -0.0170 -0.2922
   48MOL0     O 6517   7.020  10.706   2.757 -0.3911 -0.3285 -0.8537
   48MOL0     C 6518   6.908  10.761   2.700  0.1811 -0.7337  0.6465
   48MOL0     C 6519   6.887  10.903   2.721 -0.5157  0.0036 -0.0414
   48MOL0     C 6520   6.775  10.965   2.668  0.0563 -0.4953  0.5601
   48MOL0     C 6521   6.675  10.892   2.613 -0.2337  0.0955 -0.1884
   48MOL0     O 6522   6.558  10.950   2.571  0.2098  0.1951 -0.1758
   48MOL0     C 6523   6.461  10.935   2.670  0.9347 -0.4756 -0.9731
   48MOL0     C 6524   6.322  10.937   2.607 -0.0980  0.6428 -0.3001
   48MOL0     C 6525   6.219  10.908   2.710  0.6620 -0.3107 -0.1362
   48MOL0     C 6526   6.076  10.965   2.706 -0.0854 -0.2688  0.3875
   48MOL0     C 6527   5.977  10.874   2.638 -0.5565  0.6358 -0.9073
   48MOL0     C 6528   5.933  10.772   2.740 -0.3100  0.4422 -0.1027
   48MOL0     C 6529   5.808  10.694   2.676 -0.0166 -0.0458  0.2684
   48MOL0     C 6530   5.711  10.638   2.776 -0.0506 -0.2182 -0.4953
   48MOL0    Cl 6531   5.568  10.559   2.696 -0.0958  0.1791 -0.2878
   48MOL0     C 6532   6.695  10.754   2.587  0.1732  0.0077  0.1596
   48MOL0     C 6533   6.808  10.694   2.633  0.4964  0.3285  0.2705
   48MOL0     O 6534   6.901  10.548   2.873  0.5226  0.2926 -0.3787
   48MOL0     C 6535   7.250  10.611   2.853  0.8096  0.0467 -0.0931
   48MOL0     C 6536   7.370  10.559   2.882 -0.1484  0.0434 -0.1591
   48MOL0     N 6537   8.154  10.367   2.734 -0.3835 -0.7033 -0.1012
   48MOL0     N 6538   8.249  10.419   2.665 -0.1343 -0.1626 -0.1471
   48MOL0     C 6539   8.473  11.079   2.185 -0.4102  0.2684  0.1777
   48MOL0     C 6540   8.366  11.161   2.160 -0.0096 -0.0165 -0.0881
   48MOL0     C 6541   8.013  11.336   1.942 -0.2928  0.1652  0.7257
   48MOL0     C 6542   8.029  11.468   1.992  0.4193 -1.1981 -0.2150
   48MOL0     C 6543   7.928  11.554   1.974  0.8508 -0.2762  0.1429
   48MOL0     C 6544   7.812  11.527   1.893  0.7416 -0.2798 -1.3487
   48MOL0     O 6545   7.727  11.630   1.866  0.4904  0.3375 -0.1583
   48MOL0     C 6546   7.608  11.610   1.788 -0.7806 -0.3744 -0.1732
   48MOL0     C 6547   7.640  11.623   1.641 -0.2977 -0.0682 -0.0030
   48MOL0     C 6548   7.677  11.751   1.592  0.0183  0.4985  0.3207
   48MOL0     C 6549   7.827  11.792   1.609  0.3426  0.1224  0.1498
   48MOL0     C 6550   7.905  11.763   1.487 -0.1646 -0.6479 -0.3561
   48MOL0     C 6551   7.959  11.727   1.385  0.9639  0.1214 -0.1219
   48MOL0     C 6552   7.795  11.395   1.856  0.1483  0.4469  0.0254
   48MOL0     C 6553   7.891  11.298   1.879 -0.1500 -0.4316 -0.1911
   48MOL0     C 6554   7.871  11.161   1.821 -1.2758  0.1170  0.8696
   48MOL0     H 6555   8.450  11.265   1.857 -0.9018 -0.5949  0.8048
   48MOL0     H 6556   8.657  11.126   1.900 -0.3549 -0.1263 -0.6235
   48MOL0     H 6557   8.700  11.109   2.295  0.6748  1.6703 -1.6848
   48MOL0     H 6558   8.833  11.106   2.176 -0.3192  1.4757 -0.1786
   48MOL0     H 6559   8.911  10.898   2.246 -1.2892  1.8138 -2.5367
   48MOL0     H 6560   8.912  11.012   2.387  1.6857  1.9572 -1.9802
   48MOL0     H 6561   8.689  10.810   2.350 -1.3802  1.4760  0.8147
   48MOL0     H 6562   8.813  10.774   2.460 -0.4251 -0.2118 -1.3112
   48MOL0     H 6563   8.764  11.002   2.570  1.6385  1.4171 -3.0994
   48MOL0     H 6564   8.639  11.018   2.463  0.8016  0.4122  0.5052
   48MOL0     H 6565   8.548  10.946   2.674 -1.0151 -1.3287  1.1782
   48MOL0     H 6566   8.640  10.798   2.663  1.2140 -0.2054 -2.1921
   48MOL0     H 6567   8.397  10.878   2.506 -0.8010 -0.7267  2.2657
   48MOL0     H 6568   8.511  10.757   2.441  2.4068 -1.0459  0.7090
   48MOL0     H 6569   8.378  10.757   2.714 -1.4383 -0.8474 -0.6148
   48MOL0     H 6570   8.503  10.638   2.653 -1.0671 -2.0708  0.7366
   48MOL0     H 6571   8.229  10.718   2.510 -0.5575 -0.3607 -1.0080
   48MOL0     H 6572   8.331  10.592   2.458  0.5196  3.0557 -0.7533
   48MOL0     H 6573   8.034  10.666   2.679  0.6754 -0.3323 -1.6636
   48MOL0     H 6574   7.882  10.553   2.844 -1.1812 -0.3335  0.4464
   48MOL0     H 6575   7.940  10.406   2.926  0.1404  0.2522  0.8965
   48MOL0     H 6576   7.830  10.377   2.650  0.7888  1.3488  0.5612
   48MOL0     H 6577   7.849  10.258   2.777  1.0254 -0.6568 -0.3997
   48MOL0     H 6578   7.632  10.472   2.740 -0.4723 -0.8881  0.1123
   48MOL0     H 6579   7.618  10.299   2.753  0.7385 -0.8481 -0.9355
   48MOL0     H 6580   7.702  10.349   3.008  0.8605 -1.2070  0.2307
   48MOL0     H 6581   7.653  10.512   2.965  2.4356 -0.4795 -0.2417
   48MOL0     H 6582   7.280  10.246   2.951 -2.3278  0.9327  1.2519
   48MOL0     H 6583   7.002  10.306   2.774 -0.4313  1.3380  0.8902
   48MOL0     H 6584   6.972  10.310   2.949 -2.7298  2.0968 -2.3289
   48MOL0     H 6585   7.082  10.190   2.893 -3.4835 -0.9032  0.5465
   48MOL0     H 6586   6.953  10.973   2.772 -0.5667 -0.6452  0.9277
   48MOL0     H 6587   6.764  11.069   2.693 -0.0181 -0.4660  0.4124
   48MOL0     H 6588   6.480  10.847   2.732 -1.1077  1.4746  2.7813
   48MOL0     H 6589   6.471  11.019   2.741 -0.1471  0.0065 -1.3809
   48MOL0     H 6590   6.321  11.037   2.563  0.1052  0.6560 -0.2797
   48MOL0     H 6591   6.307  10.863   2.528 -1.0897 -1.0055  1.3559
   48MOL0     H 6592   6.256  10.957   2.801 -1.7871  1.3540  0.0714
   48MOL0     H 6593   6.200  10.801   2.724  0.6040 -0.6599 -2.5288
   48MOL0     H 6594   6.071  11.055   2.645 -2.5268 -2.3141 -2.7873
   48MOL0     H 6595   6.045  10.979   2.810 -1.4499 -2.4701  0.3457
   48MOL0     H 6596   5.895  10.940   2.604  0.3992  2.0080 -0.6184
   48MOL0     H 6597   6.018  10.832   2.546  1.2793 -0.1480  0.2175
   48MOL0     H 6598   5.899  10.814   2.835 -0.1885 -0.5166  0.3757
   48MOL0     H 6599   6.017  10.707   2.764  0.3600  1.2249 -0.3039
   48MOL0     H 6600   5.847  10.617   2.609  0.1673 -0.9572  1.3898
   48MOL0     H 6601   5.745  10.772   2.631  0.5807  0.5230  0.4040
   48MOL0     H 6602   5.678  10.713   2.849  0.7181 -1.8446  1.6238
   48MOL0     H 6603   5.759  10.563   2.840 -1.4183 -2.5044 -2.0080
   48MOL0     H 6604   6.617  10.695   2.540 -0.2358  0.9962 -0.4460
   48MOL0     H 6605   6.804  10.587   2.614  1.1869  0.4503 -0.6402
   48MOL0     H 6606   7.247  10.719   2.838 -0.5324  0.6625  3.5548
   48MOL0     H 6607   7.459  10.622   2.892  0.5766 -1.2606  2.3582
   48MOL0     H 6608   8.477  11.039   2.286 -0.7804  1.5651  0.7337
   48MOL0     H 6609   8.289  11.175   2.235 -0.3590  0.9115 -0.5999
   48MOL0     H 6610   8.124  11.492   2.038  0.9380 -2.7660 -0.4174
   48MOL0     H 6611   7.934  11.650   2.025  0.6928 -1.2451  2.0901
   48MOL0     H 6612   7.547  11.523   1.816 -1.3350  0.3970  1.0960
   48MOL0     H 6613   7.541  11.693   1.811 -0.7621 -0.1828 -0.7891
   48MOL0     H 6614   7.542  11.597   1.600 -0.6611 -1.3054  1.5687
   48MOL0     H 6615   7.710  11.543   1.614  2.1807  1.1613  2.3809
   48MOL0     H 6616   7.655  11.752   1.485  1.3864 -1.4866 -0.0314
   48MOL0     H 6617   7.606  11.831   1.616 -0.2245  0.8006 -1.3033
   48MOL0     H 6618   7.887  11.740   1.684  3.1824  4.0923  0.9250
   48MOL0     H 6619   7.837  11.897   1.636 -1.0333  0.6261 -1.1517
   48MOL0     H 6620   8.018  11.697   1.301  0.2436 -1.5573 -0.0497
   48MOL0     H 6621   7.707  11.364   1.800  0.5406 -1.5184  0.4159
   48MOL0     H 6622   7.773  11.159   1.773 -0.8816 -4.0456 -0.1735
   48MOL0     H 6623   7.939  11.137   1.738 -1.6585 -1.0224  0.8607
   48MOL0     H 6624   7.885  11.078   1.892 -1.8139 -1.7984 -1.1503
   49MOL0     O 6625   3.545   3.616   6.013 -0.8106  0.9375  0.1795
   49MOL0     C 6626   3.434   3.656   6.036  0.4361  0.3846 -0.7212
   49MOL0     O 6627   3.377   3.665   6.161 -0.5760 -0.4505 -0.0651
   49MOL0     C 6628   3.450   3.625   6.269  0.1289  0.5528 -0.2534
   49MOL0     C 6629   3.390   3.514   6.342  0.3729  0.0889 -0.4689
   49MOL0     C 6630   3.450   3.467   6.457 -1.4473  0.8276 -0.4207
   49MOL0     C 6631   3.569   3.526   6.505 -0.4487  0.2825  0.4043
   49MOL0     O 6632   3.627   3.495   6.627  0.4206 -0.3042 -0.5229
   49MOL0     C 6633   3.758   3.529   6.663  0.2064  0.2312  0.7123
   49MOL0     C 6634   3.805   3.435   6.777  0.5272  0.7710  0.1490
   49MOL0     C 6635   3.727   3.456   6.911 -0.8939  0.0545  0.6121
   49MOL0     C 6636   3.739   3.596   6.964 -0.1438 -0.0009  0.6261
   49MOL0     C 6637   3.709   3.598   7.109  0.8048 -0.6007 -0.6497
   49MOL0     C 6638   3.719   3.738   7.168 -0.0797 -0.3924  0.8957
   49MOL0     C 6639   3.689   3.724   7.313 -0.2590  0.3382 -0.0347
   49MOL0     C 6640   3.693   3.867   7.381 -0.7108  0.2684 -0.1590
   49MOL0     N 6641   3.836   3.896   7.420 -1.0538  0.6000  0.1268
   49MOL0     C 6642   3.936   3.954   7.345 -0.4099  1.0347  0.0824
   49MOL0     C 6643   4.055   3.951   7.420  0.7294  0.9340 -0.0426
   49MOL0     C 6644   4.197   4.000   7.390  0.4589 -0.1275 -0.1274
   49MOL0     C 6645   4.304   3.933   7.466 -0.3002  0.2180  0.1189
   49MOL0     C 6646   4.448   4.001   7.450 -0.0017 -0.1188 -0.3936
   49MOL0     C 6647   4.496   3.985   7.301 -0.2168  0.4920 -0.2294
   49MOL0     O 6648   4.622   4.054   7.302 -0.7394  0.1744 -0.1285
   49MOL0     C 6649   4.744   3.995   7.321  0.4101 -0.4364 -0.1779
   49MOL0     C 6650   4.861   4.059   7.282 -0.4273  0.0609  0.3319
   49MOL0     C 6651   4.987   4.003   7.309  0.0516 -0.5399 -0.2256
   49MOL0     C 6652   5.106   4.068   7.265 -0.4748  0.7550 -0.3331
   49MOL0     C 6653   4.992   3.878   7.374 -0.3935  0.2022 -0.3796
   49MOL0     C 6654   5.119   3.801   7.402 -0.3289  0.5986 -0.1323
   49MOL0     O 6655   5.205   3.793   7.301 -0.3368 -0.5650  0.6216
   49MOL0     C 6656   5.343   3.786   7.316 -0.4221  0.5690 -1.0400
   49MOL0     C 6657   5.400   3.803   7.443 -0.6191 -0.3753 -0.2714
   49MOL0     C 6658   5.536   3.782   7.467 -0.7612  0.1878  1.0788
   49MOL0     C 6659   5.627   3.766   7.356  0.2586  0.6805  0.5074
   49MOL0     O 6660   5.760   3.764   7.380  0.2101  0.5414 -0.1828
   49MOL0     C 6661   5.853   3.749   7.271  0.7439  0.1546  0.1942
   49MOL0     C 6662   5.989   3.757   7.334 -0.9702 -0.0212 -0.5627
   49MOL0     C 6663   6.101   3.818   7.243 -0.2392  0.0040 -0.7343
   49MOL0     C 6664   6.096   3.967   7.245  0.0168  0.2817 -0.3268
   49MOL0     C 6665   6.219   4.044   7.308 -0.4903  0.1325  0.2381
   49MOL0     C 6666   6.217   4.197   7.287  0.8141  0.0827 -0.1251
   49MOL0     C 6667   6.349   4.243   7.345 -0.2618 -0.3591 -0.3331
   49MOL0     C 6668   6.364   4.391   7.320  0.9225 -0.1426 -0.0444
   49MOL0    Cl 6669   6.513   4.435   7.391 -0.0645  0.0663  0.4029
   49MOL0     C 6670   5.568   3.761   7.225  0.0568 -0.2271  0.3212
   49MOL0     C 6671   5.428   3.769   7.201  0.1945  0.4576  0.0843
   49MOL0     O 6672   5.129   3.747   7.513 -0.2974  0.6037 -0.6883
   49MOL0     C 6673   4.873   3.807   7.401  0.7262  0.1079  0.0330
   49MOL0     C 6674   4.752   3.876   7.386 -0.1364 -0.0954 -0.9219
   49MOL0     N 6675   4.012   3.906   7.543 -0.1387  0.0285  0.0444
   49MOL0     N 6676   3.889   3.869   7.542 -1.0661 -0.0217  0.6035
   49MOL0     C 6677   3.622   3.645   6.440 -0.6658  0.9214  0.6889
   49MOL0     C 6678   3.561   3.687   6.318 -0.0683  0.5840 -0.1043
   49MOL0     C 6679   3.361   3.723   5.925  0.1371  0.0249 -0.8869
   49MOL0     C 6680   3.436   3.804   5.837 -0.5393 -0.0469 -0.0294
   49MOL0     C 6681   3.367   3.888   5.747 -0.3271  0.2671 -0.0955
   49MOL0     C 6682   3.233   3.885   5.727 -0.1163 -0.9197  0.3548
   49MOL0     O 6683   3.192   3.969   5.630  0.4222  0.4102  0.0878
   49MOL0     C 6684   3.058   3.959   5.593  0.0716 -0.0501 -1.0338
   49MOL0     C 6685   3.018   4.072   5.496 -1.0616  0.8596 -0.5881
   49MOL0     C 6686   3.094   4.052   5.370  0.6080  0.6632  0.5469
   49MOL0     C 6687   3.088   4.177   5.278  0.4157  0.3719 -0.4263
   49MOL0     C 6688   3.151   4.156   5.152  0.2292 -0.5094  0.6745
   49MOL0     C 6689   3.194   4.126   5.042  0.7170 -0.5155  0.9247
   49MOL0     C 6690   3.155   3.809   5.812 -0.4555 -0.1591 -0.3360
   49MOL0     C 6691   3.218   3.735   5.912 -0.9726 -0.3127  0.6886
   49MOL0     C 6692   3.131   3.657   6.003  0.3180  1.0486 -0.6026
   49MOL0     H 6693   3.298   3.468   6.308  1.8836 -2.0476 -1.8361
   49MOL0     H 6694   3.406   3.379   6.503  0.3044 -1.2335 -2.4794
   49MOL0     H 6695   3.776   3.631   6.699  0.3612  1.0061 -1.4445
   49MOL0     H 6696   3.822   3.522   6.575 -1.2020  0.0828 -0.3380
   49MOL0     H 6697   3.791   3.333   6.741  1.0480  1.0284 -0.8110
   49MOL0     H 6698   3.908   3.461   6.803  0.4342  0.8806  0.4174
   49MOL0     H 6699   3.619   3.442   6.904 -0.9793  1.1462 -0.5886
   49MOL0     H 6700   3.759   3.385   6.988  0.8966  0.8573  0.6576
   49MOL0     H 6701   3.842   3.627   6.943 -1.1829  2.5281 -1.2212
   49MOL0     H 6702   3.684   3.665   6.899 -0.6682  1.2965  2.3678
   49MOL0     H 6703   3.776   3.530   7.163  0.5118  1.3973  2.4539
   49MOL0     H 6704   3.611   3.552   7.124 -0.8871  2.7116 -0.7222
   49MOL0     H 6705   3.823   3.770   7.156 -0.7583  1.9092  0.7079
   49MOL0     H 6706   3.654   3.801   7.108 -2.1166  0.1489  3.5075
   49MOL0     H 6707   3.754   3.652   7.363 -0.7342  1.5154  2.4296
   49MOL0     H 6708   3.590   3.681   7.324 -0.7717  1.2752 -0.8132
   49MOL0     H 6709   3.655   3.945   7.315 -1.3963  0.2522  0.2089
   49MOL0     H 6710   3.644   3.852   7.478  3.0586  0.3466  1.9384
   49MOL0     H 6711   3.928   3.990   7.243 -0.6091 -3.1675 -1.5928
   49MOL0     H 6712   4.217   4.107   7.407 -1.2488  0.2918 -0.5490
   49MOL0     H 6713   4.208   3.985   7.283 -2.0875  0.6705 -0.5774
   49MOL0     H 6714   4.271   3.950   7.569  1.7192  2.9844  0.4059
   49MOL0     H 6715   4.297   3.826   7.442 -0.9809  0.3736 -0.4015
   49MOL0     H 6716   4.446   4.106   7.480 -0.7311 -0.4677  0.9168
   49MOL0     H 6717   4.516   3.954   7.522  1.7450  0.1983 -1.7820
   49MOL0     H 6718   4.496   3.880   7.269 -0.7304  0.0367  1.2030
   49MOL0     H 6719   4.419   4.040   7.246 -0.6235  0.8197  0.6593
   49MOL0     H 6720   4.851   4.151   7.224  0.7190 -2.1996 -3.8671
   49MOL0     H 6721   5.149   4.012   7.181 -0.7162 -0.7394  0.5215
   49MOL0     H 6722   5.180   4.067   7.345  0.4158 -1.2825 -1.1157
   49MOL0     H 6723   5.091   4.169   7.223  1.4490  1.2638  0.1153
   49MOL0     H 6724   5.340   3.816   7.533 -3.3519 -0.6333 -1.9229
   49MOL0     H 6725   5.571   3.790   7.569  0.9983  1.6991  0.4166
   49MOL0     H 6726   5.835   3.661   7.209  0.9082  0.2019  0.0764
   49MOL0     H 6727   5.843   3.837   7.207  2.6037  2.6717  3.0716
   49MOL0     H 6728   5.990   3.807   7.431 -2.6204 -1.0835  0.0441
   49MOL0     H 6729   6.015   3.653   7.356  0.1157  0.0805 -1.2805
   49MOL0     H 6730   6.081   3.782   7.141 -0.7206 -0.4492 -0.4864
   49MOL0     H 6731   6.197   3.773   7.269 -0.1794  0.4590 -0.1594
   49MOL0     H 6732   6.001   4.001   7.287 -0.5175 -1.3777 -0.0987
   49MOL0     H 6733   6.101   3.995   7.139 -2.0590  0.9158 -0.2870
   49MOL0     H 6734   6.224   4.019   7.415  1.2272 -0.5236  0.0395
   49MOL0     H 6735   6.300   3.991   7.256  1.3521 -1.1221  3.9700
   49MOL0     H 6736   6.136   4.238   7.348  0.9539  0.1376  0.0250
   49MOL0     H 6737   6.208   4.225   7.182 -0.6198  0.6316  0.1115
   49MOL0     H 6738   6.430   4.197   7.289  0.2684 -1.1945  1.0601
   49MOL0     H 6739   6.356   4.207   7.448  0.4771 -3.2359 -1.2913
   49MOL0     H 6740   6.287   4.447   7.375 -0.0913 -1.6865  0.1734
   49MOL0     H 6741   6.341   4.409   7.215 -1.7526 -1.1289  0.2941
   49MOL0     H 6742   5.616   3.747   7.128 -0.2340 -3.6076  0.5608
   49MOL0     H 6743   5.380   3.774   7.104  1.3355 -0.2682 -0.5423
   49MOL0     H 6744   4.886   3.708   7.445  1.0031  0.9809  2.0527
   49MOL0     H 6745   4.658   3.826   7.404 -1.9641  3.2287 -0.4394
   49MOL0     H 6746   3.706   3.697   6.486 -0.5809 -0.1328  1.7514
   49MOL0     H 6747   3.605   3.774   6.271  1.0174  0.6642  1.0311
   49MOL0     H 6748   3.543   3.817   5.838 -0.4495 -0.5992  1.8832
   49MOL0     H 6749   3.415   3.966   5.688 -1.3326  0.7554 -0.2899
   49MOL0     H 6750   3.033   3.859   5.556 -1.1994 -0.6381  1.2165
   49MOL0     H 6751   2.990   3.973   5.678 -0.1915  1.8519 -1.5243
   49MOL0     H 6752   3.043   4.169   5.539 -1.5870  0.9475 -0.4766
   49MOL0     H 6753   2.913   4.062   5.469 -0.8879 -0.8953 -0.7293
   49MOL0     H 6754   3.201   4.032   5.378  0.1286 -2.1058  0.9668
   49MOL0     H 6755   3.053   3.963   5.322 -0.5515  2.7296 -2.6757
   49MOL0     H 6756   3.144   4.259   5.323  0.2161  1.7402 -2.4975
   49MOL0     H 6757   2.984   4.207   5.262  0.3040  0.2220  0.0147
   49MOL0     H 6758   3.227   4.106   4.942  1.8559 -1.2544  1.4310
   49MOL0     H 6759   3.047   3.817   5.806 -0.4254  1.0819  0.3817
   49MOL0     H 6760   3.174   3.558   6.025 -4.6345 -1.3427 -0.1984
   49MOL0     H 6761   3.113   3.700   6.102  0.1468 -0.4473  0.0549
   49MOL0     H 6762   3.034   3.630   5.959  0.3312 -1.8693  0.8927
   50MOL0     O 6763  11.351   9.463   6.453  0.2950 -0.0030 -0.5754
   50MOL0     C 6764  11.329   9.580   6.422  0.0649  0.5286 -0.5777
   50MOL0     O 6765  11.426   9.676   6.397 -0.2562 -0.0840 -0.8627
   50MOL0     C 6766  11.555   9.637   6.430 -0.6109  0.8425 -0.3732
   50MOL0     C 6767  11.596   9.640   6.561  0.3418  0.9334  0.7212
   50MOL0     C 6768  11.734   9.603   6.588  0.3689  0.6832 -0.2096
   50MOL0     C 6769  11.824   9.574   6.480 -0.3984 -0.0344 -0.6116
   50MOL0     O 6770  11.962   9.557   6.505 -0.0930  1.0332  0.0628
   50MOL0     C 6771  12.040   9.458   6.422  0.0861 -0.8284 -0.3163
   50MOL0     C 6772  12.169   9.399   6.486  1.1657 -0.6991  1.0708
   50MOL0     C 6773  12.281   9.500   6.493 -0.0245  0.5304 -0.6912
   50MOL0     C 6774  12.400   9.426   6.554  0.5395  0.1002 -0.3121
   50MOL0     C 6775  12.512   9.527   6.601 -0.2158 -0.1370  0.1922
   50MOL0     C 6776  12.638   9.463   6.649 -0.0428  0.1759 -0.4075
   50MOL0     C 6777  12.765   9.538   6.661 -0.6154  0.1106  0.7113
   50MOL0     C 6778  12.764   9.635   6.780  0.7799  0.6395  0.5246
   50MOL0     N 6779  12.885   9.719   6.777 -0.5450  0.1392  0.0103
   50MOL0     C 6780  13.002   9.681   6.834 -0.0948 -0.3533 -0.2251
   50MOL0     C 6781  13.089   9.779   6.799  0.3603  0.5720  0.7889
   50MOL0     C 6782  13.234   9.773   6.852 -0.2440 -0.5874  0.1683
   50MOL0     C 6783  13.324   9.869   6.768  0.0770 -0.2503 -0.5564
   50MOL0     C 6784  13.334   9.833   6.628  0.5582  0.7185  0.7930
   50MOL0     C 6785  13.469   9.842   6.547 -0.3796 -0.1357 -0.6434
   50MOL0     O 6786  13.518   9.972   6.552  0.4452 -0.6025 -0.1570
   50MOL0     C 6787  13.653   9.983   6.572  0.5128  0.5794 -0.0600
   50MOL0     C 6788  13.739   9.958   6.470 -0.0287  0.2618  0.2657
   50MOL0     C 6789  13.882   9.976   6.478  0.1202  0.4810  0.5073
   50MOL0     C 6790  13.957   9.957   6.354  0.1964 -0.0549 -0.4178
   50MOL0     C 6791  13.941  10.009   6.610 -0.6018  0.4726 -0.0158
   50MOL0     C 6792  14.089  10.029   6.625 -0.1830  0.0061  0.0178
   50MOL0     O 6793  14.159  10.106   6.533 -0.4378 -0.2943 -0.3931
   50MOL0     C 6794  14.291  10.142   6.553  0.0528  0.0558 -0.2158
   50MOL0     C 6795  14.325  10.271   6.562  0.7537  0.3056  0.5562
   50MOL0     C 6796  14.455  10.314   6.594  0.5542  0.0836  0.5554
   50MOL0     C 6797  14.557  10.218   6.590  0.0966 -0.8045  0.0293
   50MOL0     O 6798  14.681  10.262   6.628 -0.1732  0.1766 -0.0594
   50MOL0     C 6799  14.776  10.180   6.704  0.3911 -0.2804 -0.0742
   50MOL0     C 6800  14.880  10.287   6.758  0.2392  0.3834 -0.3697
   50MOL0     C 6801  15.014  10.278   6.686 -0.4651  0.2501  0.6468
   50MOL0     C 6802  15.101  10.381   6.762  0.4047  0.1562  0.4045
   50MOL0     C 6803  15.227  10.417   6.679 -0.0720 -0.1391  0.4317
   50MOL0     C 6804  15.299  10.544   6.747  0.3673 -0.9038 -1.0066
   50MOL0     C 6805  15.332  10.542   6.902 -0.7251 -0.4030 -0.4032
   50MOL0     C 6806  15.411  10.667   6.945 -0.1525 -0.5585 -0.1483
   50MOL0    Cl 6807  15.572  10.678   6.873  0.3721  0.0344 -0.2950
   50MOL0     C 6808  14.531  10.083   6.580  0.4707 -0.1908  0.1844
   50MOL0     C 6809  14.399  10.046   6.561  0.5344 -0.2080  0.3576
   50MOL0     O 6810  14.139   9.979   6.726 -0.1958  0.3203 -0.0219
   50MOL0     C 6811  13.846  10.023   6.715 -0.5421  0.3716  1.2064
   50MOL0     C 6812  13.709  10.013   6.696  0.5285  1.0798  0.1077
   50MOL0     N 6813  13.026   9.881   6.724 -0.2853  0.6417 -0.3045
   50MOL0     N 6814  12.895   9.840   6.714 -0.5815 -0.1318 -0.4737
   50MOL0     C 6815  11.774   9.570   6.353  0.1091 -0.2698  0.4269
   50MOL0     C 6816  11.637   9.600   6.319  0.0651  0.1022  0.4212
   50MOL0     C 6817  11.186   9.612   6.406 -0.1137  1.1273  0.3206
   50MOL0     C 6818  11.105   9.534   6.330 -0.1480  0.0319 -0.4962
   50MOL0     C 6819  10.969   9.571   6.298 -0.1249  0.4690  0.2275
   50MOL0     C 6820  10.912   9.690   6.349  0.1373  0.8870  0.2490
   50MOL0     O 6821  10.787   9.718   6.312 -0.4561  0.3226  0.3865
   50MOL0     C 6822  10.738   9.852   6.313 -0.7799  0.4394  0.4584
   50MOL0     C 6823  10.599   9.857   6.257  0.4537  0.8417 -0.6906
   50MOL0     C 6824  10.553   9.993   6.198 -0.6277  0.1090  0.2670
   50MOL0     C 6825  10.444   9.980   6.090 -0.8253  0.0957 -0.4724
   50MOL0     C 6826  10.322   9.929   6.156  0.4333 -0.2265 -0.4021
   50MOL0     C 6827  10.223   9.887   6.219 -0.5264  0.5243 -0.3601
   50MOL0     C 6828  10.990   9.767   6.438  0.0742 -0.3051  0.0412
   50MOL0     C 6829  11.127   9.727   6.469  0.0050 -0.0877  1.5738
   50MOL0     C 6830  11.201   9.804   6.564 -0.6501 -0.6062 -0.7306
   50MOL0     H 6831  11.538   9.675   6.646  0.2374 -1.5366  1.7495
   50MOL0     H 6832  11.771   9.593   6.689 -0.0880  0.8889 -0.0188
   50MOL0     H 6833  12.059   9.523   6.337 -0.5342  0.3596  0.4332
   50MOL0     H 6834  11.977   9.375   6.388 -1.3969  0.8922 -1.9466
   50MOL0     H 6835  12.147   9.351   6.582  1.1620 -3.7929 -0.3581
   50MOL0     H 6836  12.201   9.318   6.421  0.4431 -0.0490 -0.1304
   50MOL0     H 6837  12.308   9.541   6.395  0.4262  1.0149 -0.3696
   50MOL0     H 6838  12.251   9.583   6.558  0.0394 -1.7863  2.5322
   50MOL0     H 6839  12.372   9.378   6.648  3.0358 -1.6955 -0.3823
   50MOL0     H 6840  12.426   9.342   6.488 -4.2926 -2.6810  0.8112
   50MOL0     H 6841  12.482   9.595   6.682  5.4851 -1.9357  4.5468
   50MOL0     H 6842  12.547   9.585   6.515 -1.1207  1.6693  0.9908
   50MOL0     H 6843  12.610   9.438   6.752 -1.1738  0.7276 -0.5644
   50MOL0     H 6844  12.654   9.370   6.593  0.8963  1.1668 -1.8675
   50MOL0     H 6845  12.784   9.587   6.565 -1.2744  0.8811  0.9722
   50MOL0     H 6846  12.849   9.468   6.657  0.6728  1.6352 -1.7606
   50MOL0     H 6847  12.676   9.700   6.775 -0.0027 -0.4618 -1.0045
   50MOL0     H 6848  12.760   9.570   6.867  2.3704 -3.0428 -1.8855
   50MOL0     H 6849  13.035   9.595   6.892  0.6366  0.4799  0.6131
   50MOL0     H 6850  13.264   9.668   6.860 -2.6783 -1.3024  0.5704
   50MOL0     H 6851  13.239   9.799   6.958 -1.9008 -1.1854  0.4143
   50MOL0     H 6852  13.301   9.974   6.786 -1.4537 -0.4689 -1.1254
   50MOL0     H 6853  13.425   9.856   6.807 -0.2560 -1.4811 -0.0574
   50MOL0     H 6854  13.293   9.733   6.610 -0.0255  0.4125  3.3788
   50MOL0     H 6855  13.263   9.900   6.579  0.7246 -0.3095 -0.9606
   50MOL0     H 6856  13.541   9.769   6.584  0.9281  0.9129 -1.0500
   50MOL0     H 6857  13.454   9.817   6.442 -1.5909  0.9107 -0.7400
   50MOL0     H 6858  13.694   9.924   6.377 -0.4608  0.2765  0.4656
   50MOL0     H 6859  14.064   9.936   6.364  1.2816  3.0651 -3.4323
   50MOL0     H 6860  13.938  10.048   6.296  0.5247  0.5375  0.3936
   50MOL0     H 6861  13.928   9.871   6.294  0.4156  0.7707 -1.7592
   50MOL0     H 6862  14.240  10.339   6.571  3.0233  3.5256 -0.5450
   50MOL0     H 6863  14.481  10.417   6.615 -0.3149  0.9721 -2.2663
   50MOL0     H 6864  14.715  10.130   6.780 -0.1469  1.7584  0.9235
   50MOL0     H 6865  14.818  10.102   6.640 -2.4646 -1.4743 -0.6185
   50MOL0     H 6866  14.830  10.385   6.758  2.5494  1.6676  0.4167
   50MOL0     H 6867  14.899  10.265   6.864  1.5002 -0.8151 -0.8199
   50MOL0     H 6868  14.998  10.301   6.581 -1.0921 -2.6528  0.0051
   50MOL0     H 6869  15.063  10.180   6.690  0.4398  0.7173  2.4653
   50MOL0     H 6870  15.134  10.342   6.859 -0.0739 -1.9899 -0.2458
   50MOL0     H 6871  15.042  10.471   6.784 -0.3919 -0.9438  3.0862
   50MOL0     H 6872  15.297  10.333   6.680  2.0711  1.5584  0.2916
   50MOL0     H 6873  15.198  10.441   6.577  0.2212  0.2002  0.4224
   50MOL0     H 6874  15.236  10.631   6.726  0.5722 -0.2663  0.8547
   50MOL0     H 6875  15.389  10.572   6.690 -1.5821  2.4849 -2.7946
   50MOL0     H 6876  15.385  10.449   6.926 -1.2719 -0.5877  0.1069
   50MOL0     H 6877  15.237  10.534   6.955 -0.4535 -2.7180 -0.1893
   50MOL0     H 6878  15.438  10.669   7.051  1.1644 -1.0872 -0.4628
   50MOL0     H 6879  15.351  10.753   6.914 -1.1403 -0.8012  1.0270
   50MOL0     H 6880  14.617  10.018   6.582  0.5921 -0.0125  1.3167
   50MOL0     H 6881  14.376   9.941   6.545  0.8435 -0.1893 -0.2487
   50MOL0     H 6882  13.894  10.035   6.812 -0.2384  1.9484  0.8885
   50MOL0     H 6883  13.630  10.031   6.768  0.8573  0.6442  0.5755
   50MOL0     H 6884  11.843   9.542   6.273  0.3555  1.3751  0.0291
   50MOL0     H 6885  11.604   9.603   6.216 -0.7334 -2.4167  0.5413
   50MOL0     H 6886  11.152   9.444   6.292  0.2187 -0.3228  0.7527
   50MOL0     H 6887  10.909   9.516   6.226 -2.6622  2.6444  0.5189
   50MOL0     H 6888  10.732   9.891   6.415 -0.8501 -2.0341  1.4598
   50MOL0     H 6889  10.800   9.911   6.244  1.5591 -0.3711  1.7673
   50MOL0     H 6890  10.537   9.816   6.337  1.3906  0.4476 -0.1460
   50MOL0     H 6891  10.600   9.778   6.182  2.3414  0.3414 -0.2176
   50MOL0     H 6892  10.518  10.070   6.267  1.1707  1.4609 -0.2416
   50MOL0     H 6893  10.637  10.045   6.152 -1.5599  2.4006  0.9866
   50MOL0     H 6894  10.475   9.912   6.011 -0.8697 -1.5634  0.8886
   50MOL0     H 6895  10.421  10.074   6.038 -1.0033  0.5136  0.3381
   50MOL0     H 6896  10.140   9.857   6.281 -0.1676  3.4718  1.7391
   50MOL0     H 6897  10.952   9.856   6.487  1.6777 -0.4091  1.6113
   50MOL0     H 6898  11.128   9.859   6.625 -2.2323 -1.2087 -2.0281
   50MOL0     H 6899  11.263   9.732   6.618  0.4064  0.4786 -0.4583
   50MOL0     H 6900  11.271   9.873   6.517  0.6494 -4.3955 -5.0789
   51MOL0     O 6901   3.702   0.072   2.700  0.0198 -0.8287 -0.5603
   51MOL0     C 6902   3.717   0.062   2.583  0.2252  0.8840  1.1203
   51MOL0     O 6903   3.827   0.089   2.509 -0.3197 -0.1459  0.5297
   51MOL0     C 6904   3.936   0.144   2.567  0.1430  0.7170  0.3405
   51MOL0     C 6905   4.022   0.051   2.628  0.0487 -0.7109  0.1062
   51MOL0     C 6906   4.137   0.095   2.686  0.3552 -0.1239 -0.4452
   51MOL0     C 6907   4.178   0.232   2.670  1.0372 -0.4106  0.8498
   51MOL0     O 6908   4.293   0.282   2.720 -0.3750  0.0781 -0.1155
   51MOL0     C 6909   4.372   0.187   2.799 -0.6935 -0.3138 -0.6016
   51MOL0     C 6910   4.500   0.251   2.834  0.4430 -0.0006  0.1154
   51MOL0     C 6911   4.599   0.256   2.719  0.3446  0.1642  0.2902
   51MOL0     C 6912   4.722   0.324   2.770  0.4361  0.1735  0.3086
   51MOL0     C 6913   4.815   0.321   2.647 -0.8796  0.0373 -0.7279
   51MOL0     C 6914   4.950   0.388   2.663 -0.6907  0.0506 -0.3622
   51MOL0     C 6915   4.943   0.518   2.746  0.2180  0.3086 -0.3819
   51MOL0     C 6916   5.087   0.581   2.754 -0.1259 -0.2361  0.4235
   51MOL0     N 6917   5.094   0.691   2.849  0.0495  0.1874 -0.9721
   51MOL0     C 6918   5.034   0.814   2.826  0.1030 -0.3493 -0.0353
   51MOL0     C 6919   5.093   0.896   2.918  0.1735 -0.3296  0.2993
   51MOL0     C 6920   5.073   1.043   2.951  0.6365 -0.1796  0.2662
   51MOL0     C 6921   5.185   1.130   2.895 -0.2196  0.2889 -0.5719
   51MOL0     C 6922   5.292   1.149   2.997  0.8690  0.1399 -0.6763
   51MOL0     C 6923   5.398   1.243   2.954 -0.4455  0.9698  0.3031
   51MOL0     O 6924   5.476   1.198   2.837  0.0647 -0.1856  0.2446
   51MOL0     C 6925   5.554   1.289   2.778 -0.5448  0.6187 -0.2014
   51MOL0     C 6926   5.637   1.238   2.672 -1.3442  0.5976 -0.4264
   51MOL0     C 6927   5.733   1.312   2.603  0.0421 -0.0300 -0.4238
   51MOL0     C 6928   5.816   1.238   2.504 -0.6701  0.0734 -0.2806
   51MOL0     C 6929   5.748   1.450   2.643 -0.5434 -0.2064 -0.5086
   51MOL0     C 6930   5.852   1.548   2.600 -0.5755 -0.6437  0.4154
   51MOL0     O 6931   5.860   1.676   2.657  0.1754 -0.3572  0.4354
   51MOL0     C 6932   5.942   1.767   2.593 -0.2287  0.3404 -0.4731
   51MOL0     C 6933   6.081   1.742   2.560  0.7622  0.1098  0.4809
   51MOL0     C 6934   6.156   1.842   2.500 -0.4025 -0.1871  0.1849
   51MOL0     C 6935   6.100   1.964   2.457 -0.0366  0.0451 -1.1349
   51MOL0     O 6936   6.168   2.057   2.393 -0.2560  0.2495  0.1753
   51MOL0     C 6937   6.303   2.077   2.415  1.1432 -0.1451  0.2170
   51MOL0     C 6938   6.353   2.220   2.383  0.2631 -0.0424  0.5496
   51MOL0     C 6939   6.515   2.216   2.385  0.2934 -0.1707  0.3368
   51MOL0     C 6940   6.571   2.331   2.292 -0.5661 -0.1440 -0.4242
   51MOL0     C 6941   6.535   2.314   2.145 -0.6723 -0.1280 -0.2479
   51MOL0     C 6942   6.608   2.202   2.068  0.4205  0.2327 -0.4140
   51MOL0     C 6943   6.499   2.125   1.990  0.3030  0.9506 -0.0874
   51MOL0     C 6944   6.536   2.150   1.848  0.2416 -0.5341  0.4609
   51MOL0    Cl 6945   6.697   2.091   1.800  0.0312  0.0756  0.2241
   51MOL0     C 6946   5.963   1.985   2.483 -0.0434 -0.2438 -0.3135
   51MOL0     C 6947   5.886   1.887   2.550 -0.3375 -1.1056 -0.8311
   51MOL0     O 6948   5.926   1.512   2.508 -0.7486  0.9043  0.3950
   51MOL0     C 6949   5.668   1.501   2.752 -0.0473  0.4093 -0.5533
   51MOL0     C 6950   5.571   1.422   2.821  0.0538  0.7349  0.3569
   51MOL0     N 6951   5.175   0.822   2.992 -0.2918 -0.6292  0.5599
   51MOL0     N 6952   5.178   0.702   2.957 -0.5012 -0.2152 -0.6070
   51MOL0     C 6953   4.095   0.324   2.604  0.5554  0.8008 -0.9468
   51MOL0     C 6954   3.972   0.278   2.556 -0.7662 -0.2729  0.4318
   51MOL0     C 6955   3.602   0.029   2.501 -0.1844  1.0480 -0.1658
   51MOL0     C 6956   3.597   0.092   2.371 -0.1198  0.3163  0.7486
   51MOL0     C 6957   3.492   0.065   2.279  0.6067  0.1428 -1.0634
   51MOL0     C 6958   3.390  -0.019   2.328  0.3405  0.0819 -0.8461
   51MOL0     O 6959   3.295  -0.038   2.231  0.0927 -0.2190  0.0597
   51MOL0     C 6960   3.186  -0.121   2.265 -0.6943  0.0473 -1.1223
   51MOL0     C 6961   3.221  -0.269   2.239  0.3900  0.3003  0.1690
   51MOL0     C 6962   3.254  -0.304   2.093 -0.4938 -0.9085  0.0961
   51MOL0     C 6963   3.301  -0.445   2.066  0.9767  0.3223 -0.1250
   51MOL0     C 6964   3.435  -0.476   2.115  0.1786  0.0145  0.2717
   51MOL0     C 6965   3.542  -0.512   2.154  0.1047 -0.5066  0.0689
   51MOL0     C 6966   3.391  -0.077   2.456  1.6869  0.1444  0.0969
   51MOL0     C 6967   3.499  -0.059   2.547 -0.7745 -0.5501  0.8992
   51MOL0     C 6968   3.498  -0.128   2.680  0.2532  0.6170  0.3200
   51MOL0     H 6969   3.991  -0.052   2.640  2.2567 -1.2443  1.7805
   51MOL0     H 6970   4.189   0.018   2.743 -0.7484  0.6285  1.6939
   51MOL0     H 6971   4.393   0.098   2.739  0.3318 -0.1157 -0.5484
   51MOL0     H 6972   4.317   0.164   2.891 -0.7548  0.2875 -0.4815
   51MOL0     H 6973   4.482   0.355   2.863 -1.1349  0.2083 -1.4525
   51MOL0     H 6974   4.554   0.200   2.914  2.3894 -2.2563 -2.4529
   51MOL0     H 6975   4.620   0.152   2.691  4.4035  1.4683 -2.4048
   51MOL0     H 6976   4.554   0.305   2.632  0.9535  0.3179  0.0561
   51MOL0     H 6977   4.707   0.419   2.822 -0.3323 -0.0984  0.5943
   51MOL0     H 6978   4.757   0.258   2.850  3.7982  1.4470  0.0800
   51MOL0     H 6979   4.771   0.360   2.555 -0.8012  1.0175 -0.3660
   51MOL0     H 6980   4.845   0.216   2.637 -0.3507  0.0714  0.3369
   51MOL0     H 6981   5.020   0.327   2.721  1.6618  2.7738 -0.1092
   51MOL0     H 6982   4.993   0.400   2.563 -2.8990 -3.5047 -1.9417
   51MOL0     H 6983   4.904   0.500   2.847 -0.8665  2.5525 -0.3534
   51MOL0     H 6984   4.878   0.594   2.701 -2.7117 -0.8847  1.4974
   51MOL0     H 6985   5.158   0.505   2.788 -0.7732 -1.2048 -0.3408
   51MOL0     H 6986   5.117   0.615   2.654  0.0405 -2.2643 -0.2811
   51MOL0     H 6987   4.954   0.824   2.753 -0.3272  0.9562  0.5778
   51MOL0     H 6988   5.066   1.049   3.060 -0.3333 -0.5834  0.2395
   51MOL0     H 6989   4.977   1.079   2.912  0.7819  1.5181  1.3613
   51MOL0     H 6990   5.230   1.083   2.807  2.3020  1.9068 -0.2443
   51MOL0     H 6991   5.139   1.226   2.870  1.9277  1.2922 -0.8893
   51MOL0     H 6992   5.244   1.186   3.088  1.6770 -0.9941  0.2461
   51MOL0     H 6993   5.346   1.056   3.021  0.8624 -0.3546 -2.4424
   51MOL0     H 6994   5.347   1.338   2.939  0.1423  1.1954 -0.3725
   51MOL0     H 6995   5.468   1.238   3.038 -1.5698 -3.5950  1.2614
   51MOL0     H 6996   5.629   1.133   2.644 -0.9504  0.8088 -1.3562
   51MOL0     H 6997   5.774   1.139   2.480 -1.0507  0.2497 -0.3446
   51MOL0     H 6998   5.908   1.214   2.558  0.4247  1.4052 -1.4702
   51MOL0     H 6999   5.853   1.294   2.418  0.6107  0.4386  0.4842
   51MOL0     H 7000   6.121   1.645   2.590  1.5231  0.3105  0.1324
   51MOL0     H 7001   6.263   1.827   2.485 -0.2072 -1.2063  2.3185
   51MOL0     H 7002   6.333   2.059   2.519 -2.4727  1.7213  1.7546
   51MOL0     H 7003   6.352   2.012   2.342 -0.6044  0.4674 -1.5975
   51MOL0     H 7004   6.313   2.249   2.285 -1.9468  0.4519  1.5271
   51MOL0     H 7005   6.311   2.294   2.452 -1.8158 -1.4465  0.9171
   51MOL0     H 7006   6.550   2.126   2.334  0.2617  1.1315 -2.1803
   51MOL0     H 7007   6.549   2.230   2.488  0.7404 -1.8038  0.4324
   51MOL0     H 7008   6.679   2.342   2.289 -0.6357  0.4338 -1.3895
   51MOL0     H 7009   6.527   2.429   2.312  1.8584  0.7470  0.8196
   51MOL0     H 7010   6.428   2.320   2.126 -0.2500  0.3295 -2.7797
   51MOL0     H 7011   6.576   2.405   2.099 -0.9735  1.0753  1.7336
   51MOL0     H 7012   6.653   2.126   2.132  0.7911  2.4297  2.1084
   51MOL0     H 7013   6.696   2.236   2.015  1.0404 -1.2655 -0.4026
   51MOL0     H 7014   6.395   2.153   2.010 -0.5138  0.3327 -2.9695
   51MOL0     H 7015   6.506   2.018   2.014 -0.4457  0.9552  0.1872
   51MOL0     H 7016   6.545   2.257   1.829 -0.1249 -0.1889  2.0529
   51MOL0     H 7017   6.457   2.113   1.783 -1.1293  1.8805  0.6631
   51MOL0     H 7018   5.923   2.084   2.466 -0.0989  0.1540  1.8533
   51MOL0     H 7019   5.780   1.911   2.549  0.0879  1.3404 -4.2439
   51MOL0     H 7020   5.665   1.600   2.795  0.3472  0.9580 -1.7481
   51MOL0     H 7021   5.518   1.461   2.907  1.6248 -0.4086  1.9215
   51MOL0     H 7022   4.127   0.426   2.586  2.2316  0.6976  1.1306
   51MOL0     H 7023   3.898   0.336   2.501 -0.4044 -1.3667 -1.2601
   51MOL0     H 7024   3.674   0.164   2.345 -1.9855  1.5597 -1.7030
   51MOL0     H 7025   3.480   0.107   2.180 -0.7076 -0.8688 -1.3455
   51MOL0     H 7026   3.142  -0.111   2.365 -1.2857 -2.9493 -0.9968
   51MOL0     H 7027   3.110  -0.079   2.199 -1.1296  2.5783  0.8082
   51MOL0     H 7028   3.130  -0.326   2.262 -0.5212 -0.2874 -4.0756
   51MOL0     H 7029   3.303  -0.293   2.307 -0.2024  0.3474  0.9122
   51MOL0     H 7030   3.164  -0.288   2.033 -0.0172 -0.8927 -0.6308
   51MOL0     H 7031   3.334  -0.238   2.060 -0.6863  0.0229  1.4042
   51MOL0     H 7032   3.289  -0.454   1.957 -1.4629  0.4412  0.0939
   51MOL0     H 7033   3.234  -0.522   2.104  0.1934  1.7514  1.4680
   51MOL0     H 7034   3.639  -0.551   2.181 -0.0860 -1.4873 -0.6158
   51MOL0     H 7035   3.315  -0.148   2.486  0.4125  0.4513 -2.1892
   51MOL0     H 7036   3.438  -0.220   2.675  1.0795  0.0173  0.9954
   51MOL0     H 7037   3.602  -0.158   2.697  0.3260 -0.0093 -1.0902
   51MOL0     H 7038   3.457  -0.069   2.763  0.2209 -2.2186  2.5109
   52MOL0     O 7039   9.277   3.831   4.381 -0.3222 -0.5630 -0.1079
   52MOL0     C 7040   9.169   3.790   4.431  0.6344 -0.7079 -0.5119
   52MOL0     O 7041   9.139   3.784   4.557  0.5586 -0.6176  0.3581
   52MOL0     C 7042   9.244   3.782   4.641 -0.1083  0.6943 -0.7027
   52MOL0     C 7043   9.274   3.673   4.720  0.3210 -0.2687  0.4950
   52MOL0     C 7044   9.372   3.681   4.823  0.0589  0.9010 -0.3126
   52MOL0     C 7045   9.424   3.803   4.856  0.1736 -1.3127 -0.3284
   52MOL0     O 7046   9.497   3.822   4.974  0.2797 -0.2096  0.3039
   52MOL0     C 7047   9.614   3.903   4.970  0.3152  0.2882 -0.4769
   52MOL0     C 7048   9.732   3.850   4.892  0.2604 -0.1085  0.0926
   52MOL0     C 7049   9.775   3.708   4.938  0.4953  0.5249  0.4734
   52MOL0     C 7050   9.906   3.702   5.006 -0.3700  0.5324  0.1027
   52MOL0     C 7051   9.959   3.560   5.012 -0.0660 -0.0123  0.1256
   52MOL0     C 7052  10.090   3.559   5.080 -0.0068 -0.6926  0.3574
   52MOL0     C 7053  10.216   3.634   5.010  0.4988  0.3271  0.6604
   52MOL0     C 7054  10.307   3.527   4.962 -0.7261  0.2614  0.7910
   52MOL0     N 7055  10.417   3.578   4.880  1.1637 -0.2309 -0.6086
   52MOL0     C 7056  10.522   3.651   4.932  0.1358 -0.7375  0.5013
   52MOL0     C 7057  10.610   3.672   4.824 -0.1454  0.5553  0.2706
   52MOL0     C 7058  10.744   3.743   4.834  0.3711  0.1076  0.4189
   52MOL0     C 7059  10.809   3.765   4.689  0.4231 -0.3591 -0.2709
   52MOL0     C 7060  10.915   3.877   4.680  0.7381  0.3465 -0.6035
   52MOL0     C 7061  11.051   3.847   4.627 -0.1777  0.4953 -0.1460
   52MOL0     O 7062  11.127   3.773   4.733  0.0429  0.6204  0.0022
   52MOL0     C 7063  11.242   3.700   4.704 -0.1073  0.3344  1.2364
   52MOL0     C 7064  11.248   3.599   4.607  1.3500 -0.3429  0.7997
   52MOL0     C 7065  11.369   3.529   4.574 -0.3122  0.3030 -0.5227
   52MOL0     C 7066  11.361   3.412   4.468  1.0230 -1.5941 -1.1562
   52MOL0     C 7067  11.491   3.566   4.635 -0.0461  0.3010 -0.9729
   52MOL0     C 7068  11.620   3.507   4.601 -0.5650  0.2885  0.4979
   52MOL0     O 7069  11.732   3.580   4.634 -0.4847 -0.1167  0.3121
   52MOL0     C 7070  11.857   3.531   4.615 -0.1339 -0.2420 -0.6184
   52MOL0     C 7071  11.904   3.412   4.675 -0.4144  0.0518 -0.3832
   52MOL0     C 7072  12.037   3.377   4.654 -0.2842  0.3589 -0.7524
   52MOL0     C 7073  12.122   3.453   4.571 -0.5648  0.6923  0.2673
   52MOL0     O 7074  12.251   3.406   4.553  0.4478  0.0818  0.2209
   52MOL0     C 7075  12.286   3.386   4.418  0.6725  0.2935  0.5292
   52MOL0     C 7076  12.430   3.351   4.406  0.5769  1.2617 -0.4891
   52MOL0     C 7077  12.526   3.472   4.435 -0.3973 -0.2595 -0.0416
   52MOL0     C 7078  12.668   3.416   4.465  0.3197 -0.7857 -0.2807
   52MOL0     C 7079  12.756   3.421   4.342  0.5661 -0.5738 -0.0188
   52MOL0     C 7080  12.888   3.360   4.377  0.4758 -0.3171  0.9492
   52MOL0     C 7081  13.010   3.413   4.291 -0.7532  0.0774  0.3027
   52MOL0     C 7082  13.151   3.362   4.320 -0.2628  0.4750  0.2924
   52MOL0    Cl 7083  13.190   3.432   4.476 -0.0658 -0.3491 -0.2031
   52MOL0     C 7084  12.073   3.569   4.512  0.3676 -0.1046 -0.7074
   52MOL0     C 7085  11.942   3.605   4.531  0.3085 -0.7642  0.2146
   52MOL0     O 7086  11.628   3.391   4.552  0.3509  0.1310 -0.1650
   52MOL0     C 7087  11.483   3.673   4.730 -0.5383 -0.3371 -0.5579
   52MOL0     C 7088  11.363   3.738   4.764  0.0932 -0.3820  0.4784
   52MOL0     N 7089  10.549   3.607   4.708 -0.2416  0.4336 -0.0317
   52MOL0     N 7090  10.433   3.558   4.746  0.3312  0.1463  0.1022
   52MOL0     C 7091   9.400   3.912   4.766 -0.1311  0.5863 -0.4196
   52MOL0     C 7092   9.320   3.902   4.660  0.3876 -0.1377  0.5926
   52MOL0     C 7093   9.057   3.738   4.337 -0.1958  0.6838  0.6512
   52MOL0     C 7094   8.929   3.720   4.392  0.5163 -1.0633 -0.4314
   52MOL0     C 7095   8.822   3.690   4.317  0.1529  0.7268 -0.2726
   52MOL0     C 7096   8.841   3.664   4.176 -0.2204  0.2387  0.1568
   52MOL0     O 7097   8.740   3.632   4.082  0.3123 -0.0048 -0.6650
   52MOL0     C 7098   8.604   3.658   4.135 -0.8648  1.2385  0.2343
   52MOL0     C 7099   8.494   3.641   4.038 -0.3728 -0.4744  0.4448
   52MOL0     C 7100   8.359   3.647   4.105 -0.2597 -0.1807 -0.2086
   52MOL0     C 7101   8.245   3.671   4.006 -0.7599  0.1703 -0.3528
   52MOL0     C 7102   8.121   3.646   4.076  0.0518 -0.0560  0.0467
   52MOL0     C 7103   8.019   3.608   4.133 -0.1368  0.6157 -0.0422
   52MOL0     C 7104   8.970   3.673   4.117  0.9660 -0.3075 -0.4567
   52MOL0     C 7105   9.073   3.714   4.196 -0.3067  0.2048 -0.2745
   52MOL0     C 7106   9.201   3.741   4.126  0.0293 -0.4446  0.8898
   52MOL0     H 7107   9.220   3.582   4.696  0.6565 -0.3426 -0.0056
   52MOL0     H 7108   9.405   3.594   4.878 -0.3425  1.0676  0.1931
   52MOL0     H 7109   9.649   3.904   5.073  0.5212 -2.1092 -0.4682
   52MOL0     H 7110   9.596   4.006   4.937  1.4245  0.7754  0.3588
   52MOL0     H 7111   9.706   3.841   4.786  0.4148 -2.0237  0.1835
   52MOL0     H 7112   9.813   3.922   4.911 -0.9686  1.7519 -1.2797
   52MOL0     H 7113   9.695   3.673   5.004 -0.7185 -0.1606 -1.2543
   52MOL0     H 7114   9.773   3.638   4.853 -1.4616 -0.0770  0.9433
   52MOL0     H 7115   9.967   3.779   4.959  0.5813  0.9626  1.9679
   52MOL0     H 7116   9.903   3.737   5.109  2.5874 -0.6000  0.6795
   52MOL0     H 7117   9.959   3.507   4.917 -0.1720  1.1328 -0.5239
   52MOL0     H 7118   9.890   3.508   5.079 -1.2020  0.9720 -0.2387
   52MOL0     H 7119  10.068   3.606   5.176  1.7305  1.5559 -0.2529
   52MOL0     H 7120  10.111   3.451   5.081 -1.0516 -0.9205 -0.7631
   52MOL0     H 7121  10.260   3.712   5.073 -2.1617  1.8695  0.7739
   52MOL0     H 7122  10.169   3.697   4.934  1.2930  0.5216  0.3239
   52MOL0     H 7123  10.364   3.472   5.038  1.8485 -0.6916 -1.6709
   52MOL0     H 7124  10.249   3.456   4.902 -0.9824  1.5991 -0.6074
   52MOL0     H 7125  10.544   3.690   5.030  1.4712 -0.4447  0.1043
   52MOL0     H 7126  10.814   3.674   4.883  0.6592 -0.5444 -0.8612
   52MOL0     H 7127  10.721   3.838   4.884  1.3881  0.6059 -0.0370
   52MOL0     H 7128  10.853   3.673   4.651  0.1009 -0.4271 -0.4858
   52MOL0     H 7129  10.730   3.788   4.616  0.3535 -1.5840 -0.6091
   52MOL0     H 7130  10.874   3.956   4.617  2.3409  1.3164 -0.4807
   52MOL0     H 7131  10.927   3.925   4.778 -1.1058 -1.0505  0.3765
   52MOL0     H 7132  11.036   3.786   4.538  2.5622 -1.9994  0.9181
   52MOL0     H 7133  11.103   3.938   4.595 -2.0787  2.1373  1.1703
   52MOL0     H 7134  11.164   3.572   4.544  2.2511  0.7202 -0.9622
   52MOL0     H 7135  11.434   3.427   4.388  1.5291  1.6469 -0.2043
   52MOL0     H 7136  11.259   3.400   4.431  0.0794  0.9534  0.3851
   52MOL0     H 7137  11.379   3.314   4.515 -0.9043 -1.8087 -0.7762
   52MOL0     H 7138  11.844   3.348   4.740  0.7133  2.1964  3.0227
   52MOL0     H 7139  12.077   3.285   4.694 -0.0024  1.0113  0.5115
   52MOL0     H 7140  12.229   3.310   4.364 -2.0662  2.0401  0.7786
   52MOL0     H 7141  12.272   3.481   4.365  0.6622 -0.1424 -0.2672
   52MOL0     H 7142  12.455   3.261   4.463  2.5004  0.9023 -1.8028
   52MOL0     H 7143  12.453   3.326   4.302 -3.1486 -0.5908 -1.0546
   52MOL0     H 7144  12.482   3.524   4.521 -2.2567 -0.2397 -0.9595
   52MOL0     H 7145  12.523   3.549   4.357 -2.4819 -0.2887 -0.0552
   52MOL0     H 7146  12.663   3.319   4.515  1.8312  0.5331  2.7527
   52MOL0     H 7147  12.714   3.484   4.537  1.2198 -2.1225  0.4440
   52MOL0     H 7148  12.715   3.363   4.259 -0.9349  0.3758  0.0146
   52MOL0     H 7149  12.761   3.522   4.300 -2.3409 -1.1037 -2.0003
   52MOL0     H 7150  12.871   3.254   4.356 -6.0880  0.7118 -1.3986
   52MOL0     H 7151  12.908   3.383   4.482 -0.2750 -0.2694  1.0907
   52MOL0     H 7152  13.017   3.521   4.307 -2.1158  0.4432 -1.2618
   52MOL0     H 7153  13.002   3.391   4.184 -0.2028  1.1819  0.0244
   52MOL0     H 7154  13.219   3.396   4.241 -0.4770 -1.3972 -0.7694
   52MOL0     H 7155  13.164   3.253   4.320 -1.4693  0.2403 -2.4014
   52MOL0     H 7156  12.123   3.639   4.446 -1.2347  2.0318  0.2364
   52MOL0     H 7157  11.912   3.698   4.483 -0.3212 -0.1132  1.7892
   52MOL0     H 7158  11.575   3.705   4.777 -0.4902  0.0863 -0.9368
   52MOL0     H 7159  11.371   3.820   4.834 -0.4888  0.4559 -0.4078
   52MOL0     H 7160   9.432   4.012   4.790  1.6221  0.6559 -2.7245
   52MOL0     H 7161   9.301   3.990   4.600  0.7781  0.2969  1.0936
   52MOL0     H 7162   8.903   3.744   4.495  0.6794 -1.5422 -0.2789
   52MOL0     H 7163   8.726   3.681   4.367  0.1027  1.1007 -0.2991
   52MOL0     H 7164   8.569   3.580   4.204 -1.7576  0.6800 -0.8176
   52MOL0     H 7165   8.601   3.754   4.187  1.0715  1.3364  0.2418
   52MOL0     H 7166   8.512   3.541   3.995 -0.5128 -0.0390 -0.6622
   52MOL0     H 7167   8.499   3.722   3.965 -0.0510 -0.0646  0.9222
   52MOL0     H 7168   8.345   3.551   4.156 -1.2425  1.5944  3.1425
   52MOL0     H 7169   8.361   3.725   4.181 -1.1670  1.5379 -1.8629
   52MOL0     H 7170   8.253   3.613   3.914 -3.5517  0.6176 -0.9702
   52MOL0     H 7171   8.261   3.772   3.969  0.9766  1.2857  2.9914
   52MOL0     H 7172   7.928   3.562   4.168  0.6297 -1.6842 -0.9262
   52MOL0     H 7173   8.982   3.644   4.013  1.7176  0.3495 -0.5591
   52MOL0     H 7174   9.271   3.667   4.166  0.4508 -1.7863 -2.0760
   52MOL0     H 7175   9.186   3.725   4.019 -0.8751  0.6484  0.8298
   52MOL0     H 7176   9.243   3.842   4.131  0.2345 -0.4622 -0.3104
   53MOL0     O 7177   0.514   3.745  11.085  0.5795  0.1156 -0.0611
   53MOL0     C 7178   0.499   3.673  10.985 -0.8940  0.3238  0.1464
   53MOL0     O 7179   0.602   3.613  10.915 -0.2723  0.1242  0.0543
   53MOL0     C 7180   0.739   3.618  10.952 -0.4124  0.7571 -0.1143
   53MOL0     C 7181   0.799   3.638  11.086  1.2360  0.6063  0.4020
   53MOL0     C 7182   0.936   3.625  11.106 -0.0021  0.1854  0.2170
   53MOL0     C 7183   1.020   3.611  10.994 -0.4515  0.1999 -0.0846
   53MOL0     O 7184   1.155   3.607  11.003 -0.2936  0.0482  0.3186
   53MOL0     C 7185   1.217   3.700  11.102 -1.5889 -0.4081  0.5290
   53MOL0     C 7186   1.346   3.740  11.032 -0.2260  0.1566  0.5392
   53MOL0     C 7187   1.450   3.794  11.135 -0.5071  0.2922 -0.6034
   53MOL0     C 7188   1.580   3.799  11.055  0.7556 -0.5701  0.2323
   53MOL0     C 7189   1.701   3.797  11.151 -0.8567  0.6292  0.2416
   53MOL0     C 7190   1.821   3.782  11.056 -0.3168 -0.4348 -1.3031
   53MOL0     C 7191   1.943   3.774  11.147  0.1781 -0.3654  0.2028
   53MOL0     C 7192   2.070   3.800  11.066  0.2429  0.2270 -0.1063
   53MOL0     N 7193   2.093   3.937  11.017  0.3618  0.8509 -0.2947
   53MOL0     C 7194   2.131   3.975  10.890 -0.1920 -0.2710 -0.3781
   53MOL0     C 7195   2.178   4.102  10.907  0.3260 -0.1431  0.4990
   53MOL0     C 7196   2.277   4.169  10.815 -0.0429  0.9410 -0.2844
   53MOL0     C 7197   2.429   4.170  10.852 -0.4457 -0.3329  1.1400
   53MOL0     C 7198   2.510   4.036  10.881 -0.3235 -0.6951 -0.3799
   53MOL0     C 7199   2.664   4.069  10.887  0.0276  0.2999 -0.2718
   53MOL0     O 7200   2.703   4.065  10.753 -0.2954 -0.1971  0.3643
   53MOL0     C 7201   2.836   4.059  10.731  0.4103  0.2937  0.0994
   53MOL0     C 7202   2.884   4.033  10.603  0.4892  0.4293  0.3118
   53MOL0     C 7203   3.014   4.006  10.572 -1.1145 -0.5809  0.2598
   53MOL0     C 7204   3.042   3.965  10.430  0.1037  0.5153  0.0180
   53MOL0     C 7205   3.112   4.044  10.672  0.3668 -0.3551 -0.1826
   53MOL0     C 7206   3.256   4.037  10.661 -0.5665 -0.0960 -0.3066
   53MOL0     O 7207   3.329   4.000  10.773 -0.2607 -0.4632  0.3317
   53MOL0     C 7208   3.462   3.996  10.765  0.3825 -1.0379  0.5974
   53MOL0     C 7209   3.528   3.913  10.675 -0.9403  0.3399  0.2631
   53MOL0     C 7210   3.673   3.917  10.673  0.1515 -0.1230  0.5882
   53MOL0     C 7211   3.752   4.000  10.753  0.0806 -0.3849  0.4587
   53MOL0     O 7212   3.892   4.010  10.748  0.3803  0.4572  0.1721
   53MOL0     C 7213   3.952   3.928  10.641  0.0196 -0.5593 -0.6189
   53MOL0     C 7214   4.085   3.980  10.597  0.0928 -0.5476 -0.0568
   53MOL0     C 7215   4.138   3.886  10.484  0.3349 -0.0908 -0.5594
   53MOL0     C 7216   4.052   3.858  10.358 -0.1464  0.4916  0.6632
   53MOL0     C 7217   4.039   3.986  10.284  0.6090 -0.2072 -0.9204
   53MOL0     C 7218   3.975   3.954  10.152  0.2938  0.5134  0.6750
   53MOL0     C 7219   3.934   4.079  10.073 -0.6759  0.0729  0.7694
   53MOL0     C 7220   3.872   4.031   9.937 -0.0078 -0.0888 -0.5862
   53MOL0    Cl 7221   3.971   3.935   9.830 -0.1201 -0.1248  0.2323
   53MOL0     C 7222   3.679   4.075  10.845  0.1302 -0.0377 -0.4602
   53MOL0     C 7223   3.541   4.072  10.859 -0.1113  1.1713 -0.1832
   53MOL0     O 7224   3.299   4.054  10.549 -0.5814  0.4607  0.4995
   53MOL0     C 7225   3.064   4.077  10.797 -0.5414 -0.9356 -0.3305
   53MOL0     C 7226   2.927   4.082  10.828 -0.9025  0.7645 -0.1884
   53MOL0     N 7227   2.153   4.137  11.036  0.7979 -0.3887  0.1704
   53MOL0     N 7228   2.101   4.048  11.104  0.2573  0.9394  0.0726
   53MOL0     C 7229   0.966   3.590  10.870  0.1642  1.1968  0.2432
   53MOL0     C 7230   0.832   3.586  10.847  0.0797 -0.2925 -0.1323
   53MOL0     C 7231   0.375   3.681  10.924  0.3299  0.3623  0.9814
   53MOL0     C 7232   0.257   3.679  11.001 -0.3061 -1.2079 -0.4479
   53MOL0     C 7233   0.126   3.701  10.956 -0.3170  0.7390 -0.6693
   53MOL0     C 7234   0.110   3.725  10.824  0.7536 -1.0037 -0.4089
   53MOL0     O 7235  -0.008   3.742  10.760  0.6493  0.7642  0.3552
   53MOL0     C 7236  -0.106   3.651  10.808 -0.1334 -0.2493  0.1069
   53MOL0     C 7237  -0.224   3.641  10.705 -0.1397  0.3705  0.2498
   53MOL0     C 7238  -0.338   3.548  10.757 -0.2829 -0.5923  0.2277
   53MOL0     C 7239  -0.465   3.636  10.776  0.8657  0.5273  0.7141
   53MOL0     C 7240  -0.580   3.558  10.820  1.0820  0.0483  0.7467
   53MOL0     C 7241  -0.678   3.500  10.862  0.2094  0.6946 -0.1089
   53MOL0     C 7242   0.228   3.733  10.740 -0.3270  0.3726  0.5991
   53MOL0     C 7243   0.356   3.711  10.784 -1.0596  0.2779 -0.1385
   53MOL0     C 7244   0.465   3.727  10.685 -0.2122 -0.2324  0.0361
   53MOL0     H 7245   0.740   3.649  11.176  1.8505 -0.9902  1.0338
   53MOL0     H 7246   0.970   3.647  11.207 -1.1780 -1.0940  0.9193
   53MOL0     H 7247   1.262   3.645  11.185 -0.1524 -0.1684 -0.0545
   53MOL0     H 7248   1.156   3.791  11.109 -1.0489  0.4688 -3.4365
   53MOL0     H 7249   1.386   3.658  10.971 -2.3074 -0.5325  0.0311
   53MOL0     H 7250   1.330   3.821  10.960  0.6640 -1.2796 -1.3926
   53MOL0     H 7251   1.414   3.892  11.170 -2.9548  0.5530 -3.5004
   53MOL0     H 7252   1.464   3.723  11.217 -0.5991  1.1635  0.1902
   53MOL0     H 7253   1.596   3.709  10.994 -1.2803  0.5329 -2.0841
   53MOL0     H 7254   1.583   3.890  10.996  0.3051 -2.4900 -2.9763
   53MOL0     H 7255   1.698   3.710  11.217 -0.0915  0.2673 -0.1948
   53MOL0     H 7256   1.701   3.881  11.221 -0.3782 -1.4367  2.8764
   53MOL0     H 7257   1.818   3.688  11.001 -1.5394 -0.2493 -1.5790
   53MOL0     H 7258   1.828   3.862  10.982 -0.5189  1.4118  0.5506
   53MOL0     H 7259   1.946   3.679  11.199 -1.0741 -1.4909 -1.6464
   53MOL0     H 7260   1.937   3.849  11.227 -0.6080 -1.4245  1.1609
   53MOL0     H 7261   2.155   3.779  11.133  1.4326 -1.1188 -1.9299
   53MOL0     H 7262   2.076   3.734  10.978  0.8596  0.2158 -0.0593
   53MOL0     H 7263   2.143   3.911  10.803  1.0553 -3.5435  2.0079
   53MOL0     H 7264   2.243   4.272  10.799 -2.5019 -0.0046 -1.7976
   53MOL0     H 7265   2.260   4.120  10.718 -3.7191 -1.2689  1.2615
   53MOL0     H 7266   2.471   4.205  10.757 -1.2865 -0.4530  0.7041
   53MOL0     H 7267   2.457   4.244  10.927  0.7620 -1.0058  1.3718
   53MOL0     H 7268   2.486   4.007  10.984 -0.2794 -0.8818 -0.4220
   53MOL0     H 7269   2.496   3.952  10.814  3.3427 -1.1649 -0.7609
   53MOL0     H 7270   2.677   4.169  10.929  1.3468 -0.0469  0.1679
   53MOL0     H 7271   2.714   4.004  10.959 -4.0294 -0.0752  2.6071
   53MOL0     H 7272   2.801   4.018  10.535  0.0839  2.8256  0.2042
   53MOL0     H 7273   2.955   3.963  10.363  2.1466 -2.7338 -2.9128
   53MOL0     H 7274   3.086   3.865  10.421 -2.3246 -0.6135 -0.2892
   53MOL0     H 7275   3.114   4.034  10.386  0.4192 -0.1110 -0.4506
   53MOL0     H 7276   3.473   3.848  10.608  1.2648 -0.5647 -0.7460
   53MOL0     H 7277   3.714   3.848  10.600 -2.3239 -1.7400  0.6178
   53MOL0     H 7278   3.948   3.822  10.667 -1.3384 -0.2486  0.5589
   53MOL0     H 7279   3.885   3.937  10.555 -0.9306  0.0416  0.1694
   53MOL0     H 7280   4.074   4.081  10.555  1.0865 -0.3671  0.0912
   53MOL0     H 7281   4.162   3.993  10.674  1.2333  2.4498 -1.5246
   53MOL0     H 7282   4.154   3.786  10.526 -1.3298 -0.0311  0.2817
   53MOL0     H 7283   4.239   3.915  10.453  0.7336 -0.0984  0.6447
   53MOL0     H 7284   3.958   3.807  10.379  0.3805  0.3507  2.9081
   53MOL0     H 7285   4.108   3.785  10.299  2.2845 -0.3576  3.7525
   53MOL0     H 7286   3.989   4.063  10.343  1.0966  0.0999 -0.9008
   53MOL0     H 7287   4.142   4.021  10.274  1.2216 -1.4690  0.4349
   53MOL0     H 7288   3.894   3.883  10.172  0.4005  0.7342  2.0252
   53MOL0     H 7289   4.056   3.908  10.096  0.4614  1.3324  0.2370
   53MOL0     H 7290   4.029   4.123  10.041  1.0727 -3.8891 -0.0859
   53MOL0     H 7291   3.876   4.151  10.131  0.1238  0.4612  1.1131
   53MOL0     H 7292   3.841   4.121   9.883  1.1668  1.0717  0.6179
   53MOL0     H 7293   3.779   3.975   9.944 -0.6421  0.8411 -1.2940
   53MOL0     H 7294   3.729   4.142  10.913 -2.3667  0.4541  1.0377
   53MOL0     H 7295   3.493   4.111  10.948 -1.4235  1.6881 -1.0897
   53MOL0     H 7296   3.130   4.091  10.882  1.8282 -0.3866 -2.1373
   53MOL0     H 7297   2.895   4.098  10.930 -2.5740 -2.3313 -0.1022
   53MOL0     H 7298   1.039   3.582  10.790 -0.0597 -4.4224  0.2248
   53MOL0     H 7299   0.791   3.585  10.746  2.1527 -2.5115 -1.0312
   53MOL0     H 7300   0.273   3.662  11.107 -0.7759  0.2241 -0.1337
   53MOL0     H 7301   0.047   3.691  11.030  0.0171  1.3965 -0.2165
   53MOL0     H 7302  -0.061   3.552  10.823  0.5090  0.0871  0.4253
   53MOL0     H 7303  -0.149   3.683  10.904  1.9633  1.0458  0.6603
   53MOL0     H 7304  -0.189   3.594  10.613  0.9142  0.8861  0.3611
   53MOL0     H 7305  -0.265   3.736  10.670 -1.6499  0.6065  2.4871
   53MOL0     H 7306  -0.367   3.486  10.671 -0.8717 -1.6439  1.1476
   53MOL0     H 7307  -0.293   3.486  10.835  1.1189 -2.6465 -2.0366
   53MOL0     H 7308  -0.482   3.694  10.685 -0.2436  3.0201  2.3985
   53MOL0     H 7309  -0.448   3.710  10.855  1.5416  0.6707  0.4424
   53MOL0     H 7310  -0.762   3.438  10.887  0.4263  0.4513  0.0218
   53MOL0     H 7311   0.203   3.749  10.635 -0.3933 -0.2785  0.5152
   53MOL0     H 7312   0.499   3.624  10.668  1.0314  0.3784 -1.4348
   53MOL0     H 7313   0.420   3.773  10.597 -1.7887 -1.3089  0.2391
   53MOL0     H 7314   0.550   3.789  10.715  0.9655 -0.6304 -2.2549
   54MOL0     O 7315   4.379   3.708   1.663 -0.5890  0.3934 -0.0744
   54MOL0     C 7316   4.434   3.608   1.620 -0.4963  0.1605 -0.4983
   54MOL0     O 7317   4.560   3.606   1.565 -0.0503 -0.7040 -0.3103
   54MOL0     C 7318   4.642   3.716   1.582  0.0552  0.7944  0.6096
   54MOL0     C 7319   4.699   3.787   1.471 -1.5958 -0.2334 -0.0156
   54MOL0     C 7320   4.791   3.895   1.494 -0.7495  0.0338 -0.0107
   54MOL0     C 7321   4.826   3.913   1.625 -0.3442  0.4362 -0.1627
   54MOL0     O 7322   4.934   3.994   1.655  0.0289  0.1591  0.3599
   54MOL0     C 7323   5.055   3.986   1.579 -0.7238  0.0661  0.4594
   54MOL0     C 7324   5.124   3.859   1.611  0.2253  0.3441 -0.0154
   54MOL0     C 7325   5.267   3.865   1.568 -0.3351 -0.3708  0.0038
   54MOL0     C 7326   5.341   3.736   1.584  0.3182 -0.0988 -0.1334
   54MOL0     C 7327   5.479   3.760   1.547  0.1912 -0.5258 -0.5653
   54MOL0     C 7328   5.568   3.638   1.582 -0.6259 -0.5231 -0.1854
   54MOL0     C 7329   5.715   3.663   1.572 -0.1940  1.1087 -0.0245
   54MOL0     C 7330   5.773   3.749   1.459  0.0871 -0.1104 -0.0695
   54MOL0     N 7331   5.919   3.746   1.448 -0.4969 -0.2122 -0.2115
   54MOL0     C 7332   6.008   3.639   1.434  0.7961  0.0475 -0.2320
   54MOL0     C 7333   6.131   3.686   1.455 -0.4471  0.7388 -0.4947
   54MOL0     C 7334   6.260   3.616   1.460 -0.4658 -0.6166 -0.3921
   54MOL0     C 7335   6.239   3.496   1.562  0.5981  0.4131  0.3738
   54MOL0     C 7336   6.343   3.381   1.567  0.1158 -0.0596  0.5675
   54MOL0     C 7337   6.493   3.431   1.580  0.2175  0.1369  0.2841
   54MOL0     O 7338   6.544   3.468   1.453  0.4103 -0.6601 -0.0346
   54MOL0     C 7339   6.675   3.511   1.440  0.5329  0.3733 -0.4406
   54MOL0     C 7340   6.722   3.553   1.321 -0.3778 -0.1783  0.2550
   54MOL0     C 7341   6.859   3.603   1.302  1.1799  0.5948  0.3535
   54MOL0     C 7342   6.886   3.663   1.169  0.1062 -0.0361  0.6076
   54MOL0     C 7343   6.947   3.600   1.410  0.1145  0.8374 -0.0292
   54MOL0     C 7344   7.090   3.635   1.396 -0.2333 -0.2195  0.9284
   54MOL0     O 7345   7.142   3.673   1.278  0.3274 -0.3704  0.4597
   54MOL0     C 7346   7.268   3.711   1.278 -0.3094  0.1626 -0.6144
   54MOL0     C 7347   7.314   3.828   1.350 -0.0790 -0.1599 -0.1605
   54MOL0     C 7348   7.451   3.861   1.349  0.1446  0.1525  0.5000
   54MOL0     C 7349   7.546   3.791   1.278 -0.5300 -0.0405  0.6212
   54MOL0     O 7350   7.676   3.827   1.305  0.0281  0.8107  0.4084
   54MOL0     C 7351   7.773   3.772   1.218 -0.0601 -0.1519  0.2791
   54MOL0     C 7352   7.905   3.826   1.266 -0.2547 -0.7559 -0.4332
   54MOL0     C 7353   8.031   3.757   1.208  0.1023  0.3847 -0.3567
   54MOL0     C 7354   8.162   3.835   1.239  0.0942  0.1585 -0.3338
   54MOL0     C 7355   8.278   3.767   1.165 -0.1465  0.3258  0.2807
   54MOL0     C 7356   8.403   3.814   1.218  0.3626 -0.0300  0.0077
   54MOL0     C 7357   8.527   3.728   1.183 -0.0666  0.7776 -0.4417
   54MOL0     C 7358   8.648   3.829   1.183  0.3652 -0.3468  1.0433
   54MOL0    Cl 7359   8.797   3.733   1.125  0.0896  0.5286  0.1336
   54MOL0     C 7360   7.502   3.689   1.199  0.4959 -0.2916  0.2043
   54MOL0     C 7361   7.359   3.650   1.200 -0.5022  0.0261  0.9586
   54MOL0     O 7362   7.160   3.620   1.502 -0.1559 -0.1116  0.1145
   54MOL0     C 7363   6.897   3.550   1.527  0.2659  0.0993  0.5147
   54MOL0     C 7364   6.767   3.506   1.545 -0.1241 -0.3185 -0.4856
   54MOL0     N 7365   6.116   3.823   1.473 -0.0257  0.3897 -0.2616
   54MOL0     N 7366   5.989   3.862   1.470  1.0290 -0.7473  0.7979
   54MOL0     C 7367   4.771   3.847   1.736  0.3397 -0.2139  0.1084
   54MOL0     C 7368   4.674   3.751   1.715 -0.0263  0.3414  0.2034
   54MOL0     C 7369   4.364   3.481   1.635  0.2505  0.1542  0.6719
   54MOL0     C 7370   4.435   3.357   1.616 -0.8271 -0.4301  0.1220
   54MOL0     C 7371   4.375   3.232   1.626  0.3233  0.5042 -0.6008
   54MOL0     C 7372   4.234   3.223   1.652  0.0904  0.6584  0.5586
   54MOL0     O 7373   4.161   3.106   1.659  0.9449 -0.3967  0.0215
   54MOL0     C 7374   4.055   3.096   1.550  0.3663 -0.1468 -0.0176
   54MOL0     C 7375   3.930   3.014   1.578  0.8981  0.7582 -0.6621
   54MOL0     C 7376   3.956   2.863   1.559 -0.6000  0.5828  0.0176
   54MOL0     C 7377   3.931   2.809   1.413 -0.3184  0.0413 -0.3770
   54MOL0     C 7378   4.034   2.845   1.313  0.2867 -0.6659  0.9881
   54MOL0     C 7379   4.110   2.878   1.227  0.1639  0.6176  0.0587
   54MOL0     C 7380   4.166   3.346   1.664  0.1740 -0.0840  0.2886
   54MOL0     C 7381   4.226   3.465   1.649 -0.4778 -0.1517 -0.0224
   54MOL0     C 7382   4.123   3.575   1.654 -0.1839  0.3276  0.9282
   54MOL0     H 7383   4.665   3.773   1.369  0.9799  2.5321 -1.4232
   54MOL0     H 7384   4.829   3.951   1.410 -0.2645  0.8999  0.7763
   54MOL0     H 7385   5.118   4.071   1.607 -1.3613  1.6062 -2.3558
   54MOL0     H 7386   5.043   3.990   1.470  0.1356  0.1670  0.3608
   54MOL0     H 7387   5.124   3.850   1.720  2.0407  0.7896  0.0556
   54MOL0     H 7388   5.066   3.781   1.562 -1.8969  2.2379 -0.6880
   54MOL0     H 7389   5.261   3.876   1.460 -2.4494 -0.7616  0.0461
   54MOL0     H 7390   5.322   3.946   1.617  1.3687 -1.2545 -0.3438
   54MOL0     H 7391   5.336   3.694   1.684 -0.0812  0.1384 -0.0533
   54MOL0     H 7392   5.296   3.663   1.517 -2.1681  1.9478 -0.8703
   54MOL0     H 7393   5.504   3.848   1.607 -4.4934 -0.7146  2.2199
   54MOL0     H 7394   5.490   3.790   1.443  1.8091  4.3712  0.7546
   54MOL0     H 7395   5.541   3.594   1.678 -0.2629 -0.8191 -0.2135
   54MOL0     H 7396   5.538   3.563   1.508 -0.0073  0.2895 -1.3068
   54MOL0     H 7397   5.759   3.565   1.552  1.4200  2.3676 -3.4598
   54MOL0     H 7398   5.758   3.705   1.663  2.0605 -0.3883 -0.3030
   54MOL0     H 7399   5.735   3.731   1.359  3.3210  2.3550 -1.9318
   54MOL0     H 7400   5.724   3.844   1.482 -4.1188 -1.8729 -0.8741
   54MOL0     H 7401   5.972   3.541   1.405 -1.0113  0.5258  0.2432
   54MOL0     H 7402   6.329   3.685   1.510 -1.2616 -0.1318  0.0462
   54MOL0     H 7403   6.299   3.577   1.366  1.7719 -0.2927  0.3384
   54MOL0     H 7404   6.239   3.541   1.661 -1.0932 -0.6613  0.8957
   54MOL0     H 7405   6.145   3.449   1.532 -0.1471  2.1714 -0.1564
   54MOL0     H 7406   6.314   3.314   1.648 -1.7139 -3.1032 -2.3281
   54MOL0     H 7407   6.326   3.329   1.472  0.0911  1.6938 -0.4329
   54MOL0     H 7408   6.492   3.518   1.646  0.1689 -1.0169  1.8642
   54MOL0     H 7409   6.552   3.354   1.631  0.7262 -1.4365 -2.4821
   54MOL0     H 7410   6.661   3.569   1.233  2.5059 -0.2770 -1.9252
   54MOL0     H 7411   6.795   3.650   1.110  0.1160 -3.9861  1.1867
   54MOL0     H 7412   6.959   3.607   1.110 -1.2656 -1.3534  0.1068
   54MOL0     H 7413   6.903   3.771   1.178 -0.0029 -0.0237  0.6682
   54MOL0     H 7414   7.244   3.894   1.399  1.1020  1.5295 -0.6307
   54MOL0     H 7415   7.483   3.954   1.396 -0.0213  1.6668 -2.1791
   54MOL0     H 7416   7.774   3.663   1.207  1.2349 -0.1449  0.1702
   54MOL0     H 7417   7.761   3.808   1.116  2.8866  3.7944  1.0870
   54MOL0     H 7418   7.899   3.933   1.246 -1.4801 -0.7028  0.0999
   54MOL0     H 7419   7.908   3.815   1.375  0.8150  1.6119 -0.1682
   54MOL0     H 7420   8.029   3.757   1.099  0.6702 -0.1309 -0.3740
   54MOL0     H 7421   8.040   3.658   1.255  2.6155  0.6468 -0.1430
   54MOL0     H 7422   8.187   3.832   1.345 -1.1440 -2.0232 -0.0324
   54MOL0     H 7423   8.145   3.937   1.203 -1.7042  1.1011  2.7975
   54MOL0     H 7424   8.277   3.660   1.185  0.5918  0.3072  0.2424
   54MOL0     H 7425   8.272   3.794   1.059  2.9914  2.8877  0.6100
   54MOL0     H 7426   8.396   3.821   1.327 -5.0994  0.0888 -0.0640
   54MOL0     H 7427   8.415   3.916   1.182 -0.2932  1.6694  4.0599
   54MOL0     H 7428   8.510   3.685   1.084  0.1371 -1.9949  0.6573
   54MOL0     H 7429   8.536   3.641   1.249  1.4932 -0.8212 -2.6352
   54MOL0     H 7430   8.660   3.876   1.281  0.5726  0.5570  0.5969
   54MOL0     H 7431   8.630   3.909   1.111 -1.3989 -2.0319 -0.4933
   54MOL0     H 7432   7.570   3.634   1.135  0.8897  0.2019  0.1967
   54MOL0     H 7433   7.322   3.569   1.137 -1.2575  1.6565 -0.8019
   54MOL0     H 7434   6.966   3.539   1.610  1.0088  0.5627 -0.0211
   54MOL0     H 7435   6.752   3.467   1.645 -3.9488 -0.5449 -0.9912
   54MOL0     H 7436   4.812   3.876   1.833  1.6603 -0.8813 -0.2147
   54MOL0     H 7437   4.627   3.688   1.791 -0.5642 -2.7815 -2.5039
   54MOL0     H 7438   4.544   3.361   1.612 -0.8567 -0.2278 -0.6457
   54MOL0     H 7439   4.438   3.145   1.611  1.3466  1.1479 -0.1949
   54MOL0     H 7440   4.011   3.195   1.531 -2.7365 -1.0154  1.9363
   54MOL0     H 7441   4.103   3.053   1.461  0.9481 -1.9174  1.1041
   54MOL0     H 7442   3.845   3.048   1.518  0.5781  0.3392 -0.4479
   54MOL0     H 7443   3.890   3.041   1.676  1.3530  1.0337 -0.5478
   54MOL0     H 7444   4.057   2.843   1.596 -0.7719  0.2759  0.3190
   54MOL0     H 7445   3.882   2.820   1.627 -0.9849  0.6926 -0.3252
   54MOL0     H 7446   3.828   2.826   1.382 -1.7160 -1.7961  2.8161
   54MOL0     H 7447   3.934   2.700   1.414 -0.1468 -0.0308 -2.7233
   54MOL0     H 7448   4.176   2.904   1.147 -2.4244  1.1049 -2.0464
   54MOL0     H 7449   4.058   3.340   1.654  0.3712 -2.0773 -1.1965
   54MOL0     H 7450   4.126   3.656   1.727  2.8644  2.2824 -1.1214
   54MOL0     H 7451   4.125   3.618   1.553  0.3596  3.5467  2.2089
   54MOL0     H 7452   4.022   3.538   1.673 -0.6121  0.0861 -1.5048
   55MOL0     O 7453   6.489   1.907   0.415 -0.3530 -0.6485  0.2813
   55MOL0     C 7454   6.486   1.826   0.326 -0.4029 -0.5398 -0.5792
   55MOL0     O 7455   6.600   1.779   0.258  0.6394  0.5203 -0.4524
   55MOL0     C 7456   6.715   1.847   0.267  0.1496  1.1620 -0.1824
   55MOL0     C 7457   6.825   1.771   0.294  0.0754 -0.4382  0.8323
   55MOL0     C 7458   6.955   1.819   0.299  0.2311 -0.4286 -0.0988
   55MOL0     C 7459   6.980   1.960   0.291  0.8279  0.5129  0.3696
   55MOL0     O 7460   7.100   2.022   0.286  0.1186  0.2460 -0.0055
   55MOL0     C 7461   7.216   1.957   0.342  0.5492 -0.9683  0.1400
   55MOL0     C 7462   7.334   2.047   0.323  0.8648  0.2863  0.7911
   55MOL0     C 7463   7.463   1.974   0.346 -0.3282 -0.7101 -0.2407
   55MOL0     C 7464   7.576   2.074   0.308  0.6618 -0.3864  0.1731
   55MOL0     C 7465   7.717   2.023   0.317  0.5447  0.9256  0.4640
   55MOL0     C 7466   7.778   2.023   0.464  0.4975 -0.4206 -0.3936
   55MOL0     C 7467   7.929   2.007   0.463 -1.2050  0.0024 -0.5182
   55MOL0     C 7468   7.976   1.868   0.450 -0.4699  0.2653  0.1364
   55MOL0     N 7469   8.119   1.854   0.477 -0.0226 -1.0065 -0.4396
   55MOL0     C 7470   8.169   1.869   0.600  0.6746 -0.6379  0.0887
   55MOL0     C 7471   8.299   1.843   0.587 -0.1472 -0.0346 -0.0097
   55MOL0     C 7472   8.406   1.859   0.696  0.2249  0.0905  0.2023
   55MOL0     C 7473   8.438   1.725   0.750  0.0188  0.0514 -0.1855
   55MOL0     C 7474   8.516   1.640   0.649 -0.3753  0.6616 -0.5565
   55MOL0     C 7475   8.561   1.508   0.713  0.2217  0.1884  0.0639
   55MOL0     O 7476   8.661   1.539   0.815 -0.2757  0.0567 -0.5100
   55MOL0     C 7477   8.799   1.548   0.776  0.2909  0.5778 -0.4350
   55MOL0     C 7478   8.834   1.553   0.643 -0.3210 -0.9196  0.7530
   55MOL0     C 7479   8.975   1.580   0.611 -0.1973  0.2731  0.5580
   55MOL0     C 7480   9.006   1.568   0.465  0.7183  0.4933 -0.2315
   55MOL0     C 7481   9.069   1.599   0.710 -0.4102 -0.4342 -0.4015
   55MOL0     C 7482   9.213   1.617   0.684 -0.6545 -0.0931  0.4529
   55MOL0     O 7483   9.271   1.678   0.577  0.4915 -0.3503  0.0304
   55MOL0     C 7484   9.404   1.662   0.566 -0.3229 -0.1724 -0.0644
   55MOL0     C 7485   9.450   1.557   0.487 -0.0761 -0.8752 -0.0518
   55MOL0     C 7486   9.587   1.540   0.465 -0.2048 -0.1844 -0.0947
   55MOL0     C 7487   9.684   1.625   0.507 -0.2460  0.2096  0.0081
   55MOL0     O 7488   9.816   1.621   0.477  0.1160  0.2385 -0.2270
   55MOL0     C 7489   9.882   1.497   0.492 -0.0114  0.2139 -0.4844
   55MOL0     C 7490  10.022   1.517   0.540  0.3121 -0.6313 -0.2847
   55MOL0     C 7491  10.113   1.586   0.438  0.1852  0.7723 -0.1041
   55MOL0     C 7492  10.132   1.735   0.449  0.1021  0.5722 -0.3455
   55MOL0     C 7493  10.202   1.805   0.338  0.4966  0.1182  0.2247
   55MOL0     C 7494  10.319   1.724   0.271  0.1548 -0.2262  0.3850
   55MOL0     C 7495  10.412   1.825   0.217 -0.3641  0.0073 -0.4702
   55MOL0     C 7496  10.497   1.793   0.088  0.2025  0.0570 -0.6507
   55MOL0    Cl 7497  10.636   1.681   0.131  0.2570 -0.5640 -0.0548
   55MOL0     C 7498   9.640   1.743   0.574 -0.2957  1.2350 -0.8164
   55MOL0     C 7499   9.505   1.758   0.602  0.0759 -0.1633 -0.0491
   55MOL0     O 7500   9.282   1.574   0.780  0.8452 -0.5308  0.4773
   55MOL0     C 7501   9.026   1.604   0.846  0.4498 -0.3699  0.0882
   55MOL0     C 7502   8.886   1.583   0.874  0.4305  0.4505 -0.7894
   55MOL0     N 7503   8.329   1.816   0.453  0.4802  0.5380  0.2674
   55MOL0     N 7504   8.212   1.807   0.389 -0.4930 -0.0510 -0.0093
   55MOL0     C 7505   6.862   2.035   0.262 -0.7720  0.0555 -0.0520
   55MOL0     C 7506   6.733   1.986   0.250 -0.4373  0.7334 -0.3219
   55MOL0     C 7507   6.357   1.764   0.284  0.1107  0.0034  0.3023
   55MOL0     C 7508   6.374   1.649   0.195 -0.7671 -0.0265  0.1436
   55MOL0     C 7509   6.258   1.588   0.147  0.4460 -0.0181 -0.0212
   55MOL0     C 7510   6.129   1.638   0.181 -0.3262 -0.0958 -0.0689
   55MOL0     O 7511   6.010   1.580   0.142 -0.5411 -0.7347  0.3491
   55MOL0     C 7512   6.004   1.466   0.049 -0.0384  0.1343  0.2382
   55MOL0     C 7513   6.039   1.525  -0.093 -0.6136 -0.3724  0.1235
   55MOL0     C 7514   6.021   1.419  -0.200  0.3366 -0.4452 -0.3389
   55MOL0     C 7515   5.869   1.407  -0.225  0.3465 -0.4530  0.5813
   55MOL0     C 7516   5.839   1.301  -0.325  0.5666  0.2626  0.8084
   55MOL0     C 7517   5.867   1.220  -0.420  0.0110  0.5964 -0.7066
   55MOL0     C 7518   6.119   1.743   0.268  0.1209  0.8306 -0.4967
   55MOL0     C 7519   6.229   1.798   0.333  0.4745 -0.1286  1.4209
   55MOL0     C 7520   6.204   1.903   0.440 -0.7569 -0.6611 -0.9624
   55MOL0     H 7521   6.804   1.665   0.310  1.4901 -1.1442 -1.4671
   55MOL0     H 7522   7.041   1.757   0.322  1.8875  1.3800 -1.0833
   55MOL0     H 7523   7.229   1.859   0.296 -3.0614 -1.4680 -0.1493
   55MOL0     H 7524   7.197   1.947   0.450 -1.4826  0.5236 -0.0188
   55MOL0     H 7525   7.328   2.076   0.218 -0.8870 -0.5282  0.6347
   55MOL0     H 7526   7.317   2.131   0.391 -0.7219  2.5617 -2.2123
   55MOL0     H 7527   7.474   1.934   0.448 -0.5071 -1.1885 -0.4067
   55MOL0     H 7528   7.474   1.890   0.277  1.8172 -1.5024  0.9572
   55MOL0     H 7529   7.561   2.099   0.203  3.4469  2.9052  0.3939
   55MOL0     H 7530   7.555   2.169   0.359 -1.3364 -1.3051  1.2075
   55MOL0     H 7531   7.781   2.082   0.251 -2.1617  0.7608 -2.6052
   55MOL0     H 7532   7.723   1.926   0.268  4.0634  1.2901 -0.0702
   55MOL0     H 7533   7.741   2.115   0.511 -2.2278 -2.6430  2.2092
   55MOL0     H 7534   7.733   1.943   0.524  1.2521 -1.3477 -1.0314
   55MOL0     H 7535   7.973   2.049   0.554  2.4202  0.3455 -2.2736
   55MOL0     H 7536   7.969   2.066   0.380  0.3854 -2.0734 -1.3162
   55MOL0     H 7537   7.935   1.797   0.522  0.7020 -0.6949 -0.0872
   55MOL0     H 7538   7.957   1.827   0.350  0.7420 -1.8127  0.6921
   55MOL0     H 7539   8.128   1.905   0.694  0.7717  2.4387 -0.9353
   55MOL0     H 7540   8.370   1.920   0.779  0.8811 -0.6894  1.0761
   55MOL0     H 7541   8.498   1.906   0.659  2.1926 -2.9672  0.7885
   55MOL0     H 7542   8.503   1.738   0.838  1.1048 -0.1707 -0.9367
   55MOL0     H 7543   8.346   1.673   0.775  0.1291 -0.7372 -1.3670
   55MOL0     H 7544   8.464   1.619   0.555 -2.8621  1.3945  0.5818
   55MOL0     H 7545   8.606   1.695   0.619  0.6782 -0.4798  0.3518
   55MOL0     H 7546   8.476   1.454   0.755 -0.6899  0.9906 -0.6919
   55MOL0     H 7547   8.610   1.440   0.642  1.8818 -0.1980  1.5174
   55MOL0     H 7548   8.770   1.535   0.557  0.3915 -0.3932  0.0901
   55MOL0     H 7549   9.015   1.462   0.437 -1.0754  0.4617 -0.8268
   55MOL0     H 7550   9.101   1.618   0.444  0.8119 -0.1880 -1.5578
   55MOL0     H 7551   8.920   1.606   0.408  1.2805  1.0679 -0.7051
   55MOL0     H 7552   9.378   1.489   0.442 -0.3426 -0.8382  0.3145
   55MOL0     H 7553   9.623   1.455   0.409 -1.2598 -2.0580  1.9270
   55MOL0     H 7554   9.821   1.428   0.551  1.5002 -0.6259  0.1455
   55MOL0     H 7555   9.893   1.445   0.397  1.7687 -0.7844  0.2223
   55MOL0     H 7556  10.029   1.579   0.630  1.5911  0.0560 -0.8432
   55MOL0     H 7557  10.068   1.421   0.565  0.5002 -0.9945 -1.9084
   55MOL0     H 7558  10.064   1.564   0.343  0.3911  1.3355 -0.3472
   55MOL0     H 7559  10.210   1.535   0.440 -1.2678 -2.3923 -1.5870
   55MOL0     H 7560  10.193   1.752   0.539  1.1782 -4.4629  0.1478
   55MOL0     H 7561  10.035   1.784   0.462 -0.4827 -0.8419  0.9465
   55MOL0     H 7562  10.129   1.831   0.262 -0.0946 -0.3277  0.6267
   55MOL0     H 7563  10.245   1.898   0.377  1.4568 -0.0709 -0.3355
   55MOL0     H 7564  10.272   1.661   0.194 -1.2230  0.4028  0.6714
   55MOL0     H 7565  10.365   1.650   0.337 -0.3802 -0.3609  0.6183
   55MOL0     H 7566  10.484   1.858   0.293 -0.1884 -3.7546  1.2440
   55MOL0     H 7567  10.360   1.917   0.190  0.3718  0.7426  0.5124
   55MOL0     H 7568  10.544   1.887   0.056  0.0525  0.3616  0.0124
   55MOL0     H 7569  10.450   1.749  -0.001  1.5446  0.0793 -1.4007
   55MOL0     H 7570   9.708   1.818   0.612 -0.8180  2.0968 -1.5478
   55MOL0     H 7571   9.478   1.848   0.657  0.1833  0.6114 -1.2430
   55MOL0     H 7572   9.094   1.641   0.922  0.6310  1.2278 -0.7990
   55MOL0     H 7573   8.840   1.598   0.971 -1.4290 -1.9420 -1.1825
   55MOL0     H 7574   6.877   2.142   0.255  0.5073 -0.0251  0.9393
   55MOL0     H 7575   6.647   2.046   0.223 -0.6915 -0.0026 -1.2136
   55MOL0     H 7576   6.469   1.613   0.156 -1.2155  0.4175 -1.4204
   55MOL0     H 7577   6.271   1.506   0.077 -0.9794  0.5495 -1.0074
   55MOL0     H 7578   6.073   1.384   0.075  2.4265  1.6728 -1.0326
   55MOL0     H 7579   5.902   1.428   0.050  0.4928 -1.3864  0.1672
   55MOL0     H 7580   6.135   1.577  -0.095 -1.5648  1.4602 -2.5836
   55MOL0     H 7581   5.973   1.608  -0.120  0.4332  0.8295  1.1636
   55MOL0     H 7582   6.079   1.441  -0.289 -0.5934  1.4506 -0.5358
   55MOL0     H 7583   6.062   1.330  -0.150  0.7154 -1.0408 -1.6825
   55MOL0     H 7584   5.820   1.502  -0.251 -0.7749 -0.9610  0.7531
   55MOL0     H 7585   5.816   1.389  -0.131  0.2083  2.2748  1.1165
   55MOL0     H 7586   5.886   1.139  -0.487 -0.2914 -1.0765  1.1633
   55MOL0     H 7587   6.027   1.787   0.303  1.0975  1.0135  2.0870
   55MOL0     H 7588   6.260   1.870   0.527 -2.6828 -0.2619  0.5000
   55MOL0     H 7589   6.238   2.002   0.407 -1.3210  0.3129  1.1698
   55MOL0     H 7590   6.101   1.927   0.469 -0.4254  2.0411 -1.7322
   56MOL0     O 7591   4.603   0.789   0.177 -0.2338  0.1991  0.4760
   56MOL0     C 7592   4.623   0.812   0.293 -0.0486 -0.1427 -0.2763
   56MOL0     O 7593   4.741   0.845   0.348 -0.7131 -0.2173  0.0938
   56MOL0     C 7594   4.852   0.849   0.267 -0.6213 -0.1084  0.0934
   56MOL0     C 7595   4.936   0.959   0.286  0.0275  0.0268  0.0589
   56MOL0     C 7596   5.058   0.968   0.216  0.5476 -0.7036  0.0738
   56MOL0     C 7597   5.089   0.892   0.106  0.5076  0.5000  0.4543
   56MOL0     O 7598   5.206   0.922   0.041 -0.6545  0.2733 -0.6387
   56MOL0     C 7599   5.241   0.853  -0.077  0.3468  0.0520 -0.1333
   56MOL0     C 7600   5.359   0.915  -0.145  0.5811  0.2817 -0.0346
   56MOL0     C 7601   5.484   0.918  -0.063 -0.0990 -0.1368 -0.5609
   56MOL0     C 7602   5.593   0.976  -0.158  0.4563 -0.3918 -0.1353
   56MOL0     C 7603   5.722   1.023  -0.090  0.4944  0.0877  0.9442
   56MOL0     C 7604   5.788   0.935   0.008  0.3206 -0.3360  0.0437
   56MOL0     C 7605   5.929   0.961   0.043  0.6029  0.3839 -0.0470
   56MOL0     C 7606   5.947   1.093   0.125 -0.6513  0.3671  0.9275
   56MOL0     N 7607   6.081   1.113   0.183 -0.1655 -0.8107  0.6141
   56MOL0     C 7608   6.105   1.207   0.276  0.5575  0.4306 -0.6038
   56MOL0     C 7609   6.242   1.220   0.294 -0.1082 -0.8683  0.2891
   56MOL0     C 7610   6.319   1.310   0.395  1.0525  0.2687 -0.4684
   56MOL0     C 7611   6.463   1.324   0.374  0.3618  0.6260 -0.5611
   56MOL0     C 7612   6.514   1.385   0.508 -0.6810 -0.1469 -0.0148
   56MOL0     C 7613   6.673   1.394   0.497 -0.5891  0.8720 -0.6977
   56MOL0     O 7614   6.727   1.274   0.441  0.5821 -0.2193 -0.0701
   56MOL0     C 7615   6.859   1.247   0.452 -0.2525  0.3091  0.2549
   56MOL0     C 7616   6.895   1.152   0.364 -0.2382 -0.0207 -0.2347
   56MOL0     C 7617   7.026   1.118   0.355  0.8018  0.2661 -0.1302
   56MOL0     C 7618   7.059   1.021   0.250 -0.2819  0.9891 -0.1293
   56MOL0     C 7619   7.119   1.170   0.442  0.2399  0.3239 -0.9701
   56MOL0     C 7620   7.261   1.126   0.426 -0.3480 -0.1172  0.1585
   56MOL0     O 7621   7.320   1.074   0.543 -0.3500  0.0194  0.5004
   56MOL0     C 7622   7.456   1.056   0.542  0.9757  0.2600  0.0658
   56MOL0     C 7623   7.504   0.940   0.490  0.0339 -0.3825  0.2292
   56MOL0     C 7624   7.640   0.917   0.484  0.2636 -0.3399  0.3877
   56MOL0     C 7625   7.734   1.002   0.541 -0.6989  0.3572 -0.0592
   56MOL0     O 7626   7.870   0.967   0.550 -0.2072 -0.8801 -0.6613
   56MOL0     C 7627   7.934   0.878   0.459 -0.2006  0.4540  0.3100
   56MOL0     C 7628   8.083   0.854   0.491 -1.0411  0.1410 -0.0117
   56MOL0     C 7629   8.152   0.792   0.364  0.5289 -0.6370  0.7745
   56MOL0     C 7630   8.303   0.791   0.385  0.3550 -0.0998  0.5972
   56MOL0     C 7631   8.376   0.729   0.264 -0.1822 -0.1515  0.3757
   56MOL0     C 7632   8.531   0.726   0.276  0.1750  0.0541  0.1074
   56MOL0     C 7633   8.618   0.710   0.150 -0.8439 -0.4513  0.9162
   56MOL0     C 7634   8.773   0.713   0.169  0.2675 -0.6575  0.2964
   56MOL0    Cl 7635   8.816   0.638   0.329 -0.1604 -0.3451  0.2809
   56MOL0     C 7636   7.681   1.119   0.602  0.2403  0.4696  0.9590
   56MOL0     C 7637   7.545   1.148   0.591 -0.4213 -0.8807  0.0045
   56MOL0     O 7638   7.325   1.159   0.321 -0.0264  0.2150  0.7707
   56MOL0     C 7639   7.080   1.253   0.545  0.2676  0.0353  0.2294
   56MOL0     C 7640   6.945   1.298   0.544 -0.8153  0.3557 -0.5862
   56MOL0     N 7641   6.294   1.126   0.204 -0.5780 -0.1634 -0.0837
   56MOL0     N 7642   6.202   1.059   0.144  0.1929 -0.0914 -0.1649
   56MOL0     C 7643   4.998   0.784   0.090  1.3879 -0.7981 -0.0051
   56MOL0     C 7644   4.891   0.755   0.176  0.0537  0.9217  0.3504
   56MOL0     C 7645   4.511   0.822   0.393  1.1128  0.1594 -0.2690
   56MOL0     C 7646   4.533   0.903   0.503 -1.0940 -0.1025  0.9534
   56MOL0     C 7647   4.439   0.921   0.604  0.4568  0.9643 -0.0440
   56MOL0     C 7648   4.311   0.867   0.593 -0.0951  0.3483 -0.1097
   56MOL0     O 7649   4.217   0.896   0.683 -0.0035  0.5049  0.3228
   56MOL0     C 7650   4.148   1.019   0.646 -0.0154  0.8497 -0.1267
   56MOL0     C 7651   4.076   1.078   0.766 -0.4212 -0.0069  0.6755
   56MOL0     C 7652   3.968   0.982   0.809  0.2031 -0.0761 -0.2497
   56MOL0     C 7653   3.884   1.034   0.925  0.3606  0.3859 -0.3858
   56MOL0     C 7654   3.766   0.948   0.944  1.6772  0.0526 -0.4680
   56MOL0     C 7655   3.675   0.869   0.977 -0.8871 -0.6260  0.4601
   56MOL0     C 7656   4.281   0.790   0.482  0.8294  0.1192  0.5294
   56MOL0     C 7657   4.377   0.765   0.385 -0.0510 -0.9273  0.3740
   56MOL0     C 7658   4.337   0.679   0.267  0.5323 -0.6054  0.4368
   56MOL0     H 7659   4.903   1.030   0.361  0.2045  0.5044 -0.3105
   56MOL0     H 7660   5.115   1.058   0.237  0.2529  0.1610 -2.4943
   56MOL0     H 7661   5.155   0.840  -0.143  0.3837  0.2196 -0.2157
   56MOL0     H 7662   5.282   0.759  -0.040  0.8127  1.1023  2.1857
   56MOL0     H 7663   5.379   0.876  -0.245  1.7211 -1.3755  0.7971
   56MOL0     H 7664   5.329   1.018  -0.168  1.6217  0.7026  0.4417
   56MOL0     H 7665   5.483   0.983   0.024 -2.1466 -0.4113 -0.3509
   56MOL0     H 7666   5.522   0.817  -0.042  0.6535  0.0521 -0.9544
   56MOL0     H 7667   5.618   0.899  -0.231  0.0029 -0.8068  0.1428
   56MOL0     H 7668   5.551   1.065  -0.204 -2.3890 -1.6185 -0.1159
   56MOL0     H 7669   5.707   1.121  -0.045 -1.5195  0.0006  0.6002
   56MOL0     H 7670   5.788   1.038  -0.176  1.3369 -2.0256  1.1440
   56MOL0     H 7671   5.729   0.931   0.100  1.6191 -0.8022  0.8922
   56MOL0     H 7672   5.785   0.835  -0.037  1.7794 -0.2605 -0.2598
   56MOL0     H 7673   5.991   0.960  -0.048 -2.0359 -1.6887 -1.9840
   56MOL0     H 7674   5.959   0.879   0.108 -0.0845  1.3750  1.5616
   56MOL0     H 7675   5.926   1.174   0.055  0.2320 -1.7205 -1.9214
   56MOL0     H 7676   5.874   1.092   0.207  0.8194  0.7856  2.2943
   56MOL0     H 7677   6.029   1.266   0.326 -1.4813 -1.9182 -0.7233
   56MOL0     H 7678   6.302   1.270   0.496  0.4296  3.2850  0.7386
   56MOL0     H 7679   6.266   1.406   0.393 -2.3295 -1.4469  0.5733
   56MOL0     H 7680   6.506   1.227   0.348 -0.4017 -0.4037  1.6709
   56MOL0     H 7681   6.470   1.386   0.285 -0.3841  0.3077 -0.8519
   56MOL0     H 7682   6.468   1.484   0.502 -2.6780 -1.0799 -1.2547
   56MOL0     H 7683   6.487   1.328   0.597 -2.2816 -1.4797 -1.2768
   56MOL0     H 7684   6.700   1.475   0.428  0.7724  0.4828 -0.6651
   56MOL0     H 7685   6.711   1.414   0.597 -4.2615 -1.9166  1.4824
   56MOL0     H 7686   6.828   1.111   0.289  0.3540  1.3051 -1.5398
   56MOL0     H 7687   6.981   0.945   0.254 -0.3422  1.0684  0.1847
   56MOL0     H 7688   7.153   0.965   0.258 -0.0966  1.4347  0.8760
   56MOL0     H 7689   7.052   1.076   0.155 -0.0830  1.7270  0.2757
   56MOL0     H 7690   7.437   0.866   0.446 -1.2968 -0.3700  2.0940
   56MOL0     H 7691   7.672   0.822   0.445  1.9553 -0.3362  1.6621
   56MOL0     H 7692   7.878   0.784   0.463 -1.5330  1.1650 -0.7872
   56MOL0     H 7693   7.925   0.918   0.358 -1.0210 -1.2751 -0.3520
   56MOL0     H 7694   8.125   0.952   0.514  0.5546 -0.8736  1.7312
   56MOL0     H 7695   8.097   0.788   0.578 -2.7712  0.9813  0.9453
   56MOL0     H 7696   8.124   0.853   0.278  1.7852 -1.0945  0.0202
   56MOL0     H 7697   8.125   0.686   0.349  1.5593 -0.6398 -1.3535
   56MOL0     H 7698   8.335   0.727   0.467 -1.4639 -0.6536  0.9295
   56MOL0     H 7699   8.337   0.892   0.410  1.1005 -0.2920  0.3691
   56MOL0     H 7700   8.343   0.625   0.250 -1.1556  0.0138  1.2881
   56MOL0     H 7701   8.339   0.778   0.174  2.3940 -1.3482 -1.4540
   56MOL0     H 7702   8.547   0.644   0.347  0.1307 -0.4811 -0.4968
   56MOL0     H 7703   8.558   0.820   0.326 -1.9238  0.5040  0.5310
   56MOL0     H 7704   8.589   0.784   0.075 -0.6091  0.8446  2.0683
   56MOL0     H 7705   8.595   0.606   0.124  0.6971 -0.6254  0.0955
   56MOL0     H 7706   8.806   0.818   0.170 -1.3034 -0.0465  3.5756
   56MOL0     H 7707   8.838   0.663   0.097  0.2799 -0.6822  0.3248
   56MOL0     H 7708   7.750   1.192   0.642  3.0339 -1.4774 -0.0053
   56MOL0     H 7709   7.518   1.237   0.646  0.2584 -1.4580  1.3281
   56MOL0     H 7710   7.147   1.273   0.628 -3.2834  0.9008  3.1877
   56MOL0     H 7711   6.920   1.370   0.622 -0.1741  2.0491 -1.8870
   56MOL0     H 7712   5.024   0.720   0.007  2.3081  0.5544 -0.8103
   56MOL0     H 7713   4.831   0.669   0.149  1.1554  0.7728 -1.9109
   56MOL0     H 7714   4.629   0.952   0.513 -1.9656  1.6392  1.2852
   56MOL0     H 7715   4.449   0.974   0.698  2.1051  0.0727  0.3282
   56MOL0     H 7716   4.224   1.090   0.612  1.1597 -0.7520 -0.9463
   56MOL0     H 7717   4.073   1.008   0.568 -0.5002  0.9032  0.3226
   56MOL0     H 7718   4.035   1.176   0.740 -0.9537 -0.6488 -1.0277
   56MOL0     H 7719   4.150   1.089   0.845  1.6873  0.5450 -1.2655
   56MOL0     H 7720   3.909   0.964   0.720  1.8796  1.7668 -1.8328
   56MOL0     H 7721   4.011   0.883   0.824  1.2259  0.2656 -0.8389
   56MOL0     H 7722   3.856   1.138   0.908  0.8891  0.5537 -0.2701
   56MOL0     H 7723   3.936   1.033   1.022 -0.8123  0.4720  0.2545
   56MOL0     H 7724   3.597   0.796   0.988 -1.0767 -0.3167  1.2312
   56MOL0     H 7725   4.181   0.753   0.464 -0.2299  2.0019  2.1347
   56MOL0     H 7726   4.409   0.599   0.246  0.8885 -0.1305 -0.1654
   56MOL0     H 7727   4.238   0.633   0.279  0.2063 -0.7199 -2.1534
   56MOL0     H 7728   4.331   0.737   0.175  1.3482  0.8965  1.2945
   57MOL0     O 7729   9.129   7.273   8.791 -0.7161 -0.0994  0.2856
   57MOL0     C 7730   9.080   7.187   8.715  0.2048 -0.7493 -0.5873
   57MOL0     O 7731   9.143   7.074   8.670 -0.2652 -0.1500 -0.4880
   57MOL0     C 7732   9.270   7.041   8.709 -0.2201 -0.3277  0.0738
   57MOL0     C 7733   9.378   7.057   8.617  0.2116  0.7977 -0.0461
   57MOL0     C 7734   9.515   7.050   8.659 -0.0521 -0.0950 -1.0926
   57MOL0     C 7735   9.536   7.033   8.802  0.0182  0.8380  0.3575
   57MOL0     O 7736   9.668   7.031   8.833 -0.1852  0.4561  0.4140
   57MOL0     C 7737   9.710   7.093   8.957 -1.2160  0.2086 -0.0997
   57MOL0     C 7738   9.861   7.112   8.963  0.1039 -0.6521  1.1773
   57MOL0     C 7739   9.931   6.972   8.976 -0.0046 -0.1365 -0.3729
   57MOL0     C 7740   9.933   6.945   9.131 -0.8934 -0.0491  0.1280
   57MOL0     C 7741   9.998   6.815   9.179  0.0403  0.7579  0.2530
   57MOL0     C 7742   9.895   6.705   9.160 -0.1503  0.8324  0.2465
   57MOL0     C 7743   9.949   6.588   9.247  0.2123 -0.4959  0.6144
   57MOL0     C 7744   9.831   6.490   9.267 -0.4901 -0.7013  0.4715
   57MOL0     N 7745   9.855   6.404   9.381  0.2485  0.7263  0.1981
   57MOL0     C 7746   9.966   6.319   9.400  0.7860 -0.1190 -0.3941
   57MOL0     C 7747   9.938   6.262   9.522 -0.7479  0.6469  0.1078
   57MOL0     C 7748  10.037   6.177   9.595  0.0863 -1.0032  0.8948
   57MOL0     C 7749  10.017   6.027   9.575 -0.3962 -0.2718 -0.7550
   57MOL0     C 7750  10.049   5.979   9.433 -0.0708 -0.4450 -0.6952
   57MOL0     C 7751  10.184   5.911   9.415 -0.7184  0.1474  0.5226
   57MOL0     O 7752  10.166   5.773   9.456  0.2498 -0.8148 -0.1894
   57MOL0     C 7753  10.269   5.681   9.446  0.9918 -0.4272 -0.3374
   57MOL0     C 7754  10.391   5.721   9.398 -0.1500 -0.4048  0.1363
   57MOL0     C 7755  10.496   5.631   9.395 -0.1045 -0.1986  0.2268
   57MOL0     C 7756  10.627   5.673   9.333  0.1267  0.4121 -0.1574
   57MOL0     C 7757  10.486   5.507   9.454 -0.5188  0.6586  0.0550
   57MOL0     C 7758  10.590   5.407   9.442  0.1905  0.4566 -0.4602
   57MOL0     O 7759  10.711   5.435   9.499  0.0076  0.2543  0.4666
   57MOL0     C 7760  10.808   5.341   9.485  0.3370  0.3830 -0.3609
   57MOL0     C 7761  10.809   5.217   9.556  0.3497 -0.5311  0.4841
   57MOL0     C 7762  10.903   5.120   9.522 -0.7616  0.1961  0.4173
   57MOL0     C 7763  11.009   5.146   9.441 -0.2726  0.2628 -0.5319
   57MOL0     O 7764  11.103   5.052   9.406 -0.9710 -0.1892 -0.6116
   57MOL0     C 7765  11.063   4.916   9.404 -0.4005  0.8285  0.4063
   57MOL0     C 7766  11.110   4.829   9.527 -0.6031  0.1047 -0.5510
   57MOL0     C 7767  11.262   4.810   9.542 -0.2900  0.1741  0.2451
   57MOL0     C 7768  11.334   4.733   9.440 -0.7037  0.0635  0.4216
   57MOL0     C 7769  11.480   4.708   9.484  0.2535 -0.3058 -0.1306
   57MOL0     C 7770  11.560   4.643   9.361 -0.4319  0.8949  0.0937
   57MOL0     C 7771  11.708   4.630   9.404  0.5745  0.7188  0.5647
   57MOL0     C 7772  11.771   4.544   9.294 -0.4697  0.5938  0.1055
   57MOL0    Cl 7773  11.920   4.476   9.355 -0.6846  0.3048  0.4562
   57MOL0     C 7774  11.011   5.271   9.379 -0.6375  0.6650 -0.0014
   57MOL0     C 7775  10.916   5.369   9.402  0.2572 -0.4506  0.1534
   57MOL0     O 7776  10.565   5.307   9.370  0.3961 -0.7198 -0.0305
   57MOL0     C 7777  10.364   5.478   9.519 -0.1190  0.6015 -0.8917
   57MOL0     C 7778  10.257   5.561   9.517  0.5332 -0.2807 -0.5328
   57MOL0     N 7779   9.822   6.308   9.574  1.4870  0.0170 -0.3476
   57MOL0     N 7780   9.776   6.395   9.492  1.1876  0.3758 -0.6342
   57MOL0     C 7781   9.432   7.006   8.893  0.2414  0.5206  0.0397
   57MOL0     C 7782   9.301   7.009   8.843  0.0022  0.4693  0.5407
   57MOL0     C 7783   8.937   7.212   8.658 -0.3759  0.6151 -0.8996
   57MOL0     C 7784   8.877   7.101   8.588  0.0055 -0.4089 -1.4156
   57MOL0     C 7785   8.742   7.108   8.543  0.6646  0.1208  0.7064
   57MOL0     C 7786   8.664   7.230   8.554  0.4094 -0.2288  0.8487
   57MOL0     O 7787   8.543   7.256   8.489  0.4107 -0.7224  0.1095
   57MOL0     C 7788   8.435   7.156   8.487 -0.2477  0.0341 -0.4091
   57MOL0     C 7789   8.307   7.237   8.521 -0.0368  0.2622 -0.4760
   57MOL0     C 7790   8.188   7.142   8.519 -0.3927 -0.6076 -0.0733
   57MOL0     C 7791   8.063   7.216   8.564  0.3560  0.2203  0.1853
   57MOL0     C 7792   8.021   7.308   8.459 -0.6152  0.1531  0.6797
   57MOL0     C 7793   7.975   7.367   8.358  0.2299 -0.3760  0.7030
   57MOL0     C 7794   8.726   7.340   8.621 -0.1851 -0.4491  0.8843
   57MOL0     C 7795   8.852   7.329   8.678 -0.0483 -0.5606 -0.0902
   57MOL0     C 7796   8.890   7.439   8.774  0.2269  0.6882  0.0955
   57MOL0     H 7797   9.344   7.076   8.515  0.1631 -2.8422 -0.8469
   57MOL0     H 7798   9.598   7.066   8.591  0.2622 -3.4042 -1.6603
   57MOL0     H 7799   9.665   7.041   9.041 -3.4919  0.8826 -0.8161
   57MOL0     H 7800   9.667   7.194   8.947 -1.9762 -0.2951 -2.6874
   57MOL0     H 7801   9.904   7.161   8.875  1.9105  0.5559  2.6669
   57MOL0     H 7802   9.884   7.171   9.052 -1.4669  2.4138 -0.3116
   57MOL0     H 7803   9.878   6.897   8.916  1.2084  0.9395 -2.9344
   57MOL0     H 7804  10.029   6.981   8.927 -0.6791  0.6046 -1.6377
   57MOL0     H 7805   9.985   7.020   9.192 -2.0822 -0.4236  1.6867
   57MOL0     H 7806   9.836   6.942   9.181 -0.1997  0.5897  1.5887
   57MOL0     H 7807  10.023   6.815   9.286 -1.5800 -3.4366  0.8323
   57MOL0     H 7808  10.092   6.797   9.127 -0.4928 -0.2921 -0.3618
   57MOL0     H 7809   9.793   6.728   9.191 -0.0252 -0.1681  1.4600
   57MOL0     H 7810   9.900   6.675   9.055  0.0825 -0.1803  0.5397
   57MOL0     H 7811   9.977   6.638   9.341  0.4633 -0.2357  0.4048
   57MOL0     H 7812  10.037   6.538   9.206  2.1130  0.6234  3.0145
   57MOL0     H 7813   9.735   6.542   9.282 -1.3066 -1.9344 -0.3059
   57MOL0     H 7814   9.824   6.423   9.181  1.4169  0.3417 -0.5803
   57MOL0     H 7815  10.048   6.319   9.329  0.9547  1.9334 -0.2621
   57MOL0     H 7816  10.047   6.208   9.699 -0.2655  1.1697  0.3345
   57MOL0     H 7817  10.135   6.202   9.554 -0.1189 -0.3012  0.8147
   57MOL0     H 7818  10.087   5.971   9.639  2.3837  1.2400 -2.2955
   57MOL0     H 7819   9.916   5.999   9.608 -0.4602  0.7521 -0.0566
   57MOL0     H 7820   9.972   5.912   9.393  0.2405 -0.6630 -0.9376
   57MOL0     H 7821  10.060   6.066   9.367 -0.4615  0.7197  0.7362
   57MOL0     H 7822  10.208   5.916   9.308 -3.3265 -0.8028 -0.1827
   57MOL0     H 7823  10.258   5.960   9.479  0.1406  0.0849 -0.3979
   57MOL0     H 7824  10.411   5.814   9.347  2.3166 -0.8929  0.0531
   57MOL0     H 7825  10.617   5.756   9.263  1.7409  2.3806  1.7861
   57MOL0     H 7826  10.673   5.590   9.278 -0.6156 -1.0435  1.3396
   57MOL0     H 7827  10.701   5.708   9.406  0.4000  0.0247 -0.2462
   57MOL0     H 7828  10.727   5.201   9.625  0.2405  1.9217  0.9989
   57MOL0     H 7829  10.895   5.018   9.557 -0.4934 -0.6423 -1.8113
   57MOL0     H 7830  10.957   4.901   9.381  0.3718 -0.9090 -2.4228
   57MOL0     H 7831  11.107   4.873   9.314 -0.0412  0.4782  0.7470
   57MOL0     H 7832  11.079   4.875   9.621 -4.0032 -1.5538 -0.7013
   57MOL0     H 7833  11.065   4.729   9.527 -0.3646 -0.0668 -3.2336
   57MOL0     H 7834  11.287   4.753   9.632 -0.4460 -2.4660 -1.2747
   57MOL0     H 7835  11.299   4.912   9.555 -1.7214  0.4667  2.6850
   57MOL0     H 7836  11.334   4.794   9.349 -2.5604 -0.1245  0.2591
   57MOL0     H 7837  11.285   4.638   9.417  0.2814 -1.0088  2.4820
   57MOL0     H 7838  11.533   4.802   9.504 -1.6993  1.0045 -0.7759
   57MOL0     H 7839  11.490   4.643   9.572 -2.1641 -0.3291  0.1885
   57MOL0     H 7840  11.557   4.704   9.270  2.9268  1.8860  0.5054
   57MOL0     H 7841  11.515   4.547   9.334 -0.7256  1.1779 -0.4357
   57MOL0     H 7842  11.711   4.577   9.499  1.3282  1.9828  1.2595
   57MOL0     H 7843  11.754   4.729   9.397  0.4889  0.6765 -1.0086
   57MOL0     H 7844  11.785   4.606   9.205  1.1124  0.2855  0.1194
   57MOL0     H 7845  11.707   4.457   9.275  0.1407 -0.8088  3.6737
   57MOL0     H 7846  11.094   5.289   9.311 -1.4778  1.2081 -0.9126
   57MOL0     H 7847  10.925   5.469   9.361 -0.2568 -0.0347  1.0303
   57MOL0     H 7848  10.354   5.374   9.550  0.6723  0.4539 -1.0991
   57MOL0     H 7849  10.162   5.531   9.559 -0.5114  0.0344 -2.5111
   57MOL0     H 7850   9.458   6.966   8.991  1.1973 -4.5988 -1.9780
   57MOL0     H 7851   9.213   7.001   8.905 -1.6792  0.9176 -1.6363
   57MOL0     H 7852   8.938   7.012   8.583  1.9422  0.4387  2.6198
   57MOL0     H 7853   8.703   7.020   8.493  1.5455  1.1599 -1.9676
   57MOL0     H 7854   8.436   7.104   8.391 -1.1067 -0.9635  0.1074
   57MOL0     H 7855   8.453   7.079   8.562  1.0221 -1.1263 -1.8552
   57MOL0     H 7856   8.293   7.311   8.442 -0.6577 -0.5089 -1.1163
   57MOL0     H 7857   8.325   7.280   8.619  0.1963  2.2458 -1.3512
   57MOL0     H 7858   8.179   7.101   8.418  1.5082  1.2916 -1.0855
   57MOL0     H 7859   8.199   7.064   8.595  0.7055  1.6441  2.2039
   57MOL0     H 7860   8.082   7.284   8.647  0.0744  0.8856 -0.2891
   57MOL0     H 7861   7.981   7.149   8.592  0.7615 -0.1728  0.4477
   57MOL0     H 7862   7.951   7.441   8.284  0.2652 -1.2825 -0.2302
   57MOL0     H 7863   8.665   7.430   8.616 -2.1719 -1.7851 -1.3758
   57MOL0     H 7864   8.805   7.508   8.771  0.5333  1.0365 -0.8424
   57MOL0     H 7865   8.912   7.402   8.875  1.0149  1.3330  0.1704
   57MOL0     H 7866   8.974   7.495   8.732 -1.9779  4.0374 -0.2015
   58MOL0     O 7867   9.521   7.355  11.170  0.2753  0.0340 -0.0629
   58MOL0     C 7868   9.512   7.288  11.070  0.2309  0.3363  0.2861
   58MOL0     O 7869   9.396   7.275  10.997 -0.1898  0.2716 -0.4953
   58MOL0     C 7870   9.290   7.357  11.009 -0.4732  0.1658  0.3006
   58MOL0     C 7871   9.286   7.469  10.928 -0.1630 -0.5035  0.6966
   58MOL0     C 7872   9.170   7.553  10.940  0.3057 -0.0290  0.0753
   58MOL0     C 7873   9.075   7.535  11.047 -0.9320  0.1693  0.2906
   58MOL0     O 7874   8.980   7.628  11.081  0.0921 -0.2857  0.4187
   58MOL0     C 7875   8.913   7.678  10.958  0.7790  0.6782 -0.5030
   58MOL0     C 7876   8.771   7.729  10.986  1.0884 -0.0865 -0.4373
   58MOL0     C 7877   8.754   7.834  11.097 -0.0516 -0.3368  0.0316
   58MOL0     C 7878   8.810   7.967  11.061  0.2543 -0.1846  0.1419
   58MOL0     C 7879   8.943   7.984  11.122  0.0227  0.3507 -0.6083
   58MOL0     C 7880   9.011   8.115  11.055 -0.8443  0.6053 -0.5619
   58MOL0     C 7881   9.145   8.140  11.125 -0.2872 -0.1674 -0.5066
   58MOL0     C 7882   9.229   8.242  11.056 -0.5335  0.2232 -0.4214
   58MOL0     N 7883   9.363   8.257  11.114  0.7194 -0.4895  0.2351
   58MOL0     C 7884   9.481   8.269  11.042 -0.5818 -0.0250 -0.3757
   58MOL0     C 7885   9.584   8.252  11.133  1.3589  0.3277  0.8276
   58MOL0     C 7886   9.728   8.253  11.094 -0.0708  1.3139 -0.4054
   58MOL0     C 7887   9.782   8.383  11.043  0.0443  0.2462  0.1277
   58MOL0     C 7888   9.931   8.391  11.024  0.5151  0.3797 -0.3445
   58MOL0     C 7889  10.010   8.412  11.156 -0.7892 -0.3250  0.3999
   58MOL0     O 7890  10.046   8.286  11.216  1.2501 -0.5495  0.2456
   58MOL0     C 7891  10.144   8.279  11.314 -0.1619 -0.2335 -0.4355
   58MOL0     C 7892  10.152   8.163  11.386  0.7220  0.5137  0.6032
   58MOL0     C 7893  10.261   8.136  11.468 -0.5705 -0.0531  0.0001
   58MOL0     C 7894  10.275   7.998  11.517 -0.1675  0.0507 -0.1767
   58MOL0     C 7895  10.350   8.244  11.503  0.5709  0.2185  0.8209
   58MOL0     C 7896  10.452   8.239  11.612 -0.3061  0.3784 -0.1813
   58MOL0     O 7897  10.533   8.356  11.619  0.0737  0.2278 -0.1981
   58MOL0     C 7898  10.651   8.367  11.687  0.8187 -0.8405 -0.1268
   58MOL0     C 7899  10.700   8.286  11.789 -0.3051 -0.0713 -0.9855
   58MOL0     C 7900  10.830   8.303  11.845  1.4541 -0.2204  0.0022
   58MOL0     C 7901  10.907   8.396  11.791 -0.5778 -0.0959  0.5940
   58MOL0     O 7902  11.035   8.391  11.831 -1.0891 -0.3030 -0.1927
   58MOL0     C 7903  11.117   8.496  11.813 -1.1914  0.2652 -0.9784
   58MOL0     C 7904  11.243   8.472  11.897  0.5268  0.4480 -0.8288
   58MOL0     C 7905  11.355   8.560  11.835 -0.0190 -0.5879  0.0096
   58MOL0     C 7906  11.491   8.554  11.910  0.0002 -0.0694 -0.5796
   58MOL0     C 7907  11.572   8.421  11.897 -0.2456 -0.2910  0.7058
   58MOL0     C 7908  11.704   8.427  11.971 -1.1399  0.2908  0.0135
   58MOL0     C 7909  11.806   8.305  11.973  0.2430  0.0132  0.2636
   58MOL0     C 7910  11.743   8.187  12.029 -0.5541  0.4074 -0.6778
   58MOL0    Cl 7911  11.685   8.237  12.204 -0.0099 -0.1555  0.1723
   58MOL0     C 7912  10.856   8.481  11.691 -0.3494  0.1410  0.9559
   58MOL0     C 7913  10.730   8.471  11.635  0.2182  0.0069 -0.9866
   58MOL0     O 7914  10.463   8.136  11.680 -0.5590  0.4968  0.7172
   58MOL0     C 7915  10.334   8.365  11.441  0.3316  0.5395  0.8903
   58MOL0     C 7916  10.239   8.382  11.339 -0.3602 -0.4049 -0.2193
   58MOL0     N 7917   9.523   8.221  11.252  0.3267  0.2733 -0.9437
   58MOL0     N 7918   9.394   8.233  11.247  0.1232 -0.2706 -0.1481
   58MOL0     C 7919   9.095   7.420  11.129  0.1664 -0.3012  0.0920
   58MOL0     C 7920   9.197   7.328  11.109  0.2627  0.4787  1.0148
   58MOL0     C 7921   9.628   7.213  11.024 -0.1662  0.6725  0.2101
   58MOL0     C 7922   9.745   7.292  11.005 -0.0571  0.2092  0.3964
   58MOL0     C 7923   9.865   7.239  10.973 -0.0515 -0.4693 -0.4644
   58MOL0     C 7924   9.877   7.098  10.970 -0.5608 -0.3250  1.2279
   58MOL0     O 7925   9.998   7.049  10.950  0.1104  0.1244  0.2202
   58MOL0     C 7926  10.082   7.122  10.866 -0.3549  0.3869  0.3925
   58MOL0     C 7927  10.160   7.016  10.794  0.1222  0.2018  0.0722
   58MOL0     C 7928  10.078   6.914  10.709  0.1711 -1.3669 -1.0249
   58MOL0     C 7929  10.160   6.797  10.654  0.0253  1.0094 -0.4315
   58MOL0     C 7930  10.280   6.839  10.584 -0.2627  0.5443  0.2668
   58MOL0     C 7931  10.375   6.891  10.525 -0.5507  0.2086 -0.2065
   58MOL0     C 7932   9.766   7.015  10.966  0.6407 -0.0277 -0.2062
   58MOL0     C 7933   9.644   7.074  11.004 -0.3941 -0.3454 -0.1767
   58MOL0     C 7934   9.522   6.992  11.005  0.1241  0.0820 -0.1161
   58MOL0     H 7935   9.362   7.483  10.852 -0.7593  3.7995  0.6231
   58MOL0     H 7936   9.160   7.633  10.867  0.1565 -0.1820 -0.0718
   58MOL0     H 7937   8.917   7.603  10.878  1.0246  0.6543 -0.4691
   58MOL0     H 7938   8.966   7.769  10.927  1.3748  0.3259 -0.5262
   58MOL0     H 7939   8.730   7.779  10.897 -2.6823  0.4077  1.3505
   58MOL0     H 7940   8.709   7.641  11.008  0.9950 -0.5092 -2.2286
   58MOL0     H 7941   8.648   7.845  11.121 -0.2599 -1.7794 -0.1323
   58MOL0     H 7942   8.811   7.799  11.184  2.2391  2.1287 -0.3441
   58MOL0     H 7943   8.806   7.987  10.954 -2.7455  0.7369  0.3536
   58MOL0     H 7944   8.737   8.036  11.103 -1.1227 -1.4673 -0.0765
   58MOL0     H 7945   9.012   7.901  11.103 -2.2865 -1.1476 -3.0393
   58MOL0     H 7946   8.934   7.997  11.230 -1.2474  1.3515 -0.8107
   58MOL0     H 7947   9.013   8.105  10.946 -1.0121  0.5706 -0.5626
   58MOL0     H 7948   8.938   8.196  11.066 -1.9718 -0.0210 -2.7049
   58MOL0     H 7949   9.200   8.048  11.149 -0.6788  0.1436  1.8570
   58MOL0     H 7950   9.125   8.172  11.228  1.4439 -2.2118  0.5562
   58MOL0     H 7951   9.233   8.210  10.952 -0.6426 -0.5245 -0.2019
   58MOL0     H 7952   9.174   8.337  11.067  0.0667  0.5883 -0.5149
   58MOL0     H 7953   9.487   8.295  10.937  0.2688  2.9759  0.3233
   58MOL0     H 7954   9.724   8.175  11.017 -1.1655  1.5818 -0.6369
   58MOL0     H 7955   9.790   8.224  11.180 -1.2792 -0.3200 -0.0282
   58MOL0     H 7956   9.740   8.410  10.945 -0.2113 -2.4561 -0.5646
   58MOL0     H 7957   9.755   8.463  11.114 -1.2628  0.5538 -0.6769
   58MOL0     H 7958   9.966   8.310  10.960  1.4667  0.1440  0.4441
   58MOL0     H 7959   9.950   8.481  10.965 -1.7447  1.7882  0.9323
   58MOL0     H 7960  10.094   8.482  11.148 -2.1958  1.9681  3.5812
   58MOL0     H 7961   9.935   8.458  11.221 -0.4751  2.6476 -1.1861
   58MOL0     H 7962  10.082   8.081  11.369  1.0974  0.0046  1.4377
   58MOL0     H 7963  10.364   7.945  11.481  0.2577 -1.6442  2.9933
   58MOL0     H 7964  10.192   7.932  11.489  2.5952 -3.0869 -1.7660
   58MOL0     H 7965  10.284   8.002  11.626  0.2614  1.6890 -0.2482
   58MOL0     H 7966  10.638   8.208  11.833 -2.8798  1.9484 -0.8409
   58MOL0     H 7967  10.874   8.237  11.919  1.0223 -0.7359 -0.1929
   58MOL0     H 7968  11.143   8.485  11.707 -2.4831 -0.3488 -1.2470
   58MOL0     H 7969  11.064   8.589  11.833 -1.9046  0.6369 -4.0213
   58MOL0     H 7970  11.223   8.507  11.999 -0.4047  1.3023 -1.2868
   58MOL0     H 7971  11.276   8.368  11.905  0.0715  0.4746  3.0025
   58MOL0     H 7972  11.317   8.662  11.845 -1.7290 -1.1972  0.1021
   58MOL0     H 7973  11.372   8.544  11.728  1.8440  0.4178  0.1084
   58MOL0     H 7974  11.480   8.572  12.017  2.0666 -0.1714 -0.3043
   58MOL0     H 7975  11.551   8.631  11.861  1.8602  0.4640  2.2591
   58MOL0     H 7976  11.506   8.337  11.921 -1.9419  0.3227 -1.4268
   58MOL0     H 7977  11.591   8.393  11.793  1.3733 -2.8087  1.5939
   58MOL0     H 7978  11.697   8.469  12.072 -0.3704  1.6838 -0.4855
   58MOL0     H 7979  11.761   8.503  11.916 -1.9761  0.5505 -0.5068
   58MOL0     H 7980  11.891   8.342  12.031 -1.2887  1.9327  1.4204
   58MOL0     H 7981  11.846   8.285  11.873 -0.7221 -0.5122 -0.0341
   58MOL0     H 7982  11.813   8.103  12.033 -0.0413  0.8316 -0.6186
   58MOL0     H 7983  11.659   8.152  11.967  0.2489 -0.8526 -1.0997
   58MOL0     H 7984  10.917   8.566  11.662 -1.0061  0.0785 -0.7693
   58MOL0     H 7985  10.710   8.537  11.551 -2.1681  1.8237  0.8692
   58MOL0     H 7986  10.393   8.455  11.458  1.7888  0.2257 -1.8637
   58MOL0     H 7987  10.241   8.482  11.297  0.9418 -0.3778 -0.1315
   58MOL0     H 7988   9.028   7.413  11.214 -1.0879  3.0781 -0.4917
   58MOL0     H 7989   9.203   7.243  11.176 -1.8724 -0.9642 -0.4997
   58MOL0     H 7990   9.732   7.400  11.013 -1.5232  0.0500  0.5581
   58MOL0     H 7991   9.950   7.306  10.964 -1.5764  2.1288  2.4370
   58MOL0     H 7992  10.021   7.176  10.794  0.5662  0.2691 -0.5036
   58MOL0     H 7993  10.136   7.190  10.932 -0.4097 -0.0008  0.8457
   58MOL0     H 7994  10.229   6.964  10.862 -1.0167 -1.6130 -0.0982
   58MOL0     H 7995  10.217   7.064  10.713  0.0868  0.5758  0.2685
   58MOL0     H 7996   9.992   6.880  10.768 -0.1983  0.7512 -0.2621
   58MOL0     H 7997  10.041   6.975  10.625 -1.0955  0.4220  0.7301
   58MOL0     H 7998  10.106   6.737  10.580  0.9178  2.3486 -2.2591
   58MOL0     H 7999  10.191   6.717  10.722 -2.2369 -1.0985 -1.7210
   58MOL0     H 8000  10.465   6.928  10.481 -1.4495  0.0634 -2.2655
   58MOL0     H 8001   9.772   6.909  10.946 -0.6178 -0.2612  0.5106
   58MOL0     H 8002   9.549   6.887  11.024 -1.2921  0.1844  3.0662
   58MOL0     H 8003   9.445   7.020  11.078  0.1188  2.7864 -1.0674
   58MOL0     H 8004   9.481   7.005  10.905 -0.9931 -1.3526  0.1239
   59MOL0     O 8005   1.227   1.055   4.185  0.0046 -0.4961 -0.2709
   59MOL0     C 8006   1.155   1.019   4.275  0.2340 -0.2079  0.0981
   59MOL0     O 8007   1.191   0.996   4.407  0.2760 -0.5491  0.1295
   59MOL0     C 8008   1.317   1.031   4.437  0.1699 -0.3837  0.3650
   59MOL0     C 8009   1.375   1.155   4.422  0.0686  0.2107  0.9262
   59MOL0     C 8010   1.514   1.173   4.437 -0.1263 -0.3875 -0.8741
   59MOL0     C 8011   1.593   1.059   4.478  0.1998 -0.4807  0.1099
   59MOL0     O 8012   1.728   1.057   4.489  0.3803 -0.4131 -0.5571
   59MOL0     C 8013   1.801   1.176   4.449 -0.2662 -0.7052  0.3570
   59MOL0     C 8014   1.953   1.169   4.484  0.7803 -0.6497 -0.3901
   59MOL0     C 8015   2.017   1.311   4.459  0.3246  0.3774  0.2564
   59MOL0     C 8016   2.163   1.324   4.517  0.4547 -0.5747 -0.2211
   59MOL0     C 8017   2.208   1.473   4.518 -0.7356  0.2723  0.0456
   59MOL0     C 8018   2.208   1.542   4.380 -0.4407 -0.5855 -0.0069
   59MOL0     C 8019   2.223   1.688   4.391 -0.2120 -0.6232 -0.1526
   59MOL0     C 8020   2.112   1.784   4.345 -0.2561 -0.4427  0.8741
   59MOL0     N 8021   1.981   1.735   4.391  0.8360 -0.1398 -0.7715
   59MOL0     C 8022   1.889   1.655   4.306 -0.0954  0.2959 -0.1365
   59MOL0     C 8023   1.770   1.651   4.373  0.0323 -0.4379  0.1349
   59MOL0     C 8024   1.645   1.596   4.322  0.8972 -0.0104 -0.3248
   59MOL0     C 8025   1.516   1.641   4.396 -0.7209  0.7303  0.9964
   59MOL0     C 8026   1.486   1.591   4.536 -0.3446  0.8219  0.8284
   59MOL0     C 8027   1.366   1.666   4.595 -0.3271 -0.5492 -0.2518
   59MOL0     O 8028   1.351   1.619   4.724  0.7035 -0.5363 -0.5991
   59MOL0     C 8029   1.434   1.651   4.825  0.4972  0.3361  0.4859
   59MOL0     C 8030   1.404   1.583   4.947 -0.8444 -0.0805  0.0899
   59MOL0     C 8031   1.485   1.612   5.066  0.0702  0.0270 -0.3244
   59MOL0     C 8032   1.457   1.531   5.183  0.2376 -0.2306 -0.4608
   59MOL0     C 8033   1.588   1.717   5.061 -0.8371 -0.9760  0.9277
   59MOL0     C 8034   1.660   1.774   5.182 -0.5253  0.5089 -0.2661
   59MOL0     O 8035   1.766   1.849   5.154  0.2360 -0.1664 -0.2326
   59MOL0     C 8036   1.862   1.871   5.252  0.4322 -0.0151  0.2095
   59MOL0     C 8037   1.935   1.993   5.250 -0.9270  0.3290  0.0878
   59MOL0     C 8038   2.029   2.013   5.358  0.5900 -0.4292  0.1160
   59MOL0     C 8039   2.075   1.911   5.438  0.6893 -0.2066 -0.1910
   59MOL0     O 8040   2.179   1.943   5.524 -0.6478 -0.2612  0.2069
   59MOL0     C 8041   2.246   1.836   5.585  0.2346 -0.2979  0.5365
   59MOL0     C 8042   2.365   1.885   5.677 -0.1698 -0.5598  0.8242
   59MOL0     C 8043   2.424   1.751   5.741  0.2188  0.2529 -0.3753
   59MOL0     C 8044   2.566   1.769   5.780  0.8920  0.2305 -0.1691
   59MOL0     C 8045   2.616   1.654   5.865 -0.1215 -0.3049 -0.5609
   59MOL0     C 8046   2.775   1.665   5.880  0.2584 -0.1243 -0.2340
   59MOL0     C 8047   2.828   1.567   5.995 -0.5241 -0.4891  0.2734
   59MOL0     C 8048   2.982   1.582   6.027  0.9258 -0.7847 -0.4962
   59MOL0    Cl 8049   3.020   1.736   6.107  0.2063  0.0616  0.1512
   59MOL0     C 8050   2.009   1.789   5.426  0.3996 -0.8501 -0.2009
   59MOL0     C 8051   1.898   1.766   5.339 -0.0898 -0.0953 -0.4880
   59MOL0     O 8052   1.619   1.748   5.290  0.1117  0.1182  0.2561
   59MOL0     C 8053   1.613   1.773   4.933 -0.6651 -0.7350 -0.5396
   59MOL0     C 8054   1.540   1.739   4.819 -0.1167 -0.1592  0.5103
   59MOL0     N 8055   1.789   1.715   4.494 -1.1550  0.5301  0.0928
   59MOL0     N 8056   1.908   1.771   4.499 -0.0813 -0.5866  0.5882
   59MOL0     C 8057   1.523   0.950   4.519 -0.5568 -0.2334 -0.1689
   59MOL0     C 8058   1.388   0.931   4.501 -0.6338  0.8337  0.4524
   59MOL0     C 8059   1.008   0.984   4.249  0.4966 -0.4255  0.7248
   59MOL0     C 8060   0.922   0.960   4.363 -0.0689 -0.5639  0.5471
   59MOL0     C 8061   0.789   0.920   4.344 -0.4204 -0.6679  0.1579
   59MOL0     C 8062   0.742   0.904   4.218  0.7070  0.5851 -0.2600
   59MOL0     O 8063   0.616   0.857   4.190  0.2932 -0.3806 -0.1659
   59MOL0     C 8064   0.530   0.814   4.288 -0.9781  0.0507  0.1521
   59MOL0     C 8065   0.405   0.768   4.226 -0.0232  0.5431 -0.5984
   59MOL0     C 8066   0.317   0.881   4.164 -0.8337 -0.3362 -0.2506
   59MOL0     C 8067   0.231   0.950   4.261 -0.6018 -0.9912 -0.5381
   59MOL0     C 8068   0.097   0.972   4.201 -0.0297 -0.6569  0.0563
   59MOL0     C 8069  -0.005   0.989   4.144  0.5383  0.4903 -1.0344
   59MOL0     C 8070   0.820   0.930   4.112 -0.7659  0.3424 -0.7828
   59MOL0     C 8071   0.951   0.966   4.122 -0.7941 -0.7072  0.9530
   59MOL0     C 8072   1.006   1.007   3.997  0.1268 -0.1984 -0.1077
   59MOL0     H 8073   1.319   1.246   4.402 -1.8058 -0.0225  4.3984
   59MOL0     H 8074   1.551   1.273   4.419 -1.5247  0.4978  0.8856
   59MOL0     H 8075   1.757   1.265   4.495 -1.9438 -0.8500 -0.8843
   59MOL0     H 8076   1.800   1.185   4.340  2.7785 -0.9172  0.2189
   59MOL0     H 8077   1.958   1.129   4.585  1.6176  1.8785  0.6614
   59MOL0     H 8078   2.006   1.102   4.415 -1.9085 -1.6815 -1.5624
   59MOL0     H 8079   2.005   1.334   4.353 -0.8578  2.0181  0.7024
   59MOL0     H 8080   1.960   1.392   4.505  0.2857 -0.0202  0.9185
   59MOL0     H 8081   2.161   1.290   4.621 -0.6602 -0.1851 -0.0981
   59MOL0     H 8082   2.240   1.269   4.462  1.1777 -1.6471  1.7372
   59MOL0     H 8083   2.312   1.484   4.551 -0.5047  0.3583 -0.6987
   59MOL0     H 8084   2.135   1.528   4.578 -1.7193 -0.0305 -0.8556
   59MOL0     H 8085   2.296   1.506   4.327 -1.8145 -1.0150 -2.1276
   59MOL0     H 8086   2.126   1.520   4.311  0.4458 -0.0416 -1.2839
   59MOL0     H 8087   2.308   1.706   4.324 -1.3676 -0.2607 -1.5825
   59MOL0     H 8088   2.242   1.717   4.494  0.3731  1.0919 -0.7111
   59MOL0     H 8089   2.131   1.887   4.376 -1.3713 -0.2382  0.9426
   59MOL0     H 8090   2.106   1.786   4.236 -3.8510  0.2140  0.9504
   59MOL0     H 8091   1.914   1.612   4.210  1.2679 -1.6417  0.9930
   59MOL0     H 8092   1.664   1.488   4.326  3.3793  0.3290 -1.3149
   59MOL0     H 8093   1.636   1.609   4.214  3.2131 -1.9803 -0.8342
   59MOL0     H 8094   1.515   1.750   4.398 -0.8458  0.7227  1.3939
   59MOL0     H 8095   1.438   1.595   4.334  0.8006  1.7173 -1.8014
   59MOL0     H 8096   1.449   1.488   4.535 -2.8178  1.6603  0.1331
   59MOL0     H 8097   1.576   1.592   4.599  1.8557  0.1938 -2.0583
   59MOL0     H 8098   1.383   1.774   4.600 -1.3266 -0.4123  0.2769
   59MOL0     H 8099   1.278   1.640   4.536 -1.4648 -0.3530  1.3211
   59MOL0     H 8100   1.339   1.496   4.949  1.7247 -2.1626  2.1100
   59MOL0     H 8101   1.552   1.501   5.230 -0.1054 -0.8357 -0.1431
   59MOL0     H 8102   1.412   1.438   5.148  0.7770 -0.0237 -1.7650
   59MOL0     H 8103   1.393   1.577   5.259  1.3901 -1.4250  1.3132
   59MOL0     H 8104   1.910   2.082   5.195 -0.7614 -0.0530 -0.6244
   59MOL0     H 8105   2.072   2.110   5.381  1.0120 -1.0867  2.3502
   59MOL0     H 8106   2.179   1.769   5.640  1.1392 -0.6913  1.1876
   59MOL0     H 8107   2.292   1.776   5.506  1.5144  1.2804  0.0326
   59MOL0     H 8108   2.434   1.946   5.618 -0.1964 -1.3337 -0.0229
   59MOL0     H 8109   2.326   1.943   5.761 -0.1181 -0.4511  0.7734
   59MOL0     H 8110   2.413   1.664   5.675 -1.8120 -0.0002  0.2302
   59MOL0     H 8111   2.357   1.719   5.822 -1.7337  1.5726 -1.3787
   59MOL0     H 8112   2.572   1.863   5.835 -1.0633  0.0622  0.4246
   59MOL0     H 8113   2.621   1.795   5.690 -1.7194  3.2803 -1.0784
   59MOL0     H 8114   2.568   1.650   5.963 -1.4735 -0.1095 -1.1855
   59MOL0     H 8115   2.588   1.557   5.821 -2.2233  0.9302 -2.1215
   59MOL0     H 8116   2.806   1.759   5.925  2.6556  0.2783 -2.4986
   59MOL0     H 8117   2.826   1.655   5.785  1.7743 -1.0925  0.6456
   59MOL0     H 8118   2.816   1.461   5.973  2.0835 -1.3205  2.4116
   59MOL0     H 8119   2.772   1.592   6.086 -0.1428 -0.1988  0.4307
   59MOL0     H 8120   3.039   1.570   5.935  1.6159  0.6126 -0.2745
   59MOL0     H 8121   3.017   1.498   6.088  0.2274  0.8091  2.2861
   59MOL0     H 8122   2.050   1.708   5.485  0.7276 -1.0663 -0.7182
   59MOL0     H 8123   1.849   1.669   5.334  0.9273 -0.6196 -0.5635
   59MOL0     H 8124   1.686   1.854   4.929  0.9834 -2.1892 -1.4864
   59MOL0     H 8125   1.562   1.793   4.727  1.3745  0.1601  1.0274
   59MOL0     H 8126   1.587   0.870   4.554 -0.1041  1.2425  2.7112
   59MOL0     H 8127   1.340   0.837   4.525 -0.3187  0.2642 -1.0302
   59MOL0     H 8128   0.953   0.964   4.467  2.2630  0.9740 -0.1282
   59MOL0     H 8129   0.728   0.888   4.428 -0.5898 -1.1539 -0.1418
   59MOL0     H 8130   0.579   0.732   4.340 -1.0526 -2.2832 -3.1911
   59MOL0     H 8131   0.513   0.901   4.353  1.3653 -0.2267  1.2509
   59MOL0     H 8132   0.340   0.715   4.297 -0.3181 -0.4196 -1.5477
   59MOL0     H 8133   0.429   0.693   4.151 -2.7517 -2.0125  0.8491
   59MOL0     H 8134   0.383   0.956   4.119 -0.8597 -0.5742 -0.6913
   59MOL0     H 8135   0.264   0.827   4.085  0.0264 -3.7672  1.3033
   59MOL0     H 8136   0.269   1.050   4.284 -1.7924 -1.2003  2.7411
   59MOL0     H 8137   0.225   0.890   4.352  1.0579  0.9731  0.9393
   59MOL0     H 8138  -0.104   1.003   4.106  0.2328 -2.1473 -1.3511
   59MOL0     H 8139   0.765   0.930   4.018  0.2421  0.2041 -1.3843
   59MOL0     H 8140   1.076   1.090   4.014 -2.6498  2.0462  1.1021
   59MOL0     H 8141   1.042   0.916   3.948 -1.2789 -1.0299  0.3486
   59MOL0     H 8142   0.934   1.055   3.930  0.4653 -0.9912 -1.0659
   60MOL0     O 8143   4.925   8.916   2.962  0.0888  0.2423 -0.1866
   60MOL0     C 8144   4.937   8.793   2.954  0.6852  0.5024 -0.3252
   60MOL0     O 8145   5.048   8.722   2.908 -0.4249 -0.7039  0.3805
   60MOL0     C 8146   5.166   8.791   2.899  0.2565 -0.4187  0.4520
   60MOL0     C 8147   5.206   8.859   2.782 -0.1286 -0.0547  0.5802
   60MOL0     C 8148   5.330   8.924   2.778 -1.1336  0.3591  0.8012
   60MOL0     C 8149   5.426   8.911   2.878  0.3176  0.2359  0.2374
   60MOL0     O 8150   5.556   8.949   2.875 -0.4301  0.1205  0.1264
   60MOL0     C 8151   5.611   8.977   2.743  0.0055  0.1341 -0.4670
   60MOL0     C 8152   5.763   8.953   2.731  0.7759 -0.6067 -0.8328
   60MOL0     C 8153   5.831   9.080   2.795  0.7672  0.2163 -0.2946
   60MOL0     C 8154   5.982   9.062   2.789  0.6028  0.3784 -0.4961
   60MOL0     C 8155   6.064   9.185   2.800 -0.6453  0.0318 -0.6939
   60MOL0     C 8156   6.220   9.159   2.783  0.0585  0.5171 -0.0174
   60MOL0     C 8157   6.292   9.298   2.752 -0.5838 -0.3320 -0.1980
   60MOL0     C 8158   6.400   9.260   2.640 -0.1244  0.7263  0.6862
   60MOL0     N 8159   6.500   9.365   2.615 -1.3886 -0.2795 -0.7385
   60MOL0     C 8160   6.564   9.422   2.726  0.2459 -0.2549 -0.1671
   60MOL0     C 8161   6.653   9.508   2.662  0.6009  0.5419 -1.1804
   60MOL0     C 8162   6.753   9.587   2.742  0.4516  0.6781  0.0262
   60MOL0     C 8163   6.755   9.723   2.684  0.1816 -0.5404  0.0619
   60MOL0     C 8164   6.825   9.825   2.773 -1.0671 -0.9107 -0.1512
   60MOL0     C 8165   6.972   9.800   2.797 -0.4093 -0.6961  0.0122
   60MOL0     O 8166   7.045   9.916   2.841  0.1623  0.7113  0.7707
   60MOL0     C 8167   7.189   9.906   2.831 -0.3356  0.6975 -1.6162
   60MOL0     C 8168   7.266   9.826   2.739  0.4769  0.2906 -0.1907
   60MOL0     C 8169   7.403   9.834   2.725  0.1017 -0.1774  0.1542
   60MOL0     C 8170   7.456   9.744   2.611  0.4305  0.2397 -0.1768
   60MOL0     C 8171   7.479   9.916   2.816 -1.0223 -0.8100 -0.1342
   60MOL0     C 8172   7.621   9.925   2.808 -0.0232  0.1381 -0.1038
   60MOL0     O 8173   7.689   9.859   2.714  0.0549  0.2736  0.0165
   60MOL0     C 8174   7.828   9.877   2.712  1.0206 -0.3650 -0.0759
   60MOL0     C 8175   7.875   9.994   2.654 -0.6971 -0.5754  0.1141
   60MOL0     C 8176   8.009  10.017   2.643 -0.9090 -0.1741 -0.2573
   60MOL0     C 8177   8.106   9.926   2.691  0.4378  0.4699  0.0274
   60MOL0     O 8178   8.238   9.937   2.673 -1.3265 -0.5149 -0.1512
   60MOL0     C 8179   8.306  10.045   2.607 -0.1930  0.6440 -1.0238
   60MOL0     C 8180   8.442  10.004   2.584 -0.2515 -0.5094  0.6584
   60MOL0     C 8181   8.521  10.120   2.528  0.0866 -0.7224  0.1306
   60MOL0     C 8182   8.601  10.190   2.638 -0.4296 -0.6456  0.8698
   60MOL0     C 8183   8.675  10.317   2.596  0.0947 -0.3562  0.6433
   60MOL0     C 8184   8.782  10.367   2.698  0.0753 -0.3587 -0.9200
   60MOL0     C 8185   8.825  10.508   2.663 -0.3350  0.1429  0.0357
   60MOL0     C 8186   8.948  10.559   2.737 -0.3366  0.1000  0.6093
   60MOL0    Cl 8187   8.928  10.568   2.910  0.3085 -0.0739 -0.1226
   60MOL0     C 8188   8.055   9.807   2.752 -0.1857  0.3836  0.0918
   60MOL0     C 8189   7.916   9.785   2.771 -0.4962 -0.1508 -0.1075
   60MOL0     O 8190   7.682  10.005   2.883  0.2613  0.4907 -0.1085
   60MOL0     C 8191   7.407   9.992   2.914 -0.3337  0.3426 -0.2725
   60MOL0     C 8192   7.274   9.986   2.923  0.3168  0.5193  0.1673
   60MOL0     N 8193   6.641   9.500   2.523 -0.0229  0.9833 -0.5743
   60MOL0     N 8194   6.560   9.400   2.499  0.1063 -0.0489 -0.1320
   60MOL0     C 8195   5.383   8.854   3.000  0.0614 -0.2392  0.2761
   60MOL0     C 8196   5.257   8.797   3.005 -0.1016  0.1480  0.0924
   60MOL0     C 8197   4.825   8.702   2.997 -0.3392 -0.3960 -0.1423
   60MOL0     C 8198   4.856   8.565   2.994  0.4231 -0.2737  0.7250
   60MOL0     C 8199   4.745   8.464   3.014 -0.0524 -0.2541 -0.6362
   60MOL0     C 8200   4.615   8.513   3.047  0.1424 -0.3441  0.7975
   60MOL0     O 8201   4.510   8.428   3.081  0.6343 -0.1641 -0.4294
   60MOL0     C 8202   4.512   8.293   3.029 -0.5276 -0.4711  0.2979
   60MOL0     C 8203   4.384   8.218   3.068  0.0670 -0.0621 -0.9713
   60MOL0     C 8204   4.266   8.279   2.999  0.1278  0.4211  0.5107
   60MOL0     C 8205   4.209   8.405   3.063 -0.0491  0.2122 -0.1180
   60MOL0     C 8206   4.070   8.444   3.013  0.0799  0.2901 -0.6460
   60MOL0     C 8207   3.957   8.485   3.001 -0.3643  0.5974 -0.7164
   60MOL0     C 8208   4.591   8.650   3.052 -0.0347 -0.5034  0.0229
   60MOL0     C 8209   4.691   8.743   3.029 -0.1471 -0.6181  1.1519
   60MOL0     C 8210   4.642   8.882   3.017  0.0260  0.2994 -0.2175
   60MOL0     H 8211   5.135   8.855   2.701 -1.1582 -3.7239  1.4774
   60MOL0     H 8212   5.365   8.979   2.691  1.1658  1.0532  2.1166
   60MOL0     H 8213   5.582   9.079   2.716 -2.4966 -0.4560 -0.2188
   60MOL0     H 8214   5.572   8.911   2.665 -0.3330 -1.0238  0.6550
   60MOL0     H 8215   5.787   8.866   2.793 -1.4028 -0.7021 -0.0309
   60MOL0     H 8216   5.785   8.934   2.625 -1.5117 -0.3680 -1.3979
   60MOL0     H 8217   5.802   9.167   2.736  4.2663  0.7292 -1.5305
   60MOL0     H 8218   5.800   9.087   2.900  1.2816  1.1236 -0.1887
   60MOL0     H 8219   6.015   8.992   2.866  0.6975 -2.5157 -2.9755
   60MOL0     H 8220   6.001   9.015   2.692  2.7417  0.0607  0.0316
   60MOL0     H 8221   6.053   9.225   2.901  0.1276 -3.2666  0.8238
   60MOL0     H 8222   6.029   9.259   2.727 -0.3279  0.7895 -0.0902
   60MOL0     H 8223   6.263   9.129   2.879 -0.5777 -0.9170 -0.1630
   60MOL0     H 8224   6.231   9.071   2.719  0.4947 -0.2593  1.1004
   60MOL0     H 8225   6.334   9.326   2.849 -1.6037 -1.4831  0.5903
   60MOL0     H 8226   6.217   9.371   2.720 -0.1018  0.4441  0.3986
   60MOL0     H 8227   6.445   9.168   2.676 -0.6893  0.7521  1.4678
   60MOL0     H 8228   6.356   9.235   2.543  1.3613 -0.6732  0.3205
   60MOL0     H 8229   6.548   9.413   2.833 -0.4536 -1.1265 -0.3336
   60MOL0     H 8230   6.850   9.538   2.751  0.3194  0.4134  0.0335
   60MOL0     H 8231   6.698   9.602   2.836 -4.8307 -2.4164 -2.1031
   60MOL0     H 8232   6.812   9.722   2.590 -1.3676  3.1513 -1.1132
   60MOL0     H 8233   6.654   9.761   2.668  0.7395  0.4987 -1.2553
   60MOL0     H 8234   6.817   9.929   2.738 -3.0982 -1.0767 -0.3128
   60MOL0     H 8235   6.782   9.816   2.873  0.8625 -0.4637  0.7629
   60MOL0     H 8236   6.986   9.716   2.865 -1.0758  1.6802  3.4031
   60MOL0     H 8237   7.018   9.762   2.705  2.1161 -2.6426  1.9265
   60MOL0     H 8238   7.215   9.757   2.673  2.3163  2.0536 -3.7702
   60MOL0     H 8239   7.517   9.661   2.648  2.9728  0.7470 -2.8717
   60MOL0     H 8240   7.517   9.795   2.536 -0.4672 -0.6333 -1.5534
   60MOL0     H 8241   7.370   9.708   2.553  0.6356 -0.5463 -0.0105
   60MOL0     H 8242   7.806  10.067   2.612 -0.6145 -1.2978 -1.3423
   60MOL0     H 8243   8.049  10.104   2.593  2.1181 -1.9147 -1.1671
   60MOL0     H 8244   8.263  10.069   2.510 -0.1996 -1.7012 -1.6587
   60MOL0     H 8245   8.309  10.131   2.676  0.1878 -0.4155  0.3312
   60MOL0     H 8246   8.490   9.966   2.675  3.4188 -1.9003 -1.6396
   60MOL0     H 8247   8.454   9.915   2.523  2.3818 -0.1841  0.5661
   60MOL0     H 8248   8.446  10.180   2.478 -0.3808  0.2915  1.9604
   60MOL0     H 8249   8.589  10.089   2.448 -2.1714  1.6184 -2.8939
   60MOL0     H 8250   8.682  10.125   2.670 -0.4201 -2.1218 -1.8645
   60MOL0     H 8251   8.542  10.217   2.726  0.2354 -1.6686  1.6449
   60MOL0     H 8252   8.705  10.306   2.491  1.2474 -0.1452  0.9371
   60MOL0     H 8253   8.590  10.385   2.598  0.6682  0.3997 -0.0783
   60MOL0     H 8254   8.876  10.312   2.690  1.4152  1.7754 -0.6558
   60MOL0     H 8255   8.742  10.363   2.800  2.5771 -0.2561  0.1410
   60MOL0     H 8256   8.742  10.579   2.667 -3.3003 -2.9291 -1.8264
   60MOL0     H 8257   8.860  10.499   2.560 -1.7817 -1.1164 -0.3680
   60MOL0     H 8258   8.965  10.663   2.708 -2.0665  0.1741 -0.2239
   60MOL0     H 8259   9.039  10.503   2.715 -0.2621  0.0364  1.0750
   60MOL0     H 8260   8.123   9.739   2.802  1.2783  1.9512  0.2800
   60MOL0     H 8261   7.889   9.696   2.827 -2.9014  0.5261 -0.0548
   60MOL0     H 8262   7.454  10.046   2.996 -1.3837  2.1012 -0.7641
   60MOL0     H 8263   7.230  10.046   3.002 -0.9524  0.2461 -0.3046
   60MOL0     H 8264   5.451   8.844   3.083  2.0652 -2.3558 -1.4847
   60MOL0     H 8265   5.227   8.762   3.104  0.8446 -0.8561  0.0449
   60MOL0     H 8266   4.939   8.513   2.947 -0.0772  0.8250 -1.5107
   60MOL0     H 8267   4.774   8.360   3.006 -0.1652 -0.1390 -3.4129
   60MOL0     H 8268   4.539   8.284   2.924 -4.5997 -3.0501 -0.7479
   60MOL0     H 8269   4.593   8.242   3.082  0.5267  0.7445 -0.0925
   60MOL0     H 8270   4.370   8.222   3.176 -0.3912 -0.2525 -1.0202
   60MOL0     H 8271   4.389   8.115   3.033 -1.9627 -0.5820  0.0856
   60MOL0     H 8272   4.289   8.292   2.892 -1.5986 -0.4903 -0.0174
   60MOL0     H 8273   4.186   8.205   2.989  0.1849  0.4973 -0.6515
   60MOL0     H 8274   4.277   8.489   3.046 -0.8264  0.5686 -1.5926
   60MOL0     H 8275   4.204   8.390   3.171 -1.0698 -1.1420 -0.3241
   60MOL0     H 8276   3.856   8.521   2.999 -0.5945  0.4397  2.5436
   60MOL0     H 8277   4.493   8.689   3.075  0.3473  0.0172  0.8164
   60MOL0     H 8278   4.678   8.936   2.929  1.2909  2.8249  1.7105
   60MOL0     H 8279   4.533   8.882   3.018  0.0171  0.6163 -0.7983
   60MOL0     H 8280   4.683   8.943   3.099  3.2198 -1.3160 -0.4736
   61MOL0     O 8281   9.831   0.659   8.015 -0.2750  0.0301  0.3720
   61MOL0     C 8282   9.735   0.615   7.952 -0.1078 -0.2545 -0.3684
   61MOL0     O 8283   9.741   0.501   7.875  0.1659  0.1687  0.0667
   61MOL0     C 8284   9.866   0.463   7.839 -0.0678  0.5775 -0.4663
   61MOL0     C 8285   9.975   0.410   7.917  0.0021  0.6406 -0.3999
   61MOL0     C 8286  10.107   0.372   7.860  0.1710  0.0632 -0.0697
   61MOL0     C 8287  10.115   0.370   7.720  0.2688  0.4710  0.2121
   61MOL0     O 8288  10.229   0.334   7.650 -0.2600  0.6078  0.2177
   61MOL0     C 8289  10.354   0.321   7.720  0.1534  0.6432 -0.7319
   61MOL0     C 8290  10.459   0.273   7.625  1.1881  0.0572 -0.3540
   61MOL0     C 8291  10.588   0.241   7.696 -0.2735 -0.6682  0.6806
   61MOL0     C 8292  10.702   0.211   7.596  1.0853 -0.1301 -0.2550
   61MOL0     C 8293  10.854   0.187   7.647 -0.3670  0.3634  0.0316
   61MOL0     C 8294  10.960   0.245   7.546  1.2958  0.3058  0.3709
   61MOL0     C 8295  11.096   0.205   7.575 -0.4704 -0.0470 -0.6311
   61MOL0     C 8296  11.206   0.253   7.478 -0.3906 -0.3067 -1.1360
   61MOL0     N 8297  11.336   0.236   7.542 -0.5158 -0.8089  0.0854
   61MOL0     C 8298  11.375   0.297   7.657  0.3230  0.0038 -0.2490
   61MOL0     C 8299  11.490   0.238   7.690 -0.7446  0.5798 -1.1254
   61MOL0     C 8300  11.564   0.273   7.815  0.5242 -0.6008 -0.2648
   61MOL0     C 8301  11.635   0.150   7.878 -0.0690 -0.3651  0.9254
   61MOL0     C 8302  11.679   0.174   8.027  0.4776  0.2235  0.0498
   61MOL0     C 8303  11.708   0.043   8.111  0.5825 -0.5760 -0.4092
   61MOL0     O 8304  11.725   0.080   8.247 -0.4617  0.2352  0.1988
   61MOL0     C 8305  11.835   0.149   8.301  0.1556  0.2459  0.0931
   61MOL0     C 8306  11.815   0.205   8.426 -0.6100  0.5376  0.4932
   61MOL0     C 8307  11.920   0.287   8.481  1.3085  0.1690 -0.1610
   61MOL0     C 8308  11.896   0.340   8.617 -0.2233 -0.5303 -0.5649
   61MOL0     C 8309  12.049   0.305   8.411 -0.3345  1.1418  0.5290
   61MOL0     C 8310  12.166   0.395   8.454  0.4063 -0.0533 -0.3488
   61MOL0     O 8311  12.275   0.395   8.364 -0.4939 -0.2500  0.7176
   61MOL0     C 8312  12.399   0.441   8.397 -0.0897 -0.1362 -0.5493
   61MOL0     C 8313  12.486   0.486   8.300  0.2940  0.3237 -0.0320
   61MOL0     C 8314  12.607   0.535   8.327  0.6216  0.0134 -0.1045
   61MOL0     C 8315  12.662   0.533   8.454 -0.6338  0.5536  0.2037
   61MOL0     O 8316  12.787   0.590   8.483  0.3080  0.0307  0.3624
   61MOL0     C 8317  12.820   0.725   8.436  1.0005 -0.0700 -0.2640
   61MOL0     C 8318  12.949   0.729   8.350 -0.1659 -0.3259 -0.0998
   61MOL0     C 8319  12.982   0.876   8.297 -0.2483 -0.5035 -0.1366
   61MOL0     C 8320  13.109   0.888   8.208  0.1936 -0.1717  0.6752
   61MOL0     C 8321  13.235   0.844   8.284  0.3787 -0.2057 -0.4840
   61MOL0     C 8322  13.357   0.875   8.215 -0.8056  0.9823  0.8259
   61MOL0     C 8323  13.475   0.847   8.300 -1.0771  0.8209 -0.2936
   61MOL0     C 8324  13.617   0.873   8.237  0.2545  0.6419  0.1757
   61MOL0    Cl 8325  13.753   0.845   8.355 -0.4036  0.1606  0.1227
   61MOL0     C 8326  12.579   0.481   8.555 -0.2820  0.4232 -0.1891
   61MOL0     C 8327  12.455   0.429   8.527  0.3623  0.1785 -0.5967
   61MOL0     O 8328  12.160   0.464   8.558 -0.1994 -0.3400 -0.0059
   61MOL0     C 8329  12.062   0.229   8.286 -0.0770  0.3014  0.0710
   61MOL0     C 8330  11.958   0.156   8.234  0.0664  0.0795 -0.3419
   61MOL0     N 8331  11.512   0.130   7.607  0.0590  0.3413  0.3332
   61MOL0     N 8332  11.425   0.139   7.511 -0.7793 -0.2393 -0.1204
   61MOL0     C 8333  10.010   0.402   7.639  0.6265  0.2416  0.1417
   61MOL0     C 8334   9.892   0.451   7.701 -0.0174 -0.2585 -0.7014
   61MOL0     C 8335   9.602   0.662   7.992 -0.1384  0.2463  0.9232
   61MOL0     C 8336   9.492   0.573   7.982 -0.0246  0.1370  0.5969
   61MOL0     C 8337   9.367   0.601   8.035 -0.4705  0.5180  0.3306
   61MOL0     C 8338   9.343   0.729   8.085 -0.0418  0.2412  0.0500
   61MOL0     O 8339   9.212   0.750   8.123  0.1576  0.8822 -0.3454
   61MOL0     C 8340   9.162   0.883   8.159 -0.6951  0.4709 -0.8600
   61MOL0     C 8341   9.149   0.964   8.034 -0.1462 -0.3066  0.0660
   61MOL0     C 8342   9.095   1.104   8.069 -0.0323 -0.7617 -1.2693
   61MOL0     C 8343   9.173   1.196   8.154  0.1530  0.4793 -0.5900
   61MOL0     C 8344   9.307   1.216   8.101 -0.2351 -0.2528 -0.1618
   61MOL0     C 8345   9.420   1.237   8.057 -0.4229 -0.5034 -0.9025
   61MOL0     C 8346   9.444   0.825   8.075 -0.2499 -0.1995 -1.0973
   61MOL0     C 8347   9.574   0.787   8.035  0.6553 -0.0214 -0.4347
   61MOL0     C 8348   9.677   0.907   8.040  0.1992  0.1785 -0.3049
   61MOL0     H 8349   9.951   0.391   8.021  1.9477  4.1235  0.8609
   61MOL0     H 8350  10.199   0.351   7.914  1.0802  1.3751 -1.0399
   61MOL0     H 8351  10.341   0.247   7.800  1.1700 -0.0411 -1.1867
   61MOL0     H 8352  10.378   0.415   7.769  0.5797 -0.1170  0.5858
   61MOL0     H 8353  10.417   0.179   7.588 -1.8545  1.8101 -1.7942
   61MOL0     H 8354  10.478   0.346   7.546  0.3388 -0.9137 -1.5035
   61MOL0     H 8355  10.625   0.314   7.768 -1.0805 -0.0839  0.5222
   61MOL0     H 8356  10.581   0.148   7.754 -1.0090 -0.1537  1.4401
   61MOL0     H 8357  10.672   0.124   7.538  1.1043 -0.3570  0.0714
   61MOL0     H 8358  10.700   0.295   7.526 -2.3975  0.4603  0.3629
   61MOL0     H 8359  10.882   0.082   7.659 -0.9527  0.3668  1.5847
   61MOL0     H 8360  10.875   0.244   7.738 -1.6738  0.6199  0.1920
   61MOL0     H 8361  10.935   0.208   7.446  2.6555  0.6185 -0.1005
   61MOL0     H 8362  10.959   0.355   7.549 -0.4109  0.3210  3.3034
   61MOL0     H 8363  11.107   0.097   7.570 -1.2354 -0.1359 -0.4302
   61MOL0     H 8364  11.126   0.216   7.680  3.5738 -1.1973 -1.4771
   61MOL0     H 8365  11.205   0.178   7.398  1.4931 -0.4871 -1.0288
   61MOL0     H 8366  11.193   0.353   7.437 -1.5297 -1.2099 -3.1398
   61MOL0     H 8367  11.324   0.379   7.707  0.6951  2.2663 -3.2973
   61MOL0     H 8368  11.485   0.320   7.874  0.6769  0.6020 -0.9626
   61MOL0     H 8369  11.632   0.356   7.793 -1.4215  0.3622 -3.2775
   61MOL0     H 8370  11.573   0.060   7.881  1.0302 -1.1164  2.4592
   61MOL0     H 8371  11.725   0.133   7.818  0.8496  3.5773  0.9086
   61MOL0     H 8372  11.758   0.248   8.035  0.3921  0.2421  0.7371
   61MOL0     H 8373  11.594   0.221   8.077 -0.0420  0.7447 -1.2927
   61MOL0     H 8374  11.625  -0.028   8.117 -0.2060  0.4803  2.2377
   61MOL0     H 8375  11.791  -0.009   8.062  0.6190 -1.6632  0.7409
   61MOL0     H 8376  11.721   0.179   8.473 -0.4116 -2.4059 -0.5099
   61MOL0     H 8377  11.913   0.448   8.611  0.0498 -0.3923  1.8857
   61MOL0     H 8378  11.964   0.295   8.690 -1.6997 -0.0945  1.1392
   61MOL0     H 8379  11.790   0.325   8.637 -0.3745 -0.3248 -1.1862
   61MOL0     H 8380  12.457   0.499   8.196 -2.3476  2.1343  0.8299
   61MOL0     H 8381  12.663   0.588   8.250 -0.8899  0.7137 -0.7635
   61MOL0     H 8382  12.731   0.756   8.381  0.6438 -1.7108 -0.6714
   61MOL0     H 8383  12.822   0.796   8.519  0.7546  1.6471 -1.6868
   61MOL0     H 8384  13.030   0.684   8.408  0.8434  0.0656 -1.1677
   61MOL0     H 8385  12.939   0.655   8.271  1.2828 -1.8162  1.0397
   61MOL0     H 8386  12.990   0.947   8.380  3.3870  0.3635 -1.0701
   61MOL0     H 8387  12.894   0.913   8.243 -0.1414  1.4584  0.9452
   61MOL0     H 8388  13.120   0.990   8.171 -0.0061 -0.2930  0.2663
   61MOL0     H 8389  13.082   0.819   8.128 -1.9278 -0.3637  1.4837
   61MOL0     H 8390  13.230   0.908   8.372 -1.3692  1.3228 -1.6289
   61MOL0     H 8391  13.231   0.737   8.308 -3.3011  0.1738  1.4619
   61MOL0     H 8392  13.350   0.977   8.177 -2.4083 -0.2206 -2.5591
   61MOL0     H 8393  13.374   0.809   8.129  1.3264  2.3520  0.1099
   61MOL0     H 8394  13.483   0.742   8.329  2.2419  0.5492 -1.7862
   61MOL0     H 8395  13.477   0.905   8.392  0.0719 -1.3387  1.1185
   61MOL0     H 8396  13.621   0.980   8.212  1.3709  0.6545  0.3424
   61MOL0     H 8397  13.634   0.833   8.136  0.1503  0.6465  0.1568
   61MOL0     H 8398  12.611   0.489   8.658  0.6666 -1.3153 -0.3085
   61MOL0     H 8399  12.398   0.388   8.610  0.7777  0.3398 -0.2306
   61MOL0     H 8400  12.150   0.237   8.223  0.9758  2.2646  1.6783
   61MOL0     H 8401  11.972   0.124   8.131  0.3976 -0.6884 -0.0597
   61MOL0     H 8402  10.011   0.397   7.531 -1.4158 -1.6544  0.1321
   61MOL0     H 8403   9.816   0.499   7.640  0.2551  1.2139  0.0904
   61MOL0     H 8404   9.502   0.472   7.945 -0.3169 -0.7031  2.6960
   61MOL0     H 8405   9.292   0.522   8.042  0.7308 -0.6090  0.9218
   61MOL0     H 8406   9.062   0.876   8.201  0.3520  2.7242  2.4017
   61MOL0     H 8407   9.221   0.926   8.240 -0.9192 -0.7802 -0.0127
   61MOL0     H 8408   9.083   0.916   7.962  0.4877 -0.8272 -0.1846
   61MOL0     H 8409   9.244   0.980   7.981  0.9230 -0.2233  1.9126
   61MOL0     H 8410   9.083   1.161   7.976 -0.2983  1.4665  0.0496
   61MOL0     H 8411   8.997   1.090   8.115 -0.4881 -1.1079 -2.3274
   61MOL0     H 8412   9.172   1.164   8.258 -0.8732 -2.0007 -1.3070
   61MOL0     H 8413   9.132   1.298   8.161  2.4467  1.3511  1.5284
   61MOL0     H 8414   9.511   1.271   8.011  0.4683 -0.2359  0.9506
   61MOL0     H 8415   9.423   0.920   8.122  1.6636  0.4385 -1.4269
   61MOL0     H 8416   9.738   0.924   7.952 -0.6063 -0.2866 -0.9667
   61MOL0     H 8417   9.616   0.997   8.056 -2.0560 -1.4682  1.0799
   61MOL0     H 8418   9.748   0.896   8.123  1.1426 -0.3820 -1.1727
   62MOL0     O 8419   8.606   5.860   6.359  0.0581  0.5142 -0.2127
   62MOL0     C 8420   8.563   5.899   6.467  0.4472 -0.3865  0.4755
   62MOL0     O 8421   8.637   5.961   6.567  0.0390  0.1051 -0.3141
   62MOL0     C 8422   8.763   6.009   6.539  0.3846  0.4475  0.1309
   62MOL0     C 8423   8.780   6.147   6.502 -0.8343  0.6632 -0.7043
   62MOL0     C 8424   8.912   6.198   6.479 -0.1431  0.5769  0.7062
   62MOL0     C 8425   9.019   6.105   6.493 -0.2532 -1.3326  0.5879
   62MOL0     O 8426   9.155   6.139   6.481 -0.9369 -0.8607  0.5978
   62MOL0     C 8427   9.177   6.282   6.485  0.5888 -0.5942  0.5841
   62MOL0     C 8428   9.329   6.308   6.486  0.5219 -0.3015  0.1980
   62MOL0     C 8429   9.364   6.454   6.519 -0.1371 -0.0768  0.2209
   62MOL0     C 8430   9.338   6.478   6.670  0.0311  0.2205  0.1395
   62MOL0     C 8431   9.399   6.609   6.730  0.2209 -0.4797  0.5582
   62MOL0     C 8432   9.350   6.627   6.880  0.0585 -0.8972  0.5937
   62MOL0     C 8433   9.426   6.530   6.970 -0.5228  0.3158 -0.7331
   62MOL0     C 8434   9.489   6.596   7.096  1.3897  0.5062  0.5772
   62MOL0     N 8435   9.585   6.690   7.041  0.0535 -0.0488 -1.2652
   62MOL0     C 8436   9.590   6.833   7.037 -0.2324  0.2221 -0.8481
   62MOL0     C 8437   9.703   6.863   6.967  0.1116 -0.4198 -0.4045
   62MOL0     C 8438   9.751   6.999   6.933  0.5444  0.9650  0.2687
   62MOL0     C 8439   9.718   7.042   6.792  0.6401 -0.5410  0.5420
   62MOL0     C 8440   9.570   7.057   6.754  0.7546 -0.6209 -0.5603
   62MOL0     C 8441   9.555   7.128   6.620 -0.0357  0.5111  0.1936
   62MOL0     O 8442   9.437   7.098   6.560 -0.1627  0.3974  0.4857
   62MOL0     C 8443   9.424   7.113   6.415 -0.8225  1.4373  0.2622
   62MOL0     C 8444   9.310   7.061   6.353 -0.0437 -0.6502  0.9218
   62MOL0     C 8445   9.288   7.089   6.215  0.6406  0.5369  0.0661
   62MOL0     C 8446   9.150   7.034   6.172 -0.6508 -0.7959 -0.0028
   62MOL0     C 8447   9.381   7.152   6.137  0.3603  0.6446  0.6613
   62MOL0     C 8448   9.351   7.211   5.997  0.6075  0.1103 -0.1770
   62MOL0     O 8449   9.459   7.271   5.934  0.0658 -0.0169  0.3427
   62MOL0     C 8450   9.464   7.306   5.807  0.4606 -0.0618 -0.8709
   62MOL0     C 8451   9.550   7.410   5.765 -0.3016 -0.1641 -0.2587
   62MOL0     C 8452   9.563   7.442   5.630 -0.4171  0.5405  0.0791
   62MOL0     C 8453   9.490   7.380   5.529  0.1065 -0.5738 -1.1562
   62MOL0     O 8454   9.508   7.403   5.397  0.2680  0.2291 -0.7594
   62MOL0     C 8455   9.524   7.540   5.356  0.4307  0.4704 -0.2319
   62MOL0     C 8456   9.530   7.535   5.200 -0.7571  0.6949  0.6032
   62MOL0     C 8457   9.629   7.637   5.133 -0.0542  0.0378  0.0343
   62MOL0     C 8458   9.642   7.615   4.981  0.0203 -0.5710 -0.3865
   62MOL0     C 8459   9.730   7.501   4.921  0.0278  0.7129  0.1843
   62MOL0     C 8460   9.740   7.509   4.770 -0.2941 -0.0387 -0.2465
   62MOL0     C 8461   9.831   7.393   4.720 -0.3979 -0.5542  0.0259
   62MOL0     C 8462   9.819   7.381   4.565 -0.8972  0.8911 -0.2369
   62MOL0    Cl 8463   9.881   7.531   4.480 -0.4552 -0.2100 -0.2024
   62MOL0     C 8464   9.395   7.288   5.565 -0.2542 -0.7804  0.1818
   62MOL0     C 8465   9.392   7.243   5.698 -0.3996  0.1533 -0.0262
   62MOL0     O 8466   9.239   7.195   5.947  0.3205 -0.2141  0.3008
   62MOL0     C 8467   9.499   7.190   6.193  0.4581 -0.4030 -0.0271
   62MOL0     C 8468   9.514   7.183   6.331  0.4134  0.2257 -0.9663
   62MOL0     N 8469   9.765   6.739   6.939  0.2077 -0.2888 -0.2142
   62MOL0     N 8470   9.695   6.641   6.981  0.1398 -0.0730  0.3691
   62MOL0     C 8471   8.999   5.977   6.525 -0.0485  0.6243  0.5968
   62MOL0     C 8472   8.870   5.920   6.544  0.0196  0.6899 -0.3020
   62MOL0     C 8473   8.417   5.873   6.507 -0.0017 -0.0860  0.4485
   62MOL0     C 8474   8.393   5.869   6.644  0.3020 -0.2973  0.1748
   62MOL0     C 8475   8.261   5.846   6.687 -0.2145 -0.1384  0.8198
   62MOL0     C 8476   8.155   5.833   6.593 -0.0413 -0.6361 -0.1361
   62MOL0     O 8477   8.028   5.824   6.654  0.2836  0.1037 -0.6459
   62MOL0     C 8478   7.906   5.829   6.572 -0.3758 -0.0760 -0.9527
   62MOL0     C 8479   7.780   5.807   6.658 -0.2862  0.3270  0.1514
   62MOL0     C 8480   7.660   5.767   6.576 -0.2008  0.3204  0.0159
   62MOL0     C 8481   7.532   5.775   6.663  0.0368  0.2516 -0.1003
   62MOL0     C 8482   7.495   5.647   6.718  0.8533  0.3824  0.3780
   62MOL0     C 8483   7.448   5.537   6.744 -0.0694 -0.2177  0.7989
   62MOL0     C 8484   8.181   5.835   6.454 -0.0407  0.3779  0.6864
   62MOL0     C 8485   8.313   5.853   6.416  0.1212 -0.1245 -0.3764
   62MOL0     C 8486   8.340   5.852   6.267  0.8386  0.4735  0.0301
   62MOL0     H 8487   8.703   6.224   6.507  0.1305  1.6209  3.4472
   62MOL0     H 8488   8.923   6.300   6.443 -0.3319  0.2057 -0.4390
   62MOL0     H 8489   9.130   6.313   6.579 -1.0261  1.2200 -0.7372
   62MOL0     H 8490   9.126   6.331   6.401  1.5426 -0.4153  0.0920
   62MOL0     H 8491   9.377   6.236   6.552 -0.3817 -0.2563  0.9181
   62MOL0     H 8492   9.370   6.289   6.386  1.6512  1.3474  0.2991
   62MOL0     H 8493   9.468   6.481   6.499  0.8495 -1.7799  2.6113
   62MOL0     H 8494   9.303   6.526   6.462  1.2918  4.4316  3.7335
   62MOL0     H 8495   9.229   6.481   6.682  0.0666 -0.2375  0.6119
   62MOL0     H 8496   9.375   6.396   6.732 -0.2105 -0.7799 -0.9839
   62MOL0     H 8497   9.352   6.688   6.669  1.2021 -1.6471 -1.8248
   62MOL0     H 8498   9.507   6.604   6.715 -0.0564 -2.0183 -1.1300
   62MOL0     H 8499   9.385   6.728   6.900  0.8616 -1.2718  1.1637
   62MOL0     H 8500   9.243   6.620   6.900  0.3931 -1.2704  2.5554
   62MOL0     H 8501   9.501   6.476   6.911 -0.7103 -1.6751  0.7567
   62MOL0     H 8502   9.343   6.467   7.003 -1.2888  2.1780  1.0825
   62MOL0     H 8503   9.414   6.648   7.156  1.7159  0.3074  1.1689
   62MOL0     H 8504   9.528   6.521   7.166  1.3916  0.2448  0.2950
   62MOL0     H 8505   9.517   6.907   7.069 -0.8320 -0.6137 -0.1931
   62MOL0     H 8506   9.859   6.983   6.939  0.6044  0.4787 -1.5548
   62MOL0     H 8507   9.726   7.069   7.013 -1.0617 -0.3305  0.9647
   62MOL0     H 8508   9.775   7.135   6.785  0.5305 -0.4100  1.3061
   62MOL0     H 8509   9.755   6.971   6.718 -3.4924 -1.0716 -1.3294
   62MOL0     H 8510   9.530   6.957   6.735  0.9770 -1.0109  0.9103
   62MOL0     H 8511   9.511   7.111   6.828 -0.0788 -0.5094 -1.2866
   62MOL0     H 8512   9.549   7.234   6.648 -0.6464  0.7916 -0.9323
   62MOL0     H 8513   9.642   7.113   6.556  0.4771 -0.1837  1.0307
   62MOL0     H 8514   9.229   7.019   6.412 -1.7982 -0.3129 -1.1212
   62MOL0     H 8515   9.154   7.004   6.067 -0.4692  2.9627 -1.2311
   62MOL0     H 8516   9.085   7.122   6.173 -0.9814 -1.0049  2.4578
   62MOL0     H 8517   9.095   6.961   6.232 -2.2708  0.6649  0.3717
   62MOL0     H 8518   9.608   7.458   5.843 -0.5477 -0.2114 -0.0450
   62MOL0     H 8519   9.627   7.522   5.597 -1.4524  1.2415 -0.2618
   62MOL0     H 8520   9.438   7.599   5.390  2.1136  2.4945  0.7226
   62MOL0     H 8521   9.619   7.578   5.396 -0.2178 -0.7165  2.7621
   62MOL0     H 8522   9.562   7.439   5.158 -2.8921  0.3523 -0.3569
   62MOL0     H 8523   9.428   7.557   5.169 -1.3501  1.7658  3.1172
   62MOL0     H 8524   9.727   7.631   5.182  0.1024  2.0270  0.0571
   62MOL0     H 8525   9.602   7.740   5.158 -0.1305  0.2898 -1.0304
   62MOL0     H 8526   9.697   7.703   4.946  0.8344 -1.4988 -1.4920
   62MOL0     H 8527   9.548   7.616   4.925 -0.7577  1.3765  0.8380
   62MOL0     H 8528   9.828   7.514   4.970 -0.5145  2.4189  0.9042
   62MOL0     H 8529   9.686   7.406   4.951  0.0578  0.0727 -1.7138
   62MOL0     H 8530   9.783   7.606   4.745  2.4240 -1.4378 -1.4598
   62MOL0     H 8531   9.635   7.501   4.740 -1.0100  2.4846  1.3270
   62MOL0     H 8532   9.808   7.305   4.781 -0.9559 -0.2541  0.2506
   62MOL0     H 8533   9.934   7.415   4.751 -0.2301 -3.1247  1.6096
   62MOL0     H 8534   9.717   7.349   4.539 -0.4554  1.6981 -3.5042
   62MOL0     H 8535   9.873   7.293   4.529  0.2209  0.1904  2.8884
   62MOL0     H 8536   9.331   7.240   5.492  0.9621 -0.0239 -1.4251
   62MOL0     H 8537   9.317   7.171   5.727 -0.4493  0.9810  2.0849
   62MOL0     H 8538   9.569   7.246   6.132 -0.2267  2.3308  1.5263
   62MOL0     H 8539   9.600   7.231   6.377 -0.0318 -0.5234  0.6980
   62MOL0     H 8540   9.086   5.913   6.541  0.0276  0.1891 -1.3068
   62MOL0     H 8541   8.852   5.815   6.563  1.2455  0.6952  1.0483
   62MOL0     H 8542   8.470   5.885   6.719  3.4990 -1.9481 -2.4842
   62MOL0     H 8543   8.228   5.845   6.790 -3.0709  1.5838  0.0474
   62MOL0     H 8544   7.893   5.924   6.519  0.9024  0.6662  0.0293
   62MOL0     H 8545   7.899   5.743   6.504  0.9890 -0.9372 -0.0626
   62MOL0     H 8546   7.758   5.900   6.712 -3.6692  0.9657 -2.0006
   62MOL0     H 8547   7.792   5.732   6.737 -2.7331  1.2460  1.5197
   62MOL0     H 8548   7.645   5.840   6.497 -0.4579  0.8630  0.5534
   62MOL0     H 8549   7.670   5.666   6.535 -0.3365  1.5553 -3.2995
   62MOL0     H 8550   7.450   5.803   6.595  1.0532  1.6234 -0.8358
   62MOL0     H 8551   7.535   5.852   6.740 -1.1557 -0.0167  0.2317
   62MOL0     H 8552   7.416   5.437   6.765 -2.0431 -0.4240 -2.4596
   62MOL0     H 8553   8.102   5.803   6.387 -0.4852 -2.2862  2.3327
   62MOL0     H 8554   8.247   5.825   6.215  0.5900 -0.6416  0.9965
   62MOL0     H 8555   8.389   5.943   6.230 -0.8091  0.4282 -2.5708
   62MOL0     H 8556   8.407   5.768   6.246 -1.6418 -1.8016  0.6075
   63MOL0     O 8557   2.065  10.197   3.622 -0.2769 -1.0553  0.9909
   63MOL0     C 8558   1.969  10.129   3.615  0.2515  0.0889 -0.0440
   63MOL0     O 8559   1.980   9.991   3.596 -0.1019  0.5516  0.9548
   63MOL0     C 8560   2.087   9.924   3.652 -0.6527 -0.2933  0.1452
   63MOL0     C 8561   2.110   9.794   3.603 -0.1470 -0.3381  0.0796
   63MOL0     C 8562   2.203   9.701   3.648 -0.1679  0.2255  0.2160
   63MOL0     C 8563   2.287   9.742   3.746 -0.9586  0.9975 -0.1284
   63MOL0     O 8564   2.383   9.647   3.785  0.0951  0.4153 -0.6824
   63MOL0     C 8565   2.502   9.697   3.856  0.6798 -0.0193  0.4954
   63MOL0     C 8566   2.595   9.766   3.761 -0.3187 -0.5587 -0.0388
   63MOL0     C 8567   2.643   9.676   3.653 -0.0833 -0.5279  0.3660
   63MOL0     C 8568   2.715   9.760   3.554  0.0777 -0.1929 -0.7970
   63MOL0     C 8569   2.795   9.679   3.444 -0.1356 -0.5492 -0.0681
   63MOL0     C 8570   2.709   9.606   3.338  0.2497  0.5826 -0.3075
   63MOL0     C 8571   2.795   9.524   3.243 -0.4311  0.3001  0.2318
   63MOL0     C 8572   2.882   9.414   3.304  0.0839  1.1259  0.0674
   63MOL0     N 8573   2.928   9.331   3.186  0.4964 -0.4125  0.3676
   63MOL0     C 8574   2.847   9.241   3.119  0.0231  0.1726 -0.4109
   63MOL0     C 8575   2.923   9.195   3.022  0.0359 -0.4414  0.2125
   63MOL0     C 8576   2.867   9.110   2.911 -0.0378  0.1788 -0.0622
   63MOL0     C 8577   2.780   9.194   2.821  0.1048  0.3171 -0.0665
   63MOL0     C 8578   2.706   9.111   2.717 -0.2246 -0.0494 -0.2568
   63MOL0     C 8579   2.597   9.024   2.766  0.2608  0.4527 -0.1625
   63MOL0     O 8580   2.489   9.098   2.818 -1.2607  0.5390 -0.2346
   63MOL0     C 8581   2.367   9.031   2.858 -0.2301 -0.5465 -0.3085
   63MOL0     C 8582   2.342   8.900   2.837 -0.7279  0.0024  0.2788
   63MOL0     C 8583   2.212   8.852   2.865 -1.1052  0.5829 -0.2170
   63MOL0     C 8584   2.181   8.699   2.851 -0.3130 -0.3883 -0.9642
   63MOL0     C 8585   2.109   8.940   2.917 -0.0884  0.3254 -0.2385
   63MOL0     C 8586   1.967   8.898   2.951 -0.7223  0.4977  1.1811
   63MOL0     O 8587   1.887   8.818   2.866 -0.5858 -1.2386 -0.1921
   63MOL0     C 8588   1.767   8.789   2.921  0.1742 -1.1642  0.1890
   63MOL0     C 8589   1.737   8.654   2.944  0.0096 -0.2527 -0.3596
   63MOL0     C 8590   1.610   8.614   2.973  0.1988  0.7532 -0.2685
   63MOL0     C 8591   1.499   8.704   2.960 -0.9617  1.2055  0.1043
   63MOL0     O 8592   1.369   8.673   2.971  0.0176  0.1523  0.1252
   63MOL0     C 8593   1.320   8.571   3.052 -0.3337 -0.4357  0.3567
   63MOL0     C 8594   1.322   8.425   3.008 -0.3459 -0.0335  0.3679
   63MOL0     C 8595   1.339   8.322   3.129 -0.8762 -0.6499  0.2966
   63MOL0     C 8596   1.286   8.192   3.077  0.5282  0.9837 -0.2291
   63MOL0     C 8597   1.303   8.064   3.171  0.5808 -0.5611 -0.6049
   63MOL0     C 8598   1.287   7.932   3.085  0.2391  0.4335  0.4412
   63MOL0     C 8599   1.298   7.814   3.181 -0.1289 -0.2279 -0.0465
   63MOL0     C 8600   1.316   7.686   3.092 -0.5607 -0.0935  0.4348
   63MOL0    Cl 8601   1.173   7.665   2.988 -0.1684 -0.4927  0.1407
   63MOL0     C 8602   1.529   8.838   2.938  0.6570 -1.0420 -0.9866
   63MOL0     C 8603   1.662   8.885   2.921  0.4419  1.2077 -0.2288
   63MOL0     O 8604   1.939   8.924   3.065  0.3487  0.5399 -0.5768
   63MOL0     C 8605   2.149   9.073   2.947  0.3662  0.3578 -0.5700
   63MOL0     C 8606   2.275   9.117   2.914 -0.1732  0.7606  0.5954
   63MOL0     N 8607   3.050   9.238   3.043 -0.7986 -0.9229  0.7873
   63MOL0     N 8608   3.053   9.311   3.145 -0.2165 -0.0351 -0.9255
   63MOL0     C 8609   2.266   9.873   3.807 -0.2320  0.4425 -0.8946
   63MOL0     C 8610   2.170   9.964   3.757  0.4605 -0.6181 -0.2514
   63MOL0     C 8611   1.829  10.187   3.603 -0.7127  0.8769 -0.2031
   63MOL0     C 8612   1.726  10.101   3.577  0.3844 -0.2493 -0.4816
   63MOL0     C 8613   1.589  10.144   3.564 -0.2121 -0.6283 -0.5460
   63MOL0     C 8614   1.561  10.277   3.591 -0.1808 -0.8775 -0.7169
   63MOL0     O 8615   1.436  10.328   3.591 -0.1602  0.5099 -0.3070
   63MOL0     C 8616   1.319  10.249   3.601 -0.3740  0.0100 -0.4122
   63MOL0     C 8617   1.204  10.346   3.604  0.0122  0.5588 -0.0880
   63MOL0     C 8618   1.082  10.263   3.649  0.1245  0.2764  0.0106
   63MOL0     C 8619   0.960  10.328   3.600  0.2959  0.1878  0.6330
   63MOL0     C 8620   0.835  10.253   3.638  0.1726 -0.0315 -0.3906
   63MOL0     C 8621   0.730  10.202   3.668  0.2648  0.1437 -0.2380
   63MOL0     C 8622   1.667  10.362   3.620 -0.1381 -0.1742 -0.4064
   63MOL0     C 8623   1.797  10.320   3.638  0.3968  0.6175 -0.2253
   63MOL0     C 8624   1.898  10.426   3.674  0.3592 -0.1195  0.0567
   63MOL0     H 8625   2.039   9.764   3.527 -1.4580 -0.7898  1.4336
   63MOL0     H 8626   2.211   9.612   3.586 -0.5998  2.0759 -2.7042
   63MOL0     H 8627   2.558   9.612   3.897 -0.4959 -1.0193  0.1086
   63MOL0     H 8628   2.470   9.755   3.943 -1.8078  0.7239 -0.8094
   63MOL0     H 8629   2.538   9.848   3.717  0.3065  0.8420  1.6744
   63MOL0     H 8630   2.683   9.806   3.812 -1.4653 -1.5382  2.9060
   63MOL0     H 8631   2.713   9.600   3.688  2.3074  0.0604 -2.6856
   63MOL0     H 8632   2.558   9.635   3.598 -1.4400  2.0495  0.4012
   63MOL0     H 8633   2.646   9.824   3.498 -0.2870 -0.4355 -0.6274
   63MOL0     H 8634   2.787   9.823   3.608 -0.5687  0.6485 -0.8994
   63MOL0     H 8635   2.867   9.612   3.493 -0.8708 -1.0714  0.3291
   63MOL0     H 8636   2.856   9.756   3.397 -0.2189 -1.3989 -1.6118
   63MOL0     H 8637   2.635   9.538   3.383  0.6122 -0.1891 -0.8534
   63MOL0     H 8638   2.657   9.679   3.276 -0.9236 -0.1996 -0.2872
   63MOL0     H 8639   2.857   9.594   3.186  0.3665 -0.4194  0.1928
   63MOL0     H 8640   2.729   9.478   3.169 -2.6970 -0.7911  2.7831
   63MOL0     H 8641   2.973   9.450   3.353 -0.8994  0.2693  2.6847
   63MOL0     H 8642   2.839   9.349   3.380 -0.1258 -0.0084 -0.9884
   63MOL0     H 8643   2.743   9.217   3.139  0.1181  2.3702  3.6919
   63MOL0     H 8644   2.806   9.028   2.950  0.1419  0.0777  0.0088
   63MOL0     H 8645   2.939   9.062   2.844 -4.1339  0.3405 -5.1847
   63MOL0     H 8646   2.714   9.258   2.881  0.4153  0.7620 -0.1967
   63MOL0     H 8647   2.848   9.264   2.771 -0.2830  0.3062 -0.6210
   63MOL0     H 8648   2.663   9.176   2.639 -1.5588  0.2016  0.6469
   63MOL0     H 8649   2.786   9.052   2.672 -1.4726 -2.5482  0.6270
   63MOL0     H 8650   2.568   8.958   2.684 -0.1010 -1.5669  1.5248
   63MOL0     H 8651   2.647   8.961   2.840  0.5891  1.0045  0.0895
   63MOL0     H 8652   2.420   8.835   2.797 -1.4225 -0.6554 -0.0169
   63MOL0     H 8653   2.139   8.660   2.944  0.1645  2.8256  0.7451
   63MOL0     H 8654   2.270   8.642   2.824  0.8216  0.4196  0.9339
   63MOL0     H 8655   2.103   8.685   2.775 -0.9294 -1.6655 -0.1400
   63MOL0     H 8656   1.809   8.573   2.934  1.5536  1.0966 -0.6251
   63MOL0     H 8657   1.603   8.509   3.001  0.4188 -0.1228 -3.1779
   63MOL0     H 8658   1.380   8.564   3.143  0.2737 -1.5475 -0.1135
   63MOL0     H 8659   1.212   8.584   3.061 -0.7605 -0.3446 -3.4442
   63MOL0     H 8660   1.221   8.401   2.973 -1.3289  2.4926  1.2458
   63MOL0     H 8661   1.400   8.412   2.933  1.6156  2.9452  1.7119
   63MOL0     H 8662   1.292   8.353   3.222  0.7567  1.6623  0.4242
   63MOL0     H 8663   1.446   8.306   3.145  0.1292  1.8145 -2.8384
   63MOL0     H 8664   1.333   8.176   2.980  1.2585  3.6505 -0.3711
   63MOL0     H 8665   1.179   8.196   3.055  0.2228  1.6291  1.2138
   63MOL0     H 8666   1.405   8.078   3.209  0.4100  0.6877 -0.5600
   63MOL0     H 8667   1.232   8.069   3.253 -0.8806 -1.1129 -1.7868
   63MOL0     H 8668   1.363   7.923   3.007 -1.9818 -3.8233 -1.5701
   63MOL0     H 8669   1.187   7.928   3.041  0.9813  1.4038 -1.4025
   63MOL0     H 8670   1.206   7.812   3.240 -0.5353 -0.4808 -0.6829
   63MOL0     H 8671   1.385   7.831   3.245  2.1687  1.1664 -3.2673
   63MOL0     H 8672   1.334   7.606   3.165  1.9363  0.3744  0.4058
   63MOL0     H 8673   1.402   7.694   3.026 -0.5334 -1.7049  0.2237
   63MOL0     H 8674   1.452   8.912   2.917  1.1411 -0.6282 -1.3114
   63MOL0     H 8675   1.683   8.989   2.895  2.0668  0.1887 -3.5113
   63MOL0     H 8676   2.071   9.141   2.981  0.2913 -0.2796  0.6011
   63MOL0     H 8677   2.304   9.222   2.919  1.7441  0.2083  3.5786
   63MOL0     H 8678   2.332   9.904   3.887 -0.2581  3.3914 -1.8823
   63MOL0     H 8679   2.159  10.065   3.795 -5.7179 -0.9852 -0.0563
   63MOL0     H 8680   1.749   9.999   3.549  1.8078 -1.0468  3.0830
   63MOL0     H 8681   1.510  10.077   3.535 -1.2636  0.6009 -0.5955
   63MOL0     H 8682   1.313  10.176   3.520  2.0559  0.4205 -1.0477
   63MOL0     H 8683   1.321  10.202   3.700 -2.0440 -1.5288 -1.0601
   63MOL0     H 8684   1.184  10.402   3.513  0.3265  1.5157  0.4169
   63MOL0     H 8685   1.224  10.420   3.683  0.2863  3.0381 -2.3399
   63MOL0     H 8686   1.091  10.161   3.609  0.8464  0.5082 -0.4343
   63MOL0     H 8687   1.086  10.254   3.758  0.8555  0.5762  0.0154
   63MOL0     H 8688   0.962  10.336   3.491 -1.8925  0.1703  0.5476
   63MOL0     H 8689   0.957  10.429   3.643  3.3010 -0.0615  1.6656
   63MOL0     H 8690   0.645  10.151   3.709  1.6024 -1.7974  0.2614
   63MOL0     H 8691   1.639  10.466   3.636 -0.2659 -0.1992 -0.4603
   63MOL0     H 8692   1.949  10.397   3.765 -0.7519  0.5940  0.9339
   63MOL0     H 8693   1.964  10.431   3.586  0.9213  2.0658  0.5418
   63MOL0     H 8694   1.851  10.520   3.702 -0.7125 -1.0764  1.6315
   64MOL0     O 8695   6.148   8.728   7.701 -0.1572 -0.1917 -0.1664
   64MOL0     C 8696   6.165   8.632   7.781 -0.3293 -0.5956  0.0020
   64MOL0     O 8697   6.276   8.618   7.865  0.3402  0.0111 -0.2595
   64MOL0     C 8698   6.355   8.727   7.891 -0.3983  0.5860 -0.1307
   64MOL0     C 8699   6.461   8.764   7.802  0.2487 -0.8783  0.4332
   64MOL0     C 8700   6.563   8.842   7.847 -0.0023  0.1045  0.8687
   64MOL0     C 8701   6.554   8.903   7.975 -0.4566  0.4090  0.3936
   64MOL0     O 8702   6.652   8.997   8.009  0.4475 -0.2716  0.2913
   64MOL0     C 8703   6.640   9.053   8.138 -0.9011 -0.1480 -0.3897
   64MOL0     C 8704   6.769   9.140   8.174 -0.5483 -0.4915  0.5525
   64MOL0     C 8705   6.890   9.048   8.212  0.7196  0.0791  0.4998
   64MOL0     C 8706   7.029   9.120   8.216 -0.0511  0.6677 -0.3421
   64MOL0     C 8707   7.136   9.029   8.276 -0.5888 -0.2143 -0.1593
   64MOL0     C 8708   7.258   9.107   8.289 -0.4077 -0.1687  0.1528
   64MOL0     C 8709   7.370   9.022   8.353 -0.1340  0.6709  0.6703
   64MOL0     C 8710   7.439   8.918   8.261 -0.0478 -0.7274 -0.2820
   64MOL0     N 8711   7.555   8.848   8.338 -0.1852 -0.8468 -0.3608
   64MOL0     C 8712   7.545   8.769   8.456 -0.2159 -0.4719 -0.7019
   64MOL0     C 8713   7.666   8.718   8.477 -0.0034  0.1345 -0.1083
   64MOL0     C 8714   7.698   8.606   8.577 -0.6039 -0.0849  0.2113
   64MOL0     C 8715   7.689   8.656   8.714  0.5277 -0.9075 -0.6492
   64MOL0     C 8716   7.787   8.768   8.753 -0.0272  0.0908 -0.0128
   64MOL0     C 8717   7.936   8.736   8.776 -0.8469  0.3077 -0.2737
   64MOL0     O 8718   7.947   8.650   8.895 -0.0770 -0.7745  0.0115
   64MOL0     C 8719   8.046   8.558   8.894  0.1722 -1.1944 -1.0817
   64MOL0     C 8720   8.156   8.573   8.982  0.1330  0.6651 -0.2137
   64MOL0     C 8721   8.257   8.481   9.002  0.0334 -0.2181  0.8092
   64MOL0     C 8722   8.370   8.507   9.100 -0.1457  0.0379 -0.1913
   64MOL0     C 8723   8.262   8.362   8.919  0.0233  0.2378 -0.4543
   64MOL0     C 8724   8.383   8.268   8.905  0.8151 -0.6727  0.2716
   64MOL0     O 8725   8.375   8.191   8.795 -0.6827 -0.1202 -0.2972
   64MOL0     C 8726   8.488   8.119   8.746 -0.2917  0.3833 -0.5871
   64MOL0     C 8727   8.476   8.081   8.615 -0.7231 -0.6502  0.4949
   64MOL0     C 8728   8.579   8.009   8.548 -0.8966 -0.7697 -0.0803
   64MOL0     C 8729   8.686   7.955   8.619  0.3703 -0.2136 -0.0906
   64MOL0     O 8730   8.772   7.869   8.552  0.5194 -0.3143 -0.3664
   64MOL0     C 8731   8.892   7.822   8.613  0.9342  0.4173 -0.3040
   64MOL0     C 8732   8.992   7.781   8.499 -0.3547  0.6084  0.4108
   64MOL0     C 8733   9.093   7.689   8.557  0.1154 -0.2407 -0.0634
   64MOL0     C 8734   9.205   7.677   8.458 -0.4067  0.0350  0.3771
   64MOL0     C 8735   9.308   7.566   8.479  0.4912  0.0016 -0.2391
   64MOL0     C 8736   9.350   7.557   8.619 -0.4466 -0.7474 -1.2969
   64MOL0     C 8737   9.451   7.439   8.644 -0.1529  0.2469  0.0617
   64MOL0     C 8738   9.566   7.439   8.548  0.2282  0.0472  0.2808
   64MOL0    Cl 8739   9.641   7.607   8.541  0.4356  0.0903 -0.2738
   64MOL0     C 8740   8.698   7.995   8.748 -0.5785  0.4704 -0.6243
   64MOL0     C 8741   8.599   8.072   8.816  0.3692  0.4724 -0.0598
   64MOL0     O 8742   8.468   8.253   8.990 -0.0917  0.0176  0.2018
   64MOL0     C 8743   8.160   8.352   8.820 -0.2717 -0.8748  0.3475
   64MOL0     C 8744   8.056   8.452   8.798  0.0681  0.5968  0.3556
   64MOL0     N 8745   7.750   8.772   8.385 -0.0270 -0.2336 -0.5885
   64MOL0     N 8746   7.689   8.850   8.303  0.2757  0.5554  0.2125
   64MOL0     C 8747   6.433   8.888   8.052  0.1402 -0.0987  0.7800
   64MOL0     C 8748   6.337   8.794   8.013 -0.1077 -0.2254  0.1115
   64MOL0     C 8749   6.062   8.524   7.800 -0.8885  0.4304  0.2714
   64MOL0     C 8750   6.059   8.466   7.928 -0.4405  0.2094 -0.7313
   64MOL0     C 8751   5.982   8.359   7.953  0.1414 -0.2961 -0.4794
   64MOL0     C 8752   5.891   8.310   7.856 -0.3857 -0.9855 -0.0430
   64MOL0     O 8753   5.816   8.203   7.906  0.1017 -0.5357 -0.0604
   64MOL0     C 8754   5.768   8.107   7.808 -0.2490 -0.2548 -0.2696
   64MOL0     C 8755   5.616   8.082   7.822  1.0330  0.1885 -0.4662
   64MOL0     C 8756   5.576   8.037   7.965 -0.9605 -0.1690  0.3569
   64MOL0     C 8757   5.427   7.994   7.966 -0.0610 -0.1018  0.5701
   64MOL0     C 8758   5.408   7.890   8.065 -0.3924 -0.3313  0.4083
   64MOL0     C 8759   5.399   7.821   8.163  0.0432 -0.5718 -0.3759
   64MOL0     C 8760   5.885   8.381   7.731 -0.1640  1.0030 -0.6255
   64MOL0     C 8761   5.977   8.486   7.697  0.3320 -0.1120  0.3169
   64MOL0     C 8762   5.974   8.539   7.559 -0.3606 -0.9327 -1.3521
   64MOL0     H 8763   6.471   8.724   7.702  0.4103 -0.6191  0.3447
   64MOL0     H 8764   6.656   8.856   7.795 -0.8206 -1.4480 -1.1366
   64MOL0     H 8765   6.632   8.975   8.214 -0.7418 -0.7655 -0.9965
   64MOL0     H 8766   6.551   9.115   8.142 -0.3044  0.6703  1.8393
   64MOL0     H 8767   6.804   9.201   8.090 -1.7146 -0.2407  0.2269
   64MOL0     H 8768   6.739   9.212   8.250 -0.3709 -0.1140  0.2682
   64MOL0     H 8769   6.861   9.017   8.313  0.1493  0.8169  0.5713
   64MOL0     H 8770   6.878   8.961   8.146 -1.4597 -1.4205  2.6770
   64MOL0     H 8771   7.065   9.148   8.117  0.2687  2.1307  0.1594
   64MOL0     H 8772   7.011   9.212   8.273 -0.1200  0.9409 -0.7986
   64MOL0     H 8773   7.158   8.954   8.198 -1.7555 -0.2226 -0.5066
   64MOL0     H 8774   7.118   8.975   8.369  0.2189  1.7177  1.1725
   64MOL0     H 8775   7.288   9.155   8.195 -0.4313  0.4897  0.4782
   64MOL0     H 8776   7.236   9.186   8.362 -0.5774 -0.4821  0.4417
   64MOL0     H 8777   7.325   8.967   8.437 -0.2490 -0.6209 -0.2052
   64MOL0     H 8778   7.448   9.087   8.394  1.2486 -2.0820  2.7121
   64MOL0     H 8779   7.368   8.843   8.226 -1.6919  1.4105 -1.8078
   64MOL0     H 8780   7.489   8.970   8.179  0.3188  0.7252  0.8141
   64MOL0     H 8781   7.455   8.768   8.516 -1.7577  3.8216 -2.5079
   64MOL0     H 8782   7.798   8.570   8.550  0.5133  2.6927  0.2317
   64MOL0     H 8783   7.621   8.532   8.555 -0.9655 -0.4212  2.3985
   64MOL0     H 8784   7.585   8.689   8.728  0.6911 -1.4651  2.6635
   64MOL0     H 8785   7.706   8.573   8.783 -0.0513 -1.7075 -1.4631
   64MOL0     H 8786   7.781   8.845   8.675  1.1043 -0.6079 -0.8234
   64MOL0     H 8787   7.748   8.799   8.850 -0.1419  1.5489 -0.4939
   64MOL0     H 8788   7.988   8.683   8.696 -1.9604 -1.1451 -0.0700
   64MOL0     H 8789   7.990   8.828   8.798  1.8031 -1.2238  0.1763
   64MOL0     H 8790   8.159   8.666   9.038  1.6333  0.0069  0.8628
   64MOL0     H 8791   8.468   8.505   9.051  1.3265  1.5985  2.4867
   64MOL0     H 8792   8.375   8.422   9.167 -0.7241 -2.3696 -2.9764
   64MOL0     H 8793   8.361   8.603   9.153  0.5573  0.5324 -0.9358
   64MOL0     H 8794   8.385   8.109   8.563 -1.2181 -3.3802 -0.2976
   64MOL0     H 8795   8.566   7.980   8.444  1.4550  2.1927 -1.3391
   64MOL0     H 8796   8.940   7.890   8.684  1.1063 -3.0354  3.2059
   64MOL0     H 8797   8.866   7.730   8.666 -3.9535  1.6619  0.0107
   64MOL0     H 8798   8.940   7.725   8.421 -1.9171  2.3737  0.1154
   64MOL0     H 8799   9.039   7.868   8.453 -2.8765  3.2308  2.4039
   64MOL0     H 8800   9.039   7.594   8.561 -2.2419  1.0471  0.2046
   64MOL0     H 8801   9.131   7.709   8.658 -1.0669 -1.7360  0.7198
   64MOL0     H 8802   9.254   7.774   8.460 -1.5664  0.6269  1.5306
   64MOL0     H 8803   9.163   7.660   8.358 -1.4033 -0.2001  0.8204
   64MOL0     H 8804   9.262   7.468   8.463  0.9833 -0.3707  0.5675
   64MOL0     H 8805   9.387   7.568   8.403  0.1582 -1.1581 -0.6367
   64MOL0     H 8806   9.264   7.531   8.680  0.7280 -3.3318 -0.6054
   64MOL0     H 8807   9.394   7.650   8.658 -1.6668 -0.9212  0.5761
   64MOL0     H 8808   9.405   7.341   8.630  0.9511 -0.7799  2.9811
   64MOL0     H 8809   9.485   7.447   8.747  4.8068  1.0795 -1.3710
   64MOL0     H 8810   9.539   7.394   8.452 -3.5498 -0.8464  1.6025
   64MOL0     H 8811   9.644   7.372   8.587 -1.2738 -1.2593  1.1400
   64MOL0     H 8812   8.786   7.965   8.804 -0.7974  0.7701 -0.1101
   64MOL0     H 8813   8.613   8.091   8.922  0.6249  1.7615 -0.3126
   64MOL0     H 8814   8.174   8.278   8.742 -1.6658 -0.1764 -0.6163
   64MOL0     H 8815   7.989   8.457   8.712  0.9513 -0.6983 -0.4424
   64MOL0     H 8816   6.418   8.932   8.150 -0.1771 -0.6486  0.9886
   64MOL0     H 8817   6.260   8.767   8.084  1.7783 -0.9611  2.0027
   64MOL0     H 8818   6.126   8.509   8.002  1.4267 -2.6764 -0.5538
   64MOL0     H 8819   5.997   8.319   8.052  0.4794  0.0178 -0.4012
   64MOL0     H 8820   5.790   8.140   7.706 -1.9480 -0.0727 -0.6032
   64MOL0     H 8821   5.817   8.011   7.822  2.3762  0.3795 -3.7036
   64MOL0     H 8822   5.580   8.001   7.757 -4.0843  1.5022  0.2841
   64MOL0     H 8823   5.568   8.176   7.796  1.0202  1.0536  2.3615
   64MOL0     H 8824   5.650   7.958   7.985 -2.8778 -2.1468 -0.0154
   64MOL0     H 8825   5.607   8.121   8.028  0.9587 -1.1106  0.7431
   64MOL0     H 8826   5.390   7.965   7.868  1.7658 -0.1900 -0.1362
   64MOL0     H 8827   5.373   8.086   7.990 -0.2516 -0.5715  2.0703
   64MOL0     H 8828   5.391   7.766   8.254 -2.5545  0.7485  0.2957
   64MOL0     H 8829   5.819   8.348   7.652 -0.7687  0.3303  0.1372
   64MOL0     H 8830   6.074   8.543   7.515  0.3474  3.3550  0.1111
   64MOL0     H 8831   5.908   8.482   7.493 -2.1205 -0.4119 -0.1184
   64MOL0     H 8832   5.938   8.643   7.563  1.3393 -0.3049 -1.4746
   65MOL0     O 8833   7.238   3.310   5.795  0.2771 -0.2543 -0.0729
   65MOL0     C 8834   7.153   3.375   5.867 -0.4230  0.0779  0.4323
   65MOL0     O 8835   7.181   3.461   5.962  0.5813  0.4335  0.5854
   65MOL0     C 8836   7.307   3.454   6.017  0.4874 -1.0487 -0.8920
   65MOL0     C 8837   7.321   3.375   6.129 -0.1853  0.2679  0.1765
   65MOL0     C 8838   7.438   3.373   6.198  0.6296 -0.6191 -0.8926
   65MOL0     C 8839   7.547   3.463   6.167  0.1149 -0.5598  0.2087
   65MOL0     O 8840   7.655   3.443   6.250 -0.2354  0.5905  0.7201
   65MOL0     C 8841   7.768   3.525   6.237  0.4241 -0.3025  0.3116
   65MOL0     C 8842   7.884   3.472   6.321 -1.5021 -0.4856  0.1569
   65MOL0     C 8843   7.854   3.432   6.465  0.5679 -0.4542  0.3651
   65MOL0     C 8844   7.965   3.359   6.530  0.5858  1.3954 -0.2921
   65MOL0     C 8845   8.076   3.453   6.582  0.1514  0.0390  0.1131
   65MOL0     C 8846   8.192   3.379   6.645  0.1060  0.7020  1.3357
   65MOL0     C 8847   8.293   3.469   6.713  0.0922  0.0295  0.1664
   65MOL0     C 8848   8.387   3.373   6.779 -0.9766 -0.5956 -0.3063
   65MOL0     N 8849   8.500   3.443   6.838 -0.6565 -0.6713 -0.4774
   65MOL0     C 8850   8.482   3.509   6.958  1.0456  0.3808 -0.1907
   65MOL0     C 8851   8.604   3.525   7.009  0.0733  0.1279 -0.2504
   65MOL0     C 8852   8.632   3.606   7.140  0.0936 -0.7583  0.1325
   65MOL0     C 8853   8.766   3.584   7.201 -0.2322  0.7658 -0.4096
   65MOL0     C 8854   8.809   3.660   7.322 -0.8736 -0.4659 -0.0727
   65MOL0     C 8855   8.950   3.626   7.359  0.2134  0.0976 -0.6512
   65MOL0     O 8856   8.963   3.709   7.474  0.1929 -0.7060 -0.1739
   65MOL0     C 8857   9.094   3.745   7.505  0.6485  1.2435 -0.1540
   65MOL0     C 8858   9.138   3.873   7.496 -0.2673  0.3391 -0.7055
   65MOL0     C 8859   9.274   3.907   7.519 -0.5497  0.1065  0.3122
   65MOL0     C 8860   9.290   4.051   7.498  0.1546 -0.3031 -0.5444
   65MOL0     C 8861   9.370   3.806   7.545 -0.3482  0.4321 -1.3778
   65MOL0     C 8862   9.503   3.839   7.568 -0.7958 -0.0879 -0.7620
   65MOL0     O 8863   9.571   3.760   7.645  0.2768  0.3595  0.4285
   65MOL0     C 8864   9.697   3.792   7.689  0.6537 -0.5627 -0.2408
   65MOL0     C 8865   9.796   3.694   7.680 -0.4206 -0.0088 -0.7652
   65MOL0     C 8866   9.927   3.722   7.731  0.0801 -0.3221 -0.0986
   65MOL0     C 8867   9.959   3.843   7.788  0.4661  0.6390  0.7862
   65MOL0     O 8868  10.083   3.859   7.811  0.6277  0.0520  0.1701
   65MOL0     C 8869  10.131   3.980   7.882  0.4980 -1.2257 -0.5521
   65MOL0     C 8870  10.286   3.992   7.887  0.2932  0.0968  0.3185
   65MOL0     C 8871  10.352   3.872   7.951 -0.5793  0.8569  0.2666
   65MOL0     C 8872  10.505   3.873   7.975 -0.3334 -0.3320 -0.3674
   65MOL0     C 8873  10.583   3.935   7.862 -0.3872  0.6629 -0.7273
   65MOL0     C 8874  10.733   3.929   7.889  0.3626  0.2318  0.1633
   65MOL0     C 8875  10.803   4.010   7.785 -0.4164 -0.7088  0.7460
   65MOL0     C 8876  10.954   4.000   7.807  0.8082 -0.6499 -0.3567
   65MOL0    Cl 8877  11.044   4.076   7.676  0.1164  0.0974 -0.1050
   65MOL0     C 8878   9.853   3.938   7.803 -0.0473 -0.1016  0.0434
   65MOL0     C 8879   9.724   3.916   7.750 -0.4506  1.2434  0.8233
   65MOL0     O 8880   9.558   3.930   7.502 -0.2979 -0.1055 -0.1735
   65MOL0     C 8881   9.318   3.675   7.563 -0.4790  0.8501  0.8590
   65MOL0     C 8882   9.185   3.653   7.533 -0.6764 -0.3088 -0.6985
   65MOL0     N 8883   8.691   3.475   6.911 -0.5516  0.3667 -0.1745
   65MOL0     N 8884   8.632   3.424   6.810  0.0653 -0.1490 -0.9288
   65MOL0     C 8885   7.537   3.546   6.050  0.4947  0.8766 -0.5128
   65MOL0     C 8886   7.415   3.544   5.980 -0.7501  0.5777  0.4863
   65MOL0     C 8887   7.012   3.369   5.820  0.2000 -0.2833 -0.5256
   65MOL0     C 8888   6.994   3.342   5.681 -0.0200 -0.1895  0.1337
   65MOL0     C 8889   6.872   3.334   5.625  0.4435 -1.4518 -0.2430
   65MOL0     C 8890   6.757   3.340   5.701 -0.5256  0.4534  1.0352
   65MOL0     O 8891   6.638   3.324   5.628 -0.1343 -0.4931 -0.7436
   65MOL0     C 8892   6.541   3.423   5.662 -0.0054  0.0241  0.4838
   65MOL0     C 8893   6.441   3.437   5.547  0.0606  0.2786 -0.8146
   65MOL0     C 8894   6.492   3.525   5.432  0.0221  1.1794  0.3422
   65MOL0     C 8895   6.389   3.515   5.315  0.1251 -0.7491  0.4088
   65MOL0     C 8896   6.432   3.602   5.206  0.8050 -0.8116  0.3001
   65MOL0     C 8897   6.470   3.679   5.117  0.2059  0.3623  0.2603
   65MOL0     C 8898   6.773   3.362   5.846 -0.2421  0.7058 -0.3932
   65MOL0     C 8899   6.901   3.386   5.900 -0.7613  0.0487  0.0861
   65MOL0     C 8900   6.904   3.410   6.049 -1.0333  0.2664  0.1718
   65MOL0     H 8901   7.241   3.312   6.166  0.2709  0.2283  1.1269
   65MOL0     H 8902   7.442   3.328   6.297  1.3642  1.8916  0.2956
   65MOL0     H 8903   7.742   3.625   6.274 -3.8707 -1.8413  2.0141
   65MOL0     H 8904   7.793   3.533   6.130  1.4338 -0.0481  0.5573
   65MOL0     H 8905   7.925   3.383   6.271 -0.0486 -0.3106  0.9844
   65MOL0     H 8906   7.959   3.552   6.321 -0.0362 -1.8046  0.3065
   65MOL0     H 8907   7.836   3.520   6.527 -2.1901 -2.2058  2.2940
   65MOL0     H 8908   7.765   3.368   6.462  0.4937 -0.3973 -2.8921
   65MOL0     H 8909   7.925   3.298   6.613 -2.4907 -0.0601 -2.6357
   65MOL0     H 8910   8.014   3.289   6.461  1.1453  0.9936  0.4871
   65MOL0     H 8911   8.030   3.514   6.661 -1.5440 -0.3216 -0.5439
   65MOL0     H 8912   8.105   3.526   6.506 -3.2829  0.4169 -1.0176
   65MOL0     H 8913   8.160   3.300   6.714  0.5665  0.8285  1.7017
   65MOL0     H 8914   8.236   3.322   6.563  1.4463 -2.3719  3.9455
   65MOL0     H 8915   8.232   3.518   6.789  0.3312  0.9031 -0.1864
   65MOL0     H 8916   8.337   3.534   6.636  1.5100 -1.4405 -0.3313
   65MOL0     H 8917   8.337   3.305   6.849  1.3844 -2.5328 -0.3351
   65MOL0     H 8918   8.434   3.311   6.703 -2.6916  0.9400 -2.7400
   65MOL0     H 8919   8.384   3.535   6.997  0.2626  1.2171 -2.5206
   65MOL0     H 8920   8.544   3.611   7.205 -1.3977 -0.5557 -1.7997
   65MOL0     H 8921   8.632   3.710   7.106 -1.4774 -0.5946  0.5741
   65MOL0     H 8922   8.771   3.475   7.213 -1.0573  0.6921 -0.6923
   65MOL0     H 8923   8.843   3.606   7.126 -0.1975  1.1391 -0.2670
   65MOL0     H 8924   8.798   3.768   7.310 -0.9153 -0.5887 -1.2781
   65MOL0     H 8925   8.744   3.633   7.406 -3.1150  2.1878 -0.7962
   65MOL0     H 8926   8.943   3.519   7.378  3.2150  0.2385  2.2071
   65MOL0     H 8927   9.022   3.649   7.280 -2.1704 -2.7291 -3.9453
   65MOL0     H 8928   9.055   3.940   7.476 -0.8154 -0.5541 -1.4941
   65MOL0     H 8929   9.195   4.103   7.514 -0.1646 -1.7241  3.0446
   65MOL0     H 8930   9.329   4.058   7.396  2.7750 -0.2599  0.4037
   65MOL0     H 8931   9.365   4.083   7.570  1.6377 -1.1403 -1.6596
   65MOL0     H 8932   9.777   3.603   7.626  2.0129 -0.3700 -1.1596
   65MOL0     H 8933  10.007   3.650   7.719 -1.3048 -1.8766 -0.4977
   65MOL0     H 8934  10.088   4.065   7.829 -1.2650 -1.2242  0.7821
   65MOL0     H 8935  10.096   3.992   7.985  1.3941  0.8417 -0.4503
   65MOL0     H 8936  10.335   4.008   7.791 -0.8228  2.4657  0.0583
   65MOL0     H 8937  10.313   4.079   7.948 -2.7529  0.1788  1.7277
   65MOL0     H 8938  10.337   3.784   7.888 -1.4676  0.2814  1.2502
   65MOL0     H 8939  10.302   3.844   8.044  1.8184 -1.3848  1.0362
   65MOL0     H 8940  10.542   3.773   7.999  0.5934 -0.4544 -2.0922
   65MOL0     H 8941  10.526   3.932   8.064  0.9934 -1.3967  0.0622
   65MOL0     H 8942  10.561   3.890   7.764 -1.6871 -1.4942  0.4756
   65MOL0     H 8943  10.545   4.038   7.857  0.1397  0.8651 -0.6213
   65MOL0     H 8944  10.777   3.830   7.902 -2.7472 -1.3446 -0.4211
   65MOL0     H 8945  10.737   3.971   7.990 -0.5673 -0.2822  0.4275
   65MOL0     H 8946  10.772   4.115   7.792 -0.6688 -0.6829 -0.4281
   65MOL0     H 8947  10.784   3.982   7.681  3.1063  1.3211 -0.6187
   65MOL0     H 8948  10.984   3.896   7.796  0.5378 -0.9996  1.7780
   65MOL0     H 8949  10.979   4.042   7.905 -1.1882  0.7258 -0.3677
   65MOL0     H 8950   9.876   4.033   7.849 -2.6239 -0.8886  3.3359
   65MOL0     H 8951   9.643   3.985   7.769 -1.4939 -0.3537  2.5212
   65MOL0     H 8952   9.395   3.607   7.598  0.6435  0.5487 -1.9393
   65MOL0     H 8953   9.156   3.548   7.537 -2.5621  0.0495 -2.7610
   65MOL0     H 8954   7.621   3.606   6.016  1.9588 -0.2769  0.9255
   65MOL0     H 8955   7.396   3.609   5.896 -0.6553 -1.0658 -0.8555
   65MOL0     H 8956   7.079   3.328   5.615  0.9491 -0.3464  1.3717
   65MOL0     H 8957   6.861   3.323   5.518  1.2961  0.4123 -0.5638
   65MOL0     H 8958   6.492   3.397   5.756 -0.5806 -1.1805 -0.1336
   65MOL0     H 8959   6.596   3.518   5.668 -0.2061  0.4259 -2.6410
   65MOL0     H 8960   6.347   3.477   5.588  0.3742 -0.1128  0.3050
   65MOL0     H 8961   6.423   3.337   5.506  2.8035 -0.8903  0.5993
   65MOL0     H 8962   6.483   3.630   5.461  0.6165  1.6284 -1.0251
   65MOL0     H 8963   6.594   3.498   5.403  0.4013  1.5609  1.2689
   65MOL0     H 8964   6.287   3.542   5.343  0.9060 -0.8342  3.7509
   65MOL0     H 8965   6.380   3.413   5.275 -1.3765 -0.7167  0.6086
   65MOL0     H 8966   6.507   3.729   5.030 -1.4971 -0.5936 -1.0627
   65MOL0     H 8967   6.687   3.362   5.912 -0.2534  1.4944 -0.4000
   65MOL0     H 8968   6.986   3.477   6.073 -1.9779  1.0244  1.3920
   65MOL0     H 8969   6.811   3.445   6.095 -0.8271 -0.0684  0.8395
   65MOL0     H 8970   6.929   3.310   6.087 -0.9445 -0.6045 -1.9768
   66MOL0     O 8971  10.436  10.287   4.245 -0.5833 -0.2973  0.1448
   66MOL0     C 8972  10.462  10.381   4.312 -0.3458 -0.2101  0.5380
   66MOL0     O 8973  10.593  10.444   4.313 -0.0277  0.5191  0.5180
   66MOL0     C 8974  10.704  10.386   4.249 -0.4363 -0.0438  0.1274
   66MOL0     C 8975  10.729  10.247   4.264 -0.7069 -0.6900  0.7605
   66MOL0     C 8976  10.848  10.195   4.205 -0.1943 -0.2705  0.2510
   66MOL0     C 8977  10.933  10.270   4.123  0.7857  0.5664  0.3516
   66MOL0     O 8978  11.040  10.224   4.054  0.3605  0.6746 -0.2824
   66MOL0     C 8979  11.124  10.122   4.121 -0.0354  0.2928 -0.0767
   66MOL0     C 8980  11.254  10.107   4.045 -0.0736 -0.5528 -0.7060
   66MOL0     C 8981  11.375  10.043   4.125 -0.1008 -0.1473  0.1001
   66MOL0     C 8982  11.505  10.039   4.041  0.3018 -0.3990  1.1128
   66MOL0     C 8983  11.622   9.988   4.122 -0.4821 -0.5927 -0.7301
   66MOL0     C 8984  11.619   9.836   4.149 -0.5163  0.1721 -0.1835
   66MOL0     C 8985  11.739   9.789   4.236  0.3150  0.4017 -0.2645
   66MOL0     C 8986  11.725   9.641   4.282  0.1223  0.8108  0.3212
   66MOL0     N 8987  11.843   9.583   4.352  0.6548 -0.5751  0.5663
   66MOL0     C 8988  11.953   9.529   4.292 -0.3417  1.0233  0.1085
   66MOL0     C 8989  12.012   9.463   4.394  0.2513 -0.1435 -0.0096
   66MOL0     C 8990  12.127   9.371   4.372 -0.3741  0.7816  0.0745
   66MOL0     C 8991  12.252   9.391   4.454 -0.4334  0.3692  0.0831
   66MOL0     C 8992  12.301   9.540   4.452 -0.5971  0.5022  0.2152
   66MOL0     C 8993  12.440   9.559   4.519  0.1465  0.3111 -0.0619
   66MOL0     O 8994  12.539   9.484   4.450 -0.8361  0.0978 -0.4854
   66MOL0     C 8995  12.666   9.483   4.511 -0.2966  0.2687 -0.2507
   66MOL0     C 8996  12.774   9.432   4.434  0.5575 -0.2389 -1.1251
   66MOL0     C 8997  12.900   9.421   4.494 -0.0721 -0.4570  0.1791
   66MOL0     C 8998  13.004   9.370   4.408  0.1718  0.0865  0.5717
   66MOL0     C 8999  12.926   9.470   4.620  0.5009 -0.0606 -0.8002
   66MOL0     C 9000  13.060   9.473   4.684 -0.2971 -1.0204 -0.5616
   66MOL0     O 9001  13.079   9.446   4.813 -0.0227 -0.1645  0.0875
   66MOL0     C 9002  13.208   9.411   4.844 -0.4655 -0.4097 -0.5536
   66MOL0     C 9003  13.244   9.281   4.819  0.9002  0.1481  0.3631
   66MOL0     C 9004  13.382   9.239   4.827  0.4594 -0.5911 -0.4756
   66MOL0     C 9005  13.478   9.332   4.873  0.3502  0.1514  0.3192
   66MOL0     O 9006  13.615   9.299   4.863  0.6176  0.9200 -0.4311
   66MOL0     C 9007  13.715   9.377   4.930 -0.1497  0.0513  0.5381
   66MOL0     C 9008  13.715   9.356   5.080  1.0550 -0.1724 -0.4149
   66MOL0     C 9009  13.727   9.207   5.128 -0.1704 -1.3679  0.1911
   66MOL0     C 9010  13.846   9.134   5.074  0.5334 -0.5002  0.7073
   66MOL0     C 9011  13.978   9.204   5.100 -0.2788  0.6726 -0.2711
   66MOL0     C 9012  14.012   9.247   5.239 -0.2078  0.0786 -0.2112
   66MOL0     C 9013  14.161   9.272   5.257  0.4206 -0.1762 -0.8171
   66MOL0     C 9014  14.252   9.144   5.260  0.4869 -0.3607 -0.2135
   66MOL0    Cl 9015  14.418   9.193   5.240 -0.2083 -0.1149  0.2674
   66MOL0     C 9016  13.444   9.463   4.893  0.1810 -0.0807 -1.2728
   66MOL0     C 9017  13.307   9.504   4.878 -0.1783 -0.2760  0.0881
   66MOL0     O 9018  13.150   9.506   4.607 -0.2745  0.1729 -1.1655
   66MOL0     C 9019  12.821   9.525   4.702  0.2597  0.1634 -0.4199
   66MOL0     C 9020  12.693   9.540   4.638 -0.1745  0.2690 -0.2806
   66MOL0     N 9021  11.948   9.496   4.508  0.1550 -0.4585 -0.7599
   66MOL0     N 9022  11.845   9.566   4.481 -0.3162 -0.5147  0.5816
   66MOL0     C 9023  10.905  10.407   4.110  0.3446  0.1586 -0.3382
   66MOL0     C 9024  10.794  10.468   4.173  0.8884 -0.1067  0.2269
   66MOL0     C 9025  10.355  10.416   4.403 -0.1978  0.7485 -0.6334
   66MOL0     C 9026  10.299  10.320   4.489  0.9568 -0.1905 -0.7614
   66MOL0     C 9027  10.215  10.355   4.592  0.1479  0.3836  0.5291
   66MOL0     C 9028  10.195  10.488   4.622 -0.2137 -0.1552  0.5412
   66MOL0     O 9029  10.110  10.496   4.730 -0.1473  0.1207 -0.0095
   66MOL0     C 9030  10.039  10.617   4.748  0.1694 -0.4688  0.4335
   66MOL0     C 9031  10.128  10.701   4.839 -0.1796 -0.9037 -0.8161
   66MOL0     C 9032  10.065  10.838   4.863  0.2696 -0.0153 -0.3452
   66MOL0     C 9033  10.129  10.911   4.983  0.6425 -0.3334  0.2096
   66MOL0     C 9034  10.268  10.944   4.956 -0.2335  0.7908  0.2433
   66MOL0     C 9035  10.390  10.968   4.949  0.2629 -0.2444  0.4991
   66MOL0     C 9036  10.249  10.589   4.542  0.0735  0.9000 -0.6655
   66MOL0     C 9037  10.326  10.558   4.426  0.2175 -0.4446  0.2904
   66MOL0     C 9038  10.354  10.666   4.326  0.2900 -0.4782  0.0439
   66MOL0     H 9039  10.658  10.183   4.316 -2.4418  0.0095 -0.6129
   66MOL0     H 9040  10.890  10.097   4.224  0.6394 -0.0685 -0.4614
   66MOL0     H 9041  11.069  10.027   4.115  2.6923 -1.2887 -2.5594
   66MOL0     H 9042  11.144  10.154   4.223  1.0663 -0.6738  0.0225
   66MOL0     H 9043  11.228  10.055   3.952 -1.3328 -1.6023  0.1966
   66MOL0     H 9044  11.283  10.208   4.015  1.6007 -1.2287 -1.4571
   66MOL0     H 9045  11.390  10.102   4.216  1.0846  0.6754 -0.6026
   66MOL0     H 9046  11.351   9.939   4.148  3.5137 -1.0773  0.1471
   66MOL0     H 9047  11.500   9.973   3.954  2.0839  1.8165 -0.8009
   66MOL0     H 9048  11.529  10.140   4.005  0.6888 -0.4544  1.2120
   66MOL0     H 9049  11.613  10.034   4.220 -2.2570 -1.5657 -0.3842
   66MOL0     H 9050  11.718  10.013   4.076 -1.0778 -0.3023 -1.8334
   66MOL0     H 9051  11.528   9.821   4.208 -1.2285  3.7701 -0.0926
   66MOL0     H 9052  11.615   9.790   4.050 -4.5505  0.6861 -0.4189
   66MOL0     H 9053  11.730   9.846   4.329 -2.7256  0.9999 -0.8426
   66MOL0     H 9054  11.836   9.813   4.191  0.9670  3.1031  2.2500
   66MOL0     H 9055  11.638   9.649   4.349 -1.8086  0.0517 -1.9593
   66MOL0     H 9056  11.694   9.566   4.209  0.4773 -0.5651  1.5303
   66MOL0     H 9057  11.975   9.524   4.185  1.6640 -3.1925  0.5107
   66MOL0     H 9058  12.155   9.371   4.266  0.9813 -2.5341  0.3196
   66MOL0     H 9059  12.095   9.272   4.405  1.2007 -0.0153 -0.6738
   66MOL0     H 9060  12.227   9.355   4.554 -2.1265  2.9904  0.6872
   66MOL0     H 9061  12.328   9.322   4.413 -1.9391 -1.2950 -0.0371
   66MOL0     H 9062  12.308   9.553   4.344  0.2670 -1.8859 -0.0769
   66MOL0     H 9063  12.229   9.610   4.497  0.9535  1.7107  0.9355
   66MOL0     H 9064  12.464   9.665   4.512 -1.1648  0.5342 -1.8221
   66MOL0     H 9065  12.433   9.523   4.622 -0.1069  0.8767  0.1231
   66MOL0     H 9066  12.739   9.383   4.344 -1.2112 -0.4158 -0.3926
   66MOL0     H 9067  13.057   9.286   4.453 -0.6001 -0.5092  0.3886
   66MOL0     H 9068  13.081   9.446   4.390  1.8345 -0.9807  2.7050
   66MOL0     H 9069  12.961   9.342   4.312 -1.3667  2.2742  0.5285
   66MOL0     H 9070  13.166   9.217   4.778 -0.2451  1.8257 -0.1730
   66MOL0     H 9071  13.414   9.140   4.796  3.5088  0.4374 -0.8915
   66MOL0     H 9072  13.810   9.344   4.888 -1.1497 -0.5654 -1.3820
   66MOL0     H 9073  13.721   9.485   4.917  1.4551 -0.3261 -3.0040
   66MOL0     H 9074  13.804   9.407   5.118  0.2081  0.1113  1.2697
   66MOL0     H 9075  13.625   9.406   5.118 -0.4902 -2.8643 -0.2639
   66MOL0     H 9076  13.633   9.157   5.102 -2.5442  2.0738  1.3645
   66MOL0     H 9077  13.742   9.201   5.236 -2.0909  0.4967  0.6384
   66MOL0     H 9078  13.824   9.117   4.968 -2.8550 -1.7865  1.4900
   66MOL0     H 9079  13.853   9.031   5.110 -0.2560 -0.2035  1.7363
   66MOL0     H 9080  14.054   9.134   5.064 -2.4438 -2.7444  1.2476
   66MOL0     H 9081  13.980   9.297   5.042 -0.7786 -0.2826 -1.8840
   66MOL0     H 9082  13.979   9.180   5.319 -0.6767  1.6046  0.9452
   66MOL0     H 9083  13.958   9.341   5.255  2.6056  2.0204 -1.3569
   66MOL0     H 9084  14.167   9.323   5.354  0.6297  2.8202 -2.2844
   66MOL0     H 9085  14.183   9.343   5.177 -1.9111  2.0945  0.4228
   66MOL0     H 9086  14.246   9.082   5.170  5.4660  1.3400 -2.0640
   66MOL0     H 9087  14.232   9.085   5.350  0.2294  0.5375  0.3263
   66MOL0     H 9088  13.521   9.535   4.918 -0.9392  0.0972  2.3751
   66MOL0     H 9089  13.291   9.611   4.886 -1.1346 -0.5234  2.1234
   66MOL0     H 9090  12.834   9.575   4.797  0.1321  1.3983 -1.0356
   66MOL0     H 9091  12.615   9.594   4.691 -1.7011 -2.6158  0.6219
   66MOL0     H 9092  10.964  10.471   4.045  1.7793  0.4144  1.1459
   66MOL0     H 9093  10.764  10.570   4.154 -1.6516 -1.1428 -2.0538
   66MOL0     H 9094  10.327  10.218   4.468 -2.1370 -1.9975  2.5912
   66MOL0     H 9095  10.170  10.281   4.658  0.6798 -0.8674 -0.4730
   66MOL0     H 9096  10.022  10.675   4.657  1.6922  1.3558  1.2404
   66MOL0     H 9097   9.937  10.613   4.788  0.1370  1.2655  0.6016
   66MOL0     H 9098  10.227  10.728   4.801  0.0332 -0.0874  0.2538
   66MOL0     H 9099  10.139  10.654   4.937 -1.1401  1.0115  0.2652
   66MOL0     H 9100  10.073  10.895   4.770  1.7626  2.1322  1.0188
   66MOL0     H 9101   9.961  10.839   4.896  0.6054  3.4097  1.0074
   66MOL0     H 9102  10.133  10.847   5.071  1.8158 -0.4582  0.0822
   66MOL0     H 9103  10.066  10.999   5.000 -1.3672 -1.6919  0.0906
   66MOL0     H 9104  10.493  10.992   4.937  0.1938  1.8761  3.0872
   66MOL0     H 9105  10.214  10.686   4.573  2.4097  1.2356  1.2114
   66MOL0     H 9106  10.447  10.717   4.350  1.4040 -2.6840  0.6873
   66MOL0     H 9107  10.365  10.623   4.226  2.7864 -1.0165  0.4799
   66MOL0     H 9108  10.277  10.744   4.328  0.1706 -0.5557 -1.0653
   67MOL0     O 9109   1.380   5.196   5.788  0.1069 -0.5578 -0.2486
   67MOL0     C 9110   1.317   5.220   5.686  0.2931 -0.8705  1.0888
   67MOL0     O 9111   1.375   5.260   5.567 -0.3207 -0.5930 -0.1310
   67MOL0     C 9112   1.506   5.256   5.536  1.1360 -1.2259 -0.5697
   67MOL0     C 9113   1.551   5.210   5.409 -0.6393  0.7670  0.1607
   67MOL0     C 9114   1.689   5.204   5.383  0.1350 -1.4971  0.5127
   67MOL0     C 9115   1.783   5.232   5.476  0.3252  0.4850 -0.9400
   67MOL0     O 9116   1.908   5.214   5.436 -0.3864 -0.4710  0.4717
   67MOL0     C 9117   2.009   5.258   5.528 -0.5634  0.4352  0.1071
   67MOL0     C 9118   2.137   5.205   5.468  0.4079  0.3225  0.8315
   67MOL0     C 9119   2.202   5.300   5.362 -0.1507  0.0881  0.5963
   67MOL0     C 9120   2.260   5.233   5.232  0.3602 -0.2513 -0.6628
   67MOL0     C 9121   2.272   5.332   5.114  0.5316 -0.5477  0.1588
   67MOL0     C 9122   2.302   5.241   4.994  0.0720  0.1681  1.1428
   67MOL0     C 9123   2.314   5.334   4.867  0.6622  0.1175 -0.1192
   67MOL0     C 9124   2.351   5.258   4.745 -0.3807  0.5293  0.2510
   67MOL0     N 9125   2.396   5.339   4.629 -0.0952  0.3459  0.9385
   67MOL0     C 9126   2.517   5.413   4.606 -0.1372  0.9873 -0.7322
   67MOL0     C 9127   2.488   5.482   4.491 -0.4177  0.8168 -0.3514
   67MOL0     C 9128   2.584   5.570   4.427  0.5331  0.0847 -0.0745
   67MOL0     C 9129   2.551   5.723   4.454  0.3241  0.1702 -0.2110
   67MOL0     C 9130   2.660   5.807   4.390  0.2785  0.0762  0.2235
   67MOL0     C 9131   2.636   5.958   4.406  0.1109 -0.0372 -0.2691
   67MOL0     O 9132   2.755   6.026   4.398 -0.4449  0.4105 -0.8441
   67MOL0     C 9133   2.755   6.159   4.419 -0.1289  0.2003  0.0025
   67MOL0     C 9134   2.643   6.236   4.421  1.2065 -0.2219  0.0707
   67MOL0     C 9135   2.654   6.372   4.455  0.0506  0.0056  0.2122
   67MOL0     C 9136   2.529   6.460   4.460 -0.5010 -0.3545  0.8082
   67MOL0     C 9137   2.779   6.427   4.486 -0.8095 -0.3867 -0.4933
   67MOL0     C 9138   2.809   6.568   4.515 -0.0363 -0.1183  0.0804
   67MOL0     O 9139   2.771   6.663   4.425  0.1519  0.5252  0.6193
   67MOL0     C 9140   2.854   6.775   4.418  0.2531 -0.3138 -0.7783
   67MOL0     C 9141   2.818   6.896   4.487 -0.8192 -0.7360 -0.3329
   67MOL0     C 9142   2.906   7.009   4.504 -0.6081  0.7507 -0.2070
   67MOL0     C 9143   3.034   7.007   4.441 -0.1278  0.2872 -0.4257
   67MOL0     O 9144   3.116   7.112   4.440  0.2583 -0.1655  0.2173
   67MOL0     C 9145   3.129   7.197   4.554  0.2028  0.2267  0.8322
   67MOL0     C 9146   3.280   7.240   4.555  0.8866 -0.7064  0.5738
   67MOL0     C 9147   3.281   7.341   4.669 -0.1255  0.0398  0.2332
   67MOL0     C 9148   3.416   7.409   4.683 -0.0111  0.3117 -0.7319
   67MOL0     C 9149   3.430   7.484   4.812 -0.5139  0.9607  0.2849
   67MOL0     C 9150   3.581   7.508   4.821  0.3118 -0.5067 -0.9866
   67MOL0     C 9151   3.624   7.549   4.961 -0.1272  0.2394  0.5052
   67MOL0     C 9152   3.776   7.587   4.967  0.2754  0.1189 -0.4752
   67MOL0    Cl 9153   3.810   7.738   4.877 -0.2318 -0.4430 -0.0533
   67MOL0     C 9154   3.069   6.893   4.366 -0.2480  0.6843 -0.2589
   67MOL0     C 9155   2.984   6.778   4.356  0.5484 -0.1764  0.4073
   67MOL0     O 9156   2.894   6.589   4.604 -0.2423 -0.3775  0.3722
   67MOL0     C 9157   2.888   6.350   4.486 -0.2877  1.2099  0.5729
   67MOL0     C 9158   2.876   6.211   4.458  0.1124 -0.0385 -0.2037
   67MOL0     N 9159   2.361   5.439   4.437 -0.1706 -0.3400 -0.0240
   67MOL0     N 9160   2.316   5.360   4.520 -0.7083  0.1235 -0.0761
   67MOL0     C 9161   1.735   5.273   5.603  0.0597 -0.4858  0.0630
   67MOL0     C 9162   1.599   5.287   5.634  0.0029 -0.3977 -0.0753
   67MOL0     C 9163   1.170   5.233   5.708  0.0653  0.2776  0.1246
   67MOL0     C 9164   1.114   5.183   5.829 -0.2332 -0.5831 -0.5974
   67MOL0     C 9165   0.979   5.179   5.854 -0.1575  0.4546  0.5155
   67MOL0     C 9166   0.886   5.217   5.748  0.3298 -0.0815 -0.2828
   67MOL0     O 9167   0.748   5.202   5.756 -0.0397  0.8398  0.2536
   67MOL0     C 9168   0.691   5.177   5.887 -0.0195  0.4705 -0.3561
   67MOL0     C 9169   0.535   5.147   5.871 -0.2591  0.4308 -0.9128
   67MOL0     C 9170   0.449   5.160   5.992 -0.2225  0.5357  0.1127
   67MOL0     C 9171   0.309   5.151   5.950  0.4130 -0.4806 -0.3284
   67MOL0     C 9172   0.218   5.156   6.066  0.9198 -0.2554  0.7280
   67MOL0     C 9173   0.138   5.175   6.153  0.1868  0.0608 -0.7834
   67MOL0     C 9174   0.931   5.264   5.628  0.8354 -1.0225  0.0875
   67MOL0     C 9175   1.075   5.268   5.607 -0.0995 -0.2814  0.5991
   67MOL0     C 9176   1.113   5.330   5.477 -0.7672 -0.3990 -0.3429
   67MOL0     H 9177   1.492   5.175   5.325  4.0614  0.1999 -3.2989
   67MOL0     H 9178   1.719   5.159   5.289  0.7101  1.7221 -1.0013
   67MOL0     H 9179   2.007   5.205   5.623 -0.9755  1.1021  0.4801
   67MOL0     H 9180   2.002   5.366   5.544 -1.6646  0.7906 -2.3283
   67MOL0     H 9181   2.208   5.184   5.548 -0.2042  1.1689  1.6063
   67MOL0     H 9182   2.112   5.106   5.427 -0.2163  0.6181  0.4785
   67MOL0     H 9183   2.127   5.370   5.322 -2.8365 -3.8668 -2.0905
   67MOL0     H 9184   2.291   5.349   5.402 -0.7239  0.4081  1.4946
   67MOL0     H 9185   2.352   5.178   5.255 -1.4134 -3.6331 -0.9866
   67MOL0     H 9186   2.186   5.161   5.195  0.1210  0.0142 -0.7055
   67MOL0     H 9187   2.356   5.399   5.133  1.7736 -2.2399  0.8661
   67MOL0     H 9188   2.186   5.400   5.104 -0.3301 -1.3999  1.4081
   67MOL0     H 9189   2.393   5.183   5.014 -0.4377 -1.0121  0.1486
   67MOL0     H 9190   2.225   5.166   4.974  0.0912 -0.2349  2.5000
   67MOL0     H 9191   2.374   5.423   4.886  2.0201 -0.7884  0.0110
   67MOL0     H 9192   2.213   5.373   4.854  1.1070  1.3753  0.0656
   67MOL0     H 9193   2.437   5.206   4.789 -1.8005 -0.8361  1.5194
   67MOL0     H 9194   2.279   5.181   4.717  1.0692 -1.0203  0.5859
   67MOL0     H 9195   2.605   5.422   4.670 -1.2404  0.9094  0.8593
   67MOL0     H 9196   2.587   5.544   4.321 -0.4884  1.3252 -0.4399
   67MOL0     H 9197   2.687   5.563   4.463  1.8486  0.1402 -3.4914
   67MOL0     H 9198   2.451   5.749   4.419 -0.4479  2.2070  3.0622
   67MOL0     H 9199   2.551   5.751   4.560 -1.4471  1.4343 -0.5060
   67MOL0     H 9200   2.758   5.782   4.432 -0.2552 -2.0107  0.3324
   67MOL0     H 9201   2.654   5.789   4.282 -0.7611  3.4858 -0.4295
   67MOL0     H 9202   2.571   5.994   4.326 -0.3879 -1.6066 -0.6006
   67MOL0     H 9203   2.583   5.996   4.494  1.6172  1.9573 -0.1482
   67MOL0     H 9204   2.546   6.196   4.394  2.2154 -2.6781 -0.1753
   67MOL0     H 9205   2.538   6.563   4.427 -3.8524 -0.6960 -1.5956
   67MOL0     H 9206   2.484   6.469   4.559 -0.8668  0.2712  0.5880
   67MOL0     H 9207   2.457   6.425   4.386 -0.9084  0.9980  0.5420
   67MOL0     H 9208   2.720   6.908   4.532 -0.5921  1.2140 -0.2502
   67MOL0     H 9209   2.863   7.093   4.559 -1.0790  0.4587 -0.1299
   67MOL0     H 9210   3.075   7.291   4.535 -2.1239 -1.0363  0.8353
   67MOL0     H 9211   3.091   7.158   4.648 -0.5608 -1.4855 -0.1446
   67MOL0     H 9212   3.355   7.162   4.567  0.2125 -2.0019 -2.6708
   67MOL0     H 9213   3.297   7.287   4.459  0.6247  0.0749  0.9025
   67MOL0     H 9214   3.261   7.288   4.762  2.8289 -0.0863  0.8932
   67MOL0     H 9215   3.200   7.411   4.646  0.8191  0.4019 -2.3291
   67MOL0     H 9216   3.443   7.468   4.595 -0.7814  1.1686 -0.4049
   67MOL0     H 9217   3.489   7.328   4.674  0.7744  1.0715 -1.3457
   67MOL0     H 9218   3.374   7.578   4.811 -1.0038  0.6913 -1.8248
   67MOL0     H 9219   3.388   7.418   4.889 -1.8949  1.6173  0.1190
   67MOL0     H 9220   3.609   7.589   4.753 -0.3275  0.4460 -0.1306
   67MOL0     H 9221   3.638   7.417   4.799  3.4206  0.4682  2.1384
   67MOL0     H 9222   3.603   7.469   5.032 -1.8243 -1.2716 -1.5618
   67MOL0     H 9223   3.552   7.625   4.992 -1.5862 -1.3610  1.1751
   67MOL0     H 9224   3.834   7.505   4.924  2.6464  2.1932 -1.4956
   67MOL0     H 9225   3.808   7.599   5.071 -2.0453  3.1563  0.0214
   67MOL0     H 9226   3.163   6.894   4.312  0.6224 -1.3236  1.0943
   67MOL0     H 9227   3.015   6.685   4.309 -3.0520 -0.7205 -1.2316
   67MOL0     H 9228   2.987   6.387   4.510 -0.8732  1.7760  2.2041
   67MOL0     H 9229   2.957   6.139   4.458  0.2452  0.0893 -1.5142
   67MOL0     H 9230   1.809   5.286   5.682 -2.1059  1.1584  1.9817
   67MOL0     H 9231   1.573   5.310   5.737 -2.6471 -2.5602 -0.1541
   67MOL0     H 9232   1.181   5.138   5.902 -0.3112 -0.3366 -0.3744
   67MOL0     H 9233   0.949   5.131   5.947 -0.1691 -2.4044 -0.8524
   67MOL0     H 9234   0.728   5.088   5.938 -3.7779 -2.4033 -2.1106
   67MOL0     H 9235   0.707   5.269   5.943  0.5261 -1.0032  2.0724
   67MOL0     H 9236   0.532   5.052   5.817  0.0060 -0.7665  1.0752
   67MOL0     H 9237   0.491   5.227   5.811 -2.0480  2.5802  2.9048
   67MOL0     H 9238   0.464   5.084   6.069 -0.0523  0.9303  0.4769
   67MOL0     H 9239   0.468   5.259   6.035 -1.7569  0.0879  1.9398
   67MOL0     H 9240   0.276   5.065   5.891  0.7985 -0.7474 -0.1642
   67MOL0     H 9241   0.281   5.244   5.899 -1.7660 -0.9710 -0.1288
   67MOL0     H 9242   0.053   5.182   6.218 -0.1689 -2.0154 -0.9615
   67MOL0     H 9243   0.863   5.300   5.552 -0.5147  1.2839  2.2610
   67MOL0     H 9244   1.189   5.409   5.481 -1.2192  0.0604 -0.7893
   67MOL0     H 9245   1.165   5.252   5.421  1.4785 -0.7266  1.9795
   67MOL0     H 9246   1.025   5.365   5.424 -0.2691  0.0355 -0.8944
   68MOL0     O 9247   3.269   3.208   4.241  0.2428 -0.3806 -0.7974
   68MOL0     C 9248   3.330   3.109   4.281 -0.0355 -0.3912 -0.2310
   68MOL0     O 9249   3.403   3.023   4.203  0.0532 -0.0065 -0.3919
   68MOL0     C 9250   3.420   3.068   4.074  0.3615 -0.4469  0.7928
   68MOL0     C 9251   3.383   2.994   3.972 -0.0586  0.3295 -0.3093
   68MOL0     C 9252   3.412   3.023   3.837  0.5506 -0.6332 -0.4791
   68MOL0     C 9253   3.494   3.133   3.815  0.5022  0.0045 -0.6500
   68MOL0     O 9254   3.523   3.167   3.684 -0.3423 -0.2567  0.7588
   68MOL0     C 9255   3.593   3.288   3.646  0.1237 -0.3845 -0.7943
   68MOL0     C 9256   3.635   3.266   3.498  0.2302  0.5042  0.4439
   68MOL0     C 9257   3.756   3.341   3.463 -0.7368  1.1968 -0.1695
   68MOL0     C 9258   3.798   3.330   3.308 -0.9079  0.0664 -0.3999
   68MOL0     C 9259   3.944   3.374   3.280  0.0115 -0.2067 -1.1446
   68MOL0     C 9260   3.980   3.367   3.133  0.3973 -0.0152  0.0665
   68MOL0     C 9261   3.901   3.467   3.044 -0.0910 -0.2011 -0.5744
   68MOL0     C 9262   3.951   3.609   3.046  0.8372  0.3957  0.1387
   68MOL0     N 9263   3.844   3.682   2.976 -0.1428 -0.9644 -1.2008
   68MOL0     C 9264   3.716   3.699   3.025 -0.5063 -0.9704  0.4852
   68MOL0     C 9265   3.651   3.759   2.926 -0.4952 -0.4004  0.5185
   68MOL0     C 9266   3.506   3.796   2.908 -0.0902 -0.5207 -0.0909
   68MOL0     C 9267   3.447   3.759   2.770 -0.5385 -0.4786 -0.1520
   68MOL0     C 9268   3.447   3.610   2.755 -0.0352  0.2299 -0.5802
   68MOL0     C 9269   3.438   3.569   2.609  0.4746 -0.7180 -0.9739
   68MOL0     O 9270   3.527   3.633   2.526  0.4119  0.8673  0.5879
   68MOL0     C 9271   3.660   3.608   2.515 -0.0975 -0.6575 -0.7900
   68MOL0     C 9272   3.720   3.510   2.591 -0.7272 -0.1893 -0.1356
   68MOL0     C 9273   3.854   3.464   2.579 -0.0980 -0.4412  0.3780
   68MOL0     C 9274   3.906   3.351   2.679 -0.1023  0.1568  0.7925
   68MOL0     C 9275   3.940   3.547   2.495  0.2851  0.2325  0.6479
   68MOL0     C 9276   4.087   3.529   2.483  0.1471  0.8311 -0.1491
   68MOL0     O 9277   4.155   3.586   2.376 -0.2455 -0.3445 -0.4828
   68MOL0     C 9278   4.284   3.547   2.359 -0.4039  0.7561  0.3766
   68MOL0     C 9279   4.391   3.635   2.370 -0.0414  0.2593 -0.3560
   68MOL0     C 9280   4.519   3.592   2.329 -0.8148  0.1739 -0.2720
   68MOL0     C 9281   4.551   3.464   2.279  0.0535 -0.8018 -0.6178
   68MOL0     O 9282   4.685   3.433   2.249 -0.3185 -0.2751 -0.4500
   68MOL0     C 9283   4.722   3.316   2.188 -0.3166 -0.1328 -0.8757
   68MOL0     C 9284   4.856   3.339   2.122 -0.3481 -0.0042  0.2173
   68MOL0     C 9285   4.965   3.399   2.210 -0.4240  0.2826 -0.9475
   68MOL0     C 9286   4.975   3.330   2.347 -0.4085 -0.2767  0.7254
   68MOL0     C 9287   5.088   3.380   2.442 -0.8731 -0.6111  0.1646
   68MOL0     C 9288   5.227   3.347   2.384  0.5236  0.4565 -0.2655
   68MOL0     C 9289   5.347   3.399   2.477  0.0888  0.1232 -0.2113
   68MOL0     C 9290   5.483   3.419   2.404  0.7886  0.1454  0.3290
   68MOL0    Cl 9291   5.569   3.272   2.353  0.2920  0.3227 -0.1868
   68MOL0     C 9292   4.440   3.377   2.268 -0.7363 -0.6466  0.1274
   68MOL0     C 9293   4.316   3.418   2.306  0.6496 -0.0488 -0.8730
   68MOL0     O 9294   4.140   3.462   2.575 -0.9673 -0.0474  0.9295
   68MOL0     C 9295   3.878   3.651   2.420  1.2319  0.1264  0.5717
   68MOL0     C 9296   3.739   3.671   2.426  0.3490 -0.2631 -0.3903
   68MOL0     N 9297   3.741   3.792   2.821  0.6409 -0.3105 -0.2755
   68MOL0     N 9298   3.850   3.726   2.846  0.4694 -0.4482  0.5973
   68MOL0     C 9299   3.529   3.216   3.925 -0.6315 -1.3319  0.2372
   68MOL0     C 9300   3.491   3.185   4.051  0.0539 -0.2528 -0.1144
   68MOL0     C 9301   3.312   3.078   4.425  0.0347  0.1415 -0.0612
   68MOL0     C 9302   3.416   3.039   4.503 -0.8611 -0.4614 -0.2787
   68MOL0     C 9303   3.394   2.986   4.633 -0.4754  0.1389 -0.3311
   68MOL0     C 9304   3.266   2.972   4.675  0.7858 -0.5206 -0.0772
   68MOL0     O 9305   3.257   2.914   4.797  0.3823  0.7523 -0.6910
   68MOL0     C 9306   3.186   2.789   4.801  0.1906  0.4052  1.0165
   68MOL0     C 9307   3.165   2.722   4.932  0.2153 -0.3997 -0.8879
   68MOL0     C 9308   3.288   2.702   5.019  0.7816 -0.1271  0.9551
   68MOL0     C 9309   3.299   2.814   5.125 -0.0222  0.4583 -0.2020
   68MOL0     C 9310   3.423   2.809   5.199  0.0816 -0.6659  0.2439
   68MOL0     C 9311   3.534   2.821   5.243  0.2814 -0.0751  0.1238
   68MOL0     C 9312   3.154   3.012   4.595  0.5153  0.0307  0.5702
   68MOL0     C 9313   3.177   3.060   4.467 -1.1109 -0.5901 -0.7996
   68MOL0     C 9314   3.059   3.067   4.379  0.7419 -0.3601  0.2299
   68MOL0     H 9315   3.338   2.898   3.996  0.7090  0.0825  0.2050
   68MOL0     H 9316   3.378   2.956   3.758 -0.5543  0.4366 -0.9527
   68MOL0     H 9317   3.684   3.303   3.706 -0.2983  0.0108 -0.2483
   68MOL0     H 9318   3.527   3.375   3.654 -1.5589 -1.7203  0.3625
   68MOL0     H 9319   3.659   3.161   3.476 -0.1171  0.4763  0.1940
   68MOL0     H 9320   3.545   3.284   3.439 -1.1402  0.2676  2.3579
   68MOL0     H 9321   3.738   3.447   3.485  0.8194  1.9652 -2.2723
   68MOL0     H 9322   3.835   3.308   3.530 -1.5186  0.6393  0.4899
   68MOL0     H 9323   3.782   3.228   3.272 -0.9519  0.5658 -1.8278
   68MOL0     H 9324   3.733   3.383   3.239  0.3070 -0.4074 -1.9559
   68MOL0     H 9325   4.010   3.307   3.336  1.3319  1.0856 -1.0841
   68MOL0     H 9326   3.959   3.477   3.315 -1.0545 -0.3505 -0.2133
   68MOL0     H 9327   4.088   3.388   3.129  0.0327  2.1632  0.2073
   68MOL0     H 9328   3.970   3.262   3.104  1.2486 -0.8452  2.5682
   68MOL0     H 9329   3.792   3.462   3.051 -0.2443  1.7261 -1.0561
   68MOL0     H 9330   3.910   3.431   2.941  0.6859 -1.6963 -0.0165
   68MOL0     H 9331   3.972   3.651   3.145 -0.0146 -0.7491  0.8212
   68MOL0     H 9332   4.039   3.618   2.982  0.3786 -1.0188 -0.7333
   68MOL0     H 9333   3.669   3.668   3.118  0.7736  0.0811  1.5120
   68MOL0     H 9334   3.509   3.903   2.931  2.0568 -1.1342  3.1879
   68MOL0     H 9335   3.444   3.752   2.986 -2.3297  0.0350 -1.4635
   68MOL0     H 9336   3.349   3.806   2.763 -0.4890 -0.4594 -0.7357
   68MOL0     H 9337   3.509   3.807   2.694 -1.0459  1.2829  0.5036
   68MOL0     H 9338   3.547   3.571   2.780  0.2862  0.9911 -0.6646
   68MOL0     H 9339   3.374   3.560   2.818  0.8009  0.5826  0.7081
   68MOL0     H 9340   3.446   3.460   2.601 -0.3079 -0.8519 -0.0923
   68MOL0     H 9341   3.342   3.608   2.573  0.5786  1.1928  0.6912
   68MOL0     H 9342   3.657   3.455   2.660 -0.5371 -1.7878 -1.1737
   68MOL0     H 9343   3.829   3.321   2.750 -0.2818  0.6728  0.8219
   68MOL0     H 9344   3.994   3.380   2.738 -0.2225 -0.1921  1.1463
   68MOL0     H 9345   3.942   3.263   2.626 -1.8538  0.8725 -1.7755
   68MOL0     H 9346   4.387   3.729   2.424  0.1372 -1.0934  2.1511
   68MOL0     H 9347   4.603   3.659   2.343  0.5109 -1.7736  1.8418
   68MOL0     H 9348   4.726   3.234   2.260  0.3535 -1.6010 -2.5243
   68MOL0     H 9349   4.643   3.283   2.119 -1.3568 -0.6698  0.5295
   68MOL0     H 9350   4.886   3.235   2.103  1.6145 -0.3162  4.0236
   68MOL0     H 9351   4.842   3.395   2.029 -0.8175 -2.6853 -1.4642
   68MOL0     H 9352   4.951   3.507   2.223 -2.8058  0.1490 -1.8964
   68MOL0     H 9353   5.061   3.394   2.159  0.0033  0.0752 -0.1375
   68MOL0     H 9354   4.986   3.222   2.336 -1.9828 -0.2860 -1.4715
   68MOL0     H 9355   4.884   3.354   2.403 -1.8092 -2.6396 -0.4097
   68MOL0     H 9356   5.084   3.490   2.442 -0.6282 -0.5963 -0.7042
   68MOL0     H 9357   5.081   3.341   2.544 -0.2381 -0.8752  0.1151
   68MOL0     H 9358   5.247   3.379   2.281  1.9992 -0.1066 -0.1824
   68MOL0     H 9359   5.233   3.238   2.375 -1.3335 -0.0210  2.9640
   68MOL0     H 9360   5.354   3.331   2.563 -1.7301  3.0874  2.5183
   68MOL0     H 9361   5.316   3.495   2.520  0.3519 -1.0812  2.9607
   68MOL0     H 9362   5.542   3.478   2.475  1.4239 -0.4398  0.2984
   68MOL0     H 9363   5.457   3.475   2.314  1.0627  1.7268  1.2035
   68MOL0     H 9364   4.443   3.273   2.237 -1.3017 -0.3729 -0.8576
   68MOL0     H 9365   4.237   3.347   2.281  1.8658 -1.7476 -0.0724
   68MOL0     H 9366   3.930   3.720   2.354  0.8805  1.8275  2.0093
   68MOL0     H 9367   3.688   3.746   2.365  2.1730  0.1246 -1.5057
   68MOL0     H 9368   3.605   3.293   3.911 -0.2832 -1.1307  2.7438
   68MOL0     H 9369   3.534   3.237   4.136 -0.6078 -0.4254  0.3346
   68MOL0     H 9370   3.518   3.056   4.469 -1.5033  2.0019 -1.2262
   68MOL0     H 9371   3.467   2.931   4.691  0.0853  1.0192 -0.1810
   68MOL0     H 9372   3.091   2.788   4.748 -0.1485  1.5038  1.5666
   68MOL0     H 9373   3.249   2.721   4.742  0.7148  1.8379 -0.1362
   68MOL0     H 9374   3.109   2.629   4.923 -1.6690  0.3176  2.0611
   68MOL0     H 9375   3.085   2.781   4.978  0.3720  0.4338 -1.6389
   68MOL0     H 9376   3.281   2.609   5.076  1.2591  0.1136  1.4162
   68MOL0     H 9377   3.376   2.700   4.955  0.1007  0.3667 -0.0314
   68MOL0     H 9378   3.211   2.808   5.189 -0.0337  2.0621 -0.0280
   68MOL0     H 9379   3.292   2.911   5.075 -2.1640 -0.8181 -2.6504
   68MOL0     H 9380   3.629   2.837   5.290  0.4770  0.1042 -0.3302
   68MOL0     H 9381   3.051   3.010   4.631 -0.9391  1.8317 -3.0071
   68MOL0     H 9382   2.980   3.006   4.423 -0.2149  0.9639  0.3986
   68MOL0     H 9383   3.020   3.166   4.353 -0.3056 -0.6836  0.5297
   68MOL0     H 9384   3.084   3.015   4.286 -0.2782 -0.6302  0.0932
   69MOL0     O 9385   7.834   2.273   4.920 -0.3012  0.5714  0.1902
   69MOL0     C 9386   7.736   2.202   4.936  0.4662  1.0439  0.6799
   69MOL0     O 9387   7.745   2.070   4.951 -0.3090  0.4196 -0.8746
   69MOL0     C 9388   7.869   2.012   4.980  0.1632  0.3701  0.0276
   69MOL0     C 9389   7.925   1.921   4.888 -0.1401 -0.2099 -0.0050
   69MOL0     C 9390   8.053   1.863   4.907  0.0325 -0.9807  0.2968
   69MOL0     C 9391   8.131   1.900   5.016 -0.1826  1.0134  0.4915
   69MOL0     O 9392   8.262   1.861   5.035 -0.1551  0.5629 -0.2586
   69MOL0     C 9393   8.297   1.777   5.147 -0.0286 -0.0082 -0.3776
   69MOL0     C 9394   8.411   1.686   5.110 -0.3395  0.9368 -0.1519
   69MOL0     C 9395   8.469   1.594   5.224 -0.7259  0.1201  0.0411
   69MOL0     C 9396   8.620   1.564   5.202  0.4293  0.2994  0.3867
   69MOL0     C 9397   8.714   1.667   5.272 -0.1487  0.0073  0.3642
   69MOL0     C 9398   8.860   1.619   5.299  1.0235 -0.7333 -0.0537
   69MOL0     C 9399   8.952   1.723   5.367  0.4878 -0.2742  0.1836
   69MOL0     C 9400   9.084   1.670   5.394  0.5721 -0.4413  0.0966
   69MOL0     N 9401   9.086   1.571   5.496 -0.4545 -0.2159 -0.2995
   69MOL0     C 9402   9.050   1.592   5.630 -1.0123  0.2458 -0.3410
   69MOL0     C 9403   9.044   1.466   5.681  0.2021 -0.7076  0.2906
   69MOL0     C 9404   9.008   1.430   5.821  0.0835 -0.0115  0.1859
   69MOL0     C 9405   8.862   1.406   5.838  0.9699  1.2301 -0.5952
   69MOL0     C 9406   8.785   1.528   5.879  0.3765  0.5559 -0.6121
   69MOL0     C 9407   8.648   1.504   5.931 -0.8494  0.1267  0.6126
   69MOL0     O 9408   8.641   1.445   6.064 -0.1129 -0.8695 -0.5617
   69MOL0     C 9409   8.518   1.441   6.127  0.6521 -0.4879 -0.3509
   69MOL0     C 9410   8.521   1.380   6.255  0.4706 -0.8046 -0.3746
   69MOL0     C 9411   8.396   1.365   6.327 -0.2619  0.5773 -0.1210
   69MOL0     C 9412   8.408   1.285   6.460  0.1363 -0.0512  0.0897
   69MOL0     C 9413   8.275   1.422   6.281 -0.0627  0.6510  0.7932
   69MOL0     C 9414   8.145   1.419   6.349 -0.3668  0.7105  0.5880
   69MOL0     O 9415   8.042   1.474   6.269  0.2292 -0.3252  0.2588
   69MOL0     C 9416   7.917   1.474   6.317 -0.6878  0.2495 -0.0182
   69MOL0     C 9417   7.844   1.592   6.315  0.0341 -0.3093  0.8760
   69MOL0     C 9418   7.719   1.603   6.370  0.0794  0.5114 -0.3742
   69MOL0     C 9419   7.648   1.495   6.412  0.2636 -0.8043 -0.5951
   69MOL0     O 9420   7.516   1.518   6.436  0.2786 -0.1014 -0.6083
   69MOL0     C 9421   7.434   1.405   6.464 -0.3381 -0.2286 -0.0355
   69MOL0     C 9422   7.412   1.321   6.338  0.3652  0.0902  0.1983
   69MOL0     C 9423   7.327   1.197   6.349  0.5950  0.5771 -0.1189
   69MOL0     C 9424   7.183   1.220   6.408  0.2179  0.9715  0.1765
   69MOL0     C 9425   7.096   1.087   6.404  0.1473 -1.1388  0.0582
   69MOL0     C 9426   6.955   1.103   6.465  0.0594 -0.0524 -0.1169
   69MOL0     C 9427   6.889   0.962   6.484 -0.0504  0.3780 -0.2028
   69MOL0     C 9428   6.830   0.909   6.351 -0.0089 -0.4274  0.0832
   69MOL0    Cl 9429   6.705   1.032   6.284 -0.0671 -0.5788 -0.4632
   69MOL0     C 9430   7.721   1.372   6.414 -0.3152  0.8749 -0.4148
   69MOL0     C 9431   7.856   1.361   6.367  0.3701  0.5128  0.8516
   69MOL0     O 9432   8.133   1.369   6.462 -0.0215  0.5694  0.7549
   69MOL0     C 9433   8.280   1.474   6.149  0.5308 -0.3806 -0.4854
   69MOL0     C 9434   8.395   1.474   6.070  0.4622 -0.7065 -0.3777
   69MOL0     N 9435   9.075   1.372   5.583  0.2896  0.6328  1.0400
   69MOL0     N 9436   9.104   1.434   5.475 -0.4894 -0.6479 -0.3198
   69MOL0     C 9437   8.079   1.993   5.105 -0.5678  0.4824 -0.6001
   69MOL0     C 9438   7.945   2.040   5.089  0.1035  0.0974 -0.3083
   69MOL0     C 9439   7.598   2.257   4.962 -0.0458 -0.3036 -0.1508
   69MOL0     C 9440   7.583   2.392   4.997  0.5374 -0.2313 -0.5600
   69MOL0     C 9441   7.459   2.456   5.032 -0.9301 -0.2627 -0.1624
   69MOL0     C 9442   7.339   2.378   5.018  0.3413  0.0051 -0.6921
   69MOL0     O 9443   7.209   2.422   5.029  0.8253  0.0277 -0.7694
   69MOL0     C 9444   7.182   2.560   5.046 -0.0612  0.1936  0.3691
   69MOL0     C 9445   7.034   2.600   5.030  0.0438 -0.1236 -0.9976
   69MOL0     C 9446   6.948   2.565   5.156 -1.0647 -0.2803  0.0055
   69MOL0     C 9447   6.796   2.546   5.123  0.4080  0.1040  0.0732
   69MOL0     C 9448   6.734   2.458   5.219 -0.1680 -0.9331  0.9933
   69MOL0     C 9449   6.687   2.387   5.302  0.5442  0.2448  1.7703
   69MOL0     C 9450   7.356   2.250   4.972 -0.2063  0.1439  0.1947
   69MOL0     C 9451   7.476   2.182   4.950  0.1813  0.4182  0.0478
   69MOL0     C 9452   7.470   2.035   4.901 -0.3093  0.3467  0.4301
   69MOL0     H 9453   7.870   1.890   4.799  2.3704 -0.4758 -1.5761
   69MOL0     H 9454   8.081   1.778   4.846  1.7675 -0.3079  0.1050
   69MOL0     H 9455   8.216   1.723   5.195  1.0255 -1.7871 -0.5180
   69MOL0     H 9456   8.331   1.860   5.210 -0.1898  0.0728 -0.3982
   69MOL0     H 9457   8.377   1.632   5.021  0.2065  1.3248 -0.6026
   69MOL0     H 9458   8.492   1.748   5.072  2.3577 -3.2289 -1.9864
   69MOL0     H 9459   8.447   1.641   5.320  1.9571  0.5297  0.5453
   69MOL0     H 9460   8.418   1.497   5.226  1.9384 -1.4022  1.8231
   69MOL0     H 9461   8.641   1.462   5.234  1.2020  0.2340 -0.2954
   69MOL0     H 9462   8.631   1.561   5.093 -2.1174 -1.6372  0.1061
   69MOL0     H 9463   8.658   1.687   5.364  1.1420  2.6354  0.6560
   69MOL0     H 9464   8.716   1.765   5.223  1.6991  0.4468  1.2593
   69MOL0     H 9465   8.858   1.531   5.364 -1.4914 -0.5244  0.2427
   69MOL0     H 9466   8.895   1.582   5.202 -2.3089 -2.3699 -0.8015
   69MOL0     H 9467   8.907   1.760   5.459 -1.5878  1.4602 -1.4243
   69MOL0     H 9468   8.958   1.809   5.299 -1.1797 -1.8959 -2.1629
   69MOL0     H 9469   9.135   1.624   5.309  3.0804 -0.8567  1.7096
   69MOL0     H 9470   9.146   1.749   5.437  0.6726 -0.2278 -0.4335
   69MOL0     H 9471   9.027   1.687   5.677 -1.3006 -0.1290  0.2836
   69MOL0     H 9472   9.049   1.508   5.886  0.9435  0.8180 -1.2935
   69MOL0     H 9473   9.067   1.339   5.836  0.2140  0.0051 -0.2143
   69MOL0     H 9474   8.818   1.360   5.749  0.5769 -2.9301  1.5087
   69MOL0     H 9475   8.864   1.331   5.918  2.1035 -0.3269 -2.0334
   69MOL0     H 9476   8.842   1.584   5.954 -1.8884  2.1789  0.0019
   69MOL0     H 9477   8.767   1.589   5.790  1.5816 -0.4668 -1.6016
   69MOL0     H 9478   8.607   1.606   5.936 -1.7118 -0.2241  0.8032
   69MOL0     H 9479   8.599   1.445   5.852 -0.2465 -0.8560  0.9597
   69MOL0     H 9480   8.622   1.352   6.285  1.3812 -0.3036 -2.7744
   69MOL0     H 9481   8.393   1.340   6.554 -2.5378 -2.6673  1.3776
   69MOL0     H 9482   8.501   1.231   6.476 -0.0434  0.2243  2.4547
   69MOL0     H 9483   8.318   1.222   6.455  0.5498 -0.7049  0.6298
   69MOL0     H 9484   7.893   1.682   6.281  0.6998 -0.1604  2.1885
   69MOL0     H 9485   7.672   1.700   6.363  1.1473  1.2460  1.7592
   69MOL0     H 9486   7.479   1.339   6.539 -0.3540  1.3686  1.4355
   69MOL0     H 9487   7.341   1.446   6.503 -0.2466  1.1732 -1.2012
   69MOL0     H 9488   7.379   1.385   6.255  0.8885  0.5217  0.3200
   69MOL0     H 9489   7.510   1.282   6.311  2.0102  3.9648 -0.0903
   69MOL0     H 9490   7.383   1.116   6.396  1.0939  1.1213  0.2379
   69MOL0     H 9491   7.310   1.161   6.247 -1.5288 -0.2662  0.4818
   69MOL0     H 9492   7.123   1.283   6.342 -0.8509  0.2244  0.4077
   69MOL0     H 9493   7.193   1.262   6.508  1.9042  1.0423  0.0151
   69MOL0     H 9494   7.081   1.056   6.301  0.1766  1.0476 -0.6683
   69MOL0     H 9495   7.153   1.009   6.456  0.2830 -1.8179 -1.0805
   69MOL0     H 9496   6.906   1.168   6.392  2.8997  1.4948 -0.8115
   69MOL0     H 9497   6.959   1.159   6.559  2.4640  1.6317 -1.1179
   69MOL0     H 9498   6.811   0.968   6.561  3.1284 -0.9396  3.4823
   69MOL0     H 9499   6.970   0.902   6.526  0.2531  0.2465 -0.9628
   69MOL0     H 9500   6.790   0.810   6.374  0.2464 -0.3016  1.1359
   69MOL0     H 9501   6.914   0.907   6.281  0.8922 -0.0903  1.1250
   69MOL0     H 9502   7.685   1.280   6.459 -0.8195  0.5750 -1.4031
   69MOL0     H 9503   7.910   1.267   6.358 -1.1277 -0.1816 -1.8894
   69MOL0     H 9504   8.188   1.517   6.113 -0.8103 -0.2822  2.7532
   69MOL0     H 9505   8.379   1.509   5.969 -3.4435  0.8340  0.5859
   69MOL0     H 9506   8.144   2.021   5.187  2.1338 -1.5418 -1.9007
   69MOL0     H 9507   7.911   2.111   5.163  2.2081  0.3659  0.4677
   69MOL0     H 9508   7.669   2.458   4.997 -1.3301  2.3902 -0.2759
   69MOL0     H 9509   7.448   2.561   5.058  0.5778 -0.6441  2.3709
   69MOL0     H 9510   7.233   2.610   5.129  0.7366  0.6306 -0.3724
   69MOL0     H 9511   7.221   2.606   4.955  0.0978  0.5194  0.6015
   69MOL0     H 9512   7.003   2.547   4.939  1.5613 -0.6984 -1.2212
   69MOL0     H 9513   7.029   2.706   5.005  1.2879 -0.4384 -2.8181
   69MOL0     H 9514   6.985   2.467   5.190  1.2168  0.1971 -0.9025
   69MOL0     H 9515   6.961   2.645   5.229 -1.2416 -0.9627  0.8023
   69MOL0     H 9516   6.787   2.502   5.023 -1.7693  1.3735 -0.3522
   69MOL0     H 9517   6.757   2.648   5.129  3.0263  1.1004  2.1007
   69MOL0     H 9518   6.652   2.312   5.370  0.0532 -0.4743  0.7558
   69MOL0     H 9519   7.265   2.193   4.961 -0.6552  1.0196 -0.7889
   69MOL0     H 9520   7.367   2.004   4.885 -0.4458  0.8238  0.3663
   69MOL0     H 9521   7.517   2.026   4.802 -1.5571 -1.3852 -0.0452
   69MOL0     H 9522   7.515   1.976   4.981  0.8968  3.5018  2.2268
   70MOL0     O 9523   3.168   8.690   1.474  0.1577  0.6483  0.1564
   70MOL0     C 9524   3.079   8.690   1.388  0.1896  0.1272 -0.6779
   70MOL0     O 9525   3.102   8.662   1.255 -0.0542 -0.1127  0.2400
   70MOL0     C 9526   3.225   8.659   1.198 -0.2505  0.2183 -1.1310
   70MOL0     C 9527   3.286   8.536   1.168  0.2237 -0.5783 -0.5267
   70MOL0     C 9528   3.417   8.525   1.116 -0.3280  0.2945 -0.4137
   70MOL0     C 9529   3.486   8.640   1.092 -1.5114 -0.1994  0.3523
   70MOL0     O 9530   3.621   8.654   1.062 -0.1825  0.0137 -0.1500
   70MOL0     C 9531   3.708   8.544   1.014  0.2692  0.4227 -0.1343
   70MOL0     C 9532   3.784   8.471   1.116 -0.1924  0.1151 -0.5652
   70MOL0     C 9533   3.892   8.553   1.186 -0.0468  0.4476 -0.0389
   70MOL0     C 9534   3.940   8.490   1.324  0.4650 -0.5715  0.7497
   70MOL0     C 9535   4.067   8.541   1.378  0.1253 -0.4102  0.4561
   70MOL0     C 9536   4.089   8.688   1.374  0.9600 -0.3977 -0.4945
   70MOL0     C 9537   4.229   8.727   1.431  0.1698 -0.1000 -0.0939
   70MOL0     C 9538   4.344   8.702   1.324  1.2787 -0.2379 -0.0744
   70MOL0     N 9539   4.361   8.825   1.245 -0.0295 -0.3297 -0.6518
   70MOL0     C 9540   4.485   8.879   1.233 -0.9959 -0.3744  0.7972
   70MOL0     C 9541   4.460   9.007   1.183 -0.1046  0.4760  0.8761
   70MOL0     C 9542   4.551   9.128   1.172 -0.8536  0.5478 -0.8649
   70MOL0     C 9543   4.666   9.107   1.073 -0.4385 -0.1306  0.5443
   70MOL0     C 9544   4.766   9.221   1.046 -0.2543 -0.3088 -0.3399
   70MOL0     C 9545   4.844   9.265   1.167 -0.7559 -0.1116 -0.1848
   70MOL0     O 9546   4.929   9.157   1.186  0.0719 -0.2804  0.4062
   70MOL0     C 9547   5.009   9.171   1.293  0.0935  0.5216 -0.2548
   70MOL0     C 9548   5.014   9.068   1.378  1.0156  0.2424  0.7622
   70MOL0     C 9549   5.086   9.075   1.504  0.1842  0.4983  0.1424
   70MOL0     C 9550   5.056   8.962   1.601  0.5256 -0.7420  0.5755
   70MOL0     C 9551   5.173   9.187   1.528  0.0130  0.4478 -0.3194
   70MOL0     C 9552   5.261   9.204   1.639 -0.1201  0.5481 -0.2219
   70MOL0     O 9553   5.350   9.302   1.635 -0.4027  0.1132  0.2180
   70MOL0     C 9554   5.469   9.302   1.714  0.2185  0.2729  0.2342
   70MOL0     C 9555   5.502   9.416   1.786 -0.2584  1.0540  0.4506
   70MOL0     C 9556   5.625   9.415   1.860  0.2707 -0.5018  0.6842
   70MOL0     C 9557   5.701   9.303   1.867 -0.3790 -0.0832 -0.1119
   70MOL0     O 9558   5.806   9.293   1.952 -0.3183 -0.3915 -0.1207
   70MOL0     C 9559   5.912   9.381   1.940 -1.0736 -0.0810 -0.0074
   70MOL0     C 9560   6.043   9.311   1.978  0.6755 -0.3056  0.3011
   70MOL0     C 9561   6.083   9.206   1.871  0.4438  0.7059  0.2364
   70MOL0     C 9562   6.166   9.093   1.918  0.2564  1.0106 -0.2223
   70MOL0     C 9563   6.181   8.992   1.804 -0.7366 -0.5562  0.4376
   70MOL0     C 9564   6.260   8.872   1.857  0.2694 -0.3327  1.0453
   70MOL0     C 9565   6.282   8.768   1.742  0.8680  0.1271  0.6204
   70MOL0     C 9566   6.405   8.676   1.777  0.2065  0.1269 -1.0831
   70MOL0    Cl 9567   6.405   8.527   1.688 -0.2910 -0.6017  0.7616
   70MOL0     C 9568   5.679   9.188   1.789 -0.2580 -0.7274 -0.6216
   70MOL0     C 9569   5.559   9.194   1.713  0.5513  0.1931  0.2362
   70MOL0     O 9570   5.257   9.121   1.730 -0.0691 -0.1497  0.0032
   70MOL0     C 9571   5.168   9.289   1.431  0.3106  0.1904  0.6944
   70MOL0     C 9572   5.083   9.288   1.317 -0.1193  0.2283  0.3119
   70MOL0     N 9573   4.320   9.012   1.162 -0.6051 -0.6541 -0.1340
   70MOL0     N 9574   4.262   8.904   1.192 -0.5104 -0.3917 -0.2623
   70MOL0     C 9575   3.425   8.762   1.126 -0.2687  0.1774 -0.0737
   70MOL0     C 9576   3.298   8.777   1.186  0.9321 -0.3215  0.7253
   70MOL0     C 9577   2.941   8.709   1.436  0.0771  0.0537 -0.1688
   70MOL0     C 9578   2.841   8.630   1.376  0.0301 -0.1512 -0.1276
   70MOL0     C 9579   2.702   8.625   1.424  0.2559  0.0194  0.5753
   70MOL0     C 9580   2.666   8.707   1.532  0.8515 -0.0225  0.5901
   70MOL0     O 9581   2.540   8.698   1.576 -0.5551 -0.2730  0.0305
   70MOL0     C 9582   2.482   8.781   1.682  0.6324 -0.1161  0.5485
   70MOL0     C 9583   2.456   8.714   1.818 -0.1606  0.3969 -0.3685
   70MOL0     C 9584   2.362   8.802   1.901  0.0638  0.7919  0.3579
   70MOL0     C 9585   2.399   8.946   1.910 -0.8420  0.0000  0.3978
   70MOL0     C 9586   2.546   8.965   1.946 -0.2900 -0.0723 -0.5207
   70MOL0     C 9587   2.662   8.999   1.974  0.9809 -0.6817  0.0622
   70MOL0     C 9588   2.763   8.801   1.581 -0.2633  0.9068 -0.5845
   70MOL0     C 9589   2.898   8.799   1.541  0.0562  0.4503  0.0084
   70MOL0     C 9590   2.994   8.887   1.608  0.4431 -0.0211 -0.3019
   70MOL0     H 9591   3.235   8.442   1.188 -0.3467  0.1198  1.5837
   70MOL0     H 9592   3.452   8.424   1.099 -3.7112 -1.1108  0.3708
   70MOL0     H 9593   3.769   8.585   0.933 -1.0807  3.8327  0.3752
   70MOL0     H 9594   3.645   8.471   0.963 -0.4127  1.0657 -0.2334
   70MOL0     H 9595   3.712   8.428   1.187 -0.5168 -2.3338 -2.2622
   70MOL0     H 9596   3.840   8.383   1.081 -0.3483 -0.4424  0.5349
   70MOL0     H 9597   3.977   8.563   1.117  1.7058  1.8012  2.2001
   70MOL0     H 9598   3.844   8.647   1.214 -0.6505  0.2884 -0.5097
   70MOL0     H 9599   3.859   8.514   1.393 -1.3835 -1.2895 -1.0505
   70MOL0     H 9600   3.945   8.381   1.311 -1.6259 -0.4498 -2.2082
   70MOL0     H 9601   4.155   8.494   1.333  1.9131  1.0604  2.2374
   70MOL0     H 9602   4.074   8.524   1.486  2.2679  0.5370  0.5077
   70MOL0     H 9603   4.081   8.728   1.272  2.1831  1.5177  0.1005
   70MOL0     H 9604   4.009   8.736   1.431  3.1356  0.0418  2.4709
   70MOL0     H 9605   4.254   8.672   1.522  0.3758 -0.4760 -0.3716
   70MOL0     H 9606   4.220   8.832   1.459 -0.4941 -0.7027  2.1677
   70MOL0     H 9607   4.436   8.663   1.369  1.9370  0.2775 -0.9372
   70MOL0     H 9608   4.313   8.625   1.252 -0.9034 -0.1340  0.6660
   70MOL0     H 9609   4.584   8.850   1.268  0.0376  1.9144 -0.0260
   70MOL0     H 9610   4.586   9.136   1.275 -0.3587  2.5179 -1.1495
   70MOL0     H 9611   4.503   9.221   1.141 -1.7450 -0.6485 -3.4144
   70MOL0     H 9612   4.717   9.018   1.109  0.4750 -0.7792 -2.1334
   70MOL0     H 9613   4.607   9.075   0.986 -1.8833 -0.7863  1.7182
   70MOL0     H 9614   4.832   9.191   0.964 -0.5349 -0.2984 -0.5723
   70MOL0     H 9615   4.710   9.305   1.004 -1.3467 -0.0364  1.5668
   70MOL0     H 9616   4.913   9.344   1.137 -0.1657 -0.7814 -0.6328
   70MOL0     H 9617   4.783   9.280   1.257  0.8997  0.3799  0.8941
   70MOL0     H 9618   4.952   8.980   1.369  0.4003  0.4219  2.7147
   70MOL0     H 9619   5.143   8.896   1.599 -0.5367 -2.6236 -6.2324
   70MOL0     H 9620   4.977   8.900   1.558 -0.4754  1.2538 -0.6253
   70MOL0     H 9621   5.018   9.011   1.691  0.4792  0.4287 -0.0669
   70MOL0     H 9622   5.435   9.501   1.790 -0.0449  1.1917  2.2125
   70MOL0     H 9623   5.643   9.504   1.919  0.6283 -0.7274  0.9188
   70MOL0     H 9624   5.929   9.421   1.840  1.1930 -2.5339 -0.7086
   70MOL0     H 9625   5.890   9.463   2.010 -1.4892 -3.1380  3.7587
   70MOL0     H 9626   6.121   9.383   2.001 -1.3431  1.9021  0.5911
   70MOL0     H 9627   6.025   9.261   2.074 -0.2524 -0.5614  0.0122
   70MOL0     H 9628   6.123   9.251   1.779 -0.9638 -0.6023 -1.0821
   70MOL0     H 9629   5.991   9.155   1.840  0.0894  1.0403  0.7213
   70MOL0     H 9630   6.118   9.045   2.004 -1.9143  0.8189 -1.4599
   70MOL0     H 9631   6.264   9.130   1.949  1.7098 -1.6864 -1.2101
   70MOL0     H 9632   6.090   8.951   1.757  0.1461 -5.0892  2.1316
   70MOL0     H 9633   6.243   9.037   1.726  0.8040 -1.1033  1.2994
   70MOL0     H 9634   6.198   8.819   1.930 -0.1453  1.2207  1.8642
   70MOL0     H 9635   6.350   8.909   1.908 -0.4060  1.7129  0.8722
   70MOL0     H 9636   6.284   8.813   1.642 -0.2916  0.0454  0.5445
   70MOL0     H 9637   6.191   8.707   1.738  0.8462  0.1269  1.1577
   70MOL0     H 9638   6.413   8.655   1.884 -3.1067  0.4071 -0.6559
   70MOL0     H 9639   6.489   8.741   1.754 -0.4252  1.8096  1.0436
   70MOL0     H 9640   5.742   9.100   1.803  0.3288 -0.0240  1.5280
   70MOL0     H 9641   5.526   9.105   1.660 -0.7788  1.2345 -0.7382
   70MOL0     H 9642   5.228   9.375   1.456  0.6310  0.0653  0.3742
   70MOL0     H 9643   5.081   9.377   1.254  0.8680 -0.9679 -1.5165
   70MOL0     H 9644   3.481   8.854   1.113  0.7539 -0.3056  0.7212
   70MOL0     H 9645   3.259   8.871   1.221 -1.3359 -1.3742  1.2363
   70MOL0     H 9646   2.873   8.572   1.290 -1.0729  0.3676 -0.9162
   70MOL0     H 9647   2.631   8.557   1.378 -0.4321  0.2088  1.3415
   70MOL0     H 9648   2.543   8.868   1.709  2.0652 -0.6000 -0.9426
   70MOL0     H 9649   2.397   8.821   1.626  1.9383  3.2908  0.7248
   70MOL0     H 9650   2.549   8.687   1.869  0.6319  1.9507 -0.9131
   70MOL0     H 9651   2.403   8.621   1.798  0.4061  0.4312 -2.2120
   70MOL0     H 9652   2.265   8.783   1.853  0.8927 -1.1044 -0.6615
   70MOL0     H 9653   2.348   8.760   2.002 -0.5344 -0.2229 -0.1237
   70MOL0     H 9654   2.346   8.998   1.989 -1.0427 -1.8867  1.5615
   70MOL0     H 9655   2.393   8.996   1.813  2.8680  2.0890  1.0263
   70MOL0     H 9656   2.761   9.000   2.014  1.4464 -0.4902 -1.0688
   70MOL0     H 9657   2.731   8.861   1.666 -4.2404 -1.6443  0.0170
   70MOL0     H 9658   2.938   8.967   1.659 -0.7218 -1.9834  1.6714
   70MOL0     H 9659   3.047   8.834   1.688 -1.6278 -1.2013  0.3748
   70MOL0     H 9660   3.065   8.939   1.543  0.5056 -0.4946 -0.6144
   71MOL0     O 9661  11.276   1.578   0.542  0.6454  0.1651  0.2284
   71MOL0     C 9662  11.198   1.541   0.448 -0.8565 -0.6930  0.1624
   71MOL0     O 9663  11.232   1.512   0.318 -0.0560  0.7226  0.2416
   71MOL0     C 9664  11.359   1.496   0.278 -0.2610 -0.0591  0.1819
   71MOL0     C 9665  11.451   1.408   0.338  0.9609 -0.0401  0.5210
   71MOL0     C 9666  11.580   1.401   0.295  0.3637 -0.2175  0.3127
   71MOL0     C 9667  11.627   1.474   0.190  0.0216 -0.3567 -0.2067
   71MOL0     O 9668  11.761   1.462   0.151 -0.2104 -0.0328 -0.3264
   71MOL0     C 9669  11.843   1.576   0.191  0.7407 -0.9153 -0.7629
   71MOL0     C 9670  11.983   1.557   0.129  0.4021 -0.2141  0.0804
   71MOL0     C 9671  11.960   1.557  -0.020 -0.7458 -0.3097 -0.0146
   71MOL0     C 9672  12.089   1.521  -0.103  0.1975  0.0736  0.3788
   71MOL0     C 9673  12.076   1.552  -0.251  0.7983 -0.2347  0.2710
   71MOL0     C 9674  12.188   1.487  -0.337  0.3678 -0.2314 -0.6171
   71MOL0     C 9675  12.169   1.508  -0.487  0.1197 -0.0524 -0.1406
   71MOL0     C 9676  12.299   1.474  -0.560  0.8042 -0.5579  0.1803
   71MOL0     N 9677  12.391   1.585  -0.561  0.4210 -0.6339  0.1162
   71MOL0     C 9678  12.491   1.614  -0.469 -0.0735  0.8670  0.2081
   71MOL0     C 9679  12.557   1.719  -0.515  0.1880  0.1752 -0.9898
   71MOL0     C 9680  12.674   1.789  -0.441 -0.6381  0.3094  0.7486
   71MOL0     C 9681  12.773   1.853  -0.531  0.3907  0.4859  0.4044
   71MOL0     C 9682  12.893   1.908  -0.451  0.2836  0.2603 -0.0397
   71MOL0     C 9683  12.976   2.011  -0.525  0.1333  0.2014 -0.0289
   71MOL0     O 9684  12.984   1.978  -0.666 -0.2363 -0.2612 -0.0374
   71MOL0     C 9685  13.076   2.037  -0.750 -0.0652 -0.4176 -0.5051
   71MOL0     C 9686  13.157   2.148  -0.715  0.7893  0.2738  0.1250
   71MOL0     C 9687  13.260   2.192  -0.798  0.4429 -0.5574  0.7708
   71MOL0     C 9688  13.370   2.288  -0.737 -0.2017  0.7161 -0.4686
   71MOL0     C 9689  13.279   2.137  -0.929 -0.2001 -0.5006 -0.4458
   71MOL0     C 9690  13.383   2.174  -1.026  0.2055 -0.3143 -0.0655
   71MOL0     O 9691  13.420   2.083  -1.124  0.7927 -0.1749  0.0144
   71MOL0     C 9692  13.525   2.115  -1.196  0.9548  0.2651 -0.9326
   71MOL0     C 9693  13.647   2.113  -1.133  0.0380  0.3852  0.7891
   71MOL0     C 9694  13.762   2.124  -1.209 -0.5309 -0.0237 -0.1266
   71MOL0     C 9695  13.756   2.142  -1.342  0.5197  1.1982 -0.0498
   71MOL0     O 9696  13.869   2.158  -1.419  0.4389  0.3131  0.8019
   71MOL0     C 9697  14.001   2.198  -1.372 -0.4333  0.7487  0.7065
   71MOL0     C 9698  14.108   2.080  -1.371  0.7074  0.0021 -0.0285
   71MOL0     C 9699  14.064   1.942  -1.317 -0.1245  0.4233 -0.1172
   71MOL0     C 9700  14.181   1.831  -1.323  0.4549 -0.6080 -0.4118
   71MOL0     C 9701  14.202   1.769  -1.461  0.9973 -0.6729 -0.3758
   71MOL0     C 9702  14.306   1.661  -1.439 -0.7540 -0.4503 -0.4061
   71MOL0     C 9703  14.454   1.698  -1.415  0.1221  0.1274  0.3640
   71MOL0     C 9704  14.502   1.780  -1.540  0.1280 -0.2704 -0.1596
   71MOL0    Cl 9705  14.681   1.750  -1.563 -0.1547  0.0083  0.3857
   71MOL0     C 9706  13.628   2.133  -1.405 -0.6867  0.3075 -0.1426
   71MOL0     C 9707  13.513   2.122  -1.331  0.7017  0.6157  0.4041
   71MOL0     O 9708  13.421   2.292  -1.019 -0.2642  0.3509 -0.4656
   71MOL0     C 9709  13.179   2.046  -0.972 -0.4608 -0.5728 -0.3550
   71MOL0     C 9710  13.086   1.986  -0.880 -0.1569 -0.2768  0.2228
   71MOL0     N 9711  12.493   1.767  -0.628 -0.0441 -0.1897  0.5184
   71MOL0     N 9712  12.395   1.685  -0.655  0.2809 -0.1234  0.0483
   71MOL0     C 9713  11.538   1.567   0.123  0.1637  0.2200  0.2427
   71MOL0     C 9714  11.405   1.566   0.168  0.7505  1.2054 -0.3249
   71MOL0     C 9715  11.060   1.530   0.497  1.1882 -0.2411 -0.0220
   71MOL0     C 9716  11.029   1.465   0.622 -0.1055 -0.2925  0.9430
   71MOL0     C 9717  10.897   1.439   0.659 -0.4727 -0.7816  0.5003
   71MOL0     C 9718  10.787   1.493   0.583 -0.0041 -0.1690 -0.0595
   71MOL0     O 9719  10.652   1.495   0.628  0.3061  0.1556  0.1343
   71MOL0     C 9720  10.613   1.395   0.729 -0.2074  0.3556  0.4088
   71MOL0     C 9721  10.584   1.260   0.659 -0.5546 -0.0031 -0.2598
   71MOL0     C 9722  10.459   1.251   0.579  0.2189  0.1711 -0.2779
   71MOL0     C 9723  10.469   1.347   0.463 -0.3207  1.0782  0.1410
   71MOL0     C 9724  10.357   1.313   0.365 -0.7641 -0.0179  0.2967
   71MOL0     C 9725  10.253   1.288   0.305 -0.5795  0.6000  0.2693
   71MOL0     C 9726  10.820   1.570   0.478 -0.6829  0.1588  0.2751
   71MOL0     C 9727  10.951   1.580   0.425 -0.7046 -0.0782  0.1310
   71MOL0     C 9728  10.962   1.660   0.299 -0.0620 -0.5127 -0.3930
   71MOL0     H 9729  11.417   1.342   0.417 -0.1060 -0.5758 -0.3582
   71MOL0     H 9730  11.651   1.340   0.351  0.9201  1.5841  1.6504
   71MOL0     H 9731  11.860   1.580   0.299  0.7462 -1.2805 -0.7494
   71MOL0     H 9732  11.800   1.672   0.161 -0.2442 -0.8638  0.6997
   71MOL0     H 9733  12.045   1.646   0.144  1.1159 -0.6684 -0.1329
   71MOL0     H 9734  12.021   1.465   0.173 -1.1917 -2.0484 -2.1466
   71MOL0     H 9735  11.880   1.492  -0.058 -1.0480  1.0133 -1.7852
   71MOL0     H 9736  11.923   1.656  -0.046 -2.9076 -0.8923  0.6177
   71MOL0     H 9737  12.171   1.578  -0.058 -0.1146 -0.4672  1.6939
   71MOL0     H 9738  12.109   1.414  -0.091 -0.6698 -0.4772 -2.3872
   71MOL0     H 9739  12.073   1.660  -0.266 -1.1204 -0.0192  1.6856
   71MOL0     H 9740  11.977   1.518  -0.285  1.1386  1.6066 -2.8563
   71MOL0     H 9741  12.282   1.523  -0.297  0.2979  0.7396 -1.3103
   71MOL0     H 9742  12.184   1.379  -0.318 -1.4475  0.0908  1.2505
   71MOL0     H 9743  12.138   1.612  -0.498  1.4404  0.2595 -1.1324
   71MOL0     H 9744  12.088   1.442  -0.520  0.6787  0.2124 -2.1821
   71MOL0     H 9745  12.341   1.380  -0.524 -3.1303 -3.4114 -1.9512
   71MOL0     H 9746  12.260   1.456  -0.660  1.7449  2.4125 -0.8270
   71MOL0     H 9747  12.531   1.559  -0.384 -1.9734 -0.0889  0.5358
   71MOL0     H 9748  12.724   1.722  -0.370  2.3945 -1.6683 -2.8607
   71MOL0     H 9749  12.635   1.870  -0.380 -2.6122 -0.0274  0.0044
   71MOL0     H 9750  12.806   1.775  -0.600  0.0746  0.6128  0.1051
   71MOL0     H 9751  12.726   1.933  -0.589 -0.0808  1.4731  2.0646
   71MOL0     H 9752  12.848   1.952  -0.361  0.3583  2.2797 -0.9407
   71MOL0     H 9753  12.959   1.825  -0.423  0.5843  0.8032  0.9034
   71MOL0     H 9754  12.924   2.107  -0.515  1.4408  0.7290  2.1535
   71MOL0     H 9755  13.074   2.017  -0.478  1.0402 -1.8077 -1.5052
   71MOL0     H 9756  13.149   2.187  -0.613 -0.6115 -3.1964  1.4994
   71MOL0     H 9757  13.463   2.233  -0.721 -0.8952 -0.0447  1.1587
   71MOL0     H 9758  13.337   2.311  -0.636 -0.9820 -0.2771 -0.4900
   71MOL0     H 9759  13.396   2.379  -0.792  1.4363  0.4884 -0.1122
   71MOL0     H 9760  13.652   2.100  -1.026 -2.1422  0.5126  0.9492
   71MOL0     H 9761  13.862   2.108  -1.171  0.0699 -2.9376 -2.4891
   71MOL0     H 9762  14.037   2.284  -1.429  2.8509  0.7730  2.5347
   71MOL0     H 9763  13.997   2.235  -1.270  1.6772  1.1566  0.7010
   71MOL0     H 9764  14.141   2.074  -1.476 -1.6287  0.2529 -0.8448
   71MOL0     H 9765  14.196   2.117  -1.319  0.4228 -0.3884  0.7493
   71MOL0     H 9766  13.978   1.904  -1.372  0.0517 -0.6605  0.3355
   71MOL0     H 9767  14.045   1.947  -1.209  2.8832 -0.5449  0.5641
   71MOL0     H 9768  14.141   1.754  -1.257 -0.0362  0.3053  0.3899
   71MOL0     H 9769  14.271   1.871  -1.274  0.0798  3.3548 -2.5227
   71MOL0     H 9770  14.106   1.725  -1.491  0.5968  1.2725 -2.1730
   71MOL0     H 9771  14.224   1.844  -1.537 -0.9699 -1.4809 -1.8229
   71MOL0     H 9772  14.308   1.610  -1.536 -0.5255  2.7126 -2.2074
   71MOL0     H 9773  14.265   1.593  -1.364 -3.5557  2.2833  0.7546
   71MOL0     H 9774  14.516   1.610  -1.397 -0.8817 -0.6466  0.1258
   71MOL0     H 9775  14.453   1.768  -1.331 -0.5067  2.2405 -1.3118
   71MOL0     H 9776  14.463   1.882  -1.535 -1.1975 -0.6737 -1.5569
   71MOL0     H 9777  14.461   1.745  -1.635  0.2150 -0.0023 -0.2945
   71MOL0     H 9778  13.619   2.139  -1.513  2.7718 -1.0531 -0.6437
   71MOL0     H 9779  13.416   2.118  -1.380  2.4126 -0.0483 -3.2872
   71MOL0     H 9780  13.176   1.999  -1.069  0.3530 -0.5310 -0.4106
   71MOL0     H 9781  13.018   1.909  -0.914  0.9790 -0.8634 -0.7445
   71MOL0     H 9782  11.565   1.639   0.047  0.2236 -0.1173 -0.0583
   71MOL0     H 9783  11.338   1.633   0.115 -0.4853  1.5165  1.5207
   71MOL0     H 9784  11.107   1.406   0.668  0.0075 -0.7390  0.2020
   71MOL0     H 9785  10.888   1.369   0.742 -1.2135 -0.3439  0.7960
   71MOL0     H 9786  10.689   1.386   0.807  2.8442 -0.5802 -2.4179
   71MOL0     H 9787  10.520   1.442   0.764  0.5776  0.6589  2.2334
   71MOL0     H 9788  10.579   1.185   0.739 -1.8210 -0.0821 -0.4065
   71MOL0     H 9789  10.669   1.247   0.591 -1.2961  2.1435 -1.6992
   71MOL0     H 9790  10.445   1.147   0.548  1.5682 -0.0326 -0.2513
   71MOL0     H 9791  10.378   1.283   0.646  0.6792  1.2030 -0.1876
   71MOL0     H 9792  10.563   1.332   0.409  0.9818 -0.6899  2.6758
   71MOL0     H 9793  10.469   1.453   0.487  0.8849  0.8570  1.1983
   71MOL0     H 9794  10.168   1.254   0.249  0.3886 -1.0646 -0.2519
   71MOL0     H 9795  10.747   1.627   0.421 -0.6744 -0.3582 -0.2580
   71MOL0     H 9796  10.867   1.697   0.261  0.0291  0.2528  0.1159
   71MOL0     H 9797  11.036   1.740   0.295 -1.7430  1.2093  1.3800
   71MOL0     H 9798  11.006   1.583   0.234  1.5395 -0.2569  0.3250
   72MOL0     O 9799  10.808   5.910   6.155  0.7337 -0.7736 -0.2708
   72MOL0     C 9800  10.863   5.965   6.250  0.1519  0.1959 -0.2876
   72MOL0     O 9801  11.000   5.961   6.262  0.0542  0.7916 -0.1439
   72MOL0     C 9802  11.076   5.925   6.156 -0.1118  0.1190  0.3179
   72MOL0     C 9803  11.183   5.835   6.171  0.9247  0.3864 -0.6215
   72MOL0     C 9804  11.271   5.797   6.069  0.0430 -0.1489 -0.2247
   72MOL0     C 9805  11.259   5.855   5.945  0.1748  0.0131 -0.4917
   72MOL0     O 9806  11.349   5.819   5.849  0.1031 -0.0896  0.5973
   72MOL0     C 9807  11.297   5.761   5.729  0.8883  0.4656  0.5787
   72MOL0     C 9808  11.426   5.717   5.660 -0.5687 -0.3179  0.1412
   72MOL0     C 9809  11.515   5.626   5.747  0.4143 -0.0938 -0.2335
   72MOL0     C 9810  11.623   5.553   5.672 -0.5797 -1.1016 -0.1198
   72MOL0     C 9811  11.726   5.641   5.604 -0.4022 -0.1156 -0.0365
   72MOL0     C 9812  11.841   5.564   5.532 -0.3189 -0.4181 -0.3465
   72MOL0     C 9813  11.921   5.462   5.615  0.0679  0.3435 -0.3093
   72MOL0     C 9814  11.986   5.519   5.739 -0.7561  0.1493  0.2498
   72MOL0     N 9815  12.062   5.634   5.697  0.1098 -0.0383  0.4696
   72MOL0     C 9816  12.186   5.626   5.640 -0.1148  0.6651  0.5307
   72MOL0     C 9817  12.206   5.752   5.590  0.2770  0.4973  0.4029
   72MOL0     C 9818  12.320   5.797   5.506 -0.4764 -0.2790 -0.2330
   72MOL0     C 9819  12.401   5.910   5.573 -0.4641  0.1582  0.6577
   72MOL0     C 9820  12.491   5.980   5.473 -1.0711 -1.2325 -0.3057
   72MOL0     C 9821  12.578   6.088   5.547 -0.7206  0.7015 -0.5494
   72MOL0     O 9822  12.661   6.143   5.445 -0.2301 -0.5366 -0.1882
   72MOL0     C 9823  12.772   6.212   5.487  0.1353 -0.0178  0.6134
   72MOL0     C 9824  12.775   6.298   5.585  0.2156 -0.0909  0.5321
   72MOL0     C 9825  12.893   6.364   5.626  0.2420 -0.5421  0.5275
   72MOL0     C 9826  12.880   6.460   5.747 -0.1589 -0.9557  0.5050
   72MOL0     C 9827  13.017   6.347   5.553  0.2482 -0.1799  0.7691
   72MOL0     C 9828  13.144   6.417   5.593 -0.5224 -0.2555  0.3310
   72MOL0     O 9829  13.174   6.447   5.718 -0.0532  0.8524  0.3022
   72MOL0     C 9830  13.292   6.506   5.745 -0.4331 -0.0633 -0.0006
   72MOL0     C 9831  13.397   6.416   5.767 -0.5308  0.2979  0.6701
   72MOL0     C 9832  13.526   6.458   5.804 -0.5445 -1.1158 -0.3649
   72MOL0     C 9833  13.547   6.598   5.822  0.4137 -0.0084 -0.1736
   72MOL0     O 9834  13.668   6.662   5.838 -0.3022 -0.1747  0.1468
   72MOL0     C 9835  13.785   6.587   5.826 -0.3139  0.0588 -0.9695
   72MOL0     C 9836  13.911   6.672   5.859 -0.1941  0.2240  0.7774
   72MOL0     C 9837  14.047   6.622   5.798  0.4906 -1.1767 -0.2119
   72MOL0     C 9838  14.161   6.722   5.840 -0.4319 -0.4801 -0.3885
   72MOL0     C 9839  14.303   6.691   5.800 -0.6772 -0.0931  0.0347
   72MOL0     C 9840  14.387   6.822   5.787  0.2159  0.3080  0.2705
   72MOL0     C 9841  14.380   6.925   5.906  0.3055 -0.9539 -0.0426
   72MOL0     C 9842  14.407   6.870   6.045  0.0927 -0.2463  0.3475
   72MOL0    Cl 9843  14.584   6.872   6.046  0.3652 -0.0351  0.0992
   72MOL0     C 9844  13.435   6.677   5.807  0.3931 -1.0462  0.2266
   72MOL0     C 9845  13.306   6.638   5.777  0.3658  0.6218 -0.3890
   72MOL0     O 9846  13.220   6.443   5.498  0.4872 -1.2005  0.9044
   72MOL0     C 9847  13.011   6.254   5.443 -0.4830 -0.1124  0.2602
   72MOL0     C 9848  12.888   6.190   5.415 -0.9272  0.4503 -0.0915
   72MOL0     N 9849  12.088   5.824   5.624  0.3660  0.1047 -0.2407
   72MOL0     N 9850  12.005   5.751   5.681 -0.4296  0.9895 -0.6683
   72MOL0     C 9851  11.155   5.948   5.924  0.8240 -0.5287 -0.0431
   72MOL0     C 9852  11.063   5.981   6.023  0.3418  0.6732 -0.9960
   72MOL0     C 9853  10.780   6.035   6.351 -0.7408 -0.9051  0.4580
   72MOL0     C 9854  10.847   6.144   6.402  0.0253 -0.1348 -0.7323
   72MOL0     C 9855  10.786   6.229   6.499 -0.4764 -0.2338  0.3272
   72MOL0     C 9856  10.651   6.207   6.540 -0.2945  0.4535 -0.5441
   72MOL0     O 9857  10.596   6.287   6.639 -0.1289  0.1263  0.4452
   72MOL0     C 9858  10.475   6.250   6.699 -0.4347  0.2185  0.0546
   72MOL0     C 9859  10.491   6.126   6.801  0.0508 -0.6225  0.4459
   72MOL0     C 9860  10.600   6.184   6.905  0.2439  0.1210 -0.0681
   72MOL0     C 9861  10.596   6.100   7.027  0.1514  0.6850 -0.7344
   72MOL0     C 9862  10.653   5.962   7.009 -0.2574  0.9986 -0.2021
   72MOL0     C 9863  10.694   5.855   6.984  0.2635  0.4392  0.4001
   72MOL0     C 9864  10.585   6.101   6.480 -0.7461  0.2770  0.4537
   72MOL0     C 9865  10.650   6.011   6.390  0.4473  0.0802 -0.3957
   72MOL0     C 9866  10.566   5.908   6.326  0.3250 -0.4073 -0.3983
   72MOL0     H 9867  11.205   5.791   6.268  0.7590  1.6070 -0.0011
   72MOL0     H 9868  11.340   5.714   6.078  0.6975  0.5240  1.3348
   72MOL0     H 9869  11.241   5.835   5.671 -1.2105 -1.7351 -0.3399
   72MOL0     H 9870  11.233   5.674   5.746  0.8688  0.0331 -1.4874
   72MOL0     H 9871  11.404   5.673   5.563  2.6647  2.1241 -1.9062
   72MOL0     H 9872  11.490   5.804   5.638 -0.7300  0.6518  3.0013
   72MOL0     H 9873  11.559   5.678   5.833 -0.4641 -0.7301  0.6309
   72MOL0     H 9874  11.445   5.551   5.784  0.7537 -0.5107 -0.4252
   72MOL0     H 9875  11.672   5.476   5.731 -0.0540  0.5220  1.6548
   72MOL0     H 9876  11.567   5.498   5.596  0.1343 -0.1756 -1.3719
   72MOL0     H 9877  11.756   5.721   5.673 -2.0614  1.8435 -1.4883
   72MOL0     H 9878  11.678   5.708   5.532  0.1841  0.4404  0.0799
   72MOL0     H 9879  11.791   5.510   5.452 -2.1697 -0.4013  0.7419
   72MOL0     H 9880  11.907   5.638   5.486 -0.9463 -1.0134 -2.2894
   72MOL0     H 9881  12.009   5.433   5.557  0.2628 -1.2221  0.7000
   72MOL0     H 9882  11.861   5.375   5.643  0.7669 -0.0867 -0.1224
   72MOL0     H 9883  11.909   5.544   5.813 -1.6889  0.8898 -0.9267
   72MOL0     H 9884  12.049   5.449   5.795 -1.8355 -0.4137  0.8016
   72MOL0     H 9885  12.262   5.549   5.628 -1.6717 -0.8609  0.0983
   72MOL0     H 9886  12.287   5.818   5.403  1.0760 -0.3106 -0.7584
   72MOL0     H 9887  12.386   5.711   5.489 -1.1823 -1.4021  2.2575
   72MOL0     H 9888  12.341   5.993   5.611 -0.4265 -0.1607  1.4452
   72MOL0     H 9889  12.460   5.868   5.656  1.7388  0.9943 -0.3874
   72MOL0     H 9890  12.560   5.912   5.423  0.2799  0.2526 -0.5444
   72MOL0     H 9891  12.426   6.013   5.392 -0.9827 -2.7771 -1.0531
   72MOL0     H 9892  12.528   6.167   5.604  2.3629  2.6493 -0.2615
   72MOL0     H 9893  12.643   6.028   5.612 -0.1293  3.0229  1.1451
   72MOL0     H 9894  12.682   6.321   5.636  0.5354  1.0975  0.6030
   72MOL0     H 9895  12.962   6.431   5.814  0.2251 -3.6496 -1.0139
   72MOL0     H 9896  12.783   6.455   5.796  0.5795 -0.2058  2.1249
   72MOL0     H 9897  12.884   6.562   5.708 -0.6647  0.3427  3.5720
   72MOL0     H 9898  13.371   6.312   5.750  0.4366  0.0822  0.4945
   72MOL0     H 9899  13.604   6.383   5.814  0.5580 -0.1403 -1.3375
   72MOL0     H 9900  13.785   6.506   5.900 -0.6990 -0.0978 -1.1391
   72MOL0     H 9901  13.791   6.535   5.729 -2.3803 -2.3138  0.0890
   72MOL0     H 9902  13.887   6.774   5.827  2.3937 -0.2793 -3.6247
   72MOL0     H 9903  13.921   6.686   5.967  1.9375  4.8734  0.2157
   72MOL0     H 9904  14.040   6.607   5.690  0.1922 -1.6177 -0.1347
   72MOL0     H 9905  14.075   6.524   5.838  1.2044 -0.5953  0.7660
   72MOL0     H 9906  14.169   6.735   5.948  0.1086  1.4457 -0.6219
   72MOL0     H 9907  14.125   6.818   5.801  1.4250  1.0457  1.4563
   72MOL0     H 9908  14.346   6.624   5.875  1.3083  0.0598 -0.8936
   72MOL0     H 9909  14.309   6.634   5.706 -2.1375  0.0556 -0.1683
   72MOL0     H 9910  14.351   6.880   5.701 -1.4422  2.4851  2.2915
   72MOL0     H 9911  14.491   6.795   5.767  0.6921  3.3924 -2.2669
   72MOL0     H 9912  14.277   6.961   5.908  0.8633  0.6870  0.7976
   72MOL0     H 9913  14.442   7.013   5.886 -2.6391  1.6108  1.2487
   72MOL0     H 9914  14.381   6.764   6.048  0.5714 -0.3541  1.8442
   72MOL0     H 9915  14.359   6.923   6.128  2.3198  1.5531  0.5717
   72MOL0     H 9916  13.440   6.784   5.819  2.9780 -1.4624  5.5344
   72MOL0     H 9917  13.224   6.710   5.778  0.4264  0.7427  1.7856
   72MOL0     H 9918  13.094   6.232   5.377 -1.9702 -0.7849 -1.4490
   72MOL0     H 9919  12.896   6.122   5.330  1.4218 -1.4258  1.4920
   72MOL0     H 9920  11.134   6.001   5.832 -1.6382 -0.1600  0.6774
   72MOL0     H 9921  10.983   6.052   6.006 -2.8337 -2.5864 -0.7350
   72MOL0     H 9922  10.951   6.162   6.378  0.4451  0.8918  1.5890
   72MOL0     H 9923  10.843   6.314   6.538  0.9034 -1.1491  0.3890
   72MOL0     H 9924  10.424   6.334   6.747 -2.5812  0.6772 -2.7817
   72MOL0     H 9925  10.403   6.222   6.621  0.6985  2.0860 -1.7564
   72MOL0     H 9926  10.510   6.034   6.745 -0.3724 -0.7961  0.5843
   72MOL0     H 9927  10.395   6.107   6.849  0.4033 -1.2287  0.9211
   72MOL0     H 9928  10.703   6.185   6.868  0.8669 -3.0824  1.2367
   72MOL0     H 9929  10.574   6.284   6.940 -0.9063 -0.7696  1.7661
   72MOL0     H 9930  10.495   6.084   7.066 -0.2130  1.5528 -1.3064
   72MOL0     H 9931  10.655   6.145   7.108  0.6820 -1.9461  0.4645
   72MOL0     H 9932  10.711   5.751   6.963 -1.3635  0.2093  0.1187
   72MOL0     H 9933  10.479   6.081   6.497 -0.0696 -1.6516  3.1423
   72MOL0     H 9934  10.531   5.945   6.230  2.5551  1.5897 -0.5370
   72MOL0     H 9935  10.626   5.817   6.316 -0.3415 -1.1108  1.5823
   72MOL0     H 9936  10.481   5.867   6.381 -1.5104 -0.3507 -3.0146
   73MOL0     O 9937   7.322   5.810  11.049  0.7967  0.6664 -0.5604
   73MOL0     C 9938   7.259   5.871  10.962  0.9951  1.0587 -0.9314
   73MOL0     O 9939   7.313   5.922  10.850 -0.6272  0.0977  0.5559
   73MOL0     C 9940   7.450   5.933  10.826 -0.2836 -0.0945  0.2598
   73MOL0     C 9941   7.492   5.929  10.691 -0.6302 -0.1659 -0.2570
   73MOL0     C 9942   7.630   5.944  10.667 -0.0886 -0.2985  0.4849
   73MOL0     C 9943   7.722   5.965  10.765  0.0695 -0.2553  0.6944
   73MOL0     O 9944   7.857   5.971  10.750 -0.3474 -0.4957 -0.5594
   73MOL0     C 9945   7.897   5.985  10.620 -0.5106  0.3166  0.0109
   73MOL0     C 9946   8.034   6.026  10.627 -0.0632  0.3332  0.0618
   73MOL0     C 9947   8.136   5.927  10.689  0.7038  0.8837  0.0421
   73MOL0     C 9948   8.281   5.978  10.676 -0.1005 -0.3143  0.5846
   73MOL0     C 9949   8.399   5.873  10.670  0.0359  0.3522  0.3520
   73MOL0     C 9950   8.426   5.811  10.811  0.6390  0.5960  0.3037
   73MOL0     C 9951   8.545   5.714  10.795 -0.7872  0.0918 -0.0751
   73MOL0     C 9952   8.570   5.653  10.937  0.6546 -0.3097  0.7757
   73MOL0     N 9953   8.683   5.561  10.923 -0.0938 -0.1019  0.4231
   73MOL0     C 9954   8.816   5.577  10.963  0.3068  0.2861  0.5782
   73MOL0     C 9955   8.876   5.463  10.919  0.1744  0.2561 -0.4303
   73MOL0     C 9956   9.019   5.416  10.958  0.7185 -0.1845  1.0473
   73MOL0     C 9957   9.049   5.465  11.104  0.0716 -0.0422  0.2402
   73MOL0     C 9958   9.189   5.403  11.154 -0.5723  0.1793 -0.4720
   73MOL0     C 9959   9.303   5.455  11.070  0.0118 -0.0415 -0.9837
   73MOL0     O 9960   9.374   5.346  11.019 -0.8680 -0.0657  0.6405
   73MOL0     C 9961   9.479   5.300  11.092 -0.1667 -0.3729  0.6138
   73MOL0     C 9962   9.495   5.297  11.227  0.5666  0.0749  0.1157
   73MOL0     C 9963   9.602   5.241  11.289  0.0541 -0.3791 -0.2297
   73MOL0     C 9964   9.600   5.241  11.441  0.2594  0.9645  0.4448
   73MOL0     C 9965   9.704   5.183  11.210 -0.3665 -0.0064 -1.1583
   73MOL0     C 9966   9.820   5.111  11.275 -0.0122  0.3588  0.2395
   73MOL0     O 9967   9.879   5.017  11.197  0.1197 -0.3325 -0.4500
   73MOL0     C 9968   9.991   4.955  11.249 -0.1452  0.3451 -0.3969
   73MOL0     C 9969   9.984   4.836  11.322  0.0201  0.6842  1.1151
   73MOL0     C 9970  10.105   4.767  11.369 -0.2486  0.3019  0.5090
   73MOL0     C 9971  10.230   4.829  11.348  0.7767 -0.1731 -0.0288
   73MOL0     O 9972  10.347   4.767  11.381  0.2030 -0.3796 -0.2484
   73MOL0     C 9973  10.359   4.663  11.477 -1.0191 -0.3613  0.6662
   73MOL0     C 9974  10.506   4.633  11.506 -0.3693  0.0451 -0.6299
   73MOL0     C 9975  10.567   4.558  11.386  0.1526 -0.6717 -0.5528
   73MOL0     C 9976  10.698   4.504  11.433 -0.0491  0.8087  0.5438
   73MOL0     C 9977  10.763   4.431  11.307  0.0153 -0.9904  0.8015
   73MOL0     C 9978  10.865   4.322  11.349  0.3708  0.4920 -0.0605
   73MOL0     C 9979  11.002   4.397  11.391 -0.0982  1.3603  0.8847
   73MOL0     C 9980  11.107   4.284  11.429  0.3918 -0.3283  0.4865
   73MOL0    Cl 9981  11.071   4.170  11.557  0.0892  0.2296 -0.4020
   73MOL0     C 9982  10.234   4.939  11.258 -0.5845 -0.1099  0.6173
   73MOL0     C 9983  10.118   5.001  11.214  0.1997  0.6671  0.1875
   73MOL0     O 9984   9.858   5.140  11.390 -0.5956 -0.5448  0.6833
   73MOL0     C 9985   9.687   5.177  11.076  0.5507 -0.0068  0.2245
   73MOL0     C 9986   9.577   5.239  11.011 -0.3371 -0.1544 -0.1569
   73MOL0     N 9987   8.790   5.382  10.847  0.0013  0.5834  0.1612
   73MOL0     N 9988   8.671   5.435  10.868  0.0154 -0.1984  0.9446
   73MOL0     C 9989   7.676   5.978  10.892  0.0088 -0.2357  0.3795
   73MOL0     C 9990   7.546   5.953  10.930  0.2392 -0.5185  0.2562
   73MOL0     C 9991   7.109   5.873  10.982 -2.0585 -0.6523 -0.5371
   73MOL0     C 9992   7.056   5.807  11.090  0.0918 -0.5169  0.2789
   73MOL0     C 9993   6.917   5.812  11.117  0.1496  0.5330  0.5996
   73MOL0     C 9994   6.826   5.875  11.027 -0.1170  0.1289 -0.0526
   73MOL0     O 9995   6.698   5.850  11.047  0.3863 -0.2809  0.5906
   73MOL0     C 9996   6.610   5.856  10.937  0.1280  0.6960 -0.4002
   73MOL0     C 9997   6.485   5.791  10.969 -0.1458  1.5301  0.4936
   73MOL0     C 9998   6.501   5.633  10.959 -0.1226 -0.0113 -0.2837
   73MOL0     C 9999   6.364   5.563  10.963 -0.0388  0.0497  0.7397
   73MOL0     C10000   6.305   5.559  11.090 -0.1539 -0.2643  0.3172
   73MOL0     C10001   6.268   5.550  11.206 -0.1770  0.0885  0.2668
   73MOL0     C10002   6.885   5.945  10.918  0.2208  0.0111  0.6018
   73MOL0     C10003   7.024   5.946  10.895  0.3838  0.5918 -0.6591
   73MOL0     C10004   7.071   6.002  10.759  0.1993 -0.1025  0.0125
   73MOL0     H10005   7.420   5.918  10.610 -1.7180  2.1880  0.2848
   73MOL0     H10006   7.667   5.939  10.565 -1.4575  1.5319 -0.1532
   73MOL0     H10007   7.836   6.060  10.568 -0.0889  1.3653  0.9743
   73MOL0     H10008   7.900   5.886  10.575 -0.5516  0.1136  0.4479
   73MOL0     H10009   8.072   6.040  10.525  4.3031  0.8650  1.5564
   73MOL0     H10010   8.038   6.122  10.680  1.7406  1.1276 -1.4045
   73MOL0     H10011   8.102   5.914  10.791 -1.6106  1.3452 -0.6164
   73MOL0     H10012   8.135   5.833  10.633  1.9142  0.1517  1.1899
   73MOL0     H10013   8.281   6.030  10.580 -1.1819 -0.1106  0.6894
   73MOL0     H10014   8.306   6.055  10.749 -0.4852 -0.0659  0.4559
   73MOL0     H10015   8.486   5.920  10.623  0.1839 -0.9829 -0.7785
   73MOL0     H10016   8.374   5.794  10.598 -0.1163  0.4824  0.2619
   73MOL0     H10017   8.454   5.890  10.882 -1.0601  1.4784  0.0392
   73MOL0     H10018   8.334   5.764  10.846 -0.3753  0.0899 -2.7395
   73MOL0     H10019   8.634   5.764  10.757 -0.7583  1.7366  2.0346
   73MOL0     H10020   8.525   5.630  10.727  0.6790 -0.3793  0.0361
   73MOL0     H10021   8.588   5.733  11.008  1.0811  1.8508 -1.6135
   73MOL0     H10022   8.478   5.598  10.958 -0.6637  1.1862 -0.8217
   73MOL0     H10023   8.861   5.650  11.030  3.5842 -1.0585  0.0457
   73MOL0     H10024   9.094   5.452  10.887  0.3892 -0.3493  0.6128
   73MOL0     H10025   9.027   5.308  10.938  1.5789  0.5123 -3.6015
   73MOL0     H10026   9.062   5.574  11.102  1.6707 -0.2323 -0.3778
   73MOL0     H10027   8.968   5.441  11.175 -1.0325  2.5954  0.0219
   73MOL0     H10028   9.210   5.421  11.260 -0.9100 -0.5000 -0.2770
   73MOL0     H10029   9.181   5.294  11.140  1.0864  0.4180 -4.7477
   73MOL0     H10030   9.271   5.516  10.984 -1.2323  1.6520  0.6085
   73MOL0     H10031   9.366   5.512  11.139  0.1667 -2.0375  0.5937
   73MOL0     H10032   9.415   5.335  11.289  0.1656  1.3548 -1.1355
   73MOL0     H10033   9.688   5.293  11.479  1.5358 -1.1411  0.5306
   73MOL0     H10034   9.618   5.141  11.480  1.8917  0.3793 -1.6019
   73MOL0     H10035   9.499   5.269  11.474 -0.8486 -2.0171 -0.0913
   73MOL0     H10036   9.895   4.776  11.334  0.1669  0.0946 -0.5069
   73MOL0     H10037  10.104   4.676  11.428 -0.6478 -0.9546 -1.3446
   73MOL0     H10038  10.311   4.697  11.569 -1.8284  1.6257 -0.4314
   73MOL0     H10039  10.309   4.574  11.438 -0.7233 -0.7497  1.1621
   73MOL0     H10040  10.567   4.716  11.542  0.3610 -0.3960 -0.8376
   73MOL0     H10041  10.490   4.567  11.592  2.0329  0.0653 -0.1024
   73MOL0     H10042  10.575   4.629  11.303  0.4421 -1.1120 -0.9060
   73MOL0     H10043  10.514   4.474  11.342  1.4129 -0.5880 -2.3445
   73MOL0     H10044  10.671   4.428  11.507  2.3735  0.0415  0.7438
   73MOL0     H10045  10.772   4.571  11.478  1.5013 -0.5352  0.1282
   73MOL0     H10046  10.699   4.378  11.236 -0.9706  1.0814  0.0634
   73MOL0     H10047  10.825   4.500  11.249  1.5233 -1.3049  1.9792
   73MOL0     H10048  10.880   4.258  11.262  1.5990  1.1921 -0.3781
   73MOL0     H10049  10.824   4.257  11.428  1.4500 -0.8147 -0.5345
   73MOL0     H10050  10.986   4.461  11.478 -0.6682  2.0631  0.2747
   73MOL0     H10051  11.054   4.442  11.306 -1.5226 -1.7190 -1.8381
   73MOL0     H10052  11.209   4.322  11.442  0.2821 -0.4197  1.7432
   73MOL0     H10053  11.121   4.220  11.341  1.8229  0.9956 -0.2993
   73MOL0     H10054  10.329   4.982  11.228 -0.4872 -1.1401 -0.6392
   73MOL0     H10055  10.130   5.086  11.148 -0.7279 -1.2949 -2.7553
   73MOL0     H10056   9.763   5.131  11.015 -1.2351 -3.1626  0.1690
   73MOL0     H10057   9.579   5.235  10.903  2.7787  0.2639 -0.2085
   73MOL0     H10058   7.756   5.977  10.965 -0.2940  0.5550  0.7368
   73MOL0     H10059   7.522   5.957  11.036 -1.1954  1.9597 -0.0791
   73MOL0     H10060   7.120   5.745  11.153  0.9087 -0.0461 -0.0765
   73MOL0     H10061   6.879   5.761  11.204  1.3499  1.0065  1.4245
   73MOL0     H10062   6.583   5.959  10.910  0.3955  0.6257 -0.9710
   73MOL0     H10063   6.656   5.825  10.842 -0.2620  4.7569 -2.1346
   73MOL0     H10064   6.405   5.827  10.904 -0.4350  1.4842  0.8223
   73MOL0     H10065   6.462   5.808  11.075  0.9617  1.1391  0.8096
   73MOL0     H10066   6.538   5.606  10.859 -3.4122 -1.4527 -1.2597
   73MOL0     H10067   6.559   5.595  11.043  1.6222  2.3185 -0.3546
   73MOL0     H10068   6.384   5.458  10.938 -0.9682 -0.1892  0.9847
   73MOL0     H10069   6.299   5.611  10.890  1.4077  0.5851 -0.2486
   73MOL0     H10070   6.235   5.541  11.307 -1.7383 -1.1896 -0.3064
   73MOL0     H10071   6.820   5.982  10.839 -1.4590 -2.5505  0.6603
   73MOL0     H10072   7.133   6.092  10.768  1.1469 -0.5506 -1.5292
   73MOL0     H10073   7.122   5.927  10.697 -1.8292 -0.5377 -1.2358
   73MOL0     H10074   6.982   6.029  10.701 -1.2817  1.5014  2.8577
   74MOL0     O10075   5.619   1.357   4.794 -0.2596 -0.4737  0.3706
   74MOL0     C10076   5.551   1.257   4.769  0.0778  0.7408  0.6471
   74MOL0     O10077   5.607   1.144   4.712  0.0332 -0.4039  0.4052
   74MOL0     C10078   5.746   1.130   4.721 -0.0863 -0.0956 -0.7227
   74MOL0     C10079   5.837   1.213   4.662 -0.0214  0.6925  0.7255
   74MOL0     C10080   5.973   1.193   4.670 -0.3552  0.0072 -0.5446
   74MOL0     C10081   6.030   1.090   4.750 -0.2824 -0.6744  0.2766
   74MOL0     O10082   6.173   1.086   4.756  0.3567 -0.7159 -0.2578
   74MOL0     C10083   6.232   0.962   4.800  0.0727  0.0549  0.7186
   74MOL0     C10084   6.386   0.965   4.794 -0.8036  0.1194  0.3474
   74MOL0     C10085   6.440   1.065   4.685 -0.6423 -1.0183 -0.1465
   74MOL0     C10086   6.602   1.052   4.672  0.4262  0.0843  0.2980
   74MOL0     C10087   6.651   1.115   4.538  0.0102  0.3298 -0.5661
   74MOL0     C10088   6.796   1.063   4.501 -0.2871  0.3589  1.1798
   74MOL0     C10089   6.832   1.107   4.351 -0.1865  0.1135 -1.0722
   74MOL0     C10090   6.958   1.042   4.317 -0.4775  0.0692 -0.0836
   74MOL0     N10091   7.007   1.080   4.187 -0.2631  0.1446  0.1428
   74MOL0     C10092   7.062   1.206   4.174  0.6605 -0.1538 -0.4277
   74MOL0     C10093   7.100   1.214   4.050  0.8020 -0.5164  0.8104
   74MOL0     C10094   7.160   1.328   3.976 -0.2983 -0.0031 -0.5549
   74MOL0     C10095   7.306   1.307   3.947 -1.0365  0.0623 -0.0933
   74MOL0     C10096   7.388   1.291   4.074 -0.9322 -0.5205 -0.3765
   74MOL0     C10097   7.517   1.234   4.043 -0.5515  0.8411 -0.7100
   74MOL0     O10098   7.594   1.216   4.167 -0.0660  0.1744  0.1251
   74MOL0     C10099   7.728   1.222   4.141 -0.1399 -0.2846  0.0339
   74MOL0     C10100   7.804   1.315   4.213 -0.0741 -0.2265 -0.2986
   74MOL0     C10101   7.948   1.312   4.212 -0.1489 -0.7311  1.1207
   74MOL0     C10102   8.022   1.418   4.291  0.4440  0.1938 -0.4025
   74MOL0     C10103   8.012   1.228   4.120 -0.7238  0.5210  0.2635
   74MOL0     C10104   8.155   1.217   4.103  0.2057 -0.3095  1.0147
   74MOL0     O10105   8.222   1.238   4.217 -0.3213  0.4799  0.6378
   74MOL0     C10106   8.358   1.253   4.218 -0.5725  0.2493  0.8623
   74MOL0     C10107   8.459   1.202   4.134  1.1506  0.1195  0.1454
   74MOL0     C10108   8.590   1.235   4.155 -0.0364 -0.1287 -0.1165
   74MOL0     C10109   8.632   1.325   4.256  0.1404 -0.0857  0.3512
   74MOL0     O10110   8.767   1.352   4.285  0.2819 -0.4762  0.1422
   74MOL0     C10111   8.879   1.286   4.215  1.3603 -1.0276 -1.3477
   74MOL0     C10112   8.950   1.183   4.310 -0.2469  0.3894  0.7565
   74MOL0     C10113   9.030   1.237   4.436 -0.0062  0.5115  0.3669
   74MOL0     C10114   9.133   1.124   4.476  0.3671  0.1796  0.8411
   74MOL0     C10115   9.230   1.182   4.571  0.4108 -0.4475 -0.4688
   74MOL0     C10116   9.326   1.075   4.623 -0.3536  0.5660 -0.1335
   74MOL0     C10117   9.434   1.117   4.727  0.4227 -0.2231 -0.0981
   74MOL0     C10118   9.563   1.174   4.669 -0.4739 -0.2439  0.2578
   74MOL0    Cl10119   9.645   1.069   4.565 -0.3855  0.2190 -0.2777
   74MOL0     C10120   8.539   1.383   4.333 -0.1585  0.5764 -0.0360
   74MOL0     C10121   8.403   1.346   4.321  0.1494  0.2183  0.1481
   74MOL0     O10122   8.199   1.182   3.995 -0.1921 -0.4339  0.0378
   74MOL0     C10123   7.933   1.140   4.044  0.2745 -0.4985  0.1708
   74MOL0     C10124   7.791   1.135   4.054  0.4043  0.1235 -0.0382
   74MOL0     N10125   7.064   1.093   3.979  0.6261 -0.4430 -0.6051
   74MOL0     N10126   7.010   1.009   4.067  0.3396  0.0928 -0.9295
   74MOL0     C10127   5.937   1.009   4.805 -0.2538 -0.7393  0.1888
   74MOL0     C10128   5.796   1.023   4.790 -0.5564  0.0765  0.3216
   74MOL0     C10129   5.402   1.266   4.791  0.6113  0.3447 -0.1110
   74MOL0     C10130   5.362   1.352   4.899  0.5532 -0.8103  0.0134
   74MOL0     C10131   5.228   1.370   4.931 -0.6701  0.0965 -0.3090
   74MOL0     C10132   5.130   1.298   4.860  0.5215 -0.7614  0.5552
   74MOL0     O10133   5.002   1.336   4.893 -0.1097  0.0925  0.2684
   74MOL0     C10134   4.896   1.270   4.827  0.4904 -0.1560  0.4183
   74MOL0     C10135   4.761   1.318   4.863 -0.1640 -0.7707 -0.3560
   74MOL0     C10136   4.718   1.280   5.007 -0.6113 -0.4457  0.2033
   74MOL0     C10137   4.585   1.352   5.036  0.2951 -0.0339 -1.0044
   74MOL0     C10138   4.554   1.343   5.177  0.3020  0.0424  0.6027
   74MOL0     C10139   4.530   1.340   5.295  0.3131  0.1687  0.3386
   74MOL0     C10140   5.166   1.207   4.759  0.1945  0.2247  0.7642
   74MOL0     C10141   5.303   1.187   4.727  0.7163 -0.4168 -0.1120
   74MOL0     C10142   5.337   1.081   4.623  1.2053  0.5312  0.4593
   74MOL0     H10143   5.798   1.299   4.608  2.5921  0.0871 -2.3811
   74MOL0     H10144   6.038   1.273   4.634 -0.2048  0.2228  0.1883
   74MOL0     H10145   6.188   0.877   4.746  0.4121  0.9724 -1.0759
   74MOL0     H10146   6.209   0.942   4.905 -1.0551 -0.7495  0.3493
   74MOL0     H10147   6.429   0.998   4.889  2.1879  1.2849 -1.2784
   74MOL0     H10148   6.419   0.861   4.782 -0.0451  0.3224  0.6218
   74MOL0     H10149   6.400   1.049   4.584  1.1235  0.1478 -1.0902
   74MOL0     H10150   6.414   1.164   4.722  1.1822  0.2742 -2.0815
   74MOL0     H10151   6.654   1.109   4.749  1.3593  0.7962 -0.8061
   74MOL0     H10152   6.625   0.945   4.671 -0.9598 -0.2451  1.4738
   74MOL0     H10153   6.663   1.224   4.546 -1.6332  0.5858 -1.3525
   74MOL0     H10154   6.581   1.089   4.459  0.2949  0.0534 -0.7313
   74MOL0     H10155   6.874   1.095   4.570  0.8631 -0.8687  0.4995
   74MOL0     H10156   6.802   0.954   4.498  1.8567  0.4509 -1.0848
   74MOL0     H10157   6.823   1.216   4.346 -1.7777  0.1301  0.8041
   74MOL0     H10158   6.756   1.057   4.291  0.2631 -1.1851 -0.5997
   74MOL0     H10159   7.025   1.075   4.397 -1.6746  0.5339  0.7481
   74MOL0     H10160   6.952   0.933   4.320  1.5852 -0.0943  2.7961
   74MOL0     H10161   7.062   1.290   4.242 -1.1584 -1.7491  1.7229
   74MOL0     H10162   7.165   1.418   4.037  3.6617  2.3307 -3.8331
   74MOL0     H10163   7.104   1.340   3.883 -1.9811 -0.5681  0.3533
   74MOL0     H10164   7.328   1.220   3.885  2.2516  0.7004  0.0046
   74MOL0     H10165   7.352   1.379   3.879 -0.2049 -0.4632 -0.0968
   74MOL0     H10166   7.393   1.390   4.119 -0.5760 -0.4500 -0.5656
   74MOL0     H10167   7.340   1.225   4.148  3.0985 -1.7902  1.4312
   74MOL0     H10168   7.491   1.134   4.008 -0.3076 -0.1009  1.6373
   74MOL0     H10169   7.569   1.294   3.967  3.0514  0.7049  1.4403
   74MOL0     H10170   7.749   1.382   4.279  1.7450  0.5359  0.5090
   74MOL0     H10171   8.100   1.474   4.239  1.2256  0.8172  1.3591
   74MOL0     H10172   8.065   1.369   4.379  0.0883 -0.7933 -0.7627
   74MOL0     H10173   7.950   1.492   4.327 -1.6484 -2.1409  0.5459
   74MOL0     H10174   8.448   1.124   4.060  1.7619 -0.7342  0.9329
   74MOL0     H10175   8.657   1.198   4.078 -1.5723  3.1248 -3.3338
   74MOL0     H10176   8.851   1.245   4.118 -3.7389 -0.2584 -0.4920
   74MOL0     H10177   8.951   1.369   4.207 -0.3598  0.5818 -0.9585
   74MOL0     H10178   8.880   1.105   4.338 -0.3591 -0.6628 -2.1862
   74MOL0     H10179   9.029   1.138   4.249 -0.3829 -0.3602  1.1229
   74MOL0     H10180   8.961   1.263   4.517  1.3937  3.3104  0.7845
   74MOL0     H10181   9.070   1.335   4.409 -3.4241  2.2495  1.0329
   74MOL0     H10182   9.205   1.087   4.403 -0.4213 -0.9569  0.6133
   74MOL0     H10183   9.074   1.049   4.529 -0.0502 -0.0407  0.0691
   74MOL0     H10184   9.282   1.262   4.518  1.5206 -0.1821  0.9475
   74MOL0     H10185   9.179   1.236   4.651  0.5309  0.9307 -1.2923
   74MOL0     H10186   9.366   1.026   4.533 -2.8574  2.2116 -2.3136
   74MOL0     H10187   9.277   0.998   4.682  1.5482  0.2904  1.1670
   74MOL0     H10188   9.450   1.028   4.787 -1.9514  0.3241  1.4806
   74MOL0     H10189   9.374   1.186   4.787  0.0660 -0.0986 -0.5850
   74MOL0     H10190   9.633   1.202   4.748  0.6750 -1.1065 -0.4261
   74MOL0     H10191   9.534   1.264   4.614 -1.0977 -2.0954 -2.6979
   74MOL0     H10192   8.576   1.462   4.398  1.4521 -0.6977  0.6905
   74MOL0     H10193   8.319   1.395   4.369 -1.5655 -2.3878 -0.0428
   74MOL0     H10194   7.980   1.083   3.964  0.8412 -0.3136  0.3658
   74MOL0     H10195   7.735   1.064   3.995 -0.3291  1.4141 -0.9404
   74MOL0     H10196   5.972   0.931   4.871  1.1530  0.6260  1.1110
   74MOL0     H10197   5.732   0.948   4.835  0.5531 -1.7171 -0.9476
   74MOL0     H10198   5.433   1.421   4.945  0.8091 -0.5779 -0.7014
   74MOL0     H10199   5.191   1.436   5.008  2.2149  0.4596  0.8852
   74MOL0     H10200   4.909   1.291   4.721 -2.5606  0.4454  0.0785
   74MOL0     H10201   4.910   1.166   4.858  1.9988  0.4647  2.0164
   74MOL0     H10202   4.699   1.275   4.784 -0.9198 -1.6665  0.6792
   74MOL0     H10203   4.761   1.426   4.844 -0.2883 -0.7161 -0.0542
   74MOL0     H10204   4.702   1.172   5.017  0.4316 -0.5337  1.1998
   74MOL0     H10205   4.799   1.311   5.073  0.0589  1.3254 -1.3504
   74MOL0     H10206   4.502   1.302   4.986 -0.4227  0.9894 -0.8687
   74MOL0     H10207   4.580   1.460   5.018 -0.3916  0.2500  0.6950
   74MOL0     H10208   4.516   1.328   5.400  0.0184 -2.0247  0.0884
   74MOL0     H10209   5.089   1.145   4.714  2.5951 -2.5532  0.1077
   74MOL0     H10210   5.398   1.127   4.545  1.5569 -3.2506 -1.7410
   74MOL0     H10211   5.394   0.995   4.658  1.1338 -1.2748 -3.3012
   74MOL0     H10212   5.242   1.049   4.578  0.0985  0.2139  2.8775
   75MOL0     O10213   5.525  10.893   6.422 -0.7935  0.0493 -0.7155
   75MOL0     C10214   5.527  10.956   6.318  0.6533  0.1620 -0.1535
   75MOL0     O10215   5.623  11.036   6.273 -0.9748  0.3086 -0.1948
   75MOL0     C10216   5.737  11.057   6.351  0.2007 -0.4055  0.6665
   75MOL0     C10217   5.721  11.095   6.483 -0.2572  0.2975 -0.1240
   75MOL0     C10218   5.837  11.141   6.553  0.5249 -0.4745  0.0756
   75MOL0     C10219   5.958  11.148   6.487  0.1595 -0.5761 -0.9800
   75MOL0     O10220   6.085  11.182   6.545  0.3880 -0.2022  0.6216
   75MOL0     C10221   6.099  11.257   6.670 -0.2731 -0.0495 -0.3156
   75MOL0     C10222   6.241  11.294   6.677 -0.9844  0.2081 -0.3975
   75MOL0     C10223   6.324  11.179   6.735 -0.4436  0.1561 -0.6744
   75MOL0     C10224   6.394  11.215   6.867  0.1451 -0.7129  0.6723
   75MOL0     C10225   6.293  11.208   6.983  0.8237 -1.2703  0.0151
   75MOL0     C10226   6.331  11.282   7.117  0.1833  0.6652 -0.4416
   75MOL0     C10227   6.445  11.219   7.184 -0.3763 -0.3532  0.2774
   75MOL0     C10228   6.478  11.277   7.319  1.0468 -0.2343 -0.3785
   75MOL0     N10229   6.563  11.397   7.324 -0.4643  0.3810 -0.3171
   75MOL0     C10230   6.669  11.418   7.242 -0.7592 -1.5090 -0.3354
   75MOL0     C10231   6.701  11.544   7.292  0.3462  0.1148  0.3800
   75MOL0     C10232   6.821  11.615   7.244  0.0317  0.2575 -0.2221
   75MOL0     C10233   6.851  11.736   7.322 -0.5799  0.2810  0.0639
   75MOL0     C10234   6.993  11.785   7.292 -0.4460 -0.3435 -0.1722
   75MOL0     C10235   7.019  11.869   7.170 -0.4237  0.8450 -0.1509
   75MOL0     O10236   7.115  11.972   7.193  0.0040  0.0798 -0.3128
   75MOL0     C10237   7.244  11.963   7.158  0.5411 -0.9968  0.3634
   75MOL0     C10238   7.320  11.854   7.103  0.0131  0.1246 -0.5131
   75MOL0     C10239   7.453  11.862   7.053  0.3897  0.2771 -0.4010
   75MOL0     C10240   7.528  11.735   7.025 -0.4117  0.4670  0.4368
   75MOL0     C10241   7.501  11.992   7.049 -0.2663  0.3622  0.0760
   75MOL0     C10242   7.644  12.022   6.998  0.1518 -0.7948 -1.0031
   75MOL0     O10243   7.705  11.937   6.913 -0.7415  0.3949 -0.6607
   75MOL0     C10244   7.805  11.984   6.830  0.0779  0.2151  0.6420
   75MOL0     C10245   7.918  11.907   6.803  0.3036  0.1365  0.2276
   75MOL0     C10246   7.995  11.935   6.696 -0.7817  0.1195  0.7923
   75MOL0     C10247   7.978  12.053   6.619  0.4354 -0.5388 -0.1014
   75MOL0     O10248   8.058  12.077   6.512 -0.3192 -0.0900 -0.4098
   75MOL0     C10249   8.072  12.215   6.467  0.5485  0.6881  0.3616
   75MOL0     C10250   8.164  12.230   6.344  0.2033  0.4845 -1.0204
   75MOL0     C10251   8.306  12.158   6.371  0.2196  0.1877  0.1561
   75MOL0     C10252   8.392  12.190   6.245  0.4012  0.1242 -0.0327
   75MOL0     C10253   8.342  12.130   6.104 -0.0243  0.1618  0.1719
   75MOL0     C10254   8.451  12.106   6.003 -0.0478  0.1748  0.3690
   75MOL0     C10255   8.401  12.066   5.862 -0.7139 -0.5614  0.1527
   75MOL0     C10256   8.514  12.072   5.756  0.1387 -0.1968 -0.1797
   75MOL0    Cl10257   8.622  11.938   5.779 -0.4169 -0.0993  0.3101
   75MOL0     C10258   7.863  12.137   6.646  0.0510  0.0350 -0.1276
   75MOL0     C10259   7.784  12.101   6.754 -0.0645 -0.4116  0.0839
   75MOL0     O10260   7.701  12.116   7.051  0.3709  0.8814 -0.0467
   75MOL0     C10261   7.436  12.100   7.112 -0.9447 -0.3382 -0.1844
   75MOL0     C10262   7.306  12.087   7.159 -0.4460  0.4377  0.1862
   75MOL0     N10263   6.628  11.582   7.404  0.0105 -0.3579 -0.3635
   75MOL0     N10264   6.533  11.494   7.409  0.6833 -0.8134 -0.2234
   75MOL0     C10265   5.972  11.113   6.347  0.3482 -0.0421 -0.2822
   75MOL0     C10266   5.858  11.069   6.283 -1.0552 -0.1466  0.1466
   75MOL0     C10267   5.413  10.929   6.230 -0.5704  0.1040 -0.0210
   75MOL0     C10268   5.442  10.945   6.091 -0.2385  0.5616  0.4844
   75MOL0     C10269   5.339  10.910   5.999 -0.0696  1.0499 -0.2935
   75MOL0     C10270   5.215  10.859   6.041 -0.5681 -0.2172  1.0123
   75MOL0     O10271   5.116  10.839   5.948 -0.0741 -0.3462 -0.5347
   75MOL0     C10272   5.012  10.930   5.966  0.1268 -0.1609 -0.8003
   75MOL0     C10273   4.881  10.875   5.906 -0.4830 -0.0406 -0.2204
   75MOL0     C10274   4.876  10.894   5.753  0.0049  0.1039  0.5065
   75MOL0     C10275   4.731  10.868   5.699 -0.0055 -0.0475 -0.6032
   75MOL0     C10276   4.711  10.720   5.675  0.2068  0.5403 -0.0056
   75MOL0     C10277   4.699  10.603   5.641 -0.3935  0.0716 -0.4399
   75MOL0     C10278   5.191  10.848   6.178  0.0975 -0.0730  0.5128
   75MOL0     C10279   5.287  10.882   6.268 -0.2155  0.3459 -0.3033
   75MOL0     C10280   5.256  10.846   6.415  0.0837 -0.2065 -0.3785
   75MOL0     H10281   5.627  11.081   6.536  1.2920 -1.0670  2.4581
   75MOL0     H10282   5.836  11.164   6.659  2.2030 -1.7368  0.3925
   75MOL0     H10283   6.066  11.203   6.759 -0.8182  1.4575  0.4305
   75MOL0     H10284   6.043  11.351   6.667 -0.1551  0.1109  1.4464
   75MOL0     H10285   6.287  11.323   6.582  1.1307  0.2917  0.5861
   75MOL0     H10286   6.231  11.378   6.746 -1.8457  0.5918 -0.9733
   75MOL0     H10287   6.256  11.093   6.740 -1.2868  0.8689  1.3318
   75MOL0     H10288   6.403  11.157   6.663 -0.6327 -0.6427 -0.6491
   75MOL0     H10289   6.483  11.157   6.894  0.7272 -0.5898 -0.8405
   75MOL0     H10290   6.432  11.317   6.852  2.7218 -1.9276 -2.0664
   75MOL0     H10291   6.278  11.103   7.006  4.4910 -2.3378 -1.6551
   75MOL0     H10292   6.201  11.257   6.949  0.8333 -0.5526  0.9815
   75MOL0     H10293   6.359  11.385   7.092  2.6751  0.8938  2.7411
   75MOL0     H10294   6.239  11.283   7.177 -0.2814 -0.0924 -1.1302
   75MOL0     H10295   6.535  11.212   7.122 -0.1960 -2.2221  0.7048
   75MOL0     H10296   6.414  11.116   7.200  1.7044 -1.1053 -0.3214
   75MOL0     H10297   6.385  11.286   7.376  0.5882  2.1228 -1.3956
   75MOL0     H10298   6.531  11.193   7.365 -4.1195 -3.2571  0.8491
   75MOL0     H10299   6.707  11.362   7.157  0.7452 -0.7482 -0.2008
   75MOL0     H10300   6.802  11.658   7.145 -2.8947 -3.2368 -1.4160
   75MOL0     H10301   6.912  11.555   7.248  1.1579  1.9471  2.3940
   75MOL0     H10302   6.784  11.817   7.294 -0.6340 -0.5928 -2.6265
   75MOL0     H10303   6.830  11.728   7.429 -2.5557  1.4773 -0.1939
   75MOL0     H10304   7.027  11.855   7.369 -0.0950  2.2874 -2.5720
   75MOL0     H10305   7.067  11.704   7.298  0.1584  0.0666 -1.7671
   75MOL0     H10306   7.056  11.800   7.094 -0.8697 -1.6948  1.7977
   75MOL0     H10307   6.924  11.916   7.142 -0.1005  0.5860 -1.7654
   75MOL0     H10308   7.269  11.760   7.120 -2.2409  1.3916  0.1300
   75MOL0     H10309   7.511  11.669   7.111 -1.0831  0.9731  0.7036
   75MOL0     H10310   7.636  11.733   7.008 -0.1411 -1.8980  1.8811
   75MOL0     H10311   7.493  11.692   6.930  1.4265  3.1358 -1.5774
   75MOL0     H10312   7.933  11.824   6.872 -3.6834  0.6488  1.9821
   75MOL0     H10313   8.082  11.871   6.686 -0.2343  0.8724  0.6209
   75MOL0     H10314   7.972  12.251   6.440  0.1617 -0.5240  0.1006
   75MOL0     H10315   8.114  12.269   6.553  0.5480  0.5019  0.4802
   75MOL0     H10316   8.112  12.191   6.256 -0.6043  0.8332 -0.7021
   75MOL0     H10317   8.163  12.338   6.324 -3.6913  0.3505 -2.3367
   75MOL0     H10318   8.282  12.051   6.377  0.0013  0.1330 -1.2637
   75MOL0     H10319   8.341  12.196   6.467  0.2646  0.6686 -0.0493
   75MOL0     H10320   8.496  12.159   6.264  0.7293  1.8303  1.1096
   75MOL0     H10321   8.405  12.298   6.243  1.4374  0.0564  1.3612
   75MOL0     H10322   8.292  12.035   6.127 -0.1763 -0.3393 -1.9800
   75MOL0     H10323   8.266  12.196   6.061 -1.4367 -2.1537 -1.0941
   75MOL0     H10324   8.510  12.020   6.036 -1.9045 -0.6002  1.8726
   75MOL0     H10325   8.502  12.202   5.998  0.2815 -0.0614 -1.7312
   75MOL0     H10326   8.310  12.115   5.827 -1.7697 -1.1602  1.9262
   75MOL0     H10327   8.359  11.965   5.864 -2.0070 -0.0340  0.3977
   75MOL0     H10328   8.563  12.169   5.757 -0.8351  0.3133  0.6511
   75MOL0     H10329   8.483  12.055   5.653 -2.7317 -1.0463  0.7050
   75MOL0     H10330   7.828  12.220   6.585 -0.0555  1.3316  1.6246
   75MOL0     H10331   7.697  12.163   6.772  1.9839  2.9001 -0.5882
   75MOL0     H10332   7.469  12.203   7.111 -2.4453  0.3144 -4.9273
   75MOL0     H10333   7.267  12.176   7.208  1.6433  2.2984 -1.3052
   75MOL0     H10334   6.060  11.143   6.292  0.2876  2.5539  0.8936
   75MOL0     H10335   5.863  11.055   6.176  0.8473  0.4896  0.1232
   75MOL0     H10336   5.536  10.983   6.052 -0.1515 -0.2076 -0.0791
   75MOL0     H10337   5.348  10.933   5.893  1.5452 -1.0512 -0.6704
   75MOL0     H10338   4.981  10.956   6.068  0.3338  0.0057 -0.7786
   75MOL0     H10339   5.041  11.026   5.922 -0.9434  0.3298 -0.4679
   75MOL0     H10340   4.797  10.933   5.946 -0.6545  0.0250 -0.6677
   75MOL0     H10341   4.871  10.768   5.924 -0.5200  0.0250  0.1659
   75MOL0     H10342   4.900  10.997   5.727 -0.5670 -0.1723 -1.3238
   75MOL0     H10343   4.937  10.809   5.720 -2.1162 -4.0590  5.7338
   75MOL0     H10344   4.717  10.925   5.607  0.0917  0.7969 -0.1043
   75MOL0     H10345   4.658  10.900   5.774  0.2265  2.5553 -1.3961
   75MOL0     H10346   4.677  10.510   5.592  0.2192  0.4420 -1.4468
   75MOL0     H10347   5.098  10.797   6.202 -0.8997  1.0215 -0.8523
   75MOL0     H10348   5.307  10.758   6.454  1.1003  0.7867  0.6526
   75MOL0     H10349   5.285  10.934   6.475  3.8870 -0.9913 -0.8032
   75MOL0     H10350   5.148  10.835   6.427  0.2176 -3.8078 -1.5312
   76MOL0     O10351  10.445   5.298   4.016 -0.0472 -0.2460  0.0010
   76MOL0     C10352  10.403   5.255   3.908  0.0315 -0.3255  1.4503
   76MOL0     O10353  10.467   5.261   3.788  0.1834 -0.4561  0.0329
   76MOL0     C10354  10.561   5.357   3.780  0.3762  0.5568 -0.1015
   76MOL0     C10355  10.557   5.445   3.673 -0.0368  0.7480 -0.1732
   76MOL0     C10356  10.663   5.531   3.641  0.0947  0.1083  0.2374
   76MOL0     C10357  10.773   5.534   3.731  0.6507  0.5958  0.3180
   76MOL0     O10358  10.882   5.612   3.716  0.3464  0.1471  0.0264
   76MOL0     C10359  10.907   5.689   3.595  0.4543  0.3740 -0.9275
   76MOL0     C10360  11.053   5.744   3.602  1.3803 -0.3441  0.2599
   76MOL0     C10361  11.077   5.853   3.489 -0.3920  0.2574 -0.4473
   76MOL0     C10362  11.225   5.913   3.483 -0.1723  0.0856  0.9573
   76MOL0     C10363  11.331   5.792   3.447  1.1526 -0.5719 -0.3319
   76MOL0     C10364  11.471   5.856   3.423  0.1538 -0.4193  0.0158
   76MOL0     C10365  11.549   5.896   3.551 -0.4225  0.0237  0.7024
   76MOL0     C10366  11.645   5.790   3.605  0.5506  0.2730 -0.5794
   76MOL0     N10367  11.772   5.784   3.546  0.1159 -0.2344 -0.5814
   76MOL0     C10368  11.838   5.887   3.482 -0.2101  0.0680  0.1571
   76MOL0     C10369  11.967   5.847   3.453  0.1425 -0.2308  0.4047
   76MOL0     C10370  12.064   5.934   3.378 -0.5088 -0.2027  0.4375
   76MOL0     C10371  12.212   5.929   3.426  0.6325 -0.5729  0.1549
   76MOL0     C10372  12.302   5.886   3.311  0.4997  0.1649  0.1318
   76MOL0     C10373  12.456   5.924   3.320  0.7022 -0.0093  0.4216
   76MOL0     O10374  12.514   5.869   3.196 -0.6768 -0.5028 -0.2223
   76MOL0     C10375  12.651   5.871   3.194  0.8756  0.4220  0.6640
   76MOL0     C10376  12.701   5.818   3.075 -0.9428  0.4689 -0.3177
   76MOL0     C10377  12.844   5.812   3.060 -0.0907 -0.4205 -0.1940
   76MOL0     C10378  12.891   5.772   2.922 -0.4722 -0.0155  0.4582
   76MOL0     C10379  12.932   5.837   3.165 -0.0036 -0.7394  0.5738
   76MOL0     C10380  13.082   5.830   3.151  0.4810  0.1433 -0.4113
   76MOL0     O10381  13.131   5.773   3.039 -0.1776  0.7979 -1.5440
   76MOL0     C10382  13.269   5.757   3.028 -0.3218  0.0546  0.3312
   76MOL0     C10383  13.364   5.731   3.133 -0.2026  0.6168  0.3981
   76MOL0     C10384  13.505   5.714   3.099  0.1032  0.1596  0.1145
   76MOL0     C10385  13.557   5.739   2.972  0.3525 -0.5377 -0.3648
   76MOL0     O10386  13.694   5.742   2.948 -0.7771 -0.7589  0.4109
   76MOL0     C10387  13.786   5.786   3.049 -0.4641 -0.0795  0.6168
   76MOL0     C10388  13.900   5.867   2.989 -0.7942  0.0138 -0.8753
   76MOL0     C10389  13.989   5.780   2.889 -0.3619  0.8585 -0.6292
   76MOL0     C10390  14.128   5.842   2.870 -0.2824 -0.1162  0.6597
   76MOL0     C10391  14.219   5.817   2.992 -0.9489 -0.0030  0.1204
   76MOL0     C10392  14.351   5.881   2.968 -0.7532 -0.6998 -0.3363
   76MOL0     C10393  14.466   5.799   3.034  0.1785  0.3357 -0.4944
   76MOL0     C10394  14.599   5.833   2.957 -0.3174 -0.4719 -0.1748
   76MOL0    Cl10395  14.725   5.710   2.988  0.1545  0.0207 -0.2685
   76MOL0     C10396  13.459   5.771   2.876 -0.1188  0.3846  0.2613
   76MOL0     C10397  13.320   5.772   2.901 -0.8987  0.8008  0.3254
   76MOL0     O10398  13.144   5.878   3.241 -0.1292 -0.6505 -0.2987
   76MOL0     C10399  12.874   5.896   3.278  0.0612  0.6288 -0.8647
   76MOL0     C10400  12.737   5.904   3.292  0.6851 -0.8767 -0.5520
   76MOL0     N10401  11.978   5.720   3.508  0.4455 -0.3943 -0.2665
   76MOL0     N10402  11.861   5.683   3.558 -0.4425  0.1363 -0.0136
   76MOL0     C10403  10.780   5.437   3.835  0.1741 -0.7118 -0.1104
   76MOL0     C10404  10.674   5.349   3.855 -0.4351 -0.6275  0.1986
   76MOL0     C10405  10.265   5.186   3.917 -0.0408 -0.1174 -0.4565
   76MOL0     C10406  10.187   5.200   4.035  0.6744  0.4931 -0.8096
   76MOL0     C10407  10.060   5.144   4.049  0.0425  0.7147 -1.0841
   76MOL0     C10408  10.000   5.079   3.940  0.0617 -0.2015 -0.6220
   76MOL0     O10409   9.880   5.026   3.973 -0.4576  0.1934  0.1507
   76MOL0     C10410   9.797   4.955   3.882 -0.5335 -0.4202 -0.0059
   76MOL0     C10411   9.665   4.933   3.957 -0.0450 -0.2014  0.5733
   76MOL0     C10412   9.604   5.062   4.019  0.0047  0.5531  0.0132
   76MOL0     C10413   9.469   5.097   3.946 -0.5274  0.1033 -0.6512
   76MOL0     C10414   9.489   5.118   3.804  0.1619 -0.5497  0.4083
   76MOL0     C10415   9.505   5.129   3.683  0.6616 -0.3397  0.1923
   76MOL0     C10416  10.071   5.070   3.817 -0.1946 -0.3247  0.0885
   76MOL0     C10417  10.201   5.119   3.803 -0.8844 -0.4384  0.1976
   76MOL0     C10418  10.286   5.080   3.681 -0.4476 -0.3199  0.2944
   76MOL0     H10419  10.469   5.442   3.609  1.0863  0.0152 -1.7722
   76MOL0     H10420  10.652   5.609   3.567 -1.1126 -1.9983 -1.9112
   76MOL0     H10421  10.836   5.772   3.587 -1.2825 -0.9167  0.3532
   76MOL0     H10422  10.887   5.623   3.511  0.5077 -0.0197 -0.6336
   76MOL0     H10423  11.073   5.783   3.702  0.0460  0.6012  0.1894
   76MOL0     H10424  11.124   5.664   3.579  0.6033 -1.1183  0.4930
   76MOL0     H10425  11.065   5.812   3.388  0.9857  2.4240 -1.5684
   76MOL0     H10426  11.004   5.933   3.504 -1.5355 -1.2142  2.7453
   76MOL0     H10427  11.227   5.989   3.404 -2.0054  0.7827  1.5366
   76MOL0     H10428  11.246   5.973   3.572  3.2153  1.7242 -0.7625
   76MOL0     H10429  11.290   5.741   3.360  0.1200  2.0979 -1.5139
   76MOL0     H10430  11.336   5.727   3.535  0.4895  1.6205  1.4187
   76MOL0     H10431  11.537   5.806   3.352  3.1339  2.3042  0.6164
   76MOL0     H10432  11.444   5.953   3.379  1.2615 -0.3085 -0.4544
   76MOL0     H10433  11.486   5.919   3.637  0.5463 -1.2973  1.8080
   76MOL0     H10434  11.604   5.987   3.526  1.8114 -0.7363  2.4570
   76MOL0     H10435  11.662   5.823   3.708  2.2758 -0.4681 -0.6007
   76MOL0     H10436  11.603   5.691   3.625  0.1026  0.4167 -0.8062
   76MOL0     H10437  11.797   5.986   3.466 -1.5481 -0.6635 -1.3380
   76MOL0     H10438  12.024   6.035   3.380 -0.3917 -0.0886 -1.5208
   76MOL0     H10439  12.051   5.893   3.278 -1.9978 -5.6637  2.4966
   76MOL0     H10440  12.235   6.035   3.441 -0.2327 -0.0901 -1.6422
   76MOL0     H10441  12.227   5.861   3.510  1.9470 -1.8345 -1.0509
   76MOL0     H10442  12.297   5.779   3.293  1.6920  0.1574 -0.2559
   76MOL0     H10443  12.264   5.940   3.224  2.0476 -0.1290 -0.7690
   76MOL0     H10444  12.462   6.034   3.319  0.8791  0.0078  1.6013
   76MOL0     H10445  12.502   5.889   3.413 -2.8141 -0.4288  2.1788
   76MOL0     H10446  12.636   5.784   2.995 -1.0446  0.6406 -0.3067
   76MOL0     H10447  12.803   5.738   2.867  2.2684 -2.7221 -2.6436
   76MOL0     H10448  12.954   5.683   2.924  0.7441  0.8099  0.0010
   76MOL0     H10449  12.946   5.850   2.868  1.6702 -0.7929  1.4093
   76MOL0     H10450  13.328   5.711   3.233 -1.5190 -1.4219 -0.4168
   76MOL0     H10451  13.583   5.695   3.173  0.7358  1.6861 -0.1190
   76MOL0     H10452  13.735   5.856   3.116 -1.0542 -0.4238  0.5316
   76MOL0     H10453  13.819   5.692   3.094 -1.2016 -3.0303 -4.2287
   76MOL0     H10454  13.859   5.954   2.936 -1.2164 -0.1610 -0.8345
   76MOL0     H10455  13.964   5.904   3.070 -0.0467 -0.2676 -1.3271
   76MOL0     H10456  13.942   5.785   2.790  0.8523 -0.5238 -1.3170
   76MOL0     H10457  14.001   5.675   2.920 -0.4622  1.8478  3.2374
   76MOL0     H10458  14.124   5.951   2.860  0.8427 -0.2412 -2.7848
   76MOL0     H10459  14.172   5.796   2.781 -1.2784  0.1252  0.0261
   76MOL0     H10460  14.177   5.858   3.085  0.8539  1.9725  0.1331
   76MOL0     H10461  14.219   5.710   3.010  2.8331 -0.1478 -0.0796
   76MOL0     H10462  14.350   5.982   3.009 -1.4711 -0.8503  0.0352
   76MOL0     H10463  14.376   5.889   2.862  1.0678 -2.7102 -0.1247
   76MOL0     H10464  14.450   5.690   3.027  2.2858 -0.1779  1.4581
   76MOL0     H10465  14.464   5.818   3.141 -1.7493 -2.9143  0.1982
   76MOL0     H10466  14.634   5.931   2.992 -1.6079  1.5189 -3.9232
   76MOL0     H10467  14.591   5.839   2.848 -0.8411 -2.4758 -0.2974
   76MOL0     H10468  13.503   5.796   2.780 -0.0248 -1.6362 -0.2534
   76MOL0     H10469  13.253   5.783   2.817 -0.7213  2.2157  0.3452
   76MOL0     H10470  12.935   5.925   3.363 -0.7303 -0.6545  0.1611
   76MOL0     H10471  12.701   5.949   3.384  1.1105  0.6934 -1.1264
   76MOL0     H10472  10.866   5.439   3.902  0.5251  0.9416 -0.5639
   76MOL0     H10473  10.679   5.272   3.932  1.7934 -2.6110 -1.7612
   76MOL0     H10474  10.229   5.243   4.125  0.2654  2.7672 -1.6102
   76MOL0     H10475  10.015   5.147   4.148  1.4568  1.3583 -0.4329
   76MOL0     H10476   9.794   5.003   3.784  1.3470 -0.0585  0.0950
   76MOL0     H10477   9.833   4.854   3.860 -2.6097 -0.4818 -4.1244
   76MOL0     H10478   9.675   4.866   4.043 -1.4459 -1.1187  0.0553
   76MOL0     H10479   9.591   4.887   3.891 -1.6624  1.8972  0.8166
   76MOL0     H10480   9.598   5.029   4.123 -3.0941 -1.0912 -0.5695
   76MOL0     H10481   9.668   5.151   4.021 -0.0652  0.5987  1.7710
   76MOL0     H10482   9.413   5.180   3.990 -1.2776 -0.3365 -0.7582
   76MOL0     H10483   9.402   5.011   3.960 -0.3511 -0.2917 -2.0585
   76MOL0     H10484   9.507   5.147   3.578  0.6524 -0.2166  0.2126
   76MOL0     H10485  10.025   5.017   3.735  1.7419 -1.2845 -0.4216
   76MOL0     H10486  10.290   5.168   3.615 -2.7883 -1.2998 -1.3051
   76MOL0     H10487  10.383   5.036   3.705  1.3029  3.6152  1.2189
   76MOL0     H10488  10.225   5.011   3.621 -3.7530  0.5576  2.3672
   77MOL0     O10489   7.830   1.517  10.851 -0.2344  1.0401  0.0166
   77MOL0     C10490   7.823   1.634  10.841 -0.5505 -1.3180  0.2469
   77MOL0     O10491   7.922   1.721  10.804  0.4233  0.1264  0.4278
   77MOL0     C10492   8.049   1.676  10.810 -0.1334  0.0850 -1.2896
   77MOL0     C10493   8.091   1.604  10.700  0.1950 -0.6054 -0.2223
   77MOL0     C10494   8.214   1.549  10.710  0.1687 -0.6038  0.5170
   77MOL0     C10495   8.294   1.542  10.821 -0.5352 -0.5111  0.3675
   77MOL0     O10496   8.420   1.483  10.821  0.1839 -0.5216 -0.5210
   77MOL0     C10497   8.525   1.529  10.736 -0.6718  0.5830  0.7608
   77MOL0     C10498   8.563   1.421  10.627  0.6609 -0.4281  0.0160
   77MOL0     C10499   8.650   1.306  10.681  0.5199 -1.0552  0.5208
   77MOL0     C10500   8.762   1.271  10.577 -0.3017 -0.8291 -0.4160
   77MOL0     C10501   8.825   1.136  10.584 -1.2128 -0.4454 -0.7445
   77MOL0     C10502   8.901   1.123  10.718 -0.3229  0.1553  1.1036
   77MOL0     C10503   8.997   1.002  10.716 -0.4438  0.4955  0.7083
   77MOL0     C10504   9.018   0.963  10.861  0.5994  0.2161  0.9290
   77MOL0     N10505   9.092   0.835  10.879  1.4497 -0.6147 -0.1288
   77MOL0     C10506   9.068   0.728  10.793 -0.1660  0.2251 -0.4042
   77MOL0     C10507   9.180   0.658  10.813 -0.0477  0.4498  0.9871
   77MOL0     C10508   9.230   0.532  10.733  0.2993  0.1677 -0.9901
   77MOL0     C10509   9.164   0.403  10.783 -0.0642  1.0768 -0.2258
   77MOL0     C10510   9.225   0.346  10.913 -0.2131  0.0432 -0.0909
   77MOL0     C10511   9.169   0.208  10.944  1.3098  1.0580 -0.2696
   77MOL0     O10512   9.264   0.126  11.016  0.2986  0.2197 -0.5745
   77MOL0     C10513   9.258  -0.008  10.993  0.1696 -0.4283  1.3134
   77MOL0     C10514   9.388  -0.064  10.991 -0.6378  0.7204 -0.7885
   77MOL0     C10515   9.401  -0.206  10.988 -0.1347 -0.2010 -0.2428
   77MOL0     C10516   9.534  -0.265  11.005  0.8595 -0.2603  0.4981
   77MOL0     C10517   9.286  -0.288  10.995  0.2755 -0.4557 -0.4036
   77MOL0     C10518   9.288  -0.441  11.019 -0.3658  0.1089  0.7769
   77MOL0     O10519   9.167  -0.490  10.989 -0.1357  0.7403 -0.7106
   77MOL0     C10520   9.143  -0.626  11.005 -0.2756  0.8197 -0.4872
   77MOL0     C10521   9.190  -0.696  11.118  0.5059  0.2775 -0.6877
   77MOL0     C10522   9.161  -0.834  11.127 -0.2064 -0.7971 -1.1290
   77MOL0     C10523   9.079  -0.903  11.034  0.3672 -0.2778  0.1011
   77MOL0     O10524   9.043  -1.031  11.049 -0.9093 -0.4207 -0.3649
   77MOL0     C10525   9.120  -1.114  11.140  0.5314  0.0739 -0.0341
   77MOL0     C10526   9.100  -1.258  11.089  0.3195 -0.1539 -0.1574
   77MOL0     C10527   9.142  -1.350  11.204 -0.1697  0.3880  0.3960
   77MOL0     C10528   9.120  -1.503  11.172 -0.0398  0.1056  0.0628
   77MOL0     C10529   9.186  -1.588  11.274  0.4225 -0.4101  0.0406
   77MOL0     C10530   9.155  -1.732  11.261  0.1671  0.2047  0.3462
   77MOL0     C10531   9.260  -1.826  11.324 -0.1498 -0.2885  0.0294
   77MOL0     C10532   9.290  -1.947  11.236  0.3266 -0.8238 -0.4952
   77MOL0    Cl10533   9.439  -2.031  11.303  0.1027 -0.3899  0.3999
   77MOL0     C10534   9.038  -0.834  10.922 -0.1137 -0.9030 -0.9402
   77MOL0     C10535   9.065  -0.699  10.911 -0.1412 -0.5007  0.2474
   77MOL0     O10536   9.386  -0.508  11.036 -0.7707 -0.1715 -0.2112
   77MOL0     C10537   9.161  -0.229  10.969  0.2482  0.3879 -0.2937
   77MOL0     C10538   9.145  -0.091  10.980 -0.5730  0.0896  0.4265
   77MOL0     N10539   9.263   0.716  10.902  0.3601 -0.3982  0.4699
   77MOL0     N10540   9.201   0.815  10.954 -0.4349  0.1077 -0.2776
   77MOL0     C10541   8.262   1.618  10.936  0.3585  0.2157 -0.0691
   77MOL0     C10542   8.128   1.684  10.928  0.0845 -0.0272 -1.5402
   77MOL0     C10543   7.691   1.680  10.837  0.5021 -0.5108  0.1894
   77MOL0     C10544   7.615   1.664  10.949  0.2978 -0.0417 -0.3099
   77MOL0     C10545   7.479   1.703  10.949  0.3625  0.9188 -0.3588
   77MOL0     C10546   7.415   1.752  10.832 -0.2429 -0.0571 -0.6385
   77MOL0     O10547   7.289   1.794  10.813 -0.7928 -0.7123 -0.7534
   77MOL0     C10548   7.189   1.711  10.874  0.9117 -0.2545 -0.7374
   77MOL0     C10549   7.112   1.796  10.972 -0.2947  0.9927  0.0403
   77MOL0     C10550   7.024   1.911  10.900  0.1834 -0.0816 -0.3246
   77MOL0     C10551   6.873   1.909  10.924 -0.1883 -0.4451 -0.0581
   77MOL0     C10552   6.819   1.791  10.862  0.5659 -0.5933  0.0934
   77MOL0     C10553   6.778   1.695  10.805 -0.0622  0.5732 -0.8252
   77MOL0     C10554   7.499   1.771  10.720  0.3740 -0.2489 -0.7546
   77MOL0     C10555   7.633   1.730  10.720 -0.0635 -0.6792  0.3929
   77MOL0     C10556   7.709   1.747  10.588  0.6696 -0.8835  0.7026
   77MOL0     H10557   8.015   1.596  10.623 -1.0975  0.0246  0.9464
   77MOL0     H10558   8.244   1.497  10.619 -1.1662  1.1895 -1.0164
   77MOL0     H10559   8.612   1.559  10.795  0.2181 -0.4425 -0.0031
   77MOL0     H10560   8.493   1.618  10.681 -0.9734  0.2281  0.3559
   77MOL0     H10561   8.470   1.384  10.583 -0.5635  2.8317 -0.3827
   77MOL0     H10562   8.606   1.485  10.549  0.2085 -0.2820 -0.1141
   77MOL0     H10563   8.695   1.342  10.774  1.3016 -1.7296  0.4139
   77MOL0     H10564   8.583   1.221  10.696 -1.2800 -0.1995 -1.9652
   77MOL0     H10565   8.720   1.296  10.480 -2.7122  3.0494  1.3792
   77MOL0     H10566   8.842   1.346  10.578  0.6586 -1.8138  0.7839
   77MOL0     H10567   8.889   1.109  10.500  2.4369 -3.0531  2.5149
   77MOL0     H10568   8.742   1.064  10.589 -1.6820  0.1444  0.3814
   77MOL0     H10569   8.963   1.212  10.727  1.8621 -1.2512  0.6392
   77MOL0     H10570   8.834   1.110  10.804 -2.0018  1.5305  0.0635
   77MOL0     H10571   9.099   1.016  10.679 -1.1052 -0.8344 -1.8458
   77MOL0     H10572   8.953   0.923  10.653 -0.3094  0.6840  0.3778
   77MOL0     H10573   9.070   1.039  10.921  0.0290  1.1427  0.2600
   77MOL0     H10574   8.915   0.942  10.891 -0.7839  0.4181 -3.0651
   77MOL0     H10575   8.984   0.710  10.726  0.8203 -1.2101 -1.3172
   77MOL0     H10576   9.339   0.526  10.740  0.2820 -0.1733 -0.9918
   77MOL0     H10577   9.200   0.544  10.628 -0.1364 -0.4610 -0.9413
   77MOL0     H10578   9.055   0.410  10.796 -0.1499 -1.1792  0.8828
   77MOL0     H10579   9.181   0.337  10.697  3.6876  0.0469  1.1188
   77MOL0     H10580   9.333   0.344  10.895  0.5112  2.3751  3.0662
   77MOL0     H10581   9.202   0.403  11.004  1.5657  0.3936  0.1808
   77MOL0     H10582   9.076   0.222  11.000  1.9861 -0.6690  1.3982
   77MOL0     H10583   9.133   0.156  10.855 -1.9234 -1.2512  2.1247
   77MOL0     H10584   9.478  -0.007  11.010 -0.6863 -0.1777  3.1446
   77MOL0     H10585   9.601  -0.178  11.002 -2.3436  2.4536  0.9716
   77MOL0     H10586   9.556  -0.330  10.920 -2.3516 -0.3238 -0.4138
   77MOL0     H10587   9.540  -0.310  11.104 -1.9601 -0.6581  0.5658
   77MOL0     H10588   9.245  -0.643  11.196  1.6887  2.6200 -2.9570
   77MOL0     H10589   9.203  -0.872  11.219  1.9220  2.9129 -0.3698
   77MOL0     H10590   9.226  -1.090  11.130  0.5953 -0.0399  0.3580
   77MOL0     H10591   9.086  -1.095  11.242 -0.2228 -0.1481 -0.2388
   77MOL0     H10592   8.997  -1.285  11.064 -0.8805  0.9376  3.0218
   77MOL0     H10593   9.170  -1.267  11.006  0.0151  0.4096 -0.4791
   77MOL0     H10594   9.084  -1.316  11.290  0.1965  1.8617  0.0948
   77MOL0     H10595   9.250  -1.340  11.222 -0.6168  1.5347  2.9458
   77MOL0     H10596   9.164  -1.525  11.074  0.8037 -1.1344  0.6896
   77MOL0     H10597   9.014  -1.527  11.164 -0.0731  0.0633  0.5826
   77MOL0     H10598   9.294  -1.572  11.262  0.1905 -0.0591 -1.8787
   77MOL0     H10599   9.156  -1.562  11.376 -1.6457 -0.7731 -0.4439
   77MOL0     H10600   9.149  -1.756  11.154  1.8322 -2.9834  0.8434
   77MOL0     H10601   9.051  -1.740  11.295 -0.3821  1.9173 -0.7629
   77MOL0     H10602   9.231  -1.867  11.421 -0.6236 -1.8406 -0.7427
   77MOL0     H10603   9.355  -1.776  11.345 -1.0505  0.9798  1.2851
   77MOL0     H10604   9.313  -1.916  11.133  0.3430 -0.0588 -0.2654
   77MOL0     H10605   9.209  -2.020  11.244  1.0424 -1.5684  0.0475
   77MOL0     H10606   8.970  -0.872  10.847 -2.5856  2.2121 -0.4891
   77MOL0     H10607   9.030  -0.648  10.823  2.6782  0.3852 -0.4747
   77MOL0     H10608   9.071  -0.286  10.953  0.8333 -0.3025 -1.2061
   77MOL0     H10609   9.048  -0.043  10.967 -0.4739  0.1442 -0.1270
   77MOL0     H10610   8.323   1.619  11.025  1.8825 -0.7105 -1.0644
   77MOL0     H10611   8.082   1.749  11.002  0.6401 -0.2144 -1.0163
   77MOL0     H10612   7.663   1.626  11.038 -0.8650 -2.9873 -0.8083
   77MOL0     H10613   7.422   1.702  11.042  0.2285  2.6044 -0.3898
   77MOL0     H10614   7.112   1.664  10.813 -0.7381 -0.6344  1.5215
   77MOL0     H10615   7.235   1.632  10.933 -1.0031  0.0981  1.3475
   77MOL0     H10616   7.187   1.834  11.043  1.8780 -2.8621  0.0625
   77MOL0     H10617   7.060   1.721  11.032  1.2907 -1.5059 -1.5600
   77MOL0     H10618   7.060   1.998  10.956 -0.3228 -0.6329  0.8901
   77MOL0     H10619   7.042   1.923  10.793 -4.6335 -0.6055 -1.3751
   77MOL0     H10620   6.811   1.991  10.885  0.5028 -0.3415 -0.9729
   77MOL0     H10621   6.846   1.912  11.030 -1.1629 -0.2864 -0.2958
   77MOL0     H10622   6.725   1.606  10.777  1.0714 -0.0751 -0.9291
   77MOL0     H10623   7.462   1.806  10.624  0.5826  2.4414  0.0860
   77MOL0     H10624   7.795   1.814  10.599  0.7145 -1.2323  2.9319
   77MOL0     H10625   7.745   1.647  10.560  1.7563  0.0050 -1.3160
   77MOL0     H10626   7.658   1.791  10.502  2.6641 -0.8778 -0.5444
   78MOL0     O10627   5.321   8.986   4.609  0.6962  0.3004 -0.3666
   78MOL0     C10628   5.284   8.980   4.726  0.6125  0.2991  0.8914
   78MOL0     O10629   5.356   9.032   4.830  0.1678  0.6875  0.2658
   78MOL0     C10630   5.461   9.107   4.811 -0.1055 -0.3545  0.2754
   78MOL0     C10631   5.473   9.199   4.711  0.3393 -0.1845  0.1586
   78MOL0     C10632   5.595   9.264   4.695  0.1980  0.1101 -0.3807
   78MOL0     C10633   5.705   9.243   4.776 -0.7163  0.7627 -0.1518
   78MOL0     O10634   5.830   9.296   4.758 -0.0610  0.5886 -0.5132
   78MOL0     C10635   5.897   9.241   4.643  0.2126 -0.3314  0.3868
   78MOL0     C10636   6.032   9.304   4.647  0.2752 -0.1341 -0.2653
   78MOL0     C10637   6.125   9.203   4.576 -0.0640  0.1613 -0.2017
   78MOL0     C10638   6.254   9.265   4.568  0.1179  0.1201  0.7115
   78MOL0     C10639   6.350   9.170   4.490 -0.3965  0.4156 -0.7297
   78MOL0     C10640   6.487   9.231   4.486  0.0671 -0.0044 -0.1207
   78MOL0     C10641   6.589   9.134   4.421  0.0274 -0.5309  0.0597
   78MOL0     C10642   6.725   9.218   4.422  1.0462 -0.7902  0.2147
   78MOL0     N10643   6.847   9.145   4.385  0.1271 -0.3240  0.1582
   78MOL0     C10644   6.945   9.097   4.468  0.5832 -0.0673 -0.0962
   78MOL0     C10645   7.044   9.054   4.388  0.6725 -0.0809  0.2815
   78MOL0     C10646   7.164   8.978   4.435 -0.2979 -0.0066 -0.3783
   78MOL0     C10647   7.168   8.836   4.380 -0.1747 -0.5569 -0.7768
   78MOL0     C10648   7.221   8.819   4.231  0.2568  0.2326 -0.2791
   78MOL0     C10649   7.373   8.832   4.213 -0.0551 -0.3130  0.4220
   78MOL0     O10650   7.458   8.711   4.234  0.1959 -0.6361  0.4963
   78MOL0     C10651   7.596   8.712   4.219  0.2294  0.2149 -0.3387
   78MOL0     C10652   7.673   8.824   4.182 -0.8893  0.4506  0.1922
   78MOL0     C10653   7.816   8.818   4.181 -0.1072  0.1816  0.4526
   78MOL0     C10654   7.880   8.952   4.157  0.2187  0.5235 -0.9784
   78MOL0     C10655   7.881   8.695   4.209 -0.1708  0.6858 -0.4038
   78MOL0     C10656   8.022   8.679   4.198  0.2909 -0.2178 -0.2998
   78MOL0     O10657   8.103   8.751   4.281 -0.5430  0.0016  1.3171
   78MOL0     C10658   8.235   8.719   4.298 -0.5935  0.0560  0.2414
   78MOL0     C10659   8.294   8.595   4.295 -0.0520  0.3587 -0.4515
   78MOL0     C10660   8.436   8.579   4.335  0.6414 -0.1977  0.2277
   78MOL0     C10661   8.510   8.686   4.380 -0.6882 -0.3403  0.5129
   78MOL0     O10662   8.631   8.680   4.430 -0.1261 -0.2005 -0.1732
   78MOL0     C10663   8.710   8.565   4.404 -0.1460  0.0869 -0.1204
   78MOL0     C10664   8.836   8.584   4.483 -0.7508  1.8609  0.2552
   78MOL0     C10665   8.918   8.449   4.486  0.4683  0.2852 -0.3223
   78MOL0     C10666   8.956   8.402   4.348 -1.1798  0.6855  0.7255
   78MOL0     C10667   9.036   8.510   4.268  0.3405  0.9039 -0.1901
   78MOL0     C10668   9.125   8.439   4.157  0.0722  0.2337 -0.0257
   78MOL0     C10669   9.181   8.531   4.052 -0.1344  0.8180 -0.7029
   78MOL0     C10670   9.309   8.477   3.989 -0.5483  0.6443 -0.2066
   78MOL0    Cl10671   9.445   8.433   4.105 -0.4075 -0.0017  0.0974
   78MOL0     C10672   8.453   8.815   4.369  1.0533 -0.3405  0.4089
   78MOL0     C10673   8.319   8.825   4.326 -0.9333  0.3655 -0.1879
   78MOL0     O10674   8.059   8.586   4.123 -0.3455  0.0341 -0.6935
   78MOL0     C10675   7.810   8.578   4.250  0.0161 -0.4712 -0.2887
   78MOL0     C10676   7.667   8.597   4.254  0.7389  0.1257  0.0087
   78MOL0     N10677   7.007   9.072   4.261  0.1112 -0.2322  0.1882
   78MOL0     N10678   6.889   9.134   4.261  0.5351  0.3686  0.8066
   78MOL0     C10679   5.689   9.147   4.885  0.2985 -0.2268  0.0200
   78MOL0     C10680   5.566   9.073   4.896 -0.0210 -0.0506 -0.2383
   78MOL0     C10681   5.140   8.939   4.753  0.4150  0.2739  0.1595
   78MOL0     C10682   5.088   8.969   4.873  0.9747  0.5215 -0.0541
   78MOL0     C10683   4.950   8.950   4.888 -0.4106 -0.1079  0.0675
   78MOL0     C10684   4.866   8.885   4.793 -0.1685  0.2267 -0.1570
   78MOL0     O10685   4.733   8.872   4.814  0.2503 -0.4307 -0.1031
   78MOL0     C10686   4.654   8.978   4.871 -0.2729 -0.1546  0.3487
   78MOL0     C10687   4.522   8.917   4.908  0.3087  0.4317 -0.8792
   78MOL0     C10688   4.537   8.811   5.026 -0.3333  0.8049 -0.2454
   78MOL0     C10689   4.419   8.718   5.045 -0.3145  0.7452 -0.0128
   78MOL0     C10690   4.407   8.625   4.930  0.0800  0.7988 -0.3117
   78MOL0     C10691   4.390   8.556   4.828  0.0052  0.6287  0.2164
   78MOL0     C10692   4.925   8.832   4.681 -0.9867 -0.8190  0.2871
   78MOL0     C10693   5.059   8.866   4.661  0.5159 -0.4646  0.7213
   78MOL0     C10694   5.117   8.807   4.532  0.6250  0.3570 -0.0214
   78MOL0     H10695   5.388   9.232   4.652  1.0485 -1.7353 -1.8459
   78MOL0     H10696   5.609   9.347   4.626 -1.1869  0.0518 -0.7581
   78MOL0     H10697   5.844   9.259   4.550  0.7821  0.8607  0.2791
   78MOL0     H10698   5.908   9.133   4.655  0.2261 -0.4631 -0.7112
   78MOL0     H10699   6.040   9.399   4.593  2.3799 -1.4186 -2.4299
   78MOL0     H10700   6.057   9.304   4.753 -3.7155  0.8324  0.8659
   78MOL0     H10701   6.135   9.106   4.626 -0.3890  0.0030 -0.4396
   78MOL0     H10702   6.080   9.191   4.477  0.7563  1.6331 -0.7912
   78MOL0     H10703   6.239   9.364   4.524 -0.5555  0.3676  1.4733
   78MOL0     H10704   6.295   9.279   4.668 -0.9852  1.5138  0.9886
   78MOL0     H10705   6.318   9.149   4.388  2.9129  1.0478 -2.0522
   78MOL0     H10706   6.364   9.070   4.532  0.9830  0.1433 -1.7659
   78MOL0     H10707   6.470   9.324   4.431 -5.5553  0.4982  1.8919
   78MOL0     H10708   6.518   9.261   4.587  2.0057 -0.5986 -0.4934
   78MOL0     H10709   6.561   9.102   4.321  2.0790  0.3749 -0.8570
   78MOL0     H10710   6.597   9.045   4.484  3.0650 -0.5218 -0.1739
   78MOL0     H10711   6.706   9.298   4.349 -1.6819 -3.3818 -2.2060
   78MOL0     H10712   6.739   9.271   4.517 -0.6824  1.2634 -0.5796
   78MOL0     H10713   6.940   9.089   4.576 -2.5062  0.8958 -0.0527
   78MOL0     H10714   7.159   8.978   4.544  2.6442 -0.7845 -0.1706
   78MOL0     H10715   7.255   9.032   4.408 -0.4711  2.2084  2.8731
   78MOL0     H10716   7.229   8.780   4.451  1.0783  1.4087 -0.2353
   78MOL0     H10717   7.064   8.803   4.388 -0.7978  1.3232 -0.7433
   78MOL0     H10718   7.184   8.727   4.184 -1.3720  0.8816 -0.3136
   78MOL0     H10719   7.171   8.902   4.181  0.4131 -0.0011 -0.8356
   78MOL0     H10720   7.393   8.877   4.115 -0.0879  2.6975  1.6764
   78MOL0     H10721   7.404   8.904   4.289  2.3291  0.3327 -1.0613
   78MOL0     H10722   7.619   8.916   4.162 -0.4967  0.5118 -0.6186
   78MOL0     H10723   7.953   8.936   4.076  1.2510  1.2314 -0.2224
   78MOL0     H10724   7.925   8.995   4.247  1.8745  1.5219 -2.2272
   78MOL0     H10725   7.809   9.018   4.107 -1.0409 -0.2813 -0.3175
   78MOL0     H10726   8.245   8.504   4.261 -0.5367 -0.1065  1.3983
   78MOL0     H10727   8.481   8.480   4.328 -0.0432 -0.5327  0.4617
   78MOL0     H10728   8.659   8.472   4.430  0.0170 -0.5820 -2.0658
   78MOL0     H10729   8.740   8.552   4.300  1.1009  2.1350 -0.0696
   78MOL0     H10730   8.913   8.655   4.452 -0.1039  0.7654 -0.7903
   78MOL0     H10731   8.811   8.603   4.587 -3.0789 -2.7434  0.7997
   78MOL0     H10732   8.861   8.373   4.540  1.0219  2.3871  3.6724
   78MOL0     H10733   9.012   8.466   4.540  0.9467  0.0831 -1.0821
   78MOL0     H10734   8.874   8.361   4.288  1.1594 -1.9652 -0.9002
   78MOL0     H10735   9.013   8.312   4.372 -0.4277  1.0791  0.4445
   78MOL0     H10736   8.964   8.587   4.240 -0.6325  0.4614  0.9541
   78MOL0     H10737   9.100   8.564   4.338  1.5521 -0.6837 -0.0292
   78MOL0     H10738   9.063   8.371   4.097 -0.0659  1.2211 -1.0345
   78MOL0     H10739   9.198   8.380   4.214  1.3178  2.7336  1.1254
   78MOL0     H10740   9.222   8.623   4.096  1.3600  1.3696 -3.0328
   78MOL0     H10741   9.099   8.557   3.984 -1.2094  2.5078  1.1155
   78MOL0     H10742   9.359   8.553   3.929 -0.4037  0.1306 -0.7472
   78MOL0     H10743   9.289   8.392   3.923  0.3611  0.6887 -0.5636
   78MOL0     H10744   8.504   8.908   4.390  2.2535 -0.9048  0.0450
   78MOL0     H10745   8.278   8.925   4.321  0.0919  0.8292  0.4708
   78MOL0     H10746   7.846   8.479   4.278 -1.4162 -0.8395  0.2954
   78MOL0     H10747   7.603   8.525   4.305  2.5357 -1.6875 -0.1818
   78MOL0     H10748   5.776   9.121   4.945  1.6098  0.0937 -1.6590
   78MOL0     H10749   5.565   9.000   4.977 -2.5566  0.3960  0.2349
   78MOL0     H10750   5.142   9.010   4.957 -0.7642  1.7690  0.5052
   78MOL0     H10751   4.923   8.962   4.992 -1.2908  2.6545 -0.4019
   78MOL0     H10752   4.705   9.024   4.956  0.5057  1.6388 -1.0216
   78MOL0     H10753   4.640   9.056   4.795 -1.0539  2.4488  2.9816
   78MOL0     H10754   4.486   8.877   4.813 -0.6709  1.2731 -0.8840
   78MOL0     H10755   4.445   8.988   4.942  2.9119  2.6790  0.7906
   78MOL0     H10756   4.627   8.748   5.020  0.5536  2.1269 -1.3234
   78MOL0     H10757   4.535   8.861   5.123 -1.4267  1.7351 -0.7250
   78MOL0     H10758   4.327   8.776   5.056 -0.5396  0.4993 -0.5850
   78MOL0     H10759   4.444   8.662   5.135 -1.0586 -0.1176 -0.3355
   78MOL0     H10760   4.370   8.493   4.744 -0.0737  0.7398  0.1533
   78MOL0     H10761   4.870   8.764   4.618 -0.7941 -0.7596  0.0534
   78MOL0     H10762   5.212   8.756   4.550 -1.1488 -3.5552 -0.7524
   78MOL0     H10763   5.045   8.738   4.487  1.0029 -0.5723  0.7482
   78MOL0     H10764   5.133   8.885   4.458  1.5361 -0.7095 -0.9831
   79MOL0     O10765   5.248   9.436   0.493  0.6742  0.3006  0.0406
   79MOL0     C10766   5.243   9.487   0.376 -0.4264  0.2783  0.0024
   79MOL0     O10767   5.140   9.479   0.297 -0.4491  0.4735  0.2342
   79MOL0     C10768   5.016   9.458   0.348 -0.2459  0.1475 -0.4880
   79MOL0     C10769   4.959   9.516   0.469  0.0229 -0.0491 -0.0543
   79MOL0     C10770   4.827   9.480   0.510  0.9454 -0.2757  1.1108
   79MOL0     C10771   4.759   9.379   0.439  0.9812  0.1929  0.1821
   79MOL0     O10772   4.638   9.326   0.478  0.7039 -0.1528 -0.4840
   79MOL0     C10773   4.597   9.361   0.611  1.3927 -0.5124  0.5552
   79MOL0     C10774   4.474   9.274   0.655  0.1662 -0.1889  0.0017
   79MOL0     C10775   4.532   9.135   0.687  0.4249  0.3146  0.2840
   79MOL0     C10776   4.415   9.040   0.731  0.2495 -0.5593  0.2778
   79MOL0     C10777   4.447   8.890   0.747 -0.1715 -0.2838 -0.5062
   79MOL0     C10778   4.322   8.805   0.765  0.2118 -0.0254 -0.1524
   79MOL0     C10779   4.367   8.681   0.846 -0.4574  0.5177  0.0353
   79MOL0     C10780   4.246   8.589   0.845 -0.5123 -1.1399  0.3236
   79MOL0     N10781   4.263   8.475   0.932 -0.2440 -0.0774 -0.3963
   79MOL0     C10782   4.324   8.364   0.892 -0.1793 -0.3346  0.2567
   79MOL0     C10783   4.323   8.291   1.012 -0.3565  0.4567 -0.5122
   79MOL0     C10784   4.401   8.173   1.050  1.2830 -0.2821 -0.1121
   79MOL0     C10785   4.541   8.206   1.082 -0.4987  0.8866  0.0078
   79MOL0     C10786   4.634   8.272   0.974 -0.4606  0.5873 -0.0865
   79MOL0     C10787   4.782   8.238   0.993 -0.5195  0.0718  0.6103
   79MOL0     O10788   4.856   8.268   0.868 -0.0377  0.2837  0.3226
   79MOL0     C10789   4.989   8.224   0.861  0.4610  0.0981 -0.1844
   79MOL0     C10790   5.050   8.212   0.733 -0.0226 -0.0082  0.6022
   79MOL0     C10791   5.184   8.171   0.717  0.0684  0.1947 -0.2590
   79MOL0     C10792   5.221   8.128   0.583 -0.0090  0.5895  0.5445
   79MOL0     C10793   5.261   8.138   0.829 -0.1488  0.1871 -0.6864
   79MOL0     C10794   5.393   8.077   0.823 -0.1933 -0.3711 -0.1561
   79MOL0     O10795   5.400   7.940   0.854  0.2613 -0.3791  0.0999
   79MOL0     C10796   5.509   7.867   0.815  0.0218  0.0303  0.3462
   79MOL0     C10797   5.599   7.900   0.707  0.1071 -0.1579  1.0268
   79MOL0     C10798   5.719   7.827   0.689 -0.4887  0.8387 -0.5594
   79MOL0     C10799   5.754   7.717   0.771  0.4268 -0.0229 -0.0392
   79MOL0     O10800   5.879   7.649   0.746  0.2409  0.1449 -0.5925
   79MOL0     C10801   5.957   7.644   0.857  0.1875 -0.1534  0.2319
   79MOL0     C10802   6.060   7.755   0.870  0.1504 -0.4032  0.1677
   79MOL0     C10803   6.160   7.750   0.758 -0.2989  0.1411  0.8135
   79MOL0     C10804   6.304   7.707   0.798  0.0191  0.2146 -0.0085
   79MOL0     C10805   6.379   7.789   0.910  0.5723 -0.2841 -0.3753
   79MOL0     C10806   6.415   7.933   0.867 -0.5902 -0.8118  0.1161
   79MOL0     C10807   6.491   8.013   0.979 -0.3911  0.4612 -0.4959
   79MOL0     C10808   6.519   8.149   0.918  0.2850 -0.0085 -0.0664
   79MOL0    Cl10809   6.609   8.246   1.042 -0.1111 -0.0915  0.3549
   79MOL0     C10810   5.668   7.681   0.872  1.1353 -0.3526  1.1126
   79MOL0     C10811   5.550   7.755   0.893  0.5618  0.2602 -1.2926
   79MOL0     O10812   5.488   8.152   0.792  0.1797 -0.1658  0.1129
   79MOL0     C10813   5.206   8.154   0.957 -0.3813  1.2808  0.2091
   79MOL0     C10814   5.071   8.195   0.974 -0.0347 -0.3263  0.4449
   79MOL0     N10815   4.268   8.362   1.119 -0.5359  0.5584 -0.5250
   79MOL0     N10816   4.232   8.477   1.071  0.4171  0.1216 -0.4402
   79MOL0     C10817   4.818   9.330   0.324 -1.1943  0.1228 -1.5113
   79MOL0     C10818   4.936   9.373   0.277 -0.6358  0.5349  0.5452
   79MOL0     C10819   5.355   9.577   0.341  0.4793 -0.6400  0.3274
   79MOL0     C10820   5.446   9.614   0.441 -0.2082  0.1208  0.3029
   79MOL0     C10821   5.566   9.678   0.418 -0.2358 -0.0206 -0.0431
   79MOL0     C10822   5.590   9.722   0.292 -0.5988 -0.2147  0.8140
   79MOL0     O10823   5.711   9.790   0.266 -0.8175  0.4534 -0.6731
   79MOL0     C10824   5.737   9.833   0.132 -0.0253  0.0613 -0.6050
   79MOL0     C10825   5.877   9.893   0.118 -0.8094 -0.3821 -1.0783
   79MOL0     C10826   5.899  10.037   0.171 -0.0586  0.4865 -0.0445
   79MOL0     C10827   5.793  10.131   0.130  0.9197 -1.2739  0.0989
   79MOL0     C10828   5.844  10.267   0.152 -0.2402  0.4902  0.1313
   79MOL0     C10829   5.876  10.376   0.175  0.9225 -0.0587  0.0294
   79MOL0     C10830   5.495   9.690   0.186  0.9257 -0.3259 -0.1709
   79MOL0     C10831   5.382   9.618   0.207 -0.7854  0.9591 -0.0155
   79MOL0     C10832   5.286   9.599   0.096  0.3108 -0.1717  0.0255
   79MOL0     H10833   5.009   9.588   0.533 -1.7558  0.5051  0.7856
   79MOL0     H10834   4.794   9.525   0.603  0.8636  0.3043  0.8124
   79MOL0     H10835   4.574   9.468   0.614  2.5435 -0.0759 -2.5262
   79MOL0     H10836   4.679   9.340   0.680  0.3420  0.5646  2.1753
   79MOL0     H10837   4.421   9.311   0.744  1.9341  0.3095  0.8916
   79MOL0     H10838   4.395   9.268   0.579 -1.9402  2.9866  1.6719
   79MOL0     H10839   4.588   9.099   0.601 -1.3533 -0.6323 -0.5368
   79MOL0     H10840   4.605   9.143   0.768  0.7707  0.6436 -0.0581
   79MOL0     H10841   4.382   9.079   0.828 -1.5018  1.0930 -0.9257
   79MOL0     H10842   4.331   9.053   0.662 -2.3179 -1.0017  3.0802
   79MOL0     H10843   4.514   8.873   0.831 -2.9844  1.5208  2.3064
   79MOL0     H10844   4.503   8.851   0.661  0.5053 -1.8042  0.5869
   79MOL0     H10845   4.247   8.863   0.819  0.1906  0.9069 -1.1341
   79MOL0     H10846   4.272   8.791   0.669 -2.8381  5.1726  0.3262
   79MOL0     H10847   4.393   8.715   0.946 -0.2652  1.1792 -0.2347
   79MOL0     H10848   4.449   8.635   0.790  0.2296  0.5818  0.9645
   79MOL0     H10849   4.158   8.644   0.879  1.0920  0.9697  1.3639
   79MOL0     H10850   4.230   8.548   0.745  1.7674 -2.0832  0.2887
   79MOL0     H10851   4.372   8.343   0.797  4.2550 -0.1439  2.2170
   79MOL0     H10852   4.389   8.098   0.972  2.1281  0.2201 -0.7447
   79MOL0     H10853   4.346   8.137   1.137  0.6457 -1.8895 -1.1471
   79MOL0     H10854   4.544   8.269   1.171  3.4001 -0.3533  0.9702
   79MOL0     H10855   4.591   8.113   1.109 -1.7334 -0.2078 -1.2778
   79MOL0     H10856   4.604   8.239   0.874 -1.3876  1.1497 -0.0088
   79MOL0     H10857   4.627   8.381   0.966  0.1770  0.5691 -0.9716
   79MOL0     H10858   4.838   8.291   1.071  0.3411  1.3341 -0.8076
   79MOL0     H10859   4.792   8.131   1.013 -1.0588 -0.7646 -2.8507
   79MOL0     H10860   4.989   8.241   0.648  1.6683 -1.9434 -1.4084
   79MOL0     H10861   5.154   8.174   0.509 -0.9230 -1.0002  0.3392
   79MOL0     H10862   5.215   8.019   0.571 -0.9071  0.7520 -0.5831
   79MOL0     H10863   5.325   8.155   0.562 -0.2023  0.3898 -0.7789
   79MOL0     H10864   5.578   7.984   0.642 -1.5844  1.5480  3.5660
   79MOL0     H10865   5.784   7.854   0.606 -1.4697  0.5906 -1.4205
   79MOL0     H10866   5.901   7.655   0.950  0.6606  1.6683  0.3419
   79MOL0     H10867   6.006   7.546   0.861 -0.4822 -0.5914 -1.3824
   79MOL0     H10868   6.002   7.846   0.852  0.0282 -0.7881 -1.5333
   79MOL0     H10869   6.094   7.759   0.974 -1.8062 -3.1138  1.0088
   79MOL0     H10870   6.180   7.841   0.701 -2.2436 -0.5223 -1.0648
   79MOL0     H10871   6.123   7.678   0.685 -1.0905 -1.2652  2.5305
   79MOL0     H10872   6.359   7.698   0.704  1.2712 -1.9200  0.8392
   79MOL0     H10873   6.290   7.605   0.836 -1.7014  0.2866 -0.3712
   79MOL0     H10874   6.309   7.790   0.994  0.5977 -1.1945 -0.3353
   79MOL0     H10875   6.472   7.739   0.938 -0.7316 -3.8509 -1.8414
   79MOL0     H10876   6.324   7.987   0.840  1.6331  3.0781 -0.2942
   79MOL0     H10877   6.482   7.926   0.781  2.7587  2.7138  2.1330
   79MOL0     H10878   6.588   7.966   0.997  0.7421  2.4897 -0.9798
   79MOL0     H10879   6.435   8.016   1.073  0.4825 -1.1044  0.0991
   79MOL0     H10880   6.425   8.186   0.877  0.3998 -1.6047 -1.9099
   79MOL0     H10881   6.585   8.144   0.831 -0.2198 -1.8759 -0.3799
   79MOL0     H10882   5.682   7.591   0.932 -0.7628 -1.6805 -0.3297
   79MOL0     H10883   5.479   7.726   0.970  0.9226 -0.1726 -1.1188
   79MOL0     H10884   5.270   8.130   1.042 -1.8492  0.6620  1.1824
   79MOL0     H10885   5.024   8.198   1.072 -1.1486  2.8108 -0.0670
   79MOL0     H10886   4.755   9.261   0.270 -3.3713  0.5532  0.3250
   79MOL0     H10887   4.972   9.331   0.184  5.2902  0.4651  2.4724
   79MOL0     H10888   5.427   9.588   0.545 -0.8035 -3.0331 -0.5043
   79MOL0     H10889   5.637   9.698   0.497 -0.6693  1.1611  0.0563
   79MOL0     H10890   5.716   9.744   0.071 -5.5553  1.1607 -0.9094
   79MOL0     H10891   5.656   9.901   0.105 -2.7579 -2.2564  1.1402
   79MOL0     H10892   5.911   9.901   0.015  2.5263  3.5585  0.0614
   79MOL0     H10893   5.950   9.822   0.157  0.7358  1.5920 -0.1854
   79MOL0     H10894   5.908  10.032   0.280 -2.5905 -0.0910  0.1985
   79MOL0     H10895   5.999  10.065   0.135  0.4454 -0.8251  0.2708
   79MOL0     H10896   5.704  10.111   0.191  0.9357 -1.5914  0.0199
   79MOL0     H10897   5.771  10.113   0.024 -0.5883  1.9240 -0.2583
   79MOL0     H10898   5.907  10.472   0.211  2.4302  1.0688 -3.8611
   79MOL0     H10899   5.509   9.715   0.081  2.9459 -2.6808 -0.5571
   79MOL0     H10900   5.318   9.645   0.003  1.9123  1.4953  1.3209
   79MOL0     H10901   5.267   9.494   0.070 -0.9611  0.5527 -2.2036
   79MOL0     H10902   5.190   9.648   0.117  0.7586  1.2966 -1.1951
   80MOL0     O10903   8.471   4.429   6.454 -1.2382 -0.4555 -0.3972
   80MOL0     C10904   8.495   4.463   6.571 -0.1633  1.0275 -0.0632
   80MOL0     O10905   8.401   4.460   6.667 -0.6106 -0.1277 -0.8986
   80MOL0     C10906   8.269   4.448   6.626 -0.0584  0.2524  0.4385
   80MOL0     C10907   8.195   4.344   6.689 -0.0557  0.5798  0.6208
   80MOL0     C10908   8.069   4.307   6.650  0.2688 -0.7034  0.2650
   80MOL0     C10909   8.001   4.391   6.558  0.6284 -0.0742  0.2871
   80MOL0     O10910   7.871   4.368   6.502  0.0776  0.5294  0.3256
   80MOL0     C10911   7.773   4.319   6.597  0.6013  0.7449 -0.5521
   80MOL0     C10912   7.642   4.300   6.527 -0.1603 -0.3956 -0.0875
   80MOL0     C10913   7.524   4.271   6.624  0.3738 -0.8283  0.0479
   80MOL0     C10914   7.408   4.217   6.542  0.0927 -0.2684 -0.3115
   80MOL0     C10915   7.285   4.156   6.610  0.7826  0.2723  0.0759
   80MOL0     C10916   7.244   4.225   6.745  0.0002 -0.3736 -0.4807
   80MOL0     C10917   7.099   4.182   6.768  0.2159 -0.7415 -0.9090
   80MOL0     C10918   7.052   4.268   6.892 -0.0331  0.2801  0.0788
   80MOL0     N10919   6.913   4.220   6.911  0.0540  0.0348  0.5855
   80MOL0     C10920   6.867   4.089   6.923  0.4037  0.1092 -0.3139
   80MOL0     C10921   6.751   4.094   6.996  0.5089 -0.0122  0.5644
   80MOL0     C10922   6.654   3.981   7.046 -0.7155  0.6871  0.0299
   80MOL0     C10923   6.706   3.914   7.175  0.0662 -0.0167 -0.4419
   80MOL0     C10924   6.802   3.797   7.133  1.0259 -0.0386  0.1090
   80MOL0     C10925   6.874   3.742   7.262 -0.2085 -0.4763  0.5366
   80MOL0     O10926   6.966   3.838   7.316  0.1047  0.1961 -0.5647
   80MOL0     C10927   7.075   3.803   7.388  0.8837 -0.4139  0.3797
   80MOL0     C10928   7.097   3.688   7.458 -0.2263  0.4816 -0.2978
   80MOL0     C10929   7.210   3.668   7.542 -0.4138  0.3256  0.3768
   80MOL0     C10930   7.226   3.525   7.601  0.4394  0.5724 -0.0943
   80MOL0     C10931   7.305   3.777   7.559 -0.9002 -0.3765  0.0093
   80MOL0     C10932   7.424   3.765   7.646 -0.1175 -0.0449 -0.8488
   80MOL0     O10933   7.473   3.649   7.696 -0.0990 -0.7779 -0.1491
   80MOL0     C10934   7.577   3.639   7.778  0.2328  0.0622 -0.2554
   80MOL0     C10935   7.664   3.742   7.816 -0.1074 -0.7614  0.3209
   80MOL0     C10936   7.778   3.723   7.899 -0.0108  0.4580  0.2880
   80MOL0     C10937   7.801   3.596   7.954  0.1484  0.7483  0.3023
   80MOL0     O10938   7.899   3.568   8.043 -0.3713  0.1942  0.1792
   80MOL0     C10939   8.008   3.482   8.003  0.2677 -0.4636 -0.0199
   80MOL0     C10940   8.131   3.512   8.087  0.2176  0.4571  0.3108
   80MOL0     C10941   8.236   3.409   8.044 -0.1109 -0.8736  0.2279
   80MOL0     C10942   8.382   3.460   8.052 -0.0463  0.0871 -0.4328
   80MOL0     C10943   8.481   3.343   8.031  0.1434 -0.8718 -0.2191
   80MOL0     C10944   8.444   3.270   7.896  0.0220  0.3728 -0.5997
   80MOL0     C10945   8.544   3.161   7.865 -0.8749  0.1689  0.5067
   80MOL0     C10946   8.513   3.064   7.757  0.7707 -0.4068 -0.2622
   80MOL0    Cl10947   8.359   2.967   7.791 -0.7405 -0.2854 -0.1112
   80MOL0     C10948   7.718   3.486   7.902 -0.9980  0.0884 -0.2796
   80MOL0     C10949   7.609   3.510   7.819 -0.1218  0.0414 -0.1192
   80MOL0     O10950   7.463   3.877   7.673 -0.0783  0.0565  0.2515
   80MOL0     C10951   7.278   3.894   7.482  0.3288  0.6150 -0.8913
   80MOL0     C10952   7.163   3.913   7.402 -0.2599  0.6161 -0.7668
   80MOL0     N10953   6.718   4.224   7.016  0.1258 -0.2413 -0.5126
   80MOL0     N10954   6.814   4.292   6.964  0.0868 -0.3132 -0.6760
   80MOL0     C10955   8.068   4.495   6.496  0.6789  0.1437 -0.6872
   80MOL0     C10956   8.203   4.527   6.533 -0.2097 -0.1314 -0.8158
   80MOL0     C10957   8.638   4.464   6.606  0.2796  0.2357 -0.1141
   80MOL0     C10958   8.735   4.417   6.512 -0.3459 -0.6564 -0.9786
   80MOL0     C10959   8.872   4.383   6.551 -0.1722 -0.8044  0.5243
   80MOL0     C10960   8.914   4.408   6.683  0.3864  0.5251 -0.0647
   80MOL0     O10961   9.036   4.389   6.745  0.4829  1.1559  0.2664
   80MOL0     C10962   9.135   4.317   6.672  0.0142 -0.2914  0.1115
   80MOL0     C10963   9.254   4.278   6.758  0.0093 -0.4035  0.3263
   80MOL0     C10964   9.284   4.397   6.857  0.1825 -0.2835 -0.0174
   80MOL0     C10965   9.409   4.362   6.942 -0.5336 -0.3663  0.0139
   80MOL0     C10966   9.430   4.468   7.036  0.0355  0.1551 -1.1295
   80MOL0     C10967   9.444   4.559   7.112  0.5775  0.3197 -1.0382
   80MOL0     C10968   8.820   4.462   6.766 -0.9852 -0.4021 -0.2724
   80MOL0     C10969   8.690   4.507   6.731 -0.4031  0.0598 -0.0616
   80MOL0     C10970   8.631   4.597   6.841  0.6650  0.2257  1.0632
   80MOL0     H10971   8.259   4.282   6.751  0.1183  0.3844  0.2468
   80MOL0     H10972   8.020   4.222   6.695 -1.1100 -0.0502  0.0594
   80MOL0     H10973   7.746   4.385   6.679 -2.1446  0.0771 -0.8277
   80MOL0     H10974   7.809   4.222   6.632  2.0807  2.3841  2.8792
   80MOL0     H10975   7.624   4.393   6.473 -1.3277 -1.1705 -1.0814
   80MOL0     H10976   7.662   4.220   6.455  2.0491  0.4229 -0.4688
   80MOL0     H10977   7.570   4.199   6.693  3.2434 -2.1404 -2.9176
   80MOL0     H10978   7.482   4.356   6.677 -0.7794 -0.8477 -0.8147
   80MOL0     H10979   7.377   4.303   6.483  0.4607 -0.5679 -0.9498
   80MOL0     H10980   7.434   4.137   6.472 -0.8374 -0.9047  0.0475
   80MOL0     H10981   7.305   4.049   6.622 -1.3866 -0.5029 -2.3054
   80MOL0     H10982   7.208   4.160   6.532  0.6276 -2.0606  0.0342
   80MOL0     H10983   7.313   4.206   6.828 -1.0909  1.6181  0.9668
   80MOL0     H10984   7.252   4.333   6.728  0.8582 -0.3149  0.2066
   80MOL0     H10985   7.088   4.073   6.780  0.0151 -0.9397 -2.6514
   80MOL0     H10986   7.042   4.216   6.681 -0.1313  1.9540  0.2798
   80MOL0     H10987   7.099   4.250   6.989  3.8298  4.5778 -0.6475
   80MOL0     H10988   7.065   4.374   6.870  0.6273  0.7119  2.3745
   80MOL0     H10989   6.918   4.001   6.887  3.4871  0.6270  2.3587
   80MOL0     H10990   6.643   3.912   6.962  0.1410  3.0719 -2.1901
   80MOL0     H10991   6.559   4.029   7.070 -1.0819  0.0153 -0.0537
   80MOL0     H10992   6.746   3.986   7.246 -0.1605 -1.1717  0.9031
   80MOL0     H10993   6.622   3.869   7.229  1.8470 -1.3378  1.4055
   80MOL0     H10994   6.756   3.714   7.080  0.5547 -0.9484  1.8696
   80MOL0     H10995   6.878   3.831   7.061  1.1878  4.3015  1.9947
   80MOL0     H10996   6.800   3.711   7.337 -2.1965  0.7978 -0.7939
   80MOL0     H10997   6.925   3.653   7.224  0.3217 -0.8090  1.9564
   80MOL0     H10998   7.029   3.604   7.453 -1.2407  1.2872 -0.4594
   80MOL0     H10999   7.197   3.545   7.704 -0.0388  2.1593 -0.5073
   80MOL0     H11000   7.326   3.480   7.595 -0.8609 -2.9634  1.7147
   80MOL0     H11001   7.163   3.455   7.545  0.0952  0.3830  0.5193
   80MOL0     H11002   7.645   3.842   7.778  1.7409 -0.1120  1.0281
   80MOL0     H11003   7.850   3.801   7.921  0.0226  1.1607 -2.0547
   80MOL0     H11004   7.974   3.379   8.018 -2.2388  0.1962 -0.8171
   80MOL0     H11005   8.028   3.492   7.896 -1.9446  0.1524 -0.4130
   80MOL0     H11006   8.161   3.614   8.061 -0.9620  1.4333  2.5354
   80MOL0     H11007   8.124   3.501   8.195  1.7100 -0.8818  0.3136
   80MOL0     H11008   8.222   3.388   7.937 -0.1435  0.8429 -0.1399
   80MOL0     H11009   8.219   3.316   8.099  0.3026 -1.8223 -1.1884
   80MOL0     H11010   8.393   3.505   8.151 -2.4926 -0.8669  0.3270
   80MOL0     H11011   8.401   3.542   7.981 -1.7319  0.2046 -0.7785
   80MOL0     H11012   8.583   3.380   8.027  0.7114 -2.4492 -1.7761
   80MOL0     H11013   8.479   3.273   8.115 -2.8019 -0.4028  0.2357
   80MOL0     H11014   8.442   3.345   7.816  4.5032  3.3193  1.6498
   80MOL0     H11015   8.349   3.220   7.916  0.0588  0.5476  0.0232
   80MOL0     H11016   8.554   3.089   7.946  0.9296  0.1777  0.3256
   80MOL0     H11017   8.637   3.212   7.837 -2.3665  2.8760  0.1555
   80MOL0     H11018   8.594   2.993   7.745  2.4913  1.6236 -1.2319
   80MOL0     H11019   8.504   3.114   7.660 -0.9944 -0.3854 -0.1267
   80MOL0     H11020   7.730   3.383   7.934  0.4841  0.2666 -0.2071
   80MOL0     H11021   7.566   3.418   7.782  1.6096 -0.8611 -0.0341
   80MOL0     H11022   7.342   3.979   7.504  1.6394 -1.2512  3.6328
   80MOL0     H11023   7.151   4.008   7.351  0.5591  0.6118 -0.9790
   80MOL0     H11024   8.001   4.550   6.431 -1.4908 -0.5510  0.8618
   80MOL0     H11025   8.265   4.601   6.484  1.3032 -0.6717  0.2049
   80MOL0     H11026   8.705   4.385   6.413 -0.9124 -1.5296 -0.5317
   80MOL0     H11027   8.942   4.358   6.471 -1.6146  3.4903 -2.4309
   80MOL0     H11028   9.093   4.222   6.641  0.7991 -1.7390  3.1038
   80MOL0     H11029   9.167   4.374   6.584  2.3890 -1.6502 -0.0097
   80MOL0     H11030   9.339   4.253   6.694  1.6153 -0.8496  2.5128
   80MOL0     H11031   9.220   4.190   6.812  2.2144 -0.9676  0.8831
   80MOL0     H11032   9.299   4.491   6.803  0.5852  1.7230  3.2887
   80MOL0     H11033   9.205   4.415   6.930  1.0099 -1.2963  1.1803
   80MOL0     H11034   9.498   4.348   6.880  1.1355 -0.5021  2.3245
   80MOL0     H11035   9.382   4.276   7.003 -2.4248  0.9392  1.1091
   80MOL0     H11036   9.456   4.638   7.184 -0.0013  0.8613 -1.5279
   80MOL0     H11037   8.862   4.474   6.865 -1.1018 -0.8266 -0.1676
   80MOL0     H11038   8.702   4.648   6.906 -1.9629  0.0155  4.3641
   80MOL0     H11039   8.589   4.682   6.785  0.5914  0.7075  1.8398
   80MOL0     H11040   8.566   4.537   6.905  1.6820 -1.5061  0.5201
   81MOL0     O11041   5.769   8.478   1.167  0.1052 -0.3410 -0.2048
   81MOL0     C11042   5.711   8.586   1.159  0.0948 -0.2421 -0.4624
   81MOL0     O11043   5.757   8.708   1.202 -0.4514  0.9412  0.1603
   81MOL0     C11044   5.887   8.706   1.251 -0.8612  0.5455  0.1705
   81MOL0     C11045   5.992   8.706   1.158 -0.4238 -0.1092  0.4086
   81MOL0     C11046   6.126   8.722   1.197  1.2544 -0.4466 -0.6131
   81MOL0     C11047   6.157   8.723   1.338  0.9249 -0.8231 -0.3153
   81MOL0     O11048   6.283   8.730   1.388 -0.2524  0.0293  0.2636
   81MOL0     C11049   6.389   8.703   1.298  0.1717 -0.2806 -0.0464
   81MOL0     C11050   6.518   8.736   1.366 -0.4320 -0.7040  0.4653
   81MOL0     C11051   6.635   8.715   1.268 -1.2781  0.3332  0.8785
   81MOL0     C11052   6.769   8.720   1.345 -0.4664  0.2800  0.6084
   81MOL0     C11053   6.885   8.734   1.243 -0.2629 -0.4277  0.1022
   81MOL0     C11054   7.017   8.729   1.315 -0.8455 -0.4399  0.9355
   81MOL0     C11055   7.128   8.691   1.216  0.4394  0.4384  0.1090
   81MOL0     C11056   7.261   8.691   1.289  0.1562 -0.8211 -0.2837
   81MOL0     N11057   7.283   8.584   1.391 -0.5368 -0.4487 -0.5726
   81MOL0     C11058   7.323   8.454   1.362  0.1661 -0.2623  0.7203
   81MOL0     C11059   7.322   8.389   1.482  0.1479 -0.5328  0.0682
   81MOL0     C11060   7.380   8.254   1.495 -0.5553 -0.2919 -0.1321
   81MOL0     C11061   7.514   8.257   1.575  0.0859 -0.6340  0.1431
   81MOL0     C11062   7.630   8.333   1.513  0.4908  0.1642  0.3157
   81MOL0     C11063   7.759   8.304   1.584  0.1107  0.0568  0.3675
   81MOL0     O11064   7.860   8.396   1.530  0.0219  0.4606 -0.1277
   81MOL0     C11065   7.987   8.395   1.575  0.1659 -0.2918  0.2863
   81MOL0     C11066   8.072   8.466   1.501 -0.4436 -0.0729  0.1947
   81MOL0     C11067   8.207   8.490   1.541 -0.0881  0.1848  0.0336
   81MOL0     C11068   8.290   8.570   1.452  0.1838 -0.2610  0.1917
   81MOL0     C11069   8.254   8.414   1.652 -0.1515  0.5750  0.2691
   81MOL0     C11070   8.395   8.414   1.700 -0.5422  0.6345  0.4078
   81MOL0     O11071   8.498   8.432   1.606 -0.2137 -0.1770 -0.4863
   81MOL0     C11072   8.627   8.444   1.644  0.6075 -0.2865 -0.3516
   81MOL0     C11073   8.687   8.396   1.764  0.1667  0.0067  0.7562
   81MOL0     C11074   8.823   8.422   1.783  0.5783 -0.1934  0.3708
   81MOL0     C11075   8.907   8.493   1.693  0.8695 -0.5836  0.0201
   81MOL0     O11076   9.040   8.517   1.701 -0.5045 -0.2519  1.0733
   81MOL0     C11077   9.124   8.447   1.791  0.7362 -0.1403 -0.7930
   81MOL0     C11078   9.265   8.474   1.745 -0.2418 -0.1419 -0.9353
   81MOL0     C11079   9.319   8.617   1.773  0.3501 -0.0315  0.5413
   81MOL0     C11080   9.466   8.611   1.736 -0.8995  0.5894  0.0279
   81MOL0     C11081   9.531   8.749   1.759 -0.1305  0.0473 -0.6292
   81MOL0     C11082   9.659   8.769   1.690 -0.2552  0.6839  0.0395
   81MOL0     C11083   9.777   8.705   1.758  0.2031  1.0214 -0.2470
   81MOL0     C11084   9.910   8.728   1.686  0.8373  0.6751 -0.4319
   81MOL0    Cl11085   9.915   8.712   1.510  0.0012 -0.2842 -0.2076
   81MOL0     C11086   8.844   8.531   1.572  0.0085 -0.3289 -0.2031
   81MOL0     C11087   8.702   8.513   1.550 -0.4305 -0.6205  1.9898
   81MOL0     O11088   8.414   8.400   1.823  0.1013  0.0006 -0.4575
   81MOL0     C11089   8.166   8.337   1.726 -0.3386  0.5848  0.1991
   81MOL0     C11090   8.037   8.325   1.687  0.3481  0.2792  0.1415
   81MOL0     N11091   7.276   8.479   1.579 -0.0817  0.7113 -0.8242
   81MOL0     N11092   7.246   8.587   1.524  0.4028  0.1493  0.3886
   81MOL0     C11093   6.044   8.705   1.434  0.7851 -0.4667  0.3018
   81MOL0     C11094   5.911   8.711   1.386  0.1789  0.0442 -0.4482
   81MOL0     C11095   5.577   8.577   1.100 -0.0695  0.3392 -0.9466
   81MOL0     C11096   5.486   8.481   1.152 -0.3288  0.3091  0.0385
   81MOL0     C11097   5.359   8.478   1.112 -1.0897  0.2635  0.0153
   81MOL0     C11098   5.307   8.575   1.029 -0.9975  0.3107 -0.2584
   81MOL0     O11099   5.176   8.591   0.991  0.1933  0.3175  1.3277
   81MOL0     C11100   5.122   8.721   0.975  0.4571  0.3002  0.1242
   81MOL0     C11101   5.055   8.760   1.106 -0.1118 -0.3588 -1.2367
   81MOL0     C11102   4.948   8.660   1.148  0.4216  0.0978 -0.2912
   81MOL0     C11103   4.839   8.634   1.050  0.0355 -0.0480  0.4695
   81MOL0     C11104   4.731   8.572   1.130  0.1809  0.5311  0.7728
   81MOL0     C11105   4.646   8.531   1.205 -0.3400 -0.4523 -0.1346
   81MOL0     C11106   5.401   8.665   0.969  0.0315 -0.2295 -0.1506
   81MOL0     C11107   5.534   8.670   1.002 -0.2516 -0.7832  0.0384
   81MOL0     C11108   5.625   8.783   0.940  0.4990  0.1347  0.5182
   81MOL0     H11109   5.973   8.704   1.052 -0.1426  3.5270  0.1550
   81MOL0     H11110   6.199   8.740   1.119 -0.7418  2.1286 -2.0511
   81MOL0     H11111   6.385   8.769   1.211  0.8231 -1.6738 -1.1739
   81MOL0     H11112   6.390   8.600   1.262 -2.5022  0.9686 -4.4488
   81MOL0     H11113   6.525   8.841   1.397  0.8824 -1.2274  2.0959
   81MOL0     H11114   6.524   8.686   1.463 -2.1360  2.2176  2.2356
   81MOL0     H11115   6.616   8.617   1.223 -0.0383  0.3288  0.3197
   81MOL0     H11116   6.631   8.789   1.187 -1.4598  0.0928  0.6664
   81MOL0     H11117   6.766   8.812   1.404 -0.4331  1.2995 -0.9168
   81MOL0     H11118   6.786   8.628   1.401  1.3096 -0.0233 -0.3415
   81MOL0     H11119   6.870   8.826   1.186 -2.8857 -0.2740  0.8925
   81MOL0     H11120   6.878   8.653   1.169  1.5381 -0.8280  0.3157
   81MOL0     H11121   7.042   8.824   1.363 -3.2755  0.1413  1.1498
   81MOL0     H11122   7.022   8.656   1.397 -0.6520 -1.7526 -0.1966
   81MOL0     H11123   7.125   8.768   1.138  2.5987 -1.3243 -1.8559
   81MOL0     H11124   7.111   8.595   1.166 -1.4523  1.0950 -0.5908
   81MOL0     H11125   7.332   8.688   1.206  3.1675  1.5137  1.9552
   81MOL0     H11126   7.275   8.792   1.328 -0.9834 -1.2256  1.2823
   81MOL0     H11127   7.373   8.424   1.270  0.5534  0.4666  0.6813
   81MOL0     H11128   7.403   8.197   1.405  2.6849 -2.7330  1.9823
   81MOL0     H11129   7.306   8.195   1.550  0.2506 -0.9068  0.3184
   81MOL0     H11130   7.491   8.313   1.666  0.5027  1.9690 -1.2352
   81MOL0     H11131   7.545   8.154   1.595  0.3796 -1.2430 -2.8616
   81MOL0     H11132   7.650   8.307   1.408  1.3187 -0.1823  0.5479
   81MOL0     H11133   7.617   8.442   1.512  3.6103  0.6442 -0.2155
   81MOL0     H11134   7.745   8.320   1.691 -0.9157  1.5612  0.0439
   81MOL0     H11135   7.793   8.206   1.549 -1.3312  0.4807 -2.5904
   81MOL0     H11136   8.050   8.505   1.402  1.4522  4.1012  1.1975
   81MOL0     H11137   8.230   8.643   1.398 -1.2778 -2.1088 -0.7608
   81MOL0     H11138   8.338   8.506   1.377  2.3079  0.3127  0.9718
   81MOL0     H11139   8.371   8.627   1.500  2.0203 -0.5719 -2.3304
   81MOL0     H11140   8.633   8.315   1.811  0.8199 -1.7119 -1.3111
   81MOL0     H11141   8.880   8.385   1.867 -0.4296 -2.6739  0.0506
   81MOL0     H11142   9.102   8.485   1.892 -0.0153  0.8442 -1.3076
   81MOL0     H11143   9.098   8.341   1.799 -0.9243  0.2436 -0.8303
   81MOL0     H11144   9.329   8.401   1.796 -1.4883 -0.6990 -0.1313
   81MOL0     H11145   9.282   8.462   1.638  2.5448  3.0954 -1.0610
   81MOL0     H11146   9.317   8.647   1.878  0.9135 -1.0252  0.8588
   81MOL0     H11147   9.266   8.693   1.715 -1.5680  1.1280  3.5617
   81MOL0     H11148   9.480   8.587   1.631 -0.8137  1.0089 -0.0597
   81MOL0     H11149   9.509   8.533   1.800 -3.9223 -0.3782  1.0486
   81MOL0     H11150   9.469   8.821   1.705 -0.0375  0.1516 -0.5953
   81MOL0     H11151   9.539   8.771   1.866 -0.9872  0.0750 -0.5618
   81MOL0     H11152   9.690   8.874   1.686 -0.6725  0.7655 -2.3679
   81MOL0     H11153   9.643   8.728   1.590 -1.6829 -3.0380  1.6271
   81MOL0     H11154   9.766   8.597   1.757  0.2013  1.0022 -2.6726
   81MOL0     H11155   9.786   8.739   1.862  2.3973  1.5154 -0.5582
   81MOL0     H11156   9.992   8.666   1.722 -0.7324 -1.9735 -1.1749
   81MOL0     H11157   9.935   8.833   1.703 -1.0242  1.1888 -0.6637
   81MOL0     H11158   8.911   8.574   1.499  0.3517  2.4898  1.6284
   81MOL0     H11159   8.656   8.545   1.457  2.6883  1.1562  0.9330
   81MOL0     H11160   8.198   8.279   1.812 -1.6306 -1.0880 -0.4019
   81MOL0     H11161   7.975   8.264   1.751 -1.4351  0.4558 -1.3444
   81MOL0     H11162   6.091   8.698   1.532  4.3097 -0.5135 -1.2349
   81MOL0     H11163   5.833   8.710   1.462  1.2267  2.8316  0.8072
   81MOL0     H11164   5.517   8.406   1.224 -0.2639 -1.1679 -1.4559
   81MOL0     H11165   5.295   8.413   1.171 -1.8898  0.7237 -0.3255
   81MOL0     H11166   5.190   8.806   0.962  1.3318 -0.5260 -0.9325
   81MOL0     H11167   5.047   8.723   0.896 -0.4406  1.5544  0.9782
   81MOL0     H11168   5.019   8.862   1.096  0.4130  0.3477  2.4859
   81MOL0     H11169   5.131   8.761   1.185 -0.6848  1.0039 -0.6737
   81MOL0     H11170   5.004   8.568   1.169 -0.5011 -0.3265  0.3709
   81MOL0     H11171   4.901   8.691   1.242 -0.6708  0.0511 -0.8030
   81MOL0     H11172   4.881   8.561   0.980 -1.3230 -0.4324  0.0353
   81MOL0     H11173   4.804   8.729   1.008 -1.6661  2.2197  6.0589
   81MOL0     H11174   4.566   8.499   1.270  1.8546  1.2596  3.7638
   81MOL0     H11175   5.371   8.736   0.894  1.2703 -0.3035 -0.7525
   81MOL0     H11176   5.630   8.773   0.831 -0.2300  2.1114  0.2463
   81MOL0     H11177   5.606   8.884   0.978  3.7309  0.6273  1.1855
   81MOL0     H11178   5.728   8.790   0.977  0.5608 -2.2689  0.9119
   82MOL0     O11179   6.175  10.002   4.485 -0.6414 -0.5469 -0.7298
   82MOL0     C11180   6.136   9.995   4.600 -0.2111 -0.5959  0.0799
   82MOL0     O11181   6.209  10.018   4.711 -0.4286  0.0291 -0.8481
   82MOL0     C11182   6.334  10.062   4.711 -0.4598 -0.8624  0.6639
   82MOL0     C11183   6.372  10.197   4.680  0.7766 -0.3623 -0.2561
   82MOL0     C11184   6.510  10.232   4.685  0.3456  0.6098  0.6282
   82MOL0     C11185   6.611  10.151   4.726 -0.5286  0.9647  0.0444
   82MOL0     O11186   6.746  10.179   4.731  0.1102  0.2313 -0.1229
   82MOL0     C11187   6.788  10.292   4.662 -0.4829 -0.2558  0.0879
   82MOL0     C11188   6.939  10.267   4.625  0.0211 -0.1273  0.3601
   82MOL0     C11189   6.994  10.394   4.572 -1.0406  1.0557  0.6064
   82MOL0     C11190   7.143  10.390   4.515  0.4517  0.1939 -0.2089
   82MOL0     C11191   7.251  10.377   4.627 -0.6755 -0.1967 -0.4792
   82MOL0     C11192   7.396  10.360   4.561 -1.2091  0.3470 -1.7399
   82MOL0     C11193   7.509  10.369   4.676  0.5797  0.2447  0.8916
   82MOL0     C11194   7.650  10.359   4.614  0.0460 -0.2818  0.7839
   82MOL0     N11195   7.748  10.364   4.719 -0.2180  0.3093  0.8629
   82MOL0     C11196   7.774  10.473   4.789 -0.8329  0.0601 -0.5248
   82MOL0     C11197   7.863  10.432   4.875  0.0303  0.9889 -0.7543
   82MOL0     C11198   7.935  10.515   4.978  0.5878  0.6105 -0.8142
   82MOL0     C11199   8.068  10.567   4.927  0.2505  1.1963 -0.2428
   82MOL0     C11200   8.123  10.680   5.013 -0.2584  0.4328 -0.0122
   82MOL0     C11201   8.279  10.680   5.005  0.4174 -0.0006  0.6018
   82MOL0     O11202   8.325  10.786   5.088  0.0018  0.0566  0.0766
   82MOL0     C11203   8.462  10.805   5.108 -0.0117  1.2166  0.3857
   82MOL0     C11204   8.568  10.715   5.075  0.0430 -0.0443  1.1413
   82MOL0     C11205   8.699  10.739   5.106  0.3925 -0.2878  0.0177
   82MOL0     C11206   8.791  10.625   5.076 -0.5811  0.2891 -0.3005
   82MOL0     C11207   8.734  10.856   5.177 -0.5632  0.1467  0.7695
   82MOL0     C11208   8.877  10.888   5.205 -0.3454 -0.8602  0.0631
   82MOL0     O11209   8.898  10.958   5.320  0.1867  0.7821 -0.0901
   82MOL0     C11210   9.025  10.971   5.371  0.3615 -0.6986 -0.1795
   82MOL0     C11211   9.032  11.077   5.460 -0.4148  0.5715 -0.4238
   82MOL0     C11212   9.158  11.098   5.514  0.4273  0.2583  0.0994
   82MOL0     C11213   9.267  11.003   5.498 -0.2204 -0.3975 -0.2634
   82MOL0     O11214   9.386  11.029   5.560 -0.3232  0.2690  0.0341
   82MOL0     C11215   9.396  11.117   5.677  0.6601  0.6733 -0.1320
   82MOL0     C11216   9.511  11.096   5.765 -0.4026  0.0272  0.0343
   82MOL0     C11217   9.657  11.118   5.699  0.0538 -0.3409  0.0951
   82MOL0     C11218   9.779  11.110   5.785  0.0503 -0.1886 -0.2084
   82MOL0     C11219   9.892  11.189   5.726 -0.2705 -0.6968  0.4888
   82MOL0     C11220  10.021  11.172   5.800  0.3767 -0.7017  0.3509
   82MOL0     C11221  10.144  11.213   5.719  1.2309 -0.0996  0.2816
   82MOL0     C11222  10.275  11.175   5.785 -0.2554 -0.0986  0.3019
   82MOL0    Cl11223  10.289  11.249   5.950 -0.0585 -0.3436 -0.1116
   82MOL0     C11224   9.247  10.894   5.421 -0.1990  0.2005 -0.4382
   82MOL0     C11225   9.127  10.880   5.359  0.8842  0.6204  0.1845
   82MOL0     O11226   8.956  10.864   5.115  0.7135  0.4817  0.4349
   82MOL0     C11227   8.629  10.949   5.209 -0.6318 -0.6062  0.1639
   82MOL0     C11228   8.499  10.919   5.175  0.4176 -0.1071  0.4037
   82MOL0     N11229   7.878  10.292   4.871  0.2564  0.3474  0.2679
   82MOL0     N11230   7.807  10.254   4.772  0.2687 -0.0436 -0.6697
   82MOL0     C11231   6.567  10.024   4.763 -0.5663 -0.0401 -0.1351
   82MOL0     C11232   6.435   9.982   4.751 -0.6016 -0.8580  0.3513
   82MOL0     C11233   5.993   9.972   4.626 -0.0315  0.5797 -0.7947
   82MOL0     C11234   5.931  10.025   4.747 -0.9934 -0.4402  0.0458
   82MOL0     C11235   5.797  10.017   4.766 -0.3498 -0.4806 -0.1967
   82MOL0     C11236   5.713   9.955   4.673 -0.1095 -0.8021  0.1301
   82MOL0     O11237   5.579   9.943   4.674  0.5137  0.0748 -0.2901
   82MOL0     C11238   5.500  10.022   4.771  0.0874 -0.1228  0.7410
   82MOL0     C11239   5.362  10.045   4.715  0.2039  0.7887  0.2609
   82MOL0     C11240   5.270  10.097   4.824  0.4972 -0.1726  0.7642
   82MOL0     C11241   5.137  10.145   4.770 -0.0892  0.5330  1.0580
   82MOL0     C11242   5.025  10.138   4.869 -0.1127  0.7475  0.4855
   82MOL0     C11243   4.935  10.138   4.951 -0.6210 -0.4604  0.1873
   82MOL0     C11244   5.771   9.899   4.560 -0.5083 -0.0132 -0.0891
   82MOL0     C11245   5.910   9.902   4.530  0.0580 -0.5472  0.1838
   82MOL0     C11246   5.969   9.827   4.415 -0.2072 -0.3992  0.3096
   82MOL0     H11247   6.289  10.257   4.645 -0.4167 -2.3421 -0.9750
   82MOL0     H11248   6.525  10.338   4.665 -4.4656  1.3009 -0.7854
   82MOL0     H11249   6.785  10.380   4.728 -1.9504 -1.1624  1.3138
   82MOL0     H11250   6.737  10.311   4.567 -0.0531  0.6493  0.0227
   82MOL0     H11251   6.999  10.238   4.712  0.1226 -2.0972 -0.3155
   82MOL0     H11252   6.953  10.190   4.548  2.8659  0.6911 -0.0681
   82MOL0     H11253   6.939  10.425   4.483 -2.0457 -1.0376  0.4355
   82MOL0     H11254   6.978  10.466   4.653 -2.1823  0.3087  1.0713
   82MOL0     H11255   7.144  10.304   4.447  0.4805  0.2641 -0.2981
   82MOL0     H11256   7.163  10.480   4.455  2.0884  0.1942  0.2856
   82MOL0     H11257   7.238  10.297   4.700  3.3650 -2.7492 -2.1675
   82MOL0     H11258   7.240  10.470   4.683 -0.4037 -0.6989  0.4172
   82MOL0     H11259   7.407  10.263   4.511  0.2219 -0.9222  0.8069
   82MOL0     H11260   7.409  10.439   4.486  2.0349 -0.5524 -2.2718
   82MOL0     H11261   7.503  10.291   4.752  0.9984 -1.4155 -0.7336
   82MOL0     H11262   7.491  10.469   4.718 -0.5038  1.3605 -1.9543
   82MOL0     H11263   7.647  10.273   4.547  1.9008 -0.6382  1.1074
   82MOL0     H11264   7.652  10.446   4.547 -2.4671  1.0099  2.2450
   82MOL0     H11265   7.739  10.574   4.769  1.2361  0.9737  0.1852
   82MOL0     H11266   7.952  10.450   5.065  2.8227 -2.1507 -3.1040
   82MOL0     H11267   7.872  10.603   4.994 -3.9152 -2.5598  1.0573
   82MOL0     H11268   8.141  10.486   4.926  0.3483  1.2355  1.2549
   82MOL0     H11269   8.055  10.600   4.824 -2.8776  1.5128  0.1310
   82MOL0     H11270   8.080  10.777   4.988 -1.5004 -0.0585  0.1641
   82MOL0     H11271   8.085  10.663   5.114 -3.9390  3.7697 -0.5820
   82MOL0     H11272   8.311  10.581   5.039  3.6667  0.4552 -0.7439
   82MOL0     H11273   8.310  10.693   4.901 -0.1721  1.4406  0.5912
   82MOL0     H11274   8.539  10.617   5.037  2.4184  0.8022 -3.5286
   82MOL0     H11275   8.885  10.623   5.134 -0.1718 -3.3294 -0.8102
   82MOL0     H11276   8.810  10.629   4.969  1.7049 -1.4811 -0.0524
   82MOL0     H11277   8.742  10.530   5.101 -0.9002  0.2744 -0.9759
   82MOL0     H11278   8.960  11.156   5.476 -1.0299 -0.3351  1.5679
   82MOL0     H11279   9.175  11.182   5.580  1.9719  0.1558 -0.1311
   82MOL0     H11280   9.386  11.221   5.645 -1.6090  0.2764 -0.9526
   82MOL0     H11281   9.307  11.100   5.739 -0.2965 -0.2664 -1.6759
   82MOL0     H11282   9.497  11.159   5.853 -3.2633 -1.4014  0.7208
   82MOL0     H11283   9.504  10.995   5.806  0.1844 -0.3426 -0.7387
   82MOL0     H11284   9.666  11.222   5.666  0.3220 -0.5938 -0.6331
   82MOL0     H11285   9.669  11.048   5.617  0.0050 -0.8233  0.4968
   82MOL0     H11286   9.806  11.007   5.807 -2.2098 -0.9229 -0.5811
   82MOL0     H11287   9.751  11.152   5.882  0.5061  0.4740 -0.3572
   82MOL0     H11288   9.901  11.150   5.624 -0.2178  0.2298  0.1299
   82MOL0     H11289   9.878  11.297   5.721 -1.3885 -0.8722 -2.1713
   82MOL0     H11290  10.025  11.067   5.829  2.0518 -0.3679  1.4891
   82MOL0     H11291  10.018  11.238   5.888 -0.6586 -0.5405  0.2076
   82MOL0     H11292  10.148  11.322   5.711  3.7281 -0.0484  1.2195
   82MOL0     H11293  10.137  11.175   5.617  0.6809  0.7303  0.0040
   82MOL0     H11294  10.356  11.207   5.720 -3.5109  0.8205 -3.7022
   82MOL0     H11295  10.277  11.065   5.791  0.1335 -0.1148 -0.0916
   82MOL0     H11296   9.331  10.828   5.407 -1.2410 -0.7956 -2.3853
   82MOL0     H11297   9.109  10.790   5.300 -0.1764  0.7143  0.3362
   82MOL0     H11298   8.651  11.039   5.265 -1.9218  0.3054 -0.7319
   82MOL0     H11299   8.422  10.989   5.208  1.2244  2.2951 -2.3446
   82MOL0     H11300   6.636   9.945   4.792 -0.5705 -0.3157 -0.8429
   82MOL0     H11301   6.420   9.880   4.785 -1.7902 -1.1349 -0.9342
   82MOL0     H11302   5.983  10.076   4.827 -0.6158 -1.6340  0.5697
   82MOL0     H11303   5.754  10.071   4.850  2.5168  1.3406  0.2418
   82MOL0     H11304   5.498   9.980   4.872  1.6634 -0.6514  0.5801
   82MOL0     H11305   5.550  10.119   4.776 -1.2688  0.6843 -0.4857
   82MOL0     H11306   5.317   9.957   4.669  1.1487 -1.1164  2.7131
   82MOL0     H11307   5.364  10.124   4.640 -0.6909 -0.8883 -1.6191
   82MOL0     H11308   5.264  10.026   4.907  2.7337  1.5664  2.5340
   82MOL0     H11309   5.312  10.188   4.869  0.7165 -0.1187  0.4514
   82MOL0     H11310   5.131  10.093   4.674  1.4115  2.1465  0.0434
   82MOL0     H11311   5.140  10.249   4.736 -0.9038 -0.5536 -2.7251
   82MOL0     H11312   4.855  10.137   5.022  0.1111 -3.4849  1.1069
   82MOL0     H11313   5.721   9.849   4.477 -0.4622  0.0339 -0.1447
   82MOL0     H11314   5.999   9.900   4.340  4.6168 -2.1691  0.1437
   82MOL0     H11315   6.053   9.768   4.452 -0.2754 -0.0944  0.9679
   82MOL0     H11316   5.904   9.756   4.362 -0.9996  0.8865 -0.4805
   83MOL0     O11317   6.939   4.610   9.201 -1.3629  0.3121  0.4806
   83MOL0     C11318   6.902   4.727   9.226 -0.8942  0.2984 -0.9224
   83MOL0     O11319   6.985   4.835   9.195 -0.0162  0.4913 -0.0137
   83MOL0     C11320   7.105   4.813   9.141  0.1742 -0.4409  0.6672
   83MOL0     C11321   7.225   4.807   9.215  0.5592 -0.5085  0.4807
   83MOL0     C11322   7.352   4.793   9.154 -0.2750 -0.3577 -0.1738
   83MOL0     C11323   7.359   4.780   9.017  0.4847  0.6371  0.2798
   83MOL0     O11324   7.478   4.787   8.944 -0.1665  0.9076  0.5398
   83MOL0     C11325   7.585   4.862   9.003 -0.1322  0.9370  1.0409
   83MOL0     C11326   7.702   4.865   8.906  0.4507 -0.1962 -0.0176
   83MOL0     C11327   7.757   4.721   8.878 -0.5488 -0.2042 -0.4542
   83MOL0     C11328   7.853   4.715   8.761  1.3503 -0.2470 -0.6634
   83MOL0     C11329   7.933   4.582   8.761  0.4267  0.1008 -0.4977
   83MOL0     C11330   8.055   4.595   8.860 -0.0392 -0.0380  0.4867
   83MOL0     C11331   8.144   4.471   8.847 -0.0334  0.2028 -0.1241
   83MOL0     C11332   8.264   4.472   8.936  0.7944 -0.2006 -0.6841
   83MOL0     N11333   8.381   4.389   8.905 -0.2617 -0.2538  0.8298
   83MOL0     C11334   8.493   4.365   8.977  0.6674 -0.1669  0.3556
   83MOL0     C11335   8.560   4.283   8.894 -0.0397  0.1552 -0.0898
   83MOL0     C11336   8.690   4.227   8.956 -0.3836 -0.2968  0.6526
   83MOL0     C11337   8.776   4.175   8.844 -0.0849 -0.3773  0.2545
   83MOL0     C11338   8.909   4.127   8.895 -0.3221  0.5944  0.3085
   83MOL0     C11339   9.010   4.094   8.784 -0.9236  0.4297  0.5429
   83MOL0     O11340   9.140   4.064   8.840 -0.2285  0.3603  0.1991
   83MOL0     C11341   9.242   4.042   8.756  0.1008  0.9714 -0.2425
   83MOL0     C11342   9.233   3.943   8.660  0.3372 -0.5904  0.3512
   83MOL0     C11343   9.341   3.917   8.565  0.0472 -0.6787 -0.6320
   83MOL0     C11344   9.318   3.814   8.459 -0.1299 -0.5596  0.0046
   83MOL0     C11345   9.458   3.998   8.581 -0.3158  0.6824  0.2878
   83MOL0     C11346   9.576   3.989   8.492 -0.4567  0.3799 -0.0913
   83MOL0     O11347   9.662   4.089   8.475  0.2688 -0.4842  0.2618
   83MOL0     C11348   9.789   4.085   8.422  0.3178 -0.1256 -0.0992
   83MOL0     C11349   9.860   4.193   8.463  0.1535  0.4059  0.6196
   83MOL0     C11350   9.990   4.210   8.419  0.1272  0.6986 -0.0637
   83MOL0     C11351  10.051   4.102   8.347 -0.1923  0.5848  0.6218
   83MOL0     O11352  10.176   4.104   8.291  0.2359 -0.4597 -0.7230
   83MOL0     C11353  10.275   4.204   8.319  0.6729  0.0163  0.4039
   83MOL0     C11354  10.407   4.162   8.243 -0.4467 -0.5354  0.1788
   83MOL0     C11355  10.531   4.245   8.270 -0.5441  0.0552  0.3964
   83MOL0     C11356  10.652   4.187   8.197 -0.1925 -0.1896  0.7115
   83MOL0     C11357  10.764   4.288   8.209  0.0538 -0.4208 -0.0505
   83MOL0     C11358  10.895   4.242   8.152 -0.0228  0.6421 -0.1228
   83MOL0     C11359  10.994   4.358   8.152 -0.4816  0.2716  0.1555
   83MOL0     C11360  11.124   4.306   8.102 -0.0028  0.0925 -0.0254
   83MOL0    Cl11361  11.243   4.441   8.107 -0.3376  0.1996 -0.1180
   83MOL0     C11362   9.980   3.989   8.304 -0.0751 -0.7100 -0.5474
   83MOL0     C11363   9.846   3.982   8.349  0.0243 -0.2766 -0.2478
   83MOL0     O11364   9.592   3.877   8.449  0.5686  0.4256 -0.4918
   83MOL0     C11365   9.461   4.093   8.685  0.0719 -0.0672  0.4161
   83MOL0     C11366   9.360   4.121   8.765 -0.4704  0.4521 -0.4382
   83MOL0     N11367   8.491   4.254   8.775 -0.1961  0.0383 -0.3442
   83MOL0     N11368   8.386   4.318   8.785 -0.1860  0.2509 -0.5039
   83MOL0     C11369   7.240   4.787   8.940  0.0029  0.1264 -0.0880
   83MOL0     C11370   7.115   4.800   9.001 -0.8337 -0.0117 -0.1209
   83MOL0     C11371   6.770   4.750   9.293  0.0909 -0.4783  0.9527
   83MOL0     C11372   6.758   4.857   9.382  0.3744 -0.4186  0.0902
   83MOL0     C11373   6.650   4.880   9.465 -0.3772  0.4710  0.2980
   83MOL0     C11374   6.545   4.798   9.458 -0.1972 -0.0288  0.1835
   83MOL0     O11375   6.435   4.833   9.528  0.4462  0.0010 -0.6479
   83MOL0     C11376   6.418   4.750   9.647  0.8361 -0.0700  0.8624
   83MOL0     C11377   6.326   4.831   9.752 -0.2423  0.5747  0.5654
   83MOL0     C11378   6.208   4.896   9.690  0.2456 -0.3950  0.0904
   83MOL0     C11379   6.112   4.803   9.617  0.4702  0.4231  0.2296
   83MOL0     C11380   6.016   4.753   9.713  0.7949  0.1587 -0.2853
   83MOL0     C11381   5.917   4.702   9.769  0.3621  0.1578 -0.2656
   83MOL0     C11382   6.545   4.700   9.357  0.3547  0.0109  0.2244
   83MOL0     C11383   6.652   4.669   9.279  0.0169  0.1140 -0.0089
   83MOL0     C11384   6.635   4.571   9.159 -0.0696  0.4042  0.0032
   83MOL0     H11385   7.214   4.827   9.321  1.6522 -0.8389  0.6628
   83MOL0     H11386   7.441   4.779   9.214 -0.2831 -2.6687 -0.5992
   83MOL0     H11387   7.613   4.803   9.091  1.3526 -0.3471 -0.2434
   83MOL0     H11388   7.549   4.958   9.043  1.6879  1.7415  0.8822
   83MOL0     H11389   7.676   4.916   8.813 -0.8242 -0.5348  0.1350
   83MOL0     H11390   7.782   4.920   8.955  0.3328 -0.6664  0.7263
   83MOL0     H11391   7.810   4.681   8.964 -1.6528  0.6592  0.6629
   83MOL0     H11392   7.672   4.656   8.854 -1.0331  0.8531 -1.7480
   83MOL0     H11393   7.792   4.727   8.672  1.8082  0.3169 -0.9045
   83MOL0     H11394   7.923   4.798   8.774 -0.3382  0.8061  2.9086
   83MOL0     H11395   7.956   4.557   8.657 -1.2161 -0.4490 -0.7595
   83MOL0     H11396   7.863   4.503   8.790 -1.1844  1.2106 -1.2299
   83MOL0     H11397   8.119   4.681   8.837  1.0157 -1.0476 -0.5269
   83MOL0     H11398   8.032   4.599   8.966  1.9774  1.9483  0.9428
   83MOL0     H11399   8.177   4.468   8.743  0.0542  1.6486 -0.1537
   83MOL0     H11400   8.080   4.386   8.872 -2.7767  1.9835 -0.7231
   83MOL0     H11401   8.305   4.572   8.947 -0.2208  0.0671  0.9298
   83MOL0     H11402   8.228   4.449   9.037  1.4865 -1.9446 -0.7987
   83MOL0     H11403   8.512   4.400   9.078  1.5507 -1.8735  0.8086
   83MOL0     H11404   8.661   4.144   9.021  0.7335 -1.3390 -0.1240
   83MOL0     H11405   8.745   4.304   9.011  0.9855  0.3148 -1.4582
   83MOL0     H11406   8.729   4.093   8.790 -0.5556  0.2155 -0.2529
   83MOL0     H11407   8.797   4.263   8.783 -1.4958  0.5953  1.1157
   83MOL0     H11408   8.948   4.211   8.953 -0.4011  0.9894 -0.1977
   83MOL0     H11409   8.898   4.047   8.969 -2.8086 -1.0518 -1.6536
   83MOL0     H11410   8.973   4.006   8.730  2.1863  0.1861 -1.4682
   83MOL0     H11411   9.018   4.178   8.715  1.1935 -0.8823 -0.9273
   83MOL0     H11412   9.137   3.891   8.660  0.2354 -0.4072 -0.5989
   83MOL0     H11413   9.324   3.857   8.358 -0.4692 -1.4089 -0.3926
   83MOL0     H11414   9.215   3.779   8.470  0.2616 -1.7056  0.2121
   83MOL0     H11415   9.387   3.730   8.474 -0.4420 -0.5711  1.4883
   83MOL0     H11416   9.821   4.274   8.524  1.8176  0.9215  1.0461
   83MOL0     H11417  10.040   4.304   8.441  0.2365  0.7997 -0.7185
   83MOL0     H11418  10.244   4.305   8.291  1.4059  0.2626  0.4519
   83MOL0     H11419  10.296   4.207   8.426  0.3219 -1.4625  0.5336
   83MOL0     H11420  10.430   4.059   8.271  0.0632 -0.0444  1.6746
   83MOL0     H11421  10.393   4.164   8.135  0.7014 -2.4875 -0.0633
   83MOL0     H11422  10.542   4.259   8.378 -1.4310  2.5241  0.2446
   83MOL0     H11423  10.510   4.344   8.227 -0.3835 -0.1301 -0.1153
   83MOL0     H11424  10.638   4.177   8.089  2.4859  1.4021  0.1331
   83MOL0     H11425  10.688   4.088   8.227  0.2715 -0.1722  0.2357
   83MOL0     H11426  10.734   4.384   8.166  1.2638  0.1874  0.4123
   83MOL0     H11427  10.782   4.304   8.315 -2.4536  2.6644  0.0342
   83MOL0     H11428  10.887   4.222   8.045 -0.9157  0.5680 -0.0443
   83MOL0     H11429  10.947   4.156   8.195  2.2943  0.8123 -2.3508
   83MOL0     H11430  11.023   4.382   8.255  0.8472 -0.2015 -0.0884
   83MOL0     H11431  10.955   4.449   8.106 -2.0857  0.7550  2.3284
   83MOL0     H11432  11.112   4.263   8.002 -3.2317  1.5494 -0.3974
   83MOL0     H11433  11.157   4.226   8.169  1.8861  0.3516 -0.5936
   83MOL0     H11434  10.034   3.914   8.247 -0.2727  0.0697 -1.7934
   83MOL0     H11435   9.797   3.891   8.317 -0.5630  0.0363 -0.2472
   83MOL0     H11436   9.555   4.147   8.697  0.5861 -0.8789  0.1761
   83MOL0     H11437   9.366   4.193   8.846 -1.3012 -0.5754  0.5707
   83MOL0     H11438   7.245   4.780   8.832  0.3590 -0.7433 -0.0213
   83MOL0     H11439   7.023   4.798   8.944 -1.8842  0.1095  1.4893
   83MOL0     H11440   6.845   4.919   9.402  1.2744 -1.3842 -0.6999
   83MOL0     H11441   6.657   4.954   9.544  0.3932 -1.0936  1.7620
   83MOL0     H11442   6.377   4.652   9.623 -1.8591  0.8096  1.5721
   83MOL0     H11443   6.515   4.726   9.694  1.9316  2.0836 -0.1685
   83MOL0     H11444   6.382   4.913   9.797  1.0947 -0.7166  1.3730
   83MOL0     H11445   6.296   4.775   9.841  2.6609  0.3496  1.5207
   83MOL0     H11446   6.163   4.946   9.776  0.4684 -0.7389  0.4087
   83MOL0     H11447   6.230   4.978   9.620 -1.7248 -0.1526 -0.2915
   83MOL0     H11448   6.159   4.716   9.572 -0.3536 -0.0108  0.1778
   83MOL0     H11449   6.062   4.863   9.541  0.3526 -2.1081 -1.8019
   83MOL0     H11450   5.837   4.648   9.817  2.5829 -3.0655  0.0862
   83MOL0     H11451   6.454   4.645   9.338 -1.2514  3.4179 -3.2334
   83MOL0     H11452   6.650   4.619   9.062 -1.6925 -0.5493 -0.7635
   83MOL0     H11453   6.696   4.481   9.167  0.0167  0.2649 -1.8821
   83MOL0     H11454   6.535   4.527   9.157  0.4253 -0.8034 -2.4030
   84MOL0     O11455   7.898   3.823   5.325  0.8708 -0.3977 -0.3092
   84MOL0     C11456   7.845   3.719   5.277  0.9245 -1.0005 -0.8709
   84MOL0     O11457   7.909   3.605   5.252  0.5844 -0.0953 -0.1891
   84MOL0     C11458   8.046   3.613   5.245 -0.0820 -0.6512  0.3155
   84MOL0     C11459   8.137   3.617   5.349  0.4250 -0.0901  0.1795
   84MOL0     C11460   8.275   3.646   5.328  0.6753 -0.2948 -0.2801
   84MOL0     C11461   8.319   3.678   5.204  0.3494 -0.1662  0.0435
   84MOL0     O11462   8.456   3.701   5.179  0.3484  0.1185 -0.1875
   84MOL0     C11463   8.495   3.746   5.047 -0.2135 -0.7967 -0.3993
   84MOL0     C11464   8.639   3.779   5.036  0.1103 -0.1855 -0.4661
   84MOL0     C11465   8.734   3.676   5.104 -0.0345  0.6374  0.6512
   84MOL0     C11466   8.878   3.730   5.123 -0.0658  0.7066  0.6757
   84MOL0     C11467   8.943   3.773   4.983 -0.1457  0.1485 -0.2960
   84MOL0     C11468   9.054   3.867   5.009  0.9416 -0.5805  0.0056
   84MOL0     C11469   9.172   3.827   5.084  0.5512  0.1615  0.3861
   84MOL0     C11470   9.150   3.825   5.238 -0.2272  0.1019  0.2276
   84MOL0     N11471   9.268   3.835   5.321 -0.3763  0.3272  0.6396
   84MOL0     C11472   9.372   3.749   5.299  0.6946 -0.2441  0.2893
   84MOL0     C11473   9.478   3.801   5.365  0.4118  0.2960  0.0397
   84MOL0     C11474   9.613   3.752   5.332 -0.9219 -0.0406 -0.0234
   84MOL0     C11475   9.687   3.697   5.458 -0.0648 -0.3519 -0.3575
   84MOL0     C11476   9.780   3.573   5.417 -0.4468  0.2261 -0.3620
   84MOL0     C11477   9.848   3.527   5.538 -0.2677 -0.8546 -1.1003
   84MOL0     O11478   9.944   3.432   5.503  0.6752 -0.2731 -0.8361
   84MOL0     C11479  10.070   3.466   5.469 -0.4269 -0.6854  0.6187
   84MOL0     C11480  10.138   3.589   5.491  0.4621  0.0361  0.2946
   84MOL0     C11481  10.262   3.608   5.427 -0.2516 -0.7328 -0.6842
   84MOL0     C11482  10.320   3.753   5.457 -0.2861  0.2818  0.2304
   84MOL0     C11483  10.327   3.502   5.357 -0.5037  0.4141  0.5238
   84MOL0     C11484  10.460   3.514   5.294  0.0626 -0.6850 -0.2525
   84MOL0     O11485  10.512   3.400   5.248 -0.3132 -0.8572 -0.6230
   84MOL0     C11486  10.647   3.398   5.234 -0.0782  0.4392  0.4594
   84MOL0     C11487  10.678   3.356   5.103 -0.7945 -0.3059 -0.2434
   84MOL0     C11488  10.814   3.327   5.067  0.8256  0.1655 -0.2532
   84MOL0     C11489  10.918   3.347   5.161  0.6045 -0.2620 -0.2427
   84MOL0     O11490  11.046   3.317   5.127 -0.4691 -0.1466  0.3407
   84MOL0     C11491  11.077   3.206   5.040  0.3904 -0.6789 -0.6800
   84MOL0     C11492  11.110   3.256   4.898  0.3436  0.8333  0.1715
   84MOL0     C11493  11.229   3.348   4.894 -0.6162  0.7778  0.1864
   84MOL0     C11494  11.366   3.298   4.952  0.2491  1.0091 -0.1057
   84MOL0     C11495  11.489   3.398   4.965 -0.5048 -0.3174 -0.0851
   84MOL0     C11496  11.609   3.330   5.037  0.3120  0.3535  0.2749
   84MOL0     C11497  11.737   3.404   5.021  0.2223 -0.8334 -0.3997
   84MOL0     C11498  11.850   3.310   5.038 -0.1746  0.0310  0.0562
   84MOL0    Cl11499  11.994   3.396   5.028  0.0224 -0.0593 -0.0633
   84MOL0     C11500  10.879   3.411   5.284 -0.0641 -0.2750 -0.3452
   84MOL0     C11501  10.746   3.437   5.323  0.0964 -0.2816  0.2270
   84MOL0     O11502  10.509   3.626   5.271  0.5025 -0.4569  0.0510
   84MOL0     C11503  10.262   3.379   5.352 -0.2042  0.1935 -0.0880
   84MOL0     C11504  10.136   3.360   5.414 -0.2680  0.2533 -0.4507
   84MOL0     N11505   9.435   3.908   5.428 -0.7894  0.9004 -0.2335
   84MOL0     N11506   9.307   3.932   5.410 -0.1341 -0.5355 -0.4445
   84MOL0     C11507   8.223   3.665   5.100  0.1050  0.4498  0.3264
   84MOL0     C11508   8.088   3.635   5.119 -0.8196 -0.3548  0.2369
   84MOL0     C11509   7.700   3.733   5.237  0.3103  0.3848 -0.7361
   84MOL0     C11510   7.634   3.854   5.261  0.9462  0.1778  0.3146
   84MOL0     C11511   7.509   3.891   5.207 -0.2857  0.1984  0.0330
   84MOL0     C11512   7.444   3.804   5.119  0.4770  0.8897 -0.8085
   84MOL0     O11513   7.320   3.828   5.063  0.2982 -0.3811  0.1700
   84MOL0     C11514   7.249   3.947   5.105 -0.6010  0.1411 -0.2881
   84MOL0     C11515   7.113   3.949   5.027  0.5956  0.2716  0.2985
   84MOL0     C11516   7.025   3.835   5.074 -0.1399  0.2127  0.2544
   84MOL0     C11517   6.882   3.854   5.049 -0.1982 -0.4623 -0.7220
   84MOL0     C11518   6.865   3.855   4.898 -0.5350  0.3020 -1.3073
   84MOL0     C11519   6.851   3.840   4.776 -0.4197 -0.1595 -0.0695
   84MOL0     C11520   7.498   3.668   5.108  0.1363 -0.4199  0.8200
   84MOL0     C11521   7.620   3.637   5.168  0.3847  0.1783 -0.2697
   84MOL0     C11522   7.682   3.505   5.130 -0.6333 -0.4299 -0.0407
   84MOL0     H11523   8.100   3.614   5.451 -2.0628 -1.3638 -0.6957
   84MOL0     H11524   8.346   3.653   5.410  0.3847 -0.8652  0.0314
   84MOL0     H11525   8.448   3.844   5.035 -1.5098 -1.0948  1.6693
   84MOL0     H11526   8.468   3.684   4.961  1.7826  1.5382 -2.9070
   84MOL0     H11527   8.665   3.805   4.933  2.5139  2.0755  0.5843
   84MOL0     H11528   8.651   3.874   5.089  2.3955 -0.6880  0.0448
   84MOL0     H11529   8.695   3.658   5.204 -0.4515 -1.4932  0.1414
   84MOL0     H11530   8.742   3.581   5.051 -0.5040  0.2984  1.1849
   84MOL0     H11531   8.882   3.803   5.204 -2.8148  1.1537  0.4807
   84MOL0     H11532   8.923   3.638   5.160 -0.2032 -0.6482 -2.2657
   84MOL0     H11533   8.870   3.823   4.919 -1.4564 -0.8492  0.3739
   84MOL0     H11534   8.995   3.685   4.944  0.4249  1.0506 -1.6426
   84MOL0     H11535   9.093   3.894   4.910 -1.9362 -3.3553 -2.0789
   84MOL0     H11536   9.009   3.960   5.045 -2.3210 -3.2321  3.6606
   84MOL0     H11537   9.258   3.885   5.050 -0.5401 -0.3253 -3.8703
   84MOL0     H11538   9.185   3.722   5.055  0.0333 -0.2185  1.4872
   84MOL0     H11539   9.098   3.916   5.270  0.2849 -0.1429  1.8667
   84MOL0     H11540   9.091   3.739   5.272  0.5624 -1.7630 -2.7246
   84MOL0     H11541   9.375   3.671   5.224 -0.2906 -1.9790  1.9630
   84MOL0     H11542   9.671   3.828   5.278  0.7006 -0.1990  1.4047
   84MOL0     H11543   9.601   3.669   5.262 -1.0646  0.3237 -0.4434
   84MOL0     H11544   9.749   3.776   5.503  1.9663 -2.6558  1.1395
   84MOL0     H11545   9.614   3.663   5.531 -1.2200 -1.5640 -2.0077
   84MOL0     H11546   9.713   3.498   5.372  0.9655 -0.1602 -1.9521
   84MOL0     H11547   9.853   3.611   5.345  0.5087  0.3003  0.6145
   84MOL0     H11548   9.896   3.611   5.589 -1.0008 -1.4816  0.7061
   84MOL0     H11549   9.774   3.491   5.610  1.2800  2.1075  2.3226
   84MOL0     H11550  10.097   3.665   5.557  1.7163  0.3409  0.7472
   84MOL0     H11551  10.309   3.811   5.364  0.0943  1.4244  0.8734
   84MOL0     H11552  10.424   3.754   5.491 -0.4749  0.6460  0.8178
   84MOL0     H11553  10.259   3.801   5.534  0.7318  1.8497  0.1071
   84MOL0     H11554  10.604   3.342   5.024 -0.9500  2.0604 -0.5942
   84MOL0     H11555  10.830   3.291   4.966 -0.8057 -1.3329 -0.0384
   84MOL0     H11556  11.168   3.154   5.069  0.1068 -1.8964 -1.8676
   84MOL0     H11557  11.003   3.126   5.032  0.5485 -0.8035 -0.9231
   84MOL0     H11558  11.129   3.173   4.829 -0.5491  1.1494 -0.4685
   84MOL0     H11559  11.022   3.310   4.862 -1.2334 -2.7538 -1.8766
   84MOL0     H11560  11.203   3.449   4.929 -0.4075  1.4585 -1.5056
   84MOL0     H11561  11.255   3.363   4.789  0.0340 -1.0508  0.0609
   84MOL0     H11562  11.398   3.220   4.882  0.7101  0.5927  0.5475
   84MOL0     H11563  11.356   3.253   5.052  1.8804  0.8982  0.0348
   84MOL0     H11564  11.521   3.425   4.864  1.2171  0.2881  0.5759
   84MOL0     H11565  11.461   3.485   5.024 -0.7663 -2.2839  2.9060
   84MOL0     H11566  11.607   3.232   4.989 -0.3894  0.2619  0.4694
   84MOL0     H11567  11.591   3.327   5.145 -1.6386 -0.6489 -0.0323
   84MOL0     H11568  11.733   3.476   5.104 -3.6780  0.0161 -1.1193
   84MOL0     H11569  11.739   3.459   4.926  2.6226  2.0658  1.1455
   84MOL0     H11570  11.877   3.245   4.954  0.2728  1.3836 -0.8803
   84MOL0     H11571  11.828   3.261   5.133 -3.4446  1.5715  0.2376
   84MOL0     H11572  10.963   3.420   5.353 -2.0775  2.9182  1.9911
   84MOL0     H11573  10.713   3.474   5.419  0.9709  4.8809 -1.1931
   84MOL0     H11574  10.313   3.290   5.316  1.6720  1.0820  0.2418
   84MOL0     H11575  10.086   3.265   5.399 -2.8428  1.7745 -2.3680
   84MOL0     H11576   8.246   3.686   4.996 -1.9673  1.4172  0.0088
   84MOL0     H11577   8.012   3.629   5.042 -1.6913  2.5389  0.7489
   84MOL0     H11578   7.671   3.930   5.330 -4.0883  3.0439  0.4017
   84MOL0     H11579   7.466   3.988   5.231 -3.4083 -0.4128 -2.4239
   84MOL0     H11580   7.231   3.944   5.213  1.7490 -5.1737  0.2814
   84MOL0     H11581   7.313   4.034   5.092  3.2337 -2.4192 -0.0858
   84MOL0     H11582   7.138   3.945   4.920  0.5626  1.9321  0.2013
   84MOL0     H11583   7.070   4.049   5.041  0.2657  0.3867 -1.2858
   84MOL0     H11584   7.062   3.736   5.042  0.8095  0.2732  1.1307
   84MOL0     H11585   7.047   3.836   5.181  0.1763  2.1648  0.1923
   84MOL0     H11586   6.851   3.949   5.093 -0.2906 -1.1993  0.8625
   84MOL0     H11587   6.821   3.779   5.099  1.1508  0.3347  2.3671
   84MOL0     H11588   6.830   3.814   4.674  0.0359  0.3666 -0.3082
   84MOL0     H11589   7.439   3.603   5.045 -0.6003 -0.1666  1.2326
   84MOL0     H11590   7.613   3.443   5.071  0.2782 -2.9796  1.4360
   84MOL0     H11591   7.771   3.532   5.073 -1.1146 -0.1218 -0.6594
   84MOL0     H11592   7.699   3.459   5.227 -0.3881  0.9056  0.5668
   85MOL0     O11593   6.518   2.994   7.318  1.0636 -0.0771 -0.1003
   85MOL0     C11594   6.439   2.961   7.233 -0.1153  0.1899 -0.4723
   85MOL0     O11595   6.469   2.947   7.104  0.0051  0.0183 -0.3503
   85MOL0     C11596   6.598   2.993   7.064  0.6704  0.9300 -1.5316
   85MOL0     C11597   6.645   3.123   7.092  0.3223  0.6114 -0.2141
   85MOL0     C11598   6.761   3.167   7.039  0.1685  0.6470  0.6252
   85MOL0     C11599   6.850   3.081   6.970  0.5589 -0.5875  0.1318
   85MOL0     O11600   6.980   3.118   6.953 -0.7353  0.4419  0.5557
   85MOL0     C11601   7.054   3.037   6.864 -0.2787  0.1670 -0.1343
   85MOL0     C11602   7.207   3.062   6.876 -0.3837  0.1461 -0.7900
   85MOL0     C11603   7.283   2.993   6.767  0.2435  0.6423 -0.0675
   85MOL0     C11604   7.433   3.021   6.779 -0.5193  0.4178  0.2489
   85MOL0     C11605   7.531   2.904   6.729  0.2073 -0.6698  0.2271
   85MOL0     C11606   7.684   2.925   6.732  0.1554  0.4350 -0.3749
   85MOL0     C11607   7.764   2.789   6.721  0.1034 -0.0788 -0.6200
   85MOL0     C11608   7.914   2.808   6.688  0.1509  0.1656 -0.0918
   85MOL0     N11609   7.987   2.688   6.694 -0.2121  1.1237 -0.1401
   85MOL0     C11610   7.973   2.569   6.609 -0.1147 -0.0463 -0.1281
   85MOL0     C11611   8.048   2.473   6.680  0.4052 -0.5263  0.3414
   85MOL0     C11612   8.070   2.331   6.636 -0.1611  0.2307 -0.9666
   85MOL0     C11613   8.124   2.245   6.747 -0.5962 -0.8032 -0.1188
   85MOL0     C11614   8.158   2.100   6.696 -0.4317 -0.9349 -0.3911
   85MOL0     C11615   8.280   2.096   6.613  0.4063  0.4891 -0.0571
   85MOL0     O11616   8.336   1.970   6.571  0.0468  0.0434 -0.5590
   85MOL0     C11617   8.457   1.965   6.512 -0.7152 -1.2178  0.2312
   85MOL0     C11618   8.536   2.071   6.466 -0.2524 -0.2207  0.4153
   85MOL0     C11619   8.665   2.051   6.407  0.3678  0.5105  0.6918
   85MOL0     C11620   8.743   2.181   6.374 -1.1047  0.0417  0.0036
   85MOL0     C11621   8.704   1.922   6.375  0.2847  0.3544  0.5458
   85MOL0     C11622   8.821   1.887   6.288 -0.8810  0.2991 -0.1190
   85MOL0     O11623   8.939   1.968   6.282  0.4400  0.4635 -0.1411
   85MOL0     C11624   9.043   1.924   6.198  0.3955 -0.0279  0.4379
   85MOL0     C11625   9.177   1.931   6.231 -0.2483 -0.4001 -0.3453
   85MOL0     C11626   9.264   1.890   6.134  0.4493 -1.4540  0.8052
   85MOL0     C11627   9.239   1.845   6.010  0.5918  0.0161 -0.2556
   85MOL0     O11628   9.339   1.800   5.927 -0.3123  0.4892 -0.0221
   85MOL0     C11629   9.320   1.790   5.784  0.0210 -0.2177 -0.4592
   85MOL0     C11630   9.456   1.765   5.732 -0.4772 -0.0520 -0.7457
   85MOL0     C11631   9.449   1.718   5.590  0.2188  0.9480 -0.8360
   85MOL0     C11632   9.589   1.701   5.526  0.2828 -0.8999 -0.1197
   85MOL0     C11633   9.574   1.657   5.379  0.1347 -0.0282  1.1159
   85MOL0     C11634   9.710   1.607   5.330  0.0879  0.2511  0.8980
   85MOL0     C11635   9.814   1.724   5.318 -0.0723 -0.1594  0.2712
   85MOL0     C11636   9.934   1.671   5.235  0.1221 -0.5193 -0.1238
   85MOL0    Cl11637  10.043   1.813   5.219  0.1057 -0.3474 -0.3127
   85MOL0     C11638   9.107   1.851   5.970 -1.1369  0.2769 -0.4790
   85MOL0     C11639   9.007   1.893   6.060 -0.0011  0.8132 -0.6000
   85MOL0     O11640   8.799   1.779   6.229 -0.2887  0.7092  1.2133
   85MOL0     C11641   8.620   1.815   6.431 -0.6125 -0.5479  0.9727
   85MOL0     C11642   8.498   1.837   6.486 -0.6250 -0.8334  0.4910
   85MOL0     N11643   8.105   2.538   6.786 -0.4526 -0.4976 -0.2641
   85MOL0     N11644   8.074   2.663   6.793  0.1965 -0.0824 -0.4713
   85MOL0     C11645   6.799   2.952   6.936  0.2276  0.6794  0.5315
   85MOL0     C11646   6.672   2.915   6.981 -0.7787 -0.7228 -0.2259
   85MOL0     C11647   6.311   2.925   7.279 -0.5654  0.5935  0.8124
   85MOL0     C11648   6.208   2.949   7.188 -0.2671 -0.4557 -0.4479
   85MOL0     C11649   6.072   2.933   7.224 -0.1160 -0.9326  0.3236
   85MOL0     C11650   6.035   2.862   7.342 -0.3172 -0.1331  0.4976
   85MOL0     O11651   5.901   2.842   7.359  0.2703  0.0413  0.8398
   85MOL0     C11652   5.865   2.757   7.475 -0.0037 -0.4734  0.1780
   85MOL0     C11653   5.758   2.663   7.415  0.0289  0.1330 -0.1090
   85MOL0     C11654   5.687   2.584   7.513  0.1743 -0.0719  0.1191
   85MOL0     C11655   5.583   2.665   7.590  0.4569 -0.1951  0.0589
   85MOL0     C11656   5.518   2.581   7.697 -0.4995 -0.4727  0.3625
   85MOL0     C11657   5.470   2.496   7.771  0.2327 -0.9652 -0.3229
   85MOL0     C11658   6.138   2.836   7.434 -0.5909  0.7046 -0.7623
   85MOL0     C11659   6.275   2.867   7.406 -0.0485 -0.0754 -0.4451
   85MOL0     C11660   6.369   2.861   7.523 -0.3722  0.6341  0.7287
   85MOL0     H11661   6.586   3.184   7.159  1.3850  0.4755  0.8773
   85MOL0     H11662   6.801   3.263   7.071  2.5899 -0.3112  0.7394
   85MOL0     H11663   7.029   3.054   6.759 -1.2548 -0.7247 -0.0689
   85MOL0     H11664   7.044   2.929   6.876 -1.4832  0.2618 -0.1737
   85MOL0     H11665   7.226   3.168   6.860 -2.7761  0.9664  1.0580
   85MOL0     H11666   7.237   3.038   6.979  0.1485  2.0982 -0.4473
   85MOL0     H11667   7.263   2.886   6.776 -0.1032  0.8518  2.1291
   85MOL0     H11668   7.247   3.035   6.673  0.9747 -0.8148 -1.0418
   85MOL0     H11669   7.452   3.110   6.717 -1.1987  0.1869 -0.3059
   85MOL0     H11670   7.448   3.044   6.885 -0.2449  2.1447 -0.1375
   85MOL0     H11671   7.512   2.881   6.623  0.9886 -1.9304  0.3409
   85MOL0     H11672   7.502   2.815   6.785  1.6484 -1.0607  0.3944
   85MOL0     H11673   7.723   2.977   6.643  2.0649  1.5594  1.0530
   85MOL0     H11674   7.716   2.971   6.825  2.5596 -1.5973 -0.0980
   85MOL0     H11675   7.714   2.720   6.653 -0.6888 -0.6886  0.5633
   85MOL0     H11676   7.757   2.739   6.818 -0.6657 -0.2795 -0.7730
   85MOL0     H11677   7.932   2.851   6.589  2.3198  3.1227  1.4277
   85MOL0     H11678   7.964   2.872   6.761  0.5674 -0.9198  0.6013
   85MOL0     H11679   7.907   2.546   6.527 -1.6714 -1.8098  1.5204
   85MOL0     H11680   8.139   2.331   6.551  1.5503 -0.3140  0.3745
   85MOL0     H11681   7.972   2.289   6.612 -1.3321  2.2907 -0.0651
   85MOL0     H11682   8.215   2.287   6.791 -0.0622 -2.0911  0.0481
   85MOL0     H11683   8.048   2.244   6.825 -0.6899  2.8949  0.0176
   85MOL0     H11684   8.172   2.033   6.781 -0.6422 -3.6165 -2.3515
   85MOL0     H11685   8.066   2.067   6.647 -0.9839 -2.0685  1.3577
   85MOL0     H11686   8.263   2.151   6.519  0.6916 -1.5093 -1.3444
   85MOL0     H11687   8.356   2.153   6.667  0.7797  1.2090 -1.3053
   85MOL0     H11688   8.515   2.170   6.504  0.1405 -0.1169  0.3633
   85MOL0     H11689   8.766   2.183   6.267 -3.7428 -3.3208 -0.8133
   85MOL0     H11690   8.836   2.182   6.431 -1.1526  0.7958  0.0770
   85MOL0     H11691   8.685   2.271   6.397 -1.8139 -0.2283 -0.6724
   85MOL0     H11692   9.219   1.967   6.325 -1.0437 -0.6915  0.1260
   85MOL0     H11693   9.370   1.890   6.157  0.9139 -0.6815 -1.1709
   85MOL0     H11694   9.265   1.697   5.765  0.3111 -0.2412 -1.1893
   85MOL0     H11695   9.271   1.880   5.745  1.4034  1.6087  1.7694
   85MOL0     H11696   9.508   1.861   5.742 -2.3038  0.7009  3.5658
   85MOL0     H11697   9.505   1.686   5.789 -1.1510 -1.0080 -1.4517
   85MOL0     H11698   9.392   1.795   5.537  1.2898  1.2252 -1.6439
   85MOL0     H11699   9.395   1.623   5.587  0.1205  0.8895  1.4089
   85MOL0     H11700   9.644   1.629   5.587  1.1327  0.4454  0.7576
   85MOL0     H11701   9.643   1.797   5.524 -1.8316  0.3839 -3.4584
   85MOL0     H11702   9.511   1.568   5.367 -0.2382  0.4191 -0.3933
   85MOL0     H11703   9.541   1.728   5.302  0.3956  2.2761  2.9852
   85MOL0     H11704   9.691   1.579   5.226  0.0051  3.4003 -0.0574
   85MOL0     H11705   9.744   1.519   5.385  0.8804  0.5496  0.8990
   85MOL0     H11706   9.854   1.752   5.415  2.4322  4.5641 -1.7874
   85MOL0     H11707   9.770   1.816   5.279  1.6806  2.3472  3.7351
   85MOL0     H11708   9.895   1.640   5.138 -3.3874  2.6148  0.0466
   85MOL0     H11709   9.985   1.588   5.284  1.3246  0.4865  0.3723
   85MOL0     H11710   9.071   1.822   5.872 -0.1225 -2.6168 -0.0958
   85MOL0     H11711   8.906   1.886   6.022 -1.0926 -2.5248  2.4045
   85MOL0     H11712   8.651   1.711   6.426  0.5126 -0.1745 -0.9912
   85MOL0     H11713   8.435   1.752   6.508 -0.0725 -0.8722  2.0349
   85MOL0     H11714   6.853   2.875   6.881 -1.3341 -0.1247  0.0499
   85MOL0     H11715   6.634   2.816   6.959 -0.5240 -0.9672  0.3972
   85MOL0     H11716   6.225   2.998   7.092 -1.8544 -1.5958 -1.3527
   85MOL0     H11717   5.994   2.959   7.152 -0.3369 -1.6582  0.2962
   85MOL0     H11718   5.941   2.706   7.536 -3.1105 -1.7290  3.3309
   85MOL0     H11719   5.818   2.824   7.548  2.7053  2.3524 -0.4239
   85MOL0     H11720   5.809   2.590   7.351 -1.9805 -0.7099 -0.8625
   85MOL0     H11721   5.687   2.725   7.359  2.1439  2.0161 -0.8388
   85MOL0     H11722   5.642   2.498   7.462  0.1421  0.3327 -0.5444
   85MOL0     H11723   5.759   2.539   7.581 -0.0878 -0.5717  0.0654
   85MOL0     H11724   5.503   2.696   7.524 -0.3668  0.0242  1.1297
   85MOL0     H11725   5.630   2.756   7.628  1.6141 -0.7299 -0.0489
   85MOL0     H11726   5.439   2.425   7.845 -1.2285 -1.2062 -1.1487
   85MOL0     H11727   6.118   2.782   7.526 -2.8035 -1.3630 -2.3255
   85MOL0     H11728   6.405   2.960   7.554  0.0505  0.1094  1.9641
   85MOL0     H11729   6.319   2.817   7.610 -0.4938 -2.3046 -0.7147
   85MOL0     H11730   6.451   2.794   7.497  1.3133  2.2076  1.7267
   86MOL0     O11731   5.247   8.111   8.929 -0.0140 -0.5960 -0.2389
   86MOL0     C11732   5.155   8.060   8.992  1.1194 -0.5176 -0.0179
   86MOL0     O11733   5.164   7.969   9.091  0.6319  0.1437  0.0106
   86MOL0     C11734   5.285   7.922   9.130 -0.4609 -0.0423 -0.1562
   86MOL0     C11735   5.311   7.784   9.111 -0.8965  0.0886  0.0809
   86MOL0     C11736   5.434   7.737   9.141 -0.3802 -0.8091 -0.4891
   86MOL0     C11737   5.529   7.820   9.209  0.2986  0.3039 -0.1698
   86MOL0     O11738   5.634   7.743   9.252 -0.0887 -0.7437  0.0760
   86MOL0     C11739   5.729   7.802   9.340  0.7529  0.0343 -0.5288
   86MOL0     C11740   5.846   7.707   9.354  0.7022  0.1196 -0.0075
   86MOL0     C11741   5.964   7.768   9.427  0.5268  0.1084 -0.1819
   86MOL0     C11742   6.047   7.861   9.332  0.7510 -0.2116 -0.0163
   86MOL0     C11743   6.184   7.899   9.395 -0.3969  0.1637  0.3864
   86MOL0     C11744   6.283   7.783   9.392 -0.0313 -0.8414 -0.2034
   86MOL0     C11745   6.325   7.753   9.248 -0.4658  0.3210  0.0061
   86MOL0     C11746   6.415   7.856   9.177 -0.2502  0.2573 -0.0682
   86MOL0     N11747   6.530   7.890   9.268 -0.4064 -0.0833  0.3164
   86MOL0     C11748   6.625   7.809   9.324 -0.6258 -0.4671  0.3443
   86MOL0     C11749   6.709   7.893   9.389  0.3073 -0.3699  0.8010
   86MOL0     C11750   6.812   7.850   9.478  0.0749 -0.1832  0.5504
   86MOL0     C11751   6.894   7.725   9.430  0.3507 -0.2455 -0.4588
   86MOL0     C11752   6.979   7.752   9.307  1.1353 -1.1082 -0.5232
   86MOL0     C11753   7.095   7.860   9.325  0.1100 -0.4727 -0.0113
   86MOL0     O11754   7.158   7.885   9.199  0.3794 -0.2310  0.6255
   86MOL0     C11755   7.104   7.981   9.110  0.2273 -0.1681  0.0678
   86MOL0     C11756   6.975   8.046   9.122  0.2162 -0.5228  0.2572
   86MOL0     C11757   6.939   8.157   9.045  0.1626  0.0260  0.2076
   86MOL0     C11758   6.812   8.227   9.093  0.7018  0.1673 -0.0173
   86MOL0     C11759   7.032   8.206   8.953  1.0450 -0.3329 -0.0493
   86MOL0     C11760   7.025   8.339   8.897  0.5076  0.0715 -0.4461
   86MOL0     O11761   7.123   8.362   8.806 -0.2321 -0.0121  0.2795
   86MOL0     C11762   7.164   8.494   8.788 -0.3767  0.5341  0.4867
   86MOL0     C11763   7.192   8.590   8.886  0.3068 -0.2375  0.5089
   86MOL0     C11764   7.241   8.718   8.847 -0.0451  0.9459  0.2106
   86MOL0     C11765   7.250   8.756   8.710  0.1238  0.5538  0.1195
   86MOL0     O11766   7.286   8.883   8.671 -0.2303 -0.0087  0.0726
   86MOL0     C11767   7.252   8.994   8.752  0.2032 -0.4518  0.4135
   86MOL0     C11768   7.329   9.115   8.710  0.4774  0.4838 -0.3905
   86MOL0     C11769   7.480   9.084   8.711  0.2981 -0.0947  0.2109
   86MOL0     C11770   7.566   9.209   8.710 -0.1371 -0.4009  0.1655
   86MOL0     C11771   7.702   9.152   8.649  0.0498  0.0810 -0.5428
   86MOL0     C11772   7.824   9.241   8.673 -0.1631  0.3829  0.0163
   86MOL0     C11773   7.797   9.388   8.635  0.3031  0.1926  0.1915
   86MOL0     C11774   7.919   9.469   8.646  0.5204  0.4195 -0.4480
   86MOL0    Cl11775   7.891   9.637   8.578 -0.1473 -0.2425 -0.1273
   86MOL0     C11776   7.206   8.668   8.610  0.0731  0.6791 -0.3983
   86MOL0     C11777   7.172   8.536   8.654  0.3867  0.3313 -0.5536
   86MOL0     O11778   6.936   8.417   8.930  0.2950  0.1265 -0.3658
   86MOL0     C11779   7.145   8.124   8.915  1.0437 -0.6061  0.3737
   86MOL0     C11780   7.185   8.020   9.004 -0.1740  0.2057  1.1046
   86MOL0     N11781   6.662   8.022   9.371  0.1001 -0.1947 -0.0573
   86MOL0     N11782   6.552   8.019   9.303  1.0066 -0.3298 -0.4604
   86MOL0     C11783   5.511   7.955   9.226  1.1936  0.2321 -0.0119
   86MOL0     C11784   5.383   8.004   9.189  0.6853  0.1352  0.7316
   86MOL0     C11785   5.014   8.088   8.932 -0.3903 -0.6314 -0.4848
   86MOL0     C11786   4.997   8.105   8.789 -0.5824 -0.3635 -0.1795
   86MOL0     C11787   4.869   8.129   8.735  0.3068  0.7524 -0.4500
   86MOL0     C11788   4.755   8.145   8.810  0.6803 -0.4074 -0.3841
   86MOL0     O11789   4.638   8.172   8.742 -0.3517  0.0010  0.1121
   86MOL0     C11790   4.520   8.112   8.796  0.1270 -0.3676  0.1394
   86MOL0     C11791   4.455   8.047   8.675 -0.1986 -0.9013 -0.8121
   86MOL0     C11792   4.514   7.908   8.656 -0.3987  0.3898  0.1173
   86MOL0     C11793   4.429   7.826   8.559  0.3546  0.2323  0.1217
   86MOL0     C11794   4.406   7.901   8.432 -0.5545  0.8873  0.4278
   86MOL0     C11795   4.401   7.972   8.336 -0.8772  0.3975  0.1301
   86MOL0     C11796   4.767   8.122   8.950 -0.1411  0.8274  0.3019
   86MOL0     C11797   4.888   8.091   9.009  1.0269 -0.3991  0.5232
   86MOL0     C11798   4.872   8.073   9.163  0.5675 -0.1268  0.3417
   86MOL0     H11799   5.233   7.722   9.068 -3.0622  1.8203  1.2997
   86MOL0     H11800   5.469   7.636   9.122 -1.6522 -1.4716  0.5568
   86MOL0     H11801   5.690   7.833   9.437 -0.0247  1.7477 -1.3543
   86MOL0     H11802   5.770   7.890   9.289 -0.6315 -0.3980 -2.4880
   86MOL0     H11803   5.810   7.616   9.403 -0.6335 -0.5340 -2.0561
   86MOL0     H11804   5.881   7.688   9.252  0.5910  1.6386 -0.3535
   86MOL0     H11805   5.926   7.823   9.513  0.2858 -1.6736  0.9008
   86MOL0     H11806   6.031   7.686   9.453  1.3008  0.5210 -0.8212
   86MOL0     H11807   6.052   7.818   9.232 -0.4610 -0.6028  0.0806
   86MOL0     H11808   5.984   7.950   9.325 -1.9170 -1.9823  0.3196
   86MOL0     H11809   6.170   7.920   9.502  0.4997  0.1601  0.5086
   86MOL0     H11810   6.230   7.990   9.355 -0.0752  0.7642  2.0350
   86MOL0     H11811   6.372   7.806   9.452 -0.1217 -0.3310 -0.2552
   86MOL0     H11812   6.255   7.685   9.432 -2.2402  0.0726  0.6527
   86MOL0     H11813   6.240   7.725   9.185  0.9210 -1.3379 -1.2388
   86MOL0     H11814   6.382   7.660   9.256 -2.3253 -0.8264  0.3951
   86MOL0     H11815   6.447   7.803   9.087 -0.6699 -2.0342  1.0281
   86MOL0     H11816   6.361   7.945   9.146 -0.6164 -0.5153 -1.7368
   86MOL0     H11817   6.630   7.700   9.323 -0.0205 -0.5055  2.3894
   86MOL0     H11818   6.761   7.829   9.572 -0.3648  0.3846  0.4484
   86MOL0     H11819   6.888   7.927   9.491  2.2781 -1.4896 -3.0148
   86MOL0     H11820   6.955   7.701   9.518 -2.1667 -0.6936  1.2731
   86MOL0     H11821   6.831   7.639   9.404  0.3044  0.5320 -3.1937
   86MOL0     H11822   7.030   7.661   9.272  2.2487 -0.4702 -0.6230
   86MOL0     H11823   6.909   7.785   9.230  0.0174 -2.4077 -0.1094
   86MOL0     H11824   7.059   7.956   9.364  4.0024  0.7812  0.9840
   86MOL0     H11825   7.170   7.829   9.399 -1.2513 -0.6695  1.3258
   86MOL0     H11826   6.916   8.024   9.210 -1.1587  3.5308  0.5526
   86MOL0     H11827   6.766   8.263   9.001 -0.5928  0.7555  0.8368
   86MOL0     H11828   6.827   8.303   9.170 -2.7191 -0.6309  1.6044
   86MOL0     H11829   6.752   8.147   9.136  0.0844  0.1203 -0.9512
   86MOL0     H11830   7.181   8.555   8.989 -0.6042  1.2448  0.9484
   86MOL0     H11831   7.278   8.781   8.927  0.5138  1.3993 -0.4000
   86MOL0     H11832   7.146   9.016   8.741  0.7153  2.8962  1.3307
   86MOL0     H11833   7.272   8.987   8.859 -2.8053  1.4366  1.2068
   86MOL0     H11834   7.301   9.151   8.611 -1.7405  1.6373  0.5908
   86MOL0     H11835   7.300   9.199   8.775  0.7794 -1.9353  3.1811
   86MOL0     H11836   7.503   9.022   8.623  2.0263  0.6532  0.0856
   86MOL0     H11837   7.500   9.031   8.805 -1.7480  0.5627  1.0536
   86MOL0     H11838   7.573   9.237   8.816  1.2292 -1.9314  0.5192
   86MOL0     H11839   7.527   9.291   8.650  1.7417 -0.9887 -1.9822
   86MOL0     H11840   7.715   9.046   8.672 -1.2252 -0.2728 -1.3409
   86MOL0     H11841   7.691   9.155   8.540  2.8018  3.6772 -0.8941
   86MOL0     H11842   7.917   9.214   8.622 -0.5856  0.3643 -0.7471
   86MOL0     H11843   7.850   9.238   8.780  1.4610  2.0531 -0.2700
   86MOL0     H11844   7.716   9.430   8.695 -0.3211 -0.2975 -0.2745
   86MOL0     H11845   7.757   9.390   8.533 -1.6508  0.7150  0.9254
   86MOL0     H11846   7.995   9.428   8.579 -0.7266  2.4513 -3.2805
   86MOL0     H11847   7.952   9.465   8.751  0.3053  0.3459 -0.3818
   86MOL0     H11848   7.215   8.694   8.505  1.9648 -0.7571 -0.6395
   86MOL0     H11849   7.141   8.454   8.591 -1.2240 -0.1839  0.8230
   86MOL0     H11850   7.217   8.150   8.838 -0.2746 -1.1849 -1.1112
   86MOL0     H11851   7.279   7.967   8.991  0.4997  1.5203  0.4298
   86MOL0     H11852   5.577   8.029   9.269 -0.6166  1.8659  0.0540
   86MOL0     H11853   5.364   8.111   9.198  2.7668  0.5170  1.0772
   86MOL0     H11854   5.082   8.111   8.722 -1.7654  0.0203 -1.6833
   86MOL0     H11855   4.863   8.146   8.628 -2.5528 -1.1188 -0.6844
   86MOL0     H11856   4.530   8.037   8.875  2.4743  0.0351  0.2849
   86MOL0     H11857   4.448   8.184   8.836  0.8217 -0.0571  0.8395
   86MOL0     H11858   4.477   8.105   8.585  1.8873  1.0885  0.8288
   86MOL0     H11859   4.348   8.038   8.693 -0.3529  2.6244  0.8096
   86MOL0     H11860   4.611   7.925   8.609 -1.0387  2.2525 -0.5997
   86MOL0     H11861   4.537   7.844   8.742 -1.3147 -0.4099 -0.2101
   86MOL0     H11862   4.331   7.811   8.606  0.3368 -2.4900 -0.6696
   86MOL0     H11863   4.475   7.732   8.530 -1.5951 -0.5023 -0.7361
   86MOL0     H11864   4.420   8.037   8.252 -0.2581 -0.5394 -0.4701
   86MOL0     H11865   4.677   8.150   9.004  0.2680  1.9108  0.4491
   86MOL0     H11866   4.957   8.011   9.193 -0.3405 -1.5609  0.0366
   86MOL0     H11867   4.878   8.170   9.212 -0.9365  1.3410 -2.1649
   86MOL0     H11868   4.780   8.026   9.199 -0.1448 -0.5008 -1.8348
   87MOL0     O11869   6.711   6.203   9.783 -0.1655 -0.2637 -0.1449
   87MOL0     C11870   6.711   6.118   9.871  0.2984  0.1004  0.4634
   87MOL0     O11871   6.778   5.998   9.873 -0.5968  0.3050  0.5144
   87MOL0     C11872   6.876   5.981   9.783 -0.5875  0.1378 -0.2908
   87MOL0     C11873   7.004   5.977   9.829 -0.7189  0.2669  0.2035
   87MOL0     C11874   7.109   5.946   9.737  0.2116  0.4810  0.1585
   87MOL0     C11875   7.083   5.948   9.598 -0.1634 -0.5876 -0.3111
   87MOL0     O11876   7.186   5.940   9.508 -0.5047 -0.4276 -0.3202
   87MOL0     C11877   7.188   6.028   9.393 -0.2751  0.5020 -0.3102
   87MOL0     C11878   7.296   5.975   9.301 -0.3384 -0.1413  0.2203
   87MOL0     C11879   7.428   5.964   9.360  0.3780 -0.5982 -0.2445
   87MOL0     C11880   7.505   5.866   9.275 -0.3981 -0.2158  0.0927
   87MOL0     C11881   7.650   5.860   9.308  0.0270 -1.1215  0.0092
   87MOL0     C11882   7.719   5.772   9.201 -0.0458  0.5569  0.6050
   87MOL0     C11883   7.869   5.734   9.225  0.0266 -0.3025 -0.3290
   87MOL0     C11884   7.920   5.649   9.105  0.0859  0.4697  0.0133
   87MOL0     N11885   8.060   5.620   9.125  0.3052 -0.3728  0.2138
   87MOL0     C11886   8.108   5.546   9.229 -0.0674 -0.2299  0.7141
   87MOL0     C11887   8.241   5.563   9.228 -0.4034  0.1964  0.8714
   87MOL0     C11888   8.340   5.470   9.291 -0.3526 -0.5007 -0.7252
   87MOL0     C11889   8.322   5.319   9.255 -0.9254 -0.1300  0.1757
   87MOL0     C11890   8.327   5.308   9.096 -0.4525  0.3548  0.0779
   87MOL0     C11891   8.451   5.360   9.026  0.9159  0.3692  0.2186
   87MOL0     O11892   8.559   5.290   9.088 -0.2502  0.4436 -0.2943
   87MOL0     C11893   8.680   5.287   9.017 -0.5266  0.0713  1.1865
   87MOL0     C11894   8.794   5.351   9.086 -0.7427  0.0324  0.4487
   87MOL0     C11895   8.914   5.366   9.027 -1.0966  0.1587  0.0213
   87MOL0     C11896   9.029   5.400   9.113 -0.1233 -0.1855 -0.1927
   87MOL0     C11897   8.930   5.331   8.895  0.2840 -0.0490 -0.0582
   87MOL0     C11898   9.055   5.345   8.817  0.4934  0.1204 -1.8020
   87MOL0     O11899   9.037   5.359   8.683 -0.2774 -0.0654 -0.3246
   87MOL0     C11900   9.149   5.363   8.605 -0.5469 -0.1662  0.0401
   87MOL0     C11901   9.217   5.254   8.539 -0.3309 -0.4429  0.2615
   87MOL0     C11902   9.345   5.286   8.483  0.6314 -0.1007 -0.0332
   87MOL0     C11903   9.404   5.412   8.493 -0.4352  0.2392  1.0580
   87MOL0     O11904   9.528   5.434   8.436 -0.1131 -0.5367  0.6341
   87MOL0     C11905   9.624   5.509   8.512 -0.3913 -0.1479  0.2883
   87MOL0     C11906   9.765   5.482   8.469 -1.0825 -0.5029  0.0335
   87MOL0     C11907   9.873   5.571   8.537  0.6909  0.3070 -0.7873
   87MOL0     C11908  10.009   5.524   8.490 -0.3437  0.1348 -0.1267
   87MOL0     C11909  10.126   5.592   8.556  0.3112 -0.3652  0.0541
   87MOL0     C11910  10.256   5.546   8.490 -0.5897 -0.7460  0.2884
   87MOL0     C11911  10.381   5.623   8.554  0.3384 -0.3567  0.0052
   87MOL0     C11912  10.499   5.535   8.570 -0.7094  0.3710 -0.1273
   87MOL0    Cl11913  10.549   5.502   8.396 -0.2366  0.1445  0.2668
   87MOL0     C11914   9.329   5.518   8.541 -0.2960  0.0884  0.2555
   87MOL0     C11915   9.207   5.491   8.587  1.0957 -0.1965 -0.4513
   87MOL0     O11916   9.165   5.335   8.872  0.0520 -0.6381  0.3749
   87MOL0     C11917   8.822   5.269   8.825  0.0933 -0.0526  0.4753
   87MOL0     C11918   8.700   5.244   8.886  0.5486  1.1980  0.4136
   87MOL0     N11919   8.275   5.649   9.122  0.1771 -0.1557 -0.5924
   87MOL0     N11920   8.168   5.682   9.065  0.3412  0.3572 -0.5956
   87MOL0     C11921   6.950   5.955   9.555 -0.1277 -0.1531 -0.2715
   87MOL0     C11922   6.845   5.970   9.650  0.4107 -0.1320  0.3551
   87MOL0     C11923   6.620   6.154   9.985 -0.0194  0.9279  0.2882
   87MOL0     C11924   6.670   6.168  10.116 -0.3919  1.3402  0.0154
   87MOL0     C11925   6.587   6.199  10.228 -0.1795  0.2842  0.0833
   87MOL0     C11926   6.447   6.216  10.210 -0.1035  0.5478 -0.4030
   87MOL0     O11927   6.370   6.250  10.324 -0.2678  0.2059  0.8845
   87MOL0     C11928   6.228   6.221  10.321  0.0056  0.1331  0.2543
   87MOL0     C11929   6.165   6.274  10.450  0.6681 -0.5733  0.5166
   87MOL0     C11930   6.022   6.231  10.467 -0.4004  0.1929  0.5974
   87MOL0     C11931   5.923   6.318  10.391 -0.2452  0.3611  1.2688
   87MOL0     C11932   5.785   6.282  10.389  0.6925  0.1958 -0.9211
   87MOL0     C11933   5.679   6.234  10.382  0.3588 -0.1693 -0.2435
   87MOL0     C11934   6.393   6.200  10.086  0.1154  0.7531  0.0085
   87MOL0     C11935   6.479   6.171   9.976 -0.3222  0.8405  0.7291
   87MOL0     C11936   6.407   6.138   9.837 -0.1620 -0.2700  0.7679
   87MOL0     H11937   7.041   5.992   9.930  1.6448 -1.2627 -0.3562
   87MOL0     H11938   7.211   5.944   9.771  0.4562  0.0956 -0.5634
   87MOL0     H11939   7.211   6.131   9.423 -3.3214  1.5436 -1.1966
   87MOL0     H11940   7.092   6.037   9.341 -0.2382  1.9476 -0.1711
   87MOL0     H11941   7.258   5.880   9.262 -1.4519 -0.1692  1.2926
   87MOL0     H11942   7.310   6.034   9.210  1.7456  2.7734  2.2471
   87MOL0     H11943   7.476   6.061   9.349 -1.0002  0.4670  2.2325
   87MOL0     H11944   7.427   5.931   9.464  0.5719  1.4233  0.4497
   87MOL0     H11945   7.457   5.768   9.290 -1.6266  0.5925  1.8690
   87MOL0     H11946   7.488   5.894   9.171  2.0622  0.3201 -0.2067
   87MOL0     H11947   7.654   5.808   9.404 -0.6385  0.3924  0.8892
   87MOL0     H11948   7.707   5.953   9.310 -2.1658  0.3218 -0.7070
   87MOL0     H11949   7.661   5.680   9.192 -0.6381  1.1647 -2.8554
   87MOL0     H11950   7.704   5.817   9.103 -0.9861  0.8951  0.8970
   87MOL0     H11951   7.874   5.675   9.317 -2.5506  1.5673  1.1397
   87MOL0     H11952   7.931   5.820   9.251  1.3157 -1.2928 -0.0065
   87MOL0     H11953   7.868   5.556   9.084 -0.1986 -0.5854  4.4072
   87MOL0     H11954   7.912   5.715   9.017 -0.3911 -0.4721 -0.6600
   87MOL0     H11955   8.062   5.469   9.290 -0.0743 -3.0658 -2.6258
   87MOL0     H11956   8.334   5.472   9.400  1.8826 -2.5475 -0.4847
   87MOL0     H11957   8.443   5.502   9.274 -0.0025 -1.1169  0.1973
   87MOL0     H11958   8.401   5.265   9.309  1.8746  2.7227 -0.7348
   87MOL0     H11959   8.223   5.279   9.277 -1.0918 -1.0317 -1.9830
   87MOL0     H11960   8.317   5.200   9.081 -1.8569  0.1216  2.2005
   87MOL0     H11961   8.236   5.356   9.058 -0.2810  0.2931 -0.4235
   87MOL0     H11962   8.444   5.335   8.919 -1.0476  0.8358  0.1960
   87MOL0     H11963   8.453   5.467   9.051  1.2564 -0.0196  1.9407
   87MOL0     H11964   8.793   5.393   9.186  1.5979 -0.1790  0.6002
   87MOL0     H11965   9.075   5.304   9.139 -1.8193 -1.2241 -0.8982
   87MOL0     H11966   8.992   5.456   9.200  3.4662  2.2982 -0.0128
   87MOL0     H11967   9.096   5.473   9.067 -0.3693 -0.6904 -1.3888
   87MOL0     H11968   9.183   5.151   8.529  1.1177 -0.9005 -0.1206
   87MOL0     H11969   9.396   5.211   8.422  2.7524  0.2936  1.1777
   87MOL0     H11970   9.611   5.617   8.501  2.5027  0.2634  0.0790
   87MOL0     H11971   9.613   5.475   8.615 -0.7578 -0.0800  0.2738
   87MOL0     H11972   9.783   5.374   8.477  1.5896 -0.3401 -2.2115
   87MOL0     H11973   9.764   5.501   8.361  3.5412 -0.1847 -0.1261
   87MOL0     H11974   9.859   5.551   8.644 -0.4942  0.6422 -0.8717
   87MOL0     H11975   9.855   5.678   8.520  1.7394  0.6958  0.3930
   87MOL0     H11976  10.016   5.532   8.381  0.8466  1.0751  0.0003
   87MOL0     H11977  10.011   5.417   8.511 -3.0620  0.0700  0.1967
   87MOL0     H11978  10.113   5.700   8.544  2.9421 -0.2550 -3.4729
   87MOL0     H11979  10.138   5.568   8.662  1.2861 -0.5657 -0.0903
   87MOL0     H11980  10.250   5.570   8.384 -1.9444  2.0462  0.8921
   87MOL0     H11981  10.265   5.438   8.503 -0.8239 -0.4902  3.5992
   87MOL0     H11982  10.353   5.658   8.654 -0.9168  0.7580 -0.6980
   87MOL0     H11983  10.414   5.705   8.489 -1.2418 -0.7766 -1.3877
   87MOL0     H11984  10.470   5.443   8.622 -0.9297  1.6089  2.0304
   87MOL0     H11985  10.575   5.579   8.636 -2.7367 -0.8284  3.2509
   87MOL0     H11986   9.364   5.620   8.554 -1.6914  0.5926  0.2752
   87MOL0     H11987   9.152   5.562   8.648 -1.6849 -2.2571 -0.4348
   87MOL0     H11988   8.833   5.246   8.720  0.0942  2.1620 -0.0605
   87MOL0     H11989   8.633   5.185   8.824 -0.9308  0.5741  2.5086
   87MOL0     H11990   6.910   5.967   9.455 -0.3948 -0.4128 -0.1970
   87MOL0     H11991   6.742   5.972   9.617  0.2707  1.4760  0.8447
   87MOL0     H11992   6.778   6.156  10.122 -0.3349  2.1346  0.7997
   87MOL0     H11993   6.628   6.214  10.327  0.7570  1.5704 -0.4651
   87MOL0     H11994   6.178   6.266  10.234 -0.2018  0.7161  0.6648
   87MOL0     H11995   6.219   6.114  10.303  1.3263 -0.2382  1.6533
   87MOL0     H11996   6.180   6.382  10.461  0.2815 -0.3674 -0.8884
   87MOL0     H11997   6.213   6.238  10.542 -1.0048  2.9844  3.0082
   87MOL0     H11998   6.018   6.128  10.430  0.5915  0.1663  0.5580
   87MOL0     H11999   5.983   6.224  10.569 -0.6296 -0.4895  0.4682
   87MOL0     H12000   5.943   6.322  10.284  2.3983 -0.4296  1.6636
   87MOL0     H12001   5.942   6.417  10.434  0.4527  0.7909  0.0049
   87MOL0     H12002   5.582   6.191  10.368  0.4374 -0.1388 -0.9205
   87MOL0     H12003   6.288   6.208  10.061 -0.5529  0.5940  2.4956
   87MOL0     H12004   6.468   6.181   9.757  1.1762 -0.7458  1.5011
   87MOL0     H12005   6.391   6.030   9.824 -0.7367 -0.2827  1.4906
   87MOL0     H12006   6.304   6.176   9.844 -0.2348 -0.7651  3.1418
   88MOL0     O12007   8.579   2.910   8.637  0.0430 -0.0185 -0.6521
   88MOL0     C12008   8.603   2.912   8.516 -0.0614  0.7232  0.1501
   88MOL0     O12009   8.725   2.908   8.455 -0.4862 -0.5551 -0.4205
   88MOL0     C12010   8.832   2.889   8.543 -0.4527 -0.1643 -0.3400
   88MOL0     C12011   8.891   2.771   8.537 -0.3631  0.2078 -0.8078
   88MOL0     C12012   9.019   2.744   8.595  0.1247  0.0490 -0.3359
   88MOL0     C12013   9.085   2.842   8.659  0.2545 -0.5520  0.0553
   88MOL0     O12014   9.203   2.806   8.721 -0.1927  0.4459  0.1525
   88MOL0     C12015   9.272   2.907   8.789  0.0719 -0.8833  0.4599
   88MOL0     C12016   9.413   2.848   8.819 -0.4241  0.2841  0.3599
   88MOL0     C12017   9.503   2.813   8.699  0.6017 -0.4053 -0.0182
   88MOL0     C12018   9.582   2.941   8.646  0.4375 -0.0727  0.5789
   88MOL0     C12019   9.676   2.893   8.540 -0.6156 -0.4852  0.4823
   88MOL0     C12020   9.746   3.018   8.476 -0.7086 -0.5186 -0.6411
   88MOL0     C12021   9.844   2.964   8.377 -0.6196  0.4643  0.2190
   88MOL0     C12022   9.906   3.072   8.288 -0.2607  0.1290 -0.4460
   88MOL0     N12023  10.003   3.021   8.186 -0.4880  0.2445  0.2203
   88MOL0     C12024  10.134   2.983   8.210  0.4122 -0.2755 -0.6452
   88MOL0     C12025  10.168   2.928   8.094 -1.1780  0.4969  0.1536
   88MOL0     C12026  10.301   2.848   8.072 -0.5332 -0.0183 -0.2488
   88MOL0     C12027  10.427   2.933   8.069 -0.8055  0.3799 -0.0551
   88MOL0     C12028  10.547   2.849   8.018 -0.6388  0.1864  0.4281
   88MOL0     C12029  10.681   2.923   8.043 -0.7312 -1.0179 -0.3440
   88MOL0     O12030  10.707   2.937   8.189  0.8652  0.6041 -0.0009
   88MOL0     C12031  10.816   2.995   8.233  0.7784 -0.4311 -0.8515
   88MOL0     C12032  10.835   3.018   8.375  0.5214  0.3829  0.9676
   88MOL0     C12033  10.952   3.077   8.423  0.5736 -0.0144  0.5826
   88MOL0     C12034  10.957   3.116   8.566  0.1381 -0.1198 -0.0125
   88MOL0     C12035  11.063   3.100   8.334 -0.1190  0.4225 -0.2803
   88MOL0     C12036  11.202   3.161   8.364  0.7361 -0.4761 -0.5302
   88MOL0     O12037  11.255   3.237   8.263 -0.7425 -0.2455  0.7323
   88MOL0     C12038  11.383   3.293   8.277  0.2637 -0.5394 -0.7517
   88MOL0     C12039  11.486   3.257   8.367  0.3768 -0.2955  0.3456
   88MOL0     C12040  11.615   3.321   8.349  0.2064 -0.2222  0.4060
   88MOL0     C12041  11.633   3.420   8.248  1.1782  0.7591  0.2099
   88MOL0     O12042  11.748   3.500   8.228 -0.0481 -0.3942 -0.1804
   88MOL0     C12043  11.858   3.495   8.312  0.5311 -0.0986  0.6200
   88MOL0     C12044  11.976   3.408   8.251 -0.9355 -0.8142  0.0778
   88MOL0     C12045  12.104   3.404   8.338  0.4409  0.2673 -0.6601
   88MOL0     C12046  12.177   3.541   8.343  1.0696 -0.3829  0.0877
   88MOL0     C12047  12.322   3.528   8.387 -0.7595  0.4247 -0.2837
   88MOL0     C12048  12.383   3.662   8.430  0.3402  0.3295 -0.6326
   88MOL0     C12049  12.516   3.650   8.514  0.0709  0.7027 -0.5712
   88MOL0     C12050  12.627   3.581   8.428 -0.4757 -0.0256 -0.1308
   88MOL0    Cl12051  12.684   3.717   8.320 -0.2465 -0.3595  0.3931
   88MOL0     C12052  11.529   3.451   8.163 -0.8728  0.1819  0.0785
   88MOL0     C12053  11.410   3.384   8.174 -0.1504 -0.2285 -0.3800
   88MOL0     O12054  11.244   3.152   8.480  0.3696 -0.1595 -0.6751
   88MOL0     C12055  11.036   3.079   8.196 -0.5714 -0.4973  0.8634
   88MOL0     C12056  10.913   3.036   8.140  0.6778 -0.4251 -0.1254
   88MOL0     N12057  10.073   2.956   7.997 -0.3254  0.2396 -0.5352
   88MOL0     N12058   9.964   3.003   8.058  0.1210  0.3778 -0.0419
   88MOL0     C12059   9.024   2.971   8.666  0.2498 -0.8242  0.2095
   88MOL0     C12060   8.899   2.992   8.612 -0.1762 -0.3073  1.2089
   88MOL0     C12061   8.484   2.925   8.424  0.6311 -0.3970 -0.1546
   88MOL0     C12062   8.369   2.985   8.485 -0.2276 -0.8862  0.4250
   88MOL0     C12063   8.260   3.006   8.399  0.5624  0.0226 -0.2247
   88MOL0     C12064   8.260   2.972   8.266  0.8543  0.6930 -0.1731
   88MOL0     O12065   8.149   3.011   8.192 -0.0746 -0.3373  0.1431
   88MOL0     C12066   8.139   3.016   8.051  1.0811 -0.7158 -0.5178
   88MOL0     C12067   8.108   2.880   7.973  0.2545 -0.2677 -0.4181
   88MOL0     C12068   7.991   2.797   8.032  0.6042 -0.1779  0.2653
   88MOL0     C12069   7.946   2.677   7.936  0.0743  0.4502 -0.0462
   88MOL0     C12070   8.036   2.565   7.968  0.3452  0.2461 -0.6010
   88MOL0     C12071   8.100   2.466   7.989  1.2094 -0.7974  0.0352
   88MOL0     C12072   8.378   2.919   8.214  0.5154  1.2724 -0.8041
   88MOL0     C12073   8.491   2.886   8.291  0.2808 -0.1123 -0.6104
   88MOL0     C12074   8.600   2.804   8.229  0.6853 -0.3314 -1.3424
   88MOL0     H12075   8.834   2.698   8.480 -1.4077  1.5398 -1.5222
   88MOL0     H12076   9.080   2.655   8.579  1.9878  1.4778 -1.6366
   88MOL0     H12077   9.225   2.925   8.886 -1.1244  2.2562 -0.5770
   88MOL0     H12078   9.280   3.003   8.737  1.4147 -2.0196 -1.5954
   88MOL0     H12079   9.466   2.925   8.876 -0.1136 -0.0077  0.4676
   88MOL0     H12080   9.404   2.763   8.887 -1.8389  0.8355  0.9027
   88MOL0     H12081   9.579   2.739   8.724 -0.1811 -1.4121 -0.5606
   88MOL0     H12082   9.434   2.773   8.624 -0.0396  0.5041  0.0675
   88MOL0     H12083   9.518   3.013   8.594  1.4617 -0.8891 -1.9779
   88MOL0     H12084   9.633   3.004   8.719  1.7788  0.5071 -0.8039
   88MOL0     H12085   9.624   2.829   8.468 -1.9562  2.0492 -0.9465
   88MOL0     H12086   9.760   2.837   8.581  1.9696  3.4753  1.1421
   88MOL0     H12087   9.666   3.078   8.433 -1.9808  0.3015  2.5996
   88MOL0     H12088   9.796   3.067   8.560  0.0709 -0.6336 -1.0312
   88MOL0     H12089   9.796   2.890   8.311  1.6028 -2.7642  1.9173
   88MOL0     H12090   9.928   2.919   8.431 -0.6457  2.3920  1.9870
   88MOL0     H12091   9.835   3.140   8.240 -4.1370 -3.4412 -0.3385
   88MOL0     H12092   9.952   3.131   8.367  0.7586 -1.7465  0.4135
   88MOL0     H12093  10.196   3.000   8.298 -1.6986 -3.0511  1.5522
   88MOL0     H12094  10.274   2.810   7.973 -2.1532 -0.2850  0.2608
   88MOL0     H12095  10.304   2.769   8.148 -0.3642  1.9140  1.8710
   88MOL0     H12096  10.415   3.026   8.013  1.6595 -1.2568 -3.6971
   88MOL0     H12097  10.454   2.959   8.172 -0.1981 -0.4763  0.0100
   88MOL0     H12098  10.554   2.749   8.062 -0.0587  0.0481  0.0496
   88MOL0     H12099  10.537   2.848   7.909  3.4215 -0.3687 -0.1108
   88MOL0     H12100  10.762   2.868   7.993  0.6303  0.8991 -0.3601
   88MOL0     H12101  10.674   3.021   7.994  0.9666 -1.2915 -1.2061
   88MOL0     H12102  10.753   2.981   8.436 -0.7640 -2.5418 -2.1815
   88MOL0     H12103  10.993   3.033   8.627 -2.7887 -2.2246 -0.9041
   88MOL0     H12104  10.857   3.135   8.606 -0.4198 -0.6785 -1.0909
   88MOL0     H12105  11.009   3.212   8.567 -1.8717  1.0326  1.0882
   88MOL0     H12106  11.487   3.173   8.435 -0.5264  0.1985  1.0010
   88MOL0     H12107  11.701   3.294   8.410  0.5741  0.5799  0.2674
   88MOL0     H12108  11.894   3.598   8.310 -0.9162  0.4650 -2.1023
   88MOL0     H12109  11.835   3.473   8.417  0.9146 -1.0025  0.5220
   88MOL0     H12110  11.938   3.306   8.238 -2.1256 -0.1694 -1.9935
   88MOL0     H12111  12.009   3.447   8.154 -0.9126  1.2564  0.8921
   88MOL0     H12112  12.169   3.325   8.299 -0.4816 -0.6300 -0.4440
   88MOL0     H12113  12.079   3.367   8.438  2.8710  0.0513 -0.0620
   88MOL0     H12114  12.124   3.608   8.412  0.9472  1.7350 -1.9363
   88MOL0     H12115  12.179   3.584   8.243  4.0876  0.2238  0.3120
   88MOL0     H12116  12.341   3.454   8.465 -1.8586 -0.2427 -0.6314
   88MOL0     H12117  12.388   3.491   8.307 -0.1567 -2.7369  1.5012
   88MOL0     H12118  12.313   3.702   8.504 -1.0457 -1.5914 -0.8360
   88MOL0     H12119  12.394   3.736   8.350 -1.1431  0.0324 -1.1395
   88MOL0     H12120  12.491   3.608   8.611 -1.7648  2.7757 -0.0396
   88MOL0     H12121  12.551   3.752   8.531  2.4753 -0.2405  0.4499
   88MOL0     H12122  12.597   3.497   8.365 -2.1971  1.3005 -1.1509
   88MOL0     H12123  12.711   3.557   8.494  0.4403  1.9037 -0.5095
   88MOL0     H12124  11.554   3.525   8.088  0.3645 -0.3468 -0.0591
   88MOL0     H12125  11.328   3.414   8.110 -0.8885 -1.1557  0.1131
   88MOL0     H12126  11.117   3.092   8.126 -0.4339 -0.7555  0.9707
   88MOL0     H12127  10.915   3.027   8.032 -0.7553 -2.4700 -0.0419
   88MOL0     H12128   9.068   3.062   8.705  2.7698 -0.6887 -2.6484
   88MOL0     H12129   8.862   3.095   8.608 -1.2353 -0.7217 -1.5318
   88MOL0     H12130   8.367   3.025   8.586  0.4414  0.4631 -0.0741
   88MOL0     H12131   8.170   3.056   8.434  2.3490  3.1419  0.2515
   88MOL0     H12132   8.058   3.079   8.013  0.1736 -1.9212 -0.6197
   88MOL0     H12133   8.236   3.049   8.011  0.6791 -1.7150 -2.4156
   88MOL0     H12134   8.197   2.816   7.981 -0.1708 -1.0672 -1.8384
   88MOL0     H12135   8.096   2.897   7.866 -1.5371 -1.3335 -0.4217
   88MOL0     H12136   8.011   2.760   8.133 -0.0222 -0.9538  0.1226
   88MOL0     H12137   7.900   2.857   8.042 -1.0981 -2.0970 -2.3325
   88MOL0     H12138   7.955   2.699   7.829  0.2363  0.4286 -0.0381
   88MOL0     H12139   7.847   2.639   7.960  0.8059 -1.4832  0.0396
   88MOL0     H12140   8.164   2.382   8.009 -0.0251 -1.6976  0.3874
   88MOL0     H12141   8.366   2.897   8.109 -3.2403 -0.0525 -0.2542
   88MOL0     H12142   8.560   2.730   8.159  2.7707 -1.2515 -1.6368
   88MOL0     H12143   8.670   2.865   8.172 -1.0289  0.3257 -2.8315
   88MOL0     H12144   8.653   2.746   8.305 -0.3996 -0.9274 -1.0063
   89MOL0     O12145   4.832  11.010   8.358 -0.1765 -0.4588 -0.6144
   89MOL0     C12146   4.853  10.889   8.361  0.0645 -0.1487 -0.2071
   89MOL0     O12147   4.972  10.825   8.396 -0.0728 -0.5054  0.2244
   89MOL0     C12148   5.091  10.896   8.407  0.0613  0.7554  0.9697
   89MOL0     C12149   5.120  11.022   8.360  0.4462 -0.5435  0.4363
   89MOL0     C12150   5.233  11.093   8.391  0.2875  0.5020  0.0076
   89MOL0     C12151   5.331  11.038   8.480 -0.3686  0.0223 -0.2689
   89MOL0     O12152   5.444  11.115   8.502  0.0147 -0.0980 -0.5069
   89MOL0     C12153   5.561  11.040   8.525 -0.9209  0.1643  1.0769
   89MOL0     C12154   5.683  11.132   8.566  0.1873 -0.4471  0.5567
   89MOL0     C12155   5.640  11.230   8.678 -0.5566 -0.0287  0.3653
   89MOL0     C12156   5.755  11.310   8.732 -0.4305 -0.6231  0.6421
   89MOL0     C12157   5.786  11.417   8.625  0.4308  0.9168  0.6146
   89MOL0     C12158   5.884  11.519   8.681  0.0984  0.0540 -0.3448
   89MOL0     C12159   5.908  11.628   8.575 -0.4290  0.0457  0.4983
   89MOL0     C12160   6.002  11.734   8.621  0.0402  0.0873 -0.6586
   89MOL0     N12161   6.135  11.673   8.657 -0.2647  0.6308 -0.4141
   89MOL0     C12162   6.182  11.654   8.782  0.5908  0.2439 -0.6524
   89MOL0     C12163   6.318  11.642   8.764  0.4100  0.5748 -0.2424
   89MOL0     C12164   6.432  11.641   8.866  0.4286 -0.0303 -0.0278
   89MOL0     C12165   6.489  11.774   8.896 -0.1552 -0.7025 -0.6534
   89MOL0     C12166   6.549  11.787   9.046 -0.4624  0.0921 -0.0072
   89MOL0     C12167   6.683  11.715   9.069  0.4789  0.4739 -0.4180
   89MOL0     O12168   6.776  11.766   8.976 -0.3309  0.8912 -0.4796
   89MOL0     C12169   6.906  11.725   8.994 -0.3163 -0.1172 -0.6985
   89MOL0     C12170   6.957  11.648   9.102  0.4003 -0.7872 -0.1292
   89MOL0     C12171   7.089  11.606   9.109  0.1361  1.0062 -0.1212
   89MOL0     C12172   7.134  11.536   9.238 -0.3658 -0.5694  0.6251
   89MOL0     C12173   7.178  11.640   9.003  0.0735  0.4440 -0.4047
   89MOL0     C12174   7.327  11.618   8.996  0.5304  0.0576  0.6799
   89MOL0     O12175   7.402  11.693   8.911  0.5948  0.0346  0.6732
   89MOL0     C12176   7.538  11.690   8.915 -0.4567  0.1272 -0.0201
   89MOL0     C12177   7.610  11.720   9.027 -0.3030  0.3080 -0.1261
   89MOL0     C12178   7.747  11.736   9.031  0.0633  0.1962  0.6994
   89MOL0     C12179   7.828  11.715   8.916  0.0319 -0.3009  0.5418
   89MOL0     O12180   7.965  11.716   8.926  0.6116 -0.1110 -0.5431
   89MOL0     C12181   8.043  11.723   8.808  0.4958  0.1848 -0.4873
   89MOL0     C12182   8.193  11.721   8.838  1.2392 -0.5603 -0.2757
   89MOL0     C12183   8.283  11.774   8.721  1.3584  0.0597 -0.6552
   89MOL0     C12184   8.430  11.794   8.759 -0.4565  0.5541  0.3312
   89MOL0     C12185   8.502  11.847   8.638 -0.0316 -0.0226  0.4755
   89MOL0     C12186   8.661  11.845   8.668 -0.0258 -0.1989  0.5024
   89MOL0     C12187   8.745  11.874   8.536  0.5701  0.4244 -1.0101
   89MOL0     C12188   8.716  12.008   8.472  0.2009 -0.4306 -0.3379
   89MOL0    Cl12189   8.843  12.049   8.363 -0.1952 -0.3085  0.3299
   89MOL0     C12190   7.754  11.687   8.798  0.5230 -0.4601 -0.1199
   89MOL0     C12191   7.620  11.664   8.799  0.1806 -0.9109 -0.5540
   89MOL0     O12192   7.372  11.523   9.062 -0.1303 -0.3764 -0.3970
   89MOL0     C12193   7.123  11.717   8.895 -0.8958 -0.4917  0.5961
   89MOL0     C12194   6.989  11.752   8.886 -0.6967  0.8758 -0.0860
   89MOL0     N12195   6.346  11.639   8.630  0.1272  0.2222  1.0433
   89MOL0     N12196   6.237  11.660   8.565 -0.0591 -0.3693  0.0946
   89MOL0     C12197   5.304  10.906   8.527 -0.1474 -0.3596 -0.0501
   89MOL0     C12198   5.189  10.837   8.485 -0.8976  0.2609 -0.6451
   89MOL0     C12199   4.738  10.806   8.324 -0.0063  0.2183 -0.2159
   89MOL0     C12200   4.754  10.673   8.353  0.9661  0.5224 -0.3956
   89MOL0     C12201   4.660  10.575   8.313  0.2708 -0.7818  0.4706
   89MOL0     C12202   4.542  10.606   8.241  0.5336  0.0876  0.1199
   89MOL0     O12203   4.457  10.499   8.216  0.4105 -0.3255  0.3584
   89MOL0     C12204   4.343  10.520   8.134 -0.7368 -0.0317 -0.3597
   89MOL0     C12205   4.246  10.402   8.152 -0.4882  0.3781  0.1960
   89MOL0     C12206   4.177  10.402   8.290  0.2518  0.4223  0.5468
   89MOL0     C12207   4.119  10.267   8.311 -0.0963  0.5385  0.5519
   89MOL0     C12208   4.091  10.267   8.449 -0.1931 -0.5288 -0.2365
   89MOL0     C12209   4.060  10.277   8.563 -0.1130 -0.3099  0.0558
   89MOL0     C12210   4.523  10.740   8.208 -0.2729 -0.3820  0.9386
   89MOL0     C12211   4.621  10.839   8.243 -0.3270 -0.8718  0.2771
   89MOL0     C12212   4.591  10.977   8.205  0.4782  0.3396  0.3147
   89MOL0     H12213   5.051  11.081   8.302  0.3775 -0.4935  0.5692
   89MOL0     H12214   5.246  11.194   8.354 -1.7995  0.2834 -1.5196
   89MOL0     H12215   5.591  10.977   8.441 -0.6686 -0.9581  1.9886
   89MOL0     H12216   5.557  10.969   8.608  1.8872  1.0421  2.0649
   89MOL0     H12217   5.769  11.069   8.590  0.8951  0.0383 -0.5963
   89MOL0     H12218   5.720  11.171   8.471  0.9207 -1.2078  0.5237
   89MOL0     H12219   5.561  11.298   8.643 -0.5709  0.7069  1.7418
   89MOL0     H12220   5.598  11.171   8.760 -1.8205  0.8799  0.4070
   89MOL0     H12221   5.724  11.359   8.825  0.1655 -0.1530  0.6028
   89MOL0     H12222   5.850  11.257   8.746  0.0804  0.1524  0.1894
   89MOL0     H12223   5.696  11.471   8.598  0.9898  1.0709 -1.0397
   89MOL0     H12224   5.828  11.367   8.538 -1.3777 -0.4115  0.4566
   89MOL0     H12225   5.851  11.572   8.770 -1.0321  1.9917 -1.8258
   89MOL0     H12226   5.978  11.468   8.706 -0.3838 -1.3003 -1.1782
   89MOL0     H12227   5.812  11.677   8.555 -1.0785 -1.4653 -0.2264
   89MOL0     H12228   5.934  11.587   8.478 -2.4240 -0.1930  0.0114
   89MOL0     H12229   6.011  11.809   8.542  0.8735  0.8969  0.1803
   89MOL0     H12230   5.954  11.783   8.707 -1.3091 -3.2037  0.6516
   89MOL0     H12231   6.124  11.656   8.873  1.2719 -1.2175 -0.1647
   89MOL0     H12232   6.515  11.576   8.838 -0.4665 -0.3826 -2.1108
   89MOL0     H12233   6.393  11.606   8.962  4.2188 -0.7034  1.4177
   89MOL0     H12234   6.567  11.807   8.827  1.6876 -1.6364  0.8892
   89MOL0     H12235   6.411  11.851   8.895  0.7910  0.2808 -0.4149
   89MOL0     H12236   6.548  11.896   9.060 -2.3979 -0.0733  1.6937
   89MOL0     H12237   6.472  11.746   9.113  2.2611 -0.8122  2.7739
   89MOL0     H12238   6.725  11.737   9.168  1.5545 -4.1349  0.3763
   89MOL0     H12239   6.675  11.606   9.074 -1.5116  0.6388  1.6140
   89MOL0     H12240   6.896  11.625   9.189  0.4289  1.7158  0.6136
   89MOL0     H12241   7.141  11.429   9.218  1.2814 -0.1558 -1.4370
   89MOL0     H12242   7.066  11.552   9.322 -1.6777 -1.7073 -0.1678
   89MOL0     H12243   7.236  11.565   9.264 -0.2314 -0.9254  0.5034
   89MOL0     H12244   7.571  11.730   9.128 -0.3642  0.5909 -0.1765
   89MOL0     H12245   7.794  11.754   9.127  1.6189  0.2671 -0.0474
   89MOL0     H12246   8.012  11.649   8.733 -1.1057 -1.3956  1.6245
   89MOL0     H12247   8.018  11.823   8.772  0.5923  1.2415  2.1407
   89MOL0     H12248   8.209  11.786   8.924  0.5958 -0.9406  0.1375
   89MOL0     H12249   8.214  11.617   8.864 -0.5128 -1.4697 -2.1774
   89MOL0     H12250   8.252  11.873   8.686  0.9454  0.0812 -0.2352
   89MOL0     H12251   8.272  11.700   8.641 -1.5544 -0.8005  0.4045
   89MOL0     H12252   8.462  11.695   8.793 -0.5432  1.5390  3.6028
   89MOL0     H12253   8.439  11.867   8.840  1.4971  0.0973  0.5809
   89MOL0     H12254   8.484  11.781   8.553  0.4934  2.2388 -1.4940
   89MOL0     H12255   8.471  11.947   8.607  1.3253 -0.4462 -2.5725
   89MOL0     H12256   8.688  11.748   8.712 -1.3969 -1.0343 -0.4267
   89MOL0     H12257   8.688  11.914   8.749 -0.3126  0.2002  0.2617
   89MOL0     H12258   8.724  11.792   8.466  1.7351 -2.3973  1.6839
   89MOL0     H12259   8.847  11.871   8.575  1.0344 -2.0266 -2.2476
   89MOL0     H12260   8.715  12.079   8.555  1.6189  0.1952 -0.8211
   89MOL0     H12261   8.622  11.990   8.419 -0.6880 -0.7313  1.2927
   89MOL0     H12262   7.811  11.641   8.718  0.0611 -1.2999  0.0289
   89MOL0     H12263   7.562  11.640   8.711  0.1427  2.4485 -1.5965
   89MOL0     H12264   7.182  11.747   8.809 -0.4910 -0.4817  0.8763
   89MOL0     H12265   6.948  11.807   8.803  1.2198  0.6309 -1.2657
   89MOL0     H12266   5.372  10.866   8.602 -0.2060  2.3117  1.5594
   89MOL0     H12267   5.183  10.734   8.519 -0.1102  1.3216  3.0539
   89MOL0     H12268   4.830  10.629   8.417  0.3666  1.4106  0.9703
   89MOL0     H12269   4.690  10.473   8.334  1.5050  0.1233  3.5199
   89MOL0     H12270   4.281  10.604   8.166 -3.0155 -1.3287 -1.1346
   89MOL0     H12271   4.371  10.542   8.031  0.1744 -1.0128 -0.3346
   89MOL0     H12272   4.306  10.312   8.138  0.4942  1.3394 -2.2590
   89MOL0     H12273   4.168  10.411   8.076  0.1276 -0.7056 -0.5862
   89MOL0     H12274   4.251  10.428   8.366 -0.9173  0.4713  1.7139
   89MOL0     H12275   4.100  10.479   8.300 -0.1384 -0.1942  3.1961
   89MOL0     H12276   4.199  10.194   8.291 -0.9919 -0.2692 -0.1537
   89MOL0     H12277   4.033  10.249   8.247  0.0369  0.4723  0.3891
   89MOL0     H12278   4.024  10.292   8.663  1.7484  1.0509  0.5917
   89MOL0     H12279   4.443  10.771   8.142  0.0247 -1.3019  0.1067
   89MOL0     H12280   4.569  11.017   8.304 -0.8816  0.6026 -0.0729
   89MOL0     H12281   4.678  11.024   8.159  0.9076  0.1712  0.9390
   89MOL0     H12282   4.501  10.993   8.143  0.0018  0.7585  1.1005
   90MOL0     O12283   7.799   0.310   3.756 -0.7247  0.4207 -0.0647
   90MOL0     C12284   7.910   0.360   3.754 -0.1381 -0.5385  0.0616
   90MOL0     O12285   7.991   0.379   3.859  0.1418 -0.3047 -0.2346
   90MOL0     C12286   7.987   0.310   3.977  0.4387 -0.0164 -0.0464
   90MOL0     C12287   8.002   0.384   4.105 -0.3228  0.6149 -1.0931
   90MOL0     C12288   7.997   0.309   4.225  0.1923  0.0117 -0.6503
   90MOL0     C12289   7.980   0.165   4.216 -0.1419  0.6783 -0.8357
   90MOL0     O12290   7.971   0.077   4.324 -0.0169  0.1157  0.0193
   90MOL0     C12291   8.030   0.110   4.450  0.6402  0.5953  0.4060
   90MOL0     C12292   7.925   0.182   4.544 -0.1801  0.4021 -0.0011
   90MOL0     C12293   7.843   0.073   4.616  0.3740  0.1278 -0.2995
   90MOL0     C12294   7.740   0.151   4.715  0.5259 -0.0564  0.0977
   90MOL0     C12295   7.621   0.056   4.751  0.8983 -0.3633 -0.3699
   90MOL0     C12296   7.657  -0.018   4.880 -0.1568  0.7022 -0.3636
   90MOL0     C12297   7.532  -0.100   4.923  0.4219  0.0457 -0.0664
   90MOL0     C12298   7.554  -0.248   4.965  0.0261  0.4296  0.1720
   90MOL0     N12299   7.660  -0.267   5.063 -0.1990  0.1654 -0.0592
   90MOL0     C12300   7.652  -0.336   5.180 -0.8825 -0.4166  0.6012
   90MOL0     C12301   7.789  -0.356   5.210 -0.2256 -0.1960  0.6617
   90MOL0     C12302   7.834  -0.417   5.335  0.4742  0.3647  0.5090
   90MOL0     C12303   7.957  -0.509   5.318 -0.1152 -0.6284 -0.5274
   90MOL0     C12304   8.009  -0.546   5.455  0.5368 -0.0749 -0.0666
   90MOL0     C12305   8.142  -0.623   5.442  1.0097 -0.1998  0.1702
   90MOL0     O12306   8.121  -0.746   5.363 -0.3195  0.1142  0.4846
   90MOL0     C12307   8.228  -0.823   5.340  0.3823  0.0003 -0.1759
   90MOL0     C12308   8.210  -0.940   5.267 -0.0725  0.6742  0.2167
   90MOL0     C12309   8.301  -1.030   5.235 -0.7089  0.5733  0.1066
   90MOL0     C12310   8.249  -1.139   5.135  0.0266 -0.4551 -0.9109
   90MOL0     C12311   8.431  -1.018   5.288  0.3631  0.0661 -0.5384
   90MOL0     C12312   8.539  -1.107   5.239 -0.0016 -0.1914  0.1636
   90MOL0     O12313   8.628  -1.140   5.334 -0.0711  0.4250  0.5946
   90MOL0     C12314   8.757  -1.185   5.287  0.1564  0.0006 -0.1902
   90MOL0     C12315   8.785  -1.314   5.239 -0.1837 -0.5345 -0.8412
   90MOL0     C12316   8.909  -1.353   5.193  0.3942 -0.1813  0.1402
   90MOL0     C12317   9.010  -1.258   5.186 -0.7242  0.1152 -0.4209
   90MOL0     O12318   9.135  -1.283   5.132  0.5429  0.3555  0.0113
   90MOL0     C12319   9.146  -1.389   5.032 -0.1752  0.1794  0.2762
   90MOL0     C12320   9.262  -1.356   4.938  1.3208  0.1914 -0.5179
   90MOL0     C12321   9.389  -1.317   5.006  0.4631  0.3908 -0.2924
   90MOL0     C12322   9.488  -1.287   4.899 -0.9252 -0.5172 -0.8536
   90MOL0     C12323   9.638  -1.258   4.954 -0.2656  0.0401 -0.3191
   90MOL0     C12324   9.752  -1.249   4.844 -0.1120 -0.6051  0.7641
   90MOL0     C12325   9.751  -1.356   4.740  0.3451 -0.0759 -0.2534
   90MOL0     C12326   9.884  -1.372   4.672  0.3039 -0.7527 -0.8950
   90MOL0    Cl12327   9.856  -1.481   4.538  0.0205  0.5682 -0.0924
   90MOL0     C12328   8.986  -1.127   5.233 -0.0172 -0.3376  0.2313
   90MOL0     C12329   8.864  -1.097   5.288  0.0258 -0.0472 -0.3380
   90MOL0     O12330   8.550  -1.136   5.124  0.6526  0.5990 -0.0008
   90MOL0     C12331   8.458  -0.897   5.360 -0.8043 -0.4183 -0.2068
   90MOL0     C12332   8.358  -0.801   5.379 -0.5496  0.2523 -0.0214
   90MOL0     N12333   7.866  -0.306   5.105 -0.0449  0.9934 -0.6020
   90MOL0     N12334   7.785  -0.253   5.022  0.2736 -0.7440 -0.9893
   90MOL0     C12335   7.985   0.095   4.093  0.5817  0.6104 -0.3591
   90MOL0     C12336   7.984   0.170   3.979 -0.4316 -0.3609  0.9896
   90MOL0     C12337   7.962   0.431   3.634  0.4641 -0.6731 -0.4269
   90MOL0     C12338   8.055   0.543   3.657 -0.0341 -0.0003  0.5068
   90MOL0     C12339   8.090   0.627   3.549 -0.5476  0.6193  0.7156
   90MOL0     C12340   8.041   0.604   3.419  0.1550  0.0938  0.3558
   90MOL0     O12341   8.062   0.682   3.311  0.2756  0.5444  0.0293
   90MOL0     C12342   8.150   0.794   3.318 -0.5345  0.3849 -0.1137
   90MOL0     C12343   8.284   0.719   3.286 -0.3381 -0.0982 -0.5121
   90MOL0     C12344   8.397   0.831   3.284 -0.4268 -0.1280  0.1572
   90MOL0     C12345   8.435   0.887   3.420 -0.2602 -0.8340  0.4764
   90MOL0     C12346   8.532   0.810   3.506  0.1587  0.2665 -0.2000
   90MOL0     C12347   8.596   0.742   3.586  0.1343  0.1872  0.5211
   90MOL0     C12348   7.966   0.483   3.395 -0.1284 -0.1175 -0.1279
   90MOL0     C12349   7.930   0.394   3.501 -0.5369 -0.7844  0.6284
   90MOL0     C12350   7.841   0.274   3.462 -0.1568 -0.5129 -0.7137
   90MOL0     H12351   8.038   0.486   4.098  4.2138 -0.5156  1.7159
   90MOL0     H12352   8.017   0.350   4.323  0.6860 -1.4424 -0.1324
   90MOL0     H12353   8.111   0.181   4.430  0.2751  1.0907  0.6600
   90MOL0     H12354   8.078   0.022   4.496 -3.2055 -1.0437  1.7307
   90MOL0     H12355   7.980   0.238   4.619  4.4257 -1.0840 -1.9443
   90MOL0     H12356   7.860   0.236   4.475 -0.3060  0.8264  0.4493
   90MOL0     H12357   7.787   0.005   4.551  1.8899  1.4447 -3.1964
   90MOL0     H12358   7.917   0.020   4.677  1.5927  0.5634 -1.3425
   90MOL0     H12359   7.799   0.176   4.803 -0.0066  0.2399  0.3700
   90MOL0     H12360   7.700   0.238   4.662 -3.4730 -1.9990 -0.4941
   90MOL0     H12361   7.595  -0.006   4.665 -1.5748  1.5282 -1.0871
   90MOL0     H12362   7.530   0.111   4.777  0.6711 -1.2698  0.8602
   90MOL0     H12363   7.744  -0.080   4.857  0.7113  1.1022  1.5966
   90MOL0     H12364   7.689   0.039   4.968  0.3964 -1.5198  0.9654
   90MOL0     H12365   7.467  -0.099   4.836  0.2855 -0.2292  0.0322
   90MOL0     H12366   7.475  -0.048   5.000 -3.0862 -2.1440 -0.9744
   90MOL0     H12367   7.463  -0.288   5.012 -0.2503 -0.3059 -0.9660
   90MOL0     H12368   7.578  -0.314   4.882 -0.2085  0.1711  0.3047
   90MOL0     H12369   7.558  -0.358   5.230 -0.4295  0.8806  2.1307
   90MOL0     H12370   7.761  -0.484   5.381  0.4215 -1.5569 -2.0948
   90MOL0     H12371   7.849  -0.331   5.400 -3.1152  1.0793  0.6220
   90MOL0     H12372   7.937  -0.602   5.263 -0.6875 -0.2100 -1.0434
   90MOL0     H12373   8.038  -0.450   5.274 -1.9211  4.6048  2.2557
   90MOL0     H12374   8.038  -0.461   5.517 -0.4597  0.3662 -0.1853
   90MOL0     H12375   7.934  -0.603   5.510  0.8777 -0.5683 -0.1149
   90MOL0     H12376   8.214  -0.560   5.390 -1.6757  1.2316 -2.0377
   90MOL0     H12377   8.181  -0.650   5.541  0.4643 -0.8801  0.2104
   90MOL0     H12378   8.108  -0.960   5.234  0.9028 -2.5883 -1.2371
   90MOL0     H12379   8.144  -1.129   5.107 -0.9142  0.0487  2.3895
   90MOL0     H12380   8.255  -1.237   5.183 -1.0639 -0.3734 -0.5782
   90MOL0     H12381   8.314  -1.145   5.047  1.8056  1.4027  0.1704
   90MOL0     H12382   8.694  -1.372   5.230 -1.7670  1.1089  2.5916
   90MOL0     H12383   8.922  -1.450   5.144  0.5158  0.3707 -0.9550
   90MOL0     H12384   9.166  -1.487   5.077  1.9559  0.5566  0.2543
   90MOL0     H12385   9.051  -1.396   4.977  0.6928 -0.6094 -1.1798
   90MOL0     H12386   9.283  -1.450   4.886 -2.3150 -1.6505  0.9842
   90MOL0     H12387   9.218  -1.283   4.869 -0.6946 -0.1575  0.3202
   90MOL0     H12388   9.423  -1.397   5.073 -1.6624  1.5003  2.2961
   90MOL0     H12389   9.371  -1.231   5.070  2.4183  1.6910 -1.3920
   90MOL0     H12390   9.448  -1.202   4.842  2.6467  1.0644 -1.2556
   90MOL0     H12391   9.508  -1.372   4.833  2.4960 -2.7390  2.6308
   90MOL0     H12392   9.640  -1.171   5.021 -1.6021  0.4379 -0.7623
   90MOL0     H12393   9.662  -1.343   5.018 -0.1666 -0.7188 -1.3405
   90MOL0     H12394   9.848  -1.253   4.897  0.9066  2.4882 -0.5814
   90MOL0     H12395   9.756  -1.152   4.792  0.2783 -1.0569 -0.0606
   90MOL0     H12396   9.672  -1.329   4.669  0.6720  1.3737 -0.0907
   90MOL0     H12397   9.722  -1.450   4.789 -2.1228  1.0154  0.5285
   90MOL0     H12398   9.958  -1.419   4.738 -0.9884 -3.3815 -1.1963
   90MOL0     H12399   9.923  -1.277   4.635  0.2407  0.1526  1.1935
   90MOL0     H12400   9.059  -1.047   5.227 -2.0033  1.5733  0.1169
   90MOL0     H12401   8.829  -1.003   5.331 -3.0121 -1.1826 -0.0738
   90MOL0     H12402   8.558  -0.875   5.397 -1.8174 -0.0798  2.5721
   90MOL0     H12403   8.394  -0.708   5.420 -1.0592  0.3124  0.3043
   90MOL0     H12404   7.992  -0.013   4.088 -0.2475  0.4029  1.7841
   90MOL0     H12405   7.982   0.123   3.881 -0.3738  0.8124  0.4004
   90MOL0     H12406   8.076   0.576   3.758  0.2885  1.2989  0.0344
   90MOL0     H12407   8.154   0.712   3.571  2.1146 -1.3007  0.8210
   90MOL0     H12408   8.127   0.866   3.239 -0.1062 -0.0439 -0.6386
   90MOL0     H12409   8.154   0.844   3.415 -0.8409  0.1954 -0.0019
   90MOL0     H12410   8.279   0.667   3.190  1.8475  1.0245 -1.3077
   90MOL0     H12411   8.320   0.643   3.356  1.3269  0.6962 -0.4399
   90MOL0     H12412   8.479   0.782   3.230 -0.4657  0.8672 -0.8592
   90MOL0     H12413   8.368   0.913   3.218  1.2919  1.1659  0.9220
   90MOL0     H12414   8.349   0.917   3.481  0.7438  0.3819  1.3326
   90MOL0     H12415   8.478   0.984   3.396 -0.1011 -1.1289 -0.4749
   90MOL0     H12416   8.645   0.674   3.653 -1.2869 -0.0037  1.4400
   90MOL0     H12417   7.932   0.460   3.295  1.6240  1.9086 -1.2546
   90MOL0     H12418   7.754   0.312   3.409  0.9230  2.9070 -0.2689
   90MOL0     H12419   7.910   0.216   3.399  1.7942  0.9531 -0.0183
   90MOL0     H12420   7.819   0.209   3.548  0.3681  0.4801  0.1979
   91MOL0     O12421   8.362   7.626   3.147  1.3785  0.2134 -0.8946
   91MOL0     C12422   8.349   7.640   3.027 -0.6837  0.0044  0.3661
   91MOL0     O12423   8.447   7.614   2.940 -0.1587 -0.7213 -0.1261
   91MOL0     C12424   8.573   7.589   2.987  0.7698  0.9396 -0.0959
   91MOL0     C12425   8.668   7.670   2.933 -0.4403 -0.0405  0.1595
   91MOL0     C12426   8.805   7.639   2.944 -0.0847  0.0407  0.0072
   91MOL0     C12427   8.837   7.520   3.016 -0.3491 -0.0657  0.2235
   91MOL0     O12428   8.960   7.469   3.027  0.1384  0.7286 -0.3284
   91MOL0     C12429   9.071   7.538   2.972 -0.0494  0.1611  0.1599
   91MOL0     C12430   9.189   7.443   2.966 -0.1799  0.2441  0.4812
   91MOL0     C12431   9.161   7.333   2.862  0.2622 -0.2628 -0.2647
   91MOL0     C12432   9.290   7.250   2.843  0.2492  0.3955 -0.3731
   91MOL0     C12433   9.291   7.175   2.715  0.1128  0.4806  0.2408
   91MOL0     C12434   9.434   7.124   2.697 -0.1110 -0.4209  0.1270
   91MOL0     C12435   9.456   7.023   2.583  0.5153 -0.5209  0.6812
   91MOL0     C12436   9.499   7.094   2.446  0.2313  0.3197  0.1229
   91MOL0     N12437   9.626   7.165   2.450 -0.0604  0.1749  0.1876
   91MOL0     C12438   9.741   7.119   2.500 -0.7842 -0.3875 -0.3739
   91MOL0     C12439   9.846   7.205   2.475  0.1871  0.8712  0.6823
   91MOL0     C12440   9.976   7.204   2.539 -0.3560 -0.0942 -0.1370
   91MOL0     C12441  10.056   7.326   2.533  0.0315 -1.0427 -0.0491
   91MOL0     C12442  10.212   7.323   2.552 -0.5082  0.3604  0.3700
   91MOL0     C12443  10.280   7.461   2.587  0.1679  1.0798 -0.7551
   91MOL0     O12444  10.213   7.499   2.717  0.1206 -0.2921  0.5578
   91MOL0     C12445  10.265   7.610   2.782  0.2576  1.4233 -0.1298
   91MOL0     C12446  10.197   7.643   2.902  0.0183  0.3565 -0.3661
   91MOL0     C12447  10.242   7.758   2.977  0.4793 -0.5071  0.3386
   91MOL0     C12448  10.166   7.787   3.106  0.1277 -0.0663 -0.2644
   91MOL0     C12449  10.336   7.842   2.916  0.7722 -0.4720  0.3873
   91MOL0     C12450  10.379   7.975   2.978  0.1877 -0.0967  0.4766
   91MOL0     O12451  10.485   8.054   2.912  0.4980  0.5836  0.0880
   91MOL0     C12452  10.539   8.167   2.966  0.7972  0.6496 -0.2030
   91MOL0     C12453  10.540   8.201   3.102  0.3945 -0.0055  0.0031
   91MOL0     C12454  10.594   8.316   3.153 -0.6904  0.7422 -0.9856
   91MOL0     C12455  10.662   8.406   3.068  0.0535  0.4899 -0.7799
   91MOL0     O12456  10.733   8.517   3.116  0.1714  0.1017  0.4699
   91MOL0     C12457  10.874   8.495   3.100  0.1203  0.1188 -0.1604
   91MOL0     C12458  10.937   8.582   3.214 -0.0120  0.4255 -0.4787
   91MOL0     C12459  11.084   8.548   3.226 -0.0692  0.3834  0.1239
   91MOL0     C12460  11.157   8.654   3.301  0.0389  0.8151  0.1537
   91MOL0     C12461  11.310   8.638   3.274 -0.7929  0.0313  0.8498
   91MOL0     C12462  11.394   8.745   3.340  0.1754 -0.0544 -0.1514
   91MOL0     C12463  11.544   8.716   3.345  0.0543  0.6855 -0.5224
   91MOL0     C12464  11.620   8.809   3.433  0.3772 -0.2737  0.7736
   91MOL0    Cl12465  11.799   8.784   3.439  0.6472  0.2032  0.3363
   91MOL0     C12466  10.654   8.376   2.937 -1.2838  0.2288  0.5181
   91MOL0     C12467  10.602   8.259   2.883 -0.1638 -0.3963 -0.1864
   91MOL0     O12468  10.332   8.002   3.090  0.7832  0.4894  0.0319
   91MOL0     C12469  10.416   7.798   2.808  0.3078 -0.0136 -0.3762
   91MOL0     C12470  10.378   7.681   2.739 -0.1238  0.4368  0.0530
   91MOL0     N12471   9.790   7.312   2.406  0.5537  0.0207  0.2570
   91MOL0     N12472   9.662   7.283   2.393 -0.3840  0.9677 -0.1327
   91MOL0     C12473   8.738   7.441   3.078 -0.7382  0.2989  0.0114
   91MOL0     C12474   8.606   7.475   3.063 -0.2481 -0.2183  0.0191
   91MOL0     C12475   8.215   7.686   2.968 -0.0399 -0.0207 -0.4617
   91MOL0     C12476   8.186   7.650   2.832 -0.8317 -0.5359 -0.0850
   91MOL0     C12477   8.064   7.676   2.774 -0.3289  0.1929  1.0382
   91MOL0     C12478   7.960   7.741   2.836  0.1238  0.3286 -0.8668
   91MOL0     O12479   7.847   7.761   2.757 -0.3495  0.0608 -0.3606
   91MOL0     C12480   7.731   7.815   2.819  0.7082 -0.3948  0.4195
   91MOL0     C12481   7.621   7.817   2.706  0.5636 -0.2135 -0.5262
   91MOL0     C12482   7.481   7.841   2.772  0.3374  0.8011  0.0564
   91MOL0     C12483   7.363   7.823   2.670  0.8837  0.1756  0.0040
   91MOL0     C12484   7.228   7.864   2.721 -0.3354 -0.2262 -0.4683
   91MOL0     C12485   7.128   7.908   2.775 -1.0173  0.1145  0.1646
   91MOL0     C12486   7.981   7.773   2.971 -0.3587 -0.8011 -0.1804
   91MOL0     C12487   8.111   7.752   3.037  0.2995  0.0284  0.2122
   91MOL0     C12488   8.135   7.815   3.178 -0.1550 -0.0907  0.0880
   91MOL0     H12489   8.639   7.760   2.879  2.1043  0.6708 -0.1250
   91MOL0     H12490   8.874   7.707   2.896 -2.6908  0.7261 -3.1605
   91MOL0     H12491   9.079   7.630   3.031 -0.3699 -1.6174  3.2116
   91MOL0     H12492   9.049   7.560   2.867 -1.5370 -4.3236 -0.6590
   91MOL0     H12493   9.276   7.501   2.932  2.1438 -2.1031  2.0538
   91MOL0     H12494   9.212   7.390   3.059  2.9831 -0.5713 -0.6544
   91MOL0     H12495   9.079   7.270   2.897 -1.9358  2.3325 -0.3897
   91MOL0     H12496   9.119   7.387   2.777  1.7735  0.9950 -0.2628
   91MOL0     H12497   9.371   7.324   2.835 -0.6257  1.3539 -0.5478
   91MOL0     H12498   9.314   7.185   2.927  0.3092 -0.7738 -1.2771
   91MOL0     H12499   9.252   7.235   2.632 -4.1725 -1.0895  0.8623
   91MOL0     H12500   9.217   7.094   2.717 -2.9200  3.0834  1.6575
   91MOL0     H12501   9.504   7.208   2.694  1.0698 -1.4045 -1.5387
   91MOL0     H12502   9.467   7.075   2.789  0.4416  0.9477  0.6857
   91MOL0     H12503   9.365   6.962   2.574 -0.2269  0.4780  1.2097
   91MOL0     H12504   9.540   6.956   2.603 -0.2839 -1.7793 -0.0536
   91MOL0     H12505   9.485   7.027   2.361 -0.9690 -1.0703  1.3612
   91MOL0     H12506   9.421   7.163   2.413 -1.2987 -1.2087  0.3638
   91MOL0     H12507   9.760   7.035   2.566  2.5476  1.0226  0.6651
   91MOL0     H12508  10.039   7.130   2.488 -0.1124  0.2446 -0.3298
   91MOL0     H12509   9.951   7.185   2.644  1.2288  1.2556  0.5282
   91MOL0     H12510  10.041   7.388   2.444 -1.8417  1.2782  1.7255
   91MOL0     H12511  10.013   7.395   2.606 -1.4602 -0.1013 -1.7460
   91MOL0     H12512  10.222   7.252   2.635 -2.8259 -0.4229  0.0726
   91MOL0     H12513  10.259   7.276   2.465 -1.8859 -0.0439 -0.1870
   91MOL0     H12514  10.387   7.452   2.611 -0.4911 -0.3442  2.1326
   91MOL0     H12515  10.269   7.541   2.514 -1.7900  2.5905  1.0532
   91MOL0     H12516  10.113   7.581   2.932  0.2890 -0.5092 -1.3482
   91MOL0     H12517  10.103   7.707   3.145  1.7049 -1.2351  0.0039
   91MOL0     H12518  10.106   7.871   3.070 -0.9128 -0.0596  1.3687
   91MOL0     H12519  10.224   7.826   3.191 -0.8086  1.4180 -0.2783
   91MOL0     H12520  10.507   8.136   3.183 -0.8841 -0.6555 -1.0001
   91MOL0     H12521  10.599   8.333   3.261 -0.6699 -1.6397 -0.5542
   91MOL0     H12522  10.900   8.389   3.115 -0.4881 -0.1296 -0.8324
   91MOL0     H12523  10.897   8.528   2.998 -0.7952 -1.4875 -0.9194
   91MOL0     H12524  10.935   8.687   3.183  1.6323  1.2975  2.0997
   91MOL0     H12525  10.881   8.579   3.307  0.1372  0.1903 -0.3943
   91MOL0     H12526  11.120   8.549   3.123 -3.4556  3.0704 -1.2309
   91MOL0     H12527  11.101   8.454   3.279  0.7685  1.4783  1.9228
   91MOL0     H12528  11.135   8.643   3.407 -2.4555 -3.2770 -0.5897
   91MOL0     H12529  11.120   8.754   3.274  0.5837  0.7498 -0.8803
   91MOL0     H12530  11.335   8.545   3.324 -0.0620  0.3132  1.0130
   91MOL0     H12531  11.334   8.619   3.169 -0.0849  0.9242  0.8386
   91MOL0     H12532  11.351   8.746   3.440 -1.8772 -0.1033 -0.9624
   91MOL0     H12533  11.371   8.840   3.291 -0.8898  0.3875  1.1511
   91MOL0     H12534  11.590   8.721   3.246  0.0895 -2.3799 -0.7723
   91MOL0     H12535  11.557   8.610   3.368  0.5411  0.3648 -2.1155
   91MOL0     H12536  11.578   8.801   3.533  0.0909 -0.6005  0.6273
   91MOL0     H12537  11.605   8.912   3.399  0.6038 -1.0443 -1.9260
   91MOL0     H12538  10.672   8.451   2.860 -2.5341 -0.3861 -0.4070
   91MOL0     H12539  10.597   8.243   2.775  0.3346  3.6851 -0.9851
   91MOL0     H12540  10.504   7.857   2.783 -1.0144  2.9460  1.3969
   91MOL0     H12541  10.447   7.648   2.662 -2.0205 -0.9228 -1.1449
   91MOL0     H12542   8.770   7.356   3.138  2.5054  0.6152 -1.0933
   91MOL0     H12543   8.522   7.418   3.102  0.4792 -1.6340 -0.4039
   91MOL0     H12544   8.253   7.583   2.781 -1.5981 -0.7426 -0.8478
   91MOL0     H12545   8.046   7.646   2.671  0.3044  1.2184  0.6137
   91MOL0     H12546   7.698   7.760   2.907  0.4129 -4.4826 -1.9547
   91MOL0     H12547   7.749   7.915   2.858 -1.4609  0.0459  0.4138
   91MOL0     H12548   7.619   7.719   2.656 -0.6079 -1.9196  2.5830
   91MOL0     H12549   7.640   7.890   2.627  0.4233 -1.8326 -2.1199
   91MOL0     H12550   7.455   7.770   2.851 -0.4208  1.6039  0.5396
   91MOL0     H12551   7.488   7.935   2.827  0.1160 -0.0059  1.5014
   91MOL0     H12552   7.364   7.720   2.634  0.5281 -0.1333  0.8546
   91MOL0     H12553   7.378   7.884   2.580  1.5680  1.0889  0.7209
   91MOL0     H12554   7.034   7.944   2.811 -1.3738  0.4475 -1.0721
   91MOL0     H12555   7.906   7.821   3.034 -0.3224 -1.2017  0.1785
   91MOL0     H12556   8.240   7.836   3.199  0.0569 -0.9908 -0.0416
   91MOL0     H12557   8.084   7.912   3.181  1.5025  0.8615 -0.9318
   91MOL0     H12558   8.098   7.758   3.264 -0.7748 -0.9448 -0.7219
   92MOL0     O12559   0.123   9.570   3.553 -0.0385  0.2767  0.3628
   92MOL0     C12560   0.022   9.500   3.538  0.3413  0.2625  0.6995
   92MOL0     O12561   0.018   9.367   3.520 -1.0606 -0.2986  1.7523
   92MOL0     C12562   0.139   9.312   3.530 -0.3815  0.6891 -0.5864
   92MOL0     C12563   0.178   9.255   3.655 -0.9586 -0.2659 -0.4368
   92MOL0     C12564   0.303   9.191   3.674 -0.9869 -0.5499  0.4263
   92MOL0     C12565   0.392   9.183   3.562 -1.1955 -0.0212  0.6425
   92MOL0     O12566   0.510   9.107   3.557  0.4660  0.6395 -0.2795
   92MOL0     C12567   0.543   9.051   3.684 -0.9727  0.2974  0.1816
   92MOL0     C12568   0.659   8.958   3.674 -0.6634  0.7731  0.8481
   92MOL0     C12569   0.789   9.029   3.626 -0.1652  0.5707 -0.9496
   92MOL0     C12570   0.919   8.956   3.644 -0.4750  0.0679  0.3435
   92MOL0     C12571   1.033   9.053   3.614 -0.4762 -0.7730 -0.3776
   92MOL0     C12572   1.173   8.985   3.627  0.4654  0.0214 -0.5624
   92MOL0     C12573   1.284   9.057   3.549  0.2113  0.1235 -0.0375
   92MOL0     C12574   1.306   9.209   3.571  0.1730 -0.4070  0.5461
   92MOL0     N12575   1.343   9.254   3.707 -0.4248  0.0921  0.1571
   92MOL0     C12576   1.460   9.311   3.739 -0.5514  0.1413 -0.2975
   92MOL0     C12577   1.446   9.336   3.866 -0.1304  0.1547 -0.5140
   92MOL0     C12578   1.549   9.398   3.950  0.2546 -0.0238 -1.2402
   92MOL0     C12579   1.616   9.288   4.032  0.3261  0.3959  0.0874
   92MOL0     C12580   1.717   9.217   3.948  0.3301  0.0369  0.2935
   92MOL0     C12581   1.768   9.088   4.007  0.0585  0.3442 -0.9426
   92MOL0     O12582   1.831   9.130   4.128  0.6507  0.8214 -0.0720
   92MOL0     C12583   1.956   9.182   4.131  0.1467 -0.0480  0.1003
   92MOL0     C12584   1.987   9.227   4.256  1.0970  0.3741 -0.8319
   92MOL0     C12585   2.111   9.278   4.282 -0.5009  0.0851  0.3783
   92MOL0     C12586   2.148   9.316   4.421 -0.3183 -0.3387 -0.2238
   92MOL0     C12587   2.208   9.299   4.173 -0.4462  0.2057  0.0214
   92MOL0     C12588   2.338   9.367   4.168 -0.4685 -0.1171  0.8021
   92MOL0     O12589   2.406   9.381   4.046  0.8829 -0.5335 -0.1315
   92MOL0     C12590   2.541   9.397   4.041 -0.1428  0.4037 -0.1671
   92MOL0     C12591   2.608   9.493   4.119  0.1503  0.3453  0.6296
   92MOL0     C12592   2.748   9.509   4.102  0.2434 -0.0229  0.0778
   92MOL0     C12593   2.813   9.428   4.015 -0.6212  0.8375  1.1331
   92MOL0     O12594   2.947   9.443   3.990  0.2319  0.4148  0.1559
   92MOL0     C12595   3.037   9.417   4.101 -1.3751 -0.5833 -0.2477
   92MOL0     C12596   3.181   9.464   4.061  1.0222  0.0309  0.2583
   92MOL0     C12597   3.254   9.384   3.948 -0.1498 -0.8413  0.5174
   92MOL0     C12598   3.387   9.449   3.897 -0.3021 -0.8937 -0.0199
   92MOL0     C12599   3.441   9.362   3.775  0.0136  0.2248 -0.0703
   92MOL0     C12600   3.561   9.449   3.721  0.3501 -0.7776 -0.2782
   92MOL0     C12601   3.649   9.367   3.629  0.7911 -0.2116  0.4992
   92MOL0     C12602   3.759   9.453   3.574 -0.3211 -0.3707  0.1820
   92MOL0    Cl12603   3.847   9.559   3.690  0.6977 -0.2007  0.0146
   92MOL0     C12604   2.751   9.327   3.947 -0.1292  0.3840 -0.1797
   92MOL0     C12605   2.613   9.319   3.951 -0.3345  0.6349 -0.0672
   92MOL0     O12606   2.384   9.399   4.274 -0.4588 -0.5872  1.2718
   92MOL0     C12607   2.162   9.261   4.039 -0.2059  0.0969 -0.0756
   92MOL0     C12608   2.044   9.195   4.027 -0.0026  0.0986 -0.2361
   92MOL0     N12609   1.320   9.314   3.906 -0.3386  0.2183  1.2059
   92MOL0     N12610   1.254   9.258   3.809 -0.8684 -0.5938  0.1870
   92MOL0     C12611   0.349   9.233   3.439  0.7789  0.7261 -0.7338
   92MOL0     C12612   0.226   9.289   3.420  0.3889 -0.3966 -0.0668
   92MOL0     C12613  -0.112   9.578   3.523  1.4025 -0.9045 -0.1104
   92MOL0     C12614  -0.219   9.518   3.453  0.4979 -0.0828 -0.3175
   92MOL0     C12615  -0.337   9.594   3.420  0.5241 -0.7161  0.2861
   92MOL0     C12616  -0.351   9.719   3.477  0.0709 -0.1637 -0.3063
   92MOL0     O12617  -0.470   9.776   3.458 -0.3311  0.1930  0.1846
   92MOL0     C12618  -0.580   9.749   3.539  0.4398  0.0626 -0.6444
   92MOL0     C12619  -0.592   9.849   3.654  0.4163 -0.7555 -0.4334
   92MOL0     C12620  -0.598   9.998   3.614 -0.2605 -0.0920 -0.2273
   92MOL0     C12621  -0.566  10.079   3.735  0.6125 -0.7319  0.1436
   92MOL0     C12622  -0.564  10.221   3.684 -0.2965 -0.1208 -0.1249
   92MOL0     C12623  -0.544  10.335   3.636  0.7133  0.4836 -0.5818
   92MOL0     C12624  -0.254   9.774   3.559  0.0840  0.9929  0.4277
   92MOL0     C12625  -0.129   9.713   3.571  0.3619 -0.3364  0.5181
   92MOL0     C12626  -0.036   9.788   3.667 -0.2500 -0.2125  1.2160
   92MOL0     H12627   0.130   9.277   3.750  0.1167 -2.4021  0.6771
   92MOL0     H12628   0.345   9.152   3.766  2.1252  0.0844 -0.5840
   92MOL0     H12629   0.460   8.989   3.719 -1.7883  1.4515  0.3441
   92MOL0     H12630   0.574   9.127   3.756  4.4782  0.0285 -1.3772
   92MOL0     H12631   0.668   8.915   3.774 -0.9959 -0.5381  0.3487
   92MOL0     H12632   0.641   8.878   3.600 -0.0099  2.4075 -1.1712
   92MOL0     H12633   0.785   9.055   3.520  0.5762 -0.0842 -1.1471
   92MOL0     H12634   0.797   9.116   3.693 -0.6740 -0.7715  0.9565
   92MOL0     H12635   0.929   8.910   3.743  1.8785 -2.4925 -0.9388
   92MOL0     H12636   0.924   8.869   3.577  3.2764  0.0309  0.4826
   92MOL0     H12637   1.026   9.143   3.675 -2.9467 -1.0256 -0.1809
   92MOL0     H12638   1.018   9.099   3.515 -0.3869  0.3157  0.1005
   92MOL0     H12639   1.201   8.980   3.733 -0.2872  4.1951  0.0096
   92MOL0     H12640   1.170   8.880   3.597  0.0072  0.0174 -0.5046
   92MOL0     H12641   1.249   9.035   3.448 -1.8821 -4.6389  1.4452
   92MOL0     H12642   1.381   9.007   3.555 -1.3539 -3.1124  0.1859
   92MOL0     H12643   1.381   9.245   3.499 -0.0126 -1.4715 -0.1965
   92MOL0     H12644   1.210   9.256   3.547 -0.1160 -0.2950  1.8780
   92MOL0     H12645   1.550   9.330   3.682  0.5629 -1.0677  0.9600
   92MOL0     H12646   1.493   9.468   4.013  0.4588 -0.6421 -0.3447
   92MOL0     H12647   1.628   9.452   3.896 -0.5842  0.5333 -1.9528
   92MOL0     H12648   1.681   9.335   4.107  1.2133  0.3832 -0.6543
   92MOL0     H12649   1.552   9.208   4.068  2.3280 -1.7762 -0.9479
   92MOL0     H12650   1.669   9.187   3.855  0.6799  2.1725 -0.6332
   92MOL0     H12651   1.800   9.282   3.919 -0.6791  0.4042 -1.9445
   92MOL0     H12652   1.687   9.016   4.019  0.1770  0.3907  0.2835
   92MOL0     H12653   1.844   9.039   3.946  1.0438  0.5055  0.1125
   92MOL0     H12654   1.920   9.216   4.340  1.2614  1.8746 -0.4762
   92MOL0     H12655   2.081   9.270   4.494  2.0128 -2.1243  0.9185
   92MOL0     H12656   2.161   9.424   4.427  1.0302 -0.1124 -4.1979
   92MOL0     H12657   2.241   9.266   4.449  0.3850  1.5507  0.9479
   92MOL0     H12658   2.550   9.553   4.188  0.7848 -0.1521  1.6185
   92MOL0     H12659   2.810   9.585   4.150 -0.1006 -0.6794  1.6188
   92MOL0     H12660   3.016   9.471   4.194 -2.2680 -1.8407  0.3043
   92MOL0     H12661   3.051   9.312   4.127  2.9740 -0.1968 -0.2434
   92MOL0     H12662   3.165   9.565   4.022 -1.0509  0.0013  0.8841
   92MOL0     H12663   3.244   9.466   4.150 -0.2896  1.7269  1.2188
   92MOL0     H12664   3.187   9.386   3.861  0.9031 -0.4072 -0.3089
   92MOL0     H12665   3.281   9.282   3.976  1.4497 -0.4237  0.5929
   92MOL0     H12666   3.460   9.453   3.979  1.6106  0.7862 -1.6863
   92MOL0     H12667   3.377   9.554   3.872 -0.5445 -1.0998 -0.8101
   92MOL0     H12668   3.479   9.266   3.811  3.3037  1.1806 -0.5970
   92MOL0     H12669   3.365   9.332   3.703 -1.8920 -0.6920  2.2250
   92MOL0     H12670   3.604   9.485   3.814  0.6863  1.8351 -1.3718
   92MOL0     H12671   3.511   9.527   3.663  1.7211  0.4061  0.0730
   92MOL0     H12672   3.597   9.322   3.544  0.3113 -1.3968  1.3988
   92MOL0     H12673   3.699   9.285   3.681 -1.9374 -2.8131 -0.6610
   92MOL0     H12674   3.707   9.520   3.505  1.0899  0.8144  0.2074
   92MOL0     H12675   3.833   9.394   3.519 -0.6993 -1.3711  0.7291
   92MOL0     H12676   2.812   9.264   3.883 -0.6385 -1.5309  1.1533
   92MOL0     H12677   2.556   9.249   3.890 -0.2874 -0.0615  0.6784
   92MOL0     H12678   2.228   9.266   3.952  0.6215 -0.9805  0.4721
   92MOL0     H12679   2.021   9.164   3.925 -0.9660 -0.5685  0.1634
   92MOL0     H12680   0.414   9.215   3.354 -1.0005  2.7054 -2.6316
   92MOL0     H12681   0.203   9.324   3.320  3.3150  1.3853 -0.2523
   92MOL0     H12682  -0.204   9.419   3.411  1.2911  0.3801 -1.1567
   92MOL0     H12683  -0.425   9.559   3.367  0.1785 -1.2161  1.1751
   92MOL0     H12684  -0.671   9.752   3.478 -0.0144 -2.8531 -0.2706
   92MOL0     H12685  -0.569   9.652   3.589 -4.4614 -0.6307 -0.3813
   92MOL0     H12686  -0.515   9.820   3.726 -0.1654 -0.8832  0.1507
   92MOL0     H12687  -0.688   9.842   3.705  0.2378  2.0981 -0.1963
   92MOL0     H12688  -0.519  10.014   3.540  0.0482  3.9624  0.7508
   92MOL0     H12689  -0.699  10.027   3.584 -0.1770  0.4946  0.0525
   92MOL0     H12690  -0.465  10.058   3.771  0.0527 -0.3898  2.0754
   92MOL0     H12691  -0.633  10.067   3.821  0.8325 -2.1797  0.1318
   92MOL0     H12692  -0.529  10.435   3.602 -1.3229  1.7884  1.9728
   92MOL0     H12693  -0.273   9.874   3.596  0.4362  0.8013  1.1482
   92MOL0     H12694   0.026   9.850   3.601  0.2539 -1.0400  0.8919
   92MOL0     H12695  -0.083   9.848   3.745 -0.3472  4.3174 -1.8991
   92MOL0     H12696   0.032   9.724   3.723  1.5867  0.5987  0.0018
   93MOL0     O12697   9.106   1.359   9.096 -0.7323  0.3274  0.3663
   93MOL0     C12698   9.056   1.469   9.083  0.5590  0.2618  0.4122
   93MOL0     O12699   9.124   1.574   9.020 -0.1598 -0.0775  0.2237
   93MOL0     C12700   9.239   1.544   8.957 -0.3895 -0.1900  0.4995
   93MOL0     C12701   9.356   1.559   9.032  0.2075  0.3759  0.9191
   93MOL0     C12702   9.483   1.543   8.976 -0.3003 -0.0934  1.0938
   93MOL0     C12703   9.489   1.525   8.834  0.5186 -0.3873 -0.0877
   93MOL0     O12704   9.603   1.543   8.771 -0.1771 -0.1909 -0.6101
   93MOL0     C12705   9.599   1.583   8.636 -1.0458 -1.0995 -0.5330
   93MOL0     C12706   9.719   1.655   8.599 -0.8487 -0.2910  0.6360
   93MOL0     C12707   9.768   1.766   8.703  0.0781  0.4742 -0.2693
   93MOL0     C12708   9.896   1.835   8.652  0.1714  0.2736 -0.2367
   93MOL0     C12709   9.923   1.977   8.712  0.8838 -0.1040 -1.2427
   93MOL0     C12710  10.052   2.039   8.650 -0.2490 -0.2800 -0.4098
   93MOL0     C12711  10.079   2.187   8.688  1.0776 -0.4216 -0.7670
   93MOL0     C12712  10.113   2.230   8.841 -0.4013  0.5093  0.0942
   93MOL0     N12713  10.244   2.163   8.876  0.6746 -0.4396  0.2228
   93MOL0     C12714  10.340   2.118   8.790  0.5846 -0.0462 -0.0869
   93MOL0     C12715  10.443   2.070   8.871  0.1077 -0.3738 -0.3169
   93MOL0     C12716  10.579   2.021   8.835 -0.2432 -0.4351  0.5971
   93MOL0     C12717  10.610   2.003   8.681  0.3560 -0.5642 -0.5555
   93MOL0     C12718  10.681   2.132   8.633 -0.6099  0.0400 -0.9474
   93MOL0     C12719  10.596   2.256   8.613 -0.0352  0.2210 -0.1520
   93MOL0     O12720  10.503   2.230   8.506  0.6163 -0.4449  0.7264
   93MOL0     C12721  10.398   2.320   8.481  0.2229 -0.9414 -0.3752
   93MOL0     C12722  10.385   2.454   8.526 -0.8211  0.2705  0.8241
   93MOL0     C12723  10.272   2.532   8.489 -0.0101  0.0535 -0.5259
   93MOL0     C12724  10.272   2.674   8.556  0.6098 -0.2474  0.3963
   93MOL0     C12725  10.174   2.486   8.406  0.5697 -0.0982  0.3139
   93MOL0     C12726  10.055   2.556   8.367  0.4787 -0.5398  0.2305
   93MOL0     O12727   9.983   2.494   8.269 -0.0391 -0.3815  0.1094
   93MOL0     C12728   9.879   2.566   8.219  0.2429 -0.8313  0.1471
   93MOL0     C12729   9.756   2.543   8.272  1.1318 -0.4366 -0.5833
   93MOL0     C12730   9.641   2.608   8.228 -0.2712 -0.4987 -0.2295
   93MOL0     C12731   9.640   2.698   8.113  0.1051  0.8998 -0.4221
   93MOL0     O12732   9.526   2.761   8.062 -0.3825  0.8164  0.2340
   93MOL0     C12733   9.523   2.906   8.052 -0.0434  0.4898 -0.4625
   93MOL0     C12734   9.499   2.973   8.188 -0.2600 -0.3629 -0.1806
   93MOL0     C12735   9.373   2.912   8.254 -0.7756 -0.1506  0.8040
   93MOL0     C12736   9.240   2.922   8.178  0.5037 -0.6364  0.6387
   93MOL0     C12737   9.117   2.898   8.266  0.3317 -0.4200 -0.2990
   93MOL0     C12738   8.998   2.927   8.177  0.3779  0.2492  0.3680
   93MOL0     C12739   8.965   3.069   8.168 -0.7522 -0.4412 -0.0244
   93MOL0     C12740   8.838   3.094   8.098  0.2218 -0.1903  0.3229
   93MOL0    Cl12741   8.813   2.986   7.950 -0.6174 -0.3565 -0.2269
   93MOL0     C12742   9.769   2.715   8.063  0.4122 -0.0736 -0.8098
   93MOL0     C12743   9.887   2.653   8.109  0.2694  0.2112  0.2111
   93MOL0     O12744  10.025   2.667   8.413  0.2118  0.4346  0.4490
   93MOL0     C12745  10.200   2.356   8.350  0.0934  0.2706  0.2389
   93MOL0     C12746  10.310   2.275   8.382 -0.0886 -0.2823 -0.2725
   93MOL0     N12747  10.402   2.087   8.999  0.3380 -0.3742  0.4807
   93MOL0     N12748  10.287   2.145   8.999 -0.1315  0.9347 -0.1930
   93MOL0     C12749   9.368   1.503   8.762 -0.3760  0.5229 -0.2705
   93MOL0     C12750   9.246   1.514   8.820  0.7292  0.0233 -0.5197
   93MOL0     C12751   8.920   1.502   9.141  0.1778  0.4913 -0.6234
   93MOL0     C12752   8.882   1.439   9.259 -0.7680  0.7612 -0.1351
   93MOL0     C12753   8.751   1.460   9.315 -0.9939 -0.1770 -0.7437
   93MOL0     C12754   8.656   1.534   9.250 -0.0688  0.0506 -0.4001
   93MOL0     O12755   8.527   1.567   9.294  0.4050 -0.1919 -0.6414
   93MOL0     C12756   8.485   1.520   9.426 -0.7869 -0.0468 -0.5652
   93MOL0     C12757   8.337   1.503   9.425 -0.1785  0.3353  0.1872
   93MOL0     C12758   8.259   1.633   9.412 -0.9617 -0.4040  0.1564
   93MOL0     C12759   8.113   1.613   9.438 -0.9263 -0.6389 -0.6080
   93MOL0     C12760   8.051   1.542   9.329 -0.0730  0.6591  0.8136
   93MOL0     C12761   7.991   1.492   9.237 -0.1982  0.4604  0.5420
   93MOL0     C12762   8.696   1.599   9.132 -0.7265 -0.0718  0.6710
   93MOL0     C12763   8.823   1.576   9.076 -0.1956  0.3124  0.1874
   93MOL0     C12764   8.842   1.655   8.945 -0.3251  0.2915 -0.8929
   93MOL0     H12765   9.342   1.593   9.134  0.4213  3.2263  0.0860
   93MOL0     H12766   9.578   1.549   9.029  1.6033  1.7120 -2.1945
   93MOL0     H12767   9.515   1.651   8.619 -2.6903 -2.3945  1.8521
   93MOL0     H12768   9.609   1.499   8.566  3.4618  0.2241 -1.8082
   93MOL0     H12769   9.792   1.573   8.597 -0.8772 -0.4080 -3.5353
   93MOL0     H12770   9.708   1.694   8.498  0.7192 -1.5532 -0.0762
   93MOL0     H12771   9.687   1.840   8.705  0.7856  1.3216  3.2846
   93MOL0     H12772   9.779   1.729   8.805 -1.5710 -0.2548 -0.3420
   93MOL0     H12773   9.979   1.766   8.666  0.6054 -0.0172 -3.4984
   93MOL0     H12774   9.893   1.868   8.547 -0.4342  0.0723 -0.2910
   93MOL0     H12775   9.934   1.967   8.821  0.6700 -0.0470 -1.2169
   93MOL0     H12776   9.838   2.044   8.704 -0.4578 -1.0592  2.7356
   93MOL0     H12777  10.138   1.977   8.678 -2.0529 -2.2904  1.0803
   93MOL0     H12778  10.044   2.025   8.542 -1.3781 -1.4884 -0.2032
   93MOL0     H12779   9.987   2.243   8.669  0.9371 -0.6988 -0.9047
   93MOL0     H12780  10.158   2.218   8.618 -0.2243 -1.5039 -2.8017
   93MOL0     H12781  10.126   2.338   8.846  1.8941  0.3949 -1.3438
   93MOL0     H12782  10.029   2.200   8.904 -1.8029  1.3023 -1.3155
   93MOL0     H12783  10.348   2.119   8.681 -0.9482 -1.2867 -0.2452
   93MOL0     H12784  10.595   1.922   8.879  2.4045  0.2995  1.4827
   93MOL0     H12785  10.658   2.075   8.887 -0.6440  0.6367  0.1089
   93MOL0     H12786  10.681   1.924   8.655 -1.2015 -1.1922 -3.1510
   93MOL0     H12787  10.517   1.988   8.625  0.3798  1.6100 -1.2661
   93MOL0     H12788  10.762   2.149   8.704  0.0751  0.3083 -1.7779
   93MOL0     H12789  10.714   2.102   8.533 -1.8357 -0.0315 -1.3570
   93MOL0     H12790  10.555   2.284   8.711 -1.6634 -2.0141 -0.1199
   93MOL0     H12791  10.652   2.343   8.576  0.5486 -0.7344 -1.5818
   93MOL0     H12792  10.459   2.507   8.585  0.8249 -0.0342 -0.8694
   93MOL0     H12793  10.197   2.682   8.635  0.1970 -0.9315  0.0883
   93MOL0     H12794  10.257   2.754   8.483  2.2519 -1.2492 -1.1496
   93MOL0     H12795  10.366   2.694   8.608  0.2527  1.2673  0.4937
   93MOL0     H12796   9.741   2.474   8.354  0.8683  1.2360  0.8469
   93MOL0     H12797   9.543   2.587   8.270 -0.3166 -1.4739 -0.7773
   93MOL0     H12798   9.626   2.931   8.025  0.3324 -1.5286 -1.0471
   93MOL0     H12799   9.447   2.937   7.980 -1.8013 -1.8339  0.2559
   93MOL0     H12800   9.587   2.953   8.250  0.5802 -0.5578 -1.4103
   93MOL0     H12801   9.498   3.082   8.180  1.1175 -0.2675  0.6464
   93MOL0     H12802   9.357   2.963   8.350 -1.8730  0.2276  0.4448
   93MOL0     H12803   9.390   2.806   8.275 -0.9267 -0.2250  0.5652
   93MOL0     H12804   9.233   2.848   8.098 -1.7915 -1.8256  1.8498
   93MOL0     H12805   9.236   3.025   8.140 -0.0583 -0.4588  1.1490
   93MOL0     H12806   9.123   2.796   8.303  2.1555  0.2824  1.5595
   93MOL0     H12807   9.129   2.968   8.350  2.3251 -1.7220  0.5654
   93MOL0     H12808   8.913   2.874   8.221 -1.5369  0.4568 -2.7626
   93MOL0     H12809   9.010   2.887   8.075  0.9376  1.5111 -0.0801
   93MOL0     H12810   9.039   3.127   8.112 -2.2911  1.1458 -0.5035
   93MOL0     H12811   8.965   3.118   8.267  0.8549  1.1688 -0.7725
   93MOL0     H12812   8.830   3.199   8.070 -1.5167 -0.1042  0.9790
   93MOL0     H12813   8.753   3.082   8.167  1.4808 -2.0472  1.6553
   93MOL0     H12814   9.774   2.783   7.979  0.4863  0.5121 -0.3340
   93MOL0     H12815   9.983   2.669   8.060  0.2020  0.9626  0.3125
   93MOL0     H12816  10.124   2.316   8.283  1.7606  0.6708 -2.0125
   93MOL0     H12817  10.327   2.181   8.331  1.6499  0.4842 -1.1916
   93MOL0     H12818   9.372   1.469   8.659 -2.1505  0.3326 -0.3129
   93MOL0     H12819   9.151   1.504   8.768 -0.2527  1.8929  0.7638
   93MOL0     H12820   8.945   1.387   9.331 -3.3834 -0.7490  1.2246
   93MOL0     H12821   8.721   1.398   9.399 -4.0839  1.9888 -0.0665
   93MOL0     H12822   8.532   1.427   9.459  1.1597  1.3550  0.8715
   93MOL0     H12823   8.512   1.598   9.498 -2.9183  2.0058 -1.8684
   93MOL0     H12824   8.296   1.439   9.504 -1.4629  0.6171 -0.2295
   93MOL0     H12825   8.312   1.454   9.331  1.8704 -0.6976  0.1271
   93MOL0     H12826   8.293   1.703   9.488 -1.9800  1.4538 -1.0077
   93MOL0     H12827   8.268   1.683   9.315  0.1115  0.7064  0.7979
   93MOL0     H12828   8.079   1.715   9.456  0.8961  0.1525 -1.3941
   93MOL0     H12829   8.102   1.554   9.530  0.9828  2.6504  1.9960
   93MOL0     H12830   7.927   1.450   9.162  2.0127 -2.0379 -0.1291
   93MOL0     H12831   8.623   1.663   9.083  1.3720  0.8373 -1.4269
   93MOL0     H12832   8.932   1.717   8.956  0.4488 -1.0761  1.0407
   93MOL0     H12833   8.876   1.589   8.865  0.0402 -0.4015 -0.1749
   93MOL0     H12834   8.759   1.721   8.918 -0.3941  1.1217  1.1714
   94MOL0     O12835   3.756   1.077   6.883 -0.2576  0.0706 -0.2427
   94MOL0     C12836   3.708   1.078   6.996 -0.1852 -0.4771  0.0460
   94MOL0     O12837   3.767   1.148   7.106 -0.3443 -0.1033 -0.3456
   94MOL0     C12838   3.896   1.204   7.088 -0.1043  0.4542  1.4345
   94MOL0     C12839   3.903   1.340   7.096  0.2157 -0.9382  0.1620
   94MOL0     C12840   4.033   1.401   7.105 -1.0494  0.4927  0.1418
   94MOL0     C12841   4.152   1.318   7.090 -0.2694 -0.3338  0.3705
   94MOL0     O12842   4.290   1.356   7.094 -0.2109  0.4546  0.0859
   94MOL0     C12843   4.327   1.493   7.073  0.8404 -0.1591  0.1390
   94MOL0     C12844   4.331   1.578   7.195  0.3828  0.9253 -0.4661
   94MOL0     C12845   4.449   1.531   7.293 -0.7677 -0.0392  0.1392
   94MOL0     C12846   4.531   1.645   7.350 -0.2264 -0.1855  0.1819
   94MOL0     C12847   4.649   1.588   7.431  0.1309  1.2289 -0.3253
   94MOL0     C12848   4.741   1.689   7.504  0.9440 -0.1968 -0.5851
   94MOL0     C12849   4.831   1.611   7.600  0.2715  0.4443 -0.5292
   94MOL0     C12850   4.954   1.682   7.662  0.5968  0.3038 -0.2080
   94MOL0     N12851   5.061   1.687   7.563 -0.3153 -0.0749  0.6519
   94MOL0     C12852   5.082   1.792   7.469 -0.1315 -1.1554  0.6143
   94MOL0     C12853   5.166   1.735   7.382  0.6532 -0.5021 -0.3455
   94MOL0     C12854   5.201   1.801   7.248 -0.2143 -0.1054 -0.0813
   94MOL0     C12855   5.230   1.683   7.152 -0.0306 -0.5118  0.2648
   94MOL0     C12856   5.237   1.729   7.011  0.2767 -0.1740 -0.3808
   94MOL0     C12857   5.360   1.804   6.958 -0.2702  0.5077 -0.3640
   94MOL0     O12858   5.359   1.847   6.818 -0.6291  0.1883  0.2083
   94MOL0     C12859   5.461   1.922   6.779 -0.4243  0.5606  0.8512
   94MOL0     C12860   5.441   1.996   6.659 -0.1496 -0.8151  0.3226
   94MOL0     C12861   5.534   2.092   6.608 -0.1203  0.0575 -0.6574
   94MOL0     C12862   5.495   2.169   6.484 -0.0274 -0.5975  0.0346
   94MOL0     C12863   5.650   2.106   6.684 -0.1772  0.0194  0.4433
   94MOL0     C12864   5.765   2.196   6.644 -0.1173 -0.1167  0.9115
   94MOL0     O12865   5.881   2.196   6.721  0.5550 -0.3391  0.0644
   94MOL0     C12866   5.978   2.293   6.696  0.2090  0.0148 -0.9426
   94MOL0     C12867   5.969   2.427   6.727  0.2140 -0.1242  0.4637
   94MOL0     C12868   6.077   2.513   6.713 -0.0606  1.1414 -0.0286
   94MOL0     C12869   6.192   2.473   6.648  1.0787  0.0645  0.5855
   94MOL0     O12870   6.308   2.544   6.631 -0.2435 -0.2151  0.3836
   94MOL0     C12871   6.311   2.683   6.649 -0.5035 -0.3730 -0.1803
   94MOL0     C12872   6.455   2.719   6.661 -0.4747 -0.0018 -0.0839
   94MOL0     C12873   6.462   2.870   6.650  0.0884  0.0584 -0.4143
   94MOL0     C12874   6.619   2.896   6.623 -0.3303 -0.3023 -0.7275
   94MOL0     C12875   6.639   3.044   6.578 -0.3519  1.1933  0.0633
   94MOL0     C12876   6.764   3.060   6.484 -0.4143 -0.2091  0.2821
   94MOL0     C12877   6.731   3.015   6.339  0.7746  0.2743  0.2302
   94MOL0     C12878   6.833   3.066   6.243 -0.5986 -0.7662  0.6951
   94MOL0    Cl12879   6.782   3.028   6.077  0.0110  0.4667  0.2473
   94MOL0     C12880   6.196   2.338   6.596  0.0352  0.6229  0.3448
   94MOL0     C12881   6.091   2.248   6.636 -0.6407  0.0097 -0.7182
   94MOL0     O12882   5.753   2.263   6.543 -0.0800  1.1529  0.1784
   94MOL0     C12883   5.679   2.026   6.793  0.2686 -0.6024  0.0556
   94MOL0     C12884   5.585   1.934   6.838  0.3624 -0.2518  0.6801
   94MOL0     N12885   5.209   1.614   7.431  0.9451  0.0690 -0.4741
   94MOL0     N12886   5.155   1.584   7.541 -0.2742 -0.4654  0.2520
   94MOL0     C12887   4.132   1.184   7.066 -0.1495  0.2272 -0.4564
   94MOL0     C12888   4.004   1.125   7.071 -0.3529 -0.2687 -0.1983
   94MOL0     C12889   3.586   1.009   7.033 -0.2768  0.5105 -0.2978
   94MOL0     C12890   3.542   1.008   7.172  1.3625  0.7622 -0.4333
   94MOL0     C12891   3.419   0.953   7.212 -0.3785 -0.4438 -1.3583
   94MOL0     C12892   3.326   0.910   7.125 -0.1879 -0.1014  0.2952
   94MOL0     O12893   3.199   0.886   7.169  0.4117 -0.4286 -0.2400
   94MOL0     C12894   3.107   0.834   7.089 -0.0870  0.2183  0.4031
   94MOL0     C12895   2.994   0.792   7.183 -0.9273 -0.2502  0.4708
   94MOL0     C12896   2.887   0.733   7.086 -0.5307  0.3522  0.8357
   94MOL0     C12897   2.775   0.671   7.162  0.3221  0.5347  0.2183
   94MOL0     C12898   2.683   0.600   7.070 -1.0339  0.4308 -0.5236
   94MOL0     C12899   2.615   0.533   6.988  0.1457 -0.4563 -0.4389
   94MOL0     C12900   3.362   0.918   6.990 -0.0444  0.3958 -0.0633
   94MOL0     C12901   3.488   0.953   6.941 -0.3980 -0.8055  1.2320
   94MOL0     C12902   3.515   0.941   6.793  0.1700  0.8637 -0.5686
   94MOL0     H12903   3.805   1.386   7.105  2.3862  3.9571  2.2934
   94MOL0     H12904   4.032   1.507   7.125 -0.8578  0.2029  1.8064
   94MOL0     H12905   4.260   1.539   6.999  0.8332  0.8056  0.7275
   94MOL0     H12906   4.422   1.484   7.019 -1.5183 -2.1717 -4.2084
   94MOL0     H12907   4.344   1.683   7.168 -0.1431  0.9397 -0.6737
   94MOL0     H12908   4.233   1.569   7.242  1.2225 -2.8355  0.8607
   94MOL0     H12909   4.403   1.472   7.374  1.7358  0.3474  1.9491
   94MOL0     H12910   4.520   1.468   7.239  0.5466  0.4640  1.2203
   94MOL0     H12911   4.566   1.704   7.264 -2.7678  1.8752  0.4043
   94MOL0     H12912   4.477   1.714   7.416  0.8400 -0.4276  1.3395
   94MOL0     H12913   4.714   1.528   7.367 -1.1477 -0.7711  0.1721
   94MOL0     H12914   4.601   1.525   7.506 -1.8209  1.3595 -1.3957
   94MOL0     H12915   4.796   1.731   7.419 -0.4049  0.4950 -1.1532
   94MOL0     H12916   4.686   1.760   7.566 -0.3609 -1.7786  0.1591
   94MOL0     H12917   4.876   1.522   7.555  1.4230  0.3839  0.6958
   94MOL0     H12918   4.763   1.573   7.677 -1.0200  1.0020 -1.3485
   94MOL0     H12919   4.934   1.783   7.699 -1.5463 -0.5537  1.1737
   94MOL0     H12920   4.983   1.618   7.746 -2.4056 -2.5084 -1.1281
   94MOL0     H12921   5.040   1.892   7.457 -1.3402 -1.6008  0.9239
   94MOL0     H12922   5.283   1.872   7.261 -0.2135 -0.4707  2.1480
   94MOL0     H12923   5.115   1.857   7.209  0.2414 -1.7168 -3.9138
   94MOL0     H12924   5.327   1.641   7.183  2.1642  2.7763 -1.5165
   94MOL0     H12925   5.146   1.614   7.166 -0.0507 -0.5842 -0.2026
   94MOL0     H12926   5.229   1.645   6.941  0.9566  1.0189 -1.9698
   94MOL0     H12927   5.147   1.791   7.001  0.2890  0.3085  2.0518
   94MOL0     H12928   5.355   1.886   7.031 -1.0102  1.0219 -0.9773
   94MOL0     H12929   5.446   1.738   6.973 -0.4696  0.3746  0.2188
   94MOL0     H12930   5.350   1.972   6.606 -0.1873 -1.4245  0.6490
   94MOL0     H12931   5.574   2.160   6.408  0.8892 -2.2696  1.0974
   94MOL0     H12932   5.475   2.272   6.515  1.4979 -0.4341  0.5812
   94MOL0     H12933   5.403   2.129   6.442 -1.0506  0.9200  0.7516
   94MOL0     H12934   5.872   2.459   6.763 -0.4570  0.7618 -1.9287
   94MOL0     H12935   6.063   2.612   6.755 -0.4881  1.0234  0.1138
   94MOL0     H12936   6.258   2.739   6.571 -0.3175  4.9049  3.0127
   94MOL0     H12937   6.269   2.697   6.749  2.6519  0.5401  1.1487
   94MOL0     H12938   6.509   2.685   6.750  1.2472 -2.1516 -1.8685
   94MOL0     H12939   6.496   2.682   6.567 -1.2180  0.2125 -0.5052
   94MOL0     H12940   6.426   2.914   6.744  1.0628  0.7852 -0.3660
   94MOL0     H12941   6.397   2.903   6.569 -2.6224 -0.0779  1.5710
   94MOL0     H12942   6.653   2.825   6.548 -1.5621 -1.3664 -0.3103
   94MOL0     H12943   6.682   2.872   6.709 -1.8192  1.0248  0.8179
   94MOL0     H12944   6.553   3.081   6.522 -0.2385  1.0497 -0.2075
   94MOL0     H12945   6.651   3.097   6.673 -0.9228 -2.2310  2.2513
   94MOL0     H12946   6.837   2.998   6.537 -1.8821 -0.7484  1.7454
   94MOL0     H12947   6.803   3.162   6.477 -0.5048 -0.0408  2.0084
   94MOL0     H12948   6.641   3.065   6.303  0.8847 -1.6002 -3.0351
   94MOL0     H12949   6.723   2.906   6.330 -0.1696  0.5255 -4.9876
   94MOL0     H12950   6.931   3.022   6.261 -0.6085 -0.5100  1.3885
   94MOL0     H12951   6.847   3.174   6.240 -0.7160 -0.7696 -0.3253
   94MOL0     H12952   6.278   2.286   6.549 -0.9382 -1.1731  0.5692
   94MOL0     H12953   6.103   2.146   6.598 -3.4185 -0.1702 -1.3803
   94MOL0     H12954   5.763   2.034   6.861 -0.9442  1.3148  1.4379
   94MOL0     H12955   5.610   1.864   6.918  2.7095 -1.0509 -0.6579
   94MOL0     H12956   4.208   1.107   7.065  0.0177  0.3847  0.0550
   94MOL0     H12957   4.004   1.016   7.069  2.5029 -0.3510  0.2558
   94MOL0     H12958   3.601   1.044   7.256 -0.4311  1.7250  0.4510
   94MOL0     H12959   3.386   0.959   7.315  2.5842  1.5629 -0.4032
   94MOL0     H12960   3.078   0.907   7.013 -2.8781 -1.1287  0.0587
   94MOL0     H12961   3.138   0.746   7.032 -2.0597  1.1258 -2.2823
   94MOL0     H12962   2.956   0.882   7.231 -0.6219 -0.7178  1.6172
   94MOL0     H12963   3.023   0.710   7.250  0.8762 -1.2989 -1.4563
   94MOL0     H12964   2.843   0.818   7.033 -0.7914 -0.1981  0.1517
   94MOL0     H12965   2.933   0.659   7.020 -1.6939 -2.4857  2.9992
   94MOL0     H12966   2.710   0.753   7.197  0.1753  0.7531 -0.5506
   94MOL0     H12967   2.803   0.617   7.253 -1.4948  2.1290  1.8380
   94MOL0     H12968   2.559   0.476   6.916 -0.0814 -1.8185  0.7568
   94MOL0     H12969   3.286   0.894   6.916  1.4119 -3.1881 -0.6105
   94MOL0     H12970   3.576   0.854   6.771  0.2316  0.0586  2.3054
   94MOL0     H12971   3.417   0.932   6.744  0.1405  1.4994 -0.6364
   94MOL0     H12972   3.550   1.037   6.755 -0.0215  0.6375 -1.3313
   95MOL0     O12973   6.674   0.098   3.876 -0.1027  0.2643  0.4952
   95MOL0     C12974   6.646   0.082   3.756  0.3469 -0.8896  0.6305
   95MOL0     O12975   6.715   0.124   3.648  0.4507  0.2145 -0.0596
   95MOL0     C12976   6.841   0.170   3.672  0.6512 -0.7567  0.5412
   95MOL0     C12977   6.863   0.309   3.711 -0.1269  0.5361  0.2967
   95MOL0     C12978   6.992   0.354   3.721 -0.6748  0.2444  0.1355
   95MOL0     C12979   7.103   0.273   3.699  1.0075 -0.1398 -0.4226
   95MOL0     O12980   7.230   0.325   3.724 -0.3256 -0.2049 -0.5577
   95MOL0     C12981   7.346   0.242   3.735 -0.1279 -0.0887 -0.1342
   95MOL0     C12982   7.472   0.337   3.745  0.6200  0.1215  0.0386
   95MOL0     C12983   7.517   0.390   3.614 -0.4136  0.0725  0.5096
   95MOL0     C12984   7.581   0.522   3.619  0.3820 -0.6563  0.2222
   95MOL0     C12985   7.591   0.579   3.476  0.2171 -0.5538  0.2323
   95MOL0     C12986   7.658   0.709   3.464  0.6757  0.4486 -0.3931
   95MOL0     C12987   7.684   0.765   3.325  0.3413  0.1180 -0.2120
   95MOL0     C12988   7.764   0.894   3.337  0.4034  0.4187  0.0001
   95MOL0     N12989   7.788   0.947   3.208  0.8184  0.2228 -0.4124
   95MOL0     C12990   7.847   0.874   3.102 -0.5404  0.0055  0.4330
   95MOL0     C12991   7.904   0.962   3.021  0.4645 -0.0281  0.6685
   95MOL0     C12992   7.982   0.930   2.896  0.9771 -0.0154  0.0950
   95MOL0     C12993   8.127   0.951   2.940 -0.0873 -0.0214  0.0621
   95MOL0     C12994   8.223   0.969   2.824  0.5290  0.6095 -0.2449
   95MOL0     C12995   8.373   0.974   2.869 -0.1761 -0.0740  0.3424
   95MOL0     O12996   8.421   0.855   2.924 -0.4471  0.3224  0.1706
   95MOL0     C12997   8.558   0.830   2.941 -0.0544  0.1976  0.7868
   95MOL0     C12998   8.597   0.700   2.964  0.0404  0.5695 -0.5386
   95MOL0     C12999   8.736   0.669   2.984  0.1957  0.1498 -0.1948
   95MOL0     C13000   8.782   0.530   3.022 -0.3983 -1.0040 -0.0126
   95MOL0     C13001   8.833   0.769   2.960  0.4290 -0.2076 -0.0123
   95MOL0     C13002   8.976   0.767   2.988 -0.4306  0.8828  0.5008
   95MOL0     O13003   9.039   0.879   3.032 -0.2560 -0.1381  0.3011
   95MOL0     C13004   9.176   0.873   3.047  0.0747  0.2867  0.5443
   95MOL0     C13005   9.240   0.787   3.137  0.0016  0.3414  0.9023
   95MOL0     C13006   9.384   0.765   3.137 -0.4701  0.2885 -0.2565
   95MOL0     C13007   9.460   0.847   3.054 -1.1451  0.0584 -0.8190
   95MOL0     O13008   9.600   0.839   3.054 -0.0739 -0.0777  0.5989
   95MOL0     C13009   9.665   0.891   3.166 -0.1486 -0.0071  0.0653
   95MOL0     C13010   9.812   0.872   3.146  0.6712 -0.2287 -0.8175
   95MOL0     C13011   9.852   0.887   2.996  0.3037  0.0384 -0.3085
   95MOL0     C13012  10.004   0.897   2.992 -0.4774  0.4922 -0.9715
   95MOL0     C13013  10.053   0.923   2.854  0.0730  0.4664  0.0603
   95MOL0     C13014  10.172   1.004   2.837  0.0312 -0.0936 -0.2092
   95MOL0     C13015  10.223   1.016   2.695 -0.0875  0.1550  0.2638
   95MOL0     C13016  10.344   1.114   2.687  0.0901  0.6009  0.3370
   95MOL0    Cl13017  10.486   1.052   2.772  0.1695 -0.0471  0.3690
   95MOL0     C13018   9.399   0.942   2.972 -0.0808  0.6563 -0.4665
   95MOL0     C13019   9.259   0.950   2.967  1.1391  0.0600  0.2641
   95MOL0     O13020   9.040   0.659   2.968  0.4168 -0.1113  0.1575
   95MOL0     C13021   8.781   0.900   2.921 -0.5774 -0.0348 -0.3994
   95MOL0     C13022   8.651   0.934   2.916  0.6444  0.0581 -0.9555
   95MOL0     N13023   7.888   1.086   3.077  0.0430 -0.2340  0.1962
   95MOL0     N13024   7.815   1.077   3.185  0.3188  0.5778 -0.5148
   95MOL0     C13025   7.073   0.138   3.669 -0.6315 -0.1867 -0.4865
   95MOL0     C13026   6.949   0.091   3.635 -0.1850  0.1984  0.6030
   95MOL0     C13027   6.516   0.017   3.720 -0.0010  0.1191  0.2711
   95MOL0     C13028   6.460   0.035   3.594 -0.1331  0.2411  0.2320
   95MOL0     C13029   6.346  -0.035   3.551 -0.3296 -0.4326  0.4704
   95MOL0     C13030   6.283  -0.121   3.644 -0.7260  0.9002 -0.3800
   95MOL0     O13031   6.171  -0.202   3.626  0.0222  0.0499 -0.2190
   95MOL0     C13032   6.052  -0.132   3.597 -0.0472 -0.9301  0.8855
   95MOL0     C13033   6.034  -0.109   3.444 -0.5357 -0.5334 -0.5825
   95MOL0     C13034   5.921  -0.009   3.436 -0.1858 -0.5741 -0.1433
   95MOL0     C13035   5.872  -0.024   3.290 -0.0150  0.3374  0.8362
   95MOL0     C13036   5.749   0.054   3.270  1.2741 -0.6820  0.0973
   95MOL0     C13037   5.650   0.128   3.264  0.2518  0.1507  0.0515
   95MOL0     C13038   6.339  -0.142   3.768  0.2024 -0.5823  0.1332
   95MOL0     C13039   6.449  -0.075   3.809  0.4662  0.2191 -0.0932
   95MOL0     C13040   6.505  -0.111   3.946  0.3361 -0.3858  0.2669
   95MOL0     H13041   6.775   0.372   3.723 -0.9363 -0.6300  0.7283
   95MOL0     H13042   7.005   0.458   3.748 -1.8042  0.4634 -0.1485
   95MOL0     H13043   7.362   0.183   3.644  0.7658  1.3552 -0.9722
   95MOL0     H13044   7.336   0.185   3.827  0.3274 -0.9690 -0.6181
   95MOL0     H13045   7.449   0.421   3.812 -0.9186 -1.1185  1.1409
   95MOL0     H13046   7.556   0.279   3.784  0.3152  0.0551  0.6034
   95MOL0     H13047   7.588   0.313   3.580 -0.1124 -0.7126  2.7087
   95MOL0     H13048   7.433   0.390   3.544  1.2686 -0.1190 -1.6205
   95MOL0     H13049   7.527   0.600   3.673  0.7514  0.4645 -0.9749
   95MOL0     H13050   7.676   0.509   3.672 -0.5451 -0.3401  2.0407
   95MOL0     H13051   7.490   0.593   3.438  1.0985  1.7340 -1.4548
   95MOL0     H13052   7.632   0.501   3.410  0.3997 -1.6704  1.6113
   95MOL0     H13053   7.607   0.781   3.529  0.8197  0.8492 -0.7193
   95MOL0     H13054   7.762   0.705   3.497  1.6235  4.0801 -2.3488
   95MOL0     H13055   7.593   0.793   3.271  0.6598  1.2811 -0.1791
   95MOL0     H13056   7.742   0.698   3.260  2.1381  1.8099 -0.4692
   95MOL0     H13057   7.719   0.962   3.411 -1.1332 -1.4378  0.8600
   95MOL0     H13058   7.862   0.860   3.373  0.3721 -1.8248 -1.7966
   95MOL0     H13059   7.842   0.767   3.087 -0.3040 -0.0114  0.4780
   95MOL0     H13060   7.952   0.996   2.814  1.0609 -0.7928 -0.5888
   95MOL0     H13061   7.970   0.825   2.865 -0.7308  0.2246 -0.1396
   95MOL0     H13062   8.134   1.034   3.010  0.0849  0.7509 -0.8484
   95MOL0     H13063   8.155   0.867   3.005  0.9531  1.4151  1.5355
   95MOL0     H13064   8.206   0.884   2.756  0.9482 -0.0793  0.4867
   95MOL0     H13065   8.188   1.060   2.776  0.7270  0.6550 -0.3043
   95MOL0     H13066   8.435   0.993   2.781 -0.1361 -2.1157 -0.1134
   95MOL0     H13067   8.386   1.048   2.949 -0.7604  1.1812 -0.6681
   95MOL0     H13068   8.519   0.626   2.981 -0.5396  1.2075 -0.3878
   95MOL0     H13069   8.867   0.522   3.091 -0.0307 -1.8944 -0.5536
   95MOL0     H13070   8.808   0.466   2.938 -1.0174  0.1892 -1.1396
   95MOL0     H13071   8.696   0.485   3.073 -0.4942  0.6670  1.4127
   95MOL0     H13072   9.190   0.734   3.217  0.2478 -1.9094 -0.3589
   95MOL0     H13073   9.432   0.701   3.210  0.8413  3.7598  2.2355
   95MOL0     H13074   9.630   0.994   3.168 -1.0808 -0.2853 -0.7873
   95MOL0     H13075   9.627   0.838   3.254  2.9321 -0.5736  1.1497
   95MOL0     H13076   9.859   0.944   3.213 -2.1148 -0.9531  2.1313
   95MOL0     H13077   9.835   0.770   3.178  0.1329 -0.3549 -0.8325
   95MOL0     H13078   9.816   0.975   2.942  2.9151  2.7910  2.0216
   95MOL0     H13079   9.820   0.799   2.940  2.6607  0.8715 -3.2611
   95MOL0     H13080  10.050   0.803   3.026  2.3244  2.1726  0.2008
   95MOL0     H13081  10.037   0.982   3.052 -1.3661  2.3963 -3.0370
   95MOL0     H13082  10.085   0.827   2.812  0.8946  1.6176 -2.1460
   95MOL0     H13083   9.973   0.970   2.795  1.3283  3.6066  0.6321
   95MOL0     H13084  10.259   0.956   2.882  0.2889  1.7070  1.3409
   95MOL0     H13085  10.158   1.103   2.881  1.6055 -0.4779  1.2792
   95MOL0     H13086  10.147   1.060   2.630 -1.2597 -2.9355 -0.6456
   95MOL0     H13087  10.236   0.920   2.645 -1.5195  0.1568 -0.1572
   95MOL0     H13088  10.314   1.214   2.720 -1.3441  0.3519 -0.1665
   95MOL0     H13089  10.368   1.128   2.582  1.2267 -1.3906  0.2824
   95MOL0     H13090   9.461   1.007   2.912  0.9826  1.0956  1.0246
   95MOL0     H13091   9.204   1.021   2.906 -0.2237  0.2443  1.6656
   95MOL0     H13092   8.859   0.975   2.909  0.2443 -0.7672  0.1709
   95MOL0     H13093   8.631   1.037   2.889  2.3826  0.7204  0.1523
   95MOL0     H13094   7.157   0.070   3.659 -0.5773 -0.0648 -0.8734
   95MOL0     H13095   6.931  -0.010   3.601 -0.2847  0.6089 -0.6471
   95MOL0     H13096   6.507   0.096   3.517 -0.2639 -0.3914 -0.3591
   95MOL0     H13097   6.308  -0.006   3.454  0.1231  1.4670  0.8217
   95MOL0     H13098   5.965  -0.179   3.642 -1.7317  2.7993  1.9516
   95MOL0     H13099   6.052  -0.033   3.645 -0.7935 -1.6198  2.3482
   95MOL0     H13100   6.003  -0.195   3.384 -0.7954  0.4437 -1.8850
   95MOL0     H13101   6.120  -0.054   3.404 -0.9120 -0.4322 -1.2521
   95MOL0     H13102   5.846  -0.052   3.503  1.2104 -1.0722  1.1469
   95MOL0     H13103   5.957   0.094   3.449  1.1796 -0.9636 -0.6312
   95MOL0     H13104   5.839  -0.123   3.258 -2.9253  1.0520  1.3910
   95MOL0     H13105   5.952   0.002   3.219 -1.4381 -0.6407 -1.2251
   95MOL0     H13106   5.558   0.183   3.266 -0.2902 -0.4431 -3.0618
   95MOL0     H13107   6.282  -0.210   3.829 -2.1726 -0.1581 -1.5016
   95MOL0     H13108   6.607  -0.149   3.927  0.3340 -0.4646  0.4141
   95MOL0     H13109   6.513  -0.024   4.011  0.2972  0.3363 -0.6863
   95MOL0     H13110   6.437  -0.180   3.997  0.9147 -2.4211 -1.5520
   96MOL0     O13111   6.504  10.482  10.786  0.8213  0.0532 -0.4508
   96MOL0     C13112   6.472  10.466  10.665 -0.2352 -0.1632 -0.2616
   96MOL0     O13113   6.566  10.480  10.561  0.0574 -0.2725 -0.2190
   96MOL0     C13114   6.698  10.486  10.592 -1.0967 -0.9641 -0.9128
   96MOL0     C13115   6.774  10.604  10.549  0.2482 -0.0428  0.9000
   96MOL0     C13116   6.898  10.640  10.595 -0.0510  0.9363 -0.0605
   96MOL0     C13117   6.961  10.550  10.676 -0.0280  0.7825 -0.3131
   96MOL0     O13118   7.086  10.572  10.724  0.7644  0.3834  0.1802
   96MOL0     C13119   7.139  10.705  10.715 -0.4665 -0.0078 -0.3522
   96MOL0     C13120   7.267  10.697  10.791  1.0556 -0.3862  0.3504
   96MOL0     C13121   7.336  10.826  10.777 -0.2183  0.2504 -0.1061
   96MOL0     C13122   7.486  10.814  10.770 -0.1993  0.3044  0.1067
   96MOL0     C13123   7.556  10.788  10.904 -0.1253  0.2881  0.2333
   96MOL0     C13124   7.705  10.819  10.886  0.1797 -0.1136 -0.0733
   96MOL0     C13125   7.774  10.772  10.762 -0.3457 -0.0832  0.4229
   96MOL0     C13126   7.919  10.759  10.796  0.2881  0.0291 -0.0201
   96MOL0     N13127   7.986  10.681  10.701 -0.6247 -0.3352  0.6781
   96MOL0     C13128   8.051  10.735  10.594 -0.4602 -0.9893  0.3593
   96MOL0     C13129   8.080  10.629  10.518 -0.0822 -0.1104  0.7672
   96MOL0     C13130   8.146  10.622  10.389 -0.0733 -0.5751 -0.1216
   96MOL0     C13131   8.294  10.600  10.401 -0.5368  0.2402 -0.1785
   96MOL0     C13132   8.354  10.576  10.257  0.3965 -0.2929  0.8431
   96MOL0     C13133   8.501  10.595  10.232  0.1238  0.0754  0.7003
   96MOL0     O13134   8.568  10.498  10.312  0.0845  0.1259 -0.7300
   96MOL0     C13135   8.703  10.507  10.319  0.2895 -0.4984 -0.1599
   96MOL0     C13136   8.782  10.572  10.227 -0.1796 -0.0311 -0.0682
   96MOL0     C13137   8.921  10.587  10.246  0.2094 -0.6240  0.1156
   96MOL0     C13138   8.991  10.690  10.154 -0.5364 -0.1463  0.3807
   96MOL0     C13139   8.986  10.540  10.359  0.0579 -0.0154 -0.7059
   96MOL0     C13140   9.135  10.562  10.394 -0.2367 -0.0055  0.2091
   96MOL0     O13141   9.171  10.507  10.515 -0.3393 -0.2266  0.6508
   96MOL0     C13142   9.302  10.525  10.553 -0.2892 -0.2011  0.0319
   96MOL0     C13143   9.407  10.481  10.471  0.6071 -0.6003 -0.3565
   96MOL0     C13144   9.541  10.515  10.503 -0.0091  0.2667 -0.5753
   96MOL0     C13145   9.565  10.578  10.624  0.3383 -0.6751 -1.0261
   96MOL0     O13146   9.696  10.614  10.647 -0.4776 -0.3203  0.7519
   96MOL0     C13147   9.719  10.749  10.690  0.6788  0.0721 -0.3154
   96MOL0     C13148   9.868  10.774  10.713 -0.1006 -0.4752  0.4958
   96MOL0     C13149   9.918  10.672  10.822  0.5563  0.0216 -0.0181
   96MOL0     C13150  10.048  10.718  10.889  0.3545 -0.0505 -0.0347
   96MOL0     C13151  10.112  10.601  10.969  0.0911 -0.6447  0.1625
   96MOL0     C13152  10.051  10.580  11.103 -1.0774 -0.6890 -0.1052
   96MOL0     C13153  10.135  10.482  11.185 -0.0340 -0.0469 -0.8293
   96MOL0     C13154  10.248  10.548  11.262 -0.2636 -1.1322  0.1978
   96MOL0    Cl13155  10.179  10.600  11.413  0.2707 -0.2087  0.0317
   96MOL0     C13156   9.457  10.611  10.712  0.5438 -0.7047  0.2118
   96MOL0     C13157   9.324  10.583  10.675  0.4337  0.2107 -0.1011
   96MOL0     O13158   9.208  10.628  10.318  0.0552  0.5640  0.3672
   96MOL0     C13159   8.909  10.462  10.446 -0.9725 -0.8875 -0.4374
   96MOL0     C13160   8.772  10.455  10.429 -0.7803 -0.5793  0.5531
   96MOL0     N13161   8.056  10.517  10.592 -0.1564  0.4702  0.1581
   96MOL0     N13162   7.992  10.544  10.701 -0.7631 -0.3527 -0.7009
   96MOL0     C13163   6.895  10.434  10.719  0.5242  0.3785  0.8648
   96MOL0     C13164   6.769  10.394  10.671 -0.0089 -0.6427 -0.8343
   96MOL0     C13165   6.336  10.432  10.629  0.9195  0.6654 -0.3532
   96MOL0     C13166   6.288  10.479  10.501 -0.3324  1.1500  0.0089
   96MOL0     C13167   6.152  10.444  10.459  0.7050 -0.4672 -0.3959
   96MOL0     C13168   6.069  10.371  10.549  0.0395 -0.6000 -0.7703
   96MOL0     O13169   5.936  10.331  10.523 -0.7771 -0.2620 -0.4524
   96MOL0     C13170   5.899  10.343  10.389  0.7043  0.3552  0.2879
   96MOL0     C13171   5.792  10.235  10.347  0.6590  0.1794  0.1033
   96MOL0     C13172   5.677  10.218  10.453 -0.2646  0.4014  0.0275
   96MOL0     C13173   5.546  10.176  10.383 -0.3233 -0.4956 -0.7286
   96MOL0     C13174   5.559  10.052  10.302  0.2615 -0.4751 -0.2022
   96MOL0     C13175   5.584   9.951  10.239 -0.6194  0.0094  0.2195
   96MOL0     C13176   6.110  10.344  10.675 -0.3926  0.2073 -0.0694
   96MOL0     C13177   6.240  10.366  10.717 -0.1937  0.1546  0.0267
   96MOL0     C13178   6.268  10.339  10.864  0.4666  0.7315 -0.3399
   96MOL0     H13179   6.721  10.674  10.485  3.2023  0.2112 -1.4639
   96MOL0     H13180   6.930  10.734  10.550 -0.8692  0.5530 -1.5185
   96MOL0     H13181   7.077  10.785  10.756  1.3853  0.7845  1.0687
   96MOL0     H13182   7.161  10.725  10.610  1.1325 -0.4886 -0.1356
   96MOL0     H13183   7.242  10.689  10.897  0.5195 -1.7000  0.1508
   96MOL0     H13184   7.326  10.608  10.765  0.0181 -0.6276 -1.3803
   96MOL0     H13185   7.313  10.890  10.691  0.2189 -1.0491 -1.2443
   96MOL0     H13186   7.297  10.890  10.856  1.6394  2.3309 -0.7583
   96MOL0     H13187   7.520  10.742  10.695  1.6791  0.3302  0.8832
   96MOL0     H13188   7.514  10.914  10.735 -2.4406  0.1454 -2.4462
   96MOL0     H13189   7.548  10.681  10.924 -0.0239  0.3108  0.3963
   96MOL0     H13190   7.517  10.839  10.993  2.4649  1.2491  0.8972
   96MOL0     H13191   7.723  10.927  10.880  1.4143 -0.3361 -0.8706
   96MOL0     H13192   7.745  10.789  10.984 -1.2072  3.0289  1.6368
   96MOL0     H13193   7.765  10.839  10.677  1.1792 -1.7571 -1.1429
   96MOL0     H13194   7.738  10.675  10.726 -1.6355 -1.3713  4.5645
   96MOL0     H13195   7.964  10.859  10.794  0.2085  0.1045  0.9913
   96MOL0     H13196   7.937  10.714  10.895  3.8984  0.2855 -0.4125
   96MOL0     H13197   8.057  10.840  10.567  1.5719  0.0598  4.1064
   96MOL0     H13198   8.118  10.706  10.325  0.6867  0.4943  0.9257
   96MOL0     H13199   8.099  10.533  10.347 -1.6851 -0.0987  0.5877
   96MOL0     H13200   8.333  10.694  10.442 -0.2830 -0.1427  0.4740
   96MOL0     H13201   8.312  10.517  10.470  0.7922  1.6912  1.3377
   96MOL0     H13202   8.320  10.479  10.217 -1.2546  1.2678 -1.8547
   96MOL0     H13203   8.305  10.654  10.198 -2.2395 -1.6022  1.1322
   96MOL0     H13204   8.525  10.569  10.128  3.9488 -1.8430  1.8471
   96MOL0     H13205   8.539  10.696  10.250  0.2992  0.2736 -0.6506
   96MOL0     H13206   8.735  10.618  10.141 -2.9661 -1.1432  0.7442
   96MOL0     H13207   9.082  10.646  10.113 -0.9903 -1.9506  1.2192
   96MOL0     H13208   9.022  10.775  10.216 -3.8384  1.4881  0.0183
   96MOL0     H13209   8.935  10.731  10.069  1.4992 -0.1689 -1.0443
   96MOL0     H13210   9.386  10.430  10.377  1.8957  0.2490 -1.1380
   96MOL0     H13211   9.623  10.485  10.440 -0.6866  2.5759 -2.7121
   96MOL0     H13212   9.671  10.819  10.621 -1.0853  0.2003  0.9718
   96MOL0     H13213   9.671  10.765  10.786 -0.5073 -1.4483 -0.6116
   96MOL0     H13214   9.918  10.752  10.619 -0.6491 -2.4291  0.6121
   96MOL0     H13215   9.881  10.876  10.751 -0.1771  0.4114 -1.7248
   96MOL0     H13216   9.936  10.582  10.764  3.5307 -0.8417  1.9632
   96MOL0     H13217   9.844  10.665  10.902 -0.0459  0.0241 -0.5788
   96MOL0     H13218  10.025  10.796  10.962  0.0240 -0.5759  0.4333
   96MOL0     H13219  10.115  10.756  10.811 -0.5517  0.4589 -0.5795
   96MOL0     H13220  10.125  10.512  10.907  0.2093 -1.2058  0.9687
   96MOL0     H13221  10.206  10.653  10.993 -0.6552  0.9619 -0.2761
   96MOL0     H13222   9.948  10.543  11.096 -1.1660 -0.9676  2.1011
   96MOL0     H13223  10.045  10.676  11.155 -0.8835 -0.9583  0.4149
   96MOL0     H13224  10.188  10.407  11.126 -0.0788 -0.5888 -0.1938
   96MOL0     H13225  10.074  10.436  11.263  0.5444  0.4059 -0.0965
   96MOL0     H13226  10.280  10.637  11.207  1.2423 -1.4394  0.5394
   96MOL0     H13227  10.336  10.484  11.270 -0.1086 -1.0163 -0.5125
   96MOL0     H13228   9.462  10.665  10.805  1.4742 -0.9663  0.3322
   96MOL0     H13229   9.240  10.597  10.742 -0.9676 -0.0254 -1.7460
   96MOL0     H13230   8.962  10.417  10.529 -1.9856  1.1692  1.4249
   96MOL0     H13231   8.710  10.403  10.502 -1.0608 -1.2923 -0.1763
   96MOL0     H13232   6.961  10.369  10.777  4.0510  1.4171 -1.6108
   96MOL0     H13233   6.719  10.306  10.711  1.0163 -0.4882  0.9095
   96MOL0     H13234   6.365  10.530  10.444  0.6093  0.4245  0.6127
   96MOL0     H13235   6.118  10.491  10.367  0.0198 -0.1967 -0.0117
   96MOL0     H13236   5.855  10.443  10.380  0.4712  0.1968 -0.4089
   96MOL0     H13237   5.984  10.334  10.322 -0.1378 -0.4482 -0.6978
   96MOL0     H13238   5.839  10.136  10.338 -1.0299 -0.4959 -2.1828
   96MOL0     H13239   5.759  10.262  10.246  1.7096  3.7934  0.5720
   96MOL0     H13240   5.697  10.140  10.528 -1.5724  0.0671  0.0509
   96MOL0     H13241   5.663  10.311  10.509 -1.6408  0.0138  0.3563
   96MOL0     H13242   5.513  10.257  10.318 -2.9045 -2.0157 -1.4868
   96MOL0     H13243   5.482  10.158  10.470  1.2514 -0.2705  0.5296
   96MOL0     H13244   5.619   9.870  10.178 -1.0607  0.3828 -0.5438
   96MOL0     H13245   6.043  10.295  10.744 -1.1927 -0.4424 -1.2810
   96MOL0     H13246   6.287  10.432  10.919 -1.2089  1.0154 -0.1733
   96MOL0     H13247   6.177  10.294  10.905  0.7528 -0.0778 -0.5714
   96MOL0     H13248   6.355  10.275  10.879  1.5642  2.1019 -0.6910
   97MOL0     O13249   0.560  10.579   6.738 -0.3876  0.2880 -0.1642
   97MOL0     C13250   0.605  10.505   6.657 -0.9638  0.2001  0.0743
   97MOL0     O13251   0.541  10.465   6.548 -0.4862  0.0913  0.3962
   97MOL0     C13252   0.420  10.519   6.518 -0.3090 -0.6995  0.0584
   97MOL0     C13253   0.424  10.646   6.465 -0.6258  0.1431  0.2983
   97MOL0     C13254   0.314  10.724   6.442 -0.6544  0.3898  0.3204
   97MOL0     C13255   0.190  10.664   6.442  0.0885  0.2301 -0.0569
   97MOL0     O13256   0.074  10.719   6.407 -0.0182  0.1101 -0.2548
   97MOL0     C13257   0.059  10.857   6.392  0.6383 -0.2226 -0.7047
   97MOL0     C13258  -0.097  10.885   6.392 -1.0343  0.3188 -0.5524
   97MOL0     C13259  -0.164  10.845   6.264 -0.1664  0.2381  0.0481
   97MOL0     C13260  -0.311  10.863   6.285  0.7193  0.4509 -0.1801
   97MOL0     C13261  -0.377  10.829   6.148  0.8796  0.7474  0.3009
   97MOL0     C13262  -0.529  10.848   6.135 -0.1358 -0.0550 -1.0875
   97MOL0     C13263  -0.579  10.861   5.989 -0.0932 -1.2512 -0.8084
   97MOL0     C13264  -0.726  10.881   5.979 -0.3754  0.4821  0.1575
   97MOL0     N13265  -0.768  10.908   5.849  0.1670  0.2291  0.0071
   97MOL0     C13266  -0.766  11.027   5.796 -0.3894 -0.1339 -0.3314
   97MOL0     C13267  -0.788  11.013   5.665 -0.2268 -1.3585 -0.0710
   97MOL0     C13268  -0.795  11.121   5.558 -0.1961 -0.3214 -0.6645
   97MOL0     C13269  -0.901  11.099   5.446  0.2728 -0.0035 -0.1594
   97MOL0     C13270  -0.873  10.989   5.334  0.0591 -0.3921  0.1220
   97MOL0     C13271  -0.729  10.967   5.303 -0.7379  0.1156  0.2309
   97MOL0     O13272  -0.681  11.095   5.258 -0.2175  0.8263 -0.1344
   97MOL0     C13273  -0.554  11.136   5.275 -0.7025  0.0299  0.0372
   97MOL0     C13274  -0.441  11.050   5.307  0.2388  0.7649 -0.0501
   97MOL0     C13275  -0.316  11.101   5.336 -0.5234  0.1391 -0.1968
   97MOL0     C13276  -0.226  10.994   5.395  0.3470 -0.0059 -0.0097
   97MOL0     C13277  -0.287  11.240   5.304  0.5254  0.3014 -1.0632
   97MOL0     C13278  -0.152  11.296   5.331 -1.2384  0.0216 -0.3795
   97MOL0     O13279  -0.095  11.270   5.444  0.2939 -0.5889 -0.3790
   97MOL0     C13280   0.038  11.292   5.475  0.6079  0.5604 -0.5416
   97MOL0     C13281   0.084  11.340   5.601 -0.0028 -0.5018 -1.4050
   97MOL0     C13282   0.219  11.352   5.635  0.5830 -0.3271 -0.0734
   97MOL0     C13283   0.315  11.309   5.537 -0.0062 -0.5228  0.3518
   97MOL0     O13284   0.449  11.286   5.556 -0.6732  0.2343 -0.4639
   97MOL0     C13285   0.515  11.293   5.685 -0.8517 -0.2438  0.0780
   97MOL0     C13286   0.649  11.228   5.671 -0.3920 -1.0525 -0.3193
   97MOL0     C13287   0.723  11.191   5.796 -0.3007 -0.6821  0.3286
   97MOL0     C13288   0.747  11.317   5.880  0.6505  0.3924 -1.1956
   97MOL0     C13289   0.787  11.272   6.022 -0.0402  0.7219  0.3418
   97MOL0     C13290   0.925  11.231   6.038 -0.3452 -0.3462 -0.1389
   97MOL0     C13291   0.951  11.218   6.187  0.3862  0.3313 -0.3125
   97MOL0     C13292   1.066  11.122   6.202  0.5239  0.1102 -0.4620
   97MOL0    Cl13293   1.077  11.072   6.372  0.0276 -0.9132  0.1135
   97MOL0     C13294   0.270  11.273   5.415  0.1898  0.4139  0.2234
   97MOL0     C13295   0.133  11.255   5.381 -0.4167 -1.0809  0.2219
   97MOL0     O13296  -0.111  11.380   5.250 -0.3816  0.3642 -0.6301
   97MOL0     C13297  -0.397  11.315   5.254  0.0239 -0.7760 -0.7143
   97MOL0     C13298  -0.525  11.263   5.249  0.6039 -0.3052 -0.2953
   97MOL0     N13299  -0.807  10.883   5.645 -0.8880  0.3562  0.1023
   97MOL0     N13300  -0.792  10.816   5.757 -0.7436 -0.3084 -0.9642
   97MOL0     C13301   0.185  10.525   6.474  0.2359 -0.1939  0.3843
   97MOL0     C13302   0.297  10.448   6.519  0.1825  0.3235 -0.2225
   97MOL0     C13303   0.752  10.459   6.684 -0.2187 -0.0249  0.4709
   97MOL0     C13304   0.792  10.481   6.824 -0.5343  0.8378  0.0622
   97MOL0     C13305   0.914  10.428   6.865  0.7572 -0.2642 -0.5376
   97MOL0     C13306   1.008  10.368   6.774  0.0996 -0.7831 -0.7464
   97MOL0     O13307   1.139  10.327   6.789 -0.2812 -0.0957 -0.5669
   97MOL0     C13308   1.202  10.343   6.918 -0.1622  0.6722  0.0421
   97MOL0     C13309   1.294  10.229   6.934  0.0750 -0.0571  1.0873
   97MOL0     C13310   1.212  10.100   6.954  0.5590  0.2281 -0.9611
   97MOL0     C13311   1.305   9.981   6.955  0.1640  0.1258 -0.5012
   97MOL0     C13312   1.240   9.864   7.015  0.2674  0.2801  0.7655
   97MOL0     C13313   1.177   9.774   7.066 -0.3022 -0.4515  0.2848
   97MOL0     C13314   0.963  10.349   6.643 -0.5179 -0.0964 -0.6218
   97MOL0     C13315   0.834  10.384   6.592  0.2254 -0.0395  0.1258
   97MOL0     C13316   0.795  10.344   6.449  0.4323 -0.6868  0.1716
   97MOL0     H13317   0.524  10.688   6.463 -0.6089  0.0887 -1.7442
   97MOL0     H13318   0.324  10.827   6.407 -0.4530  0.9881  2.0347
   97MOL0     H13319   0.110  10.904   6.308  2.1716 -1.4011 -0.4628
   97MOL0     H13320   0.096  10.905   6.484  2.9868  1.6867 -2.4998
   97MOL0     H13321  -0.147  10.833   6.475 -0.8128  0.2189 -0.4807
   97MOL0     H13322  -0.109  10.994   6.403  1.6452  0.6282  0.1018
   97MOL0     H13323  -0.132  10.890   6.170  0.9182 -1.1657 -0.3015
   97MOL0     H13324  -0.132  10.740   6.261  1.7649  0.7799  0.0956
   97MOL0     H13325  -0.355  10.817   6.374  0.0462 -0.2518 -0.8563
   97MOL0     H13326  -0.335  10.969   6.297 -1.2155 -0.1436  1.8424
   97MOL0     H13327  -0.364  10.723   6.125  1.9322  1.6563 -4.3479
   97MOL0     H13328  -0.328  10.885   6.068  1.7260  1.9888  1.6344
   97MOL0     H13329  -0.579  10.763   6.182 -1.2403  1.9735  1.7120
   97MOL0     H13330  -0.561  10.940   6.185  0.1364 -1.3949  1.7328
   97MOL0     H13331  -0.544  10.783   5.921 -0.3910  0.4465 -2.9966
   97MOL0     H13332  -0.524  10.947   5.950  1.4771 -1.6918  0.3308
   97MOL0     H13333  -0.773  10.791   6.019 -1.4056  0.8552 -0.1992
   97MOL0     H13334  -0.741  10.962   6.051 -0.4211 -0.7922  1.6415
   97MOL0     H13335  -0.750  11.115   5.857  0.9186 -0.9684  0.5846
   97MOL0     H13336  -0.699  11.107   5.507 -1.6279 -2.6222 -2.9810
   97MOL0     H13337  -0.809  11.217   5.608 -0.1975  1.3025 -3.5864
   97MOL0     H13338  -0.994  11.072   5.496  1.1497 -1.0088  0.9761
   97MOL0     H13339  -0.913  11.197   5.399 -1.5994 -0.2191 -0.2107
   97MOL0     H13340  -0.931  10.899   5.356 -0.8558  0.2228  0.2993
   97MOL0     H13341  -0.923  11.042   5.253 -2.2190 -2.3073  0.1781
   97MOL0     H13342  -0.671  10.928   5.387 -2.3938  1.1560  1.9299
   97MOL0     H13343  -0.709  10.899   5.220  1.1129 -1.3679  1.8139
   97MOL0     H13344  -0.459  10.944   5.322 -2.3167  1.1938  0.2917
   97MOL0     H13345  -0.195  10.927   5.314 -1.1873  0.0649 -0.6914
   97MOL0     H13346  -0.283  10.928   5.462 -1.5712 -0.4814 -1.9858
   97MOL0     H13347  -0.135  11.030   5.444  0.1211  1.1778 -0.4441
   97MOL0     H13348   0.023  11.383   5.679  1.9266 -1.8093  0.9739
   97MOL0     H13349   0.245  11.380   5.737 -0.7898 -0.0625  0.2162
   97MOL0     H13350   0.521  11.396   5.720 -0.9423 -0.4384  0.6774
   97MOL0     H13351   0.450  11.243   5.758 -2.9038  2.1196  0.0379
   97MOL0     H13352   0.641  11.135   5.614  1.9029 -1.8211  0.4738
   97MOL0     H13353   0.716  11.293   5.614  0.4784 -0.9326  0.8041
   97MOL0     H13354   0.822  11.157   5.762 -0.4782  1.0170 -2.1520
   97MOL0     H13355   0.672  11.115   5.856 -4.0755  0.4653 -1.1557
   97MOL0     H13356   0.649  11.364   5.894 -0.3039 -2.1830  1.8222
   97MOL0     H13357   0.822  11.383   5.835  0.6863  1.6546  0.6208
   97MOL0     H13358   0.787  11.364   6.080  1.8745  1.4988 -0.8128
   97MOL0     H13359   0.714  11.203   6.066  0.4095 -0.2237 -0.3448
   97MOL0     H13360   0.995  11.295   5.983 -2.1518  0.2193 -1.8959
   97MOL0     H13361   0.946  11.135   5.990  1.7645 -1.2838  2.4427
   97MOL0     H13362   0.862  11.175   6.235  1.7323 -3.0179 -0.5728
   97MOL0     H13363   0.979  11.312   6.235  2.1082 -0.0116 -0.5991
   97MOL0     H13364   1.155  11.163   6.154  0.0975 -0.1829 -1.5421
   97MOL0     H13365   1.038  11.027   6.154 -1.2673  0.5250 -0.2888
   97MOL0     H13366   0.342  11.243   5.340 -2.0173  1.3223 -2.4165
   97MOL0     H13367   0.105  11.220   5.282 -1.1181 -3.1217  1.0746
   97MOL0     H13368  -0.385  11.421   5.233 -1.2527 -0.5151 -0.2364
   97MOL0     H13369  -0.608  11.328   5.223  0.8951 -0.8221 -2.7001
   97MOL0     H13370   0.091  10.470   6.479  0.8557 -1.3621 -0.5290
   97MOL0     H13371   0.292  10.344   6.548 -1.5569 -0.0782 -1.8212
   97MOL0     H13372   0.737  10.526   6.907  1.6487 -1.7246  3.1281
   97MOL0     H13373   0.935  10.465   6.965  1.8262  3.3195 -1.9147
   97MOL0     H13374   1.262  10.435   6.915 -0.3918  0.8083 -0.4281
   97MOL0     H13375   1.139  10.354   7.006  1.9588  1.0950  1.6027
   97MOL0     H13376   1.351  10.250   7.025  0.3217  0.2204  0.8684
   97MOL0     H13377   1.363  10.210   6.851 -0.0225 -3.1932  1.5849
   97MOL0     H13378   1.147  10.093   7.042 -0.3086  0.1799 -1.5889
   97MOL0     H13379   1.133  10.089   6.879 -1.5596 -0.7750  1.2723
   97MOL0     H13380   1.398  10.005   7.009 -0.0695 -0.6762  0.2843
   97MOL0     H13381   1.341   9.954   6.855  4.2657  0.2127  0.7585
   97MOL0     H13382   1.117   9.693   7.104 -0.4753 -1.1049 -1.3185
   97MOL0     H13383   1.032  10.316   6.566  1.0231  2.2790 -0.3498
   97MOL0     H13384   0.693  10.307   6.458 -0.4878  1.8680  1.2336
   97MOL0     H13385   0.797  10.431   6.382 -3.8892 -0.8644 -0.4602
   97MOL0     H13386   0.860  10.264   6.411 -1.1509 -1.2014 -1.5946
   98MOL0     O13387   1.897   9.700   7.903  0.2297  0.2414  0.5925
   98MOL0     C13388   1.836   9.799   7.872  0.2417 -0.5299 -0.1430
   98MOL0     O13389   1.871   9.899   7.786 -0.6625 -0.3404  0.3747
   98MOL0     C13390   2.000   9.904   7.728  0.1332 -0.1053  0.6754
   98MOL0     C13391   2.003   9.954   7.599 -0.2989  0.3450  0.0065
   98MOL0     C13392   2.127   9.965   7.531  0.1426 -0.2263  0.7245
   98MOL0     C13393   2.242   9.910   7.577  0.1060  0.6097 -0.0629
   98MOL0     O13394   2.362   9.920   7.497  0.0650 -0.0041 -0.6627
   98MOL0     C13395   2.491   9.912   7.570  0.0731 -0.4257  0.4923
   98MOL0     C13396   2.614   9.918   7.488 -0.5518  0.4121  0.9372
   98MOL0     C13397   2.609  10.048   7.402 -0.9147  0.9045  0.7236
   98MOL0     C13398   2.727  10.065   7.311  0.5725  0.3172 -0.7238
   98MOL0     C13399   2.693  10.038   7.163 -0.2037 -0.0442 -0.2303
   98MOL0     C13400   2.820  10.044   7.075 -0.1460 -0.0252  0.0621
   98MOL0     C13401   2.865  10.181   7.031  0.0316  0.2764 -0.4429
   98MOL0     C13402   2.976  10.169   6.927 -0.4199  0.2688 -0.2242
   98MOL0     N13403   3.112  10.150   6.988  0.5107 -0.1693  1.1352
   98MOL0     C13404   3.170  10.032   7.007  0.2504  0.2573 -1.2382
   98MOL0     C13405   3.303  10.047   7.032  0.4365 -0.4424  0.0081
   98MOL0     C13406   3.399   9.934   7.069  0.0633 -0.8416 -0.4555
   98MOL0     C13407   3.476   9.870   6.948  0.4480  0.2318  0.2648
   98MOL0     C13408   3.382   9.784   6.858  0.1708  0.0513  0.3037
   98MOL0     C13409   3.447   9.741   6.729 -0.6120  0.3910  0.9722
   98MOL0     O13410   3.565   9.668   6.764  0.3554  0.2838 -0.2022
   98MOL0     C13411   3.650   9.624   6.666  0.2696  0.3637 -0.5833
   98MOL0     C13412   3.633   9.627   6.524 -0.2747 -0.5996  0.0856
   98MOL0     C13413   3.737   9.586   6.439  0.0505 -0.2671 -0.0620
   98MOL0     C13414   3.707   9.578   6.290  0.7398 -1.1449  0.5090
   98MOL0     C13415   3.864   9.543   6.484 -0.4858 -0.1596  0.3836
   98MOL0     C13416   3.985   9.512   6.401 -0.2649 -0.2983 -0.4057
   98MOL0     O13417   3.987   9.545   6.271  0.3520 -0.5462 -0.3168
   98MOL0     C13418   4.096   9.622   6.239  0.8158  0.5030 -0.4151
   98MOL0     C13419   4.118   9.744   6.292 -0.0106 -0.1625  0.4156
   98MOL0     C13420   4.234   9.815   6.265 -0.0062 -0.8079 -0.6989
   98MOL0     C13421   4.331   9.771   6.175 -0.2760  0.9298 -0.0684
   98MOL0     O13422   4.452   9.827   6.140  0.0208  0.0305  0.0958
   98MOL0     C13423   4.479   9.961   6.182  0.3859  0.8225  0.6969
   98MOL0     C13424   4.585   9.958   6.295  0.2302  0.4634  0.1409
   98MOL0     C13425   4.722   9.899   6.256  0.1886  0.4007  1.0376
   98MOL0     C13426   4.808   9.979   6.159 -0.2170 -0.1540  0.7603
   98MOL0     C13427   4.960   9.970   6.197 -0.6376  0.1616  0.2680
   98MOL0     C13428   5.046  10.050   6.090 -0.9721 -0.0246 -0.2406
   98MOL0     C13429   5.204  10.045   6.126  0.3447  0.0604 -0.3231
   98MOL0     C13430   5.294  10.125   6.026 -0.2673  0.8460 -0.2218
   98MOL0    Cl13431   5.453  10.045   5.984  0.0106 -0.2471 -0.2348
   98MOL0     C13432   4.307   9.646   6.122  0.1272 -0.8415 -0.5535
   98MOL0     C13433   4.192   9.572   6.150 -0.2801 -0.4118  0.4160
   98MOL0     O13434   4.076   9.458   6.467 -0.3331 -0.4383 -0.2675
   98MOL0     C13435   3.879   9.546   6.625 -0.2681 -1.1435 -0.1091
   98MOL0     C13436   3.774   9.587   6.712 -0.2306  0.7818  0.4598
   98MOL0     N13437   3.324  10.181   7.030 -0.2593 -0.5366 -0.4308
   98MOL0     N13438   3.208  10.244   6.988 -0.6011 -0.7950 -0.0166
   98MOL0     C13439   2.242   9.875   7.710  0.3021 -0.3880  0.0597
   98MOL0     C13440   2.125   9.873   7.789  0.1915  0.6740  0.3874
   98MOL0     C13441   1.706   9.815   7.938 -0.8532  0.3292 -0.2413
   98MOL0     C13442   1.652   9.945   7.929 -0.0185 -0.8189  0.0418
   98MOL0     C13443   1.529   9.974   7.999 -0.6551  0.7606  0.4627
   98MOL0     C13444   1.467   9.883   8.080 -0.2115 -0.8942  0.2058
   98MOL0     O13445   1.358   9.932   8.149 -1.0103 -1.0551  0.5081
   98MOL0     C13446   1.281   9.846   8.229  0.5720 -0.3885 -0.3078
   98MOL0     C13447   1.148   9.918   8.263  0.2557  0.3610  0.0173
   98MOL0     C13448   1.059   9.831   8.348 -0.6533  0.5495 -0.2363
   98MOL0     C13449   0.939   9.914   8.395  0.7845 -0.0587 -1.0700
   98MOL0     C13450   0.844   9.949   8.291  0.4802 -0.5099  0.7107
   98MOL0     C13451   0.751   9.966   8.216 -0.3337 -0.5657 -0.3288
   98MOL0     C13452   1.522   9.758   8.098  0.8030 -0.0967  0.6827
   98MOL0     C13453   1.635   9.721   8.021  0.5758 -0.2770 -0.3982
   98MOL0     C13454   1.678   9.574   8.035 -0.7714  0.2678  0.1814
   98MOL0     H13455   1.904   9.977   7.560 -1.0782 -2.4591  0.1544
   98MOL0     H13456   2.126   9.997   7.427  1.9866  0.1514  0.7961
   98MOL0     H13457   2.493   9.811   7.613 -2.1976 -0.5630  0.4008
   98MOL0     H13458   2.495   9.993   7.643 -0.0603  0.9955 -1.0262
   98MOL0     H13459   2.699   9.903   7.554 -0.0674 -0.0865  0.2024
   98MOL0     H13460   2.621   9.836   7.417  0.1083 -0.3970  1.9086
   98MOL0     H13461   2.514  10.069   7.353  0.0544 -0.0055 -1.6872
   98MOL0     H13462   2.622  10.129   7.475  1.9512  1.0460  0.1659
   98MOL0     H13463   2.756  10.170   7.325 -1.8455  0.6279  3.3397
   98MOL0     H13464   2.807   9.996   7.340  1.4887  1.2894 -0.8895
   98MOL0     H13465   2.617  10.112   7.135  1.9576  2.6541  0.5756
   98MOL0     H13466   2.649   9.938   7.155 -1.2994  0.3621  0.5167
   98MOL0     H13467   2.890   9.991   7.139  0.4793 -0.5449 -1.0420
   98MOL0     H13468   2.826   9.980   6.986  1.9969  0.7023 -0.3649
   98MOL0     H13469   2.895  10.239   7.118 -1.2507  0.1561  0.0995
   98MOL0     H13470   2.778  10.223   6.980  0.7304  1.1326 -0.9656
   98MOL0     H13471   2.956  10.087   6.857 -3.2170  0.4816  0.2315
   98MOL0     H13472   2.969  10.260   6.866 -0.0258  1.0998  0.9343
   98MOL0     H13473   3.114   9.939   7.000 -1.1188  0.9399  0.1212
   98MOL0     H13474   3.337   9.866   7.129 -2.9154  2.8476  1.1288
   98MOL0     H13475   3.477   9.977   7.132 -2.3660  0.9122  1.5542
   98MOL0     H13476   3.517   9.947   6.882  2.2252 -0.8507  0.0275
   98MOL0     H13477   3.558   9.801   6.975  1.2480  1.5499  1.3209
   98MOL0     H13478   3.353   9.693   6.911  1.1480 -1.2458 -1.2931
   98MOL0     H13479   3.290   9.836   6.829  1.9708  1.2899 -4.0190
   98MOL0     H13480   3.382   9.678   6.668  0.4586  0.4136 -0.2297
   98MOL0     H13481   3.463   9.823   6.657 -0.5035 -0.6353 -0.2080
   98MOL0     H13482   3.536   9.655   6.486  1.0091  0.2342 -2.8465
   98MOL0     H13483   3.602   9.592   6.261  1.0637 -0.5294 -0.4350
   98MOL0     H13484   3.744   9.484   6.248 -0.4166 -0.2988 -2.7734
   98MOL0     H13485   3.762   9.655   6.234 -1.6644  1.4458  1.4304
   98MOL0     H13486   4.036   9.798   6.338 -0.1004  0.2575 -0.2167
   98MOL0     H13487   4.241   9.911   6.317  0.9726 -1.9479  1.4020
   98MOL0     H13488   4.525  10.008   6.095  2.4861 -2.0387  0.1227
   98MOL0     H13489   4.393  10.023   6.208 -1.0968 -2.1761  3.8139
   98MOL0     H13490   4.612  10.058   6.328  2.4834 -0.0259 -0.1065
   98MOL0     H13491   4.556   9.897   6.381  0.1061 -0.5321 -0.5857
   98MOL0     H13492   4.706   9.797   6.219 -2.5764  0.9932  0.3452
   98MOL0     H13493   4.785   9.892   6.344  2.0236 -0.8544 -0.3033
   98MOL0     H13494   4.778  10.084   6.153  3.3152  0.9801  0.9524
   98MOL0     H13495   4.799   9.937   6.058  3.1589  0.5863  0.0283
   98MOL0     H13496   4.975   9.996   6.302  3.2455 -2.1555  0.4976
   98MOL0     H13497   4.985   9.864   6.180  0.3701  0.1401  1.7024
   98MOL0     H13498   5.006  10.152   6.087 -1.9144 -0.3872 -0.4754
   98MOL0     H13499   5.029  10.001   5.993 -2.0565 -2.0788  0.9094
   98MOL0     H13500   5.225   9.938   6.124 -0.7394 -0.1548 -2.3935
   98MOL0     H13501   5.224  10.075   6.229  2.7901  0.0348 -0.7168
   98MOL0     H13502   5.328  10.214   6.080  2.7698 -1.7194  2.4724
   98MOL0     H13503   5.239  10.136   5.932  0.0534 -0.1123 -0.5276
   98MOL0     H13504   4.381   9.615   6.048  0.8732  2.0233 -1.1153
   98MOL0     H13505   4.174   9.473   6.112  1.2681 -0.5665  0.0577
   98MOL0     H13506   3.968   9.518   6.681 -0.9939  0.6111  2.0808
   98MOL0     H13507   3.802   9.578   6.817  0.2465  0.5871  0.3184
   98MOL0     H13508   2.335   9.849   7.759 -0.3170  1.0479  2.1354
   98MOL0     H13509   2.133   9.844   7.894  0.0489  0.5220  0.3579
   98MOL0     H13510   1.700  10.030   7.881 -2.6846  1.6607  1.4947
   98MOL0     H13511   1.490  10.073   7.981  1.3666  1.9957  2.3000
   98MOL0     H13512   1.262   9.755   8.171  1.9205 -0.8184 -0.1196
   98MOL0     H13513   1.343   9.826   8.317  0.7799 -1.3922 -0.6657
   98MOL0     H13514   1.099   9.947   8.170  2.2768 -0.1409 -1.2774
   98MOL0     H13515   1.172  10.013   8.313  0.7846 -0.5109  1.4986
   98MOL0     H13516   1.024   9.748   8.285 -0.7763 -0.5877  1.2539
   98MOL0     H13517   1.114   9.805   8.439 -0.8202  2.5104  0.4678
   98MOL0     H13518   0.980  10.003   8.443  2.3086 -1.2532 -0.0258
   98MOL0     H13519   0.897   9.863   8.483  0.7325  0.9956 -0.4705
   98MOL0     H13520   0.660   9.989   8.166 -1.1505 -0.7553  1.0178
   98MOL0     H13521   1.482   9.688   8.171 -0.6990 -1.8537 -1.6608
   98MOL0     H13522   1.780   9.567   8.075 -0.0913 -0.8744 -1.6570
   98MOL0     H13523   1.616   9.526   8.111 -0.0936  1.0270  1.2478
   98MOL0     H13524   1.672   9.517   7.942  1.9395 -3.2361  1.9206
   99MOL0     O13525   7.313   2.174   7.185 -0.9657  0.2495 -0.0493
   99MOL0     C13526   7.259   2.079   7.128 -0.0130 -1.4975 -0.0080
   99MOL0     O13527   7.320   1.972   7.067 -1.0004 -0.2963 -0.5266
   99MOL0     C13528   7.454   1.973   7.080  0.6301 -0.4525 -0.5677
   99MOL0     C13529   7.528   2.050   6.989  0.0154  0.6668  0.2884
   99MOL0     C13530   7.663   2.068   7.019  0.4410  0.7493  0.4989
   99MOL0     C13531   7.728   1.998   7.119  0.3126  0.6622 -0.3540
   99MOL0     O13532   7.859   2.031   7.139 -0.0221 -0.6193  0.5711
   99MOL0     C13533   7.931   1.967   7.245 -0.4974  0.7572 -0.0937
   99MOL0     C13534   8.071   2.035   7.242 -0.3079  1.2730  1.1078
   99MOL0     C13535   8.157   1.995   7.108 -0.1030 -0.7020  0.1585
   99MOL0     C13536   8.295   2.071   7.125  0.6441  0.6232 -0.0196
   99MOL0     C13537   8.396   2.018   7.022 -0.1933 -0.7806 -0.7378
   99MOL0     C13538   8.520   2.106   7.030 -0.3081 -0.3401  1.0611
   99MOL0     C13539   8.621   2.082   6.910  0.6601 -0.1486 -0.9791
   99MOL0     C13540   8.664   1.930   6.875 -0.2143 -0.3658 -0.4352
   99MOL0     N13541   8.770   1.923   6.781 -0.4869  0.2672  0.5631
   99MOL0     C13542   8.851   2.031   6.746 -0.4907  0.2283 -0.5256
   99MOL0     C13543   8.939   1.983   6.651  0.4512 -0.3243 -0.1812
   99MOL0     C13544   9.057   2.059   6.594 -0.3120 -0.3692  0.0332
   99MOL0     C13545   9.157   2.129   6.696 -0.4887  0.3448  0.5591
   99MOL0     C13546   9.265   2.205   6.608  0.0342 -0.0119  0.3624
   99MOL0     C13547   9.380   2.244   6.697 -0.4164 -0.6863 -0.0103
   99MOL0     O13548   9.494   2.272   6.609 -0.1236  0.4260 -0.1786
   99MOL0     C13549   9.617   2.301   6.667  0.4827  0.8553  0.6484
   99MOL0     C13550   9.727   2.310   6.577  1.0776  0.0452  0.1747
   99MOL0     C13551   9.849   2.340   6.617  0.1392 -0.0713  0.1126
   99MOL0     C13552   9.949   2.358   6.501  0.2809 -0.0705  0.1006
   99MOL0     C13553   9.889   2.339   6.756 -0.2494  0.1575 -0.1150
   99MOL0     C13554  10.030   2.346   6.808  0.6380 -0.3083  0.2628
   99MOL0     O13555  10.117   2.425   6.737  0.1417 -0.5935  0.2660
   99MOL0     C13556  10.247   2.432   6.771 -0.2922 -0.3516  0.2381
   99MOL0     C13557  10.333   2.323   6.751 -0.1978  0.4273 -0.1613
   99MOL0     C13558  10.467   2.344   6.790 -0.6066  0.3900  0.9255
   99MOL0     C13559  10.509   2.458   6.856  0.2552 -0.0734 -0.9644
   99MOL0     O13560  10.643   2.476   6.886  0.3498  0.1391 -0.5849
   99MOL0     C13561  10.668   2.468   7.028  0.0615 -0.0782  0.1916
   99MOL0     C13562  10.811   2.424   7.046 -0.4434 -0.9211  0.1853
   99MOL0     C13563  10.844   2.427   7.194  0.1403  0.0789 -0.5569
   99MOL0     C13564  10.985   2.374   7.216 -0.2973 -0.9768 -0.4908
   99MOL0     C13565  11.043   2.395   7.355 -0.4248 -0.2951 -0.3858
   99MOL0     C13566  11.081   2.545   7.394 -0.3288  0.2017  0.1106
   99MOL0     C13567  11.207   2.592   7.329  0.5658  0.1018  0.4665
   99MOL0     C13568  11.253   2.728   7.387  0.1711 -0.2878 -0.2883
   99MOL0    Cl13569  11.413   2.774   7.333  0.3063  0.4403 -0.3922
   99MOL0     C13570  10.420   2.561   6.889 -0.0953  0.2492 -0.7912
   99MOL0     C13571  10.284   2.548   6.846 -0.7528 -0.1587  0.5517
   99MOL0     O13572  10.053   2.270   6.902 -0.9406 -0.3963 -0.1865
   99MOL0     C13573   9.781   2.323   6.845 -0.2037  0.8631 -0.4094
   99MOL0     C13574   9.649   2.310   6.804 -1.1582 -0.5984 -0.3304
   99MOL0     N13575   8.915   1.853   6.626 -0.1379  0.4635 -0.3304
   99MOL0     N13576   8.820   1.815   6.704 -0.7063 -0.9093  0.1527
   99MOL0     C13577   7.654   1.916   7.208 -0.4594  0.2178  0.6810
   99MOL0     C13578   7.521   1.904   7.182  0.4097 -1.2774  0.0682
   99MOL0     C13579   7.108   2.078   7.133 -0.5232  0.6095  0.3171
   99MOL0     C13580   7.038   1.964   7.066  0.0353  0.4820  0.3008
   99MOL0     C13581   6.908   1.947   7.081 -0.0993  0.3715 -0.8590
   99MOL0     C13582   6.830   2.045   7.144  0.1861  0.0908 -0.4054
   99MOL0     O13583   6.693   2.034   7.133  1.2203 -0.1137  0.0392
   99MOL0     C13584   6.630   1.924   7.198  0.0192 -0.1586  0.0550
   99MOL0     C13585   6.513   1.962   7.281  0.2396 -0.1008 -0.4691
   99MOL0     C13586   6.551   2.072   7.383  0.0271 -0.3722 -0.0910
   99MOL0     C13587   6.480   2.063   7.513  0.1729 -0.1883  0.4519
   99MOL0     C13588   6.523   1.941   7.589  0.0511  0.1168 -0.9656
   99MOL0     C13589   6.565   1.858   7.670 -0.5412  0.0840  0.0691
   99MOL0     C13590   6.889   2.155   7.205 -1.0386  0.8028  0.1610
   99MOL0     C13591   7.028   2.168   7.207  0.7716  0.0226  0.4066
   99MOL0     C13592   7.075   2.283   7.289  0.2968 -1.1389 -0.6651
   99MOL0     H13593   7.482   2.104   6.906  0.3334 -0.6586 -0.7943
   99MOL0     H13594   7.717   2.134   6.953  0.2717 -0.7842 -1.2488
   99MOL0     H13595   7.934   1.860   7.225  0.6318  0.7103  0.2891
   99MOL0     H13596   7.878   1.983   7.340  0.2312  1.4879  0.1992
   99MOL0     H13597   8.065   2.143   7.259 -0.0807  1.9151 -2.1145
   99MOL0     H13598   8.138   1.997   7.320  1.2246  0.4207 -0.5342
   99MOL0     H13599   8.162   1.887   7.092  3.5638 -0.1810 -4.0884
   99MOL0     H13600   8.111   2.026   7.014  0.9478  1.8574  0.4117
   99MOL0     H13601   8.276   2.178   7.111  0.2031  0.7458  1.3516
   99MOL0     H13602   8.326   2.064   7.229  2.2972  0.4723 -0.4923
   99MOL0     H13603   8.356   2.029   6.921 -0.3753  3.4677 -0.3729
   99MOL0     H13604   8.399   1.910   7.039 -0.8977 -1.6487 -5.0258
   99MOL0     H13605   8.477   2.206   7.014 -2.2664 -1.1943  0.7872
   99MOL0     H13606   8.565   2.101   7.130 -1.0584  0.3353  1.4471
   99MOL0     H13607   8.703   2.144   6.948  1.6337 -0.6103 -2.2855
   99MOL0     H13608   8.590   2.137   6.821  0.8802 -0.9223 -1.5469
   99MOL0     H13609   8.702   1.884   6.966  0.1193  2.9417  1.2416
   99MOL0     H13610   8.585   1.863   6.840 -1.3853  1.3460 -1.2146
   99MOL0     H13611   8.857   2.134   6.781 -1.1110  0.1094 -0.0457
   99MOL0     H13612   9.003   2.139   6.542  3.0220  1.5392 -0.7482
   99MOL0     H13613   9.119   2.006   6.522 -1.1085  1.9142 -2.4935
   99MOL0     H13614   9.098   2.199   6.757 -1.1286  2.2523 -2.0630
   99MOL0     H13615   9.205   2.061   6.767  1.7934 -0.5310 -1.6859
   99MOL0     H13616   9.300   2.139   6.528  4.3990  1.5163  0.7526
   99MOL0     H13617   9.218   2.292   6.563 -0.8326  0.5246  2.1873
   99MOL0     H13618   9.361   2.332   6.759  1.6167 -1.1601  1.3839
   99MOL0     H13619   9.408   2.167   6.768  3.0893  0.5202  0.0883
   99MOL0     H13620   9.694   2.313   6.474 -0.7697  0.2430  0.7289
   99MOL0     H13621   9.997   2.456   6.506  0.7832 -0.2454 -1.0026
   99MOL0     H13622   9.891   2.346   6.410 -1.0918 -1.5138  1.0962
   99MOL0     H13623  10.024   2.278   6.509  1.0397  0.7619  1.8288
   99MOL0     H13624  10.312   2.245   6.679 -1.6065  1.3463 -0.8101
   99MOL0     H13625  10.539   2.271   6.755 -0.6951  0.6512  0.1823
   99MOL0     H13626  10.655   2.568   7.071 -1.9721 -0.9927  1.8662
   99MOL0     H13627  10.604   2.399   7.084 -1.4890  0.1796 -1.2214
   99MOL0     H13628  10.845   2.332   6.996  0.4481  0.1054 -1.1696
   99MOL0     H13629  10.882   2.497   7.006  1.0846 -3.1201 -1.3928
   99MOL0     H13630  10.773   2.356   7.238  2.1002 -1.7530 -0.2032
   99MOL0     H13631  10.842   2.529   7.234 -0.2079 -0.5419  1.1008
   99MOL0     H13632  11.063   2.406   7.145  0.1508 -0.3004  0.2834
   99MOL0     H13633  10.978   2.268   7.193 -2.5693 -0.2819 -3.6919
   99MOL0     H13634  10.958   2.359   7.413 -0.6749 -0.0471 -0.5940
   99MOL0     H13635  11.122   2.325   7.386 -0.4675  0.2501  1.0192
   99MOL0     H13636  11.100   2.543   7.502  1.1894 -2.4440 -0.1146
   99MOL0     H13637  10.997   2.612   7.374 -2.3772 -1.9564  0.9282
   99MOL0     H13638  11.186   2.591   7.222 -1.2941  3.5496  0.6507
   99MOL0     H13639  11.285   2.518   7.350  0.3083  0.0723  1.3809
   99MOL0     H13640  11.264   2.727   7.495  1.4423 -0.6464 -0.4071
   99MOL0     H13641  11.184   2.804   7.350 -0.1652  0.1675  1.2212
   99MOL0     H13642  10.454   2.647   6.945  3.5363 -1.3886 -0.1049
   99MOL0     H13643  10.214   2.631   6.847  1.5635  1.9272  2.3761
   99MOL0     H13644   9.792   2.333   6.953  0.2105  2.4310 -0.5732
   99MOL0     H13645   9.563   2.312   6.871 -2.1627 -0.2117 -1.5852
   99MOL0     H13646   7.704   1.862   7.287  1.0265  0.9510  0.2707
   99MOL0     H13647   7.451   1.846   7.241 -0.0309 -1.6340 -0.8049
   99MOL0     H13648   7.086   1.885   7.008  1.8895  1.7690 -0.0051
   99MOL0     H13649   6.861   1.861   7.035 -1.3578  0.4654  0.1960
   99MOL0     H13650   6.612   1.848   7.122  0.6969 -2.0755  1.7069
   99MOL0     H13651   6.703   1.887   7.272  0.3219  0.7402  0.2193
   99MOL0     H13652   6.476   1.876   7.336  0.8501  0.0391  0.1777
   99MOL0     H13653   6.436   2.007   7.217  0.1306  2.4093  1.2778
   99MOL0     H13654   6.660   2.069   7.398  0.0366 -0.2380 -0.1328
   99MOL0     H13655   6.531   2.171   7.343  0.6132 -0.6489 -1.1241
   99MOL0     H13656   6.374   2.067   7.485  0.3254  1.8272  0.0414
   99MOL0     H13657   6.500   2.155   7.567  0.8314  0.2742 -0.5619
   99MOL0     H13658   6.606   1.783   7.736 -1.7426  1.5862  2.6805
   99MOL0     H13659   6.823   2.221   7.260 -2.9709 -0.1932 -0.8442
   99MOL0     H13660   6.993   2.313   7.354 -0.8708 -1.9650 -1.7287
   99MOL0     H13661   7.161   2.248   7.348 -0.0288  1.0569  1.2752
   99MOL0     H13662   7.112   2.369   7.232 -2.7855  1.5397  1.0339
  100MOL0     O13663   0.666   3.479   7.180 -0.3010  0.1300  0.1248
  100MOL0     C13664   0.611   3.424   7.089  1.0716  0.0740 -0.4964
  100MOL0     O13665   0.677   3.331   7.011 -0.2066 -0.0047 -0.3949
  100MOL0     C13666   0.780   3.256   7.067  0.3214  0.7664  0.3945
  100MOL0     C13667   0.777   3.203   7.200  0.5414 -0.1030  0.7067
  100MOL0     C13668   0.888   3.133   7.248 -0.1181  0.7063  0.2680
  100MOL0     C13669   1.007   3.128   7.174  0.1131 -0.0521 -0.3294
  100MOL0     O13670   1.131   3.089   7.223  0.2823  0.2750 -0.4063
  100MOL0     C13671   1.125   3.027   7.354 -0.0496  0.1601 -0.3633
  100MOL0     C13672   1.266   2.972   7.397  0.0707 -0.1186 -0.7422
  100MOL0     C13673   1.256   2.871   7.509 -0.7595  0.6031  0.0543
  100MOL0     C13674   1.396   2.826   7.548  0.4739 -0.4131  0.2272
  100MOL0     C13675   1.394   2.704   7.638  0.4349  0.0175 -0.2265
  100MOL0     C13676   1.504   2.686   7.741  0.9557 -1.1881 -0.1353
  100MOL0     C13677   1.645   2.697   7.688  0.2178 -0.1879 -0.6409
  100MOL0     C13678   1.743   2.634   7.782 -0.3003 -0.1545  0.8867
  100MOL0     N13679   1.877   2.637   7.727 -0.2479 -0.4134 -0.6051
  100MOL0     C13680   1.984   2.713   7.764  0.4503 -0.1515  0.5267
  100MOL0     C13681   2.085   2.671   7.686 -0.4313  0.0912  0.3297
  100MOL0     C13682   2.227   2.708   7.707  0.0487 -0.0065  0.1050
  100MOL0     C13683   2.285   2.772   7.577 -0.0426  0.1177  0.5249
  100MOL0     C13684   2.416   2.850   7.605 -0.0704  0.5082  0.4592
  100MOL0     C13685   2.498   2.901   7.480 -0.6334 -0.0758  0.5355
  100MOL0     O13686   2.603   2.983   7.529 -0.4081 -0.6161 -0.2704
  100MOL0     C13687   2.710   2.982   7.438 -0.3247  0.6251 -0.8837
  100MOL0     C13688   2.838   2.947   7.490 -0.6112  0.3184  0.3803
  100MOL0     C13689   2.953   2.957   7.412  0.1465 -0.1978  0.3420
  100MOL0     C13690   3.087   2.936   7.482 -0.2958 -0.0640  0.4268
  100MOL0     C13691   2.938   2.989   7.273 -0.1301  0.0488  1.6100
  100MOL0     C13692   3.062   2.995   7.179  0.3183  0.3231 -0.1980
  100MOL0     O13693   3.064   3.098   7.093  0.0843 -0.7129 -0.4018
  100MOL0     C13694   3.138   3.101   6.978 -0.7401  0.1368  0.6822
  100MOL0     C13695   3.074   3.127   6.864  0.2588 -0.1042 -0.2005
  100MOL0     C13696   3.140   3.135   6.738  0.0650 -0.3144 -0.4072
  100MOL0     C13697   3.280   3.118   6.733  0.1609  1.0271 -0.8810
  100MOL0     O13698   3.344   3.103   6.612  0.4560 -0.2567 -0.2244
  100MOL0     C13699   3.483   3.113   6.612 -0.3557 -0.2315 -0.1544
  100MOL0     C13700   3.550   3.084   6.479 -0.7064  0.5052  0.3755
  100MOL0     C13701   3.701   3.056   6.514  0.3891 -0.4537 -0.5510
  100MOL0     C13702   3.785   3.074   6.387 -0.1187  0.5230 -0.1244
  100MOL0     C13703   3.937   3.074   6.401 -0.2474 -0.0363  0.6044
  100MOL0     C13704   3.987   3.193   6.482 -0.5652  0.2237  0.3155
  100MOL0     C13705   4.145   3.215   6.448  0.4664 -0.0691 -0.3196
  100MOL0     C13706   4.181   3.358   6.490 -0.1755  0.4878 -0.5225
  100MOL0    Cl13707   4.175   3.371   6.674 -0.5049  0.4292  0.1731
  100MOL0     C13708   3.347   3.099   6.863  0.1401  0.2995  0.2944
  100MOL0     C13709   3.276   3.086   6.982  0.4442  0.4830 -0.0448
  100MOL0     O13710   3.156   2.913   7.196  0.1318  1.0475 -0.5629
  100MOL0     C13711   2.815   3.029   7.225 -0.3695  0.7292 -0.0930
  100MOL0     C13712   2.703   3.015   7.310 -0.0993 -0.2181  0.0312
  100MOL0     N13713   2.043   2.566   7.608 -0.2101  0.7082 -0.4552
  100MOL0     N13714   1.917   2.554   7.619  0.2580  0.4747  0.7695
  100MOL0     C13715   1.011   3.156   7.039  0.1097 -0.5792 -0.3214
  100MOL0     C13716   0.895   3.221   6.986 -0.2329  0.0616  0.0321
  100MOL0     C13717   0.473   3.463   7.046 -0.0507  0.2440  0.2517
  100MOL0     C13718   0.439   3.450   6.917 -0.1022  0.8293  0.2137
  100MOL0     C13719   0.309   3.463   6.869 -0.3308  0.9236  0.0106
  100MOL0     C13720   0.209   3.496   6.955  0.0292 -0.1338 -0.1648
  100MOL0     O13721   0.085   3.506   6.898  0.1915  0.3657 -0.0028
  100MOL0     C13722  -0.028   3.530   6.978  0.1431  0.0610 -0.2055
  100MOL0     C13723  -0.137   3.553   6.875 -0.0810 -0.5632  0.1438
  100MOL0     C13724  -0.267   3.600   6.948 -0.1235  0.1823 -0.5221
  100MOL0     C13725  -0.321   3.497   7.054  0.3743  0.4122 -0.1803
  100MOL0     C13726  -0.461   3.527   7.098 -0.2801  0.1142 -0.6874
  100MOL0     C13727  -0.573   3.559   7.136 -1.3306 -0.3754  0.5151
  100MOL0     C13728   0.242   3.526   7.089  0.0940 -0.2329 -0.0691
  100MOL0     C13729   0.370   3.498   7.142 -0.6236  0.1596  1.2906
  100MOL0     C13730   0.397   3.516   7.288 -0.5124  0.2466 -0.2141
  100MOL0     H13731   0.695   3.222   7.268 -0.3701  2.5854 -0.9733
  100MOL0     H13732   0.880   3.092   7.348  3.8668  0.4429  0.6646
  100MOL0     H13733   1.051   2.946   7.357 -0.0439 -0.0080 -2.5277
  100MOL0     H13734   1.095   3.105   7.425 -0.5431  0.1103 -0.5133
  100MOL0     H13735   1.326   2.932   7.315 -0.2281 -0.9851 -0.5511
  100MOL0     H13736   1.335   3.052   7.425  1.3756 -0.8501 -1.7894
  100MOL0     H13737   1.223   2.925   7.598  0.4254 -0.1918  1.0036
  100MOL0     H13738   1.186   2.787   7.497 -1.9174  1.4779  0.5503
  100MOL0     H13739   1.453   2.792   7.461 -1.2793 -3.4366  0.1130
  100MOL0     H13740   1.441   2.902   7.612  1.3690 -0.9800  0.2851
  100MOL0     H13741   1.395   2.620   7.567  0.7450  0.4562 -0.7504
  100MOL0     H13742   1.301   2.691   7.693  1.3487  1.3018  1.7456
  100MOL0     H13743   1.486   2.755   7.824 -1.7614  0.5279 -1.9829
  100MOL0     H13744   1.494   2.587   7.785 -0.5897 -2.0182 -2.1850
  100MOL0     H13745   1.678   2.800   7.671 -0.5779  0.5437  1.8151
  100MOL0     H13746   1.651   2.650   7.589  0.7677 -1.9774  0.2036
  100MOL0     H13747   1.737   2.675   7.883 -0.8343 -0.0775  0.8255
  100MOL0     H13748   1.729   2.525   7.790  3.5563 -0.7545  1.4044
  100MOL0     H13749   1.990   2.779   7.850 -0.5698 -0.8361  1.1440
  100MOL0     H13750   2.286   2.620   7.733  1.0443 -0.1564 -2.3742
  100MOL0     H13751   2.228   2.781   7.789  0.2837  0.1524 -0.0376
  100MOL0     H13752   2.321   2.696   7.507 -2.0756 -0.6075  0.2022
  100MOL0     H13753   2.213   2.837   7.527 -1.1158 -2.3732 -1.4041
  100MOL0     H13754   2.388   2.936   7.667 -0.6167  0.5583  0.1517
  100MOL0     H13755   2.489   2.791   7.661  0.2072 -0.3504 -0.7647
  100MOL0     H13756   2.527   2.813   7.423  2.1492  0.2158  1.3687
  100MOL0     H13757   2.443   2.969   7.413  1.9846  0.0077 -1.6892
  100MOL0     H13758   2.854   2.927   7.595 -1.1926  0.4652  0.5016
  100MOL0     H13759   3.069   2.916   7.588  2.0911 -0.2271  0.8556
  100MOL0     H13760   3.155   3.022   7.477  0.9441 -1.0074  0.5004
  100MOL0     H13761   3.152   2.858   7.441  1.3942  1.6331 -0.3052
  100MOL0     H13762   2.967   3.133   6.884  0.7278 -0.5065  2.8963
  100MOL0     H13763   3.080   3.148   6.649  0.2683  0.8087 -0.3943
  100MOL0     H13764   3.513   3.214   6.640  1.0625  0.1548 -2.7132
  100MOL0     H13765   3.525   3.041   6.682  2.5362  0.9845 -0.5054
  100MOL0     H13766   3.505   3.001   6.424 -2.1058  1.3611  0.2041
  100MOL0     H13767   3.535   3.174   6.420 -0.1728 -0.4194 -1.2310
  100MOL0     H13768   3.729   2.960   6.559  2.2139  0.2380 -0.1602
  100MOL0     H13769   3.733   3.128   6.589 -0.8658 -0.8249  0.3669
  100MOL0     H13770   3.760   3.173   6.349 -1.9656 -0.1372 -0.7368
  100MOL0     H13771   3.761   2.995   6.316  2.0941 -1.4291  1.1533
  100MOL0     H13772   3.963   2.977   6.444  1.0075 -0.4759 -1.0497
  100MOL0     H13773   3.984   3.087   6.304 -0.9800  0.2128  0.2738
  100MOL0     H13774   3.984   3.177   6.591 -0.2071  1.5840  0.5441
  100MOL0     H13775   3.936   3.287   6.460  1.8529  1.4506 -0.3706
  100MOL0     H13776   4.164   3.209   6.341  1.5820  0.0047 -0.1440
  100MOL0     H13777   4.207   3.146   6.507  0.4250  1.3771  1.5292
  100MOL0     H13778   4.112   3.431   6.447 -0.0602 -0.1244 -1.7831
  100MOL0     H13779   4.284   3.378   6.458 -0.5232  0.0487 -1.9658
  100MOL0     H13780   3.455   3.089   6.870  0.0563 -0.0790  1.1524
  100MOL0     H13781   3.316   3.055   7.078 -1.3856 -0.3672  0.4753
  100MOL0     H13782   2.816   3.063   7.122 -3.3101 -0.4022 -0.5926
  100MOL0     H13783   2.601   3.042   7.282 -1.1968 -0.2869  3.5369
  100MOL0     H13784   1.094   3.136   6.972  0.2405  3.6971 -1.7726
  100MOL0     H13785   0.897   3.243   6.880 -0.6666 -1.5085 -0.3302
  100MOL0     H13786   0.501   3.421   6.832 -0.6950 -1.6271  0.5535
  100MOL0     H13787   0.288   3.436   6.766  1.5108 -1.5166  0.1738
  100MOL0     H13788  -0.059   3.447   7.041  0.5497 -1.1432 -1.5379
  100MOL0     H13789  -0.003   3.627   7.022  3.1655  0.4341 -2.4152
  100MOL0     H13790  -0.162   3.476   6.801 -1.9603 -0.9944  1.1685
  100MOL0     H13791  -0.105   3.636   6.811  1.7464 -0.3585  1.2304
  100MOL0     H13792  -0.243   3.694   6.998 -1.2396 -0.3776  1.1711
  100MOL0     H13793  -0.342   3.608   6.870  0.6441  1.7621 -1.1325
  100MOL0     H13794  -0.253   3.490   7.139  1.3415  2.3782 -0.7228
  100MOL0     H13795  -0.325   3.401   7.001 -1.6546  1.1064 -1.4014
  100MOL0     H13796  -0.666   3.582   7.184 -0.1530  3.4094  1.3634
  100MOL0     H13797   0.170   3.565   7.160  1.5319 -2.0102  2.5557
  100MOL0     H13798   0.300   3.522   7.338 -0.6306  0.7151 -0.4937
  100MOL0     H13799   0.454   3.428   7.320  0.6610  0.8475 -0.5650
  100MOL0     H13800   0.459   3.605   7.305 -0.3537 -0.1190  1.2495
  101MOL0     O13801   3.609   7.316   7.007 -0.6398 -0.0072 -0.2611
  101MOL0     C13802   3.578   7.358   7.121 -0.0341 -0.9367 -0.0051
  101MOL0     O13803   3.663   7.414   7.210 -0.3871  1.2861  0.2521
  101MOL0     C13804   3.793   7.370   7.194 -0.0059  0.7350  0.1214
  101MOL0     C13805   3.880   7.424   7.097 -0.3411 -1.2245  0.7920
  101MOL0     C13806   3.996   7.358   7.061 -0.5990 -0.1457 -0.0992
  101MOL0     C13807   4.034   7.235   7.121  0.0879  0.5472 -0.5892
  101MOL0     O13808   4.140   7.166   7.065  0.1364  0.1262 -0.5086
  101MOL0     C13809   4.206   7.063   7.136 -0.1099 -0.1297 -0.4885
  101MOL0     C13810   4.339   7.019   7.064 -0.1184  0.3069  0.0293
  101MOL0     C13811   4.446   7.126   7.077 -0.4621 -0.0545  0.7299
  101MOL0     C13812   4.560   7.088   6.984  0.0400 -0.3103 -0.9023
  101MOL0     C13813   4.673   7.190   7.004  0.5675  0.0200  0.6491
  101MOL0     C13814   4.660   7.302   6.901 -0.1487  0.3344 -0.2130
  101MOL0     C13815   4.783   7.394   6.893 -0.2967  0.2598  0.6460
  101MOL0     C13816   4.866   7.340   6.776 -0.9007  0.1254 -0.1684
  101MOL0     N13817   5.006   7.388   6.793  0.5500 -1.0396 -0.0019
  101MOL0     C13818   5.058   7.524   6.786  0.0527 -0.0937  0.6425
  101MOL0     C13819   5.192   7.505   6.797  0.3382 -0.2586 -1.1187
  101MOL0     C13820   5.301   7.610   6.804  0.2749  0.3952  0.0354
  101MOL0     C13821   5.395   7.619   6.929  0.1604  0.8627 -0.1937
  101MOL0     C13822   5.499   7.730   6.912  0.1744  0.7924  0.3224
  101MOL0     C13823   5.585   7.766   7.039  0.1443  0.2178  0.1566
  101MOL0     O13824   5.664   7.892   7.025 -0.3771 -0.4025 -0.0103
  101MOL0     C13825   5.761   7.908   6.929  0.8331  0.6909  0.4678
  101MOL0     C13826   5.831   7.811   6.859  0.8740  0.2785  0.6838
  101MOL0     C13827   5.924   7.852   6.760 -0.5355  0.2642  0.6987
  101MOL0     C13828   6.005   7.744   6.687 -0.0929 -0.1852  0.1592
  101MOL0     C13829   5.958   7.990   6.748 -0.3605 -0.8948 -0.6321
  101MOL0     C13830   6.063   8.043   6.655 -0.2314 -0.0665 -0.2759
  101MOL0     O13831   6.033   8.169   6.602  0.1107  0.1524  0.0700
  101MOL0     C13832   6.127   8.239   6.531  0.4012  0.1062 -0.0742
  101MOL0     C13833   6.140   8.213   6.396  0.5640 -0.5781  0.3214
  101MOL0     C13834   6.214   8.296   6.312  0.4216 -0.0727  0.0660
  101MOL0     C13835   6.277   8.407   6.368  0.1733 -0.8691 -0.4499
  101MOL0     O13836   6.350   8.475   6.277  0.0702 -0.1981 -0.5726
  101MOL0     C13837   6.494   8.497   6.304  0.2540  0.2195 -0.1240
  101MOL0     C13838   6.573   8.384   6.375  0.7346 -0.1347  0.8006
  101MOL0     C13839   6.581   8.259   6.298  0.2667  1.1705  1.0757
  101MOL0     C13840   6.666   8.148   6.364  0.6827  0.5156 -0.0180
  101MOL0     C13841   6.689   8.016   6.276 -1.2936  0.1269  0.2243
  101MOL0     C13842   6.564   7.949   6.215 -0.6685 -0.2712 -1.5263
  101MOL0     C13843   6.447   7.923   6.315  0.0280  0.1267 -0.5122
  101MOL0     C13844   6.350   7.829   6.251  0.8618 -0.3378 -0.4413
  101MOL0    Cl13845   6.265   7.899   6.109 -0.1562 -0.5535  0.2359
  101MOL0     C13846   6.269   8.437   6.505  0.1210  0.3756  0.0779
  101MOL0     C13847   6.194   8.348   6.584  0.5703  0.4105 -0.5915
  101MOL0     O13848   6.159   7.976   6.614  0.6619 -0.0439 -0.6291
  101MOL0     C13849   5.880   8.084   6.818 -0.7168  0.2336  0.1085
  101MOL0     C13850   5.782   8.040   6.900  0.0991 -1.0508  0.0608
  101MOL0     N13851   5.215   7.371   6.826  0.8479 -0.4140  0.8741
  101MOL0     N13852   5.109   7.308   6.819 -0.1549  0.1029  0.4724
  101MOL0     C13853   3.964   7.185   7.229  1.1783 -0.3732  0.7866
  101MOL0     C13854   3.841   7.255   7.265 -0.1071  0.7018 -0.4938
  101MOL0     C13855   3.440   7.343   7.154  0.0786  0.0773  0.8735
  101MOL0     C13856   3.417   7.295   7.286 -0.5229 -0.7060 -0.2884
  101MOL0     C13857   3.283   7.274   7.331  0.5314 -1.2690 -0.0717
  101MOL0     C13858   3.174   7.311   7.249 -0.1965 -0.4394 -0.0307
  101MOL0     O13859   3.045   7.299   7.286  0.8197 -0.2147  0.7956
  101MOL0     C13860   2.958   7.412   7.296  0.7590  0.2923  0.7359
  101MOL0     C13861   3.018   7.555   7.311  0.6148  0.2393  0.0265
  101MOL0     C13862   2.907   7.658   7.323 -0.0066 -0.4265  0.3265
  101MOL0     C13863   2.978   7.795   7.351  0.5683 -0.4796 -0.0868
  101MOL0     C13864   3.077   7.835   7.256 -0.1503  0.2944 -0.1725
  101MOL0     C13865   3.165   7.863   7.182  0.0910 -0.0185 -0.2234
  101MOL0     C13866   3.200   7.353   7.117 -0.6363  0.3491  0.5121
  101MOL0     C13867   3.329   7.369   7.068 -0.1420 -0.7905 -0.6305
  101MOL0     C13868   3.332   7.412   6.923  0.1866  0.2467 -0.8248
  101MOL0     H13869   3.854   7.515   7.045  0.0329 -0.7610  1.4050
  101MOL0     H13870   4.058   7.388   6.977 -0.0016 -1.3656 -0.1185
  101MOL0     H13871   4.134   6.981   7.142 -0.1370 -0.0262  1.5774
  101MOL0     H13872   4.215   7.103   7.238 -1.0784 -1.7840  0.2930
  101MOL0     H13873   4.372   6.923   7.105 -1.6993 -0.4980 -0.4787
  101MOL0     H13874   4.312   7.015   6.957  1.3349  1.6961 -0.4177
  101MOL0     H13875   4.407   7.225   7.050 -1.6779 -1.4397 -3.4429
  101MOL0     H13876   4.481   7.119   7.180  0.1637 -0.7278  0.4831
  101MOL0     H13877   4.595   6.988   7.010 -1.8818 -0.2747  2.4396
  101MOL0     H13878   4.540   7.082   6.876 -2.2556  2.9529 -0.8111
  101MOL0     H13879   4.763   7.129   6.990  0.5125  0.0939 -0.1050
  101MOL0     H13880   4.691   7.228   7.105 -1.1126  0.9818  0.6258
  101MOL0     H13881   4.625   7.265   6.805 -0.7162 -1.0874  0.5228
  101MOL0     H13882   4.577   7.361   6.942  1.9467  0.3036  4.9305
  101MOL0     H13883   4.841   7.399   6.986  1.5672  1.7698 -0.5286
  101MOL0     H13884   4.749   7.497   6.879  1.3546  0.8003  0.4242
  101MOL0     H13885   4.864   7.231   6.786  1.7137 -0.1193 -1.3706
  101MOL0     H13886   4.838   7.374   6.676  1.0137 -1.1206 -1.1991
  101MOL0     H13887   5.020   7.626   6.778  2.0624  0.7196  0.8267
  101MOL0     H13888   5.260   7.710   6.783  0.8820  0.4947 -0.7502
  101MOL0     H13889   5.369   7.594   6.720  3.3465  1.0375  2.2164
  101MOL0     H13890   5.330   7.626   7.018  0.1228  1.1867 -0.2448
  101MOL0     H13891   5.451   7.526   6.937  0.5027  0.9814 -1.1300
  101MOL0     H13892   5.576   7.697   6.841 -0.8214 -0.0973 -0.3703
  101MOL0     H13893   5.457   7.819   6.866  0.0507  0.4589 -0.2142
  101MOL0     H13894   5.514   7.776   7.122 -2.2418 -4.8240 -0.8687
  101MOL0     H13895   5.654   7.683   7.058 -1.7620 -1.9709 -1.8237
  101MOL0     H13896   5.816   7.704   6.866 -1.0248  0.5394  1.3517
  101MOL0     H13897   6.005   7.761   6.579 -3.8817  0.6533  0.1607
  101MOL0     H13898   5.952   7.648   6.689 -1.7343  0.6712 -0.3782
  101MOL0     H13899   6.109   7.742   6.723 -0.0823  0.8488  0.2016
  101MOL0     H13900   6.084   8.133   6.349  1.0612  0.2576 -1.7936
  101MOL0     H13901   6.220   8.279   6.205 -2.9340  2.3812 -0.6806
  101MOL0     H13902   6.548   8.511   6.210  1.9909  1.6626  1.0204
  101MOL0     H13903   6.503   8.585   6.369 -1.2474 -0.4570  1.0703
  101MOL0     H13904   6.672   8.427   6.388  0.4252  2.1130 -3.0269
  101MOL0     H13905   6.525   8.374   6.474 -3.5896  1.9191 -0.8076
  101MOL0     H13906   6.628   8.275   6.200  0.6811  0.6278  1.1830
  101MOL0     H13907   6.481   8.217   6.287  0.5029  0.6851  0.7290
  101MOL0     H13908   6.617   8.110   6.454  1.3739 -1.6209 -0.4644
  101MOL0     H13909   6.763   8.181   6.401 -0.1498  1.0298  1.8026
  101MOL0     H13910   6.756   8.034   6.192  0.3903  1.4832  1.7965
  101MOL0     H13911   6.733   7.948   6.350  0.0452 -0.1118 -0.7568
  101MOL0     H13912   6.594   7.847   6.188 -0.2454 -0.0900 -1.7493
  101MOL0     H13913   6.530   8.003   6.126 -2.2947  1.8666  0.2591
  101MOL0     H13914   6.400   8.020   6.331 -0.5789 -0.4688  1.8256
  101MOL0     H13915   6.485   7.885   6.411 -2.0612  1.9229  1.1321
  101MOL0     H13916   6.279   7.806   6.331 -0.2916  0.9911 -1.0352
  101MOL0     H13917   6.400   7.737   6.219  1.7748 -0.3807  1.0236
  101MOL0     H13918   6.326   8.521   6.544 -0.4934  0.5794  0.5591
  101MOL0     H13919   6.184   8.363   6.691 -1.0574  1.2856 -0.8346
  101MOL0     H13920   5.898   8.191   6.809 -1.6030  0.6047  2.1246
  101MOL0     H13921   5.717   8.113   6.947  0.8865  0.4601 -1.1270
  101MOL0     H13922   3.977   7.088   7.275 -0.4951 -2.5565 -2.9440
  101MOL0     H13923   3.783   7.214   7.347  0.1753 -0.7790 -1.0013
  101MOL0     H13924   3.491   7.276   7.363 -1.2618  1.5098  1.0503
  101MOL0     H13925   3.274   7.242   7.435  1.6451  0.9985  0.7913
  101MOL0     H13926   2.895   7.424   7.207 -0.8984  1.9963  2.0354
  101MOL0     H13927   2.876   7.396   7.367 -1.1146 -0.3604 -1.4272
  101MOL0     H13928   3.087   7.567   7.227  1.1467 -0.1542  0.4022
  101MOL0     H13929   3.076   7.551   7.404 -0.1357 -1.7662  0.4644
  101MOL0     H13930   2.847   7.680   7.235 -0.5995 -2.0285  0.3051
  101MOL0     H13931   2.837   7.636   7.404  0.2993  1.4496  1.1619
  101MOL0     H13932   3.032   7.793   7.446  2.5442  0.1104 -1.1592
  101MOL0     H13933   2.897   7.869   7.352  1.8416  0.9803 -0.2604
  101MOL0     H13934   3.252   7.876   7.120  0.7274 -1.1518  0.3940
  101MOL0     H13935   3.109   7.371   7.062 -1.3082  2.6867  2.2175
  101MOL0     H13936   3.327   7.327   6.855 -0.1960 -0.4176  0.0072
  101MOL0     H13937   3.235   7.462   6.910 -2.1790 -2.5615  3.5163
  101MOL0     H13938   3.410   7.484   6.899  0.6046  1.2319  2.8378
  102MOL0     O13939   9.155   2.127   8.280 -0.9044  0.3812 -0.2155
  102MOL0     C13940   9.115   2.234   8.226 -0.7541  0.5983  0.1377
  102MOL0     O13941   9.199   2.324   8.161  1.4227 -0.2526  0.4686
  102MOL0     C13942   9.320   2.292   8.102 -0.2805  0.0111  0.2077
  102MOL0     C13943   9.412   2.394   8.068  0.1374 -0.1046 -0.3837
  102MOL0     C13944   9.538   2.360   8.009 -0.3596 -0.1443 -0.6064
  102MOL0     C13945   9.571   2.225   7.985 -0.4990 -0.1514  0.1087
  102MOL0     O13946   9.693   2.203   7.929 -0.1680  0.0395 -0.0794
  102MOL0     C13947   9.725   2.067   7.901 -0.1816  0.3622 -0.4485
  102MOL0     C13948   9.868   2.065   7.852 -0.8432 -0.5562 -0.3011
  102MOL0     C13949   9.957   2.082   7.984  0.2468  0.9777 -0.5783
  102MOL0     C13950  10.095   2.149   7.968  0.0523  0.6845  0.0139
  102MOL0     C13951  10.194   2.043   8.006 -0.1662 -0.2722 -0.0734
  102MOL0     C13952  10.339   2.087   7.983 -0.5103 -0.1216 -0.5384
  102MOL0     C13953  10.441   1.991   8.046 -0.0487 -0.9299 -0.3184
  102MOL0     C13954  10.567   2.076   8.077 -0.9096 -0.5686  0.1339
  102MOL0     N13955  10.671   1.990   8.139  0.0492  0.3606  0.1004
  102MOL0     C13956  10.674   1.931   8.264 -0.2695  0.9150 -0.5264
  102MOL0     C13957  10.798   1.883   8.282 -0.5329  0.2479 -0.5598
  102MOL0     C13958  10.852   1.835   8.419 -0.1401 -0.2593 -0.2710
  102MOL0     C13959  10.957   1.927   8.477  0.1628  0.3986 -0.3108
  102MOL0     C13960  11.043   1.853   8.582 -1.2227 -0.4513 -0.2099
  102MOL0     C13961  11.149   1.945   8.629  0.1131 -0.2320 -0.3120
  102MOL0     O13962  11.239   1.983   8.516 -0.1420  0.4352  0.8520
  102MOL0     C13963  11.360   2.030   8.539  0.2521 -0.0307 -1.1715
  102MOL0     C13964  11.420   2.058   8.671 -0.4721 -0.0180  0.8709
  102MOL0     C13965  11.555   2.104   8.688  0.4253 -0.7957  0.2662
  102MOL0     C13966  11.604   2.126   8.831 -0.9247  0.6366 -0.4700
  102MOL0     C13967  11.631   2.130   8.571 -0.9605 -0.3446 -0.1083
  102MOL0     C13968  11.764   2.183   8.569  0.0804  0.2655  1.1812
  102MOL0     O13969  11.834   2.187   8.681 -0.1453 -0.1790 -0.6108
  102MOL0     C13970  11.969   2.214   8.671 -0.4748 -0.6108  0.0831
  102MOL0     C13971  12.026   2.314   8.742 -0.2067 -0.5214 -0.6190
  102MOL0     C13972  12.163   2.340   8.745  0.8790 -0.1336  0.5420
  102MOL0     C13973  12.246   2.259   8.670 -0.5936 -0.0580  0.6655
  102MOL0     O13974  12.385   2.272   8.672 -0.3652  0.1372 -0.4189
  102MOL0     C13975  12.429   2.385   8.603 -0.4685  0.3773 -0.4925
  102MOL0     C13976  12.579   2.382   8.565 -0.1132 -0.6467  0.1381
  102MOL0     C13977  12.604   2.289   8.444 -0.0154 -0.2399 -0.5486
  102MOL0     C13978  12.745   2.241   8.426 -0.3611 -0.2860 -0.8825
  102MOL0     C13979  12.752   2.147   8.297  0.4782  0.0356  0.0395
  102MOL0     C13980  12.791   2.228   8.187  0.2677 -0.1626  0.3334
  102MOL0     C13981  12.762   2.165   8.055  0.6479 -0.1332  0.4012
  102MOL0     C13982  12.835   2.231   7.940  0.1830 -0.4085 -0.1236
  102MOL0    Cl13983  13.005   2.169   7.953 -0.4502 -0.1219  0.2128
  102MOL0     C13984  12.193   2.151   8.597 -0.4543  0.0027 -0.4348
  102MOL0     C13985  12.054   2.126   8.603 -0.4976  0.3458  0.5002
  102MOL0     O13986  11.800   2.230   8.461  0.0175  0.6837  0.1936
  102MOL0     C13987  11.574   2.096   8.447  0.3707 -0.1510  0.6055
  102MOL0     C13988  11.444   2.048   8.432 -0.1221 -0.1878  0.2486
  102MOL0     N13989  10.867   1.902   8.162  0.0359  0.0640  0.8094
  102MOL0     N13990  10.792   1.965   8.075  0.2108 -0.1814  0.5485
  102MOL0     C13991   9.465   2.127   7.998 -0.3819 -0.4503  0.8135
  102MOL0     C13992   9.349   2.163   8.061  0.5600 -0.7405 -0.1764
  102MOL0     C13993   8.981   2.286   8.255 -0.3464  0.1384 -0.0281
  102MOL0     C13994   8.967   2.425   8.248 -0.2181  0.9636 -0.3161
  102MOL0     C13995   8.840   2.486   8.257 -0.4729  0.4339  0.4301
  102MOL0     C13996   8.723   2.412   8.279 -1.0151 -0.3575 -0.3581
  102MOL0     O13997   8.606   2.481   8.288 -0.5345  0.0219  0.8456
  102MOL0     C13998   8.501   2.421   8.359 -0.2956  0.3331 -0.3081
  102MOL0     C13999   8.395   2.521   8.372  1.3602  0.2263 -0.2495
  102MOL0     C14000   8.264   2.454   8.411  0.1554  0.1168 -0.7616
  102MOL0     C14001   8.143   2.559   8.405 -0.7878 -0.2118 -0.2840
  102MOL0     C14002   8.134   2.641   8.523 -0.3070 -0.3543 -1.0095
  102MOL0     C14003   8.137   2.716   8.617  0.4234 -0.3187 -0.0975
  102MOL0     C14004   8.735   2.273   8.290  0.0639 -0.5236  0.5769
  102MOL0     C14005   8.862   2.207   8.278 -0.1111 -0.0410 -0.4112
  102MOL0     C14006   8.860   2.057   8.297  0.2711 -0.1175 -0.3864
  102MOL0     H14007   9.381   2.496   8.089 -2.5312 -0.0564 -3.7236
  102MOL0     H14008   9.621   2.428   7.996  0.3013 -0.7531  0.2428
  102MOL0     H14009   9.662   2.020   7.825  1.8867 -2.5461 -0.5236
  102MOL0     H14010   9.727   2.002   7.988 -1.0029 -0.3990 -0.9775
  102MOL0     H14011   9.887   1.972   7.797  0.1367  0.8113 -2.3932
  102MOL0     H14012   9.882   2.150   7.785 -2.1936 -0.9699 -1.1609
  102MOL0     H14013   9.895   2.148   8.046 -0.0812  2.0042 -1.9314
  102MOL0     H14014   9.969   1.984   8.030 -0.8569  1.1364  0.0794
  102MOL0     H14015  10.102   2.183   7.865  0.0415 -1.0236 -0.5795
  102MOL0     H14016  10.112   2.232   8.037 -1.4001  1.0599 -0.0348
  102MOL0     H14017  10.177   1.951   7.950 -0.6418 -1.8422  2.5059
  102MOL0     H14018  10.178   2.018   8.111 -0.9546 -0.9562 -0.3456
  102MOL0     H14019  10.367   2.101   7.878  1.0336  1.8008  0.0493
  102MOL0     H14020  10.359   2.188   8.021  1.1078 -0.3269 -0.7365
  102MOL0     H14021  10.463   1.911   7.975 -1.8457  0.3218 -2.4111
  102MOL0     H14022  10.405   1.949   8.140 -0.0440 -0.0504  0.0873
  102MOL0     H14023  10.602   2.113   7.980 -0.3993  1.9572  1.2156
  102MOL0     H14024  10.557   2.162   8.143 -1.5486  0.0536 -0.7584
  102MOL0     H14025  10.598   1.933   8.342 -1.0701 -3.1258 -0.9479
  102MOL0     H14026  10.905   1.744   8.388  1.1306 -1.2935  4.2264
  102MOL0     H14027  10.778   1.805   8.493  0.5435  1.0171  0.9857
  102MOL0     H14028  11.013   1.983   8.402 -1.7259 -0.2358 -2.3065
  102MOL0     H14029  10.906   2.013   8.521  1.8262  1.5215 -0.5011
  102MOL0     H14030  10.979   1.816   8.663  0.5092 -3.6013 -0.1013
  102MOL0     H14031  11.097   1.765   8.545  0.0502 -0.5240  1.6345
  102MOL0     H14032  11.099   2.025   8.683  2.4554 -0.0479  1.7502
  102MOL0     H14033  11.210   1.896   8.706  0.4491  0.1441 -0.3361
  102MOL0     H14034  11.354   2.045   8.757 -1.8095 -2.3188 -0.4244
  102MOL0     H14035  11.533   2.098   8.910  0.1144  0.0954  0.2957
  102MOL0     H14036  11.638   2.229   8.848  0.7734 -0.1190  1.0510
  102MOL0     H14037  11.696   2.068   8.843 -0.9197 -0.0494 -3.1971
  102MOL0     H14038  11.956   2.369   8.805  0.3543  0.6637 -1.0094
  102MOL0     H14039  12.199   2.418   8.811 -1.6442  2.3036 -0.7472
  102MOL0     H14040  12.371   2.396   8.511 -1.6759 -4.2489 -0.5409
  102MOL0     H14041  12.413   2.470   8.670  0.8530  1.6396 -1.7240
  102MOL0     H14042  12.610   2.482   8.534  1.5282 -1.6984 -1.9758
  102MOL0     H14043  12.629   2.354   8.658  1.0879  2.7681  0.6698
  102MOL0     H14044  12.584   2.346   8.352 -1.5317 -1.2661 -0.9040
  102MOL0     H14045  12.534   2.205   8.439  1.4165 -1.4015 -1.9609
  102MOL0     H14046  12.766   2.174   8.510  0.8818  2.6330  1.3091
  102MOL0     H14047  12.811   2.329   8.428  0.5484 -0.9379 -1.3765
  102MOL0     H14048  12.819   2.062   8.316  1.9683  1.4748  1.5158
  102MOL0     H14049  12.654   2.109   8.266  1.2172 -1.8036 -0.2016
  102MOL0     H14050  12.898   2.248   8.200  0.6517 -1.0012 -1.2184
  102MOL0     H14051  12.741   2.325   8.182  0.5962  0.1511  2.4018
  102MOL0     H14052  12.655   2.180   8.042  0.8456  0.2302 -0.9057
  102MOL0     H14053  12.780   2.057   8.050 -1.3182 -0.4242 -2.6436
  102MOL0     H14054  12.835   2.340   7.953  2.3016 -0.6324  2.6337
  102MOL0     H14055  12.781   2.211   7.847 -2.8868  0.9205  1.2272
  102MOL0     H14056  12.257   2.076   8.551 -1.2208 -1.6758  1.1267
  102MOL0     H14057  12.009   2.046   8.545  0.1445 -0.7303  1.4369
  102MOL0     H14058  11.625   2.106   8.352 -1.1308  1.2821 -0.1003
  102MOL0     H14059  11.400   2.025   8.335  0.0373 -0.9779  0.3587
  102MOL0     H14060   9.472   2.035   7.940 -0.9046 -0.4749  0.7834
  102MOL0     H14061   9.278   2.081   8.064 -1.5305  0.9830  1.9322
  102MOL0     H14062   9.050   2.489   8.217 -1.1822  1.9853 -0.8842
  102MOL0     H14063   8.816   2.590   8.238  0.0875  0.9829  2.4236
  102MOL0     H14064   8.472   2.334   8.299 -3.3388  1.1679 -0.2542
  102MOL0     H14065   8.539   2.394   8.458 -0.2599  1.6308  0.0556
  102MOL0     H14066   8.383   2.580   8.280 -2.6408  1.7445  1.0245
  102MOL0     H14067   8.423   2.589   8.453 -2.5191  0.4382  1.1576
  102MOL0     H14068   8.246   2.370   8.343  1.3587 -1.1509  0.3984
  102MOL0     H14069   8.288   2.420   8.512  2.4063  0.1077 -1.2356
  102MOL0     H14070   8.048   2.505   8.398 -0.1153 -1.3517 -1.0258
  102MOL0     H14071   8.156   2.614   8.312  1.9166 -1.8817 -1.0158
  102MOL0     H14072   8.159   2.784   8.697  0.0332  1.4117 -1.3911
  102MOL0     H14073   8.648   2.210   8.304 -0.7606 -0.7844 -4.1112
  102MOL0     H14074   8.956   2.009   8.273  0.2975  0.3496 -1.2491
  102MOL0     H14075   8.841   2.027   8.401 -0.2447 -1.1747 -0.7705
  102MOL0     H14076   8.780   2.005   8.244 -0.8088 -0.5671  1.5855
  103MOL0     O14077   0.664   6.561   7.014  0.5068  0.4022 -0.0740
  103MOL0     C14078   0.618   6.591   7.126  0.3123 -0.0878 -0.4579
  103MOL0     O14079   0.693   6.593   7.239 -0.2196  0.2896 -0.3640
  103MOL0     C14080   0.817   6.529   7.228 -0.0222 -0.1186  0.5132
  103MOL0     C14081   0.825   6.395   7.283  0.4385 -0.2366 -0.0244
  103MOL0     C14082   0.939   6.320   7.261 -0.6661 -0.0966 -0.5599
  103MOL0     C14083   1.048   6.376   7.196  0.4282 -0.0276  0.4573
  103MOL0     O14084   1.169   6.311   7.189  0.2858  0.1426 -0.0103
  103MOL0     C14085   1.187   6.170   7.230  0.5039 -0.2937 -0.6814
  103MOL0     C14086   1.193   6.156   7.382 -0.1188 -0.0211  0.1375
  103MOL0     C14087   1.318   6.233   7.427 -0.8154 -0.3359 -0.5071
  103MOL0     C14088   1.356   6.201   7.574 -0.5340 -0.1963  0.6700
  103MOL0     C14089   1.505   6.245   7.605 -0.7375  0.1305  0.2443
  103MOL0     C14090   1.526   6.399   7.610  0.6182  0.3776  0.0123
  103MOL0     C14091   1.654   6.444   7.685  0.3467 -0.2364  0.0720
  103MOL0     C14092   1.771   6.434   7.594 -1.3356  0.0748  0.5549
  103MOL0     N14093   1.895   6.458   7.675 -0.1496  0.5908  0.3507
  103MOL0     C14094   2.034   6.442   7.636 -0.0377 -0.0655  0.5877
  103MOL0     C14095   2.103   6.456   7.755 -0.0015  0.7602  0.0934
  103MOL0     C14096   2.250   6.446   7.775 -0.5883  0.0391  0.5201
  103MOL0     C14097   2.315   6.576   7.825 -0.6717 -0.2351  0.5035
  103MOL0     C14098   2.467   6.549   7.861 -0.4397  0.2775  0.3329
  103MOL0     C14099   2.537   6.678   7.905  0.5184  0.0605 -0.4504
  103MOL0     O14100   2.677   6.645   7.937  0.2000  0.7495  0.1173
  103MOL0     C14101   2.767   6.739   7.952  0.5924  0.1493 -0.2014
  103MOL0     C14102   2.745   6.876   7.928 -0.4716  0.4250  0.8603
  103MOL0     C14103   2.852   6.971   7.939 -0.3967 -0.2802 -0.2589
  103MOL0     C14104   2.823   7.113   7.900  0.4180  0.5190 -0.1087
  103MOL0     C14105   2.970   6.928   8.005  0.0407  0.1253  0.2638
  103MOL0     C14106   3.078   7.020   8.045 -0.0077  0.2028 -0.1682
  103MOL0     O14107   3.142   6.983   8.168  0.1269  0.6415  0.3642
  103MOL0     C14108   3.247   7.059   8.221 -0.8240 -0.4397 -0.9343
  103MOL0     C14109   3.339   7.143   8.150 -0.2548  0.2369 -0.0688
  103MOL0     C14110   3.433   7.222   8.217  0.9617  0.2881 -0.2034
  103MOL0     C14111   3.442   7.233   8.348  0.7154  0.1423  0.6377
  103MOL0     O14112   3.535   7.314   8.405 -0.3875 -0.6297 -0.4979
  103MOL0     C14113   3.555   7.303   8.551  1.0860  0.3415  1.1160
  103MOL0     C14114   3.663   7.403   8.611  0.6287 -0.2104  0.0604
  103MOL0     C14115   3.807   7.374   8.571  0.1942 -0.0285  0.1858
  103MOL0     C14116   3.901   7.447   8.667  0.0730 -0.0733 -0.4852
  103MOL0     C14117   4.037   7.386   8.637 -0.3018  0.6718 -0.3561
  103MOL0     C14118   4.139   7.445   8.736 -0.0074 -0.6799  0.0807
  103MOL0     C14119   4.268   7.490   8.672  0.5654 -0.4354  0.3882
  103MOL0     C14120   4.385   7.544   8.759 -1.0021  0.4082  0.5500
  103MOL0    Cl14121   4.335   7.680   8.860 -0.1797  0.1947  0.2422
  103MOL0     C14122   3.354   7.153   8.422 -0.1798  0.4176 -0.1109
  103MOL0     C14123   3.264   7.059   8.365 -0.1130 -0.2883  0.5182
  103MOL0     O14124   3.111   7.111   7.973  0.1806  0.4085  0.6919
  103MOL0     C14125   2.993   6.792   8.038  0.4111  0.0335 -0.2690
  103MOL0     C14126   2.891   6.703   8.009  0.6334 -0.5191  0.5841
  103MOL0     N14127   2.020   6.500   7.850  1.4761  0.2540 -0.1633
  103MOL0     N14128   1.898   6.503   7.797 -0.9804  0.1491  0.1139
  103MOL0     C14129   1.048   6.504   7.154 -0.0349  0.6906  0.4384
  103MOL0     C14130   0.930   6.582   7.162 -0.5015  0.3841 -1.6378
  103MOL0     C14131   0.468   6.619   7.147 -0.5915 -0.2035 -0.2813
  103MOL0     C14132   0.421   6.598   7.274  0.7811 -0.1228 -0.3206
  103MOL0     C14133   0.288   6.607   7.306  0.0913  0.5188  0.3151
  103MOL0     C14134   0.194   6.647   7.204 -0.7150  0.1248 -0.7259
  103MOL0     O14135   0.057   6.645   7.224  0.2261  0.3408 -0.2002
  103MOL0     C14136   0.014   6.657   7.362  0.3452 -0.0304  0.1168
  103MOL0     C14137  -0.136   6.660   7.350 -0.8842  0.1068 -0.6421
  103MOL0     C14138  -0.218   6.546   7.289 -0.1639  0.2672  0.4558
  103MOL0     C14139  -0.182   6.510   7.145  0.1954  1.2282 -0.5619
  103MOL0     C14140  -0.283   6.414   7.090  0.3841  0.1034  0.7041
  103MOL0     C14141  -0.357   6.345   7.019  0.4472 -0.2123 -0.3491
  103MOL0     C14142   0.244   6.677   7.078 -1.1862 -0.1446  0.4449
  103MOL0     C14143   0.378   6.663   7.050  0.8516  0.4425 -0.2212
  103MOL0     C14144   0.424   6.710   6.910  0.2247 -0.0134 -0.5689
  103MOL0     H14145   0.747   6.355   7.347  1.5450  0.8687  2.1263
  103MOL0     H14146   0.941   6.219   7.299  1.1541  0.0594 -0.1490
  103MOL0     H14147   1.275   6.123   7.187  2.0726  0.0408  1.9597
  103MOL0     H14148   1.102   6.122   7.182 -0.1154 -0.3275  0.3966
  103MOL0     H14149   1.101   6.188   7.432 -0.8369 -2.8173  0.7946
  103MOL0     H14150   1.201   6.052   7.414  1.4955  0.3943  1.1869
  103MOL0     H14151   1.401   6.199   7.364 -0.6690 -1.3250  0.2002
  103MOL0     H14152   1.306   6.341   7.412 -0.9655  0.0475  1.9353
  103MOL0     H14153   1.290   6.251   7.645 -0.7536  0.0954  0.2611
  103MOL0     H14154   1.346   6.092   7.583 -4.1390  0.0587  1.3682
  103MOL0     H14155   1.576   6.198   7.536 -0.1441  0.4842  0.6007
  103MOL0     H14156   1.522   6.208   7.707  1.8799 -0.2117 -0.2233
  103MOL0     H14157   1.525   6.454   7.515 -0.6801 -1.6904 -1.2355
  103MOL0     H14158   1.447   6.442   7.672  2.2314 -0.1499  2.5694
  103MOL0     H14159   1.674   6.376   7.769 -0.5056 -1.8051 -0.9487
  103MOL0     H14160   1.648   6.549   7.717  1.7931 -0.0003 -0.3554
  103MOL0     H14161   1.781   6.336   7.548  1.3895  0.4499  0.1862
  103MOL0     H14162   1.769   6.509   7.514 -1.0780  1.0102  1.3979
  103MOL0     H14163   2.069   6.405   7.540 -2.6612 -0.8662 -0.1608
  103MOL0     H14164   2.296   6.420   7.680 -0.9090  2.6287 -0.4252
  103MOL0     H14165   2.270   6.363   7.844 -2.6919 -1.6655 -0.7709
  103MOL0     H14166   2.308   6.651   7.746 -0.4679 -1.4035 -0.6732
  103MOL0     H14167   2.263   6.608   7.916 -1.0755 -0.5966  0.4048
  103MOL0     H14168   2.480   6.471   7.936  4.8939  0.7512  0.2785
  103MOL0     H14169   2.520   6.520   7.770 -1.7035  0.4017 -0.4795
  103MOL0     H14170   2.523   6.750   7.823 -0.3837  1.2777  0.7358
  103MOL0     H14171   2.488   6.721   7.993 -0.6177 -2.5574  0.3100
  103MOL0     H14172   2.648   6.914   7.896  0.1761  0.9975 -0.4844
  103MOL0     H14173   2.714   7.126   7.892  0.4319 -0.1911 -1.6787
  103MOL0     H14174   2.878   7.134   7.809  2.3033 -0.1798  0.8289
  103MOL0     H14175   2.861   7.182   7.976  0.2613 -1.5320  1.9339
  103MOL0     H14176   3.335   7.160   8.043  0.9410  3.4821  0.3104
  103MOL0     H14177   3.501   7.273   8.150  1.3038 -1.0342 -0.8960
  103MOL0     H14178   3.459   7.319   8.601 -0.3207 -1.6269 -0.7639
  103MOL0     H14179   3.594   7.204   8.576 -0.1164 -0.4606 -0.0124
  103MOL0     H14180   3.624   7.491   8.559  2.5671 -0.1314 -1.3936
  103MOL0     H14181   3.658   7.403   8.720 -0.5567 -2.5269  0.0602
  103MOL0     H14182   3.820   7.402   8.466  1.6642 -0.1965  0.2947
  103MOL0     H14183   3.831   7.268   8.580  4.3628  0.7455  0.0176
  103MOL0     H14184   3.882   7.413   8.769 -0.1255  1.7889  0.1351
  103MOL0     H14185   3.908   7.556   8.660 -0.5098  0.0294  0.3982
  103MOL0     H14186   4.036   7.278   8.653 -1.6586  0.9185  1.5376
  103MOL0     H14187   4.061   7.407   8.533  0.6803 -2.3172 -0.8096
  103MOL0     H14188   4.168   7.375   8.814  0.6051 -0.0969  0.3839
  103MOL0     H14189   4.098   7.534   8.785  0.2632 -0.9770  0.8485
  103MOL0     H14190   4.239   7.570   8.602 -0.5728 -2.1894 -1.2464
  103MOL0     H14191   4.299   7.401   8.618 -2.1105 -1.1212 -0.1988
  103MOL0     H14192   4.468   7.584   8.701  0.1523  0.1680  1.9912
  103MOL0     H14193   4.425   7.465   8.823 -0.3901 -0.4370 -0.8428
  103MOL0     H14194   3.367   7.145   8.530 -1.0734  0.7915  0.0349
  103MOL0     H14195   3.200   6.993   8.422 -1.3895 -0.0859 -0.6165
  103MOL0     H14196   3.080   6.762   8.097 -1.6251 -0.2906  2.7809
  103MOL0     H14197   2.898   6.595   8.024 -2.0025 -0.5415  2.5881
  103MOL0     H14198   1.138   6.543   7.108 -1.1073  1.8468 -0.7708
  103MOL0     H14199   0.922   6.677   7.112 -1.9317 -0.6634 -3.5308
  103MOL0     H14200   0.486   6.572   7.357  2.4835  2.8134 -0.5755
  103MOL0     H14201   0.257   6.565   7.401 -2.3022 -0.4325 -0.7950
  103MOL0     H14202   0.046   6.570   7.421  2.4615  0.0519 -0.8253
  103MOL0     H14203   0.054   6.751   7.401 -2.5915  0.9444  1.0699
  103MOL0     H14204  -0.165   6.754   7.302 -0.1823 -0.1984 -1.7070
  103MOL0     H14205  -0.174   6.683   7.450  0.0230  2.4558 -0.7630
  103MOL0     H14206  -0.201   6.458   7.351 -2.0407 -0.8487 -0.5237
  103MOL0     H14207  -0.327   6.554   7.291 -0.2728 -0.9158 -0.2167
  103MOL0     H14208  -0.083   6.462   7.148  0.2391  1.3526 -0.0255
  103MOL0     H14209  -0.173   6.598   7.080  3.9643  1.3674 -0.0864
  103MOL0     H14210  -0.428   6.292   6.959 -2.2623  2.1196  0.5790
  103MOL0     H14211   0.177   6.720   7.004 -0.6156 -0.4019 -0.2416
  103MOL0     H14212   0.470   6.619   6.869 -1.4567 -1.1516 -0.0482
  103MOL0     H14213   0.332   6.724   6.853  0.3598 -1.7171 -1.2836
  103MOL0     H14214   0.490   6.797   6.915 -1.3974  1.2414 -0.5733
  104MOL0     O14215   1.100  10.904   5.806 -0.2752  0.8069 -0.5117
  104MOL0     C14216   1.025  10.956   5.724  0.4203  0.9605 -0.0650
  104MOL0     O14217   1.053  11.070   5.650  1.2318  0.2714  0.3905
  104MOL0     C14218   1.176  11.135   5.661  1.0573 -0.6698  0.9499
  104MOL0     C14219   1.251  11.156   5.548 -0.8905  0.4451 -0.6708
  104MOL0     C14220   1.379  11.210   5.559 -0.4569 -0.0647 -0.0691
  104MOL0     C14221   1.436  11.231   5.697  0.3707 -0.1651  0.3402
  104MOL0     O14222   1.571  11.265   5.728 -0.0443 -0.5417  0.4415
  104MOL0     C14223   1.633  11.358   5.638 -0.0582 -0.6956 -0.1840
  104MOL0     C14224   1.754  11.429   5.711 -0.0324 -0.0988 -1.0552
  104MOL0     C14225   1.821  11.535   5.627 -0.0607  0.4043  0.1321
  104MOL0     C14226   1.926  11.611   5.708 -0.4480 -0.4573  0.9482
  104MOL0     C14227   1.979  11.731   5.618  0.8745 -0.2847 -0.5782
  104MOL0     C14228   2.054  11.833   5.704  0.2410 -0.0872 -0.5881
  104MOL0     C14229   2.118  11.958   5.643 -0.3423  0.1850  0.4424
  104MOL0     C14230   2.237  11.924   5.547  0.5821 -0.7821 -0.3548
  104MOL0     N14231   2.208  11.844   5.424  0.1230 -0.8875  0.1963
  104MOL0     C14232   2.096  11.857   5.344 -0.3879 -0.0469 -0.2332
  104MOL0     C14233   2.117  11.771   5.240 -0.0516  0.1878 -0.1698
  104MOL0     C14234   2.025  11.732   5.129 -0.6006 -0.0816  0.1724
  104MOL0     C14235   1.889  11.671   5.180  0.5127  0.5535 -0.4731
  104MOL0     C14236   1.904  11.538   5.256  1.1126  0.3830 -0.3532
  104MOL0     C14237   1.779  11.462   5.236  0.4823 -0.1472  0.1225
  104MOL0     O14238   1.677  11.515   5.320 -0.3181 -0.1159  0.0626
  104MOL0     C14239   1.547  11.470   5.297 -0.4520 -0.4082 -0.1210
  104MOL0     C14240   1.519  11.358   5.211  0.1932  0.3075 -0.3605
  104MOL0     C14241   1.386  11.305   5.194 -0.7124 -0.4199  0.2534
  104MOL0     C14242   1.374  11.202   5.086  0.2041  0.0894  0.5436
  104MOL0     C14243   1.276  11.366   5.261 -1.0633 -0.3808 -0.1213
  104MOL0     C14244   1.129  11.330   5.253  0.1696 -0.3130 -0.4784
  104MOL0     O14245   1.037  11.435   5.251 -0.1540 -0.0200 -0.1827
  104MOL0     C14246   0.900  11.411   5.230 -0.2251 -0.0158  0.2882
  104MOL0     C14247   0.822  11.331   5.317  0.0766  0.0618  0.0305
  104MOL0     C14248   0.683  11.333   5.288 -0.1011  0.2949  0.1464
  104MOL0     C14249   0.625  11.394   5.177 -0.5062  0.3280 -0.7237
  104MOL0     O14250   0.487  11.382   5.177  0.4346 -0.3494  0.3343
  104MOL0     C14251   0.428  11.433   5.058 -0.1693 -0.9530 -0.5178
  104MOL0     C14252   0.273  11.429   5.067 -0.1753 -0.5727 -0.2419
  104MOL0     C14253   0.206  11.476   4.936  0.0986  0.5309 -0.0971
  104MOL0     C14254   0.051  11.448   4.967  0.3557 -0.1007  0.0449
  104MOL0     C14255  -0.028  11.502   4.843 -0.4621 -0.3332  0.0661
  104MOL0     C14256  -0.181  11.490   4.858  0.3668 -0.3638  0.4425
  104MOL0     C14257  -0.262  11.529   4.734 -1.3043 -0.2572 -0.2951
  104MOL0     C14258  -0.416  11.500   4.753 -0.4360 -0.8103 -0.0239
  104MOL0    Cl14259  -0.492  11.563   4.914  0.1216 -0.6394  0.4237
  104MOL0     C14260   0.709  11.448   5.081 -0.1055  0.4656 -0.2158
  104MOL0     C14261   0.845  11.460   5.114  0.0022  0.3553  0.3457
  104MOL0     O14262   1.105  11.208   5.234 -0.0948 -0.0714 -0.3131
  104MOL0     C14263   1.316  11.480   5.348  0.0157  0.2028  0.3467
  104MOL0     C14264   1.447  11.521   5.364  0.0049 -0.7422 -0.1503
  104MOL0     N14265   2.247  11.718   5.252  0.8475  0.4339  0.0787
  104MOL0     N14266   2.298  11.762   5.360  0.0815 -0.1644  0.2013
  104MOL0     C14267   1.358  11.214   5.808 -1.0026  0.5732  0.0210
  104MOL0     C14268   1.225  11.171   5.787  0.5136  0.0416 -0.5307
  104MOL0     C14269   0.885  10.900   5.703  0.1196 -0.5449  0.4586
  104MOL0     C14270   0.832  10.826   5.805 -0.1887 -0.7999 -0.7453
  104MOL0     C14271   0.720  10.755   5.786  0.6685  0.0176  1.0988
  104MOL0     C14272   0.648  10.762   5.667 -0.9195 -0.3161  0.3209
  104MOL0     O14273   0.527  10.704   5.653 -0.3422 -0.1313 -0.5100
  104MOL0     C14274   0.418  10.796   5.671  0.5789  0.4468  0.1196
  104MOL0     C14275   0.301  10.736   5.599 -1.1178  0.9835  0.0992
  104MOL0     C14276   0.198  10.847   5.583 -0.3734  0.5366  0.3935
  104MOL0     C14277   0.073  10.794   5.517 -0.9511  0.0497  0.2583
  104MOL0     C14278   0.101  10.711   5.396  0.5610 -0.1299 -0.1627
  104MOL0     C14279   0.119  10.641   5.294  0.0327  0.2337 -0.3701
  104MOL0     C14280   0.703  10.836   5.562  0.8807  0.2356  0.6926
  104MOL0     C14281   0.821  10.908   5.576  0.8137  0.7400 -0.4131
  104MOL0     C14282   0.874  10.969   5.449  0.5288  0.0392 -0.0485
  104MOL0     H14283   1.210  11.144   5.448  0.7392  1.9454 -1.5767
  104MOL0     H14284   1.439  11.230   5.471 -2.8854 -0.0171 -1.8346
  104MOL0     H14285   1.563  11.439   5.616 -0.1198  0.5393  3.8795
  104MOL0     H14286   1.651  11.300   5.547 -0.4031 -1.0866 -0.0062
  104MOL0     H14287   1.710  11.481   5.796  0.9960 -0.6074 -0.1881
  104MOL0     H14288   1.833  11.357   5.733  0.4219 -1.0376 -4.9696
  104MOL0     H14289   1.883  11.480   5.556 -1.7611 -0.5046 -0.6998
  104MOL0     H14290   1.740  11.586   5.576 -1.6749 -0.8609  1.3270
  104MOL0     H14291   1.878  11.649   5.799  1.5339  2.3361  0.9588
  104MOL0     H14292   2.007  11.540   5.727 -0.1874 -1.0040 -1.7428
  104MOL0     H14293   1.894  11.787   5.578  1.0435  1.7645  1.6982
  104MOL0     H14294   2.037  11.679   5.541  0.6621 -1.8445  0.2689
  104MOL0     H14295   1.989  11.858   5.788  0.2789  1.1951 -0.9231
  104MOL0     H14296   2.137  11.789   5.761  1.4491  1.3981 -1.1069
  104MOL0     H14297   2.165  12.022   5.719  2.5723  0.9922 -1.8512
  104MOL0     H14298   2.052  12.025   5.586  1.0161  2.2685  1.1795
  104MOL0     H14299   2.278  12.021   5.521  3.0063 -1.5969  0.2220
  104MOL0     H14300   2.325  11.882   5.596  1.8335  1.2738 -0.7407
  104MOL0     H14301   2.011  11.920   5.368 -2.4533 -2.3921 -0.9762
  104MOL0     H14302   2.075  11.668   5.055 -0.5000 -1.0245  1.0320
  104MOL0     H14303   2.006  11.823   5.071  0.8860  1.0047  1.2972
  104MOL0     H14304   1.833  11.736   5.247 -1.1963 -4.1192  3.1820
  104MOL0     H14305   1.832  11.660   5.087  2.2506 -0.0575 -1.5170
  104MOL0     H14306   1.987  11.482   5.213  0.2292 -0.8737 -0.4650
  104MOL0     H14307   1.927  11.561   5.361 -1.5733  4.3678 -0.3952
  104MOL0     H14308   1.750  11.470   5.131  1.1139  2.4607  0.0812
  104MOL0     H14309   1.794  11.355   5.253 -0.9951 -1.3751 -4.7065
  104MOL0     H14310   1.594  11.303   5.156 -1.0477 -0.9911 -0.8100
  104MOL0     H14311   1.468  11.176   5.036 -0.9900  0.4763 -2.0610
  104MOL0     H14312   1.305  11.242   5.011  0.6447  1.0471  0.6278
  104MOL0     H14313   1.329  11.113   5.132  2.1252 -0.3332  1.7141
  104MOL0     H14314   0.863  11.296   5.411  0.3378 -0.4105 -0.2557
  104MOL0     H14315   0.621  11.284   5.363  3.1317 -3.4739  0.6772
  104MOL0     H14316   0.447  11.538   5.039  0.4938 -1.6229 -4.2559
  104MOL0     H14317   0.465  11.378   4.971 -0.6831 -0.9956 -0.7149
  104MOL0     H14318   0.238  11.326   5.081 -0.3077 -0.7797 -1.9041
  104MOL0     H14319   0.242  11.500   5.144  0.0517  0.8190 -1.3995
  104MOL0     H14320   0.241  11.421   4.848  2.7100 -0.4856  1.4489
  104MOL0     H14321   0.233  11.577   4.904 -0.9183  0.2110 -2.1510
  104MOL0     H14322   0.036  11.518   5.050 -1.1976  0.3740 -0.6111
  104MOL0     H14323   0.013  11.349   4.993  0.5712 -0.0048  0.7589
  104MOL0     H14324   0.010  11.604   4.830  1.9393 -1.3636 -1.8714
  104MOL0     H14325   0.012  11.455   4.753  2.2972  1.1039  0.4144
  104MOL0     H14326  -0.220  11.540   4.947 -0.6865  0.5261 -0.4890
  104MOL0     H14327  -0.202  11.384   4.878  0.6570 -0.9189 -1.8964
  104MOL0     H14328  -0.235  11.469   4.647 -2.1739 -0.8828 -0.1486
  104MOL0     H14329  -0.254  11.635   4.709 -2.2986 -0.1338 -0.1448
  104MOL0     H14330  -0.432  11.392   4.745  1.1554 -0.9026 -4.5777
  104MOL0     H14331  -0.469  11.550   4.672  1.0528  3.6386  1.4735
  104MOL0     H14332   0.662  11.481   4.989  1.4864 -1.8360 -1.9689
  104MOL0     H14333   0.909  11.511   5.042 -2.1561  1.4802 -0.8830
  104MOL0     H14334   1.235  11.524   5.405  1.6817  2.4254  1.1395
  104MOL0     H14335   1.475  11.596   5.437 -0.7469 -1.6686  1.1292
  104MOL0     H14336   1.403  11.227   5.906  1.2310  0.1996 -0.8975
  104MOL0     H14337   1.165  11.161   5.876 -0.5231  1.9808 -0.9600
  104MOL0     H14338   0.888  10.801   5.894  0.4757 -1.8012 -1.4155
  104MOL0     H14339   0.677  10.694   5.865 -0.2039  0.3885  0.9214
  104MOL0     H14340   0.386  10.801   5.776 -2.0902 -5.0050 -0.0903
  104MOL0     H14341   0.436  10.898   5.634 -0.3175  0.8509  0.7500
  104MOL0     H14342   0.271  10.647   5.656  1.3854  1.4201  2.2742
  104MOL0     H14343   0.338  10.711   5.499  0.9248  2.1328  0.5227
  104MOL0     H14344   0.171  10.881   5.683 -1.6959 -0.4337  0.3870
  104MOL0     H14345   0.248  10.929   5.530  2.3680 -0.4190  1.3107
  104MOL0     H14346   0.017  10.884   5.487  1.0358  1.7633  1.4266
  104MOL0     H14347   0.018  10.729   5.585 -0.2024 -3.2873 -2.0776
  104MOL0     H14348   0.135  10.569   5.217  1.4375 -1.2083  1.1932
  104MOL0     H14349   0.649  10.830   5.468  0.5210  2.1127  0.7535
  104MOL0     H14350   0.861  11.077   5.441  0.8664  0.1287  0.5837
  104MOL0     H14351   0.983  10.954   5.444  0.2819 -2.2076  0.1582
  104MOL0     H14352   0.830  10.913   5.366 -0.2342 -5.0538  3.3224
  105MOL0     O14353   8.303   5.418   0.425  0.4577 -0.7084  0.1445
  105MOL0     C14354   8.257   5.331   0.353 -0.4248 -0.7144  0.5214
  105MOL0     O14355   8.323   5.217   0.331 -0.0078 -0.1521  0.3562
  105MOL0     C14356   8.414   5.168   0.426  0.2799  0.3708  0.1847
  105MOL0     C14357   8.527   5.247   0.474 -0.2792  0.7965 -0.3378
  105MOL0     C14358   8.622   5.188   0.555 -0.2855  0.3185 -0.1164
  105MOL0     C14359   8.605   5.052   0.597 -0.3821  0.2424 -0.2575
  105MOL0     O14360   8.700   4.975   0.676  0.1370  0.3272  0.4054
  105MOL0     C14361   8.836   5.025   0.683  0.2153 -0.7413 -0.0914
  105MOL0     C14362   8.915   4.931   0.761  0.0657  0.0093  0.0066
  105MOL0     C14363   9.046   4.983   0.812 -0.0282  0.5635 -0.4018
  105MOL0     C14364   9.161   4.940   0.719  0.2220 -0.1389  0.4873
  105MOL0     C14365   9.295   4.980   0.780  0.4833  0.4807 -0.4695
  105MOL0     C14366   9.416   4.952   0.689 -0.1026  0.2872 -0.2183
  105MOL0     C14367   9.534   5.023   0.755  0.5328  0.0997 -0.2845
  105MOL0     C14368   9.565   5.172   0.723 -0.2839  0.4852  0.6633
  105MOL0     N14369   9.631   5.197   0.598 -0.3191 -0.2222  0.8599
  105MOL0     C14370   9.767   5.226   0.583 -0.1533  0.3134  0.0329
  105MOL0     C14371   9.797   5.226   0.452 -0.2151  0.0353  0.2799
  105MOL0     C14372   9.929   5.264   0.387  0.5128 -0.5007 -0.8352
  105MOL0     C14373  10.034   5.163   0.428  0.0488  0.3193 -0.4572
  105MOL0     C14374  10.048   5.064   0.315  0.1094  0.6898  0.7215
  105MOL0     C14375  10.142   4.949   0.350 -0.4388  0.0796 -0.3127
  105MOL0     O14376  10.273   5.015   0.348 -0.2447  0.3591  0.0502
  105MOL0     C14377  10.385   4.944   0.399 -0.4657 -0.9933 -0.3154
  105MOL0     C14378  10.377   4.815   0.470  0.8922 -0.4046  0.3665
  105MOL0     C14379  10.496   4.748   0.507  0.7282  0.1067 -0.3236
  105MOL0     C14380  10.484   4.607   0.561 -0.4688  0.3125  0.1924
  105MOL0     C14381  10.626   4.801   0.480  0.2071 -0.7908 -0.2094
  105MOL0     C14382  10.754   4.729   0.516 -0.1377  0.0993  0.5831
  105MOL0     O14383  10.864   4.776   0.453 -0.2377 -0.8495 -0.3348
  105MOL0     C14384  10.987   4.719   0.455 -0.0913 -0.3333  0.0515
  105MOL0     C14385  11.002   4.585   0.441  0.4192  0.5297 -0.2262
  105MOL0     C14386  11.125   4.517   0.423  0.8797 -0.0058 -0.7284
  105MOL0     C14387  11.242   4.600   0.406  0.3988  0.3160 -0.2734
  105MOL0     O14388  11.367   4.557   0.365  0.0312 -0.3862  0.1897
  105MOL0     C14389  11.385   4.416   0.339  0.1589  0.0075  0.8886
  105MOL0     C14390  11.533   4.371   0.299  0.7243 -0.9832  0.4951
  105MOL0     C14391  11.630   4.378   0.416 -0.5508 -0.1714  0.9642
  105MOL0     C14392  11.776   4.375   0.365  0.0564 -0.3710 -0.2370
  105MOL0     C14393  11.863   4.399   0.499  0.5420  0.1119  0.2054
  105MOL0     C14394  12.002   4.432   0.444  0.1906  0.1686 -0.4650
  105MOL0     C14395  12.099   4.464   0.564  0.0980 -0.0663  0.0076
  105MOL0     C14396  12.056   4.592   0.633  0.7475 -0.0686 -0.0248
  105MOL0    Cl14397  12.209   4.627   0.733  0.2346 -0.0146  0.2954
  105MOL0     C14398  11.225   4.739   0.430  0.4202 -0.2642 -1.2495
  105MOL0     C14399  11.098   4.804   0.458  0.3673  0.2154  0.2653
  105MOL0     O14400  10.755   4.663   0.618 -0.7549 -1.0162 -0.3203
  105MOL0     C14401  10.631   4.930   0.421 -0.6235  0.6436  0.8319
  105MOL0     C14402  10.512   4.996   0.380  0.7639  0.2135 -0.2585
  105MOL0     N14403   9.681   5.204   0.389 -0.0926 -0.3625 -0.5489
  105MOL0     N14404   9.582   5.188   0.471  0.0303 -0.4336 -0.0722
  105MOL0     C14405   8.494   4.980   0.558  0.2631 -0.0033  1.6400
  105MOL0     C14406   8.398   5.034   0.465 -0.2018 -0.7020 -0.1224
  105MOL0     C14407   8.132   5.365   0.271  0.2843 -0.0464 -0.2533
  105MOL0     C14408   8.124   5.334   0.133 -0.6401  1.1554 -0.0808
  105MOL0     C14409   8.012   5.361   0.054 -0.1780  0.4706 -0.5860
  105MOL0     C14410   7.893   5.415   0.116  0.1083 -0.0145  0.8448
  105MOL0     O14411   7.771   5.421   0.052  0.6078  0.5081 -0.2175
  105MOL0     C14412   7.746   5.334  -0.057 -0.1873  0.4426 -0.1427
  105MOL0     C14413   7.617   5.395  -0.125  0.5153  0.2606  0.4829
  105MOL0     C14414   7.582   5.310  -0.247 -0.1132 -0.4325 -0.8542
  105MOL0     C14415   7.533   5.166  -0.220  0.1411 -0.2364  0.5112
  105MOL0     C14416   7.391   5.161  -0.189 -0.2804 -0.0310 -0.0326
  105MOL0     C14417   7.274   5.156  -0.167  0.6359  0.3698 -0.6005
  105MOL0     C14418   7.900   5.452   0.245 -0.1372  0.5762 -0.6312
  105MOL0     C14419   8.019   5.436   0.323  0.6923  1.1116 -0.5893
  105MOL0     C14420   8.001   5.479   0.465 -0.3185  0.7519 -0.4912
  105MOL0     H14421   8.529   5.354   0.457 -2.0280  1.1564  1.3310
  105MOL0     H14422   8.712   5.244   0.576 -0.2111 -0.4105  1.7555
  105MOL0     H14423   8.837   5.117   0.743  1.1200 -0.6728 -0.1961
  105MOL0     H14424   8.887   5.056   0.591 -0.0774 -0.4371 -0.1555
  105MOL0     H14425   8.858   4.884   0.842  0.6919 -2.0888 -0.7058
  105MOL0     H14426   8.929   4.847   0.692 -4.5602 -1.0126  0.0204
  105MOL0     H14427   9.035   5.091   0.813 -2.5223  0.3757  1.3803
  105MOL0     H14428   9.058   4.950   0.916 -2.4500 -2.6754 -0.9782
  105MOL0     H14429   9.148   4.834   0.694  0.5235  0.2443 -1.4119
  105MOL0     H14430   9.152   4.985   0.620  3.0400 -0.3464  0.0494
  105MOL0     H14431   9.300   4.924   0.874  0.4365  1.0193 -0.1453
  105MOL0     H14432   9.287   5.086   0.807  0.3182  0.6043 -0.9930
  105MOL0     H14433   9.445   4.847   0.691  0.5372  0.4583 -0.2870
  105MOL0     H14434   9.411   4.978   0.583 -0.9035  2.1952  0.2289
  105MOL0     H14435   9.630   4.977   0.731  0.6086 -0.0355  0.2849
  105MOL0     H14436   9.535   5.026   0.864  1.5743  1.2263 -0.3020
  105MOL0     H14437   9.474   5.229   0.704 -0.7380 -0.9973 -2.2411
  105MOL0     H14438   9.629   5.209   0.803  1.0859  0.6887 -0.4973
  105MOL0     H14439   9.839   5.231   0.665  0.2259  1.5127 -0.3534
  105MOL0     H14440   9.964   5.361   0.423  1.5344 -1.1405 -0.0364
  105MOL0     H14441   9.917   5.261   0.278  0.6290 -2.9071 -0.8409
  105MOL0     H14442  10.121   5.222   0.459  0.4189 -0.8854  0.9264
  105MOL0     H14443  10.001   5.104   0.514  2.2656 -0.0021  0.2348
  105MOL0     H14444   9.958   5.015   0.275  1.1198 -1.9759  1.5000
  105MOL0     H14445  10.098   5.113   0.230  0.8567 -4.4236 -2.2238
  105MOL0     H14446  10.122   4.916   0.453  3.5603 -1.6904  0.0842
  105MOL0     H14447  10.140   4.861   0.285 -3.5250 -3.0407  3.4470
  105MOL0     H14448  10.284   4.762   0.489  1.3410 -1.4185 -0.1386
  105MOL0     H14449  10.379   4.576   0.566 -0.1106 -1.0576 -0.4060
  105MOL0     H14450  10.537   4.593   0.656  0.4519  0.0976 -0.3435
  105MOL0     H14451  10.549   4.547   0.497 -0.5087  0.3030  0.1598
  105MOL0     H14452  10.912   4.524   0.434  0.3771  0.4347  0.9729
  105MOL0     H14453  11.124   4.411   0.401  0.3827  0.4295 -3.0055
  105MOL0     H14454  11.352   4.359   0.427  1.1460 -0.4390  0.9894
  105MOL0     H14455  11.322   4.392   0.253 -0.4311  0.9081  1.0603
  105MOL0     H14456  11.527   4.268   0.262 -1.0901 -0.1097 -1.9220
  105MOL0     H14457  11.576   4.429   0.216 -2.9458 -1.3966 -1.9261
  105MOL0     H14458  11.626   4.288   0.477  1.6286 -2.1032 -1.4724
  105MOL0     H14459  11.616   4.469   0.476 -0.3399  0.8216 -0.4355
  105MOL0     H14460  11.799   4.445   0.284 -3.8289 -1.1168 -2.2173
  105MOL0     H14461  11.795   4.275   0.326 -2.7216 -1.0727 -0.0337
  105MOL0     H14462  11.819   4.482   0.554 -0.7542  0.8352 -1.7944
  105MOL0     H14463  11.871   4.311   0.563  2.7588  0.8491  1.0285
  105MOL0     H14464  12.005   4.515   0.372  0.0802  0.6568  0.0872
  105MOL0     H14465  12.025   4.343   0.386 -5.1442 -1.2990 -0.8732
  105MOL0     H14466  12.201   4.479   0.526  0.4464  2.7615  1.8135
  105MOL0     H14467  12.098   4.384   0.638 -1.5508 -0.2057 -0.1256
  105MOL0     H14468  11.966   4.571   0.691  1.2796 -0.4519  0.6760
  105MOL0     H14469  12.038   4.675   0.565  3.7932  0.4616 -0.3151
  105MOL0     H14470  11.323   4.785   0.445  1.2116 -2.1926 -0.1920
  105MOL0     H14471  11.094   4.910   0.481  1.0252  0.6755 -1.5872
  105MOL0     H14472  10.719   4.986   0.393 -0.7912  0.7898  0.5908
  105MOL0     H14473  10.518   5.088   0.324 -1.8926  1.5388  1.4354
  105MOL0     H14474   8.463   4.885   0.602 -2.1914 -0.1803 -0.2904
  105MOL0     H14475   8.307   4.986   0.431  0.6033 -1.1520 -1.7412
  105MOL0     H14476   8.208   5.277   0.092 -0.5743  1.2968 -0.1427
  105MOL0     H14477   8.010   5.315  -0.044 -1.9353 -0.8513  0.0082
  105MOL0     H14478   7.829   5.326  -0.127  1.5477 -1.1760  1.9337
  105MOL0     H14479   7.726   5.232  -0.021  1.2507 -0.5737 -2.0694
  105MOL0     H14480   7.635   5.499  -0.154 -0.2565  0.0017 -1.0287
  105MOL0     H14481   7.534   5.410  -0.056  0.6120  2.8840  0.1335
  105MOL0     H14482   7.503   5.365  -0.299 -0.5134  0.7664  0.9053
  105MOL0     H14483   7.670   5.302  -0.310  1.2699 -0.3283  0.9766
  105MOL0     H14484   7.582   5.119  -0.134  0.6211 -0.0377  0.3540
  105MOL0     H14485   7.545   5.114  -0.315  0.0739  0.0491  0.3459
  105MOL0     H14486   7.169   5.138  -0.165  0.5758  0.7524 -0.0506
  105MOL0     H14487   7.811   5.489   0.295 -0.1188  0.4662 -0.5180
  105MOL0     H14488   7.931   5.563   0.476 -2.6675 -1.0374 -0.8650
  105MOL0     H14489   7.956   5.396   0.519 -1.7190  0.6018 -1.8061
  105MOL0     H14490   8.100   5.502   0.505  0.0636  0.8782 -1.4694
  106MOL0     O14491   8.350   7.913   9.376 -0.2151 -0.4601 -0.4646
  106MOL0     C14492   8.356   7.971   9.264  0.2398 -0.0052 -0.4112
  106MOL0     O14493   8.471   8.036   9.221  0.0582  0.0325  0.0904
  106MOL0     C14494   8.561   8.058   9.321 -0.0538  0.2828  0.6750
  106MOL0     C14495   8.560   8.187   9.379  0.8202  0.6873  0.1991
  106MOL0     C14496   8.669   8.228   9.458  0.1081 -0.5271 -0.0067
  106MOL0     C14497   8.780   8.143   9.487 -0.2507 -0.5176 -0.3660
  106MOL0     O14498   8.885   8.190   9.560 -0.6104 -0.2954 -0.3753
  106MOL0     C14499   8.996   8.108   9.587 -0.4205 -0.4071 -0.9704
  106MOL0     C14500   9.117   8.195   9.641  0.1031  0.2049  1.3168
  106MOL0     C14501   9.233   8.094   9.693 -0.0840  0.1699 -0.1016
  106MOL0     C14502   9.318   8.179   9.792  0.3165  0.3477  0.0223
  106MOL0     C14503   9.416   8.103   9.883 -0.2607  0.3418 -0.0601
  106MOL0     C14504   9.532   8.047   9.797  0.4622  0.2598 -0.5094
  106MOL0     C14505   9.640   7.976   9.883 -0.0258 -0.7535 -0.7199
  106MOL0     C14506   9.621   7.839   9.945 -0.3170 -0.3074  0.1949
  106MOL0     N14507   9.662   7.838  10.091  0.7113 -0.3952 -0.6173
  106MOL0     C14508   9.780   7.806  10.144  0.0497 -0.4903  0.9288
  106MOL0     C14509   9.766   7.803  10.279 -0.1657  0.6897 -0.2568
  106MOL0     C14510   9.879   7.777  10.380  0.1849  0.5985 -0.2078
  106MOL0     C14511  10.000   7.858  10.363 -0.3654 -0.5896 -0.0518
  106MOL0     C14512  10.105   7.816  10.471  0.2205  0.2446  0.2123
  106MOL0     C14513  10.245   7.867  10.440  0.0108 -0.3924 -0.1045
  106MOL0     O14514  10.350   7.776  10.498 -0.4437 -0.4241  0.2903
  106MOL0     C14515  10.484   7.808  10.468  0.2103  0.2525 -0.4950
  106MOL0     C14516  10.578   7.712  10.514  0.1283  0.3300 -0.1862
  106MOL0     C14517  10.714   7.721  10.499  0.2012 -0.6730  0.7891
  106MOL0     C14518  10.805   7.619  10.555 -0.9250 -0.5273 -0.1483
  106MOL0     C14519  10.763   7.840  10.428  0.6890  0.4191  0.6336
  106MOL0     C14520  10.915   7.867  10.403 -0.4704  0.6655 -0.4365
  106MOL0     O14521  10.953   7.993  10.409 -0.5652 -0.0532 -0.2987
  106MOL0     C14522  11.071   8.039  10.376  0.2427  0.3141  0.2322
  106MOL0     C14523  11.097   8.164  10.431  0.1670  0.5163 -0.9324
  106MOL0     C14524  11.223   8.223  10.415  0.8830  0.2584  0.1608
  106MOL0     C14525  11.327   8.161  10.338 -0.2979  0.5368  0.7062
  106MOL0     O14526  11.446   8.225  10.308  0.2753 -0.3433 -0.7082
  106MOL0     C14527  11.470   8.350  10.381 -0.2726 -0.4543  0.1302
  106MOL0     C14528  11.612   8.396  10.354 -1.0196  0.2581 -0.6667
  106MOL0     C14529  11.617   8.549  10.388  0.7745  0.9057  0.3011
  106MOL0     C14530  11.761   8.598  10.342 -0.2355 -0.6286  0.2435
  106MOL0     C14531  11.855   8.588  10.461 -0.4086 -0.1546 -0.2408
  106MOL0     C14532  11.991   8.641  10.435 -0.2597  0.2775  0.2673
  106MOL0     C14533  12.106   8.599  10.536  0.6802  0.6322 -0.9207
  106MOL0     C14534  12.088   8.681  10.671  0.2383  0.0418  0.9235
  106MOL0    Cl14535  12.173   8.586  10.801 -0.0254 -0.6847 -0.2244
  106MOL0     C14536  11.299   8.030  10.292 -1.1382 -0.2677  0.4422
  106MOL0     C14537  11.170   7.970  10.297  0.1427  0.3016  0.0142
  106MOL0     O14538  10.987   7.767  10.380 -0.6922 -0.0678  1.0045
  106MOL0     C14539  10.670   7.934  10.375  0.2755 -0.5816  0.0373
  106MOL0     C14540  10.531   7.920  10.393 -0.0663  0.3075 -0.2104
  106MOL0     N14541   9.634   7.815  10.306 -0.4509 -0.1074 -0.0883
  106MOL0     N14542   9.571   7.839  10.194  0.1505 -1.0941 -0.3984
  106MOL0     C14543   8.775   8.008   9.433  0.1539 -0.0391 -0.2718
  106MOL0     C14544   8.672   7.966   9.354  0.2964  0.1549  0.4346
  106MOL0     C14545   8.250   7.960   9.163  0.0608  0.2498 -0.7688
  106MOL0     C14546   8.274   7.982   9.026 -0.1259 -0.7621 -0.4366
  106MOL0     C14547   8.165   7.976   8.931 -0.5916 -0.0237  0.0085
  106MOL0     C14548   8.041   7.925   8.974  0.0258  0.3800  0.3640
  106MOL0     O14549   7.935   7.913   8.889  0.1520 -0.5175 -0.7727
  106MOL0     C14550   7.931   7.970   8.754  0.0985  0.1341 -0.9069
  106MOL0     C14551   7.799   7.939   8.684 -0.1962 -0.3328  0.1204
  106MOL0     C14552   7.754   7.792   8.678 -0.0998 -0.2765  0.5728
  106MOL0     C14553   7.849   7.698   8.597  0.7900 -0.2736  1.1674
  106MOL0     C14554   7.827   7.691   8.453 -0.3696  0.4115 -0.6349
  106MOL0     C14555   7.831   7.699   8.333 -1.2874  0.1481  1.1470
  106MOL0     C14556   8.018   7.893   9.105 -0.2229  0.7553  0.3531
  106MOL0     C14557   8.117   7.921   9.200 -1.2325 -0.2877  0.7956
  106MOL0     C14558   8.058   7.897   9.338 -0.3157 -0.3493  0.4733
  106MOL0     H14559   8.476   8.253   9.356 -2.2760 -2.7202  0.8450
  106MOL0     H14560   8.671   8.331   9.489  3.2456 -0.7303  0.8191
  106MOL0     H14561   9.032   8.053   9.499  0.4663  2.5956 -2.6119
  106MOL0     H14562   8.960   8.035   9.660 -1.6623  1.3495  0.2443
  106MOL0     H14563   9.159   8.261   9.565  2.2225 -1.5855  0.8545
  106MOL0     H14564   9.079   8.256   9.724  0.3985  0.6952  1.0920
  106MOL0     H14565   9.191   8.011   9.750  1.2193 -0.9630 -0.7056
  106MOL0     H14566   9.285   8.056   9.604 -0.9490 -1.3434 -0.0012
  106MOL0     H14567   9.379   8.246   9.730  1.3693 -1.7781 -1.3758
  106MOL0     H14568   9.256   8.238   9.860 -0.1847  0.9839 -0.9667
  106MOL0     H14569   9.374   8.023   9.945  2.2100  0.0029  1.2993
  106MOL0     H14570   9.466   8.179   9.944  1.9686 -0.7096 -0.4655
  106MOL0     H14571   9.490   7.974   9.727 -0.2941 -0.3884  0.5906
  106MOL0     H14572   9.578   8.123   9.733 -0.2439  0.1020 -1.2144
  106MOL0     H14573   9.675   8.050   9.955 -2.0811  0.2951 -0.7325
  106MOL0     H14574   9.724   7.960   9.815 -0.1465 -0.8547 -0.8443
  106MOL0     H14575   9.515   7.818   9.930  0.1868 -2.2888 -0.9516
  106MOL0     H14576   9.678   7.773   9.879 -1.1468 -0.7880 -0.0642
  106MOL0     H14577   9.871   7.787  10.089 -1.4407  1.3659 -2.4508
  106MOL0     H14578   9.911   7.672  10.371 -1.7902  0.0448 -1.4721
  106MOL0     H14579   9.832   7.786  10.478 -0.3695  1.2823 -0.5302
  106MOL0     H14580  10.042   7.828  10.266 -0.6881  1.2583 -0.8205
  106MOL0     H14581   9.976   7.965  10.363 -0.7029 -0.6544 -1.0761
  106MOL0     H14582  10.079   7.862  10.566  1.1727 -1.7911  1.5214
  106MOL0     H14583  10.116   7.707  10.474  0.1471  0.2620  1.3925
  106MOL0     H14584  10.262   7.878  10.333  1.6340  1.5369  0.2861
  106MOL0     H14585  10.242   7.967  10.485 -1.8497 -1.0683  1.3910
  106MOL0     H14586  10.554   7.635  10.587  6.0828 -0.8425  1.0727
  106MOL0     H14587  10.835   7.556  10.470 -0.6949  0.9008 -1.1589
  106MOL0     H14588  10.756   7.560  10.633  0.5722  1.0192  2.0679
  106MOL0     H14589  10.896   7.667  10.592 -1.0498  1.5405 -2.3144
  106MOL0     H14590  11.031   8.211  10.503 -0.1013  1.4051 -1.7354
  106MOL0     H14591  11.239   8.325  10.449 -2.4187  0.8785  0.2279
  106MOL0     H14592  11.393   8.423  10.353 -1.2843 -1.7268 -0.5503
  106MOL0     H14593  11.473   8.329  10.488  2.0329 -4.3292 -0.4984
  106MOL0     H14594  11.672   8.345  10.429 -1.3592  1.0273  0.1423
  106MOL0     H14595  11.650   8.372  10.254 -1.3358 -3.3480 -0.0256
  106MOL0     H14596  11.585   8.568  10.490 -0.1753 -0.5468  0.3095
  106MOL0     H14597  11.542   8.599  10.325  0.4434 -1.2620 -1.1712
  106MOL0     H14598  11.766   8.703  10.310 -0.0935 -0.9405 -0.8055
  106MOL0     H14599  11.808   8.547  10.257 -2.3931  3.2805 -3.6861
  106MOL0     H14600  11.804   8.653  10.533 -2.0418  0.6702 -2.0676
  106MOL0     H14601  11.854   8.489  10.510 -2.0302 -0.0177  0.0636
  106MOL0     H14602  11.973   8.749  10.441 -0.2582  0.2966 -0.0488
  106MOL0     H14603  12.031   8.602  10.341  1.0608 -0.9139  1.2860
  106MOL0     H14604  12.200   8.619  10.485  1.0091 -1.2477 -1.1357
  106MOL0     H14605  12.115   8.493  10.562  1.5951  1.4410  2.7062
  106MOL0     H14606  11.981   8.684  10.693  0.6038  0.0643  2.8197
  106MOL0     H14607  12.136   8.779  10.673  0.6935 -0.1861  2.1158
  106MOL0     H14608  11.373   7.981  10.230 -0.7490  1.1875 -0.3108
  106MOL0     H14609  11.155   7.871  10.254  0.0582 -0.6740  2.1817
  106MOL0     H14610  10.703   8.024  10.323 -0.0167 -0.1732  0.5496
  106MOL0     H14611  10.465   8.000  10.359 -0.8115  0.6558  1.9112
  106MOL0     H14612   8.846   7.929   9.455  2.0668  1.9971  1.2366
  106MOL0     H14613   8.662   7.864   9.319  0.6175  0.5877 -0.9903
  106MOL0     H14614   8.374   8.009   8.995 -0.6190 -1.2917 -2.6051
  106MOL0     H14615   8.197   8.001   8.830 -0.6278 -0.8179 -0.2028
  106MOL0     H14616   7.941   8.077   8.773 -1.7323  0.4711 -1.5698
  106MOL0     H14617   8.014   7.932   8.694  0.9792 -0.4169  0.6072
  106MOL0     H14618   7.789   7.976   8.581 -1.2004  1.7389  0.9048
  106MOL0     H14619   7.721   7.992   8.740  0.4672 -1.0257  1.7693
  106MOL0     H14620   7.759   7.742   8.775  0.0132 -2.2511 -0.4054
  106MOL0     H14621   7.650   7.796   8.644 -0.1542  0.9159  0.8460
  106MOL0     H14622   7.840   7.596   8.636  0.2253  0.3783  2.7990
  106MOL0     H14623   7.956   7.723   8.601  0.7858 -0.1249  0.4809
  106MOL0     H14624   7.819   7.701   8.227 -0.0780  1.5201  1.0028
  106MOL0     H14625   7.916   7.867   9.132 -0.5618  1.0210 -0.6219
  106MOL0     H14626   7.951   7.917   9.347  0.1298  2.8445  0.0360
  106MOL0     H14627   8.070   7.792   9.365  0.4834 -0.7231 -1.2394
  106MOL0     H14628   8.101   7.964   9.414  0.8437 -1.7262  1.0610
  107MOL0     O14629   4.397   1.435   4.722 -0.2102  0.3263  0.2551
  107MOL0     C14630   4.323   1.513   4.663  0.9064 -0.4879 -0.4692
  107MOL0     O14631   4.220   1.579   4.723  0.6755 -0.2948 -0.0384
  107MOL0     C14632   4.202   1.563   4.858  0.1082  0.4215 -0.4028
  107MOL0     C14633   4.073   1.506   4.882 -0.7303  0.0108 -0.7217
  107MOL0     C14634   4.043   1.449   5.008  0.3958 -1.2569  0.1414
  107MOL0     C14635   4.127   1.462   5.119 -0.5030 -0.1753  0.1981
  107MOL0     O14636   4.097   1.409   5.242  0.8880  1.0068 -0.1517
  107MOL0     C14637   4.018   1.498   5.318  1.0005 -1.2874  0.2183
  107MOL0     C14638   4.028   1.434   5.452  0.1486  0.1918  0.0104
  107MOL0     C14639   4.001   1.518   5.579  0.0343 -0.8478  0.4634
  107MOL0     C14640   4.093   1.639   5.602  0.9850 -0.6133  0.4954
  107MOL0     C14641   4.243   1.591   5.616  0.7256  0.2718  0.1644
  107MOL0     C14642   4.331   1.715   5.620  0.1659 -0.1450  0.4450
  107MOL0     C14643   4.483   1.702   5.660 -0.3031  0.6131 -0.4942
  107MOL0     C14644   4.507   1.679   5.810  0.3528 -0.4484  0.1793
  107MOL0     N14645   4.489   1.802   5.888  0.0185  0.7826  0.5563
  107MOL0     C14646   4.367   1.853   5.927  0.2421 -0.1776  0.1083
  107MOL0     C14647   4.393   1.974   5.994 -0.4887 -0.1366 -0.8115
  107MOL0     C14648   4.305   2.073   6.058  0.1791 -0.2887 -0.3324
  107MOL0     C14649   4.336   2.219   6.009 -0.1726  0.3403  0.1888
  107MOL0     C14650   4.228   2.322   6.049  0.1579 -0.0618  0.1413
  107MOL0     C14651   4.236   2.361   6.193 -0.8774 -0.9081 -0.3414
  107MOL0     O14652   4.361   2.416   6.231 -0.2579  0.0902 -0.5153
  107MOL0     C14653   4.384   2.431   6.363  0.7852 -0.4241 -0.4073
  107MOL0     C14654   4.512   2.475   6.406 -0.7351  0.4015  0.5357
  107MOL0     C14655   4.535   2.495   6.547  0.2518  0.3273 -0.6031
  107MOL0     C14656   4.681   2.547   6.574  0.8955  0.0896 -0.6992
  107MOL0     C14657   4.449   2.449   6.639  0.4030  0.6165  0.5221
  107MOL0     C14658   4.471   2.454   6.787  0.3386  0.3125 -0.5068
  107MOL0     O14659   4.375   2.373   6.853  0.2851  0.6810  0.2132
  107MOL0     C14660   4.344   2.398   6.980  0.3962  0.1023  0.3086
  107MOL0     C14661   4.374   2.515   7.058  0.2546  0.0141 -0.4176
  107MOL0     C14662   4.329   2.533   7.186  0.1731  0.6682  0.0372
  107MOL0     C14663   4.229   2.457   7.233 -0.0410  0.5481 -0.1168
  107MOL0     O14664   4.165   2.462   7.354  0.2279 -0.2165  0.1042
  107MOL0     C14665   4.194   2.565   7.455  0.3549  0.0590 -0.5930
  107MOL0     C14666   4.108   2.694   7.439  0.4434 -0.3580  0.3045
  107MOL0     C14667   3.957   2.669   7.438  0.2007  0.3361  0.1587
  107MOL0     C14668   3.888   2.809   7.417  0.0486  0.5746  0.9026
  107MOL0     C14669   3.739   2.792   7.459  0.4427 -0.0794  0.3999
  107MOL0     C14670   3.672   2.932   7.487  0.0200 -0.1312 -0.0605
  107MOL0     C14671   3.531   2.898   7.546 -0.4330 -0.6136 -0.1961
  107MOL0     C14672   3.480   2.990   7.655  0.1042 -1.0274 -0.5331
  107MOL0    Cl14673   3.477   3.154   7.590 -0.0639 -0.1612  0.0975
  107MOL0     C14674   4.191   2.340   7.168 -0.3803 -0.1403 -0.1094
  107MOL0     C14675   4.247   2.310   7.044 -0.1440 -0.8716 -0.4042
  107MOL0     O14676   4.564   2.518   6.839  0.1445  0.3783 -0.7542
  107MOL0     C14677   4.323   2.410   6.594  0.7660  0.6061 -0.3585
  107MOL0     C14678   4.289   2.406   6.460  0.1136 -0.9879  0.2166
  107MOL0     N14679   4.532   1.996   5.985  0.2776  1.2444 -0.0045
  107MOL0     N14680   4.590   1.890   5.930 -0.7486  0.4290  0.5655
  107MOL0     C14681   4.250   1.528   5.089 -0.2486  0.2243  0.7794
  107MOL0     C14682   4.286   1.584   4.964  0.2843  0.4789  0.1460
  107MOL0     C14683   4.333   1.526   4.516 -0.4502 -0.2820  0.8654
  107MOL0     C14684   4.223   1.556   4.439  0.9887  0.4553  0.3754
  107MOL0     C14685   4.222   1.572   4.303  0.8975  0.4651 -0.7045
  107MOL0     C14686   4.342   1.562   4.227  0.6750 -0.7270 -0.6402
  107MOL0     O14687   4.346   1.600   4.095 -0.3601  0.1383  0.1566
  107MOL0     C14688   4.401   1.492   4.017  0.2725 -0.2456 -1.3172
  107MOL0     C14689   4.374   1.502   3.865  0.4318 -0.4794 -0.0590
  107MOL0     C14690   4.223   1.503   3.825  0.7384 -0.3123  0.7671
  107MOL0     C14691   4.205   1.535   3.679 -0.7174  0.4780  0.3042
  107MOL0     C14692   4.073   1.575   3.638  0.2798 -0.3893  0.5568
  107MOL0     C14693   3.972   1.621   3.586 -0.4202 -0.6960  0.6923
  107MOL0     C14694   4.455   1.521   4.300  0.1560 -0.2641 -0.7263
  107MOL0     C14695   4.453   1.502   4.443 -0.5665  0.3072  0.3572
  107MOL0     C14696   4.586   1.458   4.511  0.1711 -0.4291  0.5512
  107MOL0     H14697   4.001   1.483   4.804 -1.2582 -3.6552  0.6628
  107MOL0     H14698   3.940   1.418   5.023  0.7112 -1.0717  3.2855
  107MOL0     H14699   3.914   1.511   5.285  0.7803 -1.8503  0.6588
  107MOL0     H14700   4.062   1.598   5.322 -0.1285 -0.6508 -1.8862
  107MOL0     H14701   3.969   1.342   5.449 -0.5072  0.5661 -3.4945
  107MOL0     H14702   4.126   1.386   5.461 -0.6631 -1.3668  0.9538
  107MOL0     H14703   3.898   1.546   5.557 -0.3894 -0.6459  2.4870
  107MOL0     H14704   4.007   1.455   5.668  0.9006 -0.6962  0.5249
  107MOL0     H14705   4.080   1.711   5.521  2.3987  0.3292  1.0779
  107MOL0     H14706   4.070   1.693   5.694 -1.4099 -0.0436 -0.3753
  107MOL0     H14707   4.275   1.515   5.544 -0.8312 -0.2277 -0.0428
  107MOL0     H14708   4.251   1.535   5.710 -0.2554 -2.0791 -1.0662
  107MOL0     H14709   4.320   1.754   5.519 -0.1177  1.6904  1.1543
  107MOL0     H14710   4.285   1.799   5.673  2.0700  1.7496 -0.7385
  107MOL0     H14711   4.532   1.796   5.635 -0.1286  0.3138 -1.3157
  107MOL0     H14712   4.523   1.619   5.602 -0.6926 -0.0646  0.1868
  107MOL0     H14713   4.459   1.590   5.852  0.1099 -0.5514 -0.2967
  107MOL0     H14714   4.612   1.657   5.830  0.2826 -0.0297  1.0624
  107MOL0     H14715   4.266   1.816   5.910  0.2010  0.3942 -1.0118
  107MOL0     H14716   4.319   2.067   6.166 -0.6090 -0.7211 -0.2453
  107MOL0     H14717   4.200   2.048   6.037 -0.0708 -1.3495  1.8820
  107MOL0     H14718   4.436   2.251   6.038  0.6612 -0.1936 -1.8856
  107MOL0     H14719   4.331   2.213   5.900  1.0921  0.3227  0.1220
  107MOL0     H14720   4.244   2.412   5.988  1.0253  0.1113  0.6243
  107MOL0     H14721   4.126   2.285   6.035  0.9482 -2.5223  0.3978
  107MOL0     H14722   4.166   2.445   6.205 -0.7654 -0.8675  0.0486
  107MOL0     H14723   4.211   2.267   6.244 -1.2552 -1.3570 -1.3279
  107MOL0     H14724   4.589   2.487   6.331  0.8684 -1.4068  1.8159
  107MOL0     H14725   4.668   2.652   6.603  1.1620 -0.5634  2.0525
  107MOL0     H14726   4.742   2.539   6.483  0.3996 -1.2299 -0.9271
  107MOL0     H14727   4.725   2.496   6.660 -1.3592  0.1190  0.5371
  107MOL0     H14728   4.443   2.586   7.012 -0.3304  0.5436 -0.4796
  107MOL0     H14729   4.366   2.613   7.249 -1.1674 -0.0962  1.9026
  107MOL0     H14730   4.160   2.521   7.549  1.5447 -1.8240 -0.9873
  107MOL0     H14731   4.302   2.585   7.460  0.2036  0.5715  0.9290
  107MOL0     H14732   4.138   2.761   7.520 -0.8265 -1.2618  1.5870
  107MOL0     H14733   4.138   2.740   7.345 -1.0210  0.8128  0.3800
  107MOL0     H14734   3.922   2.635   7.536  0.0380 -1.3523 -0.4588
  107MOL0     H14735   3.929   2.596   7.361 -0.1888  3.3937 -2.8336
  107MOL0     H14736   3.887   2.844   7.313 -1.4580 -0.1276  0.6545
  107MOL0     H14737   3.940   2.881   7.480 -0.4899 -1.9515  4.5689
  107MOL0     H14738   3.687   2.739   7.379  0.3226  0.7260 -0.0577
  107MOL0     H14739   3.738   2.732   7.551  0.4149 -0.7883 -0.0501
  107MOL0     H14740   3.671   3.001   7.402  0.5554  0.2016  0.1956
  107MOL0     H14741   3.736   2.977   7.564  1.0527 -2.1689  0.3343
  107MOL0     H14742   3.531   2.803   7.600  1.4747  0.2164  1.4093
  107MOL0     H14743   3.458   2.901   7.465  0.2472 -2.1290 -0.8839
  107MOL0     H14744   3.549   2.982   7.740  1.3555  2.8672 -0.9642
  107MOL0     H14745   3.378   2.958   7.677  0.4486 -0.9197  1.4444
  107MOL0     H14746   4.103   2.284   7.198  0.4157 -0.9546  0.7905
  107MOL0     H14747   4.195   2.229   6.993  1.0898 -1.4905 -0.7302
  107MOL0     H14748   4.244   2.377   6.660  0.8596  1.0732 -0.0051
  107MOL0     H14749   4.187   2.368   6.453  0.6452 -2.3391 -0.7092
  107MOL0     H14750   4.323   1.522   5.169  3.0475 -1.5076 -2.0884
  107MOL0     H14751   4.383   1.633   4.964 -0.1801  1.5865  2.4329
  107MOL0     H14752   4.123   1.568   4.479  1.1147  3.8894 -0.0352
  107MOL0     H14753   4.131   1.608   4.256  0.2085 -0.7794 -0.3638
  107MOL0     H14754   4.509   1.483   4.032 -0.1051 -0.7351  1.8888
  107MOL0     H14755   4.353   1.398   4.049  2.1102 -0.1480  2.1952
  107MOL0     H14756   4.436   1.425   3.819 -0.5022 -0.8855 -0.6618
  107MOL0     H14757   4.421   1.595   3.831 -0.6943  0.6635  1.4046
  107MOL0     H14758   4.168   1.414   3.856 -0.9873  0.7882  1.0198
  107MOL0     H14759   4.174   1.584   3.880 -1.1431 -1.9532  1.6606
  107MOL0     H14760   4.210   1.439   3.627  0.0742  0.0842  1.0699
  107MOL0     H14761   4.280   1.607   3.645  0.7723 -0.4831  1.4214
  107MOL0     H14762   3.882   1.663   3.544  0.0191  1.4036  1.7081
  107MOL0     H14763   4.552   1.508   4.253  1.6795 -0.8701  2.3855
  107MOL0     H14764   4.563   1.377   4.582 -0.7149 -1.6821 -1.0989
  107MOL0     H14765   4.645   1.399   4.440  0.7200 -0.3166  0.9079
  107MOL0     H14766   4.638   1.542   4.558 -4.4570  1.0444  3.7592
  108MOL0     O14767   5.098   8.865   6.813  0.1340  0.0861  0.2480
  108MOL0     C14768   5.140   8.752   6.823  1.1980 -0.4686 -0.0830
  108MOL0     O14769   5.267   8.713   6.797  0.2543  0.1071 -0.1519
  108MOL0     C14770   5.366   8.798   6.761 -0.0278 -0.3273 -0.0591
  108MOL0     C14771   5.356   8.891   6.656 -0.2309  0.8196  0.3174
  108MOL0     C14772   5.468   8.964   6.622  0.0050 -0.2428 -0.2160
  108MOL0     C14773   5.589   8.955   6.700 -0.2217 -0.3951 -0.1148
  108MOL0     O14774   5.685   9.047   6.661 -0.3208  0.2037  0.7379
  108MOL0     C14775   5.823   9.034   6.695 -0.0477 -0.7484  0.1789
  108MOL0     C14776   5.845   9.141   6.796 -0.4672 -0.2489 -0.4878
  108MOL0     C14777   5.988   9.155   6.848  0.6975  0.1157 -0.1483
  108MOL0     C14778   5.994   9.272   6.955 -0.4273  0.9112 -0.3154
  108MOL0     C14779   6.141   9.295   6.972 -0.1960  0.6862 -0.1531
  108MOL0     C14780   6.171   9.382   7.094 -0.8419  0.6190  0.4801
  108MOL0     C14781   6.319   9.376   7.131  0.1680  0.4097  0.0465
  108MOL0     C14782   6.418   9.427   7.024  0.8658 -0.3448  1.1074
  108MOL0     N14783   6.558   9.405   7.059  0.1690 -0.1114  0.3716
  108MOL0     C14784   6.622   9.474   7.153 -0.9344  0.3678 -1.1621
  108MOL0     C14785   6.759   9.443   7.136 -0.0674 -0.1245  0.6705
  108MOL0     C14786   6.872   9.508   7.206 -0.1155 -0.4969  0.0383
  108MOL0     C14787   6.992   9.411   7.245  0.2804 -0.1757  0.3906
  108MOL0     C14788   7.112   9.503   7.272  0.3344 -0.1990  0.9989
  108MOL0     C14789   7.202   9.520   7.148  0.4230 -0.2880 -0.5523
  108MOL0     O14790   7.309   9.614   7.178  0.1240 -0.6041 -0.3784
  108MOL0     C14791   7.408   9.568   7.266  0.2545  1.2688 -0.1703
  108MOL0     C14792   7.458   9.658   7.358 -0.5943  0.1355  0.3014
  108MOL0     C14793   7.547   9.621   7.461  0.2441  0.6304 -0.1223
  108MOL0     C14794   7.596   9.715   7.572  1.1926 -0.0358 -0.0455
  108MOL0     C14795   7.595   9.489   7.460  1.1313 -1.0040 -0.3244
  108MOL0     C14796   7.701   9.443   7.539  0.6166 -0.3635 -0.5005
  108MOL0     O14797   7.807   9.526   7.562 -0.4046  0.1251  0.1144
  108MOL0     C14798   7.895   9.494   7.660  0.0479  0.0385 -0.3945
  108MOL0     C14799   7.898   9.568   7.779 -0.5045 -0.5470  0.1082
  108MOL0     C14800   7.983   9.523   7.878 -0.4678  1.2738 -0.4445
  108MOL0     C14801   8.074   9.409   7.866  0.1881  0.2147 -0.8826
  108MOL0     O14802   8.176   9.386   7.948 -0.8806  0.0740 -0.8026
  108MOL0     C14803   8.285   9.481   7.958 -0.2698 -0.2589  0.5364
  108MOL0     C14804   8.389   9.429   8.056 -0.8509  1.2340 -0.4838
  108MOL0     C14805   8.501   9.520   8.068 -0.8486 -1.2395 -0.5146
  108MOL0     C14806   8.466   9.663   8.118 -0.5219 -0.1652 -0.4427
  108MOL0     C14807   8.592   9.744   8.149 -1.0428  0.5163 -0.8244
  108MOL0     C14808   8.646   9.720   8.292  1.0003  0.3915  0.4174
  108MOL0     C14809   8.768   9.806   8.327 -0.1550  0.4336 -0.4454
  108MOL0     C14810   8.850   9.720   8.416 -0.6319  0.5878  0.0149
  108MOL0    Cl14811   9.014   9.783   8.438  0.0486 -0.2913  0.2086
  108MOL0     C14812   8.056   9.337   7.751  0.2649  0.7178  0.1031
  108MOL0     C14813   7.969   9.376   7.647 -0.0550 -0.2460 -0.0454
  108MOL0     O14814   7.696   9.327   7.587  0.3337  0.0222 -0.1427
  108MOL0     C14815   7.539   9.396   7.369 -0.8221  0.1977 -0.8796
  108MOL0     C14816   7.451   9.433   7.275  1.0664 -0.5249 -0.3293
  108MOL0     N14817   6.770   9.345   7.037  0.6749 -0.2257 -0.5648
  108MOL0     N14818   6.648   9.329   6.984  0.4674  0.7018  0.3004
  108MOL0     C14819   5.604   8.854   6.801  0.2709  0.7480  0.1024
  108MOL0     C14820   5.488   8.782   6.826 -1.0645  0.3259 -0.3435
  108MOL0     C14821   5.034   8.639   6.845  0.0166 -0.1217 -0.5376
  108MOL0     C14822   5.086   8.504   6.823  0.0852  0.3927 -0.2309
  108MOL0     C14823   4.999   8.400   6.861 -0.1783 -0.5808  0.1581
  108MOL0     C14824   4.869   8.412   6.910  0.9971 -0.4518 -0.0762
  108MOL0     O14825   4.773   8.319   6.945  0.4783  0.1039  0.5257
  108MOL0     C14826   4.813   8.182   6.942  0.6108  0.9316 -0.4294
  108MOL0     C14827   4.697   8.090   6.957 -0.0993  0.1991  0.1570
  108MOL0     C14828   4.632   8.105   7.096  0.0130  0.6635  0.4950
  108MOL0     C14829   4.508   8.017   7.110 -0.5590  0.1160  0.0502
  108MOL0     C14830   4.440   8.032   7.244  0.0744 -0.2941 -0.8604
  108MOL0     C14831   4.389   8.033   7.359 -0.0797  0.6568 -0.7405
  108MOL0     C14832   4.816   8.542   6.927  0.2256 -0.0045  0.4257
  108MOL0     C14833   4.896   8.657   6.892  0.1315 -0.1671  0.0133
  108MOL0     C14834   4.831   8.788   6.925  0.4922 -0.3971  0.5827
  108MOL0     H14835   5.258   8.907   6.612  0.3111  0.2389 -1.1590
  108MOL0     H14836   5.467   9.045   6.550  0.1520  1.4872  1.6269
  108MOL0     H14837   5.894   9.050   6.613  1.6611 -2.1013  1.3152
  108MOL0     H14838   5.846   8.932   6.727  0.9291 -0.9786 -1.1549
  108MOL0     H14839   5.806   9.235   6.754  0.1616 -0.2587 -1.1125
  108MOL0     H14840   5.787   9.104   6.881  0.5925  1.3070  0.9612
  108MOL0     H14841   6.023   9.062   6.893  2.4531  0.2401 -1.1936
  108MOL0     H14842   6.042   9.187   6.758  1.2817  2.1048  0.8487
  108MOL0     H14843   5.945   9.366   6.929 -2.9878  0.5504  2.6801
  108MOL0     H14844   5.949   9.246   7.051 -0.8005  2.4547 -0.0494
  108MOL0     H14845   6.172   9.348   6.881 -2.6716  2.0693 -0.2838
  108MOL0     H14846   6.195   9.200   6.971  1.8206  1.7601 -1.7201
  108MOL0     H14847   6.140   9.483   7.066  0.4908  0.5853 -1.3132
  108MOL0     H14848   6.105   9.347   7.174 -2.2166 -0.8139 -1.1951
  108MOL0     H14849   6.340   9.272   7.159 -2.6394 -1.1955 -3.2097
  108MOL0     H14850   6.332   9.444   7.216 -0.2176  0.5547 -0.0117
  108MOL0     H14851   6.400   9.382   6.926  1.0022  1.8568 -0.0134
  108MOL0     H14852   6.387   9.532   7.010 -1.1517 -0.7641  2.0018
  108MOL0     H14853   6.585   9.544   7.226  4.5033  0.6672  1.8126
  108MOL0     H14854   6.838   9.556   7.298  0.8353 -1.1600  0.7450
  108MOL0     H14855   6.911   9.580   7.133  0.6431 -2.0781 -1.1748
  108MOL0     H14856   6.964   9.346   7.329 -1.1521  1.5742  1.3371
  108MOL0     H14857   7.013   9.347   7.159  1.0694 -2.8185  2.4202
  108MOL0     H14858   7.075   9.601   7.304  1.4342  1.2268 -1.7061
  108MOL0     H14859   7.164   9.451   7.353  1.3471  1.3231  1.3692
  108MOL0     H14860   7.235   9.420   7.118  1.1938 -0.1425 -0.2250
  108MOL0     H14861   7.148   9.556   7.061 -0.0575 -0.5713 -0.3775
  108MOL0     H14862   7.433   9.763   7.347  1.2692  0.6798  0.8512
  108MOL0     H14863   7.513   9.786   7.579  0.0315 -1.1373 -1.7472
  108MOL0     H14864   7.696   9.756   7.555  1.3506  0.6017  2.1994
  108MOL0     H14865   7.589   9.664   7.668  1.3915  1.6277  0.8760
  108MOL0     H14866   7.831   9.654   7.784  0.2880  0.2194 -1.4898
  108MOL0     H14867   7.983   9.566   7.977  2.3743  0.8966 -0.1875
  108MOL0     H14868   8.322   9.493   7.856 -1.0499  2.0825  0.4662
  108MOL0     H14869   8.242   9.576   7.992  2.3599  1.4962 -0.7305
  108MOL0     H14870   8.356   9.403   8.157  3.6835 -0.4642  0.7949
  108MOL0     H14871   8.432   9.334   8.022  2.2604  1.2911  2.7139
  108MOL0     H14872   8.536   9.530   7.965 -1.4364 -1.7550 -0.7747
  108MOL0     H14873   8.574   9.482   8.141 -2.4015 -1.6477  0.8856
  108MOL0     H14874   8.393   9.648   8.198 -3.6788  0.2463 -3.0354
  108MOL0     H14875   8.413   9.718   8.040 -0.3729 -1.3065 -1.3916
  108MOL0     H14876   8.666   9.720   8.072 -0.4366  4.7944 -1.8230
  108MOL0     H14877   8.576   9.851   8.137 -1.3899  0.5547 -0.0801
  108MOL0     H14878   8.670   9.614   8.297 -0.2457  0.1449  3.9053
  108MOL0     H14879   8.565   9.742   8.362 -0.2243  0.9295 -1.0932
  108MOL0     H14880   8.729   9.899   8.371  2.4787  2.4114 -1.9751
  108MOL0     H14881   8.822   9.830   8.235 -2.2597 -0.2842 -1.9529
  108MOL0     H14882   8.864   9.619   8.376  2.8392  1.0363 -0.1493
  108MOL0     H14883   8.798   9.714   8.513 -0.7189  1.5131  0.0357
  108MOL0     H14884   8.121   9.252   7.730 -2.5867 -1.8745  0.9767
  108MOL0     H14885   7.961   9.323   7.553  0.4717  0.5142 -0.5355
  108MOL0     H14886   7.560   9.290   7.365 -3.9333 -0.5298 -1.0446
  108MOL0     H14887   7.407   9.358   7.209  0.9293 -0.7632  0.0278
  108MOL0     H14888   5.697   8.844   6.855  0.3618  1.4567  0.0873
  108MOL0     H14889   5.501   8.703   6.899  0.3237 -0.9304 -1.8927
  108MOL0     H14890   5.189   8.477   6.798  0.0984 -1.8889  1.8561
  108MOL0     H14891   5.048   8.303   6.859 -0.0447 -0.5106 -1.4790
  108MOL0     H14892   4.864   8.155   6.849 -0.1037 -0.6538 -0.3815
  108MOL0     H14893   4.886   8.174   7.023  0.6005  0.6025 -0.4528
  108MOL0     H14894   4.728   7.986   6.940  1.4441  0.6358  0.1698
  108MOL0     H14895   4.622   8.113   6.882  1.4350 -1.9226 -2.1770
  108MOL0     H14896   4.698   8.075   7.179 -0.3006 -3.3187 -0.5086
  108MOL0     H14897   4.605   8.210   7.105 -2.9850 -0.1240  1.7242
  108MOL0     H14898   4.522   7.908   7.105 -0.7194  0.1434 -1.2917
  108MOL0     H14899   4.442   8.043   7.027  1.6340  1.3039 -1.4020
  108MOL0     H14900   4.364   8.039   7.463  1.4717  2.6654 -0.4240
  108MOL0     H14901   4.718   8.559   6.972  0.2452 -1.9466  1.2952
  108MOL0     H14902   4.867   8.814   7.025  1.7635 -0.1145  0.0701
  108MOL0     H14903   4.867   8.862   6.853  1.7064 -1.7924 -0.2828
  108MOL0     H14904   4.723   8.793   6.944  1.0144 -0.5810  4.2971
  109MOL0     O14905   3.046   2.075   3.751  0.1016 -0.0890  0.1648
  109MOL0     C14906   2.946   2.023   3.799  0.0293  0.3228 -0.6047
  109MOL0     O14907   2.926   2.006   3.935 -0.2489  0.7583  0.2164
  109MOL0     C14908   3.035   2.008   4.021  0.9662 -0.0924 -0.0853
  109MOL0     C14909   3.011   2.045   4.154  0.9092 -1.4593  0.5867
  109MOL0     C14910   3.106   2.066   4.250  0.5608 -0.2076  0.4952
  109MOL0     C14911   3.242   2.040   4.212  1.2549  0.2160 -0.5365
  109MOL0     O14912   3.331   2.056   4.311  0.2081  0.6483 -1.0152
  109MOL0     C14913   3.454   2.125   4.283 -0.9409  0.3405  0.1202
  109MOL0     C14914   3.556   2.010   4.303  0.0041  0.0052  0.3283
  109MOL0     C14915   3.697   2.069   4.280 -0.8552  0.6616  0.6707
  109MOL0     C14916   3.745   2.141   4.402 -0.2208  0.9008 -0.0181
  109MOL0     C14917   3.880   2.214   4.383 -0.4799  1.0779  0.5790
  109MOL0     C14918   3.932   2.292   4.508  0.7722 -0.6824  0.3312
  109MOL0     C14919   3.844   2.413   4.538 -1.0225  0.3776  0.1210
  109MOL0     C14920   3.901   2.514   4.635 -0.2853 -0.7810 -0.3896
  109MOL0     N14921   4.013   2.591   4.574  0.1181 -0.0543  0.1093
  109MOL0     C14922   4.143   2.582   4.630  0.3178 -0.0431  0.2571
  109MOL0     C14923   4.197   2.694   4.576 -0.8029  1.1458  0.6862
  109MOL0     C14924   4.338   2.733   4.615 -0.4567  0.5901  0.0729
  109MOL0     C14925   4.436   2.722   4.493  0.2707  0.4108 -0.5182
  109MOL0     C14926   4.579   2.747   4.533  0.4573  0.0048 -0.2951
  109MOL0     C14927   4.656   2.638   4.607 -0.0920  0.1398 -0.1296
  109MOL0     O14928   4.635   2.498   4.558  0.2327 -0.3738  0.3449
  109MOL0     C14929   4.728   2.411   4.593 -0.3924 -0.1630 -0.6804
  109MOL0     C14930   4.769   2.317   4.501  0.7267  0.2860  0.1940
  109MOL0     C14931   4.866   2.210   4.519  0.0285 -0.9662 -0.5245
  109MOL0     C14932   4.889   2.119   4.405 -0.8026  0.3552  0.0017
  109MOL0     C14933   4.923   2.203   4.658 -0.3349  0.6815 -0.2691
  109MOL0     C14934   5.031   2.106   4.697 -0.6566  0.2451  1.3591
  109MOL0     O14935   5.072   2.115   4.827  0.2188 -0.3698 -0.1807
  109MOL0     C14936   5.165   2.037   4.872  0.0743  0.1396 -0.0121
  109MOL0     C14937   5.148   1.900   4.891 -0.0741 -0.4425 -0.0439
  109MOL0     C14938   5.253   1.819   4.930  0.3805  0.0670 -0.0188
  109MOL0     C14939   5.379   1.869   4.953 -0.2710  0.2260  0.0072
  109MOL0     O14940   5.483   1.777   4.981 -0.8058  0.1842 -0.5359
  109MOL0     C14941   5.614   1.818   5.021  0.8553 -0.0181  0.2952
  109MOL0     C14942   5.681   1.697   5.088  0.9589  0.1108  0.0821
  109MOL0     C14943   5.833   1.729   5.098  0.0263 -1.0417  0.3502
  109MOL0     C14944   5.907   1.622   5.177 -0.2322  0.0379 -0.7592
  109MOL0     C14945   6.058   1.620   5.156  0.4544 -0.3886 -0.1880
  109MOL0     C14946   6.115   1.753   5.185 -0.6124 -0.3751 -0.0244
  109MOL0     C14947   6.268   1.746   5.170  0.1580  0.4901 -0.4151
  109MOL0     C14948   6.315   1.719   5.037 -0.6790  0.6604  0.4426
  109MOL0    Cl14949   6.495   1.737   5.030 -0.4971  0.0346 -0.2146
  109MOL0     C14950   5.394   2.006   4.939 -0.7138  0.4382  0.7757
  109MOL0     C14951   5.295   2.089   4.899  1.0222  0.3827  0.8852
  109MOL0     O14952   5.072   2.021   4.613  0.2477  0.3348 -0.3311
  109MOL0     C14953   4.880   2.302   4.754  0.0004 -0.4978  0.8557
  109MOL0     C14954   4.782   2.397   4.723  0.4806 -0.2233 -0.5039
  109MOL0     N14955   4.111   2.752   4.488 -0.2685 -0.0527  0.4735
  109MOL0     N14956   4.002   2.688   4.492  0.0162 -0.0924 -1.4464
  109MOL0     C14957   3.265   2.005   4.075 -1.0010  0.3107 -0.0668
  109MOL0     C14958   3.171   1.991   3.981  0.9564 -0.4765 -0.1790
  109MOL0     C14959   2.827   2.004   3.708  0.2312  1.2919 -0.0751
  109MOL0     C14960   2.779   2.095   3.615  0.5419 -0.4632  0.0421
  109MOL0     C14961   2.668   2.081   3.537 -0.6578  0.7457  0.0288
  109MOL0     C14962   2.595   1.958   3.550 -0.3752  0.4163  0.3568
  109MOL0     O14963   2.490   1.934   3.469  0.5603  0.3794 -0.1642
  109MOL0     C14964   2.376   2.021   3.487 -0.3001  0.1291 -1.2182
  109MOL0     C14965   2.258   1.933   3.538  0.2606  0.0512 -0.3060
  109MOL0     C14966   2.207   1.819   3.459  0.5734  0.4661  0.6085
  109MOL0     C14967   2.147   1.848   3.324 -0.5023 -0.5749  0.4322
  109MOL0     C14968   2.059   1.966   3.325 -0.3320 -0.3872 -0.4234
  109MOL0     C14969   2.003   2.072   3.329 -0.2340  0.1967 -1.0563
  109MOL0     C14970   2.644   1.856   3.636 -0.1195  0.1002 -0.6720
  109MOL0     C14971   2.764   1.872   3.716  0.2103 -0.3435  0.0325
  109MOL0     C14972   2.822   1.742   3.776 -0.6057 -0.2915  0.7628
  109MOL0     H14973   2.911   2.068   4.191  1.4941  0.8834  0.8164
  109MOL0     H14974   3.075   2.085   4.352  4.8529 -1.2073  2.2055
  109MOL0     H14975   3.458   2.207   4.356 -2.2190  0.1326  0.4444
  109MOL0     H14976   3.467   2.175   4.187  2.5054  1.6886  1.1411
  109MOL0     H14977   3.551   1.961   4.400  0.6412 -0.3833  0.1676
  109MOL0     H14978   3.539   1.933   4.227  0.4590  0.5857 -0.3842
  109MOL0     H14979   3.772   1.991   4.260 -0.7050  1.2488 -1.3547
  109MOL0     H14980   3.700   2.138   4.194 -1.1682 -0.8139 -0.5655
  109MOL0     H14981   3.679   2.222   4.435 -0.0159  0.7371  0.8429
  109MOL0     H14982   3.745   2.072   4.488 -1.0822  1.7073  0.6547
  109MOL0     H14983   3.871   2.281   4.297  1.5027  1.1267  0.3508
  109MOL0     H14984   3.962   2.142   4.371  1.2167  2.5542  2.6197
  109MOL0     H14985   3.932   2.222   4.592  0.2884 -1.7049 -0.4978
  109MOL0     H14986   4.035   2.328   4.496  1.3672 -1.8708  1.6142
  109MOL0     H14987   3.758   2.369   4.589 -1.0017  2.4331  2.0909
  109MOL0     H14988   3.829   2.456   4.439  1.2897 -3.8349 -2.3621
  109MOL0     H14989   3.818   2.574   4.673 -1.6691 -1.8178 -1.6385
  109MOL0     H14990   3.940   2.461   4.722  0.9215  4.6468  2.8611
  109MOL0     H14991   4.194   2.518   4.702  0.9211 -0.0730 -0.1900
  109MOL0     H14992   4.369   2.682   4.707  2.0212  0.9519 -0.5062
  109MOL0     H14993   4.335   2.835   4.653  3.9703 -0.4219  4.0662
  109MOL0     H14994   4.436   2.623   4.447 -0.3149  0.8295 -1.4501
  109MOL0     H14995   4.414   2.796   4.416  0.1735  1.9415  0.9273
  109MOL0     H14996   4.630   2.770   4.438  0.2030 -0.3942 -0.5320
  109MOL0     H14997   4.586   2.838   4.593 -0.7442  0.0467 -0.2037
  109MOL0     H14998   4.763   2.655   4.615 -0.2649  1.3448 -0.1955
  109MOL0     H14999   4.621   2.648   4.710 -1.8465  3.5324 -0.8940
  109MOL0     H15000   4.709   2.329   4.412 -2.6705  2.5706  2.5334
  109MOL0     H15001   4.997   2.102   4.396 -0.8508 -0.1292  0.2890
  109MOL0     H15002   4.848   2.160   4.312 -1.0672  0.0090 -0.0391
  109MOL0     H15003   4.845   2.021   4.424 -0.9112 -0.0792 -2.1669
  109MOL0     H15004   5.058   1.845   4.864 -1.0342  1.7060 -1.5117
  109MOL0     H15005   5.231   1.713   4.931  0.7335 -0.0631 -1.8073
  109MOL0     H15006   5.668   1.844   4.929 -3.9153  1.9833 -2.3055
  109MOL0     H15007   5.609   1.907   5.085 -0.7933 -0.7477  1.2387
  109MOL0     H15008   5.648   1.678   5.190  1.3299  1.6897  0.5143
  109MOL0     H15009   5.667   1.608   5.026  1.7808  2.3910 -3.6831
  109MOL0     H15010   5.853   1.832   5.129 -0.3183 -0.2609 -1.8212
  109MOL0     H15011   5.871   1.716   4.996  1.2251  2.0171  0.2922
  109MOL0     H15012   5.860   1.526   5.157  0.0391 -0.9554  2.6375
  109MOL0     H15013   5.890   1.647   5.282 -2.1779 -1.0941 -0.7639
  109MOL0     H15014   6.096   1.532   5.208 -0.2142 -0.8607 -0.4810
  109MOL0     H15015   6.081   1.587   5.054 -0.5221 -1.7810  0.0166
  109MOL0     H15016   6.092   1.780   5.289  1.7483  0.5347  0.3420
  109MOL0     H15017   6.074   1.829   5.118  0.4575 -0.0346 -0.3246
  109MOL0     H15018   6.310   1.680   5.247 -2.6227 -1.6866 -0.5965
  109MOL0     H15019   6.298   1.850   5.187 -1.9056  0.9071  1.1823
  109MOL0     H15020   6.268   1.794   4.973 -0.2020  0.6295  0.0508
  109MOL0     H15021   6.278   1.623   4.999 -1.7110  1.2005  0.0510
  109MOL0     H15022   5.485   2.059   4.966  0.5016 -2.0779  1.9587
  109MOL0     H15023   5.323   2.194   4.895 -1.5536  1.1974  2.0765
  109MOL0     H15024   4.921   2.304   4.855 -0.1327 -2.0149  0.9593
  109MOL0     H15025   4.748   2.469   4.798 -0.6055 -3.7743  2.7366
  109MOL0     H15026   3.367   1.991   4.040 -0.7804  3.3652 -0.9874
  109MOL0     H15027   3.206   1.955   3.885  0.7672 -0.0975 -0.3901
  109MOL0     H15028   2.849   2.178   3.604  1.9019 -1.2933  1.9333
  109MOL0     H15029   2.634   2.162   3.473 -2.7247  0.1260  0.2939
  109MOL0     H15030   2.397   2.100   3.559 -2.3758  0.3133 -0.7673
  109MOL0     H15031   2.342   2.070   3.395 -2.5849 -1.3573 -1.2548
  109MOL0     H15032   2.173   1.999   3.562  1.0314  1.7981 -2.0547
  109MOL0     H15033   2.290   1.882   3.629  0.6783  0.1520 -0.3934
  109MOL0     H15034   2.297   1.758   3.446  0.4678  0.5253 -0.5072
  109MOL0     H15035   2.140   1.758   3.519  0.5039  0.7806  0.8524
  109MOL0     H15036   2.083   1.770   3.281  1.1773 -1.2223 -1.0131
  109MOL0     H15037   2.220   1.863   3.244  0.1485 -2.2774  0.6528
  109MOL0     H15038   1.942   2.157   3.352 -3.6992 -2.9492  3.2959
  109MOL0     H15039   2.578   1.770   3.640 -2.7332  2.0058  2.2790
  109MOL0     H15040   2.918   1.721   3.728 -1.1664 -0.6503 -0.2371
  109MOL0     H15041   2.842   1.738   3.884 -0.4953  1.3230  0.8269
  109MOL0     H15042   2.752   1.660   3.755 -1.3547  0.0843  1.7500
  110MOL0     O15043  11.267   4.998   2.571 -0.0899  0.2505 -0.5207
  110MOL0     C15044  11.259   5.087   2.659 -0.1375 -0.1701 -0.5893
  110MOL0     O15045  11.303   5.218   2.643  0.2509  0.7090 -0.2092
  110MOL0     C15046  11.356   5.244   2.519 -0.0330 -0.1848 -0.0647
  110MOL0     C15047  11.283   5.311   2.430  0.4223  0.0797 -0.3619
  110MOL0     C15048  11.328   5.351   2.305  0.0194  0.5384 -0.2032
  110MOL0     C15049  11.466   5.338   2.277 -1.4796 -0.2569 -0.1672
  110MOL0     O15050  11.531   5.374   2.158 -0.1709  1.0776  0.1089
  110MOL0     C15051  11.465   5.447   2.059  0.3607  0.2778 -0.1033
  110MOL0     C15052  11.566   5.514   1.965  0.1754 -0.1742 -0.0465
  110MOL0     C15053  11.670   5.611   2.024  0.3774  0.1871  0.4143
  110MOL0     C15054  11.775   5.562   2.127  0.1410  0.2768  0.8579
  110MOL0     C15055  11.899   5.649   2.122  0.6799 -0.9756 -0.3599
  110MOL0     C15056  11.959   5.665   2.261 -0.2666  1.2452  0.3146
  110MOL0     C15057  12.111   5.695   2.250 -0.1350  0.5125 -0.0547
  110MOL0     C15058  12.136   5.839   2.226 -0.5749 -0.2273 -0.2808
  110MOL0     N15059  12.276   5.875   2.241 -0.1392 -0.2647  0.2472
  110MOL0     C15060  12.367   5.854   2.140  1.1391  0.5971  0.3975
  110MOL0     C15061  12.473   5.932   2.172 -0.8047 -0.2637  0.3310
  110MOL0     C15062  12.602   5.947   2.087 -0.2636 -0.4187  1.0669
  110MOL0     C15063  12.724   5.899   2.158 -0.0857 -0.3717 -0.2371
  110MOL0     C15064  12.764   5.997   2.276  1.0397 -0.7025 -0.3462
  110MOL0     C15065  12.787   6.137   2.229  0.4235 -0.5619 -0.8794
  110MOL0     O15066  12.857   6.150   2.105 -0.7682  0.1730 -0.2687
  110MOL0     C15067  12.991   6.132   2.088  0.4337 -0.8380  0.1697
  110MOL0     C15068  13.085   6.126   2.194 -0.9488  0.0059  0.7347
  110MOL0     C15069  13.226   6.108   2.163  0.2172  0.0307 -0.0651
  110MOL0     C15070  13.331   6.103   2.270  0.1477 -0.1546 -0.2161
  110MOL0     C15071  13.266   6.090   2.026 -0.4189  0.1464 -0.6258
  110MOL0     C15072  13.406   6.044   1.984  0.3915 -0.5271 -0.2402
  110MOL0     O15073  13.435   6.064   1.852 -0.0807  0.1876  0.2366
  110MOL0     C15074  13.555   6.006   1.816 -0.1179  0.2830  0.4766
  110MOL0     C15075  13.569   5.869   1.796 -0.2335 -0.6478 -0.0745
  110MOL0     C15076  13.689   5.817   1.762  0.9758  0.3238 -0.3054
  110MOL0     C15077  13.808   5.895   1.759  0.0014 -0.6193  0.7119
  110MOL0     O15078  13.931   5.843   1.727  0.2461  0.8156 -0.3735
  110MOL0     C15079  13.948   5.696   1.705 -0.8438  0.9848  0.9269
  110MOL0     C15080  14.101   5.662   1.691 -1.2617  0.1572 -0.0215
  110MOL0     C15081  14.153   5.725   1.559  0.1897 -0.1780 -0.3167
  110MOL0     C15082  14.302   5.691   1.524 -0.0303 -0.0656  0.2223
  110MOL0     C15083  14.404   5.740   1.621 -0.3124  0.4002 -0.4731
  110MOL0     C15084  14.541   5.726   1.552  0.2972  0.1318  0.1566
  110MOL0     C15085  14.639   5.775   1.659 -0.2754 -0.0753  0.2341
  110MOL0     C15086  14.791   5.764   1.619 -0.1897 -0.2743  0.7357
  110MOL0    Cl15087  14.877   5.608   1.620 -0.0749 -0.0238 -0.0212
  110MOL0     C15088  13.792   6.032   1.790 -1.0182  0.0293  0.1789
  110MOL0     C15089  13.674   6.084   1.821  0.3588 -0.1074  0.7731
  110MOL0     O15090  13.472   5.972   2.060  0.5328  0.0367 -0.2637
  110MOL0     C15091  13.164   6.096   1.925  0.1130 -0.3631 -0.3022
  110MOL0     C15092  13.036   6.119   1.954 -0.1776  0.8874 -0.2407
  110MOL0     N15093  12.441   5.988   2.296  0.5144 -0.2654 -0.2098
  110MOL0     N15094  12.326   5.961   2.329 -0.6941 -0.2125 -0.3201
  110MOL0     C15095  11.548   5.266   2.366 -0.0072 -0.3955 -0.4350
  110MOL0     C15096  11.490   5.219   2.487  0.2580  0.7570  0.2487
  110MOL0     C15097  11.219   5.045   2.799  0.5720 -0.4367 -0.4243
  110MOL0     C15098  11.234   5.132   2.912  0.8080 -0.0877 -0.3148
  110MOL0     C15099  11.197   5.086   3.039 -0.2021 -0.6283 -0.5504
  110MOL0     C15100  11.140   4.964   3.069  0.3191  0.6250 -0.6811
  110MOL0     O15101  11.086   4.933   3.193  0.1422  0.4632 -0.0442
  110MOL0     C15102  11.081   5.021   3.301 -0.5628  0.8843 -0.1471
  110MOL0     C15103  11.016   4.963   3.430 -0.0158 -0.1514 -0.4140
  110MOL0     C15104  10.877   4.914   3.397  0.3789  0.4435 -0.1609
  110MOL0     C15105  10.787   4.874   3.521  0.1933  0.6544 -0.0967
  110MOL0     C15106  10.664   4.809   3.472  0.6453 -0.0005 -0.2121
  110MOL0     C15107  10.563   4.750   3.430 -0.2387  0.1632 -0.3319
  110MOL0     C15108  11.120   4.891   2.957 -0.0299 -0.1545  0.1068
  110MOL0     C15109  11.152   4.923   2.824 -0.7675 -0.2244 -0.1795
  110MOL0     C15110  11.119   4.808   2.728 -0.5431  0.5075  0.4966
  110MOL0     H15111  11.179   5.337   2.448  0.0200 -0.8279 -1.2591
  110MOL0     H15112  11.265   5.397   2.230  2.3180  0.4478 -2.3235
  110MOL0     H15113  11.404   5.527   2.102 -1.9922  0.1241 -2.7851
  110MOL0     H15114  11.397   5.384   2.001  0.9766  2.0325 -2.9391
  110MOL0     H15115  11.618   5.435   1.911  1.3996 -0.1805  1.0755
  110MOL0     H15116  11.507   5.568   1.891  2.3189  0.9185 -1.0321
  110MOL0     H15117  11.722   5.655   1.938  1.1014 -0.4602  0.5060
  110MOL0     H15118  11.608   5.685   2.075 -1.2871 -0.9153  0.0804
  110MOL0     H15119  11.730   5.570   2.227  0.5662  0.0382  1.0712
  110MOL0     H15120  11.804   5.460   2.101 -0.5025  0.5820 -1.2498
  110MOL0     H15121  11.879   5.752   2.089  0.2816 -0.8932  0.1325
  110MOL0     H15122  11.964   5.601   2.048  0.0655  0.5738 -1.9882
  110MOL0     H15123  11.890   5.736   2.309  0.3500  0.7339  2.0220
  110MOL0     H15124  11.946   5.571   2.316 -0.6452  0.7783 -0.5537
  110MOL0     H15125  12.161   5.637   2.171 -3.1192 -2.7342  0.1580
  110MOL0     H15126  12.163   5.667   2.342  0.4139 -1.6271 -0.9472
  110MOL0     H15127  12.097   5.873   2.129 -0.0472 -0.0199 -0.4244
  110MOL0     H15128  12.077   5.894   2.299  0.9671 -0.8074  1.4801
  110MOL0     H15129  12.353   5.799   2.047  1.6143  1.5520 -0.2510
  110MOL0     H15130  12.612   6.046   2.043 -2.1056 -0.8992 -0.5933
  110MOL0     H15131  12.593   5.885   1.998  2.5624 -0.6300  0.8170
  110MOL0     H15132  12.728   5.796   2.194 -0.5978 -0.2638  0.1505
  110MOL0     H15133  12.804   5.912   2.084  1.6036 -2.6532  1.0806
  110MOL0     H15134  12.686   5.993   2.353  1.4303  1.7744  0.2706
  110MOL0     H15135  12.850   5.967   2.336  1.3505  1.3113  0.2841
  110MOL0     H15136  12.683   6.169   2.219  0.3859 -0.9139 -1.7374
  110MOL0     H15137  12.833   6.199   2.307 -1.2179 -2.0550  1.4020
  110MOL0     H15138  13.044   6.128   2.295 -0.5067  1.9507  0.9094
  110MOL0     H15139  13.286   6.150   2.358  0.0811 -0.2829 -0.1807
  110MOL0     H15140  13.424   6.156   2.249  0.0451  0.0116 -0.2487
  110MOL0     H15141  13.364   6.005   2.306  2.3102  1.3563  2.2703
  110MOL0     H15142  13.486   5.799   1.800 -0.9051  0.0109 -1.5649
  110MOL0     H15143  13.693   5.714   1.727  1.4769  0.2122  0.0635
  110MOL0     H15144  13.904   5.636   1.786  0.8108  1.0907  1.9585
  110MOL0     H15145  13.901   5.667   1.611 -1.5424 -1.7287  2.0102
  110MOL0     H15146  14.158   5.703   1.774 -0.7171  0.3984 -0.5081
  110MOL0     H15147  14.117   5.554   1.693  0.1170  0.3460 -0.2759
  110MOL0     H15148  14.134   5.832   1.571 -2.5435 -0.4245 -1.6630
  110MOL0     H15149  14.093   5.699   1.472 -0.3340  0.5718 -0.1923
  110MOL0     H15150  14.330   5.736   1.428 -0.9009 -0.6493 -0.3139
  110MOL0     H15151  14.312   5.582   1.520  3.3814  0.1318  0.6217
  110MOL0     H15152  14.380   5.845   1.642 -1.1782  0.1353 -0.1168
  110MOL0     H15153  14.395   5.685   1.715  0.3451 -1.3531 -1.3756
  110MOL0     H15154  14.558   5.785   1.462 -2.6158 -0.6184 -1.0164
  110MOL0     H15155  14.558   5.621   1.523 -0.3163 -0.3564  1.4773
  110MOL0     H15156  14.622   5.713   1.748 -2.6261  2.0501  1.3721
  110MOL0     H15157  14.622   5.878   1.692 -3.4471  0.0194 -1.3329
  110MOL0     H15158  14.843   5.839   1.679 -0.1348  0.9009 -0.7230
  110MOL0     H15159  14.797   5.800   1.516  0.7687  1.2108  1.2874
  110MOL0     H15160  13.876   6.099   1.780  2.1666 -3.6936 -0.5082
  110MOL0     H15161  13.648   6.189   1.830  0.9938  0.1002  0.2740
  110MOL0     H15162  13.191   6.053   1.829  0.3924 -1.1198  0.1009
  110MOL0     H15163  12.962   6.115   1.875 -1.7496 -1.3782  1.2215
  110MOL0     H15164  11.656   5.268   2.357  0.2733  0.5883  2.3108
  110MOL0     H15165  11.558   5.181   2.562  1.5122  1.7215 -0.3384
  110MOL0     H15166  11.277   5.230   2.898  1.2757 -0.3259 -0.5517
  110MOL0     H15167  11.224   5.161   3.114 -0.8625 -1.1811  0.2553
  110MOL0     H15168  11.179   5.069   3.313 -1.6736  3.2874 -0.1291
  110MOL0     H15169  11.019   5.105   3.270  2.0167  1.4866 -4.4763
  110MOL0     H15170  11.022   5.042   3.505  1.6331 -0.0161 -0.6635
  110MOL0     H15171  11.071   4.876   3.467  0.9005  1.1826  1.5332
  110MOL0     H15172  10.821   4.991   3.343 -1.9379  1.7834  3.7209
  110MOL0     H15173  10.890   4.825   3.335 -0.2249  0.0108  0.3206
  110MOL0     H15174  10.777   4.966   3.580  0.5959  1.7890 -1.7409
  110MOL0     H15175  10.838   4.794   3.575 -3.9625 -1.8773  0.5303
  110MOL0     H15176  10.473   4.694   3.414 -2.6718  2.7365  2.6817
  110MOL0     H15177  11.065   4.803   2.987 -0.2663  0.6520  2.1423
  110MOL0     H15178  11.071   4.728   2.785 -1.8247  1.3354  0.6336
  110MOL0     H15179  11.046   4.847   2.656  0.3940  0.3406 -0.5714
  110MOL0     H15180  11.210   4.764   2.685  0.1416  0.7197  1.6936
  111MOL0     O15181   5.869   5.661   9.689  0.5799  0.0894  0.0882
  111MOL0     C15182   5.758   5.663   9.630  0.0166  0.7774 -0.5039
  111MOL0     O15183   5.739   5.699   9.501 -0.2818 -1.0094  0.1497
  111MOL0     C15184   5.839   5.734   9.426 -0.2338 -0.1463 -0.5920
  111MOL0     C15185   5.963   5.663   9.421  0.1929 -0.0796  0.6343
  111MOL0     C15186   6.061   5.685   9.318  0.6835  0.7651 -0.2372
  111MOL0     C15187   6.043   5.774   9.218 -1.0300 -0.1446 -0.1838
  111MOL0     O15188   6.138   5.799   9.120  0.2681 -0.0603  0.2032
  111MOL0     C15189   6.265   5.732   9.132  1.0615 -0.2268 -0.7871
  111MOL0     C15190   6.351   5.776   9.014 -0.8731  0.5585 -0.1381
  111MOL0     C15191   6.486   5.711   9.017  0.5821 -0.2327 -0.9443
  111MOL0     C15192   6.562   5.730   8.888 -0.5655 -0.1559  0.7507
  111MOL0     C15193   6.703   5.671   8.910  0.3650  0.1932 -0.5001
  111MOL0     C15194   6.787   5.656   8.781  0.8904 -0.1952 -0.1341
  111MOL0     C15195   6.940   5.647   8.806  0.3905 -0.5128 -0.7759
  111MOL0     C15196   7.013   5.782   8.806 -0.4108  0.3067 -0.5930
  111MOL0     N15197   7.153   5.772   8.766 -1.1073  0.3421  0.3061
  111MOL0     C15198   7.207   5.718   8.647 -0.7810 -0.3535 -0.0039
  111MOL0     C15199   7.342   5.736   8.656  0.2608  0.4391 -0.0951
  111MOL0     C15200   7.431   5.695   8.545  0.4026 -0.3636  0.9430
  111MOL0     C15201   7.509   5.572   8.585  0.3543  0.8111  0.0963
  111MOL0     C15202   7.591   5.509   8.464 -1.2075  0.5045  0.3902
  111MOL0     C15203   7.716   5.588   8.435 -0.8099  0.0131 -0.0714
  111MOL0     O15204   7.804   5.582   8.556  0.1066  0.0794  0.3770
  111MOL0     C15205   7.935   5.534   8.557 -0.4849 -0.1917  0.3642
  111MOL0     C15206   8.025   5.574   8.659 -0.0637 -0.4028 -0.3484
  111MOL0     C15207   8.154   5.513   8.662 -0.1414  0.2275  0.3157
  111MOL0     C15208   8.237   5.549   8.781  0.9168 -0.5542 -0.5958
  111MOL0     C15209   8.197   5.421   8.562  0.3202  0.1612  0.6862
  111MOL0     C15210   8.331   5.349   8.565  0.5520 -0.0406  0.1978
  111MOL0     O15211   8.395   5.339   8.441  0.4432  0.4881  0.5122
  111MOL0     C15212   8.519   5.276   8.435 -0.0893 -0.0209  0.7110
  111MOL0     C15213   8.537   5.181   8.328  0.4176  0.0151  0.0196
  111MOL0     C15214   8.662   5.123   8.300  0.6518  0.3083 -1.1594
  111MOL0     C15215   8.765   5.174   8.380  0.3836  0.0303 -1.0917
  111MOL0     O15216   8.886   5.118   8.355 -0.0534  0.1822 -0.2138
  111MOL0     C15217   8.951   5.175   8.244 -0.1451  0.1994  0.0739
  111MOL0     C15218   9.057   5.082   8.183  0.2181 -0.0973  0.1962
  111MOL0     C15219   9.131   5.153   8.064  0.3132  0.3865  0.0797
  111MOL0     C15220   9.245   5.065   7.999  0.3536  0.4563  0.1604
  111MOL0     C15221   9.343   5.140   7.916 -0.1970  0.3956 -0.6528
  111MOL0     C15222   9.457   5.052   7.880 -0.3263 -0.0944  0.5291
  111MOL0     C15223   9.562   5.126   7.801  0.3035  0.3564 -0.7806
  111MOL0     C15224   9.668   5.025   7.744  0.1833 -0.3796 -0.7101
  111MOL0    Cl15225   9.786   5.110   7.635  0.1654 -0.0443  0.4346
  111MOL0     C15226   8.751   5.279   8.474  0.4412  1.1424 -0.2171
  111MOL0     C15227   8.623   5.321   8.512 -0.0657 -1.3656  0.3339
  111MOL0     O15228   8.375   5.299   8.669 -0.1680 -0.7277 -0.5963
  111MOL0     C15229   8.106   5.394   8.457 -0.5452  0.0396 -0.4994
  111MOL0     C15230   7.977   5.451   8.455 -0.4176 -1.0575  0.5107
  111MOL0     N15231   7.371   5.788   8.782 -0.1146 -0.6155 -0.1330
  111MOL0     N15232   7.261   5.808   8.843 -0.2146 -0.1322  0.2405
  111MOL0     C15233   5.922   5.846   9.217 -0.3136 -0.2518 -0.5858
  111MOL0     C15234   5.823   5.830   9.318  0.0745 -0.1378 -0.2261
  111MOL0     C15235   5.633   5.606   9.692 -0.0464  0.3062 -0.0671
  111MOL0     C15236   5.509   5.672   9.657  0.5047  0.7171  0.7815
  111MOL0     C15237   5.390   5.630   9.711  0.6441  0.2058  0.3114
  111MOL0     C15238   5.384   5.522   9.798  0.1199  0.3724  0.0083
  111MOL0     O15239   5.266   5.463   9.851 -0.0554 -0.5596 -0.1386
  111MOL0     C15240   5.140   5.519   9.813  0.3161 -0.1595 -0.2737
  111MOL0     C15241   5.027   5.425   9.854 -0.2689  0.7419  0.2878
  111MOL0     C15242   5.040   5.291   9.784 -0.4299 -0.0652 -0.1283
  111MOL0     C15243   5.014   5.282   9.638  0.1188 -0.1922 -0.3753
  111MOL0     C15244   5.022   5.145   9.597 -0.1600  0.2416 -0.3971
  111MOL0     C15245   5.026   5.033   9.550 -0.3237 -0.0814  0.0780
  111MOL0     C15246   5.510   5.460   9.832 -0.1488 -0.1159  0.3897
  111MOL0     C15247   5.631   5.500   9.775 -0.0979 -0.3072  0.8916
  111MOL0     C15248   5.755   5.418   9.802 -0.0305  0.0152 -0.2298
  111MOL0     H15249   5.998   5.585   9.488 -1.5194 -0.9856  0.5340
  111MOL0     H15250   6.145   5.617   9.321 -0.2214 -0.4545 -1.5548
  111MOL0     H15251   6.258   5.624   9.122 -1.0647 -0.2888  0.7073
  111MOL0     H15252   6.314   5.752   9.227 -3.3688 -1.2860  2.0446
  111MOL0     H15253   6.305   5.740   8.922  0.2654  0.7260 -0.7966
  111MOL0     H15254   6.361   5.885   9.013 -0.1347  0.5201  0.8889
  111MOL0     H15255   6.542   5.756   9.100  0.2567 -0.1099 -0.7909
  111MOL0     H15256   6.480   5.604   9.034  0.7255 -0.4023 -1.9121
  111MOL0     H15257   6.514   5.675   8.808  0.9608  2.6811 -2.3930
  111MOL0     H15258   6.558   5.835   8.856  1.7341  0.1099  1.1331
  111MOL0     H15259   6.688   5.574   8.958  0.1642  1.0468  1.2622
  111MOL0     H15260   6.756   5.727   8.988 -2.1034 -0.8561  2.0892
  111MOL0     H15261   6.752   5.564   8.736  0.7982  0.3998 -1.3081
  111MOL0     H15262   6.752   5.739   8.718 -1.9544  0.4331  2.0724
  111MOL0     H15263   6.985   5.588   8.726  0.2120 -0.3544 -0.9920
  111MOL0     H15264   6.961   5.589   8.897  0.0736  1.7055  0.8188
  111MOL0     H15265   6.967   5.850   8.733  4.8526  2.8898 -2.0741
  111MOL0     H15266   7.016   5.829   8.905  2.8717  1.1391 -0.9630
  111MOL0     H15267   7.146   5.681   8.565  1.7561 -1.5307 -1.4938
  111MOL0     H15268   7.501   5.777   8.530 -0.2431 -0.0378 -0.4909
  111MOL0     H15269   7.371   5.673   8.455 -3.2469 -0.0292  3.0742
  111MOL0     H15270   7.567   5.591   8.675 -0.4595  1.1464  0.5651
  111MOL0     H15271   7.443   5.491   8.620  2.3084 -2.3992 -2.9198
  111MOL0     H15272   7.621   5.410   8.500 -1.2244  0.8205  1.3098
  111MOL0     H15273   7.540   5.497   8.368  0.8593 -1.7727 -0.5254
  111MOL0     H15274   7.761   5.535   8.350 -0.4099 -1.7642  1.2027
  111MOL0     H15275   7.705   5.691   8.400 -0.1039  0.8638  2.1048
  111MOL0     H15276   7.986   5.635   8.739 -2.5759  0.7017 -2.2709
  111MOL0     H15277   8.204   5.496   8.871  0.6935  0.4786 -0.0476
  111MOL0     H15278   8.245   5.657   8.800  3.1095 -0.7644  0.0084
  111MOL0     H15279   8.343   5.538   8.756  0.7515  0.3111 -1.7872
  111MOL0     H15280   8.455   5.145   8.265 -1.5127  3.3122  0.4402
  111MOL0     H15281   8.684   5.036   8.238 -0.0653 -1.1710  0.5875
  111MOL0     H15282   8.882   5.202   8.163  0.1422  0.6797 -0.0143
  111MOL0     H15283   9.001   5.269   8.267  1.3317  0.0125 -2.0311
  111MOL0     H15284   9.132   5.049   8.255  0.3988 -0.6763 -0.2439
  111MOL0     H15285   9.013   4.988   8.147 -0.4448 -0.4741  1.8954
  111MOL0     H15286   9.180   5.244   8.100 -1.6064  1.0651  1.1448
  111MOL0     H15287   9.062   5.200   7.992 -1.1166  4.3048  3.5959
  111MOL0     H15288   9.200   4.995   7.929 -3.4494  2.4212  0.4089
  111MOL0     H15289   9.297   5.003   8.073 -0.0864 -0.3635 -0.2097
  111MOL0     H15290   9.289   5.182   7.831 -0.9323  0.1541 -0.3151
  111MOL0     H15291   9.382   5.220   7.981 -1.6154 -1.6187  2.9545
  111MOL0     H15292   9.410   4.983   7.809 -0.2053  2.0088 -1.7056
  111MOL0     H15293   9.501   5.001   7.967  2.8662  1.8591  0.2246
  111MOL0     H15294   9.620   5.197   7.860 -0.5882  0.4795 -0.0343
  111MOL0     H15295   9.511   5.180   7.721 -1.5231  1.5193  1.0777
  111MOL0     H15296   9.615   4.949   7.686  0.0420 -0.2632 -0.7329
  111MOL0     H15297   9.722   4.972   7.824  1.2290  0.3250 -0.9347
  111MOL0     H15298   8.837   5.318   8.527  0.8444  1.1577 -0.8644
  111MOL0     H15299   8.609   5.394   8.590  2.8005 -1.5668  1.1565
  111MOL0     H15300   8.134   5.333   8.372  1.3224  1.2180 -0.7936
  111MOL0     H15301   7.910   5.421   8.375 -0.5164  1.3686 -0.3949
  111MOL0     H15302   5.910   5.928   9.146 -2.4384 -0.3479 -0.3937
  111MOL0     H15303   5.736   5.895   9.323  0.3513  0.1484  2.1546
  111MOL0     H15304   5.512   5.763   9.597  0.8541  0.2353  0.0609
  111MOL0     H15305   5.300   5.685   9.686 -0.1295 -1.6608 -1.2288
  111MOL0     H15306   5.125   5.614   9.866 -1.8783  0.3598 -1.7063
  111MOL0     H15307   5.135   5.537   9.706  2.1222 -1.2518 -0.5789
  111MOL0     H15308   4.934   5.482   9.846 -0.5998  0.2978  0.8959
  111MOL0     H15309   5.041   5.407   9.961 -0.6650 -1.2422  0.0503
  111MOL0     H15310   5.142   5.256   9.805 -1.1939 -1.1090  2.1188
  111MOL0     H15311   4.980   5.213   9.831 -2.9230  2.4687  1.2184
  111MOL0     H15312   5.091   5.333   9.579 -1.3104  1.2531 -1.0755
  111MOL0     H15313   4.914   5.321   9.616  0.2845  0.5240  0.1292
  111MOL0     H15314   5.031   4.931   9.518 -3.3599  0.2009 -1.5624
  111MOL0     H15315   5.515   5.376   9.901  1.3848 -1.3340 -1.1171
  111MOL0     H15316   5.803   5.399   9.705 -0.5874 -1.6352 -0.2070
  111MOL0     H15317   5.815   5.455   9.885 -0.7488 -1.9449  1.2383
  111MOL0     H15318   5.733   5.313   9.826  0.1832 -0.2855 -1.2832
  112MOL0     O15319  10.367  10.682  10.085  0.5041  0.2270  0.3333
  112MOL0     C15320  10.361  10.573  10.136 -0.0400  0.3432  0.9772
  112MOL0     O15321  10.438  10.529  10.235 -0.8388  0.2048 -0.4040
  112MOL0     C15322  10.559  10.597  10.272 -1.0577 -0.2458  0.0955
  112MOL0     C15323  10.591  10.586  10.412 -0.7363 -0.0498  0.9518
  112MOL0     C15324  10.705  10.646  10.469  1.0958  0.3307  0.3117
  112MOL0     C15325  10.799  10.711  10.391  0.5591 -0.2744 -0.0904
  112MOL0     O15326  10.907  10.758  10.455 -0.7711  0.0500 -0.1018
  112MOL0     C15327  10.974  10.869  10.402 -0.7308 -0.1184 -0.5348
  112MOL0     C15328  11.068  10.927  10.513 -0.6692  0.5526  0.1889
  112MOL0     C15329  11.171  10.824  10.563  0.3708  0.0811  0.6294
  112MOL0     C15330  11.305  10.879  10.612  0.4181  0.5324 -0.5661
  112MOL0     C15331  11.409  10.764  10.657 -0.0726  0.8135  0.6742
  112MOL0     C15332  11.530  10.820  10.738  0.7605  0.2284 -0.0013
  112MOL0     C15333  11.642  10.880  10.656  0.1180 -0.8057 -0.3661
  112MOL0     C15334  11.750  10.936  10.751 -0.6608 -0.1236 -0.1540
  112MOL0     N15335  11.845  11.033  10.690 -0.7804  0.3568 -0.1738
  112MOL0     C15336  11.935  11.004  10.593  0.4023 -0.0351 -0.3182
  112MOL0     C15337  11.985  11.124  10.561  0.8180  0.4289  1.0410
  112MOL0     C15338  12.072  11.166  10.438 -1.1232 -0.3962  0.1273
  112MOL0     C15339  12.227  11.181  10.470 -0.4515 -0.5176 -0.5843
  112MOL0     C15340  12.309  11.219  10.346  0.3436 -0.3381 -0.3913
  112MOL0     C15341  12.456  11.255  10.375 -0.5144 -0.2370 -0.3926
  112MOL0     O15342  12.527  11.282  10.249 -0.6693 -0.2901 -1.3367
  112MOL0     C15343  12.659  11.323  10.250  0.0603  0.2406 -0.6302
  112MOL0     C15344  12.728  11.363  10.360 -0.1780 -0.4445 -0.4675
  112MOL0     C15345  12.872  11.390  10.359 -0.2513 -0.2005 -0.5549
  112MOL0     C15346  12.947  11.417  10.493  0.1418  0.1021 -1.1988
  112MOL0     C15347  12.946  11.373  10.240  0.0449  0.5629 -0.1844
  112MOL0     C15348  13.093  11.417  10.228 -0.1355  0.6175 -0.2903
  112MOL0     O15349  13.159  11.465  10.337 -0.8586 -0.1486 -0.6256
  112MOL0     C15350  13.285  11.510  10.342  0.0359  0.6536 -0.2820
  112MOL0     C15351  13.307  11.596  10.452  0.4776  0.2429 -0.0097
  112MOL0     C15352  13.429  11.650  10.474 -0.5820 -0.2129  0.4919
  112MOL0     C15353  13.530  11.619  10.389  0.4726  0.5473  0.4692
  112MOL0     O15354  13.660  11.660  10.396  0.2350 -0.0880 -0.0788
  112MOL0     C15355  13.683  11.778  10.469 -0.6560  0.1456  0.9058
  112MOL0     C15356  13.823  11.835  10.434 -0.6486  0.0943 -0.2464
  112MOL0     C15357  13.925  11.795  10.536  0.6341  0.3337  0.0883
  112MOL0     C15358  14.048  11.883  10.532  0.7337  0.3984 -0.2153
  112MOL0     C15359  14.153  11.815  10.633 -0.6703  0.9945 -0.6272
  112MOL0     C15360  14.263  11.917  10.674 -0.4172  0.0381  0.0430
  112MOL0     C15361  14.376  11.859  10.743  0.4482  0.4458 -0.0759
  112MOL0     C15362  14.478  11.964  10.785  0.3019 -0.0809 -0.1765
  112MOL0    Cl15363  14.416  12.067  10.923 -0.3252 -0.1600  0.2537
  112MOL0     C15364  13.514  11.531  10.277 -0.2549  0.3548 -0.0387
  112MOL0     C15365  13.391  11.468  10.268 -0.2504  0.4884 -0.1762
  112MOL0     O15366  13.138  11.413  10.111 -0.0886  0.4274  0.2895
  112MOL0     C15367  12.875  11.331  10.128 -0.3207  0.8718  0.5482
  112MOL0     C15368  12.738  11.303  10.134  0.6796  0.8976 -0.3840
  112MOL0     N15369  11.924  11.223  10.627  0.2113  0.5879  0.9252
  112MOL0     N15370  11.835  11.168  10.702 -0.7971 -0.4911 -0.1835
  112MOL0     C15371  10.765  10.726  10.254  0.9204 -0.0124  0.6077
  112MOL0     C15372  10.647  10.675  10.193  0.0859 -0.1350 -0.4581
  112MOL0     C15373  10.247  10.481  10.094 -0.4336  0.1164  0.5939
  112MOL0     C15374  10.134  10.470  10.172 -1.4677  0.5128 -0.5280
  112MOL0     C15375  10.025  10.390  10.140 -0.1833  0.6608  0.0628
  112MOL0     C15376  10.034  10.301  10.025 -0.4655 -0.4679 -0.5720
  112MOL0     O15377   9.923  10.221  10.010 -0.6488 -0.3036 -0.8904
  112MOL0     C15378   9.914  10.161   9.882 -0.2330  0.1539 -0.8045
  112MOL0     C15379   9.784  10.067   9.878 -0.5719 -0.4238  0.3065
  112MOL0     C15380   9.657  10.127   9.820  0.4810  1.3243  0.1350
  112MOL0     C15381   9.554  10.012   9.804  0.3509 -1.0612  0.0119
  112MOL0     C15382   9.443  10.073   9.737 -0.2022 -0.3954  0.5610
  112MOL0     C15383   9.343  10.121   9.677 -0.7790  0.7844 -0.4550
  112MOL0     C15384  10.136  10.322   9.933  0.0655  0.3505 -0.9471
  112MOL0     C15385  10.247  10.408   9.971 -0.0320  0.6679  0.3067
  112MOL0     C15386  10.357  10.426   9.871 -0.6512 -0.6512  0.0172
  112MOL0     H15387  10.516  10.531  10.469  0.4978 -1.9190  0.8470
  112MOL0     H15388  10.725  10.641  10.576  1.5176 -2.5315  0.1606
  112MOL0     H15389  10.917  10.955  10.369 -0.1261  0.2716 -0.5768
  112MOL0     H15390  11.042  10.833  10.324 -0.2926 -1.2304  0.3246
  112MOL0     H15391  11.118  11.012  10.466 -1.6434  1.7936  1.3004
  112MOL0     H15392  11.016  10.969  10.600 -1.3467 -0.3190  0.2262
  112MOL0     H15393  11.119  10.761  10.635 -0.1175  0.6521  0.7786
  112MOL0     H15394  11.196  10.759  10.478 -1.8233  1.1960 -0.9496
  112MOL0     H15395  11.349  10.934  10.529 -1.4929  0.0526 -1.9696
  112MOL0     H15396  11.293  10.950  10.694  3.1683  1.2452 -0.6900
  112MOL0     H15397  11.438  10.704  10.570  2.4380 -1.7421  3.0312
  112MOL0     H15398  11.354  10.690  10.716  1.2534 -0.8163 -0.0117
  112MOL0     H15399  11.485  10.900  10.796  1.1512  0.8083 -0.4807
  112MOL0     H15400  11.576  10.743  10.800  1.6141  1.6057  1.1306
  112MOL0     H15401  11.604  10.959  10.590  2.1046 -1.9916 -3.1614
  112MOL0     H15402  11.679  10.812  10.579 -0.3059 -2.3175  0.7226
  112MOL0     H15403  11.715  10.988  10.840 -1.1869 -0.4872 -0.1413
  112MOL0     H15404  11.809  10.856  10.797 -0.1397  0.4873  0.2521
  112MOL0     H15405  11.986  10.921  10.547  4.7923  2.5013 -0.5878
  112MOL0     H15406  12.030  11.261  10.403 -1.9408 -2.1874 -4.4932
  112MOL0     H15407  12.060  11.088  10.362 -0.4141 -0.5479  0.1630
  112MOL0     H15408  12.245  11.262  10.542  1.2786 -0.5989 -0.8981
  112MOL0     H15409  12.273  11.091  10.511  1.2169 -0.3391 -1.9738
  112MOL0     H15410  12.318  11.129  10.285 -1.7901 -0.1145 -1.1058
  112MOL0     H15411  12.264  11.300  10.288 -0.8729  0.9615  2.2064
  112MOL0     H15412  12.449  11.354  10.421  0.0664  0.4979 -1.8223
  112MOL0     H15413  12.506  11.176  10.432 -2.1483 -1.2076 -0.2465
  112MOL0     H15414  12.688  11.348  10.460 -0.2336 -1.3646 -0.6187
  112MOL0     H15415  13.035  11.353  10.506  0.1680  0.2604 -0.5689
  112MOL0     H15416  12.881  11.403  10.579  0.5471  0.6313 -0.7881
  112MOL0     H15417  12.984  11.520  10.504 -1.8240  0.8267 -1.0287
  112MOL0     H15418  13.221  11.639  10.502 -0.4643  0.2288 -1.5360
  112MOL0     H15419  13.440  11.707  10.565 -0.6012 -0.0318  0.3798
  112MOL0     H15420  13.608  11.855  10.448 -2.3721 -1.6763  0.1172
  112MOL0     H15421  13.683  11.764  10.577  1.4928 -0.9334  0.8241
  112MOL0     H15422  13.856  11.798  10.336  1.4855 -1.9862  1.1526
  112MOL0     H15423  13.801  11.943  10.436 -1.5532 -0.0670 -0.6837
  112MOL0     H15424  13.954  11.692  10.513  2.7508  0.2593  2.5508
  112MOL0     H15425  13.885  11.797  10.637 -0.5412  0.0030 -0.3641
  112MOL0     H15426  14.016  11.979  10.574 -3.2166 -1.3757  1.3099
  112MOL0     H15427  14.078  11.897  10.428 -0.5637  0.4466 -0.6043
  112MOL0     H15428  14.107  11.775  10.724 -0.6230  0.4065 -0.8557
  112MOL0     H15429  14.192  11.725  10.586 -0.4645 -0.2119  1.6915
  112MOL0     H15430  14.218  11.990  10.741 -0.5201 -0.1017  0.1260
  112MOL0     H15431  14.296  11.966  10.582 -0.2738  0.2441  0.2011
  112MOL0     H15432  14.425  11.785  10.680 -0.6673  0.4254 -0.9616
  112MOL0     H15433  14.328  11.817  10.832 -0.8716  0.4611 -0.7465
  112MOL0     H15434  14.506  12.022  10.696  2.5329  0.8831  1.0645
  112MOL0     H15435  14.566  11.912  10.826 -0.4502 -0.0655  1.5410
  112MOL0     H15436  13.602  11.503  10.219 -0.4116 -0.8061  0.2577
  112MOL0     H15437  13.374  11.402  10.184 -2.5642  0.6624  0.0869
  112MOL0     H15438  12.930  11.332  10.034  1.2915 -0.3817  1.4236
  112MOL0     H15439  12.689  11.263  10.046 -1.4434  0.4176  0.9276
  112MOL0     H15440  10.836  10.774  10.188 -0.6502  2.9710  0.8673
  112MOL0     H15441  10.631  10.686  10.086 -0.0993  1.5735 -0.2708
  112MOL0     H15442  10.129  10.531  10.261  2.0240 -2.3707  1.9535
  112MOL0     H15443   9.943  10.404  10.210  0.8810  1.5260  1.1910
  112MOL0     H15444   9.914  10.243   9.809  0.1368  0.2520 -0.6943
  112MOL0     H15445   9.999  10.097   9.857 -0.2735  1.0737 -3.6031
  112MOL0     H15446   9.760  10.024   9.976  1.5271  1.5533  1.7837
  112MOL0     H15447   9.824   9.980   9.826 -0.3047  0.0407 -0.2780
  112MOL0     H15448   9.614  10.203   9.887 -0.1775  0.4117  0.7717
  112MOL0     H15449   9.672  10.168   9.719 -0.7912 -1.3018 -1.2213
  112MOL0     H15450   9.521   9.981   9.904  0.8167  0.2239  0.5868
  112MOL0     H15451   9.585   9.922   9.751 -0.2806 -1.9008  1.0351
  112MOL0     H15452   9.251  10.154   9.633 -0.2339  1.0158 -1.4609
  112MOL0     H15453  10.141  10.269   9.838  1.8957  1.1346 -1.3195
  112MOL0     H15454  10.355  10.351   9.791  1.0766  0.8502 -1.5222
  112MOL0     H15455  10.342  10.529   9.839  0.6978  0.5104  2.7811
  112MOL0     H15456  10.458  10.421   9.913  0.0869 -1.4271 -1.7620
  113MOL0     O15457  10.251   8.380   2.359  0.2111  0.2124 -0.0255
  113MOL0     C15458  10.160   8.462   2.356  0.3822  0.8218  0.9102
  113MOL0     O15459  10.149   8.578   2.429 -0.3028 -0.2004 -0.1832
  113MOL0     C15460  10.262   8.593   2.506 -0.1656 -0.5062  0.2786
  113MOL0     C15461  10.271   8.552   2.642 -0.0752  0.0861  0.1016
  113MOL0     C15462  10.383   8.589   2.716 -0.5705  0.1301 -0.5727
  113MOL0     C15463  10.483   8.665   2.659 -0.3144  0.1803  0.5420
  113MOL0     O15464  10.599   8.680   2.738  0.1534 -0.5326  0.0857
  113MOL0     C15465  10.722   8.745   2.686  0.3092 -0.5869  0.2114
  113MOL0     C15466  10.825   8.720   2.799 -0.1951 -0.8024 -0.6253
  113MOL0     C15467  10.940   8.819   2.777 -0.9211 -0.1780 -0.4742
  113MOL0     C15468  11.026   8.834   2.906 -0.3448  1.0962 -0.2563
  113MOL0     C15469  11.143   8.933   2.883 -0.6231  0.2735 -0.7083
  113MOL0     C15470  11.222   8.956   3.017 -0.4051  0.0968  0.4927
  113MOL0     C15471  11.343   9.048   2.986 -0.3132  0.1763  0.5562
  113MOL0     C15472  11.430   9.068   3.108  0.3886 -0.5475 -1.0757
  113MOL0     N15473  11.565   9.124   3.078  0.3598 -0.1434  0.5016
  113MOL0     C15474  11.686   9.090   3.132 -0.4359  0.3928  0.6227
  113MOL0     C15475  11.772   9.186   3.077  0.3971  0.5415  0.3834
  113MOL0     C15476  11.910   9.217   3.107  0.2591  0.1110  0.2899
  113MOL0     C15477  11.996   9.220   2.978  1.2921  0.5340 -0.0107
  113MOL0     C15478  12.141   9.246   3.025  0.2306 -0.2653 -0.5688
  113MOL0     C15479  12.230   9.285   2.911 -0.3343  0.2717 -1.1432
  113MOL0     O15480  12.282   9.154   2.852 -0.2137 -0.3778 -0.4928
  113MOL0     C15481  12.406   9.161   2.787  1.0614  0.0121 -0.3461
  113MOL0     C15482  12.455   9.040   2.739 -0.6838 -0.4127 -0.0406
  113MOL0     C15483  12.583   9.026   2.681 -0.6618 -0.1427 -0.3493
  113MOL0     C15484  12.615   8.883   2.633 -0.3191 -0.1442  0.1646
  113MOL0     C15485  12.669   9.140   2.679 -0.5605 -0.0314  0.4405
  113MOL0     C15486  12.808   9.134   2.651 -0.6390  0.1832  0.2030
  113MOL0     O15487  12.858   9.132   2.521  0.5308  0.0006  0.0089
  113MOL0     C15488  12.988   9.099   2.509 -1.1873 -0.5423  0.4520
  113MOL0     C15489  13.080   9.165   2.415  0.0085  0.3256  0.2815
  113MOL0     C15490  13.216   9.126   2.401 -0.3275 -0.8058 -0.7044
  113MOL0     C15491  13.266   9.013   2.464  0.0512  0.3259  0.5874
  113MOL0     O15492  13.402   8.984   2.456 -0.6966  0.5951  0.4372
  113MOL0     C15493  13.437   8.848   2.508 -0.5930  0.0539 -0.4042
  113MOL0     C15494  13.576   8.816   2.457  0.7247  0.2789  1.3023
  113MOL0     C15495  13.680   8.921   2.483 -0.0714  0.5675 -0.5039
  113MOL0     C15496  13.734   8.984   2.359  0.2562  0.5893 -0.4028
  113MOL0     C15497  13.824   9.110   2.383  0.4518  0.5204  0.0964
  113MOL0     C15498  13.735   9.229   2.417  0.5661 -0.6283 -0.3617
  113MOL0     C15499  13.831   9.352   2.433 -0.1788 -0.2224 -0.0365
  113MOL0     C15500  13.757   9.476   2.474 -0.2542  0.4057 -0.8046
  113MOL0    Cl15501  13.854   9.601   2.524 -0.0254  0.1312  0.2295
  113MOL0     C15502  13.174   8.956   2.549 -0.2257 -0.4273  0.4124
  113MOL0     C15503  13.044   8.988   2.564  0.6197  0.0126  0.5194
  113MOL0     O15504  12.881   9.128   2.751  0.7609  0.0339 -0.3721
  113MOL0     C15505  12.616   9.262   2.720  0.2789 -0.2375  0.0889
  113MOL0     C15506  12.486   9.272   2.773 -0.1130  0.4065 -0.7511
  113MOL0     N15507  11.695   9.270   3.003  0.0709  0.5279 -0.3715
  113MOL0     N15508  11.573   9.231   2.998 -0.6288 -0.5832 -0.0755
  113MOL0     C15509  10.473   8.706   2.525 -0.1811  0.4178 -0.4233
  113MOL0     C15510  10.364   8.674   2.451  0.0193  0.1938  0.7774
  113MOL0     C15511  10.061   8.434   2.258  0.3990  0.0197 -0.2438
  113MOL0     C15512  10.011   8.302   2.252  1.0569 -0.1867  0.1942
  113MOL0     C15513   9.920   8.264   2.149 -0.4224  0.1020  0.3263
  113MOL0     C15514   9.863   8.355   2.070  0.0086 -0.1264 -0.4223
  113MOL0     O15515   9.762   8.318   1.986 -0.6401  0.5803 -0.8951
  113MOL0     C15516   9.658   8.260   2.049  0.6043  0.0549  1.1991
  113MOL0     C15517   9.528   8.244   1.959  0.0997 -0.3824  0.1825
  113MOL0     C15518   9.425   8.147   2.021 -0.0940  0.3366 -0.2562
  113MOL0     C15519   9.287   8.145   1.962  1.1816 -1.4844  0.3274
  113MOL0     C15520   9.284   8.115   1.818  0.0393  0.1007  0.1852
  113MOL0     C15521   9.284   8.081   1.701 -0.2927  0.5085  0.4033
  113MOL0     C15522   9.900   8.487   2.086  0.4710 -0.5064  0.3957
  113MOL0     C15523  10.003   8.529   2.172  0.5542  0.7005 -0.4149
  113MOL0     C15524  10.045   8.674   2.154 -0.9860  1.3273 -0.3122
  113MOL0     H15525  10.191   8.491   2.685  0.8517 -1.7744 -0.6955
  113MOL0     H15526  10.391   8.565   2.822 -0.6111  0.4366 -0.4975
  113MOL0     H15527  10.695   8.849   2.662 -0.3015 -0.3828  1.6669
  113MOL0     H15528  10.762   8.700   2.595  1.7770  0.1045  0.4801
  113MOL0     H15529  10.782   8.745   2.896 -0.3641 -1.2185 -0.5890
  113MOL0     H15530  10.861   8.617   2.794  2.2528 -0.0299 -0.4568
  113MOL0     H15531  11.001   8.775   2.697 -0.3366 -0.6411  0.2122
  113MOL0     H15532  10.909   8.916   2.738  1.4936  1.5343  1.5410
  113MOL0     H15533  10.949   8.874   2.973 -0.8987  0.0253 -0.2446
  113MOL0     H15534  11.057   8.740   2.951 -1.8333  1.2973  1.2996
  113MOL0     H15535  11.113   9.033   2.851  1.7452  0.9365 -1.0862
  113MOL0     H15536  11.219   8.889   2.817  0.4826 -0.9888  1.2989
  113MOL0     H15537  11.154   8.992   3.094  0.3023 -1.9797  2.1872
  113MOL0     H15538  11.274   8.868   3.056  1.8066  2.2798  2.8249
  113MOL0     H15539  11.316   9.148   2.951 -1.5703 -0.3814 -0.1273
  113MOL0     H15540  11.403   8.994   2.912 -1.4571  0.6166 -0.7360
  113MOL0     H15541  11.385   9.145   3.172 -0.0232 -1.6916  0.0496
  113MOL0     H15542  11.441   8.974   3.163 -3.2704 -1.6304 -1.9077
  113MOL0     H15543  11.716   9.019   3.208 -2.6714 -3.1138 -1.4961
  113MOL0     H15544  11.957   9.146   3.175  4.7629  3.0165  0.6605
  113MOL0     H15545  11.907   9.318   3.151  1.1109  0.1651  0.2456
  113MOL0     H15546  11.994   9.128   2.920  0.1476 -0.2870  1.2764
  113MOL0     H15547  11.951   9.293   2.910 -1.7736 -0.9023  0.2983
  113MOL0     H15548  12.136   9.334   3.091  1.8133  0.8614 -1.8686
  113MOL0     H15549  12.185   9.158   3.072 -0.1621  0.0066  0.3369
  113MOL0     H15550  12.180   9.353   2.840 -1.5927  1.1206  0.4935
  113MOL0     H15551  12.315   9.340   2.951  0.0409 -0.3061 -1.1426
  113MOL0     H15552  12.392   8.951   2.747  0.5992 -1.4415 -0.9236
  113MOL0     H15553  12.636   8.815   2.717  3.9620 -2.8956 -2.7241
  113MOL0     H15554  12.708   8.889   2.576 -0.1313  3.5994  0.6218
  113MOL0     H15555  12.534   8.843   2.572 -0.1216 -2.8591  1.5177
  113MOL0     H15556  13.038   9.249   2.359 -1.2202  1.0784  2.2426
  113MOL0     H15557  13.285   9.183   2.339  4.3620 -3.2536  1.6919
  113MOL0     H15558  13.441   8.843   2.618 -0.2775  0.6708 -0.3803
  113MOL0     H15559  13.377   8.761   2.481 -0.2994 -1.3447  2.9103
  113MOL0     H15560  13.602   8.718   2.498  1.4394 -0.0371  0.1476
  113MOL0     H15561  13.571   8.784   2.353  0.1591 -2.9222  2.2145
  113MOL0     H15562  13.766   8.869   2.528  1.6636  2.5043 -1.4330
  113MOL0     H15563  13.644   8.994   2.556  0.3340  1.9024 -1.6093
  113MOL0     H15564  13.650   9.003   2.292 -0.3863 -0.0377  0.2155
  113MOL0     H15565  13.791   8.908   2.303 -5.8064 -4.4186 -0.8725
  113MOL0     H15566  13.897   9.092   2.462  0.5997  1.8061  0.2669
  113MOL0     H15567  13.884   9.123   2.293  2.2163 -2.4075  0.7033
  113MOL0     H15568  13.686   9.213   2.513  0.3340 -2.0799 -0.7006
  113MOL0     H15569  13.658   9.238   2.339 -1.2929 -3.5044  0.9705
  113MOL0     H15570  13.870   9.370   2.332 -0.0840 -0.5384 -0.0571
  113MOL0     H15571  13.911   9.324   2.501  1.4801  1.1147 -1.3448
  113MOL0     H15572  13.691   9.454   2.559  0.2618  1.4224 -0.1242
  113MOL0     H15573  13.704   9.510   2.385  1.0682 -0.3654 -1.9294
  113MOL0     H15574  13.200   8.873   2.614 -0.9179 -1.0171 -0.0444
  113MOL0     H15575  12.981   8.915   2.614  0.8328  0.2080  1.0749
  113MOL0     H15576  12.677   9.350   2.707 -1.0213  0.6071 -0.5152
  113MOL0     H15577  12.468   9.375   2.804  2.6587  0.4499  1.0876
  113MOL0     H15578  10.551   8.750   2.465 -0.5807  0.4269 -0.9390
  113MOL0     H15579  10.359   8.714   2.350  1.2789  0.4268  0.7885
  113MOL0     H15580  10.057   8.228   2.317  1.7837  0.9548  0.9933
  113MOL0     H15581   9.902   8.157   2.145  2.2276 -0.3649 -1.2572
  113MOL0     H15582   9.686   8.156   2.068 -2.5336 -0.7692  1.8702
  113MOL0     H15583   9.637   8.299   2.149 -0.7255  1.4171  0.4263
  113MOL0     H15584   9.549   8.200   1.862 -3.0920 -1.0283 -0.3285
  113MOL0     H15585   9.475   8.340   1.951  1.4148  0.5005  1.4126
  113MOL0     H15586   9.470   8.047   2.015  2.1760  1.4045 -3.0570
  113MOL0     H15587   9.410   8.165   2.128 -2.9462 -2.5576  0.0155
  113MOL0     H15588   9.235   8.238   1.988  1.0611 -1.3032 -0.5297
  113MOL0     H15589   9.220   8.072   2.008 -1.8003 -0.1441 -1.5849
  113MOL0     H15590   9.302   8.048   1.601 -2.0533 -0.7615  0.4576
  113MOL0     H15591   9.847   8.563   2.029 -2.8162  0.3818  4.1296
  113MOL0     H15592  10.136   8.695   2.211  0.9931  0.8688 -3.0946
  113MOL0     H15593  10.076   8.683   2.050 -1.4827  1.7723 -0.4287
  113MOL0     H15594   9.965   8.746   2.177 -1.4801  0.3071  1.3487
  114MOL0     O15595   1.395  10.657   1.700 -0.4563 -0.2352 -0.1068
  114MOL0     C15596   1.342  10.601   1.603  0.4096  0.7831  0.8295
  114MOL0     O15597   1.409  10.547   1.494 -0.0428  0.8415  0.4608
  114MOL0     C15598   1.542  10.540   1.506  0.5494 -0.1566  0.2079
  114MOL0     C15599   1.599  10.452   1.599 -0.0548 -0.7382 -0.2263
  114MOL0     C15600   1.738  10.443   1.618 -0.2415  0.3055  0.1767
  114MOL0     C15601   1.812  10.517   1.533 -0.1982 -0.1645 -0.3852
  114MOL0     O15602   1.951  10.489   1.533 -0.1920 -0.3945  0.0157
  114MOL0     C15603   1.995  10.436   1.408 -0.1408 -0.9826 -0.6290
  114MOL0     C15604   2.131  10.359   1.415 -0.0931  0.7934  0.5948
  114MOL0     C15605   2.243  10.458   1.462 -0.5749  0.3848 -0.2162
  114MOL0     C15606   2.382  10.400   1.454  0.3457  0.7527  0.5154
  114MOL0     C15607   2.442  10.317   1.564 -0.2254  0.2794 -0.4165
  114MOL0     C15608   2.593  10.284   1.542 -0.7409 -0.6680 -0.5087
  114MOL0     C15609   2.631  10.181   1.436 -0.2207  0.2807 -0.6530
  114MOL0     C15610   2.756  10.233   1.361  0.0017  0.7609 -0.0722
  114MOL0     N15611   2.873  10.253   1.449  0.4836 -0.0632  0.0659
  114MOL0     C15612   2.939  10.153   1.514  0.1929  0.1117 -0.1085
  114MOL0     C15613   3.012  10.203   1.616  0.6363 -0.1337  0.3344
  114MOL0     C15614   3.111  10.130   1.688  0.3847  0.5715  0.1526
  114MOL0     C15615   3.234  10.114   1.614 -0.8648  0.0098  1.1651
  114MOL0     C15616   3.350  10.056   1.698  0.3139 -0.0831 -1.0171
  114MOL0     C15617   3.483  10.027   1.637 -0.9454  0.1515  0.7091
  114MOL0     O15618   3.527  10.139   1.552 -0.0895 -0.3088 -0.1745
  114MOL0     C15619   3.656  10.172   1.588  0.3385  1.0373  0.3248
  114MOL0     C15620   3.694  10.226   1.707  0.0693  0.1755  0.2924
  114MOL0     C15621   3.824  10.274   1.737  0.4910  0.7132 -0.7077
  114MOL0     C15622   3.850  10.350   1.863  0.0893 -0.0369 -0.5665
  114MOL0     C15623   3.929  10.242   1.647  0.4333  0.6077  0.3846
  114MOL0     C15624   4.068  10.252   1.684 -0.0841  0.2411  0.7616
  114MOL0     O15625   4.104  10.257   1.813 -0.8719 -0.3609 -0.1628
  114MOL0     C15626   4.234  10.296   1.844  0.1690  0.1004  0.4351
  114MOL0     C15627   4.274  10.421   1.810 -0.2749  0.1440 -0.5104
  114MOL0     C15628   4.401  10.466   1.848 -0.2061  0.2369  0.0539
  114MOL0     C15629   4.484  10.386   1.924  0.3739  0.5443 -0.7531
  114MOL0     O15630   4.604  10.423   1.978  0.7316  0.9044 -0.2987
  114MOL0     C15631   4.688  10.500   1.898  0.2969  0.7806  0.5456
  114MOL0     C15632   4.834  10.480   1.937  0.2565  0.3445 -0.5635
  114MOL0     C15633   4.919  10.598   1.882  0.5749  0.2082 -0.0231
  114MOL0     C15634   5.065  10.556   1.883  0.2545 -0.9730 -0.4202
  114MOL0     C15635   5.146  10.647   1.795 -0.4848 -0.4637 -0.0151
  114MOL0     C15636   5.287  10.581   1.783  0.7760 -0.2565 -0.4816
  114MOL0     C15637   5.379  10.657   1.685 -0.3539 -0.1906  0.5260
  114MOL0     C15638   5.439  10.787   1.746  0.2071  0.0478  0.0136
  114MOL0    Cl15639   5.564  10.837   1.632 -0.3367  0.3605 -0.3434
  114MOL0     C15640   4.436  10.263   1.966  0.0142  1.0368 -0.9296
  114MOL0     C15641   4.312  10.211   1.922 -0.2179  0.2927  0.1051
  114MOL0     O15642   4.143  10.238   1.585 -0.0977 -0.5000 -0.3087
  114MOL0     C15643   3.895  10.186   1.517 -0.7054 -0.5935  0.0142
  114MOL0     C15644   3.757  10.161   1.486  0.2094  0.2567  0.0110
  114MOL0     N15645   2.982  10.337   1.617 -0.9918 -0.8252 -0.0463
  114MOL0     N15646   2.902  10.367   1.516 -0.2729 -0.0701  1.0265
  114MOL0     C15647   1.758  10.609   1.440  0.0721  0.0678 -0.5931
  114MOL0     C15648   1.624  10.620   1.429 -0.3027  0.0843 -0.0164
  114MOL0     C15649   1.205  10.560   1.622 -0.1086 -0.2066  0.0848
  114MOL0     C15650   1.154  10.443   1.552  0.8180 -0.8570  0.1853
  114MOL0     C15651   1.028  10.387   1.578  0.3580 -0.6098  0.0468
  114MOL0     C15652   0.942  10.452   1.660 -0.1858  0.1497  0.0134
  114MOL0     O15653   0.820  10.406   1.686  0.5854 -0.1028  0.0951
  114MOL0     C15654   0.826  10.278   1.761 -0.3581  0.0023  1.2831
  114MOL0     C15655   0.735  10.279   1.888  0.2969  0.2369 -0.2595
  114MOL0     C15656   0.783  10.364   2.003 -0.1658 -0.7148  0.0361
  114MOL0     C15657   0.899  10.303   2.079 -0.6608  0.3483 -0.0127
  114MOL0     C15658   1.027  10.340   2.016  0.0461  0.1365 -0.5019
  114MOL0     C15659   1.139  10.355   1.974 -0.8232 -0.3504  1.3677
  114MOL0     C15660   0.985  10.565   1.721  0.5210 -0.5459  0.1994
  114MOL0     C15661   1.115  10.619   1.712 -0.0341 -0.0766 -0.0673
  114MOL0     C15662   1.146  10.742   1.790 -0.0866  0.2603  0.7145
  114MOL0     H15663   1.533  10.400   1.668 -2.0679  0.8494 -0.8640
  114MOL0     H15664   1.781  10.371   1.686 -4.0390  0.0295  2.5988
  114MOL0     H15665   2.014  10.509   1.329  5.0806 -1.8868 -0.6019
  114MOL0     H15666   1.918  10.364   1.376 -0.0064 -0.6357 -1.7669
  114MOL0     H15667   2.121  10.276   1.486  1.6305 -0.1310 -0.1679
  114MOL0     H15668   2.145  10.319   1.314 -1.5436 -1.5247  1.2406
  114MOL0     H15669   2.241  10.532   1.381 -2.4952 -0.8082 -1.3287
  114MOL0     H15670   2.223  10.509   1.557  2.2886  0.4231  0.4446
  114MOL0     H15671   2.377  10.353   1.356  3.9091  0.3570  0.3847
  114MOL0     H15672   2.463  10.472   1.441  1.5584 -0.3528  1.5609
  114MOL0     H15673   2.378  10.229   1.574  0.5298 -0.2650 -0.2034
  114MOL0     H15674   2.441  10.375   1.656 -0.6737 -0.7646  0.2511
  114MOL0     H15675   2.647  10.379   1.539 -0.8910 -0.6040 -1.2049
  114MOL0     H15676   2.617  10.248   1.643 -1.3820 -0.0408 -0.1206
  114MOL0     H15677   2.541  10.149   1.383 -1.2411 -0.3301  1.3682
  114MOL0     H15678   2.664  10.087   1.481  0.2555  0.7256 -0.0643
  114MOL0     H15679   2.783  10.160   1.284 -1.0322 -0.0757  0.3467
  114MOL0     H15680   2.730  10.327   1.311  2.8940  2.5647  1.5327
  114MOL0     H15681   2.946  10.049   1.483  1.8469 -0.5912  2.3500
  114MOL0     H15682   3.076  10.032   1.723  1.4689 -0.2995 -1.0645
  114MOL0     H15683   3.137  10.188   1.776  0.6570  1.8990 -0.7671
  114MOL0     H15684   3.214  10.052   1.526 -0.1050  1.2550  0.0534
  114MOL0     H15685   3.265  10.215   1.584 -3.2977  0.4936  0.0152
  114MOL0     H15686   3.373  10.125   1.779  0.4230  0.3481 -1.4081
  114MOL0     H15687   3.306   9.971   1.752 -2.2668  1.7349 -0.0637
  114MOL0     H15688   3.555   9.997   1.713  0.5967  0.2150 -0.6668
  114MOL0     H15689   3.464   9.936   1.580  0.8390 -1.0721  1.9489
  114MOL0     H15690   3.613  10.242   1.778  1.4222 -0.6074  2.0767
  114MOL0     H15691   3.757  10.387   1.907  1.0421  0.7632  0.8320
  114MOL0     H15692   3.917  10.431   1.832 -0.2576 -0.2990 -2.1009
  114MOL0     H15693   3.888  10.287   1.944  1.5998 -0.0886 -1.2756
  114MOL0     H15694   4.207  10.496   1.768 -0.8278  1.0552  1.8290
  114MOL0     H15695   4.445  10.564   1.828 -1.9037  1.2425  0.9432
  114MOL0     H15696   4.674  10.480   1.791  1.1758 -0.5290  0.6529
  114MOL0     H15697   4.659  10.605   1.912  0.9986  0.9337  0.8717
  114MOL0     H15698   4.841  10.488   2.046 -0.7559  1.2199 -0.5505
  114MOL0     H15699   4.865  10.379   1.909  0.6294  1.1077 -3.0827
  114MOL0     H15700   4.907  10.684   1.949  0.4509 -2.0934  3.1381
  114MOL0     H15701   4.885  10.611   1.779 -0.2588 -1.3820  0.0230
  114MOL0     H15702   5.080  10.449   1.868 -1.1351 -1.6377  2.2259
  114MOL0     H15703   5.108  10.565   1.984  1.6720 -0.0376 -1.0790
  114MOL0     H15704   5.104  10.646   1.695 -2.2021  0.2206  0.6684
  114MOL0     H15705   5.141  10.742   1.849 -1.8602 -0.9265  0.7178
  114MOL0     H15706   5.272  10.481   1.742 -1.2889 -2.0473  3.9494
  114MOL0     H15707   5.330  10.553   1.880  0.3384 -1.0984 -0.5186
  114MOL0     H15708   5.328  10.681   1.592  0.2306  2.2020  0.7606
  114MOL0     H15709   5.458  10.587   1.658  1.4454  1.9196  0.0232
  114MOL0     H15710   5.472  10.774   1.850 -0.4457  0.3370  0.2615
  114MOL0     H15711   5.360  10.863   1.744 -1.1445 -1.2870  0.5170
  114MOL0     H15712   4.491  10.206   2.040 -1.3499 -1.0040 -1.4232
  114MOL0     H15713   4.265  10.121   1.962 -1.3242  0.7738 -0.0753
  114MOL0     H15714   3.975  10.173   1.444 -0.0664  3.1919 -0.1494
  114MOL0     H15715   3.737  10.138   1.381 -0.3631  0.0908  0.1540
  114MOL0     H15716   1.816  10.664   1.367  0.9441  0.1270  0.1200
  114MOL0     H15717   1.590  10.700   1.364  4.2778  0.5943 -2.2081
  114MOL0     H15718   1.208  10.395   1.471 -0.9917 -0.6363 -1.2341
  114MOL0     H15719   0.994  10.311   1.509 -2.9623  1.7971 -1.2456
  114MOL0     H15720   0.779  10.198   1.702 -1.9312 -0.9848  3.7372
  114MOL0     H15721   0.932  10.256   1.777  0.5697  0.7640 -2.6003
  114MOL0     H15722   0.710  10.184   1.935 -0.1133  0.8732  0.8729
  114MOL0     H15723   0.643  10.325   1.850 -0.7967 -0.6779  1.1585
  114MOL0     H15724   0.812  10.461   1.962 -0.0847 -0.7388  0.0349
  114MOL0     H15725   0.697  10.386   2.066 -0.0750  2.0965 -0.6836
  114MOL0     H15726   0.882  10.195   2.089 -0.6948  0.3589  0.0440
  114MOL0     H15727   0.913  10.352   2.175 -2.2776  1.5448 -0.3605
  114MOL0     H15728   1.234  10.371   1.926 -1.0403 -2.5109  0.0896
  114MOL0     H15729   0.913  10.600   1.794 -1.3484  0.8150 -2.1724
  114MOL0     H15730   1.057  10.797   1.821 -2.0780 -2.0992 -0.4547
  114MOL0     H15731   1.203  10.701   1.874  1.4599 -2.4350 -1.4762
  114MOL0     H15732   1.206  10.812   1.731 -0.4414  0.3485  0.4593
  115MOL0     O15733   9.923   8.123   1.343  0.1728 -0.2201  0.0982
  115MOL0     C15734   9.827   8.137   1.416 -0.6441  0.1925 -0.0701
  115MOL0     O15735   9.840   8.182   1.546 -0.4405  0.3770  0.1832
  115MOL0     C15736   9.955   8.224   1.602 -0.3965 -0.5525 -0.9033
  115MOL0     C15737  10.089   8.175   1.574 -0.0850  0.3293 -0.6373
  115MOL0     C15738  10.198   8.228   1.635  0.4325 -0.3021 -0.0060
  115MOL0     C15739  10.185   8.323   1.743 -0.6079  0.1846  0.4633
  115MOL0     O15740  10.300   8.376   1.805  0.5113 -0.0270  0.1367
  115MOL0     C15741  10.281   8.447   1.926  0.2462  0.0427 -0.7894
  115MOL0     C15742  10.409   8.499   1.981 -0.2391 -0.3333  0.0418
  115MOL0     C15743  10.500   8.567   1.875  0.1503  0.8187  0.0464
  115MOL0     C15744  10.563   8.693   1.927  0.1027  0.9312 -0.2470
  115MOL0     C15745  10.651   8.778   1.836 -0.6280  0.1987  0.0508
  115MOL0     C15746  10.796   8.720   1.819  0.4825  0.1828  0.1108
  115MOL0     C15747  10.895   8.826   1.763  0.3140  0.1834 -0.5157
  115MOL0     C15748  10.855   8.896   1.632  0.2670  0.1865 -0.0218
  115MOL0     N15749  10.939   8.998   1.572 -0.1166  0.7154  0.3155
  115MOL0     C15750  11.071   8.996   1.601 -0.1585  0.4628  0.3127
  115MOL0     C15751  11.119   9.089   1.526  0.0119 -0.2177 -0.7799
  115MOL0     C15752  11.271   9.124   1.543  0.9929  0.4810  0.3024
  115MOL0     C15753  11.302   9.221   1.657  0.4858  0.4634 -0.2125
  115MOL0     C15754  11.443   9.208   1.714 -0.4906 -0.3378  0.1291
  115MOL0     C15755  11.558   9.284   1.655  0.3887 -0.6684  0.5260
  115MOL0     O15756  11.570   9.409   1.713 -0.3082 -0.7824 -0.3266
  115MOL0     C15757  11.685   9.479   1.673 -0.0882  0.1399  0.4535
  115MOL0     C15758  11.771   9.443   1.573 -0.6556 -0.1127  0.7991
  115MOL0     C15759  11.891   9.511   1.537 -0.2665  0.2409 -0.5616
  115MOL0     C15760  11.981   9.444   1.437  0.2018 -0.5184 -0.3038
  115MOL0     C15761  11.936   9.617   1.622  0.2081  0.8626  0.1663
  115MOL0     C15762  12.068   9.694   1.612  0.0062 -0.0473 -0.6951
  115MOL0     O15763  12.099   9.774   1.717  0.2475  0.5879  0.0155
  115MOL0     C15764  12.226   9.817   1.712  0.1284  0.6728  0.0365
  115MOL0     C15765  12.335   9.763   1.783 -0.5691 -0.3371 -0.8423
  115MOL0     C15766  12.460   9.827   1.781  0.7292 -1.2429 -0.7481
  115MOL0     C15767  12.473   9.946   1.709 -0.1633 -0.6539 -1.3895
  115MOL0     O15768  12.581  10.030   1.711  0.3959 -0.6297 -0.6174
  115MOL0     C15769  12.629  10.062   1.845  0.9191 -0.0693  0.1452
  115MOL0     C15770  12.766  10.133   1.835 -0.4658  0.3802 -0.8620
  115MOL0     C15771  12.863  10.064   1.734 -0.4775 -0.0742 -0.7871
  115MOL0     C15772  13.006  10.087   1.777 -0.4068  0.4091  0.5098
  115MOL0     C15773  13.093   9.989   1.704 -0.4541 -0.2329  0.2375
  115MOL0     C15774  13.233   9.986   1.765 -0.0264 -0.1230  0.1391
  115MOL0     C15775  13.322  10.108   1.733 -0.0962 -0.0717 -0.5049
  115MOL0     C15776  13.473  10.101   1.792  0.1972  0.6227  0.1544
  115MOL0    Cl15777  13.553  10.261   1.759 -0.1373  0.3264  0.1398
  115MOL0     C15778  12.372  10.000   1.628  0.2972  1.3090 -0.1059
  115MOL0     C15779  12.248   9.934   1.634  0.1360 -0.1110 -0.0447
  115MOL0     O15780  12.123   9.694   1.501 -0.9688  0.2279 -0.3566
  115MOL0     C15781  11.839   9.658   1.714 -0.7819 -0.7256 -1.0261
  115MOL0     C15782  11.718   9.603   1.737 -0.7304 -0.2393 -0.2678
  115MOL0     N15783  11.019   9.151   1.450  0.3217 -0.2005  0.0295
  115MOL0     N15784  10.909   9.082   1.466  0.9414  0.0898  0.1759
  115MOL0     C15785  10.059   8.367   1.775  0.4017  0.0778  0.2673
  115MOL0     C15786   9.951   8.323   1.704  0.8102  0.5254 -0.4672
  115MOL0     C15787   9.689   8.123   1.353 -0.7693  0.8894  0.6679
  115MOL0     C15788   9.684   8.052   1.232  0.5576 -0.3949  0.4308
  115MOL0     C15789   9.560   8.043   1.163  0.3470 -0.4801  0.7155
  115MOL0     C15790   9.447   8.101   1.218  0.3440  0.0730 -0.2097
  115MOL0     O15791   9.326   8.083   1.166  0.2616 -0.2203 -0.2550
  115MOL0     C15792   9.301   7.975   1.074  0.3855  0.0213  0.0450
  115MOL0     C15793   9.154   7.955   1.078  0.7686  0.0217  0.0730
  115MOL0     C15794   9.108   7.891   1.208 -0.2081  0.3779  0.5312
  115MOL0     C15795   9.132   7.968   1.342  0.2954 -0.3987  0.2026
  115MOL0     C15796   9.064   8.102   1.337 -0.2877 -0.4036  0.7048
  115MOL0     C15797   9.006   8.207   1.356  0.3779  0.2159  0.3252
  115MOL0     C15798   9.454   8.184   1.327 -0.3538 -0.6987 -0.6077
  115MOL0     C15799   9.572   8.185   1.401  0.1176 -0.3240 -0.2107
  115MOL0     C15800   9.568   8.262   1.524  0.0760  0.8920 -0.5373
  115MOL0     H15801  10.116   8.103   1.498 -2.3708 -0.8208 -0.4391
  115MOL0     H15802  10.297   8.196   1.602  0.0835 -0.0866 -1.2975
  115MOL0     H15803  10.220   8.383   1.992 -1.6264 -0.4204 -2.8465
  115MOL0     H15804  10.229   8.539   1.898  1.7265  1.1523 -0.0406
  115MOL0     H15805  10.378   8.559   2.067 -0.8875  0.4788 -0.7224
  115MOL0     H15806  10.468   8.418   2.023  0.0545 -0.7681 -1.1595
  115MOL0     H15807  10.587   8.503   1.856 -0.8383 -1.1669  1.7643
  115MOL0     H15808  10.439   8.588   1.787  0.0214  2.0917  0.4156
  115MOL0     H15809  10.484   8.754   1.971 -0.6233 -0.8291  1.0122
  115MOL0     H15810  10.627   8.660   2.009  0.6460 -1.9377 -1.6934
  115MOL0     H15811  10.646   8.880   1.877 -1.6723 -0.2684  1.1516
  115MOL0     H15812  10.610   8.778   1.735  2.1212 -0.7858 -1.1578
  115MOL0     H15813  10.829   8.693   1.920 -1.6221  2.2733  1.4605
  115MOL0     H15814  10.798   8.630   1.758  0.1366  0.6067 -0.5306
  115MOL0     H15815  10.990   8.774   1.751 -0.2801 -1.4446  1.3633
  115MOL0     H15816  10.917   8.910   1.829  3.9514 -1.3744  0.5050
  115MOL0     H15817  10.846   8.815   1.559 -0.1794 -0.1431  0.3929
  115MOL0     H15818  10.757   8.940   1.650  0.7018  0.4229  2.0023
  115MOL0     H15819  11.121   8.931   1.672 -2.6417 -1.8374  0.0784
  115MOL0     H15820  11.294   9.183   1.454  1.9592  4.0738  2.6833
  115MOL0     H15821  11.340   9.039   1.547  1.5823  0.8542 -1.3055
  115MOL0     H15822  11.291   9.325   1.627  0.3809  0.2950 -0.7703
  115MOL0     H15823  11.233   9.194   1.737  2.1710  0.2255  1.2273
  115MOL0     H15824  11.439   9.238   1.819  1.4488 -0.3731  0.2477
  115MOL0     H15825  11.483   9.106   1.716  2.2425  0.6624  1.4273
  115MOL0     H15826  11.649   9.224   1.667  1.2062 -0.1189 -2.1047
  115MOL0     H15827  11.545   9.301   1.547  2.3246  0.7612  0.4674
  115MOL0     H15828  11.760   9.347   1.523 -1.4531  0.8257 -0.8792
  115MOL0     H15829  12.068   9.408   1.492 -0.5949 -0.9218  0.7380
  115MOL0     H15830  12.010   9.496   1.345 -0.3064 -0.9909 -0.7371
  115MOL0     H15831  11.933   9.352   1.402  1.8481 -1.0791 -1.1844
  115MOL0     H15832  12.324   9.673   1.843 -0.7702  0.8892  1.0725
  115MOL0     H15833  12.548   9.786   1.830  0.7776  0.9993  1.1979
  115MOL0     H15834  12.561  10.124   1.904  0.8236  1.6176 -1.6020
  115MOL0     H15835  12.641   9.971   1.905 -0.5181 -0.0684  0.4633
  115MOL0     H15836  12.749  10.236   1.803 -1.3005  0.0584 -1.4598
  115MOL0     H15837  12.819  10.138   1.931  0.8912 -0.9886 -1.4886
  115MOL0     H15838  12.843  10.097   1.632  2.9272 -2.3029 -2.3539
  115MOL0     H15839  12.840   9.958   1.748  1.1658 -0.1889  1.6860
  115MOL0     H15840  13.019  10.055   1.881 -0.6971 -5.9011 -0.9846
  115MOL0     H15841  13.043  10.189   1.761 -0.8901  0.9244  2.4086
  115MOL0     H15842  13.050   9.890   1.725 -1.8746 -0.1703 -2.0262
  115MOL0     H15843  13.082  10.018   1.599 -1.6427  0.7405  0.6090
  115MOL0     H15844  13.282   9.892   1.739  1.4950  0.9921 -1.2125
  115MOL0     H15845  13.238   9.987   1.874  1.5645 -0.6790  0.0993
  115MOL0     H15846  13.280  10.197   1.781  1.5491  0.0736  0.7567
  115MOL0     H15847  13.318  10.136   1.627  0.5998  1.0679 -0.2541
  115MOL0     H15848  13.532  10.017   1.755  1.5532  0.6305  2.1702
  115MOL0     H15849  13.468  10.094   1.901 -4.5737  1.5945  0.2403
  115MOL0     H15850  12.404  10.085   1.569  3.1635  0.0751 -0.5263
  115MOL0     H15851  12.163   9.973   1.579  0.1463  1.5255  1.0267
  115MOL0     H15852  11.864   9.749   1.767 -1.4779 -0.7050 -0.7331
  115MOL0     H15853  11.657   9.652   1.813 -0.4306  0.9560 -0.7754
  115MOL0     H15854  10.039   8.437   1.856 -1.5424 -0.3798  0.2271
  115MOL0     H15855   9.851   8.362   1.721 -0.2245 -1.1137 -2.3841
  115MOL0     H15856   9.768   8.003   1.185  0.5013  1.5245 -1.9151
  115MOL0     H15857   9.560   7.986   1.071 -2.6534 -0.5494  0.6720
  115MOL0     H15858   9.335   8.001   0.974  2.0346  0.1813  0.6161
  115MOL0     H15859   9.358   7.887   1.106  1.4801  0.8571  0.4511
  115MOL0     H15860   9.120   7.885   1.002 -2.8636 -0.1498  1.6519
  115MOL0     H15861   9.100   8.050   1.078 -2.0310 -1.4806 -0.0618
  115MOL0     H15862   9.001   7.878   1.190  0.2469 -0.2894 -2.2215
  115MOL0     H15863   9.150   7.791   1.223  3.0379  1.3537 -0.9617
  115MOL0     H15864   9.239   7.987   1.354  0.3947  0.4802 -1.7811
  115MOL0     H15865   9.101   7.914   1.432 -1.2182  1.6358  0.9866
  115MOL0     H15866   8.953   8.300   1.356 -1.3951 -0.7371  1.2378
  115MOL0     H15867   9.367   8.237   1.366 -1.2259 -1.9504 -0.8143
  115MOL0     H15868   9.539   8.198   1.608  1.0810 -0.9982 -1.5561
  115MOL0     H15869   9.655   8.323   1.549  0.5545  0.6119 -1.4595
  115MOL0     H15870   9.495   8.343   1.516  0.3871  1.4875  1.7865
  116MOL0     O15871   6.210   0.092   3.083 -0.1666  0.3454  0.6895
  116MOL0     C15872   6.326   0.070   3.054  0.6337 -0.4667 -0.0038
  116MOL0     O15873   6.399  -0.029   3.101 -0.6281 -0.3860  0.3385
  116MOL0     C15874   6.343  -0.144   3.149  0.6642 -0.4743 -0.1936
  116MOL0     C15875   6.230  -0.203   3.085 -0.2862  0.6743 -0.0275
  116MOL0     C15876   6.170  -0.328   3.133 -0.6755 -0.7759  0.3609
  116MOL0     C15877   6.225  -0.386   3.247  0.4334  0.7545 -0.4483
  116MOL0     O15878   6.168  -0.496   3.305  0.1467  0.0881 -0.4109
  116MOL0     C15879   6.100  -0.587   3.216 -0.5950 -0.2095 -0.0058
  116MOL0     C15880   6.063  -0.717   3.288  0.1573  0.2657  0.4558
  116MOL0     C15881   6.189  -0.803   3.327  0.2966 -0.5797  0.5668
  116MOL0     C15882   6.137  -0.939   3.383 -0.8594 -0.9020  0.1789
  116MOL0     C15883   6.230  -1.018   3.479 -0.3317  0.3110  0.4072
  116MOL0     C15884   6.366  -1.066   3.408  0.0798  0.0851 -0.1084
  116MOL0     C15885   6.478  -1.109   3.502  0.2805 -0.8173  0.0571
  116MOL0     C15886   6.593  -1.186   3.431 -1.2141  0.8418  0.4899
  116MOL0     N15887   6.723  -1.112   3.431 -0.2044 -0.1173  0.6274
  116MOL0     C15888   6.771  -1.045   3.322 -0.1206  0.1013  0.0405
  116MOL0     C15889   6.865  -0.962   3.368  0.1016  0.1233  0.0613
  116MOL0     C15890   6.958  -0.860   3.293  0.0388 -0.3205 -0.0499
  116MOL0     C15891   7.109  -0.898   3.317  0.3898 -0.6769 -0.1342
  116MOL0     C15892   7.137  -1.028   3.260 -0.8047  0.1529  1.2230
  116MOL0     C15893   7.296  -1.046   3.254  0.4931 -0.1889 -0.4096
  116MOL0     O15894   7.355  -1.056   3.387 -0.4414 -0.0272  0.3432
  116MOL0     C15895   7.489  -1.071   3.407 -0.0508 -0.4561  0.6026
  116MOL0     C15896   7.583  -1.115   3.315 -0.0294 -0.2033 -0.3937
  116MOL0     C15897   7.714  -1.140   3.346  0.0283  0.7835 -0.6658
  116MOL0     C15898   7.797  -1.208   3.241  0.1625 -0.2403  0.2562
  116MOL0     C15899   7.761  -1.119   3.479 -0.5130  0.4266  0.2732
  116MOL0     C15900   7.897  -1.156   3.531 -0.4319 -0.1990  0.0301
  116MOL0     O15901   8.009  -1.134   3.456  0.5964 -0.4969 -0.5077
  116MOL0     C15902   8.125  -1.194   3.480  0.4275 -0.2419 -0.3902
  116MOL0     C15903   8.238  -1.139   3.416 -0.1259 -0.6033 -0.9419
  116MOL0     C15904   8.360  -1.203   3.418  0.2056  0.0073 -0.0439
  116MOL0     C15905   8.375  -1.322   3.489 -0.0924 -0.0713  0.1509
  116MOL0     O15906   8.506  -1.367   3.497 -0.0273 -0.3278 -0.3813
  116MOL0     C15907   8.529  -1.452   3.613  0.0825  0.0220 -0.1221
  116MOL0     C15908   8.681  -1.462   3.620 -0.2284 -0.2920 -0.1390
  116MOL0     C15909   8.759  -1.345   3.676 -0.2917  0.6586 -0.9316
  116MOL0     C15910   8.768  -1.227   3.581 -0.1999  0.2909 -0.0299
  116MOL0     C15911   8.841  -1.111   3.648 -0.2291 -0.1300 -0.5988
  116MOL0     C15912   8.854  -1.000   3.550  0.5423 -0.4522 -0.8111
  116MOL0     C15913   8.938  -0.886   3.605 -0.0089 -0.6463  0.8298
  116MOL0     C15914   8.998  -0.801   3.490  0.0591 -0.1200 -0.1307
  116MOL0    Cl15915   9.111  -0.682   3.555  0.1663 -0.1470 -0.1240
  116MOL0     C15916   8.265  -1.378   3.554  1.0679 -0.3732 -0.1946
  116MOL0     C15917   8.135  -1.316   3.542 -0.4185 -0.2842 -0.1934
  116MOL0     O15918   7.899  -1.193   3.646 -0.0429 -0.0494  0.6271
  116MOL0     C15919   7.667  -1.069   3.568  0.9228  0.0509  0.3983
  116MOL0     C15920   7.539  -1.046   3.536  0.5415  0.6427  0.4018
  116MOL0     N15921   6.858  -0.964   3.504 -0.3765 -0.2195 -0.0404
  116MOL0     N15922   6.781  -1.057   3.541  0.4350  0.4790  0.7954
  116MOL0     C15923   6.336  -0.334   3.312 -0.1259 -0.1598 -0.5415
  116MOL0     C15924   6.395  -0.215   3.257  0.1278  0.1012  0.3845
  116MOL0     C15925   6.405   0.164   2.970 -0.3873 -0.1003 -0.5898
  116MOL0     C15926   6.345   0.283   2.938 -0.7122 -0.4580 -0.8367
  116MOL0     C15927   6.420   0.367   2.855  0.6886 -1.1240  0.4429
  116MOL0     C15928   6.542   0.338   2.807  0.9745 -0.9354 -0.2442
  116MOL0     O15929   6.608   0.441   2.740 -0.4423 -0.2625 -0.3384
  116MOL0     C15930   6.743   0.438   2.707 -0.2817  0.5469  0.0110
  116MOL0     C15931   6.752   0.373   2.567 -0.2434 -0.3305 -0.1457
  116MOL0     C15932   6.718   0.466   2.457  0.5843  1.0528  0.4122
  116MOL0     C15933   6.723   0.415   2.320  1.1541 -0.2131  0.2337
  116MOL0     C15934   6.853   0.448   2.265 -0.3809 -0.5285 -0.7068
  116MOL0     C15935   6.963   0.461   2.211 -0.0144  0.5174  0.5433
  116MOL0     C15936   6.599   0.217   2.840 -0.3070 -0.3195  0.3423
  116MOL0     C15937   6.538   0.131   2.927  0.2157  0.1795 -0.7430
  116MOL0     C15938   6.608  -0.014   2.929  0.0494 -1.3608  0.3606
  116MOL0     H15939   6.197  -0.147   2.998  2.1903  3.0338  0.3841
  116MOL0     H15940   6.082  -0.358   3.077 -2.7084  1.8720  1.9174
  116MOL0     H15941   6.164  -0.609   3.130  0.0086  1.1221  0.0942
  116MOL0     H15942   6.011  -0.538   3.175 -1.4094 -2.8546 -1.7088
  116MOL0     H15943   6.011  -0.690   3.380  0.9089  1.4072  0.5589
  116MOL0     H15944   5.990  -0.767   3.223 -0.5255  0.8635  0.7424
  116MOL0     H15945   6.249  -0.812   3.236 -0.7329  2.1637 -0.4728
  116MOL0     H15946   6.236  -0.751   3.412 -0.0299  1.5049 -0.4626
  116MOL0     H15947   6.044  -0.917   3.435  0.1955  0.5996  1.5105
  116MOL0     H15948   6.106  -1.005   3.301  0.0913 -1.0430 -0.0853
  116MOL0     H15949   6.177  -1.107   3.514 -0.0318 -0.3463 -0.7393
  116MOL0     H15950   6.262  -0.952   3.561  0.1279  1.9552 -1.0267
  116MOL0     H15951   6.350  -1.152   3.342  0.5956 -0.5545  0.5751
  116MOL0     H15952   6.407  -0.991   3.340 -3.0642  1.2773 -0.8334
  116MOL0     H15953   6.437  -1.174   3.580  0.3490  0.7546  1.4645
  116MOL0     H15954   6.516  -1.022   3.557  0.3213 -0.0081 -1.2114
  116MOL0     H15955   6.622  -1.280   3.479 -0.6714  1.8903  2.3186
  116MOL0     H15956   6.569  -1.199   3.325 -3.4531  1.4080  0.8821
  116MOL0     H15957   6.750  -1.050   3.216  1.1200  2.6739 -0.4039
  116MOL0     H15958   6.949  -0.767   3.350 -0.7362  0.0841 -0.7999
  116MOL0     H15959   6.942  -0.840   3.186 -0.1005 -0.0240  0.0237
  116MOL0     H15960   7.163  -0.821   3.261 -0.2239 -0.7655 -0.8592
  116MOL0     H15961   7.131  -0.898   3.424  0.5206 -0.4553 -0.1593
  116MOL0     H15962   7.097  -1.104   3.327  1.6667 -1.3736  1.0862
  116MOL0     H15963   7.095  -1.041   3.160  0.5683  0.1660  0.6181
  116MOL0     H15964   7.318  -1.145   3.213  2.5807 -0.3355  0.9257
  116MOL0     H15965   7.347  -0.972   3.191  2.0837 -2.7751 -2.3533
  116MOL0     H15966   7.539  -1.123   3.216 -1.5084 -2.1870  0.3693
  116MOL0     H15967   7.884  -1.146   3.220  0.3095 -0.3913  0.4177
  116MOL0     H15968   7.735  -1.235   3.155 -1.5850  0.6162  1.1848
  116MOL0     H15969   7.826  -1.303   3.285 -0.9774 -0.8034 -0.1700
  116MOL0     H15970   8.229  -1.054   3.349 -1.0903 -0.6822 -0.9279
  116MOL0     H15971   8.438  -1.161   3.357  0.1073  2.5670  1.4633
  116MOL0     H15972   8.485  -1.420   3.708 -1.4036 -2.0044 -0.0556
  116MOL0     H15973   8.486  -1.552   3.601 -0.8955  0.7733 -5.4299
  116MOL0     H15974   8.691  -1.543   3.692 -4.9867 -1.1326 -0.1157
  116MOL0     H15975   8.729  -1.493   3.527  1.4574  2.0679 -0.1322
  116MOL0     H15976   8.859  -1.377   3.708 -0.1947  0.1159 -1.7612
  116MOL0     H15977   8.698  -1.309   3.760  1.0961 -0.6988  0.7493
  116MOL0     H15978   8.669  -1.195   3.549 -0.1613 -1.1132 -1.7292
  116MOL0     H15979   8.833  -1.242   3.494 -0.7454 -1.9455 -0.1201
  116MOL0     H15980   8.794  -1.078   3.741 -0.3692 -1.8552 -0.0255
  116MOL0     H15981   8.942  -1.138   3.680 -1.0924 -1.8360  0.8800
  116MOL0     H15982   8.755  -0.972   3.513 -0.6905 -2.0914  1.0556
  116MOL0     H15983   8.915  -1.036   3.466 -0.4854 -1.5850 -1.0954
  116MOL0     H15984   9.024  -0.913   3.667 -1.9699 -0.1573  4.0577
  116MOL0     H15985   8.874  -0.813   3.656  2.0117  1.9332 -0.1309
  116MOL0     H15986   8.914  -0.750   3.442  0.0364 -1.9077 -2.1627
  116MOL0     H15987   9.052  -0.867   3.422  0.2418 -0.7736  0.6372
  116MOL0     H15988   8.277  -1.477   3.598  2.4325  1.0605  2.9909
  116MOL0     H15989   8.051  -1.366   3.588 -0.5256 -1.1504 -1.3043
  116MOL0     H15990   7.702  -1.039   3.666  2.9516 -0.0383 -0.2547
  116MOL0     H15991   7.473  -0.995   3.605 -0.1761  1.2657 -0.7093
  116MOL0     H15992   6.363  -0.376   3.408 -1.7659 -1.0512 -0.4404
  116MOL0     H15993   6.491  -0.178   3.292  1.1997 -0.9224 -1.3109
  116MOL0     H15994   6.245   0.314   2.968  0.1569  0.1690  1.6623
  116MOL0     H15995   6.382   0.465   2.828 -1.5095 -1.8545  0.6702
  116MOL0     H15996   6.779   0.541   2.697 -0.2881  0.3598 -2.7138
  116MOL0     H15997   6.799   0.378   2.780 -0.0679 -0.6611 -1.1172
  116MOL0     H15998   6.697   0.280   2.554 -0.7297 -0.0842  0.1153
  116MOL0     H15999   6.859   0.355   2.553 -0.1169 -1.1204  1.6511
  116MOL0     H16000   6.615   0.502   2.465 -0.8196 -1.7063 -2.7270
  116MOL0     H16001   6.774   0.560   2.458  0.1600  1.3127  0.0406
  116MOL0     H16002   6.651   0.467   2.256 -2.7064 -2.2071  2.5168
  116MOL0     H16003   6.686   0.312   2.314 -0.0927  0.2857 -1.4146
  116MOL0     H16004   7.063   0.472   2.177  1.4862  0.5600  4.4389
  116MOL0     H16005   6.697   0.196   2.798 -0.2174  1.8904 -0.6963
  116MOL0     H16006   6.640  -0.034   3.032  0.4391  0.8903  0.7420
  116MOL0     H16007   6.531  -0.086   2.900 -1.0093 -0.3221  0.5088
  116MOL0     H16008   6.696  -0.019   2.864 -1.1927 -0.6293 -1.4585
  117MOL0     O16009   3.105   1.656   6.578  0.2104  0.1937  1.1884
  117MOL0     C16010   3.025   1.616   6.664 -0.1621 -0.1384  0.7625
  117MOL0     O16011   3.038   1.622   6.799  0.2755  0.0265  0.2581
  117MOL0     C16012   3.160   1.652   6.853 -0.0711 -0.2323 -0.3418
  117MOL0     C16013   3.219   1.775   6.834  0.4834  0.1274 -0.2640
  117MOL0     C16014   3.338   1.810   6.894  0.5628  0.6015 -0.1385
  117MOL0     C16015   3.408   1.718   6.968  0.7837 -0.0577  0.9061
  117MOL0     O16016   3.532   1.759   7.013  0.4234 -0.4106  0.0773
  117MOL0     C16017   3.625   1.656   7.064 -0.1956 -1.4692  0.3010
  117MOL0     C16018   3.763   1.717   7.051 -0.0419 -0.0054  0.2291
  117MOL0     C16019   3.787   1.824   7.155 -1.0005  0.6959  0.1203
  117MOL0     C16020   3.936   1.837   7.175 -0.0234 -0.1546  0.2316
  117MOL0     C16021   3.972   1.946   7.279 -0.1459 -0.7762 -0.4313
  117MOL0     C16022   4.121   1.920   7.310  0.0785 -0.4567 -0.5608
  117MOL0     C16023   4.168   2.020   7.428 -0.7684  0.9127  0.4692
  117MOL0     C16024   4.311   1.991   7.487  0.2530  0.2176 -0.1322
  117MOL0     N16025   4.417   2.046   7.405 -0.1760  0.0863 -0.0177
  117MOL0     C16026   4.448   2.182   7.387 -0.4215 -0.0082 -1.0580
  117MOL0     C16027   4.542   2.191   7.293  0.2120 -0.0451 -0.3690
  117MOL0     C16028   4.614   2.313   7.244 -0.0446  0.0412 -0.3113
  117MOL0     C16029   4.696   2.305   7.117  0.3297 -0.0629  0.0422
  117MOL0     C16030   4.765   2.439   7.085 -0.1906  0.1342 -0.0630
  117MOL0     C16031   4.870   2.404   6.980  0.3438 -1.0148 -0.1375
  117MOL0     O16032   4.960   2.518   6.981  0.1660  0.7696 -0.6711
  117MOL0     C16033   5.065   2.519   6.895  0.1449  0.0856 -0.2580
  117MOL0     C16034   5.169   2.429   6.912 -0.5073 -0.5936  1.2053
  117MOL0     C16035   5.296   2.447   6.846 -0.3812 -0.5107  0.4290
  117MOL0     C16036   5.399   2.341   6.875  0.8004 -0.4815 -0.3473
  117MOL0     C16037   5.315   2.560   6.771  0.1121  0.8264 -0.8151
  117MOL0     C16038   5.440   2.599   6.694  0.0394 -1.6364  0.0552
  117MOL0     O16039   5.415   2.706   6.611  0.0964 -0.0280  0.9381
  117MOL0     C16040   5.523   2.779   6.557 -0.1246 -0.1716  0.1137
  117MOL0     C16041   5.620   2.730   6.476  0.2746 -0.0852 -0.1839
  117MOL0     C16042   5.700   2.818   6.406  0.0895 -0.0542  0.8417
  117MOL0     C16043   5.692   2.955   6.418  0.1222  0.3821 -0.0920
  117MOL0     O16044   5.779   3.042   6.358 -0.6608 -0.5974  1.0441
  117MOL0     C16045   5.822   3.015   6.218 -0.5906  0.1536  0.4791
  117MOL0     C16046   5.972   2.973   6.211 -0.6907 -0.2289  0.5107
  117MOL0     C16047   6.073   3.090   6.245 -0.0493 -0.0059 -0.2034
  117MOL0     C16048   6.064   3.201   6.136 -0.5468  0.5575  0.3994
  117MOL0     C16049   6.199   3.273   6.123 -0.9178 -0.7814 -0.2461
  117MOL0     C16050   6.264   3.304   6.259  0.2416  0.1025  0.6199
  117MOL0     C16051   6.374   3.409   6.249  0.0531 -0.2085 -0.0647
  117MOL0     C16052   6.506   3.359   6.172 -0.0160 -0.5353 -0.4326
  117MOL0    Cl16053   6.616   3.321   6.293 -0.0414 -0.1217 -0.3422
  117MOL0     C16054   5.591   3.001   6.495 -0.4133  0.3914 -0.0932
  117MOL0     C16055   5.505   2.915   6.567  0.1978 -0.6802 -1.0055
  117MOL0     O16056   5.548   2.561   6.723 -0.1066  0.4278 -0.5196
  117MOL0     C16057   5.208   2.655   6.751 -0.1533  0.3376 -0.0488
  117MOL0     C16058   5.087   2.625   6.813  0.4922  0.2814 -0.1618
  117MOL0     N16059   4.563   2.061   7.256  0.2141  0.1313  0.6923
  117MOL0     N16060   4.486   1.975   7.316 -0.6516 -0.3051 -0.9179
  117MOL0     C16061   3.358   1.588   6.976  0.3016  0.4170 -0.6879
  117MOL0     C16062   3.229   1.560   6.923  0.2230 -0.0308 -0.7772
  117MOL0     C16063   2.888   1.566   6.632  0.2481 -0.0790  0.2125
  117MOL0     C16064   2.809   1.495   6.730 -0.1594 -0.2016  0.5415
  117MOL0     C16065   2.680   1.443   6.699 -0.2113 -0.6998 -0.8347
  117MOL0     C16066   2.625   1.466   6.571  0.0990 -0.6602  0.6814
  117MOL0     O16067   2.502   1.427   6.527  0.2695 -0.1468  0.0112
  117MOL0     C16068   2.399   1.404   6.629 -1.4672 -0.2421  0.2777
  117MOL0     C16069   2.260   1.395   6.588  0.1494 -0.7221  0.7577
  117MOL0     C16070   2.227   1.502   6.483 -0.3027 -0.2663 -0.7313
  117MOL0     C16071   2.075   1.528   6.491  0.1590 -0.6020 -0.4412
  117MOL0     C16072   2.036   1.650   6.425  0.0350  0.7340  0.4758
  117MOL0     C16073   2.001   1.747   6.369 -0.3137  0.2202 -0.0954
  117MOL0     C16074   2.709   1.516   6.474 -0.2512 -0.0666  0.9545
  117MOL0     C16075   2.834   1.577   6.505 -0.8764  0.0949  1.1479
  117MOL0     C16076   2.907   1.646   6.386  0.3118  0.1779 -0.3529
  117MOL0     H16077   3.150   1.844   6.786  1.4112  0.7803 -0.6892
  117MOL0     H16078   3.377   1.910   6.880  2.4989 -0.5129 -4.6609
  117MOL0     H16079   3.621   1.561   7.011  2.4388 -0.3024 -2.2068
  117MOL0     H16080   3.613   1.642   7.172  1.8550 -1.4174  0.5755
  117MOL0     H16081   3.839   1.638   7.056 -0.6965 -0.6443  0.2602
  117MOL0     H16082   3.773   1.765   6.953 -1.7698 -0.0412  0.0118
  117MOL0     H16083   3.732   1.907   7.110 -1.7488 -0.6848 -1.6693
  117MOL0     H16084   3.739   1.793   7.249 -2.2645 -3.5844 -1.6807
  117MOL0     H16085   3.986   1.741   7.195 -1.0487 -0.2909  2.5001
  117MOL0     H16086   3.986   1.865   7.082 -1.2692 -0.4502 -0.5438
  117MOL0     H16087   3.912   1.925   7.368  2.4911 -3.1217  0.9606
  117MOL0     H16088   3.955   2.050   7.250 -2.0044 -0.8015  0.4112
  117MOL0     H16089   4.140   1.819   7.349 -0.3989 -0.0467  0.7920
  117MOL0     H16090   4.179   1.943   7.220 -0.9534  0.6715 -0.9675
  117MOL0     H16091   4.098   2.020   7.512 -1.9738 -1.1308 -0.4515
  117MOL0     H16092   4.166   2.122   7.389 -0.3498 -0.5680 -3.9917
  117MOL0     H16093   4.318   2.037   7.586 -2.5018 -1.7928  1.1249
  117MOL0     H16094   4.307   1.882   7.492 -0.8677  0.1402 -2.0088
  117MOL0     H16095   4.406   2.263   7.445  0.5700  1.0552 -1.7781
  117MOL0     H16096   4.676   2.345   7.328  0.9476 -3.8793  0.6398
  117MOL0     H16097   4.532   2.385   7.229 -1.6269 -1.6318 -0.1084
  117MOL0     H16098   4.776   2.231   7.127  1.8067  1.1587 -1.9425
  117MOL0     H16099   4.633   2.266   7.036 -1.9071  0.0627  1.6432
  117MOL0     H16100   4.689   2.514   7.059  0.8375  0.2144 -3.1961
  117MOL0     H16101   4.824   2.477   7.168  0.7008  0.1420 -0.6914
  117MOL0     H16102   4.922   2.310   7.003 -0.9364 -2.2421 -1.9565
  117MOL0     H16103   4.821   2.382   6.884 -0.0379 -1.7003  0.2091
  117MOL0     H16104   5.151   2.349   6.983 -0.9187 -0.3084  1.4264
  117MOL0     H16105   5.468   2.376   6.953 -1.1005 -2.4513  2.4354
  117MOL0     H16106   5.448   2.317   6.781  0.2425 -0.0634 -0.7485
  117MOL0     H16107   5.352   2.251   6.914 -0.6196  1.5526  3.1436
  117MOL0     H16108   5.641   2.624   6.467 -0.4503 -0.4496  1.8643
  117MOL0     H16109   5.792   2.799   6.351 -1.3562  1.5770 -2.4542
  117MOL0     H16110   5.764   2.934   6.173  0.6442 -0.0253 -0.8647
  117MOL0     H16111   5.806   3.109   6.164 -0.0446 -0.4147 -0.7005
  117MOL0     H16112   5.996   2.880   6.263  0.4080 -0.1845  0.1254
  117MOL0     H16113   5.988   2.938   6.108 -1.9782 -0.1915  0.2796
  117MOL0     H16114   6.169   3.038   6.245 -0.3832 -0.6885 -2.1639
  117MOL0     H16115   6.043   3.131   6.342 -2.9743 -0.5679 -0.7743
  117MOL0     H16116   5.985   3.272   6.166  0.4937  1.5828  0.8102
  117MOL0     H16117   6.046   3.170   6.033 -4.0094  1.9867  0.4116
  117MOL0     H16118   6.271   3.215   6.064 -0.3502  0.7644 -1.1308
  117MOL0     H16119   6.180   3.367   6.069 -2.8842 -0.6327  0.6111
  117MOL0     H16120   6.309   3.213   6.299 -0.8884  0.0970  1.9752
  117MOL0     H16121   6.190   3.337   6.332 -2.2556 -1.9018 -0.8163
  117MOL0     H16122   6.403   3.432   6.351 -1.0437 -1.4508  0.5640
  117MOL0     H16123   6.344   3.502   6.201 -1.8075 -0.0759  1.2623
  117MOL0     H16124   6.548   3.438   6.109  0.4606 -0.0582  0.4689
  117MOL0     H16125   6.476   3.275   6.109 -1.0853 -1.4992  1.2863
  117MOL0     H16126   5.575   3.108   6.491 -0.0160  0.4510 -0.0773
  117MOL0     H16127   5.430   2.968   6.624  1.9743  0.8579  0.0059
  117MOL0     H16128   5.217   2.741   6.684 -1.0394  0.6701  0.2431
  117MOL0     H16129   5.007   2.698   6.796 -0.0653 -0.2182  0.2808
  117MOL0     H16130   3.417   1.511   7.025 -0.4494  1.1651  1.4997
  117MOL0     H16131   3.180   1.464   6.939  1.5011 -0.4428  1.0725
  117MOL0     H16132   2.848   1.480   6.830  0.9162 -0.5296  0.0807
  117MOL0     H16133   2.639   1.373   6.771  1.0348  0.2118  0.8263
  117MOL0     H16134   2.426   1.326   6.701 -3.2139 -0.8178  0.3567
  117MOL0     H16135   2.393   1.494   6.691 -2.3633  0.2991 -0.5652
  117MOL0     H16136   2.194   1.402   6.675 -2.6331 -0.5659 -1.2077
  117MOL0     H16137   2.224   1.305   6.538 -0.5383 -0.1029  0.0976
  117MOL0     H16138   2.289   1.589   6.509 -1.2864 -0.0995  1.3078
  117MOL0     H16139   2.255   1.480   6.380 -0.3029 -0.8144 -0.6167
  117MOL0     H16140   2.049   1.544   6.596  1.7998 -1.3785  0.1181
  117MOL0     H16141   2.011   1.445   6.459 -1.1395  0.1388  0.1552
  117MOL0     H16142   1.971   1.836   6.317 -2.2369 -0.1584  0.3109
  117MOL0     H16143   2.666   1.516   6.374 -0.9008 -0.5594  1.2211
  117MOL0     H16144   2.989   1.583   6.350  1.6140  1.7849 -0.3350
  117MOL0     H16145   2.843   1.674   6.302  1.2185 -1.1211 -1.5262
  117MOL0     H16146   2.951   1.743   6.411  0.1030  0.4049 -0.8435
  118MOL0     O16147   1.520   3.646   0.134 -0.5942  0.4418  0.0869
  118MOL0     C16148   1.442   3.553   0.142  0.2580 -1.0395 -0.3952
  118MOL0     O16149   1.478   3.421   0.135 -0.2468 -0.0557  0.3247
  118MOL0     C16150   1.608   3.386   0.110  0.0756 -0.3171  0.0361
  118MOL0     C16151   1.666   3.277   0.172  1.1383 -0.0734 -0.3573
  118MOL0     C16152   1.790   3.231   0.147  0.0860  0.1934 -0.1904
  118MOL0     C16153   1.866   3.287   0.048 -0.4476  0.4084  0.2791
  118MOL0     O16154   1.996   3.254   0.018  0.7011  0.4537 -0.0355
  118MOL0     C16155   2.052   3.125   0.055 -0.5942  0.2794 -0.9001
  118MOL0     C16156   2.205   3.098   0.022 -0.0050 -0.6700 -0.1622
  118MOL0     C16157   2.229   3.111  -0.126  0.6485  0.3410 -0.7675
  118MOL0     C16158   2.380   3.109  -0.145 -0.8327  0.1596  0.4646
  118MOL0     C16159   2.420   3.094  -0.294 -0.3692  0.1432 -0.1623
  118MOL0     C16160   2.546   3.182  -0.317  0.1667  0.0305 -0.6189
  118MOL0     C16161   2.668   3.151  -0.225 -0.3791 -0.1259 -0.3364
  118MOL0     C16162   2.745   3.025  -0.276  0.4037 -0.6691  0.3005
  118MOL0     N16163   2.781   3.027  -0.418  0.8543  0.7307 -0.7443
  118MOL0     C16164   2.866   3.118  -0.478  0.7578  1.0755  0.1489
  118MOL0     C16165   2.836   3.101  -0.607 -0.2102  1.0510 -0.4353
  118MOL0     C16166   2.897   3.163  -0.725 -0.0636  0.1912 -0.0105
  118MOL0     C16167   3.034   3.108  -0.771 -0.2057 -0.6183  0.6898
  118MOL0     C16168   3.076   3.185  -0.894  0.2966  0.3428  0.4919
  118MOL0     C16169   3.206   3.117  -0.947 -0.0136 -0.2173 -0.2845
  118MOL0     O16170   3.310   3.113  -0.855  0.0526  0.4295  0.1818
  118MOL0     C16171   3.435   3.088  -0.906 -0.0479 -0.7149 -0.0957
  118MOL0     C16172   3.539   3.133  -0.824  0.5282  0.2872 -0.2893
  118MOL0     C16173   3.672   3.138  -0.872 -0.4653  0.5170  0.1221
  118MOL0     C16174   3.779   3.182  -0.764 -0.1615 -0.0833 -0.1679
  118MOL0     C16175   3.696   3.120  -1.015 -0.2256 -0.6781 -0.2918
  118MOL0     C16176   3.828   3.138  -1.077  0.3234 -0.1579  0.2021
  118MOL0     O16177   3.845   3.090  -1.204 -0.6082 -0.4851  0.2631
  118MOL0     C16178   3.966   3.092  -1.261 -0.8563 -0.1937 -0.7087
  118MOL0     C16179   4.008   3.199  -1.339 -0.1040 -0.2360 -0.1449
  118MOL0     C16180   4.130   3.196  -1.405  0.8856 -0.1553  0.7623
  118MOL0     C16181   4.219   3.091  -1.400  0.0350 -0.4094 -0.7652
  118MOL0     O16182   4.330   3.099  -1.477  0.1275  0.4064 -0.3247
  118MOL0     C16183   4.449   3.040  -1.433  0.3449 -0.1673  0.6779
  118MOL0     C16184   4.539   3.052  -1.557 -0.7693 -0.1210 -0.7025
  118MOL0     C16185   4.490   2.966  -1.675 -0.0388  0.3574  0.4023
  118MOL0     C16186   4.603   2.926  -1.762 -1.2085 -0.0195  0.3278
  118MOL0     C16187   4.563   2.853  -1.889 -0.4606  0.0668 -0.3914
  118MOL0     C16188   4.679   2.772  -1.937  0.0161 -0.0269 -0.3988
  118MOL0     C16189   4.640   2.693  -2.062 -0.0102  0.3946  0.2546
  118MOL0     C16190   4.725   2.566  -2.090  1.3253  0.7950  0.6808
  118MOL0    Cl16191   4.893   2.588  -2.124 -0.2820  0.3010 -0.3800
  118MOL0     C16192   4.180   2.984  -1.318  0.4668 -0.0724  0.2742
  118MOL0     C16193   4.058   2.983  -1.251  0.2687  0.6804 -0.1301
  118MOL0     O16194   3.919   3.182  -1.007 -0.0363  0.5791  0.5163
  118MOL0     C16195   3.590   3.080  -1.095 -0.3277 -0.8145 -0.1781
  118MOL0     C16196   3.463   3.064  -1.044  0.0818  0.4893  0.1461
  118MOL0     N16197   2.760   2.986  -0.630 -0.1599  0.6953 -0.7925
  118MOL0     N16198   2.730   2.943  -0.510 -0.4295 -0.0328 -0.2075
  118MOL0     C16199   1.817   3.406  -0.013  0.2582  0.6080  0.2125
  118MOL0     C16200   1.691   3.447   0.012  0.1713 -0.7352  1.0180
  118MOL0     C16201   1.289   3.578   0.157 -0.4137  0.8136  1.1064
  118MOL0     C16202   1.200   3.473   0.140  0.0221  0.8782 -0.6014
  118MOL0     C16203   1.064   3.496   0.124 -0.1638  0.4872 -0.0678
  118MOL0     C16204   1.013   3.620   0.143 -0.8818 -0.2139 -0.3870
  118MOL0     O16205   0.879   3.649   0.149  0.0769  0.0210 -0.0300
  118MOL0     C16206   0.782   3.554   0.123  0.3104 -0.5243  0.0062
  118MOL0     C16207   0.648   3.628   0.106  0.6795 -0.2472  0.2719
  118MOL0     C16208   0.554   3.528   0.048 -0.3041  0.5490 -0.2189
  118MOL0     C16209   0.419   3.590   0.062 -0.6228  0.3475  0.0486
  118MOL0     C16210   0.317   3.490   0.014  0.1686  1.2586 -0.9323
  118MOL0     C16211   0.221   3.423  -0.023 -1.2478  1.8061 -0.7990
  118MOL0     C16212   1.101   3.720   0.180  0.7798 -0.2502  0.4401
  118MOL0     C16213   1.237   3.705   0.189  0.3113 -0.6219  0.6269
  118MOL0     C16214   1.315   3.825   0.230 -0.3157 -0.8663  0.5554
  118MOL0     H16215   1.611   3.225   0.250  1.3366 -0.8820 -0.7496
  118MOL0     H16216   1.813   3.132   0.186 -0.2265 -0.1900 -0.9586
  118MOL0     H16217   1.990   3.048   0.007  0.1683 -1.3019  0.5253
  118MOL0     H16218   2.049   3.111   0.164 -1.2282 -1.9133 -1.1452
  118MOL0     H16219   2.265   3.164   0.085  1.5690 -0.0645 -2.2172
  118MOL0     H16220   2.228   2.993   0.044 -0.7396 -0.4306  2.0062
  118MOL0     H16221   2.185   3.025  -0.177  3.6301 -1.3466 -0.7234
  118MOL0     H16222   2.189   3.207  -0.159  0.6191  0.7789  0.4756
  118MOL0     H16223   2.421   3.198  -0.097  0.1728  0.7240 -1.3650
  118MOL0     H16224   2.436   3.033  -0.089  3.6325  2.0134 -1.0251
  118MOL0     H16225   2.345   3.121  -0.368  2.4826  4.8126 -1.8459
  118MOL0     H16226   2.455   2.992  -0.311 -2.2393 -0.2934 -1.6940
  118MOL0     H16227   2.570   3.173  -0.423  0.3717  0.3703 -0.6046
  118MOL0     H16228   2.508   3.285  -0.315  0.3331  0.0839  0.1810
  118MOL0     H16229   2.634   3.130  -0.123  0.5598  0.3025  0.0740
  118MOL0     H16230   2.746   3.228  -0.234 -1.5414  1.0780 -0.3291
  118MOL0     H16231   2.839   3.014  -0.221  0.0643 -0.9847  0.8330
  118MOL0     H16232   2.696   2.929  -0.258 -1.2625 -0.3162 -1.9554
  118MOL0     H16233   2.931   3.193  -0.435  3.5645 -2.3266  2.4403
  118MOL0     H16234   2.908   3.269  -0.698  2.5375 -0.0932  0.2435
  118MOL0     H16235   2.824   3.163  -0.807 -1.3281  0.0347  1.0876
  118MOL0     H16236   3.099   3.129  -0.685  1.1972 -0.1741 -0.4369
  118MOL0     H16237   3.019   3.004  -0.799  0.0714 -0.3906 -0.3485
  118MOL0     H16238   2.997   3.176  -0.968  0.7110  0.2900  0.0492
  118MOL0     H16239   3.099   3.288  -0.865 -0.1635  0.0849  1.8581
  118MOL0     H16240   3.187   3.019  -0.990  1.4803 -0.3528 -0.6891
  118MOL0     H16241   3.236   3.177  -1.033  0.7640 -0.0797  0.0807
  118MOL0     H16242   3.508   3.151  -0.721 -2.6735 -0.1609 -1.0476
  118MOL0     H16243   3.778   3.291  -0.767  0.7729 -0.0648 -0.3595
  118MOL0     H16244   3.867   3.121  -0.788  0.2851  0.4820 -0.0061
  118MOL0     H16245   3.765   3.167  -0.656  1.2484 -0.7710 -0.0464
  118MOL0     H16246   3.946   3.287  -1.353 -0.1548 -0.0853  0.9201
  118MOL0     H16247   4.148   3.273  -1.478 -1.7968 -1.3123 -1.2755
  118MOL0     H16248   4.494   3.100  -1.353 -0.2486  1.2060  0.0174
  118MOL0     H16249   4.439   2.936  -1.400  0.4194 -0.8109 -1.2156
  118MOL0     H16250   4.546   3.157  -1.587 -0.4229 -0.0448 -0.3699
  118MOL0     H16251   4.637   3.014  -1.525 -1.7843 -0.6962  1.9594
  118MOL0     H16252   4.413   3.020  -1.731  0.8183  1.2336  0.0373
  118MOL0     H16253   4.440   2.878  -1.633  0.4266 -0.0427  0.1251
  118MOL0     H16254   4.677   2.867  -1.706 -2.1910  0.2536  1.9662
  118MOL0     H16255   4.658   3.018  -1.785  0.0505 -0.1114  2.6145
  118MOL0     H16256   4.481   2.781  -1.876  0.8990 -1.5420 -0.2987
  118MOL0     H16257   4.538   2.915  -1.975  1.2237  0.5641 -0.5573
  118MOL0     H16258   4.701   2.709  -1.851  1.0532  0.1854 -0.4918
  118MOL0     H16259   4.768   2.832  -1.959 -0.0739  1.6922  3.2153
  118MOL0     H16260   4.651   2.755  -2.152 -3.0320 -2.6787 -2.5554
  118MOL0     H16261   4.538   2.654  -2.055 -0.7806  1.8637 -1.6937
  118MOL0     H16262   4.681   2.516  -2.176  0.2253  0.3256  1.4821
  118MOL0     H16263   4.717   2.495  -2.007 -2.3785 -1.3688 -1.2875
  118MOL0     H16264   4.235   2.891  -1.316 -0.5303 -0.7057 -0.9364
  118MOL0     H16265   4.030   2.888  -1.206  0.9103  1.0391  1.0788
  118MOL0     H16266   3.605   3.077  -1.202  2.9226  0.5693  0.1369
  118MOL0     H16267   3.378   3.039  -1.106  0.4704 -1.5157  0.3558
  118MOL0     H16268   1.866   3.451  -0.098  0.5280  1.3157  0.7322
  118MOL0     H16269   1.662   3.528  -0.053 -4.5975 -1.9942  1.1251
  118MOL0     H16270   1.246   3.380   0.111 -1.2437  0.0988 -0.1733
  118MOL0     H16271   0.995   3.412   0.122 -0.1110  0.2741  2.5692
  118MOL0     H16272   0.816   3.509   0.029 -0.4345 -0.7648 -0.1548
  118MOL0     H16273   0.777   3.486   0.209 -1.5721  1.1308  1.3088
  118MOL0     H16274   0.659   3.717   0.044 -0.4209  0.8526  1.5848
  118MOL0     H16275   0.613   3.670   0.201  0.0437 -1.9219  0.8203
  118MOL0     H16276   0.588   3.511  -0.055 -0.4911  0.4134 -0.2587
  118MOL0     H16277   0.555   3.436   0.106 -3.0904 -0.3007 -1.3176
  118MOL0     H16278   0.413   3.679  -0.001  0.6165  1.5812  1.5674
  118MOL0     H16279   0.397   3.621   0.165 -0.9080 -2.5232  0.9404
  118MOL0     H16280   0.129   3.377  -0.054 -1.6385  1.9674  0.1072
  118MOL0     H16281   1.061   3.819   0.200  1.0277  0.1677 -1.0079
  118MOL0     H16282   1.362   3.874   0.144  1.2819  1.7554  2.7604
  118MOL0     H16283   1.244   3.893   0.279 -1.8983 -0.8606 -1.5655
  118MOL0     H16284   1.381   3.790   0.309 -0.9951  1.0671  2.0382
  119MOL0     O16285   9.121   6.247   3.490  0.1050  0.0717 -0.1333
  119MOL0     C16286   9.017   6.179   3.501 -0.7067 -0.3628 -0.8203
  119MOL0     O16287   9.018   6.046   3.517 -0.7600  0.0643  0.0191
  119MOL0     C16288   9.133   5.979   3.537 -1.1133  0.1562 -0.0960
  119MOL0     C16289   9.174   5.938   3.668 -0.3388  0.6591 -0.1748
  119MOL0     C16290   9.293   5.869   3.682 -0.6414 -0.2047 -0.2701
  119MOL0     C16291   9.369   5.831   3.572  0.1562 -0.4674  0.2072
  119MOL0     O16292   9.477   5.747   3.599 -0.1140  0.0144  0.2072
  119MOL0     C16293   9.457   5.610   3.555 -0.0694 -0.0785 -0.7425
  119MOL0     C16294   9.560   5.519   3.617  0.6475  0.8403  0.3047
  119MOL0     C16295   9.705   5.551   3.592  0.3753 -0.3474  0.5486
  119MOL0     C16296   9.804   5.497   3.687  0.4620 -1.0344 -0.1142
  119MOL0     C16297   9.954   5.505   3.651 -0.4409 -0.3816  0.1089
  119MOL0     C16298   9.998   5.407   3.540  0.7871  0.6852 -0.0566
  119MOL0     C16299  10.148   5.410   3.504 -0.2718 -0.6513 -0.1841
  119MOL0     C16300  10.198   5.546   3.455  0.3394 -0.2523  0.1692
  119MOL0     N16301  10.301   5.546   3.349 -0.5347  0.1989  0.1698
  119MOL0     C16302  10.269   5.500   3.227  0.2557  0.4001  0.2689
  119MOL0     C16303  10.391   5.487   3.176 -0.4959  0.7878  0.5900
  119MOL0     C16304  10.410   5.424   3.041  0.5666 -0.3908  0.6129
  119MOL0     C16305  10.366   5.500   2.916 -0.1375 -0.6869 -0.4045
  119MOL0     C16306  10.456   5.623   2.895  0.9015 -0.2960 -0.5936
  119MOL0     C16307  10.601   5.614   2.862  0.1741 -0.6612 -0.2722
  119MOL0     O16308  10.654   5.747   2.841  0.4230  0.4743  0.2514
  119MOL0     C16309  10.698   5.815   2.944 -0.7479 -0.8140 -0.3493
  119MOL0     C16310  10.693   5.780   3.084 -0.2129 -1.3574 -0.4854
  119MOL0     C16311  10.748   5.877   3.180 -0.6846  0.4908  0.4921
  119MOL0     C16312  10.739   5.832   3.333  0.3564  0.7624 -0.1819
  119MOL0     C16313  10.792   6.001   3.131 -0.8099  0.1415 -0.2234
  119MOL0     C16314  10.845   6.093   3.230 -0.8069  0.2340  1.3527
  119MOL0     O16315  10.950   6.168   3.184  0.2551  0.2681  0.5090
  119MOL0     C16316  11.018   6.256   3.261  0.0170 -0.3569 -0.0212
  119MOL0     C16317  11.044   6.383   3.205 -0.6716  0.1646  0.5240
  119MOL0     C16318  11.109   6.486   3.278 -0.1725  0.0961  0.2283
  119MOL0     C16319  11.156   6.456   3.412 -0.3431 -0.6700 -0.3528
  119MOL0     O16320  11.235   6.543   3.502  0.7305 -0.0936  0.2712
  119MOL0     C16321  11.227   6.690   3.488 -0.4214  0.4740  0.4783
  119MOL0     C16322  11.349   6.753   3.558  0.3084  0.3473  0.1444
  119MOL0     C16323  11.357   6.904   3.536  0.3828  0.0174  0.0643
  119MOL0     C16324  11.499   6.962   3.589  0.0993 -0.4501  0.1886
  119MOL0     C16325  11.528   7.114   3.554 -0.1499  0.2995  0.7974
  119MOL0     C16326  11.659   7.171   3.621 -0.3658 -0.3533  0.0538
  119MOL0     C16327  11.797   7.108   3.576  0.8222 -0.8773 -0.3263
  119MOL0     C16328  11.910   7.153   3.658 -0.3573  0.0528  0.8223
  119MOL0    Cl16329  11.898   7.093   3.824  0.1828 -0.3024 -0.1789
  119MOL0     C16330  11.119   6.333   3.469  0.7024  0.0611 -0.7675
  119MOL0     C16331  11.052   6.236   3.394 -0.3777  0.6069  0.1175
  119MOL0     O16332  10.807   6.097   3.345  0.5323  0.3093 -0.2462
  119MOL0     C16333  10.799   6.027   2.988  0.5354  0.4264 -0.8327
  119MOL0     C16334  10.744   5.937   2.907  0.6286  0.3780  0.4085
  119MOL0     N16335  10.484   5.546   3.260 -0.3788 -0.0142 -0.4796
  119MOL0     N16336  10.428   5.586   3.361 -0.0893  0.3017 -0.2699
  119MOL0     C16337   9.326   5.863   3.447  0.5710 -0.0492  0.1553
  119MOL0     C16338   9.213   5.939   3.429 -0.1656  0.3242  0.4405
  119MOL0     C16339   8.889   6.243   3.499  0.0102 -0.8338  0.9324
  119MOL0     C16340   8.778   6.178   3.563  0.4358 -0.4882  0.2448
  119MOL0     C16341   8.650   6.233   3.548  0.9674 -0.5016 -0.4473
  119MOL0     C16342   8.623   6.352   3.471 -0.1815  0.3249 -0.3371
  119MOL0     O16343   8.496   6.411   3.467 -1.1621 -0.0351  0.2037
  119MOL0     C16344   8.381   6.338   3.512  0.3377  0.6531  0.3737
  119MOL0     C16345   8.257   6.408   3.443 -0.1927 -0.5031  0.1721
  119MOL0     C16346   8.215   6.528   3.529 -0.3529 -0.0582 -0.8335
  119MOL0     C16347   8.084   6.593   3.487  0.7600  0.2275  0.7144
  119MOL0     C16348   7.971   6.519   3.538  0.4739 -0.0450  0.3057
  119MOL0     C16349   7.873   6.481   3.595  1.1125 -0.0452 -0.0573
  119MOL0     C16350   8.734   6.415   3.402 -0.6222 -0.1531 -0.0771
  119MOL0     C16351   8.866   6.362   3.420  0.7919 -0.2904  0.3611
  119MOL0     C16352   8.975   6.440   3.348 -0.0336 -0.6523  0.7682
  119MOL0     H16353   9.124   5.968   3.760 -2.3096 -1.6581 -0.4063
  119MOL0     H16354   9.339   5.844   3.777  2.0042  1.9977 -0.8285
  119MOL0     H16355   9.473   5.604   3.447  1.1216  1.1088 -0.6686
  119MOL0     H16356   9.356   5.581   3.584 -0.3131  0.2701 -1.2352
  119MOL0     H16357   9.552   5.519   3.726 -0.4253 -3.0714  0.3617
  119MOL0     H16358   9.534   5.420   3.578 -1.6848  2.1265 -1.7277
  119MOL0     H16359   9.733   5.511   3.493  0.1516  0.7980  0.0040
  119MOL0     H16360   9.713   5.660   3.589 -4.2661  0.2458  2.2024
  119MOL0     H16361   9.787   5.540   3.787  3.0488  0.4089 -0.2137
  119MOL0     H16362   9.775   5.392   3.699 -0.7319 -0.4730  3.2351
  119MOL0     H16363  10.012   5.470   3.737 -0.9543 -2.9832 -0.5078
  119MOL0     H16364   9.972   5.608   3.620 -0.6496 -0.2244  0.5151
  119MOL0     H16365   9.979   5.303   3.570  1.9644  0.5052  0.1446
  119MOL0     H16366   9.941   5.423   3.448  0.6791  1.1876  0.0945
  119MOL0     H16367  10.169   5.333   3.429 -3.0435 -1.3827 -0.3458
  119MOL0     H16368  10.209   5.387   3.591  1.0620  2.1259 -0.2884
  119MOL0     H16369  10.119   5.600   3.401  3.2778  1.8997 -2.3486
  119MOL0     H16370  10.223   5.599   3.547  0.1507 -0.5267  0.3804
  119MOL0     H16371  10.175   5.475   3.178  0.5703 -0.3245  0.0214
  119MOL0     H16372  10.356   5.329   3.049 -3.2261  1.4464 -0.6982
  119MOL0     H16373  10.517   5.400   3.037  1.4572  3.1636 -1.6098
  119MOL0     H16374  10.361   5.439   2.825  0.0227 -1.9442  0.4095
  119MOL0     H16375  10.268   5.537   2.945  0.0697 -0.0739 -0.4727
  119MOL0     H16376  10.394   5.686   2.829 -2.3245 -2.1276  0.4489
  119MOL0     H16377  10.451   5.688   2.983 -0.2181  1.0847 -1.6211
  119MOL0     H16378  10.650   5.568   2.949 -0.0153 -1.5313 -0.6161
  119MOL0     H16379  10.622   5.558   2.771  0.7084 -1.1429  0.1413
  119MOL0     H16380  10.649   5.687   3.117 -0.8185 -0.5184  1.2013
  119MOL0     H16381  10.818   5.849   3.408 -3.2014  1.3523  3.8179
  119MOL0     H16382  10.719   5.725   3.347  0.4864  0.5214 -1.7181
  119MOL0     H16383  10.654   5.886   3.375  1.4780  0.5316  2.6260
  119MOL0     H16384  11.008   6.406   3.105 -1.0918 -2.2946  0.0631
  119MOL0     H16385  11.120   6.587   3.241  1.0114 -0.2120 -0.3138
  119MOL0     H16386  11.226   6.724   3.384  0.1415 -0.8625  0.0065
  119MOL0     H16387  11.132   6.721   3.532  1.1923  2.2067  3.0367
  119MOL0     H16388  11.351   6.743   3.667  0.9819  6.1212  0.9846
  119MOL0     H16389  11.432   6.693   3.521 -0.6027 -1.0392  0.2801
  119MOL0     H16390  11.275   6.956   3.586  1.7481 -0.6138  3.2326
  119MOL0     H16391  11.341   6.930   3.431  1.1515 -0.2041 -0.1145
  119MOL0     H16392  11.582   6.902   3.551  0.4029  0.7397 -1.1182
  119MOL0     H16393  11.505   6.953   3.698 -0.1674 -2.1945  0.0933
  119MOL0     H16394  11.526   7.118   3.444 -1.1834 -1.8209  0.6942
  119MOL0     H16395  11.440   7.166   3.591 -0.9714 -2.1047  2.4057
  119MOL0     H16396  11.641   7.166   3.729 -0.5079  1.3915  0.1294
  119MOL0     H16397  11.657   7.279   3.609  2.4079  0.0453  2.2058
  119MOL0     H16398  11.819   7.149   3.477  3.1419  2.1680  1.2793
  119MOL0     H16399  11.791   6.999   3.572 -0.5300 -0.7925 -1.2358
  119MOL0     H16400  11.915   7.262   3.662  2.7424 -0.0326  4.2276
  119MOL0     H16401  12.007   7.121   3.620 -0.1226  1.1443  0.4855
  119MOL0     H16402  11.136   6.318   3.575 -1.1478 -0.9355 -0.5725
  119MOL0     H16403  11.021   6.140   3.435  1.5111  1.0749  2.9141
  119MOL0     H16404  10.862   6.107   2.950  2.6072 -0.2834  0.8881
  119MOL0     H16405  10.736   5.968   2.803  0.0085  1.7615  0.8355
  119MOL0     H16406   9.386   5.844   3.358 -0.0750 -0.3119 -0.2341
  119MOL0     H16407   9.188   5.972   3.329 -1.6836  0.5452  0.8563
  119MOL0     H16408   8.788   6.083   3.614 -0.9746  0.3672  2.2357
  119MOL0     H16409   8.575   6.175   3.601  0.4991 -2.3797 -2.9685
  119MOL0     H16410   8.383   6.234   3.477 -0.7901  0.9236 -0.5742
  119MOL0     H16411   8.366   6.342   3.620 -1.1186 -0.4765  0.2528
  119MOL0     H16412   8.172   6.339   3.448 -0.6942  0.1924  1.8898
  119MOL0     H16413   8.291   6.435   3.343  1.1549 -1.3261  0.3742
  119MOL0     H16414   8.222   6.505   3.636  1.5358  2.4981 -0.3387
  119MOL0     H16415   8.293   6.604   3.521 -2.4615  2.1377 -1.5030
  119MOL0     H16416   8.067   6.614   3.381 -1.7836  1.5861  1.3021
  119MOL0     H16417   8.084   6.693   3.529  1.6440  2.1638 -3.4084
  119MOL0     H16418   7.788   6.451   3.653  1.5341  0.0785  0.6401
  119MOL0     H16419   8.711   6.506   3.346 -2.6028  0.2417  1.2659
  119MOL0     H16420   9.033   6.366   3.293 -0.8020 -1.4584  1.0408
  119MOL0     H16421   8.941   6.519   3.281  0.8953 -0.7413  0.1728
  119MOL0     H16422   9.042   6.487   3.422  0.9990  0.8221 -1.0010
  120MOL0     O16423   9.938   0.168   7.358  0.3980 -0.3103  0.0779
  120MOL0     C16424   9.904   0.154   7.240 -0.3606  0.6945  0.7120
  120MOL0     O16425   9.987   0.118   7.138  0.8374 -0.1353 -0.7244
  120MOL0     C16426  10.113   0.072   7.172 -0.3304 -0.0205  0.2878
  120MOL0     C16427  10.157  -0.050   7.133  0.8482 -0.0610 -0.0690
  120MOL0     C16428  10.287  -0.094   7.148  0.0044 -0.4490  0.6792
  120MOL0     C16429  10.370  -0.014   7.222 -0.7838  0.0782  0.0229
  120MOL0     O16430  10.494  -0.066   7.247 -0.1951 -0.4585 -0.1548
  120MOL0     C16431  10.513  -0.085   7.390 -0.4248 -0.3399  0.5878
  120MOL0     C16432  10.648  -0.157   7.409  0.4001  0.0747 -0.2352
  120MOL0     C16433  10.777  -0.088   7.357  0.1923 -0.1513 -0.4319
  120MOL0     C16434  10.904  -0.177   7.371 -0.7969 -0.6643 -0.4047
  120MOL0     C16435  11.025  -0.094   7.327  0.2125  0.3074 -0.2361
  120MOL0     C16436  11.154  -0.139   7.385 -0.0562  0.1792  0.1720
  120MOL0     C16437  11.194  -0.275   7.311 -0.5233  0.5389  1.0049
  120MOL0     C16438  11.330  -0.326   7.355 -1.0187 -0.1432  0.1444
  120MOL0     N16439  11.348  -0.332   7.500  0.2410  0.2650 -0.6325
  120MOL0     C16440  11.373  -0.229   7.587  0.1454  1.0469  0.1073
  120MOL0     C16441  11.324  -0.272   7.707  0.0886  0.5541 -0.4597
  120MOL0     C16442  11.328  -0.203   7.843 -0.4321 -0.0562 -0.5237
  120MOL0     C16443  11.453  -0.224   7.928 -0.1737  0.0379 -0.0114
  120MOL0     C16444  11.416  -0.310   8.060 -1.4678 -0.4997 -0.1510
  120MOL0     C16445  11.538  -0.379   8.119 -0.4255  1.0056  0.5417
  120MOL0     O16446  11.655  -0.300   8.134  0.0469 -0.3302 -0.3806
  120MOL0     C16447  11.772  -0.360   8.169 -0.0879  0.6791  0.0476
  120MOL0     C16448  11.786  -0.500   8.184  0.5897  0.1321 -0.9837
  120MOL0     C16449  11.915  -0.556   8.223  0.8526 -0.3391  0.9225
  120MOL0     C16450  11.923  -0.714   8.217 -0.2038 -0.9966 -0.5400
  120MOL0     C16451  12.032  -0.471   8.239 -0.5790 -0.7618 -0.4055
  120MOL0     C16452  12.178  -0.526   8.263  0.7542 -0.5799 -0.2044
  120MOL0     O16453  12.274  -0.431   8.286 -0.1575 -0.1583  0.1736
  120MOL0     C16454  12.406  -0.457   8.320  0.3144 -0.3957  1.1340
  120MOL0     C16455  12.499  -0.361   8.266  1.3058  0.2155  0.8956
  120MOL0     C16456  12.631  -0.377   8.289 -0.3059 -0.2161 -0.2726
  120MOL0     C16457  12.679  -0.483   8.373  0.4777 -0.2670 -0.4142
  120MOL0     O16458  12.807  -0.508   8.404 -0.9509 -0.6599  0.0789
  120MOL0     C16459  12.894  -0.394   8.410 -0.4860 -0.2676 -0.1273
  120MOL0     C16460  13.044  -0.431   8.448 -0.1381 -0.3583  0.2688
  120MOL0     C16461  13.121  -0.489   8.323 -0.3178 -0.0013 -0.7911
  120MOL0     C16462  13.265  -0.533   8.364  0.4302 -0.5401  0.9305
  120MOL0     C16463  13.336  -0.617   8.259 -0.6598 -0.4179 -0.0058
  120MOL0     C16464  13.486  -0.648   8.296  0.2564  0.2953  0.3220
  120MOL0     C16465  13.570  -0.524   8.329 -0.7282  0.3114 -0.6950
  120MOL0     C16466  13.717  -0.569   8.350  0.0374  0.1539  0.2061
  120MOL0    Cl16467  13.824  -0.429   8.401 -0.3842  0.1125  0.2397
  120MOL0     C16468  12.589  -0.571   8.425 -0.5926  0.4049 -0.5070
  120MOL0     C16469  12.456  -0.563   8.397 -0.3224 -0.0610 -0.5995
  120MOL0     O16470  12.198  -0.645   8.263  0.1373 -0.9275 -1.3105
  120MOL0     C16471  12.008  -0.334   8.234 -0.1455  0.0278  1.0612
  120MOL0     C16472  11.885  -0.279   8.196 -0.3199  0.1044  0.3437
  120MOL0     N16473  11.281  -0.404   7.691  0.1994  0.1339 -0.3185
  120MOL0     N16474  11.300  -0.437   7.567 -0.0025  0.4550  0.4897
  120MOL0     C16475  10.335   0.108   7.280  0.3819 -0.0487 -0.0354
  120MOL0     C16476  10.201   0.144   7.254 -0.6700  0.5482 -0.3027
  120MOL0     C16477   9.771   0.195   7.197 -0.1583 -0.1077 -0.3912
  120MOL0     C16478   9.734   0.171   7.067  0.3937  0.6976  0.2663
  120MOL0     C16479   9.607   0.191   7.020 -0.4123  0.6115  0.1851
  120MOL0     C16480   9.504   0.240   7.103 -0.1654  0.0706 -0.6955
  120MOL0     O16481   9.375   0.258   7.073 -0.6459  0.1236  0.6137
  120MOL0     C16482   9.318   0.152   6.999  0.6013 -0.1080  0.3635
  120MOL0     C16483   9.298   0.014   7.068  0.3691 -0.5083  0.4729
  120MOL0     C16484   9.189  -0.068   6.990  0.3696  0.9945 -0.7775
  120MOL0     C16485   9.143  -0.193   7.069 -0.8579  0.4625  0.3773
  120MOL0     C16486   9.051  -0.274   6.986  0.1540 -0.0027  0.0220
  120MOL0     C16487   8.968  -0.330   6.913  0.0735 -0.2021 -0.3993
  120MOL0     C16488   9.542   0.267   7.239 -0.5869 -0.2643 -0.9587
  120MOL0     C16489   9.670   0.249   7.289  0.8199  0.3980  0.0194
  120MOL0     C16490   9.693   0.277   7.433 -0.2253 -0.1554 -0.2327
  120MOL0     H16491  10.074  -0.098   7.082  0.6448  2.4512 -2.3450
  120MOL0     H16492  10.326  -0.189   7.114 -2.1900 -0.8413 -0.9182
  120MOL0     H16493  10.432  -0.151   7.424 -1.4689 -0.0026 -1.1375
  120MOL0     H16494  10.507   0.011   7.443 -4.8332 -0.5943  0.9330
  120MOL0     H16495  10.662  -0.171   7.517 -1.4503 -1.3485 -0.1385
  120MOL0     H16496  10.643  -0.257   7.365 -2.0478 -0.3686  0.8865
  120MOL0     H16497  10.768  -0.054   7.254  0.4587  1.8393  0.1682
  120MOL0     H16498  10.789   0.005   7.414  0.4386  0.1060 -0.9002
  120MOL0     H16499  10.913  -0.215   7.473  1.8037  4.0929  1.4286
  120MOL0     H16500  10.898  -0.271   7.314 -1.9763 -1.7345  1.4062
  120MOL0     H16501  11.015   0.011   7.359 -0.6945  0.2435 -0.2820
  120MOL0     H16502  11.029  -0.096   7.218  0.1942 -0.0669 -0.2300
  120MOL0     H16503  11.229  -0.063   7.364 -1.5052  1.4587 -0.6093
  120MOL0     H16504  11.147  -0.157   7.493 -1.7604 -0.5852 -0.0276
  120MOL0     H16505  11.184  -0.262   7.203 -1.8639  0.2754  1.0837
  120MOL0     H16506  11.121  -0.354   7.332 -0.9562  0.9349  1.0092
  120MOL0     H16507  11.342  -0.424   7.308 -1.4654 -0.7980  1.3627
  120MOL0     H16508  11.411  -0.266   7.311  0.1614 -0.7626  1.4007
  120MOL0     H16509  11.404  -0.126   7.573 -1.2429  1.8551  2.5570
  120MOL0     H16510  11.237  -0.239   7.893  0.4957 -1.8761 -0.0736
  120MOL0     H16511  11.311  -0.095   7.830 -1.1276  0.0716  1.1924
  120MOL0     H16512  11.527  -0.281   7.870  0.2549  2.5546 -2.1687
  120MOL0     H16513  11.500  -0.131   7.960 -0.0057 -0.1382  0.2542
  120MOL0     H16514  11.376  -0.251   8.143  0.4477 -1.1171  1.2830
  120MOL0     H16515  11.338  -0.382   8.033  0.7659 -2.6334 -1.2722
  120MOL0     H16516  11.516  -0.421   8.217 -0.6445 -0.7370 -0.2146
  120MOL0     H16517  11.560  -0.459   8.048 -0.3351 -0.6681  2.3680
  120MOL0     H16518  11.697  -0.558   8.161 -0.1697  0.8140  0.1486
  120MOL0     H16519  11.947  -0.751   8.317 -0.3114 -0.8277 -0.4520
  120MOL0     H16520  12.001  -0.754   8.152  1.6629  2.7198 -0.8709
  120MOL0     H16521  11.822  -0.752   8.198 -1.2544  0.5957  1.4141
  120MOL0     H16522  12.467  -0.274   8.210  2.1315 -1.2897 -2.0705
  120MOL0     H16523  12.699  -0.311   8.235 -1.4617 -1.6858 -3.8470
  120MOL0     H16524  12.904  -0.359   8.307 -3.5805 -2.7364 -1.4492
  120MOL0     H16525  12.866  -0.303   8.464  1.1110  1.4772 -2.0557
  120MOL0     H16526  13.095  -0.340   8.480 -1.2938 -0.0161  1.1893
  120MOL0     H16527  13.039  -0.494   8.537  2.5946 -0.6446  0.3163
  120MOL0     H16528  13.132  -0.401   8.259  0.7697  0.0770 -0.5106
  120MOL0     H16529  13.067  -0.575   8.281 -0.1866 -0.8129  0.6278
  120MOL0     H16530  13.263  -0.585   8.461  0.2067  0.7208  1.6283
  120MOL0     H16531  13.316  -0.438   8.379  2.4607 -1.8518  2.9855
  120MOL0     H16532  13.287  -0.710   8.229  1.2521 -0.7963 -2.2013
  120MOL0     H16533  13.333  -0.558   8.167 -2.9628  0.7143  0.7245
  120MOL0     H16534  13.525  -0.702   8.209 -0.6352 -0.6325  0.4673
  120MOL0     H16535  13.474  -0.718   8.379 -0.1319 -1.3561 -1.0600
  120MOL0     H16536  13.544  -0.466   8.418 -2.5694 -0.6264 -0.5510
  120MOL0     H16537  13.557  -0.461   8.241 -2.9277  1.1938  0.1719
  120MOL0     H16538  13.759  -0.604   8.255 -0.9061 -0.0394 -0.1437
  120MOL0     H16539  13.731  -0.656   8.415  0.5602 -1.2982 -1.7682
  120MOL0     H16540  12.630  -0.657   8.476  1.4087  1.2556 -0.5779
  120MOL0     H16541  12.383  -0.631   8.440  0.6505 -0.0469  1.1509
  120MOL0     H16542  12.092  -0.268   8.254  0.4938 -0.6893  0.8238
  120MOL0     H16543  11.875  -0.172   8.183  0.2683 -0.1433 -3.0644
  120MOL0     H16544  10.388   0.168   7.353 -2.0883 -1.2388  2.9880
  120MOL0     H16545  10.174   0.242   7.293  5.0967  2.7438 -0.9352
  120MOL0     H16546   9.811   0.131   7.001  0.2483  2.1787 -0.8538
  120MOL0     H16547   9.585   0.160   6.918  0.8466  3.1275 -0.9364
  120MOL0     H16548   9.220   0.181   6.961  2.0517  3.8588 -0.9331
  120MOL0     H16549   9.375   0.152   6.905  0.2051 -0.5231  0.1215
  120MOL0     H16550   9.263   0.042   7.168  0.3469  3.0722 -0.4148
  120MOL0     H16551   9.390  -0.045   7.073  1.0340  0.5088  0.5390
  120MOL0     H16552   9.098  -0.008   6.981 -1.3591 -1.0787  1.5646
  120MOL0     H16553   9.226  -0.105   6.894  1.0499 -3.9925  1.0895
  120MOL0     H16554   9.090  -0.165   7.160  0.8525  0.5655  1.3764
  120MOL0     H16555   9.232  -0.255   7.083 -0.6625  1.0876  2.0415
  120MOL0     H16556   8.897  -0.380   6.850  0.4930 -0.4401 -0.6865
  120MOL0     H16557   9.468   0.307   7.307  0.3754  0.4021 -0.2663
  120MOL0     H16558   9.607   0.327   7.478  0.2190 -0.2560  0.7367
  120MOL0     H16559   9.716   0.182   7.481  1.1593  1.1964  1.9654
  120MOL0     H16560   9.775   0.348   7.451 -0.0324 -0.6072  0.6787
  121MOL0     O16561  10.549   1.991   2.902 -0.6535  0.0794  0.1675
  121MOL0     C16562  10.522   1.995   3.022 -0.0547 -0.1823 -0.3099
  121MOL0     O16563  10.612   2.012   3.127  0.2970  0.1953 -0.0162
  121MOL0     C16564  10.735   2.057   3.101  0.3952  0.0556 -0.2538
  121MOL0     C16565  10.754   2.188   3.068  0.5911  0.3696 -0.1933
  121MOL0     C16566  10.882   2.241   3.039 -0.7106 -0.0098  0.2473
  121MOL0     C16567  10.993   2.150   3.050 -0.3353 -0.3585  0.5433
  121MOL0     O16568  11.113   2.214   3.017 -0.0764  0.7336  0.1446
  121MOL0     C16569  11.225   2.122   2.985 -0.3227 -0.1580  0.4320
  121MOL0     C16570  11.301   2.094   3.115 -0.3296  1.1610 -0.2393
  121MOL0     C16571  11.442   2.049   3.078 -0.4157 -0.3496 -0.1347
  121MOL0     C16572  11.510   2.010   3.217  0.2768 -0.2028  0.4751
  121MOL0     C16573  11.658   1.983   3.202  0.0418 -1.1761  0.6742
  121MOL0     C16574  11.756   2.108   3.188  0.0807  0.5209  0.1543
  121MOL0     C16575  11.754   2.204   3.311  0.7155  0.2284 -0.5965
  121MOL0     C16576  11.857   2.316   3.288  0.7778  0.8296  0.1783
  121MOL0     N16577  11.993   2.270   3.287 -0.8088  0.3638 -1.0336
  121MOL0     C16578  12.040   2.150   3.329  0.3968  0.4601 -0.0631
  121MOL0     C16579  12.173   2.160   3.312  0.4728  0.0010 -0.2289
  121MOL0     C16580  12.280   2.076   3.375  0.1271 -0.8021  0.6857
  121MOL0     C16581  12.355   2.004   3.264 -0.0752  0.2996  0.5595
  121MOL0     C16582  12.440   2.096   3.170 -0.4771  0.3140  0.3732
  121MOL0     C16583  12.529   2.199   3.250  0.3241  0.2164 -0.2591
  121MOL0     O16584  12.625   2.135   3.344  0.4201 -0.3231  0.2687
  121MOL0     C16585  12.741   2.086   3.292  0.1381 -0.7747 -0.7797
  121MOL0     C16586  12.825   2.028   3.385  0.7863 -0.0561 -1.2162
  121MOL0     C16587  12.952   1.981   3.351 -0.6279  0.5671 -0.1194
  121MOL0     C16588  13.031   1.900   3.457 -0.9017  0.4501  0.1683
  121MOL0     C16589  12.983   1.994   3.209  0.0125 -0.2391  0.1356
  121MOL0     C16590  13.091   1.908   3.147 -0.3703  0.1713  0.3469
  121MOL0     O16591  13.121   1.943   3.021  0.4726  0.2475  0.3375
  121MOL0     C16592  13.191   1.858   2.939  0.8495  0.7345  0.5117
  121MOL0     C16593  13.115   1.772   2.863 -0.3541  0.1902 -0.2810
  121MOL0     C16594  13.184   1.683   2.783  0.5757 -0.0428  0.9735
  121MOL0     C16595  13.321   1.686   2.770  0.4635  0.1632  0.2918
  121MOL0     O16596  13.366   1.595   2.682 -0.1513 -0.2121 -0.6300
  121MOL0     C16597  13.452   1.493   2.737  0.7108  0.0737 -0.1620
  121MOL0     C16598  13.529   1.413   2.631  0.3211  0.2438 -0.0535
  121MOL0     C16599  13.630   1.481   2.549  0.2817 -0.3614  0.5988
  121MOL0     C16600  13.731   1.383   2.498  0.7629  0.3314  0.2272
  121MOL0     C16601  13.824   1.460   2.398  0.6543 -0.3688 -0.1793
  121MOL0     C16602  13.953   1.527   2.461  0.4855 -0.5181 -0.0828
  121MOL0     C16603  14.040   1.568   2.344 -0.8476 -0.0420  0.2993
  121MOL0     C16604  14.154   1.676   2.376 -0.0829 -0.0445 -0.3334
  121MOL0    Cl16605  14.221   1.700   2.222 -0.2875 -0.2386  0.2851
  121MOL0     C16606  13.393   1.776   2.846  0.6659 -0.1785 -0.2568
  121MOL0     C16607  13.332   1.864   2.931  0.7262 -0.6027 -0.0118
  121MOL0     O16608  13.136   1.802   3.199  0.2138 -0.4110 -0.2370
  121MOL0     C16609  12.906   2.077   3.126 -0.3590 -0.1060  0.2750
  121MOL0     C16610  12.774   2.107   3.165 -0.5329 -0.3659  0.0849
  121MOL0     N16611  12.196   2.290   3.250 -0.1707  0.7709  0.2036
  121MOL0     N16612  12.093   2.353   3.252 -0.9568 -0.3017  0.5619
  121MOL0     C16613  10.974   2.017   3.082  0.1970  0.4059  0.4290
  121MOL0     C16614  10.844   1.972   3.103 -0.7885 -0.3532 -0.0218
  121MOL0     C16615  10.387   1.980   3.071  0.9626  0.8073 -0.9180
  121MOL0     C16616  10.371   1.992   3.217 -0.0105 -0.7455  1.1235
  121MOL0     C16617  10.246   1.965   3.272 -0.2732 -0.5435  0.4868
  121MOL0     C16618  10.134   1.922   3.210 -0.3242  0.4159  0.4050
  121MOL0     O16619  10.025   1.880   3.287  0.2985 -0.1203  0.0696
  121MOL0     C16620   9.901   1.829   3.237 -0.2635 -0.2329  0.1451
  121MOL0     C16621   9.909   1.688   3.175  0.1506  0.6879 -0.1156
  121MOL0     C16622   9.788   1.602   3.213  0.9532  0.2148 -0.3457
  121MOL0     C16623   9.790   1.541   3.352 -0.3150 -0.5868 -0.0363
  121MOL0     C16624   9.731   1.409   3.361 -0.3588  0.0927  0.5202
  121MOL0     C16625   9.684   1.296   3.367 -0.1163 -0.3425 -0.3812
  121MOL0     C16626  10.144   1.916   3.059  0.3586  0.6273 -0.3204
  121MOL0     C16627  10.271   1.944   2.992  0.2035 -0.6951 -0.2972
  121MOL0     C16628  10.266   1.950   2.838 -0.0322 -0.3080 -0.0056
  121MOL0     H16629  10.665   2.248   3.057 -0.1359 -0.0034  2.7510
  121MOL0     H16630  10.897   2.346   3.017 -1.4738 -0.4863 -3.1600
  121MOL0     H16631  11.295   2.183   2.927 -1.3612  0.4074 -0.2519
  121MOL0     H16632  11.196   2.038   2.921 -1.5115  0.2153  0.4599
  121MOL0     H16633  11.306   2.187   3.171  0.4098  0.6357  0.5869
  121MOL0     H16634  11.243   2.029   3.181 -1.2063 -0.6574 -2.6352
  121MOL0     H16635  11.440   1.964   3.009  1.4251 -0.4296 -0.1321
  121MOL0     H16636  11.492   2.133   3.029 -0.8331  1.0124  1.6570
  121MOL0     H16637  11.508   2.089   3.293  1.0547 -0.2487  0.5461
  121MOL0     H16638  11.456   1.927   3.263  1.6305  0.4798  3.4981
  121MOL0     H16639  11.679   1.926   3.111 -2.0253  0.9208 -1.2603
  121MOL0     H16640  11.680   1.928   3.294  1.0629  2.0483  2.5159
  121MOL0     H16641  11.857   2.077   3.159 -1.1868 -2.6501 -1.4150
  121MOL0     H16642  11.719   2.169   3.105 -1.7649  1.6853  1.7596
  121MOL0     H16643  11.777   2.143   3.399 -0.5290 -1.5347 -1.4338
  121MOL0     H16644  11.655   2.249   3.314  0.5319 -0.0156 -2.2906
  121MOL0     H16645  11.832   2.357   3.190 -5.6267 -0.5362  0.8040
  121MOL0     H16646  11.854   2.389   3.370 -1.7124 -0.9185  1.7805
  121MOL0     H16647  11.983   2.073   3.379  0.0657 -0.4153 -1.6981
  121MOL0     H16648  12.230   2.011   3.447 -0.1311  1.1316  2.3618
  121MOL0     H16649  12.336   2.142   3.442 -1.6958  0.4417  1.0560
  121MOL0     H16650  12.424   1.935   3.313  1.4716  2.1954  1.1850
  121MOL0     H16651  12.283   1.940   3.212  0.7499 -1.0850  1.0705
  121MOL0     H16652  12.500   2.018   3.121  2.1909  1.7345  1.1700
  121MOL0     H16653  12.373   2.155   3.107 -0.0576  0.3273 -0.0655
  121MOL0     H16654  12.583   2.261   3.179  0.7233 -0.1514 -0.2810
  121MOL0     H16655  12.456   2.265   3.298 -1.8410 -1.7266 -0.6723
  121MOL0     H16656  12.794   2.039   3.488 -0.7451 -0.8199 -1.5708
  121MOL0     H16657  12.999   1.921   3.560  1.5992 -0.9701  1.3268
  121MOL0     H16658  13.138   1.923   3.451 -0.0019 -2.8105  1.4560
  121MOL0     H16659  13.020   1.792   3.452  0.4481  0.2821  0.3684
  121MOL0     H16660  13.008   1.777   2.880 -0.3585  1.5330 -0.5630
  121MOL0     H16661  13.116   1.613   2.735 -0.3506  0.8548  0.9494
  121MOL0     H16662  13.529   1.531   2.805  0.0663 -0.4391  0.8884
  121MOL0     H16663  13.385   1.424   2.790 -1.9459  1.3555 -1.6582
  121MOL0     H16664  13.574   1.324   2.678  2.8034  1.0557 -0.7592
  121MOL0     H16665  13.460   1.358   2.566  2.6823 -0.8762 -1.7650
  121MOL0     H16666  13.681   1.557   2.609 -0.6895  2.1163 -1.5400
  121MOL0     H16667  13.583   1.541   2.471  1.4820 -1.1812 -0.8095
  121MOL0     H16668  13.687   1.304   2.437 -2.3571  3.0589 -1.4181
  121MOL0     H16669  13.782   1.335   2.581  1.9254  0.7468 -0.2237
  121MOL0     H16670  13.860   1.382   2.331 -0.9941 -1.3733  0.0511
  121MOL0     H16671  13.764   1.539   2.353  0.0308 -1.0394 -0.5428
  121MOL0     H16672  13.987   1.450   2.530  0.8992 -0.7115 -0.4969
  121MOL0     H16673  13.911   1.608   2.521 -0.7902 -1.2933  0.0952
  121MOL0     H16674  13.971   1.615   2.273 -0.9970  2.4300  1.9173
  121MOL0     H16675  14.088   1.480   2.302 -0.1837  0.0646  0.8072
  121MOL0     H16676  14.232   1.633   2.440  2.0721  1.8899 -1.5159
  121MOL0     H16677  14.103   1.760   2.424 -1.0173 -0.5437 -0.4112
  121MOL0     H16678  13.501   1.776   2.840  0.5997 -1.5574 -2.0532
  121MOL0     H16679  13.391   1.925   2.999  2.9286 -1.5073 -1.0222
  121MOL0     H16680  12.922   2.100   3.021 -2.2634 -0.0048 -0.0218
  121MOL0     H16681  12.718   2.158   3.087 -2.4723  0.4438  1.8984
  121MOL0     H16682  11.053   1.943   3.083 -0.4394 -0.2934 -0.0278
  121MOL0     H16683  10.830   1.866   3.118 -0.1081 -0.3899  0.3663
  121MOL0     H16684  10.453   2.014   3.284 -0.6947  1.2849  1.3584
  121MOL0     H16685  10.226   1.978   3.378  0.0925  1.1363  0.3763
  121MOL0     H16686   9.832   1.822   3.322 -0.1310  0.9387  0.3628
  121MOL0     H16687   9.853   1.900   3.170 -0.5091 -0.7478 -0.2336
  121MOL0     H16688  10.000   1.631   3.197 -0.6605 -0.1928  1.0834
  121MOL0     H16689   9.908   1.697   3.066 -2.8397 -1.0736 -0.3329
  121MOL0     H16690   9.690   1.643   3.187  0.8349  1.2317  1.5743
  121MOL0     H16691   9.806   1.515   3.149  1.5441 -0.5380  0.8065
  121MOL0     H16692   9.737   1.602   3.425 -0.5677  0.0685 -0.7531
  121MOL0     H16693   9.890   1.538   3.396  0.2887 -0.6070 -1.3563
  121MOL0     H16694   9.663   1.191   3.357  1.2726 -0.4892 -2.7306
  121MOL0     H16695  10.056   1.882   3.004  1.9486 -2.6365 -1.0955
  121MOL0     H16696  10.332   1.874   2.796  0.9903  0.3593  0.3562
  121MOL0     H16697  10.161   1.944   2.810 -0.4161 -0.7129  1.4463
  121MOL0     H16698  10.303   2.044   2.798  2.9828 -1.3864 -0.0185
  122MOL0     O16699   1.979   0.799   9.764 -0.0033 -0.1646  0.2666
  122MOL0     C16700   1.972   0.885   9.850  0.4570  0.2991 -0.6894
  122MOL0     O16701   2.052   0.997   9.859 -0.1354 -0.7446 -0.3411
  122MOL0     C16702   2.169   0.992   9.798 -0.4828  1.1096  0.3493
  122MOL0     C16703   2.274   0.911   9.842  0.2824  0.3533 -0.2807
  122MOL0     C16704   2.401   0.926   9.796 -1.0558 -0.1637 -0.1051
  122MOL0     C16705   2.420   1.015   9.687 -0.1182 -0.3940 -0.9182
  122MOL0     O16706   2.539   1.027   9.623  0.3751 -0.2631  0.2040
  122MOL0     C16707   2.658   0.951   9.658 -0.8678 -0.3219 -0.1555
  122MOL0     C16708   2.762   0.956   9.547 -0.7280 -0.1063 -0.1243
  122MOL0     C16709   2.896   0.897   9.599 -0.4763  0.7123 -0.5929
  122MOL0     C16710   2.982   1.003   9.671 -0.7188 -0.0150 -0.1776
  122MOL0     C16711   3.118   0.955   9.702  0.1536 -0.2301  0.3992
  122MOL0     C16712   3.137   0.821   9.791  1.3975 -0.1488 -1.0469
  122MOL0     C16713   3.110   0.848   9.936  0.3456  0.0671 -0.2965
  122MOL0     C16714   3.242   0.881  10.012 -0.2332  0.4378  0.0607
  122MOL0     N16715   3.311   0.999   9.969  0.8022 -0.1287 -0.6244
  122MOL0     C16716   3.301   1.117  10.035  0.5641 -0.5641 -0.0613
  122MOL0     C16717   3.407   1.190   9.997  0.0467  0.2026  0.7537
  122MOL0     C16718   3.462   1.319  10.042  0.4068 -0.1983  0.2141
  122MOL0     C16719   3.351   1.430  10.040 -0.3327  0.4547  0.4438
  122MOL0     C16720   3.417   1.567  10.072  0.4555 -0.2146  0.6068
  122MOL0     C16721   3.443   1.582  10.222 -1.0849  0.2386 -0.2597
  122MOL0     O16722   3.513   1.708  10.240  0.7817  0.3329  0.5548
  122MOL0     C16723   3.647   1.719  10.262  0.2142  0.4756 -0.4448
  122MOL0     C16724   3.742   1.625  10.218  0.0530  0.5485  0.3611
  122MOL0     C16725   3.878   1.635  10.234 -0.8978  0.3375 -0.4302
  122MOL0     C16726   3.979   1.545  10.172 -0.1593  0.8242  1.3649
  122MOL0     C16727   3.926   1.747  10.307  0.4538 -0.3282 -0.5900
  122MOL0     C16728   4.070   1.778  10.330  0.3690 -0.2300  0.3340
  122MOL0     O16729   4.095   1.916  10.337  0.0010 -0.0582 -0.6032
  122MOL0     C16730   4.222   1.954  10.346 -0.5336  0.8126 -0.3374
  122MOL0     C16731   4.295   1.932  10.228 -0.6446 -0.6884 -0.3159
  122MOL0     C16732   4.437   1.947  10.227  0.3999 -0.5786 -0.5267
  122MOL0     C16733   4.501   1.975  10.352  0.5802  0.1953 -0.6570
  122MOL0     O16734   4.636   1.998  10.341 -0.3622 -0.4736  0.4777
  122MOL0     C16735   4.698   2.061  10.461 -0.0033 -0.2305 -0.4146
  122MOL0     C16736   4.845   2.107  10.439 -0.8054  0.1256  0.2955
  122MOL0     C16737   4.895   2.151  10.571 -0.5967  0.1413 -0.7705
  122MOL0     C16738   5.006   2.261  10.558  0.1949 -0.0953  1.4479
  122MOL0     C16739   5.075   2.320  10.686  0.9260  0.7081 -0.0287
  122MOL0     C16740   5.189   2.422  10.661  0.3406 -0.0572 -0.0566
  122MOL0     C16741   5.316   2.363  10.593  0.0983  0.6601  0.1850
  122MOL0     C16742   5.388   2.241  10.665  0.5110  0.4686 -0.5177
  122MOL0    Cl16743   5.488   2.311  10.805  0.0252  0.1354 -0.1984
  122MOL0     C16744   4.421   1.992  10.465 -0.2520  0.3281 -0.3105
  122MOL0     C16745   4.283   1.989  10.463  0.4580  0.1500 -0.2006
  122MOL0     O16746   4.162   1.690  10.330  0.7425  0.2295  0.4376
  122MOL0     C16747   3.832   1.840  10.357 -0.4748  0.1072 -0.6215
  122MOL0     C16748   3.692   1.825  10.336  0.4041 -0.6849 -0.4877
  122MOL0     N16749   3.474   1.120   9.898  0.6065 -0.7293  0.2224
  122MOL0     N16750   3.420   1.003   9.884  0.0092  0.2580 -0.1092
  122MOL0     C16751   2.321   1.110   9.652  0.6425  0.6413 -0.3928
  122MOL0     C16752   2.194   1.096   9.708  0.5693 -0.1020 -0.3384
  122MOL0     C16753   1.862   0.867   9.952  0.7379 -0.2745  0.3185
  122MOL0     C16754   1.874   0.935  10.075  0.4368  0.7142 -0.6041
  122MOL0     C16755   1.801   0.894  10.185 -0.0614  0.8967 -0.5830
  122MOL0     C16756   1.687   0.807  10.171 -0.1413 -0.5980  0.7472
  122MOL0     O16757   1.625   0.785  10.287  0.2428 -0.1695  0.1621
  122MOL0     C16758   1.490   0.730  10.280 -0.0757 -0.0745 -0.2375
  122MOL0     C16759   1.380   0.834  10.236  0.5921  0.7605  0.0999
  122MOL0     C16760   1.359   0.956  10.328  0.9769 -0.5929 -0.1031
  122MOL0     C16761   1.237   1.028  10.267 -0.2362 -0.0476 -0.4365
  122MOL0     C16762   1.110   0.993  10.337 -0.8877  0.4670  0.3157
  122MOL0     C16763   1.015   0.945  10.396 -0.4777  0.5380 -0.2388
  122MOL0     C16764   1.672   0.748  10.049 -0.0683  0.7175  0.0104
  122MOL0     C16765   1.751   0.781   9.937 -0.5671 -0.3164  0.1549
  122MOL0     C16766   1.709   0.714   9.814  0.8808  0.4011 -0.9459
  122MOL0     H16767   2.261   0.822   9.903  1.6766  1.1359  1.2392
  122MOL0     H16768   2.480   0.856   9.818 -1.0004 -0.6373 -1.7033
  122MOL0     H16769   2.626   0.849   9.678 -0.2335 -0.5120 -0.0778
  122MOL0     H16770   2.699   1.004   9.745  0.6774  0.4809 -1.3155
  122MOL0     H16771   2.718   0.899   9.465 -1.5006  1.4410 -0.8149
  122MOL0     H16772   2.786   1.057   9.514  1.5501 -1.0547 -1.7008
  122MOL0     H16773   2.893   0.802   9.652  2.6254  1.3363  0.9136
  122MOL0     H16774   2.954   0.869   9.511 -2.3150  1.9729 -2.3286
  122MOL0     H16775   2.993   1.087   9.601 -2.2568 -1.8789 -2.8555
  122MOL0     H16776   2.933   1.019   9.767  2.6698 -1.3762  1.9426
  122MOL0     H16777   3.180   1.033   9.747  1.6263 -0.0784 -1.7413
  122MOL0     H16778   3.164   0.935   9.604  0.1982  0.9724  0.1535
  122MOL0     H16779   3.069   0.747   9.749  2.3637 -0.7095 -1.6465
  122MOL0     H16780   3.242   0.793   9.776  1.2289 -0.4157 -1.7996
  122MOL0     H16781   3.078   0.754   9.982 -0.8678  0.0914 -1.0440
  122MOL0     H16782   3.025   0.915   9.952 -0.9220 -1.8595  1.6907
  122MOL0     H16783   3.222   0.902  10.118 -1.9946  0.3321 -0.2220
  122MOL0     H16784   3.314   0.799  10.014  1.3026  1.7385  1.3091
  122MOL0     H16785   3.229   1.139  10.113  1.0538 -3.0796  1.2243
  122MOL0     H16786   3.543   1.341   9.971 -0.7464 -0.5102 -1.2437
  122MOL0     H16787   3.502   1.325  10.144 -3.0773  3.1077  1.6401
  122MOL0     H16788   3.304   1.434   9.941 -1.7032  0.0306  1.0471
  122MOL0     H16789   3.271   1.415  10.114  0.7964  0.2860  1.6566
  122MOL0     H16790   3.511   1.577  10.017  0.3663 -2.3463 -0.0351
  122MOL0     H16791   3.348   1.647  10.043 -1.3162 -1.2022  1.9134
  122MOL0     H16792   3.349   1.596  10.275 -0.8582 -0.2973  0.3005
  122MOL0     H16793   3.498   1.497  10.264  1.2109  1.4110 -0.6844
  122MOL0     H16794   3.699   1.544  10.159  0.3061 -0.2857  1.3057
  122MOL0     H16795   4.034   1.590  10.089 -0.5817  0.6853  1.0069
  122MOL0     H16796   3.925   1.454  10.144 -1.7795  1.1041  3.3438
  122MOL0     H16797   4.048   1.511  10.249  0.5623 -1.1561 -0.0753
  122MOL0     H16798   4.252   1.883  10.142 -1.0782  0.3254 -0.6860
  122MOL0     H16799   4.495   1.946  10.136  0.6194 -1.0842 -0.3840
  122MOL0     H16800   4.648   2.155  10.486  1.0589 -0.1226  1.4690
  122MOL0     H16801   4.692   1.991  10.545  0.6872 -0.4804 -0.5677
  122MOL0     H16802   4.906   2.024  10.402 -1.5425 -0.8138  1.1367
  122MOL0     H16803   4.840   2.190  10.367 -0.3248 -0.4603 -0.4336
  122MOL0     H16804   4.937   2.062  10.619  1.1237  0.8460 -0.8823
  122MOL0     H16805   4.821   2.198  10.637  1.1165  1.8125  0.0669
  122MOL0     H16806   4.968   2.345  10.499  1.1462 -0.4783  0.2566
  122MOL0     H16807   5.085   2.220  10.494 -0.9306 -0.1138  0.0230
  122MOL0     H16808   4.995   2.372  10.739  0.3784  0.4947 -0.6225
  122MOL0     H16809   5.114   2.241  10.752  0.0573 -0.5938 -1.0028
  122MOL0     H16810   5.205   2.476  10.754 -0.4307 -0.9105  0.5827
  122MOL0     H16811   5.146   2.498  10.595 -1.3823 -0.1773  0.8875
  122MOL0     H16812   5.386   2.447  10.587  2.4330 -1.1359  0.6713
  122MOL0     H16813   5.284   2.340  10.490  1.0146 -0.2393  0.0818
  122MOL0     H16814   5.456   2.188  10.599  1.3951 -0.7484  1.2843
  122MOL0     H16815   5.315   2.165  10.696 -0.7706  0.5466 -3.0847
  122MOL0     H16816   4.472   2.021  10.556  0.8339  2.0733 -1.4116
  122MOL0     H16817   4.231   2.023  10.552 -0.9853  2.1988 -1.7055
  122MOL0     H16818   3.856   1.922  10.422 -1.9662 -1.4157  2.0282
  122MOL0     H16819   3.627   1.894  10.389 -1.1848 -2.4592 -0.0136
  122MOL0     H16820   2.331   1.185   9.574 -4.9768  2.4472  0.1490
  122MOL0     H16821   2.111   1.161   9.682 -1.3272 -0.9337  3.1055
  122MOL0     H16822   1.955   1.004  10.097  0.5919  0.1806  0.5820
  122MOL0     H16823   1.810   0.934  10.285 -1.1854 -1.1390  0.4079
  122MOL0     H16824   1.485   0.644  10.212  0.7655 -0.7806  0.5835
  122MOL0     H16825   1.454   0.691  10.376 -0.8578  0.8604 -0.1292
  122MOL0     H16826   1.286   0.779  10.224  1.7165 -1.5496  1.2439
  122MOL0     H16827   1.409   0.862  10.134  0.4939 -3.4535 -1.2562
  122MOL0     H16828   1.343   0.919  10.429 -1.7776 -3.0052 -1.2858
  122MOL0     H16829   1.436   1.034  10.328 -0.9345  1.3726  0.3365
  122MOL0     H16830   1.228   1.012  10.159  0.9751 -0.5211 -0.4803
  122MOL0     H16831   1.251   1.136  10.277 -0.2707 -0.0343 -0.5319
  122MOL0     H16832   0.932   0.904  10.450 -0.4346 -0.8292 -1.1603
  122MOL0     H16833   1.602   0.666  10.036 -0.1900  0.8786 -0.3903
  122MOL0     H16834   1.800   0.667   9.774  0.8831 -0.6257  0.2118
  122MOL0     H16835   1.638   0.634   9.834  0.6141  1.1699  1.5688
  122MOL0     H16836   1.673   0.781   9.735  0.5062 -0.3173 -1.3940
  123MOL0     O16837   3.132  10.272   5.337  0.0113  0.2151  0.0546
  123MOL0     C16838   3.070  10.213   5.248 -0.5166  0.2228 -0.5435
  123MOL0     O16839   3.123  10.177   5.130  0.7953  0.3117  0.2622
  123MOL0     C16840   3.261  10.183   5.111  0.7820  0.8562 -0.5837
  123MOL0     C16841   3.337  10.060   5.098  0.4747 -0.0163  1.6827
  123MOL0     C16842   3.470  10.066   5.078 -0.3315  0.6689 -0.1979
  123MOL0     C16843   3.536  10.182   5.067 -0.0882 -0.1645 -0.2507
  123MOL0     O16844   3.675  10.181   5.046 -0.6980  0.1123 -0.2298
  123MOL0     C16845   3.740  10.062   5.003 -0.1573 -0.7396  0.2122
  123MOL0     C16846   3.879  10.089   4.974  0.2646  0.1444  0.0760
  123MOL0     C16847   3.894  10.167   4.835 -0.4976  0.1201 -0.1419
  123MOL0     C16848   4.009  10.269   4.845 -0.6017  1.0474  0.0319
  123MOL0     C16849   4.088  10.302   4.718  0.1277 -0.4465  0.2746
  123MOL0     C16850   3.986  10.347   4.608 -0.4832  0.0885  0.6823
  123MOL0     C16851   4.061  10.417   4.503 -0.4619  0.2176 -0.0752
  123MOL0     C16852   3.969  10.441   4.383  0.2608  0.3913 -0.1202
  123MOL0     N16853   4.031  10.541   4.297 -0.7717  0.8326  0.6205
  123MOL0     C16854   4.133  10.510   4.207 -0.3668 -0.0780 -0.3216
  123MOL0     C16855   4.154  10.627   4.139  0.7528  0.2562 -0.3856
  123MOL0     C16856   4.272  10.666   4.038 -0.3810  0.0473  0.3228
  123MOL0     C16857   4.233  10.791   3.947 -0.1921  0.2163  0.2910
  123MOL0     C16858   4.350  10.808   3.839 -0.2334 -0.1919 -0.9002
  123MOL0     C16859   4.484  10.853   3.881 -0.6227 -0.1771  0.8233
  123MOL0     O16860   4.473  10.984   3.935  0.7319  0.8070 -0.1536
  123MOL0     C16861   4.584  11.054   3.931  0.0790  0.1200  0.3585
  123MOL0     C16862   4.709  11.002   3.951  0.0021 -0.7310  0.1918
  123MOL0     C16863   4.827  11.078   3.942 -0.6220 -0.3116  0.3877
  123MOL0     C16864   4.957  11.015   3.976  0.2054  0.0252 -0.6008
  123MOL0     C16865   4.819  11.223   3.916 -0.1931 -0.2485  0.1863
  123MOL0     C16866   4.936  11.321   3.907  0.2453 -0.1366 -0.1544
  123MOL0     O16867   5.062  11.276   3.956  0.2487 -0.5063 -0.7871
  123MOL0     C16868   5.168  11.366   3.960  0.3535  0.6068 -0.0181
  123MOL0     C16869   5.295  11.338   3.909 -0.7667  0.3865  0.7861
  123MOL0     C16870   5.397  11.437   3.916  0.4505  0.9079 -0.9522
  123MOL0     C16871   5.372  11.562   3.964  0.4078 -0.8916 -0.0780
  123MOL0     O16872   5.462  11.660   3.976  0.1062 -0.2638 -0.7685
  123MOL0     C16873   5.588  11.635   3.917 -0.2351 -0.1611  0.3664
  123MOL0     C16874   5.672  11.763   3.919  0.0585 -0.0266  0.3371
  123MOL0     C16875   5.818  11.729   3.896 -0.5544 -1.1910  0.4396
  123MOL0     C16876   5.922  11.834   3.927  0.0947 -0.4040  0.2612
  123MOL0     C16877   6.067  11.785   3.928  1.2139 -0.3752 -0.1890
  123MOL0     C16878   6.112  11.763   3.791 -0.0412 -0.8186  0.7684
  123MOL0     C16879   6.238  11.674   3.780  0.4537  0.0394 -0.6983
  123MOL0     C16880   6.357  11.719   3.855  0.2283 -0.1092 -0.8071
  123MOL0    Cl16881   6.349  11.675   4.030  0.2844  0.0171 -0.3688
  123MOL0     C16882   5.250  11.594   4.017 -0.3353 -0.1259  0.6274
  123MOL0     C16883   5.150  11.494   4.015 -0.0420 -1.0032 -0.0990
  123MOL0     O16884   4.909  11.429   3.859 -0.6284 -0.3929 -0.2099
  123MOL0     C16885   4.689  11.269   3.889 -0.5657 -0.2189 -0.0046
  123MOL0     C16886   4.578  11.185   3.910  0.0727  0.2357  0.4639
  123MOL0     N16887   4.074  10.721   4.191  0.3245 -0.2614  0.7288
  123MOL0     N16888   4.000  10.672   4.277 -0.3614  0.2838  0.0331
  123MOL0     C16889   3.474  10.307   5.078 -0.0289 -0.1201 -0.5428
  123MOL0     C16890   3.338  10.302   5.104  0.5179 -0.1325  0.0164
  123MOL0     C16891   2.931  10.171   5.279 -0.0260  0.7902 -0.2661
  123MOL0     C16892   2.880  10.216   5.402 -0.6289 -0.6267 -1.1387
  123MOL0     C16893   2.760  10.165   5.445 -0.5567 -0.4798 -0.5479
  123MOL0     C16894   2.686  10.078   5.369  0.1667  0.1432 -0.8530
  123MOL0     O16895   2.562  10.043   5.417 -0.0054 -0.0105 -0.0537
  123MOL0     C16896   2.454  10.052   5.317 -0.3931  0.2116  0.6198
  123MOL0     C16897   2.326  10.086   5.400 -0.0585  0.5534 -1.0317
  123MOL0     C16898   2.213  10.119   5.310 -0.4074 -1.3726  0.6318
  123MOL0     C16899   2.092  10.166   5.397 -0.0567 -0.5390  0.3791
  123MOL0     C16900   1.989  10.226   5.321 -0.2527 -0.8729  0.1516
  123MOL0     C16901   1.920  10.276   5.234 -0.5384 -0.1059  0.0230
  123MOL0     C16902   2.742  10.026   5.254  0.3324 -0.8262  0.2564
  123MOL0     C16903   2.860  10.078   5.199 -0.2817  0.8272 -0.0367
  123MOL0     C16904   2.902  10.017   5.065 -1.2039 -0.2467  0.2756
  123MOL0     H16905   3.279   9.969   5.086  0.2072  0.5148 -2.9240
  123MOL0     H16906   3.508   9.966   5.062 -1.6697  0.1893 -0.4952
  123MOL0     H16907   3.693  10.019   4.914 -1.4952  0.2643  0.3884
  123MOL0     H16908   3.746   9.993   5.088 -0.5877 -2.0508 -0.7982
  123MOL0     H16909   3.925  10.154   5.050 -0.8193  3.4369 -1.8793
  123MOL0     H16910   3.932   9.993   4.969 -0.6667 -0.4794  1.5122
  123MOL0     H16911   3.903  10.095   4.754 -2.3742 -1.9681  1.3879
  123MOL0     H16912   3.804  10.228   4.822  0.0872  1.4729  1.6605
  123MOL0     H16913   3.963  10.362   4.879  1.0085  1.8903  0.0022
  123MOL0     H16914   4.080  10.233   4.920 -1.5800 -0.5464  0.2331
  123MOL0     H16915   4.141  10.210   4.696  1.1477  0.3449 -0.6908
  123MOL0     H16916   4.161  10.383   4.732  0.3542 -0.0176 -2.6858
  123MOL0     H16917   3.936  10.260   4.564  2.0346 -0.8077 -0.6677
  123MOL0     H16918   3.909  10.409   4.653  3.0277  2.6056  3.9116
  123MOL0     H16919   4.151  10.362   4.474  0.2135  0.8327  0.7838
  123MOL0     H16920   4.082  10.516   4.544 -1.5795  0.3883  0.1139
  123MOL0     H16921   3.938  10.354   4.325 -0.1285 -1.2895  2.4145
  123MOL0     H16922   3.867  10.470   4.411  0.1596 -0.6123  0.6306
  123MOL0     H16923   4.189  10.417   4.206  1.0343  0.7076  1.0446
  123MOL0     H16924   4.299  10.577   3.979 -4.5774 -0.6321 -0.8376
  123MOL0     H16925   4.355  10.702   4.100 -0.3337  1.9346 -0.7802
  123MOL0     H16926   4.143  10.769   3.889  0.5050  1.5759 -1.3983
  123MOL0     H16927   4.216  10.882   4.005  2.7492  1.0644 -0.0070
  123MOL0     H16928   4.365  10.708   3.797  0.1358  0.0905 -1.4588
  123MOL0     H16929   4.310  10.875   3.762 -1.3523  0.1135 -0.0799
  123MOL0     H16930   4.534  10.791   3.956  2.8948  0.6330 -0.6256
  123MOL0     H16931   4.548  10.846   3.792 -0.1161 -0.9214  1.2361
  123MOL0     H16932   4.728  10.897   3.970 -1.3275 -1.3197 -1.4747
  123MOL0     H16933   5.003  11.056   4.066 -0.7697 -0.5754  0.1872
  123MOL0     H16934   5.028  11.023   3.893  0.4408 -1.0816 -0.5181
  123MOL0     H16935   4.946  10.909   4.001  4.2413 -0.2270  0.8756
  123MOL0     H16936   5.324  11.243   3.865  0.2199  1.3888 -0.8337
  123MOL0     H16937   5.491  11.411   3.869 -0.0017  0.2909 -1.5385
  123MOL0     H16938   5.632  11.555   3.977 -1.6664 -1.7200 -0.5658
  123MOL0     H16939   5.568  11.607   3.813 -1.9782  0.4864  0.4894
  123MOL0     H16940   5.631  11.838   3.850 -0.6608  0.8471  1.6652
  123MOL0     H16941   5.672  11.803   4.021  0.4724  0.1300  0.2783
  123MOL0     H16942   5.826  11.696   3.792  0.9575 -1.6286  0.6719
  123MOL0     H16943   5.838  11.644   3.962  4.3708  1.5240  2.9203
  123MOL0     H16944   5.893  11.873   4.025 -1.6855 -1.8492  0.3736
  123MOL0     H16945   5.910  11.923   3.864  2.2641  0.3481  0.8584
  123MOL0     H16946   6.132  11.854   3.982  0.6513  1.0435 -1.2557
  123MOL0     H16947   6.067  11.691   3.984  0.6839  0.6248  1.5907
  123MOL0     H16948   6.127  11.863   3.749  0.9848 -0.5369  1.7548
  123MOL0     H16949   6.029  11.714   3.738  1.1485 -1.7206 -0.3189
  123MOL0     H16950   6.259  11.679   3.673 -0.6305 -3.3178 -1.1974
  123MOL0     H16951   6.229  11.567   3.802 -0.1530  0.5958  2.1979
  123MOL0     H16952   6.362  11.828   3.852 -1.6944  0.1998  2.4984
  123MOL0     H16953   6.442  11.670   3.807  0.1593  0.5845 -1.6656
  123MOL0     H16954   5.225  11.693   4.054  2.1041  1.0127 -0.5261
  123MOL0     H16955   5.055  11.521   4.059  1.9582 -0.0826  4.1396
  123MOL0     H16956   4.676  11.374   3.864  0.0046  0.9351  3.8444
  123MOL0     H16957   4.479  11.227   3.894 -0.5890 -1.8413 -1.3265
  123MOL0     H16958   3.522  10.404   5.064  1.4255 -0.5100  1.4239
  123MOL0     H16959   3.295  10.400   5.119 -0.7149 -0.4601 -1.2381
  123MOL0     H16960   2.920  10.294   5.466  1.7194 -1.3252 -1.6264
  123MOL0     H16961   2.720  10.193   5.542 -0.0657 -1.5193 -0.0389
  123MOL0     H16962   2.476  10.133   5.247  0.1796 -0.2212  0.2905
  123MOL0     H16963   2.451   9.956   5.265 -1.0307  1.2953 -1.4355
  123MOL0     H16964   2.345  10.161   5.477  2.5749 -0.8205 -0.1978
  123MOL0     H16965   2.304   9.990   5.448 -2.9675  0.3793 -2.5275
  123MOL0     H16966   2.246  10.206   5.252  0.0024 -2.0756 -0.2149
  123MOL0     H16967   2.184  10.042   5.238 -1.2673  0.6021 -1.2612
  123MOL0     H16968   2.135  10.238   5.467  1.6650  0.3541 -1.4753
  123MOL0     H16969   2.049  10.080   5.450  0.2056 -1.6278 -1.1153
  123MOL0     H16970   1.855  10.320   5.161 -0.7959 -0.6434 -0.0822
  123MOL0     H16971   2.689   9.947   5.201  1.1117 -1.3292  0.2075
  123MOL0     H16972   2.929  10.090   4.988  0.2254 -3.4462 -2.5000
  123MOL0     H16973   2.993   9.957   5.076 -1.0232 -0.6749 -2.6087
  123MOL0     H16974   2.818   9.962   5.023 -1.1964 -1.5990  1.9310
  124MOL0     O16975   4.626   0.533   7.636  0.3552  0.6868 -0.2984
  124MOL0     C16976   4.689   0.580   7.541  0.4048 -0.8168  0.6357
  124MOL0     O16977   4.695   0.527   7.420  0.2746 -0.7800  0.1157
  124MOL0     C16978   4.643   0.400   7.397  0.3553 -0.2430 -1.0058
  124MOL0     C16979   4.513   0.395   7.358  0.4485  0.2246  0.0456
  124MOL0     C16980   4.451   0.264   7.341 -0.0461  0.3019 -0.8334
  124MOL0     C16981   4.522   0.145   7.356 -0.5677 -0.0384 -1.0078
  124MOL0     O16982   4.463   0.019   7.365 -0.5643  0.8674  0.5722
  124MOL0     C16983   4.353   0.001   7.273 -0.0681 -0.1631  0.0266
  124MOL0     C16984   4.313  -0.141   7.278 -0.0321  0.0488  0.0012
  124MOL0     C16985   4.259  -0.187   7.414  0.2889  0.3660 -0.0569
  124MOL0     C16986   4.233  -0.340   7.408 -0.1903 -0.3278  0.9634
  124MOL0     C16987   4.189  -0.395   7.543 -0.0362  0.2243  0.3654
  124MOL0     C16988   4.187  -0.547   7.545 -0.4184  0.0780  0.2760
  124MOL0     C16989   4.332  -0.599   7.547 -0.0290 -0.3972 -0.3220
  124MOL0     C16990   4.314  -0.744   7.585  0.4978  1.0196 -0.3686
  124MOL0     N16991   4.447  -0.810   7.593 -0.0429  0.8174  0.3053
  124MOL0     C16992   4.537  -0.789   7.696  0.0369  0.2821  0.4468
  124MOL0     C16993   4.638  -0.878   7.675 -0.0016  0.4303  0.3258
  124MOL0     C16994   4.766  -0.902   7.754  0.3048 -0.1252  0.5400
  124MOL0     C16995   4.736  -0.952   7.892 -0.4278 -0.3006 -0.1026
  124MOL0     C16996   4.866  -0.981   7.970  0.1790  0.1292  0.2495
  124MOL0     C16997   4.928  -0.856   8.039  0.2923 -0.7088  0.3647
  124MOL0     O16998   5.050  -0.904   8.081 -0.4185  0.1198  0.1870
  124MOL0     C16999   5.154  -0.817   8.077  0.0121  0.6452 -0.0739
  124MOL0     C17000   5.263  -0.858   8.000 -0.5604  0.2283  0.6395
  124MOL0     C17001   5.374  -0.771   7.990 -0.1788  0.5245  0.9831
  124MOL0     C17002   5.496  -0.816   7.897 -0.3367 -0.1314 -0.0958
  124MOL0     C17003   5.379  -0.658   8.075 -0.6470 -0.5895  0.2139
  124MOL0     C17004   5.493  -0.563   8.076  0.1995 -0.1303 -0.5143
  124MOL0     O17005   5.492  -0.461   8.169  0.2048  0.7545  0.2591
  124MOL0     C17006   5.588  -0.363   8.168  0.3285  0.1084 -0.3443
  124MOL0     C17007   5.563  -0.227   8.168 -0.4778 -0.0214  0.1278
  124MOL0     C17008   5.666  -0.133   8.172  0.2753  0.3860  1.0238
  124MOL0     C17009   5.802  -0.168   8.188 -0.7364  0.2053  0.5395
  124MOL0     O17010   5.909  -0.074   8.205  0.4899  0.1452  0.4257
  124MOL0     C17011   5.892   0.065   8.223  0.4136 -0.0087 -0.3806
  124MOL0     C17012   5.905   0.144   8.099  0.1419 -0.8545  0.2630
  124MOL0     C17013   6.035   0.120   8.028  0.9873 -0.0252 -0.0803
  124MOL0     C17014   6.150   0.205   8.072 -0.4282 -0.5067  0.3082
  124MOL0     C17015   6.277   0.198   7.992 -0.2559 -0.4344  0.1068
  124MOL0     C17016   6.385   0.286   8.061  0.7917  0.0751 -0.2731
  124MOL0     C17017   6.506   0.316   7.978  0.5091  0.0776  0.0051
  124MOL0     C17018   6.600   0.405   8.053 -0.5598 -0.2111 -0.4812
  124MOL0    Cl17019   6.518   0.558   8.108  0.1060 -0.1308  0.2356
  124MOL0     C17020   5.821  -0.302   8.182  0.5374  0.1371  0.1466
  124MOL0     C17021   5.723  -0.397   8.175  0.0991  0.2409 -0.6110
  124MOL0     O17022   5.567  -0.567   7.980 -0.3537 -0.0107 -0.3097
  124MOL0     C17023   5.259  -0.619   8.143 -0.4135 -0.3291  0.4529
  124MOL0     C17024   5.142  -0.694   8.141 -0.0246  0.3382 -0.4314
  124MOL0     N17025   4.607  -0.953   7.561  0.0359  0.6676 -0.3854
  124MOL0     N17026   4.496  -0.914   7.514 -0.5275 -0.9919  0.0292
  124MOL0     C17027   4.656   0.155   7.406  0.7265  0.3327  0.4165
  124MOL0     C17028   4.708   0.279   7.431  0.3678 -0.1923  0.0777
  124MOL0     C17029   4.743   0.721   7.549  0.4364 -0.1422 -0.1652
  124MOL0     C17030   4.842   0.751   7.643  0.2513  0.0295  0.7206
  124MOL0     C17031   4.901   0.880   7.640 -0.0727  0.9336 -0.2453
  124MOL0     C17032   4.860   0.972   7.551 -0.3976  0.6373 -0.0605
  124MOL0     O17033   4.921   1.092   7.558 -0.2976  0.3946  0.4022
  124MOL0     C17034   4.903   1.193   7.452  0.2868 -0.7786 -0.6080
  124MOL0     C17035   5.030   1.269   7.422 -0.2315  0.0242  0.8047
  124MOL0     C17036   5.124   1.171   7.358 -1.1998 -0.8397  0.8844
  124MOL0     C17037   5.227   1.224   7.256 -0.0200 -0.0925 -0.1453
  124MOL0     C17038   5.174   1.307   7.151 -0.6602  0.0327  0.1974
  124MOL0     C17039   5.149   1.355   7.044 -0.0447 -0.0552  0.2615
  124MOL0     C17040   4.747   0.943   7.467 -0.9003 -0.5589 -0.0106
  124MOL0     C17041   4.692   0.817   7.460  0.6401 -0.1174 -0.3822
  124MOL0     C17042   4.568   0.802   7.373 -0.3217  0.3874 -0.2671
  124MOL0     H17043   4.458   0.488   7.346 -0.8066 -0.4117  0.6942
  124MOL0     H17044   4.344   0.257   7.325 -0.0903  1.1100 -0.9183
  124MOL0     H17045   4.372   0.035   7.171  1.3173  0.0376  0.3216
  124MOL0     H17046   4.271   0.063   7.310  0.5021 -0.6787  2.3327
  124MOL0     H17047   4.243  -0.157   7.195  1.6000 -0.5740 -1.3123
  124MOL0     H17048   4.404  -0.194   7.249 -0.4779 -0.8595  0.2418
  124MOL0     H17049   4.325  -0.166   7.499  1.6190  1.6512 -1.3449
  124MOL0     H17050   4.167  -0.131   7.436 -1.2551 -1.6121 -1.1155
  124MOL0     H17051   4.150  -0.360   7.340  0.9110 -3.0452  0.2963
  124MOL0     H17052   4.322  -0.386   7.363 -2.3539 -1.1641 -2.9179
  124MOL0     H17053   4.083  -0.371   7.548 -0.9974 -2.4154 -3.1652
  124MOL0     H17054   4.238  -0.355   7.632  3.6561 -2.7392 -0.0304
  124MOL0     H17055   4.137  -0.569   7.640  1.7346  3.6244  2.4440
  124MOL0     H17056   4.131  -0.579   7.457  0.6633 -1.8061  0.2244
  124MOL0     H17057   4.386  -0.546   7.625 -1.5562 -0.3979  0.7618
  124MOL0     H17058   4.396  -0.589   7.458  1.1025 -0.2982  0.4826
  124MOL0     H17059   4.261  -0.747   7.681  0.2597  2.3215 -0.4469
  124MOL0     H17060   4.249  -0.793   7.513 -1.3216 -0.9957  2.4257
  124MOL0     H17061   4.527  -0.706   7.766  0.7933  2.4689 -1.8981
  124MOL0     H17062   4.821  -0.807   7.751 -3.4711  2.2761 -0.0161
  124MOL0     H17063   4.825  -0.977   7.700  0.6578  0.0009  0.7452
  124MOL0     H17064   4.673  -0.887   7.954  0.4516 -1.7105  2.3844
  124MOL0     H17065   4.678  -1.045   7.897 -1.5344  0.4437  2.5808
  124MOL0     H17066   4.840  -1.059   8.042 -1.6423 -0.5607 -1.1139
  124MOL0     H17067   4.941  -1.024   7.903 -0.6140 -0.8813 -0.0125
  124MOL0     H17068   4.934  -0.769   7.972 -2.3536 -1.6266 -1.2283
  124MOL0     H17069   4.868  -0.824   8.124  0.6649 -0.5796  0.5794
  124MOL0     H17070   5.266  -0.958   7.958 -1.7337  0.3133  0.3026
  124MOL0     H17071   5.591  -0.808   7.951 -0.1522 -1.1676 -0.2452
  124MOL0     H17072   5.512  -0.742   7.818 -0.0958  1.2570  1.2212
  124MOL0     H17073   5.479  -0.915   7.852 -0.4330  0.5878 -1.7113
  124MOL0     H17074   5.460  -0.193   8.155 -0.8242 -1.0799 -0.0179
  124MOL0     H17075   5.642  -0.027   8.180 -1.1041  0.1545  0.2541
  124MOL0     H17076   5.806   0.094   8.285  1.4837 -1.2221  1.7802
  124MOL0     H17077   5.979   0.097   8.281 -0.7713 -0.7354  1.9610
  124MOL0     H17078   5.820   0.128   8.031  1.4159 -1.1083 -1.3189
  124MOL0     H17079   5.905   0.247   8.135  2.3302 -0.3654 -0.9513
  124MOL0     H17080   6.025   0.148   7.923  2.7631  1.3814  0.0771
  124MOL0     H17081   6.055   0.014   8.048  1.6620  0.3555  1.3890
  124MOL0     H17082   6.161   0.191   8.180 -1.9817  3.5624  1.2066
  124MOL0     H17083   6.117   0.310   8.075  2.2805  0.4771 -0.8752
  124MOL0     H17084   6.310   0.096   7.976  0.5099  0.0407 -1.5687
  124MOL0     H17085   6.250   0.237   7.893  0.0718  1.5853  0.7593
  124MOL0     H17086   6.426   0.237   8.150  0.8684  0.3560 -0.1518
  124MOL0     H17087   6.334   0.374   8.101 -0.2401  0.2248 -1.8300
  124MOL0     H17088   6.478   0.369   7.886 -0.0709  0.9254  0.6534
  124MOL0     H17089   6.568   0.228   7.957  0.0124  0.0189 -1.3358
  124MOL0     H17090   6.684   0.441   7.993 -0.3313  1.3778  0.7303
  124MOL0     H17091   6.634   0.343   8.136  0.0025 -1.4185 -1.5646
  124MOL0     H17092   5.916  -0.355   8.190  0.4051 -1.2337 -4.5693
  124MOL0     H17093   5.752  -0.501   8.178  0.4252  0.3475  0.7185
  124MOL0     H17094   5.256  -0.520   8.189  1.1599  0.3800 -0.8752
  124MOL0     H17095   5.047  -0.665   8.184 -1.5490 -3.5223 -0.7669
  124MOL0     H17096   4.706   0.061   7.426  1.2842  0.3719 -0.6938
  124MOL0     H17097   4.807   0.297   7.471  0.5979  2.7721 -1.5478
  124MOL0     H17098   4.884   0.684   7.717 -1.0763  1.2661  2.6737
  124MOL0     H17099   4.974   0.907   7.716  2.9103 -0.5205 -2.4093
  124MOL0     H17100   4.866   1.142   7.363  1.9599 -1.5086 -0.9277
  124MOL0     H17101   4.830   1.266   7.486 -1.8228 -3.0165 -0.0243
  124MOL0     H17102   5.069   1.319   7.511 -0.6726 -0.5054  1.3057
  124MOL0     H17103   5.005   1.343   7.345 -2.6732 -2.4545 -0.9765
  124MOL0     H17104   5.186   1.138   7.441  2.7026  0.5006 -1.2277
  124MOL0     H17105   5.069   1.092   7.305  2.3587 -2.5647 -0.5636
  124MOL0     H17106   5.271   1.136   7.208 -4.2602 -3.4348  1.4842
  124MOL0     H17107   5.303   1.289   7.301  1.7548 -1.3804 -1.1589
  124MOL0     H17108   5.134   1.411   6.953  2.8624 -1.1139 -1.0070
  124MOL0     H17109   4.696   1.029   7.423 -3.3973 -0.8549  2.0523
  124MOL0     H17110   4.593   0.759   7.276  0.2632  1.0754 -0.4301
  124MOL0     H17111   4.496   0.743   7.432  2.1647  0.4632  3.1209
  124MOL0     H17112   4.515   0.893   7.342 -1.1489  0.2547  0.6583
  125MOL0     O17113   3.839   6.071  11.217 -0.0295 -0.4997 -0.2054
  125MOL0     C17114   3.731   6.097  11.278  0.0464 -0.1527  0.0374
  125MOL0     O17115   3.718   6.133  11.405 -0.5975  0.2226  0.1299
  125MOL0     C17116   3.830   6.176  11.478 -0.1542 -0.5721 -0.5518
  125MOL0     C17117   3.910   6.287  11.443 -0.2272 -0.3808  0.4858
  125MOL0     C17118   4.032   6.322  11.516  0.2957 -0.4710  0.4053
  125MOL0     C17119   4.060   6.234  11.624  0.2161 -0.3249  0.4673
  125MOL0     O17120   4.168   6.264  11.703 -0.0946 -0.1736 -0.3916
  125MOL0     C17121   4.199   6.181  11.821 -0.2746  0.4563  0.8726
  125MOL0     C17122   4.338   6.217  11.858 -0.0122 -0.3858 -0.0604
  125MOL0     C17123   4.345   6.359  11.919  0.0987 -1.0808  0.1123
  125MOL0     C17124   4.486   6.400  11.952  0.0459  0.8036  0.3135
  125MOL0     C17125   4.488   6.550  11.988 -0.1652  1.3722 -0.0621
  125MOL0     C17126   4.624   6.597  12.019 -0.9623 -0.6990  0.0948
  125MOL0     C17127   4.640   6.734  12.070 -0.7643 -0.4997  0.1586
  125MOL0     C17128   4.611   6.848  11.974 -0.6929  0.4127  0.2344
  125MOL0     N17129   4.653   6.975  12.039  0.2814  0.5651  0.4378
  125MOL0     C17130   4.775   7.032  12.041 -0.5786 -0.0767  1.1181
  125MOL0     C17131   4.768   7.156  12.094  0.3184 -0.5789  1.8711
  125MOL0     C17132   4.886   7.243  12.139 -0.1197 -0.3416  0.1626
  125MOL0     C17133   4.943   7.208  12.283 -0.1880 -0.0329  0.6940
  125MOL0     C17134   5.083   7.148  12.275  0.7860  0.7082 -0.2246
  125MOL0     C17135   5.083   6.994  12.285 -0.1110  0.3138 -0.6905
  125MOL0     O17136   5.213   6.944  12.339  0.4885 -0.1753 -0.2846
  125MOL0     C17137   5.255   6.811  12.319 -0.6991 -0.4440  0.5195
  125MOL0     C17138   5.352   6.762  12.406 -0.0794  0.9398  0.2485
  125MOL0     C17139   5.399   6.631  12.401 -0.4932  0.7372 -0.0730
  125MOL0     C17140   5.503   6.591  12.497  0.7114  0.2618 -0.6866
  125MOL0     C17141   5.338   6.540  12.303 -0.3921 -0.3261 -0.6088
  125MOL0     C17142   5.382   6.399  12.277 -0.0959  0.5255 -0.2798
  125MOL0     O17143   5.392   6.310  12.387  0.5472 -0.1117  0.9886
  125MOL0     C17144   5.411   6.172  12.371 -1.0436 -0.1930 -0.4169
  125MOL0     C17145   5.528   6.135  12.292  0.2586 -0.0070  0.3524
  125MOL0     C17146   5.565   6.001  12.278  0.1159  0.0982 -0.1631
  125MOL0     C17147   5.511   5.906  12.361  0.4803 -0.0268 -0.0144
  125MOL0     O17148   5.577   5.788  12.366  0.2304  0.4300 -0.3026
  125MOL0     C17149   5.491   5.683  12.312 -0.1542 -0.2714  0.6279
  125MOL0     C17150   5.492   5.688  12.159  0.4029 -0.2148  0.2121
  125MOL0     C17151   5.634   5.649  12.116 -0.1752 -0.4514  0.0154
  125MOL0     C17152   5.646   5.658  11.965  1.0186 -0.7969 -0.3253
  125MOL0     C17153   5.792   5.639  11.930  0.3280 -0.0050 -0.2988
  125MOL0     C17154   5.809   5.668  11.775 -0.6936  0.3590  0.2063
  125MOL0     C17155   5.945   5.613  11.722 -0.4077  0.2493  0.5508
  125MOL0     C17156   6.055   5.695  11.788  0.0568 -0.0999 -0.2743
  125MOL0    Cl17157   6.202   5.637  11.734  0.1437 -0.1989 -0.1541
  125MOL0     C17158   5.407   5.939  12.452  0.5728  0.2311 -0.5734
  125MOL0     C17159   5.345   6.069  12.446  0.0475 -0.8164 -0.0095
  125MOL0     O17160   5.395   6.363  12.158  0.6188 -0.0044  0.2694
  125MOL0     C17161   5.235   6.591  12.225 -0.3408  0.0347  0.6240
  125MOL0     C17162   5.197   6.725  12.232 -0.0772 -0.1008  0.1234
  125MOL0     N17163   4.637   7.185  12.124 -0.8500  0.4685  0.4319
  125MOL0     N17164   4.572   7.074  12.092  0.3308 -0.6811  0.2899
  125MOL0     C17165   3.985   6.123  11.656 -0.0803 -0.1648  0.7857
  125MOL0     C17166   3.857   6.105  11.590 -0.4613 -0.0878 -0.1708
  125MOL0     C17167   3.600   6.080  11.205 -0.1109 -0.2282 -0.3810
  125MOL0     C17168   3.488   6.122  11.282  0.4237 -0.5205  0.7317
  125MOL0     C17169   3.357   6.116  11.223  0.8305  0.8544  0.1484
  125MOL0     C17170   3.332   6.058  11.098  0.1451  0.9816 -0.1597
  125MOL0     O17171   3.215   6.027  11.031 -0.3279 -1.0387  0.9463
  125MOL0     C17172   3.091   6.043  11.094  0.1352 -0.2314 -0.7436
  125MOL0     C17173   2.982   6.070  10.992  0.7230 -1.3363 -0.5728
  125MOL0     C17174   2.850   6.119  11.056 -0.1939 -0.4277  0.0756
  125MOL0     C17175   2.796   6.031  11.174 -0.7391 -0.1433  0.1177
  125MOL0     C17176   2.733   5.908  11.119  0.2452  0.1323 -0.6320
  125MOL0     C17177   2.689   5.807  11.075  1.2318 -0.0080 -0.2974
  125MOL0     C17178   3.442   6.015  11.027  0.2067  0.4128 -0.9228
  125MOL0     C17179   3.573   6.027  11.070 -1.1296 -0.0455  0.2873
  125MOL0     C17180   3.682   5.979  10.976 -0.2743 -0.3002 -0.5624
  125MOL0     H17181   3.890   6.351  11.358  2.1950  0.4219  0.4450
  125MOL0     H17182   4.099   6.401  11.486 -0.4519 -0.4287 -1.2329
  125MOL0     H17183   4.188   6.076  11.796 -0.2837  0.9932 -1.6671
  125MOL0     H17184   4.133   6.199  11.906  1.2839 -0.1486  2.2642
  125MOL0     H17185   4.366   6.149  11.938  0.7637 -2.2905 -1.8462
  125MOL0     H17186   4.397   6.200  11.768 -2.0439 -0.9205 -1.3697
  125MOL0     H17187   4.314   6.433  11.844  0.6075  0.3318  1.2629
  125MOL0     H17188   4.285   6.377  12.008  1.3639  0.9149  0.6054
  125MOL0     H17189   4.542   6.336  12.020  0.5642 -0.2280 -1.0500
  125MOL0     H17190   4.536   6.379  11.857 -0.1869 -1.8733  0.7123
  125MOL0     H17191   4.439   6.558  12.086  1.2609 -1.3029  0.9739
  125MOL0     H17192   4.444   6.609  11.907 -1.3711 -1.1634 -1.3492
  125MOL0     H17193   4.678   6.530  12.086 -1.6053 -1.3390 -0.0073
  125MOL0     H17194   4.680   6.575  11.927 -0.1942 -1.5025  0.7421
  125MOL0     H17195   4.744   6.739  12.101  0.3413 -0.3002 -3.2168
  125MOL0     H17196   4.584   6.741  12.164 -1.5808 -1.5586 -0.2267
  125MOL0     H17197   4.663   6.828  11.881 -0.7954  0.7519  0.1012
  125MOL0     H17198   4.504   6.849  11.950 -0.6541 -1.3031 -0.0661
  125MOL0     H17199   4.862   6.977  12.004 -2.3263 -1.9523 -0.5008
  125MOL0     H17200   4.829   7.337  12.141 -3.8420 -2.2094 -3.4984
  125MOL0     H17201   4.961   7.261  12.061 -0.2490 -0.2283  0.0612
  125MOL0     H17202   4.953   7.297  12.345  3.7529  0.0733  0.1383
  125MOL0     H17203   4.876   7.138  12.334  1.9208  0.4986  4.6040
  125MOL0     H17204   5.138   7.176  12.185  0.5823 -1.5319 -1.1162
  125MOL0     H17205   5.137   7.186  12.363 -2.8276  0.3787  2.3386
  125MOL0     H17206   5.006   6.960  12.355  0.1811 -1.7853 -1.3031
  125MOL0     H17207   5.057   6.953  12.187 -1.8791  0.0591 -0.1629
  125MOL0     H17208   5.395   6.817  12.489  1.7257  0.3197 -0.2163
  125MOL0     H17209   5.467   6.502  12.548 -0.2515  1.2708  0.4375
  125MOL0     H17210   5.522   6.665  12.575  0.5547  0.0096 -0.4074
  125MOL0     H17211   5.597   6.567  12.445  0.8841 -2.1643  0.6131
  125MOL0     H17212   5.574   6.214  12.233  0.0026 -1.1443 -1.4357
  125MOL0     H17213   5.643   5.969  12.209  1.2569  0.5882  0.8820
  125MOL0     H17214   5.524   5.582  12.339 -0.8645 -1.2137 -1.7363
  125MOL0     H17215   5.391   5.701  12.351  0.1295  1.7446  0.5189
  125MOL0     H17216   5.415   5.622  12.120  0.1832  0.0196  0.2431
  125MOL0     H17217   5.464   5.789  12.126  1.4397 -0.6897 -2.3929
  125MOL0     H17218   5.660   5.544  12.135  1.6189 -0.3209 -1.3483
  125MOL0     H17219   5.718   5.705  12.160  1.1115 -1.8926 -0.5037
  125MOL0     H17220   5.617   5.760  11.938  0.2757 -0.2175  2.3116
  125MOL0     H17221   5.586   5.589  11.906  2.1729 -2.2835  0.1757
  125MOL0     H17222   5.857   5.707  11.986  0.5146 -0.8006  0.4789
  125MOL0     H17223   5.825   5.538  11.955  0.3394 -0.3032 -1.4419
  125MOL0     H17224   5.802   5.776  11.759  0.0006  0.5272  0.9511
  125MOL0     H17225   5.728   5.632  11.712 -0.0693  2.2933 -1.8459
  125MOL0     H17226   5.941   5.642  11.617 -0.9211  0.0145  0.5024
  125MOL0     H17227   5.952   5.507  11.749  0.4329  0.4757  1.2541
  125MOL0     H17228   6.047   5.692  11.897  1.8161  1.4005 -0.0514
  125MOL0     H17229   6.060   5.797  11.748 -0.7308 -0.3004 -0.9075
  125MOL0     H17230   5.377   5.872  12.532 -1.9277  0.6767 -1.0812
  125MOL0     H17231   5.276   6.100  12.524  0.2904  1.6433 -0.6935
  125MOL0     H17232   5.192   6.535  12.143 -2.0309  1.1888  0.6697
  125MOL0     H17233   5.113   6.762  12.175  0.1583 -1.3533 -1.0866
  125MOL0     H17234   4.013   6.059  11.739  2.5014  1.3211  1.2020
  125MOL0     H17235   3.797   6.019  11.616 -2.9045  1.1313 -1.4835
  125MOL0     H17236   3.484   6.154  11.386 -1.7526 -0.8352  0.7928
  125MOL0     H17237   3.282   6.157  11.290  2.3181  3.6851  0.2375
  125MOL0     H17238   3.082   5.953  11.155  2.0973 -0.4845 -0.7471
  125MOL0     H17239   3.097   6.124  11.168  0.9659 -1.1188  0.1943
  125MOL0     H17240   2.954   5.978  10.940 -0.1644 -1.1114 -0.5141
  125MOL0     H17241   3.024   6.151  10.932  1.8726 -0.2912  1.5282
  125MOL0     H17242   2.849   6.224  11.090 -1.4903 -0.1039 -0.8936
  125MOL0     H17243   2.779   6.111  10.974 -3.0748  0.3665  2.3394
  125MOL0     H17244   2.717   6.087  11.224 -0.4177 -0.3793  0.9085
  125MOL0     H17245   2.875   6.018  11.249 -0.9929  0.8772  0.5676
  125MOL0     H17246   2.659   5.720  11.020  1.2269  0.5418 -1.1840
  125MOL0     H17247   3.406   5.981  10.930  0.3971 -1.6496 -0.3355
  125MOL0     H17248   3.749   5.904  11.022 -2.2852 -2.3198 -0.7286
  125MOL0     H17249   3.625   5.936  10.893  1.3442  1.3702 -2.6322
  125MOL0     H17250   3.739   6.060  10.930  0.3502 -1.3758 -1.7410
  126MOL0     O17251   2.044   8.428   6.320  0.0719  0.2129 -0.4330
  126MOL0     C17252   1.968   8.504   6.377  0.0417 -0.8845  0.5294
  126MOL0     O17253   1.960   8.531   6.515  0.4945  0.6701  0.1646
  126MOL0     C17254   2.021   8.445   6.594  0.0120 -0.0628  1.2632
  126MOL0     C17255   2.129   8.485   6.675  1.0137 -0.7335  0.5402
  126MOL0     C17256   2.187   8.390   6.759  1.1570 -0.2941  0.5306
  126MOL0     C17257   2.148   8.258   6.755 -0.3250 -0.0782  0.1703
  126MOL0     O17258   2.208   8.167   6.838 -0.0635  0.4354 -0.9762
  126MOL0     C17259   2.193   8.029   6.796 -0.4354 -0.4822  0.1583
  126MOL0     C17260   2.301   7.937   6.863 -0.3641  0.0161  0.2668
  126MOL0     C17261   2.448   7.970   6.809  0.1578 -0.3750 -0.1666
  126MOL0     C17262   2.555   7.881   6.863  0.1253 -0.2547  0.3608
  126MOL0     C17263   2.697   7.904   6.810 -0.0766  0.5110 -0.1341
  126MOL0     C17264   2.764   8.019   6.886 -0.0312  1.3171 -0.4754
  126MOL0     C17265   2.913   7.998   6.879 -0.4176  0.4377 -0.2495
  126MOL0     C17266   2.969   7.983   6.733 -0.2678 -0.3167  0.2021
  126MOL0     N17267   3.118   7.965   6.735  0.5551  1.1876  0.2081
  126MOL0     C17268   3.187   7.847   6.724 -0.7833 -0.6896 -0.2275
  126MOL0     C17269   3.318   7.870   6.718  0.0582 -0.7432 -0.0684
  126MOL0     C17270   3.428   7.775   6.686 -1.1269 -0.6741 -0.5159
  126MOL0     C17271   3.514   7.764   6.814 -0.2946 -0.5115  0.3207
  126MOL0     C17272   3.627   7.674   6.800  0.1198 -0.3924  0.0095
  126MOL0     C17273   3.758   7.742   6.845 -0.4686  0.5674  0.3956
  126MOL0     O17274   3.853   7.636   6.832 -0.1174 -0.0820 -0.1370
  126MOL0     C17275   3.983   7.665   6.806  0.8641  0.8289  0.3462
  126MOL0     C17276   4.059   7.555   6.775  0.9662 -0.4150 -0.3514
  126MOL0     C17277   4.194   7.575   6.754  0.1191  0.2558 -0.0827
  126MOL0     C17278   4.271   7.455   6.721  0.3901  0.0862 -0.4037
  126MOL0     C17279   4.250   7.707   6.770 -0.2833  0.2227 -0.0632
  126MOL0     C17280   4.385   7.729   6.723  0.5850  0.5045 -0.7745
  126MOL0     O17281   4.436   7.649   6.619 -0.0454  0.2311  0.2122
  126MOL0     C17282   4.560   7.673   6.565  0.2463 -0.4442  0.3839
  126MOL0     C17283   4.569   7.675   6.429 -0.1798  0.7600  0.1423
  126MOL0     C17284   4.690   7.707   6.367  0.0176 -0.3197 -0.5894
  126MOL0     C17285   4.808   7.733   6.447  0.2262 -0.0432 -0.9757
  126MOL0     O17286   4.925   7.768   6.384 -0.2237 -0.3590 -0.4179
  126MOL0     C17287   5.034   7.809   6.468 -1.0470  0.1717 -0.1378
  126MOL0     C17288   5.132   7.886   6.379  0.4036 -0.7965 -0.1025
  126MOL0     C17289   5.262   7.928   6.455  0.8539  0.4457  0.8606
  126MOL0     C17290   5.361   7.806   6.459  0.6181  0.4873 -0.4234
  126MOL0     C17291   5.499   7.835   6.509 -0.1301  0.5913  0.0340
  126MOL0     C17292   5.583   7.927   6.416  0.0336 -0.9640 -0.5443
  126MOL0     C17293   5.730   7.914   6.444 -0.3003  0.3054  0.2552
  126MOL0     C17294   5.813   7.920   6.319  0.3034  0.2452 -0.3083
  126MOL0    Cl17295   5.815   8.097   6.267 -0.0396  0.2436 -0.0234
  126MOL0     C17296   4.799   7.723   6.589 -0.6107  0.4544 -0.3081
  126MOL0     C17297   4.674   7.689   6.644 -0.1610  0.1809 -0.6942
  126MOL0     O17298   4.447   7.815   6.784 -0.4161 -0.7786  0.3074
  126MOL0     C17299   4.173   7.819   6.796  0.2846 -0.7229 -0.0829
  126MOL0     C17300   4.037   7.802   6.819  0.3575 -0.8468  0.5935
  126MOL0     N17301   3.336   8.005   6.727  0.3243 -0.0318 -0.2049
  126MOL0     N17302   3.216   8.058   6.739 -0.2711  0.2669 -0.1019
  126MOL0     C17303   2.032   8.224   6.679 -0.4798  0.5513  0.4257
  126MOL0     C17304   1.976   8.318   6.599  0.6235  0.1563 -0.3448
  126MOL0     C17305   1.874   8.586   6.300  0.3752  0.7215 -0.1780
  126MOL0     C17306   1.924   8.632   6.175  0.6357 -0.8736 -0.0213
  126MOL0     C17307   1.851   8.709   6.084  0.1987 -0.7916  0.0356
  126MOL0     C17308   1.721   8.743   6.118 -0.0432  0.5369 -0.2098
  126MOL0     O17309   1.630   8.828   6.060 -0.2790  0.1400  0.6510
  126MOL0     C17310   1.641   8.854   5.921  0.3119 -0.1258 -0.3899
  126MOL0     C17311   1.735   8.973   5.910 -0.5737 -0.9793  0.4949
  126MOL0     C17312   1.749   9.021   5.766 -0.1073 -0.8199  0.6691
  126MOL0     C17313   1.852   9.137   5.750  0.3731 -1.1395  0.1738
  126MOL0     C17314   1.986   9.087   5.751 -0.5113  0.3592  1.1095
  126MOL0     C17315   2.101   9.043   5.751  0.2277  0.2295 -0.6149
  126MOL0     C17316   1.675   8.704   6.243 -0.4226  0.5056  0.6808
  126MOL0     C17317   1.742   8.619   6.331  0.6106 -0.0169 -0.1492
  126MOL0     C17318   1.674   8.565   6.454  0.3005  0.7596 -0.5670
  126MOL0     H17319   2.155   8.590   6.667 -1.4333 -0.1243 -0.2335
  126MOL0     H17320   2.272   8.413   6.822  0.2371  0.2949  1.5911
  126MOL0     H17321   2.195   8.016   6.687 -1.0373  0.3812  0.0330
  126MOL0     H17322   2.098   7.992   6.836 -2.4867  2.9830 -1.0483
  126MOL0     H17323   2.286   7.962   6.968 -0.7108 -2.6114  0.8962
  126MOL0     H17324   2.285   7.829   6.854  2.2314 -0.4989  1.1369
  126MOL0     H17325   2.458   7.965   6.700 -1.7639  0.7044 -0.4389
  126MOL0     H17326   2.459   8.072   6.848  1.2706 -0.8015  0.6783
  126MOL0     H17327   2.565   7.886   6.972 -0.1573 -0.0231  0.3762
  126MOL0     H17328   2.522   7.779   6.843 -2.8259  0.7521 -0.3048
  126MOL0     H17329   2.690   7.910   6.701  0.4532 -1.4263 -0.3243
  126MOL0     H17330   2.769   7.825   6.834  3.0130  3.7690  2.4065
  126MOL0     H17331   2.730   8.116   6.848  0.8818  1.2384 -1.5493
  126MOL0     H17332   2.724   8.016   6.988 -2.5893 -0.7166 -1.4275
  126MOL0     H17333   2.936   7.910   6.941 -0.3044  1.1453  0.7379
  126MOL0     H17334   2.974   8.082   6.915 -1.1360  1.3667 -1.1561
  126MOL0     H17335   2.926   7.905   6.670 -1.0836  0.0960  0.2414
  126MOL0     H17336   2.953   8.082   6.690 -1.1176 -0.4976  0.0780
  126MOL0     H17337   3.132   7.753   6.717 -1.3337 -0.4417  0.6360
  126MOL0     H17338   3.482   7.805   6.596 -3.8520 -1.3221 -2.5064
  126MOL0     H17339   3.392   7.673   6.673 -1.5132 -0.7993  1.2908
  126MOL0     H17340   3.549   7.865   6.838 -2.1818  1.0889 -2.9133
  126MOL0     H17341   3.446   7.734   6.894 -1.4525 -1.2565 -0.8945
  126MOL0     H17342   3.619   7.582   6.859 -1.5176 -1.0156 -1.1299
  126MOL0     H17343   3.637   7.649   6.694  0.1924 -0.7836  0.1059
  126MOL0     H17344   3.784   7.829   6.783  1.6271  1.2652  2.0997
  126MOL0     H17345   3.748   7.777   6.949 -0.1516 -0.7678  0.8985
  126MOL0     H17346   4.011   7.457   6.775  1.6679 -0.8041  1.9623
  126MOL0     H17347   4.266   7.455   6.611 -1.0821  0.7863 -0.3599
  126MOL0     H17348   4.232   7.360   6.759  3.3482 -1.1339 -0.1942
  126MOL0     H17349   4.373   7.464   6.759  0.4970  0.5818 -0.7932
  126MOL0     H17350   4.486   7.631   6.375  0.0105 -0.4957  0.8259
  126MOL0     H17351   4.689   7.706   6.259 -1.0563 -0.5068 -0.5900
  126MOL0     H17352   5.003   7.875   6.549 -0.9826 -2.2398  1.9806
  126MOL0     H17353   5.077   7.720   6.514  1.8512  1.8944  0.7463
  126MOL0     H17354   5.169   7.820   6.300 -0.8809 -0.5805 -0.9167
  126MOL0     H17355   5.068   7.966   6.340 -1.4604 -1.5966  1.1433
  126MOL0     H17356   5.231   7.959   6.555  0.2868  0.2185  0.7608
  126MOL0     H17357   5.304   8.017   6.408  2.0900  0.3421  1.7039
  126MOL0     H17358   5.372   7.770   6.357  0.5998 -0.3431 -0.1401
  126MOL0     H17359   5.312   7.719   6.505 -1.0677 -0.4595 -3.7403
  126MOL0     H17360   5.501   7.879   6.610 -0.6729  3.1976 -1.0097
  126MOL0     H17361   5.553   7.740   6.515  0.6367  0.8910 -1.5838
  126MOL0     H17362   5.550   8.031   6.417  1.0724 -0.6203  1.1705
  126MOL0     H17363   5.570   7.892   6.313  1.2883 -0.1263 -1.0046
  126MOL0     H17364   5.746   7.820   6.497 -1.1218 -0.6682 -1.1434
  126MOL0     H17365   5.764   7.991   6.515 -0.3125 -0.1365  0.7416
  126MOL0     H17366   5.761   7.861   6.243  0.4287  1.1143 -1.0921
  126MOL0     H17367   5.915   7.889   6.343  0.3210  0.1838 -0.4577
  126MOL0     H17368   4.878   7.737   6.661 -1.7073  1.1836  0.7707
  126MOL0     H17369   4.659   7.699   6.751  0.4112  2.3579 -0.7629
  126MOL0     H17370   4.211   7.919   6.779 -1.7428  0.4375  1.6903
  126MOL0     H17371   3.973   7.888   6.829 -1.1313 -2.0897  2.5091
  126MOL0     H17372   1.995   8.122   6.681  2.1535 -0.5979 -2.1155
  126MOL0     H17373   1.891   8.291   6.537  0.2112 -2.0407  1.0411
  126MOL0     H17374   2.028   8.617   6.148  0.9518  2.0708 -0.7143
  126MOL0     H17375   1.896   8.747   5.993  1.9102 -2.5456  0.1033
  126MOL0     H17376   1.683   8.774   5.860  1.5660 -1.5168  2.1472
  126MOL0     H17377   1.540   8.865   5.880  0.1207  0.0653  0.1271
  126MOL0     H17378   1.834   8.940   5.943 -0.6615 -0.1655  1.6344
  126MOL0     H17379   1.711   9.062   5.969  1.8000  0.5683 -0.7121
  126MOL0     H17380   1.782   8.936   5.707  1.2782 -0.4574  0.8628
  126MOL0     H17381   1.652   9.053   5.728 -0.6033  0.2378  2.6718
  126MOL0     H17382   1.834   9.211   5.828 -1.8335  0.7190 -1.9234
  126MOL0     H17383   1.831   9.188   5.655 -2.1839  3.5644  2.8727
  126MOL0     H17384   2.202   9.032   5.784 -0.0859  1.3776  0.8192
  126MOL0     H17385   1.580   8.732   6.289 -0.6196 -3.2791  3.0292
  126MOL0     H17386   1.687   8.632   6.539  2.3205 -0.5378  0.2175
  126MOL0     H17387   1.566   8.564   6.437  0.4077 -0.0340 -1.2872
  126MOL0     H17388   1.704   8.463   6.482  0.0995  0.6303 -0.8169
  127MOL0     O17389   9.536   6.865   0.905 -0.4397  0.0765  0.3338
  127MOL0     C17390   9.445   6.944   0.905  0.5747 -0.5376  1.0670
  127MOL0     O17391   9.440   7.060   0.974  0.3552 -0.4143 -0.0024
  127MOL0     C17392   9.545   7.113   1.042  0.9538 -0.9062  1.0191
  127MOL0     C17393   9.510   7.200   1.149  0.4670 -0.1362 -0.2592
  127MOL0     C17394   9.615   7.248   1.227  1.1925  0.8814  0.1448
  127MOL0     C17395   9.751   7.226   1.199 -0.2220 -0.4634  0.0058
  127MOL0     O17396   9.852   7.263   1.287 -0.9732  1.3119 -0.0056
  127MOL0     C17397   9.847   7.385   1.363 -0.6684  0.3791 -0.1139
  127MOL0     C17398   9.967   7.393   1.461 -0.5482  0.0959  0.4104
  127MOL0     C17399  10.103   7.384   1.385  0.1503 -0.5904 -0.6524
  127MOL0     C17400  10.209   7.389   1.500 -0.2411  0.0890  0.5599
  127MOL0     C17401  10.355   7.408   1.452  0.1089  0.6674 -0.4050
  127MOL0     C17402  10.454   7.389   1.566 -0.2989  0.1927  0.4864
  127MOL0     C17403  10.591   7.357   1.503  0.3696 -0.9591 -1.6404
  127MOL0     C17404  10.689   7.359   1.619  1.1179  0.0470  0.3234
  127MOL0     N17405  10.818   7.374   1.561  0.4262  0.3548 -0.7025
  127MOL0     C17406  10.893   7.267   1.514  0.3407 -0.3718 -0.6887
  127MOL0     C17407  11.021   7.308   1.519  0.8470  0.1052 -0.2398
  127MOL0     C17408  11.138   7.214   1.497 -0.5420 -0.6433  0.7158
  127MOL0     C17409  11.276   7.285   1.507  0.7311  0.9820 -0.0215
  127MOL0     C17410  11.380   7.184   1.511  0.7360  0.2799  0.0090
  127MOL0     C17411  11.517   7.236   1.471  0.7931 -0.4375 -0.0861
  127MOL0     O17412  11.549   7.339   1.564 -0.9788  0.3059  0.1201
  127MOL0     C17413  11.663   7.405   1.540 -0.1190 -0.1906 -0.1235
  127MOL0     C17414  11.753   7.381   1.434  0.2357 -0.4009  0.0866
  127MOL0     C17415  11.865   7.468   1.419 -0.5900  0.5370 -0.0462
  127MOL0     C17416  11.935   7.458   1.281 -0.8407  0.0753  0.5934
  127MOL0     C17417  11.895   7.566   1.518 -0.5090  0.2178 -0.7321
  127MOL0     C17418  12.009   7.659   1.516 -0.0765 -0.0899  0.8035
  127MOL0     O17419  12.117   7.625   1.444 -1.0470 -0.2834  0.3603
  127MOL0     C17420  12.219   7.718   1.427 -0.0258 -0.5414 -0.3181
  127MOL0     C17421  12.232   7.787   1.308  0.3119  0.8825 -0.5710
  127MOL0     C17422  12.342   7.879   1.302 -0.9937 -0.0238  0.4962
  127MOL0     C17423  12.434   7.892   1.408  0.3923 -0.7438  0.2206
  127MOL0     O17424  12.522   7.996   1.399  0.0356  0.0889 -0.0627
  127MOL0     C17425  12.459   8.112   1.450  0.1084  0.4348 -0.6285
  127MOL0     C17426  12.554   8.227   1.467 -0.2536 -0.3081 -0.2687
  127MOL0     C17427  12.662   8.210   1.574 -0.2174 -0.0090 -1.3553
  127MOL0     C17428  12.611   8.196   1.715  0.2601  0.0589  1.1660
  127MOL0     C17429  12.707   8.139   1.819  0.1567  0.2484 -0.6087
  127MOL0     C17430  12.659   8.178   1.964  0.1654 -0.2523  0.6028
  127MOL0     C17431  12.762   8.154   2.070 -0.1466 -0.4371 -0.0728
  127MOL0     C17432  12.709   8.150   2.219  0.9179  0.2379  0.3455
  127MOL0    Cl17433  12.839   8.173   2.326  0.2373 -0.1214 -0.0124
  127MOL0     C17434  12.422   7.810   1.524  0.2254  0.0863 -0.7252
  127MOL0     C17435  12.311   7.730   1.535  0.2574  0.3007 -0.1874
  127MOL0     O17436  12.000   7.764   1.584  0.2138  0.1200  0.4402
  127MOL0     C17437  11.799   7.577   1.620  0.6191 -0.0645 -0.3070
  127MOL0     C17438  11.682   7.503   1.632  0.1100 -0.0212 -0.2978
  127MOL0     N17439  11.024   7.438   1.572  0.0244 -0.1616  0.0321
  127MOL0     N17440  10.897   7.477   1.579 -0.1097 -0.3566  0.2207
  127MOL0     C17441   9.784   7.159   1.077  0.4282  0.4718 -0.1115
  127MOL0     C17442   9.678   7.113   0.998 -0.7219  1.1326  0.4093
  127MOL0     C17443   9.329   6.892   0.831  1.0020 -0.1347 -0.2109
  127MOL0     C17444   9.327   6.749   0.801  0.2238 -0.1365 -0.2713
  127MOL0     C17445   9.219   6.700   0.730 -0.2221 -0.4635 -0.1591
  127MOL0     C17446   9.116   6.783   0.687  0.0006  0.8973 -0.5579
  127MOL0     O17447   9.003   6.747   0.610 -0.3772  0.3065  0.0389
  127MOL0     C17448   8.989   6.603   0.584  0.1279 -0.4262 -0.5356
  127MOL0     C17449   8.869   6.581   0.487  0.2711  0.7216 -0.7252
  127MOL0     C17450   8.743   6.608   0.563  0.4334 -0.2765  0.3689
  127MOL0     C17451   8.616   6.592   0.483 -0.5392 -0.3753  0.5034
  127MOL0     C17452   8.502   6.633   0.563  0.0792  0.5323 -0.2555
  127MOL0     C17453   8.416   6.684   0.634  0.5431  0.3297 -0.1554
  127MOL0     C17454   9.113   6.910   0.731  0.1175 -0.8355 -0.1217
  127MOL0     C17455   9.213   6.969   0.800  0.2667 -0.5170  0.0349
  127MOL0     C17456   9.190   7.113   0.836  0.7632  0.1533  0.4445
  127MOL0     H17457   9.404   7.210   1.172  0.8015  0.1959  1.2376
  127MOL0     H17458   9.582   7.308   1.311  0.3888  1.4518 -0.5685
  127MOL0     H17459   9.757   7.395   1.424  0.5186 -0.3598  1.8279
  127MOL0     H17460   9.848   7.471   1.295  1.3357 -1.4132 -2.5558
  127MOL0     H17461   9.958   7.491   1.508 -0.2963  0.8681 -1.0880
  127MOL0     H17462   9.959   7.312   1.534  0.6179  0.3842  0.8835
  127MOL0     H17463  10.106   7.290   1.330  2.1872 -0.1832 -1.3050
  127MOL0     H17464  10.103   7.465   1.312  0.9690  1.0695  1.0919
  127MOL0     H17465  10.182   7.475   1.562 -0.0814  0.1408  0.5586
  127MOL0     H17466  10.201   7.303   1.568 -0.1283  1.1991  2.0387
  127MOL0     H17467  10.370   7.499   1.394  1.0874 -0.4519 -1.9718
  127MOL0     H17468  10.373   7.332   1.375  0.1025  0.9509 -0.6836
  127MOL0     H17469  10.456   7.480   1.627 -0.0630 -0.1189  0.9486
  127MOL0     H17470  10.432   7.303   1.629  0.0223  1.7212  2.8390
  127MOL0     H17471  10.614   7.442   1.439 -1.1909  1.0154  0.2443
  127MOL0     H17472  10.594   7.258   1.457 -1.1895 -2.0995  0.5215
  127MOL0     H17473  10.672   7.446   1.683  0.9078 -0.7139  1.3341
  127MOL0     H17474  10.693   7.263   1.671  1.2000 -0.8443 -1.2922
  127MOL0     H17475  10.865   7.170   1.477 -0.0994  0.1791 -1.8366
  127MOL0     H17476  11.131   7.154   1.406 -0.9688  0.8155 -0.2373
  127MOL0     H17477  11.134   7.141   1.579 -1.2528 -3.0760 -1.3685
  127MOL0     H17478  11.292   7.348   1.418  1.6921 -0.9912 -1.3187
  127MOL0     H17479  11.286   7.340   1.601  2.4432 -0.7301  0.8504
  127MOL0     H17480  11.382   7.139   1.611 -0.7702 -2.9566 -1.2996
  127MOL0     H17481  11.356   7.106   1.439 -0.7852  0.0161  0.7670
  127MOL0     H17482  11.593   7.156   1.474  0.3560 -0.8742 -0.5528
  127MOL0     H17483  11.501   7.286   1.376 -0.5937 -0.2999  0.1989
  127MOL0     H17484  11.729   7.314   1.353  0.1575 -1.1748  0.7431
  127MOL0     H17485  11.931   7.550   1.222  0.5942 -0.3139 -0.1587
  127MOL0     H17486  11.891   7.371   1.232 -0.1340 -2.3248  3.8193
  127MOL0     H17487  12.037   7.425   1.303 -0.4822  0.3876 -0.5423
  127MOL0     H17488  12.174   7.775   1.217  1.6533 -0.9647 -1.2259
  127MOL0     H17489  12.354   7.943   1.215  0.9792 -1.8016 -0.6082
  127MOL0     H17490  12.389   8.143   1.372 -1.5101 -0.5959  0.3576
  127MOL0     H17491  12.410   8.092   1.546 -2.4514  1.3280 -1.6553
  127MOL0     H17492  12.608   8.251   1.375  2.6665 -0.5501  1.2801
  127MOL0     H17493  12.501   8.319   1.497 -0.0776  0.0195 -0.9394
  127MOL0     H17494  12.741   8.285   1.566 -0.9158  0.7011 -1.6915
  127MOL0     H17495  12.713   8.116   1.551  0.5850  0.1198 -0.1672
  127MOL0     H17496  12.522   8.134   1.722  0.5755 -0.3277  1.9032
  127MOL0     H17497  12.599   8.299   1.751 -1.7612  0.3379 -0.1406
  127MOL0     H17498  12.704   8.030   1.810  0.4165 -0.0274  1.8912
  127MOL0     H17499  12.808   8.173   1.798 -0.3189  0.6548 -2.3524
  127MOL0     H17500  12.573   8.115   1.987 -0.6300  0.6903  0.2943
  127MOL0     H17501  12.627   8.283   1.962  2.5899  0.6371 -3.8337
  127MOL0     H17502  12.846   8.221   2.051  0.5381 -1.2504  0.0134
  127MOL0     H17503  12.806   8.056   2.047  0.3706  0.0247 -1.0821
  127MOL0     H17504  12.680   8.047   2.240 -0.6545  0.4790 -0.4850
  127MOL0     H17505  12.625   8.216   2.243  1.2171  0.3948  0.9658
  127MOL0     H17506  12.493   7.814   1.605 -3.7605  2.3726  3.1146
  127MOL0     H17507  12.296   7.671   1.625 -2.2339  3.1205  1.3835
  127MOL0     H17508  11.824   7.651   1.696 -0.6834 -0.2109  0.2921
  127MOL0     H17509  11.618   7.523   1.718 -0.4156  1.7714 -1.0581
  127MOL0     H17510   9.887   7.128   1.060 -0.0545 -0.9255 -0.6281
  127MOL0     H17511   9.703   7.065   0.904  0.0682  0.5511  0.9010
  127MOL0     H17512   9.395   6.677   0.845 -0.9570 -1.0880  0.0218
  127MOL0     H17513   9.212   6.595   0.703 -0.5709 -1.4949  3.4164
  127MOL0     H17514   9.083   6.564   0.543  1.9674 -0.7837  3.5080
  127MOL0     H17515   8.971   6.537   0.670 -0.5740 -2.0309 -1.8753
  127MOL0     H17516   8.869   6.480   0.447  0.3297 -0.0249  1.0725
  127MOL0     H17517   8.875   6.649   0.401  0.5282  0.7228 -0.7095
  127MOL0     H17518   8.743   6.527   0.637 -2.1062 -1.5484 -0.9174
  127MOL0     H17519   8.754   6.700   0.620  0.3933  1.9657 -2.9839
  127MOL0     H17520   8.598   6.489   0.452 -0.6926 -0.2735  0.2482
  127MOL0     H17521   8.625   6.656   0.394 -2.1683  1.1001  1.3267
  127MOL0     H17522   8.340   6.742   0.682 -0.3860 -1.2449  0.3417
  127MOL0     H17523   9.016   6.957   0.712  0.4014 -1.2510 -3.0251
  127MOL0     H17524   9.269   7.183   0.808  0.9442 -0.1894  0.0989
  127MOL0     H17525   9.095   7.143   0.790  0.2309 -2.1036 -0.0315
  127MOL0     H17526   9.177   7.114   0.945  1.6017  0.2019  0.5515
  128MOL0     O17527   7.339   0.632   0.361 -0.6415 -0.8106 -0.1414
  128MOL0     C17528   7.325   0.532   0.288  0.1808  0.1459  0.1866
  128MOL0     O17529   7.415   0.437   0.277  0.5015  0.7637 -0.5475
  128MOL0     C17530   7.534   0.453   0.338  0.3530 -0.0594  0.1296
  128MOL0     C17531   7.641   0.515   0.267 -0.3802  0.0641 -0.9018
  128MOL0     C17532   7.769   0.518   0.325 -0.7224 -0.1866 -0.2532
  128MOL0     C17533   7.797   0.464   0.449 -0.5210  0.7366 -0.8878
  128MOL0     O17534   7.935   0.447   0.478  0.8063 -0.2802 -0.2304
  128MOL0     C17535   7.967   0.351   0.574  0.6936  0.5249  0.8738
  128MOL0     C17536   8.101   0.270   0.548 -0.2331 -0.9028 -0.0345
  128MOL0     C17537   8.205   0.359   0.479  0.0140 -0.6408  0.0417
  128MOL0     C17538   8.322   0.272   0.440  1.0234 -0.1048 -0.3807
  128MOL0     C17539   8.430   0.347   0.367 -0.3802  0.7650  0.4773
  128MOL0     C17540   8.560   0.265   0.341  0.5948 -0.6736  0.5039
  128MOL0     C17541   8.664   0.333   0.250 -0.4706 -0.1218 -0.0148
  128MOL0     C17542   8.807   0.280   0.302  0.4615  0.6474  0.5651
  128MOL0     N17543   8.911   0.313   0.199 -0.0484 -0.1734  0.3902
  128MOL0     C17544   9.045   0.318   0.217  0.0847  0.1383  0.1849
  128MOL0     C17545   9.107   0.332   0.099 -0.5483  0.2292  0.6521
  128MOL0     C17546   9.252   0.348   0.077 -0.1570 -0.5876 -0.2730
  128MOL0     C17547   9.284   0.302  -0.070 -0.5062 -0.1039  0.0456
  128MOL0     C17548   9.412   0.363  -0.130  0.6657  0.0401 -0.5144
  128MOL0     C17549   9.514   0.422  -0.033 -0.4293 -0.6488 -0.1235
  128MOL0     O17550   9.587   0.318   0.020 -0.2098 -0.5483  0.2752
  128MOL0     C17551   9.703   0.333   0.087 -0.6377  0.6351  0.2365
  128MOL0     C17552   9.759   0.457   0.110  0.8808  0.6659 -0.2842
  128MOL0     C17553   9.889   0.475   0.156 -0.0390 -0.1387  0.1287
  128MOL0     C17554   9.937   0.615   0.185  0.4672 -0.0796  0.2449
  128MOL0     C17555   9.964   0.360   0.196  0.5850  0.5226 -0.3083
  128MOL0     C17556  10.099   0.361   0.240  0.1401  0.1153 -0.3608
  128MOL0     O17557  10.158   0.240   0.244  0.3396 -0.2435 -0.4934
  128MOL0     C17558  10.293   0.231   0.261  0.2713  0.0010 -0.1602
  128MOL0     C17559  10.324   0.109   0.319 -0.5511  0.0927  0.2719
  128MOL0     C17560  10.453   0.083   0.360 -0.3028 -0.4502 -0.1934
  128MOL0     C17561  10.558   0.167   0.336 -0.6758 -0.0054 -0.1769
  128MOL0     O17562  10.681   0.145   0.383 -0.3505  0.0199 -0.4045
  128MOL0     C17563  10.700   0.063   0.493  1.2809  0.1887  0.5664
  128MOL0     C17564  10.842   0.073   0.551 -0.1407 -0.6851 -0.1493
  128MOL0     C17565  10.855  -0.009   0.673  0.4934 -0.4957  0.2593
  128MOL0     C17566  10.996  -0.021   0.718 -0.0748 -0.5780 -0.6521
  128MOL0     C17567  10.991  -0.096   0.857 -1.0226 -0.4763 -0.1028
  128MOL0     C17568  11.133  -0.137   0.907  0.8713  1.0841  0.3701
  128MOL0     C17569  11.125  -0.262   0.991 -0.0579  0.4799 -0.4385
  128MOL0     C17570  11.262  -0.283   1.063  0.0831  0.2969  0.1809
  128MOL0    Cl17571  11.292  -0.158   1.189  0.4184  0.4100  0.3053
  128MOL0     C17572  10.526   0.295   0.278 -0.1289  0.4615 -0.6458
  128MOL0     C17573  10.392   0.323   0.239  0.6635 -0.0843 -0.0580
  128MOL0     O17574  10.139   0.458   0.307  0.2502  0.5927  0.1027
  128MOL0     C17575   9.901   0.237   0.176 -0.7822  0.1812  0.8459
  128MOL0     C17576   9.776   0.219   0.113 -0.6118  0.0836 -0.6183
  128MOL0     N17577   9.006   0.329   0.002  0.2803  0.3471  0.4239
  128MOL0     N17578   8.892   0.314   0.062 -0.2810 -1.0154 -0.8674
  128MOL0     C17579   7.689   0.423   0.524  0.1629 -0.0114  0.5329
  128MOL0     C17580   7.557   0.410   0.466 -0.3599  0.2113  0.9672
  128MOL0     C17581   7.203   0.526   0.203 -0.2671  0.3293 -0.2099
  128MOL0     C17582   7.141   0.651   0.167  0.9010  0.3195  0.3848
  128MOL0     C17583   7.028   0.650   0.084 -0.2076  1.1095 -0.2172
  128MOL0     C17584   6.966   0.529   0.040 -0.5587 -0.3211 -1.0347
  128MOL0     O17585   6.847   0.540  -0.025  0.1297  0.5497 -0.3713
  128MOL0     C17586   6.774   0.417  -0.048  0.3032  1.0378  0.1253
  128MOL0     C17587   6.642   0.447  -0.113  0.6305 -0.0136  0.5344
  128MOL0     C17588   6.547   0.517  -0.008  0.5900  0.0416 -0.1114
  128MOL0     C17589   6.406   0.537  -0.070 -0.4279 -0.4838 -0.2748
  128MOL0     C17590   6.312   0.560   0.035 -0.5030  1.0606  0.1451
  128MOL0     C17591   6.245   0.575   0.133 -0.9065 -0.5595  0.0130
  128MOL0     C17592   7.035   0.414   0.067 -0.4437 -0.1179 -0.5898
  128MOL0     C17593   7.155   0.406   0.143  0.2509 -0.4573 -0.1236
  128MOL0     C17594   7.209   0.265   0.150 -0.9158 -0.6775 -0.7535
  128MOL0     H17595   7.620   0.558   0.169 -0.6256  1.2177 -0.3559
  128MOL0     H17596   7.855   0.551   0.267 -0.2320 -2.2065 -0.7774
  128MOL0     H17597   7.889   0.278   0.594  1.1413 -0.3918 -0.5466
  128MOL0     H17598   7.966   0.409   0.667 -3.4296  1.5392  0.3777
  128MOL0     H17599   8.148   0.246   0.643  0.6133  0.5385 -0.0678
  128MOL0     H17600   8.082   0.174   0.498  1.3910 -0.9532 -0.6065
  128MOL0     H17601   8.174   0.411   0.388  1.0698 -2.8132 -1.6480
  128MOL0     H17602   8.234   0.437   0.549 -0.2018 -1.0571  0.6008
  128MOL0     H17603   8.365   0.228   0.531  0.1733  1.3537  0.7684
  128MOL0     H17604   8.282   0.195   0.374 -0.1591 -3.0423  3.3806
  128MOL0     H17605   8.449   0.442   0.417 -1.7874  1.4093 -0.1707
  128MOL0     H17606   8.380   0.358   0.271  0.1921 -2.3748 -0.2829
  128MOL0     H17607   8.607   0.245   0.437  1.3401  2.5248  0.9197
  128MOL0     H17608   8.534   0.167   0.298  0.2948 -0.1754 -0.4938
  128MOL0     H17609   8.664   0.442   0.259 -2.4520 -0.0752 -0.0659
  128MOL0     H17610   8.627   0.310   0.150 -0.4756 -1.2695  0.2427
  128MOL0     H17611   8.825   0.327   0.399 -1.9052  1.5835  0.6286
  128MOL0     H17612   8.807   0.171   0.311 -0.6615  0.4002 -1.6749
  128MOL0     H17613   9.095   0.326   0.313  1.5366 -0.6917 -0.4579
  128MOL0     H17614   9.314   0.281   0.137  0.7533  0.7249  0.3051
  128MOL0     H17615   9.275   0.453   0.096 -1.5013 -0.5263  1.2206
  128MOL0     H17616   9.298   0.193  -0.077 -1.2074 -0.1425 -0.8892
  128MOL0     H17617   9.201   0.336  -0.132 -0.4933 -0.3506 -0.1091
  128MOL0     H17618   9.458   0.296  -0.203 -0.9839 -0.8036 -0.8051
  128MOL0     H17619   9.384   0.452  -0.188  2.1598  1.4851  0.8385
  128MOL0     H17620   9.582   0.488  -0.089  0.8327 -1.7814  0.0246
  128MOL0     H17621   9.467   0.481   0.046  1.7015  1.9321 -0.6084
  128MOL0     H17622   9.711   0.550   0.082 -0.6256  0.2728  0.9229
  128MOL0     H17623   9.967   0.633   0.288 -0.4593  1.2112  0.3117
  128MOL0     H17624   9.859   0.687   0.159 -1.8412 -2.2368  0.7432
  128MOL0     H17625  10.032   0.637   0.135 -1.0004  2.7163 -1.5436
  128MOL0     H17626  10.252   0.035   0.351  0.1157 -1.2446 -1.2107
  128MOL0     H17627  10.464  -0.008   0.417 -0.8128  0.0955  0.8192
  128MOL0     H17628  10.638   0.088   0.580  2.0064 -1.7408  1.7163
  128MOL0     H17629  10.678  -0.042   0.470  1.1712 -0.4760  3.2594
  128MOL0     H17630  10.906   0.026   0.476  1.2797 -1.6948  1.6033
  128MOL0     H17631  10.871   0.178   0.554 -4.0054  0.5374 -0.8165
  128MOL0     H17632  10.819  -0.111   0.661  3.2004 -1.6627  1.1752
  128MOL0     H17633  10.804   0.051   0.749  2.5893  1.5456  0.1792
  128MOL0     H17634  11.045   0.077   0.727 -0.5334 -0.2107 -1.9148
  128MOL0     H17635  11.054  -0.081   0.647  1.6544  0.3191 -0.0640
  128MOL0     H17636  10.944  -0.034   0.934  2.0862  0.1273  1.4293
  128MOL0     H17637  10.926  -0.183   0.842 -0.8422 -0.4213 -1.2788
  128MOL0     H17638  11.177  -0.051   0.959  0.7773  1.1311  0.3725
  128MOL0     H17639  11.187  -0.149   0.813  0.3141  2.3146 -0.1256
  128MOL0     H17640  11.092  -0.351   0.938 -3.0508  0.0453  1.8893
  128MOL0     H17641  11.049  -0.257   1.070 -0.0797  1.3597 -0.4984
  128MOL0     H17642  11.352  -0.281   1.002 -1.0232  1.4753 -1.4659
  128MOL0     H17643  11.262  -0.370   1.131 -0.5695 -0.1851 -0.4182
  128MOL0     H17644  10.599   0.375   0.265 -0.6683  0.9721 -0.5776
  128MOL0     H17645  10.360   0.413   0.187 -4.5723 -1.2000  0.6608
  128MOL0     H17646   9.962   0.149   0.195  2.6789  2.3913  0.7166
  128MOL0     H17647   9.741   0.116   0.105  0.9583 -0.7962  2.4909
  128MOL0     H17648   7.699   0.382   0.624  0.1509 -1.5103 -0.0578
  128MOL0     H17649   7.469   0.370   0.516 -0.2023  0.6149  1.5768
  128MOL0     H17650   7.184   0.747   0.193 -0.0300  0.2606  2.3136
  128MOL0     H17651   6.970   0.732   0.044  1.6139  1.5826 -2.0266
  128MOL0     H17652   6.833   0.356  -0.117  1.4856  2.2685  0.0182
  128MOL0     H17653   6.760   0.366   0.048 -0.7671 -0.2258 -0.6664
  128MOL0     H17654   6.590   0.356  -0.147  1.9971 -0.8569  0.6161
  128MOL0     H17655   6.653   0.514  -0.199 -1.8375 -1.1835 -0.7943
  128MOL0     H17656   6.527   0.437   0.065  0.6649 -0.8535 -1.0445
  128MOL0     H17657   6.586   0.607   0.039 -0.4044  1.5160 -1.9653
  128MOL0     H17658   6.377   0.456  -0.138  1.2508 -0.6907 -0.7807
  128MOL0     H17659   6.411   0.617  -0.144  2.7344 -1.2529 -1.0118
  128MOL0     H17660   6.182   0.599   0.216 -0.0835  0.4420  0.3582
  128MOL0     H17661   7.004   0.319   0.027  2.2360 -1.7875  0.9542
  128MOL0     H17662   7.129   0.191   0.138 -2.3065  0.8486 -1.1926
  128MOL0     H17663   7.274   0.252   0.063  0.2418 -2.5238  0.3181
  128MOL0     H17664   7.252   0.228   0.244 -2.0761 -0.2679 -0.0417
  129MOL0     O17665   0.967  10.980   0.143 -0.2707 -0.2323  0.2592
  129MOL0     C17666   0.944  10.857   0.134  0.3819 -0.7271 -0.1848
  129MOL0     O17667   1.031  10.763   0.091  1.0899 -0.9458 -0.0602
  129MOL0     C17668   1.151  10.803   0.040  0.0263  0.9267 -0.1739
  129MOL0     C17669   1.266  10.774   0.113  0.0499  0.5322  0.3687
  129MOL0     C17670   1.390  10.780   0.049 -0.4767 -0.0670 -0.7706
  129MOL0     C17671   1.410  10.828  -0.082  0.4422  0.0985  1.1429
  129MOL0     O17672   1.531  10.831  -0.148  0.6309  0.6331 -0.6100
  129MOL0     C17673   1.516  10.863  -0.289 -0.3197 -0.2526 -0.8248
  129MOL0     C17674   1.656  10.860  -0.346 -0.7912  0.4555 -0.7894
  129MOL0     C17675   1.757  10.964  -0.284 -0.0085 -0.3830 -0.2810
  129MOL0     C17676   1.905  10.935  -0.314 -0.0396  0.2271  0.2203
  129MOL0     C17677   1.990  11.041  -0.243  0.0535 -0.6097  0.4787
  129MOL0     C17678   2.134  11.021  -0.287  0.7053  0.9624  0.2731
  129MOL0     C17679   2.217  11.143  -0.267  0.2557 -0.1123  0.0815
  129MOL0     C17680   2.358  11.126  -0.298 -0.2055 -0.1576 -0.6655
  129MOL0     N17681   2.451  11.212  -0.215 -0.2824  0.7447 -1.0601
  129MOL0     C17682   2.454  11.208  -0.075  0.2726 -0.0353  0.6963
  129MOL0     C17683   2.556  11.294  -0.034  0.1453  0.5633  0.8236
  129MOL0     C17684   2.589  11.317   0.115  0.2105 -0.0279  0.5979
  129MOL0     C17685   2.730  11.279   0.151 -0.8492 -0.2072 -0.0981
  129MOL0     C17686   2.742  11.130   0.163 -0.2268  0.5457  0.0504
  129MOL0     C17687   2.881  11.087   0.215  1.5359 -0.2273 -0.2833
  129MOL0     O17688   2.905  11.116   0.355 -0.4634 -0.2579 -0.1502
  129MOL0     C17689   3.026  11.086   0.410  0.2694 -0.2061 -0.1053
  129MOL0     C17690   3.138  11.039   0.330  0.1290 -0.4796 -0.3953
  129MOL0     C17691   3.264  11.015   0.383 -0.2705  0.7930 -0.6286
  129MOL0     C17692   3.372  10.965   0.282 -0.2071 -1.3862 -1.0666
  129MOL0     C17693   3.279  11.026   0.522 -0.1414  0.2940 -0.3734
  129MOL0     C17694   3.410  10.999   0.604 -0.2037  0.1411 -0.4768
  129MOL0     O17695   3.526  11.010   0.532 -0.1390 -0.2640  0.0743
  129MOL0     C17696   3.642  10.990   0.605 -0.2133 -0.0236 -0.0929
  129MOL0     C17697   3.717  11.092   0.667 -0.0560 -0.7940  0.1392
  129MOL0     C17698   3.832  11.060   0.746  0.4125 -0.4824 -0.5305
  129MOL0     C17699   3.881  10.928   0.758 -0.7098 -0.9074 -0.1836
  129MOL0     O17700   4.006  10.900   0.816  0.7508 -0.3503  0.2229
  129MOL0     C17701   4.050  10.968   0.936  0.1255 -0.5432 -0.2930
  129MOL0     C17702   4.161  10.888   1.002  0.3042  0.6644  0.6396
  129MOL0     C17703   4.182  10.948   1.135 -0.2214 -0.3991  0.6126
  129MOL0     C17704   4.288  10.870   1.195 -0.0397  0.7875 -0.2196
  129MOL0     C17705   4.322  10.912   1.333  0.5236  0.1942 -0.5658
  129MOL0     C17706   4.441  10.851   1.403 -0.0936 -0.1924 -0.2840
  129MOL0     C17707   4.449  10.882   1.555 -0.0485  0.1943 -0.2269
  129MOL0     C17708   4.575  10.818   1.622  0.9062 -0.6362  0.0645
  129MOL0    Cl17709   4.561  10.642   1.582 -0.0544 -0.2849 -0.2162
  129MOL0     C17710   3.812  10.828   0.688  0.7141 -0.3128  0.3478
  129MOL0     C17711   3.692  10.860   0.623  0.3438 -1.1496 -0.1721
  129MOL0     O17712   3.403  10.982   0.729  0.2207 -0.9707  0.3071
  129MOL0     C17713   3.171  11.091   0.599 -0.3710  0.3646  0.9283
  129MOL0     C17714   3.046  11.119   0.540  0.2864 -0.1589  0.4420
  129MOL0     N17715   2.608  11.344  -0.152 -0.1144 -0.1920 -0.0728
  129MOL0     N17716   2.546  11.297  -0.252 -0.2411  0.3252 -0.6387
  129MOL0     C17717   1.286  10.868  -0.143 -0.7940 -0.4141  0.9344
  129MOL0     C17718   1.165  10.852  -0.085  0.6980 -0.1828 -0.2879
  129MOL0     C17719   0.811  10.807   0.177  0.4575  0.3875  0.1454
  129MOL0     C17720   0.701  10.885   0.145  0.3811 -0.3089 -0.4627
  129MOL0     C17721   0.575  10.840   0.182 -0.0077  0.5780 -0.2129
  129MOL0     C17722   0.549  10.713   0.243 -0.2238  1.1860 -0.4424
  129MOL0     O17723   0.426  10.671   0.279  0.7527 -0.2261 -0.2396
  129MOL0     C17724   0.324  10.702   0.181 -0.2901  0.3234 -0.3884
  129MOL0     C17725   0.233  10.585   0.168  0.0656 -0.0416 -0.3174
  129MOL0     C17726   0.149  10.566   0.293 -0.1418 -0.1936  0.0518
  129MOL0     C17727   0.003  10.535   0.269  0.3209  0.8980  0.1695
  129MOL0     C17728  -0.067  10.648   0.203 -0.1506 -0.4921  1.0281
  129MOL0     C17729  -0.137  10.721   0.134  0.0007 -0.0839  0.0695
  129MOL0     C17730   0.664  10.638   0.275  0.5151  0.4776 -0.3882
  129MOL0     C17731   0.796  10.686   0.244  0.6532 -0.0716 -0.8845
  129MOL0     C17732   0.905  10.589   0.286  0.7105 -0.1547 -0.3260
  129MOL0     H17733   1.245  10.741   0.214  0.1001  3.2118  1.3412
  129MOL0     H17734   1.484  10.754   0.096 -1.9567  0.4098  2.7485
  129MOL0     H17735   1.480  10.966  -0.287 -0.9359 -0.4447  2.0342
  129MOL0     H17736   1.446  10.808  -0.353 -0.4537  0.1851 -1.0582
  129MOL0     H17737   1.699  10.764  -0.317  1.5088  1.8829  0.9197
  129MOL0     H17738   1.643  10.868  -0.454  1.5228  2.0153 -1.0288
  129MOL0     H17739   1.727  11.064  -0.317  1.1305  0.0237 -0.1215
  129MOL0     H17740   1.735  10.975  -0.177 -0.0802 -0.9955 -0.2307
  129MOL0     H17741   1.934  10.842  -0.265  1.3058  1.3694  1.6881
  129MOL0     H17742   1.912  10.943  -0.423 -1.0175  1.0509  0.1976
  129MOL0     H17743   1.986  11.020  -0.136  2.9188 -0.1867  0.7552
  129MOL0     H17744   1.952  11.140  -0.267  2.4396 -0.2306 -2.4655
  129MOL0     H17745   2.174  10.948  -0.215 -0.1276  0.7715  0.5572
  129MOL0     H17746   2.144  10.990  -0.391  3.5670  3.0056 -0.1660
  129MOL0     H17747   2.206  11.178  -0.163 -2.8490 -0.6747  0.0269
  129MOL0     H17748   2.168  11.220  -0.327 -0.8283 -0.6097  0.3141
  129MOL0     H17749   2.388  11.022  -0.283 -1.1345 -0.1445  1.5894
  129MOL0     H17750   2.365  11.154  -0.403 -2.6997  2.4704 -0.2473
  129MOL0     H17751   2.393  11.146  -0.010 -1.4874 -0.3669 -1.1659
  129MOL0     H17752   2.517  11.274   0.185  0.2236  0.1512  0.7213
  129MOL0     H17753   2.571  11.424   0.127 -2.3163 -0.1089 -1.5782
  129MOL0     H17754   2.802  11.312   0.075 -1.3767  1.6883  0.1748
  129MOL0     H17755   2.763  11.327   0.244  2.9179 -2.7639  0.1161
  129MOL0     H17756   2.672  11.091   0.236  1.1022  0.6864  1.4390
  129MOL0     H17757   2.720  11.086   0.065  1.0857  1.4204 -0.6696
  129MOL0     H17758   2.890  10.980   0.196 -1.7877 -0.7028  0.2388
  129MOL0     H17759   2.957  11.127   0.147  2.2848 -1.7789 -0.4104
  129MOL0     H17760   3.123  11.022   0.224 -2.1013 -2.2447  0.1149
  129MOL0     H17761   3.364  10.857   0.270 -1.0128 -1.4496 -0.1179
  129MOL0     H17762   3.470  11.000   0.317 -1.7168  1.1925  0.9875
  129MOL0     H17763   3.368  11.014   0.184 -1.0710  5.7424  1.9271
  129MOL0     H17764   3.690  11.197   0.654 -0.4352 -0.8044  0.8080
  129MOL0     H17765   3.891  11.140   0.790  1.0375 -0.3851 -1.5404
  129MOL0     H17766   4.075  11.074   0.921 -2.8488  0.3849  0.6209
  129MOL0     H17767   3.970  10.966   1.011  0.1144  1.3244 -0.2036
  129MOL0     H17768   4.127  10.784   1.002 -3.3447  1.6564 -2.1697
  129MOL0     H17769   4.253  10.900   0.944  2.1882  1.4144  3.5801
  129MOL0     H17770   4.091  10.940   1.195 -0.2186 -0.7531  0.5702
  129MOL0     H17771   4.209  11.053   1.124 -0.4778 -0.5806 -2.8465
  129MOL0     H17772   4.372  10.880   1.125 -0.1203  0.5239 -0.3530
  129MOL0     H17773   4.255  10.766   1.194  1.9801  0.0745 -2.3826
  129MOL0     H17774   4.332  11.021   1.327 -1.0553  0.3436 -1.0176
  129MOL0     H17775   4.237  10.890   1.397 -0.3810  2.0754 -1.0392
  129MOL0     H17776   4.539  10.877   1.362  1.2920 -4.1508  0.0749
  129MOL0     H17777   4.421  10.744   1.387 -2.7304  0.3099 -0.8316
  129MOL0     H17778   4.355  10.840   1.591  0.2842 -2.3325 -2.0242
  129MOL0     H17779   4.446  10.989   1.579 -0.7049  0.3843 -1.0691
  129MOL0     H17780   4.592  10.841   1.728  2.1143 -4.1240  0.7585
  129MOL0     H17781   4.669  10.854   1.580 -0.6540  0.6471 -2.5926
  129MOL0     H17782   3.858  10.730   0.686  2.1295  0.3211 -0.3530
  129MOL0     H17783   3.656  10.777   0.563  0.3017  0.1692 -2.0540
  129MOL0     H17784   3.180  11.106   0.706 -1.2008 -1.9587  1.3960
  129MOL0     H17785   2.966  11.166   0.597  0.6837  1.2709 -0.1208
  129MOL0     H17786   1.270  10.901  -0.245  0.7854 -2.7269 -0.1610
  129MOL0     H17787   1.083  10.885  -0.148  0.7973 -1.1011 -0.9179
  129MOL0     H17788   0.722  10.978   0.094  3.0097 -0.1107  0.8348
  129MOL0     H17789   0.498  10.913   0.158 -1.1455  0.1549  1.8876
  129MOL0     H17790   0.269  10.789   0.220 -1.8703 -0.7259 -0.1859
  129MOL0     H17791   0.360  10.718   0.079  0.9117 -2.8936 -0.5772
  129MOL0     H17792   0.292  10.495   0.153 -0.4352  0.0760 -3.5722
  129MOL0     H17793   0.182  10.610   0.075  3.8140 -1.1632 -2.9091
  129MOL0     H17794   0.189  10.474   0.337 -0.0886 -0.1717  0.0485
  129MOL0     H17795   0.172  10.653   0.355  2.6187 -0.4732 -0.4516
  129MOL0     H17796  -0.037  10.529   0.371  0.7291  1.7418  0.3906
  129MOL0     H17797  -0.018  10.445   0.211 -0.8970  0.0858  1.8216
  129MOL0     H17798  -0.187  10.790   0.069  0.0471 -1.1325 -1.1371
  129MOL0     H17799   0.641  10.548   0.331  1.9452  1.2844  1.6074
  129MOL0     H17800   0.876  10.541   0.380  1.0904 -0.0034 -0.1295
  129MOL0     H17801   0.916  10.518   0.205 -0.8397 -3.2647  1.9803
  129MOL0     H17802   1.001  10.634   0.312  1.8378 -2.0103 -1.1306
  130MOL0     O17803   9.072  10.240   8.780  0.3588 -0.1683  0.4993
  130MOL0     C17804   9.028  10.125   8.752 -0.2246 -0.3463  0.9170
  130MOL0     O17805   9.108  10.016   8.746 -0.2100  0.4275 -0.0838
  130MOL0     C17806   9.238  10.019   8.795 -0.1534  0.3013 -0.3007
  130MOL0     C17807   9.340   9.956   8.719 -0.2350  0.0991  0.4716
  130MOL0     C17808   9.471   9.959   8.767 -0.0832 -0.1664 -0.7028
  130MOL0     C17809   9.503  10.031   8.881 -0.0817 -0.7259 -0.3842
  130MOL0     O17810   9.633  10.052   8.909  0.0100 -0.0768 -0.6569
  130MOL0     C17811   9.674  10.167   8.982  0.0024  0.0909  0.0585
  130MOL0     C17812   9.806  10.213   8.933 -0.0042  0.0584 -0.5812
  130MOL0     C17813   9.914  10.114   8.975 -0.5918  0.0723 -0.0446
  130MOL0     C17814  10.049  10.182   8.953  0.2154 -0.1491 -0.1638
  130MOL0     C17815  10.173  10.112   9.011  0.8172 -0.3484  0.2084
  130MOL0     C17816  10.300  10.197   8.990 -0.0789 -0.0412 -0.0216
  130MOL0     C17817  10.418  10.109   9.040  0.1086 -0.1993 -0.5090
  130MOL0     C17818  10.545  10.188   9.021  0.6253  0.4005  0.4913
  130MOL0     N17819  10.651  10.111   9.073 -0.2404  0.1494  0.2022
  130MOL0     C17820  10.700  10.126   9.197  0.0096  0.4704  0.3471
  130MOL0     C17821  10.779  10.023   9.216 -0.2237 -0.4964  0.3379
  130MOL0     C17822  10.863   9.994   9.336  0.3105 -0.5498  0.2425
  130MOL0     C17823  11.005   9.947   9.298  0.2173 -0.1289  0.6508
  130MOL0     C17824  11.107   9.972   9.412  0.6560  0.2665  0.6929
  130MOL0     C17825  11.245   9.910   9.376 -0.5438 -0.0650 -0.2383
  130MOL0     O17826  11.292   9.974   9.257 -0.7489 -0.3029 -0.3045
  130MOL0     C17827  11.413   9.930   9.197  0.1466  0.6918  0.3263
  130MOL0     C17828  11.504   9.847   9.265  0.0438 -0.4051  0.3334
  130MOL0     C17829  11.630   9.814   9.216  0.4812 -0.4765 -0.5824
  130MOL0     C17830  11.715   9.721   9.299  0.1145 -0.5749 -0.0107
  130MOL0     C17831  11.673   9.886   9.095  0.5747 -0.2753 -0.4588
  130MOL0     C17832  11.804   9.880   9.034 -0.3266 -0.8184 -0.8565
  130MOL0     O17833  11.835   9.967   8.931 -0.2796  0.1464 -0.0979
  130MOL0     C17834  11.956   9.957   8.867 -0.3619 -0.5963 -0.0357
  130MOL0     C17835  12.037  10.067   8.862 -0.4037  0.3112  0.6449
  130MOL0     C17836  12.168  10.051   8.819 -0.1785  0.0535 -0.5259
  130MOL0     C17837  12.219   9.926   8.776  0.2710 -0.7473  0.6247
  130MOL0     O17838  12.352   9.893   8.733 -0.3693  0.1671 -0.0233
  130MOL0     C17839  12.448   9.992   8.765 -0.4217  0.6878  0.1101
  130MOL0     C17840  12.583   9.936   8.700 -0.6116 -0.3575 -0.1359
  130MOL0     C17841  12.682  10.048   8.679 -0.7389  0.5602 -0.6076
  130MOL0     C17842  12.775  10.011   8.566 -0.0816  1.7838 -0.7161
  130MOL0     C17843  12.891  10.100   8.548 -0.4711 -0.0057  0.6928
  130MOL0     C17844  12.972  10.056   8.421 -0.5593 -0.5357  0.5834
  130MOL0     C17845  13.021   9.905   8.423 -0.8001  0.0411 -0.3989
  130MOL0     C17846  13.152   9.881   8.342  0.7066 -0.3951  0.2617
  130MOL0    Cl17847  13.299   9.979   8.400  0.3570  0.0279  0.0742
  130MOL0     C17848  12.121   9.826   8.760  0.0051  0.1130 -0.2196
  130MOL0     C17849  11.989   9.844   8.801 -0.2295 -0.4757  1.1890
  130MOL0     O17850  11.888   9.802   9.087 -0.7214 -0.3583 -0.1838
  130MOL0     C17851  11.569   9.954   9.020  0.8992  0.5601 -0.4269
  130MOL0     C17852  11.435   9.960   9.065 -0.7267 -0.1698 -0.3786
  130MOL0     N17853  10.774   9.941   9.107  0.7501  0.8397 -0.9944
  130MOL0     N17854  10.705   9.995   9.017  0.5547 -0.3795 -0.3454
  130MOL0     C17855   9.399  10.090   8.959 -1.0300 -0.3169  0.2803
  130MOL0     C17856   9.269  10.073   8.918 -0.7092 -1.1926  0.2965
  130MOL0     C17857   8.883  10.105   8.726  0.5102 -0.5786  0.3246
  130MOL0     C17858   8.829   9.973   8.688 -0.5683  0.5894 -0.6009
  130MOL0     C17859   8.686   9.957   8.660  0.4236 -0.4359  0.0208
  130MOL0     C17860   8.598  10.066   8.671 -0.1053  0.4110 -0.0479
  130MOL0     O17861   8.468  10.036   8.651 -0.1290  0.6407  0.7670
  130MOL0     C17862   8.397  10.100   8.544  0.9093 -0.4657 -0.4903
  130MOL0     C17863   8.466  10.097   8.405  0.0434 -0.0404  0.0513
  130MOL0     C17864   8.381  10.178   8.309 -0.1025  0.2047  0.3226
  130MOL0     C17865   8.409  10.142   8.160 -0.2477  0.4653 -0.5996
  130MOL0     C17866   8.339  10.239   8.075 -0.5977 -0.1569 -0.1323
  130MOL0     C17867   8.286  10.329   8.017  0.4373 -0.1439 -0.1915
  130MOL0     C17868   8.646  10.193   8.707 -0.8834 -1.0139 -0.3782
  130MOL0     C17869   8.789  10.215   8.728  0.2902 -0.0655 -0.4763
  130MOL0     C17870   8.809  10.357   8.775  0.3563  0.0003  0.0359
  130MOL0     H17871   9.304   9.903   8.632 -2.2845 -1.7454  2.3103
  130MOL0     H17872   9.552   9.909   8.715  0.4229  0.0041 -0.0865
  130MOL0     H17873   9.695  10.140   9.085  3.0403 -2.9245 -1.1506
  130MOL0     H17874   9.596  10.242   8.967 -1.2513 -1.5792 -2.5933
  130MOL0     H17875   9.802  10.217   8.824 -2.8630  0.6194 -0.5370
  130MOL0     H17876   9.836  10.305   8.985  0.4567 -1.1672  1.4297
  130MOL0     H17877   9.900  10.075   9.076 -0.9301  0.1167 -0.0743
  130MOL0     H17878   9.911  10.020   8.920 -0.8667 -0.2249  0.4713
  130MOL0     H17879  10.055  10.203   8.846 -0.4092  1.8643  0.1510
  130MOL0     H17880  10.054  10.279   9.003  0.8552 -0.2430 -0.0342
  130MOL0     H17881  10.179  10.010   8.972 -0.8903 -0.6566  0.7052
  130MOL0     H17882  10.159  10.105   9.119  1.1437 -1.8577  0.1740
  130MOL0     H17883  10.324  10.219   8.886  2.2249 -1.7294  0.0589
  130MOL0     H17884  10.287  10.297   9.032 -0.4061  0.5886 -1.5679
  130MOL0     H17885  10.431  10.017   8.982  2.0890 -0.8587  0.8640
  130MOL0     H17886  10.419  10.085   9.146 -1.1315 -1.6511 -0.7990
  130MOL0     H17887  10.568  10.200   8.914  1.6777 -1.6121  0.4548
  130MOL0     H17888  10.525  10.283   9.072 -0.3672  0.5975 -0.2219
  130MOL0     H17889  10.678  10.213   9.258  1.5460  0.5358  0.8502
  130MOL0     H17890  10.818   9.917   9.399  3.6636 -3.9534 -1.1141
  130MOL0     H17891  10.875  10.090   9.387  0.0445  0.4971 -1.5676
  130MOL0     H17892  11.006   9.839   9.281  0.5844 -0.1146  0.5805
  130MOL0     H17893  11.033   9.998   9.205  0.6663  2.6158  2.1723
  130MOL0     H17894  11.119  10.078   9.435 -0.0904  0.1960  1.4556
  130MOL0     H17895  11.075   9.926   9.506 -3.6473 -0.5495 -0.9245
  130MOL0     H17896  11.320   9.926   9.454 -0.2799  0.8449 -0.6706
  130MOL0     H17897  11.241   9.803   9.356  6.7021 -0.7369 -0.7283
  130MOL0     H17898  11.477   9.817   9.365 -3.5028 -1.1047 -0.6775
  130MOL0     H17899  11.656   9.675   9.379 -1.9392  0.4864 -0.8429
  130MOL0     H17900  11.802   9.776   9.335  1.4719 -3.3724  1.2870
  130MOL0     H17901  11.758   9.642   9.236  0.6201 -0.0104 -0.3900
  130MOL0     H17902  12.001  10.162   8.898 -0.0492  1.1455 -1.0978
  130MOL0     H17903  12.234  10.136   8.823  0.3144 -0.3763  0.8337
  130MOL0     H17904  12.419  10.080   8.708 -0.6226 -0.8824 -2.3634
  130MOL0     H17905  12.456  10.012   8.873  0.3566  1.0221 -0.0024
  130MOL0     H17906  12.627   9.858   8.763  2.8517  2.6381  1.5350
  130MOL0     H17907  12.575   9.894   8.600 -1.0273  0.5755 -0.5072
  130MOL0     H17908  12.748  10.063   8.765  1.1701 -2.0246 -1.5237
  130MOL0     H17909  12.635  10.144   8.657  1.0126  0.8057 -3.7188
  130MOL0     H17910  12.722  10.008   8.470 -1.7058  2.5664  0.1161
  130MOL0     H17911  12.812   9.915   8.604 -1.0398  2.8324  3.3075
  130MOL0     H17912  12.865  10.206   8.547  1.9369  0.6325  0.2847
  130MOL0     H17913  12.954  10.089   8.637 -3.1615 -1.2590  2.5935
  130MOL0     H17914  13.056  10.127   8.417 -1.8654  1.1227  1.3973
  130MOL0     H17915  12.907  10.073   8.335 -0.2064  2.3930  0.7837
  130MOL0     H17916  12.944   9.841   8.378 -0.7887  1.1544 -2.0844
  130MOL0     H17917  13.032   9.885   8.530  0.4953  5.1056  0.6851
  130MOL0     H17918  13.135   9.889   8.234 -0.8271  0.9397  0.5622
  130MOL0     H17919  13.189   9.779   8.356  1.8656 -0.2133 -1.2293
  130MOL0     H17920  12.148   9.725   8.730 -1.2833 -0.5569  0.7817
  130MOL0     H17921  11.920   9.761   8.791 -0.2185 -0.2266 -4.6613
  130MOL0     H17922  11.585  10.012   8.930  1.2682 -0.2026 -0.8671
  130MOL0     H17923  11.365  10.026   9.015 -1.0442  1.7475  2.3541
  130MOL0     H17924   9.423  10.143   9.050  0.1370  1.2357 -0.8776
  130MOL0     H17925   9.192  10.109   8.986 -2.5162 -1.6437 -1.4392
  130MOL0     H17926   8.892   9.887   8.670  1.1749  1.6494  0.1083
  130MOL0     H17927   8.638   9.867   8.624 -1.2684  1.1252 -1.8719
  130MOL0     H17928   8.305  10.040   8.535  1.5523 -1.5289 -0.1445
  130MOL0     H17929   8.380  10.205   8.570  1.9206 -0.4152  0.0026
  130MOL0     H17930   8.494   9.997   8.371  3.9381  1.7161 -2.7390
  130MOL0     H17931   8.558  10.156   8.404 -0.9408  1.5671  1.1492
  130MOL0     H17932   8.279  10.141   8.322  0.2524 -1.3810 -1.1234
  130MOL0     H17933   8.393  10.285   8.328  1.9269 -0.3087  2.4884
  130MOL0     H17934   8.376  10.040   8.137 -1.5800  0.8719 -0.5093
  130MOL0     H17935   8.515  10.140   8.133 -0.1673 -1.3593 -0.3032
  130MOL0     H17936   8.238  10.402   7.955 -1.0853  0.0752  1.1898
  130MOL0     H17937   8.571  10.270   8.711 -0.4629 -0.5262 -1.4890
  130MOL0     H17938   8.870  10.421   8.710  0.0912  0.4773  0.2517
  130MOL0     H17939   8.715  10.412   8.787 -0.4780 -1.2867 -0.4556
  130MOL0     H17940   8.859  10.353   8.873 -1.4992 -4.0203  1.0066
  131MOL0     O17941  10.174   5.640   6.549  0.6397  0.1720  0.5497
  131MOL0     C17942  10.093   5.719   6.596 -0.2939 -0.0182  0.4029
  131MOL0     O17943  10.095   5.771   6.724  0.4897  0.6520  0.4760
  131MOL0     C17944  10.176   5.710   6.812  0.2354 -0.5089  0.3012
  131MOL0     C17945  10.258   5.785   6.889  0.0078  0.1893  0.1595
  131MOL0     C17946  10.347   5.723   6.980  0.0421  0.1050 -0.0391
  131MOL0     C17947  10.338   5.591   7.008  0.1153 -0.7466 -0.0036
  131MOL0     O17948  10.421   5.545   7.108 -0.4988 -0.7441  0.7581
  131MOL0     C17949  10.425   5.406   7.139  0.5254 -0.1374  0.3765
  131MOL0     C17950  10.527   5.338   7.041  0.5634  0.4797 -0.3431
  131MOL0     C17951  10.659   5.410   7.061 -0.1991 -0.2283  0.7576
  131MOL0     C17952  10.785   5.334   7.017 -0.8917 -0.2380  0.8917
  131MOL0     C17953  10.918   5.410   7.051 -0.1192  0.2396 -0.6003
  131MOL0     C17954  10.912   5.561   7.008  0.1816  0.0526 -0.4797
  131MOL0     C17955  11.045   5.642   7.024 -0.0477  0.4534 -0.2128
  131MOL0     C17956  11.102   5.646   6.888 -0.3919  0.3273  0.1158
  131MOL0     N17957  11.241   5.691   6.898  0.4444 -0.0097  0.1106
  131MOL0     C17958  11.289   5.801   6.834 -0.4883 -0.8637 -0.4203
  131MOL0     C17959  11.417   5.808   6.876 -0.1621  0.0749  0.3860
  131MOL0     C17960  11.506   5.930   6.857  0.9931  0.0494  0.7959
  131MOL0     C17961  11.636   5.886   6.793 -0.0319 -0.6089  0.0215
  131MOL0     C17962  11.625   5.796   6.673  0.4564 -0.0499  0.2834
  131MOL0     C17963  11.536   5.862   6.557 -0.0597 -0.8146 -0.0883
  131MOL0     O17964  11.564   6.003   6.542  0.4362  0.2037 -0.0525
  131MOL0     C17965  11.670   6.041   6.454 -0.3656 -0.2878  0.0853
  131MOL0     C17966  11.759   5.947   6.397 -0.7120 -0.2242 -0.3989
  131MOL0     C17967  11.868   5.993   6.312 -0.2183  0.6122 -0.4671
  131MOL0     C17968  11.946   5.880   6.244  0.3996  0.2391  0.4687
  131MOL0     C17969  11.898   6.134   6.303 -0.8232 -0.2153 -0.5727
  131MOL0     C17970  12.012   6.184   6.223 -0.3478 -0.2638  0.6732
  131MOL0     O17971  12.062   6.107   6.130  0.0455 -0.1288  0.5169
  131MOL0     C17972  12.184   6.136   6.080  0.3379  0.2907  0.2956
  131MOL0     C17973  12.197   6.199   5.952  0.0278  0.4962  1.2040
  131MOL0     C17974  12.325   6.214   5.892  0.0335 -0.4866  0.4574
  131MOL0     C17975  12.440   6.158   5.954 -0.5197 -0.7142 -0.4856
  131MOL0     O17976  12.564   6.165   5.883  1.4585  0.8870 -0.2422
  131MOL0     C17977  12.665   6.090   5.951 -0.5998 -0.5002  0.2346
  131MOL0     C17978  12.801   6.126   5.874 -0.1477 -0.6227 -0.6669
  131MOL0     C17979  12.915   6.058   5.949 -1.0724  0.1282  0.7618
  131MOL0     C17980  13.054   6.090   5.893  0.0492 -0.3159 -0.0908
  131MOL0     C17981  13.165   6.054   5.990  0.4149 -0.2693  0.4478
  131MOL0     C17982  13.304   6.097   5.942  0.3753 -0.2648 -0.3199
  131MOL0     C17983  13.409   6.012   6.014  0.8275 -0.5610 -0.6266
  131MOL0     C17984  13.546   6.054   5.974 -0.4836  0.2631  0.1628
  131MOL0    Cl17985  13.677   5.974   6.064  0.0029  0.4167 -0.1174
  131MOL0     C17986  12.417   6.080   6.067  0.7907 -0.6660 -0.7659
  131MOL0     C17987  12.299   6.082   6.138  0.2132  0.5457 -1.0964
  131MOL0     O17988  12.072   6.291   6.260  0.0438  0.3749 -0.6174
  131MOL0     C17989  11.812   6.232   6.364 -0.1488 -0.2261  0.3567
  131MOL0     C17990  11.698   6.181   6.429 -0.4572  0.2438 -0.6414
  131MOL0     N17991  11.441   5.704   6.965 -0.3225 -0.5119  0.4890
  131MOL0     N17992  11.337   5.636   6.981 -0.2682 -0.0923  0.0131
  131MOL0     C17993  10.256   5.510   6.924  0.1700  0.2599  0.4303
  131MOL0     C17994  10.177   5.570   6.828 -0.4759  0.0566  0.8297
  131MOL0     C17995   9.977   5.768   6.513 -0.1044 -0.0491  0.6268
  131MOL0     C17996   9.924   5.677   6.429 -0.5282 -0.3907  0.0182
  131MOL0     C17997   9.816   5.705   6.340  0.1446  0.1551 -0.2923
  131MOL0     C17998   9.754   5.831   6.345  0.0071  0.4422 -0.1118
  131MOL0     O17999   9.651   5.856   6.258 -0.2994 -0.1274 -0.4934
  131MOL0     C18000   9.576   5.972   6.282 -1.1748 -0.0629 -0.1172
  131MOL0     C18001   9.464   5.960   6.185 -0.2747  0.1559  0.0339
  131MOL0     C18002   9.507   5.951   6.040  0.0793 -0.3492 -0.3044
  131MOL0     C18003   9.390   5.980   5.942 -0.2662 -0.3487  0.8072
  131MOL0     C18004   9.358   6.118   5.923  0.4692  0.2955  0.4132
  131MOL0     C18005   9.325   6.232   5.904 -0.0424 -0.0145  0.5809
  131MOL0     C18006   9.808   5.920   6.440  0.2166  0.8194 -0.2900
  131MOL0     C18007   9.918   5.890   6.518  0.1157 -0.4483 -0.6005
  131MOL0     C18008   9.982   6.008   6.600  0.1348  0.6950  0.2877
  131MOL0     H18009  10.260   5.893   6.877  3.0667  0.1721 -0.3414
  131MOL0     H18010  10.415   5.782   7.040 -0.7185  0.4461  0.4922
  131MOL0     H18011  10.329   5.353   7.140 -0.4646  1.4925 -1.5505
  131MOL0     H18012  10.465   5.391   7.240  0.7644 -0.5926  0.2170
  131MOL0     H18013  10.537   5.236   7.078  0.6559 -0.1942 -2.1206
  131MOL0     H18014  10.489   5.331   6.939 -0.3614  2.6834 -0.2020
  131MOL0     H18015  10.656   5.502   7.002 -1.2052 -0.8810 -0.2399
  131MOL0     H18016  10.674   5.425   7.168 -0.1115 -1.7370  0.9877
  131MOL0     H18017  10.797   5.234   7.060 -0.4877  0.3896  2.3105
  131MOL0     H18018  10.783   5.337   6.908 -0.6154  4.2609  0.8517
  131MOL0     H18019  10.998   5.354   7.001  1.1454  0.3150  1.2469
  131MOL0     H18020  10.937   5.404   7.158  0.2391  0.6609 -0.6358
  131MOL0     H18021  10.884   5.570   6.903  2.9833 -0.4275 -1.3436
  131MOL0     H18022  10.834   5.608   7.069  0.7978 -1.9130  2.0123
  131MOL0     H18023  11.122   5.598   7.088  0.7586  0.7277 -0.9695
  131MOL0     H18024  11.025   5.741   7.066  0.0612 -0.2142  1.5336
  131MOL0     H18025  11.107   5.542   6.858 -2.0147 -0.1466  1.3413
  131MOL0     H18026  11.045   5.715   6.824 -0.7279  0.0644  0.1317
  131MOL0     H18027  11.228   5.865   6.770  2.1581  1.7702 -0.5144
  131MOL0     H18028  11.531   5.975   6.953 -0.2906 -0.8538  1.5916
  131MOL0     H18029  11.455   6.005   6.796  0.1601  0.3175  1.8088
  131MOL0     H18030  11.701   5.970   6.768 -0.7264  0.5185  1.7744
  131MOL0     H18031  11.685   5.840   6.880 -1.4087  1.8924  2.2823
  131MOL0     H18032  11.722   5.764   6.634  2.0394  0.4057  3.5106
  131MOL0     H18033  11.572   5.705   6.701  1.7351 -0.4955  1.3026
  131MOL0     H18034  11.550   5.804   6.464  1.6704  1.4636 -1.3668
  131MOL0     H18035  11.432   5.848   6.584 -0.5165 -1.3980 -1.9464
  131MOL0     H18036  11.751   5.840   6.413 -0.8606  0.0839  1.9967
  131MOL0     H18037  12.055   5.891   6.248  0.2900  1.0878  2.7096
  131MOL0     H18038  11.924   5.872   6.137  0.8470 -0.1731  0.4039
  131MOL0     H18039  11.917   5.784   6.288 -1.3355  0.9180  0.9058
  131MOL0     H18040  12.110   6.233   5.896  0.3062 -1.1392 -0.3107
  131MOL0     H18041  12.337   6.275   5.804 -1.7390 -1.6553 -0.6557
  131MOL0     H18042  12.678   6.117   6.056  2.6408  2.3732 -0.7249
  131MOL0     H18043  12.650   5.982   5.941 -0.3854 -0.5993  0.9314
  131MOL0     H18044  12.789   6.100   5.768 -1.2211 -1.4075 -0.3765
  131MOL0     H18045  12.813   6.235   5.882 -0.5980 -0.5558 -0.8592
  131MOL0     H18046  12.913   5.949   5.943  1.1943  0.0911 -0.5251
  131MOL0     H18047  12.908   6.074   6.057 -0.9023  0.8461  0.6724
  131MOL0     H18048  13.054   6.199   5.885 -1.8331 -0.3783 -1.6709
  131MOL0     H18049  13.053   6.029   5.802 -3.9658 -2.0601  0.8905
  131MOL0     H18050  13.143   6.106   6.083  0.8649  0.6135  0.0698
  131MOL0     H18051  13.157   5.949   6.022  1.6617 -0.1580  1.1837
  131MOL0     H18052  13.324   6.202   5.964 -0.3336  0.0675 -1.1836
  131MOL0     H18053  13.309   6.086   5.833 -3.5549  0.3614 -0.7162
  131MOL0     H18054  13.403   5.906   5.988 -1.6669 -1.5790  3.2050
  131MOL0     H18055  13.418   6.025   6.122  1.6074 -0.5955 -0.6866
  131MOL0     H18056  13.566   6.162   5.976  0.4336  0.0937  1.1314
  131MOL0     H18057  13.577   6.012   5.878  0.1034 -0.4455  0.6488
  131MOL0     H18058  12.496   6.025   6.117  0.9403  2.3142  2.7286
  131MOL0     H18059  12.297   6.039   6.238 -1.9354  0.0664 -1.2994
  131MOL0     H18060  11.844   6.335   6.356  2.8485 -1.1325 -0.6886
  131MOL0     H18061  11.629   6.252   6.473  0.9566  1.3638 -0.1429
  131MOL0     H18062  10.259   5.401   6.924  0.7862  0.1986 -2.4224
  131MOL0     H18063  10.108   5.517   6.763  0.1748  0.8326 -0.5416
  131MOL0     H18064   9.968   5.578   6.415 -0.1386 -0.0164 -1.6428
  131MOL0     H18065   9.786   5.630   6.268 -0.8445  0.2222  0.0248
  131MOL0     H18066   9.538   5.980   6.384 -1.2418  0.1247 -0.1549
  131MOL0     H18067   9.641   6.058   6.262  2.5549 -2.7937 -0.8344
  131MOL0     H18068   9.396   6.045   6.198 -0.5107  0.1099 -0.8299
  131MOL0     H18069   9.393   5.879   6.207 -2.7752  1.8240 -1.3384
  131MOL0     H18070   9.589   6.016   6.008 -0.3831 -0.9508 -2.9615
  131MOL0     H18071   9.542   5.849   6.020  1.2180  0.4165 -2.5019
  131MOL0     H18072   9.300   5.927   5.976 -0.2810 -0.1817  1.0279
  131MOL0     H18073   9.407   5.944   5.840 -1.9219 -0.8013  0.6479
  131MOL0     H18074   9.292   6.331   5.881  0.1411 -0.9132 -4.5746
  131MOL0     H18075   9.763   6.018   6.451  1.7057  1.4275  0.5863
  131MOL0     H18076  10.089   6.019   6.580 -0.2683  2.8540 -0.8966
  131MOL0     H18077   9.930   6.104   6.592  0.8126  1.0740  0.3630
  131MOL0     H18078   9.977   5.971   6.703  0.3208  0.5661  0.2522
  132MOL0     O18079   5.147   3.390   0.999  0.0212  0.0863 -0.5485
  132MOL0     C18080   5.104   3.488   1.065 -0.2175 -0.4682 -0.8327
  132MOL0     O18081   5.182   3.592   1.122 -0.3027 -0.5319 -0.1510
  132MOL0     C18082   5.317   3.578   1.108  0.1863  0.1571 -0.6681
  132MOL0     C18083   5.401   3.527   1.205  0.0049  0.0785 -0.7231
  132MOL0     C18084   5.540   3.511   1.184  0.4929 -0.1974  0.2872
  132MOL0     C18085   5.606   3.545   1.072  0.3243 -0.3762  0.4158
  132MOL0     O18086   5.738   3.526   1.069  0.2536  0.1555  0.4244
  132MOL0     C18087   5.808   3.538   0.944 -1.0048 -0.9423  0.1422
  132MOL0     C18088   5.956   3.515   0.964  0.0911  0.4592  0.3706
  132MOL0     C18089   6.028   3.493   0.834  0.9766 -0.3408 -0.4083
  132MOL0     C18090   6.081   3.349   0.812 -0.1012  0.2810  0.0414
  132MOL0     C18091   6.167   3.341   0.685 -0.7006  0.4912 -0.1556
  132MOL0     C18092   6.122   3.411   0.564 -0.1185 -0.4118 -0.9377
  132MOL0     C18093   5.996   3.346   0.507  0.4663  0.6039 -0.3602
  132MOL0     C18094   5.931   3.420   0.387 -0.7509 -0.0018 -0.3634
  132MOL0     N18095   6.019   3.417   0.265  0.3622 -0.3563  0.2591
  132MOL0     C18096   6.068   3.304   0.209  0.7676  0.3163  0.7297
  132MOL0     C18097   6.161   3.346   0.124  0.4858  0.4381 -0.0459
  132MOL0     C18098   6.267   3.262   0.059 -0.1404  0.3997  0.4325
  132MOL0     C18099   6.410   3.305   0.078  0.0881 -0.1978 -0.1966
  132MOL0     C18100   6.501   3.266  -0.031  0.2260 -0.7729  0.0946
  132MOL0     C18101   6.650   3.297  -0.025 -0.6396  0.1014 -0.5602
  132MOL0     O18102   6.717   3.223   0.076 -0.1193 -0.2633 -0.2910
  132MOL0     C18103   6.837   3.271   0.125  0.7010 -0.3572 -0.3643
  132MOL0     C18104   6.908   3.381   0.078 -0.3106 -0.0786 -0.4142
  132MOL0     C18105   7.030   3.424   0.131  0.2257 -0.0935  0.2257
  132MOL0     C18106   7.100   3.539   0.050 -0.5258  0.0649  0.1290
  132MOL0     C18107   7.086   3.350   0.239 -0.1018  0.3039  0.0727
  132MOL0     C18108   7.216   3.365   0.289 -0.0517 -0.1667  0.4169
  132MOL0     O18109   7.260   3.267   0.373 -0.3704 -0.2876 -0.0016
  132MOL0     C18110   7.397   3.265   0.413 -0.5790 -1.0405  0.5552
  132MOL0     C18111   7.472   3.148   0.419  1.1479  0.3456  0.5398
  132MOL0     C18112   7.608   3.142   0.452 -0.0876 -0.1524  0.3418
  132MOL0     C18113   7.673   3.256   0.493 -0.5654  0.4823  0.4513
  132MOL0     O18114   7.803   3.235   0.530 -0.0865  0.1454  0.7525
  132MOL0     C18115   7.879   3.343   0.578 -0.0439 -0.0027  0.6655
  132MOL0     C18116   8.038   3.326   0.560  0.1631  0.4388  0.6116
  132MOL0     C18117   8.095   3.212   0.638 -0.1392 -0.3352  0.0518
  132MOL0     C18118   8.248   3.203   0.623 -0.1667 -0.8203 -0.2586
  132MOL0     C18119   8.316   3.100   0.711  0.1052  0.3645 -0.4221
  132MOL0     C18120   8.471   3.100   0.691  0.6981 -0.4769  0.2695
  132MOL0     C18121   8.539   3.015   0.797 -0.6407  0.5136 -0.3950
  132MOL0     C18122   8.688   3.001   0.749  0.5733 -0.1684  0.3984
  132MOL0    Cl18123   8.783   2.896   0.851  0.2360 -0.0015  0.5342
  132MOL0     C18124   7.593   3.366   0.522  0.3359 -0.4523  0.6774
  132MOL0     C18125   7.455   3.379   0.474 -0.0611 -0.2116 -0.0110
  132MOL0     O18126   7.282   3.468   0.268 -0.5295  0.5053 -0.0764
  132MOL0     C18127   7.017   3.232   0.277  0.2432 -0.3606 -0.3514
  132MOL0     C18128   6.898   3.200   0.223 -0.3833  0.6743 -0.1637
  132MOL0     N18129   6.157   3.482   0.118 -0.3472  0.1596  0.2076
  132MOL0     N18130   6.071   3.525   0.200  0.2575  0.1871 -0.7667
  132MOL0     C18131   5.515   3.603   0.975 -0.3193  0.6948 -0.0024
  132MOL0     C18132   5.370   3.611   0.988  0.1581 -0.2951 -0.5329
  132MOL0     C18133   4.957   3.483   1.090  1.0000  0.3935 -0.4091
  132MOL0     C18134   4.870   3.445   0.986  0.8374  0.0843  0.4616
  132MOL0     C18135   4.736   3.438   1.013  0.1703  0.4445  0.5220
  132MOL0     C18136   4.677   3.462   1.139  0.0825  0.1991  0.2841
  132MOL0     O18137   4.543   3.448   1.150  0.2406  0.7928  0.2367
  132MOL0     C18138   4.476   3.486   1.277 -0.4155  0.2605  0.4887
  132MOL0     C18139   4.326   3.473   1.277 -0.4651 -0.3220 -0.0185
  132MOL0     C18140   4.269   3.338   1.238  0.0324  0.8507 -0.4424
  132MOL0     C18141   4.122   3.331   1.258 -0.3898  0.0238  0.6809
  132MOL0     C18142   4.050   3.417   1.162 -0.6257  0.5096  0.2475
  132MOL0     C18143   4.006   3.483   1.071 -0.9566 -0.2494 -0.4774
  132MOL0     C18144   4.766   3.496   1.250  0.6332  0.6388  0.2877
  132MOL0     C18145   4.903   3.509   1.222  0.1907  0.2439  0.1653
  132MOL0     C18146   4.995   3.543   1.335 -0.0571  0.1579  0.1496
  132MOL0     H18147   5.364   3.497   1.302  1.8592 -0.4188 -0.1312
  132MOL0     H18148   5.605   3.471   1.262  1.5360  0.5744 -0.1659
  132MOL0     H18149   5.788   3.641   0.911 -1.3287 -0.9979  0.1623
  132MOL0     H18150   5.772   3.459   0.877 -2.2435 -1.4503  1.3411
  132MOL0     H18151   6.004   3.597   1.019  0.7121 -0.5121  1.3120
  132MOL0     H18152   5.970   3.431   1.033  1.8648 -0.3048 -0.8479
  132MOL0     H18153   5.962   3.527   0.754  0.4035 -0.5745 -0.0434
  132MOL0     H18154   6.116   3.559   0.833  0.4242  0.4412  0.4133
  132MOL0     H18155   6.140   3.314   0.897  2.8413  0.7026 -1.6879
  132MOL0     H18156   6.000   3.276   0.803 -1.8987  2.2832 -0.6265
  132MOL0     H18157   6.170   3.238   0.649 -3.7030  0.7806 -1.5554
  132MOL0     H18158   6.262   3.392   0.706 -1.1808  1.0591  0.6884
  132MOL0     H18159   6.105   3.515   0.591  1.1405 -0.1561 -1.0514
  132MOL0     H18160   6.201   3.403   0.488  0.6948  0.1889 -0.1757
  132MOL0     H18161   5.921   3.346   0.587  0.1750 -0.9711 -0.6049
  132MOL0     H18162   6.003   3.238   0.496 -2.0017  0.1377  1.6508
  132MOL0     H18163   5.838   3.367   0.363  0.3909 -1.2707 -2.1857
  132MOL0     H18164   5.913   3.524   0.416  2.3331  0.3917  0.4588
  132MOL0     H18165   6.052   3.203   0.247  1.3141  1.0522  3.1073
  132MOL0     H18166   6.247   3.266  -0.049 -2.5101 -3.1939  0.5534
  132MOL0     H18167   6.248   3.156   0.081  1.3109  0.1663  0.6640
  132MOL0     H18168   6.418   3.413   0.092  1.5369 -0.3905  0.7094
  132MOL0     H18169   6.449   3.265   0.173  1.2640 -1.4141 -1.1527
  132MOL0     H18170   6.484   3.160  -0.048 -2.3625 -0.4434  0.2940
  132MOL0     H18171   6.480   3.312  -0.128  3.3252 -0.3889 -0.4958
  132MOL0     H18172   6.705   3.263  -0.113  0.3415 -0.4635  0.2523
  132MOL0     H18173   6.668   3.403  -0.006  3.8544 -0.4540 -0.6128
  132MOL0     H18174   6.877   3.444  -0.005  0.6318  1.5935  0.4543
  132MOL0     H18175   7.097   3.628   0.114  4.9705  0.0336  0.9127
  132MOL0     H18176   7.045   3.566  -0.041  0.0448  2.2815  0.3794
  132MOL0     H18177   7.206   3.523   0.028 -0.4077  0.9845 -0.0326
  132MOL0     H18178   7.414   3.058   0.403 -1.2716  2.0654 -1.3573
  132MOL0     H18179   7.662   3.050   0.436 -2.8784 -2.0638  1.2636
  132MOL0     H18180   7.848   3.430   0.519 -0.4611 -1.9734 -2.2760
  132MOL0     H18181   7.848   3.352   0.682  0.3266  1.3963  0.6795
  132MOL0     H18182   8.052   3.300   0.455 -1.5304  3.4036 -0.4874
  132MOL0     H18183   8.098   3.416   0.579  0.0683  0.6417 -0.0454
  132MOL0     H18184   8.060   3.114   0.603  1.3783 -0.6069 -0.7879
  132MOL0     H18185   8.054   3.217   0.740 -0.7535  1.1398 -0.2447
  132MOL0     H18186   8.288   3.302   0.644 -1.0464 -0.9986  2.8757
  132MOL0     H18187   8.260   3.172   0.519 -3.6884 -2.7852 -0.2218
  132MOL0     H18188   8.288   3.117   0.816  1.4029 -1.7137  0.3479
  132MOL0     H18189   8.279   3.001   0.682 -0.3687  0.8315 -1.4213
  132MOL0     H18190   8.501   3.205   0.691  0.3355 -0.3698  0.6867
  132MOL0     H18191   8.493   3.060   0.591  0.7330 -0.1066  0.1282
  132MOL0     H18192   8.500   2.912   0.795  2.8949 -0.9633 -0.6689
  132MOL0     H18193   8.524   3.056   0.897 -0.7932  1.6799 -0.8873
  132MOL0     H18194   8.735   3.100   0.751 -0.2868  0.2400  0.5450
  132MOL0     H18195   8.692   2.968   0.645  1.3389  1.2894 -0.0642
  132MOL0     H18196   7.634   3.452   0.576  2.2114  0.3055 -1.7592
  132MOL0     H18197   7.407   3.475   0.479  1.3008  0.7760 -3.1908
  132MOL0     H18198   7.046   3.166   0.357 -0.3116 -1.6989 -1.2248
  132MOL0     H18199   6.849   3.108   0.255  1.4406  0.2348  1.5624
  132MOL0     H18200   5.562   3.649   0.889  0.8651  0.8763  0.7175
  132MOL0     H18201   5.309   3.634   0.902 -2.9734 -1.5378  1.1825
  132MOL0     H18202   4.910   3.442   0.885 -1.8501 -1.2984 -0.6602
  132MOL0     H18203   4.673   3.423   0.926 -1.6281  1.0040  1.6787
  132MOL0     H18204   4.527   3.442   1.364  2.9705  3.9364  0.6567
  132MOL0     H18205   4.492   3.592   1.296 -2.0953  0.1898  2.5731
  132MOL0     H18206   4.300   3.548   1.202  1.6412 -0.0450 -0.5204
  132MOL0     H18207   4.287   3.511   1.373  1.7294  1.8490  0.1169
  132MOL0     H18208   4.300   3.317   1.135  0.1673  1.8407 -0.6178
  132MOL0     H18209   4.311   3.263   1.305  1.3232 -0.1690 -2.2988
  132MOL0     H18210   4.093   3.360   1.360  0.5763 -0.7443  1.1935
  132MOL0     H18211   4.085   3.228   1.251  0.6688 -0.2389 -3.2058
  132MOL0     H18212   3.962   3.527   0.984 -1.8468  1.4844  0.7953
  132MOL0     H18213   4.733   3.501   1.353 -1.4244  1.0713 -0.3557
  132MOL0     H18214   5.071   3.466   1.351 -0.7454 -0.4966  0.2932
  132MOL0     H18215   5.055   3.633   1.319  0.1987  0.0345  0.4083
  132MOL0     H18216   4.942   3.553   1.430  0.2893 -1.8538  0.5966
  133MOL0     O18217  10.504   6.157   0.626  0.5392 -0.5655  0.5857
  133MOL0     C18218  10.457   6.240   0.702 -0.3947 -0.9705 -0.3508
  133MOL0     O18219  10.498   6.261   0.833 -0.4758 -1.1198  0.6725
  133MOL0     C18220  10.621   6.206   0.870  0.2374 -0.2987 -0.1758
  133MOL0     C18221  10.747   6.261   0.835 -0.7082  0.2519 -0.4392
  133MOL0     C18222  10.854   6.184   0.880 -0.7589  1.1272  0.7356
  133MOL0     C18223  10.844   6.065   0.952 -0.1801  1.0968  1.2610
  133MOL0     O18224  10.955   5.984   0.984  0.8174 -0.1667 -0.3510
  133MOL0     C18225  10.979   5.890   0.887  0.0660  0.0976  0.2042
  133MOL0     C18226  11.108   5.821   0.937 -0.7421 -0.2958  0.0315
  133MOL0     C18227  11.240   5.906   0.916 -0.5656 -0.2770  0.0508
  133MOL0     C18228  11.309   5.874   0.784  0.2713  0.5095 -0.2641
  133MOL0     C18229  11.440   5.952   0.773 -0.6668  0.5957 -0.3468
  133MOL0     C18230  11.528   5.883   0.670 -0.2871 -0.8174  0.5163
  133MOL0     C18231  11.665   5.949   0.658 -0.4230  0.4194  0.4506
  133MOL0     C18232  11.760   5.868   0.557 -0.5474 -0.5979  0.3128
  133MOL0     N18233  11.708   5.848   0.421  0.7410 -0.1442 -0.2312
  133MOL0     C18234  11.650   5.937   0.338  0.5932 -0.4013  0.0547
  133MOL0     C18235  11.656   5.871   0.224 -0.1352 -0.6998  0.7403
  133MOL0     C18236  11.616   5.951   0.098  0.1256  0.3934  0.3199
  133MOL0     C18237  11.717   5.927  -0.016 -0.2498 -0.3027 -0.0158
  133MOL0     C18238  11.722   6.042  -0.125 -0.0909 -0.2970  0.6001
  133MOL0     C18239  11.787   6.007  -0.254  0.7941  0.3251 -0.7412
  133MOL0     O18240  11.780   6.132  -0.326  0.5791 -0.0124  0.6321
  133MOL0     C18241  11.887   6.215  -0.327 -0.1628 -0.4352  0.5839
  133MOL0     C18242  11.971   6.241  -0.218 -0.1969 -0.2444  0.6010
  133MOL0     C18243  12.089   6.313  -0.242  0.3876  0.3478  0.1376
  133MOL0     C18244  12.190   6.326  -0.139 -0.7601  0.1832 -0.6427
  133MOL0     C18245  12.107   6.390  -0.369  0.3566 -0.7970  0.4155
  133MOL0     C18246  12.209   6.483  -0.398 -0.1898  0.0930  0.2088
  133MOL0     O18247  12.299   6.516  -0.299  0.3737 -0.5735  0.4122
  133MOL0     C18248  12.387   6.618  -0.328 -0.3756 -0.3087  0.0879
  133MOL0     C18249  12.350   6.752  -0.296 -1.1117  0.4755  0.6574
  133MOL0     C18250  12.432   6.857  -0.331  0.1262  0.2254 -0.3607
  133MOL0     C18251  12.547   6.834  -0.406  0.0666 -0.3612  0.6235
  133MOL0     O18252  12.631   6.932  -0.450 -0.8425  0.0554  0.2805
  133MOL0     C18253  12.624   7.057  -0.381  0.2162  0.2244  0.2925
  133MOL0     C18254  12.729   7.160  -0.432  0.2745 -0.7722  0.0932
  133MOL0     C18255  12.880   7.113  -0.415  1.6067 -0.0183 -0.0664
  133MOL0     C18256  12.971   7.217  -0.473  0.8678  0.0282 -0.2444
  133MOL0     C18257  13.116   7.172  -0.473  1.0846 -0.3323 -0.7662
  133MOL0     C18258  13.206   7.262  -0.545 -0.6170 -0.0864 -0.0477
  133MOL0     C18259  13.347   7.223  -0.537  0.1871  0.1318  0.6653
  133MOL0     C18260  13.444   7.330  -0.582  0.2286  0.6306  1.1827
  133MOL0    Cl18261  13.426   7.340  -0.755 -0.2363 -0.1727 -0.3357
  133MOL0     C18262  12.589   6.706  -0.436  0.5666  0.6128  0.8283
  133MOL0     C18263  12.507   6.601  -0.395  0.0711  0.5963  0.1398
  133MOL0     O18264  12.222   6.524  -0.511  0.4371  0.1139  0.1653
  133MOL0     C18265  12.010   6.371  -0.459 -0.8917 -0.0812 -0.1594
  133MOL0     C18266  11.903   6.292  -0.440  0.9895 -0.0362  0.3573
  133MOL0     N18267  11.693   5.747   0.244  0.3864  0.4694 -0.7675
  133MOL0     N18268  11.733   5.736   0.361  0.7308 -0.2877 -0.0215
  133MOL0     C18269  10.723   6.018   0.980  0.9168 -0.0189 -0.1344
  133MOL0     C18270  10.616   6.085   0.940  0.6681 -0.5978  0.6611
  133MOL0     C18271  10.340   6.314   0.648  0.4916  0.6738 -0.0554
  133MOL0     C18272  10.282   6.276   0.525 -0.5979 -0.2102  0.3123
  133MOL0     C18273  10.174   6.338   0.460 -0.7416 -0.4362  0.2951
  133MOL0     C18274  10.122   6.457   0.507  0.5639  0.0439 -0.1439
  133MOL0     O18275  10.018   6.520   0.442 -0.1646 -0.6260 -0.3535
  133MOL0     C18276   9.945   6.457   0.337  0.2214  0.3734 -0.1179
  133MOL0     C18277   9.841   6.561   0.286  0.3931  0.1275  0.8738
  133MOL0     C18278   9.760   6.503   0.173  1.0217 -0.4944  0.6050
  133MOL0     C18279   9.651   6.606   0.141  0.5309 -0.1016 -0.4544
  133MOL0     C18280   9.565   6.550   0.038  0.3213  0.1390 -0.1339
  133MOL0     C18281   9.497   6.489  -0.039  1.3446  0.2904  0.1698
  133MOL0     C18282  10.171   6.492   0.635  0.2308  0.2236  0.4314
  133MOL0     C18283  10.276   6.429   0.709 -0.0636  0.7735 -0.1542
  133MOL0     C18284  10.328   6.487   0.842  0.0247  0.1605  0.1759
  133MOL0     H18285  10.742   6.348   0.771 -0.6697  0.7838  0.2651
  133MOL0     H18286  10.948   6.206   0.829 -0.2739  2.1517  1.9997
  133MOL0     H18287  10.995   5.934   0.788 -2.3044 -0.2231 -0.3864
  133MOL0     H18288  10.895   5.822   0.866  0.3918 -1.3303  3.0631
  133MOL0     H18289  11.100   5.804   1.045 -2.6873  0.5345  0.0576
  133MOL0     H18290  11.121   5.726   0.885 -1.5647 -0.1053 -0.5403
  133MOL0     H18291  11.205   6.010   0.917 -1.5749 -0.5114 -2.6322
  133MOL0     H18292  11.311   5.892   0.998 -0.0388 -1.5066 -0.5930
  133MOL0     H18293  11.333   5.767   0.777  2.7328  1.0730 -2.0428
  133MOL0     H18294  11.239   5.903   0.705 -2.1849 -0.1376  1.5615
  133MOL0     H18295  11.489   5.959   0.871 -0.2109  0.9411 -0.5957
  133MOL0     H18296  11.422   6.055   0.742 -0.1671  1.0135  0.7233
  133MOL0     H18297  11.537   5.779   0.702 -0.2379 -1.2098 -0.7087
  133MOL0     H18298  11.481   5.880   0.571 -0.3504 -3.6334  0.5638
  133MOL0     H18299  11.710   5.943   0.758  1.2725 -0.7237 -0.3311
  133MOL0     H18300  11.656   6.051   0.620 -1.4827  0.5031  0.8997
  133MOL0     H18301  11.858   5.915   0.568 -0.9602 -0.0361  2.1357
  133MOL0     H18302  11.766   5.764   0.591 -2.3873 -1.3185 -1.3872
  133MOL0     H18303  11.625   6.040   0.359 -2.1216 -0.4545 -2.2807
  133MOL0     H18304  11.600   6.053   0.135 -0.1555 -0.0464  1.4674
  133MOL0     H18305  11.524   5.904   0.061  0.4173 -0.7239  0.9835
  133MOL0     H18306  11.821   5.919   0.015 -0.0219 -0.5447 -0.8340
  133MOL0     H18307  11.697   5.834  -0.070  0.5041 -0.6390  0.2659
  133MOL0     H18308  11.618   6.072  -0.140 -0.1050 -0.2979  0.6975
  133MOL0     H18309  11.773   6.121  -0.069  3.6643 -3.1702  1.6121
  133MOL0     H18310  11.890   5.977  -0.233  0.2641 -0.7289  0.4634
  133MOL0     H18311  11.738   5.926  -0.309 -1.4009  1.3694 -0.4356
  133MOL0     H18312  11.958   6.211  -0.114  2.5940  1.0409  1.4224
  133MOL0     H18313  12.289   6.305  -0.179  0.4899 -0.1498  2.3768
  133MOL0     H18314  12.171   6.259  -0.055  0.8406  3.5227  2.6467
  133MOL0     H18315  12.180   6.426  -0.097  1.7875 -0.8147  2.8114
  133MOL0     H18316  12.255   6.764  -0.245 -0.1543 -0.1408  2.6884
  133MOL0     H18317  12.411   6.961  -0.312 -2.0153 -0.4956  1.7026
  133MOL0     H18318  12.527   7.093  -0.415  0.1111 -1.3401 -1.2130
  133MOL0     H18319  12.636   7.045  -0.273 -2.7056 -0.3930  0.6339
  133MOL0     H18320  12.701   7.182  -0.535 -2.5277 -0.5576  0.8232
  133MOL0     H18321  12.720   7.258  -0.384  1.8422 -0.9819  0.8903
  133MOL0     H18322  12.889   7.012  -0.455 -1.2052 -0.0162 -0.9139
  133MOL0     H18323  12.900   7.114  -0.307 -0.2197 -1.8662  0.3539
  133MOL0     H18324  12.962   7.314  -0.424  1.1626 -0.9222  1.7759
  133MOL0     H18325  12.949   7.227  -0.580  0.6601 -1.1777 -0.3280
  133MOL0     H18326  13.149   7.153  -0.371  1.5738 -1.1973 -1.0741
  133MOL0     H18327  13.113   7.072  -0.517  0.3573  0.4831 -2.6886
  133MOL0     H18328  13.206   7.358  -0.492  0.3841 -0.7959  1.2768
  133MOL0     H18329  13.173   7.276  -0.649 -0.7288  2.6582  0.2638
  133MOL0     H18330  13.365   7.135  -0.600  4.2380 -0.5457  2.4650
  133MOL0     H18331  13.373   7.205  -0.433  2.6127 -0.7563 -0.0226
  133MOL0     H18332  13.541   7.283  -0.561 -0.1645  0.0257  1.6639
  133MOL0     H18333  13.431   7.426  -0.531  1.4906  3.1979 -2.8387
  133MOL0     H18334  12.667   6.700  -0.511 -1.4499  3.0592 -1.7557
  133MOL0     H18335  12.549   6.505  -0.424  0.3547  1.6187 -3.2584
  133MOL0     H18336  12.024   6.424  -0.553 -2.4473 -0.7736 -0.8090
  133MOL0     H18337  11.841   6.270  -0.527 -1.0868 -2.5080  2.2979
  133MOL0     H18338  10.692   5.933   1.039 -1.8662  0.8576 -0.2052
  133MOL0     H18339  10.511   6.056   0.948 -0.5867  2.8524 -1.2714
  133MOL0     H18340  10.314   6.185   0.475 -1.0088 -0.2118  0.0461
  133MOL0     H18341  10.136   6.296   0.367  0.2205 -1.5393  0.3740
  133MOL0     H18342  10.007   6.433   0.250  0.2386  2.5590 -0.7658
  133MOL0     H18343   9.896   6.366   0.372 -2.1888  1.2248 -1.0922
  133MOL0     H18344   9.888   6.658   0.271 -1.4686  1.0907  0.9943
  133MOL0     H18345   9.771   6.575   0.369 -0.8624  1.7611 -0.3885
  133MOL0     H18346   9.828   6.480   0.090  1.3471 -4.8738  1.8460
  133MOL0     H18347   9.720   6.407   0.205  3.0072 -1.1146  1.3732
  133MOL0     H18348   9.684   6.709   0.129 -1.3250  0.6624  0.4899
  133MOL0     H18349   9.583   6.628   0.224  0.8383  0.0316 -0.2356
  133MOL0     H18350   9.444   6.437  -0.115  0.9862  0.7733  0.0849
  133MOL0     H18351  10.138   6.582   0.685  1.5601  1.4900 -0.8750
  133MOL0     H18352  10.309   6.410   0.917  1.7823  0.3468  0.8737
  133MOL0     H18353  10.435   6.509   0.833 -0.5197  2.6662 -1.0106
  133MOL0     H18354  10.279   6.581   0.868  2.3004  1.4195  0.1393
  134MOL0     O18355   7.083   1.035   5.119 -0.0955 -0.7217 -0.3637
  134MOL0     C18356   6.997   0.958   5.081 -0.1314 -0.2695  0.2000
  134MOL0     O18357   6.962   0.951   4.945  0.3169 -0.5317 -0.4578
  134MOL0     C18358   7.022   1.042   4.862 -0.4399 -0.0713 -0.2864
  134MOL0     C18359   7.101   0.983   4.764  0.1084 -0.7140  0.5153
  134MOL0     C18360   7.148   1.065   4.661  0.6926 -0.5041 -0.0370
  134MOL0     C18361   7.136   1.205   4.664  0.4704 -0.4471  0.5002
  134MOL0     O18362   7.173   1.290   4.560 -1.0205 -0.0603  0.8330
  134MOL0     C18363   7.312   1.310   4.554 -0.8837 -0.2739  0.0505
  134MOL0     C18364   7.353   1.399   4.432 -0.0491  0.2749 -0.3429
  134MOL0     C18365   7.504   1.436   4.409 -0.0473 -0.7512  0.4391
  134MOL0     C18366   7.562   1.503   4.530 -0.0190  0.1922  0.4511
  134MOL0     C18367   7.702   1.562   4.498 -0.1952 -1.1129  0.0898
  134MOL0     C18368   7.752   1.642   4.619 -0.0081 -0.8906 -0.4180
  134MOL0     C18369   7.894   1.684   4.590  0.1833  0.2266 -0.0397
  134MOL0     C18370   7.930   1.792   4.497  0.0633 -0.2695  0.0420
  134MOL0     N18371   8.072   1.785   4.451  0.6645 -0.5260  0.2715
  134MOL0     C18372   8.184   1.808   4.528 -0.2441 -0.5223  0.1376
  134MOL0     C18373   8.283   1.756   4.458 -0.3621  0.1050 -0.2319
  134MOL0     C18374   8.425   1.756   4.497  0.9143  0.8823 -0.0649
  134MOL0     C18375   8.431   1.636   4.597 -0.1975 -0.0222 -0.0317
  134MOL0     C18376   8.559   1.648   4.688 -0.2217 -0.1819 -0.4295
  134MOL0     C18377   8.686   1.637   4.601  0.1311 -0.7106 -0.4436
  134MOL0     O18378   8.797   1.654   4.682  0.1069  0.1136 -0.3746
  134MOL0     C18379   8.918   1.619   4.629  0.3393  0.9333  0.1553
  134MOL0     C18380   8.955   1.617   4.489 -0.7244  0.6845 -0.5030
  134MOL0     C18381   9.089   1.603   4.455 -0.8709  0.1185  0.1982
  134MOL0     C18382   9.131   1.602   4.313  0.7263  0.4668 -0.6201
  134MOL0     C18383   9.190   1.597   4.555  0.3949 -0.1268 -0.4038
  134MOL0     C18384   9.332   1.606   4.530  0.7876  0.0023  0.5926
  134MOL0     O18385   9.408   1.535   4.616  0.0541 -0.2430  0.6688
  134MOL0     C18386   9.525   1.582   4.664  1.0405  0.8896  0.4921
  134MOL0     C18387   9.618   1.651   4.590 -0.0900 -0.0496 -0.1439
  134MOL0     C18388   9.735   1.700   4.651  0.1068  0.1313 -0.6858
  134MOL0     C18389   9.760   1.675   4.791  0.0305 -0.0968  0.1460
  134MOL0     O18390   9.866   1.724   4.867 -0.2810 -0.2018  0.8765
  134MOL0     C18391   9.958   1.809   4.796 -0.5358 -0.4555  0.7172
  134MOL0     C18392  10.078   1.851   4.890 -0.3553 -0.0825  0.1334
  134MOL0     C18393  10.190   1.940   4.818  0.6573 -0.7998 -0.2903
  134MOL0     C18394  10.297   1.967   4.924  0.3194  0.4289  1.6700
  134MOL0     C18395  10.403   2.058   4.862 -0.2967 -0.3038 -0.2488
  134MOL0     C18396  10.368   2.205   4.830  0.6631  0.5097  0.0650
  134MOL0     C18397  10.475   2.279   4.744 -0.0783 -0.6056  0.3536
  134MOL0     C18398  10.528   2.196   4.624  0.4187 -0.4474  0.4954
  134MOL0    Cl18399  10.397   2.144   4.504  0.3310  0.0011 -0.1421
  134MOL0     C18400   9.660   1.609   4.864 -0.3964 -0.3357 -0.0369
  134MOL0     C18401   9.547   1.559   4.802  0.5504 -0.3554  0.3633
  134MOL0     O18402   9.370   1.676   4.440  0.1119  0.2786 -0.1533
  134MOL0     C18403   9.153   1.594   4.697 -0.4044  0.3079  1.1683
  134MOL0     C18404   9.016   1.604   4.721  0.4633  0.4485  0.4204
  134MOL0     N18405   8.238   1.698   4.341 -0.7382  0.0431 -0.4287
  134MOL0     N18406   8.110   1.720   4.337  0.0364  0.5990 -0.0881
  134MOL0     C18407   7.055   1.258   4.765 -0.0308 -0.2875  0.7464
  134MOL0     C18408   7.002   1.182   4.864 -0.8240  0.5804 -1.5895
  134MOL0     C18409   6.927   0.871   5.179 -0.3958 -0.5127  0.0079
  134MOL0     C18410   7.011   0.796   5.254 -0.3151 -0.2089 -0.3998
  134MOL0     C18411   6.977   0.713   5.349  0.7275 -0.8391 -0.0261
  134MOL0     C18412   6.845   0.684   5.372 -0.1760 -0.5689  0.7174
  134MOL0     O18413   6.824   0.575   5.454  0.0335  0.2601  0.2308
  134MOL0     C18414   6.687   0.530   5.450 -0.9574 -0.1669 -0.0946
  134MOL0     C18415   6.676   0.407   5.541 -0.6039  0.0549 -0.0587
  134MOL0     C18416   6.556   0.318   5.536  0.5519  0.4507 -0.0127
  134MOL0     C18417   6.428   0.397   5.582  0.3973  0.1531  0.1474
  134MOL0     C18418   6.309   0.328   5.538 -0.4810  0.3695 -0.2616
  134MOL0     C18419   6.195   0.288   5.521  0.4473  0.6693  0.0707
  134MOL0     C18420   6.745   0.758   5.297 -0.0413  0.7508 -0.2396
  134MOL0     C18421   6.789   0.848   5.200 -0.5237  0.6748  0.3547
  134MOL0     C18422   6.696   0.924   5.112 -1.3883  0.0173  0.0255
  134MOL0     H18423   7.128   0.878   4.775  0.3649 -0.6987  0.0544
  134MOL0     H18424   7.200   1.024   4.574 -1.7619 -2.2614 -0.7919
  134MOL0     H18425   7.354   1.211   4.537 -2.4926 -1.1568  0.9304
  134MOL0     H18426   7.359   1.349   4.645 -2.2372  1.3564  0.0903
  134MOL0     H18427   7.316   1.353   4.340 -2.7765  0.3285  0.6157
  134MOL0     H18428   7.294   1.487   4.459 -3.1638 -1.6431 -0.2787
  134MOL0     H18429   7.568   1.349   4.396 -0.0640 -0.5908 -0.7793
  134MOL0     H18430   7.519   1.491   4.316 -0.2474  0.1893  0.9550
  134MOL0     H18431   7.503   1.587   4.567  2.0593  2.0442 -0.1990
  134MOL0     H18432   7.561   1.432   4.613 -0.7328  0.1327  0.3956
  134MOL0     H18433   7.696   1.624   4.409 -1.3729 -0.3576  0.6662
  134MOL0     H18434   7.770   1.483   4.465 -1.4383 -1.4190 -1.8738
  134MOL0     H18435   7.690   1.729   4.641  2.9160  1.0185  0.8093
  134MOL0     H18436   7.758   1.589   4.714  0.6341  1.5840  1.0027
  134MOL0     H18437   7.938   1.592   4.550 -0.0440 -0.0616  0.3801
  134MOL0     H18438   7.943   1.701   4.686 -0.5305 -0.3210  0.4295
  134MOL0     H18439   7.865   1.788   4.409  0.8628  3.4762 -0.9120
  134MOL0     H18440   7.902   1.884   4.549 -2.3487 -1.3528  0.8071
  134MOL0     H18441   8.187   1.837   4.633 -1.9683  2.5322 -0.5469
  134MOL0     H18442   8.448   1.857   4.533  1.1722  1.0084 -0.5760
  134MOL0     H18443   8.476   1.731   4.404 -0.9333  0.8275 -1.1052
  134MOL0     H18444   8.345   1.638   4.665 -2.0030  2.3811 -2.1588
  134MOL0     H18445   8.411   1.541   4.545 -1.3153  0.3043 -0.2331
  134MOL0     H18446   8.555   1.738   4.751 -0.8947 -1.3026  1.1910
  134MOL0     H18447   8.554   1.572   4.766  0.4219  0.1105 -0.0901
  134MOL0     H18448   8.687   1.537   4.555  2.8574 -0.4896 -1.0629
  134MOL0     H18449   8.695   1.706   4.517  2.4911 -2.0457 -1.3990
  134MOL0     H18450   8.878   1.641   4.416 -1.2570  1.6973  0.3632
  134MOL0     H18451   9.045   1.586   4.248  0.8623 -1.7974 -0.3202
  134MOL0     H18452   9.206   1.527   4.286 -1.1549 -1.1123 -1.7094
  134MOL0     H18453   9.171   1.701   4.286 -1.4738  1.1868 -1.5321
  134MOL0     H18454   9.601   1.671   4.485  0.7021  0.0668 -0.2557
  134MOL0     H18455   9.802   1.761   4.593  0.9206  0.0694  0.1560
  134MOL0     H18456  10.002   1.757   4.711 -1.1493  1.0174 -0.5377
  134MOL0     H18457   9.908   1.899   4.759 -1.1502 -1.4464 -0.9499
  134MOL0     H18458  10.045   1.903   4.980  2.3540 -0.2353  1.3067
  134MOL0     H18459  10.120   1.759   4.932  1.9657  0.1749 -1.4149
  134MOL0     H18460  10.147   2.036   4.788  1.2449 -0.0302  1.1879
  134MOL0     H18461  10.219   1.885   4.728 -2.9502 -2.2412 -0.7313
  134MOL0     H18462  10.337   1.873   4.962 -0.6708  0.0444  1.8071
  134MOL0     H18463  10.243   2.021   5.003 -2.3433  2.4911 -1.3081
  134MOL0     H18464  10.499   2.046   4.913  1.2365  2.1869 -2.2652
  134MOL0     H18465  10.427   2.017   4.764  0.6770  1.2279 -0.6924
  134MOL0     H18466  10.344   2.263   4.920 -0.4782 -2.0984  1.5781
  134MOL0     H18467  10.277   2.210   4.770  0.5584 -2.5397 -0.1887
  134MOL0     H18468  10.563   2.301   4.806 -0.5641 -0.9197  1.1768
  134MOL0     H18469  10.437   2.370   4.696 -1.0600 -1.1998 -0.0288
  134MOL0     H18470  10.594   2.112   4.646  1.7827  0.0367 -1.4593
  134MOL0     H18471  10.585   2.258   4.555  0.2866  0.8682  1.5305
  134MOL0     H18472   9.661   1.585   4.970 -2.1471 -0.3122  0.0092
  134MOL0     H18473   9.461   1.514   4.851 -0.2240  1.4041  0.6799
  134MOL0     H18474   9.227   1.574   4.774  0.3053 -0.4227  0.3107
  134MOL0     H18475   8.988   1.612   4.826 -0.2968 -0.5162  0.3025
  134MOL0     H18476   7.040   1.365   4.752 -3.6217 -0.6396  1.1164
  134MOL0     H18477   6.949   1.223   4.949  0.2718 -2.3134  0.6446
  134MOL0     H18478   7.118   0.809   5.243 -0.1237  1.8910  2.6494
  134MOL0     H18479   7.062   0.658   5.390  1.7782 -1.1427 -2.4203
  134MOL0     H18480   6.636   0.617   5.493  2.7831  1.7347  0.9227
  134MOL0     H18481   6.649   0.510   5.350  0.7696  0.5885 -0.9599
  134MOL0     H18482   6.687   0.434   5.647  2.1707  1.2710 -0.5522
  134MOL0     H18483   6.763   0.346   5.516  1.1739  1.7765  1.5587
  134MOL0     H18484   6.530   0.283   5.436  1.4140  1.5989 -0.6679
  134MOL0     H18485   6.577   0.230   5.597 -1.4786  0.5856  0.9620
  134MOL0     H18486   6.432   0.500   5.546 -1.9785  0.2585  0.0392
  134MOL0     H18487   6.409   0.388   5.690  0.5535  3.0681  0.5190
  134MOL0     H18488   6.089   0.270   5.518  0.9955 -3.1880 -0.8431
  134MOL0     H18489   6.639   0.738   5.314  0.0504 -0.4316 -0.9070
  134MOL0     H18490   6.723   1.028   5.091  2.7417 -1.0624 -0.7729
  134MOL0     H18491   6.708   0.874   5.016 -0.2338 -0.7675  0.5621
  134MOL0     H18492   6.591   0.940   5.140 -1.0455  4.0239 -0.2877
  135MOL0     O18493   5.020   9.945   9.141 -0.0415 -0.4660 -0.0286
  135MOL0     C18494   4.955   9.841   9.150 -0.0224 -0.0969  0.4610
  135MOL0     O18495   5.002   9.713   9.154  0.5769 -0.7170 -0.9589
  135MOL0     C18496   5.135   9.682   9.156 -0.6547 -0.7928  0.2976
  135MOL0     C18497   5.200   9.655   9.036  0.0680 -0.4024  0.4262
  135MOL0     C18498   5.334   9.622   9.028  0.1112 -0.1269 -0.3261
  135MOL0     C18499   5.412   9.625   9.138 -0.8464  0.1070 -0.1859
  135MOL0     O18500   5.549   9.615   9.125  0.1104  0.0639 -0.4004
  135MOL0     C18501   5.645   9.647   9.236  1.3886  0.4332  1.0769
  135MOL0     C18502   5.768   9.643   9.157  0.2936 -0.1979 -0.2080
  135MOL0     C18503   5.890   9.622   9.250  0.2768 -0.2048  0.4069
  135MOL0     C18504   6.018   9.614   9.172 -0.1389  0.4878 -0.2351
  135MOL0     C18505   6.139   9.598   9.272 -0.2123  0.2100  0.2501
  135MOL0     C18506   6.273   9.614   9.199  0.0880 -0.7872  0.7803
  135MOL0     C18507   6.403   9.581   9.275 -0.9834  1.1894  0.5057
  135MOL0     C18508   6.439   9.659   9.401  0.5415  0.7562  0.1215
  135MOL0     N18509   6.583   9.676   9.420 -0.3769 -0.1243  0.7789
  135MOL0     C18510   6.671   9.604   9.484  0.4585  0.2584 -0.6206
  135MOL0     C18511   6.777   9.691   9.502  0.2756  0.4798 -1.0745
  135MOL0     C18512   6.916   9.658   9.570 -0.2578 -0.0567  0.3191
  135MOL0     C18513   7.040   9.631   9.477  1.0743  0.4059  1.6019
  135MOL0     C18514   7.164   9.580   9.553 -0.1799  0.0733  0.2948
  135MOL0     C18515   7.288   9.566   9.453 -0.6081  0.3984  0.4720
  135MOL0     O18516   7.319   9.700   9.422 -0.3843  0.0739  0.3216
  135MOL0     C18517   7.451   9.734   9.390 -0.7300  0.1413 -0.5347
  135MOL0     C18518   7.476   9.874   9.373  0.0914 -0.6726  0.5536
  135MOL0     C18519   7.600   9.932   9.338  0.2222 -0.0507  0.7937
  135MOL0     C18520   7.602  10.078   9.308  0.2611  0.4159  0.5263
  135MOL0     C18521   7.708   9.845   9.319  0.9356 -0.1031 -0.1671
  135MOL0     C18522   7.836   9.889   9.283 -0.2913 -0.2851 -0.4333
  135MOL0     O18523   7.935   9.800   9.296 -0.6239  0.1255  0.5400
  135MOL0     C18524   8.064   9.837   9.262  0.0420  0.7676 -0.2148
  135MOL0     C18525   8.112   9.819   9.137 -0.5413  0.9276 -0.5939
  135MOL0     C18526   8.238   9.857   9.099 -0.5618 -0.0824 -0.1336
  135MOL0     C18527   8.324   9.921   9.192 -0.9267 -0.4139  0.7253
  135MOL0     O18528   8.448   9.964   9.171 -0.3426 -0.3694  0.3054
  135MOL0     C18529   8.511   9.960   9.040  0.2266  0.6846  0.1844
  135MOL0     C18530   8.658  10.004   9.051  0.0089  0.0130 -0.1548
  135MOL0     C18531   8.739   9.923   9.159  0.0315  0.3140 -0.9213
  135MOL0     C18532   8.897   9.926   9.125  0.4963 -0.3119 -0.2385
  135MOL0     C18533   8.971   9.870   9.248  0.3935  0.1400 -0.2103
  135MOL0     C18534   9.119   9.865   9.214 -0.3551  0.2126 -0.4995
  135MOL0     C18535   9.185   9.800   9.333  0.2042  0.1692  0.5591
  135MOL0     C18536   9.332   9.788   9.325  0.8264  0.1379  0.3155
  135MOL0    Cl18537   9.430   9.937   9.341 -0.3430  0.1339  0.6930
  135MOL0     C18538   8.270   9.942   9.316  0.4795 -0.1135 -0.5538
  135MOL0     C18539   8.146   9.900   9.355 -0.0091  0.4154 -0.5880
  135MOL0     O18540   7.857  10.012   9.253  0.4128 -0.0669  0.5465
  135MOL0     C18541   7.684   9.707   9.343  0.2124  0.0879  0.0803
  135MOL0     C18542   7.559   9.645   9.365 -0.2302 -0.6634  0.4506
  135MOL0     N18543   6.751   9.807   9.433  0.3020  0.8318  0.6495
  135MOL0     N18544   6.636   9.797   9.378 -1.0783 -0.4546 -0.0780
  135MOL0     C18545   5.356   9.658   9.259  0.0708 -0.6310  0.4392
  135MOL0     C18546   5.216   9.696   9.269 -0.7618  0.3374 -0.8688
  135MOL0     C18547   4.802   9.865   9.155  0.0854 -0.5636 -0.2373
  135MOL0     C18548   4.715   9.790   9.072  0.6432  0.1582  0.3666
  135MOL0     C18549   4.576   9.815   9.053  0.2310 -0.6461  0.0328
  135MOL0     C18550   4.515   9.919   9.132 -0.2186  0.4078  0.6477
  135MOL0     O18551   4.386   9.970   9.120  0.0575  0.6947 -0.7348
  135MOL0     C18552   4.290   9.905   9.035  0.8456 -0.5647 -0.9693
  135MOL0     C18553   4.155   9.958   9.072 -0.3635  0.1566  0.6296
  135MOL0     C18554   4.133  10.082   8.986 -0.2061  0.4014 -0.7113
  135MOL0     C18555   4.019  10.183   9.037  0.3463  0.2407 -0.2970
  135MOL0     C18556   3.919  10.190   8.938  0.3412 -0.1706 -0.6921
  135MOL0     C18557   3.837  10.192   8.850  0.3103  0.1493  0.6679
  135MOL0     C18558   4.597   9.986   9.219  0.5646  0.4802 -0.3241
  135MOL0     C18559   4.732   9.959   9.230 -0.2354  0.0320 -0.4887
  135MOL0     C18560   4.802  10.033   9.342 -0.5166 -0.5027  0.1400
  135MOL0     H18561   5.144   9.657   8.943  1.5403 -1.0955 -0.4978
  135MOL0     H18562   5.383   9.589   8.937 -0.9493 -1.8111 -0.3290
  135MOL0     H18563   5.645   9.572   9.315 -0.6455  0.0396  0.7515
  135MOL0     H18564   5.626   9.749   9.271  0.0025  1.8939 -3.2273
  135MOL0     H18565   5.761   9.566   9.080 -3.3752  1.5025 -1.8179
  135MOL0     H18566   5.775   9.739   9.106 -1.0859  0.8743  1.5039
  135MOL0     H18567   5.894   9.707   9.319  2.2383  1.1206 -1.2540
  135MOL0     H18568   5.885   9.528   9.306 -3.2938 -0.2510  0.2719
  135MOL0     H18569   6.013   9.528   9.104 -0.0163 -1.8451  2.4905
  135MOL0     H18570   6.031   9.706   9.116 -1.1267  0.1374 -1.0764
  135MOL0     H18571   6.149   9.496   9.310  0.2379  0.6358  1.2815
  135MOL0     H18572   6.126   9.659   9.361  3.1594  1.4740  0.0038
  135MOL0     H18573   6.275   9.561   9.103  0.1980 -2.1332  1.4913
  135MOL0     H18574   6.293   9.716   9.166  1.6340 -0.8234  1.4890
  135MOL0     H18575   6.491   9.581   9.210 -2.2442 -1.0308 -1.3548
  135MOL0     H18576   6.410   9.473   9.292  0.4494  1.2541  0.4415
  135MOL0     H18577   6.390   9.757   9.400  0.4508  0.7561 -2.5177
  135MOL0     H18578   6.394   9.615   9.491 -1.0072 -1.2776 -1.5537
  135MOL0     H18579   6.657   9.505   9.527 -2.3118  0.2554 -1.3165
  135MOL0     H18580   6.903   9.569   9.633  1.9105 -0.7243 -0.0682
  135MOL0     H18581   6.947   9.734   9.642  0.8729  0.6346 -0.8494
  135MOL0     H18582   7.006   9.558   9.402  0.7599  0.6328  1.5190
  135MOL0     H18583   7.066   9.721   9.421  0.2185  0.5647  1.4448
  135MOL0     H18584   7.182   9.640   9.642 -1.6416  0.2342  0.5050
  135MOL0     H18585   7.142   9.479   9.588 -2.7612  0.9599  1.4615
  135MOL0     H18586   7.378   9.515   9.490  1.0602  2.1279 -0.9457
  135MOL0     H18587   7.252   9.506   9.368 -1.5109 -1.0510  1.8246
  135MOL0     H18588   7.399   9.949   9.386  1.0834  0.5790 -0.5508
  135MOL0     H18589   7.615  10.089   9.200 -3.6050  2.1794  0.0901
  135MOL0     H18590   7.679  10.135   9.362 -1.4532  1.6312  1.7877
  135MOL0     H18591   7.507  10.125   9.334 -0.0139 -0.8210  1.8964
  135MOL0     H18592   8.042   9.777   9.066 -2.3950 -2.5038  2.8550
  135MOL0     H18593   8.278   9.847   8.998  0.5289 -2.4615  0.4552
  135MOL0     H18594   8.499   9.858   9.003 -2.2383  0.5643  1.1262
  135MOL0     H18595   8.461  10.025   8.968  3.5672 -0.7990 -3.8776
  135MOL0     H18596   8.717   9.983   8.961 -0.0138  0.1795 -0.2092
  135MOL0     H18597   8.657  10.113   9.058 -1.0573  0.1344 -1.7361
  135MOL0     H18598   8.702   9.821   9.177 -1.2752  1.2053  2.1281
  135MOL0     H18599   8.729   9.977   9.254  0.5155 -2.4090  0.7857
  135MOL0     H18600   8.929  10.028   9.102 -0.0716  0.1856  1.0355
  135MOL0     H18601   8.933   9.868   9.040  2.7853  1.0886 -0.3230
  135MOL0     H18602   8.947   9.935   9.333  1.0210  1.5899 -1.1018
  135MOL0     H18603   8.935   9.769   9.267 -1.0576  0.8051  0.7670
  135MOL0     H18604   9.164   9.960   9.184  0.1638  0.1939  0.1974
  135MOL0     H18605   9.127   9.801   9.126  0.5132  1.8220 -1.6426
  135MOL0     H18606   9.138   9.701   9.336  0.1086  0.2174  0.6618
  135MOL0     H18607   9.168   9.863   9.420  0.5906  0.1884  0.6238
  135MOL0     H18608   9.367   9.740   9.233 -0.4872  1.8783 -1.1555
  135MOL0     H18609   9.358   9.723   9.409 -1.3872 -0.9649  0.2203
  135MOL0     H18610   8.311  10.001   9.397 -2.9366 -0.8643  1.9515
  135MOL0     H18611   8.106   9.917   9.454  1.6925 -0.7932  0.3616
  135MOL0     H18612   7.766   9.639   9.324  1.2271  1.0774  0.7950
  135MOL0     H18613   7.556   9.537   9.360  2.3051 -0.7816 -4.7723
  135MOL0     H18614   5.422   9.661   9.344  1.8075  1.1095 -0.8763
  135MOL0     H18615   5.181   9.731   9.366 -2.5371 -0.7456 -1.0743
  135MOL0     H18616   4.747   9.710   9.007  2.5186  1.7401 -0.7485
  135MOL0     H18617   4.509   9.766   8.984 -0.9436  1.8299 -0.6936
  135MOL0     H18618   4.313   9.931   8.931 -1.6996  0.7168 -1.2731
  135MOL0     H18619   4.292   9.796   9.051  2.7689 -0.1702  2.3138
  135MOL0     H18620   4.150   9.980   9.179 -0.5043 -1.3151  0.9534
  135MOL0     H18621   4.081   9.884   9.042  1.5314 -1.6336  0.0690
  135MOL0     H18622   4.220  10.148   8.990 -2.5790  3.6959  1.8012
  135MOL0     H18623   4.129  10.057   8.879  0.8329  3.1963 -1.4806
  135MOL0     H18624   4.064  10.282   9.038  0.3838  0.2893 -2.5395
  135MOL0     H18625   3.985  10.150   9.136 -0.2705  0.8012 -0.3153
  135MOL0     H18626   3.772  10.210   8.766  2.6194  1.1608 -0.9887
  135MOL0     H18627   4.535  10.051   9.279 -1.3794 -1.9722  0.5013
  135MOL0     H18628   4.881  10.100   9.308 -0.1125 -2.0557 -2.2804
  135MOL0     H18629   4.733  10.098   9.395  0.3357 -1.3437  2.4247
  135MOL0     H18630   4.839   9.960   9.415 -1.0632  2.4201  3.5791
  136MOL0     O18631   9.068   9.627   0.249 -0.5028  0.2258 -0.0586
  136MOL0     C18632   9.046   9.534   0.326  0.0786 -0.3949 -0.1981
  136MOL0     O18633   9.136   9.482   0.419 -0.4399 -0.2616  0.0203
  136MOL0     C18634   9.263   9.528   0.412 -0.1101  0.6719 -0.5780
  136MOL0     C18635   9.356   9.462   0.329 -0.1922 -0.4751  0.4623
  136MOL0     C18636   9.489   9.506   0.316 -0.1386  0.2900 -0.7862
  136MOL0     C18637   9.528   9.628   0.378 -0.3003  0.1498  0.5534
  136MOL0     O18638   9.663   9.648   0.380 -0.3924 -0.5826  0.1552
  136MOL0     C18639   9.721   9.731   0.481  0.3652  0.2543 -0.3479
  136MOL0     C18640   9.875   9.722   0.477  0.2836  0.4673 -0.3141
  136MOL0     C18641   9.930   9.773   0.345  0.1902 -0.1982  0.7244
  136MOL0     C18642  10.071   9.835   0.365  0.1891  0.2107 -0.1708
  136MOL0     C18643  10.130   9.878   0.228 -0.2983 -0.0665  0.9400
  136MOL0     C18644  10.249   9.963   0.256  0.9205  0.1161 -0.2830
  136MOL0     C18645  10.375   9.875   0.288  0.2310 -0.0207 -0.6374
  136MOL0     C18646  10.483   9.979   0.311 -0.4129  0.4194 -0.0457
  136MOL0     N18647  10.527  10.048   0.190  0.1293 -0.3617  0.8151
  136MOL0     C18648  10.533   9.992   0.058  0.8363 -0.4850  0.1948
  136MOL0     C18649  10.557  10.097  -0.023  0.1063  0.4240 -0.3337
  136MOL0     C18650  10.559  10.082  -0.172  0.4783  0.0270 -0.0522
  136MOL0     C18651  10.702  10.108  -0.226  0.6824  0.4041 -0.4688
  136MOL0     C18652  10.807   9.989  -0.204 -0.6370  0.3115  0.7351
  136MOL0     C18653  10.947  10.047  -0.237  0.0861 -0.6089  0.0577
  136MOL0     O18654  10.960  10.065  -0.383  0.2634 -0.0433 -0.1507
  136MOL0     C18655  11.080  10.064  -0.448 -0.0805 -1.4857 -0.8194
  136MOL0     C18656  11.090  10.065  -0.590  0.3834 -0.4115 -0.4252
  136MOL0     C18657  11.211  10.077  -0.665  0.2070 -0.3590 -0.2328
  136MOL0     C18658  11.209  10.055  -0.809  0.1669 -0.3868 -0.1564
  136MOL0     C18659  11.330  10.091  -0.592 -0.4371  0.3017 -1.3608
  136MOL0     C18660  11.470  10.107  -0.663  0.3536  0.0053 -0.4441
  136MOL0     O18661  11.581  10.072  -0.582 -0.4809  0.1237 -0.8162
  136MOL0     C18662  11.704  10.085  -0.640 -0.6357 -0.2991  0.2929
  136MOL0     C18663  11.767   9.980  -0.700 -0.1535  0.0977  0.3138
  136MOL0     C18664  11.889   9.993  -0.771 -0.6047  0.9002  0.0316
  136MOL0     C18665  11.956  10.110  -0.759 -0.2414 -0.1608 -0.1980
  136MOL0     O18666  12.085  10.135  -0.813  0.0785 -0.8905 -0.1663
  136MOL0     C18667  12.187  10.082  -0.732 -0.3835 -0.1693 -0.4680
  136MOL0     C18668  12.315  10.144  -0.776 -0.3232  0.2353 -0.3086
  136MOL0     C18669  12.337  10.297  -0.751 -0.8968  0.2625 -0.0371
  136MOL0     C18670  12.486  10.326  -0.757 -0.0206  0.7744 -0.4708
  136MOL0     C18671  12.538  10.327  -0.901  0.6230 -0.7902  0.2345
  136MOL0     C18672  12.681  10.393  -0.891 -0.5691 -0.0520  0.5989
  136MOL0     C18673  12.746  10.407  -1.029 -0.0587 -0.0731  0.2349
  136MOL0     C18674  12.878  10.483  -1.035 -0.0676 -0.4125  0.4466
  136MOL0    Cl18675  13.023  10.372  -1.015 -0.4309 -0.2410  0.0031
  136MOL0     C18676  11.894  10.218  -0.692 -0.3849  1.0555  0.3240
  136MOL0     C18677  11.768  10.211  -0.636  0.4599 -0.1623  0.8205
  136MOL0     O18678  11.481  10.147  -0.777  0.0172 -0.1363  0.1393
  136MOL0     C18679  11.325  10.095  -0.444  0.4952 -0.3165  1.0825
  136MOL0     C18680  11.201  10.089  -0.380 -0.9995  0.1705 -0.5441
  136MOL0     N18681  10.558  10.212   0.054  0.2772  0.2728  1.6517
  136MOL0     N18682  10.528  10.179   0.175 -0.8216  0.0371  0.9590
  136MOL0     C18683   9.435   9.696   0.455  0.3001 -0.7238  0.4264
  136MOL0     C18684   9.304   9.652   0.459  0.0090  0.0789 -0.2566
  136MOL0     C18685   8.908   9.494   0.343  0.5027  0.1467  0.9285
  136MOL0     C18686   8.856   9.418   0.235  0.0964  0.1160 -0.8043
  136MOL0     C18687   8.723   9.373   0.242 -0.0345 -0.0577 -0.2071
  136MOL0     C18688   8.639   9.405   0.353  0.0305  0.1598 -0.0044
  136MOL0     O18689   8.515   9.370   0.348  0.7959  0.1080 -0.2179
  136MOL0     C18690   8.421   9.384   0.458  0.7165 -0.7382  0.1892
  136MOL0     C18691   8.285   9.330   0.418 -0.5073  0.0409  0.7715
  136MOL0     C18692   8.280   9.175   0.423 -0.6368 -0.0081  0.0551
  136MOL0     C18693   8.141   9.111   0.437 -0.2731  0.0788 -0.3969
  136MOL0     C18694   8.042   9.174   0.349  0.8130 -0.0603  0.3407
  136MOL0     C18695   7.970   9.241   0.277 -0.4420  0.3167  0.3556
  136MOL0     C18696   8.697   9.480   0.459 -0.1625  0.3190  0.2517
  136MOL0     C18697   8.828   9.519   0.452  0.6926 -0.1493 -0.4598
  136MOL0     C18698   8.880   9.624   0.542  0.2721  0.3438  0.0767
  136MOL0     H18699   9.342   9.368   0.276 -1.7354  0.8018 -1.5653
  136MOL0     H18700   9.561   9.449   0.260 -0.8193 -1.6897  0.2711
  136MOL0     H18701   9.686   9.707   0.582 -0.6692  0.2257 -0.6997
  136MOL0     H18702   9.701   9.838   0.472  1.0336  0.5441  1.2343
  136MOL0     H18703   9.920   9.789   0.551  0.0281 -0.4269  0.6596
  136MOL0     H18704   9.901   9.619   0.499 -1.1151  0.0941 -0.3252
  136MOL0     H18705   9.941   9.691   0.273 -1.0563  1.0302 -0.9616
  136MOL0     H18706   9.871   9.845   0.287  2.5462 -0.4866 -2.2591
  136MOL0     H18707  10.067   9.925   0.428  1.1451  0.2011 -0.0870
  136MOL0     H18708  10.129   9.767   0.427 -0.8858 -0.4822  0.1094
  136MOL0     H18709  10.065   9.940   0.166 -1.6614 -3.5902 -1.4194
  136MOL0     H18710  10.149   9.786   0.173  0.5100  0.1251  0.8829
  136MOL0     H18711  10.266  10.015   0.161  0.0301  0.8263 -0.0606
  136MOL0     H18712  10.227  10.034   0.336 -2.4136 -2.1998  1.0882
  136MOL0     H18713  10.400   9.806   0.207  1.2952  0.9759 -1.1842
  136MOL0     H18714  10.363   9.813   0.377  0.7628 -0.1494 -0.6515
  136MOL0     H18715  10.452  10.059   0.379 -0.1785  1.3176 -0.9718
  136MOL0     H18716  10.571   9.926   0.350 -0.4721 -0.3488 -0.9242
  136MOL0     H18717  10.504   9.888   0.047 -1.7387 -0.5273  4.6874
  136MOL0     H18718  10.482  10.145  -0.217 -0.7386 -1.4610 -0.1009
  136MOL0     H18719  10.526   9.981  -0.194 -1.3088  0.5515  0.0708
  136MOL0     H18720  10.687  10.131  -0.332 -0.6247 -1.7094 -0.7990
  136MOL0     H18721  10.734  10.201  -0.178 -1.5537  2.3430 -2.4988
  136MOL0     H18722  10.799   9.965  -0.098 -0.5058 -2.4530  0.2050
  136MOL0     H18723  10.782   9.898  -0.260 -0.0914  0.0892  0.8467
  136MOL0     H18724  10.952  10.146  -0.190  2.5848 -0.6451  0.0098
  136MOL0     H18725  11.023   9.982  -0.193  2.2371  2.6462  1.5668
  136MOL0     H18726  10.998  10.044  -0.645  0.3667  3.2456 -2.0923
  136MOL0     H18727  11.290   9.993  -0.848  1.8288  1.3146  0.4561
  136MOL0     H18728  11.207  10.155  -0.854  0.3833 -0.3487 -0.0841
  136MOL0     H18729  11.114  10.010  -0.838 -0.1329 -0.6584  1.1924
  136MOL0     H18730  11.731   9.878  -0.691  2.0936 -0.7988 -0.1683
  136MOL0     H18731  11.941   9.910  -0.819  2.3790  2.1422  0.8473
  136MOL0     H18732  12.171  10.094  -0.624 -2.5271 -4.8110  0.0034
  136MOL0     H18733  12.196   9.975  -0.751  1.2025  0.4236 -3.6844
  136MOL0     H18734  12.398  10.094  -0.726  0.5143 -0.6574 -2.4827
  136MOL0     H18735  12.339  10.114  -0.878  0.0394 -0.1418 -0.1162
  136MOL0     H18736  12.321  10.321  -0.645  1.3091 -0.4328  0.5114
  136MOL0     H18737  12.281  10.368  -0.813 -0.9601 -0.2318 -0.5462
  136MOL0     H18738  12.542  10.254  -0.696 -0.8862 -0.0603 -0.6250
  136MOL0     H18739  12.497  10.427  -0.719  1.4101  1.1065 -1.6640
  136MOL0     H18740  12.540  10.229  -0.950 -1.5700 -1.1151  0.6971
  136MOL0     H18741  12.478  10.394  -0.964 -1.2413 -2.3905  0.2058
  136MOL0     H18742  12.735  10.322  -0.828  1.7329  1.1570  0.0708
  136MOL0     H18743  12.692  10.488  -0.838  0.8366 -0.0067  0.2705
  136MOL0     H18744  12.668  10.466  -1.078  1.2094  0.6119 -1.0315
  136MOL0     H18745  12.759  10.314  -1.086  2.3850  0.7522 -0.6960
  136MOL0     H18746  12.886  10.556  -0.955  1.3639  0.0692 -0.0893
  136MOL0     H18747  12.885  10.535  -1.131 -1.7414  1.9047  1.4904
  136MOL0     H18748  11.945  10.314  -0.687  0.5464  0.5248  3.8904
  136MOL0     H18749  11.720  10.302  -0.600  0.2166  0.3876 -0.7895
  136MOL0     H18750  11.411  10.106  -0.379 -1.1958 -0.6219  3.5259
  136MOL0     H18751  11.215  10.101  -0.273  1.9247  0.2421 -0.8482
  136MOL0     H18752   9.466   9.793   0.493 -1.3542  0.2588 -0.5871
  136MOL0     H18753   9.238   9.719   0.513  2.1749  0.4556  2.1487
  136MOL0     H18754   8.929   9.389   0.160  1.6453 -0.0423  0.7293
  136MOL0     H18755   8.698   9.308   0.159  1.9327 -3.0454  1.3751
  136MOL0     H18756   8.467   9.335   0.544  1.8883 -1.4968 -0.8255
  136MOL0     H18757   8.410   9.490   0.478 -0.3038 -0.6249 -0.8750
  136MOL0     H18758   8.268   9.356   0.313  1.5043  1.4995  0.7601
  136MOL0     H18759   8.203   9.354   0.487 -0.1884 -0.3086  1.2757
  136MOL0     H18760   8.322   9.140   0.328 -1.4054 -1.0825  0.0908
  136MOL0     H18761   8.337   9.139   0.509 -1.5563 -1.6084  0.0391
  136MOL0     H18762   8.099   9.126   0.536 -0.2993 -1.3261 -0.1674
  136MOL0     H18763   8.137   9.004   0.411 -0.2540 -0.4186  1.5072
  136MOL0     H18764   7.920   9.300   0.203 -2.4934 -3.4315 -1.5045
  136MOL0     H18765   8.656   9.492   0.559  0.4898  0.3662  0.5153
  136MOL0     H18766   8.865   9.721   0.494 -1.3385  0.5936  1.0051
  136MOL0     H18767   8.821   9.637   0.634 -2.1302 -0.7345 -1.2222
  136MOL0     H18768   8.981   9.604   0.578  0.1497 -0.6449 -0.0965
  137MOL0     O18769   6.588   1.928   8.832 -0.1594 -0.2279  0.2267
  137MOL0     C18770   6.505   2.011   8.857  0.6246 -0.1136  0.0607
  137MOL0     O18771   6.526   2.142   8.894 -0.3471  0.0376 -0.3699
  137MOL0     C18772   6.645   2.201   8.939  0.7335  0.1034  0.2531
  137MOL0     C18773   6.628   2.322   9.011  0.8793 -0.4461 -0.4952
  137MOL0     C18774   6.743   2.382   9.064  0.0566 -0.6012 -0.0700
  137MOL0     C18775   6.871   2.340   9.037 -1.0153 -1.1416  0.1563
  137MOL0     O18776   6.978   2.413   9.092  0.8420  0.3831 -0.3797
  137MOL0     C18777   7.088   2.446   9.001 -0.1249  0.0277 -0.1187
  137MOL0     C18778   7.155   2.576   9.034  0.6828  0.1885 -0.3321
  137MOL0     C18779   7.227   2.580   9.173 -0.5696  0.0299  0.8283
  137MOL0     C18780   7.267   2.726   9.202 -0.7543 -0.1086  0.4405
  137MOL0     C18781   7.349   2.751   9.328  0.2894  0.2961 -0.0255
  137MOL0     C18782   7.418   2.882   9.326  0.0716  0.0964 -0.3429
  137MOL0     C18783   7.478   2.914   9.470  0.6594 -0.4154 -0.1779
  137MOL0     C18784   7.595   2.834   9.513  0.7507 -0.2558 -0.9423
  137MOL0     N18785   7.636   2.893   9.639 -0.6722 -0.3025 -0.6159
  137MOL0     C18786   7.577   2.869   9.761 -0.9005 -0.5617 -0.0036
  137MOL0     C18787   7.644   2.952   9.845 -0.1522 -0.4807 -0.9509
  137MOL0     C18788   7.636   2.950  10.000 -0.7237 -0.0281  0.9093
  137MOL0     C18789   7.726   2.846  10.069  0.1208  0.3286  0.4393
  137MOL0     C18790   7.706   2.867  10.220  0.4265  0.1682 -0.2324
  137MOL0     C18791   7.822   2.807  10.302 -0.9537 -0.5655 -0.1747
  137MOL0     O18792   7.868   2.679  10.260 -0.6115  0.4078 -0.1271
  137MOL0     C18793   7.987   2.644  10.312 -0.3473 -0.2814  0.2356
  137MOL0     C18794   8.091   2.612  10.216  0.1616  0.3707  0.3424
  137MOL0     C18795   8.226   2.589  10.258 -0.3411  0.1812  0.2840
  137MOL0     C18796   8.324   2.559  10.150  0.7184 -0.1914  0.0611
  137MOL0     C18797   8.266   2.597  10.391 -0.3862 -0.8974 -0.2276
  137MOL0     C18798   8.401   2.557  10.431 -0.2305 -0.0691 -0.1049
  137MOL0     O18799   8.493   2.649  10.462  0.1898 -0.1904 -0.1731
  137MOL0     C18800   8.626   2.622  10.458 -0.3389 -0.0243 -0.4780
  137MOL0     C18801   8.692   2.538  10.369  0.4851  0.3449  0.2786
  137MOL0     C18802   8.833   2.529  10.366  0.1173  0.4576 -0.4367
  137MOL0     C18803   8.911   2.604  10.452 -0.1764  1.1176 -0.7744
  137MOL0     O18804   9.048   2.594  10.463 -0.4553 -0.1809  0.0309
  137MOL0     C18805   9.119   2.489  10.403  0.5075 -0.7133  0.2764
  137MOL0     C18806   9.264   2.526  10.418  0.8098 -0.7264  0.1704
  137MOL0     C18807   9.343   2.432  10.321 -1.3923 -0.1362  0.2800
  137MOL0     C18808   9.491   2.448  10.356 -0.3150  0.1249  0.4436
  137MOL0     C18809   9.592   2.368  10.270 -0.2463 -0.1521  0.3361
  137MOL0     C18810   9.614   2.219  10.310 -0.8817 -0.2067 -0.3800
  137MOL0     C18811   9.701   2.155  10.197  0.7161 -0.3849  0.1125
  137MOL0     C18812   9.790   2.052  10.255  0.1302 -0.8211 -0.4099
  137MOL0    Cl18813   9.897   1.982  10.132  0.3445  0.4419  0.2550
  137MOL0     C18814   8.848   2.706  10.523  0.3546  0.1769 -1.1631
  137MOL0     C18815   8.704   2.714  10.532  0.4987  0.6872 -0.2257
  137MOL0     O18816   8.420   2.433  10.406  0.3635 -0.4678  0.1065
  137MOL0     C18817   8.167   2.623  10.482  1.1453 -0.0193  0.6598
  137MOL0     C18818   8.032   2.647  10.448 -0.3181 -0.2376  0.3032
  137MOL0     N18819   7.743   3.012   9.788 -0.7744 -0.4274  0.4967
  137MOL0     N18820   7.745   2.982   9.661 -0.2684 -1.0013 -0.0005
  137MOL0     C18821   6.888   2.223   8.968 -0.5179 -0.5871  0.5445
  137MOL0     C18822   6.770   2.150   8.925  0.1296 -0.3301  1.1227
  137MOL0     C18823   6.357   1.971   8.843 -0.3606 -0.1320 -1.1675
  137MOL0     C18824   6.323   1.845   8.891 -0.3583 -0.8601  0.3600
  137MOL0     C18825   6.198   1.794   8.883 -0.5504  0.6097 -0.5649
  137MOL0     C18826   6.095   1.878   8.840  0.2415 -0.2305 -0.4559
  137MOL0     O18827   5.965   1.850   8.840 -0.1402  0.9926  0.2468
  137MOL0     C18828   5.919   1.798   8.964 -0.1340 -0.9244  0.4307
  137MOL0     C18829   5.768   1.810   8.967  0.9433  0.2258  0.2994
  137MOL0     C18830   5.711   1.945   8.931  0.5079  0.8240  0.0338
  137MOL0     C18831   5.558   1.936   8.895 -0.0209 -1.0103  0.0799
  137MOL0     C18832   5.543   1.996   8.753  0.3368 -0.4177 -0.0577
  137MOL0     C18833   5.541   2.060   8.649  0.4618 -0.5903 -0.1494
  137MOL0     C18834   6.123   2.005   8.796 -0.3159  0.5740 -0.6469
  137MOL0     C18835   6.260   2.053   8.783 -0.1846  0.3051 -0.8801
  137MOL0     C18836   6.287   2.190   8.735 -0.0831  0.1799  0.8927
  137MOL0     H18837   6.532   2.370   9.029  0.3803 -0.6222 -2.4602
  137MOL0     H18838   6.744   2.467   9.131 -0.3235  0.9189 -1.9170
  137MOL0     H18839   7.058   2.447   8.896 -0.7546  0.7782  0.0616
  137MOL0     H18840   7.165   2.369   9.009  1.7616  1.9842  3.0075
  137MOL0     H18841   7.229   2.600   8.957 -0.1507 -0.2516 -1.2973
  137MOL0     H18842   7.075   2.650   9.036  1.2164  0.8052  2.4283
  137MOL0     H18843   7.154   2.560   9.252 -1.5987 -0.9886 -0.3455
  137MOL0     H18844   7.307   2.507   9.168 -0.0932  0.6219 -0.5928
  137MOL0     H18845   7.335   2.752   9.121 -0.0663 -1.0887  0.6946
  137MOL0     H18846   7.181   2.793   9.193  0.3052  1.4485  1.3638
  137MOL0     H18847   7.433   2.681   9.321  1.3162  1.6312 -3.2835
  137MOL0     H18848   7.285   2.730   9.414 -2.2991 -1.5552 -2.2062
  137MOL0     H18849   7.487   2.901   9.244 -1.7993  2.7001 -1.4624
  137MOL0     H18850   7.354   2.969   9.306  1.5378  0.9065 -1.7132
  137MOL0     H18851   7.400   2.910   9.546 -0.9069  0.2076 -1.6923
  137MOL0     H18852   7.507   3.019   9.462  4.0241 -1.3166 -1.8664
  137MOL0     H18853   7.557   2.734   9.534  0.2771  0.0112 -0.4748
  137MOL0     H18854   7.672   2.832   9.436  2.1723  0.4481  0.4014
  137MOL0     H18855   7.498   2.799   9.785 -0.1178 -1.5139 -0.1175
  137MOL0     H18856   7.540   2.945  10.052 -0.6417 -0.8587  0.9981
  137MOL0     H18857   7.689   3.043  10.023  1.8323 -1.5278  1.4531
  137MOL0     H18858   7.693   2.746  10.036 -0.4522  1.2349 -2.0156
  137MOL0     H18859   7.825   2.868  10.028 -1.4306  4.2896 -1.7459
  137MOL0     H18860   7.710   2.975  10.237 -3.3245  0.6471 -1.3908
  137MOL0     H18861   7.613   2.826  10.261  0.8326  2.9679  4.1249
  137MOL0     H18862   7.906   2.877  10.302 -0.9006 -0.6225 -0.9378
  137MOL0     H18863   7.791   2.791  10.406  2.8963  0.9472  1.3990
  137MOL0     H18864   8.044   2.606  10.118  2.1221  2.4111 -0.8237
  137MOL0     H18865   8.270   2.593  10.061  1.5199 -0.0545 -0.3807
  137MOL0     H18866   8.344   2.452  10.145  0.8344 -0.2071  0.7564
  137MOL0     H18867   8.419   2.612  10.156  0.1550  0.7867  0.6971
  137MOL0     H18868   8.634   2.469  10.308  0.6078  0.1738  0.3546
  137MOL0     H18869   8.877   2.446  10.311  0.3162  1.9149 -2.5807
  137MOL0     H18870   9.105   2.391  10.449 -1.0562  0.0187  1.4537
  137MOL0     H18871   9.097   2.486  10.296 -4.2284  0.4417  0.9789
  137MOL0     H18872   9.284   2.629  10.387  0.0189 -0.8294 -0.7189
  137MOL0     H18873   9.294   2.507  10.522 -2.5012 -2.9286  0.8727
  137MOL0     H18874   9.328   2.460  10.216 -1.0592 -0.0446  0.2561
  137MOL0     H18875   9.322   2.325  10.333  0.3496 -0.5828 -0.3547
  137MOL0     H18876   9.502   2.409  10.458 -1.0106 -0.6011  0.2433
  137MOL0     H18877   9.526   2.552  10.354  0.2470 -0.0082  1.8442
  137MOL0     H18878   9.573   2.367  10.162  1.6886 -3.0210 -0.1168
  137MOL0     H18879   9.690   2.414  10.280 -0.5691  0.8031 -0.7114
  137MOL0     H18880   9.518   2.167  10.314 -0.3749 -1.2402 -1.2466
  137MOL0     H18881   9.662   2.223  10.408  1.2828 -0.9276 -1.3533
  137MOL0     H18882   9.765   2.229  10.147  0.0810 -0.2940 -0.5766
  137MOL0     H18883   9.636   2.115  10.119 -0.4062 -1.6414  1.6364
  137MOL0     H18884   9.731   1.982  10.315 -5.1769  3.0667 -0.3952
  137MOL0     H18885   9.856   2.113  10.318  0.1544  0.2077 -1.3982
  137MOL0     H18886   8.911   2.777  10.575  0.1700  0.4167 -1.2702
  137MOL0     H18887   8.654   2.789  10.591  1.2048  1.4444 -0.5658
  137MOL0     H18888   8.181   2.608  10.588  0.9311 -3.5764  0.3034
  137MOL0     H18889   7.959   2.678  10.523  1.1449  0.3991  1.4985
  137MOL0     H18890   6.984   2.175   8.952  0.1061  0.4752  0.9590
  137MOL0     H18891   6.776   2.058   8.868  2.2994 -0.2078  1.0616
  137MOL0     H18892   6.400   1.782   8.934  1.3069  0.1202 -1.0272
  137MOL0     H18893   6.188   1.693   8.922  2.1111  0.0154 -1.2013
  137MOL0     H18894   5.943   1.695   8.993 -2.2886 -1.0829  1.8543
  137MOL0     H18895   5.969   1.861   9.038  1.2903  1.3692 -2.3181
  137MOL0     H18896   5.738   1.803   9.072  0.9680  0.9647  0.3616
  137MOL0     H18897   5.721   1.732   8.907 -0.1340 -0.6142  2.1359
  137MOL0     H18898   5.718   2.018   9.012 -1.9315  0.4997  0.6301
  137MOL0     H18899   5.765   1.982   8.844  3.0746 -4.7852 -1.2010
  137MOL0     H18900   5.500   2.000   8.962  0.8053 -0.1709  0.0053
  137MOL0     H18901   5.522   1.833   8.896 -0.1391 -1.0034 -1.4584
  137MOL0     H18902   5.520   2.121   8.563 -2.8138 -0.0422  0.8997
  137MOL0     H18903   6.037   2.065   8.766 -0.2898  0.4646 -0.9398
  137MOL0     H18904   6.378   2.194   8.675  0.3263  2.4349  1.5752
  137MOL0     H18905   6.209   2.232   8.670  1.8734  1.9600 -0.4373
  137MOL0     H18906   6.303   2.254   8.822  2.9900 -0.2918  0.7988
  138MOL0     O18907  10.315   9.243   4.679  0.4672 -0.5096 -0.8511
  138MOL0     C18908  10.258   9.356   4.669 -0.0616 -0.7308 -0.1282
  138MOL0     O18909  10.327   9.481   4.666 -0.0215  0.1429 -0.0137
  138MOL0     C18910  10.462   9.495   4.655  0.4268 -0.4639  0.0066
  138MOL0     C18911  10.498   9.627   4.674  0.3873 -0.0442  0.3095
  138MOL0     C18912  10.631   9.664   4.666 -0.3372 -0.1636 -0.1737
  138MOL0     C18913  10.735   9.568   4.653  0.4918  0.7986 -0.6054
  138MOL0     O18914  10.860   9.608   4.672 -0.5946 -0.3477 -0.1271
  138MOL0     C18915  10.959   9.508   4.650 -0.0782 -0.2114  0.1587
  138MOL0     C18916  11.103   9.560   4.656 -0.0008  0.3380 -0.5002
  138MOL0     C18917  11.126   9.613   4.795 -0.0424  0.2981 -0.3290
  138MOL0     C18918  11.277   9.645   4.821  0.3890  0.6176  0.5658
  138MOL0     C18919  11.304   9.653   4.977 -0.1065  0.2186 -0.5891
  138MOL0     C18920  11.313   9.510   5.042  0.5053 -0.6566  0.1160
  138MOL0     C18921  11.352   9.507   5.195 -0.1931 -0.5836 -0.4899
  138MOL0     C18922  11.508   9.486   5.209  0.2266  0.3541 -0.8979
  138MOL0     N18923  11.560   9.479   5.349  0.1409 -0.6839  0.1318
  138MOL0     C18924  11.687   9.426   5.381  0.6603  0.5342 -0.2065
  138MOL0     C18925  11.678   9.409   5.517  0.1392 -0.0818 -0.0980
  138MOL0     C18926  11.796   9.336   5.584  0.1516  0.7471 -0.1967
  138MOL0     C18927  11.934   9.414   5.590  0.0715  0.7827  0.3227
  138MOL0     C18928  12.035   9.345   5.686  0.2057 -0.6846  0.3949
  138MOL0     C18929  12.172   9.411   5.666  0.3641  0.1329 -0.2123
  138MOL0     O18930  12.270   9.339   5.753  0.5814  0.4745  0.0290
  138MOL0     C18931  12.405   9.346   5.734  0.0997 -0.0762 -0.1643
  138MOL0     C18932  12.480   9.249   5.781 -0.0447  0.2297  0.4912
  138MOL0     C18933  12.615   9.258   5.781 -0.3301 -0.7875  0.0322
  138MOL0     C18934  12.688   9.134   5.826  0.5662  0.2628 -0.9589
  138MOL0     C18935  12.683   9.375   5.740 -0.0304 -0.8471 -0.3855
  138MOL0     C18936  12.832   9.400   5.746 -0.2677 -0.3768 -0.5364
  138MOL0     O18937  12.868   9.527   5.724 -0.5230  0.3071 -0.8281
  138MOL0     C18938  12.997   9.569   5.754  0.2607  1.3768 -0.3448
  138MOL0     C18939  13.119   9.512   5.712  0.7076  0.0143  0.2618
  138MOL0     C18940  13.246   9.555   5.765  0.7001  0.0611  0.2081
  138MOL0     C18941  13.248   9.649   5.874 -0.5577  0.3803  0.2668
  138MOL0     O18942  13.362   9.683   5.934  0.1463  0.6347 -0.4099
  138MOL0     C18943  13.453   9.768   5.851  0.7978  0.0033  0.4649
  138MOL0     C18944  13.595   9.768   5.907  0.5324 -0.3765  0.5275
  138MOL0     C18945  13.718   9.808   5.820  0.0892  0.1027  0.3899
  138MOL0     C18946  13.842   9.817   5.900 -0.1876  0.6494 -0.3597
  138MOL0     C18947  13.951   9.877   5.812 -0.2683  0.3369  0.0154
  138MOL0     C18948  14.004   9.775   5.709 -0.1583  0.1566 -0.2159
  138MOL0     C18949  14.143   9.820   5.650 -0.0574 -0.8848 -0.0739
  138MOL0     C18950  14.170   9.756   5.512  0.7913 -0.1592 -0.2643
  138MOL0    Cl18951  14.179   9.575   5.518 -0.3112 -0.4404 -0.0356
  138MOL0     C18952  13.126   9.695   5.923 -1.1600  0.4441 -0.2847
  138MOL0     C18953  13.007   9.655   5.862  0.0001  0.1739  0.0215
  138MOL0     O18954  12.910   9.313   5.780 -0.6569  1.0473 -0.1585
  138MOL0     C18955  12.607   9.476   5.683  0.0808  0.9502 -0.1549
  138MOL0     C18956  12.468   9.467   5.682  0.1332 -0.3259  0.4905
  138MOL0     N18957  11.553   9.434   5.568 -0.2818  0.1807 -0.1803
  138MOL0     N18958  11.485   9.479   5.463  0.0086  0.4211 -0.2782
  138MOL0     C18959  10.696   9.431   4.645 -0.4427 -0.6234  0.1057
  138MOL0     C18960  10.561   9.397   4.641  0.0092 -0.1262  0.1531
  138MOL0     C18961  10.115   9.348   4.636  0.4929  0.4329  0.4111
  138MOL0     C18962  10.062   9.240   4.563 -0.5314  0.7908  0.6006
  138MOL0     C18963   9.930   9.237   4.520 -0.3036  0.6785  0.9782
  138MOL0     C18964   9.852   9.354   4.527  0.7091  0.3144  0.1384
  138MOL0     O18965   9.719   9.371   4.488  0.0690  0.8081  0.3264
  138MOL0     C18966   9.647   9.242   4.478 -0.2463 -0.3966  0.4977
  138MOL0     C18967   9.499   9.282   4.485 -0.6247  0.3167  0.9603
  138MOL0     C18968   9.448   9.351   4.610  0.3065  0.7306  0.7683
  138MOL0     C18969   9.301   9.403   4.586 -0.2523 -0.2919  0.8742
  138MOL0     C18970   9.274   9.499   4.693 -0.1909 -0.1811 -0.1971
  138MOL0     C18971   9.243   9.578   4.788 -0.6828  0.5521  0.3725
  138MOL0     C18972   9.900   9.468   4.593 -0.3600  0.7339 -0.4071
  138MOL0     C18973  10.033   9.466   4.648 -0.9183 -0.2772  0.1676
  138MOL0     C18974  10.065   9.600   4.713 -0.4629  0.2009 -0.9979
  138MOL0     H18975  10.426   9.704   4.700 -1.5341 -1.5764 -0.1537
  138MOL0     H18976  10.647   9.771   4.673  0.5331 -0.3970  2.2020
  138MOL0     H18977  10.947   9.460   4.552 -1.0237 -0.6199  0.4583
  138MOL0     H18978  10.954   9.424   4.720  0.4619 -2.2266 -2.0714
  138MOL0     H18979  11.175   9.486   4.620 -3.0475 -1.7735 -2.7033
  138MOL0     H18980  11.093   9.640   4.581 -0.5150 -0.4921 -1.3308
  138MOL0     H18981  11.069   9.705   4.809 -0.3721  0.2923 -1.5012
  138MOL0     H18982  11.089   9.537   4.864 -0.2273  0.7402  0.0658
  138MOL0     H18983  11.348   9.581   4.767 -1.6475 -0.1824 -1.3176
  138MOL0     H18984  11.302   9.742   4.775 -0.6666  1.1258  1.0291
  138MOL0     H18985  11.235   9.717   5.031  0.6755 -0.0122  0.7253
  138MOL0     H18986  11.407   9.691   4.978 -0.5666  1.4798  0.2390
  138MOL0     H18987  11.214   9.463   5.040  0.1943 -0.0713  1.1323
  138MOL0     H18988  11.390   9.461   4.982 -0.4167 -2.7301  0.5124
  138MOL0     H18989  11.287   9.443   5.254 -0.4723 -1.2019 -1.4617
  138MOL0     H18990  11.335   9.606   5.239  0.0241 -1.5434  1.9114
  138MOL0     H18991  11.542   9.392   5.164  0.4060 -0.0772  0.1199
  138MOL0     H18992  11.559   9.571   5.162  1.1824 -0.3567 -1.2083
  138MOL0     H18993  11.772   9.393   5.322  1.9467 -0.2863  1.9777
  138MOL0     H18994  11.812   9.245   5.525  1.6717  0.7633  0.1437
  138MOL0     H18995  11.763   9.302   5.682  1.5483 -2.6933 -0.7812
  138MOL0     H18996  11.975   9.418   5.489  0.7551  2.0593  0.6217
  138MOL0     H18997  11.915   9.516   5.626 -0.6735 -0.1995  2.8626
  138MOL0     H18998  11.992   9.359   5.786 -0.5016 -1.0118  0.1448
  138MOL0     H18999  12.033   9.236   5.677  1.8765 -0.8997  2.0885
  138MOL0     H19000  12.190   9.401   5.558 -1.6971  0.9749 -0.6762
  138MOL0     H19001  12.172   9.518   5.690 -0.0963 -0.2496  1.6354
  138MOL0     H19002  12.429   9.165   5.829  3.7588 -2.4727  0.3251
  138MOL0     H19003  12.765   9.107   5.754  1.1845 -0.0257 -0.2106
  138MOL0     H19004  12.630   9.042   5.843  3.8010 -1.6258  0.8682
  138MOL0     H19005  12.736   9.162   5.920  0.3079  0.1686 -0.7974
  138MOL0     H19006  13.121   9.450   5.623 -1.0605  1.3254 -0.7765
  138MOL0     H19007  13.333   9.530   5.705 -0.1471 -0.4210 -0.8599
  138MOL0     H19008  13.457   9.726   5.750  0.5269 -0.5266  0.6663
  138MOL0     H19009  13.410   9.868   5.844 -0.1892 -0.4785 -0.7060
  138MOL0     H19010  13.583   9.836   5.991 -1.4992 -0.8741  0.6811
  138MOL0     H19011  13.611   9.666   5.944 -2.1724 -0.3490  2.0065
  138MOL0     H19012  13.702   9.904   5.770 -0.4943  0.6323  1.5553
  138MOL0     H19013  13.729   9.725   5.750  1.2600  1.5907 -1.2573
  138MOL0     H19014  13.870   9.720   5.942  0.0182  0.6949 -0.3917
  138MOL0     H19015  13.834   9.893   5.978  1.4144  2.3495 -1.7720
  138MOL0     H19016  13.915   9.965   5.758 -2.7676  0.8077  2.2134
  138MOL0     H19017  14.034   9.908   5.875 -0.1105  0.3276 -0.1868
  138MOL0     H19018  13.927   9.760   5.634 -0.0642 -1.3716 -0.0334
  138MOL0     H19019  14.023   9.679   5.757 -0.2574 -0.1173 -0.7223
  138MOL0     H19020  14.219   9.779   5.717  0.0702 -0.0099  0.3295
  138MOL0     H19021  14.153   9.927   5.630 -0.9834 -0.6559  0.6023
  138MOL0     H19022  14.267   9.780   5.468  0.5801  1.3815  0.0496
  138MOL0     H19023  14.096   9.786   5.437  0.3874  2.0606  0.9281
  138MOL0     H19024  13.119   9.757   6.011  1.0530 -0.7750  0.8259
  138MOL0     H19025  12.918   9.694   5.911 -0.7499 -0.7428 -0.5567
  138MOL0     H19026  12.660   9.557   5.634  1.8947 -1.2367 -2.0064
  138MOL0     H19027  12.405   9.539   5.631 -0.3410 -1.2635 -0.2918
  138MOL0     H19028  10.772   9.355   4.654 -0.0319  0.0601  4.5024
  138MOL0     H19029  10.544   9.290   4.633  1.4665 -0.5652  2.1281
  138MOL0     H19030  10.128   9.159   4.534 -1.1107  1.3147 -2.5599
  138MOL0     H19031   9.890   9.153   4.464  0.3595  1.0041 -0.0118
  138MOL0     H19032   9.665   9.183   4.388  1.9700 -0.7825  1.1386
  138MOL0     H19033   9.680   9.182   4.563  2.1128 -0.1843 -0.1931
  138MOL0     H19034   9.442   9.190   4.466  0.1390  0.0234 -0.0177
  138MOL0     H19035   9.482   9.352   4.403 -3.5528 -0.8916  0.3695
  138MOL0     H19036   9.450   9.280   4.693  0.8628 -0.0769  0.0848
  138MOL0     H19037   9.517   9.431   4.636  2.6839 -0.4608 -1.3926
  138MOL0     H19038   9.231   9.320   4.582 -1.7309  0.9134 -2.3337
  138MOL0     H19039   9.295   9.451   4.488  0.0941 -3.6901 -0.9470
  138MOL0     H19040   9.210   9.655   4.855 -0.6888  1.8222 -1.0114
  138MOL0     H19041   9.837   9.557   4.603  0.2708  1.3549 -1.8101
  138MOL0     H19042  10.161   9.598   4.766  0.5739 -1.2287 -2.7844
  138MOL0     H19043  10.060   9.678   4.636  2.6107 -0.9883 -2.6042
  138MOL0     H19044   9.993   9.621   4.792 -0.7544 -0.8186 -0.9766
  139MOL0     O19045   8.432   7.068  11.189 -0.1625  0.1793  0.2925
  139MOL0     C19046   8.406   7.126  11.083 -0.2783  0.6668 -0.6903
  139MOL0     O19047   8.495   7.147  10.981  0.0230 -0.9626  0.2717
  139MOL0     C19048   8.620   7.097  10.984 -1.1710 -0.4126 -0.6196
  139MOL0     C19049   8.732   7.180  10.970  0.0672  0.0261 -0.8024
  139MOL0     C19050   8.863   7.132  10.947  0.0037  0.2368  0.0678
  139MOL0     C19051   8.887   6.998  10.951 -0.5379 -0.0840 -0.0521
  139MOL0     O19052   9.024   6.956  10.931  0.1294 -0.2991 -0.3598
  139MOL0     C19053   9.064   6.827  10.971  0.2537 -0.0891  1.0579
  139MOL0     C19054   9.213   6.823  10.951 -0.2887 -0.2421 -0.8175
  139MOL0     C19055   9.278   6.782  10.813 -0.4237  0.5015 -0.1548
  139MOL0     C19056   9.257   6.626  10.777  1.0768  0.5632  0.4237
  139MOL0     C19057   9.277   6.611  10.624  0.2350 -1.0685  0.2082
  139MOL0     C19058   9.263   6.471  10.573  0.4645 -0.4502 -0.1408
  139MOL0     C19059   9.291   6.470  10.419 -0.2294 -0.4515 -0.7418
  139MOL0     C19060   9.241   6.346  10.343  0.8630 -0.0223 -0.2925
  139MOL0     N19061   9.274   6.224  10.416 -0.4042 -0.6398 -0.0463
  139MOL0     C19062   9.397   6.169  10.420 -0.2895  1.2798  0.8645
  139MOL0     C19063   9.386   6.053  10.488 -0.4724  0.2734  0.2932
  139MOL0     C19064   9.494   5.946  10.497  0.5933 -1.6171  0.1435
  139MOL0     C19065   9.605   5.976  10.597 -0.2674  1.0457 -0.2059
  139MOL0     C19066   9.724   5.874  10.583 -0.0806 -1.1563 -0.3824
  139MOL0     C19067   9.814   5.896  10.713  0.4276 -0.9652  0.5146
  139MOL0     O19068   9.868   6.034  10.708  0.0694  0.0619 -0.1864
  139MOL0     C19069   9.955   6.068  10.802  0.1024 -0.4503  0.1409
  139MOL0     C19070   9.981   5.998  10.927 -0.6526  0.1190  0.1880
  139MOL0     C19071  10.081   6.038  11.017 -1.0608  0.3157 -0.9053
  139MOL0     C19072  10.099   5.956  11.149 -0.0988  0.3007  0.4640
  139MOL0     C19073  10.153   6.157  10.981  0.8918  0.2208  0.0298
  139MOL0     C19074  10.255   6.206  11.072 -0.4106  0.2952  0.1388
  139MOL0     O19075  10.227   6.224  11.209  0.4415 -0.3554  0.5338
  139MOL0     C19076  10.317   6.260  11.302  0.2064 -0.0676  1.1100
  139MOL0     C19077  10.265   6.334  11.412 -0.3644 -0.3033  0.3767
  139MOL0     C19078  10.358   6.379  11.517 -0.0294  0.4296  0.3728
  139MOL0     C19079  10.493   6.358  11.513  0.9066  0.4610 -0.1021
  139MOL0     O19080  10.578   6.393  11.615  0.2540  0.4456 -1.1820
  139MOL0     C19081  10.549   6.505  11.690  0.9696 -0.8656 -0.4694
  139MOL0     C19082  10.646   6.499  11.806 -0.2171  0.4978 -0.4712
  139MOL0     C19083  10.773   6.569  11.780  0.6788 -0.1638  0.9113
  139MOL0     C19084  10.757   6.720  11.758  0.4055  0.9239  0.0809
  139MOL0     C19085  10.889   6.791  11.749  0.2812  0.1904 -0.1832
  139MOL0     C19086  10.897   6.894  11.638 -1.0493 -0.2606 -0.3693
  139MOL0     C19087  11.028   6.987  11.657  0.0237  0.2713 -0.6860
  139MOL0     C19088  11.028   7.115  11.574  0.9084  0.2245 -0.1006
  139MOL0    Cl19089  11.156   7.237  11.609 -0.1804 -0.2320  0.1193
  139MOL0     C19090  10.542   6.293  11.404 -0.3915  0.7414  0.0389
  139MOL0     C19091  10.460   6.252  11.300 -0.6641 -0.2761  1.1413
  139MOL0     O19092  10.367   6.241  11.024  0.6500  0.3830 -0.0338
  139MOL0     C19093  10.133   6.222  10.858  0.4153 -1.2813  0.4145
  139MOL0     C19094  10.031   6.178  10.766 -0.0855  0.1124 -1.4066
  139MOL0     N19095   9.253   6.036  10.518  0.3372  0.8217  0.1270
  139MOL0     N19096   9.188   6.137  10.479 -0.6270 -1.0773 -0.7672
  139MOL0     C19097   8.780   6.906  10.969  0.3224  0.1304 -0.4848
  139MOL0     C19098   8.651   6.959  10.987 -0.2644 -0.4353  0.1542
  139MOL0     C19099   8.276   7.196  11.073 -0.8516 -0.1138  0.3852
  139MOL0     C19100   8.276   7.319  11.003 -0.5122 -0.3563 -0.6288
  139MOL0     C19101   8.160   7.390  10.990  0.8541 -0.4633 -0.2093
  139MOL0     C19102   8.038   7.340  11.040  0.8524 -0.5489  0.0397
  139MOL0     O19103   7.934   7.427  11.023  0.4221  0.4623  0.0412
  139MOL0     C19104   7.801   7.400  11.062 -0.1539  0.7810 -0.4944
  139MOL0     C19105   7.711   7.518  11.037 -0.2133 -0.3596 -0.1313
  139MOL0     C19106   7.742   7.642  11.122 -0.4026 -1.2890  0.1665
  139MOL0     C19107   7.730   7.775  11.042  0.1020  0.8883 -0.6454
  139MOL0     C19108   7.599   7.797  10.978  0.6556  0.2572 -0.0794
  139MOL0     C19109   7.496   7.816  10.918  0.7960 -0.6976 -0.0798
  139MOL0     C19110   8.034   7.221  11.107  0.4528 -0.5553  0.2104
  139MOL0     C19111   8.154   7.151  11.129 -0.3821  0.6296  0.9803
  139MOL0     C19112   8.149   7.032  11.219 -0.0030 -0.9945  0.0655
  139MOL0     H19113   8.710   7.285  10.955  3.4894  1.4738  2.5863
  139MOL0     H19114   8.948   7.199  10.935  0.4714 -0.6241 -1.9322
  139MOL0     H19115   9.019   6.745  10.915  0.7447 -0.8913  1.8079
  139MOL0     H19116   9.035   6.813  11.076 -3.2313  0.2936  0.2631
  139MOL0     H19117   9.246   6.926  10.967  0.4045 -0.3312 -1.6124
  139MOL0     H19118   9.266   6.766  11.028  0.7543  3.3300  1.3747
  139MOL0     H19119   9.237   6.854  10.741 -0.6195 -0.2187 -0.7772
  139MOL0     H19120   9.386   6.800  10.811 -0.3223  0.0068  0.4242
  139MOL0     H19121   9.324   6.567  10.841  0.6642 -0.1820  0.1791
  139MOL0     H19122   9.154   6.602  10.807  0.7832  0.5885 -0.5511
  139MOL0     H19123   9.382   6.639  10.609 -0.0384  1.7477  2.4851
  139MOL0     H19124   9.214   6.689  10.579 -0.3750 -1.4105  0.4589
  139MOL0     H19125   9.323   6.403  10.635  0.2777  0.5570  1.2124
  139MOL0     H19126   9.158   6.443  10.579  0.1757 -0.0214 -2.3654
  139MOL0     H19127   9.397   6.480  10.394 -0.2038  0.5525 -0.2788
  139MOL0     H19128   9.241   6.558  10.377  1.1645  0.8590  0.2239
  139MOL0     H19129   9.133   6.356  10.336  1.1034  2.6661 -1.2228
  139MOL0     H19130   9.289   6.356  10.244 -0.4853  1.7008 -0.8203
  139MOL0     H19131   9.495   6.206  10.392 -0.1919 -0.2672 -1.0646
  139MOL0     H19132   9.526   5.924  10.395 -0.8903 -2.3083 -0.2020
  139MOL0     H19133   9.431   5.863  10.533 -0.2768 -1.2443 -0.4771
  139MOL0     H19134   9.651   6.075  10.590  1.5401  0.4614  2.0786
  139MOL0     H19135   9.556   5.962  10.694 -2.0823 -1.1547 -1.3410
  139MOL0     H19136   9.679   5.774  10.581 -0.1033 -1.1533  0.0773
  139MOL0     H19137   9.785   5.883  10.492  1.3326 -3.0508  0.2927
  139MOL0     H19138   9.756   5.883  10.805 -0.6028  3.2383  0.6756
  139MOL0     H19139   9.893   5.821  10.718  0.0229 -1.6434 -1.9563
  139MOL0     H19140   9.918   5.914  10.953 -1.8640  0.4398 -1.4990
  139MOL0     H19141  10.184   5.978  11.214  0.6549  0.5917 -0.5870
  139MOL0     H19142  10.095   5.849  11.126 -0.3462  0.8400 -2.5027
  139MOL0     H19143  10.011   5.991  11.203 -0.8060  1.9538 -1.6042
  139MOL0     H19144  10.163   6.369  11.405 -0.0441  0.9192  1.3706
  139MOL0     H19145  10.309   6.422  11.604  0.4242  0.6506  0.5256
  139MOL0     H19146  10.556   6.600  11.636  4.1604 -1.0135 -0.5497
  139MOL0     H19147  10.450   6.494  11.735  1.6021 -0.9984  0.9465
  139MOL0     H19148  10.599   6.543  11.895 -1.1014  0.8695 -1.1050
  139MOL0     H19149  10.673   6.394  11.818  1.7984  1.0629  0.3967
  139MOL0     H19150  10.814   6.527  11.688  1.1955  0.4824  0.8424
  139MOL0     H19151  10.844   6.548  11.860  0.5741  1.0799  1.3493
  139MOL0     H19152  10.696   6.763  11.837 -1.1728  0.5110 -0.8756
  139MOL0     H19153  10.702   6.739  11.666 -1.8512 -0.3363  1.0925
  139MOL0     H19154  10.916   6.830  11.847  1.3848 -1.2321  0.1094
  139MOL0     H19155  10.968   6.717  11.732  1.2939  1.2234 -0.0714
  139MOL0     H19156  10.813   6.964  11.637  1.0067  2.3933  0.4363
  139MOL0     H19157  10.886   6.844  11.541 -2.7879  1.1181 -0.9367
  139MOL0     H19158  11.118   6.928  11.638  1.1127  0.1471  3.8415
  139MOL0     H19159  11.030   7.008  11.764  0.1877  0.5180 -0.7387
  139MOL0     H19160  10.928   7.157  11.593  1.8018  2.2622  0.4180
  139MOL0     H19161  11.032   7.094  11.467  0.9074  1.2697 -0.3138
  139MOL0     H19162  10.649   6.276  11.396 -0.8428 -1.7603 -2.8246
  139MOL0     H19163  10.502   6.187  11.224 -1.9335 -2.2243  2.0424
  139MOL0     H19164  10.180   6.318  10.840  0.1282 -0.8378  1.8739
  139MOL0     H19165  10.019   6.236  10.675 -0.0515  1.2829 -0.6807
  139MOL0     H19166   8.782   6.798  10.974 -2.1218  0.0468  0.2164
  139MOL0     H19167   8.572   6.885  10.986 -2.1751  1.4794 -0.1263
  139MOL0     H19168   8.352   7.366  10.941 -1.9188  0.8757 -1.4852
  139MOL0     H19169   8.159   7.485  10.937  0.1747  0.0667  0.7233
  139MOL0     H19170   7.755   7.315  11.013 -2.4612  0.8692  1.3589
  139MOL0     H19171   7.784   7.391  11.170 -0.8427  1.3678 -0.5469
  139MOL0     H19172   7.609   7.487  11.061  0.3129 -2.1326 -0.0571
  139MOL0     H19173   7.711   7.539  10.930  0.0720  4.5465  0.5971
  139MOL0     H19174   7.685   7.629  11.214 -2.1501  1.8255 -0.3406
  139MOL0     H19175   7.846   7.642  11.154 -0.2903  0.0381 -0.1476
  139MOL0     H19176   7.809   7.776  10.966  0.5057  0.9223 -0.2275
  139MOL0     H19177   7.754   7.853  11.115 -0.0208 -0.6228  1.0671
  139MOL0     H19178   7.406   7.840  10.866  0.9290 -1.2357 -0.5675
  139MOL0     H19179   7.942   7.179  11.144  1.6778  0.2191  4.7562
  139MOL0     H19180   8.185   6.943  11.167  0.5303 -0.2815 -0.8013
  139MOL0     H19181   8.210   7.054  11.308  0.4284  0.8976 -0.6539
  139MOL0     H19182   8.047   7.020  11.258 -0.9156 -0.4556 -2.0109
  140MOL0     O19183   5.756  11.076   8.984 -0.1975  0.5578 -1.0165
  140MOL0     C19184   5.648  11.120   9.019 -0.2735  0.8654  0.8793
  140MOL0     O19185   5.628  11.243   9.072 -0.2277  0.4613 -0.1803
  140MOL0     C19186   5.715  11.349   9.083 -0.1358 -0.3664 -0.6503
  140MOL0     C19187   5.850  11.351   9.057 -0.3654  0.2680  0.5181
  140MOL0     C19188   5.919  11.477   9.047  0.1176  0.2120 -0.9161
  140MOL0     C19189   5.852  11.595   9.075 -0.0578  0.1374  0.5292
  140MOL0     O19190   5.931  11.711   9.066  1.0092 -0.3123 -0.0798
  140MOL0     C19191   5.855  11.832   9.078  0.3538 -0.4596  0.2505
  140MOL0     C19192   5.952  11.954   9.070 -0.6046 -0.0283 -0.2668
  140MOL0     C19193   6.034  11.964   8.948  0.1049 -0.2793  0.1848
  140MOL0     C19194   6.140  12.065   8.964 -0.0252  0.4283 -0.0857
  140MOL0     C19195   6.181  12.121   8.836  0.7211  0.0928  0.0338
  140MOL0     C19196   6.065  12.182   8.753 -0.7521  0.1183 -0.0483
  140MOL0     C19197   6.110  12.262   8.637 -0.4609  0.1802  0.1247
  140MOL0     C19198   6.162  12.399   8.677 -0.0367 -0.6955 -0.0609
  140MOL0     N19199   6.235  12.469   8.558 -0.3110 -0.1456 -0.1047
  140MOL0     C19200   6.206  12.473   8.428  0.4157 -0.4706 -0.6385
  140MOL0     C19201   6.275  12.574   8.375 -0.6732 -0.0908 -0.9003
  140MOL0     C19202   6.293  12.618   8.237  0.3361  0.0233  0.4878
  140MOL0     C19203   6.417  12.562   8.170 -1.6438 -0.6631 -0.8550
  140MOL0     C19204   6.546  12.618   8.237  1.1713  0.8007  0.6350
  140MOL0     C19205   6.671  12.594   8.157 -0.2347  0.0995 -0.2627
  140MOL0     O19206   6.681  12.451   8.127  0.2817 -0.1259  0.5685
  140MOL0     C19207   6.803  12.387   8.098 -0.5981  0.0787 -0.6466
  140MOL0     C19208   6.820  12.248   8.098  0.0789  0.9750  0.3283
  140MOL0     C19209   6.934  12.178   8.088  0.5381 -0.5001 -0.3129
  140MOL0     C19210   6.916  12.031   8.101 -0.4173  0.0503 -0.5434
  140MOL0     C19211   7.057  12.256   8.088  0.2258 -0.2054 -0.2430
  140MOL0     C19212   7.188  12.192   8.065  0.2483 -0.6125  0.5060
  140MOL0     O19213   7.294  12.272   8.079 -0.3139 -0.0596 -0.5547
  140MOL0     C19214   7.411  12.218   8.029  0.0877 -0.1941 -0.6315
  140MOL0     C19215   7.462  12.281   7.916 -0.4383  0.3119  0.1714
  140MOL0     C19216   7.587  12.244   7.867  0.0995 -0.1807  0.1981
  140MOL0     C19217   7.658  12.141   7.928  0.8238 -0.1651 -0.2013
  140MOL0     O19218   7.784  12.122   7.888 -0.0862 -0.3812 -0.2485
  140MOL0     C19219   7.844  11.994   7.917  0.3132  0.0240 -0.9501
  140MOL0     C19220   7.966  11.955   7.838 -0.0940  0.0210 -0.6209
  140MOL0     C19221   7.919  11.918   7.701 -0.5850  0.2034  0.7820
  140MOL0     C19222   8.030  11.904   7.595  0.0490 -0.4572  0.0942
  140MOL0     C19223   8.118  11.771   7.578  0.3361  1.0069 -0.7814
  140MOL0     C19224   8.240  11.793   7.479 -0.3337 -0.3631 -0.5830
  140MOL0     C19225   8.317  11.661   7.438 -1.2232  0.6104  0.0170
  140MOL0     C19226   8.445  11.703   7.360  0.3874 -0.1772  0.6672
  140MOL0    Cl19227   8.541  11.560   7.330 -0.0570  0.3926  0.1952
  140MOL0     C19228   7.602  12.079   8.041 -0.5016  0.5901 -0.2074
  140MOL0     C19229   7.482  12.114   8.098  0.8490  1.1151 -0.2949
  140MOL0     O19230   7.191  12.079   8.008  0.0024 -0.6070  0.6942
  140MOL0     C19231   7.049  12.400   8.085 -0.3529 -0.2021  0.0415
  140MOL0     C19232   6.923  12.464   8.089 -0.2116  0.3111 -0.3682
  140MOL0     N19233   6.350  12.633   8.475 -0.1253 -0.8517 -0.4873
  140MOL0     N19234   6.331  12.562   8.578  0.0331  0.3261  0.4635
  140MOL0     C19235   5.713  11.596   9.092  0.2930  0.4547  0.0737
  140MOL0     C19236   5.648  11.472   9.098  0.1474  0.4046  0.4370
  140MOL0     C19237   5.535  11.034   8.995  0.8075 -0.6230 -0.3218
  140MOL0     C19238   5.424  11.074   9.064  0.2984  0.1064 -0.1325
  140MOL0     C19239   5.305  11.016   9.036 -0.0222 -0.4241  0.0681
  140MOL0     C19240   5.291  10.912   8.938  0.1363 -0.1229  0.0163
  140MOL0     O19241   5.162  10.869   8.926  0.5986 -0.1782 -0.3268
  140MOL0     C19242   5.136  10.770   8.821  0.4327 -0.7299 -0.4621
  140MOL0     C19243   4.999  10.793   8.751 -0.5171 -0.0003 -0.8618
  140MOL0     C19244   4.886  10.798   8.850  0.8301  0.3192  0.5545
  140MOL0     C19245   4.749  10.799   8.780  0.1338 -0.0909 -0.2831
  140MOL0     C19246   4.647  10.746   8.875 -0.0704 -0.1899  0.3752
  140MOL0     C19247   4.570  10.695   8.949  0.0747  0.2345 -0.7851
  140MOL0     C19248   5.407  10.855   8.881 -0.6577 -0.5424  0.2069
  140MOL0     C19249   5.535  10.917   8.911  0.3124 -0.4226 -0.1594
  140MOL0     C19250   5.656  10.863   8.838 -0.2310 -0.0281  0.0545
  140MOL0     H19251   5.908  11.265   9.025 -1.0273  0.5355 -1.5604
  140MOL0     H19252   6.026  11.470   9.034 -0.0741 -0.8032 -2.1662
  140MOL0     H19253   5.788  11.840   9.165 -1.7391  0.9666 -1.3948
  140MOL0     H19254   5.788  11.843   8.992  1.2022  2.1922 -0.1472
  140MOL0     H19255   5.892  12.045   9.063  1.2752  1.1679 -2.4056
  140MOL0     H19256   6.005  11.942   9.165 -2.2432 -2.0719  0.4647
  140MOL0     H19257   6.091  11.875   8.919  2.8501  1.2175  0.6910
  140MOL0     H19258   5.964  11.988   8.868  1.0001 -1.5049 -1.0162
  140MOL0     H19259   6.098  12.151   9.017 -1.4041 -0.9807  1.2035
  140MOL0     H19260   6.224  12.025   9.021 -1.1591 -0.4057  1.0350
  140MOL0     H19261   6.234  12.051   8.772  0.2130  0.7908 -1.1896
  140MOL0     H19262   6.254  12.201   8.853 -0.3778  1.0252  0.4972
  140MOL0     H19263   6.004  12.102   8.708  1.3928 -1.7758  0.2281
  140MOL0     H19264   6.008  12.250   8.818  0.8311  0.8505  0.6262
  140MOL0     H19265   6.033  12.274   8.560 -0.5001  0.5758  0.2232
  140MOL0     H19266   6.185  12.204   8.582  0.9275  1.3667  0.6840
  140MOL0     H19267   6.083  12.469   8.706  0.1871 -0.0262 -0.9986
  140MOL0     H19268   6.227  12.395   8.764 -1.8570  0.8136  1.4618
  140MOL0     H19269   6.125  12.423   8.376  1.6336 -0.3206 -2.8165
  140MOL0     H19270   6.307  12.726   8.227  3.2144 -0.2197  0.9367
  140MOL0     H19271   6.204  12.600   8.177 -1.3568  3.6313  1.6592
  140MOL0     H19272   6.422  12.453   8.162  0.3715 -0.8101  1.2819
  140MOL0     H19273   6.423  12.594   8.066  0.7000  1.8416 -0.0722
  140MOL0     H19274   6.522  12.721   8.266 -1.1580  0.1194  1.2692
  140MOL0     H19275   6.571  12.577   8.335  3.1185  2.3723  0.8628
  140MOL0     H19276   6.651  12.645   8.063 -2.7977 -2.2544 -1.1484
  140MOL0     H19277   6.758  12.638   8.206  0.5168  2.1080 -3.1557
  140MOL0     H19278   6.723  12.198   8.102  0.2168  0.6896  0.1560
  140MOL0     H19279   6.813  11.999   8.120 -0.5116  0.3654 -0.5160
  140MOL0     H19280   6.977  11.994   8.185 -0.6973 -0.7270 -0.6699
  140MOL0     H19281   6.945  11.976   8.011 -1.5750 -0.6469 -0.5104
  140MOL0     H19282   7.396  12.354   7.870 -0.4982  0.5273  0.5945
  140MOL0     H19283   7.637  12.290   7.782  0.8035  0.5734  1.0103
  140MOL0     H19284   7.880  11.990   8.021 -2.5353  0.8294  0.1702
  140MOL0     H19285   7.764  11.920   7.912  0.7224 -0.4012 -1.3137
  140MOL0     H19286   8.030  12.044   7.827 -2.1075  1.9687  1.9428
  140MOL0     H19287   8.022  11.870   7.877 -0.1895 -1.3267 -3.2136
  140MOL0     H19288   7.855  11.997   7.660 -1.2983 -0.1222  1.2568
  140MOL0     H19289   7.855  11.830   7.707  0.3001 -0.5393 -0.1612
  140MOL0     H19290   8.100  11.985   7.618 -0.8960 -0.3026  2.6919
  140MOL0     H19291   7.992  11.916   7.493  1.7231 -2.3114 -0.8179
  140MOL0     H19292   8.137  11.749   7.683  0.2376 -0.8773 -1.1094
  140MOL0     H19293   8.056  11.686   7.548  0.7107  0.0493  1.0311
  140MOL0     H19294   8.319  11.856   7.521  0.5168 -1.8555  0.1760
  140MOL0     H19295   8.205  11.841   7.388 -1.9773  2.3161  1.3148
  140MOL0     H19296   8.256  11.593   7.378  0.5037 -2.0846  1.1241
  140MOL0     H19297   8.335  11.602   7.528  2.3573  2.3773  0.6341
  140MOL0     H19298   8.506  11.772   7.420  0.9241  1.0033 -1.1651
  140MOL0     H19299   8.422  11.754   7.266  1.8924  1.8408  1.3207
  140MOL0     H19300   7.667  12.005   8.086  0.3598  0.7572 -1.1451
  140MOL0     H19301   7.445  12.072   8.192  0.5301  1.3168 -0.3268
  140MOL0     H19302   7.136  12.462   8.104 -1.8452  1.2364  2.8646
  140MOL0     H19303   6.914  12.572   8.092 -3.1717  0.2454 -2.7903
  140MOL0     H19304   5.658  11.686   9.117 -0.3946 -0.1152  0.6761
  140MOL0     H19305   5.541  11.484   9.108  0.2203  1.0457  0.4812
  140MOL0     H19306   5.427  11.155   9.137  1.5745 -1.1407  1.2585
  140MOL0     H19307   5.216  11.052   9.085 -1.1685 -1.7372 -0.9658
  140MOL0     H19308   5.216  10.782   8.747  0.8051 -0.0722  0.0373
  140MOL0     H19309   5.138  10.665   8.851 -1.2447 -0.5293  0.4454
  140MOL0     H19310   4.987  10.709   8.682 -0.2912  1.3710 -2.6145
  140MOL0     H19311   5.002  10.886   8.694  0.1510  1.5320  1.5454
  140MOL0     H19312   4.887  10.714   8.920  1.4120  0.5780  0.8581
  140MOL0     H19313   4.895  10.894   8.902 -0.1037  2.6088 -3.1187
  140MOL0     H19314   4.737  10.741   8.688 -0.1127  0.1874 -0.4290
  140MOL0     H19315   4.738  10.902   8.745  2.6099 -0.2068 -1.6254
  140MOL0     H19316   4.498  10.663   9.021 -0.5530  2.0155 -0.5865
  140MOL0     H19317   5.394  10.772   8.812 -0.4199  0.1924 -0.7493
  140MOL0     H19318   5.624  10.774   8.783 -1.8031 -0.1689  1.1384
  140MOL0     H19319   5.710  10.927   8.767 -1.7642  0.1886 -0.9505
  140MOL0     H19320   5.729  10.830   8.913 -1.0417 -3.7586 -0.5783
  141MOL0     O19321   0.671   9.365   2.038  0.7517  0.2226 -0.2275
  141MOL0     C19322   0.684   9.484   2.016 -0.0227 -0.4718  0.1792
  141MOL0     O19323   0.796   9.538   1.949 -0.1822 -0.8126 -0.0841
  141MOL0     C19324   0.896   9.455   1.916 -0.1718 -0.4120 -0.8435
  141MOL0     C19325   0.888   9.382   1.800 -0.5812 -0.2981 -0.2116
  141MOL0     C19326   0.998   9.294   1.776  0.1683 -0.5727  0.6998
  141MOL0     C19327   1.105   9.279   1.856  0.2963 -0.1366  0.1695
  141MOL0     O19328   1.202   9.183   1.841  0.9855 -0.1452  0.4930
  141MOL0     C19329   1.242   9.133   1.710  0.1832  0.6995  0.4260
  141MOL0     C19330   1.394   9.132   1.709 -0.1177  0.1457 -0.2779
  141MOL0     C19331   1.464   9.049   1.817  0.5350 -0.4303 -0.6075
  141MOL0     C19332   1.481   9.126   1.954 -0.2633 -0.2587  0.2181
  141MOL0     C19333   1.567   9.256   1.951 -0.6708  0.4484  0.0854
  141MOL0     C19334   1.651   9.288   2.077  0.0582  0.6073 -0.4088
  141MOL0     C19335   1.739   9.402   2.061  0.9709  0.3924 -0.7746
  141MOL0     C19336   1.885   9.376   2.021  0.2648 -0.2749 -0.4909
  141MOL0     N19337   1.955   9.499   2.063  0.4983 -0.0948  0.2064
  141MOL0     C19338   2.034   9.519   2.166  0.3628  0.1087  0.1628
  141MOL0     C19339   2.063   9.649   2.161 -0.3445 -0.1514  0.6401
  141MOL0     C19340   2.147   9.716   2.271 -0.0931 -0.0155 -0.0784
  141MOL0     C19341   2.294   9.758   2.240 -0.8569  0.2780  0.5448
  141MOL0     C19342   2.325   9.847   2.112  0.1137 -0.4946  0.4542
  141MOL0     C19343   2.270   9.992   2.136 -0.3951  1.0185  0.3718
  141MOL0     O19344   2.332  10.088   2.054 -0.7861  1.2924 -0.0425
  141MOL0     C19345   2.466  10.118   2.067  0.5995 -0.5987  0.1557
  141MOL0     C19346   2.550  10.095   2.174 -0.0004  0.6412  0.0687
  141MOL0     C19347   2.684  10.131   2.178  0.0423 -0.4681 -0.2605
  141MOL0     C19348   2.762  10.079   2.289  0.6461 -0.3553  0.0522
  141MOL0     C19349   2.738  10.203   2.074  0.0965 -0.6616 -0.3120
  141MOL0     C19350   2.879  10.235   2.065 -0.1178 -0.2352  0.4792
  141MOL0     O19351   2.969  10.140   2.091 -0.3640 -0.4341 -0.0027
  141MOL0     C19352   3.109  10.155   2.082  0.5032 -0.9240  0.3789
  141MOL0     C19353   3.187  10.268   2.074  0.0603  0.1697  1.0239
  141MOL0     C19354   3.327  10.258   2.046  0.0620 -0.2387 -0.1295
  141MOL0     C19355   3.392  10.131   2.072  0.8689 -0.7256  0.1010
  141MOL0     O19356   3.532  10.134   2.068  0.6733 -0.1053 -0.7558
  141MOL0     C19357   3.610  10.011   2.106  0.2109  0.2159 -0.0470
  141MOL0     C19358   3.753  10.069   2.093  0.4471  0.6251 -0.2160
  141MOL0     C19359   3.857   9.964   2.101  0.6166 -0.2921 -0.4222
  141MOL0     C19360   3.959   9.974   1.988  1.0897 -0.2982  0.4857
  141MOL0     C19361   4.058   9.860   1.993  0.0457 -0.6736  0.1577
  141MOL0     C19362   4.131   9.845   2.118  0.2730 -0.0363 -0.1281
  141MOL0     C19363   4.243   9.749   2.103 -0.0746  0.0497 -0.4722
  141MOL0     C19364   4.333   9.752   2.227  0.0172  0.2220  0.0421
  141MOL0    Cl19365   4.435   9.903   2.204  0.1844 -0.1100 -0.5115
  141MOL0     C19366   3.314  10.016   2.096 -0.5743  0.8610  0.0175
  141MOL0     C19367   3.175  10.030   2.104  0.4199 -0.4555 -0.1421
  141MOL0     O19368   2.903  10.354   2.041  0.9679  0.1432 -0.1625
  141MOL0     C19369   2.655  10.237   1.969 -0.1992 -0.5993  0.4378
  141MOL0     C19370   2.521  10.207   1.970  0.3085  0.1747 -1.1009
  141MOL0     N19371   2.006   9.711   2.056  0.4843 -0.2850  0.2236
  141MOL0     N19372   1.931   9.625   2.008 -0.6971 -0.5751 -0.6227
  141MOL0     C19373   1.111   9.358   1.969 -0.0702 -0.1041 -0.5042
  141MOL0     C19374   1.002   9.451   1.999 -1.4085 -0.0466 -0.4356
  141MOL0     C19375   0.574   9.574   2.061  0.8750 -0.2054 -0.1350
  141MOL0     C19376   0.608   9.712   2.067  0.7950 -0.1817  0.2731
  141MOL0     C19377   0.511   9.811   2.091  0.3254  0.6651 -0.4817
  141MOL0     C19378   0.380   9.783   2.140 -0.6229 -0.0097 -0.5391
  141MOL0     O19379   0.292   9.887   2.158 -0.3863 -0.2951  0.8318
  141MOL0     C19380   0.151   9.864   2.185 -0.5209  1.2341 -0.1766
  141MOL0     C19381   0.073   9.844   2.056 -0.6228  0.0127  0.9405
  141MOL0     C19382  -0.065   9.789   2.096  0.0812  0.5996  0.9809
  141MOL0     C19383  -0.090   9.645   2.046 -0.2363  0.4291  0.5248
  141MOL0     C19384  -0.074   9.631   1.907 -0.0858  0.3781  0.2440
  141MOL0     C19385  -0.060   9.613   1.787 -0.4221  0.7122 -0.1580
  141MOL0     C19386   0.343   9.647   2.130 -0.0392 -0.8835  0.3857
  141MOL0     C19387   0.436   9.546   2.089 -0.4304 -0.2359  0.2693
  141MOL0     C19388   0.383   9.405   2.090 -0.3387  0.1251 -0.9476
  141MOL0     H19389   0.798   9.378   1.738  0.8534 -0.1846 -2.4003
  141MOL0     H19390   0.999   9.225   1.693  1.8329 -0.1018  0.2969
  141MOL0     H19391   1.201   9.200   1.634 -1.7008  1.4385  2.0100
  141MOL0     H19392   1.202   9.033   1.691 -0.0956  1.0116 -0.7057
  141MOL0     H19393   1.428   9.100   1.610  1.3259 -0.1081  0.2769
  141MOL0     H19394   1.434   9.233   1.719  2.9366 -1.0542  0.8268
  141MOL0     H19395   1.415   8.952   1.832  0.2815 -0.4293 -1.3597
  141MOL0     H19396   1.561   9.017   1.778  0.4739 -1.2204 -0.1284
  141MOL0     H19397   1.389   9.147   2.008  0.6092  0.6438  1.4095
  141MOL0     H19398   1.530   9.053   2.020 -0.1647 -0.8082 -0.4516
  141MOL0     H19399   1.499   9.341   1.935  0.2231  1.4797  1.4782
  141MOL0     H19400   1.637   9.257   1.867  0.6106  1.7039  1.1055
  141MOL0     H19401   1.587   9.306   2.164  0.9278 -2.7486  1.1035
  141MOL0     H19402   1.707   9.200   2.110  0.3310  1.4482  1.5424
  141MOL0     H19403   1.754   9.443   2.161  0.2517  0.6360 -0.7609
  141MOL0     H19404   1.686   9.471   1.996  0.0364  0.7381  0.3291
  141MOL0     H19405   1.927   9.293   2.078  0.6143 -0.2017 -0.6363
  141MOL0     H19406   1.905   9.337   1.921  0.1253  0.6729 -0.8995
  141MOL0     H19407   2.072   9.453   2.244 -0.0174 -1.1999 -0.7324
  141MOL0     H19408   2.137   9.644   2.353 -0.6039 -0.8584 -0.8633
  141MOL0     H19409   2.098   9.810   2.298 -1.0436 -0.2008 -1.0743
  141MOL0     H19410   2.351   9.799   2.324  2.2944 -1.5378 -0.5241
  141MOL0     H19411   2.343   9.667   2.204  2.5726  2.5390 -1.0033
  141MOL0     H19412   2.431   9.840   2.084 -0.1522 -0.9150 -0.5153
  141MOL0     H19413   2.261   9.810   2.031 -2.2393  0.2229  1.8967
  141MOL0     H19414   2.163   9.977   2.116 -0.3266 -3.4867  2.1621
  141MOL0     H19415   2.283  10.013   2.242  0.0308 -1.0029  0.7578
  141MOL0     H19416   2.527  10.039   2.264 -1.4933  1.1662  0.0448
  141MOL0     H19417   2.775   9.972   2.273 -1.2865 -1.1212  2.9134
  141MOL0     H19418   2.701  10.074   2.379  1.9308  0.2356  0.9805
  141MOL0     H19419   2.845  10.147   2.310  0.0698 -0.0849  1.5440
  141MOL0     H19420   3.152  10.371   2.078  2.2521  1.0081  0.3622
  141MOL0     H19421   3.389  10.345   2.032 -1.8500  1.2924  0.4042
  141MOL0     H19422   3.589   9.954   2.197  0.9808  0.7426  0.4707
  141MOL0     H19423   3.604   9.935   2.027  1.6095  2.1811 -2.1565
  141MOL0     H19424   3.760  10.110   1.992  0.2259 -1.0385 -0.9340
  141MOL0     H19425   3.768  10.150   2.164 -0.5853  1.0791 -0.5000
  141MOL0     H19426   3.815   9.863   2.095 -0.6337  0.2362 -0.8975
  141MOL0     H19427   3.898   9.971   2.202  0.0437  0.2682 -0.2217
  141MOL0     H19428   4.004  10.072   2.007 -1.2054  0.3188  3.5783
  141MOL0     H19429   3.903   9.974   1.894  2.3611  0.1532 -0.2886
  141MOL0     H19430   4.004   9.766   1.977 -2.5844  0.5757  1.1071
  141MOL0     H19431   4.119   9.871   1.903 -0.4077  0.6710  0.0068
  141MOL0     H19432   4.077   9.811   2.207  1.1951  0.4163  0.6338
  141MOL0     H19433   4.171   9.942   2.150 -0.5476 -0.1305  1.2854
  141MOL0     H19434   4.304   9.759   2.012 -0.5923 -1.0734 -0.9710
  141MOL0     H19435   4.206   9.647   2.088  1.9515 -0.6412 -1.2400
  141MOL0     H19436   4.390   9.660   2.238  2.6306  1.9008  1.8736
  141MOL0     H19437   4.276   9.768   2.319  2.5736  1.1275  1.5875
  141MOL0     H19438   3.373   9.925   2.106  2.3489  2.6851  0.8026
  141MOL0     H19439   3.124   9.936   2.118  0.2553 -0.3725 -0.1836
  141MOL0     H19440   2.703  10.295   1.891  0.6626 -1.1629  0.5357
  141MOL0     H19441   2.453  10.242   1.893  0.0991  4.1321  0.6382
  141MOL0     H19442   1.194   9.338   2.036 -1.8377  0.6299  2.0695
  141MOL0     H19443   1.016   9.500   2.095  1.7927 -0.9424 -0.3173
  141MOL0     H19444   0.701   9.756   2.032 -0.7009  0.0543 -4.0682
  141MOL0     H19445   0.536   9.916   2.083  0.3150  0.5777 -2.0800
  141MOL0     H19446   0.143   9.773   2.245  1.3520  1.5511  0.6468
  141MOL0     H19447   0.112   9.947   2.245  0.4593  1.7111 -0.1667
  141MOL0     H19448   0.126   9.772   1.993  0.7734  0.4443  1.5820
  141MOL0     H19449   0.065   9.937   2.000  0.2867 -0.9896 -0.9368
  141MOL0     H19450  -0.084   9.796   2.204  0.5913  1.1975  1.0340
  141MOL0     H19451  -0.146   9.850   2.055 -1.0139 -1.8852 -0.8041
  141MOL0     H19452  -0.188   9.615   2.083 -0.5373  0.5592 -0.1523
  141MOL0     H19453  -0.013   9.581   2.089  0.0879 -0.4362 -1.2517
  141MOL0     H19454  -0.037   9.596   1.684 -2.9780  0.9769 -0.8296
  141MOL0     H19455   0.245   9.612   2.160 -0.6510  0.3042 -0.1995
  141MOL0     H19456   0.450   9.354   2.160 -1.5153 -2.1221 -1.3758
  141MOL0     H19457   0.276   9.406   2.112 -0.4321  1.0876 -1.4010
  141MOL0     H19458   0.407   9.360   1.994  0.5850  0.5577 -0.9247
  142MOL0     O19459   8.097   6.573   2.456 -0.0096 -0.6933 -1.0669
  142MOL0     C19460   8.080   6.595   2.335  0.1596  0.2237  0.2633
  142MOL0     O19461   8.171   6.562   2.232  0.1675 -0.0803 -0.7741
  142MOL0     C19462   8.287   6.502   2.275 -0.5346  0.5518 -0.4988
  142MOL0     C19463   8.397   6.583   2.285 -0.1232  0.1326  0.3700
  142MOL0     C19464   8.517   6.538   2.345  0.2527  0.1829 -0.4017
  142MOL0     C19465   8.527   6.406   2.400  0.1414 -0.5486 -0.0952
  142MOL0     O19466   8.640   6.348   2.448  1.3110 -0.4556 -0.9025
  142MOL0     C19467   8.747   6.427   2.492 -0.2071  0.2752  0.5565
  142MOL0     C19468   8.847   6.319   2.526  0.5284 -0.3516 -0.3340
  142MOL0     C19469   8.976   6.383   2.579  0.6751  0.5506 -0.3783
  142MOL0     C19470   9.064   6.265   2.643 -0.6773 -0.1824  0.6986
  142MOL0     C19471   9.211   6.296   2.693  0.5395 -0.2633  0.1899
  142MOL0     C19472   9.304   6.353   2.588  0.2457  0.6860  0.4374
  142MOL0     C19473   9.453   6.362   2.629  0.5197  0.1126 -0.7312
  142MOL0     C19474   9.517   6.220   2.641 -0.7317 -0.5283  0.0396
  142MOL0     N19475   9.643   6.228   2.703 -1.1641 -1.0298 -0.3824
  142MOL0     C19476   9.764   6.226   2.635  0.0805 -0.4402  0.4500
  142MOL0     C19477   9.858   6.197   2.728  0.4373 -0.3961 -0.4156
  142MOL0     C19478  10.011   6.184   2.715  0.3510 -0.2100  0.1581
  142MOL0     C19479  10.046   6.045   2.660  0.0035 -0.2708  0.7707
  142MOL0     C19480  10.042   6.034   2.500 -0.5088  0.6012 -0.1477
  142MOL0     C19481  10.175   6.080   2.450  0.3401  0.6095 -0.1066
  142MOL0     O19482  10.272   5.975   2.483  0.2375 -0.2470  0.3149
  142MOL0     C19483  10.402   5.999   2.455 -0.0666 -0.6304 -0.4353
  142MOL0     C19484  10.454   6.099   2.372 -0.4107 -0.6003  0.8241
  142MOL0     C19485  10.592   6.103   2.340 -0.9549 -0.4033 -0.1446
  142MOL0     C19486  10.621   6.209   2.228 -0.5149  0.2603 -0.1728
  142MOL0     C19487  10.687   6.007   2.389 -0.1637  0.3803  0.3331
  142MOL0     C19488  10.833   5.993   2.351 -0.2210  0.2222  0.1493
  142MOL0     O19489  10.895   6.114   2.338 -0.7120 -0.5441 -1.2845
  142MOL0     C19490  11.035   6.113   2.310  0.1331  0.1970  0.0573
  142MOL0     C19491  11.087   6.042   2.198 -1.0154  0.6808  0.0620
  142MOL0     C19492  11.222   6.054   2.156 -0.2299 -0.5899  0.3272
  142MOL0     C19493  11.310   6.134   2.223  0.4613 -0.8003 -0.0522
  142MOL0     O19494  11.439   6.123   2.185 -0.5755  0.5698 -0.6001
  142MOL0     C19495  11.513   6.246   2.188 -0.7736  0.1334 -0.5438
  142MOL0     C19496  11.492   6.330   2.062  0.5747  0.1090  0.3761
  142MOL0     C19497  11.590   6.447   2.073 -0.3379  0.2490 -0.4522
  142MOL0     C19498  11.608   6.545   1.959 -0.1518  0.1400  0.3683
  142MOL0     C19499  11.666   6.482   1.831  0.4736 -0.3038 -0.1453
  142MOL0     C19500  11.813   6.435   1.838  0.8160 -0.2688 -0.2941
  142MOL0     C19501  11.916   6.550   1.818 -0.2265 -0.5288 -0.1002
  142MOL0     C19502  12.065   6.515   1.801  0.4378 -0.5686  0.7583
  142MOL0    Cl19503  12.162   6.656   1.788  0.2705  0.1686 -0.3666
  142MOL0     C19504  11.260   6.210   2.334  0.2938  0.7820 -0.6308
  142MOL0     C19505  11.125   6.202   2.373  0.1601 -0.9154  0.3488
  142MOL0     O19506  10.885   5.880   2.331 -0.1565  0.3125 -0.9296
  142MOL0     C19507  10.625   5.915   2.482 -0.3036  0.5295  0.1451
  142MOL0     C19508  10.487   5.916   2.516 -0.5454  0.3137  0.2680
  142MOL0     N19509   9.800   6.193   2.856 -0.3243 -0.6149  0.0800
  142MOL0     N19510   9.671   6.205   2.834  0.4950 -0.5058  1.0196
  142MOL0     C19511   8.402   6.331   2.399  0.0091 -0.7102  0.5653
  142MOL0     C19512   8.290   6.378   2.330 -0.0970  0.7489 -0.0392
  142MOL0     C19513   7.944   6.649   2.295 -0.5784 -0.0134  0.6937
  142MOL0     C19514   7.903   6.611   2.167 -0.5740 -0.0797  0.0379
  142MOL0     C19515   7.777   6.630   2.115 -0.6777  0.4282 -0.5634
  142MOL0     C19516   7.680   6.685   2.199 -0.2160 -0.3962  0.5953
  142MOL0     O19517   7.555   6.695   2.142  0.2966  0.6371  0.1223
  142MOL0     C19518   7.459   6.779   2.205 -0.0073 -0.5002 -0.3842
  142MOL0     C19519   7.336   6.799   2.121 -0.5708  0.3717  0.5318
  142MOL0     C19520   7.234   6.687   2.153  0.3198  0.0842 -0.2109
  142MOL0     C19521   7.120   6.673   2.056 -1.0802  0.3197  0.1512
  142MOL0     C19522   7.021   6.775   2.066 -0.2454 -1.0689 -0.1569
  142MOL0     C19523   6.931   6.851   2.081  0.8951  0.3139  0.2167
  142MOL0     C19524   7.708   6.722   2.331 -1.0057 -1.0586  0.1077
  142MOL0     C19525   7.841   6.700   2.377 -0.0954  0.4273  0.8914
  142MOL0     C19526   7.856   6.731   2.521  0.7899 -0.3181  0.1489
  142MOL0     H19527   8.396   6.687   2.253 -1.8120 -0.3650 -1.3752
  142MOL0     H19528   8.608   6.597   2.334 -0.3136  1.3541  0.8913
  142MOL0     H19529   8.726   6.492   2.578  5.1579  1.8302  1.0327
  142MOL0     H19530   8.783   6.496   2.416 -2.1633  3.5680  2.3977
  142MOL0     H19531   8.796   6.256   2.599 -2.1879  0.1879 -1.6299
  142MOL0     H19532   8.863   6.265   2.432 -0.3969  0.0375 -0.7263
  142MOL0     H19533   9.037   6.437   2.506  0.4087  1.5690  0.1480
  142MOL0     H19534   8.949   6.442   2.667  1.2642 -2.6735  2.1671
  142MOL0     H19535   9.014   6.228   2.734 -0.2831  0.3688  1.1499
  142MOL0     H19536   9.072   6.191   2.563 -0.9444  0.5893 -0.0490
  142MOL0     H19537   9.253   6.202   2.729 -0.0159 -1.0965 -1.2537
  142MOL0     H19538   9.195   6.360   2.781 -2.7421 -1.8206  0.8756
  142MOL0     H19539   9.297   6.298   2.494 -1.5949  0.6780  0.5539
  142MOL0     H19540   9.262   6.454   2.580 -3.0391 -0.6320 -0.5968
  142MOL0     H19541   9.461   6.409   2.727 -0.6150  0.5853 -0.8483
  142MOL0     H19542   9.512   6.425   2.563  2.2883  0.9426  1.5259
  142MOL0     H19543   9.450   6.149   2.689  1.7628 -3.0246  0.0727
  142MOL0     H19544   9.538   6.193   2.537  0.3734 -2.6605  0.7531
  142MOL0     H19545   9.786   6.245   2.531  1.9222 -2.3015  0.4254
  142MOL0     H19546  10.050   6.198   2.816  1.2824 -0.9253 -0.0969
  142MOL0     H19547  10.050   6.266   2.654  2.6394 -0.1967  1.5272
  142MOL0     H19548  10.146   6.018   2.693 -0.5825 -0.5577  2.4357
  142MOL0     H19549   9.981   5.969   2.704 -2.3462  1.7689  1.0778
  142MOL0     H19550  10.038   5.928   2.472  0.2741  0.5732 -0.1603
  142MOL0     H19551   9.946   6.064   2.456 -1.2778 -2.0591 -0.4696
  142MOL0     H19552  10.176   6.101   2.343  0.1509  0.2693 -0.1779
  142MOL0     H19553  10.184   6.181   2.490 -1.0090  1.2282 -1.2711
  142MOL0     H19554  10.390   6.175   2.329  1.0099  1.9174  2.9073
  142MOL0     H19555  10.728   6.217   2.206  0.2299 -0.7827  2.5814
  142MOL0     H19556  10.584   6.303   2.267  0.7529  0.2650  1.1308
  142MOL0     H19557  10.564   6.191   2.137  0.5280  1.6370 -1.1481
  142MOL0     H19558  11.021   5.979   2.139 -0.3977  1.6654 -1.7671
  142MOL0     H19559  11.259   5.999   2.070 -1.2487  1.2875 -1.4022
  142MOL0     H19560  11.491   6.296   2.283 -2.8654 -0.5554 -0.6148
  142MOL0     H19561  11.618   6.218   2.192 -0.9503 -0.4354  2.0260
  142MOL0     H19562  11.513   6.267   1.974  2.4569 -1.1111  1.6051
  142MOL0     H19563  11.385   6.349   2.058  0.1919 -1.8782 -0.1140
  142MOL0     H19564  11.689   6.408   2.099 -0.8797 -1.3588 -0.6643
  142MOL0     H19565  11.557   6.503   2.161 -1.2593  0.5592 -0.9799
  142MOL0     H19566  11.672   6.629   1.988 -2.4729  1.8760  0.8300
  142MOL0     H19567  11.512   6.592   1.935  1.0524  2.5222 -0.1304
  142MOL0     H19568  11.609   6.395   1.797 -2.0751  1.3279 -0.3111
  142MOL0     H19569  11.658   6.559   1.754  0.2115  1.7554  1.8518
  142MOL0     H19570  11.820   6.368   1.752  1.9116  0.2152 -0.5993
  142MOL0     H19571  11.821   6.387   1.936  0.5496  0.3067  0.0154
  142MOL0     H19572  11.896   6.621   1.899 -0.9999  1.3473 -1.8608
  142MOL0     H19573  11.889   6.615   1.735  0.6739  2.0880  1.5422
  142MOL0     H19574  12.075   6.472   1.701 -0.9753  0.2680  0.2222
  142MOL0     H19575  12.094   6.454   1.886 -1.0704 -0.8876  1.0768
  142MOL0     H19576  11.326   6.270   2.397 -0.0086  2.9975 -2.3010
  142MOL0     H19577  11.082   6.262   2.452 -2.3793 -0.6351 -1.1385
  142MOL0     H19578  10.682   5.841   2.536 -0.3665  0.1447 -0.3046
  142MOL0     H19579  10.452   5.845   2.590 -3.5075  0.1914 -1.1254
  142MOL0     H19580   8.399   6.234   2.446 -2.2099  0.6864  3.6299
  142MOL0     H19581   8.203   6.314   2.321 -0.3469  0.9870  0.5729
  142MOL0     H19582   7.976   6.561   2.104 -1.3579  0.7836 -1.6060
  142MOL0     H19583   7.742   6.584   2.023 -3.0931 -3.9486  2.1595
  142MOL0     H19584   7.418   6.729   2.293 -0.2008 -2.3578 -1.4748
  142MOL0     H19585   7.503   6.878   2.220 -0.1219 -0.5643  0.4351
  142MOL0     H19586   7.365   6.797   2.016 -2.7409 -2.9747 -0.1522
  142MOL0     H19587   7.296   6.899   2.143 -0.1911 -0.0926  3.9266
  142MOL0     H19588   7.288   6.592   2.157 -2.9445 -2.0507 -2.0794
  142MOL0     H19589   7.191   6.695   2.254 -0.3148  3.6432 -0.6526
  142MOL0     H19590   7.076   6.573   2.062  0.9673 -0.7437 -1.1614
  142MOL0     H19591   7.156   6.666   1.953 -1.8134 -1.2297 -0.0257
  142MOL0     H19592   6.850   6.921   2.082 -1.1657 -1.7466  4.8311
  142MOL0     H19593   7.636   6.772   2.394  0.2282 -1.2603  1.7254
  142MOL0     H19594   7.850   6.644   2.586  0.5427  1.3215  2.4763
  142MOL0     H19595   7.959   6.764   2.534  0.2292  0.2354  5.6924
  142MOL0     H19596   7.783   6.803   2.561  1.9382  0.3300  1.1502
  143MOL0     O19597   4.576   0.125   9.480  0.2100 -0.3714  0.2055
  143MOL0     C19598   4.473   0.185   9.492  0.1846 -0.3860 -0.6230
  143MOL0     O19599   4.442   0.273   9.596 -0.5548  0.2320  0.5004
  143MOL0     C19600   4.517   0.267   9.710 -0.2611 -0.3752 -0.7848
  143MOL0     C19601   4.626   0.350   9.723 -0.4804  0.0669  0.2961
  143MOL0     C19602   4.702   0.349   9.840 -0.4787  0.1618  0.3147
  143MOL0     C19603   4.678   0.268   9.943 -0.2978 -0.4882 -0.4708
  143MOL0     O19604   4.762   0.278  10.050 -0.6650 -0.3027 -0.4936
  143MOL0     C19605   4.761   0.172  10.148  0.6904 -0.0834  0.7040
  143MOL0     C19606   4.846   0.204  10.275  0.8726 -0.1707 -0.0854
  143MOL0     C19607   4.993   0.240  10.246  0.0337 -0.4203  0.3003
  143MOL0     C19608   5.067   0.156  10.140  0.5404 -0.4429 -0.4485
  143MOL0     C19609   5.218   0.143  10.170 -0.0339 -0.3944  1.1162
  143MOL0     C19610   5.291   0.268  10.115 -0.2522  0.6775  0.2804
  143MOL0     C19611   5.435   0.245  10.154  0.2421 -0.0469  0.0357
  143MOL0     C19612   5.512   0.377  10.148 -0.1122 -0.0770  0.2636
  143MOL0     N19613   5.538   0.417  10.013  0.3586 -0.1304 -0.9998
  143MOL0     C19614   5.461   0.500   9.929 -0.2983 -0.0057  0.8805
  143MOL0     C19615   5.554   0.513   9.827 -0.1881 -1.1496  0.0318
  143MOL0     C19616   5.511   0.593   9.712  0.1295 -0.2454  0.2846
  143MOL0     C19617   5.498   0.750   9.737  0.4096 -0.0212  0.1010
  143MOL0     C19618   5.448   0.827   9.614 -0.4761  0.2301  0.0063
  143MOL0     C19619   5.441   0.975   9.630  0.5648 -1.0308 -0.9378
  143MOL0     O19620   5.572   1.026   9.648 -0.1396 -0.2504 -0.1796
  143MOL0     C19621   5.666   1.030   9.547 -0.2659 -0.5172  0.2283
  143MOL0     C19622   5.655   0.997   9.410  1.0432 -0.8693  0.5052
  143MOL0     C19623   5.758   0.999   9.318 -0.6249  1.3544 -0.2580
  143MOL0     C19624   5.740   0.971   9.171  0.8399  0.4613  0.1207
  143MOL0     C19625   5.893   1.023   9.377 -0.1234 -0.3538  0.1557
  143MOL0     C19626   6.014   1.016   9.294  0.1404 -0.0071  0.2194
  143MOL0     O19627   6.132   1.006   9.351  0.4314 -0.0140  0.0908
  143MOL0     C19628   6.239   0.988   9.268  0.1506  0.1970  0.2659
  143MOL0     C19629   6.290   1.100   9.192 -0.4218  0.2097 -0.2763
  143MOL0     C19630   6.386   1.078   9.093  0.5641  0.1597 -0.9595
  143MOL0     C19631   6.431   0.950   9.066 -0.9377 -0.6565  0.4193
  143MOL0     O19632   6.511   0.939   8.953 -0.4590  0.0264 -0.4093
  143MOL0     C19633   6.577   0.802   8.924  0.8785 -0.1641  0.5267
  143MOL0     C19634   6.708   0.772   9.004  0.3148  0.2912  1.3931
  143MOL0     C19635   6.836   0.830   8.963 -1.0700 -0.4255 -0.2883
  143MOL0     C19636   6.935   0.765   9.059  1.0334  0.2240  0.7093
  143MOL0     C19637   7.077   0.798   9.012  0.0594 -0.1480 -0.3365
  143MOL0     C19638   7.187   0.726   9.082  0.8249 -0.2318  0.2498
  143MOL0     C19639   7.330   0.777   9.048  0.0577 -0.4115  0.3537
  143MOL0     C19640   7.443   0.675   9.082  0.0054 -0.0556  0.5092
  143MOL0    Cl19641   7.438   0.642   9.254  0.0582 -0.0572 -0.0954
  143MOL0     C19642   6.390   0.845   9.146  0.1657 -0.3064 -0.6584
  143MOL0     C19643   6.294   0.862   9.247  1.0336 -0.4040  0.4664
  143MOL0     O19644   5.999   1.026   9.171  0.2498  0.0245  0.1454
  143MOL0     C19645   5.901   1.045   9.510 -0.3457 -0.2112 -0.4024
  143MOL0     C19646   5.793   1.065   9.592  0.3440  0.8677 -0.0279
  143MOL0     N19647   5.670   0.442   9.851 -0.6463 -1.4440  0.7173
  143MOL0     N19648   5.654   0.381   9.960 -0.4009 -0.2560  0.3470
  143MOL0     C19649   4.556   0.196   9.938  0.5011 -0.0766 -0.5803
  143MOL0     C19650   4.471   0.198   9.821 -0.6149 -1.0788 -0.5361
  143MOL0     C19651   4.373   0.175   9.384 -0.1660 -0.3348  0.5478
  143MOL0     C19652   4.275   0.281   9.374  0.8287  0.3197  0.2262
  143MOL0     C19653   4.177   0.274   9.271  0.7376 -0.0036  0.0593
  143MOL0     C19654   4.171   0.169   9.177  0.2872  0.3733  0.0432
  143MOL0     O19655   4.079   0.165   9.082  0.6615 -0.4269  0.5951
  143MOL0     C19656   4.063   0.297   9.019  0.8545 -0.1253  0.0302
  143MOL0     C19657   4.053   0.282   8.862 -0.6674  0.6748  0.2267
  143MOL0     C19658   4.088   0.402   8.797  0.0238  0.9809 -0.0008
  143MOL0     C19659   4.243   0.425   8.786  0.4723 -0.7386  0.5699
  143MOL0     C19660   4.319   0.349   8.684 -0.0889 -0.1079  0.3589
  143MOL0     C19661   4.370   0.266   8.616  0.2992 -0.6526  0.0309
  143MOL0     C19662   4.264   0.061   9.191 -0.3266  0.2703 -0.0928
  143MOL0     C19663   4.363   0.064   9.295 -0.4819  0.1327  0.2115
  143MOL0     C19664   4.456  -0.053   9.303  0.1578  0.3060  0.0933
  143MOL0     H19665   4.650   0.416   9.640  0.2663 -0.4458  0.0845
  143MOL0     H19666   4.778   0.424   9.855 -1.2509  1.1700 -0.6420
  143MOL0     H19667   4.803   0.078  10.109  0.4592 -0.2850  0.9367
  143MOL0     H19668   4.656   0.163  10.177  0.7251 -1.3534  0.5270
  143MOL0     H19669   4.798   0.278  10.339  2.3228 -1.5743  2.8145
  143MOL0     H19670   4.845   0.110  10.331 -1.3343 -0.7150 -0.9348
  143MOL0     H19671   4.992   0.344  10.211 -3.1883 -1.1541 -2.3438
  143MOL0     H19672   5.053   0.240  10.338  0.3766  0.7483  0.0978
  143MOL0     H19673   5.019   0.058  10.149  0.2451 -0.2012  0.7451
  143MOL0     H19674   5.038   0.187  10.039 -3.1380  0.3606  0.6956
  143MOL0     H19675   5.260   0.056  10.120 -1.3696  0.9503 -2.6502
  143MOL0     H19676   5.224   0.132  10.279  0.8467 -0.5517  1.0638
  143MOL0     H19677   5.274   0.274  10.007 -1.2057  1.6573  0.4598
  143MOL0     H19678   5.246   0.354  10.165  0.9686  0.6342  1.4993
  143MOL0     H19679   5.475   0.160  10.099 -0.9331 -0.8697  0.4147
  143MOL0     H19680   5.445   0.223  10.260  0.6497  2.6039  0.6262
  143MOL0     H19681   5.464   0.457  10.203  0.6134  0.1223  0.6162
  143MOL0     H19682   5.609   0.367  10.197 -0.8162  0.0372  1.7315
  143MOL0     H19683   5.360   0.537   9.943 -0.3719  0.0988  0.1360
  143MOL0     H19684   5.418   0.562   9.662  1.1997  1.1380 -2.8377
  143MOL0     H19685   5.587   0.576   9.635 -1.2127 -0.2858 -1.0939
  143MOL0     H19686   5.421   0.768   9.812 -0.3438 -0.7919 -0.4589
  143MOL0     H19687   5.593   0.796   9.762  0.7175  0.7598 -2.2342
  143MOL0     H19688   5.511   0.799   9.529  1.7251 -1.0688  1.9359
  143MOL0     H19689   5.347   0.788   9.600 -1.1475  0.7435  2.7724
  143MOL0     H19690   5.395   1.016   9.540  0.5418  1.7921  0.2315
  143MOL0     H19691   5.380   1.004   9.717  1.3555 -1.5201 -0.2043
  143MOL0     H19692   5.562   0.982   9.356  1.1205  1.6146 -0.4316
  143MOL0     H19693   5.642   0.922   9.160  1.0835 -0.6281  2.4092
  143MOL0     H19694   5.809   0.899   9.125  1.1433 -0.0746  1.3939
  143MOL0     H19695   5.733   1.072   9.130  2.9374  0.5837 -0.0016
  143MOL0     H19696   6.249   1.197   9.218 -3.0394 -0.1717 -2.5674
  143MOL0     H19697   6.424   1.156   9.028 -4.0270  0.6797 -3.3490
  143MOL0     H19698   6.509   0.717   8.928 -3.1514  2.8166  1.7174
  143MOL0     H19699   6.603   0.815   8.818 -0.4738  1.6588  0.3664
  143MOL0     H19700   6.692   0.785   9.111  1.0893  0.2241  1.5217
  143MOL0     H19701   6.723   0.664   8.995  2.3664  0.6132  0.1965
  143MOL0     H19702   6.838   0.938   8.975 -0.0345 -0.3542 -0.9494
  143MOL0     H19703   6.858   0.815   8.857 -1.4740  0.7438 -0.5497
  143MOL0     H19704   6.925   0.656   9.066 -0.9455  0.4592  2.2676
  143MOL0     H19705   6.908   0.809   9.155  0.5367 -0.1566  0.7504
  143MOL0     H19706   7.081   0.778   8.905 -2.6049 -0.6685 -0.4132
  143MOL0     H19707   7.080   0.906   9.028  0.1314 -0.2046  0.0386
  143MOL0     H19708   7.177   0.618   9.063 -0.4902  0.3393 -2.7716
  143MOL0     H19709   7.171   0.741   9.189  0.7179 -1.5351  0.4329
  143MOL0     H19710   7.356   0.873   9.092  1.0218  1.7926 -4.3478
  143MOL0     H19711   7.322   0.796   8.940  0.2338  0.4083  0.4824
  143MOL0     H19712   7.536   0.726   9.059 -1.0557  1.0991 -1.4843
  143MOL0     H19713   7.428   0.588   9.018 -1.8274 -0.6255  1.6181
  143MOL0     H19714   6.418   0.742   9.127  0.5896 -0.0482 -1.4783
  143MOL0     H19715   6.245   0.776   9.291  0.1687  0.5941  1.5343
  143MOL0     H19716   6.001   1.065   9.548  0.3379 -0.5007 -1.9772
  143MOL0     H19717   5.800   1.107   9.692  1.4019  0.9335 -0.1172
  143MOL0     H19718   4.529   0.132  10.021  0.7788 -2.6634 -2.3637
  143MOL0     H19719   4.375   0.150   9.807 -0.9784 -0.3250 -0.6575
  143MOL0     H19720   4.289   0.369   9.436 -0.1864  2.3153 -2.1934
  143MOL0     H19721   4.106   0.356   9.260 -0.7465 -0.8944  2.2290
  143MOL0     H19722   3.972   0.343   9.058  1.6832  1.5802  0.0805
  143MOL0     H19723   4.150   0.361   9.038  1.9353 -1.2581 -0.9761
  143MOL0     H19724   3.947   0.270   8.836 -0.1080 -0.2919 -1.8092
  143MOL0     H19725   4.108   0.192   8.833  0.5529  1.8772 -1.3721
  143MOL0     H19726   4.050   0.408   8.695 -2.3567  1.5415  0.8543
  143MOL0     H19727   4.048   0.490   8.848 -0.0096  0.7344  0.4068
  143MOL0     H19728   4.289   0.403   8.883  0.7305  1.2084  0.9182
  143MOL0     H19729   4.265   0.531   8.776  0.4159 -0.7922 -0.1985
  143MOL0     H19730   4.417   0.192   8.555 -0.8096 -0.2604 -1.3486
  143MOL0     H19731   4.246  -0.017   9.118 -0.7965  0.4925 -0.2170
  143MOL0     H19732   4.557  -0.017   9.281  0.0852  1.2803  1.1989
  143MOL0     H19733   4.447  -0.102   9.400 -4.3421 -0.2959 -0.4328
  143MOL0     H19734   4.426  -0.127   9.229  0.6000 -0.1686  0.3748
  144MOL0     O19735   2.475   3.258   1.389 -0.4767 -0.2201  0.6924
  144MOL0     C19736   2.437   3.368   1.428  0.3085 -0.2739  0.0149
  144MOL0     O19737   2.480   3.485   1.386 -0.3231 -0.6156 -0.2022
  144MOL0     C19738   2.611   3.481   1.331  0.5200 -0.0269  0.2988
  144MOL0     C19739   2.714   3.504   1.427 -0.5038 -0.7502  0.2276
  144MOL0     C19740   2.842   3.513   1.380 -0.5325 -0.0158 -0.4201
  144MOL0     C19741   2.879   3.479   1.247 -0.6625  0.7941  0.2507
  144MOL0     O19742   3.009   3.457   1.210 -0.5154  0.0731 -0.5983
  144MOL0     C19743   3.041   3.397   1.079 -0.2282  0.5158 -0.8153
  144MOL0     C19744   3.194   3.385   1.070 -0.1500  0.0089 -0.1328
  144MOL0     C19745   3.279   3.516   1.072  0.0046 -1.0902  0.0871
  144MOL0     C19746   3.319   3.563   1.211 -0.5162 -0.6897  0.1523
  144MOL0     C19747   3.450   3.495   1.270  0.1915  0.5163  0.7413
  144MOL0     C19748   3.483   3.560   1.403 -0.4192  0.2207 -0.1614
  144MOL0     C19749   3.618   3.513   1.457 -0.1774 -0.5662 -0.3669
  144MOL0     C19750   3.739   3.590   1.400 -0.1168  0.5705  0.0859
  144MOL0     N19751   3.755   3.725   1.452 -0.4838  0.3648  0.5607
  144MOL0     C19752   3.791   3.747   1.582  0.2262 -0.2186 -0.1023
  144MOL0     C19753   3.778   3.878   1.602  0.2586 -0.3171 -0.1297
  144MOL0     C19754   3.803   3.947   1.733  0.0452  0.2571 -0.3587
  144MOL0     C19755   3.955   3.958   1.769  0.2969 -0.4848 -0.3211
  144MOL0     C19756   4.026   4.058   1.681 -0.4345 -1.0498  0.6500
  144MOL0     C19757   4.169   4.075   1.744  1.3523  0.0951  0.6959
  144MOL0     O19758   4.215   4.206   1.706  0.1244 -0.8310  0.0549
  144MOL0     C19759   4.347   4.231   1.752  0.7100 -0.2903  0.8996
  144MOL0     C19760   4.385   4.365   1.761  0.0638  0.5407 -0.1465
  144MOL0     C19761   4.503   4.411   1.825 -0.3210 -0.8531  0.5165
  144MOL0     C19762   4.522   4.561   1.831 -0.0873 -0.2233  0.1885
  144MOL0     C19763   4.592   4.312   1.868  0.6188 -0.1332 -0.1405
  144MOL0     C19764   4.729   4.339   1.926  0.6654  0.4787 -0.5675
  144MOL0     O19765   4.798   4.230   1.967  0.5992  0.2943  0.2595
  144MOL0     C19766   4.920   4.233   2.029 -0.9347  1.0833 -1.0092
  144MOL0     C19767   4.935   4.315   2.140 -0.3324  0.0384  0.2172
  144MOL0     C19768   5.058   4.323   2.208 -0.1516  0.0404  0.0129
  144MOL0     C19769   5.169   4.247   2.170 -0.4230 -0.0550  0.7344
  144MOL0     O19770   5.286   4.238   2.245 -0.4443  0.2721 -0.7146
  144MOL0     C19771   5.271   4.269   2.383 -0.0583  0.4721 -0.5388
  144MOL0     C19772   5.404   4.243   2.464  0.2878  0.8111  0.0666
  144MOL0     C19773   5.447   4.092   2.432 -0.2312  0.9374 -0.1295
  144MOL0     C19774   5.573   4.027   2.500 -0.0633 -0.2620  0.5076
  144MOL0     C19775   5.620   3.907   2.420 -0.4508  0.3149 -0.7877
  144MOL0     C19776   5.763   3.869   2.465 -1.0215 -0.2682  0.2092
  144MOL0     C19777   5.798   3.742   2.386  0.8812 -0.3358  0.3009
  144MOL0     C19778   5.942   3.689   2.407 -0.6608 -0.5124 -0.2392
  144MOL0    Cl19779   5.981   3.633   2.579  0.0437 -0.0630  0.3291
  144MOL0     C19780   5.156   4.166   2.055 -0.3249  0.5876  0.9445
  144MOL0     C19781   5.030   4.161   1.990 -0.5964  0.2988  1.0629
  144MOL0     O19782   4.768   4.456   1.931 -0.3514  0.1479  0.0274
  144MOL0     C19783   4.562   4.178   1.844  0.7013  0.3450 -0.0435
  144MOL0     C19784   4.442   4.138   1.788  0.0483 -0.9669 -0.5093
  144MOL0     N19785   3.757   3.938   1.480  0.3405 -0.2846 -0.4729
  144MOL0     N19786   3.740   3.847   1.390 -0.2985  0.1116 -0.1487
  144MOL0     C19787   2.774   3.445   1.159 -0.4991  0.0714  0.6534
  144MOL0     C19788   2.643   3.446   1.201  0.0783  0.3759 -0.3062
  144MOL0     C19789   2.329   3.364   1.540 -0.8660 -0.5114 -0.0067
  144MOL0     C19790   2.337   3.465   1.638 -0.0351 -0.2976 -0.5958
  144MOL0     C19791   2.252   3.470   1.750 -0.4406 -0.5548  0.2930
  144MOL0     C19792   2.153   3.379   1.764  0.0541 -0.4555  0.4829
  144MOL0     O19793   2.058   3.397   1.865 -0.1388  0.5984  0.1357
  144MOL0     C19794   1.955   3.309   1.891 -0.9196  0.3449  0.2808
  144MOL0     C19795   1.845   3.301   1.779 -0.4994 -1.2600 -0.3379
  144MOL0     C19796   1.718   3.259   1.844 -0.2998 -0.1504 -0.0625
  144MOL0     C19797   1.718   3.113   1.903 -0.3483 -1.1513 -0.0785
  144MOL0     C19798   1.712   3.019   1.788  0.1097 -0.1770 -0.2881
  144MOL0     C19799   1.714   2.938   1.692 -0.2255 -1.1405  1.1537
  144MOL0     C19800   2.140   3.277   1.668 -0.6099  0.8237 -0.2854
  144MOL0     C19801   2.222   3.273   1.552  0.3952  0.3956 -0.2334
  144MOL0     C19802   2.191   3.162   1.457 -1.2645  0.5580 -0.2566
  144MOL0     H19803   2.702   3.544   1.527 -1.3945  0.1821 -0.2232
  144MOL0     H19804   2.927   3.537   1.443 -0.8279 -0.6852  0.2407
  144MOL0     H19805   3.000   3.449   0.992  0.4244  0.5631 -1.1035
  144MOL0     H19806   3.001   3.295   1.082  2.7192 -0.7728  3.1994
  144MOL0     H19807   3.236   3.310   1.138  1.6320 -0.1437 -1.3515
  144MOL0     H19808   3.216   3.344   0.971 -0.9555 -0.3690 -0.1665
  144MOL0     H19809   3.372   3.498   1.018  0.3173 -1.6349  0.8027
  144MOL0     H19810   3.227   3.600   1.025  2.7470 -0.8245 -2.7918
  144MOL0     H19811   3.354   3.667   1.212 -0.4903 -0.7012  1.2279
  144MOL0     H19812   3.244   3.545   1.289  0.3985 -1.3528  0.9010
  144MOL0     H19813   3.530   3.506   1.196 -0.9368  0.5749 -0.5222
  144MOL0     H19814   3.437   3.387   1.276  1.3731  0.3505  0.4625
  144MOL0     H19815   3.491   3.667   1.380  0.0959 -0.4879 -4.0268
  144MOL0     H19816   3.402   3.541   1.474 -1.5484 -0.8774 -1.6865
  144MOL0     H19817   3.643   3.409   1.432 -0.0438 -0.5441 -0.3255
  144MOL0     H19818   3.613   3.519   1.566 -0.5950  0.9147 -0.4405
  144MOL0     H19819   3.838   3.544   1.416 -0.2972  0.3497  0.5711
  144MOL0     H19820   3.734   3.593   1.291  3.0518 -1.4778 -0.2502
  144MOL0     H19821   3.820   3.676   1.659 -1.8477  0.9836  1.8998
  144MOL0     H19822   3.758   3.894   1.818  1.1619  0.4734  0.4049
  144MOL0     H19823   3.753   4.044   1.723  0.7679  0.8884  1.5594
  144MOL0     H19824   3.968   3.981   1.875 -1.0545  0.9165 -0.4162
  144MOL0     H19825   4.006   3.866   1.742 -0.5909 -1.3180  0.7496
  144MOL0     H19826   4.041   4.023   1.579  0.7321 -0.8581  0.7406
  144MOL0     H19827   3.973   4.153   1.668  1.4464  0.0210  0.5621
  144MOL0     H19828   4.158   4.066   1.853 -0.8081 -4.2069  0.3463
  144MOL0     H19829   4.226   3.988   1.709  1.0921  0.0391  0.4130
  144MOL0     H19830   4.332   4.448   1.716  1.2295  0.6011 -1.4707
  144MOL0     H19831   4.593   4.588   1.753 -0.0235 -1.2902 -0.1326
  144MOL0     H19832   4.557   4.582   1.933 -0.4484 -3.8016  1.1868
  144MOL0     H19833   4.428   4.616   1.815  0.6148  0.5303 -1.5110
  144MOL0     H19834   4.860   4.383   2.178  0.8483  1.2797  0.4135
  144MOL0     H19835   5.064   4.394   2.290 -0.4926 -0.1637  0.2151
  144MOL0     H19836   5.247   4.376   2.384 -1.4156  0.2464  2.7746
  144MOL0     H19837   5.189   4.207   2.419  1.5503 -0.6562  1.3715
  144MOL0     H19838   5.482   4.312   2.431  1.0869  0.4513  1.1423
  144MOL0     H19839   5.387   4.245   2.572  2.5403 -0.4456  0.5067
  144MOL0     H19840   5.458   4.075   2.325  1.1718  0.7283  0.0286
  144MOL0     H19841   5.365   4.024   2.460  0.5192 -0.9552 -2.2444
  144MOL0     H19842   5.553   3.981   2.597 -1.1745 -3.3363 -1.0600
  144MOL0     H19843   5.647   4.107   2.512 -0.0971 -0.0329 -0.7015
  144MOL0     H19844   5.552   3.825   2.443 -0.7709  0.9192  0.5309
  144MOL0     H19845   5.631   3.938   2.315  2.1636  0.1429 -0.6232
  144MOL0     H19846   5.778   3.867   2.573  2.9000 -2.0073 -0.2120
  144MOL0     H19847   5.840   3.939   2.433  0.0789 -1.7975 -0.6328
  144MOL0     H19848   5.792   3.767   2.280  0.4839  0.5499  0.5260
  144MOL0     H19849   5.728   3.662   2.412 -0.7798  0.7630 -0.5831
  144MOL0     H19850   6.020   3.757   2.370 -0.0900 -0.8471  0.3290
  144MOL0     H19851   5.952   3.603   2.340 -1.0508 -0.0720 -0.8669
  144MOL0     H19852   5.250   4.119   2.027  0.5770  2.9446 -0.3315
  144MOL0     H19853   5.020   4.092   1.906  0.3727  3.7985 -2.1861
  144MOL0     H19854   4.630   4.102   1.881 -1.4638 -1.9521 -0.5473
  144MOL0     H19855   4.422   4.031   1.786  0.7214 -1.1984  1.9527
  144MOL0     H19856   2.799   3.437   1.054 -1.1465  2.9342  0.2012
  144MOL0     H19857   2.558   3.434   1.135 -0.5012 -1.1688  0.6654
  144MOL0     H19858   2.411   3.544   1.632 -1.8814  1.4783 -0.8548
  144MOL0     H19859   2.272   3.557   1.811 -0.4129  0.3637 -0.9861
  144MOL0     H19860   1.999   3.217   1.931  2.3044  0.9917 -1.5404
  144MOL0     H19861   1.909   3.359   1.977  0.4911 -3.2927  3.4384
  144MOL0     H19862   1.866   3.228   1.701  3.3447 -1.3350  0.5473
  144MOL0     H19863   1.836   3.405   1.744 -0.2868 -0.2582  2.3172
  144MOL0     H19864   1.694   3.323   1.929 -1.4465 -1.6753  0.8214
  144MOL0     H19865   1.642   3.276   1.766 -0.6336  0.5840  0.4180
  144MOL0     H19866   1.630   3.091   1.964  0.8531 -1.5012  1.5883
  144MOL0     H19867   1.806   3.101   1.966 -0.7443  0.4426  0.8236
  144MOL0     H19868   1.712   2.870   1.610 -1.9483  0.7888 -0.5442
  144MOL0     H19869   2.064   3.202   1.685 -0.3906  0.5855 -0.3550
  144MOL0     H19870   2.159   3.076   1.516  1.1571  1.1654  2.1402
  144MOL0     H19871   2.119   3.180   1.375  0.4331 -1.1596 -2.2325
  144MOL0     H19872   2.281   3.134   1.402 -0.8907  0.9850  0.1244
  145MOL0     O19873   3.201   7.887   5.997 -0.0995  0.3506  0.1129
  145MOL0     C19874   3.137   7.918   5.901  0.0330 -0.6205  0.2232
  145MOL0     O19875   3.050   8.026   5.902  0.2814  0.7031 -0.3244
  145MOL0     C19876   3.042   8.108   6.021  0.0191  1.3881 -0.8756
  145MOL0     C19877   2.920   8.158   6.063 -0.4978  0.6268 -0.1387
  145MOL0     C19878   2.904   8.225   6.178  0.2371 -0.0857 -0.5289
  145MOL0     C19879   3.006   8.240   6.266  0.4969  0.2857 -0.3361
  145MOL0     O19880   2.983   8.282   6.398  0.3153  0.4981  0.0313
  145MOL0     C19881   3.093   8.323   6.480 -0.6764 -1.3287 -0.0627
  145MOL0     C19882   3.016   8.395   6.595  0.0228 -0.2512 -0.7766
  145MOL0     C19883   3.103   8.437   6.716 -0.1440  0.2104 -1.0162
  145MOL0     C19884   3.198   8.555   6.676  0.3187 -1.5799 -0.2995
  145MOL0     C19885   3.252   8.618   6.801  0.1432  0.0201 -0.0466
  145MOL0     C19886   3.148   8.696   6.892 -0.4600 -0.2549 -0.2793
  145MOL0     C19887   3.060   8.799   6.815  0.4581 -0.3084 -0.3787
  145MOL0     C19888   2.963   8.878   6.913 -0.0604  0.0757 -0.2105
  145MOL0     N19889   2.896   8.993   6.836 -0.3279  0.8021  0.0784
  145MOL0     C19890   2.827   8.990   6.718 -0.1836 -0.3555  0.0267
  145MOL0     C19891   2.794   9.117   6.688  0.7799 -0.4970 -0.1721
  145MOL0     C19892   2.708   9.145   6.565 -0.3365  0.0469 -0.6319
  145MOL0     C19893   2.567   9.163   6.621 -0.3281 -0.4237 -0.4218
  145MOL0     C19894   2.483   9.237   6.519  0.6631  0.7931  0.3610
  145MOL0     C19895   2.339   9.257   6.563  0.8179 -0.0012 -0.9391
  145MOL0     O19896   2.326   9.269   6.710  0.2100 -0.1671  0.9475
  145MOL0     C19897   2.193   9.262   6.753 -0.1758  0.3277  0.2686
  145MOL0     C19898   2.146   9.130   6.793 -0.3712 -0.1962  0.0267
  145MOL0     C19899   2.007   9.120   6.835  0.8608  0.0456 -0.2125
  145MOL0     C19900   1.962   8.987   6.876  0.3416  0.4959  0.3900
  145MOL0     C19901   1.913   9.228   6.824 -0.4975 -0.3214 -0.0259
  145MOL0     C19902   1.769   9.227   6.856 -0.4636  0.3060  0.1243
  145MOL0     O19903   1.702   9.345   6.852  0.5968  0.0053 -0.5426
  145MOL0     C19904   1.594   9.353   6.947 -0.1083  0.0491  0.0851
  145MOL0     C19905   1.619   9.428   7.067  0.8410  0.2560 -0.2856
  145MOL0     C19906   1.519   9.429   7.169 -0.3265 -0.7655 -0.2287
  145MOL0     C19907   1.392   9.374   7.155  0.0186 -0.7012  0.4544
  145MOL0     O19908   1.282   9.385   7.245  0.0157 -0.4054 -0.2500
  145MOL0     C19909   1.297   9.473   7.363  0.3150 -0.0324  0.0235
  145MOL0     C19910   1.174   9.448   7.454 -0.1043  0.5988 -0.5555
  145MOL0     C19911   1.044   9.476   7.389  0.5654  0.0928 -0.0832
  145MOL0     C19912   0.922   9.430   7.465  0.5074 -0.2750 -1.4457
  145MOL0     C19913   0.890   9.506   7.589  0.0555  0.0473 -0.3727
  145MOL0     C19914   0.758   9.466   7.659 -0.7561 -0.4620 -0.5021
  145MOL0     C19915   0.734   9.316   7.694  0.2300  0.5813  0.0668
  145MOL0     C19916   0.830   9.259   7.805  0.1411  0.2446 -0.0485
  145MOL0    Cl19917   0.999   9.225   7.767 -0.0051  0.2411  0.1742
  145MOL0     C19918   1.375   9.310   7.026 -0.4489 -0.2935  0.6771
  145MOL0     C19919   1.466   9.308   6.919  0.0817  0.5991 -0.4413
  145MOL0     O19920   1.714   9.119   6.876 -0.3871  0.0341  0.1948
  145MOL0     C19921   1.960   9.353   6.773  0.4902 -0.1058 -0.2559
  145MOL0     C19922   2.097   9.366   6.743 -0.2019  0.0035 -0.1387
  145MOL0     N19923   2.843   9.196   6.790  1.1578  0.0822 -0.1775
  145MOL0     N19924   2.912   9.119   6.869  0.1574 -0.4269  0.2232
  145MOL0     C19925   3.133   8.207   6.222 -0.4714 -0.4402 -0.0377
  145MOL0     C19926   3.153   8.139   6.104  0.8076  0.1020 -0.4725
  145MOL0     C19927   3.128   7.832   5.774 -0.2534  0.3542 -0.0920
  145MOL0     C19928   3.020   7.848   5.695  0.0005  1.2181  0.2744
  145MOL0     C19929   2.998   7.763   5.586  0.3925  0.0422 -0.1750
  145MOL0     C19930   3.089   7.661   5.558 -0.4426 -0.9568  0.0504
  145MOL0     O19931   3.087   7.578   5.451  0.3807  0.0082 -0.1380
  145MOL0     C19932   2.965   7.565   5.370  0.0574 -0.1151 -0.1195
  145MOL0     C19933   2.838   7.503   5.437 -0.3450 -0.2640  0.0268
  145MOL0     C19934   2.727   7.498   5.332 -0.4850 -0.6023 -0.7359
  145MOL0     C19935   2.638   7.392   5.394  1.1383 -0.0389 -0.3370
  145MOL0     C19936   2.500   7.408   5.356 -0.0240 -0.2526 -0.3182
  145MOL0     C19937   2.386   7.392   5.323 -0.5352  0.9881 -0.1599
  145MOL0     C19938   3.204   7.645   5.641  1.0536 -0.1202  0.5777
  145MOL0     C19939   3.228   7.727   5.753 -0.5003  0.3586 -0.3411
  145MOL0     C19940   3.348   7.701   5.840 -0.7183 -0.7744 -0.1581
  145MOL0     H19941   2.835   8.131   6.000 -1.9962 -0.4668  2.1995
  145MOL0     H19942   2.800   8.247   6.202  0.1351 -1.1883  0.1025
  145MOL0     H19943   3.161   8.393   6.432 -1.5601 -0.3696  0.0420
  145MOL0     H19944   3.163   8.247   6.514  2.3595  0.8965 -0.8989
  145MOL0     H19945   2.965   8.486   6.563 -0.0377 -0.1485 -0.3942
  145MOL0     H19946   2.943   8.328   6.642  0.7742  0.0265  0.8291
  145MOL0     H19947   3.041   8.468   6.801  1.3131 -0.7201  0.4517
  145MOL0     H19948   3.163   8.357   6.760 -1.1491  0.7926  1.6455
  145MOL0     H19949   3.283   8.517   6.618  0.0363 -0.3541 -1.5629
  145MOL0     H19950   3.143   8.623   6.610  0.3862 -0.2998  0.9082
  145MOL0     H19951   3.321   8.685   6.749  0.7227 -1.4083 -1.1829
  145MOL0     H19952   3.305   8.546   6.865 -2.2034 -1.3677  0.4708
  145MOL0     H19953   3.094   8.633   6.964  2.0645  0.6079  2.5690
  145MOL0     H19954   3.223   8.745   6.954  2.1246 -0.1577 -3.2527
  145MOL0     H19955   2.998   8.745   6.743  0.5129 -0.0146 -0.6456
  145MOL0     H19956   3.135   8.862   6.765  2.3234 -2.1598 -0.0450
  145MOL0     H19957   2.883   8.812   6.948 -0.9134  0.5825 -1.1448
  145MOL0     H19958   3.018   8.914   7.000  1.6683 -0.1792 -1.1446
  145MOL0     H19959   2.799   8.895   6.673 -1.3557  1.3202 -3.0759
  145MOL0     H19960   2.709   9.064   6.492 -0.9250 -0.1103 -0.4738
  145MOL0     H19961   2.746   9.234   6.513  1.4763 -0.7244 -0.6987
  145MOL0     H19962   2.517   9.069   6.647 -0.6980  0.1394  0.9722
  145MOL0     H19963   2.568   9.219   6.714 -1.3225 -0.0446 -0.6270
  145MOL0     H19964   2.529   9.330   6.485  0.4223  0.8366  0.1555
  145MOL0     H19965   2.476   9.168   6.434 -0.4900 -1.7083  2.3707
  145MOL0     H19966   2.302   9.351   6.519 -1.8647 -0.0570  0.9557
  145MOL0     H19967   2.275   9.176   6.528  2.1900 -1.1214 -0.9070
  145MOL0     H19968   2.212   9.045   6.781  0.7365  0.8318 -1.5105
  145MOL0     H19969   2.051   8.924   6.891  0.9852  1.1497 -0.5451
  145MOL0     H19970   1.894   8.938   6.806 -1.7374  0.3962  2.3529
  145MOL0     H19971   1.898   8.988   6.965  0.0186  1.9207  0.1644
  145MOL0     H19972   1.720   9.459   7.091  1.1341  0.3056 -1.5298
  145MOL0     H19973   1.542   9.476   7.265 -1.8035  1.9856 -1.1111
  145MOL0     H19974   1.392   9.465   7.417 -0.2817  1.4721  1.4141
  145MOL0     H19975   1.311   9.579   7.340  1.0863  0.2180  1.5067
  145MOL0     H19976   1.170   9.343   7.486  0.6688  1.4137  2.5527
  145MOL0     H19977   1.192   9.506   7.544  1.2461 -2.0787  1.0233
  145MOL0     H19978   1.037   9.429   7.290 -0.0484  3.2274 -1.6992
  145MOL0     H19979   1.031   9.580   7.356  1.9023 -0.7354 -3.7372
  145MOL0     H19980   0.945   9.325   7.485  4.2361  0.8551  1.5484
  145MOL0     H19981   0.838   9.430   7.395 -2.9256 -0.9081  2.2828
  145MOL0     H19982   0.968   9.477   7.660 -1.6937 -0.0614  1.6303
  145MOL0     H19983   0.883   9.614   7.576 -0.5830 -0.1526 -1.8797
  145MOL0     H19984   0.674   9.491   7.593 -0.1631  1.5862 -0.5435
  145MOL0     H19985   0.741   9.506   7.759 -1.4967 -0.8643 -0.4571
  145MOL0     H19986   0.738   9.253   7.604  0.0022 -1.2022  1.2514
  145MOL0     H19987   0.632   9.307   7.731 -0.4166  0.8399 -1.5618
  145MOL0     H19988   0.802   9.156   7.832 -4.9776  1.3240 -0.1947
  145MOL0     H19989   0.812   9.329   7.886 -1.8939  1.3685 -1.3784
  145MOL0     H19990   1.283   9.269   6.984 -0.5549  0.4093  0.2131
  145MOL0     H19991   1.439   9.264   6.823 -0.6100  1.0056 -0.4314
  145MOL0     H19992   1.897   9.441   6.769 -3.3456 -2.6194 -2.8403
  145MOL0     H19993   2.127   9.463   6.703 -1.5295  0.3940 -0.2268
  145MOL0     H19994   3.222   8.215   6.283 -1.2959  0.2130  1.1023
  145MOL0     H19995   3.249   8.089   6.099  0.0826 -1.2179 -1.8227
  145MOL0     H19996   2.944   7.921   5.718 -2.9216 -1.2615 -0.9153
  145MOL0     H19997   2.906   7.782   5.531  0.0728 -0.1136  0.3068
  145MOL0     H19998   2.939   7.659   5.320  3.1050  1.7103  1.3910
  145MOL0     H19999   2.997   7.498   5.290  0.7370 -0.3973  0.3741
  145MOL0     H20000   2.825   7.572   5.521 -2.9907 -0.7035  0.0571
  145MOL0     H20001   2.865   7.405   5.479 -0.1062 -0.2337 -0.0549
  145MOL0     H20002   2.668   7.589   5.318  2.7077  2.1563  2.0958
  145MOL0     H20003   2.764   7.455   5.238  3.3901 -2.7719  1.5301
  145MOL0     H20004   2.632   7.399   5.503  0.2092 -2.8588 -0.1336
  145MOL0     H20005   2.670   7.290   5.369  2.2585  0.5115 -1.2860
  145MOL0     H20006   2.286   7.370   5.291 -1.2400 -0.0749  2.4990
  145MOL0     H20007   3.261   7.557   5.615 -2.4217 -1.5404 -3.4257
  145MOL0     H20008   3.423   7.646   5.784  0.3649 -0.2234  0.7182
  145MOL0     H20009   3.392   7.800   5.855 -0.7959 -0.9865  1.8609
  145MOL0     H20010   3.320   7.636   5.924  0.4062 -0.3265  0.5861
  146MOL0     O20011  10.387   9.861  10.784  0.5036 -0.4356  0.0979
  146MOL0     C20012  10.422   9.849  10.904  0.0368  0.2361  0.7427
  146MOL0     O20013  10.520   9.777  10.945 -0.3650  0.4267 -0.4751
  146MOL0     C20014  10.618   9.723  10.872 -0.0342  0.7307 -0.1831
  146MOL0     C20015  10.671   9.796  10.760 -0.4555  0.1988  0.1199
  146MOL0     C20016  10.776   9.755  10.688 -0.2917  0.0081  0.1618
  146MOL0     C20017  10.836   9.639  10.722  0.1344 -0.5144 -0.5842
  146MOL0     O20018  10.937   9.588  10.646  0.1575 -0.1079  0.0490
  146MOL0     C20019  10.968   9.628  10.513  0.5687 -0.3436  0.0019
  146MOL0     C20020  11.038   9.505  10.455 -0.1635  0.0776 -0.1561
  146MOL0     C20021  11.061   9.531  10.309  0.0091  0.7283  0.4242
  146MOL0     C20022  11.139   9.410  10.243 -0.2872 -0.6820  0.1193
  146MOL0     C20023  11.175   9.436  10.092 -0.3791  0.4705 -0.6410
  146MOL0     C20024  11.266   9.318  10.046 -0.3526 -0.3054  0.0685
  146MOL0     C20025  11.268   9.312   9.893 -1.1925 -0.0738 -0.3010
  146MOL0     C20026  11.357   9.196   9.850  0.0179  0.4473 -0.7680
  146MOL0     N20027  11.474   9.231   9.770  0.6121 -0.2102 -0.5680
  146MOL0     C20028  11.469   9.239   9.631  0.1581  0.6513  0.4022
  146MOL0     C20029  11.596   9.216   9.596  0.0330 -0.8215 -0.0749
  146MOL0     C20030  11.652   9.213   9.461  0.0186 -0.7212  0.4132
  146MOL0     C20031  11.726   9.333   9.423 -0.6469 -0.0929  0.7175
  146MOL0     C20032  11.868   9.340   9.493  0.4867 -0.1824  0.8168
  146MOL0     C20033  11.965   9.426   9.415  0.2355  0.2800  0.4698
  146MOL0     O20034  12.079   9.439   9.493  0.1217  0.0960 -0.2091
  146MOL0     C20035  12.179   9.521   9.444  0.3832 -0.1223  0.5093
  146MOL0     C20036  12.170   9.606   9.333 -0.2094  0.6181 -0.2091
  146MOL0     C20037  12.278   9.681   9.290  0.0715 -0.0322 -0.4364
  146MOL0     C20038  12.272   9.757   9.163 -0.2916  0.3004  0.4181
  146MOL0     C20039  12.398   9.677   9.370 -0.0401 -0.2555 -0.4464
  146MOL0     C20040  12.531   9.737   9.341  0.0722  0.0772  0.0700
  146MOL0     O20041  12.566   9.746   9.212  0.1915  0.0578 -0.4371
  146MOL0     C20042  12.680   9.809   9.172  0.0174  0.2319 -0.8245
  146MOL0     C20043  12.715   9.941   9.214 -0.3303  0.3995  0.2469
  146MOL0     C20044  12.831   9.997   9.153  0.0695 -0.3035 -0.7269
  146MOL0     C20045  12.899   9.934   9.052 -0.0878 -0.4651  0.4575
  146MOL0     O20046  13.005   9.995   8.989  0.2652  1.3563 -0.8751
  146MOL0     C20047  13.055  10.123   9.029  0.2414  0.2804 -0.1170
  146MOL0     C20048  13.156  10.173   8.926  0.3733 -0.4752 -0.1568
  146MOL0     C20049  13.175  10.325   8.949 -0.2221  0.8162  0.6672
  146MOL0     C20050  13.321  10.364   8.940 -0.6405 -0.5871  0.5725
  146MOL0     C20051  13.325  10.517   8.932  0.2494  0.3278 -0.1101
  146MOL0     C20052  13.470  10.571   8.905  0.3535 -0.4698 -0.5758
  146MOL0     C20053  13.582  10.521   9.001 -0.4587 -0.3927 -0.0477
  146MOL0     C20054  13.714  10.603   8.997 -0.2408 -0.2806 -0.6903
  146MOL0    Cl20055  13.809  10.564   8.850 -0.2948 -0.1964  0.0230
  146MOL0     C20056  12.868   9.805   9.015 -0.1140 -0.3339 -0.1454
  146MOL0     C20057  12.756   9.744   9.076 -0.1313 -0.3303  0.3937
  146MOL0     O20058  12.594   9.779   9.437  0.6103  0.8149  0.3102
  146MOL0     C20059  12.395   9.599   9.486 -0.5663  0.1680  0.4701
  146MOL0     C20060  12.293   9.522   9.519 -0.3805 -0.3027 -1.1013
  146MOL0     N20061  11.673   9.212   9.711 -0.6539  0.0373 -0.9639
  146MOL0     N20062  11.598   9.227   9.817 -0.1579 -0.2903  0.1594
  146MOL0     C20063  10.799   9.567  10.831 -0.4246 -1.0175  0.7172
  146MOL0     C20064  10.697   9.611  10.908  0.8479 -0.2164 -0.4157
  146MOL0     C20065  10.335   9.906  11.002  0.3681  0.0356 -0.1048
  146MOL0     C20066  10.307   9.828  11.121  0.3183  0.5595  0.0728
  146MOL0     C20067  10.211   9.875  11.216  0.2465 -0.5545 -0.4648
  146MOL0     C20068  10.149   9.998  11.196 -0.3694  0.8028 -0.2627
  146MOL0     O20069  10.077  10.056  11.296  0.1123  0.1095  0.1808
  146MOL0     C20070   9.937  10.083  11.285  0.6106 -0.1733  0.4455
  146MOL0     C20071   9.860   9.960  11.249 -0.5925  0.8605  0.7202
  146MOL0     C20072   9.715   9.992  11.258  1.1031 -0.5654 -1.0259
  146MOL0     C20073   9.624   9.871  11.202  0.2262  0.4954  0.4934
  146MOL0     C20074   9.619   9.754  11.290  0.8466 -0.4913 -0.0479
  146MOL0     C20075   9.636   9.650  11.346 -0.4769  0.3779 -0.7003
  146MOL0     C20076  10.178  10.066  11.085  0.1980  0.8480 -0.1617
  146MOL0     C20077  10.265  10.026  10.990 -0.0572  0.8037  0.4752
  146MOL0     C20078  10.288  10.127  10.869  0.4402  0.5272 -1.3570
  146MOL0     H20079  10.635   9.896  10.740  0.2836  0.8817  1.9891
  146MOL0     H20080  10.807   9.818  10.606 -0.9954 -0.9923 -0.8998
  146MOL0     H20081  11.032   9.717  10.513 -0.1305  0.1667  0.5984
  146MOL0     H20082  10.876   9.654  10.460  0.7959  1.3757  0.4092
  146MOL0     H20083  11.129   9.491  10.514 -1.7026 -1.1781  2.0387
  146MOL0     H20084  10.974   9.419  10.477  0.0001  0.6795  3.3431
  146MOL0     H20085  10.961   9.541  10.266 -1.0266  0.6072  2.6335
  146MOL0     H20086  11.128   9.617  10.299  0.7370  0.0597 -0.5058
  146MOL0     H20087  11.235   9.394  10.291  0.6003  1.0817 -0.9732
  146MOL0     H20088  11.078   9.320  10.257  0.2364 -0.9645  0.5753
  146MOL0     H20089  11.234   9.528  10.096 -0.3183  0.5696 -2.8417
  146MOL0     H20090  11.085   9.453  10.032 -0.4235  0.0352 -0.7040
  146MOL0     H20091  11.364   9.332  10.093 -0.9195 -0.1641  1.2354
  146MOL0     H20092  11.217   9.225  10.075 -2.1506  0.6519  0.2445
  146MOL0     H20093  11.308   9.409   9.860 -1.2224  0.6967  1.7486
  146MOL0     H20094  11.168   9.297   9.851 -0.5267  0.8552 -2.3445
  146MOL0     H20095  11.395   9.145   9.939 -1.4083 -0.6916 -0.7643
  146MOL0     H20096  11.307   9.119   9.790  1.1677 -0.9504  0.0068
  146MOL0     H20097  11.381   9.257   9.571 -1.2462 -2.9213  1.1511
  146MOL0     H20098  11.559   9.219   9.404 -1.3407  0.3450  2.6226
  146MOL0     H20099  11.696   9.116   9.434 -4.3828 -2.2844 -2.1353
  146MOL0     H20100  11.737   9.342   9.315  1.0314 -0.6196  0.8156
  146MOL0     H20101  11.661   9.417   9.451 -2.0350 -1.2650  1.1745
  146MOL0     H20102  11.857   9.384   9.593 -0.3577  0.4176  0.4747
  146MOL0     H20103  11.920   9.244   9.497  1.2809  0.1712 -0.5707
  146MOL0     H20104  11.990   9.365   9.327 -1.3052  0.5286 -0.1739
  146MOL0     H20105  11.919   9.520   9.385 -0.6556 -0.0503  0.7530
  146MOL0     H20106  12.074   9.613   9.282 -1.9812 -1.6634  2.4813
  146MOL0     H20107  12.332   9.708   9.087  0.8124  1.9048  0.2331
  146MOL0     H20108  12.324   9.852   9.175  1.3682 -0.4972 -0.2890
  146MOL0     H20109  12.173   9.773   9.118  1.2410  1.8225 -2.6542
  146MOL0     H20110  12.651   9.992   9.285 -0.7099  0.4704 -0.1514
  146MOL0     H20111  12.845  10.098   9.192 -2.0441 -0.9805  2.1919
  146MOL0     H20112  12.972  10.190   9.052 -0.3247 -0.9621  1.7372
  146MOL0     H20113  13.107  10.115   9.124 -0.5793 -0.9976  0.2526
  146MOL0     H20114  13.251  10.118   8.931  0.5600 -0.0761  2.3145
  146MOL0     H20115  13.107  10.160   8.829 -3.0298  1.6246  1.1126
  146MOL0     H20116  13.135  10.354   9.047  0.3818 -0.0180  1.1777
  146MOL0     H20117  13.112  10.380   8.879  0.4409  0.2941 -0.3558
  146MOL0     H20118  13.372  10.301   8.866 -2.0497 -3.1845  1.6578
  146MOL0     H20119  13.377  10.330   9.028 -0.7062 -1.1265  0.4136
  146MOL0     H20120  13.255  10.551   8.855  0.4206  0.4700 -0.2051
  146MOL0     H20121  13.290  10.557   9.027  0.3722 -0.5897  0.3278
  146MOL0     H20122  13.464  10.678   8.923  0.3021 -0.7998  1.6025
  146MOL0     H20123  13.500  10.562   8.800  1.2950  1.1283 -0.4726
  146MOL0     H20124  13.603  10.418   8.973  1.0427 -0.0452 -0.2926
  146MOL0     H20125  13.549  10.524   9.106  1.0568 -2.4485  0.5575
  146MOL0     H20126  13.777  10.576   9.082  3.2801  3.9905 -1.6044
  146MOL0     H20127  13.689  10.709   8.987  1.7023  0.3319  0.6246
  146MOL0     H20128  12.925   9.753   8.938  0.7489 -0.2684  0.4371
  146MOL0     H20129  12.723   9.648   9.037 -1.8964 -0.1654  1.3861
  146MOL0     H20130  12.485   9.593   9.548 -0.5011 -2.9116  0.2563
  146MOL0     H20131  12.302   9.450   9.600 -2.4747  1.4046  0.7690
  146MOL0     H20132  10.847   9.471  10.852  1.1654 -0.2459  0.7439
  146MOL0     H20133  10.665   9.565  11.001 -0.1908 -1.6511 -1.4445
  146MOL0     H20134  10.362   9.738  11.144 -0.7228 -0.4302 -1.1485
  146MOL0     H20135  10.186   9.815  11.303 -2.7783  2.6060  1.0847
  146MOL0     H20136   9.909  10.100  11.389  0.9199 -2.6008  0.9982
  146MOL0     H20137   9.915  10.166  11.218 -0.4896 -1.1393 -0.4260
  146MOL0     H20138   9.886   9.872  11.309  1.1828 -2.1606 -3.8849
  146MOL0     H20139   9.891   9.934  11.147  1.8854  1.9073  1.1111
  146MOL0     H20140   9.690   9.982  11.364  0.6003 -0.9311 -1.1779
  146MOL0     H20141   9.696  10.093  11.221 -0.7728  0.9695  3.4084
  146MOL0     H20142   9.669   9.838  11.108  0.1019  2.6263 -0.3683
  146MOL0     H20143   9.528   9.915  11.174 -0.7761 -1.9848 -0.2753
  146MOL0     H20144   9.651   9.554  11.391  4.3470  2.1279  2.2128
  146MOL0     H20145  10.123  10.159  11.083  0.8091  1.2687  1.0692
  146MOL0     H20146  10.267  10.231  10.897 -0.1061 -0.1337  0.9154
  146MOL0     H20147  10.394  10.137  10.845  1.2692 -1.1158  1.1241
  146MOL0     H20148  10.231  10.107  10.778 -1.8045 -1.0938  0.3027
  147MOL0     O20149   0.756   6.467   9.817 -0.3055 -0.7384  0.4763
  147MOL0     C20150   0.674   6.491   9.905 -0.0348  0.1120 -0.0434
  147MOL0     O20151   0.661   6.418  10.021 -0.3453  0.2649 -0.2848
  147MOL0     C20152   0.754   6.322  10.059  0.3361  0.0105 -0.4800
  147MOL0     C20153   0.705   6.234  10.160 -0.2969 -0.4564  0.5350
  147MOL0     C20154   0.786   6.135  10.213 -0.8978  0.7359 -0.4392
  147MOL0     C20155   0.925   6.141  10.188  0.1865  0.5897  0.8801
  147MOL0     O20156   1.005   6.050  10.257 -0.6932 -0.1166  0.3300
  147MOL0     C20157   1.142   6.085  10.261 -0.0684 -0.4977 -0.7371
  147MOL0     C20158   1.200   6.035  10.390  0.5521  0.2614 -0.9451
  147MOL0     C20159   1.348   6.032  10.388 -0.0357  0.1872 -0.3357
  147MOL0     C20160   1.410   6.170  10.349  0.2443 -1.0522 -0.9359
  147MOL0     C20161   1.557   6.164  10.354 -0.9670  0.1689  0.0766
  147MOL0     C20162   1.625   6.290  10.298 -0.7089  0.0785  0.2747
  147MOL0     C20163   1.787   6.295  10.289  0.2761  0.0944  0.7397
  147MOL0     C20164   1.848   6.425  10.350  0.7123  0.0191 -0.2196
  147MOL0     N20165   1.981   6.456  10.315 -0.0701 -0.0833  0.4255
  147MOL0     C20166   2.025   6.510  10.189  0.5294  0.3070 -0.4638
  147MOL0     C20167   2.155   6.535  10.212 -0.0542 -1.2966 -0.1879
  147MOL0     C20168   2.241   6.599  10.111 -0.0736 -0.2592  0.1280
  147MOL0     C20169   2.385   6.623  10.158  0.3974 -0.2846  0.2277
  147MOL0     C20170   2.396   6.727  10.277 -0.0559 -0.6933 -0.0200
  147MOL0     C20171   2.536   6.782  10.290  1.1751  0.8881 -0.7257
  147MOL0     O20172   2.584   6.848  10.176 -0.5529  0.5807  0.8342
  147MOL0     C20173   2.716   6.895  10.176  0.3095 -0.1547  0.0553
  147MOL0     C20174   2.818   6.906  10.268 -0.3549 -0.4211  0.2395
  147MOL0     C20175   2.931   6.984  10.253  0.1147  0.2402 -0.1957
  147MOL0     C20176   3.024   7.000  10.375 -0.8647 -0.1633 -0.2870
  147MOL0     C20177   2.968   7.039  10.127 -0.6340 -0.1851  0.2697
  147MOL0     C20178   3.093   7.103  10.089  0.1260  0.2213  0.3088
  147MOL0     O20179   3.091   7.175   9.974 -0.1471 -0.2473  0.6748
  147MOL0     C20180   3.207   7.230   9.929  0.5149 -0.2562 -0.4390
  147MOL0     C20181   3.298   7.160   9.840  0.1492 -0.0146 -0.0890
  147MOL0     C20182   3.404   7.235   9.793 -0.7185  0.3970  0.2320
  147MOL0     C20183   3.440   7.361   9.852 -0.5622 -0.1669  0.8496
  147MOL0     O20184   3.561   7.428   9.826 -0.5986  0.2145 -0.4360
  147MOL0     C20185   3.679   7.345   9.821 -0.3376 -0.1780 -0.4017
  147MOL0     C20186   3.779   7.395   9.930 -0.6799 -0.1235 -0.2283
  147MOL0     C20187   3.828   7.535   9.914 -0.8294  0.1112 -0.2887
  147MOL0     C20188   3.919   7.578  10.030  0.8449 -0.1722  0.6709
  147MOL0     C20189   3.975   7.716   9.993 -0.6145 -0.8644  0.6427
  147MOL0     C20190   4.055   7.766  10.115  0.8834  0.4385 -0.6171
  147MOL0     C20191   4.155   7.866  10.075 -0.1148 -0.7147 -0.3795
  147MOL0     C20192   4.265   7.896  10.178 -0.0397  0.7199  0.2671
  147MOL0    Cl20193   4.396   7.763  10.165  0.2222 -0.4780 -0.2379
  147MOL0     C20194   3.362   7.416   9.945  0.0999  0.0636  1.0082
  147MOL0     C20195   3.243   7.359   9.976 -0.2160 -0.6333 -0.2192
  147MOL0     O20196   3.190   7.092  10.167 -0.5139 -0.3462 -0.0511
  147MOL0     C20197   2.871   7.023  10.029 -0.2950  0.1384  0.0496
  147MOL0     C20198   2.747   6.966  10.057  0.5540  0.2387 -0.0681
  147MOL0     N20199   2.189   6.502  10.342  0.7545 -0.2708 -0.3126
  147MOL0     N20200   2.080   6.458  10.406 -0.2167  0.2312  1.3425
  147MOL0     C20201   0.976   6.232  10.097 -1.0013 -0.8016  0.4052
  147MOL0     C20202   0.886   6.316  10.023  0.5507 -0.2850  0.3989
  147MOL0     C20203   0.557   6.582   9.871  0.1902  0.4791 -0.3653
  147MOL0     C20204   0.430   6.569   9.942  0.0029 -0.1271  0.7504
  147MOL0     C20205   0.317   6.646   9.915  0.5784  0.8333 -0.7031
  147MOL0     C20206   0.319   6.730   9.806  0.0628 -0.0957 -0.1132
  147MOL0     O20207   0.225   6.819   9.770 -0.5306  0.2881 -0.6452
  147MOL0     C20208   0.100   6.800   9.846  0.0805 -0.8935  1.3413
  147MOL0     C20209   0.005   6.899   9.783  0.2900 -0.7487 -1.0735
  147MOL0     C20210  -0.122   6.896   9.868  0.4205  0.1642 -1.5102
  147MOL0     C20211  -0.227   6.997   9.838 -0.3710  0.2283  0.3784
  147MOL0     C20212  -0.340   6.977   9.923  0.1138 -0.4919  0.4215
  147MOL0     C20213  -0.445   6.992   9.987 -0.0757  0.2768 -0.7549
  147MOL0     C20214   0.437   6.742   9.730  0.2706  0.3487  0.7312
  147MOL0     C20215   0.555   6.678   9.762  1.2456  1.1906  0.5114
  147MOL0     C20216   0.669   6.705   9.663  0.2660  0.3542 -0.2244
  147MOL0     H20217   0.599   6.240  10.185 -0.2648 -2.4481  1.3696
  147MOL0     H20218   0.742   6.062  10.281  1.2775 -1.6717 -1.4378
  147MOL0     H20219   1.148   6.195  10.262 -1.9989 -0.3549 -1.3573
  147MOL0     H20220   1.190   6.046  10.171 -2.5725 -1.9915 -1.5273
  147MOL0     H20221   1.162   6.105  10.466  1.3616 -1.4649  1.1756
  147MOL0     H20222   1.175   5.934  10.426 -1.0819  1.2654  0.9818
  147MOL0     H20223   1.390   5.994  10.482  0.6376 -1.7209 -1.3693
  147MOL0     H20224   1.368   5.954  10.314 -1.7398 -1.4494  0.8441
  147MOL0     H20225   1.387   6.196  10.245 -1.7095 -0.8791 -0.4990
  147MOL0     H20226   1.374   6.243  10.422 -0.3544 -1.6048 -0.6674
  147MOL0     H20227   1.590   6.081  10.290 -0.9889 -0.6135  1.0552
  147MOL0     H20228   1.593   6.150  10.456  1.9827  0.8475 -0.7830
  147MOL0     H20229   1.593   6.316  10.197  1.4022  0.5319 -0.3402
  147MOL0     H20230   1.590   6.364  10.370  0.6759  1.7695 -0.7008
  147MOL0     H20231   1.805   6.277  10.182 -4.3395 -2.3245  0.1073
  147MOL0     H20232   1.830   6.214  10.348  0.7564  1.1150  1.8182
  147MOL0     H20233   1.767   6.498  10.335 -0.7044 -1.6398 -1.0644
  147MOL0     H20234   1.839   6.405  10.457 -1.3606  2.7574  0.2384
  147MOL0     H20235   1.957   6.530  10.106 -0.6075 -1.4347 -0.0126
  147MOL0     H20236   2.209   6.700  10.081 -0.1598 -0.4505 -0.4389
  147MOL0     H20237   2.244   6.537  10.021  2.0649  0.8647 -0.6474
  147MOL0     H20238   2.420   6.527  10.197 -0.7811 -0.7708  0.1292
  147MOL0     H20239   2.451   6.659  10.078  2.4565 -1.0624  1.4909
  147MOL0     H20240   2.322   6.807  10.266 -0.5493 -1.1338  0.0595
  147MOL0     H20241   2.362   6.682  10.371 -0.9853  0.5710  0.2880
  147MOL0     H20242   2.538   6.838  10.384  1.3194 -2.5696  1.4975
  147MOL0     H20243   2.610   6.703  10.301 -2.0766 -2.5701 -1.5960
  147MOL0     H20244   2.798   6.861  10.365  0.4478 -1.3812 -0.0280
  147MOL0     H20245   3.127   6.967  10.364 -1.2301 -1.3325 -0.3146
  147MOL0     H20246   2.986   6.945  10.462  0.0840  1.8941  1.5322
  147MOL0     H20247   3.023   7.107  10.395  2.0527  0.6527 -3.6262
  147MOL0     H20248   3.258   7.065   9.806  0.7466 -1.0259  1.8691
  147MOL0     H20249   3.467   7.196   9.714 -1.7595 -1.4652  0.2740
  147MOL0     H20250   3.660   7.240   9.843 -2.9341  0.5283  1.1968
  147MOL0     H20251   3.731   7.350   9.724 -1.5444  1.0650 -1.0146
  147MOL0     H20252   3.728   7.391  10.027  1.8043  2.7189  1.3348
  147MOL0     H20253   3.859   7.321   9.928 -1.5923 -1.2849  2.0176
  147MOL0     H20254   3.739   7.598   9.907 -1.6828 -0.8603  1.1936
  147MOL0     H20255   3.891   7.540   9.825  0.3669  0.4265  0.5463
  147MOL0     H20256   3.995   7.500  10.030 -0.5497 -2.0062 -5.0370
  147MOL0     H20257   3.860   7.570  10.121 -1.7637 -2.2654 -1.0325
  147MOL0     H20258   4.043   7.726   9.908 -1.1597  2.2805  0.4503
  147MOL0     H20259   3.895   7.784   9.963 -1.2063 -1.8688 -0.1171
  147MOL0     H20260   4.110   7.688  10.170  3.5550  3.0552  0.7151
  147MOL0     H20261   3.980   7.814  10.178  0.8720 -0.3230 -0.0316
  147MOL0     H20262   4.105   7.958  10.045  0.5191 -0.4024 -0.4989
  147MOL0     H20263   4.209   7.833   9.986 -1.8191 -0.6238 -1.4952
  147MOL0     H20264   4.220   7.915  10.276  0.7290  3.2463  0.1990
  147MOL0     H20265   4.317   7.991  10.160  0.1502  0.7658  1.0273
  147MOL0     H20266   3.384   7.517   9.978  2.4019  0.6678 -1.9113
  147MOL0     H20267   3.176   7.410  10.045  0.5778 -1.0393  0.8887
  147MOL0     H20268   2.862   7.069   9.931 -5.0106 -2.2285 -0.9396
  147MOL0     H20269   2.678   6.959   9.974  0.3552 -1.7523  0.1946
  147MOL0     H20270   1.081   6.243  10.071 -1.1053  0.7997  0.5342
  147MOL0     H20271   0.929   6.386   9.952 -0.3666 -0.2184 -0.0974
  147MOL0     H20272   0.423   6.503  10.027  2.1576 -3.0710 -1.1276
  147MOL0     H20273   0.235   6.633   9.985  2.2156 -2.5512  0.8493
  147MOL0     H20274   0.058   6.699   9.843 -2.5619  0.1390  0.3458
  147MOL0     H20275   0.105   6.829   9.952  1.7317  1.7173  0.6409
  147MOL0     H20276  -0.027   6.871   9.682 -0.2177 -1.2416 -0.7860
  147MOL0     H20277   0.048   6.999   9.797 -3.5971  0.7788  2.0686
  147MOL0     H20278  -0.161   6.795   9.852  2.0751 -0.8195  0.2229
  147MOL0     H20279  -0.094   6.906   9.973 -1.3266 -0.1138 -0.9994
  147MOL0     H20280  -0.251   7.007   9.732 -2.4232 -1.4204  0.6365
  147MOL0     H20281  -0.184   7.094   9.866 -1.5086  1.1187 -0.8558
  147MOL0     H20282  -0.526   7.003  10.057  1.6740 -2.3267  1.9588
  147MOL0     H20283   0.430   6.812   9.648  0.4508 -1.9763 -1.3920
  147MOL0     H20284   0.634   6.787   9.599 -0.5773  1.6126  1.7562
  147MOL0     H20285   0.757   6.733   9.722  2.8368 -0.3284 -3.4369
  147MOL0     H20286   0.709   6.618   9.611 -0.9256 -0.8940  0.8675
  148MOL0     O20287   8.653   6.753   1.504  0.1366 -0.3255 -0.2755
  148MOL0     C20288   8.595   6.647   1.520 -0.2113 -0.2227 -0.2596
  148MOL0     O20289   8.651   6.521   1.539  0.0578 -0.5240  0.0565
  148MOL0     C20290   8.784   6.500   1.573 -0.5677 -0.2923 -0.5758
  148MOL0     C20291   8.888   6.572   1.510 -0.9587  0.5782  0.3325
  148MOL0     C20292   9.024   6.536   1.538  0.4979 -0.1122  0.6797
  148MOL0     C20293   9.051   6.433   1.621  0.1458 -0.5282 -0.0320
  148MOL0     O20294   9.174   6.383   1.641 -0.1302 -0.4732 -0.0109
  148MOL0     C20295   9.287   6.442   1.587 -0.1482 -0.5027 -0.5993
  148MOL0     C20296   9.415   6.366   1.624  0.2681 -0.7438 -0.6426
  148MOL0     C20297   9.449   6.386   1.769  0.5317 -0.0516  0.4035
  148MOL0     C20298   9.572   6.297   1.806  0.3367  0.2468 -0.8470
  148MOL0     C20299   9.594   6.312   1.961 -0.2691  0.0849  0.5814
  148MOL0     C20300   9.736   6.260   1.996 -0.2727  0.0236 -0.6812
  148MOL0     C20301   9.776   6.297   2.136 -1.1408 -0.4401 -1.0811
  148MOL0     C20302   9.800   6.453   2.160 -0.2879  0.0516 -0.0805
  148MOL0     N20303   9.894   6.472   2.273  0.1125  0.2228  0.3973
  148MOL0     C20304   9.976   6.586   2.279  0.3231 -0.3882 -0.4156
  148MOL0     C20305  10.046   6.570   2.402 -0.5121 -0.3827 -0.3138
  148MOL0     C20306  10.166   6.643   2.445  0.7585  0.0734  0.2612
  148MOL0     C20307  10.149   6.795   2.454  0.3443 -0.5540 -0.2536
  148MOL0     C20308  10.273   6.877   2.486 -0.5235  0.2070 -0.0621
  148MOL0     C20309  10.357   6.803   2.590 -1.0177 -0.3211 -0.0964
  148MOL0     O20310  10.460   6.885   2.648 -0.3183  0.5007 -0.0333
  148MOL0     C20311  10.529   6.823   2.756 -0.2336  0.2137 -0.3157
  148MOL0     C20312  10.637   6.900   2.799 -0.0550 -0.1149 -0.2482
  148MOL0     C20313  10.728   6.841   2.885  0.7234 -0.6949  0.0486
  148MOL0     C20314  10.846   6.928   2.922 -0.8441  0.5688  0.2661
  148MOL0     C20315  10.698   6.717   2.950 -0.0712 -0.0766  0.6936
  148MOL0     C20316  10.780   6.666   3.059 -0.9537  0.3378  0.1244
  148MOL0     O20317  10.713   6.582   3.146 -0.6404 -0.4061 -0.2108
  148MOL0     C20318  10.718   6.619   3.273 -0.5071  0.2494 -0.1415
  148MOL0     C20319  10.769   6.740   3.320  0.6561 -0.0764 -0.8041
  148MOL0     C20320  10.776   6.767   3.459 -0.5201  0.4551  0.4721
  148MOL0     C20321  10.737   6.672   3.551 -0.3985  0.6733 -0.5335
  148MOL0     O20322  10.739   6.691   3.690  0.5607 -0.5253 -0.2155
  148MOL0     C20323  10.868   6.726   3.737 -0.4901  0.0862  0.5886
  148MOL0     C20324  10.957   6.602   3.762  0.6402  0.3729  0.0161
  148MOL0     C20325  11.078   6.642   3.850  0.4292 -0.1880 -0.1352
  148MOL0     C20326  11.187   6.534   3.861  0.3930 -0.9418  0.0817
  148MOL0     C20327  11.294   6.558   3.968  0.4413 -0.3123  0.7285
  148MOL0     C20328  11.402   6.652   3.920 -0.6181 -0.1257 -0.1446
  148MOL0     C20329  11.509   6.683   4.032  0.3991 -0.1275 -0.0258
  148MOL0     C20330  11.620   6.775   3.980  0.3286 -0.0790 -0.5726
  148MOL0    Cl20331  11.687   6.871   4.118 -0.3553 -0.0053 -0.0738
  148MOL0     C20332  10.684   6.552   3.506 -0.0507 -0.6401  0.9869
  148MOL0     C20333  10.683   6.520   3.373  0.5577 -0.3775 -0.7869
  148MOL0     O20334  10.897   6.698   3.070 -0.2941 -0.6222 -0.7777
  148MOL0     C20335  10.577   6.653   2.920  0.7424 -0.3889  0.4147
  148MOL0     C20336  10.499   6.702   2.819 -0.0131  0.3326  0.2577
  148MOL0     N20337  10.008   6.451   2.459  0.3475  0.4497 -0.4065
  148MOL0     N20338   9.913   6.397   2.382 -0.6845  0.2871 -0.7946
  148MOL0     C20339   8.949   6.358   1.684 -0.0545 -0.1512  0.0960
  148MOL0     C20340   8.815   6.386   1.668 -0.8077 -0.2092  0.0417
  148MOL0     C20341   8.448   6.652   1.492 -0.1090 -0.3057  0.6794
  148MOL0     C20342   8.385   6.760   1.547 -0.2208 -0.3529 -0.7591
  148MOL0     C20343   8.249   6.772   1.536  0.4725 -0.9141 -0.1708
  148MOL0     C20344   8.165   6.670   1.479  1.1984 -0.9213  0.6927
  148MOL0     O20345   8.025   6.687   1.465 -0.6073  0.9413  0.3140
  148MOL0     C20346   7.936   6.611   1.545  0.7505 -0.2193  0.1349
  148MOL0     C20347   7.867   6.513   1.452 -0.2494 -0.0001  0.1089
  148MOL0     C20348   7.778   6.603   1.347  0.5394  0.3223 -0.2511
  148MOL0     C20349   7.634   6.616   1.400  0.2630 -0.5496  0.3295
  148MOL0     C20350   7.560   6.485   1.393  0.2642 -0.6261  0.3930
  148MOL0     C20351   7.507   6.377   1.395  0.7761 -0.7101  0.1376
  148MOL0     C20352   8.230   6.560   1.423  0.4326  0.1221  0.2294
  148MOL0     C20353   8.369   6.549   1.434 -0.0731 -0.9044  0.4481
  148MOL0     C20354   8.436   6.436   1.368 -0.5655  0.3543 -0.2802
  148MOL0     H20355   8.863   6.639   1.430 -1.2929  2.2706  1.7912
  148MOL0     H20356   9.101   6.586   1.481  0.3437  1.1368  1.5197
  148MOL0     H20357   9.300   6.551   1.596  2.8502 -0.5841 -2.5790
  148MOL0     H20358   9.274   6.435   1.478 -0.6304 -0.9712 -0.5102
  148MOL0     H20359   9.409   6.260   1.599  3.6235 -1.4403  0.9256
  148MOL0     H20360   9.500   6.403   1.566  0.3350  1.9513  0.9965
  148MOL0     H20361   9.469   6.492   1.786 -1.6839  0.5958 -0.6512
  148MOL0     H20362   9.365   6.358   1.833 -0.8631  0.0603 -1.3028
  148MOL0     H20363   9.555   6.193   1.777  1.0689 -0.0155 -0.3760
  148MOL0     H20364   9.667   6.323   1.759 -0.7336 -0.1449 -3.3621
  148MOL0     H20365   9.519   6.258   2.020 -0.2471  1.3882  1.8568
  148MOL0     H20366   9.594   6.419   1.983 -2.3019  0.0590  0.9208
  148MOL0     H20367   9.740   6.151   1.985 -0.9300 -0.1801  0.8447
  148MOL0     H20368   9.803   6.310   1.926  3.0878 -3.4102 -0.2625
  148MOL0     H20369   9.872   6.246   2.147 -1.5987 -0.7006  3.3213
  148MOL0     H20370   9.720   6.258   2.221 -0.7604 -1.7209 -1.3941
  148MOL0     H20371   9.841   6.495   2.068  1.1216 -0.6338  0.2160
  148MOL0     H20372   9.704   6.501   2.180  0.2446  1.0905  0.0611
  148MOL0     H20373   9.988   6.665   2.206  2.4147  2.9522  3.1150
  148MOL0     H20374  10.245   6.617   2.374  1.1217 -0.2646  0.7838
  148MOL0     H20375  10.197   6.600   2.540  1.0567  1.8861  1.0315
  148MOL0     H20376  10.095   6.844   2.372 -1.5829  2.0084  2.3261
  148MOL0     H20377  10.090   6.829   2.540  2.7513  4.2167 -0.1457
  148MOL0     H20378  10.337   6.892   2.399  2.0997  1.8227  1.9554
  148MOL0     H20379  10.244   6.973   2.529  0.0583 -0.0083  0.8533
  148MOL0     H20380  10.298   6.767   2.674  0.5531  1.0621  1.7084
  148MOL0     H20381  10.416   6.724   2.542  1.5401  1.4088 -0.0192
  148MOL0     H20382  10.653   7.002   2.766 -3.1053  0.0081 -1.6137
  148MOL0     H20383  10.836   7.026   2.876 -0.9704  0.4884  0.1213
  148MOL0     H20384  10.935   6.875   2.885  0.1967  2.7404 -0.5044
  148MOL0     H20385  10.852   6.944   3.030 -1.3145 -2.3067  0.8127
  148MOL0     H20386  10.806   6.813   3.250  2.4792 -1.1007 -0.9821
  148MOL0     H20387  10.821   6.862   3.485  0.5044  1.0429 -2.9708
  148MOL0     H20388  10.920   6.787   3.663 -0.2760 -1.4768 -0.5849
  148MOL0     H20389  10.866   6.784   3.830 -1.7657  1.0274  0.0010
  148MOL0     H20390  10.909   6.515   3.806  0.5557 -2.6748 -5.2856
  148MOL0     H20391  10.994   6.557   3.670  1.0498 -1.2769  0.9524
  148MOL0     H20392  11.043   6.663   3.951 -0.1933  1.4008 -0.6616
  148MOL0     H20393  11.125   6.725   3.796  2.2072 -0.8930  0.2611
  148MOL0     H20394  11.239   6.516   3.766  2.0947  1.1349  0.5663
  148MOL0     H20395  11.141   6.437   3.884 -3.7782  0.5224 -1.0877
  148MOL0     H20396  11.240   6.601   4.053 -2.2024  1.7443 -1.8176
  148MOL0     H20397  11.342   6.464   3.997 -3.4193 -2.2559  1.3782
  148MOL0     H20398  11.359   6.748   3.890 -3.3207 -1.8566 -2.2912
  148MOL0     H20399  11.459   6.620   3.833  1.6689  1.4260  0.6947
  148MOL0     H20400  11.544   6.589   4.075 -0.5052 -0.7852 -0.6699
  148MOL0     H20401  11.456   6.731   4.115 -0.5138  0.2339 -0.7917
  148MOL0     H20402  11.580   6.848   3.910  0.7034 -0.0103 -0.7162
  148MOL0     H20403  11.700   6.727   3.923  0.0164  0.7684 -1.7662
  148MOL0     H20404  10.651   6.483   3.583  0.7074 -1.3792  0.6726
  148MOL0     H20405  10.658   6.417   3.347 -0.8055 -0.5419  1.0066
  148MOL0     H20406  10.538   6.565   2.972  0.1660 -0.6499 -0.4386
  148MOL0     H20407  10.426   6.630   2.783  0.6662 -0.1868 -0.1205
  148MOL0     H20408   8.970   6.275   1.751 -3.1734 -1.1458  0.0397
  148MOL0     H20409   8.743   6.315   1.708 -0.9383 -0.7804 -1.1393
  148MOL0     H20410   8.441   6.836   1.601  1.0941  0.0202 -2.5705
  148MOL0     H20411   8.200   6.858   1.580  1.6207  0.6841 -1.8373
  148MOL0     H20412   7.989   6.548   1.616 -1.0888 -3.3720 -1.0867
  148MOL0     H20413   7.867   6.682   1.591  1.6121  0.4625  0.4046
  148MOL0     H20414   7.806   6.445   1.512  0.4713  0.1341  1.0184
  148MOL0     H20415   7.932   6.452   1.387 -2.3149 -1.0177 -1.1015
  148MOL0     H20416   7.821   6.702   1.333  1.7847 -0.4876 -2.7922
  148MOL0     H20417   7.768   6.556   1.248 -0.8986 -2.3150  1.0483
  148MOL0     H20418   7.585   6.700   1.351 -0.4708 -1.2864 -0.2215
  148MOL0     H20419   7.627   6.649   1.504  0.0061 -1.5077  0.6227
  148MOL0     H20420   7.457   6.283   1.408 -2.0922  0.8613  1.3252
  148MOL0     H20421   8.168   6.486   1.373 -1.2480  0.2465  2.0129
  148MOL0     H20422   8.461   6.357   1.439 -1.8985  0.9533  0.9029
  148MOL0     H20423   8.364   6.396   1.296 -1.6886  2.7027 -0.5584
  148MOL0     H20424   8.524   6.472   1.313  0.3843 -1.8752 -0.3246
  149MOL0     O20425   7.483   4.113   2.573 -0.9469 -0.3651 -0.3794
  149MOL0     C20426   7.398   4.043   2.624  0.1605  1.0307 -0.4451
  149MOL0     O20427   7.396   4.013   2.751  1.0162  0.7236  0.0580
  149MOL0     C20428   7.511   4.055   2.824 -0.3625 -0.4741  0.6452
  149MOL0     C20429   7.617   3.956   2.820  0.4002 -0.9327  0.1075
  149MOL0     C20430   7.738   3.978   2.900  0.2121  0.7827  0.2795
  149MOL0     C20431   7.755   4.104   2.958  0.7185  0.4370 -0.1415
  149MOL0     O20432   7.865   4.147   3.025  0.1405 -0.5596  0.3241
  149MOL0     C20433   7.979   4.057   3.040  0.7694  0.1278  0.1892
  149MOL0     C20434   8.097   4.135   3.108  0.6315  0.5614 -0.0573
  149MOL0     C20435   8.170   4.215   2.993 -0.1032  0.1333 -0.5515
  149MOL0     C20436   8.267   4.317   3.072  0.0371 -0.7179 -0.0224
  149MOL0     C20437   8.183   4.446   3.105 -0.1715 -0.2838 -0.2560
  149MOL0     C20438   8.281   4.541   3.178  0.1355  0.7613  0.0862
  149MOL0     C20439   8.216   4.670   3.229 -0.2192 -0.1665 -0.1165
  149MOL0     C20440   8.331   4.755   3.290 -0.5122 -0.3220  0.3001
  149MOL0     N20441   8.288   4.870   3.372 -0.5381  0.8524  0.1524
  149MOL0     C20442   8.210   4.979   3.348 -0.1970  0.1841 -0.0658
  149MOL0     C20443   8.197   5.050   3.462 -0.9241 -0.7675  0.3216
  149MOL0     C20444   8.106   5.172   3.491  0.7281  0.5417 -0.2311
  149MOL0     C20445   8.029   5.157   3.626 -0.3049  0.3179  0.0399
  149MOL0     C20446   7.907   5.250   3.628 -0.6164  0.8804 -0.3426
  149MOL0     C20447   7.818   5.238   3.757  0.3435 -0.0550  0.4109
  149MOL0     O20448   7.795   5.099   3.800  0.1000  0.1650 -0.0735
  149MOL0     C20449   7.673   5.052   3.756  0.9005 -0.2126 -0.2178
  149MOL0     C20450   7.647   5.027   3.625  0.1792  0.0739  0.2128
  149MOL0     C20451   7.516   4.992   3.579 -0.5822  0.3131  0.8959
  149MOL0     C20452   7.492   4.952   3.436  0.1605 -0.0597  0.2908
  149MOL0     C20453   7.409   4.980   3.678 -0.4076 -0.6915  0.2124
  149MOL0     C20454   7.263   4.949   3.644 -0.4529 -0.6576 -0.6533
  149MOL0     O20455   7.193   4.885   3.741  0.4661  0.1216  1.0445
  149MOL0     C20456   7.061   4.846   3.724 -0.0479 -0.2496  0.1097
  149MOL0     C20457   7.011   4.773   3.610  0.5714  0.3216 -0.4124
  149MOL0     C20458   6.873   4.750   3.593 -0.2891  0.3230  0.2974
  149MOL0     C20459   6.794   4.769   3.706  0.6141  0.4102  0.4992
  149MOL0     O20460   6.665   4.733   3.702  0.1043 -0.3145 -0.5323
  149MOL0     C20461   6.644   4.596   3.654  0.1679  0.1398  0.6364
  149MOL0     C20462   6.492   4.557   3.645 -0.5521 -0.0773  0.9191
  149MOL0     C20463   6.484   4.414   3.595 -0.3309 -0.0497 -0.5807
  149MOL0     C20464   6.545   4.311   3.694  0.0367  0.1025  0.0232
  149MOL0     C20465   6.486   4.175   3.669  0.3259 -0.4748  0.8837
  149MOL0     C20466   6.532   4.067   3.772  0.0223 -0.1425  0.6975
  149MOL0     C20467   6.457   4.088   3.902  0.2447  0.3225  0.0489
  149MOL0     C20468   6.502   3.985   3.994 -0.7265 -0.0530 -0.2867
  149MOL0    Cl20469   6.678   3.997   4.029 -0.4670 -0.0941 -0.0336
  149MOL0     C20470   6.838   4.824   3.816  0.2774 -0.1834 -0.2923
  149MOL0     C20471   6.971   4.869   3.828 -0.2099  0.4440 -0.5575
  149MOL0     O20472   7.225   4.969   3.529  0.3501 -0.2711  0.6260
  149MOL0     C20473   7.439   5.011   3.810 -1.2074 -0.0861  0.1586
  149MOL0     C20474   7.571   5.049   3.855  0.4983 -1.1792  0.4387
  149MOL0     N20475   8.269   4.986   3.565 -0.3732 -0.3745  0.9519
  149MOL0     N20476   8.315   4.875   3.509  0.7849 -0.4079  1.0651
  149MOL0     C20477   7.643   4.190   2.964  0.0679  0.4612  0.0981
  149MOL0     C20478   7.516   4.166   2.906 -0.6367  0.2977 -0.8279
  149MOL0     C20479   7.311   3.964   2.529  0.2794  0.4189 -0.1617
  149MOL0     C20480   7.370   3.927   2.405  0.0735 -0.4098 -0.1507
  149MOL0     C20481   7.299   3.844   2.312  0.4111  0.0439 -0.4322
  149MOL0     C20482   7.173   3.795   2.342  0.1408  0.0950  0.4358
  149MOL0     O20483   7.110   3.723   2.240  0.9253 -0.0398 -0.0254
  149MOL0     C20484   6.977   3.656   2.251 -0.6171 -0.4808 -0.2891
  149MOL0     C20485   6.981   3.522   2.173  0.7383 -0.2592 -0.4001
  149MOL0     C20486   7.018   3.552   2.027 -0.1261  0.4879  0.1199
  149MOL0     C20487   6.968   3.453   1.923 -0.1450  0.2675  0.5426
  149MOL0     C20488   6.819   3.468   1.906 -0.2951 -0.3751  0.4679
  149MOL0     C20489   6.696   3.472   1.894 -0.1160  0.1003 -0.0180
  149MOL0     C20490   7.116   3.832   2.465  0.1982 -0.1321  1.5775
  149MOL0     C20491   7.182   3.917   2.551 -0.6513  0.4489  0.2571
  149MOL0     C20492   7.106   3.962   2.677  0.0401  0.3406 -0.0321
  149MOL0     H20493   7.609   3.862   2.766 -0.5487 -0.1458 -1.1909
  149MOL0     H20494   7.811   3.899   2.894  0.8133  1.2801  0.8905
  149MOL0     H20495   8.007   4.011   2.944 -2.0923 -0.0936 -0.6135
  149MOL0     H20496   7.949   3.981   3.112 -2.0273 -0.3571 -1.3807
  149MOL0     H20497   8.063   4.190   3.197 -1.1596 -3.4292  1.9898
  149MOL0     H20498   8.161   4.056   3.149  2.4440  0.9923 -1.9091
  149MOL0     H20499   8.234   4.145   2.938  1.2066 -1.5712  2.8325
  149MOL0     H20500   8.102   4.277   2.934 -0.2830 -0.9095 -1.4886
  149MOL0     H20501   8.319   4.273   3.158  1.3404  1.3089  0.2816
  149MOL0     H20502   8.349   4.342   3.003  0.0033  0.1180  0.2389
  149MOL0     H20503   8.096   4.432   3.170 -0.9730  1.1642 -0.9747
  149MOL0     H20504   8.132   4.475   3.013 -0.6564 -3.8559 -1.2514
  149MOL0     H20505   8.325   4.490   3.264  0.2778 -1.6019 -1.2796
  149MOL0     H20506   8.370   4.559   3.117 -0.0198  0.0415 -0.3665
  149MOL0     H20507   8.133   4.654   3.299  0.6310  1.9962  1.5150
  149MOL0     H20508   8.171   4.719   3.142 -0.8009 -0.7802 -0.1708
  149MOL0     H20509   8.380   4.688   3.362  0.0249  0.6029  0.8202
  149MOL0     H20510   8.403   4.784   3.213 -0.2223 -2.0597 -0.1275
  149MOL0     H20511   8.159   4.996   3.254  1.3757  1.8111 -0.6707
  149MOL0     H20512   8.037   5.185   3.407  1.7478 -1.2637 -1.4301
  149MOL0     H20513   8.178   5.255   3.494  2.1498 -0.5001 -2.2055
  149MOL0     H20514   8.001   5.052   3.630  0.4656  0.1034  0.0905
  149MOL0     H20515   8.098   5.169   3.711 -1.3773 -0.2107  1.0092
  149MOL0     H20516   7.951   5.349   3.619  2.3676 -0.2387  0.9711
  149MOL0     H20517   7.845   5.227   3.540 -0.3572 -0.7847 -0.1281
  149MOL0     H20518   7.866   5.292   3.839  0.0930  1.6577 -0.5113
  149MOL0     H20519   7.727   5.285   3.720  0.5700 -1.3208 -2.0053
  149MOL0     H20520   7.729   5.040   3.555  2.5398 -0.6272  2.6646
  149MOL0     H20521   7.413   5.010   3.387 -1.3256 -1.2743  1.1621
  149MOL0     H20522   7.461   4.847   3.437  3.0562 -1.0107  1.0261
  149MOL0     H20523   7.576   4.956   3.366 -1.2009 -0.3821 -1.4339
  149MOL0     H20524   7.092   4.759   3.540  2.1521  1.1637  1.1791
  149MOL0     H20525   6.841   4.700   3.502  0.3711 -1.3867  0.9526
  149MOL0     H20526   6.683   4.584   3.552 -0.8293  1.8737 -0.0070
  149MOL0     H20527   6.691   4.521   3.718 -0.1251  0.7530  1.5777
  149MOL0     H20528   6.440   4.576   3.739 -1.6890 -1.6440  0.6520
  149MOL0     H20529   6.452   4.628   3.571  2.5580  3.0969  2.0230
  149MOL0     H20530   6.523   4.410   3.493  1.0927  0.2909 -0.0796
  149MOL0     H20531   6.378   4.388   3.585 -0.5721  0.6616  0.0652
  149MOL0     H20532   6.521   4.341   3.796 -3.2269 -1.9381  0.0097
  149MOL0     H20533   6.652   4.316   3.676  0.0252  4.6600  0.1093
  149MOL0     H20534   6.379   4.188   3.686 -1.1110 -4.8104 -2.7716
  149MOL0     H20535   6.498   4.137   3.567 -1.1776  2.1003 -0.3607
  149MOL0     H20536   6.637   4.080   3.798  0.3075  0.3140 -0.6419
  149MOL0     H20537   6.507   3.970   3.729  0.9427 -0.2469  0.3781
  149MOL0     H20538   6.349   4.073   3.892 -0.1845  3.2670 -0.5734
  149MOL0     H20539   6.472   4.189   3.939  0.9823 -0.1554  1.1059
  149MOL0     H20540   6.475   3.883   3.965  1.6348 -0.4093 -1.4239
  149MOL0     H20541   6.447   3.999   4.088 -0.0135  0.3690  0.0751
  149MOL0     H20542   6.777   4.839   3.904 -0.8048 -0.2278 -1.0262
  149MOL0     H20543   6.992   4.921   3.922 -0.8653 -0.0508 -0.1290
  149MOL0     H20544   7.355   5.016   3.879 -1.6257  0.7142 -0.3798
  149MOL0     H20545   7.593   5.077   3.958  0.7938 -0.9647  0.3179
  149MOL0     H20546   7.649   4.275   3.031  0.2472 -0.0560  0.7527
  149MOL0     H20547   7.437   4.240   2.912  1.7262  2.9134 -0.1791
  149MOL0     H20548   7.468   3.965   2.378 -0.0334  1.3854  1.7450
  149MOL0     H20549   7.328   3.797   2.219  1.6951 -5.0147  2.1593
  149MOL0     H20550   6.951   3.640   2.356  1.9757  4.7939  1.4994
  149MOL0     H20551   6.905   3.727   2.210  1.9484  2.4778 -0.0342
  149MOL0     H20552   6.886   3.468   2.181  1.4144 -1.5374 -0.7787
  149MOL0     H20553   7.060   3.455   2.208  2.5571  1.0949 -1.6998
  149MOL0     H20554   6.978   3.650   1.998  0.4707  0.0803 -2.2894
  149MOL0     H20555   7.127   3.545   2.018 -0.2990 -0.8892 -1.4288
  149MOL0     H20556   6.990   3.350   1.953 -0.4205  0.2054  0.5403
  149MOL0     H20557   7.020   3.467   1.828  0.9913 -0.3088  1.0595
  149MOL0     H20558   6.591   3.481   1.880  0.0682  0.8158 -1.0427
  149MOL0     H20559   7.014   3.805   2.493  0.4843 -1.2434  1.5883
  149MOL0     H20560   7.003   3.924   2.674  1.0845 -2.7676 -0.5175
  149MOL0     H20561   7.146   3.911   2.765  0.8322  1.9785  0.6131
  149MOL0     H20562   7.110   4.071   2.687 -3.1873  0.4392  1.2134
  150MOL0     O20563   4.275   6.632   8.800  0.1394  0.0763 -0.1552
  150MOL0     C20564   4.214   6.553   8.723 -0.7909 -0.1697  0.0542
  150MOL0     O20565   4.272   6.497   8.617 -0.0103  0.7154 -0.0792
  150MOL0     C20566   4.385   6.541   8.564  0.0290  0.0774 -0.6843
  150MOL0     C20567   4.486   6.450   8.553 -0.9309  0.5640 -0.4550
  150MOL0     C20568   4.605   6.477   8.492 -0.1637  0.1947  0.3485
  150MOL0     C20569   4.627   6.603   8.437  1.0716  0.1262  0.7379
  150MOL0     O20570   4.752   6.630   8.384  0.0457 -0.1039  0.5383
  150MOL0     C20571   4.766   6.748   8.300 -0.2933 -0.2523 -0.4778
  150MOL0     C20572   4.822   6.876   8.378  0.2717 -0.0275  0.6622
  150MOL0     C20573   4.827   6.998   8.286  0.4559  0.7267  0.5812
  150MOL0     C20574   4.934   7.093   8.324  0.0466 -0.0603  0.4213
  150MOL0     C20575   4.946   7.218   8.231  0.3844  1.1676  0.3058
  150MOL0     C20576   5.042   7.318   8.280  1.1396 -0.5216  0.0356
  150MOL0     C20577   5.035   7.439   8.179 -0.0296  0.3866 -0.7300
  150MOL0     C20578   5.142   7.544   8.214  0.3223 -0.1139 -0.3815
  150MOL0     N20579   5.275   7.503   8.167 -0.2925 -0.2984  0.4138
  150MOL0     C20580   5.322   7.522   8.041 -1.3553  0.3296  0.2555
  150MOL0     C20581   5.453   7.483   8.051  0.0757  0.5568 -0.3688
  150MOL0     C20582   5.556   7.469   7.947 -0.1420  0.3501 -0.1313
  150MOL0     C20583   5.651   7.596   7.941  0.6391 -0.7245 -0.7634
  150MOL0     C20584   5.775   7.588   8.042  0.5976  0.1414  0.4319
  150MOL0     C20585   5.856   7.710   8.010 -0.9210 -0.5308  0.3114
  150MOL0     O20586   5.973   7.727   8.098  0.2555  0.2941  0.2122
  150MOL0     C20587   6.083   7.641   8.093 -0.1628  0.1650  0.4700
  150MOL0     C20588   6.124   7.565   7.980  0.0132  0.3946 -0.6978
  150MOL0     C20589   6.229   7.476   7.985 -0.6711  0.1119 -0.0522
  150MOL0     C20590   6.263   7.407   7.853 -0.6033  0.0645 -0.2016
  150MOL0     C20591   6.316   7.477   8.099 -0.0865 -0.2661  0.5622
  150MOL0     C20592   6.433   7.394   8.100 -0.3330  0.5976  0.6074
  150MOL0     O20593   6.424   7.269   8.044 -0.2907 -0.1274 -0.4485
  150MOL0     C20594   6.539   7.193   8.046  0.0777  0.5592 -0.1397
  150MOL0     C20595   6.577   7.102   8.148 -0.2216 -1.1918  0.4490
  150MOL0     C20596   6.703   7.051   8.147  0.2899 -0.0574  0.3129
  150MOL0     C20597   6.794   7.062   8.038  0.6788 -0.0987 -0.3203
  150MOL0     O20598   6.908   6.996   8.040 -0.8770 -0.4665 -0.2136
  150MOL0     C20599   6.923   6.887   7.946  0.5047  0.4625  0.4148
  150MOL0     C20600   7.060   6.814   7.994  1.5793 -0.3193 -0.2846
  150MOL0     C20601   7.098   6.720   7.890 -0.5080  0.3461  0.1704
  150MOL0     C20602   7.186   6.796   7.783 -0.6789  0.4016 -0.3426
  150MOL0     C20603   7.234   6.688   7.686  0.3990 -0.5386 -0.2955
  150MOL0     C20604   7.294   6.753   7.562  0.2653 -0.1167  0.2953
  150MOL0     C20605   7.354   6.647   7.472 -0.1218 -0.5971 -0.0953
  150MOL0     C20606   7.399   6.698   7.339  0.2458  0.0678  0.9130
  150MOL0    Cl20607   7.272   6.759   7.234 -0.1420  0.0177 -0.2336
  150MOL0     C20608   6.756   7.151   7.946 -0.7683 -0.4223  0.3526
  150MOL0     C20609   6.637   7.224   7.947  0.2386  0.7377 -0.7246
  150MOL0     O20610   6.536   7.443   8.157 -0.3318  0.9687  0.1393
  150MOL0     C20611   6.282   7.562   8.204 -0.7396  0.2182  0.2627
  150MOL0     C20612   6.163   7.631   8.208  0.0950 -0.1536 -0.1640
  150MOL0     N20613   5.483   7.441   8.178  0.1666 -0.1752 -0.5994
  150MOL0     N20614   5.373   7.462   8.249 -0.7629  0.1231 -0.1828
  150MOL0     C20615   4.526   6.698   8.440  0.3834  0.2737  0.0593
  150MOL0     C20616   4.408   6.663   8.502  0.3911 -0.7905 -0.0089
  150MOL0     C20617   4.089   6.494   8.759  0.0090  0.0772  1.5448
  150MOL0     C20618   4.077   6.354   8.755 -0.0244  0.3119 -0.4831
  150MOL0     C20619   3.958   6.292   8.782  0.7920 -0.0338 -0.3716
  150MOL0     C20620   3.846   6.377   8.828 -0.8978 -0.1275 -0.0260
  150MOL0     O20621   3.736   6.307   8.860  0.4042  0.0886 -0.2641
  150MOL0     C20622   3.619   6.363   8.923 -0.4837  0.4024  0.2023
  150MOL0     C20623   3.515   6.402   8.821  0.0338 -0.4022  0.2830
  150MOL0     C20624   3.444   6.278   8.757 -0.5308 -0.1194 -0.6680
  150MOL0     C20625   3.380   6.306   8.623  0.5813 -1.0863  0.3578
  150MOL0     C20626   3.365   6.186   8.550 -1.9121  0.9636  0.1310
  150MOL0     C20627   3.353   6.081   8.494 -0.7621  0.8616 -0.3708
  150MOL0     C20628   3.859   6.518   8.841 -0.3212  0.6413 -0.1745
  150MOL0     C20629   3.977   6.570   8.787 -0.1756 -0.3952 -0.9016
  150MOL0     C20630   3.983   6.721   8.763 -0.2728  0.2973 -0.4952
  150MOL0     H20631   4.466   6.354   8.600  1.0523  0.2145 -0.2459
  150MOL0     H20632   4.682   6.401   8.482 -0.9613 -0.4333 -1.3313
  150MOL0     H20633   4.683   6.775   8.234 -2.7396 -0.8801  2.1494
  150MOL0     H20634   4.839   6.719   8.224 -0.8422 -2.4682 -0.2288
  150MOL0     H20635   4.747   6.893   8.455 -0.0257  4.4013 -0.3660
  150MOL0     H20636   4.915   6.845   8.427  1.8707 -0.4378 -2.3887
  150MOL0     H20637   4.860   6.957   8.191 -2.1732  0.7693 -0.4380
  150MOL0     H20638   4.726   7.041   8.292 -1.3493 -3.1830  1.8294
  150MOL0     H20639   4.927   7.124   8.429  0.1752  0.1943  0.3555
  150MOL0     H20640   5.026   7.034   8.327  0.0558 -0.0340  0.7624
  150MOL0     H20641   4.846   7.262   8.234  1.2489  3.2061  1.2136
  150MOL0     H20642   4.985   7.190   8.133 -1.9515 -0.6689 -0.1687
  150MOL0     H20643   5.021   7.355   8.381 -0.5892 -1.9648  0.2498
  150MOL0     H20644   5.143   7.275   8.283  1.9356  1.2868  0.7426
  150MOL0     H20645   4.935   7.476   8.200 -0.5371 -0.2610 -1.9249
  150MOL0     H20646   5.028   7.408   8.075  0.2877 -1.7429 -0.1598
  150MOL0     H20647   5.117   7.636   8.161 -1.4531  0.1329  0.7991
  150MOL0     H20648   5.141   7.567   8.320 -0.1484  0.5307 -0.5203
  150MOL0     H20649   5.270   7.553   7.951 -0.7726 -1.4990 -0.7814
  150MOL0     H20650   5.508   7.469   7.848  0.0010  0.8245 -0.2046
  150MOL0     H20651   5.613   7.376   7.960 -1.6867 -0.3775  1.9476
  150MOL0     H20652   5.685   7.608   7.838 -1.2639 -2.0195 -1.6082
  150MOL0     H20653   5.587   7.681   7.970 -1.3957 -2.1433 -0.8430
  150MOL0     H20654   5.728   7.591   8.141 -0.5217 -3.6183  0.1701
  150MOL0     H20655   5.837   7.497   8.043  1.5542  0.6224  4.7031
  150MOL0     H20656   5.896   7.703   7.908 -0.6656  1.4019  0.2420
  150MOL0     H20657   5.788   7.793   8.028 -1.2568 -0.8180  0.3747
  150MOL0     H20658   6.064   7.581   7.890 -0.2753  1.9452 -0.2659
  150MOL0     H20659   6.186   7.435   7.779 -0.5927  0.2849 -0.1297
  150MOL0     H20660   6.265   7.299   7.871  3.2488  0.3664  2.3741
  150MOL0     H20661   6.356   7.445   7.809 -0.8477 -0.2329 -0.9843
  150MOL0     H20662   6.519   7.086   8.238 -0.0823  3.5962  1.6591
  150MOL0     H20663   6.730   6.993   8.234  1.7177 -0.5537 -0.4388
  150MOL0     H20664   6.841   6.815   7.943  0.1428  0.8250  1.2589
  150MOL0     H20665   6.941   6.932   7.848  0.7395  0.0048  0.2460
  150MOL0     H20666   7.138   6.881   8.031 -0.5379  2.5664 -0.7152
  150MOL0     H20667   7.027   6.751   8.077 -1.4516  2.5203  0.8831
  150MOL0     H20668   7.002   6.683   7.853 -0.8789 -0.0255  1.4460
  150MOL0     H20669   7.156   6.639   7.935 -1.4135  1.0732  2.8669
  150MOL0     H20670   7.270   6.848   7.830 -0.7848 -0.3474  0.7029
  150MOL0     H20671   7.122   6.863   7.725 -0.2950 -2.0751 -3.9837
  150MOL0     H20672   7.304   6.613   7.723 -0.3134 -0.6663  0.8390
  150MOL0     H20673   7.146   6.632   7.652 -0.4471  0.9549 -0.6462
  150MOL0     H20674   7.371   6.825   7.592 -1.0009  0.9237  1.1747
  150MOL0     H20675   7.224   6.816   7.506  0.5334  0.0210  0.1155
  150MOL0     H20676   7.271   6.582   7.443 -1.9808  1.6514 -0.1579
  150MOL0     H20677   7.427   6.588   7.527 -1.3225 -1.1808  0.9274
  150MOL0     H20678   7.435   6.610   7.285  0.1470 -1.1372  2.7460
  150MOL0     H20679   7.479   6.771   7.352  0.1651  0.1950  0.7163
  150MOL0     H20680   6.824   7.181   7.867  0.0762  0.9700  1.5658
  150MOL0     H20681   6.607   7.305   7.882 -2.7829  0.3152  0.0283
  150MOL0     H20682   6.348   7.567   8.289 -0.4552  1.6311 -0.0098
  150MOL0     H20683   6.141   7.688   8.298  0.1580  0.1658 -0.3515
  150MOL0     H20684   4.545   6.798   8.400 -0.6694 -0.0379 -1.2892
  150MOL0     H20685   4.332   6.739   8.496  1.4959  0.3571  0.1573
  150MOL0     H20686   4.162   6.289   8.740 -2.9730 -3.5368 -2.2905
  150MOL0     H20687   3.946   6.185   8.769  0.6831 -0.1998  0.9785
  150MOL0     H20688   3.575   6.294   8.996  2.7781 -2.3371 -0.1965
  150MOL0     H20689   3.647   6.448   8.986  1.0255 -1.2914  1.9541
  150MOL0     H20690   3.552   6.470   8.744  0.1685 -0.5494  0.2167
  150MOL0     H20691   3.449   6.462   8.883  2.7325  0.3848  2.6219
  150MOL0     H20692   3.518   6.198   8.750 -1.6301 -1.3837  1.4265
  150MOL0     H20693   3.362   6.243   8.820 -1.0612 -0.8210 -1.7053
  150MOL0     H20694   3.430   6.377   8.556  0.0132  2.1045  3.0578
  150MOL0     H20695   3.277   6.342   8.636 -1.2485 -5.1748 -1.1155
  150MOL0     H20696   3.360   5.977   8.469  0.9807 -0.1030  3.4067
  150MOL0     H20697   3.783   6.573   8.895 -2.6557 -2.8321  0.4563
  150MOL0     H20698   4.030   6.737   8.666  0.8889 -2.1739 -0.3994
  150MOL0     H20699   3.882   6.763   8.765  0.6821  2.7425  1.8028
  150MOL0     H20700   4.033   6.775   8.844 -2.9618 -1.4013  2.5787
  151MOL0     O20701   6.500   9.391  10.996 -0.3028 -0.3087 -0.4883
  151MOL0     C20702   6.487   9.309  10.903 -0.0451 -0.3260 -0.1827
  151MOL0     O20703   6.585   9.230  10.848  0.3517  0.3816  0.5293
  151MOL0     C20704   6.714   9.229  10.885  0.1482 -0.1974 -0.4670
  151MOL0     C20705   6.810   9.199  10.786  0.4615  0.2380  0.1187
  151MOL0     C20706   6.941   9.179  10.806  0.2626 -0.4839 -0.1021
  151MOL0     C20707   6.984   9.202  10.942 -0.0664 -0.9134  0.3824
  151MOL0     O20708   7.105   9.168  10.983 -0.4014 -0.3401  0.3951
  151MOL0     C20709   7.135   9.031  11.008  0.3596  0.1973 -0.0767
  151MOL0     C20710   7.267   9.017  11.082 -0.8664 -0.1295  0.6804
  151MOL0     C20711   7.318   8.877  11.060 -0.3182  0.0323 -0.1267
  151MOL0     C20712   7.466   8.868  11.098  0.7134  0.6921  0.2972
  151MOL0     C20713   7.563   8.928  10.993 -0.1424  0.6306 -0.7326
  151MOL0     C20714   7.698   8.875  11.022 -0.5971  0.5426  0.5652
  151MOL0     C20715   7.815   8.956  10.948  0.4603  0.2634 -0.5630
  151MOL0     C20716   7.847   9.089  11.017  0.0458  0.5076 -0.6232
  151MOL0     N20717   7.912   9.071  11.148 -0.5083  0.8889  0.1967
  151MOL0     C20718   8.044   9.056  11.174  0.4457  0.2281  0.0648
  151MOL0     C20719   8.048   9.042  11.309 -0.4670 -0.8941 -0.3198
  151MOL0     C20720   8.165   9.007  11.395 -0.2363  0.0928 -0.3974
  151MOL0     C20721   8.293   8.963  11.326  0.4801 -0.2520 -0.6978
  151MOL0     C20722   8.409   8.939  11.434  0.2329 -0.5460  0.6880
  151MOL0     C20723   8.533   8.875  11.366  0.3231 -0.3949  0.5436
  151MOL0     O20724   8.641   8.915  11.442 -0.6702 -0.1079 -0.2229
  151MOL0     C20725   8.771   8.873  11.412 -0.7092  0.6111  0.0480
  151MOL0     C20726   8.872   8.946  11.478  0.6777  0.0632  0.2811
  151MOL0     C20727   9.004   8.909  11.452  0.0824  0.4086 -0.4726
  151MOL0     C20728   9.110   9.001  11.515  0.7303 -0.5743 -0.7307
  151MOL0     C20729   9.034   8.808  11.347 -0.0017  0.1311 -0.3026
  151MOL0     C20730   9.166   8.752  11.318  0.2137  0.2559  1.5039
  151MOL0     O20731   9.268   8.819  11.374 -0.0759 -0.1878  0.8426
  151MOL0     C20732   9.397   8.801  11.339  0.0086 -0.3159 -0.7767
  151MOL0     C20733   9.468   8.915  11.313 -0.3081 -0.2308  0.3565
  151MOL0     C20734   9.603   8.908  11.277 -0.1202  0.3706 -0.5960
  151MOL0     C20735   9.664   8.784  11.270  0.3130  0.2025  1.2410
  151MOL0     O20736   9.795   8.769  11.252 -0.0302  0.1894 -0.1147
  151MOL0     C20737   9.882   8.782  11.364 -0.9216  0.3564 -0.0316
  151MOL0     C20738   9.879   8.655  11.451  0.4951 -0.1980 -0.0801
  151MOL0     C20739   9.999   8.641  11.540 -0.0189  0.1061  0.4173
  151MOL0     C20740   9.976   8.528  11.625  0.0854 -0.1019 -0.4892
  151MOL0     C20741  10.097   8.509  11.717 -0.7470  0.8303 -0.7739
  151MOL0     C20742  10.083   8.390  11.803  0.3713 -0.3388 -0.5018
  151MOL0     C20743  10.215   8.324  11.839 -0.4613 -0.2532  0.4400
  151MOL0     C20744  10.208   8.242  11.962  0.2105  0.2640  0.3234
  151MOL0    Cl20745  10.105   8.097  11.946  0.5346  0.2248 -0.0987
  151MOL0     C20746   9.582   8.671  11.293  1.2393  0.5253 -0.1233
  151MOL0     C20747   9.449   8.672  11.329 -0.3983  0.4559 -0.2387
  151MOL0     O20748   9.168   8.661  11.232 -0.2785 -0.1756  0.1440
  151MOL0     C20749   8.923   8.755  11.278  0.5231 -0.2656 -0.4395
  151MOL0     C20750   8.794   8.782  11.311 -0.2127 -0.1624  0.1655
  151MOL0     N20751   7.926   9.053  11.364 -0.2039  0.1099  0.2923
  151MOL0     N20752   7.845   9.084  11.266 -0.1863  0.8596 -1.0146
  151MOL0     C20753   6.900   9.243  11.038  0.4779 -0.5855 -0.0000
  151MOL0     C20754   6.759   9.261  11.011 -0.1992  0.2979 -0.6705
  151MOL0     C20755   6.346   9.289  10.864  0.6044 -0.2312  0.6353
  151MOL0     C20756   6.253   9.383  10.915 -0.8953 -1.0249  0.2196
  151MOL0     C20757   6.125   9.395  10.867  0.3745 -0.6489  0.2639
  151MOL0     C20758   6.074   9.311  10.764 -0.4367 -0.8831 -0.2158
  151MOL0     O20759   5.960   9.342  10.693 -0.0347  0.5087 -0.0973
  151MOL0     C20760   5.837   9.384  10.754  0.0926 -0.2949 -0.3388
  151MOL0     C20761   5.791   9.286  10.861 -0.5629  0.1876 -0.4618
  151MOL0     C20762   5.646   9.264  10.852  0.4133 -0.6087 -0.0628
  151MOL0     C20763   5.596   9.181  10.968 -0.9734  0.0691  0.4901
  151MOL0     C20764   5.452   9.152  10.945  0.4377 -0.7039 -0.1895
  151MOL0     C20765   5.335   9.115  10.915  0.0472  0.3040 -0.1772
  151MOL0     C20766   6.163   9.212  10.711  0.2152 -0.3057 -0.1828
  151MOL0     C20767   6.300   9.202  10.757  0.8301  0.2528 -0.1072
  151MOL0     C20768   6.382   9.087  10.698 -0.2262 -0.0347 -0.3466
  151MOL0     H20769   6.772   9.174  10.687  0.9648  1.3898 -0.3846
  151MOL0     H20770   7.008   9.138  10.731 -1.3333  1.0877 -2.4966
  151MOL0     H20771   7.143   8.973  10.915  0.3879 -0.4779  0.3376
  151MOL0     H20772   7.057   8.995  11.075 -1.8108  2.9362 -0.9683
  151MOL0     H20773   7.343   9.086  11.044 -0.4702 -1.7108 -1.6141
  151MOL0     H20774   7.251   9.042  11.187  1.7570  1.8124  0.7071
  151MOL0     H20775   7.271   8.803  11.125  0.1474 -0.1932 -0.0365
  151MOL0     H20776   7.314   8.846  10.955  0.1645  0.3368 -0.2410
  151MOL0     H20777   7.482   8.924  11.191  2.0253  1.2421 -0.2387
  151MOL0     H20778   7.491   8.762  11.103 -1.0204  0.3068  1.4575
  151MOL0     H20779   7.563   9.037  10.999  0.4987  0.5767  0.6268
  151MOL0     H20780   7.534   8.909  10.890 -0.4285  0.3913 -0.6106
  151MOL0     H20781   7.717   8.872  11.129 -1.1260 -0.5516  0.6428
  151MOL0     H20782   7.688   8.776  10.977 -0.4839  0.4479  0.7504
  151MOL0     H20783   7.767   8.985  10.854  0.8779  1.0770 -0.5349
  151MOL0     H20784   7.906   8.905  10.916  0.6279  0.6397 -0.6991
  151MOL0     H20785   7.906   9.153  10.950 -0.2273  1.9241  0.4274
  151MOL0     H20786   7.759   9.147  11.046 -0.4144 -1.7436  3.2566
  151MOL0     H20787   8.117   9.039  11.096  1.4655 -3.2012  1.5797
  151MOL0     H20788   8.131   8.926  11.461 -0.0090  0.5095  0.2413
  151MOL0     H20789   8.189   9.089  11.463 -3.4328  1.5974 -0.8954
  151MOL0     H20790   8.280   8.867  11.277 -0.9940 -0.2668 -0.3273
  151MOL0     H20791   8.315   9.041  11.252 -2.3378  0.8523 -0.4885
  151MOL0     H20792   8.440   9.038  11.469 -2.7469  0.2201  1.4769
  151MOL0     H20793   8.382   8.885  11.525  0.3499  1.1069  1.7656
  151MOL0     H20794   8.525   8.767  11.356 -0.6011 -0.1427 -2.5609
  151MOL0     H20795   8.536   8.907  11.261  1.9671 -1.0295  0.3699
  151MOL0     H20796   8.826   9.018  11.545 -2.9124 -1.8710  0.1148
  151MOL0     H20797   9.066   9.079  11.578  2.7155 -0.9881  1.2962
  151MOL0     H20798   9.166   9.055  11.438 -1.1615  1.4414 -0.7671
  151MOL0     H20799   9.185   8.943  11.570 -0.9154 -2.5415 -0.4389
  151MOL0     H20800   9.429   9.015  11.329  2.9766  1.1953  0.2005
  151MOL0     H20801   9.651   9.005  11.270 -0.4603  0.7567  1.6678
  151MOL0     H20802   9.985   8.811  11.341 -0.2599  1.3017  3.4301
  151MOL0     H20803   9.854   8.872  11.419 -1.1821  1.1660 -1.4469
  151MOL0     H20804   9.788   8.661  11.512  0.0182  2.3643 -0.9289
  151MOL0     H20805   9.877   8.566  11.387  0.0110  1.6587 -2.8149
  151MOL0     H20806  10.014   8.728  11.604  2.1189  0.0969  0.0113
  151MOL0     H20807  10.088   8.640  11.476 -2.0624 -0.1264 -2.6371
  151MOL0     H20808   9.976   8.443  11.556 -1.0167  0.7907 -1.6487
  151MOL0     H20809   9.881   8.536  11.678 -0.3911 -1.0939 -1.1685
  151MOL0     H20810  10.180   8.489  11.648 -1.5819 -0.3956 -1.4500
  151MOL0     H20811  10.132   8.599  11.770  1.5869 -1.4472  1.8653
  151MOL0     H20812  10.020   8.313  11.758 -0.5753  0.6512 -0.9228
  151MOL0     H20813  10.018   8.411  11.889 -0.8811 -1.4310 -1.1477
  151MOL0     H20814  10.299   8.392  11.848  1.9940 -2.8741 -0.9864
  151MOL0     H20815  10.237   8.261  11.752  1.7091 -1.0062  1.4664
  151MOL0     H20816  10.180   8.299  12.051  1.1240  0.2591  0.6186
  151MOL0     H20817  10.312   8.211  11.971  0.4051  0.5498 -0.7885
  151MOL0     H20818   9.620   8.569  11.290  1.0032  0.4014  0.8219
  151MOL0     H20819   9.391   8.580  11.343 -0.2846  0.5698  1.1079
  151MOL0     H20820   8.943   8.678  11.204 -0.6009 -0.1864 -0.8481
  151MOL0     H20821   8.716   8.735  11.252  1.7918 -1.5139 -1.5765
  151MOL0     H20822   6.927   9.241  11.143  0.9767  0.4562 -0.0945
  151MOL0     H20823   6.703   9.297  11.097  1.4780 -0.7875  0.9641
  151MOL0     H20824   6.282   9.466  10.979  0.8348 -0.9464 -0.6175
  151MOL0     H20825   6.073   9.484  10.898  2.3624  1.5836 -2.3341
  151MOL0     H20826   5.846   9.487  10.791  0.4175  0.5022 -2.5045
  151MOL0     H20827   5.771   9.373  10.667 -1.0766 -3.2272  0.8150
  151MOL0     H20828   5.820   9.319  10.961 -0.6937 -1.4633  0.1568
  151MOL0     H20829   5.836   9.188  10.845 -0.2525  0.0852  0.9715
  151MOL0     H20830   5.594   9.360  10.852 -0.6375 -1.1586  1.4421
  151MOL0     H20831   5.634   9.201  10.763  0.3039 -0.6992  0.0164
  151MOL0     H20832   5.624   9.233  11.060  0.9647  0.4488 -0.2680
  151MOL0     H20833   5.654   9.089  10.974  0.6232  0.7704 -2.6146
  151MOL0     H20834   5.238   9.096  10.875  0.2604  1.6736 -1.4366
  151MOL0     H20835   6.131   9.147  10.631  1.6314 -0.9254 -0.2659
  151MOL0     H20836   6.477   9.122  10.659  0.2091  0.4621  1.0817
  151MOL0     H20837   6.412   9.016  10.776 -1.9774 -0.7929 -0.2986
  151MOL0     H20838   6.321   9.036  10.622 -0.1665  1.6403 -1.5620
  152MOL0     O20839   3.723   8.791  10.123 -0.6022  0.0626  0.2796
  152MOL0     C20840   3.811   8.840  10.188  0.5358  0.8763 -0.5366
  152MOL0     O20841   3.919   8.901  10.138  0.4706  0.0520 -0.0599
  152MOL0     C20842   3.895   8.961  10.014  0.6020  0.2701 -0.5098
  152MOL0     C20843   3.919   8.884   9.903 -0.5280  0.4675  0.1563
  152MOL0     C20844   3.914   8.934   9.775  0.9111  0.3097  0.7349
  152MOL0     C20845   3.867   9.062   9.757 -0.1317  0.0611  0.1507
  152MOL0     O20846   3.857   9.111   9.634 -0.0496 -0.2886 -0.4298
  152MOL0     C20847   3.908   9.239   9.608 -0.3461  0.2605 -0.0993
  152MOL0     C20848   4.050   9.266   9.654 -0.5702 -0.1627 -0.4596
  152MOL0     C20849   4.155   9.191   9.569 -0.5651  0.7651 -0.4201
  152MOL0     C20850   4.294   9.242   9.616  0.3249  0.6654 -0.2039
  152MOL0     C20851   4.408   9.193   9.532  0.5498 -0.8164  0.6331
  152MOL0     C20852   4.433   9.044   9.535  0.2451 -0.3497  0.3347
  152MOL0     C20853   4.578   8.999   9.498 -0.9385 -0.4448  0.2105
  152MOL0     C20854   4.621   9.052   9.356  0.5558  0.3196  0.5364
  152MOL0     N20855   4.760   9.033   9.325 -0.0689  0.7445 -0.2189
  152MOL0     C20856   4.867   9.097   9.373  0.4898 -0.3921 -0.4877
  152MOL0     C20857   4.975   9.067   9.296  0.4215  0.0833  0.0549
  152MOL0     C20858   5.115   9.129   9.310  0.1507 -0.5495  0.3435
  152MOL0     C20859   5.214   9.043   9.245 -0.2693  0.0014  0.0890
  152MOL0     C20860   5.351   9.092   9.278 -0.3113 -0.4803 -0.2027
  152MOL0     C20861   5.393   9.225   9.197 -0.2697  0.1797  0.3614
  152MOL0     O20862   5.434   9.193   9.064 -0.4914  0.0154  0.4615
  152MOL0     C20863   5.569   9.170   9.047  0.3036 -0.1244 -0.0315
  152MOL0     C20864   5.607   9.044   9.017 -0.2345  0.4521  0.0297
  152MOL0     C20865   5.747   9.014   8.988  0.7638  0.2652 -0.0237
  152MOL0     C20866   5.765   8.867   8.978  0.0457 -0.3803 -0.5926
  152MOL0     C20867   5.841   9.117   8.986  0.6839  0.2552  0.2219
  152MOL0     C20868   5.984   9.098   8.973  0.3921 -0.2871  0.3786
  152MOL0     O20869   6.053   9.204   8.929 -0.7412  0.1272  0.2604
  152MOL0     C20870   6.187   9.185   8.898  0.5202 -0.0844 -0.1824
  152MOL0     C20871   6.283   9.255   8.969 -0.1469 -0.2733  0.3062
  152MOL0     C20872   6.419   9.253   8.933  0.9167  0.5318 -0.8135
  152MOL0     C20873   6.466   9.170   8.827  0.2497 -0.6555 -0.6041
  152MOL0     O20874   6.603   9.188   8.795 -0.2135  0.0100 -0.3170
  152MOL0     C20875   6.641   9.141   8.671 -0.0759 -0.0619 -0.3014
  152MOL0     C20876   6.789   9.136   8.659  0.4151  0.5690  0.2068
  152MOL0     C20877   6.832   9.284   8.623 -0.9874 -0.4277 -0.5699
  152MOL0     C20878   6.987   9.307   8.621 -0.1269 -0.8104  1.1053
  152MOL0     C20879   7.032   9.451   8.585 -0.2926 -0.0600  0.0572
  152MOL0     C20880   7.184   9.447   8.613  1.1939 -0.6409  1.0255
  152MOL0     C20881   7.253   9.564   8.544 -0.0191  0.5462 -1.0139
  152MOL0     C20882   7.405   9.544   8.530 -0.0497  1.1293  0.3933
  152MOL0    Cl20883   7.446   9.426   8.407 -0.1836  0.2341 -0.4104
  152MOL0     C20884   6.366   9.090   8.760 -0.0617  0.3868 -0.1186
  152MOL0     C20885   6.231   9.105   8.790 -0.1906 -0.2918 -0.4803
  152MOL0     O20886   6.038   8.995   9.012 -0.4355  0.4301 -0.4637
  152MOL0     C20887   5.789   9.247   9.009 -0.6150 -0.2147 -0.4288
  152MOL0     C20888   5.655   9.273   9.045  0.0988  0.1818 -0.5807
  152MOL0     N20889   4.933   8.969   9.202 -0.3333  0.0230  0.5333
  152MOL0     N20890   4.806   8.959   9.219  0.0540  0.7985 -0.7479
  152MOL0     C20891   3.838   9.138   9.868 -0.6018 -0.4648 -0.3856
  152MOL0     C20892   3.852   9.089  10.000 -0.1878  0.3902  0.0221
  152MOL0     C20893   3.798   8.819  10.334  0.0114  0.3071 -0.4193
  152MOL0     C20894   3.673   8.786  10.390  0.9949 -1.0646 -0.4184
  152MOL0     C20895   3.653   8.759  10.524 -0.2866  0.3711 -0.1874
  152MOL0     C20896   3.759   8.772  10.615  0.6570 -0.7787 -0.3141
  152MOL0     O20897   3.749   8.741  10.749  0.0232  0.0814 -0.1070
  152MOL0     C20898   3.630   8.674  10.805  0.3664 -0.2399  0.8193
  152MOL0     C20899   3.634   8.635  10.946  0.4918  0.1905  0.8593
  152MOL0     C20900   3.689   8.733  11.054  0.4551  0.5136 -0.4618
  152MOL0     C20901   3.720   8.648  11.181 -0.4931  0.1575  0.3680
  152MOL0     C20902   3.606   8.618  11.263  0.5752 -0.5455 -0.3404
  152MOL0     C20903   3.521   8.586  11.341  0.4199  0.7673  0.9519
  152MOL0     C20904   3.884   8.815  10.563  0.3353  0.6275 -0.4176
  152MOL0     C20905   3.909   8.832  10.425  1.4449  0.2934  0.0736
  152MOL0     C20906   4.048   8.861  10.390  0.3596 -0.1466  0.0218
  152MOL0     H20907   3.957   8.783   9.917 -1.7802  0.1398  1.3555
  152MOL0     H20908   3.942   8.868   9.694  0.1625 -0.1597  0.8464
  152MOL0     H20909   3.838   9.316   9.643  0.4550  0.7242  0.4889
  152MOL0     H20910   3.922   9.257   9.501  1.5476 -2.2055 -0.3752
  152MOL0     H20911   4.073   9.373   9.645  1.9552 -0.4549  1.4751
  152MOL0     H20912   4.058   9.240   9.760  0.6321 -0.8636 -0.7059
  152MOL0     H20913   4.144   9.084   9.593 -0.7198  0.2743 -2.4983
  152MOL0     H20914   4.144   9.196   9.460  0.9016  0.3462 -0.6076
  152MOL0     H20915   4.290   9.350   9.606  0.4373  0.5175 -2.2643
  152MOL0     H20916   4.320   9.219   9.719  0.7804 -0.7159 -0.6014
  152MOL0     H20917   4.499   9.245   9.565 -0.5459  0.6671  1.4700
  152MOL0     H20918   4.383   9.222   9.429  2.7270 -0.7165  0.0987
  152MOL0     H20919   4.396   8.998   9.627 -4.0336  3.6764  0.9903
  152MOL0     H20920   4.368   8.995   9.461  0.1057 -0.4155  0.5008
  152MOL0     H20921   4.588   8.890   9.502 -1.6556 -0.4926  1.9827
  152MOL0     H20922   4.646   9.039   9.574 -1.4480 -0.1807  0.5278
  152MOL0     H20923   4.568   8.993   9.281  1.5748  1.5854 -1.2505
  152MOL0     H20924   4.590   9.157   9.348  0.8223  0.3740  0.1619
  152MOL0     H20925   4.866   9.155   9.465  0.4607  0.4307 -0.9956
  152MOL0     H20926   5.147   9.139   9.414  1.1696  0.9710 -0.0866
  152MOL0     H20927   5.100   9.227   9.264  1.1595 -0.4750  0.1667
  152MOL0     H20928   5.190   8.940   9.274 -1.6574  0.6629  1.4412
  152MOL0     H20929   5.209   9.053   9.136  1.3074 -1.9145 -0.2148
  152MOL0     H20930   5.365   9.110   9.385 -0.0378 -0.7689 -0.1883
  152MOL0     H20931   5.421   9.014   9.245 -0.6472 -0.5163 -0.8425
  152MOL0     H20932   5.314   9.301   9.193  0.3024  0.7558 -0.4740
  152MOL0     H20933   5.479   9.274   9.244  0.6027  0.3172 -1.2894
  152MOL0     H20934   5.531   8.967   9.003  1.5981 -1.1880 -1.4508
  152MOL0     H20935   5.860   8.847   8.929 -0.9422 -0.1695 -2.7230
  152MOL0     H20936   5.695   8.813   8.912  0.9814 -1.4883 -0.7147
  152MOL0     H20937   5.770   8.827   9.079 -0.9815 -0.7301 -0.6685
  152MOL0     H20938   6.256   9.319   9.052 -1.3111  0.9464 -0.9711
  152MOL0     H20939   6.493   9.314   8.985  1.3226  0.3482 -1.1782
  152MOL0     H20940   6.604   9.039   8.657  0.1433 -0.5674  2.3601
  152MOL0     H20941   6.596   9.204   8.593 -3.0635  1.9948  2.7855
  152MOL0     H20942   6.836   9.116   8.756  3.4091 -1.3356 -1.4978
  152MOL0     H20943   6.824   9.058   8.591 -0.9005 -0.4537  0.6519
  152MOL0     H20944   6.799   9.351   8.703 -0.2905  1.0893 -1.5088
  152MOL0     H20945   6.779   9.325   8.536  0.1962 -2.7481 -2.5363
  152MOL0     H20946   7.050   9.234   8.568  1.1659  0.2599  1.1249
  152MOL0     H20947   7.010   9.287   8.726 -2.7670 -1.2583  1.6643
  152MOL0     H20948   7.009   9.471   8.480  0.2765 -0.3843 -0.1310
  152MOL0     H20949   6.991   9.527   8.653 -0.9034  0.5840 -1.0148
  152MOL0     H20950   7.221   9.361   8.557  0.4163  0.4488 -1.2814
  152MOL0     H20951   7.207   9.436   8.720 -0.8228 -0.9406  1.4653
  152MOL0     H20952   7.233   9.647   8.612 -1.3985 -1.5507  1.3277
  152MOL0     H20953   7.210   9.578   8.444 -0.2712 -3.9240 -1.7652
  152MOL0     H20954   7.449   9.514   8.626  0.1173  1.2276  0.3466
  152MOL0     H20955   7.447   9.640   8.500 -0.0037  0.4923 -1.7654
  152MOL0     H20956   6.403   9.021   8.685 -3.9938 -0.4495 -1.5685
  152MOL0     H20957   6.167   9.069   8.711 -0.6143  0.3933 -0.4553
  152MOL0     H20958   5.850   9.336   8.998 -0.9570 -0.0665 -1.1650
  152MOL0     H20959   5.620   9.371   9.078 -0.8558 -0.0830 -0.7900
  152MOL0     H20960   3.799   9.238   9.854 -0.1171 -0.2027  0.1352
  152MOL0     H20961   3.831   9.146  10.090  0.9073  0.3624  0.3169
  152MOL0     H20962   3.581   8.771  10.334  0.3820  0.3689  0.1761
  152MOL0     H20963   3.552   8.727  10.551  0.5706 -2.8118 -0.3298
  152MOL0     H20964   3.558   8.756  10.801  0.7609  0.0495 -0.8656
  152MOL0     H20965   3.599   8.590  10.742 -0.0771  0.3086  0.2967
  152MOL0     H20966   3.693   8.543  10.954  0.7337  0.1302 -1.0497
  152MOL0     H20967   3.540   8.602  10.990  1.3874 -0.6971  2.1932
  152MOL0     H20968   3.782   8.781  11.023  1.2365 -1.0754 -0.6942
  152MOL0     H20969   3.613   8.810  11.068 -2.6235 -2.4664  0.6968
  152MOL0     H20970   3.797   8.703  11.236  0.3215 -0.4098 -0.1887
  152MOL0     H20971   3.778   8.558  11.160  1.4742  1.2345  0.9301
  152MOL0     H20972   3.436   8.574  11.406 -0.6421  2.3737 -0.0550
  152MOL0     H20973   3.965   8.840  10.631 -0.5068  0.0305  0.8464
  152MOL0     H20974   4.048   8.950  10.327 -1.4019 -1.5507 -2.0876
  152MOL0     H20975   4.120   8.890  10.468  1.6072  0.1652 -1.2021
  152MOL0     H20976   4.102   8.782  10.336  1.3086  1.2964 -1.2312
  153MOL0     O20977   0.675   0.560   1.093 -0.1984  0.0661  0.0532
  153MOL0     C20978   0.686   0.443   1.070 -0.1920 -0.5107  0.1505
  153MOL0     O20979   0.586   0.352   1.052  0.8302 -0.0493  0.1716
  153MOL0     C20980   0.457   0.394   1.083 -0.2785  0.6622  1.3226
  153MOL0     C20981   0.386   0.344   1.194  0.0790  0.2248  0.0234
  153MOL0     C20982   0.253   0.375   1.221 -0.8750 -0.3894  0.0051
  153MOL0     C20983   0.192   0.472   1.145  0.4245  0.0579 -0.1213
  153MOL0     O20984   0.070   0.521   1.181 -0.2388  0.6873  0.0644
  153MOL0     C20985   0.063   0.587   1.303 -0.4318 -0.3182  0.3545
  153MOL0     C20986  -0.063   0.667   1.302 -0.0239 -0.4675  0.3775
  153MOL0     C20987  -0.071   0.751   1.434 -1.0178  0.5132  0.8582
  153MOL0     C20988   0.052   0.840   1.457 -0.7677 -0.3802  0.5766
  153MOL0     C20989   0.020   0.953   1.566  0.7201 -0.1825  0.8061
  153MOL0     C20990   0.048   0.904   1.707 -0.6617  0.4287  0.8173
  153MOL0     C20991   0.008   1.006   1.808 -0.1384 -0.5782  0.1890
  153MOL0     C20992   0.033   0.963   1.958  0.5828 -0.2563  0.0401
  153MOL0     N20993   0.180   0.976   1.990 -0.6475 -0.7693  0.0766
  153MOL0     C20994   0.222   1.078   2.074 -0.7136 -0.3737  0.3219
  153MOL0     C20995   0.356   1.059   2.089 -1.1900  0.4200 -0.2080
  153MOL0     C20996   0.447   1.131   2.185  0.1717  0.4628 -0.1223
  153MOL0     C20997   0.492   1.268   2.146 -0.5826 -0.1866  0.0282
  153MOL0     C20998   0.586   1.276   2.028  0.6136  0.9201  0.2014
  153MOL0     C20999   0.713   1.197   2.070  0.1490 -0.2859 -0.1735
  153MOL0     O21000   0.772   1.258   2.188 -0.2156 -0.2960  0.2383
  153MOL0     C21001   0.901   1.228   2.218  0.6853 -0.1110 -0.1175
  153MOL0     C21002   0.953   1.297   2.326 -0.3701  0.1264 -0.0292
  153MOL0     C21003   1.082   1.278   2.366 -0.3772  0.0088  0.0561
  153MOL0     C21004   1.109   1.332   2.501  0.4313  0.2524  0.6020
  153MOL0     C21005   1.168   1.183   2.292 -0.4235  0.2149 -0.3228
  153MOL0     C21006   1.308   1.155   2.334 -0.2628 -0.2726  0.8194
  153MOL0     O21007   1.362   1.045   2.266  0.1295  0.2148 -1.0020
  153MOL0     C21008   1.498   1.021   2.287 -0.4854 -0.2388 -0.0043
  153MOL0     C21009   1.561   0.994   2.409 -0.2221  0.3773 -0.9631
  153MOL0     C21010   1.698   0.977   2.415  0.4120 -0.1191 -1.6321
  153MOL0     C21011   1.777   0.972   2.302 -0.0524 -0.4934  0.7946
  153MOL0     O21012   1.913   0.965   2.297 -0.6004  0.5352 -0.3381
  153MOL0     C21013   1.988   0.907   2.410 -0.1471 -0.0452 -0.0457
  153MOL0     C21014   2.136   0.873   2.403 -0.8571 -0.0832  0.0394
  153MOL0     C21015   2.216   1.001   2.384 -0.1809 -0.1074 -0.1439
  153MOL0     C21016   2.368   0.977   2.383  0.9316  0.8805 -0.0909
  153MOL0     C21017   2.432   1.014   2.249  0.2035 -0.9357  0.6435
  153MOL0     C21018   2.420   0.909   2.144  0.5314 -0.3586  0.2928
  153MOL0     C21019   2.471   0.962   2.009  0.2865 -0.2329 -0.4574
  153MOL0     C21020   2.366   0.941   1.896  0.6596 -0.2712  0.1484
  153MOL0    Cl21021   2.415   1.035   1.754  0.0980 -0.0850  0.5160
  153MOL0     C21022   1.711   0.991   2.181  0.2883  0.3288  0.8365
  153MOL0     C21023   1.575   1.010   2.171  0.3497  0.0361  0.0360
  153MOL0     O21024   1.362   1.246   2.401 -0.0118  0.5598 -0.5438
  153MOL0     C21025   1.111   1.117   2.183  0.4749 -0.6780 -0.1988
  153MOL0     C21026   0.982   1.145   2.141 -0.2034  0.3544 -0.7696
  153MOL0     N21027   0.394   0.956   2.002  0.0290  0.0996  0.0545
  153MOL0     N21028   0.287   0.900   1.948  0.0278 -1.0653 -0.4046
  153MOL0     C21029   0.264   0.532   1.032  0.6751 -0.4303  0.5440
  153MOL0     C21030   0.393   0.493   1.000 -0.6506 -0.1632  0.3023
  153MOL0     C21031   0.830   0.386   1.052  0.3245  0.3436  0.8491
  153MOL0     C21032   0.845   0.305   0.940 -0.3363  0.0726  0.9022
  153MOL0     C21033   0.969   0.248   0.909  0.7471  0.7353 -0.2569
  153MOL0     C21034   1.078   0.274   0.987 -0.6737 -0.5052  0.1083
  153MOL0     O21035   1.197   0.215   0.943 -0.0072 -0.8730  0.6605
  153MOL0     C21036   1.315   0.296   0.977 -0.4164  0.3906 -0.5982
  153MOL0     C21037   1.437   0.238   0.909 -1.3374 -0.2416  0.5218
  153MOL0     C21038   1.424   0.254   0.754 -0.1873 -0.3105 -0.3954
  153MOL0     C21039   1.569   0.243   0.687  0.7892  0.0301  0.3797
  153MOL0     C21040   1.653   0.356   0.719 -0.6354  0.7223 -0.3831
  153MOL0     C21041   1.708   0.457   0.763 -0.0735 -0.4050  0.2587
  153MOL0     C21042   1.067   0.356   1.100  0.6197  0.3966  0.1413
  153MOL0     C21043   0.943   0.414   1.130  0.1150  0.9891 -0.0706
  153MOL0     C21044   0.926   0.493   1.254 -0.7318  1.3644 -0.2790
  153MOL0     H21045   0.432   0.264   1.252 -0.9605 -1.7797 -1.7437
  153MOL0     H21046   0.204   0.326   1.304  1.2975 -1.8435  0.5171
  153MOL0     H21047   0.146   0.658   1.310  0.0896 -0.5498 -2.3199
  153MOL0     H21048   0.068   0.513   1.384  0.6378 -2.4706 -1.5675
  153MOL0     H21049  -0.060   0.735   1.217 -2.9598 -2.1231 -1.2236
  153MOL0     H21050  -0.147   0.598   1.293 -0.5908  0.4594 -2.6875
  153MOL0     H21051  -0.156   0.819   1.425  0.0721  1.6227 -2.1075
  153MOL0     H21052  -0.092   0.688   1.521 -2.5749  0.2988  0.3533
  153MOL0     H21053   0.136   0.781   1.496 -0.3355 -0.7077 -0.7812
  153MOL0     H21054   0.076   0.887   1.362 -2.4254 -1.0976 -0.2378
  153MOL0     H21055  -0.083   0.987   1.564 -0.6597 -3.7195  2.8257
  153MOL0     H21056   0.088   1.034   1.538  2.1089 -1.9725 -1.4058
  153MOL0     H21057  -0.008   0.810   1.719 -1.7029  0.4703 -2.7705
  153MOL0     H21058   0.153   0.874   1.701 -0.8728 -0.1375 -0.1999
  153MOL0     H21059  -0.099   1.026   1.799 -0.1453  0.0722  1.5009
  153MOL0     H21060   0.059   1.101   1.793 -1.8960  0.9332  2.9017
  153MOL0     H21061  -0.024   1.031   2.022  0.0374  0.9954 -1.7093
  153MOL0     H21062   0.008   0.859   1.981 -1.4091  0.0983 -0.3794
  153MOL0     H21063   0.170   1.153   2.133 -1.8732 -2.6751  2.4784
  153MOL0     H21064   0.530   1.065   2.211  2.2269  2.7653 -0.5291
  153MOL0     H21065   0.389   1.148   2.276 -1.2486  3.3730 -1.4321
  153MOL0     H21066   0.403   1.328   2.126 -2.1853 -2.5536 -0.3640
  153MOL0     H21067   0.537   1.308   2.238 -2.6360 -0.8526  1.4035
  153MOL0     H21068   0.542   1.223   1.943  2.6177  0.7111 -0.7564
  153MOL0     H21069   0.615   1.378   2.000 -1.2060  1.0693 -1.3463
  153MOL0     H21070   0.683   1.092   2.081 -1.4483  0.0270 -1.1293
  153MOL0     H21071   0.778   1.206   1.982 -2.2582  1.9186 -1.8952
  153MOL0     H21072   0.890   1.368   2.380 -0.2276 -0.7045  1.2732
  153MOL0     H21073   1.019   1.345   2.562 -1.3148 -0.4436 -1.7022
  153MOL0     H21074   1.167   1.424   2.492  2.0791 -0.8214 -0.1855
  153MOL0     H21075   1.166   1.257   2.556  0.1449 -0.3853  0.0381
  153MOL0     H21076   1.503   1.002   2.500  0.7237  0.3783 -0.3483
  153MOL0     H21077   1.733   0.966   2.517 -0.4428 -0.5533 -1.3833
  153MOL0     H21078   1.979   0.971   2.497  0.4265  1.7647 -1.2676
  153MOL0     H21079   1.936   0.812   2.426  1.5159 -0.6899  1.9328
  153MOL0     H21080   2.172   0.824   2.494 -3.2248  1.8650  2.1748
  153MOL0     H21081   2.139   0.806   2.317 -1.8542  0.0037 -0.0779
  153MOL0     H21082   2.203   1.052   2.480  5.0006  2.2501 -0.3640
  153MOL0     H21083   2.177   1.070   2.309 -0.4237  2.0923  1.8650
  153MOL0     H21084   2.403   0.879   2.415  0.0464 -0.1353 -2.0503
  153MOL0     H21085   2.404   1.055   2.451  1.0428  0.2151  0.6257
  153MOL0     H21086   2.382   1.104   2.214 -0.5666 -1.5098  0.2353
  153MOL0     H21087   2.536   1.046   2.259 -0.7089  2.7406 -0.2538
  153MOL0     H21088   2.319   0.868   2.135  1.2624 -1.9248 -1.6713
  153MOL0     H21089   2.484   0.826   2.176  0.8688  0.2495  1.2464
  153MOL0     H21090   2.569   0.918   1.988  0.6595  0.8126 -1.0256
  153MOL0     H21091   2.480   1.071   2.012  2.0383 -0.3737  0.6918
  153MOL0     H21092   2.269   0.971   1.937  1.1324 -0.7319  1.6700
  153MOL0     H21093   2.352   0.837   1.864  2.2177 -0.2588 -0.6624
  153MOL0     H21094   1.760   0.997   2.084  0.7725  0.6638  1.0956
  153MOL0     H21095   1.531   1.031   2.074 -1.7316 -2.9661  0.2297
  153MOL0     H21096   1.166   1.046   2.122 -0.0898  1.0302 -2.8774
  153MOL0     H21097   0.953   1.100   2.047  2.5699  0.6938 -1.8793
  153MOL0     H21098   0.206   0.610   0.984  0.7615  0.4512  1.8204
  153MOL0     H21099   0.443   0.534   0.914 -1.4231  0.8013  0.2968
  153MOL0     H21100   0.762   0.269   0.881  0.4254  0.1019 -0.2029
  153MOL0     H21101   0.966   0.185   0.820 -1.2591 -0.5715  0.6432
  153MOL0     H21102   1.305   0.403   0.957 -0.7946  0.8361  1.6691
  153MOL0     H21103   1.326   0.294   1.086  0.0820  1.3676 -0.6214
  153MOL0     H21104   1.446   0.132   0.933  0.7898  0.0786  1.4643
  153MOL0     H21105   1.526   0.286   0.952 -1.3670 -1.3001  1.8333
  153MOL0     H21106   1.360   0.173   0.720 -2.6342  0.5423  1.8116
  153MOL0     H21107   1.378   0.349   0.726  1.1655  1.0325  1.5926
  153MOL0     H21108   1.548   0.231   0.580 -1.6134 -0.8372  0.8855
  153MOL0     H21109   1.616   0.154   0.729  1.8314  0.6937  0.6737
  153MOL0     H21110   1.765   0.539   0.802  1.5662 -1.5333  0.3499
  153MOL0     H21111   1.151   0.372   1.167  0.1592  0.2447  0.7494
  153MOL0     H21112   0.872   0.429   1.325  0.5680 -0.1769 -0.6317
  153MOL0     H21113   1.013   0.515   1.316 -2.9394  0.7815  3.2895
  153MOL0     H21114   0.875   0.588   1.237 -0.4863  1.6982  0.7801
  154MOL0     O21115   2.555   5.645   7.020  0.5005 -0.3362  0.0543
  154MOL0     C21116   2.502   5.603   6.917 -0.1474 -0.3550 -0.0691
  154MOL0     O21117   2.567   5.592   6.792  1.1164 -0.1070 -0.0657
  154MOL0     C21118   2.705   5.595   6.800 -0.9295  0.5309  0.8212
  154MOL0     C21119   2.783   5.676   6.709 -0.8054 -0.6090  0.5533
  154MOL0     C21120   2.923   5.670   6.709 -0.8426 -0.7867  0.6357
  154MOL0     C21121   2.994   5.579   6.790 -0.8099  0.3341 -0.0216
  154MOL0     O21122   3.134   5.575   6.788 -0.1072  0.2066 -0.5572
  154MOL0     C21123   3.207   5.581   6.911 -0.1905  0.0528  0.8759
  154MOL0     C21124   3.204   5.725   6.954 -0.1093 -0.6166 -0.3110
  154MOL0     C21125   3.342   5.778   7.003  0.9261 -0.3750 -0.7805
  154MOL0     C21126   3.330   5.938   7.033  0.3373  0.2655  0.2522
  154MOL0     C21127   3.460   5.989   7.113 -0.2877 -0.4179 -0.1905
  154MOL0     C21128   3.579   6.024   7.023 -0.1503 -0.3714  0.1373
  154MOL0     C21129   3.713   6.028   7.099 -0.3976  0.2266 -0.1274
  154MOL0     C21130   3.840   6.024   7.006  0.2674 -0.5090 -1.0587
  154MOL0     N21131   3.976   6.014   7.073  0.5166 -0.0190 -0.4686
  154MOL0     C21132   4.017   5.934   7.179 -0.0205  0.0980 -0.2316
  154MOL0     C21133   4.151   5.934   7.174  0.1473  0.4486 -0.4348
  154MOL0     C21134   4.224   5.839   7.264  0.0118  0.6165  0.0625
  154MOL0     C21135   4.283   5.913   7.392  0.2675 -0.4477 -1.0356
  154MOL0     C21136   4.427   5.969   7.366  0.9949 -0.2858  0.1142
  154MOL0     C21137   4.431   6.090   7.263 -0.2470 -0.2566 -0.6077
  154MOL0     O21138   4.523   6.191   7.307  0.1072  0.0730 -0.3945
  154MOL0     C21139   4.668   6.176   7.291 -0.3453 -1.2482  0.0328
  154MOL0     C21140   4.731   6.065   7.238 -0.9508  0.1751 -0.4243
  154MOL0     C21141   4.876   6.062   7.214  0.3400  0.2723 -0.3400
  154MOL0     C21142   4.941   5.941   7.148  0.3706 -0.0693  0.2363
  154MOL0     C21143   4.947   6.177   7.245 -0.2240  0.4137  0.7470
  154MOL0     C21144   5.092   6.191   7.247  0.4651 -0.0178  0.2296
  154MOL0     O21145   5.140   6.314   7.229  0.1579  0.4906  0.3742
  154MOL0     C21146   5.273   6.336   7.251  0.1466 -0.0746 -0.1210
  154MOL0     C21147   5.311   6.357   7.386 -0.0777  0.0431 -0.2146
  154MOL0     C21148   5.445   6.373   7.420 -0.9605 -0.3254 -0.2427
  154MOL0     C21149   5.546   6.375   7.328 -0.5494  0.6915 -0.1516
  154MOL0     O21150   5.671   6.402   7.371 -0.4448  0.6735 -0.2210
  154MOL0     C21151   5.791   6.381   7.284 -0.2034 -0.0167 -0.1194
  154MOL0     C21152   5.925   6.375   7.364  0.0387  0.5162 -0.4293
  154MOL0     C21153   6.042   6.385   7.261 -0.1498 -0.1129  0.1902
  154MOL0     C21154   6.181   6.400   7.330 -0.1187 -0.0183 -0.3796
  154MOL0     C21155   6.306   6.406   7.238  0.1179 -0.2031  0.5301
  154MOL0     C21156   6.338   6.543   7.178  0.7083 -0.2507 -0.1732
  154MOL0     C21157   6.336   6.551   7.032  0.4809  1.1623  0.5521
  154MOL0     C21158   6.316   6.694   6.978 -0.4169 -0.0474  0.6621
  154MOL0    Cl21159   6.456   6.805   6.995  0.1672 -0.2200 -0.2287
  154MOL0     C21160   5.503   6.365   7.195 -0.5941 -0.3334  0.2564
  154MOL0     C21161   5.370   6.343   7.149  0.0942 -0.4504 -0.2399
  154MOL0     O21162   5.157   6.090   7.278 -0.1345  0.5228 -0.2042
  154MOL0     C21163   4.874   6.294   7.292 -0.1713 -0.1278  0.9249
  154MOL0     C21164   4.745   6.288   7.320 -0.1613  0.6233 -0.2653
  154MOL0     N21165   4.189   6.012   7.067 -0.5990 -0.1867 -0.1776
  154MOL0     N21166   4.084   6.058   7.012 -0.3339 -0.7314  0.8781
  154MOL0     C21167   2.923   5.492   6.868  0.0079  0.4695 -0.6523
  154MOL0     C21168   2.782   5.503   6.880  0.0990  0.4606  0.4067
  154MOL0     C21169   2.357   5.581   6.905  0.3571 -0.4052  0.6891
  154MOL0     C21170   2.298   5.574   6.779  0.0825 -0.4201  0.2044
  154MOL0     C21171   2.154   5.562   6.759  0.3305 -0.7979 -0.5560
  154MOL0     C21172   2.078   5.543   6.868  0.2356 -0.7108  0.2282
  154MOL0     O21173   1.939   5.531   6.855 -0.2680 -0.1639 -0.0700
  154MOL0     C21174   1.870   5.457   6.750 -0.0746  0.7318 -0.1630
  154MOL0     C21175   1.814   5.547   6.641  0.0441  0.4659  0.4355
  154MOL0     C21176   1.696   5.620   6.709 -0.0893  0.1513 -0.5265
  154MOL0     C21177   1.610   5.705   6.600  0.3384  0.4925 -0.1726
  154MOL0     C21178   1.477   5.725   6.660  0.5000  0.5737 -0.3497
  154MOL0     C21179   1.367   5.752   6.710 -0.2521 -0.4014  0.5292
  154MOL0     C21180   2.135   5.550   6.989  0.0267  0.7364 -0.0212
  154MOL0     C21181   2.268   5.578   7.012  0.9187 -0.1345  0.1124
  154MOL0     C21182   2.304   5.588   7.157 -0.5411  0.2994  0.2448
  154MOL0     H21183   2.727   5.745   6.647 -1.2202 -0.7190  0.7957
  154MOL0     H21184   2.981   5.740   6.650 -1.8976 -1.6979 -1.6262
  154MOL0     H21185   3.312   5.561   6.886 -0.3253  1.3837 -0.9469
  154MOL0     H21186   3.175   5.505   6.983 -3.6726 -0.5146 -1.0768
  154MOL0     H21187   3.166   5.784   6.870 -0.6047  0.0748  0.3816
  154MOL0     H21188   3.125   5.735   7.029 -1.4766 -3.2876 -1.2742
  154MOL0     H21189   3.368   5.730   7.098  0.8697  0.9759 -0.0586
  154MOL0     H21190   3.418   5.755   6.928 -0.9586  0.0892 -2.9415
  154MOL0     H21191   3.314   6.001   6.946 -0.5344  0.7605  0.7488
  154MOL0     H21192   3.244   5.954   7.099  0.7958  1.1651  0.6505
  154MOL0     H21193   3.488   5.913   7.187 -0.4158 -0.7158 -0.4477
  154MOL0     H21194   3.438   6.079   7.171  2.9515  0.3033  0.1559
  154MOL0     H21195   3.581   5.958   6.936 -0.0586  0.3658 -0.4332
  154MOL0     H21196   3.573   6.125   6.980  0.9742  0.3489  1.5487
  154MOL0     H21197   3.736   5.952   7.175  2.3575  2.5338  1.5051
  154MOL0     H21198   3.713   6.113   7.167 -1.0830 -1.7618  2.5420
  154MOL0     H21199   3.820   5.935   6.947 -0.8130 -0.4293 -0.8253
  154MOL0     H21200   3.840   6.110   6.938 -1.3106  0.3073 -0.0828
  154MOL0     H21201   3.959   5.867   7.242  3.4475 -3.4540 -0.4506
  154MOL0     H21202   4.299   5.787   7.204  0.0738 -1.3459  1.7220
  154MOL0     H21203   4.149   5.768   7.298 -1.3152  2.1298  0.4527
  154MOL0     H21204   4.210   5.990   7.418  1.4470  0.2494  0.4153
  154MOL0     H21205   4.283   5.842   7.475  0.5978  1.5863  0.7906
  154MOL0     H21206   4.452   6.017   7.461 -0.3854  2.1635 -0.6691
  154MOL0     H21207   4.495   5.883   7.359 -1.0978 -2.6475  4.7206
  154MOL0     H21208   4.464   6.041   7.171 -1.6596  0.7404 -1.6928
  154MOL0     H21209   4.337   6.143   7.244 -0.1586  1.6948  3.2614
  154MOL0     H21210   4.669   5.981   7.210  0.1120 -0.1896 -1.7772
  154MOL0     H21211   5.003   5.891   7.222 -0.2044 -0.5671  0.3940
  154MOL0     H21212   4.990   5.977   7.057  0.9231  1.1831  1.0024
  154MOL0     H21213   4.861   5.877   7.109 -0.9281  0.6134  1.6472
  154MOL0     H21214   5.239   6.351   7.467  2.5324  0.9995  2.3459
  154MOL0     H21215   5.479   6.396   7.521  2.3936  0.8841 -1.4895
  154MOL0     H21216   5.778   6.286   7.231 -1.8955  0.5736 -0.8241
  154MOL0     H21217   5.803   6.458   7.207 -0.9071  1.2565  1.0015
  154MOL0     H21218   5.932   6.463   7.428 -0.4897  0.2642 -0.0142
  154MOL0     H21219   5.935   6.287   7.428 -0.8481  0.3683 -0.4839
  154MOL0     H21220   6.039   6.481   7.207  0.5857  0.2693  0.7982
  154MOL0     H21221   6.029   6.294   7.202 -1.8848 -1.5357  2.6040
  154MOL0     H21222   6.189   6.309   7.391 -0.6002  0.7461  0.8647
  154MOL0     H21223   6.184   6.484   7.399  0.9311  0.7844 -1.3654
  154MOL0     H21224   6.386   6.378   7.308  0.9880 -0.1736 -0.4326
  154MOL0     H21225   6.305   6.332   7.158  0.1929  1.0513 -0.6675
  154MOL0     H21226   6.444   6.565   7.194  0.3701  1.4676 -0.1654
  154MOL0     H21227   6.295   6.619   7.244  1.8032 -2.1521  2.9628
  154MOL0     H21228   6.259   6.487   6.989  0.5796  2.4275 -1.6416
  154MOL0     H21229   6.430   6.510   6.994  1.0078  1.5015  1.4583
  154MOL0     H21230   6.234   6.740   7.034 -0.9236 -0.7095  0.4757
  154MOL0     H21231   6.297   6.686   6.870  1.3520 -0.9636  0.3796
  154MOL0     H21232   5.587   6.377   7.127  0.3483  2.0042  1.6948
  154MOL0     H21233   5.355   6.346   7.042  2.6347 -0.9652 -0.6676
  154MOL0     H21234   4.929   6.382   7.323  0.8063 -0.3778 -0.0201
  154MOL0     H21235   4.705   6.382   7.356  1.6833  2.1959 -2.1022
  154MOL0     H21236   2.978   5.433   6.940  1.8995  2.4502 -0.3557
  154MOL0     H21237   2.743   5.437   6.957 -0.2774 -0.5654 -0.6304
  154MOL0     H21238   2.360   5.585   6.691 -2.1444 -1.4588 -1.6213
  154MOL0     H21239   2.113   5.553   6.658  1.0922  0.6403 -1.0149
  154MOL0     H21240   1.945   5.394   6.700 -1.4338 -2.7491  1.8147
  154MOL0     H21241   1.796   5.392   6.797  1.1795 -0.3524  0.3769
  154MOL0     H21242   1.796   5.497   6.545  2.1649  2.6453 -1.2209
  154MOL0     H21243   1.896   5.615   6.616 -0.6097  0.2861 -2.5523
  154MOL0     H21244   1.632   5.552   6.766  0.3982  0.7947  0.8366
  154MOL0     H21245   1.748   5.685   6.779 -1.9885  1.3743 -0.1761
  154MOL0     H21246   1.605   5.660   6.501 -1.6305  0.7998 -0.2391
  154MOL0     H21247   1.660   5.801   6.585  0.8391  0.0533 -1.4649
  154MOL0     H21248   1.266   5.774   6.735 -0.5180 -0.7567 -0.1973
  154MOL0     H21249   2.074   5.539   7.078  0.1791  0.1122  0.0134
  154MOL0     H21250   2.373   5.670   7.173  0.6937 -0.7148  0.2702
  154MOL0     H21251   2.218   5.605   7.224 -2.8533  2.3600 -2.9594
  154MOL0     H21252   2.363   5.497   7.173  1.5887  1.4387 -0.8729
  155MOL0     O21253  10.856   5.493   6.639 -0.0611 -0.0697 -0.2289
  155MOL0     C21254  10.767   5.524   6.561 -1.1675  0.7906 -0.3873
  155MOL0     O21255  10.747   5.646   6.508 -0.0842  0.0920  0.2064
  155MOL0     C21256  10.825   5.748   6.552  0.5241 -1.2004  0.0899
  155MOL0     C21257  10.954   5.759   6.508 -0.1142 -0.5102 -0.2851
  155MOL0     C21258  11.039   5.860   6.559  0.9310 -0.0632 -0.2589
  155MOL0     C21259  10.993   5.942   6.657  0.0785  0.2268 -0.5656
  155MOL0     O21260  11.072   6.037   6.718 -0.0132 -0.2432 -0.1215
  155MOL0     C21261  11.099   6.152   6.634  0.8187  0.3605  0.1750
  155MOL0     C21262  11.251   6.191   6.639  0.7178  0.6265 -0.3618
  155MOL0     C21263  11.285   6.260   6.768 -0.6176 -0.5715  0.5259
  155MOL0     C21264  11.431   6.322   6.757 -0.6387 -0.2616  0.1571
  155MOL0     C21265  11.474   6.402   6.886  0.2172  0.2593 -0.0312
  155MOL0     C21266  11.532   6.317   7.006  0.7707  0.4395  0.0657
  155MOL0     C21267  11.678   6.261   6.980 -0.6605 -0.0286  0.4911
  155MOL0     C21268  11.717   6.157   7.092 -0.3989  0.1570  0.1864
  155MOL0     N21269  11.846   6.096   7.080 -0.0453  0.4848 -0.8998
  155MOL0     C21270  11.959   6.165   7.053  0.0980  0.1109 -0.0636
  155MOL0     C21271  12.050   6.067   7.035  0.4252 -0.0188  0.2904
  155MOL0     C21272  12.193   6.076   6.988 -1.5230 -0.7664  0.2925
  155MOL0     C21273  12.206   6.103   6.834  0.9866 -0.0913 -0.3914
  155MOL0     C21274  12.204   5.969   6.749  0.3603 -0.0322 -0.8462
  155MOL0     C21275  12.154   5.987   6.605  0.5141 -0.3769  0.4152
  155MOL0     O21276  12.185   5.867   6.537  0.1391 -0.1453 -0.3124
  155MOL0     C21277  12.304   5.857   6.473  0.2015 -0.4777 -1.0946
  155MOL0     C21278  12.417   5.945   6.502 -0.0572  0.2595  0.1104
  155MOL0     C21279  12.535   5.941   6.424  0.6096  0.1842 -0.9855
  155MOL0     C21280  12.638   6.045   6.450  0.3314 -0.4107 -0.7197
  155MOL0     C21281  12.553   5.830   6.340  0.2416  0.2298  0.2184
  155MOL0     C21282  12.672   5.802   6.263 -0.0011  0.3439 -0.1574
  155MOL0     O21283  12.697   5.668   6.216 -0.6876 -0.1705  0.4081
  155MOL0     C21284  12.812   5.641   6.152 -0.2455 -0.7104  0.0017
  155MOL0     C21285  12.938   5.706   6.166  0.3187  0.2950 -0.0082
  155MOL0     C21286  13.052   5.686   6.091  0.2997  0.1441  0.3501
  155MOL0     C21287  13.051   5.583   5.990 -0.4705 -0.3615 -0.9638
  155MOL0     O21288  13.146   5.569   5.895 -0.1890 -0.0900  0.5210
  155MOL0     C21289  13.278   5.624   5.919 -0.0954  0.6029 -0.0677
  155MOL0     C21290  13.343   5.634   5.782  0.5780  0.4455 -0.0633
  155MOL0     C21291  13.473   5.713   5.791 -0.1641 -0.1979 -0.7486
  155MOL0     C21292  13.556   5.695   5.664  0.4160 -0.2643  0.7549
  155MOL0     C21293  13.697   5.747   5.681  1.0603  0.4805  0.7922
  155MOL0     C21294  13.782   5.704   5.566 -0.7603 -0.4153 -0.5311
  155MOL0     C21295  13.743   5.788   5.436 -0.4973 -0.4279  0.0611
  155MOL0     C21296  13.837   5.781   5.319  0.5083  0.2232  0.7570
  155MOL0    Cl21297  13.781   5.659   5.201 -0.1150  0.4939 -0.1053
  155MOL0     C21298  12.930   5.512   5.981  0.1137 -0.8879  0.3335
  155MOL0     C21299  12.812   5.542   6.058  0.2405  0.7181  0.3226
  155MOL0     O21300  12.735   5.901   6.228 -0.0396  0.1108 -0.4389
  155MOL0     C21301  12.441   5.741   6.323  0.4234 -0.8866  1.4621
  155MOL0     C21302  12.327   5.755   6.383  0.4406  0.0760 -0.2788
  155MOL0     N21303  11.993   5.941   7.044 -0.2988  0.1461  0.0651
  155MOL0     N21304  11.869   5.961   7.071  0.1820  0.4103 -0.3230
  155MOL0     C21305  10.852   5.940   6.692  0.2288 -0.8139 -0.1871
  155MOL0     C21306  10.773   5.843   6.634  0.4195 -0.6149 -0.1142
  155MOL0     C21307  10.683   5.417   6.509  0.2690  0.4284 -0.6878
  155MOL0     C21308  10.753   5.300   6.472  0.0141 -0.2852 -0.6510
  155MOL0     C21309  10.675   5.205   6.413 -0.5430  0.2253  0.4853
  155MOL0     C21310  10.533   5.204   6.390 -0.5603 -0.2586 -0.2355
  155MOL0     O21311  10.474   5.091   6.338  0.2836  0.2854  0.1396
  155MOL0     C21312  10.330   5.102   6.323 -0.1136 -0.3020 -0.8566
  155MOL0     C21313  10.273   4.968   6.280 -0.2156 -0.2783  0.9045
  155MOL0     C21314  10.125   4.996   6.262 -0.0010  0.4741  0.0705
  155MOL0     C21315  10.074   4.881   6.176 -0.2665  0.0794  0.5071
  155MOL0     C21316   9.967   4.929   6.089 -0.3019  0.2498  0.6486
  155MOL0     C21317   9.879   4.968   6.010 -0.3585 -0.2453  0.3058
  155MOL0     C21318  10.467   5.315   6.444 -0.1701  0.2104  0.2543
  155MOL0     C21319  10.536   5.424   6.503 -0.1236 -0.0559  0.2302
  155MOL0     C21320  10.453   5.535   6.557  0.6132 -0.1708  0.3262
  155MOL0     H21321  11.004   5.687   6.443 -0.4096 -0.5055 -0.5210
  155MOL0     H21322  11.143   5.851   6.529  0.5821 -2.7895 -0.9458
  155MOL0     H21323  11.034   6.239   6.641 -0.5149 -0.5253 -0.7333
  155MOL0     H21324  11.096   6.119   6.530  0.5273 -0.1518  0.3448
  155MOL0     H21325  11.309   6.098   6.634 -0.7625 -0.3685  0.0920
  155MOL0     H21326  11.266   6.249   6.548  0.0991 -0.2196 -1.0232
  155MOL0     H21327  11.204   6.334   6.774  0.5850  0.7355  1.6666
  155MOL0     H21328  11.279   6.197   6.857 -1.4944 -2.1205 -0.5780
  155MOL0     H21329  11.507   6.247   6.731  0.6028  0.0804  2.4540
  155MOL0     H21330  11.424   6.386   6.669 -1.0649  0.5302  0.7589
  155MOL0     H21331  11.393   6.471   6.913  1.6355  2.2166 -0.5923
  155MOL0     H21332  11.560   6.464   6.860  2.1517 -1.0596  2.8239
  155MOL0     H21333  11.536   6.374   7.099  1.9452  3.4728 -1.6913
  155MOL0     H21334  11.462   6.234   7.020  3.6105 -2.0353  0.6480
  155MOL0     H21335  11.745   6.348   6.980  1.9594 -1.9057 -1.1014
  155MOL0     H21336  11.681   6.221   6.879  3.2663  0.6601  0.1930
  155MOL0     H21337  11.704   6.204   7.190 -1.3504  0.4865 -0.0850
  155MOL0     H21338  11.637   6.083   7.094 -0.4877  0.2650  0.6316
  155MOL0     H21339  11.976   6.272   7.042  3.9436 -0.4253 -0.7536
  155MOL0     H21340  12.258   5.991   7.011  2.2905  1.0788 -2.5912
  155MOL0     H21341  12.238   6.160   7.041  0.1247 -0.6728 -1.1440
  155MOL0     H21342  12.114   6.156   6.809 -0.8197 -2.2770  1.1961
  155MOL0     H21343  12.297   6.161   6.814  1.3882 -0.2305  0.9706
  155MOL0     H21344  12.305   5.932   6.767  0.0223  0.0943  1.7127
  155MOL0     H21345  12.139   5.893   6.793  1.1245 -0.1917  0.0271
  155MOL0     H21346  12.046   6.007   6.608  0.6484  0.2989  2.8070
  155MOL0     H21347  12.204   6.072   6.557 -1.8241  1.1910  0.5715
  155MOL0     H21348  12.409   6.025   6.575  0.6841  2.4105 -2.0372
  155MOL0     H21349  12.740   6.003   6.452  0.7739  0.4826 -2.4397
  155MOL0     H21350  12.612   6.094   6.544 -2.0302  2.4571 -2.6949
  155MOL0     H21351  12.643   6.117   6.368  1.4868 -0.1089 -0.4031
  155MOL0     H21352  12.950   5.793   6.230 -3.8835  0.3502  0.9780
  155MOL0     H21353  13.136   5.752   6.107  1.0500 -1.4451  3.5950
  155MOL0     H21354  13.284   5.728   5.953 -0.7180  0.2762  1.0626
  155MOL0     H21355  13.338   5.568   5.992  1.7769 -1.0552 -2.6827
  155MOL0     H21356  13.370   5.535   5.742  1.2500  0.8425 -0.6299
  155MOL0     H21357  13.272   5.686   5.717  2.4882 -0.2607 -2.9315
  155MOL0     H21358  13.534   5.685   5.878 -1.2230  2.7145  1.0874
  155MOL0     H21359  13.442   5.817   5.796 -2.3663 -0.7611 -1.3592
  155MOL0     H21360  13.505   5.742   5.580  1.2398 -0.5185  0.1020
  155MOL0     H21361  13.560   5.590   5.631  2.8903 -0.1947  0.6201
  155MOL0     H21362  13.698   5.855   5.699  1.7114  0.4100  1.2326
  155MOL0     H21363  13.734   5.701   5.774  1.4170 -0.2503  0.3019
  155MOL0     H21364  13.776   5.598   5.540  0.4227 -0.4775 -0.6392
  155MOL0     H21365  13.888   5.720   5.588 -0.7749  0.4663 -1.0618
  155MOL0     H21366  13.753   5.892   5.468  1.8420 -0.5051 -0.2448
  155MOL0     H21367  13.643   5.764   5.398 -0.8234  1.7873 -0.6346
  155MOL0     H21368  13.933   5.756   5.366 -0.1886 -0.0486  2.0886
  155MOL0     H21369  13.861   5.874   5.268  1.7890 -0.1040  0.7130
  155MOL0     H21370  12.918   5.441   5.900  0.3708  1.9415 -2.3697
  155MOL0     H21371  12.732   5.468   6.053  0.4919  0.4325  0.4824
  155MOL0     H21372  12.453   5.650   6.264  1.7051  0.0169  0.2642
  155MOL0     H21373  12.250   5.680   6.374  1.5649 -1.5483  2.5308
  155MOL0     H21374  10.816   6.017   6.760  0.0379 -0.3651 -0.7875
  155MOL0     H21375  10.665   5.854   6.640  0.3919 -0.2200 -1.1972
  155MOL0     H21376  10.861   5.286   6.476 -0.1159 -1.4555 -1.0665
  155MOL0     H21377  10.741   5.121   6.394  3.8251  2.7931  2.5109
  155MOL0     H21378  10.279   5.126   6.417  0.2574 -0.0252 -0.7210
  155MOL0     H21379  10.308   5.188   6.259 -1.4094 -0.0215 -0.0806
  155MOL0     H21380  10.298   4.889   6.351 -0.8568 -0.1060  1.3244
  155MOL0     H21381  10.315   4.940   6.183  0.4271  0.4593  0.9610
  155MOL0     H21382  10.078   4.989   6.361  1.0293  1.9737  0.7035
  155MOL0     H21383  10.108   5.093   6.214  0.0175  0.5148  0.1449
  155MOL0     H21384  10.030   4.804   6.240 -2.2909  1.0385  0.3439
  155MOL0     H21385  10.146   4.822   6.119 -0.2167 -1.0345  1.6654
  155MOL0     H21386   9.813   5.010   5.936  0.0799  0.1995  0.1652
  155MOL0     H21387  10.360   5.333   6.444 -0.6945 -2.4365 -0.1947
  155MOL0     H21388  10.406   5.590   6.475 -1.8576 -2.0182  0.3797
  155MOL0     H21389  10.369   5.508   6.621 -0.7007  1.6245 -0.5532
  155MOL0     H21390  10.509   5.607   6.616 -1.1604  1.5437 -0.0181
  156MOL0     O21391   0.099   7.157   9.049  0.6168  0.3895 -0.5907
  156MOL0     C21392   0.040   7.154   8.946  0.6988  0.5566  1.1747
  156MOL0     O21393   0.074   7.074   8.844 -0.1773  0.2896  0.3637
  156MOL0     C21394   0.194   7.002   8.853  0.7622 -0.0847 -0.6320
  156MOL0     C21395   0.311   7.037   8.787 -0.3275  0.4378  0.5039
  156MOL0     C21396   0.415   6.941   8.774 -0.1505 -0.1247 -0.3844
  156MOL0     C21397   0.419   6.829   8.856  0.7885 -0.3483 -0.1954
  156MOL0     O21398   0.519   6.746   8.827 -0.3588 -0.5080 -0.5466
  156MOL0     C21399   0.534   6.634   8.914  0.1710  0.0093 -0.1474
  156MOL0     C21400   0.663   6.551   8.883 -0.1622  0.0674 -0.3722
  156MOL0     C21401   0.793   6.623   8.911 -0.7029  0.1623 -0.0269
  156MOL0     C21402   0.921   6.529   8.906 -0.1108  0.1693  0.1628
  156MOL0     C21403   1.047   6.593   8.950 -0.4952  0.7630  1.1703
  156MOL0     C21404   1.160   6.493   8.959 -0.8432  0.5989  0.7848
  156MOL0     C21405   1.288   6.563   9.007  0.1576  0.4273  0.2515
  156MOL0     C21406   1.417   6.482   8.988  0.3457  0.7114  0.1276
  156MOL0     N21407   1.534   6.549   9.044 -0.0896  0.0403 -1.0451
  156MOL0     C21408   1.591   6.666   8.990 -0.5674 -0.1371  0.2225
  156MOL0     C21409   1.683   6.698   9.089  1.2902 -0.6243  0.9261
  156MOL0     C21410   1.770   6.821   9.081  0.2562  0.9390  0.5395
  156MOL0     C21411   1.902   6.785   9.021 -0.1542  0.4559  0.3676
  156MOL0     C21412   1.909   6.836   8.874 -0.5478  0.3749 -1.1256
  156MOL0     C21413   2.049   6.822   8.819 -0.1939 -0.1902  0.1869
  156MOL0     O21414   2.123   6.950   8.830 -0.1838  0.0739 -0.6534
  156MOL0     C21415   2.263   6.960   8.805 -1.2934  0.9715  0.1625
  156MOL0     C21416   2.352   6.851   8.785 -1.3748  0.5574  0.3215
  156MOL0     C21417   2.491   6.866   8.791  0.1804 -0.2836 -0.2983
  156MOL0     C21418   2.566   6.745   8.748  0.6515  0.6038 -0.1553
  156MOL0     C21419   2.548   6.996   8.807  0.1571 -0.1993  0.3644
  156MOL0     C21420   2.692   7.038   8.796 -0.0452  1.3406 -0.2493
  156MOL0     O21421   2.718   7.174   8.809 -0.4343  0.0248  0.8820
  156MOL0     C21422   2.846   7.208   8.814  0.3991  0.7112 -1.0015
  156MOL0     C21423   2.968   7.156   8.749  0.2042  0.0912  0.2579
  156MOL0     C21424   3.093   7.209   8.781  0.6226  0.1583  0.0511
  156MOL0     C21425   3.103   7.317   8.868 -0.2619 -0.5388 -0.3274
  156MOL0     O21426   3.224   7.379   8.911  0.3490  0.3286 -0.2823
  156MOL0     C21427   3.312   7.287   8.969  0.3064 -0.8596  0.0098
  156MOL0     C21428   3.410   7.343   9.073  0.4413 -0.9342  0.3208
  156MOL0     C21429   3.521   7.410   8.993 -1.1089 -0.3568 -0.1351
  156MOL0     C21430   3.610   7.494   9.082 -0.1888  0.6696 -0.0393
  156MOL0     C21431   3.755   7.496   9.031 -0.8992 -0.3007 -0.0274
  156MOL0     C21432   3.853   7.569   9.119  0.5899  0.0627 -0.6070
  156MOL0     C21433   3.992   7.510   9.104 -0.1161 -0.2199 -0.3448
  156MOL0     C21434   4.082   7.566   9.216  0.4488  0.7925 -0.8440
  156MOL0    Cl21435   4.082   7.737   9.230  0.3725 -0.2893 -0.0541
  156MOL0     C21436   2.984   7.373   8.921  0.0564  0.3942 -0.5396
  156MOL0     C21437   2.861   7.320   8.893  0.5015  0.4226 -0.8044
  156MOL0     O21438   2.772   6.946   8.765  0.8457  0.3345 -0.3544
  156MOL0     C21439   2.458   7.094   8.822 -0.4411 -1.2883 -0.4443
  156MOL0     C21440   2.323   7.079   8.825 -0.0314 -1.1623 -0.0034
  156MOL0     N21441   1.673   6.611   9.194 -0.7136  0.2084 -0.0518
  156MOL0     N21442   1.581   6.523   9.167 -0.2056  0.3387  0.2949
  156MOL0     C21443   0.309   6.808   8.939  0.6398 -0.4323 -0.1882
  156MOL0     C21444   0.194   6.892   8.936 -0.5375  0.0094  0.0109
  156MOL0     C21445  -0.096   7.216   8.918 -0.5650  0.2626 -0.6456
  156MOL0     C21446  -0.153   7.211   8.785  0.3784 -0.2821 -0.0017
  156MOL0     C21447  -0.274   7.262   8.754  0.9330  0.4736  0.5256
  156MOL0     C21448  -0.335   7.342   8.846 -0.6831 -0.6905  0.3894
  156MOL0     O21449  -0.452   7.402   8.805  0.3244 -0.3200 -0.1472
  156MOL0     C21450  -0.575   7.392   8.891  0.4234  0.7263  0.1818
  156MOL0     C21451  -0.693   7.432   8.810  0.6154  0.1067  0.1845
  156MOL0     C21452  -0.717   7.333   8.689 -0.9545  0.2349  0.0699
  156MOL0     C21453  -0.837   7.364   8.600 -0.3973  0.8222 -0.9481
  156MOL0     C21454  -0.809   7.477   8.516  0.2451 -0.7193 -0.0302
  156MOL0     C21455  -0.777   7.575   8.451  0.1404 -0.6172 -0.2777
  156MOL0     C21456  -0.293   7.343   8.979  1.0685  0.0875  0.7023
  156MOL0     C21457  -0.177   7.287   9.017  0.7336  0.2609 -0.5397
  156MOL0     C21458  -0.134   7.294   9.166 -0.0835  0.0849  0.5697
  156MOL0     H21459   0.322   7.124   8.722  1.1480  0.8764  1.2827
  156MOL0     H21460   0.495   6.950   8.702 -0.2521  3.9180 -0.1995
  156MOL0     H21461   0.454   6.560   8.901  0.0607 -0.6353  3.2488
  156MOL0     H21462   0.534   6.662   9.020  0.6588  0.2828 -0.2185
  156MOL0     H21463   0.657   6.459   8.941 -0.3142 -0.0826 -0.6244
  156MOL0     H21464   0.650   6.539   8.775 -0.8999  0.9680 -0.4060
  156MOL0     H21465   0.826   6.701   8.841 -0.4552 -0.3534 -0.4877
  156MOL0     H21466   0.784   6.665   9.012 -0.6328 -1.5241  0.7219
  156MOL0     H21467   0.890   6.448   8.971 -0.3132 -1.0113 -1.3487
  156MOL0     H21468   0.925   6.484   8.806  1.7619  3.1154 -1.2273
  156MOL0     H21469   1.030   6.647   9.044 -1.9629  0.8925  0.8509
  156MOL0     H21470   1.078   6.666   8.875 -0.5096 -1.4880 -1.1404
  156MOL0     H21471   1.127   6.425   9.038 -2.2010  0.7410  0.3723
  156MOL0     H21472   1.177   6.440   8.865 -2.5291 -0.2926  0.9409
  156MOL0     H21473   1.278   6.596   9.110 -1.7268 -1.0053  0.5891
  156MOL0     H21474   1.301   6.653   8.946 -1.3403  1.6359  1.6628
  156MOL0     H21475   1.411   6.376   9.013 -2.0188  0.5865 -0.7666
  156MOL0     H21476   1.446   6.484   8.883  0.8048  1.2626  0.2566
  156MOL0     H21477   1.577   6.708   8.892  0.4139 -1.6343 -0.6005
  156MOL0     H21478   1.787   6.869   9.178 -1.9228  3.0864 -0.0667
  156MOL0     H21479   1.720   6.890   9.013  3.0858 -0.5687 -3.4544
  156MOL0     H21480   1.980   6.836   9.077  0.6891  0.2346 -0.5740
  156MOL0     H21481   1.929   6.679   9.030  0.3175  0.5513  0.1037
  156MOL0     H21482   1.850   6.768   8.812 -0.5405  0.0269 -0.7586
  156MOL0     H21483   1.889   6.942   8.857  0.9568  1.0158  0.6277
  156MOL0     H21484   2.104   6.750   8.880 -3.7309 -0.7396  3.0259
  156MOL0     H21485   2.047   6.789   8.714  1.3233 -1.3997  0.4834
  156MOL0     H21486   2.312   6.756   8.753  2.0009  0.4336 -4.6989
  156MOL0     H21487   2.605   6.742   8.646  0.6429  1.3584 -0.1892
  156MOL0     H21488   2.503   6.656   8.755 -2.5280  2.2052 -4.4401
  156MOL0     H21489   2.649   6.730   8.819 -0.2668 -2.9765  0.3276
  156MOL0     H21490   2.964   7.077   8.676  2.4743  0.6271 -0.5136
  156MOL0     H21491   3.184   7.167   8.740  0.0318 -1.8107  0.6791
  156MOL0     H21492   3.257   7.206   9.017  0.7270 -1.1021  0.0884
  156MOL0     H21493   3.367   7.239   8.888 -1.7539 -3.3374 -0.0184
  156MOL0     H21494   3.365   7.412   9.145 -0.2373 -0.4055 -0.5889
  156MOL0     H21495   3.449   7.256   9.125 -0.6902 -0.4557  2.0744
  156MOL0     H21496   3.485   7.478   8.915 -0.6738  0.2701  0.2062
  156MOL0     H21497   3.582   7.332   8.947 -0.5783  1.8390 -3.4326
  156MOL0     H21498   3.600   7.445   9.180 -1.9406  1.1143  0.0413
  156MOL0     H21499   3.558   7.590   9.088  1.2931  1.4940  0.0182
  156MOL0     H21500   3.796   7.395   9.024 -1.0159 -0.3747  0.3578
  156MOL0     H21501   3.763   7.536   8.929  0.9664 -2.0635 -0.6390
  156MOL0     H21502   3.823   7.550   9.223  1.2281  0.4766 -0.3403
  156MOL0     H21503   3.851   7.678   9.109  4.7629  1.2430  5.4865
  156MOL0     H21504   4.040   7.543   9.011 -1.1307 -0.8973 -1.1378
  156MOL0     H21505   3.992   7.402   9.121 -0.1763 -0.0070  1.1441
  156MOL0     H21506   4.187   7.541   9.199  1.0272  1.5387  1.2776
  156MOL0     H21507   4.047   7.520   9.310 -1.7604  1.0132 -1.4941
  156MOL0     H21508   2.988   7.456   8.990 -0.0873 -1.2168  1.5002
  156MOL0     H21509   2.772   7.371   8.927 -0.5596 -2.8064  1.8542
  156MOL0     H21510   2.495   7.195   8.836  1.2855 -1.8423 -0.8217
  156MOL0     H21511   2.270   7.174   8.824  0.2472 -1.0110 -0.4596
  156MOL0     H21512   0.309   6.717   8.999 -0.9692 -0.8742 -0.7939
  156MOL0     H21513   0.106   6.867   8.995 -3.1930  0.4688 -3.4000
  156MOL0     H21514  -0.099   7.179   8.697 -0.6921  0.3710 -0.9326
  156MOL0     H21515  -0.315   7.254   8.654 -2.0579  0.8018  1.5995
  156MOL0     H21516  -0.578   7.285   8.913  2.0339  0.5665 -0.1829
  156MOL0     H21517  -0.559   7.442   8.987  4.1627  1.4856 -0.6806
  156MOL0     H21518  -0.684   7.537   8.781 -1.7562  0.2576 -0.2614
  156MOL0     H21519  -0.776   7.420   8.880  1.6523 -2.6551  1.0823
  156MOL0     H21520  -0.628   7.322   8.625  1.0455 -0.4240  2.7601
  156MOL0     H21521  -0.725   7.234   8.735  0.0416  0.0730 -0.0708
  156MOL0     H21522  -0.935   7.370   8.648 -1.2385  0.9735 -2.6107
  156MOL0     H21523  -0.843   7.276   8.536  0.6216 -0.2108  0.3061
  156MOL0     H21524  -0.744   7.661   8.396  0.3504  0.3718  1.3402
  156MOL0     H21525  -0.348   7.404   9.051 -0.2067 -0.1581 -0.0208
  156MOL0     H21526  -0.212   7.340   9.228 -0.9386 -1.1851  0.4769
  156MOL0     H21527  -0.119   7.197   9.213  1.6626 -0.9114 -1.8263
  156MOL0     H21528  -0.039   7.348   9.164  0.5868 -1.0471  0.7831
  157MOL0     O21529   7.922   3.253   5.946  0.2201  0.1258  0.2524
  157MOL0     C21530   7.922   3.347   5.871 -0.3395 -1.0876 -0.3554
  157MOL0     O21531   8.031   3.437   5.866 -0.8517 -0.2553  0.0753
  157MOL0     C21532   8.108   3.441   5.985 -0.1286  0.9541  0.3813
  157MOL0     C21533   8.188   3.332   6.026  0.3539  0.3295  0.4683
  157MOL0     C21534   8.270   3.346   6.139  0.9851 -0.1462  0.1203
  157MOL0     C21535   8.268   3.467   6.211 -1.3603 -0.3720  0.7977
  157MOL0     O21536   8.343   3.470   6.327  0.5058 -1.0853  0.2093
  157MOL0     C21537   8.425   3.587   6.361  0.0796  0.7420  0.8407
  157MOL0     C21538   8.501   3.641   6.236 -1.4625  0.0915  0.0708
  157MOL0     C21539   8.631   3.709   6.291  0.4913  0.2187  0.7104
  157MOL0     C21540   8.704   3.778   6.177  0.4640  0.6289 -1.0062
  157MOL0     C21541   8.851   3.808   6.210  0.2881  0.1531 -0.5789
  157MOL0     C21542   8.874   3.894   6.337  0.7477 -0.3436  0.0879
  157MOL0     C21543   9.013   3.922   6.376  0.6700 -0.5151  0.3893
  157MOL0     C21544   9.104   3.982   6.274  0.7492  0.4759  0.2930
  157MOL0     N21545   9.227   4.039   6.330  0.9331 -0.0694  0.4045
  157MOL0     C21546   9.335   3.971   6.379  0.2814 -0.2757 -0.4423
  157MOL0     C21547   9.396   4.056   6.467  0.6697  0.7554  0.6078
  157MOL0     C21548   9.526   4.036   6.557  0.2061  0.2321  0.4707
  157MOL0     C21549   9.507   3.955   6.686 -0.2487  0.3127  0.5997
  157MOL0     C21550   9.590   4.002   6.810  0.0247 -0.2376 -0.3760
  157MOL0     C21551   9.739   4.003   6.772  0.0859  0.2812  0.1599
  157MOL0     O21552   9.790   3.882   6.711  0.4443 -0.3047 -0.3005
  157MOL0     C21553   9.898   3.899   6.629  0.0035  0.2153  0.1904
  157MOL0     C21554   9.924   3.787   6.540 -0.2558 -0.3830  0.3879
  157MOL0     C21555  10.039   3.793   6.452 -0.0061  0.2996  0.2120
  157MOL0     C21556  10.056   3.665   6.362  0.3116 -0.1946 -0.1044
  157MOL0     C21557  10.123   3.903   6.452 -0.8279 -0.8831  0.0393
  157MOL0     C21558  10.245   3.918   6.365  0.7154 -0.3456  0.0589
  157MOL0     O21559  10.334   4.012   6.407 -0.6375  0.6448  0.1218
  157MOL0     C21560  10.445   4.031   6.322 -0.6700  0.1489 -0.1250
  157MOL0     C21561  10.567   3.987   6.364  0.8096 -0.8842  0.0719
  157MOL0     C21562  10.678   4.011   6.294  0.8305 -0.1063 -1.1581
  157MOL0     C21563  10.664   4.063   6.163 -0.2418 -0.4046 -0.2303
  157MOL0     O21564  10.782   4.088   6.087  0.4994  0.1266  0.0864
  157MOL0     C21565  10.904   4.015   6.114  0.1716 -0.1133 -0.1318
  157MOL0     C21566  10.966   3.988   5.969  0.0830 -0.4431  0.2067
  157MOL0     C21567  11.114   3.943   5.986  0.8946 -0.7204 -0.1039
  157MOL0     C21568  11.183   3.981   5.862 -0.5635 -0.1791 -0.3162
  157MOL0     C21569  11.321   3.920   5.855 -0.1033  0.8010  0.3990
  157MOL0     C21570  11.378   3.929   5.717 -0.4087  0.0444  0.2309
  157MOL0     C21571  11.533   3.889   5.714  0.2359  0.0259 -0.0629
  157MOL0     C21572  11.618   4.009   5.761  0.1144 -0.9040 -0.1089
  157MOL0    Cl21573  11.588   4.154   5.646  0.3668  0.2419  0.2220
  157MOL0     C21574  10.538   4.108   6.114 -0.1357  0.2330  0.4013
  157MOL0     C21575  10.433   4.100   6.198  0.3657 -0.6111 -0.1276
  157MOL0     O21576  10.247   3.852   6.263  0.1683 -0.9095  0.6522
  157MOL0     C21577  10.099   4.006   6.540  0.1515  0.0872  0.6991
  157MOL0     C21578   9.997   4.002   6.640  0.0241 -0.0693 -0.2678
  157MOL0     N21579   9.336   4.175   6.455 -0.2697  0.0305  0.2367
  157MOL0     N21580   9.236   4.164   6.377  0.3612  0.5923  0.1915
  157MOL0     C21581   8.187   3.574   6.172 -0.3851  0.0790  0.8105
  157MOL0     C21582   8.104   3.560   6.059 -1.0771 -0.1101  0.8863
  157MOL0     C21583   7.815   3.369   5.774  0.2371  0.6098  0.2013
  157MOL0     C21584   7.838   3.456   5.668  0.2732  0.9592 -0.8774
  157MOL0     C21585   7.739   3.503   5.586  1.1449  0.4376  0.3959
  157MOL0     C21586   7.607   3.465   5.611 -0.2341  0.5339  0.7130
  157MOL0     O21587   7.522   3.519   5.517 -0.0758  0.1972 -0.4549
  157MOL0     C21588   7.383   3.508   5.551  0.1812 -0.0361  0.2766
  157MOL0     C21589   7.279   3.567   5.452  0.2371  0.1968  0.6563
  157MOL0     C21590   7.289   3.479   5.324 -0.7301  0.0819  0.3910
  157MOL0     C21591   7.194   3.528   5.207 -0.1671 -0.0474 -0.0802
  157MOL0     C21592   7.048   3.528   5.238 -0.6794 -0.3962  0.2243
  157MOL0     C21593   6.936   3.549   5.281  0.6050  0.9454 -0.3666
  157MOL0     C21594   7.576   3.378   5.715 -0.2862 -0.1541  0.9474
  157MOL0     C21595   7.682   3.329   5.794  0.3203  0.3287  0.0130
  157MOL0     C21596   7.630   3.226   5.892 -0.4568 -0.5575 -0.5691
  157MOL0     H21597   8.183   3.242   5.966 -4.8637 -0.1089  1.0664
  157MOL0     H21598   8.336   3.264   6.167 -0.4751 -0.4336  3.1566
  157MOL0     H21599   8.498   3.564   6.440 -2.3482 -0.6247  2.8641
  157MOL0     H21600   8.355   3.662   6.399  0.8339  1.3711  1.0327
  157MOL0     H21601   8.531   3.562   6.166 -1.9239  0.7889 -0.9222
  157MOL0     H21602   8.445   3.709   6.172  1.4821  1.5959 -1.1237
  157MOL0     H21603   8.605   3.778   6.371 -0.9042  0.8139 -0.2316
  157MOL0     H21604   8.692   3.624   6.325  1.6891 -0.2220 -2.2631
  157MOL0     H21605   8.706   3.722   6.083 -0.9618 -2.5222  0.6785
  157MOL0     H21606   8.646   3.871   6.168 -1.8061 -0.3738  1.6561
  157MOL0     H21607   8.890   3.860   6.122  3.7185 -1.2418 -0.0522
  157MOL0     H21608   8.899   3.712   6.230 -2.1208 -0.4149  3.9433
  157MOL0     H21609   8.818   3.988   6.326  3.2621  1.2316  0.1623
  157MOL0     H21610   8.835   3.827   6.415  0.4032 -1.3228 -0.9023
  157MOL0     H21611   9.070   3.831   6.399  3.3634  0.2932 -2.3686
  157MOL0     H21612   9.014   3.981   6.468  1.5944 -0.4341  0.3392
  157MOL0     H21613   9.145   3.913   6.198  0.6308  0.4288  0.2724
  157MOL0     H21614   9.055   4.064   6.221 -2.1177 -1.6225 -0.5271
  157MOL0     H21615   9.358   3.865   6.372  0.2952 -0.2119 -1.6296
  157MOL0     H21616   9.552   4.141   6.574  1.0596 -0.2208  2.1349
  157MOL0     H21617   9.605   3.993   6.495 -0.5419  1.3453 -1.3330
  157MOL0     H21618   9.399   3.946   6.707 -0.4682  2.2326  0.4535
  157MOL0     H21619   9.543   3.853   6.672 -0.9516  0.4023 -2.4739
  157MOL0     H21620   9.546   4.096   6.844 -0.5812 -1.1103  1.3564
  157MOL0     H21621   9.590   3.930   6.892  1.2457  0.1234 -0.0446
  157MOL0     H21622   9.761   4.090   6.709  0.1608  0.9655  1.1027
  157MOL0     H21623   9.790   4.015   6.868  0.5514 -0.1721 -0.0225
  157MOL0     H21624   9.860   3.700   6.530 -2.4586  1.4314 -3.1857
  157MOL0     H21625  10.155   3.622   6.377  0.2792  0.5173  2.6860
  157MOL0     H21626  10.055   3.700   6.259  1.2869 -0.4460 -0.2102
  157MOL0     H21627   9.973   3.594   6.369  0.3347 -0.3532 -1.2995
  157MOL0     H21628  10.576   3.947   6.464  0.5842 -3.0169 -0.7050
  157MOL0     H21629  10.776   3.987   6.335  1.0732 -0.5709 -1.9887
  157MOL0     H21630  10.976   4.065   6.178 -2.2084  1.3483  1.5762
  157MOL0     H21631  10.870   3.922   6.160  0.0235 -0.4801 -0.9569
  157MOL0     H21632  10.910   3.913   5.912 -1.1243 -0.7270  1.6925
  157MOL0     H21633  10.959   4.081   5.912  1.6143  0.4930  1.4734
  157MOL0     H21634  11.110   3.834   5.991 -1.4316 -0.7325 -0.7077
  157MOL0     H21635  11.159   3.993   6.073 -1.8136  0.9891  0.4535
  157MOL0     H21636  11.192   4.089   5.858 -1.7806 -0.0691 -0.7298
  157MOL0     H21637  11.124   3.951   5.774 -0.5646 -3.8710  0.7381
  157MOL0     H21638  11.394   3.963   5.924  0.7687 -2.4040  1.6561
  157MOL0     H21639  11.308   3.814   5.879  4.8657  0.6031  3.7104
  157MOL0     H21640  11.352   4.030   5.685 -0.3976 -0.1849 -0.5364
  157MOL0     H21641  11.332   3.857   5.648 -0.3729  0.6370 -0.4304
  157MOL0     H21642  11.572   3.862   5.615 -0.4548 -5.6847  0.8544
  157MOL0     H21643  11.539   3.803   5.781 -0.6179 -0.0272 -0.0486
  157MOL0     H21644  11.724   3.982   5.767  0.4015 -0.8635 -3.1381
  157MOL0     H21645  11.579   4.040   5.858  2.0943  1.1442  0.1076
  157MOL0     H21646  10.538   4.142   6.011 -2.8578  1.3692  0.6924
  157MOL0     H21647  10.341   4.148   6.165 -0.2386  0.3934  2.7118
  157MOL0     H21648  10.156   4.098   6.538 -2.2505  1.7060 -1.7922
  157MOL0     H21649   9.988   4.081   6.714 -0.4024  0.6869 -1.1078
  157MOL0     H21650   8.176   3.667   6.226 -4.1903  0.5163 -0.3684
  157MOL0     H21651   8.030   3.638   6.044 -0.9119  0.0102  0.6734
  157MOL0     H21652   7.937   3.498   5.653  1.3707  0.5828  3.8626
  157MOL0     H21653   7.764   3.553   5.492 -0.2986 -1.6377 -1.1822
  157MOL0     H21654   7.353   3.408   5.580  1.1734  0.2190  2.3642
  157MOL0     H21655   7.369   3.563   5.644  2.7897 -2.2200  2.1225
  157MOL0     H21656   7.289   3.674   5.431 -1.2841  0.1093 -0.7500
  157MOL0     H21657   7.179   3.552   5.493  0.1410 -0.5925  0.1611
  157MOL0     H21658   7.395   3.472   5.300 -0.6452 -0.1383  0.8191
  157MOL0     H21659   7.250   3.380   5.347  1.4414 -0.2342  3.1314
  157MOL0     H21660   7.209   3.466   5.118 -1.0353 -0.2827 -0.0722
  157MOL0     H21661   7.222   3.630   5.180 -1.7227  0.5780  0.5401
  157MOL0     H21662   6.835   3.563   5.314 -0.6090 -4.4495 -0.8812
  157MOL0     H21663   7.476   3.341   5.737 -0.2524 -1.0799 -0.3802
  157MOL0     H21664   7.526   3.245   5.918 -0.2391  2.9095 -1.7181
  157MOL0     H21665   7.638   3.124   5.853 -0.0499 -1.2126  1.1399
  157MOL0     H21666   7.689   3.225   5.984 -0.4874 -0.5651 -0.5496
  158MOL0     O21667   1.005   9.436   6.138  0.1555 -0.2194 -0.5035
  158MOL0     C21668   0.926   9.344   6.138 -0.4661  0.5955  0.0434
  158MOL0     O21669   0.959   9.218   6.184  0.4763  0.0676 -0.0920
  158MOL0     C21670   1.087   9.193   6.227  0.0901 -0.6040 -0.6583
  158MOL0     C21671   1.102   9.114   6.346  0.9314  0.2524  0.9766
  158MOL0     C21672   1.230   9.080   6.389  0.1431 -0.5748  0.0643
  158MOL0     C21673   1.347   9.130   6.326  0.8616  0.1554  0.1420
  158MOL0     O21674   1.473   9.107   6.384  0.0153 -0.2963  0.1072
  158MOL0     C21675   1.599   9.099   6.304  1.4793  0.1999 -0.1449
  158MOL0     C21676   1.696   9.037   6.411  0.0525  0.1492  0.5089
  158MOL0     C21677   1.835   9.038   6.359 -0.6032  0.6754 -0.6980
  158MOL0     C21678   1.931   8.977   6.466  0.1036  0.2201  0.8676
  158MOL0     C21679   2.069   8.969   6.406 -0.3117  0.1671 -0.6222
  158MOL0     C21680   2.154   8.887   6.499  0.0101  0.1230 -0.7319
  158MOL0     C21681   2.289   8.864   6.431  0.2620 -0.1994  0.3446
  158MOL0     C21682   2.373   8.782   6.523 -0.1680 -0.4168  0.3909
  158MOL0     N21683   2.502   8.759   6.458  0.0174 -0.0443 -0.0680
  158MOL0     C21684   2.537   8.724   6.329 -0.6557 -0.0711 -0.4866
  158MOL0     C21685   2.668   8.703   6.326 -0.0042  0.3184 -0.1165
  158MOL0     C21686   2.754   8.677   6.209 -0.1229 -0.4917 -0.1015
  158MOL0     C21687   2.714   8.546   6.136  0.6005 -0.0769  1.1922
  158MOL0     C21688   2.752   8.541   5.990 -0.1338 -0.1706 -0.0376
  158MOL0     C21689   2.883   8.610   5.950 -0.1586 -0.4604 -0.4178
  158MOL0     O21690   2.985   8.559   6.034 -0.2437 -0.2613  0.0048
  158MOL0     C21691   3.116   8.607   6.039 -0.8256 -0.4580 -0.7234
  158MOL0     C21692   3.154   8.730   5.977 -0.7499  0.2869  0.1968
  158MOL0     C21693   3.284   8.782   5.996 -0.9995  0.4503  0.2682
  158MOL0     C21694   3.327   8.914   5.929  0.2279 -0.0399  0.4305
  158MOL0     C21695   3.374   8.701   6.083  0.2365  0.5366 -0.0470
  158MOL0     C21696   3.518   8.732   6.104 -0.2786 -0.2615  0.6944
  158MOL0     O21697   3.588   8.639   6.173 -0.4086 -0.1374  0.9150
  158MOL0     C21698   3.727   8.661   6.187 -0.1364  0.2353  0.1862
  158MOL0     C21699   3.822   8.565   6.132  0.0510  0.7034  0.2923
  158MOL0     C21700   3.958   8.567   6.163 -0.0810 -0.6401 -0.0143
  158MOL0     C21701   4.015   8.680   6.220  0.0401 -0.1814 -0.0596
  158MOL0     O21702   4.150   8.704   6.234  0.3133 -0.5904  0.0659
  158MOL0     C21703   4.234   8.588   6.219 -0.4985 -0.1870  0.0890
  158MOL0     C21704   4.376   8.619   6.258  0.3394  0.5512 -0.5113
  158MOL0     C21705   4.388   8.656   6.413 -0.6848 -0.3645  0.2987
  158MOL0     C21706   4.495   8.569   6.483  0.1367 -0.9028  0.0214
  158MOL0     C21707   4.630   8.566   6.424 -0.9752  0.1673 -0.1332
  158MOL0     C21708   4.741   8.508   6.516  0.4413 -0.2668 -0.1202
  158MOL0     C21709   4.725   8.350   6.535  0.0119 -0.9285  0.0615
  158MOL0     C21710   4.866   8.275   6.549  0.1896 -0.2441  0.4184
  158MOL0    Cl21711   4.847   8.092   6.574  0.2960 -0.2237  0.0543
  158MOL0     C21712   3.927   8.779   6.271 -0.4031 -0.3837  0.0464
  158MOL0     C21713   3.783   8.768   6.254 -0.3065 -0.0676 -0.1244
  158MOL0     O21714   3.564   8.839   6.057 -0.1568 -0.6743 -0.7774
  158MOL0     C21715   3.325   8.586   6.152 -0.1518 -0.1503  0.3656
  158MOL0     C21716   3.194   8.542   6.134 -0.1776  0.1247  0.0963
  158MOL0     N21717   2.714   8.715   6.449  0.1944 -0.5033 -0.4855
  158MOL0     N21718   2.622   8.751   6.527  0.2262  0.2288 -0.6167
  158MOL0     C21719   1.332   9.202   6.204 -0.0568  0.0740 -0.0781
  158MOL0     C21720   1.202   9.227   6.156 -0.4030 -0.9856 -0.6211
  158MOL0     C21721   0.790   9.367   6.092  0.5444 -0.4471  0.4191
  158MOL0     C21722   0.697   9.264   6.116 -0.0912  0.0530  0.1742
  158MOL0     C21723   0.556   9.285   6.090 -0.8038  0.5195 -0.3164
  158MOL0     C21724   0.508   9.400   6.037  0.6187 -0.4083 -0.2685
  158MOL0     O21725   0.374   9.440   6.009 -0.2326  0.2266  0.1824
  158MOL0     C21726   0.268   9.338   6.018  1.3871 -0.3227 -0.6041
  158MOL0     C21727   0.142   9.355   5.920 -0.2208 -0.5351  0.0462
  158MOL0     C21728   0.085   9.493   5.917  0.3466 -0.6544 -0.0851
  158MOL0     C21729   0.013   9.529   6.046  0.3723  0.3950  0.1728
  158MOL0     C21730  -0.124   9.487   6.020 -0.8854 -0.3545  0.2286
  158MOL0     C21731  -0.235   9.446   6.001  0.5489 -0.0942 -0.0377
  158MOL0     C21732   0.602   9.500   5.997 -0.0375 -0.0621  0.1185
  158MOL0     C21733   0.735   9.491   6.031 -0.5003 -0.0352  0.2170
  158MOL0     C21734   0.806   9.610   5.996  0.3026 -0.2652 -0.3891
  158MOL0     H21735   1.012   9.097   6.405 -0.2487  0.3227 -0.7237
  158MOL0     H21736   1.241   9.023   6.481 -0.1944 -0.6188  0.0772
  158MOL0     H21737   1.634   9.201   6.286  0.3317  0.2658 -2.4239
  158MOL0     H21738   1.581   9.041   6.213  1.3065  0.4251 -0.2571
  158MOL0     H21739   1.699   9.095   6.504 -1.0300  0.0209  0.6313
  158MOL0     H21740   1.671   8.932   6.433  0.3160 -0.4605 -1.8386
  158MOL0     H21741   1.845   8.969   6.275  1.4684  0.2255 -0.1459
  158MOL0     H21742   1.867   9.141   6.340  1.7208 -0.1683 -1.7326
  158MOL0     H21743   1.939   9.039   6.556  0.1717 -0.8880  1.6488
  158MOL0     H21744   1.890   8.877   6.487 -1.6192  0.1381 -2.2994
  158MOL0     H21745   2.101   9.073   6.396 -0.3809  0.1853 -0.6628
  158MOL0     H21746   2.067   8.929   6.304 -1.8808  3.6497 -2.1436
  158MOL0     H21747   2.168   8.934   6.597 -2.2504 -2.1435  0.8160
  158MOL0     H21748   2.114   8.786   6.512 -0.9809  0.4038 -1.4440
  158MOL0     H21749   2.345   8.957   6.423  0.3621 -0.3533 -0.9709
  158MOL0     H21750   2.283   8.819   6.331 -2.2703  1.4696 -0.3606
  158MOL0     H21751   2.400   8.842   6.611 -0.0226 -0.2012  0.2004
  158MOL0     H21752   2.322   8.687   6.538  1.2123 -1.1666  0.4586
  158MOL0     H21753   2.468   8.719   6.245  0.3495 -1.5673 -1.2629
  158MOL0     H21754   2.861   8.676   6.235  0.4913 -1.3657 -2.4449
  158MOL0     H21755   2.729   8.761   6.144 -1.2340  0.9792  2.0881
  158MOL0     H21756   2.765   8.463   6.186 -1.8963 -1.9156  0.8518
  158MOL0     H21757   2.606   8.533   6.140  0.6454 -0.5467  0.9232
  158MOL0     H21758   2.767   8.438   5.958 -1.4353  0.3927 -2.7752
  158MOL0     H21759   2.669   8.584   5.932  0.2236  0.1587 -0.3102
  158MOL0     H21760   2.912   8.576   5.850  2.1206 -2.5564  0.8454
  158MOL0     H21761   2.878   8.719   5.954 -1.9834 -0.5604  1.6939
  158MOL0     H21762   3.081   8.782   5.917  0.1976  3.0699  1.2926
  158MOL0     H21763   3.253   8.942   5.854 -0.7836 -1.1401  0.9815
  158MOL0     H21764   3.424   8.889   5.883 -0.0314 -1.5833  0.6705
  158MOL0     H21765   3.346   9.003   5.990 -0.7511 -0.6579  1.6902
  158MOL0     H21766   3.779   8.490   6.066  1.0754  0.7338 -0.4416
  158MOL0     H21767   4.017   8.486   6.120 -0.0037 -0.1937 -0.7754
  158MOL0     H21768   4.198   8.500   6.273 -0.2526 -1.4848 -1.7529
  158MOL0     H21769   4.245   8.570   6.111  2.2738 -0.9601  0.4209
  158MOL0     H21770   4.429   8.525   6.238  1.9889  1.5546 -1.0715
  158MOL0     H21771   4.421   8.694   6.193  0.1408  1.2440  0.1386
  158MOL0     H21772   4.289   8.633   6.453 -1.3401  2.0724  0.2268
  158MOL0     H21773   4.412   8.761   6.434 -2.1553 -0.4113  2.5731
  158MOL0     H21774   4.463   8.465   6.491  1.1058 -1.2711 -0.6571
  158MOL0     H21775   4.509   8.595   6.588  0.0455 -1.1767  0.1027
  158MOL0     H21776   4.630   8.518   6.326 -1.3059 -0.5837  0.2289
  158MOL0     H21777   4.665   8.669   6.412 -1.0261  0.5228  2.3096
  158MOL0     H21778   4.730   8.552   6.616 -3.3563 -1.8160  0.3118
  158MOL0     H21779   4.844   8.538   6.496  0.1324  1.5143  0.7376
  158MOL0     H21780   4.665   8.296   6.461 -0.3079  0.1773 -0.5128
  158MOL0     H21781   4.667   8.330   6.625  1.0195  1.2938  1.2654
  158MOL0     H21782   4.922   8.317   6.633  0.3677  3.1798 -1.2300
  158MOL0     H21783   4.925   8.301   6.461  1.1369  1.4738  1.5185
  158MOL0     H21784   3.963   8.869   6.320  1.5172 -0.7307 -0.6616
  158MOL0     H21785   3.723   8.851   6.292  1.1920  0.8532  0.2881
  158MOL0     H21786   3.388   8.521   6.212  0.0686 -0.5814 -0.3110
  158MOL0     H21787   3.151   8.466   6.198  1.1933 -1.3100 -0.6008
  158MOL0     H21788   1.418   9.245   6.153  1.6099  1.4788  3.5212
  158MOL0     H21789   1.194   9.272   6.058 -0.0517 -0.2544 -0.3204
  158MOL0     H21790   0.731   9.177   6.172 -0.3441 -1.5290 -2.0142
  158MOL0     H21791   0.483   9.214   6.128 -2.3390  1.5732 -1.2206
  158MOL0     H21792   0.312   9.239   6.007 -1.7500 -2.0527  1.0151
  158MOL0     H21793   0.227   9.347   6.119 -1.2112 -0.5904 -1.5442
  158MOL0     H21794   0.072   9.275   5.948  0.3940 -0.4209  2.0790
  158MOL0     H21795   0.183   9.338   5.820 -0.2597 -0.1292 -0.0391
  158MOL0     H21796   0.171   9.557   5.896  0.1949 -0.5423 -0.3781
  158MOL0     H21797   0.016   9.502   5.832 -0.3785 -0.7739  0.4863
  158MOL0     H21798   0.009   9.636   6.066 -0.4829  0.4306 -0.1368
  158MOL0     H21799   0.049   9.475   6.135 -0.1254 -1.0683 -0.4870
  158MOL0     H21800  -0.330   9.396   5.995  0.4782 -0.5774  3.0872
  158MOL0     H21801   0.570   9.597   5.958 -0.9513  0.2829  1.6463
  158MOL0     H21802   0.842   9.679   6.073  0.1172  1.5220 -1.8386
  158MOL0     H21803   0.896   9.570   5.949  0.5010 -4.4060  2.9158
  158MOL0     H21804   0.753   9.671   5.923 -1.8533 -5.1472 -3.3831
  159MOL0     O21805   6.914   1.646   9.660 -0.3483 -0.3123  0.3762
  159MOL0     C21806   6.860   1.554   9.601 -0.0204 -0.5331 -0.3403
  159MOL0     O21807   6.922   1.443   9.555 -0.4174  0.4512 -0.0426
  159MOL0     C21808   7.048   1.400   9.589  0.4857 -0.2129 -0.4823
  159MOL0     C21809   7.161   1.490   9.598 -0.6734 -0.3988 -0.3896
  159MOL0     C21810   7.294   1.439   9.631  0.4929  0.4143  0.2808
  159MOL0     C21811   7.315   1.303   9.658 -0.2124 -0.5471 -0.2637
  159MOL0     O21812   7.436   1.250   9.695 -0.8206  0.4092 -0.1771
  159MOL0     C21813   7.552   1.310   9.643 -0.0064  0.0108 -0.2195
  159MOL0     C21814   7.633   1.218   9.556  0.2444  0.8060  0.1364
  159MOL0     C21815   7.752   1.301   9.496  0.0620  0.4184  0.1045
  159MOL0     C21816   7.872   1.218   9.459 -0.0155 -0.1739 -0.5346
  159MOL0     C21817   7.958   1.171   9.576 -0.1672  0.0006 -0.0794
  159MOL0     C21818   8.091   1.128   9.526 -0.4967  1.2725  0.3053
  159MOL0     C21819   8.163   1.048   9.640  0.4057 -0.4063  0.3589
  159MOL0     C21820   8.280   0.966   9.577  0.0609 -1.4542  0.1097
  159MOL0     N21821   8.349   1.037   9.469 -0.1597 -0.8704 -0.4660
  159MOL0     C21822   8.378   0.994   9.345  0.4066 -0.2990 -0.6012
  159MOL0     C21823   8.452   1.097   9.290 -0.7209 -0.1524  0.3869
  159MOL0     C21824   8.498   1.106   9.152  0.2860 -0.6665 -0.8904
  159MOL0     C21825   8.466   1.240   9.097  0.4386 -0.1213 -0.0044
  159MOL0     C21826   8.502   1.239   8.950  0.4497 -0.3620 -0.6771
  159MOL0     C21827   8.416   1.345   8.877  0.4055  0.8727  0.0225
  159MOL0     O21828   8.444   1.347   8.735 -0.1499 -0.7516  0.1322
  159MOL0     C21829   8.556   1.422   8.707 -0.0489 -0.4707 -0.6117
  159MOL0     C21830   8.566   1.562   8.693 -0.7635 -0.3314  0.5567
  159MOL0     C21831   8.682   1.621   8.634 -0.0547  0.9606 -0.3270
  159MOL0     C21832   8.691   1.768   8.647  0.5359  0.2263  0.5951
  159MOL0     C21833   8.792   1.542   8.588  0.2198  0.6078  0.2770
  159MOL0     C21834   8.909   1.592   8.510  0.1691 -0.4097 -0.2019
  159MOL0     O21835   9.028   1.526   8.530  0.3342 -0.1346  0.3390
  159MOL0     C21836   9.138   1.568   8.460  0.1264 -0.1827 -0.5623
  159MOL0     C21837   9.220   1.476   8.398  0.4012  0.5719 -0.4226
  159MOL0     C21838   9.343   1.518   8.335  0.2713  0.1072 -0.6679
  159MOL0     C21839   9.387   1.647   8.335 -0.5819 -0.6153  0.4503
  159MOL0     O21840   9.515   1.681   8.276  0.4715 -0.1444  0.2752
  159MOL0     C21841   9.512   1.805   8.199  0.2094  0.2933  0.6589
  159MOL0     C21842   9.608   1.905   8.259 -0.0723  0.4459  0.0134
  159MOL0     C21843   9.538   1.970   8.374  0.6238  0.1223 -0.1841
  159MOL0     C21844   9.643   2.072   8.420  0.2557 -0.1010  0.4645
  159MOL0     C21845   9.585   2.170   8.526 -0.2250  0.0824 -0.4730
  159MOL0     C21846   9.464   2.266   8.480  0.0286  0.5851  0.4094
  159MOL0     C21847   9.417   2.357   8.593  0.1082 -1.3116  0.2680
  159MOL0     C21848   9.290   2.427   8.550 -0.5824  0.3275 -0.6543
  159MOL0    Cl21849   9.340   2.539   8.424  0.0657 -0.1494 -0.1562
  159MOL0     C21850   9.294   1.742   8.393  0.2529 -1.2342 -0.0206
  159MOL0     C21851   9.172   1.706   8.444 -0.1999  0.5294  0.3042
  159MOL0     O21852   8.887   1.683   8.424 -0.1123  0.0005  0.1561
  159MOL0     C21853   8.776   1.403   8.616 -0.4938 -0.3373 -0.3224
  159MOL0     C21854   8.658   1.344   8.664  0.3426  0.3229 -0.9494
  159MOL0     N21855   8.468   1.195   9.383 -0.0337  0.2444 -0.5881
  159MOL0     N21856   8.410   1.162   9.496 -0.0650  0.1212  0.2160
  159MOL0     C21857   7.205   1.216   9.650  0.7505 -0.8541 -0.5869
  159MOL0     C21858   7.074   1.268   9.612 -0.3061  0.4103  0.0369
  159MOL0     C21859   6.711   1.572   9.596  0.3081  0.5695 -0.7359
  159MOL0     C21860   6.639   1.456   9.549  0.8048 -0.9551 -0.1226
  159MOL0     C21861   6.499   1.446   9.562  0.4421 -0.5350 -0.9689
  159MOL0     C21862   6.423   1.555   9.595  0.1426 -0.0597  0.6380
  159MOL0     O21863   6.286   1.556   9.604  0.1296  0.4098  0.6240
  159MOL0     C21864   6.215   1.516   9.482 -0.1638  1.2145  0.2195
  159MOL0     C21865   6.147   1.385   9.497  0.3925 -1.3662 -0.1389
  159MOL0     C21866   6.026   1.383   9.595  0.7356 -0.6619  0.3207
  159MOL0     C21867   5.895   1.424   9.538 -0.0603 -0.3481 -0.3853
  159MOL0     C21868   5.885   1.562   9.495  1.0776 -0.5178 -0.1377
  159MOL0     C21869   5.882   1.683   9.463 -0.4967 -1.2998 -0.6724
  159MOL0     C21870   6.486   1.670   9.640  0.0954  0.3078  0.6546
  159MOL0     C21871   6.630   1.680   9.640 -0.1004 -0.2173  0.3135
  159MOL0     C21872   6.682   1.802   9.698 -0.4099 -0.6807  0.0960
  159MOL0     H21873   7.146   1.595   9.576 -0.6851  0.0018  1.3546
  159MOL0     H21874   7.367   1.518   9.645  0.2478  1.1038 -1.9941
  159MOL0     H21875   7.611   1.343   9.729  1.0394 -0.8808 -0.5642
  159MOL0     H21876   7.532   1.399   9.582 -0.5238 -0.7509 -1.2084
  159MOL0     H21877   7.680   1.140   9.616  1.1822  0.6227 -0.8083
  159MOL0     H21878   7.563   1.175   9.484  1.7123 -2.4327  0.4447
  159MOL0     H21879   7.711   1.348   9.406 -2.2373 -0.1321  0.7852
  159MOL0     H21880   7.793   1.379   9.561 -0.0798  3.8825 -3.6155
  159MOL0     H21881   7.846   1.129   9.400  2.8252 -1.1237 -0.5249
  159MOL0     H21882   7.935   1.275   9.390  1.1523 -2.4721 -1.5010
  159MOL0     H21883   7.903   1.091   9.628 -0.4659  0.1249 -0.2035
  159MOL0     H21884   7.970   1.256   9.643  3.3287  0.1760 -0.7072
  159MOL0     H21885   8.079   1.067   9.435  2.3807  1.7159 -0.4647
  159MOL0     H21886   8.135   1.219   9.484  2.7393  0.1042  0.8678
  159MOL0     H21887   8.084   0.983   9.680  0.4723 -0.3886  0.5215
  159MOL0     H21888   8.201   1.127   9.706  2.7469 -1.1747  0.0558
  159MOL0     H21889   8.345   0.935   9.660 -0.3721 -2.7675 -0.0162
  159MOL0     H21890   8.231   0.876   9.539 -4.1896  1.5499 -2.3778
  159MOL0     H21891   8.344   0.906   9.292 -0.1975  0.4551 -1.5028
  159MOL0     H21892   8.450   1.028   9.092  2.0500 -2.8344  0.3770
  159MOL0     H21893   8.606   1.089   9.149  0.2322 -0.9381 -1.8096
  159MOL0     H21894   8.361   1.259   9.121  0.7658  0.5527  0.9524
  159MOL0     H21895   8.513   1.320   9.154  2.0594 -0.2343 -1.1206
  159MOL0     H21896   8.609   1.262   8.952  0.7004 -1.4047 -1.3757
  159MOL0     H21897   8.495   1.140   8.904  3.4266 -1.0790  0.2052
  159MOL0     H21898   8.309   1.332   8.892  0.4421  1.3502  0.7801
  159MOL0     H21899   8.434   1.443   8.923 -1.3159  1.9683 -1.4928
  159MOL0     H21900   8.494   1.633   8.732 -0.2525  1.3248 -1.3455
  159MOL0     H21901   8.779   1.792   8.706 -0.5414  1.5279  1.7555
  159MOL0     H21902   8.610   1.819   8.700 -0.2702  0.0196 -0.4090
  159MOL0     H21903   8.702   1.807   8.545 -1.3250  2.9163  1.3071
  159MOL0     H21904   9.199   1.370   8.407 -0.7077  0.8623  0.5210
  159MOL0     H21905   9.396   1.440   8.281  0.8868  0.4056 -0.5040
  159MOL0     H21906   9.548   1.785   8.098  1.6407  1.2333  0.9554
  159MOL0     H21907   9.409   1.837   8.183 -0.0646 -0.6423  0.4826
  159MOL0     H21908   9.694   1.847   8.294  0.2792  2.3713  2.7051
  159MOL0     H21909   9.636   1.976   8.181 -5.1667  0.1274 -2.4943
  159MOL0     H21910   9.514   1.905   8.458  0.4748 -1.3746 -1.3609
  159MOL0     H21911   9.448   2.024   8.342  1.4073  1.4796 -0.1918
  159MOL0     H21912   9.668   2.131   8.332 -0.5150  0.8744  0.8721
  159MOL0     H21913   9.735   2.022   8.451  0.9242  0.5193 -0.4626
  159MOL0     H21914   9.544   2.111   8.608 -0.1435  0.4137 -0.1930
  159MOL0     H21915   9.665   2.237   8.558  0.6680 -1.9076  1.7950
  159MOL0     H21916   9.385   2.202   8.439  2.0041 -0.4117 -2.1504
  159MOL0     H21917   9.509   2.324   8.398  1.2122  0.4458  0.9389
  159MOL0     H21918   9.491   2.429   8.628 -1.9253  0.2859  1.4164
  159MOL0     H21919   9.395   2.281   8.669  2.1090 -1.2749  0.9479
  159MOL0     H21920   9.258   2.494   8.630 -0.1493  0.8826 -0.9425
  159MOL0     H21921   9.212   2.369   8.499  0.2737 -0.2040 -1.3921
  159MOL0     H21922   9.312   1.849   8.393  0.1337 -1.0537 -4.4899
  159MOL0     H21923   9.106   1.783   8.481 -0.1940  1.4245 -1.4430
  159MOL0     H21924   8.863   1.345   8.587 -0.3178 -0.7716  1.0363
  159MOL0     H21925   8.649   1.236   8.660  1.7409  0.1404  0.3118
  159MOL0     H21926   7.213   1.109   9.665 -0.1888 -1.0826 -1.6083
  159MOL0     H21927   6.995   1.196   9.595  0.1124 -0.4245  1.4641
  159MOL0     H21928   6.689   1.364   9.520  1.8654 -0.4608  0.0580
  159MOL0     H21929   6.450   1.351   9.542  0.7319 -0.1961 -3.7636
  159MOL0     H21930   6.139   1.591   9.456 -0.8141  0.2895 -0.6057
  159MOL0     H21931   6.285   1.509   9.397 -0.3305  1.4470  0.0617
  159MOL0     H21932   6.217   1.316   9.545  1.0707 -1.1184 -0.7629
  159MOL0     H21933   6.114   1.347   9.400 -4.1148  1.9154 -0.2009
  159MOL0     H21934   6.013   1.281   9.632  1.2597 -1.0366 -0.5052
  159MOL0     H21935   6.046   1.448   9.681 -2.7691 -2.2126  2.5415
  159MOL0     H21936   5.818   1.413   9.615  0.5108 -1.9073 -0.0041
  159MOL0     H21937   5.866   1.361   9.453 -1.4587  0.4233 -0.5050
  159MOL0     H21938   5.880   1.788   9.446  2.6626 -0.7469  1.4671
  159MOL0     H21939   6.427   1.748   9.688 -0.4608  1.5242 -1.8373
  159MOL0     H21940   6.599   1.869   9.720 -0.0542 -0.8393  2.1114
  159MOL0     H21941   6.745   1.780   9.784 -0.4584 -1.1124  0.0256
  159MOL0     H21942   6.748   1.845   9.622  2.0102 -0.9234  1.9571
  160MOL0     O21943   3.618   6.985   6.478 -0.4782  0.6345  0.4920
  160MOL0     C21944   3.568   6.968   6.588 -1.2311  0.4567  1.3231
  160MOL0     O21945   3.638   6.970   6.706 -0.3702 -1.2483  0.3987
  160MOL0     C21946   3.770   6.965   6.710  0.0995 -0.3889  0.4012
  160MOL0     C21947   3.833   6.858   6.640 -0.0636 -0.7483  0.2314
  160MOL0     C21948   3.978   6.844   6.653 -0.5101 -0.0771  0.5279
  160MOL0     C21949   4.051   6.936   6.732 -0.4502 -0.1636 -0.0774
  160MOL0     O21950   4.185   6.924   6.761 -0.2979 -0.4381  0.3778
  160MOL0     C21951   4.269   6.834   6.673 -0.5067 -0.3922 -0.2090
  160MOL0     C21952   4.423   6.872   6.673  0.9670  0.3205 -0.2622
  160MOL0     C21953   4.489   6.794   6.561 -0.5900  0.5975  0.0792
  160MOL0     C21954   4.478   6.639   6.572 -0.7738  0.6366  0.3870
  160MOL0     C21955   4.373   6.578   6.471  0.3049 -0.3482 -0.0150
  160MOL0     C21956   4.329   6.441   6.505  0.1106 -0.2875  0.6829
  160MOL0     C21957   4.216   6.431   6.615 -0.6678  0.1109 -0.5706
  160MOL0     C21958   4.177   6.290   6.663  0.5987 -0.2983  0.5008
  160MOL0     N21959   4.289   6.203   6.689  0.5623  0.2230  0.1229
  160MOL0     C21960   4.366   6.226   6.799  1.0017 -0.7007 -0.3110
  160MOL0     C21961   4.469   6.138   6.785  0.4453  0.3384 -0.0622
  160MOL0     C21962   4.571   6.111   6.886 -0.3276 -0.2591  0.0189
  160MOL0     C21963   4.712   6.170   6.844 -0.7124  0.1600 -0.1637
  160MOL0     C21964   4.799   6.066   6.782 -0.8711  0.2708  0.4178
  160MOL0     C21965   4.911   6.120   6.684  1.2703 -1.2140 -0.2660
  160MOL0     O21966   4.974   6.237   6.742  1.0146  0.5010  0.6572
  160MOL0     C21967   5.093   6.277   6.689  0.0661  0.0073  0.2552
  160MOL0     C21968   5.163   6.370   6.762  0.0236 -0.6730 -0.3912
  160MOL0     C21969   5.283   6.428   6.717 -0.2508 -0.7233  0.7020
  160MOL0     C21970   5.357   6.530   6.810  0.6234 -0.7707 -1.0758
  160MOL0     C21971   5.330   6.396   6.587 -0.5821 -0.4686 -0.8503
  160MOL0     C21972   5.448   6.451   6.512 -0.0649 -1.5408 -0.4327
  160MOL0     O21973   5.511   6.374   6.428  0.4597  0.6910 -0.1584
  160MOL0     C21974   5.606   6.436   6.339 -0.1980 -0.8139  0.8694
  160MOL0     C21975   5.720   6.360   6.307  0.3195 -0.6933 -0.2048
  160MOL0     C21976   5.830   6.423   6.247  0.0493 -0.0428 -0.2002
  160MOL0     C21977   5.831   6.561   6.201 -0.7607  0.6534  0.3032
  160MOL0     O21978   5.945   6.612   6.141 -0.0389 -0.8841  0.0425
  160MOL0     C21979   5.933   6.733   6.070 -0.3266 -0.3067 -0.7980
  160MOL0     C21980   6.068   6.771   5.992  0.6792 -0.5719 -0.1323
  160MOL0     C21981   6.056   6.911   5.935 -0.7418 -0.2018 -0.0514
  160MOL0     C21982   6.062   7.018   6.046  0.2061 -0.9016 -0.3425
  160MOL0     C21983   6.085   7.158   5.988 -0.1736 -0.2455 -0.5319
  160MOL0     C21984   6.137   7.258   6.089 -0.0937  0.3351  0.6821
  160MOL0     C21985   6.135   7.400   6.050 -0.8436  0.6312 -0.1451
  160MOL0     C21986   6.239   7.496   6.117  1.4293 -0.2004  0.2264
  160MOL0    Cl21987   6.224   7.478   6.295  0.2673  0.1037  0.1120
  160MOL0     C21988   5.702   6.622   6.208 -0.0148 -0.2230  0.4897
  160MOL0     C21989   5.595   6.561   6.273  0.1851 -0.0361 -0.3698
  160MOL0     O21990   5.483   6.573   6.529 -1.0269 -0.4044 -0.4476
  160MOL0     C21991   5.263   6.295   6.515 -1.4018 -0.3674 -0.1726
  160MOL0     C21992   5.144   6.240   6.557  0.1384  0.4428  0.2464
  160MOL0     N21993   4.449   6.067   6.667  0.2704  0.5419  0.4252
  160MOL0     N21994   4.338   6.102   6.608 -0.3799  0.4367 -0.0658
  160MOL0     C21995   3.983   7.038   6.789  0.2496 -0.8860 -0.7620
  160MOL0     C21996   3.847   7.047   6.788 -0.6777 -0.3350 -0.6770
  160MOL0     C21997   3.423   6.976   6.592 -0.3478 -0.3181 -0.0688
  160MOL0     C21998   3.383   7.042   6.703  0.5483 -0.8788  0.0082
  160MOL0     C21999   3.251   7.064   6.722 -0.4121 -0.3558  0.6574
  160MOL0     C22000   3.156   7.019   6.627 -0.6001 -0.1192 -0.3436
  160MOL0     O22001   3.027   7.038   6.637  0.0672 -0.2016  0.3828
  160MOL0     C22002   2.972   7.105   6.754 -0.6432  0.1975 -0.4773
  160MOL0     C22003   2.959   7.260   6.749  0.2392 -0.1729 -0.1401
  160MOL0     C22004   2.858   7.298   6.857 -0.2399 -0.9125 -0.0924
  160MOL0     C22005   2.839   7.452   6.873 -0.2315 -0.2307 -0.2143
  160MOL0     C22006   2.848   7.530   6.753 -0.0912  0.0416 -0.5213
  160MOL0     C22007   2.841   7.602   6.656 -0.1260 -0.7386  0.2947
  160MOL0     C22008   3.194   6.933   6.526 -0.4530 -0.5874  0.1134
  160MOL0     C22009   3.329   6.922   6.505  0.8104  0.4190  0.0726
  160MOL0     C22010   3.377   6.835   6.395 -0.2042  0.1370 -0.2489
  160MOL0     H22011   3.767   6.782   6.598 -1.0698 -0.4779  1.2982
  160MOL0     H22012   4.020   6.753   6.613 -0.5437 -0.1119  0.5718
  160MOL0     H22013   4.246   6.854   6.568 -2.4252 -1.2240 -0.0019
  160MOL0     H22014   4.241   6.730   6.691  0.5331 -0.4802  1.0277
  160MOL0     H22015   4.429   6.978   6.650 -0.1811 -0.1226 -2.9860
  160MOL0     H22016   4.466   6.852   6.772 -0.4420 -1.5235  0.0435
  160MOL0     H22017   4.458   6.838   6.465  1.1474  0.6280 -0.5036
  160MOL0     H22018   4.594   6.823   6.571 -0.1687 -1.4711  2.8619
  160MOL0     H22019   4.573   6.585   6.568 -1.6856 -1.0265  0.3382
  160MOL0     H22020   4.443   6.616   6.672 -0.9570 -1.2217 -0.0721
  160MOL0     H22021   4.432   6.564   6.380  0.6188 -4.1543  0.5895
  160MOL0     H22022   4.285   6.635   6.440  0.8027 -0.8111 -2.4933
  160MOL0     H22023   4.281   6.401   6.414 -0.0391  1.4241 -0.0255
  160MOL0     H22024   4.416   6.380   6.531 -0.3790 -1.7254 -0.8409
  160MOL0     H22025   4.127   6.485   6.580 -0.9108  2.3412  2.9395
  160MOL0     H22026   4.237   6.497   6.700 -0.2312 -0.2762 -0.3753
  160MOL0     H22027   4.110   6.272   6.749  1.9464 -1.7165  1.3100
  160MOL0     H22028   4.125   6.246   6.578  1.5033  0.0133 -0.2242
  160MOL0     H22029   4.344   6.300   6.875  3.1490  0.9227 -1.1971
  160MOL0     H22030   4.578   6.003   6.900 -1.7190 -0.2371  1.1202
  160MOL0     H22031   4.552   6.152   6.986 -0.6588 -1.9272  0.6691
  160MOL0     H22032   4.697   6.255   6.777 -1.5737 -0.2963 -0.5584
  160MOL0     H22033   4.759   6.209   6.935  0.5785  0.0444 -0.7711
  160MOL0     H22034   4.861   6.026   6.863  1.9976  0.9122 -1.3207
  160MOL0     H22035   4.741   5.986   6.736  1.0111 -1.5165  1.0134
  160MOL0     H22036   4.990   6.044   6.678  1.2298 -1.4107  1.1674
  160MOL0     H22037   4.876   6.133   6.582  1.2243  1.0077 -0.0281
  160MOL0     H22038   5.133   6.402   6.862 -0.7131 -1.4992 -0.3375
  160MOL0     H22039   5.326   6.634   6.796 -1.6823 -0.9384  1.8071
  160MOL0     H22040   5.464   6.513   6.798  0.7698 -1.6489  1.0008
  160MOL0     H22041   5.339   6.510   6.916 -2.4071 -0.2574 -1.4011
  160MOL0     H22042   5.746   6.262   6.345 -0.0139 -1.5522 -2.0884
  160MOL0     H22043   5.916   6.363   6.220  0.4789  0.1080  0.8076
  160MOL0     H22044   5.854   6.731   5.994 -0.1020 -2.4381 -1.0531
  160MOL0     H22045   5.906   6.799   6.153  0.8276  0.1531 -0.7711
  160MOL0     H22046   6.156   6.772   6.057 -0.0794  2.3735  0.9941
  160MOL0     H22047   6.086   6.696   5.914  0.5108 -0.0642 -0.6632
  160MOL0     H22048   5.969   6.935   5.873  0.1415 -1.3516 -1.8279
  160MOL0     H22049   6.145   6.922   5.872 -1.2922  0.6576 -0.7098
  160MOL0     H22050   6.154   6.990   6.099 -0.4071  0.5827  1.6039
  160MOL0     H22051   5.971   7.020   6.106  0.2579  1.6839 -0.2367
  160MOL0     H22052   6.159   7.162   5.908  0.2564  1.8953 -0.0767
  160MOL0     H22053   5.985   7.187   5.954 -0.1362 -0.6394 -0.9791
  160MOL0     H22054   6.242   7.235   6.110  0.2892  0.2613 -1.1378
  160MOL0     H22055   6.082   7.250   6.183 -1.5686  0.7803 -0.1112
  160MOL0     H22056   6.033   7.434   6.072 -0.9092  2.6182 -2.9631
  160MOL0     H22057   6.140   7.406   5.941  1.0148  1.0875 -0.0629
  160MOL0     H22058   6.223   7.597   6.080 -1.0753  0.4227  2.6806
  160MOL0     H22059   6.339   7.459   6.091  1.1101 -0.3880 -0.7792
  160MOL0     H22060   5.690   6.722   6.168  0.5835 -0.2997  0.1082
  160MOL0     H22061   5.506   6.623   6.281 -0.1591 -0.0550 -2.9174
  160MOL0     H22062   5.295   6.256   6.419 -2.8649  0.9009 -1.2209
  160MOL0     H22063   5.087   6.160   6.511 -0.7093  1.0123  0.2615
  160MOL0     H22064   4.028   7.116   6.850 -2.6327  0.3625 -0.0457
  160MOL0     H22065   3.791   7.124   6.841  1.0801 -0.7073  1.9311
  160MOL0     H22066   3.447   7.093   6.774  0.8702  0.9325 -1.4867
  160MOL0     H22067   3.221   7.123   6.807 -1.8182 -1.7619  1.1818
  160MOL0     H22068   2.872   7.064   6.771 -0.7905  0.8998  0.4453
  160MOL0     H22069   3.027   7.071   6.842  2.4469  2.2599 -1.4485
  160MOL0     H22070   2.926   7.291   6.649 -0.3815  0.5815  0.2883
  160MOL0     H22071   3.060   7.294   6.768  0.1036  0.5178 -0.6329
  160MOL0     H22072   2.758   7.264   6.828 -0.9589  0.7779  0.2999
  160MOL0     H22073   2.894   7.245   6.946  4.3161  0.3230 -0.9333
  160MOL0     H22074   2.909   7.499   6.943 -1.8362  1.0408  0.6138
  160MOL0     H22075   2.739   7.463   6.918 -1.0535 -0.4122 -1.9041
  160MOL0     H22076   2.846   7.639   6.556  3.0978  0.7390  0.9094
  160MOL0     H22077   3.112   6.881   6.478 -1.1762  0.7347 -0.1461
  160MOL0     H22078   3.302   6.780   6.338  1.3985 -0.1025 -2.2307
  160MOL0     H22079   3.417   6.900   6.317 -1.0718  1.2333  0.2015
  160MOL0     H22080   3.453   6.758   6.413 -1.4210 -1.0665 -0.0636
  161MOL0     O22081   5.498   2.928   4.262 -0.6775 -0.7003 -0.3692
  161MOL0     C22082   5.472   2.933   4.145 -0.5242  0.2201  0.3312
  161MOL0     O22083   5.570   2.942   4.043  0.3368 -0.2280 -0.3304
  161MOL0     C22084   5.700   2.937   4.080 -0.5610  0.9615  1.1457
  161MOL0     C22085   5.772   3.061   4.090  0.1790  0.5211  0.4767
  161MOL0     C22086   5.902   3.064   4.134 -0.6414  0.6591  0.3626
  161MOL0     C22087   5.972   2.941   4.163  0.9632  0.3697  0.3942
  161MOL0     O22088   6.100   2.936   4.215 -0.4116 -0.1400 -0.4443
  161MOL0     C22089   6.185   3.038   4.165  0.3908 -0.8252  0.0780
  161MOL0     C22090   6.337   2.993   4.179  0.4456  0.1039  0.0536
  161MOL0     C22091   6.433   3.102   4.130  0.0665 -0.5173 -1.0595
  161MOL0     C22092   6.452   3.091   3.974  0.4214  0.0149 -0.0940
  161MOL0     C22093   6.539   3.208   3.921  0.4647  0.2137 -0.5053
  161MOL0     C22094   6.688   3.177   3.936 -0.1783  0.8574  0.0210
  161MOL0     C22095   6.788   3.294   3.899  0.0234  0.1060  0.3481
  161MOL0     C22096   6.927   3.241   3.884 -0.0210  0.0735 -0.2123
  161MOL0     N22097   7.038   3.338   3.848  0.4796  0.5259 -0.0509
  161MOL0     C22098   7.052   3.397   3.725 -0.3564 -0.3789  0.2997
  161MOL0     C22099   7.170   3.459   3.730  0.0212  0.8835 -0.2400
  161MOL0     C22100   7.242   3.527   3.620  0.5145  0.2978  0.2785
  161MOL0     C22101   7.381   3.462   3.597 -0.3328 -0.1439 -0.4865
  161MOL0     C22102   7.440   3.541   3.482 -0.2045  0.2145  0.4564
  161MOL0     C22103   7.586   3.494   3.469 -1.2799 -0.2449 -0.8061
  161MOL0     O22104   7.601   3.357   3.463 -0.5957 -0.2452 -0.1066
  161MOL0     C22105   7.724   3.309   3.429  0.4097 -0.6436  0.1880
  161MOL0     C22106   7.732   3.169   3.438 -0.0683  0.4534  0.5451
  161MOL0     C22107   7.848   3.098   3.398  0.4918  0.7054 -0.3445
  161MOL0     C22108   7.844   2.942   3.403 -0.0079  0.5173 -0.0209
  161MOL0     C22109   7.968   3.168   3.368 -0.5352 -0.0425 -0.7844
  161MOL0     C22110   8.091   3.105   3.324 -0.2398 -0.1724  0.0234
  161MOL0     O22111   8.200   3.190   3.292 -0.5383 -0.2270  0.2836
  161MOL0     C22112   8.318   3.133   3.323  0.1313 -0.3487 -0.3634
  161MOL0     C22113   8.413   3.145   3.225  0.3459  0.7474 -0.3469
  161MOL0     C22114   8.539   3.100   3.238  0.6332 -0.3209  1.1083
  161MOL0     C22115   8.583   3.046   3.357 -0.8223 -0.4666 -0.2124
  161MOL0     O22116   8.711   2.991   3.358  0.1664  0.4888 -0.6073
  161MOL0     C22117   8.776   2.938   3.477 -0.0449 -1.0085  0.1364
  161MOL0     C22118   8.890   2.844   3.424  0.2685 -0.1018  0.5484
  161MOL0     C22119   9.016   2.916   3.362  0.2371  0.4202  0.9796
  161MOL0     C22120   9.100   3.014   3.451  0.3913  0.2351  0.1246
  161MOL0     C22121   9.208   2.938   3.526  0.0779 -0.8491 -0.0103
  161MOL0     C22122   9.309   3.043   3.584 -0.3886 -0.8491  0.1669
  161MOL0     C22123   9.406   2.980   3.689 -0.7504  0.1462  0.1064
  161MOL0     C22124   9.463   3.083   3.788 -0.6721 -0.2163 -0.4792
  161MOL0    Cl22125   9.639   3.085   3.836  0.0204 -0.3726  0.3501
  161MOL0     C22126   8.495   3.043   3.466  0.5689 -0.2982  0.7216
  161MOL0     C22127   8.359   3.087   3.448  0.8103 -0.1556 -0.4940
  161MOL0     O22128   8.104   2.985   3.319  0.1439 -0.6810  0.0862
  161MOL0     C22129   7.960   3.312   3.377 -0.0737  0.4450 -0.0787
  161MOL0     C22130   7.841   3.378   3.396  0.6836 -0.9241  0.1246
  161MOL0     N22131   7.229   3.442   3.852  0.4159 -1.2188  0.3514
  161MOL0     N22132   7.137   3.386   3.930  0.1893 -0.3637 -0.3643
  161MOL0     C22133   5.898   2.824   4.148 -0.9899 -0.4306  0.3907
  161MOL0     C22134   5.762   2.815   4.103 -0.9180  0.1098  0.3861
  161MOL0     C22135   5.327   2.927   4.092 -0.4669 -0.0692 -0.4347
  161MOL0     C22136   5.313   2.940   3.951  0.1966 -0.2094  0.2201
  161MOL0     C22137   5.184   2.950   3.892  0.1790 -0.2381  0.1710
  161MOL0     C22138   5.072   2.927   3.974 -0.1150 -0.7846  0.1616
  161MOL0     O22139   4.956   2.931   3.907 -0.0944 -0.2328 -0.2480
  161MOL0     C22140   4.883   2.806   3.927  0.1316  0.4044  0.1281
  161MOL0     C22141   4.943   2.708   3.820 -0.5815  0.3154 -0.2902
  161MOL0     C22142   4.905   2.742   3.680  0.1031 -0.7226 -0.0648
  161MOL0     C22143   4.903   2.629   3.579  0.1031  0.1899  0.1650
  161MOL0     C22144   5.021   2.547   3.579  0.3078 -0.4134  0.4291
  161MOL0     C22145   5.109   2.468   3.595  0.0715  1.0080 -0.5736
  161MOL0     C22146   5.082   2.910   4.114 -0.2604  0.7538 -0.7830
  161MOL0     C22147   5.212   2.912   4.172 -0.4055  0.5028  0.2189
  161MOL0     C22148   5.225   2.894   4.321 -0.0248  0.1716 -0.3238
  161MOL0     H22149   5.708   3.148   4.075 -0.3534 -0.3255 -3.1711
  161MOL0     H22150   5.943   3.161   4.156  0.0900  0.6188 -0.7290
  161MOL0     H22151   6.160   3.130   4.219  0.3587 -1.5685  1.3746
  161MOL0     H22152   6.162   3.062   4.061  0.2790  1.6372  0.6033
  161MOL0     H22153   6.358   2.983   4.285  0.1574  2.0085  0.3206
  161MOL0     H22154   6.358   2.896   4.133 -1.6446  0.3477 -1.5817
  161MOL0     H22155   6.392   3.200   4.155 -0.4025 -1.5136  2.7218
  161MOL0     H22156   6.528   3.089   4.181  0.5771 -2.3238 -2.3615
  161MOL0     H22157   6.504   3.000   3.943 -0.1927 -0.7274  0.9786
  161MOL0     H22158   6.353   3.092   3.927  0.6775  0.0969 -0.6419
  161MOL0     H22159   6.520   3.296   3.982 -0.6611 -1.4505  1.6729
  161MOL0     H22160   6.508   3.222   3.817  1.2281 -1.3560 -0.9733
  161MOL0     H22161   6.710   3.133   4.034  1.1661 -1.7297 -1.3172
  161MOL0     H22162   6.711   3.097   3.865 -0.1316  0.4041  0.5428
  161MOL0     H22163   6.798   3.366   3.981 -0.0180 -0.1263  0.5606
  161MOL0     H22164   6.748   3.352   3.815 -0.7901  1.2458  1.4755
  161MOL0     H22165   6.945   3.192   3.980 -0.5818  2.6215  1.2765
  161MOL0     H22166   6.937   3.161   3.810 -0.3329 -1.6683  1.5487
  161MOL0     H22167   6.993   3.401   3.634  1.1773 -0.2047 -0.7266
  161MOL0     H22168   7.254   3.632   3.648  0.2576  0.0510  1.3551
  161MOL0     H22169   7.183   3.516   3.528  0.4604 -0.2808  0.3799
  161MOL0     H22170   7.442   3.486   3.685 -1.1385 -0.1336  0.0860
  161MOL0     H22171   7.363   3.355   3.586  0.3696 -0.6743  2.5936
  161MOL0     H22172   7.398   3.515   3.385  2.7567 -0.8537 -0.6772
  161MOL0     H22173   7.434   3.648   3.500  1.6813 -0.1486  4.2477
  161MOL0     H22174   7.628   3.548   3.383  0.4900  2.8171  1.7431
  161MOL0     H22175   7.649   3.537   3.548 -1.4243 -0.5271 -0.5361
  161MOL0     H22176   7.644   3.110   3.460 -0.0817  1.1264  2.4611
  161MOL0     H22177   7.853   2.908   3.300  0.6485  1.1299 -0.1720
  161MOL0     H22178   7.748   2.901   3.435 -1.6472  1.9591 -2.7067
  161MOL0     H22179   7.930   2.916   3.465 -1.0581  1.5382  1.9823
  161MOL0     H22180   8.384   3.189   3.130 -1.7624 -0.4942 -0.3377
  161MOL0     H22181   8.595   3.114   3.146 -2.3853 -0.8370 -0.9964
  161MOL0     H22182   8.815   3.014   3.546  2.0476 -2.3067  0.4597
  161MOL0     H22183   8.710   2.878   3.540  1.1904 -2.9185 -0.3107
  161MOL0     H22184   8.922   2.773   3.501 -0.5428 -2.3195 -1.0400
  161MOL0     H22185   8.853   2.769   3.353  1.6943 -1.2513  0.9660
  161MOL0     H22186   8.967   2.971   3.281 -1.8168 -3.1430 -0.4489
  161MOL0     H22187   9.081   2.847   3.308 -1.0573  0.4233 -0.6593
  161MOL0     H22188   9.022   3.062   3.511  1.6403  2.2259  0.2677
  161MOL0     H22189   9.140   3.100   3.396 -2.0323  2.4414  1.5623
  161MOL0     H22190   9.152   2.882   3.601 -0.4159 -1.7793 -1.0452
  161MOL0     H22191   9.265   2.864   3.468  0.1549  0.9780 -2.4296
  161MOL0     H22192   9.245   3.121   3.625 -0.8783 -0.5011 -1.1952
  161MOL0     H22193   9.360   3.100   3.506 -1.1567  2.7286  2.0657
  161MOL0     H22194   9.490   2.930   3.639 -0.4477  1.6650 -0.9613
  161MOL0     H22195   9.351   2.909   3.752 -3.7354  3.4419  1.5256
  161MOL0     H22196   9.405   3.078   3.880 -1.8981  1.8047 -1.0715
  161MOL0     H22197   9.445   3.183   3.746 -0.1327  1.0574  2.0689
  161MOL0     H22198   8.526   2.998   3.560  1.0895 -0.9048  0.2694
  161MOL0     H22199   8.296   3.086   3.536  1.5401  0.4416  0.0454
  161MOL0     H22200   8.047   3.376   3.360  0.7912 -0.4979  0.6879
  161MOL0     H22201   7.842   3.486   3.406 -4.0300 -0.7019  0.7969
  161MOL0     H22202   5.965   2.739   4.157  1.1576  1.2928  1.3055
  161MOL0     H22203   5.714   2.719   4.089 -0.7679  0.3010 -1.6587
  161MOL0     H22204   5.399   2.969   3.891  1.7542 -2.4446  1.2303
  161MOL0     H22205   5.177   2.964   3.785 -0.8783 -0.5173  0.1939
  161MOL0     H22206   4.898   2.765   4.027  0.5364  1.8485  0.6936
  161MOL0     H22207   4.775   2.826   3.922  0.0838  0.5633  1.3386
  161MOL0     H22208   4.892   2.611   3.822  1.4453 -0.8573 -1.5968
  161MOL0     H22209   5.052   2.696   3.827 -0.5271  1.2699  0.8439
  161MOL0     H22210   4.800   2.772   3.687 -0.0106 -0.3032 -2.5725
  161MOL0     H22211   4.971   2.821   3.643  1.3254 -2.4964 -1.9193
  161MOL0     H22212   4.870   2.662   3.480 -1.5295  0.1036  0.6625
  161MOL0     H22213   4.818   2.566   3.606 -1.1796  0.7217 -2.3104
  161MOL0     H22214   5.187   2.399   3.618 -1.8980 -1.1174  0.1532
  161MOL0     H22215   4.988   2.913   4.168 -1.2111 -0.7375 -2.2390
  161MOL0     H22216   5.126   2.872   4.363 -1.0718 -1.1087 -3.2327
  161MOL0     H22217   5.298   2.815   4.341  1.1900  0.3727 -3.4810
  161MOL0     H22218   5.271   2.984   4.364  3.4789 -1.4294 -0.3699
  162MOL0     O22219   2.198  11.162   6.322 -0.2730 -0.0630  0.3258
  162MOL0     C22220   2.156  11.052   6.349  0.1610  0.5462  0.3581
  162MOL0     O22221   2.221  10.939   6.324  0.0010  0.2126  0.1964
  162MOL0     C22222   2.329  10.950   6.248 -0.1688  0.5000 -0.1152
  162MOL0     C22223   2.449  10.965   6.313 -0.0796  0.2498 -0.1289
  162MOL0     C22224   2.563  10.958   6.232 -0.3090 -0.3603 -0.1155
  162MOL0     C22225   2.562  10.925   6.089  0.1690 -0.3451 -0.3293
  162MOL0     O22226   2.671  10.914   6.014 -0.1565  0.5993  0.3065
  162MOL0     C22227   2.798  10.963   6.062 -0.0787 -0.5636 -0.4209
  162MOL0     C22228   2.894  11.014   5.949  0.4618 -0.2456  0.0888
  162MOL0     C22229   2.945  10.889   5.877  0.3320  0.4991  0.2343
  162MOL0     C22230   3.051  10.818   5.958  0.0567 -0.5037  0.2361
  162MOL0     C22231   3.186  10.891   5.934  0.4261  0.1039  0.4184
  162MOL0     C22232   3.298  10.846   6.021 -0.4413  0.3849  0.7425
  162MOL0     C22233   3.432  10.889   5.968 -0.3944  0.0460 -0.7275
  162MOL0     C22234   3.494  10.810   5.852 -0.4434  0.6493  0.5042
  162MOL0     N22235   3.637  10.840   5.856 -1.0361 -0.1807  0.1756
  162MOL0     C22236   3.708  10.933   5.780  0.0928 -0.3386  0.2388
  162MOL0     C22237   3.835  10.892   5.776 -0.5500 -0.9420 -0.3713
  162MOL0     C22238   3.952  10.945   5.706  0.0079  0.3094 -0.4895
  162MOL0     C22239   4.081  10.933   5.799  0.3148  0.7879 -0.1892
  162MOL0     C22240   4.192  11.029   5.755 -0.6322 -0.4992  0.1196
  162MOL0     C22241   4.312  11.033   5.854 -0.5669 -0.1801 -0.4249
  162MOL0     O22242   4.436  11.080   5.791 -0.4643  0.5723 -0.3385
  162MOL0     C22243   4.542  11.125   5.870 -0.2209 -0.3620  0.4368
  162MOL0     C22244   4.640  11.198   5.799 -0.3000  0.1089  0.3646
  162MOL0     C22245   4.746  11.263   5.858  0.3204 -1.2161 -0.4941
  162MOL0     C22246   4.832  11.367   5.785 -0.1768  0.2371 -0.4003
  162MOL0     C22247   4.770  11.225   5.994  0.2698 -0.1411 -0.0888
  162MOL0     C22248   4.890  11.272   6.070 -0.7462  0.1495  0.4840
  162MOL0     O22249   5.012  11.301   6.005 -0.0049 -0.2058  0.1329
  162MOL0     C22250   5.113  11.338   6.081 -0.8534 -0.1754 -0.7144
  162MOL0     C22251   5.181  11.460   6.089  0.7189  0.1608  0.0898
  162MOL0     C22252   5.292  11.496   6.166  0.0512 -0.5327  0.1209
  162MOL0     C22253   5.342  11.416   6.260  0.4705 -0.5377 -0.0053
  162MOL0     O22254   5.459  11.457   6.328  0.0481  0.2808  1.1648
  162MOL0     C22255   5.497  11.374   6.439 -0.6823 -0.0259  0.5222
  162MOL0     C22256   5.609  11.464   6.501 -0.1015  0.0563 -0.5204
  162MOL0     C22257   5.736  11.441   6.411 -0.4224 -0.2262 -0.2509
  162MOL0     C22258   5.775  11.566   6.339  0.0587 -0.7628 -0.0712
  162MOL0     C22259   5.901  11.556   6.250  0.1829  0.6071 -0.4431
  162MOL0     C22260   6.015  11.476   6.317 -0.6247 -0.6558 -0.1214
  162MOL0     C22261   6.152  11.493   6.259 -0.7417 -0.0347  0.2153
  162MOL0     C22262   6.207  11.635   6.266 -0.2193  0.2717 -0.0779
  162MOL0    Cl22263   6.367  11.642   6.183 -0.4771  0.2318 -0.1230
  162MOL0     C22264   5.279  11.285   6.250 -0.1878  0.7754 -0.2786
  162MOL0     C22265   5.173  11.246   6.174 -0.0841  0.2069  1.0028
  162MOL0     O22266   4.868  11.285   6.188 -0.1670 -0.7997 -0.0877
  162MOL0     C22267   4.676  11.136   6.063  0.0715 -0.7248 -0.2550
  162MOL0     C22268   4.557  11.097   6.003  0.8252  0.5533  0.7475
  162MOL0     N22269   3.845  10.779   5.859  0.6883  1.0692 -0.1679
  162MOL0     N22270   3.731  10.752   5.903 -0.1664 -0.2617  0.2629
  162MOL0     C22271   2.429  10.899   6.040  0.4491 -0.0178 -0.6037
  162MOL0     C22272   2.313  10.914   6.114  0.0116  0.1217  0.2074
  162MOL0     C22273   2.028  11.064   6.420  0.3630 -0.4066  0.0551
  162MOL0     C22274   2.014  11.170   6.514 -0.5977 -0.1773 -1.0314
  162MOL0     C22275   1.898  11.181   6.585 -0.2994  0.2978  0.6240
  162MOL0     C22276   1.798  11.086   6.565  0.6536  0.2781 -0.6222
  162MOL0     O22277   1.686  11.100   6.651 -0.5826  0.2081 -0.5454
  162MOL0     C22278   1.570  11.035   6.614 -0.5769 -0.1807 -0.2003
  162MOL0     C22279   1.454  11.042   6.715  0.0984 -0.7938  0.0402
  162MOL0     C22280   1.349  10.937   6.667  0.2208  0.2804  0.5170
  162MOL0     C22281   1.207  10.961   6.725 -0.3048 -0.4098 -0.2508
  162MOL0     C22282   1.130  10.833   6.702  0.4163 -0.1942 -0.5702
  162MOL0     C22283   1.051  10.747   6.710 -0.0294  0.9403 -0.0269
  162MOL0     C22284   1.805  10.989   6.468 -0.6544  0.3481  0.0381
  162MOL0     C22285   1.919  10.978   6.386  0.3672  0.2659  0.5940
  162MOL0     C22286   1.916  10.879   6.278 -0.1371  0.7690  0.3296
  162MOL0     H22287   2.466  10.995   6.416 -2.3836  1.1016  0.0614
  162MOL0     H22288   2.654  10.981   6.287 -0.6024 -0.6583  0.5049
  162MOL0     H22289   2.839  10.882   6.124 -1.7956 -0.7908  0.5142
  162MOL0     H22290   2.788  11.047   6.131  2.2147  0.3611 -1.1408
  162MOL0     H22291   2.836  11.082   5.886 -1.2229 -0.0768  1.7019
  162MOL0     H22292   2.981  11.069   5.985  1.6583 -1.0153 -1.5236
  162MOL0     H22293   2.858  10.823   5.863  0.5335  0.0834  0.8959
  162MOL0     H22294   2.986  10.909   5.778  1.5139 -0.0317  0.6027
  162MOL0     H22295   3.027  10.814   6.064 -0.3692 -1.5310  0.1112
  162MOL0     H22296   3.064  10.719   5.912 -0.1672  0.0977 -1.1601
  162MOL0     H22297   3.174  10.999   5.948  1.2719  0.0855  1.4200
  162MOL0     H22298   3.206  10.877   5.828 -2.9457 -0.5017 -0.2753
  162MOL0     H22299   3.284  10.895   6.118  3.1293  1.1074  1.0170
  162MOL0     H22300   3.289  10.737   6.019  1.1444  0.0770 -4.9841
  162MOL0     H22301   3.489  10.866   6.059 -1.0906 -1.3246 -0.6235
  162MOL0     H22302   3.429  10.997   5.951 -0.6223 -0.0125 -1.0477
  162MOL0     H22303   3.473  10.704   5.870  1.6869  0.2360  0.9579
  162MOL0     H22304   3.449  10.839   5.757 -0.1658 -0.9129 -0.1419
  162MOL0     H22305   3.666  11.009   5.714 -1.3348 -0.5696  0.8465
  162MOL0     H22306   3.928  11.050   5.689 -4.0311 -0.7897 -2.5883
  162MOL0     H22307   3.963  10.889   5.613 -0.5184 -1.1896  0.3153
  162MOL0     H22308   4.047  10.944   5.902 -0.4417 -1.7984 -0.1002
  162MOL0     H22309   4.117  10.830   5.796  2.4175  1.3424  2.4110
  162MOL0     H22310   4.219  10.997   5.654 -3.1723 -0.8916 -0.4963
  162MOL0     H22311   4.158  11.132   5.741  1.2683  0.0962 -0.4737
  162MOL0     H22312   4.285  11.109   5.927 -0.1532  1.8354 -2.2839
  162MOL0     H22313   4.328  10.940   5.911  0.6242 -1.1730 -2.2806
  162MOL0     H22314   4.629  11.199   5.692  0.9549 -3.5113  0.0613
  162MOL0     H22315   4.857  11.451   5.851 -3.2382  0.2206  0.9419
  162MOL0     H22316   4.773  11.412   5.705 -0.4564  0.7890  0.1004
  162MOL0     H22317   4.927  11.325   5.751 -1.0510 -3.9241  1.6616
  162MOL0     H22318   5.146  11.530   6.013 -0.3617  0.9932  1.3017
  162MOL0     H22319   5.335  11.594   6.145  0.9545 -1.0447 -0.4980
  162MOL0     H22320   5.413  11.370   6.509  0.0965  0.4245  1.5151
  162MOL0     H22321   5.529  11.277   6.400 -0.6030  0.1578  0.1280
  162MOL0     H22322   5.568  11.565   6.509 -3.7458 -1.2802 -0.3976
  162MOL0     H22323   5.637  11.435   6.603  4.0773  1.8904 -0.9321
  162MOL0     H22324   5.737  11.364   6.333  2.3184 -0.4521 -0.0582
  162MOL0     H22325   5.810  11.423   6.489  0.7828  1.5478 -0.9351
  162MOL0     H22326   5.795  11.648   6.409  1.3554 -2.4783  1.6769
  162MOL0     H22327   5.688  11.586   6.276 -0.3325 -1.2982  0.2980
  162MOL0     H22328   5.872  11.506   6.156  0.7778 -0.8902  0.1398
  162MOL0     H22329   5.937  11.654   6.218  2.2403  0.0796  0.0810
  162MOL0     H22330   6.000  11.368   6.309  2.8883 -1.1558 -2.4312
  162MOL0     H22331   6.017  11.501   6.424 -0.9343  1.3000 -0.5208
  162MOL0     H22332   6.148  11.465   6.153 -2.3708  0.2089  0.1869
  162MOL0     H22333   6.221  11.422   6.305 -1.7505 -1.2528 -0.0840
  162MOL0     H22334   6.232  11.663   6.369  0.5175 -1.2455  0.2009
  162MOL0     H22335   6.141  11.710   6.222 -2.7057 -0.0542  2.7766
  162MOL0     H22336   5.314  11.201   6.309 -1.7603 -3.3178 -4.5875
  162MOL0     H22337   5.137  11.144   6.177  0.7078 -0.0882  3.8113
  162MOL0     H22338   4.682  11.126   6.171 -2.4227  0.1009  0.0196
  162MOL0     H22339   4.479  11.052   6.063  0.8629  0.8822  1.0435
  162MOL0     H22340   2.418  10.878   5.934  3.6028 -5.3637 -0.2413
  162MOL0     H22341   2.213  10.904   6.073  0.0457 -1.0490  0.3680
  162MOL0     H22342   2.088  11.247   6.531 -0.7704 -0.4478  1.1612
  162MOL0     H22343   1.896  11.270   6.647  0.8492 -1.4768  3.3989
  162MOL0     H22344   1.538  11.087   6.523  2.6015 -1.1760 -2.0238
  162MOL0     H22345   1.597  10.930   6.598  0.6403 -0.1189  1.2738
  162MOL0     H22346   1.406  11.140   6.710  0.4773 -0.2953  3.3234
  162MOL0     H22347   1.480  11.029   6.821  1.3948 -2.5888 -0.4557
  162MOL0     H22348   1.340  10.949   6.559  1.0539  2.6150  0.6703
  162MOL0     H22349   1.382  10.836   6.693  2.4083  0.7248 -0.3232
  162MOL0     H22350   1.158  11.046   6.678 -2.0262 -0.7610  0.8318
  162MOL0     H22351   1.209  10.977   6.833  0.4587  4.9352 -0.7770
  162MOL0     H22352   0.975  10.672   6.720 -0.1823  1.0665 -0.2392
  162MOL0     H22353   1.727  10.920   6.436  0.0643 -0.0704 -0.8400
  162MOL0     H22354   1.969  10.788   6.309 -3.7327 -2.0327 -1.0318
  162MOL0     H22355   1.815  10.845   6.253 -0.2817  0.5154  1.2148
  162MOL0     H22356   1.957  10.921   6.186 -0.7378 -0.3791 -0.4867
  163MOL0     O22357   2.795   5.762   7.632 -0.3049  0.8457  0.2711
  163MOL0     C22358   2.735   5.702   7.722  0.4766  0.4575 -0.0165
  163MOL0     O22359   2.784   5.664   7.840  0.4304  0.2958  0.3033
  163MOL0     C22360   2.920   5.679   7.862  0.5183 -0.3449 -0.7860
  163MOL0     C22361   2.999   5.569   7.886 -0.3531  0.4839  0.5516
  163MOL0     C22362   3.140   5.587   7.910  0.2640  0.1274 -0.0151
  163MOL0     C22363   3.200   5.720   7.910 -0.1428  0.3271  0.5982
  163MOL0     O22364   3.332   5.742   7.932 -0.2034  0.0237 -0.5325
  163MOL0     C22365   3.424   5.648   7.883  0.6158 -0.1107 -0.2644
  163MOL0     C22366   3.560   5.712   7.856 -0.5483  0.4420  0.3372
  163MOL0     C22367   3.630   5.780   7.978  0.3113 -0.3281  0.6223
  163MOL0     C22368   3.758   5.836   7.937 -0.5003 -0.1414 -0.4769
  163MOL0     C22369   3.820   5.912   8.049  0.2482 -0.1778  0.2246
  163MOL0     C22370   3.959   5.982   8.023 -1.0823 -0.2220 -0.2877
  163MOL0     C22371   3.962   6.084   7.903 -0.9035  0.1020 -0.3757
  163MOL0     C22372   4.067   6.196   7.903  0.1461  0.5067  0.0554
  163MOL0     N22373   4.210   6.146   7.907 -0.1149 -0.9194 -0.0498
  163MOL0     C22374   4.284   6.072   7.816  0.3064 -0.6527 -1.0608
  163MOL0     C22375   4.410   6.070   7.873  0.4591  0.0749 -0.2336
  163MOL0     C22376   4.531   6.010   7.799 -0.0139 -0.0562  0.2077
  163MOL0     C22377   4.574   6.111   7.690  0.9608  0.1404  0.1839
  163MOL0     C22378   4.615   6.247   7.733  1.1985  0.0545  0.3166
  163MOL0     C22379   4.755   6.254   7.779 -0.0835  0.3528  0.2766
  163MOL0     O22380   4.839   6.218   7.663 -0.6342 -0.3690  0.1597
  163MOL0     C22381   4.979   6.212   7.689  0.3175 -1.0817  0.1771
  163MOL0     C22382   5.036   6.268   7.804 -0.2136  0.1107 -0.8238
  163MOL0     C22383   5.168   6.257   7.836 -0.0070 -0.4719 -0.3188
  163MOL0     C22384   5.219   6.320   7.968 -0.0621  0.5719 -0.1426
  163MOL0     C22385   5.256   6.195   7.742  0.0338  0.0530 -0.7096
  163MOL0     C22386   5.403   6.188   7.752  0.6685  0.6092 -0.3790
  163MOL0     O22387   5.460   6.234   7.869 -0.1445 -0.2147 -0.0499
  163MOL0     C22388   5.593   6.248   7.872  0.1514 -0.4639 -0.6580
  163MOL0     C22389   5.680   6.151   7.929  0.4952 -0.9631 -0.5463
  163MOL0     C22390   5.817   6.173   7.937 -0.3875  0.3880  0.0466
  163MOL0     C22391   5.879   6.277   7.862 -0.6281  0.3179  0.2184
  163MOL0     O22392   6.018   6.308   7.862 -0.2588 -0.3373  0.5746
  163MOL0     C22393   6.063   6.421   7.792  0.3613 -0.7380 -0.7418
  163MOL0     C22394   6.217   6.406   7.792 -0.8279 -0.0560  0.8559
  163MOL0     C22395   6.289   6.528   7.735 -0.1830  1.1513 -0.1425
  163MOL0     C22396   6.422   6.505   7.664  0.1569  0.6280  0.0612
  163MOL0     C22397   6.503   6.627   7.647  0.7994 -0.2863  0.0810
  163MOL0     C22398   6.647   6.600   7.620  0.2898  0.4011  0.0893
  163MOL0     C22399   6.709   6.734   7.598 -0.2701 -0.6152  0.7620
  163MOL0     C22400   6.861   6.729   7.558  0.0018 -0.1264  0.3944
  163MOL0    Cl22401   6.931   6.891   7.517  0.0872 -0.1295  0.1360
  163MOL0     C22402   5.793   6.367   7.795 -0.1222  0.3584  0.5340
  163MOL0     C22403   5.654   6.355   7.806 -0.4364  0.0172 -0.4694
  163MOL0     O22404   5.470   6.158   7.649 -0.1926  0.2632  0.0085
  163MOL0     C22405   5.194   6.134   7.621 -0.1629  0.2404  0.2941
  163MOL0     C22406   5.058   6.140   7.593  0.3789  0.0135 -0.4464
  163MOL0     N22407   4.411   6.133   7.994 -0.2335  0.1075  0.3480
  163MOL0     N22408   4.294   6.175   8.008 -0.1659 -0.9500 -1.2107
  163MOL0     C22409   3.120   5.829   7.886  0.0804 -0.6208 -0.0433
  163MOL0     C22410   2.982   5.807   7.865 -0.4413 -0.2318 -0.3456
  163MOL0     C22411   2.597   5.643   7.695 -0.8859  0.3986  0.1366
  163MOL0     C22412   2.527   5.580   7.806  0.8209  0.2598 -0.5486
  163MOL0     C22413   2.396   5.537   7.798 -0.1607 -0.1433  0.5635
  163MOL0     C22414   2.334   5.555   7.681  0.0528  0.2810  0.3485
  163MOL0     O22415   2.212   5.505   7.656  0.0291 -0.5292 -0.5768
  163MOL0     C22416   2.108   5.560   7.730 -0.6037  0.1571  0.1792
  163MOL0     C22417   1.987   5.492   7.695 -0.5740  0.8645 -0.2702
  163MOL0     C22418   1.871   5.570   7.742  0.7097  0.1214  0.5948
  163MOL0     C22419   1.755   5.480   7.794  0.0754  0.1991  0.4647
  163MOL0     C22420   1.662   5.425   7.695 -0.4657 -1.1843  0.4141
  163MOL0     C22421   1.595   5.367   7.604 -0.5017  0.0080 -0.1192
  163MOL0     C22422   2.400   5.606   7.565  0.2927 -0.0003 -0.6067
  163MOL0     C22423   2.530   5.659   7.572 -0.1804  0.3920 -0.3478
  163MOL0     C22424   2.596   5.721   7.451  0.1050  0.8241  0.2021
  163MOL0     H22425   2.955   5.470   7.881  2.5805 -0.8881 -0.5040
  163MOL0     H22426   3.197   5.495   7.923 -2.7431 -1.7319  0.9716
  163MOL0     H22427   3.388   5.596   7.793  2.3659  1.3619 -1.8975
  163MOL0     H22428   3.441   5.569   7.956 -1.5321  1.2047  1.8005
  163MOL0     H22429   3.623   5.633   7.814 -1.3839 -0.4244  0.6715
  163MOL0     H22430   3.546   5.789   7.780  0.0428  1.6124  1.3751
  163MOL0     H22431   3.565   5.862   8.008  0.4593  0.0570 -0.0698
  163MOL0     H22432   3.651   5.707   8.057  1.7061 -0.1710  0.4320
  163MOL0     H22433   3.829   5.762   7.900 -0.2718 -0.2654  0.1982
  163MOL0     H22434   3.743   5.901   7.850  0.4656 -2.8394 -2.8296
  163MOL0     H22435   3.827   5.848   8.137 -1.8812  0.2019  0.7193
  163MOL0     H22436   3.745   5.988   8.075  0.8434  0.6667 -0.4474
  163MOL0     H22437   4.000   6.015   8.119 -1.3214 -0.8550  0.0382
  163MOL0     H22438   4.019   5.896   7.991  0.0709 -0.6437  2.6639
  163MOL0     H22439   3.863   6.131   7.910 -1.1519 -0.5283  0.6452
  163MOL0     H22440   3.974   6.021   7.815  1.1470 -3.6538  2.3088
  163MOL0     H22441   4.054   6.270   7.823 -0.9130 -0.0120 -0.2734
  163MOL0     H22442   4.040   6.241   7.999 -1.8050  0.0182 -0.2124
  163MOL0     H22443   4.257   6.037   7.717  1.7095  0.1193 -1.7503
  163MOL0     H22444   4.506   5.914   7.752  3.2427 -1.9825  2.0673
  163MOL0     H22445   4.611   5.999   7.872  0.4283  0.7703 -0.1395
  163MOL0     H22446   4.655   6.059   7.637  3.1675  1.7571  1.7731
  163MOL0     H22447   4.489   6.120   7.622  1.6259  0.5921 -0.6003
  163MOL0     H22448   4.597   6.315   7.650  0.5421  2.2173  2.1176
  163MOL0     H22449   4.543   6.288   7.805  0.7742 -3.0268  1.8345
  163MOL0     H22450   4.764   6.359   7.809 -1.6395  0.6768 -0.3172
  163MOL0     H22451   4.771   6.178   7.855 -1.3211 -1.5673 -1.2888
  163MOL0     H22452   4.980   6.344   7.856  0.6972  0.7333 -0.7244
  163MOL0     H22453   5.279   6.410   7.948  0.9071 -0.1155 -0.3946
  163MOL0     H22454   5.287   6.254   8.023  1.2862 -0.3564 -2.7288
  163MOL0     H22455   5.140   6.346   8.039 -0.6454 -1.5144  0.0430
  163MOL0     H22456   5.625   6.069   7.975  0.3385 -0.1089  0.8451
  163MOL0     H22457   5.882   6.110   7.997  0.3161  0.5527 -0.5289
  163MOL0     H22458   6.031   6.423   7.687 -0.7483 -1.5705 -0.4315
  163MOL0     H22459   6.050   6.516   7.844  1.9436 -1.1687  0.5048
  163MOL0     H22460   6.267   6.380   7.886  0.9304 -0.5751 -0.1772
  163MOL0     H22461   6.231   6.324   7.721 -1.2730  0.5357  0.0780
  163MOL0     H22462   6.301   6.591   7.823  0.0475  3.6329 -1.8583
  163MOL0     H22463   6.213   6.576   7.673  0.9425  0.5965 -2.0380
  163MOL0     H22464   6.407   6.463   7.564 -3.6200  0.7095  0.4694
  163MOL0     H22465   6.482   6.436   7.723  4.0406  2.8647 -0.9048
  163MOL0     H22466   6.460   6.684   7.564  1.0983  0.4984  0.4576
  163MOL0     H22467   6.494   6.689   7.737 -1.4181 -0.4038 -0.0057
  163MOL0     H22468   6.668   6.540   7.531 -1.4105 -0.1780  0.0410
  163MOL0     H22469   6.695   6.547   7.702  2.6397 -1.4288 -2.2987
  163MOL0     H22470   6.723   6.778   7.697 -3.2764 -0.5520  1.2290
  163MOL0     H22471   6.655   6.787   7.519 -2.1508 -1.6638  1.2871
  163MOL0     H22472   6.870   6.668   7.468  1.0484 -0.9133  1.0065
  163MOL0     H22473   6.919   6.686   7.640 -0.5538 -0.9248  0.3856
  163MOL0     H22474   5.823   6.464   7.758 -1.9325  1.0371  0.7492
  163MOL0     H22475   5.589   6.433   7.767 -0.5712 -0.6305 -1.5661
  163MOL0     H22476   5.252   6.087   7.542 -1.2203  0.7834 -0.8221
  163MOL0     H22477   5.010   6.099   7.505  0.4180 -5.6912  1.7792
  163MOL0     H22478   3.159   5.930   7.893  3.1178 -1.6940 -0.1182
  163MOL0     H22479   2.920   5.895   7.854  1.1264  0.8882 -0.5754
  163MOL0     H22480   2.576   5.578   7.903 -0.1911 -1.6998 -0.0224
  163MOL0     H22481   2.341   5.486   7.876 -3.2275 -1.1110 -1.9864
  163MOL0     H22482   2.130   5.562   7.838  0.4394  0.2703 -0.0237
  163MOL0     H22483   2.094   5.666   7.706 -2.9737  0.3830  2.1004
  163MOL0     H22484   1.995   5.390   7.735  1.6598  1.6054  1.3526
  163MOL0     H22485   1.981   5.493   7.586 -0.7379  1.7125 -0.2597
  163MOL0     H22486   1.898   5.634   7.826 -0.5343  0.3347  0.8592
  163MOL0     H22487   1.834   5.634   7.661  1.3528  0.3869  0.5026
  163MOL0     H22488   1.692   5.539   7.861 -1.5942 -2.3577  1.3159
  163MOL0     H22489   1.809   5.407   7.855  0.4568 -0.8557 -1.0738
  163MOL0     H22490   1.551   5.297   7.537 -1.3409 -0.9593  1.3762
  163MOL0     H22491   2.343   5.618   7.474  0.5574  2.8387 -0.4934
  163MOL0     H22492   2.538   5.717   7.358  0.8780  1.1039 -0.3103
  163MOL0     H22493   2.628   5.824   7.464  1.1582  0.5958 -0.3849
  163MOL0     H22494   2.682   5.665   7.412 -1.5859 -0.3709 -2.0461
  164MOL0     O22495   4.266   9.416   6.837  0.8793 -0.0183 -0.7537
  164MOL0     C22496   4.274   9.335   6.746  0.8490 -0.3084 -0.7851
  164MOL0     O22497   4.338   9.356   6.633 -0.2977  0.0367  0.3086
  164MOL0     C22498   4.437   9.447   6.615  0.4831  0.7132  0.2703
  164MOL0     C22499   4.422   9.550   6.529  0.0346 -1.1529 -0.1693
  164MOL0     C22500   4.522   9.645   6.501 -0.1823 -0.4379 -0.9213
  164MOL0     C22501   4.641   9.628   6.573  0.5239 -0.0531  0.7361
  164MOL0     O22502   4.734   9.720   6.544  0.1451 -0.5908  0.5838
  164MOL0     C22503   4.861   9.726   6.623 -0.6822  0.1474  0.2542
  164MOL0     C22504   4.966   9.813   6.554 -0.6351 -0.7394  0.1899
  164MOL0     C22505   5.088   9.821   6.638 -0.5941  0.4463 -0.0195
  164MOL0     C22506   5.198   9.903   6.564 -0.3727 -0.4238 -0.0215
  164MOL0     C22507   5.323   9.937   6.651 -0.3996 -0.1694  0.1581
  164MOL0     C22508   5.390  10.043   6.563 -0.3546 -0.8702  0.3268
  164MOL0     C22509   5.528  10.075   6.615  0.5502 -0.5659  0.2184
  164MOL0     C22510   5.529  10.129   6.756 -0.7669 -0.4105  0.2363
  164MOL0     N22511   5.642  10.226   6.771  0.1191  0.2694 -0.7705
  164MOL0     C22512   5.755  10.204   6.836  0.2168  0.5258  0.6277
  164MOL0     C22513   5.824  10.322   6.815 -0.6326 -0.8408 -0.6313
  164MOL0     C22514   5.956  10.368   6.884 -0.1612  1.1532 -0.1889
  164MOL0     C22515   6.038  10.259   6.950  0.7212  0.1352 -0.3267
  164MOL0     C22516   6.190  10.294   6.969  0.0449 -0.8711  0.6140
  164MOL0     C22517   6.255  10.167   7.014 -0.0216  0.6957  0.2643
  164MOL0     O22518   6.393  10.174   7.010  0.0510  0.3977 -0.1320
  164MOL0     C22519   6.452  10.224   7.117 -0.4779 -0.4346 -0.6913
  164MOL0     C22520   6.595  10.231   7.111  0.7979  0.0476 -0.0474
  164MOL0     C22521   6.677  10.289   7.210 -0.3278 -0.4381  0.4517
  164MOL0     C22522   6.830  10.261   7.197 -0.2681 -0.8115 -0.6685
  164MOL0     C22523   6.614  10.360   7.321 -0.5595  0.2533 -0.1241
  164MOL0     C22524   6.687  10.433   7.432  0.1471 -0.0272  0.7244
  164MOL0     O22525   6.822  10.419   7.437  0.3092  0.5392  0.3403
  164MOL0     C22526   6.895  10.487   7.531  0.3243  0.5413 -0.2645
  164MOL0     C22527   6.952  10.416   7.634 -0.9355  0.3227 -0.7144
  164MOL0     C22528   7.032  10.474   7.734  0.3592  0.4960  0.3511
  164MOL0     C22529   7.050  10.616   7.722 -0.0089 -0.5726  0.9510
  164MOL0     O22530   7.134  10.688   7.812 -0.0943 -0.0371 -0.2135
  164MOL0     C22531   7.175  10.611   7.931  0.0734  0.4628 -0.3162
  164MOL0     C22532   7.204  10.703   8.044 -0.3131 -0.5663  0.1986
  164MOL0     C22533   7.330  10.804   8.030  0.0408 -0.7572  0.7213
  164MOL0     C22534   7.454  10.718   8.046 -1.0534  0.7396 -0.0818
  164MOL0     C22535   7.539  10.702   7.913  0.3354  0.5813 -0.4677
  164MOL0     C22536   7.633  10.823   7.899 -0.4061 -0.0350  0.1075
  164MOL0     C22537   7.726  10.818   7.776 -0.1037  0.6867 -0.7599
  164MOL0     C22538   7.799  10.948   7.752 -0.1979  0.0270  0.4476
  164MOL0    Cl22539   7.948  10.975   7.854  0.1318  0.0219  0.4130
  164MOL0     C22540   6.985  10.691   7.624  0.8126 -0.6311 -0.1591
  164MOL0     C22541   6.910  10.625   7.529  0.2336 -0.2930 -0.6350
  164MOL0     O22542   6.619  10.509   7.498  0.0341 -0.2210 -0.0033
  164MOL0     C22543   6.475  10.343   7.330 -0.6957 -0.8189  0.7071
  164MOL0     C22544   6.397  10.284   7.232 -0.1382 -1.1382 -0.3367
  164MOL0     N22545   5.745  10.406   6.739  0.8138  0.1042 -0.2912
  164MOL0     N22546   5.638  10.345   6.711  0.2701  0.1162 -0.0869
  164MOL0     C22547   4.656   9.523   6.667 -0.7673 -0.3019 -0.2557
  164MOL0     C22548   4.556   9.423   6.690 -0.9386 -0.0395  0.4393
  164MOL0     C22549   4.199   9.207   6.755  0.1146 -0.7732  0.0201
  164MOL0     C22550   4.209   9.111   6.646  0.2373 -0.1860 -0.2996
  164MOL0     C22551   4.126   9.004   6.640 -0.1076 -0.0393  0.6824
  164MOL0     C22552   4.044   8.974   6.739 -0.5960 -0.5804 -1.0551
  164MOL0     O22553   3.961   8.866   6.736 -0.0490 -0.3364  0.0729
  164MOL0     C22554   3.889   8.832   6.617  0.6196  0.1473  0.4738
  164MOL0     C22555   3.777   8.743   6.677  0.0314 -0.3032 -0.1295
  164MOL0     C22556   3.698   8.666   6.578 -0.1984 -0.3220  0.4952
  164MOL0     C22557   3.575   8.595   6.639  0.5427  0.4887  0.3158
  164MOL0     C22558   3.547   8.461   6.582 -0.8204 -0.3760 -0.0583
  164MOL0     C22559   3.522   8.350   6.541  0.1634  0.1520  0.5386
  164MOL0     C22560   4.045   9.046   6.853 -0.3266  0.6065  0.4835
  164MOL0     C22561   4.113   9.164   6.861 -0.1399 -0.1701 -0.1788
  164MOL0     C22562   4.101   9.234   6.998  0.0463  0.0538  0.0831
  164MOL0     H22563   4.330   9.554   6.472  0.1482 -1.4618 -0.3762
  164MOL0     H22564   4.493   9.713   6.422 -2.8654 -0.6247 -0.2154
  164MOL0     H22565   4.911   9.630   6.636  1.2796  1.4039  2.9451
  164MOL0     H22566   4.825   9.771   6.716 -1.4161  0.5147 -0.1948
  164MOL0     H22567   4.993   9.762   6.461  0.0612  1.9100 -1.1584
  164MOL0     H22568   4.921   9.911   6.535 -0.6019 -0.6667  0.4757
  164MOL0     H22569   5.053   9.868   6.730 -3.9335 -0.0058 -0.9292
  164MOL0     H22570   5.128   9.721   6.656  0.1711  0.8300  0.4795
  164MOL0     H22571   5.236   9.849   6.477 -1.2987 -1.1478  0.0106
  164MOL0     H22572   5.157   9.995   6.521 -0.5467  0.3468  1.7148
  164MOL0     H22573   5.386   9.850   6.668  1.5994  1.2299  0.1968
  164MOL0     H22574   5.285   9.979   6.745 -0.9212 -0.6423  0.1645
  164MOL0     H22575   5.397  10.008   6.460 -0.9264  1.2875 -0.4935
  164MOL0     H22576   5.331  10.136   6.567 -0.9233 -1.1379 -1.3120
  164MOL0     H22577   5.561  10.149   6.542 -1.8397  0.9891  0.5941
  164MOL0     H22578   5.594   9.988   6.621  0.0356 -0.9227  0.8571
  164MOL0     H22579   5.434  10.174   6.785 -1.1921 -1.9706  1.4330
  164MOL0     H22580   5.539  10.046   6.827  2.7905 -0.9329 -0.6733
  164MOL0     H22581   5.780  10.116   6.894 -0.3200 -0.0163  0.0574
  164MOL0     H22582   5.931  10.441   6.962  3.5247  0.2978  2.0037
  164MOL0     H22583   6.003  10.410   6.795  1.1973 -1.0266 -0.5456
  164MOL0     H22584   6.001  10.243   7.051 -0.0048 -1.8400 -0.8459
  164MOL0     H22585   6.020  10.164   6.899 -2.1800  0.4164 -0.0189
  164MOL0     H22586   6.245  10.327   6.880 -1.0148  0.0775  0.2877
  164MOL0     H22587   6.206  10.382   7.032 -0.6775  0.5041 -1.0302
  164MOL0     H22588   6.216  10.132   7.110 -2.2365 -0.6544 -1.0521
  164MOL0     H22589   6.225  10.090   6.942 -0.2940  1.0798 -0.0341
  164MOL0     H22590   6.646  10.173   7.034  1.4065 -0.0734  0.4341
  164MOL0     H22591   6.896  10.347   7.191  1.7842 -2.3902 -2.2490
  164MOL0     H22592   6.855  10.231   7.095 -0.1561  0.4686 -1.0370
  164MOL0     H22593   6.871  10.205   7.281  0.2880  0.5640  0.0087
  164MOL0     H22594   6.925  10.312   7.643 -0.0740  0.2279  1.2835
  164MOL0     H22595   7.076  10.400   7.801  1.0212  0.5771  0.0194
  164MOL0     H22596   7.101  10.540   7.971  1.1579 -1.7880 -2.0855
  164MOL0     H22597   7.261  10.553   7.897 -0.6876  0.2308 -1.9646
  164MOL0     H22598   7.108  10.752   8.063 -0.7555 -0.6697 -1.5493
  164MOL0     H22599   7.219  10.639   8.131  1.4074  0.8888  1.0380
  164MOL0     H22600   7.329  10.873   8.114  0.5314  0.0280  0.0929
  164MOL0     H22601   7.331  10.857   7.934 -1.5999 -0.0213  1.0744
  164MOL0     H22602   7.439  10.628   8.107  3.8475  0.6447  1.4145
  164MOL0     H22603   7.521  10.759   8.122 -0.2187 -2.7893  1.3137
  164MOL0     H22604   7.596  10.610   7.929 -1.2171  0.1023  3.4710
  164MOL0     H22605   7.471  10.699   7.827  0.1140  3.9283 -0.5268
  164MOL0     H22606   7.687  10.843   7.992 -2.5019  0.2946  1.3028
  164MOL0     H22607   7.564  10.908   7.894 -1.0143 -0.4880  0.6858
  164MOL0     H22608   7.666  10.813   7.686 -0.2918 -0.3742 -0.5893
  164MOL0     H22609   7.785  10.726   7.785 -1.9397 -0.5852 -1.2680
  164MOL0     H22610   7.728  11.031   7.746 -0.5978 -0.3036  0.5717
  164MOL0     H22611   7.842  10.953   7.651 -0.0994  0.3570  0.5045
  164MOL0     H22612   6.998  10.798   7.624 -0.7271 -0.3515 -2.7690
  164MOL0     H22613   6.849  10.688   7.465 -0.3820  1.3030  1.4210
  164MOL0     H22614   6.416  10.379   7.414 -1.7630  2.7312 -1.3587
  164MOL0     H22615   6.290  10.290   7.246  0.2054  4.7306  3.2477
  164MOL0     H22616   4.750   9.517   6.720 -1.2356 -3.6551  0.4189
  164MOL0     H22617   4.571   9.338   6.754  1.1984  1.7971  2.5469
  164MOL0     H22618   4.265   9.141   6.559  0.3370  1.7828  0.3770
  164MOL0     H22619   4.135   8.951   6.546  3.7171 -1.6269  1.7112
  164MOL0     H22620   3.858   8.917   6.556 -1.3810  0.5205  1.8942
  164MOL0     H22621   3.956   8.773   6.554 -3.0013 -1.1091 -2.4854
  164MOL0     H22622   3.703   8.809   6.723 -0.6963  0.1412 -1.8707
  164MOL0     H22623   3.812   8.674   6.755  0.7981 -0.8495 -0.9360
  164MOL0     H22624   3.661   8.729   6.497  1.1322 -0.1948 -0.0331
  164MOL0     H22625   3.762   8.587   6.537  0.7422  1.9646 -2.8343
  164MOL0     H22626   3.498   8.671   6.624 -3.1136 -3.2939 -2.6051
  164MOL0     H22627   3.599   8.574   6.744 -0.9539 -1.6572  0.2896
  164MOL0     H22628   3.501   8.248   6.515  1.1851  0.1972 -0.5427
  164MOL0     H22629   3.980   9.007   6.931 -0.1131 -1.1242 -0.1585
  164MOL0     H22630   4.027   9.182   7.059  0.2687 -0.1181  0.2062
  164MOL0     H22631   4.195   9.234   7.054 -1.3925  1.6052  2.6857
  164MOL0     H22632   4.055   9.332   6.979 -2.5824 -1.3312 -1.2754
  165MOL0     O22633   3.406   3.827   3.639 -0.4669 -0.9908 -0.1300
  165MOL0     C22634   3.436   3.727   3.703 -0.3678 -1.1536  0.5605
  165MOL0     O22635   3.544   3.650   3.688 -0.6958 -0.1475  0.3773
  165MOL0     C22636   3.649   3.668   3.602  0.6412 -0.3822  0.1111
  165MOL0     C22637   3.643   3.735   3.480 -0.3135  0.9826 -0.0650
  165MOL0     C22638   3.771   3.745   3.409 -0.3902  0.2768  0.1301
  165MOL0     C22639   3.894   3.705   3.464 -0.4227 -0.2230  0.7520
  165MOL0     O22640   4.003   3.723   3.379 -0.0962 -0.3986 -1.0847
  165MOL0     C22641   4.127   3.739   3.453  0.0395  0.3960 -0.7708
  165MOL0     C22642   4.239   3.763   3.349 -0.3641  0.4907 -0.4529
  165MOL0     C22643   4.273   3.652   3.245 -0.8322 -0.4789 -0.3398
  165MOL0     C22644   4.394   3.691   3.166 -0.5554  0.2398 -0.2854
  165MOL0     C22645   4.397   3.626   3.030  0.1196 -0.3310 -0.1917
  165MOL0     C22646   4.511   3.681   2.941 -0.1104  0.5060  0.3414
  165MOL0     C22647   4.526   3.604   2.800  0.0568  0.5058  0.4320
  165MOL0     C22648   4.575   3.458   2.813 -0.3346  0.1569  0.3551
  165MOL0     N22649   4.715   3.441   2.867 -0.3185 -0.1244 -0.1866
  165MOL0     C22650   4.832   3.493   2.820  0.1336  0.0885  0.3552
  165MOL0     C22651   4.925   3.474   2.919  0.2775  0.6039  0.4671
  165MOL0     C22652   5.067   3.508   2.901 -0.9074 -0.2759 -0.2412
  165MOL0     C22653   5.171   3.411   2.973 -0.5611  0.3448 -0.1454
  165MOL0     C22654   5.197   3.286   2.888  0.0256  0.7103  0.0204
  165MOL0     C22655   5.278   3.187   2.958  0.4231  0.1469 -0.4562
  165MOL0     O22656   5.408   3.243   2.983  0.1565 -0.5088 -0.2888
  165MOL0     C22657   5.502   3.175   3.056 -0.4918 -0.4087  0.3201
  165MOL0     C22658   5.495   3.034   3.067 -0.5112  0.2261 -0.1607
  165MOL0     C22659   5.595   2.957   3.118 -0.6197 -0.2630 -0.0094
  165MOL0     C22660   5.567   2.810   3.131  0.4465  0.3778  0.1555
  165MOL0     C22661   5.716   3.023   3.165 -0.4036 -0.1463  1.0987
  165MOL0     C22662   5.835   2.955   3.217 -0.6078  0.1340  0.9421
  165MOL0     O22663   5.920   3.034   3.300 -0.4483  0.5190 -0.3963
  165MOL0     C22664   6.046   2.995   3.313 -1.2777  0.2624 -0.7074
  165MOL0     C22665   6.099   2.957   3.437 -0.9424  0.7350 -0.5679
  165MOL0     C22666   6.233   2.909   3.449  0.2961  0.3555  0.3135
  165MOL0     C22667   6.314   2.897   3.334 -0.1946 -0.2142 -0.0491
  165MOL0     O22668   6.433   2.826   3.341 -0.3092 -0.0482 -0.1312
  165MOL0     C22669   6.528   2.856   3.234 -0.3841  0.2156  0.2187
  165MOL0     C22670   6.534   2.757   3.118 -0.2843 -0.4645 -0.8171
  165MOL0     C22671   6.671   2.760   3.056 -0.3780  0.3846 -1.1565
  165MOL0     C22672   6.655   2.701   2.918 -0.2375  0.1353  0.0537
  165MOL0     C22673   6.794   2.680   2.849 -0.6107 -0.8941  0.4143
  165MOL0     C22674   6.776   2.610   2.716  0.5364 -0.3961 -0.5359
  165MOL0     C22675   6.914   2.605   2.661 -0.1509  0.6569  0.5098
  165MOL0     C22676   6.916   2.490   2.558 -0.4005  0.0897  0.4833
  165MOL0    Cl22677   6.814   2.529   2.415 -0.0344  0.7306 -0.1219
  165MOL0     C22678   6.259   2.937   3.209  1.0302  0.1278  0.1538
  165MOL0     C22679   6.130   2.984   3.205 -0.5585 -0.4265  0.9203
  165MOL0     O22680   5.866   2.851   3.164  0.5417  0.1148  0.0031
  165MOL0     C22681   5.718   3.167   3.155 -0.3433 -0.0020  0.5051
  165MOL0     C22682   5.613   3.246   3.102 -0.1621  0.6048 -0.7817
  165MOL0     N22683   4.863   3.421   3.029  0.0689  0.1828  0.0656
  165MOL0     N22684   4.745   3.402   2.995  0.5387 -0.4669 -0.0081
  165MOL0     C22685   3.888   3.649   3.589 -1.5521 -0.2179  0.3840
  165MOL0     C22686   3.770   3.627   3.660  0.5294  0.3105 -0.2457
  165MOL0     C22687   3.339   3.675   3.803 -0.0176  0.1111 -0.1384
  165MOL0     C22688   3.368   3.545   3.859 -0.0785 -1.0503 -0.6019
  165MOL0     C22689   3.281   3.482   3.942 -0.4161 -0.0399  0.4616
  165MOL0     C22690   3.156   3.529   3.961  0.1137  0.3347 -0.7437
  165MOL0     O22691   3.061   3.453   4.030 -1.0737  0.4845 -0.6620
  165MOL0     C22692   2.929   3.475   3.998 -0.6281 -0.4471  1.0439
  165MOL0     C22693   2.844   3.355   4.035  0.1897  0.5593 -0.4095
  165MOL0     C22694   2.909   3.212   3.996  0.4676  0.2692  0.3342
  165MOL0     C22695   2.963   3.191   3.850 -0.1464  0.0229  0.4848
  165MOL0     C22696   2.864   3.206   3.745  0.2362 -1.1151  0.7143
  165MOL0     C22697   2.778   3.227   3.660  1.2565 -0.3415  0.7877
  165MOL0     C22698   3.132   3.664   3.924  0.3649  0.1511 -0.1787
  165MOL0     C22699   3.224   3.739   3.851 -0.5172 -0.6260 -0.2259
  165MOL0     C22700   3.193   3.879   3.821 -0.0148  0.6221 -1.2176
  165MOL0     H22701   3.547   3.758   3.434 -0.5800  0.2419  0.1142
  165MOL0     H22702   3.775   3.785   3.309 -1.2214  3.6472  1.2991
  165MOL0     H22703   4.158   3.650   3.510 -1.3148  1.0424  1.0817
  165MOL0     H22704   4.121   3.814   3.533  1.6408 -1.0268  0.7879
  165MOL0     H22705   4.209   3.852   3.294 -0.0300  0.8783 -0.0099
  165MOL0     H22706   4.334   3.793   3.396 -0.7272 -0.0445  0.6712
  165MOL0     H22707   4.264   3.549   3.283 -2.6615 -0.5642 -0.8834
  165MOL0     H22708   4.189   3.674   3.178 -0.9691  3.3531  0.8537
  165MOL0     H22709   4.397   3.800   3.151  0.4465  0.6115  2.1428
  165MOL0     H22710   4.479   3.671   3.232  0.3223  2.2837 -0.7024
  165MOL0     H22711   4.303   3.648   2.978  0.3326 -1.0158 -0.8818
  165MOL0     H22712   4.408   3.518   3.040  1.7070 -0.1156  0.6633
  165MOL0     H22713   4.497   3.788   2.926 -1.1499  0.0402 -2.5928
  165MOL0     H22714   4.610   3.675   2.987  0.5711  1.6009 -0.9044
  165MOL0     H22715   4.603   3.660   2.747  0.2717  1.6320  1.8504
  165MOL0     H22716   4.439   3.607   2.734  0.4375 -0.9090 -0.1613
  165MOL0     H22717   4.502   3.396   2.865 -1.6098  0.0808 -1.4595
  165MOL0     H22718   4.590   3.416   2.713 -0.6547  0.0902  0.3326
  165MOL0     H22719   4.852   3.530   2.720 -0.8745 -2.6432 -0.9771
  165MOL0     H22720   5.081   3.611   2.936 -0.2216 -0.4400 -0.0075
  165MOL0     H22721   5.088   3.524   2.795  0.6023  1.6416  0.2809
  165MOL0     H22722   5.265   3.454   3.010  0.1107 -0.9235 -0.3539
  165MOL0     H22723   5.117   3.370   3.059 -2.1938  0.6211 -0.9806
  165MOL0     H22724   5.099   3.240   2.871  1.1709 -1.0780 -2.2613
  165MOL0     H22725   5.245   3.304   2.792  1.2226 -2.4042 -0.0811
  165MOL0     H22726   5.243   3.170   3.061  1.0933  2.9190  0.3143
  165MOL0     H22727   5.283   3.094   2.901 -1.8106 -0.0369 -0.4509
  165MOL0     H22728   5.410   2.973   3.039  0.7670 -1.1571 -1.2816
  165MOL0     H22729   5.627   2.764   3.211  1.3240 -0.2476 -0.8412
  165MOL0     H22730   5.593   2.776   3.030  1.0314  0.5341  0.2451
  165MOL0     H22731   5.463   2.785   3.151  0.2526  0.5234 -0.6370
  165MOL0     H22732   6.039   2.955   3.527 -0.7833 -0.5793 -0.4661
  165MOL0     H22733   6.271   2.876   3.546  2.0247  0.3941 -0.3216
  165MOL0     H22734   6.499   2.955   3.197 -0.8179  0.3313  0.8654
  165MOL0     H22735   6.623   2.867   3.287 -0.7471 -0.5362  1.0491
  165MOL0     H22736   6.514   2.659   3.163  2.4551 -0.4977  0.5206
  165MOL0     H22737   6.463   2.783   3.039  0.1955  0.0388 -1.0879
  165MOL0     H22738   6.747   2.713   3.119 -1.4980 -0.1094 -0.1372
  165MOL0     H22739   6.697   2.865   3.044 -0.5541  0.5104 -0.4527
  165MOL0     H22740   6.589   2.770   2.865 -0.3732  2.3811  2.8947
  165MOL0     H22741   6.604   2.605   2.934  0.6375 -0.4183 -0.4388
  165MOL0     H22742   6.830   2.780   2.823 -1.4546  0.2246  3.2111
  165MOL0     H22743   6.861   2.628   2.917 -0.3749 -1.1937 -0.0450
  165MOL0     H22744   6.711   2.677   2.659  0.3981  0.1218  0.2290
  165MOL0     H22745   6.734   2.510   2.729  3.5725 -1.5435  1.5916
  165MOL0     H22746   6.981   2.578   2.744  0.3596 -0.6075 -0.2870
  165MOL0     H22747   6.950   2.699   2.617  1.2126  0.3231  0.8405
  165MOL0     H22748   6.896   2.389   2.596  3.3472 -1.1026 -0.2344
  165MOL0     H22749   7.019   2.490   2.520  0.1751 -1.6724  1.8765
  165MOL0     H22750   6.322   2.923   3.122  0.5846  0.4330 -0.2235
  165MOL0     H22751   6.087   3.001   3.106 -0.5087 -1.5502  0.6957
  165MOL0     H22752   5.807   3.213   3.198 -0.3117  0.7758 -0.3708
  165MOL0     H22753   5.604   3.354   3.090 -3.5137  0.7118  1.2494
  165MOL0     H22754   3.985   3.620   3.628  0.7868 -0.9849 -5.0425
  165MOL0     H22755   3.767   3.588   3.761 -1.3604 -0.4102 -0.5361
  165MOL0     H22756   3.463   3.496   3.838 -0.5557 -1.2486 -2.4854
  165MOL0     H22757   3.299   3.380   3.974 -0.8439  0.2395  1.6246
  165MOL0     H22758   2.893   3.568   4.044  4.0014  1.3281  1.5527
  165MOL0     H22759   2.924   3.472   3.889  0.6131  1.4914  0.9113
  165MOL0     H22760   2.742   3.373   4.000  0.2105  1.7342  0.0822
  165MOL0     H22761   2.826   3.343   4.142 -0.7485 -0.1680 -0.6419
  165MOL0     H22762   2.993   3.185   4.061 -0.4368 -2.4784  0.4841
  165MOL0     H22763   2.831   3.137   4.014  1.3932 -0.2689  2.4574
  165MOL0     H22764   3.023   3.101   3.836 -0.6256 -0.1304 -0.6887
  165MOL0     H22765   3.045   3.260   3.826 -0.3963 -0.1687 -1.0058
  165MOL0     H22766   2.704   3.252   3.587  1.0596  2.0685  1.7218
  165MOL0     H22767   3.036   3.711   3.944  0.8444  1.2200 -0.2920
  165MOL0     H22768   3.123   3.931   3.887  1.4748  2.8003 -1.2376
  165MOL0     H22769   3.288   3.934   3.821 -0.0913  0.8383 -2.9614
  165MOL0     H22770   3.156   3.895   3.719  1.5237 -2.1545 -2.2975
  166MOL0     O22771   1.388  10.743   2.590 -0.4807  0.7543  0.3346
  166MOL0     C22772   1.341  10.835   2.519 -0.3983  0.3577 -0.3004
  166MOL0     O22773   1.420  10.930   2.453 -0.1369 -0.2883 -0.0006
  166MOL0     C22774   1.553  10.902   2.407 -0.1808  0.3315 -0.0639
  166MOL0     C22775   1.657  10.857   2.497 -0.5862 -0.2691  0.0417
  166MOL0     C22776   1.792  10.859   2.446  0.3305  0.5385  0.1753
  166MOL0     C22777   1.816  10.892   2.314  0.6072 -0.0275 -0.0302
  166MOL0     O22778   1.943  10.904   2.266  0.6205  0.0823 -0.2166
  166MOL0     C22779   2.049  10.865   2.348  0.4255 -0.4274 -0.8345
  166MOL0     C22780   2.180  10.855   2.275  0.4377 -0.1945 -0.3597
  166MOL0     C22781   2.255  10.987   2.257  0.0664 -0.3544  0.0755
  166MOL0     C22782   2.405  10.962   2.205 -0.3448  0.7170 -0.0182
  166MOL0     C22783   2.474  11.089   2.186  0.2053 -0.4774  0.6142
  166MOL0     C22784   2.627  11.081   2.151 -0.0332 -0.9624  0.2215
  166MOL0     C22785   2.685  11.222   2.136 -1.2079  0.3080  0.4647
  166MOL0     C22786   2.841  11.229   2.124  0.4615  0.6054  0.6099
  166MOL0     N22787   2.873  11.160   2.003 -0.6050 -0.3856  0.0530
  166MOL0     C22788   2.868  11.224   1.883  0.5969  0.7721  0.6095
  166MOL0     C22789   2.889  11.126   1.786 -0.1850 -1.1654 -0.2726
  166MOL0     C22790   2.883  11.143   1.636  0.8538 -0.7981  0.3412
  166MOL0     C22791   3.031  11.155   1.577 -0.7692 -0.8443  0.3535
  166MOL0     C22792   3.137  11.232   1.662  0.6738  0.3964 -0.3289
  166MOL0     C22793   3.271  11.242   1.581 -0.5038 -0.9022  1.1303
  166MOL0     O22794   3.250  11.345   1.479  0.0246  0.1433  0.5307
  166MOL0     C22795   3.356  11.417   1.468 -0.3182 -1.1699  0.7836
  166MOL0     C22796   3.371  11.534   1.552  0.3740  0.4011  0.2426
  166MOL0     C22797   3.487  11.611   1.550 -0.0880  0.5887  0.6900
  166MOL0     C22798   3.486  11.734   1.636 -0.3747 -0.0554 -0.2829
  166MOL0     C22799   3.602  11.571   1.476  0.3090  0.3849  0.2516
  166MOL0     C22800   3.728  11.638   1.473  0.0599 -0.0982 -0.5249
  166MOL0     O22801   3.838  11.564   1.443 -0.0863  0.1749  0.3126
  166MOL0     C22802   3.960  11.617   1.418  0.2241 -0.4920 -0.6068
  166MOL0     C22803   4.036  11.528   1.344 -0.1072  0.6853  1.0389
  166MOL0     C22804   4.166  11.557   1.310  0.8219  0.2021  0.3167
  166MOL0     C22805   4.230  11.681   1.353  0.3638 -0.0581 -0.3637
  166MOL0     O22806   4.359  11.721   1.342 -0.2050  0.3199 -0.6953
  166MOL0     C22807   4.423  11.678   1.217 -0.7446 -0.7522 -0.5832
  166MOL0     C22808   4.554  11.601   1.246  0.0108  0.5092  0.0059
  166MOL0     C22809   4.515  11.465   1.315 -0.8507  0.7718 -0.8975
  166MOL0     C22810   4.630  11.369   1.331 -0.5302 -0.2981 -0.3165
  166MOL0     C22811   4.602  11.222   1.361  0.0121 -0.2279 -0.8243
  166MOL0     C22812   4.722  11.143   1.403 -0.0477  0.0852  0.1625
  166MOL0     C22813   4.857  11.171   1.331 -0.1845 -0.9037  0.6519
  166MOL0     C22814   4.978  11.080   1.377  0.5897 -0.4840  0.8178
  166MOL0    Cl22815   4.927  10.906   1.409  0.1372 -0.3381  0.1823
  166MOL0     C22816   4.145  11.768   1.420  0.0995 -0.1493  0.3734
  166MOL0     C22817   4.014  11.745   1.446 -0.2765  0.1757 -0.7649
  166MOL0     O22818   3.718  11.759   1.480  0.2480 -0.2264  0.0160
  166MOL0     C22819   3.585  11.461   1.394 -0.5984 -0.0031  0.8743
  166MOL0     C22820   3.470  11.383   1.390  0.6816  0.4435 -0.1721
  166MOL0     N22821   2.926  11.014   1.852  0.3755  0.5149 -0.3892
  166MOL0     N22822   2.923  11.038   1.981  0.0689  0.0752 -0.4120
  166MOL0     C22823   1.707  10.923   2.228 -0.6972  0.4080 -0.9835
  166MOL0     C22824   1.580  10.929   2.275 -0.3908  0.4405 -0.2995
  166MOL0     C22825   1.191  10.850   2.520  0.1624 -0.0820  0.1720
  166MOL0     C22826   1.139  10.946   2.437  0.5029 -0.3160  0.2481
  166MOL0     C22827   1.005  10.977   2.437 -0.0131 -0.4916 -0.0264
  166MOL0     C22828   0.918  10.899   2.510  1.3800  0.0678 -1.1606
  166MOL0     O22829   0.778  10.896   2.507  0.1515  0.2822 -0.3231
  166MOL0     C22830   0.727  11.003   2.430  0.2157 -0.1795 -0.4385
  166MOL0     C22831   0.586  11.029   2.476  0.7810  0.5858  0.6026
  166MOL0     C22832   0.522  11.133   2.371 -0.1159  0.0268  1.0884
  166MOL0     C22833   0.377  11.181   2.397 -0.3521 -0.1746 -0.4044
  166MOL0     C22834   0.280  11.064   2.371 -0.2741  0.3574  0.4719
  166MOL0     C22835   0.192  10.991   2.332  0.8337 -0.0153  0.2855
  166MOL0     C22836   0.968  10.797   2.593 -0.4895 -0.7833 -0.0271
  166MOL0     C22837   1.102  10.781   2.607 -0.0345  0.6009  0.0929
  166MOL0     C22838   1.146  10.679   2.708 -0.3922  0.2593  0.2360
  166MOL0     H22839   1.632  10.840   2.601 -2.1462 -0.5926 -0.3506
  166MOL0     H22840   1.867  10.830   2.518 -0.6522  0.1606  1.0779
  166MOL0     H22841   2.031  10.763   2.383  0.3949 -1.4788 -3.6061
  166MOL0     H22842   2.054  10.935   2.432 -5.4274 -0.6896  0.1261
  166MOL0     H22843   2.243  10.782   2.328  0.2532 -0.9013 -1.0855
  166MOL0     H22844   2.154  10.805   2.181  0.9672 -1.3082  0.0721
  166MOL0     H22845   2.216  11.053   2.180  2.3864 -1.2848 -2.0392
  166MOL0     H22846   2.269  11.036   2.354  2.5651  0.8597 -0.8078
  166MOL0     H22847   2.457  10.904   2.281 -1.6214 -1.7740 -0.9393
  166MOL0     H22848   2.403  10.909   2.110  3.7558  2.6694 -1.4219
  166MOL0     H22849   2.471  11.149   2.277 -0.4816 -0.4407  0.5716
  166MOL0     H22850   2.430  11.153   2.109 -1.8987 -0.6383  1.6361
  166MOL0     H22851   2.681  11.026   2.229 -0.6513 -1.6905  0.1533
  166MOL0     H22852   2.630  11.033   2.052  0.0274 -3.1341  1.2185
  166MOL0     H22853   2.664  11.290   2.219  3.3035  1.3772  0.9715
  166MOL0     H22854   2.645  11.271   2.046 -0.7948  0.6978  0.4900
  166MOL0     H22855   2.859  11.335   2.108  0.2280  0.1377 -3.9815
  166MOL0     H22856   2.880  11.184   2.216 -0.3463 -0.0455  0.6530
  166MOL0     H22857   2.845  11.329   1.868  1.8572  1.3734  2.5227
  166MOL0     H22858   2.830  11.234   1.607  1.8840  0.1142  1.2075
  166MOL0     H22859   2.831  11.057   1.594  1.4747 -1.6446  1.2553
  166MOL0     H22860   3.080  11.058   1.565  1.4604  0.4848 -2.3922
  166MOL0     H22861   3.020  11.195   1.476 -0.9467 -3.3349 -0.6673
  166MOL0     H22862   3.110  11.335   1.686  0.0893  1.0820 -3.5215
  166MOL0     H22863   3.140  11.175   1.755 -2.3703 -1.3655 -1.1808
  166MOL0     H22864   3.351  11.265   1.652  0.2255  0.3740 -0.0748
  166MOL0     H22865   3.292  11.144   1.539  2.0563 -0.7228  1.8401
  166MOL0     H22866   3.284  11.564   1.609 -1.8560 -1.9678 -1.6516
  166MOL0     H22867   3.387  11.749   1.680  0.3503 -0.3098  1.5261
  166MOL0     H22868   3.498  11.827   1.579 -1.7625 -0.4507 -1.2780
  166MOL0     H22869   3.562  11.735   1.714 -2.1670  1.5137  1.5667
  166MOL0     H22870   3.989  11.435   1.314 -0.5666  1.3346 -0.3358
  166MOL0     H22871   4.227  11.486   1.255  2.7124  0.6126  1.8083
  166MOL0     H22872   4.365  11.628   1.139  0.0361 -1.5047 -0.6925
  166MOL0     H22873   4.466  11.762   1.162  0.4302 -0.4254  0.7836
  166MOL0     H22874   4.612  11.595   1.154  1.2186 -2.5395  0.8447
  166MOL0     H22875   4.612  11.659   1.318  0.9870  0.3703 -0.6568
  166MOL0     H22876   4.444  11.407   1.255 -0.4427  0.1764 -0.8156
  166MOL0     H22877   4.475  11.482   1.415  3.8328  2.8900  0.9277
  166MOL0     H22878   4.709  11.396   1.401 -0.2056 -0.0027 -0.7926
  166MOL0     H22879   4.689  11.368   1.239  2.9583  0.4119  1.7199
  166MOL0     H22880   4.540  11.238   1.449  0.4472 -0.7521 -0.4179
  166MOL0     H22881   4.550  11.178   1.276 -0.2994 -0.1764 -0.6620
  166MOL0     H22882   4.698  11.036   1.398 -2.4950  0.5965 -0.1519
  166MOL0     H22883   4.743  11.153   1.509 -0.4419  1.4131  0.1378
  166MOL0     H22884   4.896  11.272   1.347  3.5448 -2.0178 -0.3443
  166MOL0     H22885   4.839  11.141   1.227  1.1265 -3.4628  1.0833
  166MOL0     H22886   5.023  11.116   1.470  0.7297 -1.8720  1.3162
  166MOL0     H22887   5.045  11.087   1.291 -1.0251 -1.6471 -0.6108
  166MOL0     H22888   4.182  11.867   1.443 -4.9944  2.1746  0.0751
  166MOL0     H22889   3.952  11.821   1.494  0.5050  0.8833 -0.8588
  166MOL0     H22890   3.670  11.432   1.331 -1.6147  0.6179 -0.8400
  166MOL0     H22891   3.472  11.298   1.323  1.3698  1.3528 -1.3606
  166MOL0     H22892   1.725  10.961   2.128 -0.9659  2.3810 -0.3382
  166MOL0     H22893   1.499  10.965   2.212 -0.0952  2.8813  0.6054
  166MOL0     H22894   1.211  11.012   2.390  0.8462  0.2167  1.4732
  166MOL0     H22895   0.967  11.060   2.379 -0.8705  1.4719  3.1092
  166MOL0     H22896   0.781  11.096   2.449 -2.8840  1.4764  1.0806
  166MOL0     H22897   0.737  10.983   2.323  0.4531  1.3385 -0.7174
  166MOL0     H22898   0.590  11.082   2.572  0.8587  2.9932 -0.6599
  166MOL0     H22899   0.520  10.943   2.467  0.9724  0.4656  0.3524
  166MOL0     H22900   0.579  11.226   2.371  0.9254 -0.5639 -0.5066
  166MOL0     H22901   0.543  11.095   2.270 -0.9515  1.7319  0.2259
  166MOL0     H22902   0.342  11.266   2.338 -0.8154 -1.8071 -2.5936
  166MOL0     H22903   0.371  11.212   2.502 -2.1716 -0.4596 -0.3844
  166MOL0     H22904   0.102  10.935   2.313 -0.7607  1.5563  2.5992
  166MOL0     H22905   0.895  10.738   2.648 -1.2247  2.0446  2.3121
  166MOL0     H22906   1.209  10.600   2.668 -3.5105 -2.0139 -0.5576
  166MOL0     H22907   1.206  10.727   2.786 -1.2531  0.2663  0.9070
  166MOL0     H22908   1.056  10.640   2.757 -0.3976  1.0387  0.8652
  167MOL0     O22909   9.752   8.745   9.662 -0.0784 -0.1028  0.1311
  167MOL0     C22910   9.760   8.818   9.558  0.7658 -0.1798  0.0091
  167MOL0     O22911   9.882   8.858   9.506  0.5174  0.4832  0.0641
  167MOL0     C22912   9.992   8.849   9.588  0.7260 -0.1251 -0.1321
  167MOL0     C22913  10.004   8.934   9.708  0.3826  0.0695  0.0142
  167MOL0     C22914  10.096   8.905   9.812  0.7247  0.0082 -0.2251
  167MOL0     C22915  10.192   8.805   9.789 -0.0965  0.1827 -0.1590
  167MOL0     O22916  10.289   8.782   9.887  0.6468  0.2441 -0.0964
  167MOL0     C22917  10.341   8.889   9.966  0.5695  0.1933  0.0487
  167MOL0     C22918  10.460   8.833  10.051 -0.5172 -0.4714  0.8592
  167MOL0     C22919  10.597   8.832   9.980  0.0997  0.3530 -0.0199
  167MOL0     C22920  10.713   8.766  10.064  0.5263 -0.9991 -0.1067
  167MOL0     C22921  10.835   8.754   9.983  0.1516  0.6316  0.0722
  167MOL0     C22922  10.958   8.701  10.063  0.3863 -0.6758  0.3369
  167MOL0     C22923  10.942   8.567  10.140 -0.3240 -0.0731  0.1244
  167MOL0     C22924  11.065   8.538  10.230  0.3766  1.0312 -0.1839
  167MOL0     N22925  11.194   8.565  10.163 -0.0500  0.0897 -0.5395
  167MOL0     C22926  11.239   8.481  10.064 -1.5032 -0.1541 -0.2635
  167MOL0     C22927  11.352   8.543  10.019 -0.8526 -0.1655 -0.5208
  167MOL0     C22928  11.439   8.499   9.905  0.6991  0.1961 -0.7015
  167MOL0     C22929  11.570   8.473   9.976 -0.6125  0.6122  0.3651
  167MOL0     C22930  11.664   8.426   9.874  0.4646  0.0206 -0.2448
  167MOL0     C22931  11.786   8.395   9.955 -0.6295  0.2583 -0.4273
  167MOL0     O22932  11.889   8.370   9.854 -0.4265  0.1246  0.0429
  167MOL0     C22933  12.015   8.327   9.879  0.0303 -0.6045 -0.0948
  167MOL0     C22934  12.070   8.329  10.004 -0.5569  0.4470 -0.2728
  167MOL0     C22935  12.207   8.297  10.023 -1.3568 -0.2854  0.2892
  167MOL0     C22936  12.266   8.314  10.165  0.0555  0.4007  0.6329
  167MOL0     C22937  12.294   8.245   9.911 -0.0947 -0.6927 -0.5197
  167MOL0     C22938  12.440   8.207   9.917 -0.1651  0.0779 -0.1294
  167MOL0     O22939  12.502   8.149  10.025  0.6310 -0.2779 -0.6650
  167MOL0     C22940  12.639   8.155  10.045 -1.1459 -0.1028  0.7114
  167MOL0     C22941  12.739   8.202   9.952  0.8173  0.0194  0.3443
  167MOL0     C22942  12.876   8.208   9.979 -0.1042 -0.1630 -0.5639
  167MOL0     C22943  12.922   8.150  10.096  0.3567 -0.1687 -1.3009
  167MOL0     O22944  13.057   8.150  10.126  0.1025 -0.3261 -0.3524
  167MOL0     C22945  13.112   8.028  10.078  0.1004  0.2492 -0.1178
  167MOL0     C22946  13.257   8.007  10.127  0.4044 -0.8285  0.4114
  167MOL0     C22947  13.352   8.116  10.088 -1.2629  0.0904 -0.8291
  167MOL0     C22948  13.489   8.107  10.169 -0.0588 -0.4107 -0.6047
  167MOL0     C22949  13.578   8.233  10.135 -0.0168  0.5090  0.0191
  167MOL0     C22950  13.605   8.257   9.986  0.1426  0.0463 -0.0141
  167MOL0     C22951  13.729   8.323   9.940 -0.6451 -0.7320 -0.0579
  167MOL0     C22952  13.799   8.226   9.842 -0.2812  0.1074 -0.4631
  167MOL0    Cl22953  13.852   8.085   9.937  0.6177  0.0219 -0.0196
  167MOL0     C22954  12.832   8.093  10.190  0.1282 -0.7472  0.1502
  167MOL0     C22955  12.694   8.102  10.165  0.2202 -0.0072 -0.6279
  167MOL0     O22956  12.485   8.218   9.804  0.2791 -0.2256  0.0832
  167MOL0     C22957  12.221   8.248   9.792 -0.1772  1.2855 -0.4292
  167MOL0     C22958  12.093   8.280   9.770  1.0362 -0.1786 -0.5174
  167MOL0     N22959  11.374   8.657  10.104 -0.0577 -0.1736  0.5900
  167MOL0     N22960  11.279   8.663  10.186 -0.6188 -0.1691  0.5438
  167MOL0     C22961  10.190   8.729   9.669 -0.0781  0.0951 -0.0123
  167MOL0     C22962  10.092   8.747   9.573  0.0528 -0.1345  0.0287
  167MOL0     C22963   9.636   8.889   9.516  0.5357 -0.7503  1.0663
  167MOL0     C22964   9.534   8.901   9.611 -0.4195  0.1838  0.3554
  167MOL0     C22965   9.408   8.952   9.569 -0.3558 -0.0859  0.0322
  167MOL0     C22966   9.381   9.012   9.449 -0.8014 -0.3260  0.1907
  167MOL0     O22967   9.269   9.076   9.405  0.5264  0.1880  0.5461
  167MOL0     C22968   9.146   9.082   9.489  1.5947 -0.4655 -0.2101
  167MOL0     C22969   9.035   9.169   9.423 -0.9232 -0.5705  0.1953
  167MOL0     C22970   8.999   9.109   9.287 -0.0084 -0.5872  0.6796
  167MOL0     C22971   8.882   9.187   9.225  0.5696 -0.1413 -0.1232
  167MOL0     C22972   8.916   9.327   9.216  0.0364 -0.6864  0.1127
  167MOL0     C22973   8.966   9.435   9.204  0.1114 -0.5857 -0.2466
  167MOL0     C22974   9.486   9.001   9.361  0.2718  0.7320  0.8315
  167MOL0     C22975   9.611   8.944   9.385  0.7630  0.4645 -0.9640
  167MOL0     C22976   9.711   8.910   9.280 -0.6127 -0.5688 -0.1178
  167MOL0     H22977   9.929   9.013   9.714 -1.0040 -0.9015 -2.6206
  167MOL0     H22978  10.101   8.970   9.899  0.1599 -0.2527  0.0015
  167MOL0     H22979  10.259   8.931  10.025  1.1522 -1.6040  2.2733
  167MOL0     H22980  10.368   8.967   9.894  2.0019 -2.3721 -2.4108
  167MOL0     H22981  10.465   8.893  10.143 -1.0207  0.5790  0.2264
  167MOL0     H22982  10.450   8.731  10.089  3.5173 -0.5863  2.1133
  167MOL0     H22983  10.591   8.780   9.884 -1.6554  1.0316 -0.2973
  167MOL0     H22984  10.631   8.934   9.956 -0.8214  0.2569 -1.8900
  167MOL0     H22985  10.728   8.839  10.143  0.7952 -0.3838 -0.7151
  167MOL0     H22986  10.685   8.665  10.095  1.7226 -1.2337  0.2713
  167MOL0     H22987  10.858   8.850   9.935  1.4754 -0.8622 -2.4951
  167MOL0     H22988  10.815   8.690   9.897 -2.9018  0.4049  0.8519
  167MOL0     H22989  11.048   8.701  10.002  0.6260 -2.8380  0.6130
  167MOL0     H22990  10.967   8.777  10.141  2.1026  0.0291 -0.5144
  167MOL0     H22991  10.935   8.484  10.069  0.8972  0.0023 -0.1003
  167MOL0     H22992  10.853   8.569  10.203 -1.1998 -3.3718 -0.8336
  167MOL0     H22993  11.055   8.608  10.313 -0.4339 -0.8095  1.3273
  167MOL0     H22994  11.071   8.435  10.267  2.9115  1.4021  0.6332
  167MOL0     H22995  11.197   8.395  10.013 -1.3448  0.4354 -1.4123
  167MOL0     H22996  11.447   8.574   9.826 -2.5423  0.7240 -0.6334
  167MOL0     H22997  11.394   8.403   9.877  1.3011 -1.0106  2.1362
  167MOL0     H22998  11.605   8.572  10.007 -0.6425  1.0957 -1.0470
  167MOL0     H22999  11.571   8.411  10.066 -1.4064  0.6962  0.4442
  167MOL0     H23000  11.621   8.340   9.823 -0.8919  0.2106  0.5313
  167MOL0     H23001  11.675   8.508   9.802 -2.5804 -0.0178 -0.8960
  167MOL0     H23002  11.818   8.477  10.020  0.1713  0.1947 -0.7353
  167MOL0     H23003  11.775   8.302  10.013  0.5850 -0.1362 -0.7995
  167MOL0     H23004  12.019   8.388  10.080 -2.0106  0.4689 -1.2276
  167MOL0     H23005  12.374   8.297  10.160  0.0714  0.7370 -3.3023
  167MOL0     H23006  12.213   8.238  10.224  0.2439 -0.6232 -0.4721
  167MOL0     H23007  12.248   8.417  10.195  3.6883  2.2813 -2.6160
  167MOL0     H23008  12.708   8.252   9.861  1.3360 -1.1338 -0.4952
  167MOL0     H23009  12.944   8.266   9.917  0.1824 -0.9164 -0.9605
  167MOL0     H23010  13.055   7.940  10.110  1.3186 -0.3366  0.5300
  167MOL0     H23011  13.113   8.027   9.969  0.2314 -0.9031 -0.1198
  167MOL0     H23012  13.250   8.007  10.236 -2.5996  2.9283  0.4285
  167MOL0     H23013  13.294   7.912  10.087  0.2556 -0.8089  0.2254
  167MOL0     H23014  13.303   8.212  10.107 -2.1417 -0.9906  3.3277
  167MOL0     H23015  13.382   8.098   9.984  3.4004 -3.9858  0.8393
  167MOL0     H23016  13.536   8.014  10.139 -0.4780 -1.4772  1.7975
  167MOL0     H23017  13.486   8.091  10.277 -0.4938  0.3472 -0.4956
  167MOL0     H23018  13.531   8.321  10.180 -1.6321 -0.4799  0.3465
  167MOL0     H23019  13.673   8.221  10.189  0.2781  1.0945 -0.3657
  167MOL0     H23020  13.527   8.329   9.958  1.1015  1.3283  0.4913
  167MOL0     H23021  13.590   8.159   9.939 -0.6215  0.7259 -1.2333
  167MOL0     H23022  13.793   8.346  10.026 -0.0841 -2.8678  0.1649
  167MOL0     H23023  13.710   8.413   9.881 -0.1489 -1.6349 -1.6671
  167MOL0     H23024  13.884   8.276   9.794  0.0334 -0.3618 -0.4016
  167MOL0     H23025  13.719   8.199   9.772 -1.8026  3.7842 -0.4044
  167MOL0     H23026  12.870   8.060  10.286 -0.7858 -2.8958 -0.1601
  167MOL0     H23027  12.628   8.072  10.246 -2.5160 -2.4175 -3.4557
  167MOL0     H23028  12.279   8.220   9.705 -0.1161 -2.7296  0.7116
  167MOL0     H23029  12.049   8.286   9.670  1.0756  2.5501 -0.4638
  167MOL0     H23030  10.259   8.646   9.658 -1.1848 -0.6652 -1.7270
  167MOL0     H23031  10.084   8.677   9.490 -0.7087 -0.9213  0.7511
  167MOL0     H23032   9.541   8.852   9.707 -2.0294  0.9886  0.9280
  167MOL0     H23033   9.328   8.938   9.642  1.5575 -3.3393  1.7177
  167MOL0     H23034   9.117   8.979   9.509 -1.2186 -0.1537 -2.1414
  167MOL0     H23035   9.170   9.135   9.581 -0.4988  1.7313 -0.8042
  167MOL0     H23036   9.088   9.262   9.402  0.5395 -1.5393 -0.5056
  167MOL0     H23037   8.950   9.189   9.490 -1.6656  1.7070 -1.3306
  167MOL0     H23038   9.082   9.115   9.217 -1.3967  2.1467 -0.9191
  167MOL0     H23039   8.980   9.002   9.301  0.8742 -0.7074  1.0466
  167MOL0     H23040   8.797   9.162   9.289  0.9275 -1.7462 -0.2354
  167MOL0     H23041   8.869   9.156   9.121  1.4872  0.0077 -0.2904
  167MOL0     H23042   8.998   9.535   9.182 -1.1867 -0.5897 -2.3363
  167MOL0     H23043   9.447   9.031   9.264 -0.8899 -0.2370  0.9766
  167MOL0     H23044   9.757   8.811   9.294  2.1694  0.6138 -0.2597
  167MOL0     H23045   9.665   8.911   9.180  0.9244  1.9317 -0.8798
  167MOL0     H23046   9.792   8.983   9.276 -2.1365  1.2861  1.0108
  168MOL0     O23047   3.295   9.490   0.681 -0.5528  0.1800  0.3199
  168MOL0     C23048   3.323   9.374   0.690 -0.5312  1.0883  0.7020
  168MOL0     O23049   3.408   9.308   0.605  0.1558  0.3332 -1.1444
  168MOL0     C23050   3.501   9.372   0.536 -0.6961  0.8767  0.0196
  168MOL0     C23051   3.578   9.480   0.582  0.4163 -0.5214 -0.3600
  168MOL0     C23052   3.675   9.546   0.501 -0.5015  0.3586  0.5778
  168MOL0     C23053   3.706   9.486   0.381  0.3468 -0.2557  0.2216
  168MOL0     O23054   3.805   9.545   0.312  1.2590  0.1548 -0.0920
  168MOL0     C23055   3.914   9.459   0.278 -0.0480 -0.2801 -0.0482
  168MOL0     C23056   4.031   9.556   0.247 -0.3730  0.7297  0.2162
  168MOL0     C23057   4.137   9.477   0.168  0.8783 -0.1448 -0.2438
  168MOL0     C23058   4.246   9.571   0.114  0.0022  0.3758  0.2630
  168MOL0     C23059   4.393   9.512   0.131  0.5617  0.0311  0.1658
  168MOL0     C23060   4.497   9.597   0.063 -0.2538  0.3880 -0.7287
  168MOL0     C23061   4.636   9.529   0.094  0.2529  0.2424 -0.0555
  168MOL0     C23062   4.745   9.601   0.009 -0.0433  0.0875  0.7367
  168MOL0     N23063   4.788   9.726   0.063  0.1226  0.4566 -0.2580
  168MOL0     C23064   4.858   9.729   0.183  0.1427  0.3641 -0.7439
  168MOL0     C23065   4.910   9.857   0.188  0.3292  0.9576 -0.4166
  168MOL0     C23066   4.976   9.910   0.312  0.0247  0.2749  0.3873
  168MOL0     C23067   5.123   9.878   0.337  0.0307 -0.6192 -0.7237
  168MOL0     C23068   5.214   9.939   0.225 -0.6243 -0.0584  0.3410
  168MOL0     C23069   5.344  10.006   0.272  0.1167  0.4187 -0.1952
  168MOL0     O23070   5.304  10.136   0.326 -0.6074  0.4337  0.4716
  168MOL0     C23071   5.395  10.201   0.396 -0.4071 -0.0138  0.5070
  168MOL0     C23072   5.370  10.334   0.422  0.1791  0.6197 -1.0440
  168MOL0     C23073   5.455  10.413   0.496 -0.1207 -0.2341  0.1537
  168MOL0     C23074   5.410  10.553   0.530  0.7283 -0.5607  0.6475
  168MOL0     C23075   5.581  10.360   0.520  0.0468 -0.0722 -0.0197
  168MOL0     C23076   5.689  10.438   0.587 -1.1220  0.0994  0.1209
  168MOL0     O23077   5.811  10.378   0.604  0.3183 -0.3803  0.4274
  168MOL0     C23078   5.911  10.420   0.678 -0.3896 -0.2059  0.0221
  168MOL0     C23079   6.015  10.326   0.694  0.6302 -0.0286 -0.3376
  168MOL0     C23080   6.131  10.357   0.764  0.4722 -0.4105  0.6220
  168MOL0     C23081   6.153  10.479   0.816  0.2907  0.3571  0.6006
  168MOL0     O23082   6.266  10.514   0.874  0.9831  0.2261 -0.3284
  168MOL0     C23083   6.357  10.411   0.915 -0.0873 -0.2772 -0.0107
  168MOL0     C23084   6.491  10.477   0.951 -1.0107 -0.1609  0.1258
  168MOL0     C23085   6.587  10.486   0.835  0.7764  0.1825 -0.1553
  168MOL0     C23086   6.682  10.366   0.815 -0.3408  0.2435  0.4865
  168MOL0     C23087   6.746  10.368   0.677  0.7599  0.5130  0.2850
  168MOL0     C23088   6.651  10.367   0.552 -0.6335 -0.7253 -0.3674
  168MOL0     C23089   6.710  10.292   0.436 -0.6155  0.5123  1.1692
  168MOL0     C23090   6.799  10.383   0.354  0.3587  0.1474  0.9251
  168MOL0    Cl23091   6.716  10.510   0.276  0.0271  0.2716  0.0269
  168MOL0     C23092   6.058  10.575   0.797 -0.2127 -0.2364  0.1149
  168MOL0     C23093   5.942  10.545   0.727  0.2998 -0.1898 -0.2501
  168MOL0     O23094   5.669  10.553   0.627  0.9562 -0.2020 -0.4554
  168MOL0     C23095   5.615  10.227   0.487 -0.3343  0.0057 -0.4881
  168MOL0     C23096   5.520  10.148   0.430  0.5127  0.4911  0.9487
  168MOL0     N23097   4.865   9.923   0.077 -0.2276 -0.4050  0.5484
  168MOL0     N23098   4.792   9.845   0.001  0.8308 -0.1407 -0.2385
  168MOL0     C23099   3.637   9.371   0.338 -0.1273 -0.1391  0.4950
  168MOL0     C23100   3.534   9.312   0.412 -0.0788  0.5874  0.3683
  168MOL0     C23101   3.263   9.310   0.809 -0.1919 -0.3630  0.0279
  168MOL0     C23102   3.140   9.357   0.867  0.9233 -0.4888  0.2395
  168MOL0     C23103   3.084   9.303   0.985 -0.4378 -0.2917  0.1304
  168MOL0     C23104   3.145   9.191   1.045 -0.1928  0.2181 -0.0651
  168MOL0     O23105   3.089   9.118   1.146  0.1180  0.0559  0.0425
  168MOL0     C23106   2.954   9.140   1.173  0.8410 -0.0362  0.2039
  168MOL0     C23107   2.893   9.022   1.247 -0.0589  0.2430  0.7254
  168MOL0     C23108   2.755   9.039   1.315 -0.2374  0.0630  0.0141
  168MOL0     C23109   2.763   9.127   1.437 -0.6926  0.1080 -0.1518
  168MOL0     C23110   2.634   9.157   1.504  0.2210 -0.1335 -0.2540
  168MOL0     C23111   2.535   9.183   1.573  0.7451  0.0625  0.1977
  168MOL0     C23112   3.263   9.147   0.983  0.3659 -0.4485  0.0779
  168MOL0     C23113   3.325   9.204   0.871 -0.9116 -0.0511  0.4577
  168MOL0     C23114   3.460   9.137   0.842 -0.8190  0.1334  0.1977
  168MOL0     H23115   3.558   9.527   0.678  0.6909 -1.8586  0.3733
  168MOL0     H23116   3.720   9.635   0.543 -1.5224  1.3334 -0.3091
  168MOL0     H23117   3.892   9.401   0.188 -0.8031  0.0692 -0.0998
  168MOL0     H23118   3.937   9.398   0.366  0.6617 -0.2723 -0.2213
  168MOL0     H23119   3.992   9.647   0.200 -1.3386 -1.2443 -3.0738
  168MOL0     H23120   4.070   9.600   0.340 -1.7946  1.7912  0.3424
  168MOL0     H23121   4.183   9.399   0.229 -1.8134 -0.7055  1.1943
  168MOL0     H23122   4.092   9.424   0.083 -2.0403 -0.0025  1.1132
  168MOL0     H23123   4.223   9.582   0.008  1.0120  0.3312  0.0301
  168MOL0     H23124   4.228   9.664   0.169 -0.5457  0.9794 -0.8907
  168MOL0     H23125   4.404   9.407   0.104  1.9645 -1.7739  6.2247
  168MOL0     H23126   4.410   9.521   0.239 -0.0913 -0.6766  0.3305
  168MOL0     H23127   4.476   9.607  -0.044  0.4967  2.1040 -0.7559
  168MOL0     H23128   4.516   9.696   0.106  1.6231 -0.7613  1.3017
  168MOL0     H23129   4.621   9.423   0.072 -1.5377  0.0034  1.9851
  168MOL0     H23130   4.654   9.533   0.201  0.5605  0.4924 -0.1164
  168MOL0     H23131   4.835   9.539   0.010  0.0353  0.2004  1.4366
  168MOL0     H23132   4.704   9.618  -0.091  0.2777  0.6858  0.7002
  168MOL0     H23133   4.863   9.654   0.261  0.1813 -2.7967 -3.5546
  168MOL0     H23134   4.920   9.862   0.393  3.3760 -0.2083  2.6243
  168MOL0     H23135   4.963  10.017   0.331  1.5884  0.4063  0.8657
  168MOL0     H23136   5.148   9.922   0.434  2.1448 -1.6263 -0.7686
  168MOL0     H23137   5.139   9.770   0.347 -0.6603 -0.6128  0.9469
  168MOL0     H23138   5.231   9.863   0.148 -1.1081  0.3557 -0.1842
  168MOL0     H23139   5.167  10.023   0.172  1.0127  0.8016  0.1804
  168MOL0     H23140   5.388   9.935   0.342 -0.6384 -1.5680 -1.6421
  168MOL0     H23141   5.400  10.031   0.182 -0.5795  2.3495 -0.1478
  168MOL0     H23142   5.268  10.369   0.410  0.4601  1.3162 -1.3761
  168MOL0     H23143   5.390  10.563   0.637  1.6088 -1.3162  0.8929
  168MOL0     H23144   5.318  10.569   0.473  2.2841  0.2916 -1.8256
  168MOL0     H23145   5.481  10.626   0.490 -1.4720  0.7443 -1.1496
  168MOL0     H23146   5.989  10.224   0.666 -2.0372  0.4625  0.0528
  168MOL0     H23147   6.193  10.268   0.777 -1.2327 -1.6168  0.7949
  168MOL0     H23148   6.331  10.354   1.005 -0.1216  1.3123  1.0235
  168MOL0     H23149   6.385  10.347   0.831  3.8716  1.4820 -0.2322
  168MOL0     H23150   6.471  10.580   0.982 -2.0387 -0.0309 -0.9050
  168MOL0     H23151   6.548  10.421   1.025  1.9011  3.0079  0.5253
  168MOL0     H23152   6.635  10.584   0.849  0.9638  0.2947 -1.4514
  168MOL0     H23153   6.532  10.511   0.744 -0.4335  1.4392  0.8761
  168MOL0     H23154   6.624  10.274   0.818  3.5882 -2.5803 -1.8654
  168MOL0     H23155   6.760  10.361   0.891  0.4349 -2.8502 -0.3981
  168MOL0     H23156   6.820  10.448   0.669 -0.8284  1.9310 -1.0011
  168MOL0     H23157   6.800  10.274   0.662 -0.3153  0.1887 -2.1254
  168MOL0     H23158   6.641  10.474   0.531 -1.1864  0.1578  3.6902
  168MOL0     H23159   6.558  10.314   0.576  1.1534 -3.1736  1.6535
  168MOL0     H23160   6.637  10.247   0.368  0.2984 -0.5202  0.8379
  168MOL0     H23161   6.757  10.200   0.473 -1.1832  0.9457  3.1108
  168MOL0     H23162   6.856  10.325   0.281 -0.7344  0.5363 -0.2738
  168MOL0     H23163   6.888  10.409   0.413  1.2181 -1.6769  0.5112
  168MOL0     H23164   6.068  10.680   0.821  2.7531 -0.1896 -0.8892
  168MOL0     H23165   5.875  10.631   0.720  0.8097  0.4743  2.0973
  168MOL0     H23166   5.718  10.205   0.511  0.9034  2.2740 -3.0796
  168MOL0     H23167   5.542  10.044   0.409 -1.9550  0.0074  0.4727
  168MOL0     H23168   3.658   9.331   0.240 -0.2395  0.8201  0.0693
  168MOL0     H23169   3.478   9.230   0.367  0.2223  2.2849 -3.4343
  168MOL0     H23170   3.089   9.441   0.820  0.5370  1.3771  3.6594
  168MOL0     H23171   2.991   9.338   1.029  0.4431  0.3147  1.5760
  168MOL0     H23172   2.944   9.227   1.239 -2.6942 -0.3543  0.3104
  168MOL0     H23173   2.893   9.153   1.083  0.7092 -1.4694  0.0756
  168MOL0     H23174   2.959   8.985   1.326  0.0721  1.6413  1.3058
  168MOL0     H23175   2.886   8.951   1.164 -3.6370  1.1482  0.0921
  168MOL0     H23176   2.675   9.076   1.250 -1.3111  1.0099  1.7867
  168MOL0     H23177   2.726   8.939   1.348  1.4296 -0.4342  0.0450
  168MOL0     H23178   2.804   9.227   1.421 -1.2310  1.0115  3.3424
  168MOL0     H23179   2.835   9.084   1.507 -0.9068  1.5270  0.9742
  168MOL0     H23180   2.453   9.213   1.635  0.7038  1.2170 -0.3963
  168MOL0     H23181   3.303   9.058   1.030 -3.8662 -1.3019  2.6091
  168MOL0     H23182   3.487   9.066   0.921 -2.6992 -0.1088  0.6541
  168MOL0     H23183   3.466   9.086   0.746  1.1994 -0.0144  0.3531
  168MOL0     H23184   3.536   9.216   0.853 -1.1089  0.3793  0.4785
  169MOL0     O23185   0.616   9.166  10.109 -0.3604 -0.1587 -0.4481
  169MOL0     C23186   0.531   9.236  10.161 -0.7490  0.2217 -0.8419
  169MOL0     O23187   0.551   9.375  10.164  0.5563  0.0813 -0.5715
  169MOL0     C23188   0.664   9.434  10.107 -0.0242  0.1335 -0.3662
  169MOL0     C23189   0.686   9.423   9.969  0.0520 -1.0855 -0.3717
  169MOL0     C23190   0.804   9.469   9.908 -0.5570  0.5812 -0.0364
  169MOL0     C23191   0.901   9.537   9.982 -0.3008  0.5983 -0.4547
  169MOL0     O23192   1.008   9.587   9.912  0.0328  0.2797 -0.3208
  169MOL0     C23193   1.137   9.558   9.975  0.7503  0.4795  0.8132
  169MOL0     C23194   1.227   9.571   9.852  0.6785 -0.0025  0.6733
  169MOL0     C23195   1.373   9.574   9.889 -0.3042  0.3365  0.4637
  169MOL0     C23196   1.461   9.591   9.766 -0.1190  0.5290  0.3509
  169MOL0     C23197   1.602   9.560   9.796  0.6743  0.2655 -0.5344
  169MOL0     C23198   1.673   9.666   9.874  0.1814 -0.3580 -0.7902
  169MOL0     C23199   1.822   9.637   9.847  0.2155  1.1997 -0.4710
  169MOL0     C23200   1.883   9.497   9.868  0.1904  0.0080  0.8346
  169MOL0     N23201   2.025   9.514   9.874  0.0559  1.0860 -0.0636
  169MOL0     C23202   2.098   9.467   9.983  0.7544 -0.7873 -0.4616
  169MOL0     C23203   2.221   9.468   9.937 -0.7498 -0.1875 -0.1121
  169MOL0     C23204   2.333   9.417  10.024 -0.6881 -0.4384 -0.0935
  169MOL0     C23205   2.435   9.331   9.939 -0.1690 -0.3972 -0.2676
  169MOL0     C23206   2.551   9.290  10.028  0.2039 -0.2853 -0.5433
  169MOL0     C23207   2.673   9.262   9.947  0.0417 -0.0503  0.4393
  169MOL0     O23208   2.783   9.266  10.037 -0.0618  0.0501 -0.3558
  169MOL0     C23209   2.913   9.292   9.992  0.8798 -0.6381  0.5201
  169MOL0     C23210   3.010   9.328  10.093  0.4020  0.2890  0.2460
  169MOL0     C23211   3.147   9.344  10.056  0.1625  0.5888  1.1078
  169MOL0     C23212   3.240   9.351  10.177  0.1544  0.6710 -0.1513
  169MOL0     C23213   3.185   9.351   9.919  0.2717 -0.5054  0.4823
  169MOL0     C23214   3.322   9.393   9.884 -0.5806  0.3831 -0.1994
  169MOL0     O23215   3.383   9.496   9.946  0.2691  0.0842 -0.1821
  169MOL0     C23216   3.515   9.508   9.904 -0.3743  0.8185 -0.7269
  169MOL0     C23217   3.617   9.437   9.975  0.4476  0.2270 -0.1592
  169MOL0     C23218   3.751   9.461   9.948  0.4141 -0.5304 -0.0865
  169MOL0     C23219   3.785   9.566   9.854  0.4413  0.3948 -0.0125
  169MOL0     O23220   3.914   9.605   9.847 -0.3731  0.0810 -1.0543
  169MOL0     C23221   4.006   9.584   9.960  0.0655  0.0032  0.1203
  169MOL0     C23222   4.146   9.620   9.915  0.5792 -0.0302  0.4067
  169MOL0     C23223   4.246   9.611  10.031 -0.2950  0.1577 -0.3553
  169MOL0     C23224   4.377   9.687   9.982  0.7534  0.5758 -0.1936
  169MOL0     C23225   4.509   9.632  10.045 -0.3632  0.2785 -0.0513
  169MOL0     C23226   4.559   9.487  10.019 -0.6580 -0.8332  0.4248
  169MOL0     C23227   4.555   9.441   9.875  0.0388  0.0189  0.2522
  169MOL0     C23228   4.645   9.318   9.850  0.1818  0.5560 -0.0682
  169MOL0    Cl23229   4.814   9.358   9.860  0.3731 -0.0456  0.1670
  169MOL0     C23230   3.684   9.629   9.783  0.3123 -0.6718 -0.4562
  169MOL0     C23231   3.550   9.598   9.805 -0.7774  0.0727 -0.1851
  169MOL0     O23232   3.373   9.325   9.797  0.8929  0.0297  0.9317
  169MOL0     C23233   3.086   9.314   9.823  0.2025  0.5239  1.3035
  169MOL0     C23234   2.958   9.288   9.862  0.1007 -0.8538 -0.5505
  169MOL0     N23235   2.230   9.507   9.807  0.2799  0.7307 -0.6475
  169MOL0     N23236   2.110   9.534   9.769  0.4579  0.2351 -0.9795
  169MOL0     C23237   0.879   9.550  10.124 -0.2996  1.1185  0.1388
  169MOL0     C23238   0.759   9.503  10.182  0.4522  0.2815  0.3879
  169MOL0     C23239   0.409   9.177  10.220  0.5030 -0.5067 -0.1813
  169MOL0     C23240   0.326   9.268  10.279  0.7817 -0.3139 -0.4846
  169MOL0     C23241   0.214   9.217  10.355  0.1171  0.6863 -0.7411
  169MOL0     C23242   0.179   9.087  10.343  0.0747  0.8684  0.6073
  169MOL0     O23243   0.074   9.058  10.416 -0.2399  0.7036 -0.0509
  169MOL0     C23244  -0.007   8.945  10.382  0.0500  0.6607 -0.8882
  169MOL0     C23245  -0.144   8.985  10.332 -0.5296  0.1026 -0.5530
  169MOL0     C23246  -0.223   9.077  10.423 -0.0040  0.9331  0.2061
  169MOL0     C23247  -0.293   9.015  10.545 -0.5791 -0.8724 -0.3902
  169MOL0     C23248  -0.405   8.929  10.511  1.2192  0.2799 -0.4358
  169MOL0     C23249  -0.504   8.869  10.470  0.1045  0.4830  0.5364
  169MOL0     C23250   0.259   9.000  10.274  0.2773 -0.1696  0.4312
  169MOL0     C23251   0.375   9.038  10.213  0.6431 -0.2297 -0.6567
  169MOL0     C23252   0.456   8.934  10.149  0.8407 -0.1177  1.4613
  169MOL0     H23253   0.609   9.377   9.908 -0.8578 -0.7443  0.5007
  169MOL0     H23254   0.819   9.449   9.803  0.7005 -0.7263  0.3597
  169MOL0     H23255   1.151   9.456  10.011  1.0872 -0.7210 -2.3770
  169MOL0     H23256   1.164   9.635  10.048  0.4485 -1.4950  3.1434
  169MOL0     H23257   1.214   9.480   9.792 -0.6270  0.7648 -0.2481
  169MOL0     H23258   1.210   9.660   9.791  1.6502 -1.0908 -1.2914
  169MOL0     H23259   1.377   9.666   9.948  0.3703 -1.1179  2.7892
  169MOL0     H23260   1.397   9.485   9.949 -0.3840  0.5497  0.8148
  169MOL0     H23261   1.438   9.526   9.681  1.0186 -0.8745  1.0766
  169MOL0     H23262   1.450   9.692   9.724  0.2293 -0.2880 -1.8110
  169MOL0     H23263   1.647   9.553   9.696  0.9399  2.6711 -0.6303
  169MOL0     H23264   1.621   9.466   9.849  0.8581 -0.7956 -2.3815
  169MOL0     H23265   1.639   9.769   9.854 -2.0777 -1.0031 -0.5810
  169MOL0     H23266   1.663   9.653   9.982  1.1865 -1.0831 -0.7718
  169MOL0     H23267   1.875   9.706   9.914 -1.6660 -0.0524  2.5071
  169MOL0     H23268   1.845   9.653   9.741  0.7191  1.8369 -0.2744
  169MOL0     H23269   1.858   9.457   9.966  1.3059  0.8010  1.4565
  169MOL0     H23270   1.836   9.434   9.792  0.1362  1.0096  0.0096
  169MOL0     H23271   2.062   9.423  10.075  0.5512 -3.8248 -1.8610
  169MOL0     H23272   2.298   9.345  10.098  0.9492  1.7979  3.1588
  169MOL0     H23273   2.388   9.502  10.068 -0.9889 -0.7370  0.8933
  169MOL0     H23274   2.379   9.246   9.901  1.2283 -0.9101 -1.2586
  169MOL0     H23275   2.470   9.390   9.853 -0.0510 -0.3407 -0.1812
  169MOL0     H23276   2.576   9.368  10.101 -0.2979 -0.2141 -0.4435
  169MOL0     H23277   2.513   9.207  10.088 -1.4241 -0.3960 -1.6629
  169MOL0     H23278   2.661   9.173   9.886 -1.1228 -1.1354  2.1593
  169MOL0     H23279   2.698   9.340   9.875  2.2910  0.0392  1.2200
  169MOL0     H23280   2.976   9.337  10.196 -4.2482  3.2984 -1.2423
  169MOL0     H23281   3.265   9.452  10.213 -1.9244  0.5920  1.7228
  169MOL0     H23282   3.327   9.292  10.146 -0.0996  0.5948 -0.7294
  169MOL0     H23283   3.191   9.299  10.260  1.7873 -1.0850 -0.2342
  169MOL0     H23284   3.597   9.375  10.062  2.2501  2.6988  2.1738
  169MOL0     H23285   3.812   9.402  10.016 -0.8056 -1.4111  0.2728
  169MOL0     H23286   3.978   9.640  10.049  1.2879 -0.3922  0.7742
  169MOL0     H23287   4.010   9.479   9.988  1.1289 -0.6584 -2.2253
  169MOL0     H23288   4.187   9.539   9.854 -1.0851 -0.9392  0.4301
  169MOL0     H23289   4.149   9.708   9.850 -1.4249 -0.7802 -0.8209
  169MOL0     H23290   4.284   9.509  10.037  0.3540  0.3796 -0.5067
  169MOL0     H23291   4.211   9.650  10.127 -0.3903 -3.5437  1.2614
  169MOL0     H23292   4.358   9.793  10.000 -0.2266  0.5144 -0.8130
  169MOL0     H23293   4.390   9.665   9.875  2.6569 -0.2013  0.1568
  169MOL0     H23294   4.587   9.699  10.007 -1.5583  2.3401  0.9477
  169MOL0     H23295   4.510   9.658  10.151  0.1061  1.5800 -0.3462
  169MOL0     H23296   4.500   9.426  10.088  0.3110 -0.0425  2.0057
  169MOL0     H23297   4.662   9.488  10.055 -0.2448 -1.0365 -0.7194
  169MOL0     H23298   4.598   9.523   9.817  3.7144 -2.3123 -0.6638
  169MOL0     H23299   4.454   9.408   9.847 -0.1941  2.6407 -2.5231
  169MOL0     H23300   4.629   9.282   9.748  2.9626  1.8403 -1.0636
  169MOL0     H23301   4.614   9.249   9.928 -0.6935  1.1790  0.1418
  169MOL0     H23302   3.703   9.702   9.706 -2.0521  0.5027 -0.0312
  169MOL0     H23303   3.474   9.655   9.752 -0.5022  2.0678  1.4664
  169MOL0     H23304   3.105   9.314   9.716  1.2839 -2.0144  1.4428
  169MOL0     H23305   2.890   9.264   9.781 -0.4599  1.7557 -0.9558
  169MOL0     H23306   0.957   9.594  10.184 -1.2614  2.6591  0.3336
  169MOL0     H23307   0.737   9.502  10.288 -0.1757 -2.9330  0.3391
  169MOL0     H23308   0.348   9.374  10.293 -1.3582  0.3330 -1.6038
  169MOL0     H23309   0.146   9.276  10.414 -1.1403 -0.4987 -0.9620
  169MOL0     H23310   0.026   8.882  10.299 -1.5962  0.2134 -1.2463
  169MOL0     H23311  -0.013   8.881  10.471  0.5300 -0.7542 -1.8456
  169MOL0     H23312  -0.206   8.896  10.316  1.7291 -1.5988 -0.3478
  169MOL0     H23313  -0.134   9.034  10.235 -0.8625  0.2291 -0.5265
  169MOL0     H23314  -0.157   9.156  10.461 -0.5796 -0.0902  3.7096
  169MOL0     H23315  -0.303   9.124  10.366 -0.2177 -1.2475 -1.4207
  169MOL0     H23316  -0.346   9.094  10.599 -1.2247 -0.8028 -1.1108
  169MOL0     H23317  -0.220   8.968  10.612  1.0758  3.7363  1.4122
  169MOL0     H23318  -0.589   8.818  10.428  0.6593  1.4276 -1.8798
  169MOL0     H23319   0.234   8.895  10.274  1.7593 -0.5664 -1.9688
  169MOL0     H23320   0.388   8.849  10.138  1.5366 -0.3071 -3.2273
  169MOL0     H23321   0.485   8.974  10.052  0.9129  1.3256  2.0418
  169MOL0     H23322   0.538   8.903  10.214  0.7699 -1.1829  1.0543
  170MOL0     O23323  10.694   0.013   3.652 -0.0393  0.0345  0.0803
  170MOL0     C23324  10.697   0.066   3.763  0.3075 -0.2971 -0.5085
  170MOL0     O23325  10.789   0.154   3.801 -0.6692 -0.2466  0.2981
  170MOL0     C23326  10.907   0.179   3.732 -0.2184 -0.0045  0.3685
  170MOL0     C23327  10.991   0.273   3.791  0.2178  0.0572 -0.3962
  170MOL0     C23328  11.115   0.306   3.743  0.3331  0.0667  0.4222
  170MOL0     C23329  11.162   0.251   3.627  0.3878 -0.1270  0.6993
  170MOL0     O23330  11.275   0.299   3.564 -0.2517  0.3128  0.3116
  170MOL0     C23331  11.321   0.233   3.442  0.6785 -0.5790 -0.3643
  170MOL0     C23332  11.420   0.332   3.383  0.5411  0.3017  0.5514
  170MOL0     C23333  11.536   0.378   3.470 -0.1215 -0.0236 -0.3506
  170MOL0     C23334  11.627   0.257   3.501 -0.2763  0.4990 -0.5676
  170MOL0     C23335  11.752   0.264   3.593  0.2957 -0.2513 -1.0446
  170MOL0     C23336  11.871   0.343   3.528  0.0935 -1.0127  0.1449
  170MOL0     C23337  11.987   0.331   3.620 -0.0711 -0.1885 -0.5453
  170MOL0     C23338  11.977   0.424   3.735 -0.5326 -0.2314 -0.4282
  170MOL0     N23339  12.109   0.443   3.794  0.3884 -0.0184 -0.6164
  170MOL0     C23340  12.151   0.566   3.838 -0.5410 -0.5267 -0.1424
  170MOL0     C23341  12.259   0.529   3.919 -0.6479 -0.1412 -0.2809
  170MOL0     C23342  12.346   0.608   4.006 -0.2693 -0.5952 -0.0710
  170MOL0     C23343  12.484   0.644   3.939  0.2708  0.8443 -0.8927
  170MOL0     C23344  12.574   0.692   4.058  0.0770  0.1800 -0.0328
  170MOL0     C23345  12.703   0.755   4.006  0.5782  0.0285  0.2370
  170MOL0     O23346  12.806   0.717   4.096  0.1554  0.4625 -0.8188
  170MOL0     C23347  12.931   0.734   4.053  0.5001 -0.3059 -0.4216
  170MOL0     C23348  12.990   0.854   4.075  0.2335 -0.0758  0.1713
  170MOL0     C23349  13.128   0.879   4.054 -0.8273 -0.1045  0.2087
  170MOL0     C23350  13.182   1.013   4.115  0.5049  0.1613 -0.1021
  170MOL0     C23351  13.193   0.771   3.986 -0.8857 -0.1713  0.2945
  170MOL0     C23352  13.340   0.777   3.953  0.6460  0.2533 -0.8122
  170MOL0     O23353  13.391   0.669   3.896 -0.5428  0.0099 -0.2028
  170MOL0     C23354  13.519   0.642   3.852  0.2931 -0.5845  0.7343
  170MOL0     C23355  13.629   0.734   3.862  0.2671  0.7031 -0.8978
  170MOL0     C23356  13.755   0.684   3.825 -0.3113 -0.0381  0.9118
  170MOL0     C23357  13.772   0.569   3.749  0.0819  0.1285 -0.1495
  170MOL0     O23358  13.885   0.526   3.687 -0.2828  0.0820  0.0533
  170MOL0     C23359  13.985   0.482   3.784 -0.4558  0.5561  0.3761
  170MOL0     C23360  14.123   0.516   3.723  0.4095  0.3548  0.2397
  170MOL0     C23361  14.244   0.461   3.802  1.0192  0.8753 -0.7067
  170MOL0     C23362  14.279   0.317   3.750  0.2196 -0.1687  1.0321
  170MOL0     C23363  14.405   0.248   3.817 -0.4161  0.1626 -0.6675
  170MOL0     C23364  14.541   0.327   3.807  0.0414 -0.2605  0.2274
  170MOL0     C23365  14.664   0.264   3.886 -0.0993 -0.2500 -0.4999
  170MOL0     C23366  14.678   0.108   3.862  0.1459 -0.0434 -0.1658
  170MOL0    Cl23367  14.700   0.073   3.686  0.1525  0.2811  0.3495
  170MOL0     C23368  13.655   0.497   3.713 -0.0024  0.5525 -0.5573
  170MOL0     C23369  13.531   0.527   3.776 -0.7411  0.2715  0.1330
  170MOL0     O23370  13.405   0.877   3.992 -0.1741 -0.2800 -0.4942
  170MOL0     C23371  13.127   0.650   3.960  0.2082  1.3258  0.6006
  170MOL0     C23372  12.994   0.626   4.000  0.0435 -0.7236  1.0196
  170MOL0     N23373  12.283   0.393   3.909 -0.4256 -0.1055  0.3665
  170MOL0     N23374  12.189   0.337   3.838  0.0931 -0.3325 -0.7547
  170MOL0     C23375  11.073   0.164   3.558  0.6463  1.0203 -0.4361
  170MOL0     C23376  10.959   0.116   3.614 -0.5370  0.2609 -0.2202
  170MOL0     C23377  10.584   0.047   3.858 -0.1408 -0.8901 -0.5019
  170MOL0     C23378  10.541   0.150   3.945  0.1360 -1.1463  0.6544
  170MOL0     C23379  10.439   0.134   4.040  0.9345  0.3884  0.4247
  170MOL0     C23380  10.374   0.010   4.054  0.5626  0.0339  0.4782
  170MOL0     O23381  10.277   0.001   4.150  0.0997  0.0925  0.4843
  170MOL0     C23382  10.158  -0.062   4.099  0.1847 -0.0395  0.6153
  170MOL0     C23383  10.035   0.034   4.097 -0.5020 -0.7023  0.8236
  170MOL0     C23384   9.903  -0.036   4.082 -0.1245 -0.2453 -0.0440
  170MOL0     C23385   9.894  -0.134   3.970  0.0016 -0.3984 -0.0658
  170MOL0     C23386   9.763  -0.167   3.923 -0.2062 -0.0950 -1.0356
  170MOL0     C23387   9.653  -0.176   3.870 -0.4144 -0.9247  1.1656
  170MOL0     C23388  10.422  -0.097   3.979  0.5572  0.1628 -0.1704
  170MOL0     C23389  10.527  -0.087   3.886  0.3873  0.0343 -0.0388
  170MOL0     C23390  10.573  -0.210   3.812 -0.0437  0.2814  0.0394
  170MOL0     H23391  10.964   0.325   3.882 -1.1284  4.4724 -2.9839
  170MOL0     H23392  11.175   0.385   3.788  1.3569 -0.3259 -0.2150
  170MOL0     H23393  11.239   0.231   3.370 -0.0434  0.9031  0.3737
  170MOL0     H23394  11.361   0.133   3.460  1.2119 -0.7410 -2.2518
  170MOL0     H23395  11.452   0.264   3.304  0.2183 -0.4180  1.0282
  170MOL0     H23396  11.369   0.423   3.349 -1.0348 -0.4065  0.9390
  170MOL0     H23397  11.610   0.439   3.418  1.3219  1.9396  3.6221
  170MOL0     H23398  11.515   0.432   3.563  0.0785  0.9877 -0.8784
  170MOL0     H23399  11.563   0.183   3.550  2.6175 -1.1454  1.0165
  170MOL0     H23400  11.650   0.220   3.401  1.1981  0.5227 -0.2541
  170MOL0     H23401  11.784   0.160   3.604  0.5631 -0.1723 -1.0773
  170MOL0     H23402  11.715   0.299   3.690  1.5747 -2.3983  0.3061
  170MOL0     H23403  11.898   0.301   3.431  1.3860  1.5834 -0.6935
  170MOL0     H23404  11.847   0.445   3.498 -1.0791 -1.7966 -1.7542
  170MOL0     H23405  12.073   0.357   3.558 -0.3968  0.1991 -0.8396
  170MOL0     H23406  11.990   0.227   3.653  1.7969 -0.1064 -0.3558
  170MOL0     H23407  11.951   0.521   3.689  0.1871 -0.5381 -1.5376
  170MOL0     H23408  11.905   0.391   3.810 -1.3994  1.3668 -0.5153
  170MOL0     H23409  12.124   0.671   3.832 -1.4253 -0.8245 -3.3470
  170MOL0     H23410  12.379   0.544   4.089  1.1702 -1.9928 -1.6420
  170MOL0     H23411  12.294   0.699   4.036  1.2081  1.1224 -2.3587
  170MOL0     H23412  12.526   0.552   3.897 -0.6098 -0.6683  1.3622
  170MOL0     H23413  12.468   0.716   3.858 -1.2503 -0.8932 -2.1916
  170MOL0     H23414  12.517   0.766   4.115 -0.4602 -0.2056 -0.0557
  170MOL0     H23415  12.608   0.610   4.122  2.0002  2.3954  1.9771
  170MOL0     H23416  12.730   0.727   3.903 -0.1490 -0.8944  0.2721
  170MOL0     H23417  12.688   0.863   4.010 -1.6080 -0.2502  0.7971
  170MOL0     H23418  12.944   0.938   4.127  1.7230 -0.1493  1.7319
  170MOL0     H23419  13.268   0.996   4.181 -0.2747 -1.4530  0.5406
  170MOL0     H23420  13.102   1.047   4.181  0.9571  0.8979  0.0744
  170MOL0     H23421  13.209   1.080   4.032  3.1076 -1.6617 -0.8644
  170MOL0     H23422  13.630   0.827   3.919  0.2234  1.7371 -2.5086
  170MOL0     H23423  13.842   0.740   3.856  0.5723  0.1223 -1.6403
  170MOL0     H23424  13.982   0.532   3.881  0.4323  2.8282 -0.7184
  170MOL0     H23425  13.978   0.373   3.797  0.4137  0.4579  0.0861
  170MOL0     H23426  14.141   0.484   3.620  4.1567 -1.5840  1.3147
  170MOL0     H23427  14.129   0.625   3.716  2.0191  0.2144 -1.4268
  170MOL0     H23428  14.229   0.449   3.910  0.6986 -0.8002 -0.9156
  170MOL0     H23429  14.325   0.534   3.798  1.1922  0.6011 -2.8949
  170MOL0     H23430  14.298   0.323   3.643 -0.6889 -1.6565  0.7503
  170MOL0     H23431  14.193   0.250   3.763 -1.6869  1.6536 -1.3260
  170MOL0     H23432  14.395   0.216   3.921 -1.1572 -4.1266 -1.8504
  170MOL0     H23433  14.395   0.157   3.757 -3.2958 -1.1569  1.5512
  170MOL0     H23434  14.543   0.428   3.849  0.4111  1.3633 -3.3783
  170MOL0     H23435  14.563   0.346   3.702  1.8966  0.7445  0.7488
  170MOL0     H23436  14.645   0.286   3.991 -2.3328  0.9413 -1.0962
  170MOL0     H23437  14.757   0.311   3.852  0.7216  0.0878  2.0249
  170MOL0     H23438  14.596   0.046   3.899  0.1762 -0.0399 -0.0931
  170MOL0     H23439  14.760   0.065   3.919 -0.5629  0.8416  1.5899
  170MOL0     H23440  13.663   0.409   3.649 -0.1603 -0.0905  0.2815
  170MOL0     H23441  13.444   0.467   3.751 -1.1132  0.7040  0.3827
  170MOL0     H23442  13.184   0.565   3.922 -0.4446  1.1587 -0.0184
  170MOL0     H23443  12.943   0.533   3.982 -2.1345  0.7894 -1.1695
  170MOL0     H23444  11.091   0.129   3.457  0.1488 -1.6182  0.3066
  170MOL0     H23445  10.895   0.043   3.565 -2.6526  0.7368  1.6310
  170MOL0     H23446  10.582   0.250   3.937 -1.8083 -0.0952  2.6657
  170MOL0     H23447  10.417   0.216   4.107  0.9366 -0.8016  1.9197
  170MOL0     H23448  10.178  -0.109   4.002  2.1780  2.5730 -0.3448
  170MOL0     H23449  10.127  -0.141   4.168  2.0841  0.8141  2.5579
  170MOL0     H23450  10.048   0.100   4.010  2.3828 -0.6715  1.1745
  170MOL0     H23451  10.054   0.096   4.186  1.8933 -1.8993  1.2380
  170MOL0     H23452   9.881  -0.072   4.183  1.2361  2.3476  1.3020
  170MOL0     H23453   9.821   0.033   4.059 -0.0661 -1.0613 -3.1779
  170MOL0     H23454   9.947  -0.227   3.995  0.3582 -0.0013  0.7100
  170MOL0     H23455   9.951  -0.087   3.890 -1.1176  3.3677  1.1369
  170MOL0     H23456   9.556  -0.171   3.825  0.2316 -1.0276 -0.2711
  170MOL0     H23457  10.380  -0.197   3.989  1.4539 -0.3956 -1.6724
  170MOL0     H23458  10.521  -0.299   3.849 -3.9125  1.1766 -2.6585
  170MOL0     H23459  10.542  -0.216   3.707 -0.8638  1.6227  0.1784
  170MOL0     H23460  10.682  -0.223   3.818 -0.0678  0.6144  1.4449
  171MOL0     O23461   1.717  10.659   3.390 -0.1478  0.2290 -0.3284
  171MOL0     C23462   1.714  10.648   3.269 -0.1030  0.6223  0.0166
  171MOL0     O23463   1.817  10.656   3.180 -0.0603  0.6919  0.3116
  171MOL0     C23464   1.946  10.702   3.202  0.5871  0.2837 -0.4467
  171MOL0     C23465   2.051  10.662   3.121  1.0811 -0.3237 -0.2650
  171MOL0     C23466   2.175  10.714   3.131  0.1151 -0.0924 -0.7174
  171MOL0     C23467   2.208  10.805   3.230 -0.2995  0.4139  0.2412
  171MOL0     O23468   2.335  10.846   3.258  0.4114 -0.8203  0.2729
  171MOL0     C23469   2.447  10.830   3.179 -0.0570 -0.3757 -0.1968
  171MOL0     C23470   2.448  10.932   3.057 -0.7804 -0.2658  0.3924
  171MOL0     C23471   2.542  10.887   2.942  0.2685 -0.2222 -0.1372
  171MOL0     C23472   2.699  10.871   2.968  0.3262 -0.3129  1.6725
  171MOL0     C23473   2.770  10.814   2.839  0.2863 -1.6882  0.2220
  171MOL0     C23474   2.740  10.908   2.717 -0.1371  0.1981 -0.1988
  171MOL0     C23475   2.850  10.897   2.614 -0.0577 -0.2671  0.2728
  171MOL0     C23476   2.827  10.983   2.485  0.7654  0.2505  0.3667
  171MOL0     N23477   2.809  11.127   2.499 -0.1393 -0.6682  0.5097
  171MOL0     C23478   2.907  11.211   2.537 -0.4888  0.6543 -0.0174
  171MOL0     C23479   2.850  11.337   2.534  0.1229 -0.7104 -0.5675
  171MOL0     C23480   2.907  11.472   2.575  0.5590  0.5071 -0.7194
  171MOL0     C23481   3.036  11.503   2.501 -0.1979  0.3966 -0.2408
  171MOL0     C23482   3.108  11.622   2.562 -0.3978 -0.3412 -1.1019
  171MOL0     C23483   3.246  11.647   2.519  1.3915  0.0457 -0.2132
  171MOL0     O23484   3.284  11.770   2.582  0.6212 -0.0070 -0.1990
  171MOL0     C23485   3.410  11.804   2.546  0.7079  0.3386 -0.0864
  171MOL0     C23486   3.515  11.802   2.637 -0.3783 -0.3595 -0.3896
  171MOL0     C23487   3.637  11.864   2.609  0.8334 -0.5860 -0.4841
  171MOL0     C23488   3.730  11.874   2.726 -0.2137 -0.5164  0.0301
  171MOL0     C23489   3.664  11.918   2.479  0.4649  0.0705  0.2033
  171MOL0     C23490   3.785  11.993   2.441 -0.4800  0.4707  0.4165
  171MOL0     O23491   3.771  12.098   2.357  0.6533 -0.4805  0.2355
  171MOL0     C23492   3.848  12.208   2.373  0.0194 -0.7176 -0.2502
  171MOL0     C23493   3.932  12.228   2.491 -0.8396 -0.6945  0.2967
  171MOL0     C23494   4.020  12.338   2.495  0.3858 -0.2530  0.2019
  171MOL0     C23495   4.023  12.432   2.383 -0.2674  0.7556  0.2818
  171MOL0     O23496   4.103  12.538   2.390  0.2869  0.0012  0.2978
  171MOL0     C23497   4.051  12.645   2.460 -0.1064  0.4618  0.1807
  171MOL0     C23498   4.150  12.760   2.476 -0.2179  0.4608  0.9064
  171MOL0     C23499   4.208  12.807   2.342  0.0804  0.3156 -0.2188
  171MOL0     C23500   4.280  12.939   2.370 -0.2739 -0.8173 -0.2052
  171MOL0     C23501   4.319  12.996   2.238 -0.2262  0.0659 -0.0488
  171MOL0     C23502   4.379  13.137   2.274 -0.1315  0.0869  0.5517
  171MOL0     C23503   4.433  13.202   2.149 -0.1336  0.3950 -0.5908
  171MOL0     C23504   4.541  13.308   2.179  0.2162  0.8687  0.2576
  171MOL0    Cl23505   4.577  13.401   2.026  0.0295 -0.5500  0.1779
  171MOL0     C23506   3.940  12.413   2.273 -0.4524 -0.3276  0.5679
  171MOL0     C23507   3.857  12.305   2.274  0.0715 -0.7755 -1.0122
  171MOL0     O23508   3.890  11.948   2.479 -0.4388  0.7527  0.2728
  171MOL0     C23509   3.561  11.907   2.383  0.4429 -0.1306 -1.1514
  171MOL0     C23510   3.435  11.857   2.421 -0.2564  0.0957  0.9702
  171MOL0     N23511   2.716  11.317   2.507  1.0330  0.5091  0.5029
  171MOL0     N23512   2.697  11.194   2.480  0.0043  0.1581 -0.6320
  171MOL0     C23513   2.106  10.851   3.311 -0.5031 -0.7026 -0.7959
  171MOL0     C23514   1.978  10.803   3.302 -0.5559  1.5731 -0.3930
  171MOL0     C23515   1.579  10.611   3.206 -0.4805  0.7555  0.2897
  171MOL0     C23516   1.574  10.591   3.065  0.2623  0.8732 -1.2259
  171MOL0     C23517   1.455  10.545   3.009  0.2967  0.1575  0.5135
  171MOL0     C23518   1.332  10.533   3.079  0.4291 -0.0043 -0.4414
  171MOL0     O23519   1.210  10.510   3.013  0.2873  0.2398  0.5369
  171MOL0     C23520   1.102  10.466   3.093  0.7133 -0.2429  0.8026
  171MOL0     C23521   0.960  10.456   3.031 -0.8030 -0.4519  1.4212
  171MOL0     C23522   0.956  10.379   2.902  0.4953  0.3678  0.7205
  171MOL0     C23523   0.811  10.364   2.846 -1.2066 -0.3931 -0.1284
  171MOL0     C23524   0.735  10.482   2.836  0.0670  0.0520 -1.4231
  171MOL0     C23525   0.654  10.574   2.830  0.3903  0.4807 -0.0075
  171MOL0     C23526   1.344  10.559   3.217 -0.2949  0.0180 -0.3726
  171MOL0     C23527   1.459  10.596   3.283 -0.8736  0.1997  0.0162
  171MOL0     C23528   1.444  10.618   3.432 -0.3943 -0.2297 -0.4169
  171MOL0     H23529   2.029  10.595   3.039 -2.3049 -1.2811  1.2391
  171MOL0     H23530   2.258  10.684   3.068  0.7159  2.5136 -1.2983
  171MOL0     H23531   2.459  10.725   3.151 -3.0660 -1.7343  2.8998
  171MOL0     H23532   2.534  10.863   3.237 -0.3755  0.0548  0.0368
  171MOL0     H23533   2.349  10.950   3.015 -0.2532 -3.0096 -2.3922
  171MOL0     H23534   2.487  11.027   3.093  0.5747  0.2061 -2.1410
  171MOL0     H23535   2.507  10.789   2.908  1.3533 -0.9331  0.7493
  171MOL0     H23536   2.523  10.952   2.855 -1.0374 -1.1881 -0.6133
  171MOL0     H23537   2.744  10.969   2.981  1.6009 -0.3024 -1.6854
  171MOL0     H23538   2.710  10.808   3.056  3.2926 -2.4068 -0.0165
  171MOL0     H23539   2.727  10.718   2.808 -5.3442  0.8932 -1.4434
  171MOL0     H23540   2.876  10.815   2.866  0.6727 -0.0947 -1.1785
  171MOL0     H23541   2.639  10.887   2.681 -0.5131  2.1273 -0.4210
  171MOL0     H23542   2.743  11.011   2.755 -1.6069 -0.6635  2.5461
  171MOL0     H23543   2.859  10.791   2.589  0.6644  0.4386 -2.8809
  171MOL0     H23544   2.948  10.927   2.651  1.7897 -1.5066 -3.1839
  171MOL0     H23545   2.915  10.971   2.421  2.8946 -2.1583  3.4534
  171MOL0     H23546   2.739  10.948   2.431  0.4708 -0.0669  1.0406
  171MOL0     H23547   3.011  11.196   2.565 -0.5853  0.9699  0.5330
  171MOL0     H23548   2.912  11.477   2.684  0.5804 -2.0074 -0.5376
  171MOL0     H23549   2.831  11.544   2.541  1.3901  0.4240 -2.9244
  171MOL0     H23550   3.096  11.412   2.511 -3.1146 -1.5241  1.3778
  171MOL0     H23551   3.017  11.527   2.396 -0.6238  0.9480 -0.0475
  171MOL0     H23552   3.037  11.704   2.549 -1.7938 -1.2430  0.4710
  171MOL0     H23553   3.097  11.599   2.669 -4.7277 -2.0831 -1.7008
  171MOL0     H23554   3.303  11.560   2.555 -0.3848 -1.2808 -0.4553
  171MOL0     H23555   3.242  11.655   2.410 -3.3461  1.1579 -0.1639
  171MOL0     H23556   3.499  11.759   2.735 -0.5114  0.0851 -0.2113
  171MOL0     H23557   3.827  11.827   2.706  0.5908  0.4136  1.4978
  171MOL0     H23558   3.690  11.823   2.814 -1.1638 -0.6207 -0.4506
  171MOL0     H23559   3.746  11.980   2.750 -1.5970 -0.5326  1.1337
  171MOL0     H23560   3.928  12.158   2.574 -0.6691  0.8820  1.6794
  171MOL0     H23561   4.078  12.360   2.585  0.4667 -3.2956  1.0164
  171MOL0     H23562   3.958  12.676   2.412  0.4207 -0.7300 -1.7590
  171MOL0     H23563   4.029  12.611   2.561  4.8646 -0.2942  1.3102
  171MOL0     H23564   4.089  12.834   2.529 -0.6557  1.7012 -1.2209
  171MOL0     H23565   4.233  12.730   2.541  0.5711  0.6920  0.0274
  171MOL0     H23566   4.129  12.835   2.272 -0.2925 -0.6182 -0.1825
  171MOL0     H23567   4.264  12.729   2.289 -1.7781 -0.5446 -1.0113
  171MOL0     H23568   4.364  12.924   2.439  0.2011  1.5724 -0.1780
  171MOL0     H23569   4.226  13.006   2.437  0.8514 -1.5352  1.5033
  171MOL0     H23570   4.393  12.937   2.183  0.5431 -0.1799  1.2042
  171MOL0     H23571   4.224  13.005   2.184 -0.2771 -0.5332 -0.0642
  171MOL0     H23572   4.464  13.114   2.339 -1.5006 -1.7097  1.8217
  171MOL0     H23573   4.314  13.207   2.325 -1.2631 -1.6801  1.6374
  171MOL0     H23574   4.355  13.260   2.098  0.1949  2.4554  1.1068
  171MOL0     H23575   4.467  13.129   2.075 -1.4074 -0.0197 -0.8038
  171MOL0     H23576   4.638  13.262   2.200  0.1123  0.1419 -0.7758
  171MOL0     H23577   4.513  13.385   2.252  0.5939  1.7602 -0.5238
  171MOL0     H23578   3.949  12.484   2.192 -0.4050 -0.7977  0.1613
  171MOL0     H23579   3.790  12.293   2.189 -1.4972 -1.5967  0.2945
  171MOL0     H23580   3.583  11.926   2.278  0.6779 -1.0045 -1.2692
  171MOL0     H23581   3.350  11.853   2.354 -0.9544 -1.0467  1.8899
  171MOL0     H23582   2.133  10.930   3.380  0.3091 -2.4469  0.9938
  171MOL0     H23583   1.901  10.845   3.368 -3.2071  0.5546 -2.6471
  171MOL0     H23584   1.662  10.595   3.001 -0.0434 -4.5694 -2.4828
  171MOL0     H23585   1.449  10.523   2.903 -3.9229  1.2078  0.3809
  171MOL0     H23586   1.130  10.364   3.122 -1.7811 -1.4714 -0.7044
  171MOL0     H23587   1.085  10.520   3.187  2.0321  0.5323  0.6076
  171MOL0     H23588   0.923  10.558   3.020  2.5654  0.5985 -2.4768
  171MOL0     H23589   0.906  10.396   3.106  2.5649 -2.0439  2.7750
  171MOL0     H23590   1.022  10.436   2.837  1.9142  1.9737  3.3815
  171MOL0     H23591   1.002  10.281   2.917 -2.0086 -0.8384  1.1924
  171MOL0     H23592   0.763  10.289   2.909 -0.6446 -2.2481 -1.8164
  171MOL0     H23593   0.806  10.328   2.743  0.6510 -0.2586 -0.3088
  171MOL0     H23594   0.582  10.652   2.823  0.5336  0.5464 -0.8769
  171MOL0     H23595   1.254  10.566   3.278  1.4906  1.8308  2.2505
  171MOL0     H23596   1.340  10.605   3.465 -0.6860 -1.9205 -1.8652
  171MOL0     H23597   1.501  10.543   3.487 -1.2097 -0.2377  0.4644
  171MOL0     H23598   1.479  10.719   3.457 -0.0531 -0.3454 -0.4357
  172MOL0     O23599   9.167   2.197   1.724  0.0200 -0.0037 -0.2226
  172MOL0     C23600   9.090   2.111   1.671  0.7001  0.0196 -0.4380
  172MOL0     O23601   9.138   2.009   1.592 -0.1707  0.1228  0.4247
  172MOL0     C23602   9.271   2.022   1.560 -0.1969  0.6053  0.2849
  172MOL0     C23603   9.370   1.927   1.600  0.5625  0.5285 -1.2101
  172MOL0     C23604   9.508   1.932   1.577 -0.3376  0.5141 -0.3554
  172MOL0     C23605   9.552   2.043   1.497 -0.0918 -0.1360 -0.3716
  172MOL0     O23606   9.686   2.064   1.464 -0.3448 -0.5297  0.3736
  172MOL0     C23607   9.784   1.990   1.535 -0.0368 -0.1098 -0.0579
  172MOL0     C23608   9.910   2.054   1.480 -0.0010 -0.3296  0.2724
  172MOL0     C23609   9.945   1.993   1.338  0.3687  0.0360 -0.4167
  172MOL0     C23610  10.067   2.054   1.278  0.7820  0.0335  0.1643
  172MOL0     C23611  10.109   1.985   1.149  0.6276 -0.3362 -0.0762
  172MOL0     C23612  10.220   2.056   1.078  1.4044  0.3367  0.4684
  172MOL0     C23613  10.360   2.036   1.122  0.4485 -1.0942  0.1747
  172MOL0     C23614  10.474   2.118   1.056 -0.2663 -0.7976  0.0529
  172MOL0     N23615  10.599   2.110   1.140  0.2556  0.8551 -0.1158
  172MOL0     C23616  10.692   2.016   1.127  0.4337 -0.4115  0.2798
  172MOL0     C23617  10.793   2.060   1.204  0.1033  0.5683 -0.3924
  172MOL0     C23618  10.904   1.970   1.250 -0.7240 -0.3972  0.3518
  172MOL0     C23619  11.027   2.018   1.182  0.4243  0.7815  0.5180
  172MOL0     C23620  11.133   1.914   1.179 -0.3280  0.0451 -0.8180
  172MOL0     C23621  11.276   1.982   1.177 -0.9004  0.0447 -0.1277
  172MOL0     O23622  11.367   1.892   1.128  0.4122  0.9984  0.1699
  172MOL0     C23623  11.486   1.933   1.093  0.4084  1.0066  0.7743
  172MOL0     C23624  11.512   2.030   1.000  0.4489 -0.4608 -0.9803
  172MOL0     C23625  11.646   2.065   0.968  0.4054 -0.7006  0.4210
  172MOL0     C23626  11.656   2.165   0.861 -0.5199  0.2246  0.0375
  172MOL0     C23627  11.758   1.999   1.018  0.1821 -1.0865 -0.0045
  172MOL0     C23628  11.892   2.026   0.982  0.0477  0.1785 -0.5108
  172MOL0     O23629  11.930   2.158   0.965  0.6437 -0.2098 -0.3532
  172MOL0     C23630  12.065   2.175   0.968  1.0732  0.4185 -0.2554
  172MOL0     C23631  12.130   2.248   1.070 -0.1907 -0.0221 -0.0916
  172MOL0     C23632  12.263   2.289   1.056 -0.1464 -0.4671 -0.2311
  172MOL0     C23633  12.351   2.254   0.945  0.3628 -0.1600 -0.0174
  172MOL0     O23634  12.478   2.297   0.947 -0.1353 -0.3563 -0.6717
  172MOL0     C23635  12.571   2.204   0.891 -0.1603  0.8961  1.2138
  172MOL0     C23636  12.640   2.271   0.764 -0.2800 -0.4090 -0.4319
  172MOL0     C23637  12.754   2.370   0.805  0.4974 -0.0137 -0.0765
  172MOL0     C23638  12.836   2.417   0.683 -1.3136 -0.4330  0.3828
  172MOL0     C23639  12.914   2.554   0.703 -0.4149  0.2575  0.5949
  172MOL0     C23640  13.031   2.541   0.818 -0.7145 -0.8206 -0.0075
  172MOL0     C23641  13.132   2.656   0.818 -0.8843 -0.4048 -0.0946
  172MOL0     C23642  13.225   2.656   0.699  0.2710  0.3853 -0.5086
  172MOL0    Cl23643  13.354   2.769   0.716  0.0136 -0.0673  0.3046
  172MOL0     C23644  12.284   2.182   0.844  0.0304  0.9343  0.1271
  172MOL0     C23645  12.150   2.154   0.852 -0.6995  0.4746  0.1968
  172MOL0     O23646  11.962   1.922   0.968 -0.4869  0.0038 -0.4937
  172MOL0     C23647  11.731   1.898   1.106  0.5448 -0.1246 -0.9673
  172MOL0     C23648  11.595   1.867   1.144 -0.4739 -0.9141 -0.3266
  172MOL0     N23649  10.769   2.181   1.255 -0.7398  0.3207  0.2189
  172MOL0     N23650  10.650   2.208   1.223 -0.0910  0.4722  0.2644
  172MOL0     C23651   9.459   2.132   1.449  0.3113  1.8056  0.2267
  172MOL0     C23652   9.324   2.126   1.481  0.5508 -0.3792  0.0607
  172MOL0     C23653   8.940   2.113   1.690  0.3233  0.6304  0.6074
  172MOL0     C23654   8.873   1.991   1.656 -0.1744 -0.8399 -0.2592
  172MOL0     C23655   8.732   1.980   1.681 -1.2153  0.4308 -0.0097
  172MOL0     C23656   8.662   2.090   1.726 -0.1272 -0.9522 -0.4071
  172MOL0     O23657   8.528   2.081   1.756 -0.0087 -0.2961  0.3771
  172MOL0     C23658   8.444   2.126   1.649 -0.4019  0.2560  0.4960
  172MOL0     C23659   8.301   2.100   1.681 -1.1196  1.1632  0.1301
  172MOL0     C23660   8.248   2.192   1.792  0.2473 -0.4608  0.2043
  172MOL0     C23661   8.100   2.174   1.809  0.5259  0.6305 -0.0172
  172MOL0     C23662   8.021   2.269   1.732 -0.2562  0.8456 -0.2937
  172MOL0     C23663   7.958   2.352   1.672  0.5604 -1.0491  0.4045
  172MOL0     C23664   8.728   2.210   1.756 -0.2117 -0.8570 -0.6000
  172MOL0     C23665   8.865   2.228   1.740  0.3495  0.2806  0.5663
  172MOL0     C23666   8.920   2.367   1.759  0.1173 -0.0653 -0.5748
  172MOL0     H23667   9.334   1.840   1.653  2.3824 -1.3461 -2.8265
  172MOL0     H23668   9.575   1.860   1.621  0.3787  1.5269  0.2376
  172MOL0     H23669   9.789   1.884   1.509  2.7440  0.2342 -1.2371
  172MOL0     H23670   9.771   1.997   1.644  2.1143 -1.8866  0.3680
  172MOL0     H23671   9.901   2.163   1.473  1.8306 -0.2328 -1.6899
  172MOL0     H23672   9.984   2.036   1.558 -0.1984  3.1556  1.4603
  172MOL0     H23673   9.974   1.889   1.359  0.0881  0.4748  2.6432
  172MOL0     H23674   9.866   1.995   1.263  0.1674 -2.0664 -0.3147
  172MOL0     H23675  10.036   2.157   1.260  0.6963 -0.1611 -0.8631
  172MOL0     H23676  10.152   2.054   1.347 -2.4629 -1.1890  4.5965
  172MOL0     H23677  10.025   1.999   1.080 -0.3253  0.9877  1.2755
  172MOL0     H23678  10.126   1.878   1.164  4.7644  0.0264 -1.0850
  172MOL0     H23679  10.219   2.029   0.972 -0.6440  2.3969 -0.1351
  172MOL0     H23680  10.188   2.160   1.091 -1.6945 -0.7351  2.4151
  172MOL0     H23681  10.377   1.928   1.119  2.8217 -0.7704 -0.9068
  172MOL0     H23682  10.368   2.068   1.226  0.6171  0.6396 -0.3381
  172MOL0     H23683  10.487   2.085   0.952  0.1019 -0.2234 -0.0847
  172MOL0     H23684  10.437   2.220   1.058 -0.3500 -0.8276  0.0374
  172MOL0     H23685  10.680   1.935   1.056 -2.2850 -0.6918  0.9280
  172MOL0     H23686  10.884   1.866   1.224  0.7666 -0.1125 -2.2651
  172MOL0     H23687  10.916   1.981   1.358  1.0981  1.1420  0.0457
  172MOL0     H23688  11.003   2.055   1.082  0.7888 -1.0244 -0.2766
  172MOL0     H23689  11.058   2.103   1.243  3.2941 -0.7029  1.3211
  172MOL0     H23690  11.131   1.855   1.271  0.1555  1.3817  0.0847
  172MOL0     H23691  11.130   1.848   1.092 -1.9346  0.8365 -1.4089
  172MOL0     H23692  11.279   2.069   1.111  3.0988 -0.2610 -0.6299
  172MOL0     H23693  11.319   2.014   1.273  0.3615 -1.4356 -0.1563
  172MOL0     H23694  11.430   2.087   0.957  0.0003 -2.3515 -2.8098
  172MOL0     H23695  11.728   2.134   0.784  0.2462  0.0608  0.8033
  172MOL0     H23696  11.692   2.261   0.898  1.7020 -1.0197  1.3523
  172MOL0     H23697  11.560   2.195   0.817  0.5898  2.2496 -1.1656
  172MOL0     H23698  12.080   2.279   1.161  1.6526  1.3628  0.5145
  172MOL0     H23699  12.302   2.368   1.119  2.6325 -0.8843 -1.2685
  172MOL0     H23700  12.646   2.164   0.960 -0.5587 -2.2398 -0.0486
  172MOL0     H23701  12.521   2.116   0.851 -0.1045  2.3875 -2.5807
  172MOL0     H23702  12.680   2.190   0.701  1.8209  2.0195 -2.4252
  172MOL0     H23703  12.574   2.342   0.713  0.4855  2.5212  2.3282
  172MOL0     H23704  12.816   2.312   0.874 -3.2872 -0.8581  3.0093
  172MOL0     H23705  12.718   2.454   0.866 -1.0836 -0.3434 -0.5096
  172MOL0     H23706  12.767   2.427   0.599 -1.7206  0.7103  0.8286
  172MOL0     H23707  12.916   2.348   0.655  0.3333  1.7163 -0.5876
  172MOL0     H23708  12.954   2.585   0.606 -3.9886  2.5995 -0.3257
  172MOL0     H23709  12.839   2.629   0.731  0.9534  2.4693 -1.3317
  172MOL0     H23710  13.088   2.449   0.798 -0.7964 -1.0271  0.6825
  172MOL0     H23711  12.978   2.533   0.913 -0.5524 -1.8083  0.0182
  172MOL0     H23712  13.193   2.657   0.909  0.0482  3.0674 -0.6107
  172MOL0     H23713  13.076   2.749   0.817  0.1514  0.3672  3.0168
  172MOL0     H23714  13.166   2.673   0.609  0.4035 -0.2135 -0.7174
  172MOL0     H23715  13.269   2.556   0.693  0.7848  0.4784  1.1030
  172MOL0     H23716  12.344   2.174   0.754 -2.0561  0.6236 -1.2914
  172MOL0     H23717  12.102   2.101   0.770 -0.2228  0.5653 -0.1428
  172MOL0     H23718  11.815   1.836   1.135  0.7304 -0.5409 -2.3243
  172MOL0     H23719  11.578   1.776   1.201  0.0699  0.2560  1.7831
  172MOL0     H23720   9.499   2.208   1.382  0.6677  0.5899 -0.9976
  172MOL0     H23721   9.264   2.208   1.443  3.0743  0.5058 -2.4001
  172MOL0     H23722   8.929   1.907   1.615  1.3399 -1.2334  2.3815
  172MOL0     H23723   8.671   1.894   1.658 -0.7397  0.5410 -1.8880
  172MOL0     H23724   8.477   2.230   1.638 -0.2550  0.2892  1.1635
  172MOL0     H23725   8.474   2.066   1.563  1.8570 -0.4205  1.6796
  172MOL0     H23726   8.283   1.994   1.703 -1.0712  0.6441 -2.0600
  172MOL0     H23727   8.234   2.115   1.596 -0.6821 -1.3034 -0.7538
  172MOL0     H23728   8.292   2.153   1.884  0.7121  0.3646  0.3396
  172MOL0     H23729   8.268   2.298   1.772 -3.3842  0.2277 -0.5722
  172MOL0     H23730   8.078   2.187   1.916 -1.0353  0.3811 -0.2801
  172MOL0     H23731   8.069   2.072   1.784 -0.0833  1.4404 -2.9759
  172MOL0     H23732   7.907   2.437   1.629 -0.4158 -1.3199  0.9837
  172MOL0     H23733   8.666   2.287   1.800  0.2904 -1.5641  1.4940
  172MOL0     H23734   8.982   2.371   1.849  1.9386 -1.8401 -1.6414
  172MOL0     H23735   8.983   2.386   1.672  0.1805  2.3384 -0.0537
  172MOL0     H23736   8.839   2.439   1.756 -1.1091 -1.2505  1.5673
  173MOL0     O23737   8.481   2.902  10.035 -0.2943  0.0512 -0.1759
  173MOL0     C23738   8.466   3.006  10.092  0.0369  0.2407 -0.0683
  173MOL0     O23739   8.571   3.076  10.150  0.2795 -0.2624  0.1147
  173MOL0     C23740   8.695   3.019  10.127  0.3929 -0.7141 -0.4916
  173MOL0     C23741   8.791   3.074  10.032  1.0940  0.8596 -0.2712
  173MOL0     C23742   8.917   3.021  10.025  0.3570 -0.4299  0.7205
  173MOL0     C23743   8.948   2.905  10.102  0.1392  0.2186 -0.8232
  173MOL0     O23744   9.064   2.830  10.090 -0.0302  0.4802 -0.4328
  173MOL0     C23745   9.189   2.890  10.055 -0.1186 -0.4362  0.6699
  173MOL0     C23746   9.295   2.794  10.085  0.6155  1.1832 -0.2595
  173MOL0     C23747   9.438   2.861  10.070  0.1425  0.4389 -0.1522
  173MOL0     C23748   9.535   2.744  10.086  0.0243  0.1858  0.5124
  173MOL0     C23749   9.670   2.767  10.006 -0.0082 -0.3124  0.8428
  173MOL0     C23750   9.783   2.668  10.042  0.1065  0.5070  0.4374
  173MOL0     C23751   9.907   2.693   9.950  0.0557  0.5924 -0.5001
  173MOL0     C23752  10.012   2.582   9.975  0.1984 -0.2376 -0.8777
  173MOL0     N23753  10.136   2.635   9.914  0.1891  0.0223 -0.0983
  173MOL0     C23754  10.190   2.592   9.793 -0.4260 -0.1888 -0.3364
  173MOL0     C23755  10.322   2.630   9.806  0.6841 -0.3192 -0.8730
  173MOL0     C23756  10.423   2.588   9.702  0.9416 -0.0062 -0.2547
  173MOL0     C23757  10.432   2.699   9.590 -0.2608  0.5553 -0.8118
  173MOL0     C23758  10.551   2.698   9.492 -0.4876 -0.1513 -0.5125
  173MOL0     C23759  10.672   2.604   9.528 -0.3351 -0.1260  0.5911
  173MOL0     O23760  10.738   2.559   9.402  0.2511  0.3988  0.0865
  173MOL0     C23761  10.839   2.471   9.405  0.4083 -0.4081  0.4840
  173MOL0     C23762  10.875   2.408   9.286  0.0983  0.1974 -0.3661
  173MOL0     C23763  10.976   2.308   9.287 -0.1390 -0.9265  0.0522
  173MOL0     C23764  11.000   2.239   9.152 -0.5490 -0.6085  0.3127
  173MOL0     C23765  11.046   2.269   9.403 -0.1565 -0.6012 -0.0480
  173MOL0     C23766  11.150   2.170   9.421 -0.7897 -0.2347  0.8539
  173MOL0     O23767  11.245   2.190   9.515  0.4502  0.7751 -0.6654
  173MOL0     C23768  11.341   2.095   9.547  0.5794 -0.6763  0.5558
  173MOL0     C23769  11.444   2.059   9.454  0.2794  0.1754 -0.4237
  173MOL0     C23770  11.538   1.962   9.493  0.5790  0.2483  0.5535
  173MOL0     C23771  11.554   1.931   9.629  0.6590  0.6134  0.3673
  173MOL0     O23772  11.664   1.870   9.681 -0.0066  0.3020  0.3329
  173MOL0     C23773  11.752   1.806   9.585 -0.0342  0.1388 -0.4342
  173MOL0     C23774  11.874   1.896   9.544  0.2845 -0.0546 -0.5362
  173MOL0     C23775  11.951   1.938   9.667  0.5589  0.1280  1.3537
  173MOL0     C23776  12.087   1.984   9.626 -1.0557  0.4581  0.1392
  173MOL0     C23777  12.178   2.047   9.730  1.0196  0.2175 -0.3074
  173MOL0     C23778  12.255   2.162   9.666  0.1312 -0.1709 -0.8490
  173MOL0     C23779  12.361   2.202   9.760  0.0444  0.2837 -0.5161
  173MOL0     C23780  12.458   2.299   9.703  0.2459  0.5087  0.1120
  173MOL0    Cl23781  12.377   2.462   9.674  0.1964 -0.2834 -0.1039
  173MOL0     C23782  11.443   1.963   9.716 -0.2336  0.8537 -0.3751
  173MOL0     C23783  11.337   2.039   9.674  0.1064  0.5391 -0.3991
  173MOL0     O23784  11.133   2.065   9.354 -0.0562  0.2534 -0.4036
  173MOL0     C23785  11.004   2.329   9.518 -1.0000  0.3595 -0.5219
  173MOL0     C23786  10.905   2.424   9.522  0.7971  0.3086 -0.0025
  173MOL0     N23787  10.346   2.703   9.918 -0.1628 -0.4751  0.0318
  173MOL0     N23788  10.231   2.708   9.986 -0.2102  0.3588  0.4071
  173MOL0     C23789   8.853   2.854  10.194  0.5236  0.4127 -0.5546
  173MOL0     C23790   8.735   2.906  10.202  0.9987  0.2460  0.4299
  173MOL0     C23791   8.332   3.074  10.101 -0.1501  0.4927  0.0994
  173MOL0     C23792   8.323   3.195  10.164 -0.5249  0.0058 -0.1827
  173MOL0     C23793   8.200   3.256  10.194  0.1048  0.5010 -0.4197
  173MOL0     C23794   8.082   3.194  10.149  0.2562  0.7387 -0.0524
  173MOL0     O23795   7.956   3.222  10.188 -0.4960 -0.0180 -0.1707
  173MOL0     C23796   7.907   3.336  10.268 -0.3327 -0.2897  0.3782
  173MOL0     C23797   7.875   3.463  10.180 -0.4065  0.3974  1.3751
  173MOL0     C23798   7.832   3.421  10.040 -0.8597 -0.2126  1.4405
  173MOL0     C23799   7.712   3.333  10.026 -0.1748  0.1235 -0.4575
  173MOL0     C23800   7.591   3.413  10.063  0.6701 -0.3585 -0.9063
  173MOL0     C23801   7.503   3.492  10.104 -1.1679  0.8481 -0.4147
  173MOL0     C23802   8.087   3.074  10.082 -0.5747  0.6390 -0.1162
  173MOL0     C23803   8.210   3.003  10.058 -0.7414 -0.2501  0.2593
  173MOL0     C23804   8.195   2.874   9.989  0.0934 -0.1453 -0.5977
  173MOL0     H23805   8.755   3.170   9.997 -3.5975 -0.2405  0.8429
  173MOL0     H23806   8.991   3.074   9.966  1.2113 -2.6555 -0.3236
  173MOL0     H23807   9.209   2.985  10.105 -0.6281  0.0042  0.0586
  173MOL0     H23808   9.188   2.904   9.946  1.3540 -0.2919  0.6664
  173MOL0     H23809   9.283   2.744  10.182 -0.7822 -2.0300 -1.9722
  173MOL0     H23810   9.288   2.712  10.013 -3.6503  1.8103 -0.8527
  173MOL0     H23811   9.448   2.915   9.976 -1.7992 -0.6070 -1.0268
  173MOL0     H23812   9.451   2.922  10.160  1.9212  0.1039 -0.1409
  173MOL0     H23813   9.563   2.731  10.191 -1.8092  0.9105  1.1328
  173MOL0     H23814   9.488   2.648  10.061 -0.8428  0.6093  0.4721
  173MOL0     H23815   9.704   2.870  10.020  0.0808 -0.4751  1.8529
  173MOL0     H23816   9.646   2.768   9.899 -1.3349  1.0449  1.1069
  173MOL0     H23817   9.823   2.685  10.143  1.4126  0.8850 -0.1103
  173MOL0     H23818   9.749   2.564  10.041  0.6224  0.2872  2.0472
  173MOL0     H23819   9.941   2.794   9.972  2.0032 -0.2395  0.5148
  173MOL0     H23820   9.875   2.689   9.845 -0.7037  0.2768 -0.2685
  173MOL0     H23821  10.030   2.574  10.082  1.5247  1.2139 -0.9541
  173MOL0     H23822   9.987   2.483   9.935 -0.2263 -0.4946  0.0012
  173MOL0     H23823  10.155   2.525   9.715  1.9875 -1.2853 -0.5809
  173MOL0     H23824  10.383   2.497   9.655  1.0258 -1.0338  1.5435
  173MOL0     H23825  10.514   2.566   9.759 -0.1693  0.6677  1.8961
  173MOL0     H23826  10.346   2.680   9.526 -2.7957 -2.7374  3.0500
  173MOL0     H23827  10.436   2.799   9.635  0.7738  0.8624 -1.5432
  173MOL0     H23828  10.506   2.665   9.399 -3.5571  1.8159  0.1365
  173MOL0     H23829  10.601   2.796   9.488  2.3711 -1.5042 -0.4405
  173MOL0     H23830  10.754   2.655   9.578  1.7570 -0.8279 -1.9066
  173MOL0     H23831  10.644   2.517   9.587  1.3292 -2.1050 -1.3670
  173MOL0     H23832  10.825   2.440   9.195 -1.6012  2.1625  1.1314
  173MOL0     H23833  10.973   2.316   9.079  3.2928  1.8327  1.1700
  173MOL0     H23834  10.934   2.152   9.151 -0.1733 -0.8959  0.3456
  173MOL0     H23835  11.106   2.212   9.141 -0.2930  0.5273 -0.1613
  173MOL0     H23836  11.436   2.093   9.351 -2.9202 -2.1377 -1.0801
  173MOL0     H23837  11.606   1.930   9.416 -0.0384 -2.8553  1.1645
  173MOL0     H23838  11.798   1.719   9.633  1.0863  0.3074 -1.1855
  173MOL0     H23839  11.702   1.758   9.501 -1.9290  0.8443  0.2436
  173MOL0     H23840  11.937   1.843   9.473 -1.7110  0.2339 -2.6524
  173MOL0     H23841  11.844   1.985   9.486 -0.0180 -0.5443 -1.1399
  173MOL0     H23842  11.964   1.852   9.734  2.6570 -0.4070  0.3411
  173MOL0     H23843  11.891   2.003   9.730 -0.7747  0.1296  0.1344
  173MOL0     H23844  12.072   2.058   9.547 -1.2773  1.5441  1.1513
  173MOL0     H23845  12.141   1.902   9.580 -1.8979 -0.3183  0.4933
  173MOL0     H23846  12.123   2.088   9.815  1.6196  0.7620 -0.1789
  173MOL0     H23847  12.231   1.958   9.765 -0.4835  0.0831  1.8019
  173MOL0     H23848  12.191   2.245   9.633 -1.4514  0.2227  2.7724
  173MOL0     H23849  12.305   2.134   9.573 -0.9684  0.2135 -1.5767
  173MOL0     H23850  12.416   2.112   9.789  0.1709  0.2430 -0.8762
  173MOL0     H23851  12.317   2.247   9.849 -0.9469  0.5171 -1.1002
  173MOL0     H23852  12.494   2.258   9.608  0.9114 -1.1468  1.0477
  173MOL0     H23853  12.543   2.306   9.771  1.8120  0.0867 -1.7197
  173MOL0     H23854  11.439   1.935   9.820 -1.0736  5.6722  1.1146
  173MOL0     H23855  11.253   2.055   9.742 -0.5779 -3.9715  0.1511
  173MOL0     H23856  11.052   2.305   9.612 -0.6252 -2.4462 -1.3448
  173MOL0     H23857  10.876   2.458   9.621 -2.7048 -0.9044 -0.4665
  173MOL0     H23858   8.856   2.753  10.234  1.8128 -0.6112 -3.0534
  173MOL0     H23859   8.662   2.861  10.269 -0.5884  1.5660 -0.3462
  173MOL0     H23860   8.416   3.233  10.205 -0.1153 -3.6079  2.8906
  173MOL0     H23861   8.191   3.348  10.249 -0.5017  0.4392 -0.4106
  173MOL0     H23862   7.810   3.309  10.309 -1.5863  2.7718 -0.2266
  173MOL0     H23863   7.975   3.364  10.349  0.1125 -0.6932  0.1437
  173MOL0     H23864   7.971   3.514  10.167  0.7504 -1.9003  0.1917
  173MOL0     H23865   7.791   3.520  10.220 -4.1352 -3.6561  0.2050
  173MOL0     H23866   7.811   3.517   9.992  1.4981 -0.6331 -0.5975
  173MOL0     H23867   7.923   3.379   9.997 -0.6055 -0.2795  2.0243
  173MOL0     H23868   7.717   3.249  10.097 -1.0900 -0.7654 -1.4062
  173MOL0     H23869   7.696   3.299   9.923  0.1730  0.1541 -0.5238
  173MOL0     H23870   7.432   3.564  10.141  0.1351  1.5749  0.7451
  173MOL0     H23871   7.991   3.030  10.055 -0.2571 -0.3956  0.3680
  173MOL0     H23872   8.091   2.842   9.982  0.1028 -0.3504  0.1410
  173MOL0     H23873   8.241   2.877   9.890  0.6123 -1.5830 -0.4255
  173MOL0     H23874   8.242   2.795  10.048 -0.6619 -1.3164 -1.5125
  174MOL0     O23875   5.428   1.489   4.008  0.1454 -0.0883 -0.1945
  174MOL0     C23876   5.382   1.435   4.112  0.2022  0.0079  0.2730
  174MOL0     O23877   5.447   1.379   4.218 -0.3994 -0.5236  0.3483
  174MOL0     C23878   5.583   1.376   4.230  0.6393 -0.2477 -0.1474
  174MOL0     C23879   5.629   1.266   4.298 -0.9913  0.1071  0.5965
  174MOL0     C23880   5.772   1.261   4.320 -0.1009  0.5608 -0.9501
  174MOL0     C23881   5.854   1.361   4.280 -0.6099  0.6909  0.0805
  174MOL0     O23882   5.991   1.350   4.307 -0.4375  0.3566 -0.9056
  174MOL0     C23883   6.048   1.228   4.248 -0.4896  0.5002  0.1982
  174MOL0     C23884   6.084   1.239   4.095  0.6466 -0.1577  1.0680
  174MOL0     C23885   6.226   1.183   4.068 -0.7759 -0.1764 -0.2084
  174MOL0     C23886   6.272   1.201   3.925 -0.2273  0.2285 -1.1190
  174MOL0     C23887   6.395   1.107   3.897 -0.3762  0.7154  0.1918
  174MOL0     C23888   6.468   1.119   3.763  0.2919 -1.1176  0.6304
  174MOL0     C23889   6.598   1.033   3.770 -0.7577 -0.7502 -0.2685
  174MOL0     C23890   6.678   1.034   3.632  0.5449  0.0512  0.0370
  174MOL0     N23891   6.794   0.949   3.654 -0.2689  0.6682 -0.0038
  174MOL0     C23892   6.915   0.982   3.707 -0.0286  0.5108 -0.9297
  174MOL0     C23893   6.988   0.870   3.722 -0.5507 -0.4285 -0.0379
  174MOL0     C23894   7.132   0.850   3.763  0.1562 -0.3893  0.0928
  174MOL0     C23895   7.146   0.746   3.881 -0.0841 -0.4364 -0.8514
  174MOL0     C23896   7.298   0.733   3.914  0.5498  1.3904 -0.0574
  174MOL0     C23897   7.376   0.843   3.988 -0.3339  0.4861 -0.1919
  174MOL0     O23898   7.406   0.933   3.880 -0.5819  0.1413 -0.7702
  174MOL0     C23899   7.534   0.928   3.823 -0.0181 -0.8374 -0.2967
  174MOL0     C23900   7.556   1.042   3.752 -0.0312 -0.5807 -0.4915
  174MOL0     C23901   7.680   1.073   3.700 -0.0717 -0.5587 -0.0561
  174MOL0     C23902   7.711   1.221   3.664  0.0975  0.2076 -0.4483
  174MOL0     C23903   7.784   0.975   3.709 -0.1982  0.1380 -0.4681
  174MOL0     C23904   7.927   1.000   3.655  0.1628  0.0821  0.0626
  174MOL0     O23905   7.945   1.110   3.568 -0.1979  0.1641  0.2120
  174MOL0     C23906   8.065   1.150   3.523  0.8583 -0.1063  0.1056
  174MOL0     C23907   8.177   1.156   3.609 -0.0769 -0.5404  0.9238
  174MOL0     C23908   8.298   1.215   3.552 -0.3399 -0.3804 -0.1743
  174MOL0     C23909   8.297   1.255   3.420 -0.2722  0.0884  0.5031
  174MOL0     O23910   8.426   1.291   3.383 -0.1560  0.5439  0.7403
  174MOL0     C23911   8.448   1.256   3.243 -0.0461  0.0781 -0.3448
  174MOL0     C23912   8.596   1.283   3.206 -0.1226 -0.7442  0.3232
  174MOL0     C23913   8.685   1.170   3.273  0.7503  0.4503  0.0596
  174MOL0     C23914   8.826   1.196   3.236  0.3504  0.6896 -0.2814
  174MOL0     C23915   8.914   1.102   3.320 -0.3792 -0.4391 -0.6616
  174MOL0     C23916   9.062   1.119   3.282  0.7495  0.3004 -0.7083
  174MOL0     C23917   9.144   1.021   3.361 -0.2281 -1.0937 -0.2368
  174MOL0     C23918   9.292   1.048   3.342 -0.3144 -0.0320 -0.4056
  174MOL0    Cl23919   9.376   0.924   3.436  0.1116  0.0411 -0.1218
  174MOL0     C23920   8.190   1.240   3.336  0.2599  0.8246  0.2559
  174MOL0     C23921   8.071   1.192   3.385 -0.3241  0.0554 -0.7943
  174MOL0     O23922   8.010   0.917   3.681 -0.6242  0.0344 -0.1417
  174MOL0     C23923   7.758   0.852   3.763 -0.2896  0.3126 -0.2597
  174MOL0     C23924   7.633   0.837   3.828  0.4516  0.7131 -0.0439
  174MOL0     N23925   6.907   0.768   3.680  0.2613  0.5520 -0.4683
  174MOL0     N23926   6.792   0.810   3.645  0.4661 -0.1597 -0.0019
  174MOL0     C23927   5.803   1.478   4.217  0.5449  0.0125 -0.1471
  174MOL0     C23928   5.666   1.487   4.193  0.1312 -0.2704 -0.3149
  174MOL0     C23929   5.232   1.415   4.128 -0.6343  0.6350 -0.4289
  174MOL0     C23930   5.182   1.347   4.248 -0.6991  0.1151  0.5823
  174MOL0     C23931   5.049   1.319   4.268 -0.4674  0.1234 -0.6366
  174MOL0     C23932   4.955   1.365   4.175  0.0512  0.1704  0.1567
  174MOL0     O23933   4.825   1.318   4.204 -0.6320  0.2005  0.3648
  174MOL0     C23934   4.721   1.316   4.102  0.1783 -0.1730 -0.5928
  174MOL0     C23935   4.742   1.222   3.988 -0.1337 -0.2536 -0.3798
  174MOL0     C23936   4.633   1.237   3.882 -0.3491  0.2516 -0.3653
  174MOL0     C23937   4.651   1.161   3.748  0.7536 -0.1959  0.6021
  174MOL0     C23938   4.721   1.240   3.649 -0.3675  0.5557 -0.1330
  174MOL0     C23939   4.786   1.294   3.565  0.7372  0.5503  0.5559
  174MOL0     C23940   4.997   1.428   4.061  0.3083  0.3868 -0.2146
  174MOL0     C23941   5.134   1.450   4.031 -0.5937 -0.0625  0.4920
  174MOL0     C23942   5.165   1.492   3.895 -0.9897 -0.5788  0.3544
  174MOL0     H23943   5.562   1.187   4.330  1.9045 -3.5995 -1.5208
  174MOL0     H23944   5.812   1.177   4.376  0.1640  1.2122 -0.1363
  174MOL0     H23945   5.991   1.135   4.247 -0.4651  0.4644 -1.4059
  174MOL0     H23946   6.142   1.203   4.297 -0.9838 -0.1472  0.8318
  174MOL0     H23947   6.002   1.197   4.037 -1.5393  0.8225  3.2575
  174MOL0     H23948   6.081   1.346   4.074 -0.5854 -0.0778  1.5749
  174MOL0     H23949   6.297   1.230   4.137 -1.8038  0.4410  0.4493
  174MOL0     H23950   6.224   1.077   4.093  2.2183 -0.2072  0.2983
  174MOL0     H23951   6.187   1.171   3.862  0.8778 -2.7501 -1.3423
  174MOL0     H23952   6.303   1.302   3.899  1.0737 -0.4328 -2.2842
  174MOL0     H23953   6.357   1.005   3.912  1.6737  0.0877  1.5576
  174MOL0     H23954   6.471   1.124   3.974 -1.1748 -0.0046  1.1554
  174MOL0     H23955   6.398   1.090   3.684 -1.7032  0.9761  1.4975
  174MOL0     H23956   6.484   1.227   3.752  0.0339 -0.9784  1.5608
  174MOL0     H23957   6.586   0.933   3.811 -0.2045 -1.1480 -1.0387
  174MOL0     H23958   6.661   1.081   3.846  0.8946 -0.1862 -1.9003
  174MOL0     H23959   6.609   1.000   3.554 -0.5701 -0.4557  1.2194
  174MOL0     H23960   6.705   1.138   3.608  0.0651  0.2685  0.4122
  174MOL0     H23961   6.944   1.079   3.747 -1.3315 -0.7053  3.4887
  174MOL0     H23962   7.171   0.945   3.800 -1.5933  0.5415 -0.3569
  174MOL0     H23963   7.196   0.826   3.678  1.2606  5.8443 -1.2456
  174MOL0     H23964   7.090   0.786   3.966  1.6190  0.8683 -0.2840
  174MOL0     H23965   7.101   0.650   3.854  0.3091 -2.0540  3.5141
  174MOL0     H23966   7.311   0.646   3.980  2.9606 -0.1004 -2.2729
  174MOL0     H23967   7.357   0.694   3.831  1.9766 -0.0901  1.5592
  174MOL0     H23968   7.310   0.885   4.064 -2.5626 -3.4002  0.2846
  174MOL0     H23969   7.465   0.806   4.040  1.2761  3.7254 -0.4193
  174MOL0     H23970   7.473   1.110   3.744 -0.1572 -0.5191  1.0469
  174MOL0     H23971   7.623   1.273   3.704 -2.0507 -3.6207  0.4035
  174MOL0     H23972   7.723   1.227   3.556  0.3307  1.1276 -0.3799
  174MOL0     H23973   7.801   1.261   3.710 -1.7920  2.5469  1.5393
  174MOL0     H23974   8.173   1.138   3.716  0.7897 -2.9778  0.6020
  174MOL0     H23975   8.387   1.226   3.613 -1.2922  2.9178  0.8118
  174MOL0     H23976   8.417   1.157   3.210 -1.5386  0.3724  0.1088
  174MOL0     H23977   8.399   1.329   3.178  0.1246  1.6688  1.2184
  174MOL0     H23978   8.610   1.272   3.098  3.2830  1.4140  0.4174
  174MOL0     H23979   8.629   1.384   3.228  1.5970 -1.0565 -0.6664
  174MOL0     H23980   8.667   1.066   3.247  0.2817 -0.4016  3.2771
  174MOL0     H23981   8.676   1.167   3.382  2.1657 -1.5615  0.1773
  174MOL0     H23982   8.859   1.295   3.268 -1.4336  0.2446  3.5801
  174MOL0     H23983   8.833   1.189   3.127 -0.5605  0.2535 -0.3284
  174MOL0     H23984   8.895   1.118   3.427 -0.4905  0.3471 -0.7899
  174MOL0     H23985   8.885   0.999   3.297 -1.3223 -1.6296  4.5282
  174MOL0     H23986   9.081   1.224   3.306 -3.1086  1.8577 -3.2623
  174MOL0     H23987   9.073   1.103   3.174 -0.6357 -1.5032 -0.6449
  174MOL0     H23988   9.125   0.914   3.344 -0.2739 -0.9685 -1.0028
  174MOL0     H23989   9.122   1.039   3.467 -2.0464  1.4146 -0.9492
  174MOL0     H23990   9.319   1.145   3.385  1.0234  1.5042 -4.2363
  174MOL0     H23991   9.317   1.047   3.236  2.7296 -3.6044  0.1213
  174MOL0     H23992   8.192   1.272   3.233  1.8768 -2.4977 -0.9016
  174MOL0     H23993   7.986   1.185   3.317 -2.9032 -0.0088  2.2178
  174MOL0     H23994   7.831   0.772   3.757  3.1072  3.2401 -1.8588
  174MOL0     H23995   7.621   0.743   3.881 -0.7199  1.5154  1.1582
  174MOL0     H23996   5.864   1.557   4.176  0.3095  0.8133  1.0060
  174MOL0     H23997   5.613   1.571   4.150  0.7680 -1.0501 -2.7266
  174MOL0     H23998   5.250   1.301   4.318  0.6888  0.0869 -0.7456
  174MOL0     H23999   5.023   1.248   4.345 -0.2568 -1.2446 -1.7844
  174MOL0     H24000   4.619   1.299   4.138 -0.2951  0.0214 -1.7912
  174MOL0     H24001   4.712   1.420   4.067  1.5665 -0.2393 -1.1795
  174MOL0     H24002   4.733   1.123   4.034 -1.7675 -0.6735 -1.5087
  174MOL0     H24003   4.843   1.230   3.947 -0.5661 -1.5392 -1.7727
  174MOL0     H24004   4.532   1.212   3.916 -0.1923 -1.8140 -1.2258
  174MOL0     H24005   4.622   1.341   3.853  2.4857  0.5901 -0.4963
  174MOL0     H24006   4.554   1.151   3.699  2.7062 -2.3376 -3.2911
  174MOL0     H24007   4.678   1.057   3.767 -0.8886 -0.6376  0.6323
  174MOL0     H24008   4.822   1.358   3.487 -0.5689 -3.0527 -3.3492
  174MOL0     H24009   4.926   1.460   3.985 -0.1971  1.2995  0.6221
  174MOL0     H24010   5.250   1.439   3.851 -1.1011 -1.0477  0.7073
  174MOL0     H24011   5.078   1.474   3.831 -0.9502  0.1206  0.0934
  174MOL0     H24012   5.182   1.600   3.897 -2.5209 -0.3156  0.5203
  175MOL0     O24013   2.112   9.820   5.476  0.5182  0.4018 -0.3534
  175MOL0     C24014   2.045   9.785   5.382  0.7690 -0.2424 -0.3230
  175MOL0     O24015   2.096   9.736   5.268  0.3818  0.2347  0.3596
  175MOL0     C24016   2.234   9.736   5.243  0.5319 -0.1506 -0.1977
  175MOL0     C24017   2.332   9.700   5.336  0.7546 -0.3601 -0.0732
  175MOL0     C24018   2.466   9.693   5.292 -0.2578 -0.1552  0.7979
  175MOL0     C24019   2.507   9.721   5.159 -0.5791  0.3744  0.2341
  175MOL0     O24020   2.644   9.715   5.128 -0.3461  0.2068 -0.6710
  175MOL0     C24021   2.686   9.675   4.998 -0.7396 -0.4302 -0.0938
  175MOL0     C24022   2.771   9.550   5.005 -0.0325  0.3233  0.7591
  175MOL0     C24023   2.920   9.566   5.028 -0.3121 -0.3218 -0.9299
  175MOL0     C24024   2.962   9.609   5.168 -0.4781 -0.7183 -0.0747
  175MOL0     C24025   3.113   9.630   5.174  0.4786  0.0833  0.2253
  175MOL0     C24026   3.187   9.505   5.215 -1.1754  0.2951 -0.1638
  175MOL0     C24027   3.333   9.544   5.268 -0.1136  0.1842 -0.0836
  175MOL0     C24028   3.433   9.585   5.163  0.0128 -0.1151  0.2266
  175MOL0     N24029   3.565   9.635   5.200 -0.0107  0.0735 -0.6421
  175MOL0     C24030   3.683   9.579   5.163 -0.3371  0.6257 -0.5479
  175MOL0     C24031   3.776   9.666   5.198  0.4979  0.3207 -0.0212
  175MOL0     C24032   3.922   9.657   5.190  0.1698 -0.3483  0.1004
  175MOL0     C24033   3.987   9.584   5.301  0.5126  0.0059  0.2143
  175MOL0     C24034   4.000   9.665   5.435  0.3725  0.3917  0.6921
  175MOL0     C24035   4.116   9.770   5.435  0.5564  0.9312  0.4121
  175MOL0     O24036   4.241   9.693   5.423  0.2046 -0.0220  0.5513
  175MOL0     C24037   4.350   9.777   5.401  0.8025  0.6795 -0.5211
  175MOL0     C24038   4.448   9.720   5.318  0.5004  1.0613 -0.4475
  175MOL0     C24039   4.569   9.779   5.297 -0.5398  0.7946  0.3458
  175MOL0     C24040   4.674   9.707   5.217 -0.6458  0.4174 -0.0463
  175MOL0     C24041   4.586   9.919   5.345  0.3917  0.5507 -0.1047
  175MOL0     C24042   4.705  10.007   5.320  1.1277  0.8128 -0.8414
  175MOL0     O24043   4.686  10.139   5.335  0.5382  0.0319 -0.2370
  175MOL0     C24044   4.790  10.227   5.332 -0.1366 -0.4343 -0.3614
  175MOL0     C24045   4.876  10.245   5.440  0.4956 -0.4880 -0.2810
  175MOL0     C24046   4.977  10.340   5.433 -0.1597 -0.7118  0.8962
  175MOL0     C24047   5.005  10.410   5.317  0.2409  0.5852 -0.0068
  175MOL0     O24048   5.109  10.500   5.310  0.1865  0.4867  0.9638
  175MOL0     C24049   5.222  10.472   5.381 -0.7558  0.1944  0.4056
  175MOL0     C24050   5.338  10.555   5.319  0.2682  0.5194  0.1278
  175MOL0     C24051   5.466  10.502   5.387  0.7930 -0.1128  0.4126
  175MOL0     C24052   5.581  10.580   5.322  0.0704 -0.0281 -1.2547
  175MOL0     C24053   5.709  10.534   5.389 -0.2844  0.1554 -0.2348
  175MOL0     C24054   5.835  10.578   5.305  1.2060  0.0719 -0.1067
  175MOL0     C24055   5.919  10.684   5.357 -0.8924  0.0281  0.5070
  175MOL0     C24056   6.047  10.707   5.267  0.2364 -0.6507  0.1597
  175MOL0    Cl24057   5.998  10.738   5.094  0.3722 -0.0578 -0.5960
  175MOL0     C24058   4.918  10.399   5.210  0.1231  0.4440 -0.3973
  175MOL0     C24059   4.808  10.313   5.226  0.0098  0.7637 -0.3043
  175MOL0     O24060   4.809   9.952   5.304 -0.0513  0.0991  0.5639
  175MOL0     C24061   4.477   9.971   5.427 -0.3825 -0.1128  0.6906
  175MOL0     C24062   4.365   9.904   5.451 -0.1962  0.5394  1.1055
  175MOL0     N24063   3.713   9.774   5.261  0.4049 -0.7360  0.0257
  175MOL0     N24064   3.586   9.757   5.262 -0.3272 -0.5203  0.3035
  175MOL0     C24065   2.406   9.759   5.073 -0.2361 -0.6924  0.0929
  175MOL0     C24066   2.268   9.758   5.113 -0.2971  0.2625  0.0338
  175MOL0     C24067   1.896   9.795   5.395  0.7240  0.8595 -0.6550
  175MOL0     C24068   1.850   9.793   5.531 -0.9022 -0.3818  0.1173
  175MOL0     C24069   1.718   9.829   5.560 -0.6449  0.2810  0.9043
  175MOL0     C24070   1.620   9.830   5.455 -0.0688 -0.5308  0.5575
  175MOL0     O24071   1.485   9.857   5.492  0.1437 -0.1491  0.4863
  175MOL0     C24072   1.398   9.916   5.399  0.4866  0.6784  0.3488
  175MOL0     C24073   1.264   9.930   5.478  0.3715 -0.9100  0.7094
  175MOL0     C24074   1.162  10.018   5.395  0.2827 -0.4728  0.8193
  175MOL0     C24075   1.044  10.057   5.491  0.3475 -0.4526 -0.4807
  175MOL0     C24076   0.940  10.137   5.425 -0.0568 -0.1907  0.3726
  175MOL0     C24077   0.841  10.205   5.387  0.0937  0.3597  0.3455
  175MOL0     C24078   1.663   9.813   5.321 -0.2107  0.0445  0.4137
  175MOL0     C24079   1.793   9.791   5.294  0.3047 -0.2363  0.1000
  175MOL0     C24080   1.837   9.782   5.153  0.1196  0.1375 -1.0273
  175MOL0     H24081   2.322   9.677   5.441 -2.1226 -0.0280 -0.1850
  175MOL0     H24082   2.552   9.682   5.358  0.5432 -2.5455 -0.5446
  175MOL0     H24083   2.743   9.756   4.951 -1.0062 -0.3318 -0.2462
  175MOL0     H24084   2.598   9.658   4.936 -0.3606  0.6988 -0.9887
  175MOL0     H24085   2.732   9.481   5.080  4.6666 -0.5987  2.7047
  175MOL0     H24086   2.762   9.503   4.907  1.9404  0.0641  0.6467
  175MOL0     H24087   2.964   9.468   5.009 -0.6879 -0.4558 -1.1326
  175MOL0     H24088   2.958   9.635   4.952  0.7652  2.0257  1.5643
  175MOL0     H24089   2.910   9.702   5.194  1.3679  0.5245 -0.5959
  175MOL0     H24090   2.941   9.531   5.242  0.8699  0.4735  1.6323
  175MOL0     H24091   3.124   9.710   5.247  0.8839  0.0049  0.2486
  175MOL0     H24092   3.150   9.676   5.083  2.4556  1.4907  1.6606
  175MOL0     H24093   3.136   9.454   5.298  0.3986  0.4189  0.9268
  175MOL0     H24094   3.197   9.439   5.128 -2.0964 -0.6206  0.3989
  175MOL0     H24095   3.376   9.459   5.323 -0.0073 -0.0943 -0.5960
  175MOL0     H24096   3.322   9.623   5.343 -1.4387 -0.7409  0.7329
  175MOL0     H24097   3.453   9.500   5.097 -2.3628  1.3620 -2.6268
  175MOL0     H24098   3.388   9.651   5.089 -3.4282  0.3124  2.4237
  175MOL0     H24099   3.701   9.483   5.116 -1.0977  0.0779  0.2570
  175MOL0     H24100   3.962   9.756   5.165 -2.0332  0.7378  0.7262
  175MOL0     H24101   3.939   9.592   5.103 -1.6329  0.9443 -1.2955
  175MOL0     H24102   3.928   9.493   5.315 -2.0864  1.5849  0.2217
  175MOL0     H24103   4.087   9.554   5.267 -0.0224  1.0294 -2.4772
  175MOL0     H24104   3.906   9.718   5.448  0.4071  1.6067 -3.0443
  175MOL0     H24105   4.018   9.601   5.522 -1.9076  1.7331  2.2549
  175MOL0     H24106   4.099   9.826   5.342  1.0584 -1.0007 -0.9132
  175MOL0     H24107   4.115   9.831   5.525 -2.1266  0.3271  0.8637
  175MOL0     H24108   4.434   9.618   5.284  0.8782  0.9994 -0.4239
  175MOL0     H24109   4.644   9.608   5.181 -2.9670  1.4980 -1.3194
  175MOL0     H24110   4.766   9.693   5.275 -0.3229  0.2233 -0.6050
  175MOL0     H24111   4.709   9.767   5.133  4.7484 -0.6114  1.1203
  175MOL0     H24112   4.837  10.192   5.526  0.6081 -1.1524 -0.6303
  175MOL0     H24113   5.026  10.355   5.528  0.0494 -0.2721  0.7220
  175MOL0     H24114   5.214  10.491   5.488 -1.1798  1.1930  0.2065
  175MOL0     H24115   5.242  10.365   5.373  2.2794  0.7703 -1.0858
  175MOL0     H24116   5.346  10.551   5.210 -0.4412  3.5659 -0.1218
  175MOL0     H24117   5.330  10.663   5.334 -1.7716  0.8499 -2.6271
  175MOL0     H24118   5.474  10.398   5.355  2.4717  0.7568 -2.3256
  175MOL0     H24119   5.472  10.510   5.496  4.0174  2.1043  0.2110
  175MOL0     H24120   5.576  10.688   5.339 -0.1938 -0.1029 -0.8418
  175MOL0     H24121   5.578  10.571   5.213 -1.1049 -0.6894 -1.1881
  175MOL0     H24122   5.711  10.548   5.497 -1.9883  1.6697 -0.3516
  175MOL0     H24123   5.711  10.425   5.379 -0.8604 -0.1880  2.5825
  175MOL0     H24124   5.796  10.596   5.204  0.6658 -1.2247 -0.1516
  175MOL0     H24125   5.912  10.501   5.307  0.8622 -0.3759 -1.7518
  175MOL0     H24126   5.955  10.658   5.457  1.6691  1.5021  0.0631
  175MOL0     H24127   5.872  10.782   5.370  1.7445  1.4412  0.0621
  175MOL0     H24128   6.120  10.626   5.256 -0.5577 -1.3270 -0.2676
  175MOL0     H24129   6.096  10.796   5.306 -0.7618 -0.4440  0.9953
  175MOL0     H24130   4.942  10.438   5.112 -0.9970  0.7284 -0.5808
  175MOL0     H24131   4.740  10.307   5.141  1.4186  0.4579 -1.4450
  175MOL0     H24132   4.503  10.070   5.463  1.8633  0.6382 -2.5195
  175MOL0     H24133   4.304   9.939   5.534  0.5091  0.4854  1.6615
  175MOL0     H24134   2.433   9.785   4.972 -1.1714  1.4676  0.3442
  175MOL0     H24135   2.194   9.787   5.039 -0.1614  3.7383  1.0506
  175MOL0     H24136   1.920   9.793   5.614 -3.0796  1.6190  2.0932
  175MOL0     H24137   1.678   9.819   5.660 -0.0252 -3.0825  0.9331
  175MOL0     H24138   1.445  10.007   5.360  1.3334  1.1992  2.4615
  175MOL0     H24139   1.394   9.845   5.315 -0.2621 -1.3679  2.0239
  175MOL0     H24140   1.277   9.965   5.581  2.0716 -1.9122  0.8851
  175MOL0     H24141   1.228   9.827   5.487  1.9267 -1.5897 -0.4967
  175MOL0     H24142   1.215  10.109   5.367 -0.5533  0.2686  1.5937
  175MOL0     H24143   1.114   9.977   5.306 -0.8229  2.0927  0.1499
  175MOL0     H24144   1.080  10.098   5.586  3.7532 -2.4743 -0.7322
  175MOL0     H24145   0.987   9.967   5.514 -1.9125  0.5079 -1.9991
  175MOL0     H24146   0.762  10.251   5.331  2.0580  0.3288 -2.7440
  175MOL0     H24147   1.600   9.820   5.232  0.7025 -3.2535 -0.6251
  175MOL0     H24148   1.749   9.797   5.090 -0.0771  1.1993 -0.5018
  175MOL0     H24149   1.926   9.843   5.138  0.9759  0.6474  4.1679
  175MOL0     H24150   1.864   9.676   5.145 -4.7827 -1.6989  2.1718
  176MOL0     O24151   7.368   6.316   0.816  0.7280  0.2302  0.4136
  176MOL0     C24152   7.252   6.266   0.806 -0.4932 -0.6666 -0.0917
  176MOL0     O24153   7.222   6.153   0.735 -1.2479  0.2048 -0.7513
  176MOL0     C24154   7.321   6.093   0.662  0.1118  0.7942 -0.2466
  176MOL0     C24155   7.420   6.030   0.736 -0.4549 -0.2061 -0.0599
  176MOL0     C24156   7.511   5.949   0.668 -0.0474  0.4374 -0.3478
  176MOL0     C24157   7.509   5.933   0.529  0.0814  0.2082  0.0073
  176MOL0     O24158   7.616   5.868   0.480 -0.6408 -0.3162  0.2932
  176MOL0     C24159   7.636   5.854   0.338 -0.4903 -0.1722 -0.0736
  176MOL0     C24160   7.758   5.768   0.325 -1.0198 -0.6788  0.0396
  176MOL0     C24161   7.882   5.839   0.373 -0.6457 -0.6949 -0.2160
  176MOL0     C24162   7.976   5.872   0.249 -0.4330 -0.6756 -0.2731
  176MOL0     C24163   8.107   5.949   0.301 -0.2920  1.1692 -0.0171
  176MOL0     C24164   8.205   5.983   0.178  0.5586  0.8144 -0.2119
  176MOL0     C24165   8.244   5.855   0.093 -0.1057  0.4467 -0.3608
  176MOL0     C24166   8.293   5.724   0.156 -0.6178  0.2259 -0.0214
  176MOL0     N24167   8.359   5.630   0.065  0.2239  0.2698 -0.6306
  176MOL0     C24168   8.475   5.555   0.091 -0.6626  0.0771 -0.2742
  176MOL0     C24169   8.501   5.493  -0.028 -0.5225 -0.2675  0.1794
  176MOL0     C24170   8.608   5.402  -0.060  1.1316 -0.3968 -0.3462
  176MOL0     C24171   8.552   5.258  -0.065  0.4990 -0.2855 -0.3094
  176MOL0     C24172   8.507   5.214   0.076  0.2672  0.8417 -0.3004
  176MOL0     C24173   8.510   5.066   0.096 -0.2245 -0.5139 -0.8746
  176MOL0     O24174   8.463   5.004  -0.028  0.6771 -0.5785 -0.0760
  176MOL0     C24175   8.326   4.980  -0.031  0.3230  0.3192  0.3197
  176MOL0     C24176   8.263   4.984  -0.155 -0.4942 -0.5651  0.3149
  176MOL0     C24177   8.123   4.970  -0.177 -0.3381  0.5851  0.3536
  176MOL0     C24178   8.082   4.972  -0.318  0.5869 -1.0647 -1.1373
  176MOL0     C24179   8.034   4.970  -0.071 -0.5529  0.0305 -0.2440
  176MOL0     C24180   7.887   4.967  -0.082  0.4875 -0.0032  1.1241
  176MOL0     O24181   7.830   4.880  -0.001 -0.8723  0.6670  0.4710
  176MOL0     C24182   7.701   4.852  -0.031  0.6139  0.4124 -0.4693
  176MOL0     C24183   7.600   4.863   0.070  0.5618  0.0955  0.3320
  176MOL0     C24184   7.465   4.829   0.044  0.2242 -0.1712  0.1667
  176MOL0     C24185   7.427   4.807  -0.095 -0.1831  0.4277 -0.4136
  176MOL0     O24186   7.291   4.782  -0.112 -0.3493 -0.1324 -0.1450
  176MOL0     C24187   7.252   4.807  -0.245  0.1924  0.7001  0.1476
  176MOL0     C24188   7.099   4.825  -0.245 -0.3098  0.0426 -0.7517
  176MOL0     C24189   7.059   4.828  -0.388 -0.2029  0.3262 -0.0464
  176MOL0     C24190   7.071   4.972  -0.450  0.1230 -0.0927 -0.8894
  176MOL0     C24191   7.018   4.971  -0.589 -0.3501  0.2799 -0.5986
  176MOL0     C24192   7.080   5.088  -0.671  0.2904  0.3172 -0.0337
  176MOL0     C24193   7.005   5.092  -0.806 -0.7153 -0.1392  0.5658
  176MOL0     C24194   7.096   5.121  -0.928  0.7997 -0.3701  0.1008
  176MOL0    Cl24195   7.220   5.252  -0.904 -0.1574  0.1740 -0.2146
  176MOL0     C24196   7.532   4.803  -0.192  0.8908 -0.0905  0.2464
  176MOL0     C24197   7.665   4.816  -0.160  0.4191  0.3236  0.6322
  176MOL0     O24198   7.827   5.049  -0.162  0.0048  0.8433 -0.0610
  176MOL0     C24199   8.094   4.968   0.065  0.6706 -0.7425 -0.3911
  176MOL0     C24200   8.234   4.972   0.079  0.3156  0.6378  0.3658
  176MOL0     N24201   8.395   5.520  -0.112 -0.8152  0.3116 -0.2968
  176MOL0     N24202   8.307   5.602  -0.057  0.3578 -0.1028  0.1757
  176MOL0     C24203   7.398   5.981   0.463  0.4595 -0.0922 -0.0056
  176MOL0     C24204   7.304   6.057   0.532 -0.3854 -0.7908  0.2916
  176MOL0     C24205   7.140   6.319   0.886  0.1583  0.1568 -0.3319
  176MOL0     C24206   7.019   6.248   0.914 -0.0818  0.4128 -0.1384
  176MOL0     C24207   6.918   6.302   0.994 -0.9392 -0.2388 -1.2012
  176MOL0     C24208   6.929   6.425   1.058 -0.1573  1.1339 -0.0985
  176MOL0     O24209   6.825   6.455   1.134 -0.0442 -0.0265  0.4250
  176MOL0     C24210   6.818   6.586   1.196  0.0051  0.3205  0.1990
  176MOL0     C24211   6.702   6.620   1.294  0.7791  0.3528  1.7267
  176MOL0     C24212   6.617   6.498   1.344 -0.1994 -0.6156 -0.7364
  176MOL0     C24213   6.481   6.518   1.405  0.0609 -0.5348  0.7799
  176MOL0     C24214   6.503   6.598   1.518  0.0679  0.4427  0.1991
  176MOL0     C24215   6.523   6.661   1.622  0.9085  0.3782 -0.4756
  176MOL0     C24216   7.047   6.499   1.029  0.0343 -0.5699 -0.7978
  176MOL0     C24217   7.147   6.451   0.940  0.0555 -0.3817 -1.0115
  176MOL0     C24218   7.252   6.553   0.905  0.3381 -0.5399  0.0135
  176MOL0     H24219   7.420   6.033   0.844  0.2964 -0.0162 -0.0596
  176MOL0     H24220   7.591   5.901   0.723 -1.1431 -3.5694 -1.9008
  176MOL0     H24221   7.657   5.947   0.285 -3.5672  1.2178  0.9266
  176MOL0     H24222   7.551   5.806   0.287  0.5005 -1.4758 -0.5557
  176MOL0     H24223   7.760   5.682   0.393  2.5066 -1.2365 -0.5577
  176MOL0     H24224   7.773   5.742   0.220 -0.9493  0.1394 -0.1525
  176MOL0     H24225   7.860   5.942   0.402 -0.3007 -0.5345 -0.5074
  176MOL0     H24226   7.931   5.789   0.458 -2.0300 -0.7835  0.5545
  176MOL0     H24227   7.996   5.776   0.200 -1.0749 -0.8417 -0.2261
  176MOL0     H24228   7.910   5.939   0.193 -1.5971  0.9821  2.8344
  176MOL0     H24229   8.152   5.877   0.370 -1.5187  0.3983  0.0086
  176MOL0     H24230   8.082   6.034   0.365 -0.4254  1.2522 -0.1822
  176MOL0     H24231   8.153   6.065   0.126 -1.4918  0.3155  0.9463
  176MOL0     H24232   8.292   6.015   0.235 -0.3107 -1.1039  2.3803
  176MOL0     H24233   8.322   5.889   0.024  0.2146  1.5415  0.5092
  176MOL0     H24234   8.161   5.827   0.028  0.7499 -2.0911 -0.4706
  176MOL0     H24235   8.368   5.756   0.229  0.7527  2.1352 -2.1503
  176MOL0     H24236   8.209   5.669   0.201  0.6824 -2.7292 -0.9380
  176MOL0     H24237   8.523   5.566   0.188 -4.1002  2.7998  1.3330
  176MOL0     H24238   8.684   5.401   0.019  0.2203  1.0029  0.6005
  176MOL0     H24239   8.649   5.427  -0.158 -0.3069 -0.5809 -1.0137
  176MOL0     H24240   8.473   5.257  -0.141  0.8903 -0.1181 -0.7185
  176MOL0     H24241   8.632   5.197  -0.108  0.0252 -0.1034 -1.4699
  176MOL0     H24242   8.574   5.249   0.155 -1.0210 -0.3325  1.3980
  176MOL0     H24243   8.406   5.251   0.095  0.1584  0.1183  0.6136
  176MOL0     H24244   8.612   5.031   0.112 -0.4843 -0.5793  0.7677
  176MOL0     H24245   8.463   5.036   0.190 -1.6667 -2.0916 -2.0368
  176MOL0     H24246   8.323   4.997  -0.245 -1.4458  0.3858 -0.1950
  176MOL0     H24247   8.169   4.961  -0.383  1.5927  2.5042 -0.6096
  176MOL0     H24248   8.045   5.074  -0.335  1.3094 -0.4591  0.6652
  176MOL0     H24249   8.002   4.900  -0.335 -2.6159  1.8981  0.0535
  176MOL0     H24250   7.635   4.877   0.172  1.1823 -1.8726  0.4123
  176MOL0     H24251   7.384   4.843   0.114  0.8047  0.3809  0.7285
  176MOL0     H24252   7.304   4.893  -0.288 -0.6560 -0.3491 -3.2664
  176MOL0     H24253   7.267   4.714  -0.301  0.5737  0.1509  1.1395
  176MOL0     H24254   7.058   4.733  -0.201  0.6645 -0.3472 -0.6326
  176MOL0     H24255   7.067   4.907  -0.180 -2.3036 -2.2492  1.4096
  176MOL0     H24256   6.956   4.790  -0.383  0.2837 -1.2042 -1.1334
  176MOL0     H24257   7.110   4.757  -0.453 -2.0394  0.5420 -1.8277
  176MOL0     H24258   7.178   4.994  -0.447  0.1555 -0.2441  1.6497
  176MOL0     H24259   7.025   5.051  -0.389  0.3397 -1.8872  1.7704
  176MOL0     H24260   7.039   4.875  -0.636 -0.5507 -1.2023  2.0940
  176MOL0     H24261   6.908   4.975  -0.590 -0.3977 -0.7694 -1.2019
  176MOL0     H24262   7.188   5.078  -0.680  0.7572 -0.1662  4.2165
  176MOL0     H24263   7.067   5.187  -0.626  0.4386 -0.9503  2.9741
  176MOL0     H24264   6.925   5.166  -0.804 -1.0770 -0.1529 -3.8901
  176MOL0     H24265   6.961   4.996  -0.832 -1.5258  0.0315  1.2720
  176MOL0     H24266   7.026   5.138  -1.010 -1.0326 -3.0440  0.9892
  176MOL0     H24267   7.149   5.031  -0.958  2.0958  0.6480 -0.8013
  176MOL0     H24268   7.509   4.766  -0.292  4.0265  0.5409 -0.8262
  176MOL0     H24269   7.728   4.816  -0.248 -0.4724  1.0269 -0.0274
  176MOL0     H24270   8.017   4.962   0.141 -0.4213  0.4767 -1.3556
  176MOL0     H24271   8.274   4.968   0.179 -0.1953  3.0535  0.7110
  176MOL0     H24272   7.394   5.967   0.355 -1.2071 -2.1070  0.2456
  176MOL0     H24273   7.222   6.082   0.465  1.4856 -1.2901 -2.3415
  176MOL0     H24274   7.006   6.157   0.857  0.4948  1.3413 -1.8097
  176MOL0     H24275   6.832   6.242   1.021 -1.1417  0.5680  0.0286
  176MOL0     H24276   6.907   6.595   1.258  0.8410  1.4224 -1.1089
  176MOL0     H24277   6.828   6.659   1.116 -0.1475 -1.0234 -1.0992
  176MOL0     H24278   6.637   6.681   1.231  0.7882 -0.4502  0.9203
  176MOL0     H24279   6.737   6.671   1.384 -0.7467  1.4589  1.7509
  176MOL0     H24280   6.598   6.444   1.251 -1.2055  1.3502 -1.7413
  176MOL0     H24281   6.686   6.445   1.410  1.7532  2.3853 -0.1282
  176MOL0     H24282   6.429   6.425   1.428  1.5697 -1.2199  1.5856
  176MOL0     H24283   6.413   6.572   1.338  0.7445 -0.6806 -0.0421
  176MOL0     H24284   6.550   6.705   1.716  0.4103 -1.7559  0.7321
  176MOL0     H24285   7.058   6.601   1.064  2.2241 -1.3308  0.9335
  176MOL0     H24286   7.231   6.651   0.948 -1.7086 -1.8326  2.2153
  176MOL0     H24287   7.347   6.528   0.952  1.2760  1.9348 -0.4147
  176MOL0     H24288   7.265   6.558   0.796  2.0170 -0.0515  0.2118
  177MOL0     O24289   0.322   4.863   4.212  0.7776 -0.0017  0.2638
  177MOL0     C24290   0.278   4.761   4.161 -0.2191 -0.2391 -0.6903
  177MOL0     O24291   0.338   4.700   4.056 -0.0494  0.5505  0.2380
  177MOL0     C24292   0.458   4.742   4.004 -0.1076  0.4812  0.5431
  177MOL0     C24293   0.563   4.785   4.086 -1.1537 -0.6162  0.3293
  177MOL0     C24294   0.682   4.836   4.029  0.0984  0.6529 -0.7185
  177MOL0     C24295   0.687   4.844   3.892 -0.2179 -0.0419 -0.0745
  177MOL0     O24296   0.808   4.893   3.847  0.5613  0.2698  0.3924
  177MOL0     C24297   0.873   4.821   3.737 -0.6958  0.5047 -0.5826
  177MOL0     C24298   1.022   4.869   3.729 -0.2071 -0.2757  0.2448
  177MOL0     C24299   1.084   4.794   3.608  0.6994  0.9549 -0.1986
  177MOL0     C24300   1.238   4.778   3.626 -0.0668 -0.3603 -0.6932
  177MOL0     C24301   1.313   4.723   3.508 -0.0151 -0.4966 -0.0850
  177MOL0     C24302   1.466   4.710   3.536 -0.1712  0.3705 -0.5194
  177MOL0     C24303   1.554   4.617   3.450 -0.6736  0.4197 -0.9494
  177MOL0     C24304   1.692   4.600   3.508  0.5980 -0.0228 -0.0765
  177MOL0     N24305   1.772   4.554   3.399 -0.5727 -0.9057 -0.2493
  177MOL0     C24306   1.821   4.625   3.292 -0.4590  0.0527 -0.4470
  177MOL0     C24307   1.884   4.535   3.211  0.5864 -0.5029 -0.0793
  177MOL0     C24308   1.952   4.561   3.084  0.2559  0.9763 -0.1457
  177MOL0     C24309   2.084   4.628   3.100 -0.4568 -0.0665  0.1236
  177MOL0     C24310   2.149   4.645   2.962  0.2482 -0.6774 -0.7650
  177MOL0     C24311   2.280   4.722   2.977  0.2066 -0.1571  0.3633
  177MOL0     O24312   2.335   4.701   3.110 -0.1350  0.0547 -0.3784
  177MOL0     C24313   2.469   4.670   3.107 -0.1737 -0.2405 -0.1094
  177MOL0     C24314   2.520   4.541   3.119 -0.2726  0.3874 -0.0800
  177MOL0     C24315   2.659   4.513   3.106  0.4419 -0.4932 -0.3551
  177MOL0     C24316   2.693   4.373   3.111 -0.8299  0.0421 -0.3564
  177MOL0     C24317   2.756   4.624   3.092  0.2205 -0.4733  0.1335
  177MOL0     C24318   2.899   4.604   3.085 -0.2681 -0.0857 -0.3624
  177MOL0     O24319   2.978   4.715   3.123 -0.1865  0.7910  0.2429
  177MOL0     C24320   3.114   4.719   3.100 -0.3812 -0.5665  0.3178
  177MOL0     C24321   3.196   4.695   3.204  0.4953 -0.3127 -0.6719
  177MOL0     C24322   3.332   4.692   3.180 -0.3138 -0.0926  0.6131
  177MOL0     C24323   3.379   4.713   3.049 -0.2054 -0.6716 -0.3251
  177MOL0     O24324   3.516   4.722   3.027  0.9204  0.0527 -0.0073
  177MOL0     C24325   3.592   4.601   3.059  0.1812 -0.5505  0.3712
  177MOL0     C24326   3.652   4.538   2.933 -0.1178  0.5019 -0.5213
  177MOL0     C24327   3.545   4.502   2.827  0.2346 -0.1887 -0.4122
  177MOL0     C24328   3.450   4.390   2.862  0.7955 -0.1753 -0.4426
  177MOL0     C24329   3.335   4.386   2.764  0.9312 -0.2730 -0.2173
  177MOL0     C24330   3.249   4.262   2.788 -0.3156 -0.1443 -0.0493
  177MOL0     C24331   3.189   4.258   2.926  0.5622  0.9630 -0.2261
  177MOL0     C24332   3.097   4.134   2.952 -0.7744 -0.4906 -0.5022
  177MOL0    Cl24333   3.197   3.987   2.967 -0.2098 -0.0500 -0.0663
  177MOL0     C24334   3.295   4.737   2.943  0.5037  0.2387 -0.3115
  177MOL0     C24335   3.158   4.739   2.969  0.9356  0.3915 -0.4339
  177MOL0     O24336   2.944   4.501   3.037  0.5107 -0.3597  0.0322
  177MOL0     C24337   2.702   4.753   3.080 -0.4521 -1.3243  0.5044
  177MOL0     C24338   2.558   4.776   3.092 -0.4092  0.2132 -0.2914
  177MOL0     N24339   1.863   4.407   3.264  0.2743 -0.9284 -0.3205
  177MOL0     N24340   1.798   4.422   3.378  0.0885  0.1949  0.3320
  177MOL0     C24341   0.588   4.796   3.808 -0.2614  0.5695  0.2800
  177MOL0     C24342   0.471   4.737   3.865  0.1033  0.1091 -0.1342
  177MOL0     C24343   0.172   4.692   4.241 -0.1420  0.2738  0.4315
  177MOL0     C24344   0.116   4.577   4.174 -0.5904 -0.5967 -0.1743
  177MOL0     C24345   0.014   4.506   4.227  0.3634 -0.2838  0.1567
  177MOL0     C24346  -0.033   4.536   4.356 -0.1810 -0.0955 -0.4917
  177MOL0     O24347  -0.135   4.480   4.430 -0.3847 -0.3241 -0.5520
  177MOL0     C24348  -0.201   4.371   4.371 -0.5095  0.0105 -0.1489
  177MOL0     C24349  -0.300   4.300   4.471 -0.2001 -0.1236 -0.8756
  177MOL0     C24350  -0.435   4.374   4.494  0.0531 -0.0460  0.1012
  177MOL0     C24351  -0.509   4.301   4.619  0.2530  0.0027  0.1439
  177MOL0     C24352  -0.648   4.360   4.618  0.3309  0.4533  0.4443
  177MOL0     C24353  -0.760   4.400   4.641  0.0358  0.1463  0.7430
  177MOL0     C24354   0.034   4.634   4.432 -0.7847 -0.6949  0.4604
  177MOL0     C24355   0.134   4.713   4.377 -0.1583  0.0572  0.7348
  177MOL0     C24356   0.176   4.834   4.455 -0.6635  0.0194 -0.2045
  177MOL0     H24357   0.557   4.782   4.194 -0.1302 -1.7705  0.3682
  177MOL0     H24358   0.769   4.875   4.080 -0.3876  0.6751  0.1172
  177MOL0     H24359   0.821   4.847   3.644 -0.2304 -0.0052 -0.9945
  177MOL0     H24360   0.871   4.715   3.766 -0.8533  0.9008  0.9420
  177MOL0     H24361   1.024   4.977   3.710  1.2557 -0.4320 -0.6634
  177MOL0     H24362   1.079   4.856   3.821 -2.5246 -1.6087  1.5912
  177MOL0     H24363   1.035   4.702   3.576 -1.6463  2.9466 -2.7710
  177MOL0     H24364   1.055   4.854   3.521 -0.0438  1.3834  0.3285
  177MOL0     H24365   1.292   4.872   3.643 -0.8344 -0.3520  2.1391
  177MOL0     H24366   1.254   4.720   3.717 -2.2095  3.1391  2.1799
  177MOL0     H24367   1.290   4.779   3.416  1.0644  0.2439  0.0756
  177MOL0     H24368   1.276   4.624   3.480  0.2618 -0.7434  0.4294
  177MOL0     H24369   1.505   4.812   3.545 -0.3101  0.3912 -0.1114
  177MOL0     H24370   1.466   4.659   3.632 -1.5928  0.2032 -0.5865
  177MOL0     H24371   1.550   4.672   3.356  1.3157  0.7627 -0.8672
  177MOL0     H24372   1.508   4.517   3.444  0.9377 -0.4009 -0.0848
  177MOL0     H24373   1.722   4.697   3.549  0.8869 -0.1020 -0.1002
  177MOL0     H24374   1.694   4.536   3.596 -0.0678  3.1959  2.5034
  177MOL0     H24375   1.812   4.734   3.288 -0.9414  0.0823  0.8703
  177MOL0     H24376   1.886   4.614   3.015  0.3435 -0.2055 -1.1720
  177MOL0     H24377   1.971   4.463   3.039  0.8494  1.6161 -1.3255
  177MOL0     H24378   2.065   4.726   3.144 -0.8707  0.7499 -1.7869
  177MOL0     H24379   2.148   4.565   3.163 -1.3277 -2.2241 -1.0183
  177MOL0     H24380   2.179   4.545   2.929 -0.6558 -2.1361  2.4053
  177MOL0     H24381   2.088   4.689   2.882  0.0309  0.2126 -0.1284
  177MOL0     H24382   2.355   4.676   2.913  0.9521 -0.7922  1.6545
  177MOL0     H24383   2.263   4.830   2.969 -4.3125 -0.6703  0.3096
  177MOL0     H24384   2.442   4.468   3.137 -1.4579  1.5446 -0.3018
  177MOL0     H24385   2.765   4.357   3.193 -2.6006 -0.8779  1.0861
  177MOL0     H24386   2.746   4.334   3.024 -0.0317 -1.5988  0.8013
  177MOL0     H24387   2.602   4.313   3.113  0.3920 -2.0551 -2.2841
  177MOL0     H24388   3.159   4.676   3.305  0.2966  2.8106 -0.0542
  177MOL0     H24389   3.403   4.661   3.257  0.7116  0.8218  0.0491
  177MOL0     H24390   3.675   4.632   3.124  2.2473 -1.2637 -1.7922
  177MOL0     H24391   3.528   4.528   3.109 -0.0203  0.2776  1.3609
  177MOL0     H24392   3.711   4.615   2.882  0.1565 -0.3909 -1.6224
  177MOL0     H24393   3.718   4.455   2.960 -1.8001 -0.5828  0.4760
  177MOL0     H24394   3.601   4.474   2.738  0.3536  1.5587 -0.9331
  177MOL0     H24395   3.485   4.591   2.806 -3.1276 -2.1620  0.1068
  177MOL0     H24396   3.416   4.403   2.966 -0.2660 -4.7549  0.0158
  177MOL0     H24397   3.496   4.291   2.867 -0.7154 -0.8803  3.3323
  177MOL0     H24398   3.266   4.466   2.791  2.3184  0.0578  2.7859
  177MOL0     H24399   3.369   4.406   2.663  2.4116 -0.3323  0.2428
  177MOL0     H24400   3.304   4.168   2.773 -2.8236 -1.7670  0.3546
  177MOL0     H24401   3.170   4.270   2.714  0.6472 -2.2147 -1.4200
  177MOL0     H24402   3.119   4.342   2.932  0.2538  1.0464 -3.3566
  177MOL0     H24403   3.269   4.261   3.001 -1.3482 -1.8636  2.1536
  177MOL0     H24404   3.033   4.127   2.864 -1.3805 -0.5104 -0.0645
  177MOL0     H24405   3.025   4.152   3.033 -0.0704  2.9051 -0.4770
  177MOL0     H24406   3.335   4.746   2.843 -0.8195 -3.5216 -1.3490
  177MOL0     H24407   3.084   4.744   2.889 -0.3421 -1.8966  0.5272
  177MOL0     H24408   2.759   4.844   3.069 -0.7191 -1.3900 -2.0225
  177MOL0     H24409   2.515   4.876   3.094 -0.2566  0.3303  2.5596
  177MOL0     H24410   0.598   4.800   3.700  1.8296  0.9887  0.4429
  177MOL0     H24411   0.397   4.694   3.798  1.3647 -3.0159  0.3176
  177MOL0     H24412   0.144   4.551   4.073 -1.9170  1.1242 -1.0313
  177MOL0     H24413  -0.019   4.426   4.162  2.2044  0.2399 -1.5253
  177MOL0     H24414  -0.254   4.402   4.281  0.4142 -0.6364 -0.9394
  177MOL0     H24415  -0.117   4.304   4.348  0.4832  2.2484 -3.7080
  177MOL0     H24416  -0.242   4.286   4.562 -0.6483 -1.0574 -0.7206
  177MOL0     H24417  -0.326   4.199   4.439 -1.3353 -1.0221  2.5030
  177MOL0     H24418  -0.422   4.481   4.514 -0.5484 -0.4531  3.2540
  177MOL0     H24419  -0.500   4.364   4.407 -0.5995 -3.5405  0.8100
  177MOL0     H24420  -0.465   4.317   4.718 -0.3543  0.5080  0.3388
  177MOL0     H24421  -0.521   4.194   4.599 -0.7863  0.1060  0.1741
  177MOL0     H24422  -0.854   4.445   4.667  0.1847 -0.7655  3.1570
  177MOL0     H24423   0.003   4.647   4.535  0.9677 -1.9012  1.2059
  177MOL0     H24424   0.150   4.931   4.412 -1.9763  0.1616  0.8453
  177MOL0     H24425   0.131   4.831   4.555 -0.7508 -2.8240 -0.2427
  177MOL0     H24426   0.284   4.833   4.469 -0.9131 -0.7590  2.1830
  178MOL0     O24427  10.244   1.484   0.812  0.3068  0.9460  0.5193
  178MOL0     C24428  10.170   1.553   0.874  0.7924 -1.3355 -0.4693
  178MOL0     O24429  10.205   1.674   0.933  0.8813 -0.2083 -0.5834
  178MOL0     C24430  10.333   1.716   0.901  0.0680  0.3531  0.1226
  178MOL0     C24431  10.347   1.809   0.796  1.1084  0.0451 -1.2160
  178MOL0     C24432  10.468   1.875   0.771  0.7200 -0.0391 -0.3667
  178MOL0     C24433  10.588   1.832   0.837 -0.2244 -0.2181  0.3599
  178MOL0     O24434  10.697   1.903   0.814 -0.1829  0.3215 -0.8884
  178MOL0     C24435  10.810   1.822   0.779  0.0965 -0.3336 -0.0401
  178MOL0     C24436  10.930   1.913   0.774  0.3046  0.1567 -0.1033
  178MOL0     C24437  11.067   1.852   0.730 -0.4625  0.3858  0.2000
  178MOL0     C24438  11.187   1.948   0.752 -0.3349 -0.2916  0.2667
  178MOL0     C24439  11.311   1.917   0.677 -0.1753 -0.0497  0.5031
  178MOL0     C24440  11.394   1.806   0.738  0.5176  0.5572  0.2937
  178MOL0     C24441  11.540   1.816   0.707  0.5693  0.8993 -0.3287
  178MOL0     C24442  11.575   1.789   0.559  0.2758  0.3143  0.4614
  178MOL0     N24443  11.716   1.825   0.512 -0.1099 -0.1233 -0.2635
  178MOL0     C24444  11.837   1.816   0.578 -0.0688 -0.1666 -0.4581
  178MOL0     C24445  11.928   1.867   0.483  0.1384 -0.0082 -0.5188
  178MOL0     C24446  12.085   1.857   0.496  0.7399 -0.4150 -0.3075
  178MOL0     C24447  12.139   1.753   0.592  0.6134  0.2570  0.4763
  178MOL0     C24448  12.284   1.714   0.579 -0.3913  0.0846  0.4519
  178MOL0     C24449  12.374   1.842   0.552  0.2600 -0.0152 -0.2185
  178MOL0     O24450  12.505   1.794   0.540  0.6027 -0.5799  0.6630
  178MOL0     C24451  12.612   1.876   0.505  0.0205  1.0146  0.1653
  178MOL0     C24452  12.741   1.824   0.518 -0.2152 -0.2813 -0.4266
  178MOL0     C24453  12.864   1.889   0.488  0.2162  0.8235  1.0868
  178MOL0     C24454  12.987   1.802   0.508  1.2052  1.0049 -0.4244
  178MOL0     C24455  12.853   2.024   0.450 -0.4649 -0.1790  0.0967
  178MOL0     C24456  12.968   2.123   0.431 -0.0242 -0.1334  0.0632
  178MOL0     O24457  12.941   2.249   0.388 -0.3100 -0.7250  0.0907
  178MOL0     C24458  13.039   2.331   0.336 -0.5979  0.4550 -0.4467
  178MOL0     C24459  13.056   2.327   0.196  0.0772  0.2297 -0.5651
  178MOL0     C24460  13.158   2.403   0.133  0.1955  0.4835  0.2327
  178MOL0     C24461  13.249   2.478   0.206 -0.2999 -0.3746 -1.3088
  178MOL0     O24462  13.361   2.544   0.150  0.1427 -0.0745 -0.8568
  178MOL0     C24463  13.351   2.597   0.022  0.5172 -0.5218 -0.0128
  178MOL0     C24464  13.467   2.696  -0.009 -0.4124 -0.4618  0.5750
  178MOL0     C24465  13.602   2.629  -0.026 -0.5857  0.2786  0.3300
  178MOL0     C24466  13.720   2.731  -0.051  1.0671 -0.2634 -0.5352
  178MOL0     C24467  13.856   2.676  -0.110 -0.7536 -0.3393 -0.1247
  178MOL0     C24468  13.855   2.654  -0.257  0.4862  0.0089  0.0254
  178MOL0     C24469  13.973   2.554  -0.291 -0.3699  0.1493  0.2574
  178MOL0     C24470  13.969   2.512  -0.438  0.3941  0.2448  0.7091
  178MOL0    Cl24471  13.974   2.658  -0.531 -0.4393 -0.2088 -0.1501
  178MOL0     C24472  13.238   2.472   0.351  1.4049  0.2281  0.3569
  178MOL0     C24473  13.143   2.394   0.414  0.2826  0.7216 -1.1293
  178MOL0     O24474  13.075   2.080   0.466 -0.3766 -0.4171 -0.5913
  178MOL0     C24475  12.724   2.077   0.435 -0.7490 -0.0158 -0.2889
  178MOL0     C24476  12.607   2.006   0.464  0.8942 -0.6067 -0.3892
  178MOL0     N24477  11.857   1.921   0.377  0.0662  0.2202  0.3623
  178MOL0     N24478  11.733   1.899   0.398  0.9479 -0.0895 -0.0122
  178MOL0     C24479  10.572   1.739   0.938  0.1702  1.4406  0.1426
  178MOL0     C24480  10.445   1.677   0.978 -0.0256 -0.1766  0.2103
  178MOL0     C24481  10.031   1.506   0.883 -0.2093  0.9237 -0.3330
  178MOL0     C24482  10.011   1.371   0.853 -0.5471 -0.4775  0.2369
  178MOL0     C24483   9.884   1.308   0.867 -1.5005 -0.1068 -0.3114
  178MOL0     C24484   9.773   1.387   0.890 -0.0880 -0.0646  0.1641
  178MOL0     O24485   9.651   1.328   0.898 -0.1687  0.0466 -0.3814
  178MOL0     C24486   9.536   1.391   0.846 -0.2519 -0.2871  0.0181
  178MOL0     C24487   9.422   1.285   0.844 -0.3553 -0.1795  0.6707
  178MOL0     C24488   9.446   1.167   0.752 -0.1353 -0.0814 -0.7490
  178MOL0     C24489   9.459   1.194   0.596  0.0579 -0.1547 -0.1397
  178MOL0     C24490   9.326   1.243   0.549 -0.2196 -0.0095 -0.8003
  178MOL0     C24491   9.223   1.289   0.519 -0.5646  0.1503  0.4605
  178MOL0     C24492   9.788   1.523   0.901 -0.8501 -0.2406  0.6459
  178MOL0     C24493   9.917   1.588   0.903  0.3792  0.2049 -0.0799
  178MOL0     C24494   9.924   1.736   0.916 -0.3974  0.9974  0.3387
  178MOL0     H24495  10.255   1.836   0.745 -2.2609 -0.2310  3.9937
  178MOL0     H24496  10.468   1.952   0.695 -0.9827  0.2601 -0.1039
  178MOL0     H24497  10.796   1.776   0.681  0.6411  3.0619 -1.8671
  178MOL0     H24498  10.831   1.741   0.850  1.8878 -0.9502 -1.2189
  178MOL0     H24499  10.910   1.984   0.694  0.4622  0.4742  0.1353
  178MOL0     H24500  10.954   1.977   0.860  2.2871  0.0099 -0.4931
  178MOL0     H24501  11.079   1.757   0.783  3.1730  0.9276  0.5938
  178MOL0     H24502  11.050   1.831   0.624 -2.2270 -0.5590  0.6174
  178MOL0     H24503  11.162   2.052   0.725 -3.0773  0.0873  3.5667
  178MOL0     H24504  11.212   1.938   0.858  2.8378  1.3183 -0.2018
  178MOL0     H24505  11.373   2.007   0.674 -2.5185  1.7361  2.1525
  178MOL0     H24506  11.287   1.891   0.573 -1.4676 -2.0616  1.2457
  178MOL0     H24507  11.388   1.831   0.845  1.3861 -2.4274  1.1338
  178MOL0     H24508  11.347   1.708   0.730 -2.2107  1.6759  1.5176
  178MOL0     H24509  11.584   1.732   0.763  0.5135  1.0236 -0.0994
  178MOL0     H24510  11.579   1.912   0.740  0.1177  0.1441  2.6955
  178MOL0     H24511  11.559   1.684   0.530  1.6756 -0.1180  1.1564
  178MOL0     H24512  11.514   1.859   0.502  2.1169  1.6564  0.0675
  178MOL0     H24513  11.859   1.773   0.676 -0.1457  1.1669  0.1612
  178MOL0     H24514  12.119   1.951   0.541  0.9560  0.9237 -3.0601
  178MOL0     H24515  12.125   1.850   0.395 -0.3392  0.2069 -0.7958
  178MOL0     H24516  12.120   1.785   0.695 -3.6707  0.4069 -0.1721
  178MOL0     H24517  12.090   1.656   0.584  2.5248 -1.0677  3.0386
  178MOL0     H24518  12.314   1.661   0.670 -1.6973  0.6906  1.2622
  178MOL0     H24519  12.283   1.643   0.496  0.5502 -1.8335  2.0042
  178MOL0     H24520  12.335   1.884   0.458 -2.8513  0.3310  1.1147
  178MOL0     H24521  12.361   1.914   0.633  1.2433 -1.7774  1.5908
  178MOL0     H24522  12.742   1.723   0.557 -1.4727 -0.1860 -0.1012
  178MOL0     H24523  13.044   1.823   0.599  0.3095  2.7415 -0.2178
  178MOL0     H24524  13.055   1.820   0.424  1.1126 -1.3135 -1.0720
  178MOL0     H24525  12.958   1.697   0.501  2.9045  0.2473  2.5185
  178MOL0     H24526  12.991   2.269   0.132  0.1579 -0.9088  0.3464
  178MOL0     H24527  13.173   2.384   0.027 -2.1013  1.6902 -0.3772
  178MOL0     H24528  13.358   2.508  -0.040 -2.0992  0.0097 -1.1946
  178MOL0     H24529  13.255   2.648   0.012  0.9005  0.9519  2.7755
  178MOL0     H24530  13.445   2.752  -0.100  0.7840 -0.8145  0.0556
  178MOL0     H24531  13.472   2.782   0.059  3.4185  2.0373 -2.3993
  178MOL0     H24532  13.598   2.560  -0.110 -0.4845 -1.4740  1.7200
  178MOL0     H24533  13.624   2.578   0.068  2.4852  2.1654  0.7784
  178MOL0     H24534  13.745   2.783   0.042 -1.7779  0.4975 -0.0754
  178MOL0     H24535  13.689   2.809  -0.121  4.1150  1.7172  0.1338
  178MOL0     H24536  13.939   2.745  -0.091  0.4933 -1.7962 -0.1186
  178MOL0     H24537  13.888   2.589  -0.052 -2.5683 -0.6430  0.5120
  178MOL0     H24538  13.873   2.749  -0.308 -1.5112  1.3389  1.6332
  178MOL0     H24539  13.758   2.613  -0.286 -0.4354  1.4900  0.8687
  178MOL0     H24540  13.967   2.463  -0.230  4.1164 -0.6654 -0.2331
  178MOL0     H24541  14.070   2.602  -0.278  1.0987 -2.2635 -1.1594
  178MOL0     H24542  13.882   2.455  -0.472  0.3036  0.2137  0.9977
  178MOL0     H24543  14.061   2.457  -0.461  0.9873  0.9226  1.3951
  178MOL0     H24544  13.325   2.506   0.406  0.2786  2.9936  0.5828
  178MOL0     H24545  13.146   2.390   0.522  2.3082 -0.2609 -1.1868
  178MOL0     H24546  12.700   2.180   0.409 -0.0052  0.3548  0.4513
  178MOL0     H24547  12.512   2.059   0.468  1.1606 -0.2114  1.4174
  178MOL0     H24548  10.660   1.715   0.998  0.0606  1.2642  0.2319
  178MOL0     H24549  10.442   1.610   1.063 -0.5406  1.4097  1.5009
  178MOL0     H24550  10.091   1.302   0.830 -0.6845 -0.2586 -0.9818
  178MOL0     H24551   9.869   1.202   0.853 -0.6045 -0.3740  0.6411
  178MOL0     H24552   9.501   1.471   0.912 -0.6457 -0.4987  0.0698
  178MOL0     H24553   9.550   1.434   0.746  1.7798 -2.2472 -0.6204
  178MOL0     H24554   9.326   1.330   0.815  0.1569  2.3379  2.5516
  178MOL0     H24555   9.402   1.248   0.945  1.8569 -0.0395  1.2004
  178MOL0     H24556   9.549   1.137   0.776 -0.7977 -3.7481 -1.9651
  178MOL0     H24557   9.369   1.094   0.778  1.0346 -1.4806 -1.0986
  178MOL0     H24558   9.485   1.097   0.552  0.1489 -0.8899  1.4661
  178MOL0     H24559   9.533   1.274   0.578 -0.2356 -0.1135 -1.2100
  178MOL0     H24560   9.118   1.312   0.508 -0.6730  0.9975  2.7813
  178MOL0     H24561   9.694   1.577   0.891  0.0250  2.4356  4.6488
  178MOL0     H24562   9.967   1.765   0.820  0.0947 -1.5815 -0.3013
  178MOL0     H24563   9.824   1.779   0.924 -1.4563 -1.3929  0.6739
  178MOL0     H24564   9.980   1.766   1.006  1.2011  2.0072 -0.9437
  179MOL0     O24565   2.792   8.717   7.939 -0.3118 -0.2671 -0.2299
  179MOL0     C24566   2.777   8.833   7.920  0.6193  0.0455 -0.1899
  179MOL0     O24567   2.859   8.906   7.841  0.7085 -0.5737 -1.0163
  179MOL0     C24568   2.993   8.888   7.859 -0.1346  0.0814  0.5218
  179MOL0     C24569   3.059   8.891   7.973 -0.1161  0.1168  0.2059
  179MOL0     C24570   3.195   8.862   7.986 -0.2287 -0.4753 -0.2303
  179MOL0     C24571   3.278   8.857   7.875 -0.2430 -0.0818 -0.2393
  179MOL0     O24572   3.413   8.826   7.876  0.5054  0.2313  0.3110
  179MOL0     C24573   3.477   8.814   8.006 -0.2774 -0.1479  0.2018
  179MOL0     C24574   3.628   8.776   7.989 -0.3283  0.1344  0.3467
  179MOL0     C24575   3.640   8.653   7.902 -0.1779 -0.4254  0.1149
  179MOL0     C24576   3.779   8.607   7.899  0.0824  0.6536  0.7543
  179MOL0     C24577   3.796   8.486   7.816 -0.7777 -0.4303  0.5107
  179MOL0     C24578   3.933   8.416   7.836 -0.2408 -0.6482  0.9176
  179MOL0     C24579   4.057   8.509   7.811 -0.5006  0.1819 -0.4747
  179MOL0     C24580   4.076   8.568   7.668  0.9912  0.8661 -0.5503
  179MOL0     N24581   4.211   8.553   7.616  0.6421  0.0620 -0.6108
  179MOL0     C24582   4.256   8.474   7.514  0.0945  0.6140 -0.6401
  179MOL0     C24583   4.387   8.480   7.519 -0.9116 -0.1289  0.4537
  179MOL0     C24584   4.476   8.412   7.416 -0.8005  0.6306  0.6399
  179MOL0     C24585   4.625   8.447   7.426 -0.1829 -0.1726  0.4911
  179MOL0     C24586   4.719   8.372   7.325  0.3960  0.5295 -1.3026
  179MOL0     C24587   4.853   8.447   7.310 -0.5307  0.4329 -0.7974
  179MOL0     O24588   4.941   8.359   7.240  0.2040 -0.1248 -0.0690
  179MOL0     C24589   5.060   8.407   7.202  0.1330  0.3052 -0.8398
  179MOL0     C24590   5.099   8.541   7.199  1.2080  0.7669 -0.7543
  179MOL0     C24591   5.226   8.580   7.169 -0.6878  0.1705 -0.6520
  179MOL0     C24592   5.256   8.720   7.146  0.3400 -0.1191  0.0498
  179MOL0     C24593   5.326   8.479   7.129 -0.2710  0.7092  0.1036
  179MOL0     C24594   5.474   8.488   7.101  0.1196 -0.0841 -0.3525
  179MOL0     O24595   5.542   8.382   7.066 -0.2300 -0.4901 -0.0407
  179MOL0     C24596   5.681   8.383   7.058  0.3983  0.4213  0.0517
  179MOL0     C24597   5.756   8.310   7.150  0.3571  0.1421 -0.7608
  179MOL0     C24598   5.891   8.318   7.151 -0.0506  0.5614  0.6602
  179MOL0     C24599   5.965   8.378   7.054 -0.7847 -0.2683 -0.7108
  179MOL0     O24600   6.102   8.384   7.055  0.1325  0.2678 -0.4384
  179MOL0     C24601   6.149   8.246   7.054 -0.3555 -0.8387 -0.0910
  179MOL0     C24602   6.300   8.254   7.063  0.4741  0.4405  0.2885
  179MOL0     C24603   6.371   8.331   6.955 -0.6616 -0.3295 -0.0690
  179MOL0     C24604   6.528   8.320   6.979  0.6602 -0.2003  0.2216
  179MOL0     C24605   6.617   8.389   6.873 -0.4691  0.3377 -0.2915
  179MOL0     C24606   6.609   8.543   6.860 -0.0768  0.8238 -0.0943
  179MOL0     C24607   6.700   8.589   6.739  0.3479 -0.4876 -0.4661
  179MOL0     C24608   6.631   8.692   6.653 -0.3012 -0.0307  0.0834
  179MOL0    Cl24609   6.728   8.702   6.494  0.0041  0.0043  0.0872
  179MOL0     C24610   5.894   8.460   6.955  0.1877  0.0708 -0.7997
  179MOL0     C24611   5.753   8.452   6.957 -0.3416  0.1580  0.6835
  179MOL0     O24612   5.527   8.594   7.119 -1.4958  0.0487  0.6588
  179MOL0     C24613   5.283   8.342   7.128 -0.6707  0.5669 -0.7456
  179MOL0     C24614   5.152   8.307   7.165  0.5356  0.0324 -0.3076
  179MOL0     N24615   4.422   8.583   7.600  0.3344 -0.4188 -0.2315
  179MOL0     N24616   4.313   8.632   7.658  0.8640 -0.1128  0.2571
  179MOL0     C24617   3.214   8.875   7.748 -0.6076 -0.5143 -0.4560
  179MOL0     C24618   3.075   8.879   7.742  0.3458  0.1925 -0.8716
  179MOL0     C24619   2.655   8.898   7.966 -0.6234  0.2814 -0.1865
  179MOL0     C24620   2.587   8.995   7.890 -0.4252  0.6987  1.0619
  179MOL0     C24621   2.468   9.054   7.933 -0.0388  0.6367  0.4377
  179MOL0     C24622   2.424   9.036   8.065 -0.6878  0.4565 -0.5626
  179MOL0     O24623   2.333   9.126   8.114  0.5073  0.0088  0.0409
  179MOL0     C24624   2.273   9.098   8.240  0.5585 -0.0804 -0.5437
  179MOL0     C24625   2.193   9.210   8.296 -1.0267  0.3585  0.5721
  179MOL0     C24626   2.059   9.199   8.221 -0.9227 -0.5139 -0.6387
  179MOL0     C24627   1.950   9.281   8.289  0.0753  0.0821 -0.3115
  179MOL0     C24628   1.983   9.426   8.283  0.4753 -0.4064  0.2394
  179MOL0     C24629   2.008   9.542   8.261  0.1397  0.2355  0.2718
  179MOL0     C24630   2.496   8.944   8.148 -0.0805 -0.1455 -0.2224
  179MOL0     C24631   2.599   8.869   8.095  0.5944  0.4296 -0.5856
  179MOL0     C24632   2.660   8.768   8.190 -0.0720 -0.1769 -0.3786
  179MOL0     H24633   3.002   8.922   8.060  1.0952  1.8935  0.4321
  179MOL0     H24634   3.223   8.859   8.091 -1.7700  1.6894  0.3032
  179MOL0     H24635   3.427   8.741   8.070  0.3791  0.7292  1.7890
  179MOL0     H24636   3.474   8.908   8.062  0.3277 -0.5470  0.9216
  179MOL0     H24637   3.677   8.859   7.938 -1.5164  0.6858  0.0834
  179MOL0     H24638   3.670   8.764   8.090 -1.7371  0.8568  1.0401
  179MOL0     H24639   3.579   8.577   7.952 -3.6182  2.5053  0.8290
  179MOL0     H24640   3.599   8.676   7.803  0.7249  1.9369  0.2230
  179MOL0     H24641   3.852   8.679   7.861  2.1310 -0.3763  2.5065
  179MOL0     H24642   3.818   8.586   7.999  1.6126 -0.9454 -0.1309
  179MOL0     H24643   3.794   8.528   7.715 -1.9472  4.0074  2.1664
  179MOL0     H24644   3.718   8.411   7.832 -0.1065 -1.1172  0.6740
  179MOL0     H24645   3.933   8.386   7.941 -0.7021  1.5243  1.5813
  179MOL0     H24646   3.930   8.325   7.774  1.3248  1.0046 -1.8110
  179MOL0     H24647   4.153   8.462   7.832  0.4212  1.7969 -0.8628
  179MOL0     H24648   4.048   8.600   7.871  1.0082  1.3473 -1.9109
  179MOL0     H24649   4.011   8.502   7.610  0.8964 -1.3868  1.9355
  179MOL0     H24650   4.031   8.665   7.645 -0.6001 -0.0631 -1.5560
  179MOL0     H24651   4.197   8.406   7.453  1.6842 -0.5392 -0.9693
  179MOL0     H24652   4.449   8.441   7.314  2.8113  0.3086 -0.5728
  179MOL0     H24653   4.468   8.303   7.429  0.4136  0.5167  0.5740
  179MOL0     H24654   4.626   8.555   7.408  2.4668  0.6543  4.2556
  179MOL0     H24655   4.661   8.432   7.528  0.6827  3.1116  0.7953
  179MOL0     H24656   4.746   8.280   7.378 -0.5651  0.3233 -1.1645
  179MOL0     H24657   4.664   8.357   7.232 -3.4705 -3.4782  1.2206
  179MOL0     H24658   4.830   8.535   7.249  0.4252  1.1442 -0.1480
  179MOL0     H24659   4.891   8.475   7.408 -2.4632 -0.8301  0.3710
  179MOL0     H24660   5.023   8.614   7.223  1.1039  0.1922  0.7728
  179MOL0     H24661   5.332   8.752   7.218 -1.0884  1.4818  0.9282
  179MOL0     H24662   5.164   8.778   7.152 -0.4155 -0.9647 -2.2240
  179MOL0     H24663   5.301   8.735   7.048  3.0126 -2.5350  0.7599
  179MOL0     H24664   5.714   8.262   7.237  1.7589  0.4972  0.1442
  179MOL0     H24665   5.927   8.264   7.238 -2.5826 -0.5349  1.1384
  179MOL0     H24666   6.095   8.180   7.123 -0.0240 -0.4149  0.5896
  179MOL0     H24667   6.128   8.217   6.951 -0.8880  1.0219 -0.5385
  179MOL0     H24668   6.325   8.295   7.162  1.3601  0.1384  0.1986
  179MOL0     H24669   6.342   8.153   7.061 -1.0063 -0.2179 -2.8900
  179MOL0     H24670   6.326   8.431   6.949 -0.0053  0.1305  1.7755
  179MOL0     H24671   6.365   8.285   6.856  1.4077  2.2234 -1.4982
  179MOL0     H24672   6.556   8.214   6.977  1.1638 -0.0926  1.0810
  179MOL0     H24673   6.543   8.366   7.077  0.6255  1.0590 -0.3456
  179MOL0     H24674   6.722   8.370   6.893 -0.6780 -1.5729 -0.8457
  179MOL0     H24675   6.595   8.348   6.774 -0.6142 -0.2554 -0.0154
  179MOL0     H24676   6.649   8.595   6.948  0.7314  0.7599 -0.4148
  179MOL0     H24677   6.506   8.577   6.849 -0.6795 -0.4487  1.2055
  179MOL0     H24678   6.722   8.500   6.679  2.1413 -0.4379  0.0449
  179MOL0     H24679   6.801   8.622   6.765  0.3266  0.4289 -1.4610
  179MOL0     H24680   6.637   8.792   6.697 -1.0420  1.1222 -2.2687
  179MOL0     H24681   6.526   8.667   6.637 -0.8836  0.8195  2.2567
  179MOL0     H24682   5.949   8.517   6.881  0.0151  0.8729 -0.3163
  179MOL0     H24683   5.711   8.502   6.870  1.9137 -0.4822 -0.8554
  179MOL0     H24684   5.344   8.260   7.091  0.3259  2.0324 -2.5166
  179MOL0     H24685   5.119   8.204   7.167  1.9422 -0.4246  1.4277
  179MOL0     H24686   3.274   8.877   7.658 -1.4376  1.0616 -1.0229
  179MOL0     H24687   3.033   8.886   7.642  0.1721  1.4338 -0.7279
  179MOL0     H24688   2.617   9.017   7.788  0.8751 -2.0031  0.7713
  179MOL0     H24689   2.407   9.113   7.865  1.0458  1.3079  0.0185
  179MOL0     H24690   2.219   9.004   8.227 -3.0077  1.3423  2.3183
  179MOL0     H24691   2.356   9.082   8.309 -1.6939  0.0548  2.3577
  179MOL0     H24692   2.241   9.303   8.268  1.6637 -0.6035  1.7067
  179MOL0     H24693   2.179   9.210   8.404 -0.9207  2.4910  0.6148
  179MOL0     H24694   2.060   9.236   8.119 -2.5012  0.3400 -0.3842
  179MOL0     H24695   2.021   9.097   8.212 -1.5269 -0.1752 -2.1650
  179MOL0     H24696   1.926   9.254   8.392  1.9918  2.2357  0.7798
  179MOL0     H24697   1.858   9.268   8.230 -0.2594  0.9833 -0.0088
  179MOL0     H24698   2.027   9.647   8.247  0.1808  0.2325  0.3076
  179MOL0     H24699   2.473   8.924   8.252  2.2053 -0.9899  0.1757
  179MOL0     H24700   2.631   8.666   8.164  2.6080 -1.2243  0.3256
  179MOL0     H24701   2.769   8.777   8.179  0.0335 -0.5655  0.2478
  179MOL0     H24702   2.642   8.786   8.297  1.0199  2.0748 -0.5191
  180MOL0     O24703  10.591   0.429   9.752  0.0138  0.0120  0.1235
  180MOL0     C24704  10.564   0.323   9.812  0.5415  0.3445  0.8317
  180MOL0     O24705  10.652   0.239   9.882  0.3070 -0.3403 -0.5077
  180MOL0     C24706  10.787   0.261   9.876  0.1111 -1.0503  0.3401
  180MOL0     C24707  10.865   0.242   9.762  0.2229  0.5016 -0.4330
  180MOL0     C24708  11.008   0.252   9.771  0.5718 -0.2819 -0.2045
  180MOL0     C24709  11.068   0.286   9.899 -0.4124 -0.6408 -0.6565
  180MOL0     O24710  11.205   0.308   9.920 -0.1206  0.3861  0.2917
  180MOL0     C24711  11.289   0.333   9.803  0.0460 -0.6782 -0.8428
  180MOL0     C24712  11.403   0.429   9.827  0.3090 -0.3996 -0.6078
  180MOL0     C24713  11.486   0.404   9.955 -0.4844  0.8298 -1.3720
  180MOL0     C24714  11.575   0.526   9.984 -0.2495 -0.4724 -1.0579
  180MOL0     C24715  11.663   0.516  10.105  0.0315  0.2630 -0.6562
  180MOL0     C24716  11.781   0.418  10.105 -0.4588  0.3416 -0.0700
  180MOL0     C24717  11.881   0.458   9.995  0.4573  0.0158  0.0969
  180MOL0     C24718  12.013   0.380   9.983  0.0276  1.0711 -1.2228
  180MOL0     N24719  12.116   0.449   9.912 -0.7573  0.2773 -0.6041
  180MOL0     C24720  12.099   0.528   9.795  1.0286 -0.2132  0.5037
  180MOL0     C24721  12.226   0.574   9.757  0.3025  0.4241  0.1217
  180MOL0     C24722  12.254   0.678   9.652  0.1884 -0.1993 -0.7062
  180MOL0     C24723  12.169   0.800   9.671 -0.3004  0.6576  1.5522
  180MOL0     C24724  12.224   0.911   9.573  0.3908 -0.2666 -0.4076
  180MOL0     C24725  12.140   1.037   9.560 -0.0018  0.3177 -0.3097
  180MOL0     O24726  12.018   0.997   9.498  0.3957 -0.2951  0.4701
  180MOL0     C24727  11.930   1.095   9.443 -1.4287 -0.3703  0.1663
  180MOL0     C24728  11.939   1.235   9.467  0.4405 -0.0481 -1.1649
  180MOL0     C24729  11.855   1.325   9.400 -0.7791 -0.5682  0.2745
  180MOL0     C24730  11.866   1.478   9.435  0.1314  0.1957 -0.1424
  180MOL0     C24731  11.760   1.275   9.307 -1.0330 -0.0315 -0.3642
  180MOL0     C24732  11.662   1.359   9.237  0.2585 -0.1975  0.0147
  180MOL0     O24733  11.542   1.289   9.207  0.0327 -0.7283 -0.7269
  180MOL0     C24734  11.436   1.335   9.137 -0.2251  0.7123  0.2668
  180MOL0     C24735  11.441   1.327   8.993 -0.4430  0.4850  0.7382
  180MOL0     C24736  11.329   1.366   8.917  1.3233  0.2417  0.3101
  180MOL0     C24737  11.215   1.408   8.978 -0.4624  0.2465  0.0766
  180MOL0     O24738  11.112   1.466   8.908  0.3403 -0.2785  0.2557
  180MOL0     C24739  11.081   1.403   8.779  0.7900  0.4015 -0.8652
  180MOL0     C24740  10.958   1.477   8.726  0.3632 -0.5528 -0.3021
  180MOL0     C24741  10.831   1.460   8.815  0.6228 -0.0474 -0.0742
  180MOL0     C24742  10.707   1.542   8.768 -0.3081  0.5438 -0.7725
  180MOL0     C24743  10.651   1.488   8.638 -0.4197 -0.9037 -0.2912
  180MOL0     C24744  10.514   1.537   8.606  0.4560  0.1937 -0.4741
  180MOL0     C24745  10.496   1.683   8.576  0.3860  0.4406 -0.5482
  180MOL0     C24746  10.345   1.703   8.527  0.5545  0.0895 -0.1947
  180MOL0    Cl24747  10.353   1.862   8.445 -0.1637  0.2618  0.0364
  180MOL0     C24748  11.213   1.423   9.117 -0.5153 -0.2550 -0.0614
  180MOL0     C24749  11.319   1.376   9.197  0.1754 -0.2121 -0.3455
  180MOL0     O24750  11.691   1.473   9.209  0.0555  0.0795  0.0356
  180MOL0     C24751  11.752   1.133   9.282 -0.4835 -0.1737 -1.3213
  180MOL0     C24752  11.833   1.049   9.354 -0.7321  0.6546 -0.6826
  180MOL0     N24753  12.309   0.494   9.832 -0.8377 -0.3817  0.1956
  180MOL0     N24754  12.246   0.431   9.923  0.3040  0.4633 -0.2032
  180MOL0     C24755  10.986   0.322  10.005 -1.0591 -0.9043 -0.2479
  180MOL0     C24756  10.851   0.304   9.992  0.2416  0.0560  0.0959
  180MOL0     C24757  10.421   0.295   9.816 -0.6255 -0.8121  0.0854
  180MOL0     C24758  10.354   0.255   9.701 -1.0628  0.5582 -0.3065
  180MOL0     C24759  10.214   0.215   9.706 -0.0416  0.2993 -0.0287
  180MOL0     C24760  10.139   0.217   9.826 -1.0327 -0.3203 -0.0437
  180MOL0     O24761  10.005   0.192   9.827  0.6807  0.0103  0.3125
  180MOL0     C24762   9.954   0.114   9.930 -0.1044 -0.1660  1.0588
  180MOL0     C24763   9.825   0.064   9.871  0.5007  1.4485  0.6671
  180MOL0     C24764   9.853  -0.026   9.742  0.1252  0.3540 -0.6744
  180MOL0     C24765   9.727  -0.100   9.707  0.4869 -0.7230 -0.3336
  180MOL0     C24766   9.746  -0.179   9.583  0.7069 -0.7030 -0.0822
  180MOL0     C24767   9.773  -0.237   9.481  0.0089  0.5389 -0.8181
  180MOL0     C24768  10.209   0.278   9.938 -0.6741  0.3211  0.3811
  180MOL0     C24769  10.347   0.307   9.931  0.4747 -0.1543  0.0365
  180MOL0     C24770  10.403   0.379  10.056  1.3552  1.0366  0.2213
  180MOL0     H24771  10.822   0.211   9.667  1.1757 -0.5560 -0.5370
  180MOL0     H24772  11.072   0.242   9.684  1.4378 -2.0893  0.5932
  180MOL0     H24773  11.231   0.367   9.717  0.8856  2.1049 -0.4157
  180MOL0     H24774  11.343   0.243   9.773  3.2822  1.3822 -1.7026
  180MOL0     H24775  11.467   0.417   9.739  0.0228 -1.3572 -0.6985
  180MOL0     H24776  11.366   0.530   9.845 -2.4478 -1.6057  1.1231
  180MOL0     H24777  11.424   0.384  10.042  3.4752 -0.0288  1.5448
  180MOL0     H24778  11.553   0.318   9.939  1.6437  2.3402 -1.0848
  180MOL0     H24779  11.628   0.547   9.891 -0.5015  0.8876 -0.9122
  180MOL0     H24780  11.507   0.606  10.013 -1.6655 -2.0395  0.1663
  180MOL0     H24781  11.608   0.475  10.190  2.2692 -0.7686  0.3785
  180MOL0     H24782  11.698   0.616  10.133 -1.3356  0.6907 -0.3650
  180MOL0     H24783  11.844   0.433  10.194 -0.9307  2.3498 -0.0319
  180MOL0     H24784  11.754   0.312  10.108  0.2148  0.1786  1.4648
  180MOL0     H24785  11.896   0.566   9.998 -1.0333  0.4489 -3.1814
  180MOL0     H24786  11.827   0.452   9.900  0.0428  1.6306  0.2111
  180MOL0     H24787  12.051   0.361  10.083 -2.5146  3.1307  0.2492
  180MOL0     H24788  12.011   0.282   9.934  5.6525  0.0296 -0.1206
  180MOL0     H24789  12.006   0.565   9.752  2.3494  1.2981 -1.2369
  180MOL0     H24790  12.243   0.630   9.555  0.7486  1.2221 -1.4939
  180MOL0     H24791  12.357   0.712   9.662  0.1019  0.9221 -3.0011
  180MOL0     H24792  12.067   0.772   9.640  0.4143  0.5613 -0.9540
  180MOL0     H24793  12.163   0.842   9.771 -1.4506  0.6359  1.5061
  180MOL0     H24794  12.317   0.944   9.621  0.9501 -3.3468  0.8474
  180MOL0     H24795  12.238   0.876   9.471 -2.4586  0.4781 -1.1367
  180MOL0     H24796  12.111   1.084   9.654  1.6477  1.4386 -0.3147
  180MOL0     H24797  12.194   1.112   9.501 -0.4595  1.7604  1.0447
  180MOL0     H24798  12.000   1.277   9.547  0.6592 -2.1729 -0.1518
  180MOL0     H24799  11.771   1.531   9.419  0.4588  0.7533 -0.2642
  180MOL0     H24800  11.942   1.534   9.380  1.6142  0.7804  2.3709
  180MOL0     H24801  11.893   1.497   9.539  0.5957 -1.6006  0.1002
  180MOL0     H24802  11.526   1.296   8.932 -1.0812  0.3704 -0.1170
  180MOL0     H24803  11.344   1.374   8.810 -3.5521 -0.7758 -0.6853
  180MOL0     H24804  11.167   1.423   8.715  0.0293  1.7289 -1.5032
  180MOL0     H24805  11.050   1.298   8.791  4.1415 -0.4302  2.6373
  180MOL0     H24806  10.984   1.583   8.725 -0.2804 -0.3856  0.0739
  180MOL0     H24807  10.944   1.437   8.625 -1.2814 -0.4704 -0.1279
  180MOL0     H24808  10.868   1.496   8.911 -1.2080  1.1129  0.2367
  180MOL0     H24809  10.800   1.355   8.808 -2.0625  0.5849  1.2110
  180MOL0     H24810  10.738   1.646   8.752 -1.4745  1.3766  1.7796
  180MOL0     H24811  10.630   1.540   8.846 -2.2471 -1.2255 -2.6094
  180MOL0     H24812  10.721   1.509   8.557  0.0096  0.5801  0.4297
  180MOL0     H24813  10.646   1.378   8.641  0.7885 -0.9710  0.0404
  180MOL0     H24814  10.450   1.513   8.691 -0.9104  0.5301 -1.3814
  180MOL0     H24815  10.475   1.470   8.529 -0.7923 -1.9969  1.9141
  180MOL0     H24816  10.567   1.728   8.506  0.6180  2.3895  0.8375
  180MOL0     H24817  10.516   1.751   8.660 -0.0548  1.4448 -1.2358
  180MOL0     H24818  10.282   1.701   8.617  2.7549 -0.6297  1.4134
  180MOL0     H24819  10.311   1.623   8.460 -1.4915 -3.4086  4.4521
  180MOL0     H24820  11.119   1.465   9.153 -2.0949 -2.4223 -1.3870
  180MOL0     H24821  11.313   1.391   9.304 -0.0889  0.4742 -0.4488
  180MOL0     H24822  11.686   1.078   9.216 -1.9755 -2.2211  1.6383
  180MOL0     H24823  11.818   0.941   9.351 -2.5485  0.8944 -1.4528
  180MOL0     H24824  11.026   0.339  10.104  0.2320 -2.8988 -0.3749
  180MOL0     H24825  10.779   0.326  10.071 -1.1750  1.0500 -1.3958
  180MOL0     H24826  10.408   0.247   9.607 -1.8198  1.1454 -0.8005
  180MOL0     H24827  10.166   0.181   9.615  0.5457 -0.3645 -0.1001
  180MOL0     H24828  10.024   0.030   9.940  0.4986 -0.5155 -3.6920
  180MOL0     H24829   9.943   0.181  10.016  0.6514  2.3997 -0.7386
  180MOL0     H24830   9.758   0.146   9.846 -2.5239 -0.7437  1.0294
  180MOL0     H24831   9.772   0.013   9.952 -3.7231  2.9793 -0.8686
  180MOL0     H24832   9.880   0.038   9.657 -2.6303  2.6904  0.0620
  180MOL0     H24833   9.932  -0.099   9.763 -0.7958  0.4205  3.8934
  180MOL0     H24834   9.646  -0.029   9.686 -1.6113 -2.9037 -0.1110
  180MOL0     H24835   9.685  -0.151   9.794 -2.5747  1.5101 -0.3372
  180MOL0     H24836   9.798  -0.288   9.390 -1.0776 -0.2253 -0.7028
  180MOL0     H24837  10.170   0.313  10.033  2.5538  0.1561  1.9342
  180MOL0     H24838  10.510   0.403  10.052  2.3859 -2.9388  0.1909
  180MOL0     H24839  10.352   0.476  10.064 -0.5531  0.2350 -1.3855
  180MOL0     H24840  10.393   0.318  10.146 -0.5861 -0.4823 -0.9526
  181MOL0     O24841   2.899   3.558   8.567  0.4401 -0.0928  0.4420
  181MOL0     C24842   2.872   3.552   8.686 -0.6615  0.1435  0.4406
  181MOL0     O24843   2.958   3.528   8.788  0.1257  0.1020 -0.4427
  181MOL0     C24844   3.088   3.499   8.774  0.4517  0.0658 -0.8167
  181MOL0     C24845   3.177   3.592   8.728 -0.0962 -0.0449 -0.4470
  181MOL0     C24846   3.309   3.563   8.718  0.2129 -0.2193 -0.3536
  181MOL0     C24847   3.365   3.437   8.758  0.2091 -0.6587 -0.3429
  181MOL0     O24848   3.500   3.438   8.770  0.1315 -0.5440  0.2886
  181MOL0     C24849   3.561   3.319   8.810  0.8574 -0.0245 -0.3445
  181MOL0     C24850   3.717   3.338   8.801 -0.0296  0.9756 -0.0887
  181MOL0     C24851   3.760   3.399   8.663 -0.0414  0.1844  0.1401
  181MOL0     C24852   3.904   3.362   8.619 -0.1657  0.5871 -0.5483
  181MOL0     C24853   4.008   3.399   8.723  0.3526  0.3216 -0.2583
  181MOL0     C24854   4.148   3.330   8.706 -0.5064  0.4177  0.2696
  181MOL0     C24855   4.271   3.409   8.762  0.6357 -0.1981  0.8886
  181MOL0     C24856   4.252   3.449   8.916  0.3977 -0.0507 -0.7285
  181MOL0     N24857   4.381   3.480   8.983  0.0659 -0.0084  0.0034
  181MOL0     C24858   4.472   3.577   8.953 -0.2713 -0.4639  0.7242
  181MOL0     C24859   4.571   3.568   9.043  0.5678 -0.1168  0.3207
  181MOL0     C24860   4.687   3.668   9.045  0.5754  0.3497  0.4589
  181MOL0     C24861   4.824   3.635   8.979 -0.2620  1.1593 -0.1264
  181MOL0     C24862   4.941   3.734   8.995  0.4501  0.6778 -0.0837
  181MOL0     C24863   4.983   3.756   9.139 -0.8070 -0.0436 -0.5690
  181MOL0     O24864   5.030   3.632   9.200 -0.0331  0.3234  0.6039
  181MOL0     C24865   5.028   3.630   9.337  1.4431  0.4904 -0.2454
  181MOL0     C24866   5.068   3.513   9.405 -0.4479 -0.3803  0.6121
  181MOL0     C24867   5.083   3.498   9.538  0.2846 -0.4467 -1.0537
  181MOL0     C24868   5.127   3.359   9.589  0.5942 -0.1660 -0.3272
  181MOL0     C24869   5.056   3.612   9.630  0.0006 -0.4694  0.3472
  181MOL0     C24870   5.056   3.605   9.775  0.0709  0.1880 -0.8428
  181MOL0     O24871   5.061   3.722   9.840  0.5144 -0.7487  0.1687
  181MOL0     C24872   5.088   3.712   9.975 -0.1364  0.1046 -0.7338
  181MOL0     C24873   4.991   3.671  10.067  0.0937  0.3428 -0.0590
  181MOL0     C24874   5.016   3.672  10.203 -0.1980 -1.3450  0.0641
  181MOL0     C24875   5.137   3.713  10.258 -0.6678  0.0114  0.3148
  181MOL0     O24876   5.159   3.702  10.395 -0.2561 -0.5354 -1.0456
  181MOL0     C24877   5.250   3.790  10.460  0.2838  0.1990 -0.4116
  181MOL0     C24878   5.240   3.757  10.611 -0.4038  0.1351  0.3264
  181MOL0     C24879   5.127   3.836  10.675 -0.3517  0.4446  0.0564
  181MOL0     C24880   4.994   3.810  10.614 -0.7439 -0.3254 -0.5784
  181MOL0     C24881   4.886   3.869  10.701  0.1767 -0.6554  0.3248
  181MOL0     C24882   4.744   3.845  10.649  0.4669 -0.9659  0.5234
  181MOL0     C24883   4.641   3.946  10.722 -0.1269 -0.2133 -0.1045
  181MOL0     C24884   4.512   3.868  10.744 -0.5242  0.4758 -0.0786
  181MOL0    Cl24885   4.397   3.977  10.831 -0.1623 -0.2547 -0.1672
  181MOL0     C24886   5.241   3.750  10.165  0.8387 -0.4229 -0.4008
  181MOL0     C24887   5.213   3.750  10.024  0.5800 -0.2144 -0.9555
  181MOL0     O24888   5.050   3.497   9.830 -0.3402  0.5019  0.0584
  181MOL0     C24889   5.014   3.728   9.561 -0.1670 -0.2232  0.3332
  181MOL0     C24890   5.006   3.735   9.420  0.9427  0.2755 -0.0120
  181MOL0     N24891   4.537   3.470   9.126  0.7467  0.0106  0.2808
  181MOL0     N24892   4.434   3.408   9.085  0.3708 -0.0399  0.6291
  181MOL0     C24893   3.271   3.340   8.806 -0.2934 -0.5598 -0.0885
  181MOL0     C24894   3.139   3.368   8.808 -1.2938  0.6721 -0.4178
  181MOL0     C24895   2.732   3.574   8.719  0.2329 -0.3511  0.6826
  181MOL0     C24896   2.626   3.507   8.648 -0.3420  0.2633 -0.0028
  181MOL0     C24897   2.491   3.512   8.692 -0.4074 -0.4145  0.8798
  181MOL0     C24898   2.451   3.585   8.803  0.4593  0.0579  0.2361
  181MOL0     O24899   2.317   3.575   8.831  0.5180 -0.3009 -0.1370
  181MOL0     C24900   2.261   3.636   8.952  0.4204 -0.1660  0.0972
  181MOL0     C24901   2.112   3.616   8.948 -0.4466 -0.0966 -0.1992
  181MOL0     C24902   2.061   3.643   9.086  0.1307  0.0344  0.2721
  181MOL0     C24903   1.907   3.649   9.087  0.8351 -0.3309  0.4963
  181MOL0     C24904   1.834   3.544   9.016  0.8114  0.8483  0.0954
  181MOL0     C24905   1.763   3.462   8.960  0.0319  0.3690 -0.1309
  181MOL0     C24906   2.551   3.653   8.865 -0.6028 -0.1225  0.4137
  181MOL0     C24907   2.690   3.661   8.826  0.1952  0.3160  0.3138
  181MOL0     C24908   2.783   3.747   8.894 -0.6665 -1.0561 -0.6197
  181MOL0     H24909   3.145   3.692   8.700  2.4918  1.0874  0.2993
  181MOL0     H24910   3.383   3.630   8.677  0.7590  0.0970  1.0849
  181MOL0     H24911   3.529   3.228   8.757  1.1153 -1.3150  1.6010
  181MOL0     H24912   3.540   3.302   8.916  1.5140  3.3521  0.4206
  181MOL0     H24913   3.753   3.397   8.886 -2.6241  1.3692  0.8406
  181MOL0     H24914   3.761   3.238   8.812 -2.7746 -0.0879  3.5469
  181MOL0     H24915   3.696   3.354   8.586 -2.5183 -1.0776  2.7474
  181MOL0     H24916   3.746   3.508   8.660  1.1614  0.3223 -2.0135
  181MOL0     H24917   3.909   3.256   8.593 -0.5622  0.2053  0.8164
  181MOL0     H24918   3.927   3.415   8.527 -0.0314  0.0320 -0.8402
  181MOL0     H24919   3.975   3.372   8.824  0.2896  0.3138 -0.2809
  181MOL0     H24920   4.013   3.508   8.726  0.5812  0.3122  2.2379
  181MOL0     H24921   4.144   3.225   8.738 -0.6061 -0.5788 -2.7268
  181MOL0     H24922   4.169   3.317   8.600  0.5640  0.3548  0.4762
  181MOL0     H24923   4.300   3.501   8.710  2.1496 -1.2699 -0.2694
  181MOL0     H24924   4.358   3.344   8.749  0.5930 -0.1941  0.5771
  181MOL0     H24925   4.202   3.546   8.924 -0.4328 -0.5382  0.2210
  181MOL0     H24926   4.201   3.378   8.981  0.4501 -0.0874 -0.7268
  181MOL0     H24927   4.467   3.647   8.870  2.7122 -1.6416 -0.5837
  181MOL0     H24928   4.711   3.675   9.152  0.8573  0.2761  0.4014
  181MOL0     H24929   4.645   3.758   8.999 -1.0412 -0.6167 -0.0189
  181MOL0     H24930   4.853   3.535   9.011  1.3055  2.0221  1.2824
  181MOL0     H24931   4.810   3.637   8.870  0.0674  2.2677 -0.1648
  181MOL0     H24932   5.026   3.699   8.935 -0.3476 -0.5160 -0.5466
  181MOL0     H24933   4.907   3.829   8.952  0.9614 -0.8561 -4.3366
  181MOL0     H24934   5.069   3.823   9.153 -0.0286 -1.5034  2.5734
  181MOL0     H24935   4.899   3.798   9.195  0.5178  1.7672  0.1820
  181MOL0     H24936   5.093   3.430   9.340 -2.4883 -0.0502 -0.7151
  181MOL0     H24937   5.147   3.291   9.507  3.3355 -0.1907  0.2765
  181MOL0     H24938   5.047   3.317   9.651 -0.4374  1.3739 -0.5406
  181MOL0     H24939   5.214   3.367   9.656  2.6668 -2.8880 -2.4912
  181MOL0     H24940   4.897   3.625  10.041  0.9195 -1.1807 -0.4570
  181MOL0     H24941   4.934   3.643  10.268 -1.1828 -0.2260 -0.6206
  181MOL0     H24942   5.353   3.778  10.424 -0.4645 -0.4477 -2.5222
  181MOL0     H24943   5.230   3.895  10.437 -0.3598 -0.3063 -2.3544
  181MOL0     H24944   5.220   3.653  10.640  4.6070 -0.7195  1.4898
  181MOL0     H24945   5.335   3.781  10.659  0.9032  0.2833 -2.1464
  181MOL0     H24946   5.148   3.944  10.680  0.5072  0.2478  1.0384
  181MOL0     H24947   5.117   3.807  10.780 -1.1712 -0.8427 -0.3554
  181MOL0     H24948   4.981   3.702  10.606  4.1665 -1.0959 -1.1281
  181MOL0     H24949   4.987   3.857  10.515  0.7171  5.0406  1.4769
  181MOL0     H24950   4.891   3.826  10.801  1.5289 -1.1401  0.0672
  181MOL0     H24951   4.904   3.977  10.707 -1.7431 -0.2955  0.3479
  181MOL0     H24952   4.709   3.742  10.663 -1.0911 -0.7041 -0.9936
  181MOL0     H24953   4.742   3.862  10.541  0.9764 -0.3797  0.5988
  181MOL0     H24954   4.625   4.036  10.662  0.1298 -0.1600 -0.0916
  181MOL0     H24955   4.675   3.966  10.824  0.8276 -0.8129 -0.2898
  181MOL0     H24956   4.526   3.782  10.810  0.7799  0.4135 -0.4044
  181MOL0     H24957   4.467   3.827  10.654 -1.0886 -1.1740  0.9253
  181MOL0     H24958   5.338   3.777  10.205  0.7500  0.6823 -0.8948
  181MOL0     H24959   5.290   3.779   9.953  1.3335  0.9351  0.2769
  181MOL0     H24960   5.004   3.820   9.617 -3.7951  0.3656 -1.0095
  181MOL0     H24961   4.988   3.835   9.380  2.2589 -0.4830 -2.7883
  181MOL0     H24962   3.308   3.240   8.821 -0.5823 -0.7204 -0.4254
  181MOL0     H24963   3.067   3.293   8.839  0.3746 -0.9365 -0.2198
  181MOL0     H24964   2.655   3.440   8.567 -0.0182 -0.6233  0.8385
  181MOL0     H24965   2.411   3.465   8.635  0.4064  0.1664 -0.8263
  181MOL0     H24966   2.303   3.590   9.043 -0.6196 -0.9199  0.2105
  181MOL0     H24967   2.285   3.743   8.961  2.6493 -0.7546  2.4802
  181MOL0     H24968   2.095   3.510   8.927  0.9872 -0.2370 -0.7486
  181MOL0     H24969   2.076   3.690   8.876  0.9387  0.8408  0.0441
  181MOL0     H24970   2.098   3.566   9.154  1.4066  0.6615  0.3148
  181MOL0     H24971   2.086   3.736   9.137 -2.6679  0.8248  0.3775
  181MOL0     H24972   1.869   3.741   9.041 -0.1053 -0.8301  0.2326
  181MOL0     H24973   1.871   3.669   9.189 -2.1707  1.2404 -0.7237
  181MOL0     H24974   1.707   3.392   8.901 -0.7424  0.9161 -0.0609
  181MOL0     H24975   2.518   3.717   8.946 -4.3862  1.6538 -2.2344
  181MOL0     H24976   2.737   3.838   8.933  1.5764 -0.7527  1.5976
  181MOL0     H24977   2.812   3.696   8.987 -1.8001  0.0507  0.3787
  181MOL0     H24978   2.865   3.763   8.824 -0.8992 -2.6377 -1.3090
  182MOL0     O24979  10.261   1.183   7.060 -0.0412  0.3038  0.0795
  182MOL0     C24980  10.197   1.131   7.147  0.3243 -0.6722 -0.5468
  182MOL0     O24981  10.246   1.075   7.264 -0.1028 -0.2739 -0.0241
  182MOL0     C24982  10.378   1.092   7.283  0.2641 -0.3234  0.1717
  182MOL0     C24983  10.461   0.985   7.255  0.0932 -0.1478  0.1344
  182MOL0     C24984  10.598   1.009   7.267 -0.4677  0.5402 -0.0384
  182MOL0     C24985  10.652   1.129   7.314  0.3018  0.0594  0.7637
  182MOL0     O24986  10.789   1.140   7.317  0.2234  0.0149  0.3443
  182MOL0     C24987  10.848   1.253   7.378  1.2030 -0.6710 -0.0213
  182MOL0     C24988  11.009   1.243   7.396 -0.3407 -0.2613  0.0448
  182MOL0     C24989  11.058   1.150   7.514  0.0234 -0.1640 -0.8186
  182MOL0     C24990  11.214   1.151   7.538 -0.2745 -0.1661 -0.6731
  182MOL0     C24991  11.260   1.037   7.617  0.1403  0.4570  0.3867
  182MOL0     C24992  11.406   1.048   7.665 -0.1664  0.7299 -0.0874
  182MOL0     C24993  11.449   0.932   7.749 -0.6278  1.0279  0.4923
  182MOL0     C24994  11.480   0.806   7.657  0.3026  0.3311 -0.2200
  182MOL0     N24995  11.626   0.791   7.653  0.4525 -0.3094  0.0241
  182MOL0     C24996  11.692   0.754   7.771  0.2967  0.2769  0.3611
  182MOL0     C24997  11.818   0.719   7.716 -0.1902  0.0954 -0.2556
  182MOL0     C24998  11.933   0.665   7.791  0.6909 -0.5265 -0.2279
  182MOL0     C24999  11.898   0.519   7.809  0.4260 -0.5689 -0.1771
  182MOL0     C25000  11.993   0.436   7.897 -0.3390 -0.4584  0.1372
  182MOL0     C25001  12.134   0.441   7.848 -0.4274 -0.3399  0.1014
  182MOL0     O25002  12.189   0.569   7.897  0.4834  0.5034 -0.0615
  182MOL0     C25003  12.323   0.611   7.888  0.0439  0.5375  0.6461
  182MOL0     C25004  12.368   0.728   7.948 -0.3567  0.0775  0.1760
  182MOL0     C25005  12.505   0.754   7.978 -0.0295  0.3147 -0.0334
  182MOL0     C25006  12.540   0.866   8.067 -0.1123  0.8817  0.5274
  182MOL0     C25007  12.604   0.672   7.923  0.9037  0.0721 -0.0952
  182MOL0     C25008  12.751   0.692   7.939 -0.2544  0.2783  0.0740
  182MOL0     O25009  12.830   0.685   7.830 -0.0390  0.4958  0.4493
  182MOL0     C25010  12.948   0.752   7.827  0.9892  0.4145 -0.8539
  182MOL0     C25011  12.974   0.886   7.859 -0.3947 -0.6974  0.1046
  182MOL0     C25012  13.103   0.936   7.841 -0.0120 -0.9811  0.2414
  182MOL0     C25013  13.208   0.865   7.796  1.0882  0.2393  0.5676
  182MOL0     O25014  13.332   0.920   7.799  0.0788  0.4830 -0.4800
  182MOL0     C25015  13.437   0.843   7.743 -0.2394 -0.0741 -0.2620
  182MOL0     C25016  13.559   0.923   7.725 -1.0571 -0.1302  0.0865
  182MOL0     C25017  13.593   0.984   7.865 -0.3589  0.4628  0.7647
  182MOL0     C25018  13.726   1.065   7.875 -0.2469 -0.1506  0.2955
  182MOL0     C25019  13.846   0.980   7.887  0.3329 -0.3912 -0.2437
  182MOL0     C25020  13.960   1.071   7.866 -0.7513  0.3391 -1.6771
  182MOL0     C25021  14.094   0.991   7.888 -0.2934  0.1001  0.6060
  182MOL0     C25022  14.221   1.076   7.854 -0.0717  0.2243  0.5399
  182MOL0    Cl25023  14.368   0.966   7.879  0.4895 -0.3736 -0.6453
  182MOL0     C25024  13.182   0.728   7.767  0.2202  0.2820 -0.5699
  182MOL0     C25025  13.053   0.677   7.779 -0.0218 -0.2605  0.5808
  182MOL0     O25026  12.781   0.721   8.055  0.0625 -0.4475 -0.5818
  182MOL0     C25027  12.560   0.569   7.836 -0.0753  0.1417  0.2126
  182MOL0     C25028  12.421   0.534   7.822 -0.6442 -0.6068 -0.3470
  182MOL0     N25029  11.821   0.753   7.586 -0.1447  0.2663  0.5436
  182MOL0     N25030  11.712   0.811   7.554 -0.4628  0.2836 -0.1431
  182MOL0     C25031  10.561   1.235   7.340  0.6512 -0.0829 -0.1038
  182MOL0     C25032  10.425   1.220   7.331  0.4922  0.7358  0.1301
  182MOL0     C25033  10.049   1.145   7.141  0.0418  0.3851  0.7896
  182MOL0     C25034   9.978   1.148   7.268 -0.6997  0.8090 -0.4857
  182MOL0     C25035   9.844   1.172   7.288 -0.1885  0.8194 -0.0385
  182MOL0     C25036   9.768   1.191   7.178  0.8729 -0.7600  0.8942
  182MOL0     O25037   9.637   1.226   7.188  0.2155  0.9667 -0.2187
  182MOL0     C25038   9.553   1.113   7.187 -0.3016  1.2103 -0.5916
  182MOL0     C25039   9.409   1.160   7.203  0.0012  0.1867 -0.3369
  182MOL0     C25040   9.305   1.061   7.151  0.6675  0.6168 -0.1006
  182MOL0     C25041   9.291   0.921   7.225  0.3288 -0.5362 -0.9068
  182MOL0     C25042   9.396   0.824   7.186  0.3536 -1.1495 -1.0235
  182MOL0     C25043   9.466   0.730   7.169 -0.6767 -0.3817  0.8516
  182MOL0     C25044   9.828   1.190   7.049  0.7123 -0.5103 -0.7868
  182MOL0     C25045   9.965   1.164   7.029  0.2088  0.6112  0.2761
  182MOL0     C25046  10.016   1.183   6.899  0.1774  0.5481 -0.6246
  182MOL0     H25047  10.425   0.890   7.215 -0.6426  0.5036 -0.8088
  182MOL0     H25048  10.668   0.927   7.254 -1.5901 -0.9399  2.4553
  182MOL0     H25049  10.804   1.265   7.478  1.1556 -1.3091  0.0378
  182MOL0     H25050  10.822   1.345   7.325  0.8461  0.1546  1.5017
  182MOL0     H25051  11.051   1.215   7.299 -0.8281 -0.5430 -0.0932
  182MOL0     H25052  11.038   1.340   7.435 -0.1339 -0.9901  1.7999
  182MOL0     H25053  11.006   1.192   7.601 -0.6215  0.2868 -1.4092
  182MOL0     H25054  11.023   1.047   7.503  0.5692 -0.4200 -0.1770
  182MOL0     H25055  11.276   1.171   7.450 -2.5372  1.8799 -1.9233
  182MOL0     H25056  11.232   1.236   7.605 -1.0610  0.0716 -0.7579
  182MOL0     H25057  11.251   0.954   7.547 -2.8354  0.2436  0.8690
  182MOL0     H25058  11.182   1.009   7.689  1.1624 -0.7792  1.0446
  182MOL0     H25059  11.464   1.060   7.573 -2.0349  3.9023 -1.0049
  182MOL0     H25060  11.422   1.137   7.726 -3.8786  0.8577  0.9158
  182MOL0     H25061  11.368   0.913   7.820 -1.2339 -1.1110 -0.6852
  182MOL0     H25062  11.531   0.956   7.817 -0.5057 -0.2574  0.8244
  182MOL0     H25063  11.446   0.713   7.702  1.6297  0.0546  0.2702
  182MOL0     H25064  11.430   0.817   7.561 -1.1757  0.2494  0.5107
  182MOL0     H25065  11.645   0.744   7.868 -2.7352  1.8437 -0.8117
  182MOL0     H25066  11.927   0.714   7.889 -1.6118 -0.0883 -0.5161
  182MOL0     H25067  12.027   0.686   7.739  1.4355 -0.6326  1.0342
  182MOL0     H25068  11.803   0.519   7.863  0.6898  0.7538  0.3052
  182MOL0     H25069  11.880   0.475   7.710 -0.2862 -0.7411  0.0179
  182MOL0     H25070  11.984   0.485   7.995 -0.1335  1.3753 -0.7224
  182MOL0     H25071  11.959   0.334   7.916  2.3790 -1.3714  0.4943
  182MOL0     H25072  12.197   0.364   7.893 -1.8802 -0.4894  2.0043
  182MOL0     H25073  12.139   0.442   7.739  0.7354  0.3528  0.1463
  182MOL0     H25074  12.289   0.786   7.996  1.5716  1.6343  1.6505
  182MOL0     H25075  12.572   0.827   8.165 -0.5039  0.4108  0.4755
  182MOL0     H25076  12.453   0.928   8.088 -1.4564 -1.1132  1.2431
  182MOL0     H25077  12.626   0.923   8.031 -0.4479  1.3886  0.5221
  182MOL0     H25078  12.896   0.947   7.902  0.5341  0.3066  0.4062
  182MOL0     H25079  13.126   1.037   7.873 -1.2006 -1.0696  1.4411
  182MOL0     H25080  13.455   0.760   7.813 -0.2722  2.4140  2.9357
  182MOL0     H25081  13.412   0.805   7.644 -0.5302  0.7364 -0.5093
  182MOL0     H25082  13.645   0.862   7.696 -2.8310 -1.6282 -2.3710
  182MOL0     H25083  13.530   1.008   7.663  1.1667  0.5472 -0.1009
  182MOL0     H25084  13.608   0.898   7.931  0.8982 -1.6273 -2.0211
  182MOL0     H25085  13.512   1.050   7.896 -1.3280 -0.7821  0.9637
  182MOL0     H25086  13.719   1.132   7.961 -0.0291 -1.4314  1.3419
  182MOL0     H25087  13.736   1.130   7.787  0.1015 -1.2985 -0.5312
  182MOL0     H25088  13.856   0.931   7.985  2.6115  2.3884  1.0660
  182MOL0     H25089  13.857   0.910   7.804 -0.8924 -0.1454 -0.6246
  182MOL0     H25090  13.962   1.156   7.935  1.7818 -0.8668 -0.0917
  182MOL0     H25091  13.949   1.125   7.772 -1.5490  1.3414 -1.0274
  182MOL0     H25092  14.099   0.899   7.830 -1.8526 -0.9995  2.1157
  182MOL0     H25093  14.097   0.964   7.993  0.4054 -0.0858  0.5422
  182MOL0     H25094  14.232   1.174   7.902 -2.3941  1.6291 -1.5672
  182MOL0     H25095  14.229   1.100   7.747  0.2695 -2.7751 -0.1865
  182MOL0     H25096  13.261   0.668   7.722 -1.0201 -1.7143 -0.1983
  182MOL0     H25097  13.027   0.576   7.749 -3.0465  1.1227 -1.9530
  182MOL0     H25098  12.628   0.503   7.782 -2.0587 -0.0405 -2.2191
  182MOL0     H25099  12.369   0.460   7.762  0.0210  0.5545 -2.4538
  182MOL0     H25100  10.594   1.332   7.376  1.1431 -0.7517  1.3338
  182MOL0     H25101  10.356   1.296   7.365 -0.1946  1.3211 -2.3774
  182MOL0     H25102  10.030   1.129   7.362 -2.8012  1.1544  0.8326
  182MOL0     H25103   9.791   1.165   7.382  0.9460 -1.2684  0.4957
  182MOL0     H25104   9.566   1.044   7.103  0.3507 -0.8205  1.0782
  182MOL0     H25105   9.571   1.050   7.274 -0.9262  1.3281 -0.3717
  182MOL0     H25106   9.389   1.251   7.146  0.6826  0.3388 -0.3404
  182MOL0     H25107   9.390   1.184   7.308  0.3448  0.4903 -0.3387
  182MOL0     H25108   9.210   1.114   7.166  0.2612 -0.3626  0.9394
  182MOL0     H25109   9.323   1.051   7.044 -0.7704 -0.8276 -0.2323
  182MOL0     H25110   9.193   0.881   7.198 -0.6844  0.1741  1.4427
  182MOL0     H25111   9.285   0.926   7.335  0.2504 -1.4516 -0.8624
  182MOL0     H25112   9.547   0.664   7.149  0.8840  1.0797  2.1027
  182MOL0     H25113   9.769   1.217   6.962 -2.6373 -0.9535  1.1504
  182MOL0     H25114  10.067   1.091   6.869 -0.3634 -0.1632  0.5433
  182MOL0     H25115   9.926   1.182   6.837 -0.9873 -0.4260  0.9738
  182MOL0     H25116  10.081   1.270   6.894  0.9865  0.0380  0.5136
  183MOL0     O25117   3.891   9.463   9.372  0.0616  0.2551 -0.6482
  183MOL0     C25118   3.856   9.577   9.405 -0.2874 -0.3332 -0.0224
  183MOL0     O25119   3.938   9.683   9.425 -0.2299  0.8556  0.3115
  183MOL0     C25120   4.070   9.658   9.435 -0.5211  0.2464  1.1835
  183MOL0     C25121   4.133   9.624   9.560 -0.1974  0.6255  0.9093
  183MOL0     C25122   4.271   9.605   9.573  0.6515 -0.3439 -0.4355
  183MOL0     C25123   4.357   9.605   9.467  0.5668  0.6535  1.2378
  183MOL0     O25124   4.484   9.552   9.485  0.1792 -0.8297  0.2402
  183MOL0     C25125   4.568   9.544   9.374 -0.5486  0.6444 -0.1804
  183MOL0     C25126   4.697   9.472   9.400 -0.0561 -0.3110  0.3264
  183MOL0     C25127   4.787   9.536   9.506  0.1374 -0.0720  0.0719
  183MOL0     C25128   4.917   9.467   9.503  0.4460  0.1671  0.0922
  183MOL0     C25129   5.020   9.547   9.581  0.3177  0.0646 -0.3774
  183MOL0     C25130   5.130   9.448   9.625 -0.0053  0.0432  0.3951
  183MOL0     C25131   5.255   9.524   9.677 -0.1306  0.4799  0.5308
  183MOL0     C25132   5.372   9.423   9.717  0.8139  0.6257  0.0136
  183MOL0     N25133   5.466   9.378   9.613  0.0300 -0.3001 -0.1259
  183MOL0     C25134   5.510   9.248   9.603 -0.0704 -0.1337  0.2752
  183MOL0     C25135   5.601   9.254   9.500 -0.2653  0.3278 -0.0250
  183MOL0     C25136   5.689   9.149   9.447  0.2376  0.4521  0.0855
  183MOL0     C25137   5.827   9.190   9.397 -0.8429  0.5117 -0.3692
  183MOL0     C25138   5.907   9.061   9.375  0.2619 -0.5413 -0.3961
  183MOL0     C25139   6.046   9.088   9.325  0.3088 -0.0160  0.8260
  183MOL0     O25140   6.125   9.121   9.444 -0.2767 -0.5438 -0.1890
  183MOL0     C25141   6.261   9.119   9.426  0.5566  0.0033 -1.2172
  183MOL0     C25142   6.341   9.163   9.537 -0.7637 -0.3642 -0.4581
  183MOL0     C25143   6.478   9.182   9.521  0.0432  0.2398 -0.5922
  183MOL0     C25144   6.554   9.237   9.641 -0.6712  0.2175 -0.1840
  183MOL0     C25145   6.543   9.133   9.397 -0.3032 -0.0921  0.7406
  183MOL0     C25146   6.690   9.149   9.364  0.1130 -0.7394 -0.2273
  183MOL0     O25147   6.722   9.120   9.231 -0.8395 -0.2918 -0.1936
  183MOL0     C25148   6.847   9.167   9.196  0.9382  0.1598 -0.1538
  183MOL0     C25149   6.856   9.296   9.165  0.1180  0.2994 -0.4754
  183MOL0     C25150   6.979   9.345   9.105  0.5963  0.2231 -0.5089
  183MOL0     C25151   7.086   9.257   9.079  0.3190  0.4885  0.7593
  183MOL0     O25152   7.208   9.291   9.032  0.0707 -0.7458 -1.0590
  183MOL0     C25153   7.230   9.429   9.009  0.3407  0.0598  0.4397
  183MOL0     C25154   7.380   9.439   8.954  0.9858 -0.0857 -0.5839
  183MOL0     C25155   7.493   9.432   9.055  0.3502 -0.1680  0.9688
  183MOL0     C25156   7.495   9.314   9.148  0.6320  0.1778  0.3120
  183MOL0     C25157   7.645   9.289   9.191 -0.0964 -0.4204 -0.0117
  183MOL0     C25158   7.717   9.203   9.096 -0.6897 -0.2062  0.0339
  183MOL0     C25159   7.847   9.155   9.148 -0.0771  0.2140 -0.4133
  183MOL0     C25160   7.898   9.048   9.044  0.0231  0.0229 -0.6654
  183MOL0    Cl25161   8.057   8.953   9.094 -0.1218  0.2657  0.5951
  183MOL0     C25162   7.070   9.125   9.127  0.2198  0.2387  0.0664
  183MOL0     C25163   6.954   9.075   9.175  0.1312 -0.5757 -0.3272
  183MOL0     O25164   6.765   9.200   9.445  0.1547  0.0768 -0.5776
  183MOL0     C25165   6.463   9.084   9.298 -0.2264 -0.3870  0.3947
  183MOL0     C25166   6.324   9.081   9.309  0.1892 -0.0019 -0.4590
  183MOL0     N25167   5.616   9.393   9.462  0.1572 -0.2258  0.0555
  183MOL0     N25168   5.535   9.463   9.526  0.1495 -0.4387 -0.4019
  183MOL0     C25169   4.297   9.628   9.344 -0.2448 -0.5065  0.9246
  183MOL0     C25170   4.158   9.664   9.326 -0.1002 -0.8643 -0.4742
  183MOL0     C25171   3.709   9.606   9.390 -0.1984  0.2227 -0.4667
  183MOL0     C25172   3.620   9.509   9.427 -0.5972  0.0695  0.0195
  183MOL0     C25173   3.484   9.522   9.419 -0.2983 -0.8387 -0.0887
  183MOL0     C25174   3.421   9.637   9.360  0.2436 -0.0577  0.1904
  183MOL0     O25175   3.285   9.656   9.347 -0.6249  0.3594 -0.3383
  183MOL0     C25176   3.197   9.561   9.400 -0.3541  0.0248 -0.2184
  183MOL0     C25177   3.067   9.572   9.330  0.1781 -0.4587  0.0324
  183MOL0     C25178   3.091   9.533   9.178 -0.3088 -0.4900 -0.2545
  183MOL0     C25179   2.982   9.588   9.091  0.2447 -0.1335  0.1726
  183MOL0     C25180   2.844   9.543   9.119 -0.4131  0.5253  0.3889
  183MOL0     C25181   2.736   9.485   9.136 -0.5385 -0.3554 -0.2627
  183MOL0     C25182   3.516   9.732   9.310  0.5012 -0.2781  0.8081
  183MOL0     C25183   3.652   9.718   9.329 -0.6000 -0.2061  0.1783
  183MOL0     C25184   3.741   9.827   9.269 -0.5323  0.3450  0.0869
  183MOL0     H25185   4.063   9.627   9.643 -2.7577 -0.5017 -1.0780
  183MOL0     H25186   4.313   9.573   9.668  0.4698 -0.4790 -0.3991
  183MOL0     H25187   4.588   9.646   9.342 -0.7748  1.7303  2.7739
  183MOL0     H25188   4.525   9.490   9.289 -0.4543 -0.5906  0.5287
  183MOL0     H25189   4.679   9.366   9.421  3.6503 -1.7171 -2.4024
  183MOL0     H25190   4.737   9.473   9.298 -1.2712  0.2074 -0.1596
  183MOL0     H25191   4.786   9.645   9.499  1.9626 -0.1042 -2.3827
  183MOL0     H25192   4.743   9.507   9.601 -1.6234 -1.8111 -1.1916
  183MOL0     H25193   4.891   9.372   9.551 -2.3379  0.5899 -0.4125
  183MOL0     H25194   4.939   9.448   9.398  0.6763 -0.9574  0.3381
  183MOL0     H25195   4.973   9.581   9.674  1.4494  0.7204 -0.0266
  183MOL0     H25196   5.059   9.627   9.518 -0.3825  0.7170  0.0036
  183MOL0     H25197   5.094   9.387   9.709 -0.5009  1.9733  1.6340
  183MOL0     H25198   5.158   9.394   9.534  2.0712  0.5197  0.7009
  183MOL0     H25199   5.223   9.582   9.765 -1.0285 -0.9118  1.1659
  183MOL0     H25200   5.294   9.594   9.602 -0.0078 -2.1800 -2.0688
  183MOL0     H25201   5.432   9.470   9.796  0.9137  1.1973 -0.3980
  183MOL0     H25202   5.329   9.333   9.761 -2.6753  0.8393 -2.5585
  183MOL0     H25203   5.500   9.157   9.661  0.7567 -1.5719 -1.6938
  183MOL0     H25204   5.640   9.100   9.363  1.1903 -1.1126  0.3896
  183MOL0     H25205   5.698   9.089   9.539  0.5307 -1.1910 -0.9715
  183MOL0     H25206   5.821   9.243   9.301  2.2254  0.0952 -0.9004
  183MOL0     H25207   5.882   9.252   9.468 -0.4827  1.5838 -1.5496
  183MOL0     H25208   5.932   9.005   9.466  3.0491 -1.0308 -1.3587
  183MOL0     H25209   5.853   9.008   9.295 -1.4083  0.6680 -0.1106
  183MOL0     H25210   6.080   8.994   9.280  0.9108  0.7104 -0.2554
  183MOL0     H25211   6.038   9.166   9.249 -1.0801 -1.8466 -1.0227
  183MOL0     H25212   6.292   9.193   9.629  0.7103  0.9817 -0.0798
  183MOL0     H25213   6.640   9.177   9.672  0.7101  1.4054 -1.5447
  183MOL0     H25214   6.492   9.261   9.729  0.7792  2.5346  0.3060
  183MOL0     H25215   6.613   9.327   9.624 -0.7065 -0.3297 -3.8714
  183MOL0     H25216   6.768   9.353   9.195 -0.9146 -0.2780 -2.3014
  183MOL0     H25217   6.983   9.453   9.090  1.7679  0.2142 -0.3434
  183MOL0     H25218   7.164   9.465   8.929  1.5098  0.3555 -0.4325
  183MOL0     H25219   7.225   9.497   9.094  0.8519  1.7884 -0.8457
  183MOL0     H25220   7.385   9.365   8.874 -3.1630  1.5158 -2.5834
  183MOL0     H25221   7.397   9.534   8.903  0.4384 -1.5686 -3.7449
  183MOL0     H25222   7.486   9.527   9.107  1.3781  0.4677  0.0007
  183MOL0     H25223   7.584   9.435   8.994  0.3504  1.1158  1.0193
  183MOL0     H25224   7.456   9.228   9.094 -3.1133 -0.3337  3.4216
  183MOL0     H25225   7.426   9.327   9.231  0.0142 -1.5125  0.0856
  183MOL0     H25226   7.701   9.381   9.211 -2.7774  1.0225  1.4902
  183MOL0     H25227   7.629   9.238   9.286  0.3879  0.6386  0.6527
  183MOL0     H25228   7.740   9.271   9.013 -0.8791  0.8402  0.8128
  183MOL0     H25229   7.656   9.118   9.064  0.0352 -0.5231 -0.5284
  183MOL0     H25230   7.829   9.100   9.240 -0.9979 -2.7092 -2.2039
  183MOL0     H25231   7.926   9.231   9.153  1.2203 -1.1399  0.0188
  183MOL0     H25232   7.923   9.100   8.951  2.4279 -0.6952 -0.4894
  183MOL0     H25233   7.818   8.978   9.017  1.9098 -1.7146 -2.0795
  183MOL0     H25234   7.153   9.057   9.116 -0.2324 -0.0519 -1.9101
  183MOL0     H25235   6.947   8.974   9.213 -0.4600 -0.2190  0.5356
  183MOL0     H25236   6.496   9.055   9.198  0.6833 -0.3910  0.6883
  183MOL0     H25237   6.267   9.085   9.217 -0.1458  2.5098 -0.2163
  183MOL0     H25238   4.350   9.632   9.250 -0.2750 -1.2402  0.8652
  183MOL0     H25239   4.123   9.680   9.224  1.7679 -0.6341 -1.1160
  183MOL0     H25240   3.670   9.426   9.475  0.2118  1.3294  1.4404
  183MOL0     H25241   3.425   9.441   9.462 -1.9478  0.1829 -0.3536
  183MOL0     H25242   3.230   9.458   9.386 -1.3741 -0.4031  0.4077
  183MOL0     H25243   3.203   9.585   9.507  1.1475 -2.1161  0.2563
  183MOL0     H25244   3.036   9.677   9.331  2.6841  0.3300  0.9954
  183MOL0     H25245   2.991   9.504   9.370 -0.2576 -0.8313 -1.3693
  183MOL0     H25246   3.183   9.559   9.125  2.4853 -5.0389  1.6798
  183MOL0     H25247   3.082   9.425   9.162  2.0298 -0.3666 -3.3134
  183MOL0     H25248   3.004   9.573   8.985 -0.9446 -1.8909  0.1331
  183MOL0     H25249   2.987   9.696   9.108  1.0247 -0.3389  1.3914
  183MOL0     H25250   2.641   9.436   9.140 -0.1858 -1.0183  0.2638
  183MOL0     H25251   3.481   9.819   9.255 -2.0679 -1.8118 -0.1538
  183MOL0     H25252   3.800   9.771   9.196 -0.4920 -0.5977  0.8307
  183MOL0     H25253   3.696   9.901   9.202  0.9135  0.6340 -0.5967
  183MOL0     H25254   3.798   9.878   9.347  1.4507  0.9750 -1.6585
  184MOL0     O25255   6.615   3.507   7.252  0.4648 -0.1398 -0.3915
  184MOL0     C25256   6.520   3.433   7.285  0.0225 -0.2892  0.5338
  184MOL0     O25257   6.524   3.365   7.402 -0.0454 -0.2623 -0.2804
  184MOL0     C25258   6.629   3.372   7.489  0.4499 -0.3816 -0.0296
  184MOL0     C25259   6.690   3.489   7.548  0.2676  0.8031  0.6859
  184MOL0     C25260   6.788   3.472   7.638 -0.5116  0.3870 -0.5799
  184MOL0     C25261   6.833   3.349   7.671 -0.4629 -0.1306 -0.0467
  184MOL0     O25262   6.931   3.349   7.768  0.2145 -0.2547 -0.1849
  184MOL0     C25263   6.989   3.225   7.813 -0.6558  0.7666 -0.3871
  184MOL0     C25264   7.106   3.253   7.906  0.2048  0.6896  0.1034
  184MOL0     C25265   7.158   3.121   7.965  0.4128  0.3132  1.1221
  184MOL0     C25266   7.292   3.155   8.042 -0.7567 -0.2654 -0.3051
  184MOL0     C25267   7.410   3.194   7.947  0.5460 -0.1309 -0.6347
  184MOL0     C25268   7.423   3.097   7.834 -0.0296 -0.7350 -0.4980
  184MOL0     C25269   7.558   3.094   7.770 -1.3396 -0.4641  0.1346
  184MOL0     C25270   7.674   3.033   7.864 -0.1198 -0.2924 -0.9771
  184MOL0     N25271   7.801   3.060   7.810 -0.4065  0.5630 -0.4597
  184MOL0     C25272   7.848   3.018   7.687 -0.5567  0.2959 -0.1718
  184MOL0     C25273   7.941   3.104   7.646  1.0881  0.6173 -0.3470
  184MOL0     C25274   8.021   3.097   7.522 -0.1983  0.3395  0.1622
  184MOL0     C25275   8.008   2.964   7.440  0.6930  0.1387  0.2480
  184MOL0     C25276   8.097   2.854   7.498 -0.0556  0.0187 -0.7173
  184MOL0     C25277   8.252   2.865   7.496 -0.2469 -0.4217 -0.0712
  184MOL0     O25278   8.299   2.858   7.365 -0.6566  0.3622 -0.2327
  184MOL0     C25279   8.430   2.836   7.332 -0.2175  0.3979  0.1301
  184MOL0     C25280   8.463   2.834   7.192 -0.4060  0.0273 -0.5496
  184MOL0     C25281   8.594   2.816   7.149 -0.1077 -1.0435  0.0813
  184MOL0     C25282   8.608   2.811   7.001 -0.2368  0.6643 -0.0164
  184MOL0     C25283   8.698   2.795   7.244  0.3102  0.3469 -0.0669
  184MOL0     C25284   8.843   2.789   7.207  0.3972  0.0459 -0.5277
  184MOL0     O25285   8.885   2.812   7.082  0.1289 -0.1355 -0.7327
  184MOL0     C25286   9.016   2.808   7.049 -0.6260 -0.1040 -0.0947
  184MOL0     C25287   9.063   2.695   6.998 -0.8111 -0.2129  0.4985
  184MOL0     C25288   9.199   2.676   6.967 -0.0868  0.3543  0.8573
  184MOL0     C25289   9.297   2.769   6.998  0.9203 -1.4565  0.4817
  184MOL0     O25290   9.421   2.723   6.982  0.0408 -0.2019 -0.1908
  184MOL0     C25291   9.528   2.811   7.021  0.7687  0.4294 -0.2611
  184MOL0     C25292   9.645   2.732   6.968  0.4395 -0.3629 -0.3043
  184MOL0     C25293   9.773   2.817   6.950  0.1753  0.3637  0.2839
  184MOL0     C25294   9.765   2.934   6.852  0.5968 -0.2322  1.0326
  184MOL0     C25295   9.897   2.999   6.812  0.0690  1.0243 -0.4427
  184MOL0     C25296   9.873   3.086   6.695  0.3162  0.1075 -0.2882
  184MOL0     C25297   9.999   3.161   6.648 -0.3846 -0.5527  0.8073
  184MOL0     C25298   9.970   3.217   6.510  0.3503 -0.0019  0.3484
  184MOL0    Cl25299  10.091   3.334   6.466 -0.3417  0.2614 -0.0158
  184MOL0     C25300   9.252   2.890   7.057  0.5630  0.0357 -0.2294
  184MOL0     C25301   9.110   2.909   7.079 -0.0696  0.1355 -0.8443
  184MOL0     O25302   8.913   2.742   7.296  0.2888 -0.0615  0.8527
  184MOL0     C25303   8.664   2.794   7.380  0.0043  0.3522 -0.5046
  184MOL0     C25304   8.534   2.813   7.427 -0.2716  0.0111  0.0413
  184MOL0     N25305   7.959   3.193   7.746  0.3884  0.3023 -0.1607
  184MOL0     N25306   7.873   3.170   7.842 -1.1638 -0.0990  0.8509
  184MOL0     C25307   6.788   3.232   7.598 -0.1503  0.6972 -0.7166
  184MOL0     C25308   6.683   3.246   7.513  0.4603  0.1665  0.7016
  184MOL0     C25309   6.403   3.412   7.196  0.2111  1.0744  0.4413
  184MOL0     C25310   6.315   3.306   7.218 -1.0028  0.6798  0.1423
  184MOL0     C25311   6.185   3.300   7.159  0.0109  0.2647 -0.0543
  184MOL0     C25312   6.147   3.383   7.056  0.3523 -0.2387 -0.0738
  184MOL0     O25313   6.022   3.391   7.003  0.0519 -0.7269 -0.0945
  184MOL0     C25314   5.919   3.303   7.044  0.5738 -0.7701 -0.0960
  184MOL0     C25315   5.782   3.326   6.983  0.5261  0.3272 -0.2359
  184MOL0     C25316   5.761   3.293   6.837  0.2584 -0.0517 -0.6223
  184MOL0     C25317   5.811   3.399   6.736 -0.1249  0.1168  0.2413
  184MOL0     C25318   5.794   3.344   6.606  0.7632  0.1177 -0.3233
  184MOL0     C25319   5.782   3.308   6.488 -0.5375 -0.1324  0.4230
  184MOL0     C25320   6.237   3.493   7.026  0.4149  0.0993 -0.2520
  184MOL0     C25321   6.354   3.515   7.103 -0.5235 -0.2361 -0.2713
  184MOL0     C25322   6.415   3.645   7.081 -0.0249  0.3025  0.6513
  184MOL0     H25323   6.658   3.586   7.511 -1.8882  0.2053  0.8474
  184MOL0     H25324   6.831   3.555   7.693 -0.9351  0.8784 -0.9847
  184MOL0     H25325   7.036   3.174   7.729  1.4871 -0.1460  1.2778
  184MOL0     H25326   6.909   3.165   7.857 -0.6186  2.1554  1.7332
  184MOL0     H25327   7.182   3.295   7.839 -0.4795  2.5505  0.4471
  184MOL0     H25328   7.096   3.331   7.982  3.5141 -0.3426  1.8258
  184MOL0     H25329   7.089   3.078   8.038 -0.6244 -2.2180 -1.1725
  184MOL0     H25330   7.170   3.046   7.887 -0.6071 -0.0775  1.3259
  184MOL0     H25331   7.273   3.247   8.098 -1.8361 -0.8269  0.2940
  184MOL0     H25332   7.322   3.074   8.108  2.0076 -0.2644 -1.4223
  184MOL0     H25333   7.504   3.210   8.002  1.2300 -3.0529 -0.8199
  184MOL0     H25334   7.388   3.293   7.906 -2.0595 -0.5463 -0.3689
  184MOL0     H25335   7.405   2.995   7.870 -1.1455 -1.3050 -2.5202
  184MOL0     H25336   7.346   3.125   7.762  0.1181 -1.3948 -0.9160
  184MOL0     H25337   7.580   3.199   7.746 -1.0235 -0.6724 -0.4926
  184MOL0     H25338   7.566   3.040   7.676  0.2485  1.5611 -0.9737
  184MOL0     H25339   7.670   3.087   7.960  0.9912  0.3360 -1.2574
  184MOL0     H25340   7.663   2.926   7.880  0.2934 -0.0364  1.4753
  184MOL0     H25341   7.801   2.932   7.640 -1.5662  0.2693  0.8357
  184MOL0     H25342   8.125   3.122   7.546 -0.1591 -0.6020  1.0568
  184MOL0     H25343   7.986   3.176   7.455 -0.4668 -1.1927 -1.5964
  184MOL0     H25344   7.904   2.932   7.443  0.6883  0.1927  1.7933
  184MOL0     H25345   8.033   2.980   7.335 -0.6986 -2.6010 -0.5970
  184MOL0     H25346   8.073   2.850   7.605  0.2711  1.3983 -0.5664
  184MOL0     H25347   8.065   2.760   7.453 -0.2402  0.0445 -0.6382
  184MOL0     H25348   8.279   2.963   7.538  0.5200  0.4719 -2.4943
  184MOL0     H25349   8.298   2.785   7.554  0.1871 -1.8036 -2.2187
  184MOL0     H25350   8.390   2.873   7.121 -0.2836 -1.0607 -1.2911
  184MOL0     H25351   8.513   2.786   6.954 -0.7164  1.6348  0.4153
  184MOL0     H25352   8.683   2.734   6.979  1.0456  1.4855  1.2463
  184MOL0     H25353   8.636   2.903   6.950 -0.4084  0.6927 -0.0559
  184MOL0     H25354   8.990   2.619   6.972 -1.4808  1.2051 -2.1670
  184MOL0     H25355   9.241   2.583   6.931  1.7196  1.3365  0.3216
  184MOL0     H25356   9.517   2.913   6.984 -0.7282  0.9762  1.5360
  184MOL0     H25357   9.521   2.816   7.130 -0.6947 -1.0761 -0.2387
  184MOL0     H25358   9.659   2.642   7.029  0.0390  0.5881  1.2605
  184MOL0     H25359   9.613   2.711   6.866 -1.2318 -0.8267  0.2765
  184MOL0     H25360   9.865   2.762   6.929 -0.2047  0.7350 -2.7002
  184MOL0     H25361   9.785   2.849   7.054  2.7472  2.2860 -0.5040
  184MOL0     H25362   9.683   3.004   6.869 -0.6911 -0.7350 -2.4371
  184MOL0     H25363   9.728   2.887   6.761 -0.7873  1.3325  0.7488
  184MOL0     H25364   9.933   3.058   6.897  2.8915 -0.7064 -0.3063
  184MOL0     H25365   9.969   2.918   6.796  0.2071  0.7608  1.2617
  184MOL0     H25366   9.792   3.154   6.723  0.2669  0.8324 -2.0242
  184MOL0     H25367   9.839   3.014   6.619  1.9983  0.1730 -1.1462
  184MOL0     H25368  10.091   3.101   6.654  0.4632  0.6494  0.3277
  184MOL0     H25369  10.016   3.252   6.707  2.4062  0.1516 -0.8849
  184MOL0     H25370   9.866   3.253   6.514  0.6521  0.7606  2.2653
  184MOL0     H25371   9.970   3.143   6.430  0.0808 -1.1641  1.4006
  184MOL0     H25372   9.314   2.971   7.095  0.2000  1.0719 -1.7435
  184MOL0     H25373   9.079   3.000   7.130  2.8610 -0.1440  1.7515
  184MOL0     H25374   8.740   2.803   7.457  0.9201  0.2723 -1.3766
  184MOL0     H25375   8.516   2.819   7.533  2.8893  0.8718  0.6364
  184MOL0     H25376   6.837   3.137   7.615 -0.2731  0.6452 -0.6567
  184MOL0     H25377   6.643   3.158   7.464  0.6524 -0.0734  0.9760
  184MOL0     H25378   6.345   3.231   7.290 -0.6711  0.8117  0.1424
  184MOL0     H25379   6.115   3.222   7.189 -0.0490 -0.6692 -2.3643
  184MOL0     H25380   5.958   3.205   7.016 -0.0851 -1.1369  0.2527
  184MOL0     H25381   5.906   3.302   7.153 -1.1621 -1.4815 -0.2892
  184MOL0     H25382   5.752   3.426   7.015  0.5857 -0.0387  1.0394
  184MOL0     H25383   5.713   3.258   7.032 -0.8994  0.5497 -1.8652
  184MOL0     H25384   5.803   3.197   6.808  1.4473  1.4535 -4.5040
  184MOL0     H25385   5.657   3.289   6.804  0.2358 -0.6638 -0.4793
  184MOL0     H25386   5.916   3.416   6.762  1.2158 -1.0403 -3.6572
  184MOL0     H25387   5.757   3.493   6.740  1.1703  1.0704 -2.5254
  184MOL0     H25388   5.752   3.280   6.389 -0.4875 -1.1419  0.6901
  184MOL0     H25389   6.198   3.566   6.956  3.4708 -1.7047 -4.2209
  184MOL0     H25390   6.441   3.682   7.181  1.0849  1.6148 -0.0927
  184MOL0     H25391   6.509   3.638   7.025  0.0777  2.1885  0.5190
  184MOL0     H25392   6.346   3.715   7.033 -1.5162  0.4300  2.8077
  185MOL0     O25393   4.664   9.026   8.380  0.0469 -0.2232  0.6177
  185MOL0     C25394   4.625   9.083   8.483  0.1532  0.7210  0.5997
  185MOL0     O25395   4.707   9.112   8.586 -0.7402  0.0305 -0.3063
  185MOL0     C25396   4.836   9.070   8.570 -0.1504  0.6189 -0.2471
  185MOL0     C25397   4.868   8.939   8.617 -0.1032  0.6176  1.0070
  185MOL0     C25398   4.999   8.887   8.589 -0.5689 -0.4663  0.5110
  185MOL0     C25399   5.095   8.971   8.513  0.6947  1.0334 -0.3134
  185MOL0     O25400   5.227   8.935   8.481  0.0477  0.1938 -0.5694
  185MOL0     C25401   5.268   8.816   8.547  0.8246 -0.5145 -0.5951
  185MOL0     C25402   5.413   8.766   8.516  0.3902 -0.3203 -0.9337
  185MOL0     C25403   5.526   8.854   8.564  0.4041  0.2827  0.2661
  185MOL0     C25404   5.660   8.810   8.522  0.1235  0.1074 -0.5518
  185MOL0     C25405   5.772   8.916   8.532 -0.2395 -0.9247 -0.0855
  185MOL0     C25406   5.876   8.874   8.427  0.2725 -0.3399  0.5750
  185MOL0     C25407   6.009   8.949   8.464  0.3642  0.0000 -0.1040
  185MOL0     C25408   6.123   8.902   8.368  0.4630  0.4846 -1.1860
  185MOL0     N25409   6.243   8.994   8.375 -0.3258 -0.7160 -0.1819
  185MOL0     C25410   6.238   9.123   8.335  0.2484 -0.5900  0.0113
  185MOL0     C25411   6.359   9.173   8.362  0.1290 -0.1527 -0.1171
  185MOL0     C25412   6.401   9.304   8.301  0.4214  0.9336  0.6552
  185MOL0     C25413   6.322   9.419   8.359 -0.4543 -0.0820  0.6244
  185MOL0     C25414   6.362   9.434   8.508 -0.3759 -0.0787 -0.2567
  185MOL0     C25415   6.475   9.553   8.520  0.0607  0.6124 -0.2157
  185MOL0     O25416   6.595   9.498   8.479 -0.7086 -0.4131  0.5727
  185MOL0     C25417   6.699   9.587   8.465 -0.4696  0.2796  0.2379
  185MOL0     C25418   6.740   9.667   8.573 -0.3849  0.5302  0.1681
  185MOL0     C25419   6.851   9.750   8.562  0.1181 -0.2004  1.1861
  185MOL0     C25420   6.906   9.831   8.677  0.8192 -0.3719 -0.3911
  185MOL0     C25421   6.916   9.756   8.431 -0.4395  0.5015 -0.1580
  185MOL0     C25422   7.042   9.844   8.400  0.3407  0.2198 -0.4101
  185MOL0     O25423   7.128   9.867   8.499  0.5486 -0.0809  0.1793
  185MOL0     C25424   7.252   9.934   8.470  0.0920 -0.5161  0.2173
  185MOL0     C25425   7.356   9.890   8.374  0.5448  0.6952 -0.2438
  185MOL0     C25426   7.477   9.951   8.369  0.2284 -0.2208  0.3147
  185MOL0     C25427   7.507  10.041   8.470  0.8782 -1.0150 -0.0478
  185MOL0     O25428   7.625  10.098   8.477 -0.7996  0.4880 -0.1845
  185MOL0     C25429   7.740  10.017   8.515 -0.5993 -0.4795  0.1714
  185MOL0     C25430   7.849  10.009   8.408  0.0488  0.3069  0.5800
  185MOL0     C25431   7.907  10.144   8.371 -0.1624  0.2675  0.4991
  185MOL0     C25432   8.010  10.192   8.468 -0.2152 -1.1515  0.0014
  185MOL0     C25433   8.057  10.333   8.418  0.7888 -0.5456  0.8414
  185MOL0     C25434   8.162  10.389   8.514 -0.3763 -0.0528  1.0139
  185MOL0     C25435   8.238  10.508   8.465  0.1914 -0.6078 -0.3172
  185MOL0     C25436   8.349  10.543   8.565  0.4112  0.2941 -0.1060
  185MOL0    Cl25437   8.286  10.573   8.737  0.1707 -0.1765 -0.1317
  185MOL0     C25438   7.404  10.086   8.562 -0.1254 -0.9513 -0.5539
  185MOL0     C25439   7.278  10.039   8.557  0.1844 -0.4324 -0.4507
  185MOL0     O25440   7.049   9.886   8.289 -0.0192  0.1230  0.4826
  185MOL0     C25441   6.872   9.672   8.328 -0.4550 -0.1306 -0.0546
  185MOL0     C25442   6.756   9.589   8.345 -0.0600  0.7916  0.1346
  185MOL0     N25443   6.435   9.070   8.402 -0.1529 -0.1044 -0.3811
  185MOL0     N25444   6.370   8.962   8.413  0.3119  0.5207 -0.3264
  185MOL0     C25445   5.059   9.101   8.482  0.0945 -0.1690  0.1893
  185MOL0     C25446   4.932   9.151   8.507  0.5148 -0.6041  0.2944
  185MOL0     C25447   4.477   9.110   8.504  0.5198  0.9225 -0.8869
  185MOL0     C25448   4.430   9.122   8.637 -0.1581 -0.0940 -0.2644
  185MOL0     C25449   4.294   9.130   8.668 -0.7042  0.0557 -0.3912
  185MOL0     C25450   4.208   9.141   8.565  0.2852  0.1505 -0.0890
  185MOL0     O25451   4.069   9.128   8.588  0.0862 -0.0751  0.5073
  185MOL0     C25452   4.009   9.230   8.670 -0.1777  0.5477  0.0437
  185MOL0     C25453   3.864   9.202   8.717 -0.0980 -0.2400  1.0725
  185MOL0     C25454   3.755   9.175   8.613  0.8618  0.6414 -0.7130
  185MOL0     C25455   3.612   9.199   8.674  0.2931  0.3244 -0.0623
  185MOL0     C25456   3.500   9.124   8.601 -0.1686 -0.4420  1.0470
  185MOL0     C25457   3.427   9.052   8.538  0.0763 -0.0784  0.7098
  185MOL0     C25458   4.249   9.144   8.432 -0.7010  1.0850 -0.4621
  185MOL0     C25459   4.382   9.127   8.390  0.5181  0.1410 -0.7342
  185MOL0     C25460   4.414   9.111   8.247 -0.2505 -0.1194  0.3181
  185MOL0     H25461   4.804   8.874   8.675 -1.0746  0.8965  0.2584
  185MOL0     H25462   5.035   8.795   8.635  3.2951  1.1491  1.0897
  185MOL0     H25463   5.198   8.734   8.536 -0.3609  0.3868  0.0407
  185MOL0     H25464   5.268   8.833   8.655 -0.8879 -1.6178 -0.4031
  185MOL0     H25465   5.431   8.668   8.562 -0.2620 -1.2249 -2.5151
  185MOL0     H25466   5.415   8.762   8.407  1.9480  0.9128 -0.9871
  185MOL0     H25467   5.514   8.956   8.528 -0.8802 -0.2089 -0.8011
  185MOL0     H25468   5.528   8.859   8.673  4.0305 -1.8297  0.4605
  185MOL0     H25469   5.693   8.717   8.570  1.3453 -1.0195 -3.3116
  185MOL0     H25470   5.657   8.793   8.414  0.9989  1.4048 -0.8007
  185MOL0     H25471   5.808   8.918   8.635  0.6683 -1.3309 -0.3880
  185MOL0     H25472   5.753   9.018   8.498  2.0748 -0.8201 -1.2379
  185MOL0     H25473   5.898   8.767   8.425 -1.1746 -0.7156 -3.6965
  185MOL0     H25474   5.846   8.893   8.324  0.5034 -0.1835  0.5368
  185MOL0     H25475   6.031   8.930   8.569 -1.3289  2.1720  0.7138
  185MOL0     H25476   5.989   9.055   8.445 -0.9269  0.0993  1.6274
  185MOL0     H25477   6.154   8.801   8.396 -0.1319 -0.5438 -3.8663
  185MOL0     H25478   6.084   8.900   8.266 -1.0304 -0.8246 -0.6267
  185MOL0     H25479   6.155   9.163   8.277 -0.6136  0.8284  2.1247
  185MOL0     H25480   6.384   9.299   8.193  2.8686 -1.3002  0.2735
  185MOL0     H25481   6.510   9.311   8.313  0.7100 -0.4168 -0.7642
  185MOL0     H25482   6.338   9.510   8.300 -0.6274 -0.3341  0.1828
  185MOL0     H25483   6.216   9.391   8.353 -0.3288 -0.5659  0.6212
  185MOL0     H25484   6.274   9.472   8.560 -1.1712 -2.0781 -0.0379
  185MOL0     H25485   6.396   9.343   8.559  1.4406 -0.4268 -1.9629
  185MOL0     H25486   6.449   9.647   8.472  2.1736  2.3522  1.8041
  185MOL0     H25487   6.482   9.576   8.627 -2.3552 -0.4853  0.2561
  185MOL0     H25488   6.688   9.654   8.667 -2.5612  1.0541 -0.8980
  185MOL0     H25489   7.005   9.800   8.711  1.5444  0.1868 -1.8870
  185MOL0     H25490   6.841   9.841   8.764  0.6444 -1.9647 -0.3186
  185MOL0     H25491   6.927   9.932   8.640 -1.2409 -0.4895 -2.0717
  185MOL0     H25492   7.342   9.810   8.301  2.6257 -1.4596  1.5685
  185MOL0     H25493   7.557   9.904   8.312 -2.0060 -1.7370 -1.8111
  185MOL0     H25494   7.775  10.058   8.610 -0.5111 -3.1363  1.3782
  185MOL0     H25495   7.712   9.916   8.548  1.0127 -0.6667  1.0759
  185MOL0     H25496   7.928   9.936   8.427 -0.3522 -0.0687  0.8223
  185MOL0     H25497   7.803   9.966   8.319  1.9454  1.5186 -1.0657
  185MOL0     H25498   7.821  10.212   8.367 -0.5742 -0.3103 -0.9308
  185MOL0     H25499   7.950  10.140   8.270 -0.8933  2.4545  0.0397
  185MOL0     H25500   8.099  10.129   8.471  1.0729  0.4668 -1.5942
  185MOL0     H25501   7.962  10.187   8.566 -0.1478  0.1043  0.1200
  185MOL0     H25502   8.102  10.333   8.319 -0.7846  0.8417  0.0742
  185MOL0     H25503   7.976  10.407   8.411  0.9563 -0.3270  1.1832
  185MOL0     H25504   8.241  10.315   8.528  2.3178  2.4841  0.4479
  185MOL0     H25505   8.126  10.401   8.617 -0.5243 -1.5683  1.1635
  185MOL0     H25506   8.167  10.591   8.462  0.7876  0.0532  2.1405
  185MOL0     H25507   8.276  10.492   8.363  3.0372  0.5284  0.4892
  185MOL0     H25508   8.395  10.635   8.526  0.0622  0.4195 -0.2248
  185MOL0     H25509   8.419  10.460   8.579  0.5419  0.3861 -0.2118
  185MOL0     H25510   7.434  10.167   8.629 -0.9394 -2.3238  1.5600
  185MOL0     H25511   7.200  10.071   8.626  0.4092 -0.6973 -0.0707
  185MOL0     H25512   6.931   9.673   8.237  1.3961 -0.5567  1.0943
  185MOL0     H25513   6.723   9.530   8.259  0.8907  1.2144 -0.5362
  185MOL0     H25514   5.143   9.155   8.439  0.3429 -0.7851 -0.1299
  185MOL0     H25515   4.911   9.254   8.481  2.1771  0.4102  2.5776
  185MOL0     H25516   4.501   9.110   8.718  0.4667 -0.9061 -0.9141
  185MOL0     H25517   4.253   9.129   8.768 -0.7659  0.9021 -0.3995
  185MOL0     H25518   4.073   9.240   8.757  2.8550 -2.2707 -1.6734
  185MOL0     H25519   4.013   9.327   8.618  0.9705  0.6032  0.2235
  185MOL0     H25520   3.818   9.291   8.761  2.0152  1.3268  0.2719
  185MOL0     H25521   3.868   9.123   8.793 -2.5607 -0.5813  0.9307
  185MOL0     H25522   3.763   9.238   8.524  0.7986  0.3645 -0.9144
  185MOL0     H25523   3.778   9.072   8.583  1.8021 -0.0869  2.2125
  185MOL0     H25524   3.593   9.306   8.669  0.5813  0.4117  0.6340
  185MOL0     H25525   3.615   9.163   8.777  1.9883  2.5603  0.7356
  185MOL0     H25526   3.360   8.992   8.479  0.5757 -2.4430  2.4065
  185MOL0     H25527   4.173   9.140   8.355 -0.8743 -4.0297 -0.3589
  185MOL0     H25528   4.519   9.129   8.223 -0.4911  0.0963 -0.6158
  185MOL0     H25529   4.388   9.009   8.215  0.3986 -0.9948  2.3945
  185MOL0     H25530   4.349   9.181   8.194 -0.6355  0.4338  1.4946
  186MOL0     O25531   0.776   7.280   6.079 -0.2143  0.2607 -0.2601
  186MOL0     C25532   0.688   7.212   6.130  1.4670  0.7987  0.1858
  186MOL0     O25533   0.714   7.089   6.194  0.2779 -0.5912 -0.0445
  186MOL0     C25534   0.839   7.061   6.245 -0.0692 -0.2458  0.5043
  186MOL0     C25535   0.952   7.138   6.258 -0.0483  0.8517 -0.4338
  186MOL0     C25536   1.055   7.102   6.342 -0.1725  0.1138  0.6985
  186MOL0     C25537   1.065   6.974   6.403  0.6863 -0.8042  0.2701
  186MOL0     O25538   1.188   6.944   6.465  0.8527  0.0079 -0.1422
  186MOL0     C25539   1.229   6.805   6.475 -0.1623  0.0817  0.3156
  186MOL0     C25540   1.383   6.812   6.490 -0.3727 -0.1349 -0.2642
  186MOL0     C25541   1.441   6.685   6.553 -0.1284  0.2400 -0.5547
  186MOL0     C25542   1.597   6.686   6.547 -0.2686 -0.1924  0.6545
  186MOL0     C25543   1.646   6.590   6.653 -0.3346  0.3955 -0.0264
  186MOL0     C25544   1.799   6.591   6.662  0.6460 -0.0476 -0.8697
  186MOL0     C25545   1.852   6.476   6.745  0.1406  0.0582  0.1873
  186MOL0     C25546   1.979   6.415   6.678 -0.3511 -0.6083 -0.2717
  186MOL0     N25547   2.005   6.282   6.747  0.5627 -0.5054  0.3366
  186MOL0     C25548   2.064   6.244   6.869  0.0089  0.7004  0.1168
  186MOL0     C25549   2.060   6.108   6.863  0.0980 -0.0865 -0.5654
  186MOL0     C25550   2.115   5.997   6.963  0.1834 -0.0250  0.5559
  186MOL0     C25551   2.263   5.994   6.984  0.2599 -0.4886  0.4542
  186MOL0     C25552   2.343   5.952   6.859 -0.0013  0.0155 -0.3569
  186MOL0     C25553   2.494   5.980   6.874  0.1923 -0.6904  0.3218
  186MOL0     O25554   2.535   5.988   6.740 -0.2208  0.0312  0.1659
  186MOL0     C25555   2.666   6.010   6.710  0.1198 -0.1861 -0.0734
  186MOL0     C25556   2.695   6.049   6.582  0.9985 -0.1459  0.4155
  186MOL0     C25557   2.829   6.064   6.534 -0.0754 -0.4924  0.1279
  186MOL0     C25558   2.838   6.092   6.382 -0.1129 -0.7039  0.0400
  186MOL0     C25559   2.932   6.045   6.629  0.9125 -0.4818  0.2063
  186MOL0     C25560   3.076   6.061   6.598  0.6912  0.4179  0.2592
  186MOL0     O25561   3.157   6.084   6.709 -0.4428  0.2633 -0.0360
  186MOL0     C25562   3.290   6.078   6.691  1.0907  0.0262  0.1004
  186MOL0     C25563   3.352   5.961   6.644 -0.8267  0.0609 -0.3011
  186MOL0     C25564   3.490   5.966   6.626  0.0052  0.2648  0.1405
  186MOL0     C25565   3.569   6.076   6.668  0.1066  0.1670 -0.3511
  186MOL0     O25566   3.707   6.072   6.662  0.1031  0.9386  0.2096
  186MOL0     C25567   3.776   5.999   6.566 -0.2627  0.4985  0.4341
  186MOL0     C25568   3.832   5.876   6.632 -0.4038  0.8814  0.2678
  186MOL0     C25569   3.971   5.902   6.683  0.1749  0.5851 -0.8279
  186MOL0     C25570   4.056   5.768   6.706  0.3068  0.1632  0.1571
  186MOL0     C25571   4.177   5.781   6.796 -0.5282  0.4718  0.1895
  186MOL0     C25572   4.265   5.655   6.793 -0.1968 -0.4958 -0.3994
  186MOL0     C25573   4.368   5.652   6.909  0.4992 -0.3588 -0.3947
  186MOL0     C25574   4.451   5.785   6.914  0.0601 -0.0102 -0.0869
  186MOL0    Cl25575   4.598   5.770   7.035 -0.3323  0.1498  0.1176
  186MOL0     C25576   3.503   6.181   6.729  0.1940  0.7847 -0.2169
  186MOL0     C25577   3.363   6.184   6.744  0.4341 -0.2538  0.2650
  186MOL0     O25578   3.109   6.061   6.482 -0.2180  0.1773 -0.7018
  186MOL0     C25579   2.899   6.012   6.767 -0.7195  0.0669  0.3460
  186MOL0     C25580   2.771   5.996   6.805  0.8854  0.7322 -0.2688
  186MOL0     N25581   1.994   6.072   6.749  0.4482  0.9835 -0.1130
  186MOL0     N25582   1.953   6.172   6.687  0.3930  0.2053  0.0966
  186MOL0     C25583   0.961   6.887   6.384 -0.5851  0.4461 -0.7433
  186MOL0     C25584   0.855   6.931   6.297  0.4225  0.4408  0.1816
  186MOL0     C25585   0.546   7.243   6.100 -0.0774 -0.0852 -0.2279
  186MOL0     C25586   0.499   7.377   6.087 -0.4351 -0.0820 -0.1555
  186MOL0     C25587   0.368   7.410   6.068 -0.0028 -0.0639  0.2752
  186MOL0     C25588   0.269   7.311   6.061 -0.5019 -0.6078 -0.2131
  186MOL0     O25589   0.134   7.343   6.048 -0.0873  0.5182  0.2899
  186MOL0     C25590   0.098   7.339   5.909  0.1690 -0.3343  0.6193
  186MOL0     C25591   0.037   7.208   5.880 -0.0989 -0.0322  0.1862
  186MOL0     C25592  -0.023   7.205   5.736  0.3570 -0.0908  0.2907
  186MOL0     C25593  -0.173   7.194   5.723 -0.2409 -0.5873  0.6512
  186MOL0     C25594  -0.235   7.319   5.784 -0.8532  0.7624  0.7139
  186MOL0     C25595  -0.289   7.421   5.822 -0.6683 -0.7794 -0.1984
  186MOL0     C25596   0.310   7.181   6.078 -0.5790 -0.3552 -0.1871
  186MOL0     C25597   0.443   7.142   6.085 -1.4451  0.2222  1.0017
  186MOL0     C25598   0.473   6.993   6.096 -0.0857  0.4259  0.5891
  186MOL0     H25599   0.962   7.241   6.225 -0.1996 -0.0852 -3.7899
  186MOL0     H25600   1.130   7.178   6.362  0.3153  0.0537 -0.8041
  186MOL0     H25601   1.200   6.757   6.381 -0.3419 -1.8856  1.3253
  186MOL0     H25602   1.177   6.765   6.562 -0.4527 -0.6414 -0.1753
  186MOL0     H25603   1.416   6.826   6.387 -0.6272  0.4272 -0.2720
  186MOL0     H25604   1.416   6.902   6.542 -1.1818  0.1734 -0.2643
  186MOL0     H25605   1.408   6.666   6.656 -1.3435  1.0374 -0.7754
  186MOL0     H25606   1.399   6.601   6.497  1.8628 -0.4038 -1.1620
  186MOL0     H25607   1.639   6.674   6.447 -1.2559 -1.1409  0.3367
  186MOL0     H25608   1.639   6.786   6.564  3.3599 -1.2549 -1.0148
  186MOL0     H25609   1.621   6.488   6.622 -0.6378  0.6394 -0.6017
  186MOL0     H25610   1.601   6.596   6.753 -0.5698  2.9736 -0.2220
  186MOL0     H25611   1.843   6.581   6.563 -0.8066  1.5020 -1.7252
  186MOL0     H25612   1.837   6.684   6.707 -0.3423 -0.8068  1.7053
  186MOL0     H25613   1.776   6.398   6.755 -1.4954  1.3326 -1.5632
  186MOL0     H25614   1.878   6.521   6.842 -2.3776  1.4997  0.2746
  186MOL0     H25615   1.957   6.398   6.572  1.4091  0.5967 -0.8612
  186MOL0     H25616   2.065   6.481   6.691 -0.1737 -1.1003  1.2031
  186MOL0     H25617   2.107   6.308   6.945 -3.1251 -0.3833  3.0827
  186MOL0     H25618   2.070   5.901   6.936 -0.7924  0.2690  1.0765
  186MOL0     H25619   2.073   6.037   7.056 -1.4669 -0.7949  0.1781
  186MOL0     H25620   2.289   6.098   7.006 -2.5358  0.2240  0.6776
  186MOL0     H25621   2.288   5.925   7.065 -3.6599 -2.0797  0.4992
  186MOL0     H25622   2.330   5.843   6.860  1.2666 -0.1565  1.1080
  186MOL0     H25623   2.288   6.009   6.784 -0.3311  0.0109 -0.1197
  186MOL0     H25624   2.517   6.074   6.925  0.9385  0.9050 -2.6453
  186MOL0     H25625   2.531   5.889   6.922  1.1377 -1.2737 -1.4220
  186MOL0     H25626   2.616   6.089   6.519  2.4203  3.9752  0.9038
  186MOL0     H25627   2.744   6.081   6.327 -0.8439 -2.3104  1.5328
  186MOL0     H25628   2.907   6.018   6.342 -0.1113 -0.0349 -1.2338
  186MOL0     H25629   2.881   6.191   6.361 -1.3808 -0.6982 -3.0158
  186MOL0     H25630   3.302   5.869   6.617 -0.4173 -0.0043 -0.8491
  186MOL0     H25631   3.536   5.875   6.588 -1.8387  0.3144 -2.5005
  186MOL0     H25632   3.715   5.987   6.476  2.4061  2.5481 -1.8257
  186MOL0     H25633   3.857   6.056   6.519  0.1979 -1.5353 -1.4346
  186MOL0     H25634   3.770   5.835   6.712 -3.9665 -1.5477 -3.4070
  186MOL0     H25635   3.837   5.797   6.557 -0.1654  2.1890 -1.1535
  186MOL0     H25636   3.970   5.959   6.776 -0.1654 -1.4690  0.4872
  186MOL0     H25637   4.028   5.963   6.613  0.7660 -0.6015 -1.4173
  186MOL0     H25638   4.093   5.730   6.610  2.2372  0.2388  0.8350
  186MOL0     H25639   3.983   5.698   6.747 -2.6486  3.5789  1.2821
  186MOL0     H25640   4.244   5.863   6.771  0.6760 -0.3140  0.7333
  186MOL0     H25641   4.135   5.799   6.896 -2.9987 -2.2230 -0.2285
  186MOL0     H25642   4.311   5.646   6.695  1.0294 -0.3461  0.1502
  186MOL0     H25643   4.194   5.571   6.795  0.6452 -1.3246 -2.6924
  186MOL0     H25644   4.436   5.566   6.904  0.6634 -0.3019  0.6747
  186MOL0     H25645   4.320   5.645   7.007  1.4949  1.3243  0.2536
  186MOL0     H25646   4.386   5.868   6.941  0.2661  0.0754  0.1474
  186MOL0     H25647   4.497   5.806   6.816  2.0282 -1.1165  0.5368
  186MOL0     H25648   3.568   6.263   6.759  0.3159  0.2681  0.9723
  186MOL0     H25649   3.306   6.257   6.800 -0.0953 -0.6481  0.2513
  186MOL0     H25650   2.977   5.980   6.835 -1.6417 -0.1931  1.3043
  186MOL0     H25651   2.744   5.959   6.904  1.3054  3.1457  0.8078
  186MOL0     H25652   0.956   6.786   6.423 -1.1179  0.1471 -1.5574
  186MOL0     H25653   0.775   6.861   6.273  0.9628  0.4020 -1.6291
  186MOL0     H25654   0.573   7.458   6.090  0.6200 -0.9498 -1.3674
  186MOL0     H25655   0.345   7.516   6.073  2.0454  0.4144  0.1231
  186MOL0     H25656   0.035   7.426   5.892  1.0102  0.3498  0.8942
  186MOL0     H25657   0.183   7.353   5.842  0.2369  2.4475  1.1733
  186MOL0     H25658  -0.045   7.194   5.951 -0.2376  0.0722  0.0477
  186MOL0     H25659   0.115   7.133   5.894  1.5317  2.1129  4.0423
  186MOL0     H25660   0.009   7.290   5.676 -0.0054 -0.1836 -0.0379
  186MOL0     H25661   0.021   7.114   5.694  0.4511 -1.4017  3.0369
  186MOL0     H25662  -0.211   7.101   5.764 -0.6160  0.0277  1.7204
  186MOL0     H25663  -0.187   7.187   5.615 -0.2101  3.3689  0.2245
  186MOL0     H25664  -0.333   7.517   5.841 -1.3608 -1.1802  0.2635
  186MOL0     H25665   0.228   7.111   6.074  0.5764 -1.7906  0.4521
  186MOL0     H25666   0.568   6.957   6.056 -0.6338 -0.8710  0.3981
  186MOL0     H25667   0.493   6.978   6.202  1.3333  3.3353  0.8396
  186MOL0     H25668   0.397   6.932   6.046 -0.8479  0.7231  1.3445
  187MOL0     O25669   4.270   4.662  10.260 -0.6310  0.1965 -0.3199
  187MOL0     C25670   4.226   4.693  10.372  0.5206 -0.3247  0.8600
  187MOL0     O25671   4.299   4.728  10.480  0.2441 -0.2070  0.1905
  187MOL0     C25672   4.433   4.703  10.480 -0.4818 -0.2278  0.5290
  187MOL0     C25673   4.527   4.771  10.406  0.3033 -0.1442  0.0132
  187MOL0     C25674   4.660   4.742  10.419 -0.3704  0.1878 -1.1462
  187MOL0     C25675   4.711   4.641  10.512  0.4073 -0.5458  0.2743
  187MOL0     O25676   4.848   4.630  10.516  0.1592 -0.5446 -0.8093
  187MOL0     C25677   4.914   4.576  10.635 -0.1147 -0.0294 -0.6126
  187MOL0     C25678   5.059   4.611  10.628 -0.8108  0.2092 -0.0955
  187MOL0     C25679   5.078   4.752  10.606  0.4553 -0.0359  0.8326
  187MOL0     C25680   5.233   4.761  10.597 -0.7587  0.3708  0.5681
  187MOL0     C25681   5.260   4.913  10.550  0.0169 -0.1075 -0.8614
  187MOL0     C25682   5.409   4.945  10.566  0.4885  0.1516 -0.0506
  187MOL0     C25683   5.442   5.089  10.544 -0.2705  0.3630  0.0902
  187MOL0     C25684   5.579   5.122  10.598  0.5639 -0.7942 -0.6537
  187MOL0     N25685   5.683   5.060  10.519 -0.2078 -0.8245  0.4971
  187MOL0     C25686   5.806   5.034  10.578  0.2058  0.4944  0.1994
  187MOL0     C25687   5.858   4.953  10.482 -0.2060 -0.2475 -0.2424
  187MOL0     C25688   5.994   4.884  10.501 -0.1623  0.0522  0.8911
  187MOL0     C25689   6.096   4.940  10.398  0.6484  0.0397 -0.4530
  187MOL0     C25690   6.093   4.865  10.269 -0.9766  0.4329  0.6935
  187MOL0     C25691   6.209   4.912  10.182 -0.0457  0.4773 -0.8075
  187MOL0     O25692   6.339   4.908  10.241 -0.5154  1.1047  0.1560
  187MOL0     C25693   6.442   4.910  10.151 -0.0080  0.0523  1.1037
  187MOL0     C25694   6.477   5.021  10.080  0.4273 -0.1940 -0.1112
  187MOL0     C25695   6.578   5.026   9.982  0.6353 -0.4636 -0.1447
  187MOL0     C25696   6.598   5.158   9.909  1.3112 -0.1896  0.0448
  187MOL0     C25697   6.656   4.914   9.961 -0.5787 -0.5200  0.2263
  187MOL0     C25698   6.772   4.906   9.861 -0.1957 -0.4279 -0.2868
  187MOL0     O25699   6.820   4.785   9.836 -0.2259  0.2792  0.5411
  187MOL0     C25700   6.943   4.760   9.775 -0.0231 -0.1667  0.2505
  187MOL0     C25701   7.058   4.831   9.784  0.0702  0.2033  0.6405
  187MOL0     C25702   7.161   4.806   9.696 -0.4796  0.5106  1.1764
  187MOL0     C25703   7.159   4.694   9.610  0.7687 -0.3855  0.1232
  187MOL0     O25704   7.265   4.668   9.539 -0.7334  0.6306  0.5439
  187MOL0     C25705   7.291   4.531   9.501 -0.7936  0.0697  0.3212
  187MOL0     C25706   7.433   4.534   9.439 -0.4472 -0.5281  0.5190
  187MOL0     C25707   7.527   4.550   9.561 -0.1517 -0.1847  0.0834
  187MOL0     C25708   7.674   4.539   9.509 -1.2729  0.3904 -0.3372
  187MOL0     C25709   7.774   4.517   9.621  0.8343  0.8661  0.3109
  187MOL0     C25710   7.915   4.517   9.562  0.6285 -0.7318  0.4050
  187MOL0     C25711   8.011   4.534   9.678 -0.2027 -0.3029 -0.2653
  187MOL0     C25712   8.154   4.567   9.629 -0.2320 -0.2365  0.3072
  187MOL0    Cl25713   8.277   4.501   9.742 -0.0233  0.2531 -0.0498
  187MOL0     C25714   7.037   4.621   9.601 -0.5471  0.0579  0.2505
  187MOL0     C25715   6.931   4.648   9.691  0.0669 -0.0087  0.0589
  187MOL0     O25716   6.822   5.009   9.817 -0.7077 -0.8593  0.0683
  187MOL0     C25717   6.613   4.801  10.025 -0.1555  0.6859  1.2608
  187MOL0     C25718   6.514   4.793  10.116  0.2160 -0.5875 -0.5654
  187MOL0     N25719   5.783   4.955  10.368 -0.3234  0.8054  0.4261
  187MOL0     N25720   5.684   5.030  10.389  0.8226 -0.0800  0.2283
  187MOL0     C25721   4.619   4.562  10.590 -0.5496 -0.5586  0.1169
  187MOL0     C25722   4.483   4.600  10.568  0.9989 -0.3237 -0.5765
  187MOL0     C25723   4.074   4.690  10.385  0.5907 -0.1022 -0.0047
  187MOL0     C25724   4.014   4.761  10.497 -0.0254 -0.2984  0.5556
  187MOL0     C25725   3.872   4.773  10.509  0.7412 -0.1843  0.5074
  187MOL0     C25726   3.789   4.713  10.409  0.2045 -0.4884  0.3213
  187MOL0     O25727   3.657   4.720  10.434  0.1073 -0.2579  0.7519
  187MOL0     C25728   3.567   4.721  10.316  0.0654 -0.6291 -0.2047
  187MOL0     C25729   3.522   4.589  10.290 -0.5682  0.7148 -0.1700
  187MOL0     C25730   3.426   4.566  10.179 -0.1831 -0.3169 -0.1906
  187MOL0     C25731   3.484   4.588  10.036  0.3759  0.2741  1.0810
  187MOL0     C25732   3.583   4.485  10.007  0.7564  0.5287 -0.4903
  187MOL0     C25733   3.664   4.398   9.980  0.2919  0.4476 -0.6183
  187MOL0     C25734   3.849   4.646  10.299 -0.1771  0.4843 -0.1050
  187MOL0     C25735   3.988   4.625  10.291  0.2588 -0.3788 -0.1190
  187MOL0     C25736   4.041   4.532  10.184 -0.1386 -0.7295 -0.6321
  187MOL0     H25737   4.504   4.852  10.337  0.2934  0.9265  1.2428
  187MOL0     H25738   4.726   4.804  10.358  0.5340 -0.5966 -0.9845
  187MOL0     H25739   4.904   4.467  10.627 -0.7544  0.0842 -1.5675
  187MOL0     H25740   4.873   4.602  10.733  0.2175  0.7561 -0.6770
  187MOL0     H25741   5.116   4.581  10.716  0.8940 -2.3314 -1.9141
  187MOL0     H25742   5.098   4.542  10.553 -0.8195 -0.4841  0.5320
  187MOL0     H25743   5.024   4.798  10.523 -1.0413 -0.5014  1.5198
  187MOL0     H25744   5.037   4.808  10.690  0.3362  2.4879 -0.7779
  187MOL0     H25745   5.279   4.739  10.694  1.9915  0.5988 -0.5855
  187MOL0     H25746   5.281   4.689  10.530 -1.2468  0.0361  0.5687
  187MOL0     H25747   5.201   4.982  10.611  0.5118  1.8644 -2.5192
  187MOL0     H25748   5.236   4.916  10.444 -0.7002 -0.8038 -0.7296
  187MOL0     H25749   5.438   4.902  10.662  2.0450 -0.6337 -0.8488
  187MOL0     H25750   5.466   4.895  10.488  2.0951  1.3985  0.2747
  187MOL0     H25751   5.367   5.147  10.599 -0.8142  1.6426 -1.8799
  187MOL0     H25752   5.433   5.118  10.439  1.6103 -1.2746 -0.5798
  187MOL0     H25753   5.597   5.230  10.597 -0.0329 -0.6213  1.5147
  187MOL0     H25754   5.583   5.087  10.701 -1.4419  0.2123 -0.1777
  187MOL0     H25755   5.843   5.060  10.676  0.5122 -1.2431  0.5793
  187MOL0     H25756   5.981   4.775  10.493 -1.0924  0.2693 -1.4051
  187MOL0     H25757   6.033   4.897  10.602 -0.5466  0.3528  1.0046
  187MOL0     H25758   6.068   5.044  10.377  0.9367  0.4910  1.1976
  187MOL0     H25759   6.198   4.957  10.434 -0.2490  4.2620  0.7071
  187MOL0     H25760   6.101   4.757  10.285  2.1031  0.6855  1.5949
  187MOL0     H25761   6.004   4.887  10.209  0.4267  0.0861 -1.6635
  187MOL0     H25762   6.220   4.850  10.093  1.7385 -0.7889  0.2144
  187MOL0     H25763   6.206   5.015  10.146  1.5522  0.3173 -1.4596
  187MOL0     H25764   6.423   5.111  10.109 -0.2808 -0.6077 -0.1292
  187MOL0     H25765   6.538   5.239   9.953  0.0060 -1.0666 -0.0897
  187MOL0     H25766   6.570   5.149   9.804 -0.4745  0.4647  0.4331
  187MOL0     H25767   6.693   5.209   9.925  0.7366  1.2824 -1.0652
  187MOL0     H25768   7.063   4.912   9.856  0.0166 -0.4325  1.3697
  187MOL0     H25769   7.254   4.863   9.698 -0.6098  0.7109  1.7019
  187MOL0     H25770   7.270   4.458   9.580  0.3600  0.3606  0.9148
  187MOL0     H25771   7.218   4.498   9.427  1.5672 -2.9555 -0.8674
  187MOL0     H25772   7.453   4.446   9.378  1.2533  0.7654 -0.9185
  187MOL0     H25773   7.436   4.618   9.368  0.4426 -1.1024 -0.1455
  187MOL0     H25774   7.516   4.460   9.623  1.8328 -3.1157 -3.3959
  187MOL0     H25775   7.519   4.646   9.613 -0.7949 -0.1037 -0.1543
  187MOL0     H25776   7.703   4.632   9.460 -1.1922 -0.1102 -1.2538
  187MOL0     H25777   7.683   4.453   9.442  1.6904  0.1760  0.2192
  187MOL0     H25778   7.756   4.603   9.686 -1.7158  0.7482 -0.1208
  187MOL0     H25779   7.753   4.422   9.671  1.0104 -0.4373 -1.9425
  187MOL0     H25780   7.931   4.591   9.483  2.6383 -1.7923 -0.2623
  187MOL0     H25781   7.948   4.423   9.517 -1.1151 -0.1573 -2.3229
  187MOL0     H25782   8.007   4.447   9.744 -1.4151 -0.1797 -0.1601
  187MOL0     H25783   7.988   4.621   9.741 -0.0807  0.9259 -1.8404
  187MOL0     H25784   8.172   4.674   9.619  1.4874 -0.4807  0.3736
  187MOL0     H25785   8.177   4.521   9.532 -1.4816  0.1589 -0.1966
  187MOL0     H25786   7.017   4.541   9.531  0.8139  0.3986 -0.5381
  187MOL0     H25787   6.840   4.594   9.669 -1.1083  1.9514 -0.1097
  187MOL0     H25788   6.653   4.703  10.000  0.3017  0.9402  0.9778
  187MOL0     H25789   6.487   4.704  10.173 -0.1931 -0.9827 -1.3694
  187MOL0     H25790   4.648   4.479  10.654  1.0639 -3.0379 -3.5066
  187MOL0     H25791   4.408   4.549  10.627 -1.1622  0.7647 -2.2687
  187MOL0     H25792   4.078   4.810  10.571 -1.5265  0.1580  1.5962
  187MOL0     H25793   3.820   4.830  10.586  0.1997 -0.1943  0.1555
  187MOL0     H25794   3.488   4.795  10.333 -0.6648 -0.7911 -2.6012
  187MOL0     H25795   3.629   4.744  10.229  2.2552 -2.1765  0.8362
  187MOL0     H25796   3.461   4.555  10.375 -0.5027 -0.0873 -0.4357
  187MOL0     H25797   3.606   4.520  10.293 -0.3645  0.7152 -3.0662
  187MOL0     H25798   3.391   4.463  10.185  0.3301 -0.4005  2.8731
  187MOL0     H25799   3.355   4.649  10.186  1.9973  1.5486  1.2790
  187MOL0     H25800   3.534   4.684  10.020  2.2250 -0.8881 -0.6159
  187MOL0     H25801   3.400   4.588   9.966  1.8963  0.0993 -0.8434
  187MOL0     H25802   3.741   4.324   9.966  0.3372 -0.0531  1.7676
  187MOL0     H25803   3.788   4.613  10.215 -1.3030  0.5095  0.6725
  187MOL0     H25804   4.112   4.462  10.229  0.2553 -0.5610 -0.9794
  187MOL0     H25805   3.956   4.484  10.135  0.2247  0.2155 -2.2852
  187MOL0     H25806   4.093   4.596  10.111 -1.6805  0.9652 -0.3206
  188MOL0     O25807   7.931   4.078   1.980  0.7708  0.6262 -0.1240
  188MOL0     C25808   7.895   4.200   1.993  0.2307  0.1788  0.1198
  188MOL0     O25809   7.988   4.302   2.008  0.2079 -0.3955  0.4773
  188MOL0     C25810   8.113   4.281   2.054 -0.1284  0.9140 -1.7799
  188MOL0     C25811   8.150   4.278   2.188 -0.2935 -0.1116 -0.0211
  188MOL0     C25812   8.276   4.236   2.228 -0.5332  0.3272  0.2060
  188MOL0     C25813   8.375   4.223   2.127 -0.6651 -1.0017 -0.0014
  188MOL0     O25814   8.507   4.191   2.160 -0.2730 -0.2613 -0.1074
  188MOL0     C25815   8.541   4.140   2.283  0.3599  0.0339  0.4452
  188MOL0     C25816   8.697   4.106   2.287  0.1227 -1.1357 -0.5664
  188MOL0     C25817   8.729   3.998   2.186 -0.0174  0.0310 -0.1392
  188MOL0     C25818   8.854   3.916   2.232 -0.0327  0.3231 -0.3394
  188MOL0     C25819   8.983   3.977   2.184 -0.2502 -0.2151 -0.0130
  188MOL0     C25820   9.098   3.891   2.229 -0.0573  0.3275 -0.4074
  188MOL0     C25821   9.231   3.946   2.215  0.3436  0.0400  0.1128
  188MOL0     C25822   9.338   3.850   2.274  0.0953 -0.2705  0.2123
  188MOL0     N25823   9.477   3.905   2.256  0.3064  0.2062 -0.1402
  188MOL0     C25824   9.571   3.862   2.159 -0.0340  0.3120  1.1000
  188MOL0     C25825   9.685   3.927   2.196 -0.5330 -0.4515 -0.5739
  188MOL0     C25826   9.806   3.925   2.103  1.2456  0.3677 -0.2625
  188MOL0     C25827   9.911   3.812   2.131 -0.4584  0.5364 -0.7261
  188MOL0     C25828  10.043   3.846   2.052 -0.2138  0.3630 -0.6245
  188MOL0     C25829  10.155   3.748   2.065 -0.2083 -0.0936  0.6273
  188MOL0     O25830  10.261   3.818   2.012 -0.5410 -0.0775  0.0709
  188MOL0     C25831  10.372   3.743   1.979 -0.4052  0.8456 -0.0050
  188MOL0     C25832  10.367   3.600   1.952 -0.4327  0.4655  0.0297
  188MOL0     C25833  10.486   3.540   1.900  0.2430  0.3015 -0.4667
  188MOL0     C25834  10.475   3.397   1.862  0.9400 -0.6568  0.2504
  188MOL0     C25835  10.604   3.616   1.885 -0.7015  0.4934 -0.4446
  188MOL0     C25836  10.729   3.557   1.843  0.7151  0.3971  0.6768
  188MOL0     O25837  10.821   3.572   1.934  0.2499 -0.0114 -0.9012
  188MOL0     C25838  10.960   3.551   1.920  0.6008  0.4593 -0.4727
  188MOL0     C25839  11.020   3.462   1.827  0.2556  0.5191 -0.0484
  188MOL0     C25840  11.150   3.429   1.828  0.5900  0.0934  0.3899
  188MOL0     C25841  11.236   3.490   1.923 -0.1640 -0.0818  0.6026
  188MOL0     O25842  11.371   3.468   1.914  0.1551 -0.0099 -0.0832
  188MOL0     C25843  11.432   3.386   2.018 -0.1596  0.8149  1.4808
  188MOL0     C25844  11.583   3.377   1.985 -0.2301 -0.2077 -0.0848
  188MOL0     C25845  11.638   3.277   2.092 -0.1974 -0.6063  0.2634
  188MOL0     C25846  11.792   3.266   2.091 -0.4413  0.4108  0.9200
  188MOL0     C25847  11.842   3.220   2.227  0.4126 -0.3236  1.0812
  188MOL0     C25848  11.789   3.081   2.275  1.1784  0.6472  0.4448
  188MOL0     C25849  11.853   3.026   2.389 -0.8448 -0.1685  0.0220
  188MOL0     C25850  11.813   2.894   2.439 -0.4407  0.3046  0.7585
  188MOL0    Cl25851  11.862   2.759   2.319  0.0739  0.0477  0.2320
  188MOL0     C25852  11.184   3.574   2.019  0.1364  0.3569 -0.2492
  188MOL0     C25853  11.042   3.599   2.022 -0.3167  0.6151 -0.2031
  188MOL0     O25854  10.742   3.512   1.728 -0.1006  0.4660  0.0442
  188MOL0     C25855  10.603   3.752   1.915  0.0776  0.9228 -0.4536
  188MOL0     C25856  10.490   3.816   1.957 -0.6358 -0.6515  0.8756
  188MOL0     N25857   9.657   4.011   2.300 -0.6110  0.5838 -0.2743
  188MOL0     N25858   9.535   4.004   2.331  0.0548  0.0629  0.3431
  188MOL0     C25859   8.345   4.241   1.997  0.3392  0.0732  0.3158
  188MOL0     C25860   8.214   4.252   1.959 -0.4018 -0.3372  0.3034
  188MOL0     C25861   7.753   4.251   1.975  0.0386  0.2792 -0.2874
  188MOL0     C25862   7.735   4.382   1.949 -0.2732 -0.0497  0.1532
  188MOL0     C25863   7.611   4.453   1.934  0.9130  0.5688 -0.3960
  188MOL0     C25864   7.490   4.373   1.955  0.6391 -0.7840  0.1899
  188MOL0     O25865   7.360   4.411   1.978  0.4136  0.1906 -0.1317
  188MOL0     C25866   7.316   4.543   1.945 -0.3410  0.4894 -0.0629
  188MOL0     C25867   7.265   4.554   1.805 -0.4755  0.4651  0.2827
  188MOL0     C25868   7.122   4.499   1.794  0.3488  1.0510 -0.3647
  188MOL0     C25869   7.104   4.454   1.650  0.2643 -0.5511  0.4720
  188MOL0     C25870   7.104   4.574   1.555  0.5949  0.1077  0.1457
  188MOL0     C25871   7.090   4.680   1.498  0.4668  1.1053  0.0410
  188MOL0     C25872   7.510   4.230   1.966 -0.0055 -0.5052 -0.1676
  188MOL0     C25873   7.636   4.170   1.978 -0.1355  0.9733  0.3323
  188MOL0     C25874   7.636   4.019   2.024  0.7582 -0.3229  0.0437
  188MOL0     H25875   8.071   4.297   2.260 -1.2542 -2.3125 -0.3833
  188MOL0     H25876   8.297   4.215   2.332  1.1026  0.7216 -0.0064
  188MOL0     H25877   8.489   4.046   2.305 -1.3316  1.0459  1.0068
  188MOL0     H25878   8.509   4.208   2.363 -0.9217  0.3874 -0.3449
  188MOL0     H25879   8.762   4.191   2.264 -0.1670 -0.0163  2.3599
  188MOL0     H25880   8.722   4.076   2.389  2.0681 -2.3677 -1.3295
  188MOL0     H25881   8.647   3.927   2.174 -0.4884  0.1008  2.3167
  188MOL0     H25882   8.745   4.044   2.088  3.0378  0.8290  0.6379
  188MOL0     H25883   8.850   3.882   2.336 -0.0834 -0.2515 -0.5283
  188MOL0     H25884   8.842   3.819   2.183 -0.9049 -0.0412  0.5583
  188MOL0     H25885   8.994   4.067   2.246 -2.4786  0.1512 -0.0693
  188MOL0     H25886   8.987   4.008   2.079  2.6777  0.4195  0.1926
  188MOL0     H25887   9.084   3.855   2.331 -2.1855 -0.4636 -0.9110
  188MOL0     H25888   9.084   3.810   2.156 -0.7427  0.1393 -0.0799
  188MOL0     H25889   9.235   4.037   2.275 -1.4633 -0.5953  1.3102
  188MOL0     H25890   9.247   3.954   2.107 -0.1307 -2.4002 -0.2045
  188MOL0     H25891   9.309   3.846   2.379 -2.2072 -0.4031 -0.3736
  188MOL0     H25892   9.334   3.751   2.226  2.2009 -0.5099  0.3993
  188MOL0     H25893   9.556   3.801   2.070 -0.2971  1.1099  0.5890
  188MOL0     H25894   9.862   4.018   2.118 -0.0569  1.3994 -1.5587
  188MOL0     H25895   9.773   3.937   2.000  1.0652  2.4182 -0.0198
  188MOL0     H25896   9.935   3.804   2.238 -2.1349 -1.0114 -0.4193
  188MOL0     H25897   9.865   3.724   2.086 -2.2487 -0.1249  2.1028
  188MOL0     H25898  10.029   3.863   1.945  2.8740  1.5756 -0.9568
  188MOL0     H25899  10.077   3.940   2.096 -3.4597  1.2422  0.2418
  188MOL0     H25900  10.172   3.715   2.168 -1.1939 -0.1756  0.7818
  188MOL0     H25901  10.130   3.663   2.000  2.0964 -0.6554  0.4129
  188MOL0     H25902  10.282   3.533   1.959  1.8861 -3.1551 -2.5626
  188MOL0     H25903  10.436   3.326   1.936 -0.2696 -0.1691  0.0994
  188MOL0     H25904  10.576   3.364   1.835  2.8213  3.9070  0.9555
  188MOL0     H25905  10.417   3.383   1.770  0.1300  0.0539  0.6374
  188MOL0     H25906  10.962   3.401   1.757  1.4327 -1.9342  0.9728
  188MOL0     H25907  11.183   3.359   1.752  0.7115  0.4783  0.0850
  188MOL0     H25908  11.407   3.438   2.112 -0.7290  0.0508  1.7599
  188MOL0     H25909  11.400   3.282   2.019  1.1006  0.4110  1.7194
  188MOL0     H25910  11.603   3.342   1.883  3.2357  2.8479 -0.6808
  188MOL0     H25911  11.630   3.475   1.994 -1.5384  0.7687 -2.8391
  188MOL0     H25912  11.598   3.177   2.072 -0.8067 -1.0060  3.1095
  188MOL0     H25913  11.615   3.315   2.192  4.8032 -0.0316  1.4278
  188MOL0     H25914  11.833   3.365   2.069 -0.7340  0.1310 -1.1198
  188MOL0     H25915  11.818   3.202   2.006  0.7833  0.6380  1.1090
  188MOL0     H25916  11.951   3.218   2.231  0.4562 -0.3143  0.1972
  188MOL0     H25917  11.813   3.294   2.302 -1.1979  0.3697 -0.1563
  188MOL0     H25918  11.805   3.010   2.193  0.8306 -2.3106  2.7471
  188MOL0     H25919  11.683   3.091   2.300  0.7577 -0.3940 -0.7789
  188MOL0     H25920  11.843   3.099   2.470  0.2422  0.4012 -0.3382
  188MOL0     H25921  11.957   3.001   2.365 -2.1831 -3.2573 -3.5340
  188MOL0     H25922  11.704   2.890   2.447 -0.7844  4.8455  1.3182
  188MOL0     H25923  11.855   2.875   2.538  1.2604  0.0921  0.0143
  188MOL0     H25924  11.248   3.621   2.093  1.0678 -1.7358  0.3462
  188MOL0     H25925  10.993   3.632   2.112  1.3014  0.6182  0.7138
  188MOL0     H25926  10.697   3.806   1.913  0.6479  0.0137  0.5062
  188MOL0     H25927  10.489   3.923   1.975 -0.5806 -0.5338  0.1873
  188MOL0     H25928   8.427   4.237   1.926 -0.4580  1.4410 -0.7399
  188MOL0     H25929   8.196   4.251   1.852  0.2503 -3.3040  0.1290
  188MOL0     H25930   7.823   4.444   1.941 -0.4745  0.1888 -0.2395
  188MOL0     H25931   7.606   4.561   1.923  1.1511  0.6564  0.3288
  188MOL0     H25932   7.237   4.566   2.018  0.2817  0.7346  0.5558
  188MOL0     H25933   7.398   4.614   1.960  0.2114 -0.1779  0.1396
  188MOL0     H25934   7.336   4.516   1.730 -2.3642  1.1911 -2.0039
  188MOL0     H25935   7.260   4.662   1.790  1.9632  0.7356  0.9335
  188MOL0     H25936   7.108   4.405   1.847 -2.3872  0.9951 -1.0568
  188MOL0     H25937   7.046   4.574   1.819  0.0914  0.9236 -0.7623
  188MOL0     H25938   7.008   4.402   1.638  0.6069 -1.0237 -0.3423
  188MOL0     H25939   7.177   4.384   1.607  1.7993  0.4279  1.3864
  188MOL0     H25940   7.068   4.771   1.445 -0.1389  0.1363 -1.4144
  188MOL0     H25941   7.416   4.176   1.980  0.5285 -1.1051  1.2839
  188MOL0     H25942   7.676   3.969   1.935  0.1213 -0.4602 -0.1727
  188MOL0     H25943   7.706   4.007   2.107  0.6240  0.6429  0.3028
  188MOL0     H25944   7.543   3.968   2.050  1.2520 -1.6731 -0.7249
  189MOL0     O25945   9.047   1.438  10.893 -0.4966 -1.0279  0.9726
  189MOL0     C25946   9.094   1.410  10.999 -0.7786 -0.4613  0.8650
  189MOL0     O25947   9.205   1.330  11.020 -0.9650  0.0216 -0.2430
  189MOL0     C25948   9.319   1.327  10.945 -0.2562 -0.2911 -0.9778
  189MOL0     C25949   9.358   1.428  10.855  0.0139 -0.2144 -0.4828
  189MOL0     C25950   9.484   1.429  10.792 -0.1819  0.8669  0.2245
  189MOL0     C25951   9.579   1.337  10.825  0.5526  0.2331 -1.1048
  189MOL0     O25952   9.692   1.340  10.767  0.2110  0.8720  0.1428
  189MOL0     C25953   9.722   1.244  10.662 -0.1694 -0.0412  0.2516
  189MOL0     C25954   9.876   1.241  10.645  0.2730  0.4052 -0.5508
  189MOL0     C25955   9.944   1.207  10.784  0.7148 -0.5032 -0.0971
  189MOL0     C25956  10.021   1.075  10.771 -0.6659 -0.5892  0.4033
  189MOL0     C25957  10.062   1.018  10.902 -0.5893  0.2788  0.1485
  189MOL0     C25958  10.172   0.918  10.875  0.3251  0.6439  0.3073
  189MOL0     C25959  10.243   0.865  10.997 -0.1544  0.4651  0.2358
  189MOL0     C25960  10.373   0.785  10.965  0.0406  0.6832 -0.5716
  189MOL0     N25961  10.417   0.719  11.090 -0.0790 -0.1156 -0.0722
  189MOL0     C25962  10.443   0.802  11.197 -0.1005 -0.1607  0.0666
  189MOL0     C25963  10.495   0.726  11.293  0.4741  0.6767  0.3355
  189MOL0     C25964  10.544   0.784  11.426  0.1460 -0.4309  0.5932
  189MOL0     C25965  10.451   0.888  11.484 -0.2437  0.5789  0.1610
  189MOL0     C25966  10.315   0.825  11.529 -0.7857 -1.3461 -0.8224
  189MOL0     C25967  10.223   0.932  11.574  0.6587 -0.1051  0.0975
  189MOL0     O25968  10.143   0.976  11.459  0.3687  0.1662 -0.8380
  189MOL0     C25969  10.024   1.037  11.468  0.1356 -0.4307 -0.1637
  189MOL0     C25970   9.930   1.008  11.569 -0.4784  0.4682  0.2153
  189MOL0     C25971   9.802   1.063  11.571  0.4213 -0.0418  0.2422
  189MOL0     C25972   9.720   1.032  11.694  0.9371 -0.5658 -0.2615
  189MOL0     C25973   9.758   1.159  11.469 -0.1522 -1.0713 -0.2944
  189MOL0     C25974   9.617   1.215  11.454  0.4091  0.4952 -0.1286
  189MOL0     O25975   9.593   1.291  11.351 -0.4787  0.1218  0.1141
  189MOL0     C25976   9.514   1.404  11.362 -0.1009  0.1440 -0.0745
  189MOL0     C25977   9.470   1.459  11.238  1.0841  1.3155 -0.7151
  189MOL0     C25978   9.401   1.574  11.239  0.6731  0.2962 -0.2378
  189MOL0     C25979   9.353   1.635  11.360  1.0276  0.1196 -1.4672
  189MOL0     O25980   9.266   1.746  11.367 -0.0452 -0.3998  0.2295
  189MOL0     C25981   9.280   1.837  11.249 -0.5765 -0.5003  0.4278
  189MOL0     C25982   9.190   1.798  11.133  0.1202  0.1178  0.2198
  189MOL0     C25983   9.039   1.812  11.179 -0.3892 -1.3887 -0.2468
  189MOL0     C25984   8.986   1.962  11.179  0.0377 -0.0648 -0.0720
  189MOL0     C25985   8.838   1.975  11.170  0.9541 -0.2526  0.1153
  189MOL0     C25986   8.809   2.118  11.173  0.5896 -0.4275 -0.0826
  189MOL0     C25987   8.664   2.148  11.200  0.3192  0.5119 -0.4257
  189MOL0     C25988   8.632   2.281  11.157  0.2813 -0.8595  0.4311
  189MOL0    Cl25989   8.458   2.312  11.175  0.5958 -0.1404  0.4027
  189MOL0     C25990   9.397   1.586  11.480 -0.3538  0.7304 -0.0812
  189MOL0     C25991   9.477   1.469  11.480  0.3252  0.1558 -0.1422
  189MOL0     O25992   9.534   1.187  11.536 -0.0230 -0.4445  0.2699
  189MOL0     C25993   9.856   1.176  11.355  0.4320 -0.5111 -0.1501
  189MOL0     C25994   9.986   1.113  11.366 -0.1021  0.3999 -0.1303
  189MOL0     N25995  10.511   0.600  11.241 -0.2549 -0.6228  0.0122
  189MOL0     N25996  10.466   0.601  11.124  0.5278  0.3207 -0.1499
  189MOL0     C25997   9.546   1.246  10.928 -0.8544  0.2531  0.4729
  189MOL0     C25998   9.421   1.238  10.980  0.3700 -0.4258 -0.5322
  189MOL0     C25999   9.023   1.452  11.126 -0.7636  0.1581 -0.4257
  189MOL0     C26000   9.083   1.439  11.250 -0.1207 -0.5674 -0.0612
  189MOL0     C26001   9.022   1.462  11.364  0.1704  0.1824  0.2511
  189MOL0     C26002   8.893   1.521  11.368  0.4987 -0.1098  0.8997
  189MOL0     O26003   8.843   1.541  11.494 -0.1714  0.3799 -0.3616
  189MOL0     C26004   8.709   1.593  11.508 -0.5946  0.4103 -0.5555
  189MOL0     C26005   8.616   1.474  11.521  0.1876  0.5395 -0.8928
  189MOL0     C26006   8.478   1.523  11.546 -0.0995 -0.2169  0.0187
  189MOL0     C26007   8.384   1.414  11.493 -0.1676 -0.1176  0.1824
  189MOL0     C26008   8.317   1.458  11.369 -0.7651 -0.4812  0.2177
  189MOL0     C26009   8.259   1.476  11.260 -0.1396  0.1860 -0.4972
  189MOL0     C26010   8.830   1.535  11.241  0.6205  0.0790 -0.0175
  189MOL0     C26011   8.887   1.495  11.127 -0.2760 -0.3310  1.0355
  189MOL0     C26012   8.810   1.512  10.997 -0.2251  0.1544 -0.2010
  189MOL0     H26013   9.284   1.498  10.818 -0.0312 -0.6527 -1.2434
  189MOL0     H26014   9.511   1.503  10.717  1.1313 -0.4546 -0.6676
  189MOL0     H26015   9.678   1.267  10.565  1.5346 -2.0201 -1.0851
  189MOL0     H26016   9.689   1.146  10.697 -1.0258 -0.4064 -1.4606
  189MOL0     H26017   9.893   1.165  10.568 -1.4172 -2.1478  1.4162
  189MOL0     H26018   9.915   1.341  10.624 -0.1108  0.9346  1.0922
  189MOL0     H26019  10.008   1.291  10.810 -1.0853  0.9277 -0.1441
  189MOL0     H26020   9.866   1.203  10.859 -0.9760  0.5358 -1.7250
  189MOL0     H26021   9.964   0.999  10.717  0.5081  0.1808 -2.0826
  189MOL0     H26022  10.105   1.102  10.706 -0.3666  0.5197  1.2222
  189MOL0     H26023   9.976   0.976  10.956 -0.5074  0.5173  0.4704
  189MOL0     H26024  10.103   1.097  10.966  3.3567  1.9807 -3.9902
  189MOL0     H26025  10.133   0.832  10.819 -2.5570  0.5074  2.3165
  189MOL0     H26026  10.248   0.963  10.810  1.6696  0.6188  1.8126
  189MOL0     H26027  10.174   0.806  11.058 -1.8656  2.0823 -0.0192
  189MOL0     H26028  10.274   0.952  11.054  0.4965  0.5081 -0.1659
  189MOL0     H26029  10.345   0.718  10.883  1.0035  0.2571 -0.5635
  189MOL0     H26030  10.445   0.860  10.931 -0.6690  0.5901 -2.4082
  189MOL0     H26031  10.430   0.909  11.205  0.3431 -0.1028  0.0416
  189MOL0     H26032  10.644   0.828  11.413  0.7073 -1.9168 -0.4094
  189MOL0     H26033  10.556   0.699  11.494  0.2160 -0.2502  0.8069
  189MOL0     H26034  10.497   0.943  11.567 -1.5348 -0.9214  1.9728
  189MOL0     H26035  10.432   0.963  11.407  2.1756  1.3360  0.2300
  189MOL0     H26036  10.284   0.768  11.442  1.6950  0.1194 -2.8110
  189MOL0     H26037  10.328   0.748  11.606 -0.0990 -1.7585 -1.3371
  189MOL0     H26038  10.158   0.882  11.646  1.1818 -0.1723  0.5328
  189MOL0     H26039  10.273   1.017  11.621  0.9496  0.3586 -1.0208
  189MOL0     H26040   9.953   0.941  11.651 -2.0549  0.6617  0.8521
  189MOL0     H26041   9.649   0.954  11.665  0.0066 -0.0698  0.6108
  189MOL0     H26042   9.666   1.120  11.730  1.6712 -0.7344  1.3346
  189MOL0     H26043   9.786   1.010  11.778  1.5927 -0.9991 -0.8718
  189MOL0     H26044   9.484   1.409  11.143  2.1282  1.0314 -0.4319
  189MOL0     H26045   9.372   1.608  11.140 -1.2994  0.1601  0.2381
  189MOL0     H26046   9.254   1.941  11.267 -1.4238 -0.3086 -1.6595
  189MOL0     H26047   9.385   1.828  11.218 -0.1567 -2.6199  2.1744
  189MOL0     H26048   9.210   1.858  11.044  0.6884 -0.0092  0.2620
  189MOL0     H26049   9.196   1.695  11.095 -0.8532 -0.1329  0.6954
  189MOL0     H26050   9.026   1.780  11.283 -1.9288  2.4452  0.9260
  189MOL0     H26051   8.980   1.759  11.104  0.2097 -0.4457 -1.4131
  189MOL0     H26052   9.026   2.003  11.086  1.3138 -0.1243  0.4219
  189MOL0     H26053   9.031   2.014  11.264 -1.6925  1.2563  0.0882
  189MOL0     H26054   8.800   1.930  11.078  0.7195 -1.0799  0.6009
  189MOL0     H26055   8.790   1.936  11.260 -2.0401 -0.4927 -1.4775
  189MOL0     H26056   8.836   2.166  11.078  2.7705  2.5914  1.8796
  189MOL0     H26057   8.863   2.163  11.257  3.5053 -2.6558 -0.6008
  189MOL0     H26058   8.646   2.135  11.307 -2.9245 -2.6207 -1.1558
  189MOL0     H26059   8.610   2.067  11.150  2.0211 -1.1689  0.3472
  189MOL0     H26060   8.667   2.312  11.059  0.2496 -1.4261  0.2342
  189MOL0     H26061   8.686   2.351  11.221  0.1240  1.0582 -1.4451
  189MOL0     H26062   9.365   1.638  11.570 -0.4766 -0.6821  0.7104
  189MOL0     H26063   9.499   1.427  11.578 -0.4960 -0.0762 -0.0451
  189MOL0     H26064   9.827   1.238  11.271  0.4192  0.1693  0.3544
  189MOL0     H26065  10.067   1.115  11.294  0.2737  0.5359  0.2925
  189MOL0     H26066   9.624   1.176  10.956 -2.1059 -2.4600 -2.1617
  189MOL0     H26067   9.396   1.160  11.051  0.5852  1.4750  1.7537
  189MOL0     H26068   9.184   1.405  11.270  0.7811  1.7686 -0.3469
  189MOL0     H26069   9.076   1.456  11.458 -1.0007  3.4874  1.2830
  189MOL0     H26070   8.710   1.647  11.603 -0.2307 -2.3000  1.0846
  189MOL0     H26071   8.683   1.662  11.426  0.9408 -1.1085 -2.4157
  189MOL0     H26072   8.644   1.407  11.603 -2.2815  0.7904  0.2191
  189MOL0     H26073   8.615   1.418  11.427 -1.4340 -3.7640  1.4355
  189MOL0     H26074   8.455   1.545  11.651  0.7367 -1.4812  0.4841
  189MOL0     H26075   8.465   1.617  11.490  1.6439  0.0861  0.0793
  189MOL0     H26076   8.307   1.398  11.569 -1.1806  2.1994 -0.2684
  189MOL0     H26077   8.444   1.325  11.471 -0.0554  0.2645 -1.1490
  189MOL0     H26078   8.196   1.474  11.173 -1.0907  1.2242  0.1389
  189MOL0     H26079   8.738   1.591  11.239  1.5338  1.7010  1.3744
  189MOL0     H26080   8.864   1.580  10.930  0.4609  1.0768  1.2458
  189MOL0     H26081   8.797   1.420  10.940 -0.9243  0.9143 -1.3268
  189MOL0     H26082   8.718   1.569  11.012 -0.4801 -0.1193 -0.6951
  190MOL0     O26083   3.285   5.446   4.875  0.6215 -0.4629 -0.0084
  190MOL0     C26084   3.172   5.494   4.882  0.1167  0.9078  0.2829
  190MOL0     O26085   3.149   5.625   4.913  0.3622 -0.1440  0.2630
  190MOL0     C26086   3.255   5.705   4.946 -0.8606 -0.0764 -0.4684
  190MOL0     C26087   3.295   5.820   4.863  0.4136  0.9775 -0.6151
  190MOL0     C26088   3.403   5.904   4.899  1.1376  0.3736 -0.6512
  190MOL0     C26089   3.483   5.863   5.009 -1.3865  0.3597 -0.0435
  190MOL0     O26090   3.602   5.936   5.026 -0.2950 -0.2419  0.1142
  190MOL0     C26091   3.721   5.863   5.058  0.3354 -0.0383  0.4345
  190MOL0     C26092   3.846   5.944   5.017 -0.2584  0.2588  0.5161
  190MOL0     C26093   3.966   5.864   5.064 -0.4049 -0.1654 -0.3474
  190MOL0     C26094   4.087   5.933   4.995 -0.1722 -0.1134 -0.0789
  190MOL0     C26095   4.220   5.889   5.063  0.0478  0.9036  0.2361
  190MOL0     C26096   4.337   5.956   4.987 -0.2147 -0.3338 -0.1012
  190MOL0     C26097   4.471   5.910   5.049 -0.6216  0.7681  0.4737
  190MOL0     C26098   4.594   5.993   5.006 -0.0820  0.4701  0.2761
  190MOL0     N26099   4.608   6.017   4.861  0.0298  0.0851  0.0553
  190MOL0     C26100   4.674   5.942   4.764 -1.0251  0.5969 -0.4261
  190MOL0     C26101   4.640   6.000   4.647  0.4454  0.6158 -0.3560
  190MOL0     C26102   4.679   5.954   4.512 -0.0974  0.3791 -0.3449
  190MOL0     C26103   4.813   5.892   4.503 -0.1069 -0.6784 -0.7314
  190MOL0     C26104   4.827   5.837   4.361 -0.0258 -0.5495 -0.3279
  190MOL0     C26105   4.973   5.832   4.317 -0.0041 -0.2798  0.8933
  190MOL0     O26106   5.031   5.961   4.302 -0.0038 -0.5277  0.6034
  190MOL0     C26107   5.156   5.977   4.248  0.5930  0.0078 -0.7949
  190MOL0     C26108   5.222   6.098   4.266 -0.6428  0.0401  0.9456
  190MOL0     C26109   5.332   6.131   4.186  0.7850  0.0848 -1.2474
  190MOL0     C26110   5.387   6.264   4.210  0.0339  0.0870  0.0756
  190MOL0     C26111   5.397   6.033   4.106 -0.7533  0.1111 -0.2588
  190MOL0     C26112   5.515   6.058   4.023 -0.2089 -0.1148  0.4832
  190MOL0     O26113   5.491   6.155   3.920  0.7902  0.3693 -0.3392
  190MOL0     C26114   5.606   6.224   3.891  0.5130 -0.6143 -0.2100
  190MOL0     C26115   5.709   6.183   3.809 -0.1715 -0.0939 -0.0687
  190MOL0     C26116   5.821   6.263   3.790  0.4690  0.1539  0.1425
  190MOL0     C26117   5.847   6.382   3.862 -0.3145  0.4333 -0.3004
  190MOL0     O26118   5.956   6.456   3.838 -0.4613  0.7179  0.4171
  190MOL0     C26119   6.076   6.406   3.901 -0.2655 -0.4620 -0.6565
  190MOL0     C26120   6.195   6.390   3.802  0.1298  0.2873 -0.0710
  190MOL0     C26121   6.336   6.377   3.869 -0.0975  0.5026  0.4131
  190MOL0     C26122   6.431   6.325   3.765  0.1259  0.5305  0.1185
  190MOL0     C26123   6.578   6.297   3.803 -0.7011  0.9578  0.9511
  190MOL0     C26124   6.666   6.286   3.675 -0.1783  0.0081  0.4590
  190MOL0     C26125   6.820   6.294   3.704  0.8578  1.7022  0.8511
  190MOL0     C26126   6.877   6.147   3.705 -0.7376 -0.6676  0.0583
  190MOL0    Cl26127   6.847   6.066   3.859  0.0469 -0.2000  0.1807
  190MOL0     C26128   5.748   6.417   3.953 -0.2905  0.5533 -0.3335
  190MOL0     C26129   5.626   6.347   3.962  0.4567 -1.0881  0.6991
  190MOL0     O26130   5.621   5.997   4.035 -0.1801 -0.1715 -0.1644
  190MOL0     C26131   5.348   5.908   4.100  0.4638 -0.2671 -0.2714
  190MOL0     C26132   5.214   5.883   4.160 -1.8574  0.4729  0.4924
  190MOL0     N26133   4.570   6.111   4.680  0.2134 -0.3062  0.4956
  190MOL0     N26134   4.556   6.130   4.806 -0.6027  0.1869  0.1097
  190MOL0     C26135   3.445   5.759   5.095  0.2829  0.0063 -0.1141
  190MOL0     C26136   3.334   5.682   5.065  1.1655 -0.0456  0.6973
  190MOL0     C26137   3.055   5.401   4.864 -0.3293 -1.2509 -1.2219
  190MOL0     C26138   2.931   5.441   4.913  0.3045  0.4075  0.0628
  190MOL0     C26139   2.821   5.363   4.876 -0.0456 -0.0783  0.0393
  190MOL0     C26140   2.820   5.237   4.808 -0.1646  0.4871  0.3099
  190MOL0     O26141   2.701   5.172   4.770 -0.6344 -0.0042 -0.2706
  190MOL0     C26142   2.692   5.034   4.732 -0.5255  0.8197 -0.0495
  190MOL0     C26143   2.728   5.000   4.582  0.1894 -0.0802  0.7788
  190MOL0     C26144   2.654   5.076   4.466 -0.6004  0.2406  0.6413
  190MOL0     C26145   2.505   5.040   4.478 -0.4790  0.3054 -0.6173
  190MOL0     C26146   2.470   4.909   4.417  0.2756 -0.0373  0.2636
  190MOL0     C26147   2.428   4.799   4.372  0.4127  0.1719  0.8501
  190MOL0     C26148   2.955   5.191   4.779  0.5251  0.1959 -1.2451
  190MOL0     C26149   3.071   5.269   4.810  0.3001 -0.5215  0.6989
  190MOL0     C26150   3.202   5.207   4.767 -0.2617 -0.4027  0.7559
  190MOL0     H26151   3.234   5.842   4.776 -1.2385  1.0787  0.5203
  190MOL0     H26152   3.429   5.996   4.848  3.3317  0.2895  0.1708
  190MOL0     H26153   3.724   5.766   5.007 -1.2562  0.5056 -0.7669
  190MOL0     H26154   3.712   5.853   5.166 -2.9948 -0.3758  0.2158
  190MOL0     H26155   3.849   5.949   4.908  2.4287  0.7034  0.5588
  190MOL0     H26156   3.833   6.046   5.056 -0.6524  1.1035 -1.6761
  190MOL0     H26157   3.974   5.864   5.173  2.2870  0.5810 -0.4696
  190MOL0     H26158   3.956   5.761   5.028 -0.1170 -1.0045  1.8085
  190MOL0     H26159   4.090   5.910   4.888 -2.5477  0.3728 -0.3043
  190MOL0     H26160   4.081   6.041   5.012  1.3917 -0.4003  2.8645
  190MOL0     H26161   4.216   5.780   5.051 -2.6089  0.8526  0.9302
  190MOL0     H26162   4.214   5.917   5.169 -1.6474 -2.0072  1.0146
  190MOL0     H26163   4.342   5.942   4.878 -1.9212  1.7614 -0.5138
  190MOL0     H26164   4.320   6.063   5.001 -2.7212 -0.7066  0.1471
  190MOL0     H26165   4.499   5.810   5.013 -0.1951  1.4457 -1.1263
  190MOL0     H26166   4.454   5.919   5.157 -2.2520  2.3220  0.1167
  190MOL0     H26167   4.582   6.092   5.051  1.0824  1.2078 -0.9689
  190MOL0     H26168   4.682   5.955   5.058 -0.9298  0.4821  1.7727
  190MOL0     H26169   4.728   5.849   4.773  1.3900  1.8418 -1.1139
  190MOL0     H26170   4.667   6.037   4.442 -0.6164  0.1711 -0.5068
  190MOL0     H26171   4.614   5.874   4.476  1.5867 -0.9088 -0.6796
  190MOL0     H26172   4.888   5.968   4.528 -1.0727 -0.3080  1.2183
  190MOL0     H26173   4.831   5.814   4.578  0.4226 -0.8486 -1.0277
  190MOL0     H26174   4.774   5.741   4.363 -3.1021  0.9773 -1.6995
  190MOL0     H26175   4.773   5.901   4.292  2.4239  0.6148 -1.2786
  190MOL0     H26176   5.017   5.771   4.396  1.3028  0.7843  1.0305
  190MOL0     H26177   4.978   5.766   4.230  1.7703  1.1901 -0.2091
  190MOL0     H26178   5.176   6.159   4.343 -0.4129 -1.5169  2.3800
  190MOL0     H26179   5.491   6.262   4.244 -0.5064 -0.6297  1.7914
  190MOL0     H26180   5.334   6.324   4.285  0.9141 -0.9299  1.5615
  190MOL0     H26181   5.377   6.320   4.116 -2.3334 -0.8237 -0.2836
  190MOL0     H26182   5.724   6.086   3.761  0.1629 -0.4151  0.6749
  190MOL0     H26183   5.895   6.237   3.715 -0.0723  3.4955 -1.7450
  190MOL0     H26184   6.110   6.476   3.977  4.1226 -1.0388 -1.8337
  190MOL0     H26185   6.058   6.304   3.939 -0.8829 -1.0302 -2.3923
  190MOL0     H26186   6.174   6.292   3.758 -0.3743 -0.2081  1.2044
  190MOL0     H26187   6.207   6.465   3.724  2.5391 -1.1299 -1.1934
  190MOL0     H26188   6.337   6.326   3.966  2.2175  1.0509  0.7405
  190MOL0     H26189   6.369   6.479   3.894 -0.8465  1.0243 -0.6308
  190MOL0     H26190   6.427   6.395   3.682  1.2107  0.7382  0.2293
  190MOL0     H26191   6.392   6.230   3.726 -0.7473  0.3948  1.2731
  190MOL0     H26192   6.602   6.388   3.858 -0.6258  0.1500  2.2803
  190MOL0     H26193   6.584   6.208   3.866  1.1027  1.8186  2.0576
  190MOL0     H26194   6.650   6.359   3.596  0.4215  1.2962  1.4843
  190MOL0     H26195   6.646   6.186   3.634  2.5900  0.3100 -1.9402
  190MOL0     H26196   6.850   6.341   3.798  0.6282  1.4443  1.0560
  190MOL0     H26197   6.874   6.332   3.617  0.3518 -2.5045 -1.5791
  190MOL0     H26198   6.984   6.146   3.683 -0.8444 -0.6784 -0.4913
  190MOL0     H26199   6.834   6.095   3.618  1.2113 -4.6568  1.2128
  190MOL0     H26200   5.760   6.502   4.020 -4.1329  1.0332 -0.0017
  190MOL0     H26201   5.563   6.388   4.041  3.5016 -1.1084  3.3448
  190MOL0     H26202   5.400   5.828   4.048 -0.8064 -1.1259 -0.2711
  190MOL0     H26203   5.180   5.781   4.151 -0.9204  0.1515  0.4873
  190MOL0     H26204   3.506   5.730   5.180 -0.2265 -0.9339 -0.0643
  190MOL0     H26205   3.312   5.601   5.134  0.7229  1.1912  2.0688
  190MOL0     H26206   2.919   5.532   4.971 -1.4237  0.4354 -0.2862
  190MOL0     H26207   2.725   5.397   4.914 -1.2168 -1.5225 -1.4602
  190MOL0     H26208   2.771   4.985   4.792  0.2530 -0.6822 -2.1825
  190MOL0     H26209   2.598   4.985   4.758  0.1985 -2.4001 -2.7264
  190MOL0     H26210   2.719   4.893   4.563 -1.5737  0.2468 -0.4918
  190MOL0     H26211   2.834   5.025   4.573 -0.2847  1.4804 -1.0793
  190MOL0     H26212   2.670   5.184   4.460  0.0176  0.1431  0.3555
  190MOL0     H26213   2.707   5.034   4.380  0.7602 -1.0817  2.0495
  190MOL0     H26214   2.437   5.116   4.438  1.9368  2.2895 -1.1951
  190MOL0     H26215   2.482   5.033   4.585  0.1348  0.6971 -0.4518
  190MOL0     H26216   2.387   4.707   4.335  0.0304  1.0657 -1.0532
  190MOL0     H26217   2.975   5.099   4.724  3.7308  0.5682 -0.8972
  190MOL0     H26218   3.242   5.273   4.689 -3.4851 -1.6870 -2.2921
  190MOL0     H26219   3.269   5.195   4.852 -0.9743 -2.5773  1.0850
  190MOL0     H26220   3.195   5.105   4.728  1.2315 -1.0854  2.1340
  191MOL0     O26221   8.974   1.716   4.032 -0.8606 -0.1475  0.2591
  191MOL0     C26222   8.951   1.643   3.932  0.0444 -0.6127 -0.4379
  191MOL0     O26223   9.051   1.601   3.850 -0.0029  0.2867  0.7192
  191MOL0     C26224   9.175   1.653   3.870  0.2258  0.1727  0.1973
  191MOL0     C26225   9.228   1.751   3.784  0.5551  0.0309 -0.1953
  191MOL0     C26226   9.359   1.794   3.792  0.7673 -0.7237 -0.2655
  191MOL0     C26227   9.446   1.742   3.892 -0.0869 -0.1640  0.9550
  191MOL0     O26228   9.575   1.789   3.913  0.2496  1.2704 -0.1465
  191MOL0     C26229   9.604   1.906   3.834 -0.5425  0.0020  0.0632
  191MOL0     C26230   9.751   1.943   3.855  0.5952 -0.2189 -0.1255
  191MOL0     C26231   9.825   1.864   3.745  0.4000 -0.0382 -0.1049
  191MOL0     C26232   9.979   1.898   3.758  0.1964 -0.5501 -0.4581
  191MOL0     C26233  10.062   1.787   3.692  0.3502 -0.4800 -0.1044
  191MOL0     C26234  10.214   1.795   3.719  0.1065  0.7218  0.8509
  191MOL0     C26235  10.273   1.935   3.685 -0.2282 -0.2662 -0.3909
  191MOL0     C26236  10.421   1.926   3.703 -0.1339 -0.6202  0.7653
  191MOL0     N26237  10.497   2.050   3.708  0.2624  0.6722 -0.2076
  191MOL0     C26238  10.492   2.153   3.612  0.3445 -0.3763  0.0419
  191MOL0     C26239  10.602   2.228   3.638  0.5327 -0.5050 -0.3810
  191MOL0     C26240  10.641   2.350   3.553 -1.1690  0.1237 -0.5589
  191MOL0     C26241  10.758   2.326   3.465 -0.0500  0.2479 -0.5137
  191MOL0     C26242  10.768   2.434   3.357 -0.1032  0.4931 -0.5347
  191MOL0     C26243  10.912   2.467   3.329 -0.6676  0.8720  0.2218
  191MOL0     O26244  10.953   2.522   3.452 -0.1428  0.5308 -1.2055
  191MOL0     C26245  11.084   2.528   3.485 -0.6859  0.2893 -0.2361
  191MOL0     C26246  11.122   2.594   3.603 -0.1905 -0.4022 -0.2875
  191MOL0     C26247  11.251   2.625   3.643  0.1444 -0.2950  0.4040
  191MOL0     C26248  11.267   2.692   3.773 -0.0639  0.2214 -0.1017
  191MOL0     C26249  11.359   2.576   3.556 -0.6793 -1.0195  0.8173
  191MOL0     C26250  11.503   2.587   3.594 -0.4749  0.6962 -0.5088
  191MOL0     O26251  11.591   2.503   3.535 -0.9527 -0.6936  0.6225
  191MOL0     C26252  11.719   2.518   3.582 -0.0784 -0.6444 -0.7789
  191MOL0     C26253  11.769   2.433   3.674 -0.2384  0.7948 -0.1008
  191MOL0     C26254  11.906   2.442   3.712  0.8981 -0.6967 -0.5380
  191MOL0     C26255  11.986   2.537   3.652 -0.2025 -0.2632  0.4286
  191MOL0     O26256  12.116   2.548   3.692  0.1442 -0.1424  0.3273
  191MOL0     C26257  12.229   2.530   3.593  0.5277 -0.5757 -1.1413
  191MOL0     C26258  12.367   2.541   3.671  0.3230  0.3340  0.6542
  191MOL0     C26259  12.386   2.682   3.727  0.3643  0.4045  0.3974
  191MOL0     C26260  12.533   2.689   3.788  0.2393 -0.2017 -0.0410
  191MOL0     C26261  12.593   2.830   3.774  0.1101 -0.1035 -0.3938
  191MOL0     C26262  12.745   2.831   3.780 -0.0938  0.3195 -0.4899
  191MOL0     C26263  12.808   2.768   3.908 -0.1958  0.1021 -0.9502
  191MOL0     C26264  12.961   2.789   3.907  0.0563 -0.2789 -0.4600
  191MOL0    Cl26265  13.012   2.699   4.052  0.3244  0.0692  0.2529
  191MOL0     C26266  11.936   2.623   3.552  0.3804  0.0649  0.4798
  191MOL0     C26267  11.809   2.613   3.516  0.4692 -0.1653 -0.4623
  191MOL0     O26268  11.537   2.682   3.665  0.3191  0.2240  0.6225
  191MOL0     C26269  11.321   2.510   3.436  0.0658 -0.4379 -0.6062
  191MOL0     C26270  11.190   2.496   3.392  0.3765  0.2794 -0.9181
  191MOL0     N26271  10.668   2.175   3.745  0.5251  0.0137  0.4595
  191MOL0     N26272  10.600   2.073   3.788  0.5908 -0.2794  0.1015
  191MOL0     C26273   9.400   1.636   3.973  0.2840 -0.0305  0.0996
  191MOL0     C26274   9.265   1.600   3.967  0.4698 -0.5099 -0.5179
  191MOL0     C26275   8.808   1.606   3.893 -0.4240 -0.0273 -0.2586
  191MOL0     C26276   8.789   1.548   3.763 -0.9155  0.4813 -0.1900
  191MOL0     C26277   8.673   1.504   3.720 -0.1631  0.1111 -0.2654
  191MOL0     C26278   8.565   1.495   3.812 -0.0007  0.4556 -0.7626
  191MOL0     O26279   8.458   1.421   3.765 -0.3387  0.1474  0.0675
  191MOL0     C26280   8.334   1.425   3.829  0.0922  0.1627  0.4152
  191MOL0     C26281   8.262   1.564   3.823  1.0810 -0.5473  0.0162
  191MOL0     C26282   8.135   1.564   3.917  0.0433  0.2733 -0.0916
  191MOL0     C26283   8.025   1.473   3.866  0.0216  0.2292  0.8472
  191MOL0     C26284   7.996   1.489   3.724 -0.2476  0.4794 -0.3868
  191MOL0     C26285   7.966   1.491   3.611  0.6273  0.5086 -0.8703
  191MOL0     C26286   8.581   1.545   3.938  0.5364  0.3727 -0.6518
  191MOL0     C26287   8.694   1.614   3.982 -0.0593 -0.0283 -0.2575
  191MOL0     C26288   8.690   1.664   4.124 -0.6755 -0.2717 -0.0654
  191MOL0     H26289   9.168   1.803   3.710  0.2041  1.2375  0.9038
  191MOL0     H26290   9.396   1.865   3.719 -2.1578  4.3597  2.6069
  191MOL0     H26291   9.537   1.988   3.860  0.3378  0.9867 -0.7068
  191MOL0     H26292   9.596   1.884   3.727  3.7903  0.0892 -0.4247
  191MOL0     H26293   9.757   2.053   3.854  1.5653 -0.2661 -0.2656
  191MOL0     H26294   9.781   1.906   3.953  1.5659 -0.2467 -0.4210
  191MOL0     H26295   9.817   1.756   3.762  0.4069  0.0017  0.1482
  191MOL0     H26296   9.784   1.878   3.644  0.2461  1.1162  0.1020
  191MOL0     H26297  10.004   1.990   3.705 -0.9238 -0.2639 -0.5016
  191MOL0     H26298  10.014   1.898   3.862 -1.1205  2.1029  0.0795
  191MOL0     H26299  10.045   1.799   3.585 -0.4331 -2.0090 -0.1933
  191MOL0     H26300  10.027   1.690   3.729  1.2248 -0.6580  0.2684
  191MOL0     H26301  10.234   1.768   3.824  0.7261 -0.2433  0.5011
  191MOL0     H26302  10.267   1.714   3.668  1.3441 -0.5035  3.7949
  191MOL0     H26303  10.228   2.003   3.758 -1.1195 -2.5702  1.3245
  191MOL0     H26304  10.244   1.973   3.586  1.4702 -0.1262 -0.8786
  191MOL0     H26305  10.450   1.875   3.796  3.4386 -0.6428 -0.2181
  191MOL0     H26306  10.460   1.863   3.622 -0.7821  1.0858 -0.9263
  191MOL0     H26307  10.416   2.162   3.535 -0.6977  2.9040  1.2686
  191MOL0     H26308  10.662   2.428   3.627  0.6456 -0.7839 -0.0631
  191MOL0     H26309  10.558   2.377   3.488  0.6081 -0.8161 -3.3873
  191MOL0     H26310  10.844   2.315   3.532 -1.7665  0.6005  1.8670
  191MOL0     H26311  10.734   2.235   3.409 -0.1731 -0.4756  0.6756
  191MOL0     H26312  10.730   2.399   3.261  0.8848 -0.0329 -0.7488
  191MOL0     H26313  10.717   2.526   3.388 -0.5473  0.0972 -0.0603
  191MOL0     H26314  10.960   2.380   3.283 -1.1569  1.1939 -0.9348
  191MOL0     H26315  10.922   2.552   3.261 -0.2259 -0.7470 -1.8232
  191MOL0     H26316  11.044   2.642   3.661 -0.8884  1.4478 -2.5745
  191MOL0     H26317  11.276   2.614   3.849  0.5369  0.4500  0.0663
  191MOL0     H26318  11.182   2.757   3.796  0.8581  1.6547 -0.6325
  191MOL0     H26319  11.345   2.768   3.782  0.2610 -0.0166 -0.8423
  191MOL0     H26320  11.704   2.352   3.706 -0.9057  0.3137 -2.4760
  191MOL0     H26321  11.946   2.365   3.778  0.5104  0.3580  0.9723
  191MOL0     H26322  12.228   2.429   3.549 -1.6741 -1.1524  0.0844
  191MOL0     H26323  12.221   2.605   3.514 -3.5179 -1.4545 -1.7946
  191MOL0     H26324  12.371   2.469   3.754  2.3964 -0.1472  0.2024
  191MOL0     H26325  12.449   2.510   3.604 -0.0776 -0.2730  0.4313
  191MOL0     H26326  12.309   2.709   3.799  0.4473  1.1409  0.2123
  191MOL0     H26327  12.372   2.747   3.640 -0.3325 -0.7312 -0.3659
  191MOL0     H26328  12.589   2.611   3.736 -1.7815 -1.3495 -0.6325
  191MOL0     H26329  12.521   2.666   3.894  0.5757  1.7911  0.4588
  191MOL0     H26330  12.552   2.867   3.679 -2.7482 -1.9933  0.0042
  191MOL0     H26331  12.546   2.890   3.852 -0.9943 -0.5780 -0.6808
  191MOL0     H26332  12.776   2.936   3.776  0.0887  0.2265 -2.7157
  191MOL0     H26333  12.783   2.783   3.690  2.3573  2.6481 -0.8121
  191MOL0     H26334  12.784   2.662   3.917 -0.6982  0.3240  0.7685
  191MOL0     H26335  12.772   2.814   4.000  2.2508 -0.6432  0.4881
  191MOL0     H26336  12.988   2.894   3.920  0.5750 -0.4623 -0.0232
  191MOL0     H26337  13.000   2.750   3.813  2.2730 -1.3656  0.8323
  191MOL0     H26338  11.999   2.700   3.508  2.4646 -2.6674 -1.7266
  191MOL0     H26339  11.770   2.675   3.435 -1.1365  0.2074  0.5337
  191MOL0     H26340  11.396   2.469   3.369 -1.8866 -0.5027 -2.8699
  191MOL0     H26341  11.163   2.456   3.294 -0.6489 -2.4914  0.3697
  191MOL0     H26342   9.476   1.592   4.037 -0.3484 -0.4026  0.6082
  191MOL0     H26343   9.231   1.523   4.035  1.0672  0.5208  0.9986
  191MOL0     H26344   8.868   1.548   3.688 -1.2987 -1.4923 -0.6701
  191MOL0     H26345   8.672   1.460   3.620  0.8692  0.5725 -0.4960
  191MOL0     H26346   8.270   1.352   3.780  1.0751 -0.3814 -0.0773
  191MOL0     H26347   8.353   1.391   3.931 -1.1852 -0.7533  0.3615
  191MOL0     H26348   8.235   1.597   3.723 -0.8681 -1.8843  0.0460
  191MOL0     H26349   8.329   1.640   3.865  1.2371 -2.2098  3.1215
  191MOL0     H26350   8.170   1.546   4.019  0.8866 -1.3621 -0.6203
  191MOL0     H26351   8.091   1.664   3.915 -2.5930 -0.7997  1.1401
  191MOL0     H26352   7.938   1.498   3.927 -1.2115 -0.5731 -0.5190
  191MOL0     H26353   8.060   1.372   3.889  1.7974  1.4788  4.4657
  191MOL0     H26354   7.940   1.497   3.507  1.7835  0.8603 -1.1597
  191MOL0     H26355   8.509   1.520   4.016 -1.7747  1.9137 -2.1691
  191MOL0     H26356   8.598   1.645   4.181 -0.2778 -1.7705  0.1269
  191MOL0     H26357   8.772   1.613   4.175  0.5450  1.3930 -0.2856
  191MOL0     H26358   8.704   1.772   4.130 -0.8589 -0.2480 -0.0591
  192MOL0     O26359  10.125   3.879   0.513 -0.4449 -0.5112 -0.3792
  192MOL0     C26360  10.025   3.884   0.582 -0.3533  0.3869  0.6499
  192MOL0     O26361  10.020   3.887   0.716  0.1163 -0.1543 -0.7266
  192MOL0     C26362  10.112   3.824   0.796 -0.6787 -0.0794  0.0581
  192MOL0     C26363  10.082   3.700   0.843  0.4844 -0.0904  1.0493
  192MOL0     C26364  10.156   3.639   0.945 -0.3996 -0.4829 -1.1334
  192MOL0     C26365  10.277   3.696   0.998  0.3354 -0.2822 -0.1286
  192MOL0     O26366  10.371   3.647   1.087  0.7292  0.2305  0.0479
  192MOL0     C26367  10.335   3.515   1.135 -0.1101 -0.3418  0.3132
  192MOL0     C26368  10.414   3.456   1.242  0.7217  0.4148 -0.9227
  192MOL0     C26369  10.561   3.498   1.240 -0.4683 -0.4817  0.7310
  192MOL0     C26370  10.629   3.432   1.351 -0.5215 -0.0539 -0.8732
  192MOL0     C26371  10.774   3.429   1.324  0.2361 -0.0414 -0.5351
  192MOL0     C26372  10.845   3.350   1.436 -0.4404 -0.3504  0.5435
  192MOL0     C26373  10.993   3.311   1.401 -0.1710 -0.7767 -0.5023
  192MOL0     C26374  11.093   3.425   1.437  0.4163  0.4302 -0.3197
  192MOL0     N26375  11.230   3.379   1.389  0.4997 -0.2018 -0.1403
  192MOL0     C26376  11.280   3.376   1.264  0.0978  0.2398 -0.0963
  192MOL0     C26377  11.383   3.283   1.263  0.6087 -0.3627 -0.0817
  192MOL0     C26378  11.467   3.251   1.149 -0.0923 -0.6294 -0.0762
  192MOL0     C26379  11.565   3.360   1.118  0.0987 -0.5928  0.6430
  192MOL0     C26380  11.638   3.414   1.241 -0.4925 -0.8910 -0.0051
  192MOL0     C26381  11.713   3.304   1.320 -0.1508  0.5708  0.4420
  192MOL0     O26382  11.832   3.276   1.247  0.0167 -0.4374  0.3736
  192MOL0     C26383  11.956   3.285   1.301 -0.2078 -0.5434 -0.2677
  192MOL0     C26384  12.058   3.368   1.238  0.1296  0.2740 -0.3882
  192MOL0     C26385  12.185   3.378   1.294  1.0711 -0.1426 -0.4962
  192MOL0     C26386  12.291   3.452   1.214  0.1196  0.0102 -0.5955
  192MOL0     C26387  12.220   3.310   1.413 -0.3377  0.3997  0.1973
  192MOL0     C26388  12.353   3.322   1.477 -0.2271 -0.4516 -0.4786
  192MOL0     O26389  12.370   3.245   1.597  0.7650 -0.5619  0.2650
  192MOL0     C26390  12.475   3.279   1.673 -0.4302 -0.3612  0.1981
  192MOL0     C26391  12.598   3.206   1.667 -0.2001 -0.0147 -0.1880
  192MOL0     C26392  12.697   3.227   1.758  0.3709  0.2080  0.7806
  192MOL0     C26393  12.679   3.317   1.862 -0.3469  0.1512  0.0371
  192MOL0     O26394  12.775   3.332   1.962 -0.1622 -0.2811  0.0728
  192MOL0     C26395  12.752   3.387   2.092 -0.0149 -0.1444 -0.3791
  192MOL0     C26396  12.867   3.324   2.168  0.1982 -0.5980  0.2548
  192MOL0     C26397  12.837   3.314   2.315 -0.3664  0.4139 -0.8693
  192MOL0     C26398  12.929   3.219   2.390 -0.1500  0.3692  0.0496
  192MOL0     C26399  12.953   3.261   2.532 -0.2055 -0.7440  0.2518
  192MOL0     C26400  12.824   3.247   2.619  0.1276 -0.3173 -0.6001
  192MOL0     C26401  12.797   3.091   2.639  0.2217  0.5349 -0.9062
  192MOL0     C26402  12.737   3.056   2.783  0.0168  0.8631 -0.6706
  192MOL0    Cl26403  12.868   3.080   2.892  0.5087  0.1157  0.1034
  192MOL0     C26404  12.556   3.397   1.864  0.3257 -0.5329 -0.0639
  192MOL0     C26405  12.456   3.378   1.761  0.6866 -0.3080 -1.0101
  192MOL0     O26406  12.439   3.401   1.430 -0.4562  0.7113 -0.3657
  192MOL0     C26407  12.123   3.225   1.470 -0.1129  1.1310  0.3173
  192MOL0     C26408  11.993   3.212   1.416  0.3931 -0.1175  0.4934
  192MOL0     N26409  11.396   3.241   1.391  0.0505  0.7688 -0.0883
  192MOL0     N26410  11.305   3.295   1.464 -0.0665  0.3082  0.2278
  192MOL0     C26411  10.311   3.818   0.935  0.6536  0.3296  0.0231
  192MOL0     C26412  10.235   3.883   0.840  0.0679 -0.5953  0.3550
  192MOL0     C26413   9.905   3.900   0.497 -0.2962  0.4171  0.3770
  192MOL0     C26414   9.888   3.817   0.386 -0.1763 -0.9085 -0.2509
  192MOL0     C26415   9.768   3.819   0.318 -0.2277  0.1630 -0.2325
  192MOL0     C26416   9.665   3.907   0.349  0.1933  0.8234  0.0440
  192MOL0     O26417   9.548   3.922   0.278  0.1168  0.6153 -0.3321
  192MOL0     C26418   9.550   3.873   0.140  0.8863  0.0448 -0.1151
  192MOL0     C26419   9.428   3.954   0.079  0.7525 -0.1476  0.4587
  192MOL0     C26420   9.476   4.093   0.035 -0.1649 -0.1510 -0.0092
  192MOL0     C26421   9.396   4.137  -0.092 -0.4191 -0.1280  0.2180
  192MOL0     C26422   9.252   4.123  -0.067  0.5609 -0.9593 -1.1775
  192MOL0     C26423   9.129   4.121  -0.053 -0.1968 -0.2997  0.4045
  192MOL0     C26424   9.691   3.985   0.461  0.2085 -0.8544 -0.4100
  192MOL0     C26425   9.803   3.986   0.537  0.4393 -0.3301 -1.3460
  192MOL0     C26426   9.810   4.069   0.664  0.2331 -0.8547 -0.4809
  192MOL0     H26427   9.999   3.643   0.803  0.1307  2.4244 -2.1533
  192MOL0     H26428  10.117   3.541   0.971 -2.8546 -0.2713 -3.6057
  192MOL0     H26429  10.345   3.446   1.051  1.0315  0.5783 -0.3376
  192MOL0     H26430  10.228   3.510   1.155  0.1528  0.0884  1.9523
  192MOL0     H26431  10.364   3.485   1.335  2.5930  2.4316 -0.4524
  192MOL0     H26432  10.412   3.348   1.230 -0.4707  0.0543  1.7501
  192MOL0     H26433  10.606   3.466   1.145 -0.5731 -0.7776  0.7830
  192MOL0     H26434  10.570   3.607   1.253  1.0167 -0.5394  0.4558
  192MOL0     H26435  10.602   3.482   1.445  0.0430  2.2526 -1.8508
  192MOL0     H26436  10.595   3.330   1.370  0.6346  0.1884  3.8674
  192MOL0     H26437  10.817   3.529   1.313  3.6252 -1.5351 -2.8754
  192MOL0     H26438  10.796   3.377   1.230 -0.4960 -1.1909 -0.0827
  192MOL0     H26439  10.841   3.390   1.538  0.6744 -1.3615  1.0087
  192MOL0     H26440  10.791   3.255   1.429 -2.4360  0.7981 -0.7517
  192MOL0     H26441  11.007   3.271   1.300  3.3522  0.4422 -0.6174
  192MOL0     H26442  11.012   3.230   1.472 -2.1160 -0.1081  0.8919
  192MOL0     H26443  11.065   3.516   1.384 -0.6993  0.0192 -0.4649
  192MOL0     H26444  11.076   3.446   1.543  1.3843  1.4145 -0.3386
  192MOL0     H26445  11.249   3.438   1.181  0.2754 -0.6249 -0.8238
  192MOL0     H26446  11.397   3.243   1.066 -2.4510  1.3282  1.5834
  192MOL0     H26447  11.515   3.154   1.162 -0.1073 -0.5998  0.2115
  192MOL0     H26448  11.631   3.332   1.036 -3.2885  1.0205 -2.9281
  192MOL0     H26449  11.511   3.442   1.070  1.3842 -0.4333 -0.5668
  192MOL0     H26450  11.707   3.488   1.200 -2.4819  0.1757 -1.6749
  192MOL0     H26451  11.577   3.465   1.317 -0.5015  0.9675 -1.1850
  192MOL0     H26452  11.750   3.338   1.417 -0.7763  0.1422  0.8360
  192MOL0     H26453  11.653   3.213   1.326 -1.4960  1.3707 -0.2643
  192MOL0     H26454  12.029   3.430   1.154 -0.7167  2.7988  1.6690
  192MOL0     H26455  12.314   3.544   1.267  2.6124  0.9912 -3.1547
  192MOL0     H26456  12.253   3.469   1.112  1.1019 -2.5538 -1.4749
  192MOL0     H26457  12.375   3.383   1.201  0.7200  0.3263  1.4037
  192MOL0     H26458  12.603   3.133   1.587 -0.6028 -0.6348  0.3438
  192MOL0     H26459  12.790   3.170   1.754 -0.5545 -1.3959  1.4621
  192MOL0     H26460  12.763   3.495   2.102  1.9509 -0.1971 -1.4275
  192MOL0     H26461  12.649   3.361   2.120  0.3215 -1.2527 -0.1084
  192MOL0     H26462  12.892   3.224   2.133  1.3700 -0.2915  0.1798
  192MOL0     H26463  12.953   3.390   2.151 -1.3417  1.0570 -1.6626
  192MOL0     H26464  12.734   3.283   2.333  0.3671 -1.5104  0.3386
  192MOL0     H26465  12.834   3.416   2.353 -4.2148  0.2577 -0.3275
  192MOL0     H26466  13.022   3.227   2.334 -2.2122 -0.9010 -3.9453
  192MOL0     H26467  12.897   3.116   2.376 -2.6876  1.2547 -1.5342
  192MOL0     H26468  13.028   3.207   2.591 -0.9229 -0.6308  1.3004
  192MOL0     H26469  12.981   3.366   2.536 -2.5176 -0.0959  2.6228
  192MOL0     H26470  12.733   3.288   2.573  1.3646 -0.3115 -3.2221
  192MOL0     H26471  12.834   3.294   2.717 -1.3062 -0.5624 -0.3122
  192MOL0     H26472  12.890   3.036   2.624  0.2672 -0.3059  1.8790
  192MOL0     H26473  12.725   3.053   2.566  0.3235  1.6287 -1.5958
  192MOL0     H26474  12.700   2.953   2.792 -1.0406  0.8601 -3.8799
  192MOL0     H26475  12.652   3.123   2.797 -0.1674  0.7715 -1.3483
  192MOL0     H26476  12.546   3.463   1.950  1.3619 -0.7012  0.2000
  192MOL0     H26477  12.365   3.437   1.753 -0.3186 -1.8103 -0.9124
  192MOL0     H26478  12.142   3.190   1.570 -0.6345  1.2381  0.4603
  192MOL0     H26479  11.922   3.147   1.467  0.4522  0.7570  1.7434
  192MOL0     H26480  10.410   3.856   0.959  1.5950 -3.2127  2.4922
  192MOL0     H26481  10.270   3.970   0.786 -2.8867 -0.8981 -2.2837
  192MOL0     H26482   9.969   3.755   0.347 -0.0137 -0.0393 -1.3310
  192MOL0     H26483   9.751   3.760   0.229  0.4889  1.3699 -1.2021
  192MOL0     H26484   9.642   3.889   0.082  0.0903  1.3396 -1.0495
  192MOL0     H26485   9.524   3.767   0.140 -0.6821  0.3250  2.8185
  192MOL0     H26486   9.347   3.955   0.152  0.6888 -1.8953  0.4493
  192MOL0     H26487   9.405   3.893  -0.008  3.2639 -0.4329 -0.0835
  192MOL0     H26488   9.460   4.167   0.113  0.8012  1.1973 -1.0505
  192MOL0     H26489   9.579   4.080   0.001 -0.8781 -3.3111 -1.4103
  192MOL0     H26490   9.417   4.078  -0.182  2.0838  0.2702  0.4734
  192MOL0     H26491   9.424   4.234  -0.133  1.1708 -0.5101  0.3486
  192MOL0     H26492   9.023   4.118  -0.040 -0.1217  2.3823  2.3630
  192MOL0     H26493   9.605   4.040   0.498 -0.2715 -2.6409  1.3067
  192MOL0     H26494   9.905   4.119   0.685 -0.9196  1.4315 -0.3948
  192MOL0     H26495   9.745   4.156   0.648  0.5127 -0.3004  1.1394
  192MOL0     H26496   9.777   4.013   0.752 -2.4532  1.1405 -0.0849
  193MOL0     O26497   6.459   4.101  10.517  0.1551  0.3365 -0.1307
  193MOL0     C26498   6.443   4.068  10.397  0.0489  0.3056  0.6941
  193MOL0     O26499   6.540   4.065  10.305 -0.1499 -0.5916 -0.5042
  193MOL0     C26500   6.659   4.120  10.339 -0.1946 -0.1458  0.0545
  193MOL0     C26501   6.771   4.032  10.364  0.0223  0.1991  0.1761
  193MOL0     C26502   6.899   4.074  10.378 -0.1816  0.2810 -0.3936
  193MOL0     C26503   6.930   4.213  10.362  0.3407 -0.0158 -0.4223
  193MOL0     O26504   7.054   4.267  10.384 -0.1985 -0.5430  0.6246
  193MOL0     C26505   7.163   4.176  10.385  0.6431  0.1195 -0.2460
  193MOL0     C26506   7.294   4.253  10.349 -0.1328 -0.8378  0.5401
  193MOL0     C26507   7.344   4.347  10.461  0.1796  0.1251  0.3812
  193MOL0     C26508   7.470   4.421  10.433 -0.2606 -0.0161 -0.9155
  193MOL0     C26509   7.544   4.487  10.550  0.8981 -0.1473  0.3884
  193MOL0     C26510   7.668   4.570  10.513 -0.4203 -0.3214 -0.1359
  193MOL0     C26511   7.778   4.491  10.450 -0.6233  0.1447  0.6757
  193MOL0     C26512   7.829   4.378  10.535  0.4371 -0.3659 -0.4489
  193MOL0     N26513   7.952   4.315  10.492 -0.7835 -0.5698 -0.8928
  193MOL0     C26514   8.073   4.369  10.514 -0.4486  0.1261  0.1861
  193MOL0     C26515   8.153   4.279  10.452  0.5755 -0.6549  0.1606
  193MOL0     C26516   8.298   4.285  10.435 -0.8048 -0.7299 -0.0148
  193MOL0     C26517   8.368   4.209  10.552  0.3580  0.0124 -0.9623
  193MOL0     C26518   8.518   4.195  10.515 -0.2524  0.1604 -0.0558
  193MOL0     C26519   8.589   4.136  10.636  0.3775 -0.1671 -0.3365
  193MOL0     O26520   8.732   4.153  10.619 -0.0717  0.0163 -0.1139
  193MOL0     C26521   8.828   4.101  10.704 -0.6508  0.7301 -0.3225
  193MOL0     C26522   8.807   4.044  10.832 -0.1164 -0.6310  0.8662
  193MOL0     C26523   8.906   3.984  10.910 -0.4666 -0.1320  0.0509
  193MOL0     C26524   8.852   3.926  11.038  0.7119  0.1464 -0.8127
  193MOL0     C26525   9.042   3.990  10.863 -0.2281  0.1468 -0.2706
  193MOL0     C26526   9.154   3.938  10.951 -0.1454  0.3760  0.2398
  193MOL0     O26527   9.284   3.958  10.908 -0.1404 -0.4285  0.0376
  193MOL0     C26528   9.393   3.880  10.955  0.1450  0.5539 -0.5970
  193MOL0     C26529   9.376   3.750  11.009  0.3675  0.5374  0.5105
  193MOL0     C26530   9.491   3.683  11.048 -0.2211 -0.1437  0.0015
  193MOL0     C26531   9.619   3.737  11.041  0.2033  0.2049 -0.5457
  193MOL0     O26532   9.737   3.679  11.088  0.9152  0.0022  0.5582
  193MOL0     C26533   9.742   3.538  11.082  0.2260  0.7589 -0.6296
  193MOL0     C26534   9.869   3.493  11.153 -0.0383  0.3014  0.0648
  193MOL0     C26535   9.900   3.345  11.133 -0.7070 -0.9126  0.4515
  193MOL0     C26536   9.997   3.282  11.231 -0.5686  0.1540 -0.3931
  193MOL0     C26537   9.936   3.267  11.371 -0.0079  0.1812  0.3411
  193MOL0     C26538  10.026   3.181  11.457 -0.2830  0.1148 -0.4171
  193MOL0     C26539   9.997   3.204  11.613  0.4029 -0.7189  0.0922
  193MOL0     C26540  10.129   3.169  11.690 -0.0701 -0.3893 -0.6484
  193MOL0    Cl26541  10.178   3.005  11.669  0.0755 -0.2503 -0.0926
  193MOL0     C26542   9.629   3.864  10.983 -0.0926 -0.0144  0.8396
  193MOL0     C26543   9.521   3.932  10.943  0.0995  0.0890 -0.2389
  193MOL0     O26544   9.127   3.873  11.056  0.0851 -0.0121 -0.0345
  193MOL0     C26545   9.064   4.038  10.729  0.1846 -0.9302 -0.2418
  193MOL0     C26546   8.961   4.089  10.659  1.2714  0.0760 -0.5014
  193MOL0     N26547   8.078   4.175  10.400 -0.2260 -0.9205 -0.2856
  193MOL0     N26548   7.950   4.200  10.422 -0.0148  0.5219  0.0366
  193MOL0     C26549   6.827   4.304  10.338 -0.7621 -0.3788  0.0814
  193MOL0     C26550   6.691   4.254  10.314 -0.6141 -0.2275 -0.4187
  193MOL0     C26551   6.314   4.016  10.344  0.5433 -0.0765 -0.3024
  193MOL0     C26552   6.311   3.945  10.220  0.4644  0.7704 -0.3769
  193MOL0     C26553   6.188   3.889  10.176 -0.3076  0.3768 -0.4033
  193MOL0     C26554   6.072   3.895  10.256  0.1198  0.7867 -0.2886
  193MOL0     O26555   5.963   3.827  10.223  0.5387 -0.6617  0.1266
  193MOL0     C26556   5.931   3.765  10.097  0.4715  0.2964 -0.0489
  193MOL0     C26557   5.881   3.872  10.004 -0.3255 -0.0719  1.2700
  193MOL0     C26558   5.820   3.805   9.877  0.8502  0.4469  0.1578
  193MOL0     C26559   5.819   3.913   9.759 -0.4578 -0.0204 -0.3495
  193MOL0     C26560   5.787   3.847   9.624  0.8893 -0.4661  0.4701
  193MOL0     C26561   5.769   3.795   9.517 -0.7461 -0.5020  0.5152
  193MOL0     C26562   6.077   3.959  10.370 -0.1065  0.0982  0.3255
  193MOL0     C26563   6.187   4.019  10.422  0.1357 -0.1349 -0.1904
  193MOL0     C26564   6.171   4.097  10.553  0.0644 -0.8708 -0.6463
  193MOL0     H26565   6.763   3.924  10.358  3.3136 -0.1188 -0.0367
  193MOL0     H26566   6.973   3.996  10.390  0.0482  0.2685 -1.6804
  193MOL0     H26567   7.158   4.097  10.310  0.7196  0.0051 -0.1292
  193MOL0     H26568   7.162   4.128  10.483 -2.3172  1.5055  0.5249
  193MOL0     H26569   7.381   4.188  10.339  1.4748  1.4455 -1.4867
  193MOL0     H26570   7.271   4.310  10.258  1.8477 -0.6162  0.1277
  193MOL0     H26571   7.273   4.426  10.484 -1.8453 -1.1301 -1.2105
  193MOL0     H26572   7.348   4.282  10.549  0.3501  0.2120  0.4394
  193MOL0     H26573   7.545   4.354  10.390 -0.6466 -0.3429 -1.0901
  193MOL0     H26574   7.444   4.501  10.363 -1.0510  0.6402  0.0965
  193MOL0     H26575   7.569   4.411  10.624 -1.3120 -0.7999  0.5389
  193MOL0     H26576   7.462   4.540  10.601 -0.4505 -0.3379 -1.4596
  193MOL0     H26577   7.633   4.650  10.447  0.7343  2.0556  1.9551
  193MOL0     H26578   7.711   4.621  10.600  0.6186 -1.3319 -0.0367
  193MOL0     H26579   7.866   4.553  10.428 -1.0896  0.8996  0.8998
  193MOL0     H26580   7.743   4.447  10.356 -0.6946 -1.1324  1.2774
  193MOL0     H26581   7.845   4.409  10.639  0.9245 -2.2551  0.0968
  193MOL0     H26582   7.751   4.301  10.537 -1.3166  1.0774  4.9323
  193MOL0     H26583   8.112   4.457  10.564  1.1690  0.7426 -1.9990
  193MOL0     H26584   8.328   4.391  10.436  0.2241 -1.0177  0.2905
  193MOL0     H26585   8.317   4.237  10.339  0.4311 -0.3562  0.0239
  193MOL0     H26586   8.354   4.252  10.652  2.0955 -2.4294  0.4608
  193MOL0     H26587   8.338   4.106  10.576  3.7263 -0.4927  2.0975
  193MOL0     H26588   8.521   4.133  10.425 -2.9070 -0.4717  0.2148
  193MOL0     H26589   8.559   4.294  10.491 -0.6542  1.0833  2.6809
  193MOL0     H26590   8.556   4.185  10.728 -1.8917  1.2791 -1.8323
  193MOL0     H26591   8.553   4.034  10.652  0.6873 -0.1928  0.2289
  193MOL0     H26592   8.706   4.057  10.867 -1.0238  0.1090 -1.8110
  193MOL0     H26593   8.745   3.947  11.044  1.0060  1.8969 -0.9502
  193MOL0     H26594   8.895   3.979  11.124 -1.7270  0.2891  0.3961
  193MOL0     H26595   8.860   3.817  11.039  0.7941  0.1597  0.1003
  193MOL0     H26596   9.281   3.699  11.023  1.6903 -2.6361 -1.0400
  193MOL0     H26597   9.482   3.587  11.100  0.9919 -0.8488 -1.0345
  193MOL0     H26598   9.657   3.481  11.123  2.2328 -2.1828 -0.2020
  193MOL0     H26599   9.754   3.511  10.977 -1.3121 -0.7471 -0.4580
  193MOL0     H26600   9.958   3.552  11.130 -0.2797  0.3102 -0.8748
  193MOL0     H26601   9.855   3.520  11.258 -1.9816  1.0725 -0.3451
  193MOL0     H26602   9.944   3.330  11.033 -0.4062  2.4505 -0.0256
  193MOL0     H26603   9.806   3.289  11.139 -0.9082 -0.4475  1.7811
  193MOL0     H26604  10.091   3.336  11.227 -1.0875  1.0927 -0.1393
  193MOL0     H26605  10.007   3.179  11.195  5.0000  0.9309 -2.0023
  193MOL0     H26606   9.929   3.368  11.413  1.5190 -0.2485  1.7212
  193MOL0     H26607   9.833   3.232  11.360  0.5382 -1.5508  0.5054
  193MOL0     H26608  10.131   3.186  11.429 -0.2345  0.2033 -0.2245
  193MOL0     H26609   9.984   3.085  11.426 -1.5493  0.5989 -0.2639
  193MOL0     H26610   9.904   3.158  11.649  0.1620  0.0585  0.5037
  193MOL0     H26611   9.979   3.310  11.634  0.9874 -0.2456 -1.6599
  193MOL0     H26612  10.111   3.186  11.796 -1.8769 -1.7146 -0.6941
  193MOL0     H26613  10.216   3.227  11.658 -1.2979  3.4554  2.3029
  193MOL0     H26614   9.723   3.918  10.985 -0.6591  1.0897  3.8815
  193MOL0     H26615   9.510   4.031  10.900 -2.2507 -0.3039 -0.6932
  193MOL0     H26616   9.162   4.029  10.681 -0.1079  0.1674 -1.0903
  193MOL0     H26617   8.969   4.120  10.555 -0.3422  0.7124 -0.4657
  193MOL0     H26618   6.851   4.410  10.331 -2.1434 -0.1038 -5.4916
  193MOL0     H26619   6.606   4.319  10.298 -0.9428  0.0447  1.9604
  193MOL0     H26620   6.406   3.929  10.171 -0.3484 -2.9869 -1.0705
  193MOL0     H26621   6.195   3.835  10.082 -2.3918 -0.9112  0.1025
  193MOL0     H26622   6.017   3.708  10.061 -1.5687 -1.9828 -1.6428
  193MOL0     H26623   5.860   3.683  10.114  1.7089 -1.0411 -1.0315
  193MOL0     H26624   5.962   3.942   9.980  0.8384 -1.3180  1.4223
  193MOL0     H26625   5.797   3.920  10.055 -1.3786 -1.3201  0.7370
  193MOL0     H26626   5.887   3.726   9.844  1.3254  0.5672  0.8107
  193MOL0     H26627   5.718   3.765   9.887  0.6598  0.8215 -0.2535
  193MOL0     H26628   5.915   3.965   9.751 -0.7759  0.6680  0.1519
  193MOL0     H26629   5.745   3.992   9.776  1.0832  1.2980  0.5645
  193MOL0     H26630   5.735   3.763   9.421  2.0183  0.5200 -0.9209
  193MOL0     H26631   5.988   3.954  10.432 -0.8976 -3.2374 -0.8504
  193MOL0     H26632   6.232   4.188  10.545 -0.6892 -0.0547  2.0439
  193MOL0     H26633   6.065   4.117  10.567  0.1620 -1.1750  0.5649
  193MOL0     H26634   6.214   4.036  10.632  2.8404  1.0014 -0.5455
  194MOL0     O26635   5.503  10.182   4.059  0.1704 -0.2630  0.0449
  194MOL0     C26636   5.478  10.096   4.143  0.2377  0.8423  0.0167
  194MOL0     O26637   5.552   9.980   4.159  0.3359  0.2732  0.4018
  194MOL0     C26638   5.654   9.959   4.060 -0.5163 -0.0182 -0.1406
  194MOL0     C26639   5.640   9.890   3.935  0.4931  0.2960  0.5580
  194MOL0     C26640   5.754   9.864   3.850  1.4043  0.4495  0.2844
  194MOL0     C26641   5.881   9.892   3.896 -0.3772 -0.6197 -0.7496
  194MOL0     O26642   5.998   9.862   3.831 -0.5629  0.0877 -0.1152
  194MOL0     C26643   6.022   9.867   3.693  0.4849  0.1169 -0.5484
  194MOL0     C26644   6.163   9.882   3.648  0.1086 -0.0056 -0.5172
  194MOL0     C26645   6.235   9.747   3.680  0.0055  0.8609 -0.4679
  194MOL0     C26646   6.357   9.739   3.598  0.0573 -0.4339  0.1578
  194MOL0     C26647   6.427   9.606   3.621 -1.1061  0.9612 -0.4894
  194MOL0     C26648   6.560   9.598   3.536  0.3018  0.4390  0.1663
  194MOL0     C26649   6.655   9.707   3.586  0.3761  0.0449  0.8421
  194MOL0     C26650   6.793   9.689   3.521 -0.7084  1.2679 -1.3747
  194MOL0     N26651   6.902   9.751   3.597  0.7257  0.4676  0.3240
  194MOL0     C26652   6.926   9.884   3.605  0.9041  0.7058 -0.3442
  194MOL0     C26653   7.025   9.898   3.690 -0.0711  0.0399  0.5003
  194MOL0     C26654   7.101  10.016   3.746 -0.2628  0.1556  0.2682
  194MOL0     C26655   7.079  10.142   3.662 -0.5070  0.7063  0.0098
  194MOL0     C26656   7.173  10.259   3.694  0.2827 -0.3642  0.4533
  194MOL0     C26657   7.152  10.327   3.830 -0.3065  0.9690 -0.0108
  194MOL0     O26658   7.205  10.255   3.946  0.5304 -0.2236 -0.4004
  194MOL0     C26659   7.342  10.248   3.959 -0.2779  0.0876  0.3189
  194MOL0     C26660   7.383  10.149   4.055  0.1684 -0.0241  0.5539
  194MOL0     C26661   7.520  10.128   4.086 -0.4051  0.0447  0.0615
  194MOL0     C26662   7.557  10.022   4.188 -0.1407  0.1606  0.0828
  194MOL0     C26663   7.617  10.229   4.035  0.4831  0.7055  0.0875
  194MOL0     C26664   7.758  10.217   4.053 -0.2563  0.3169 -1.0360
  194MOL0     O26665   7.816  10.097   4.032 -0.2884 -0.4939 -0.0747
  194MOL0     C26666   7.947  10.079   4.068  0.7484 -0.4725  0.1709
  194MOL0     C26667   8.047  10.079   3.965  0.2503 -0.0844  0.1675
  194MOL0     C26668   8.176  10.048   4.005  0.1592 -0.3596  0.6991
  194MOL0     C26669   8.217  10.037   4.143 -0.2042  0.1034 -0.1891
  194MOL0     O26670   8.347  10.007   4.165  0.1845 -0.0367  0.1004
  194MOL0     C26671   8.381   9.953   4.288 -0.6301  0.3882  0.9413
  194MOL0     C26672   8.534   9.917   4.301  1.0152  0.6731  0.0837
  194MOL0     C26673   8.608   9.936   4.168  0.0979 -0.2023  0.0841
  194MOL0     C26674   8.751   9.908   4.191 -0.6093 -0.6282  0.3980
  194MOL0     C26675   8.835   9.905   4.062  0.4743  0.3288 -0.2847
  194MOL0     C26676   8.987   9.880   4.093 -0.6494  0.8561 -0.4342
  194MOL0     C26677   9.076   9.850   3.966 -0.2296  0.8208 -0.1844
  194MOL0     C26678   9.101   9.971   3.887 -0.5746 -0.0907 -0.1096
  194MOL0    Cl26679   9.232  10.075   3.945 -0.1909 -0.0867 -0.3074
  194MOL0     C26680   8.117  10.039   4.242 -0.8991 -0.6986  0.1997
  194MOL0     C26681   7.981  10.053   4.199 -0.2716 -0.3672 -0.5750
  194MOL0     O26682   7.813  10.322   4.087 -1.0083  0.3434  0.2491
  194MOL0     C26683   7.571  10.326   3.947  0.7213 -0.3916 -0.5791
  194MOL0     C26684   7.439  10.322   3.892 -0.1791 -0.7911 -0.5551
  194MOL0     N26685   7.059   9.774   3.739  0.0910 -0.6540  0.0571
  194MOL0     N26686   6.988   9.684   3.675  1.1382 -0.1084 -0.2817
  194MOL0     C26687   5.892   9.957   4.022  0.0896 -0.1418 -0.4171
  194MOL0     C26688   5.780   9.986   4.100 -0.5391 -0.2274 -0.1490
  194MOL0     C26689   5.356  10.111   4.229  0.0672  0.5495 -0.7370
  194MOL0     C26690   5.289  10.237   4.237 -0.0587 -0.5122  0.0929
  194MOL0     C26691   5.170  10.259   4.302  0.1447 -0.2680  0.3606
  194MOL0     C26692   5.109  10.153   4.363 -0.4877  0.5913 -0.1197
  194MOL0     O26693   4.995  10.166   4.425  0.0441 -0.4215 -0.3545
  194MOL0     C26694   4.870  10.188   4.355 -1.0542 -0.7237  1.0675
  194MOL0     C26695   4.791  10.063   4.350 -0.2138 -0.6054  0.4309
  194MOL0     C26696   4.733  10.001   4.488 -0.3322 -0.4058 -0.1794
  194MOL0     C26697   4.801  10.036   4.615 -0.3553  0.4179 -0.0370
  194MOL0     C26698   4.733   9.961   4.722  1.0196  0.2710  0.0515
  194MOL0     C26699   4.684   9.887   4.810 -0.3644 -0.3954 -0.1322
  194MOL0     C26700   5.168  10.030   4.362 -0.7579  0.6425  0.5022
  194MOL0     C26701   5.296  10.008   4.301  0.4774  0.6254  1.1210
  194MOL0     C26702   5.345   9.863   4.320  0.2268 -0.2460  0.4811
  194MOL0     H26703   5.541   9.863   3.901  1.1457 -0.7431 -0.5885
  194MOL0     H26704   5.729   9.821   3.754 -1.7197  1.2820  0.6306
  194MOL0     H26705   5.964   9.951   3.653 -0.3467  1.1641  2.5907
  194MOL0     H26706   5.981   9.775   3.649  0.0802  0.0440 -0.0313
  194MOL0     H26707   6.155   9.906   3.541 -2.5553 -0.3502 -0.4614
  194MOL0     H26708   6.210   9.962   3.705  0.6470 -0.4147 -0.3797
  194MOL0     H26709   6.258   9.730   3.786 -0.7248 -1.7811 -0.6580
  194MOL0     H26710   6.164   9.669   3.650 -2.2360  1.1311  3.4280
  194MOL0     H26711   6.323   9.753   3.495 -0.6829 -0.2511  0.4179
  194MOL0     H26712   6.423   9.824   3.612 -1.6862  0.7194  1.8615
  194MOL0     H26713   6.355   9.528   3.597 -0.9363  0.9520 -0.9860
  194MOL0     H26714   6.452   9.591   3.727 -3.3780  1.1865  0.1153
  194MOL0     H26715   6.596   9.495   3.538  2.1375  1.0395  2.3169
  194MOL0     H26716   6.526   9.608   3.433  0.6640  0.1040  0.0122
  194MOL0     H26717   6.670   9.710   3.695  3.2577  3.4386  0.5757
  194MOL0     H26718   6.623   9.809   3.562  0.2757  0.4135  2.3894
  194MOL0     H26719   6.818   9.583   3.511 -1.6755  1.1593 -3.1034
  194MOL0     H26720   6.788   9.729   3.419  0.1771  2.6530 -0.9028
  194MOL0     H26721   6.865   9.956   3.552  0.3763  0.7086  0.2576
  194MOL0     H26722   7.207   9.997   3.763 -0.4062 -0.5916  0.3477
  194MOL0     H26723   7.063  10.028   3.848 -3.4083  1.4573 -0.9263
  194MOL0     H26724   7.091  10.118   3.556 -0.4398  1.2820 -0.1124
  194MOL0     H26725   6.976  10.172   3.684 -0.4848  3.5856 -3.1353
  194MOL0     H26726   7.278  10.229   3.686  0.3325 -0.1182  0.1346
  194MOL0     H26727   7.154  10.333   3.615  1.3146 -0.0829  0.4493
  194MOL0     H26728   7.182  10.432   3.820 -2.0477  1.7227  1.8041
  194MOL0     H26729   7.044  10.339   3.849 -0.2480 -0.8577  1.8285
  194MOL0     H26730   7.312  10.076   4.091  1.5779 -1.2294  0.9940
  194MOL0     H26731   7.475   9.992   4.253  0.1548  1.3133  1.0374
  194MOL0     H26732   7.634  10.065   4.253 -0.6807  2.8504 -0.9151
  194MOL0     H26733   7.592   9.935   4.132  1.0746  1.8747 -1.9940
  194MOL0     H26734   8.007  10.088   3.864  1.2981  1.7280 -0.1318
  194MOL0     H26735   8.253  10.055   3.929 -0.2885  0.3418  0.2946
  194MOL0     H26736   8.375  10.022   4.374 -0.6022 -0.2206  1.4406
  194MOL0     H26737   8.318   9.865   4.303 -0.0872 -0.1865 -0.0801
  194MOL0     H26738   8.574   9.977   4.383 -0.3894 -0.4900  1.6784
  194MOL0     H26739   8.536   9.813   4.333  2.2039  0.6899  0.1132
  194MOL0     H26740   8.598  10.043   4.151 -1.9827 -0.2513  0.7088
  194MOL0     H26741   8.562   9.874   4.090 -1.9792  1.8289 -0.3860
  194MOL0     H26742   8.754   9.810   4.241 -0.6925  0.0551  1.7981
  194MOL0     H26743   8.784   9.989   4.257 -0.1352 -0.6477  0.1935
  194MOL0     H26744   8.791   9.819   4.011 -2.0105  0.3593  1.5977
  194MOL0     H26745   8.824  10.003   4.013 -0.2603  0.8311  0.8308
  194MOL0     H26746   8.994   9.788   4.151  0.0355  0.1371 -1.6031
  194MOL0     H26747   9.027   9.963   4.152  1.8740 -0.0285 -0.7832
  194MOL0     H26748   9.036   9.779   3.894  1.2315 -0.5186  0.2630
  194MOL0     H26749   9.169   9.799   3.994 -1.2959 -0.7488  0.6979
  194MOL0     H26750   9.001  10.012   3.869 -0.5613  0.0129  0.0526
  194MOL0     H26751   9.137   9.937   3.789 -1.4940  0.4553 -0.6462
  194MOL0     H26752   8.146  10.030   4.346  1.5381  1.1647 -0.2445
  194MOL0     H26753   7.899  10.068   4.269 -1.2631 -1.1114 -1.5373
  194MOL0     H26754   7.637  10.404   3.910  1.0960 -0.2792  0.2997
  194MOL0     H26755   7.410  10.394   3.816  2.1037  0.2017 -0.5651
  194MOL0     H26756   5.986   9.984   4.067 -0.3934  0.7397  0.1050
  194MOL0     H26757   5.804  10.032   4.196  1.2946 -0.0783 -0.6413
  194MOL0     H26758   5.339  10.327   4.203  0.7949 -0.6063  1.0463
  194MOL0     H26759   5.137  10.362   4.313 -0.9727 -0.4774 -0.7934
  194MOL0     H26760   4.823  10.271   4.409  0.4713 -1.0026  2.9422
  194MOL0     H26761   4.889  10.220   4.252 -0.3079  0.0887  1.4451
  194MOL0     H26762   4.854   9.988   4.300  0.3156 -0.6247  1.1073
  194MOL0     H26763   4.701  10.081   4.291 -0.6004 -0.0323  1.1904
  194MOL0     H26764   4.626  10.018   4.495 -0.2308 -0.2483  1.1924
  194MOL0     H26765   4.746   9.894   4.471  1.6685 -0.4877  1.4657
  194MOL0     H26766   4.806  10.145   4.630  2.0670  0.2925  0.5578
  194MOL0     H26767   4.906  10.006   4.615 -0.3196  0.5289 -0.4356
  194MOL0     H26768   4.648   9.843   4.901  1.1115  1.0460  1.2144
  194MOL0     H26769   5.127   9.940   4.405 -1.4754 -0.4138 -2.1832
  194MOL0     H26770   5.439   9.869   4.377  0.3929  2.7661  0.0277
  194MOL0     H26771   5.272   9.814   4.385 -1.9671  1.5160 -0.5394
  194MOL0     H26772   5.351   9.821   4.220 -2.2213 -0.8085  0.5253
  195MOL0     O26773   5.915   7.413   6.857 -0.0388  1.1163 -0.4681
  195MOL0     C26774   5.920   7.300   6.808 -0.7174  0.1529  1.3752
  195MOL0     O26775   6.033   7.245   6.776 -0.1901  0.4969  0.0529
  195MOL0     C26776   6.151   7.314   6.801  0.1674  0.0249  1.5463
  195MOL0     C26777   6.195   7.323   6.930 -0.2253  0.2153 -0.1390
  195MOL0     C26778   6.311   7.394   6.962 -0.2130 -0.0736  0.1358
  195MOL0     C26779   6.386   7.456   6.859  0.1037 -1.2449 -0.4001
  195MOL0     O26780   6.508   7.524   6.884 -0.2726  0.3450  0.8814
  195MOL0     C26781   6.594   7.473   6.987  0.6927  0.2825 -0.6493
  195MOL0     C26782   6.740   7.495   6.963 -0.4772 -0.4527 -0.1499
  195MOL0     C26783   6.781   7.400   6.848 -0.4274 -0.5123 -0.3119
  195MOL0     C26784   6.936   7.415   6.824 -0.8100  0.0323  0.5211
  195MOL0     C26785   6.989   7.322   6.707 -0.0920 -0.8822 -0.3871
  195MOL0     C26786   6.961   7.399   6.571 -0.3350 -0.7260  0.0169
  195MOL0     C26787   7.004   7.330   6.440 -0.8645 -0.6726  0.0539
  195MOL0     C26788   6.894   7.248   6.383 -0.3013  0.2522  0.2364
  195MOL0     N26789   6.938   7.192   6.257 -0.1599 -0.5339 -0.7501
  195MOL0     C26790   6.959   7.058   6.241 -0.1865  0.1767  0.7014
  195MOL0     C26791   6.955   7.043   6.106  0.0111 -0.4766 -0.5956
  195MOL0     C26792   6.963   6.918   6.025 -1.3765  0.3547 -1.1809
  195MOL0     C26793   6.857   6.911   5.918 -0.0784 -0.2024  0.2516
  195MOL0     C26794   6.863   6.774   5.842  0.4890 -0.5511 -0.3950
  195MOL0     C26795   6.793   6.663   5.915 -0.3396 -0.0137 -0.3503
  195MOL0     O26796   6.760   6.557   5.823  0.0690 -0.0588 -0.1051
  195MOL0     C26797   6.685   6.452   5.868  0.4829  0.0651 -0.6089
  195MOL0     C26798   6.643   6.420   5.997  1.3505  1.1911 -1.0415
  195MOL0     C26799   6.562   6.297   6.020 -0.0148 -1.1292 -0.1187
  195MOL0     C26800   6.521   6.274   6.164 -0.7307  0.2481 -0.1433
  195MOL0     C26801   6.531   6.208   5.913 -0.6483  0.6533 -0.0024
  195MOL0     C26802   6.454   6.076   5.923  0.3215  0.0978 -0.7602
  195MOL0     O26803   6.401   6.038   6.039 -0.2669 -0.3502 -0.4999
  195MOL0     C26804   6.339   5.918   6.038 -0.4740 -0.3771 -0.7511
  195MOL0     C26805   6.211   5.902   5.975  0.6680 -0.1155 -0.1908
  195MOL0     C26806   6.153   5.777   5.968  0.0023  0.6468  0.7355
  195MOL0     C26807   6.222   5.664   6.024  0.6467  0.1340 -0.6690
  195MOL0     O26808   6.179   5.535   6.022  0.2559  0.0397 -0.5665
  195MOL0     C26809   6.143   5.505   5.889  0.3027 -0.3287 -0.3026
  195MOL0     C26810   6.134   5.350   5.880  0.0237 -0.4330 -0.7897
  195MOL0     C26811   6.264   5.285   5.922  0.1967  0.8162  0.1670
  195MOL0     C26812   6.247   5.123   5.898  0.4366 -0.6941 -1.0737
  195MOL0     C26813   6.365   5.043   5.959 -0.0957 -0.2458 -0.2717
  195MOL0     C26814   6.496   5.056   5.892  0.5809  0.1962 -0.4128
  195MOL0     C26815   6.602   4.967   5.964 -0.4403 -0.1461  0.5617
  195MOL0     C26816   6.734   4.959   5.897 -0.2145 -0.5085  0.0953
  195MOL0    Cl26817   6.838   4.832   5.957  0.4267  0.0298 -0.1877
  195MOL0     C26818   6.348   5.681   6.079  0.2013 -0.1170 -0.2987
  195MOL0     C26819   6.404   5.808   6.091 -1.0659 -0.4876  0.3188
  195MOL0     O26820   6.449   6.001   5.824 -0.1702 -0.2635 -0.5837
  195MOL0     C26821   6.587   6.243   5.793  0.7862 -1.0483  0.2989
  195MOL0     C26822   6.649   6.366   5.767 -0.2558  0.3122  0.0790
  195MOL0     N26823   6.936   7.165   6.047 -0.1852 -0.6495 -0.0610
  195MOL0     N26824   6.930   7.258   6.139  0.1985 -0.2705 -1.0477
  195MOL0     C26825   6.342   7.446   6.722  0.5665  0.2241 -0.0442
  195MOL0     C26826   6.222   7.372   6.696 -0.4223 -0.2070 -0.3146
  195MOL0     C26827   5.789   7.224   6.785 -0.0506 -0.1445 -0.2281
  195MOL0     C26828   5.789   7.087   6.790  0.0663 -0.0765  0.0055
  195MOL0     C26829   5.674   7.004   6.777  1.2496 -0.1779  0.1483
  195MOL0     C26830   5.550   7.064   6.764 -0.3776 -1.2029 -0.2091
  195MOL0     O26831   5.439   6.985   6.751  0.2099 -0.6057 -0.6920
  195MOL0     C26832   5.308   7.048   6.732  0.6828 -0.1704  0.0111
  195MOL0     C26833   5.202   6.941   6.748 -0.2630 -0.9846  0.9808
  195MOL0     C26834   5.153   6.888   6.612 -0.5310 -0.5737  0.1255
  195MOL0     C26835   5.054   6.979   6.540 -0.1477 -0.2578 -0.5041
  195MOL0     C26836   4.920   6.960   6.606 -0.6666 -0.0591 -0.2790
  195MOL0     C26837   4.813   6.945   6.657 -0.0541  1.1769 -0.9017
  195MOL0     C26838   5.544   7.204   6.764 -0.0639  0.6429  0.0404
  195MOL0     C26839   5.659   7.288   6.774 -0.5597 -0.3381  0.3454
  195MOL0     C26840   5.643   7.440   6.763  0.0998  0.4763  0.1624
  195MOL0     H26841   6.135   7.280   7.010  1.2157 -0.2463  0.7416
  195MOL0     H26842   6.333   7.409   7.067 -1.7392  1.5585  0.2585
  195MOL0     H26843   6.576   7.365   6.984  0.5979  0.3285 -2.7594
  195MOL0     H26844   6.554   7.517   7.079 -2.0547 -1.0206 -1.1077
  195MOL0     H26845   6.760   7.599   6.935  4.1134 -1.1200 -0.2107
  195MOL0     H26846   6.811   7.473   7.043  2.5446  0.8127 -2.2838
  195MOL0     H26847   6.756   7.297   6.875 -2.4007 -0.2063 -0.8448
  195MOL0     H26848   6.727   7.422   6.756 -2.3619 -2.5135  0.2422
  195MOL0     H26849   6.973   7.518   6.818  1.7569 -0.6296  2.8622
  195MOL0     H26850   6.983   7.372   6.913 -1.3052  4.4343  3.1963
  195MOL0     H26851   6.949   7.220   6.712  1.9006 -1.6856  0.8216
  195MOL0     H26852   7.094   7.299   6.729 -0.5818 -1.9725  1.0162
  195MOL0     H26853   6.853   7.415   6.562 -0.2947 -1.4434 -2.4391
  195MOL0     H26854   7.017   7.492   6.577  1.2648 -1.6463  0.0152
  195MOL0     H26855   7.097   7.278   6.463  0.0012  0.6822 -0.2981
  195MOL0     H26856   7.023   7.416   6.376  0.0269 -0.9049 -0.0102
  195MOL0     H26857   6.850   7.174   6.450 -0.5457  0.6761  0.5455
  195MOL0     H26858   6.818   7.317   6.347 -0.5333 -0.2718 -0.2985
  195MOL0     H26859   6.952   6.979   6.314 -0.9446 -1.3693 -0.9622
  195MOL0     H26860   6.943   6.837   6.096  0.5918 -0.4959 -1.5382
  195MOL0     H26861   7.066   6.898   5.993 -1.4063 -2.3008  0.0853
  195MOL0     H26862   6.757   6.927   5.961 -0.1802 -2.0697  0.7759
  195MOL0     H26863   6.871   6.986   5.840  1.5545 -2.5684 -1.8758
  195MOL0     H26864   6.806   6.788   5.749  0.0973 -1.7559 -0.3549
  195MOL0     H26865   6.970   6.758   5.826  2.2035  4.4882  3.2605
  195MOL0     H26866   6.857   6.629   5.998 -2.0588  1.6979  1.8075
  195MOL0     H26867   6.700   6.704   5.955  1.8204  4.1839  1.0091
  195MOL0     H26868   6.689   6.479   6.076  0.4469  2.2914 -1.3066
  195MOL0     H26869   6.542   6.369   6.215  0.2347  0.0008 -0.0509
  195MOL0     H26870   6.578   6.190   6.204  0.8913  0.2579 -2.2482
  195MOL0     H26871   6.414   6.255   6.167 -0.4260 -2.1344 -1.8596
  195MOL0     H26872   6.153   5.987   5.940  0.3460 -1.1002 -2.1934
  195MOL0     H26873   6.056   5.757   5.925  1.1589 -1.0283 -1.2803
  195MOL0     H26874   6.041   5.542   5.875 -0.7950 -3.1003 -0.2421
  195MOL0     H26875   6.208   5.545   5.810  0.2047 -2.5269 -1.5799
  195MOL0     H26876   6.051   5.301   5.933  0.1186  1.4998  1.3330
  195MOL0     H26877   6.110   5.319   5.778 -1.6554 -0.8992 -0.2801
  195MOL0     H26878   6.286   5.305   6.028  1.4067 -1.3953  0.4030
  195MOL0     H26879   6.348   5.326   5.864  0.2543  2.0278  1.0561
  195MOL0     H26880   6.232   5.101   5.792  1.7714 -1.3411 -1.1494
  195MOL0     H26881   6.156   5.095   5.952  1.2565  1.4250  1.6064
  195MOL0     H26882   6.364   5.082   6.062 -0.9422  1.4791 -0.8869
  195MOL0     H26883   6.339   4.937   5.972 -0.4987 -0.0534  0.6079
  195MOL0     H26884   6.534   5.159   5.886  0.1252  0.3000 -4.2799
  195MOL0     H26885   6.488   5.022   5.789  0.8160  0.0330 -0.3767
  195MOL0     H26886   6.570   4.863   5.948 -0.2218 -0.2203  0.6065
  195MOL0     H26887   6.615   4.983   6.071 -0.7188  0.9239  0.4461
  195MOL0     H26888   6.781   5.055   5.917 -3.2895  0.5299  3.2969
  195MOL0     H26889   6.719   4.940   5.790 -0.3012 -1.1850  0.2225
  195MOL0     H26890   6.404   5.601   6.126  4.4901  0.0013 -4.3967
  195MOL0     H26891   6.499   5.806   6.144 -0.8744 -2.6226 -0.0076
  195MOL0     H26892   6.565   6.182   5.705 -3.6491 -0.5386  0.7988
  195MOL0     H26893   6.676   6.387   5.664  0.0153 -1.4242 -0.2348
  195MOL0     H26894   6.387   7.501   6.639 -3.2321  2.7875 -0.6831
  195MOL0     H26895   6.188   7.365   6.594 -2.8091 -1.3727  0.4815
  195MOL0     H26896   5.885   7.041   6.812 -0.1333  0.5820  2.5021
  195MOL0     H26897   5.667   6.897   6.789 -0.1539 -0.4373 -2.2410
  195MOL0     H26898   5.288   7.122   6.811 -1.1895 -0.6789  0.0458
  195MOL0     H26899   5.305   7.096   6.634 -2.1078 -1.6958 -0.7310
  195MOL0     H26900   5.123   6.985   6.810  1.3185  2.9108  0.5482
  195MOL0     H26901   5.241   6.868   6.819  1.1439  0.7914  2.1408
  195MOL0     H26902   5.241   6.865   6.551 -0.4197  1.7849 -0.7159
  195MOL0     H26903   5.097   6.796   6.631 -0.5579 -0.9767 -1.6749
  195MOL0     H26904   5.054   6.947   6.436 -0.7908  1.8000 -1.1850
  195MOL0     H26905   5.095   7.080   6.533  0.9847 -0.6890 -0.3212
  195MOL0     H26906   4.717   6.940   6.704  0.8892 -0.4767  0.9982
  195MOL0     H26907   5.447   7.251   6.752 -0.4107 -0.3022 -0.9628
  195MOL0     H26908   5.640   7.485   6.862 -1.3449 -0.1689  0.4254
  195MOL0     H26909   5.723   7.486   6.703  0.9427  0.9319  1.5972
  195MOL0     H26910   5.556   7.467   6.702 -0.8818 -0.4616  1.1034
  196MOL0     O26911   3.634   4.972   7.451  0.2962  0.0195  0.4228
  196MOL0     C26912   3.596   5.084   7.417  0.7944 -0.6459  0.4555
  196MOL0     O26913   3.662   5.198   7.433 -0.0089 -0.0641 -0.3471
  196MOL0     C26914   3.792   5.193   7.473  0.0367 -0.2133 -0.4616
  196MOL0     C26915   3.889   5.186   7.371 -0.2443 -0.3854  0.6275
  196MOL0     C26916   4.023   5.193   7.410  0.4406 -0.6455 -0.0350
  196MOL0     C26917   4.063   5.184   7.548 -0.7288 -1.1309 -1.0332
  196MOL0     O26918   4.193   5.161   7.588  0.6296  0.2416 -0.6122
  196MOL0     C26919   4.291   5.096   7.508 -0.8923  0.6178 -0.5401
  196MOL0     C26920   4.431   5.125   7.571  0.0594  0.5626 -0.5926
  196MOL0     C26921   4.440   5.067   7.710 -0.3119 -0.0135  0.7499
  196MOL0     C26922   4.459   4.912   7.711 -0.6024  0.0549 -0.1105
  196MOL0     C26923   4.461   4.860   7.852  0.1870  0.5367  0.1849
  196MOL0     C26924   4.512   4.711   7.856  0.2923 -0.0228 -0.3545
  196MOL0     C26925   4.556   4.672   8.000  0.6188 -0.0836  0.4244
  196MOL0     C26926   4.552   4.524   8.014 -0.9627  0.5709  0.7546
  196MOL0     N26927   4.628   4.444   7.920 -0.1816  0.1631 -0.0723
  196MOL0     C26928   4.644   4.309   7.942 -0.0059  0.0322  0.3413
  196MOL0     C26929   4.753   4.277   7.871 -0.1300  1.1066 -0.4189
  196MOL0     C26930   4.819   4.139   7.883 -0.0029  0.5250  0.0537
  196MOL0     C26931   4.840   4.075   7.744 -0.5013  0.3280 -0.7288
  196MOL0     C26932   4.931   3.952   7.757  0.7183  0.9037  0.6760
  196MOL0     C26933   5.068   3.999   7.726 -0.2471  0.6164 -0.0381
  196MOL0     O26934   5.132   4.075   7.823 -0.1219  0.4162 -0.5431
  196MOL0     C26935   5.236   4.154   7.792  0.1043 -0.1571 -0.3034
  196MOL0     C26936   5.342   4.102   7.724 -0.7409  0.2835  0.5631
  196MOL0     C26937   5.454   4.179   7.682  0.3900 -0.2737  0.4011
  196MOL0     C26938   5.572   4.116   7.608  0.5751 -0.4591 -0.2095
  196MOL0     C26939   5.458   4.315   7.723 -0.0159  0.1240  0.5936
  196MOL0     C26940   5.578   4.391   7.722  1.0255  0.1363  0.2785
  196MOL0     O26941   5.695   4.330   7.747  0.1927 -0.8144 -0.5052
  196MOL0     C26942   5.807   4.401   7.733  1.0135 -0.0521 -0.0665
  196MOL0     C26943   5.874   4.402   7.607 -0.4369 -0.3710  0.0820
  196MOL0     C26944   6.003   4.449   7.601  0.4142 -0.6156 -0.1496
  196MOL0     C26945   6.063   4.504   7.718 -0.0048 -0.2107 -0.0575
  196MOL0     O26946   6.188   4.553   7.709  0.6982 -0.2590 -0.0718
  196MOL0     C26947   6.281   4.476   7.785 -0.1641  0.7925 -0.6172
  196MOL0     C26948   6.419   4.519   7.772  0.1390 -0.5099  0.4609
  196MOL0     C26949   6.526   4.434   7.842  0.0451  0.6008  0.0617
  196MOL0     C26950   6.589   4.320   7.765 -0.2381 -0.3895  0.6887
  196MOL0     C26951   6.670   4.220   7.846  0.2284  0.6286 -0.6616
  196MOL0     C26952   6.760   4.134   7.764  0.1959  0.4480  0.0041
  196MOL0     C26953   6.710   4.109   7.625 -0.0968  0.6115  0.2624
  196MOL0     C26954   6.779   4.006   7.545  0.1436 -0.5290 -0.3109
  196MOL0    Cl26955   6.783   3.840   7.627  0.3269  0.4467  0.1732
  196MOL0     C26956   5.999   4.503   7.848  0.0695  0.0041 -0.8263
  196MOL0     C26957   5.864   4.459   7.846 -0.3251 -0.1536 -0.2126
  196MOL0     O26958   5.554   4.510   7.710  0.1528 -1.0044 -0.2904
  196MOL0     C26959   5.339   4.374   7.780 -0.2163  0.1072 -0.0733
  196MOL0     C26960   5.233   4.286   7.824 -0.2397  0.5918  0.3705
  196MOL0     N26961   4.802   4.383   7.806 -0.5714 -0.1350 -0.2685
  196MOL0     N26962   4.733   4.490   7.838  0.3399  0.8977 -0.1363
  196MOL0     C26963   3.964   5.191   7.646  0.4544 -0.0601 -0.4083
  196MOL0     C26964   3.836   5.195   7.604  0.2739  0.0759  0.2392
  196MOL0     C26965   3.456   5.092   7.359  0.8066  0.0897 -0.3237
  196MOL0     C26966   3.436   5.143   7.232 -0.0478 -0.8515 -0.3517
  196MOL0     C26967   3.305   5.166   7.184  0.5737 -0.2133 -0.9851
  196MOL0     C26968   3.194   5.123   7.257  0.3713 -0.5713  1.0148
  196MOL0     O26969   3.076   5.153   7.198 -0.7725  0.0914  0.2181
  196MOL0     C26970   2.966   5.158   7.283 -0.9898 -0.1203  0.7883
  196MOL0     C26971   2.854   5.223   7.204  0.5934  0.1651 -0.3075
  196MOL0     C26972   2.729   5.226   7.291 -0.5625  0.2498 -0.0655
  196MOL0     C26973   2.636   5.349   7.265  0.0538 -0.2598 -0.1668
  196MOL0     C26974   2.513   5.341   7.341  0.0201  0.3014  0.0599
  196MOL0     C26975   2.413   5.338   7.404  0.4560  0.0951  0.7795
  196MOL0     C26976   3.212   5.083   7.389 -0.1890 -1.0086 -0.0928
  196MOL0     C26977   3.346   5.053   7.440  0.3765  0.2875  0.1241
  196MOL0     C26978   3.360   4.973   7.575 -0.3961 -0.4552  0.6866
  196MOL0     H26979   3.853   5.166   7.271 -1.6057  0.1918  0.9688
  196MOL0     H26980   4.105   5.196   7.338  1.2980  2.4002  0.9079
  196MOL0     H26981   4.298   5.142   7.409 -0.6553  3.1477  0.5607
  196MOL0     H26982   4.266   4.990   7.499  2.8955 -0.4951  0.3061
  196MOL0     H26983   4.510   5.076   7.512  0.6932 -2.1450  2.2240
  196MOL0     H26984   4.453   5.232   7.579  1.6329  0.1720  0.9280
  196MOL0     H26985   4.531   5.093   7.765  0.2287 -1.5258  0.6108
  196MOL0     H26986   4.361   5.114   7.770 -0.0500  1.3250  0.0872
  196MOL0     H26987   4.382   4.858   7.654 -0.3819  0.1932 -0.5404
  196MOL0     H26988   4.554   4.896   7.659 -0.8825 -0.5566 -0.4353
  196MOL0     H26989   4.360   4.864   7.894  0.0304 -1.8547  0.1890
  196MOL0     H26990   4.528   4.912   7.922  0.0478  0.6761  0.2154
  196MOL0     H26991   4.433   4.648   7.816  0.2504  0.9991 -1.9538
  196MOL0     H26992   4.599   4.696   7.791  0.6685 -1.0247  0.3405
  196MOL0     H26993   4.476   4.715   8.062  1.0256 -0.6660  1.3590
  196MOL0     H26994   4.653   4.717   8.023  0.4397  1.5069 -1.6274
  196MOL0     H26995   4.588   4.494   8.113 -1.9004  0.4561  1.0758
  196MOL0     H26996   4.447   4.495   7.998 -0.4583  0.1146 -2.1746
  196MOL0     H26997   4.591   4.247   8.014  1.8756  0.6854  2.4334
  196MOL0     H26998   4.755   4.067   7.935 -2.3964 -0.0247 -3.2816
  196MOL0     H26999   4.921   4.147   7.921  0.6331  1.4019 -1.7113
  196MOL0     H27000   4.748   4.037   7.700 -0.0835  0.5335 -1.8293
  196MOL0     H27001   4.884   4.146   7.673  4.2820 -2.6972 -1.2377
  196MOL0     H27002   4.921   3.901   7.853  1.9127 -1.8233 -0.5149
  196MOL0     H27003   4.905   3.881   7.677  0.6957  0.1916  1.2964
  196MOL0     H27004   5.130   3.915   7.696  1.6458  1.8970  0.1173
  196MOL0     H27005   5.068   4.054   7.632 -0.3182  2.2271  0.8592
  196MOL0     H27006   5.341   3.995   7.706 -0.0503  0.7420 -2.8721
  196MOL0     H27007   5.632   4.044   7.665  0.5593  0.4094  0.9539
  196MOL0     H27008   5.636   4.187   7.555 -2.4583  0.8735 -2.3861
  196MOL0     H27009   5.539   4.056   7.523 -0.2175  0.0840 -0.2974
  196MOL0     H27010   5.830   4.358   7.519  0.2310 -2.5000  0.7598
  196MOL0     H27011   6.074   4.456   7.520  1.3127  2.9685  0.7659
  196MOL0     H27012   6.257   4.468   7.891  0.2920 -0.7844 -0.5995
  196MOL0     H27013   6.263   4.373   7.751 -2.6473  0.4394  1.4399
  196MOL0     H27014   6.451   4.542   7.670  0.0496  1.8964  0.9197
  196MOL0     H27015   6.424   4.614   7.826 -1.5368 -1.7484  2.9737
  196MOL0     H27016   6.491   4.385   7.934  2.3673  0.4660  0.9452
  196MOL0     H27017   6.610   4.492   7.882 -0.4447 -0.6033  3.1933
  196MOL0     H27018   6.651   4.373   7.692 -0.1886  1.1412  1.7918
  196MOL0     H27019   6.505   4.268   7.718 -1.0128 -0.8683  2.5394
  196MOL0     H27020   6.732   4.283   7.910 -0.8146  0.5887  0.4137
  196MOL0     H27021   6.599   4.160   7.902  0.3844  2.5303  1.7550
  196MOL0     H27022   6.773   4.041   7.819 -1.6032  0.7949  1.0813
  196MOL0     H27023   6.860   4.176   7.774  0.5468 -0.9883  5.1237
  196MOL0     H27024   6.710   4.200   7.565  2.0489 -0.2777 -1.2081
  196MOL0     H27025   6.608   4.071   7.636  0.7460 -2.0932 -0.4093
  196MOL0     H27026   6.883   4.033   7.525 -0.5110  0.1265 -3.4469
  196MOL0     H27027   6.727   3.992   7.450 -0.5962  0.4525 -0.0764
  196MOL0     H27028   6.050   4.544   7.935  0.9276  1.3622 -1.9182
  196MOL0     H27029   5.805   4.465   7.936  1.0921 -4.0853  1.1892
  196MOL0     H27030   5.337   4.479   7.806 -0.8224  0.8647 -2.8080
  196MOL0     H27031   5.145   4.321   7.877 -0.9049  0.1345 -0.4035
  196MOL0     H27032   3.990   5.192   7.752  0.7166  0.4256 -0.4751
  196MOL0     H27033   3.768   5.193   7.688  1.6126 -0.1026  1.3471
  196MOL0     H27034   3.522   5.173   7.172  1.0754 -1.5966  0.8447
  196MOL0     H27035   3.285   5.216   7.089 -0.7147 -1.2569 -1.2870
  196MOL0     H27036   2.933   5.056   7.306 -0.4265 -0.8234 -1.2506
  196MOL0     H27037   2.978   5.225   7.368 -2.9283  1.5772 -0.1644
  196MOL0     H27038   2.847   5.158   7.116 -2.2250  0.6237 -0.5219
  196MOL0     H27039   2.889   5.321   7.169 -2.1219  2.0016  1.7414
  196MOL0     H27040   2.678   5.130   7.281  0.8189 -0.2726 -3.3243
  196MOL0     H27041   2.754   5.251   7.395 -4.0769 -0.3592  1.0680
  196MOL0     H27042   2.600   5.361   7.163 -2.0820  1.6888  0.7045
  196MOL0     H27043   2.688   5.445   7.274  0.6836 -0.5255 -0.8471
  196MOL0     H27044   2.320   5.336   7.458 -0.5169 -2.5226 -0.7985
  196MOL0     H27045   3.118   5.060   7.438 -1.1580  2.0232 -0.2751
  196MOL0     H27046   3.428   5.016   7.649 -0.5753  3.9040 -1.3773
  196MOL0     H27047   3.260   4.960   7.618 -1.1250  1.8620 -0.1789
  196MOL0     H27048   3.405   4.877   7.547  0.4770  0.4320 -1.1051
  197MOL0     O27049   1.656   2.653   2.573 -0.0237  0.0849  0.3616
  197MOL0     C27050   1.622   2.537   2.545  0.6983 -0.0248 -0.0648
  197MOL0     O27051   1.699   2.425   2.542 -0.1439  0.1751  0.9593
  197MOL0     C27052   1.833   2.455   2.526  0.2887 -0.1010  0.1276
  197MOL0     C27053   1.884   2.425   2.394 -0.0051 -0.1389 -0.8961
  197MOL0     C27054   2.012   2.458   2.362  0.5071  0.4045  0.8150
  197MOL0     C27055   2.108   2.508   2.457  0.5906  0.7645  0.0308
  197MOL0     O27056   2.244   2.528   2.432 -0.3847 -0.4571 -0.1889
  197MOL0     C27057   2.285   2.559   2.294  0.1276 -0.4659  0.3758
  197MOL0     C27058   2.433   2.619   2.306  0.4399 -0.0181  0.3637
  197MOL0     C27059   2.478   2.670   2.171  0.1120  0.7156 -0.2529
  197MOL0     C27060   2.523   2.547   2.088  0.0384 -0.6409  0.5053
  197MOL0     C27061   2.572   2.595   1.952  0.0073 -0.3127  0.2016
  197MOL0     C27062   2.560   2.492   1.847 -0.7715 -0.2571 -0.0841
  197MOL0     C27063   2.633   2.356   1.871 -0.4530 -0.4001 -0.8543
  197MOL0     C27064   2.597   2.255   1.758  1.0222 -0.9367 -0.8225
  197MOL0     N27065   2.663   2.129   1.777  0.6865  0.0845 -0.2618
  197MOL0     C27066   2.795   2.108   1.792 -0.4584 -0.3476 -0.1289
  197MOL0     C27067   2.810   1.993   1.865  0.0638 -0.1088  0.5986
  197MOL0     C27068   2.934   1.932   1.921  0.4982 -0.0496 -0.5844
  197MOL0     C27069   3.004   2.035   2.016  0.3496  0.0078  0.7828
  197MOL0     C27070   3.103   1.959   2.106 -0.3398  1.1496 -0.4236
  197MOL0     C27071   3.217   2.044   2.162 -0.3819  1.0840  1.0726
  197MOL0     O27072   3.162   2.111   2.279 -0.7015 -0.2536  0.2889
  197MOL0     C27073   3.262   2.149   2.369 -0.3454  0.2356  0.2204
  197MOL0     C27074   3.402   2.153   2.344  0.2372  0.2930 -0.2308
  197MOL0     C27075   3.491   2.205   2.438 -0.1897 -0.0601  0.7859
  197MOL0     C27076   3.639   2.213   2.391 -0.0237  0.0157 -0.2033
  197MOL0     C27077   3.453   2.241   2.568  1.1632 -0.0519  0.1332
  197MOL0     C27078   3.540   2.278   2.681  0.8732 -0.0638 -1.3297
  197MOL0     O27079   3.676   2.274   2.664 -0.0167 -0.3432  0.4498
  197MOL0     C27080   3.750   2.337   2.763 -0.3456 -0.6188 -0.2790
  197MOL0     C27081   3.747   2.295   2.897  0.0356 -0.1117 -0.2062
  197MOL0     C27082   3.826   2.369   2.988  0.6115  0.3442  0.4832
  197MOL0     C27083   3.909   2.478   2.956  0.3013 -0.4850 -0.2379
  197MOL0     O27084   3.988   2.540   3.050 -0.5683 -0.2404  0.0236
  197MOL0     C27085   4.072   2.460   3.136 -0.2331 -0.2854  0.6733
  197MOL0     C27086   4.208   2.540   3.162 -0.0709 -0.5106  0.3968
  197MOL0     C27087   4.305   2.442   3.236 -0.1763 -0.0684  0.3469
  197MOL0     C27088   4.283   2.467   3.385 -0.8563  0.8068  0.2780
  197MOL0     C27089   4.394   2.404   3.467 -0.1139 -0.8651  0.1250
  197MOL0     C27090   4.377   2.426   3.621 -0.5911 -0.3875  0.4217
  197MOL0     C27091   4.511   2.377   3.687  0.5430 -0.2985  0.5267
  197MOL0     C27092   4.547   2.419   3.824  0.1301  0.3789  0.0261
  197MOL0    Cl27093   4.637   2.299   3.901 -0.1902 -0.1614 -0.0730
  197MOL0     C27094   3.901   2.527   2.828  0.0311  0.8106  0.3529
  197MOL0     C27095   3.827   2.454   2.728 -0.0975  0.2378  0.6142
  197MOL0     O27096   3.477   2.324   2.776  0.2913  0.0622 -0.5398
  197MOL0     C27097   3.312   2.229   2.592  0.0871  0.1486  0.1140
  197MOL0     C27098   3.216   2.201   2.488  0.0271  0.9789 -0.2664
  197MOL0     N27099   2.687   1.942   1.885 -0.0327  0.0150 -0.7900
  197MOL0     N27100   2.600   2.028   1.848  0.2117  0.8250 -0.0949
  197MOL0     C27101   2.053   2.526   2.582  1.2518 -0.9865  0.1075
  197MOL0     C27102   1.913   2.508   2.621  0.3740 -0.2177 -0.2987
  197MOL0     C27103   1.477   2.506   2.510 -0.2551  1.0342  0.1078
  197MOL0     C27104   1.456   2.410   2.408 -0.5178 -0.2128 -0.1073
  197MOL0     C27105   1.324   2.379   2.370 -0.0602  0.5496  0.2474
  197MOL0     C27106   1.215   2.452   2.425 -0.2207  0.2297  0.0732
  197MOL0     O27107   1.089   2.416   2.371  0.0953 -0.4668 -0.2664
  197MOL0     C27108   0.996   2.520   2.339 -0.0852  0.1857  0.2357
  197MOL0     C27109   0.974   2.534   2.182  0.5498  0.6770 -0.1570
  197MOL0     C27110   0.926   2.401   2.123 -0.0221 -0.0894  0.0025
  197MOL0     C27111   0.867   2.412   1.974  0.3656 -0.3090 -0.5311
  197MOL0     C27112   0.728   2.473   1.975 -0.1767  0.0821 -0.0119
  197MOL0     C27113   0.617   2.509   2.005 -0.5191  0.6084  0.8093
  197MOL0     C27114   1.240   2.551   2.523 -0.1006 -0.7964  0.3693
  197MOL0     C27115   1.371   2.576   2.569 -0.0875 -0.4045  0.4953
  197MOL0     C27116   1.399   2.690   2.664 -0.6710 -0.3362  0.6997
  197MOL0     H27117   1.817   2.384   2.318  0.1124  0.7985 -1.5275
  197MOL0     H27118   2.042   2.447   2.259 -0.9000  3.1645  0.0112
  197MOL0     H27119   2.220   2.632   2.245  0.8707  0.6641  1.0303
  197MOL0     H27120   2.279   2.465   2.237  2.8391 -1.2059  1.1498
  197MOL0     H27121   2.428   2.704   2.376 -1.7780  0.7693 -0.6449
  197MOL0     H27122   2.488   2.536   2.349 -1.0945 -2.0777 -1.4342
  197MOL0     H27123   2.397   2.726   2.125  0.9555  2.8061  0.6554
  197MOL0     H27124   2.551   2.751   2.184  0.5080  0.6253 -1.7941
  197MOL0     H27125   2.603   2.498   2.145  0.5270 -1.5665 -0.9013
  197MOL0     H27126   2.448   2.466   2.084  1.9639 -2.6181  1.9063
  197MOL0     H27127   2.674   2.635   1.947  0.4154 -1.4427 -1.6499
  197MOL0     H27128   2.509   2.678   1.920 -1.0836 -0.9423  0.6346
  197MOL0     H27129   2.453   2.470   1.840 -0.7900 -0.7232  1.3380
  197MOL0     H27130   2.596   2.538   1.754 -0.9106  0.2793  0.1255
  197MOL0     H27131   2.602   2.324   1.971  1.5466  3.3871  1.1887
  197MOL0     H27132   2.740   2.376   1.873 -0.7969  1.6160  0.0101
  197MOL0     H27133   2.491   2.236   1.778  0.7742  0.4690 -0.6910
  197MOL0     H27134   2.615   2.301   1.660  0.9322 -1.2623 -0.9945
  197MOL0     H27135   2.873   2.178   1.763 -1.1174  0.0646 -0.9537
  197MOL0     H27136   3.000   1.896   1.841  2.7133 -3.2522  2.3847
  197MOL0     H27137   2.912   1.836   1.970  0.4842  0.6252  0.7825
  197MOL0     H27138   3.054   2.117   1.964 -0.5095  0.6238  0.9011
  197MOL0     H27139   2.932   2.070   2.090  0.7991 -0.5621  1.5076
  197MOL0     H27140   3.055   1.906   2.189  3.9542  0.3189  1.8163
  197MOL0     H27141   3.140   1.876   2.046  0.2057  0.1113  1.2714
  197MOL0     H27142   3.293   1.968   2.182 -3.3434 -1.8603  1.8758
  197MOL0     H27143   3.256   2.114   2.087 -1.6242 -2.1605 -2.9556
  197MOL0     H27144   3.444   2.130   2.247  0.4338 -2.6369  0.4688
  197MOL0     H27145   3.645   2.207   2.282 -0.7665 -0.0200 -0.2488
  197MOL0     H27146   3.705   2.144   2.445 -2.8367 -2.4369  0.3448
  197MOL0     H27147   3.669   2.315   2.417  0.7085  0.1537 -1.4949
  197MOL0     H27148   3.680   2.215   2.924  0.7656 -1.2035 -1.5490
  197MOL0     H27149   3.822   2.327   3.088  1.3848 -1.9081 -0.3636
  197MOL0     H27150   4.023   2.434   3.230 -2.8654 -0.0499 -0.5452
  197MOL0     H27151   4.082   2.366   3.081 -2.7813  0.2621 -0.8786
  197MOL0     H27152   4.264   2.551   3.069 -0.7163 -1.2742 -0.0888
  197MOL0     H27153   4.199   2.639   3.209 -1.0183  0.0144 -0.8012
  197MOL0     H27154   4.411   2.463   3.216 -0.7278  1.0938 -1.6765
  197MOL0     H27155   4.291   2.336   3.213  0.3290 -0.1042  0.1844
  197MOL0     H27156   4.188   2.424   3.418  0.1809 -0.3514  1.8689
  197MOL0     H27157   4.297   2.574   3.397  1.1695  0.4033  2.1250
  197MOL0     H27158   4.419   2.300   3.445 -1.7934 -1.3049  0.2175
  197MOL0     H27159   4.484   2.460   3.440 -1.3925  0.1917 -2.1629
  197MOL0     H27160   4.291   2.363   3.649 -1.4548  0.3943 -0.4051
  197MOL0     H27161   4.369   2.534   3.638  1.2776 -0.3731  1.5413
  197MOL0     H27162   4.589   2.414   3.619 -0.0221  5.3798  2.5047
  197MOL0     H27163   4.510   2.268   3.674  1.3202 -0.5729  2.5042
  197MOL0     H27164   4.452   2.430   3.877 -0.6372 -1.9263 -0.7416
  197MOL0     H27165   4.600   2.514   3.814  0.9644  0.0266  0.9699
  197MOL0     H27166   3.955   2.615   2.795 -0.5089  0.0300 -3.0405
  197MOL0     H27167   3.817   2.486   2.625 -2.5490  2.4994  1.4290
  197MOL0     H27168   3.269   2.262   2.686  0.6471  2.2966 -0.3218
  197MOL0     H27169   3.110   2.214   2.506  0.1348  0.2138  1.0831
  197MOL0     H27170   2.123   2.561   2.657 -1.3370  1.3270  1.6388
  197MOL0     H27171   1.882   2.541   2.719 -1.6222 -0.2124 -0.8924
  197MOL0     H27172   1.537   2.355   2.360 -0.6838 -1.1277  0.6270
  197MOL0     H27173   1.311   2.293   2.304 -2.3607  1.7217 -0.9288
  197MOL0     H27174   0.899   2.511   2.387  0.0720 -1.3722  0.3144
  197MOL0     H27175   1.033   2.612   2.386  0.6472 -0.0542  0.1521
  197MOL0     H27176   1.066   2.554   2.125  0.1380  0.4267 -0.9279
  197MOL0     H27177   0.899   2.608   2.155  0.2694 -0.1271 -1.7218
  197MOL0     H27178   1.011   2.336   2.099  1.2915  0.9278  1.6351
  197MOL0     H27179   0.864   2.344   2.193 -1.0170 -1.4158 -1.8858
  197MOL0     H27180   0.857   2.311   1.934 -1.9775 -0.4421  0.2346
  197MOL0     H27181   0.935   2.467   1.908  0.8725 -0.3678 -0.0673
  197MOL0     H27182   0.518   2.528   2.039 -1.7749 -2.5549 -0.6013
  197MOL0     H27183   1.169   2.617   2.571  1.3434  0.6344  0.6279
  197MOL0     H27184   1.307   2.708   2.721 -1.5980 -2.3334 -0.0413
  197MOL0     H27185   1.471   2.661   2.742 -1.4454 -1.5683  0.9936
  197MOL0     H27186   1.438   2.779   2.614  1.0805 -1.6028 -0.2739
  198MOL0     O27187  10.372   9.149   5.878  0.1960  1.0545  0.4505
  198MOL0     C27188  10.386   9.153   5.752 -0.1666 -0.2846 -0.2646
  198MOL0     O27189  10.508   9.160   5.682 -0.3124 -0.2765  0.2343
  198MOL0     C27190  10.609   9.155   5.771 -0.4534  0.1744  0.1541
  198MOL0     C27191  10.668   9.033   5.797 -0.2027  0.3706  0.0860
  198MOL0     C27192  10.788   9.029   5.870  0.8872  0.3689  1.3621
  198MOL0     C27193  10.848   9.148   5.923  1.1573  0.4321  1.4235
  198MOL0     O27194  10.975   9.145   5.977 -0.4389  0.3568 -0.1747
  198MOL0     C27195  11.054   9.031   5.978 -0.4106  0.6868 -0.2480
  198MOL0     C27196  11.171   9.045   6.080  0.9847  0.2281 -0.4696
  198MOL0     C27197  11.116   9.079   6.226  0.3447 -0.2050  0.2615
  198MOL0     C27198  11.221   9.134   6.324  0.2200  0.8578  0.2414
  198MOL0     C27199  11.331   9.023   6.349 -0.4355 -0.0227  0.0030
  198MOL0     C27200  11.448   9.065   6.439 -0.1992 -0.6853 -0.1132
  198MOL0     C27201  11.532   9.181   6.378 -0.0026  0.2204 -0.1523
  198MOL0     C27202  11.602   9.255   6.491  0.3316 -0.4606 -0.0426
  198MOL0     N27203  11.703   9.190   6.570  0.8250 -0.1161  0.1604
  198MOL0     C27204  11.746   9.263   6.679  0.3186  0.4371 -0.0142
  198MOL0     C27205  11.872   9.218   6.707  0.4724  0.3364  0.5744
  198MOL0     C27206  11.967   9.275   6.812 -1.0476  0.7316 -1.2876
  198MOL0     C27207  12.065   9.171   6.883 -0.2924 -0.1742  0.6272
  198MOL0     C27208  12.133   9.230   7.000  0.4349 -0.0442  0.0246
  198MOL0     C27209  12.254   9.320   6.972  0.1659 -0.2015 -0.4005
  198MOL0     O27210  12.216   9.440   6.896 -0.3718 -0.3110  0.5114
  198MOL0     C27211  12.125   9.529   6.944 -0.2128  0.3219  0.2330
  198MOL0     C27212  12.108   9.547   7.078  0.5112 -0.8261 -0.7056
  198MOL0     C27213  12.011   9.632   7.131 -0.2153 -0.1819  0.0098
  198MOL0     C27214  12.017   9.650   7.282  0.7863  0.2617 -0.5559
  198MOL0     C27215  11.926   9.705   7.041  0.8468 -0.5821 -0.1980
  198MOL0     C27216  11.822   9.811   7.074 -0.4660  0.6372  0.2590
  198MOL0     O27217  11.764   9.867   6.965 -0.4169 -0.4011 -0.8699
  198MOL0     C27218  11.645   9.920   6.993 -0.1326 -0.2808  0.3077
  198MOL0     C27219  11.523   9.875   6.938  0.9791 -0.4482  0.3011
  198MOL0     C27220  11.395   9.926   6.973 -0.3115 -0.5837  0.2733
  198MOL0     C27221  11.395  10.021   7.076 -0.6295 -0.8367  0.8299
  198MOL0     O27222  11.262  10.052   7.114 -0.2242  0.1316  0.2258
  198MOL0     C27223  11.246  10.178   7.188 -0.6974  0.2738 -1.0192
  198MOL0     C27224  11.096  10.194   7.215 -0.1039 -0.1424  0.0859
  198MOL0     C27225  11.027  10.256   7.088  0.0133 -0.2589  0.1865
  198MOL0     C27226  10.903  10.333   7.133 -0.0056  0.8502  0.3690
  198MOL0     C27227  10.873  10.438   7.021 -0.0313  0.0922 -0.3071
  198MOL0     C27228  10.766  10.536   7.052  0.0973 -0.5439 -0.4653
  198MOL0     C27229  10.763  10.655   6.950  1.1463  0.4281  1.1878
  198MOL0     C27230  10.673  10.769   7.002  0.4916 -0.0893 -1.0817
  198MOL0    Cl27231  10.759  10.860   7.134  0.2742 -0.0477 -0.3035
  198MOL0     C27232  11.514  10.077   7.127  0.4553  0.7566  0.6619
  198MOL0     C27233  11.638  10.023   7.083 -0.7741 -0.4839 -0.8932
  198MOL0     O27234  11.788   9.808   7.192  0.3440  0.0411 -0.0984
  198MOL0     C27235  11.953   9.685   6.901 -0.6781 -0.4854 -0.0153
  198MOL0     C27236  12.048   9.594   6.851 -0.5876  0.2612 -0.6454
  198MOL0     N27237  11.900   9.120   6.610 -0.2551 -0.1669  0.6012
  198MOL0     N27238  11.801   9.105   6.525 -0.4928  0.2059  0.3180
  198MOL0     C27239  10.780   9.271   5.895  0.2382  0.2741 -0.1784
  198MOL0     C27240  10.655   9.279   5.829  0.0838  0.0116  0.4894
  198MOL0     C27241  10.270   9.143   5.670  1.0498 -0.7200  0.5008
  198MOL0     C27242  10.147   9.108   5.736  0.1833  0.1034  0.7106
  198MOL0     C27243  10.027   9.088   5.674 -0.0329  0.1367  0.1236
  198MOL0     C27244  10.008   9.113   5.536 -0.4141 -0.0988 -0.7128
  198MOL0     O27245   9.887   9.097   5.468 -0.3171 -0.3811  0.0970
  198MOL0     C27246   9.764   9.109   5.540  0.1912 -0.0511  0.4697
  198MOL0     C27247   9.658   9.099   5.434  0.7075 -0.3047 -0.1779
  198MOL0     C27248   9.515   9.121   5.499  0.5844 -0.0641 -0.3348
  198MOL0     C27249   9.399   9.097   5.398  0.3323  0.0842  0.1673
  198MOL0     C27250   9.268   9.139   5.453  0.6613  0.0668  0.5305
  198MOL0     C27251   9.162   9.176   5.495 -0.5114  0.6198  0.5025
  198MOL0     C27252  10.125   9.142   5.466  0.2789 -0.1130  0.3394
  198MOL0     C27253  10.254   9.161   5.524 -0.0013  0.9960 -0.1671
  198MOL0     C27254  10.366   9.202   5.430 -0.7186  1.4808  0.0724
  198MOL0     H27255  10.629   8.938   5.761 -0.6418 -0.8614  3.5082
  198MOL0     H27256  10.834   8.931   5.866  0.6779  0.3037 -0.9710
  198MOL0     H27257  11.086   9.018   5.874  0.0536  0.0059 -0.0262
  198MOL0     H27258  10.999   8.943   6.014  0.4727  0.3007  0.1817
  198MOL0     H27259  11.230   8.953   6.079  0.4315 -0.1369 -1.4520
  198MOL0     H27260  11.231   9.132   6.051  0.2584  0.5994 -0.8837
  198MOL0     H27261  11.035   9.151   6.216 -0.5133 -1.1557  0.1405
  198MOL0     H27262  11.058   9.000   6.276  0.0625  0.5603  1.1753
  198MOL0     H27263  11.262   9.222   6.273  2.1831 -1.8415 -3.2906
  198MOL0     H27264  11.164   9.154   6.415  0.7865 -0.5639  0.9276
  198MOL0     H27265  11.378   8.989   6.257  0.7873 -0.2018  0.6733
  198MOL0     H27266  11.280   8.933   6.386 -0.7260 -0.6513 -1.8398
  198MOL0     H27267  11.408   9.093   6.537  1.0178 -0.1604  0.2530
  198MOL0     H27268  11.521   8.983   6.441 -1.0454 -1.5600 -2.1874
  198MOL0     H27269  11.472   9.256   6.324 -2.5169 -1.3185  0.3286
  198MOL0     H27270  11.600   9.148   6.298  2.1303  0.5863  1.4305
  198MOL0     H27271  11.649   9.347   6.453  0.1871  0.3409  1.6267
  198MOL0     H27272  11.519   9.277   6.559  1.4258 -0.9734  1.5087
  198MOL0     H27273  11.702   9.351   6.724  2.2435  1.8067 -0.6416
  198MOL0     H27274  11.908   9.316   6.895  0.2103 -0.7691  0.4582
  198MOL0     H27275  12.034   9.350   6.770 -0.1366 -0.1485 -1.4390
  198MOL0     H27276  12.011   9.079   6.909  1.3802 -0.8850  1.7364
  198MOL0     H27277  12.134   9.143   6.802 -0.6873 -0.6407  0.4497
  198MOL0     H27278  12.061   9.273   7.070 -0.3705 -2.7725  0.9851
  198MOL0     H27279  12.165   9.144   7.059 -1.4491 -0.8993 -0.1283
  198MOL0     H27280  12.317   9.347   7.057  1.7350  0.4006 -1.6950
  198MOL0     H27281  12.330   9.263   6.916 -0.0749 -1.7935  0.8115
  198MOL0     H27282  12.174   9.496   7.147 -0.3540 -1.3226 -0.2222
  198MOL0     H27283  11.985   9.750   7.314 -0.1965 -0.4347  0.7624
  198MOL0     H27284  12.118   9.649   7.324  1.5113  2.5417 -2.0450
  198MOL0     H27285  11.953   9.575   7.329  2.6148 -1.5636 -0.8607
  198MOL0     H27286  11.532   9.801   6.858 -2.8287  0.1643 -0.8705
  198MOL0     H27287  11.306   9.884   6.928  1.1050 -0.8226 -2.4791
  198MOL0     H27288  11.293  10.177   7.287 -2.8830  0.1763  0.0714
  198MOL0     H27289  11.303  10.255   7.135  1.0314  0.2615  0.7051
  198MOL0     H27290  11.061  10.093   7.239 -1.2273  0.0687 -0.5743
  198MOL0     H27291  11.092  10.265   7.298  0.3459  1.1389 -0.9611
  198MOL0     H27292  11.007  10.178   7.014 -1.5888  2.3883 -2.3772
  198MOL0     H27293  11.086  10.328   7.030 -0.8502  0.7569  0.5415
  198MOL0     H27294  10.922  10.376   7.232 -0.6592  0.7594  0.5421
  198MOL0     H27295  10.817  10.265   7.137  1.7701 -1.6867 -1.7267
  198MOL0     H27296  10.964  10.494   6.996  0.6722 -2.0372 -3.1204
  198MOL0     H27297  10.844  10.395   6.924  1.8409 -0.2068 -0.7624
  198MOL0     H27298  10.795  10.571   7.151  2.9983 -0.8430 -1.1135
  198MOL0     H27299  10.667  10.491   7.063 -1.6376  3.3227  1.3287
  198MOL0     H27300  10.731  10.612   6.855 -0.8038  1.9217  1.1207
  198MOL0     H27301  10.859  10.707   6.946  0.6181  1.7271  3.3529
  198MOL0     H27302  10.574  10.737   7.038 -2.1520  3.4302 -4.4921
  198MOL0     H27303  10.647  10.841   6.925 -1.3765  0.0380 -0.3964
  198MOL0     H27304  11.504  10.148   7.208  0.3987  1.6443 -0.1096
  198MOL0     H27305  11.730  10.073   7.110  0.3532 -2.3860 -1.0260
  198MOL0     H27306  11.885   9.730   6.828  3.2294  1.6903 -2.7237
  198MOL0     H27307  12.063   9.578   6.745  1.3366 -4.2662  0.0613
  198MOL0     H27308  10.826   9.365   5.924  1.6716 -0.7479  1.0505
  198MOL0     H27309  10.600   9.369   5.804 -1.4935 -1.4291 -1.5901
  198MOL0     H27310  10.150   9.087   5.843 -2.3825 -1.8173  0.5100
  198MOL0     H27311   9.945   9.050   5.734  0.3732  1.4694  1.5924
  198MOL0     H27312   9.759   9.033   5.619 -0.5246  1.6123  2.1049
  198MOL0     H27313   9.757   9.209   5.584  1.4310 -0.2642  1.1856
  198MOL0     H27314   9.655   8.997   5.396 -2.1781 -0.6939  0.8699
  198MOL0     H27315   9.681   9.161   5.346  0.7285 -0.7526 -0.4937
  198MOL0     H27316   9.503   9.053   5.584  3.3257 -0.4470 -0.1495
  198MOL0     H27317   9.518   9.224   5.533 -0.6401  0.2967 -1.2509
  198MOL0     H27318   9.385   8.990   5.383 -1.5545  0.0118  2.0241
  198MOL0     H27319   9.416   9.144   5.300 -1.2585  1.1387  0.3577
  198MOL0     H27320   9.064   9.202   5.529 -1.1486 -2.0610  1.0082
  198MOL0     H27321  10.116   9.151   5.358  0.0747 -2.0011  0.1487
  198MOL0     H27322  10.387   9.309   5.442  2.1366  0.8352  1.7758
  198MOL0     H27323  10.453   9.138   5.448  0.2046  2.1134 -1.8637
  198MOL0     H27324  10.346   9.175   5.326 -1.5241  1.0468  0.3300
  199MOL0     O27325   5.913   8.986  11.053  0.0702  0.3832  0.0347
  199MOL0     C27326   5.996   8.901  11.013 -1.0457  0.1820  0.1223
  199MOL0     O27327   5.958   8.792  10.943 -0.6527  0.0723  0.1297
  199MOL0     C27328   5.829   8.753  10.940 -0.6659 -0.7130 -0.3079
  199MOL0     C27329   5.741   8.820  10.854 -0.5461  0.3555  0.5765
  199MOL0     C27330   5.603   8.778  10.847  0.7279  0.8921 -0.0587
  199MOL0     C27331   5.553   8.671  10.928 -0.9369 -0.0446  0.2624
  199MOL0     O27332   5.423   8.629  10.915  0.1702 -0.1823  0.2974
  199MOL0     C27333   5.335   8.699  10.825 -0.1146 -0.8465  0.0416
  199MOL0     C27334   5.193   8.636  10.826  0.1783 -0.5049 -0.8361
  199MOL0     C27335   5.099   8.727  10.747  0.1520  0.4179 -0.5847
  199MOL0     C27336   4.951   8.676  10.727 -0.0115  0.3601  0.4501
  199MOL0     C27337   4.856   8.781  10.675  0.0173 -0.2242  0.1609
  199MOL0     C27338   4.713   8.739  10.645 -0.5510  0.7115  0.0273
  199MOL0     C27339   4.630   8.870  10.629  0.2888  0.6033  0.3034
  199MOL0     C27340   4.510   8.854  10.535 -0.0705  0.4971 -0.7353
  199MOL0     N27341   4.415   8.749  10.583 -0.1727 -0.0380 -0.5887
  199MOL0     C27342   4.428   8.619  10.562  0.3136 -0.0212  0.1385
  199MOL0     C27343   4.340   8.564  10.647  0.8340  0.0246 -0.1764
  199MOL0     C27344   4.324   8.417  10.670  0.8511 -0.3031  0.3998
  199MOL0     C27345   4.434   8.365  10.761  0.9300 -1.3133 -0.0269
  199MOL0     C27346   4.448   8.445  10.896 -0.5812  0.2404 -0.2948
  199MOL0     C27347   4.569   8.392  10.982 -0.3024  1.0089  0.0629
  199MOL0     O27348   4.691   8.391  10.909  0.5980  0.2628 -0.6781
  199MOL0     C27349   4.800   8.376  10.991 -0.6864  1.0093 -0.3658
  199MOL0     C27350   4.793   8.355  11.125 -0.6830 -0.2541 -0.7467
  199MOL0     C27351   4.910   8.330  11.207  0.2769  0.5931 -0.8896
  199MOL0     C27352   4.898   8.319  11.351 -0.5375 -0.1918 -0.0684
  199MOL0     C27353   5.041   8.335  11.144  0.9472  0.4679  0.0612
  199MOL0     C27354   5.176   8.315  11.202  0.1454  0.3770  0.1950
  199MOL0     O27355   5.284   8.333  11.123  0.0198 -0.2979  0.1132
  199MOL0     C27356   5.409   8.312  11.175  1.0087 -0.3150 -0.3859
  199MOL0     C27357   5.479   8.194  11.152  1.0059  0.2483  0.6846
  199MOL0     C27358   5.603   8.168  11.214  0.4369  0.3306 -0.1703
  199MOL0     C27359   5.655   8.262  11.301 -0.7036  0.0080  0.0287
  199MOL0     O27360   5.772   8.241  11.370 -0.1182 -0.2652  0.8338
  199MOL0     C27361   5.888   8.284  11.302 -0.1585 -0.4865 -0.0069
  199MOL0     C27362   5.920   8.189  11.178  0.7306  0.6113  0.1940
  199MOL0     C27363   6.062   8.209  11.127 -0.3805 -0.0048  0.2414
  199MOL0     C27364   6.088   8.354  11.093  0.2082  0.3184 -0.8059
  199MOL0     C27365   6.206   8.371  11.000 -0.9064 -0.8012  0.3155
  199MOL0     C27366   6.339   8.388  11.069 -0.5355 -0.5016  0.0630
  199MOL0     C27367   6.458   8.308  11.017 -0.6117  0.5704  0.1861
  199MOL0     C27368   6.581   8.325  11.102 -0.7785  0.5159  0.9283
  199MOL0    Cl27369   6.622   8.487  11.119  0.3503  0.1394  0.1037
  199MOL0     C27370   5.579   8.380  11.323  0.5547 -0.4258  0.0628
  199MOL0     C27371   5.464   8.407  11.261  0.7741 -0.0881  0.0279
  199MOL0     O27372   5.187   8.283  11.323  0.1664  0.1024  0.1366
  199MOL0     C27373   5.038   8.359  11.004  1.0714  0.0490 -0.9710
  199MOL0     C27374   4.921   8.373  10.930  0.6439 -0.6759 -0.2069
  199MOL0     N27375   4.267   8.654  10.715  0.3077 -0.5574 -0.5403
  199MOL0     N27376   4.318   8.766  10.672 -0.2064  0.8357  0.1133
  199MOL0     C27377   5.649   8.606  11.014  0.1458 -0.2800  0.3821
  199MOL0     C27378   5.781   8.647  11.014  0.0478 -0.0977  0.7323
  199MOL0     C27379   6.146   8.934  11.021 -0.4962 -0.0853 -0.7491
  199MOL0     C27380   6.232   8.832  10.966  0.4867  0.3398  0.5260
  199MOL0     C27381   6.370   8.852  10.962 -0.3461  0.8173 -0.5072
  199MOL0     C27382   6.432   8.954  11.038  0.9019 -0.0783  0.2765
  199MOL0     O27383   6.563   8.988  11.022 -0.7070 -0.8586  0.8436
  199MOL0     C27384   6.658   8.878  11.027 -0.4372 -0.5091 -0.8739
  199MOL0     C27385   6.682   8.835  11.177  0.9514 -0.1712  0.8904
  199MOL0     C27386   6.751   8.952  11.264  0.5470 -0.6381 -0.2878
  199MOL0     C27387   6.744   8.958  11.416  0.0590 -0.1940  0.0779
  199MOL0     C27388   6.601   8.994  11.441 -0.6200 -0.7481 -0.3212
  199MOL0     C27389   6.486   9.002  11.481 -0.5417  0.2122 -0.7622
  199MOL0     C27390   6.346   9.046  11.100 -0.6375 -0.1194  0.0200
  199MOL0     C27391   6.207   9.043  11.090 -0.4741  0.8857 -0.0092
  199MOL0     C27392   6.135   9.159  11.154  0.6802 -0.2188 -0.6397
  199MOL0     H27393   5.785   8.894  10.787  2.5450 -1.7625  0.0582
  199MOL0     H27394   5.540   8.830  10.775  1.9256 -0.1338 -1.9390
  199MOL0     H27395   5.374   8.693  10.723 -2.4543 -3.1747 -0.8462
  199MOL0     H27396   5.330   8.805  10.851  2.5970 -0.3446 -1.1283
  199MOL0     H27397   5.209   8.538  10.781  0.7134 -0.3215 -1.0482
  199MOL0     H27398   5.147   8.629  10.925  0.3065  1.2020 -0.6235
  199MOL0     H27399   5.100   8.829  10.787 -0.2788  0.6731 -1.1873
  199MOL0     H27400   5.144   8.748  10.650  3.9043  2.1603  1.3330
  199MOL0     H27401   4.959   8.585  10.667  1.8906  0.3573  0.6452
  199MOL0     H27402   4.915   8.648  10.827  0.2012 -1.0534  0.1479
  199MOL0     H27403   4.896   8.838  10.590  0.9749 -1.0529  0.0341
  199MOL0     H27404   4.846   8.863  10.746  0.6114 -0.4764  0.5452
  199MOL0     H27405   4.705   8.679  10.554 -1.0713  1.6219 -0.5462
  199MOL0     H27406   4.682   8.677  10.730  2.8450  1.5897  2.1025
  199MOL0     H27407   4.692   8.951  10.590  0.1906  0.6321  0.2065
  199MOL0     H27408   4.600   8.905  10.728  0.0326  1.7974 -0.1789
  199MOL0     H27409   4.457   8.950  10.530 -2.1923 -0.6248 -1.0085
  199MOL0     H27410   4.534   8.841  10.429  2.5451  5.3641 -0.9989
  199MOL0     H27411   4.489   8.562  10.492  1.1460 -0.0463  0.8750
  199MOL0     H27412   4.331   8.360  10.577 -2.0152 -1.4884  0.8240
  199MOL0     H27413   4.234   8.394  10.727  0.2229  0.4077 -0.2931
  199MOL0     H27414   4.413   8.261  10.786  2.9328 -2.1961 -1.6690
  199MOL0     H27415   4.534   8.363  10.715  0.5160  1.5120 -1.2879
  199MOL0     H27416   4.468   8.552  10.889  3.5891 -0.3587 -0.1074
  199MOL0     H27417   4.354   8.421  10.946 -1.0362 -0.0302 -1.2695
  199MOL0     H27418   4.568   8.466  11.063  0.4432 -2.3810  3.4602
  199MOL0     H27419   4.555   8.292  11.024  0.2838  1.8277  2.3364
  199MOL0     H27420   4.703   8.342  11.183  0.1361 -0.9119  0.4100
  199MOL0     H27421   4.973   8.381  11.401 -0.2738 -0.4031 -0.1953
  199MOL0     H27422   4.918   8.216  11.381 -2.2567 -0.4679  0.2299
  199MOL0     H27423   4.794   8.337  11.380 -1.1982 -1.5717 -1.3939
  199MOL0     H27424   5.447   8.123  11.076  1.3131  0.3846  0.4248
  199MOL0     H27425   5.660   8.079  11.189  0.2126  0.2243 -0.3119
  199MOL0     H27426   5.869   8.385  11.266  1.6385  0.8778  2.5618
  199MOL0     H27427   5.971   8.288  11.373  1.3684  3.7913 -1.6798
  199MOL0     H27428   5.906   8.082  11.199  0.0157  0.6620 -0.0108
  199MOL0     H27429   5.848   8.222  11.102  1.0584  1.3113  0.1835
  199MOL0     H27430   6.080   8.146  11.040 -0.5745  0.8181 -0.4121
  199MOL0     H27431   6.135   8.176  11.202  0.2198 -0.9189 -0.7298
  199MOL0     H27432   6.098   8.412  11.186 -2.0457 -1.6339  0.7891
  199MOL0     H27433   5.997   8.380  11.039 -1.1934 -0.0765  1.2208
  199MOL0     H27434   6.208   8.279  10.941  4.8632 -1.4601  0.9645
  199MOL0     H27435   6.182   8.458  10.938  0.1043  2.6842  4.2883
  199MOL0     H27436   6.326   8.378  11.178 -0.4242 -0.7191  0.0568
  199MOL0     H27437   6.372   8.490  11.050  2.3759 -1.7870 -2.5815
  199MOL0     H27438   6.471   8.339  10.913  1.4467 -1.5268 -0.2536
  199MOL0     H27439   6.426   8.203  11.010 -1.5922  0.8275  0.5745
  199MOL0     H27440   6.666   8.276  11.054 -3.1988 -2.7848 -0.3705
  199MOL0     H27441   6.567   8.283  11.202 -0.1493  1.5303  1.4561
  199MOL0     H27442   5.611   8.467  11.379 -1.7548  0.3916  0.2575
  199MOL0     H27443   5.402   8.489  11.296 -0.2250 -1.3155  1.2313
  199MOL0     H27444   5.126   8.364  10.941 -0.3628 -0.0034 -3.0729
  199MOL0     H27445   4.920   8.409  10.827  0.1340  2.0285  0.6660
  199MOL0     H27446   5.603   8.531  11.078 -2.0247  0.2274 -0.5078
  199MOL0     H27447   5.857   8.595  11.072  0.6924 -0.6090 -0.5420
  199MOL0     H27448   6.189   8.737  10.935 -2.9761  2.7000 -2.7759
  199MOL0     H27449   6.431   8.787  10.902 -1.2961  0.5615 -1.2112
  199MOL0     H27450   6.626   8.787  10.976 -2.5377 -1.5523  2.0507
  199MOL0     H27451   6.748   8.917  10.978 -2.3442 -0.8274 -4.9893
  199MOL0     H27452   6.741   8.743  11.179 -1.1339 -1.5830  0.6133
  199MOL0     H27453   6.581   8.806  11.208 -0.1131  0.8348 -1.3970
  199MOL0     H27454   6.859   8.950  11.247  0.5304  3.2937 -1.7383
  199MOL0     H27455   6.713   9.048  11.230 -0.8646 -0.2897  2.0435
  199MOL0     H27456   6.805   9.040  11.455 -0.5459 -0.0691  0.7780
  199MOL0     H27457   6.768   8.864  11.467  0.1992  0.0822  0.5248
  199MOL0     H27458   6.380   9.001  11.499 -0.4084  0.3511  0.0624
  199MOL0     H27459   6.398   9.125  11.153  0.8964  0.8000 -2.6576
  199MOL0     H27460   6.068   9.109  11.225 -0.3979 -0.1489 -1.5788
  199MOL0     H27461   6.194   9.234  11.207  1.3854 -0.4806 -1.0494
  199MOL0     H27462   6.069   9.208  11.082  0.7377  2.0424  0.7519
  200MOL0     O27463  10.806   7.041   8.259 -0.4309 -0.0826 -0.6667
  200MOL0     C27464  10.746   6.987   8.167 -0.2256 -0.2738 -0.0258
  200MOL0     O27465  10.780   6.867   8.113 -0.0976 -0.1625 -0.7691
  200MOL0     C27466  10.880   6.797   8.171 -0.4469  0.3721 -0.1350
  200MOL0     C27467  10.889   6.737   8.303  0.0466 -0.7044 -0.3701
  200MOL0     C27468  11.001   6.658   8.345  0.3449 -0.3116 -0.3619
  200MOL0     C27469  11.104   6.614   8.266 -0.0647 -0.5617 -0.1692
  200MOL0     O27470  11.198   6.533   8.322  0.8270 -0.2382  0.6450
  200MOL0     C27471  11.297   6.464   8.247 -0.0068 -0.3997 -0.5350
  200MOL0     C27472  11.414   6.548   8.206  0.5619 -0.4635  0.1965
  200MOL0     C27473  11.547   6.480   8.187  0.7559 -0.0707 -0.1029
  200MOL0     C27474  11.532   6.380   8.077  0.2776 -0.3070  1.1941
  200MOL0     C27475  11.649   6.297   8.037 -0.4010  0.1498  0.7401
  200MOL0     C27476  11.627   6.223   7.908 -0.1773  1.1673  0.4912
  200MOL0     C27477  11.759   6.147   7.871 -0.0056  0.1910 -0.9294
  200MOL0     C27478  11.778   6.025   7.966 -0.6221 -0.1828 -0.3313
  200MOL0     N27479  11.914   5.974   7.971  0.0078  0.1834  0.1160
  200MOL0     C27480  11.987   5.918   7.869 -0.1502 -0.4618  0.0147
  200MOL0     C27481  12.098   5.869   7.933  1.2560 -0.6303 -0.7623
  200MOL0     C27482  12.205   5.804   7.855 -0.4805  0.1481 -0.0529
  200MOL0     C27483  12.341   5.872   7.882  0.3106  0.8638 -0.0040
  200MOL0     C27484  12.454   5.818   7.797  0.8752 -0.4648  1.0481
  200MOL0     C27485  12.583   5.868   7.854 -0.5608  0.2170  0.6977
  200MOL0     O27486  12.675   5.821   7.757  0.4045  0.1873  0.0384
  200MOL0     C27487  12.803   5.869   7.735  0.6125 -0.5664 -0.3640
  200MOL0     C27488  12.876   5.959   7.816 -0.3079  0.4419  0.1216
  200MOL0     C27489  13.011   5.991   7.778 -0.7462  0.8108  1.3835
  200MOL0     C27490  13.080   6.099   7.863  0.1810 -0.2746 -0.7626
  200MOL0     C27491  13.068   5.936   7.655 -0.3140 -0.2873  0.7780
  200MOL0     C27492  13.202   5.974   7.600  0.6438 -0.3058 -0.4103
  200MOL0     O27493  13.222   5.958   7.467 -0.6462  0.0370 -0.7291
  200MOL0     C27494  13.349   5.985   7.423  0.2000 -0.0083  0.1728
  200MOL0     C27495  13.374   6.111   7.372  0.1047  0.2553 -0.5965
  200MOL0     C27496  13.502   6.136   7.312  0.7044 -0.2907  0.2594
  200MOL0     C27497  13.611   6.046   7.324  0.0442 -0.2279 -0.2670
  200MOL0     O27498  13.740   6.065   7.274  0.0845 -0.1138  0.1775
  200MOL0     C27499  13.793   6.195   7.292 -0.7054 -1.0816  0.6688
  200MOL0     C27500  13.947   6.196   7.256 -0.8060 -0.6795 -0.5145
  200MOL0     C27501  14.024   6.098   7.354 -0.0961  0.2248  0.1220
  200MOL0     C27502  14.178   6.095   7.336 -0.0138 -0.0599  0.0737
  200MOL0     C27503  14.243   6.026   7.459 -0.0259 -1.1489  0.1233
  200MOL0     C27504  14.394   5.995   7.444 -0.8853  0.0758  0.4432
  200MOL0     C27505  14.464   5.951   7.576 -0.9961 -0.0052  0.3262
  200MOL0     C27506  14.614   5.976   7.584 -0.3051 -0.3065  1.2064
  200MOL0    Cl27507  14.666   6.161   7.581  0.5575 -0.5136  0.1015
  200MOL0     C27508  13.582   5.917   7.375 -0.2627  0.1230  0.2720
  200MOL0     C27509  13.451   5.890   7.426  0.2075 -0.3446  0.0762
  200MOL0     O27510  13.295   5.994   7.684  0.9531 -0.1679  0.6962
  200MOL0     C27511  12.991   5.843   7.580 -0.4601 -0.3678  0.9013
  200MOL0     C27512  12.863   5.813   7.618  0.4421 -0.2220 -0.9555
  200MOL0     N27513  12.079   5.878   8.070 -0.2358 -0.0780  0.7238
  200MOL0     N27514  11.968   5.937   8.084  0.1012 -1.1158  0.1028
  200MOL0     C27515  11.091   6.662   8.134 -0.5051 -0.0484  0.8482
  200MOL0     C27516  10.975   6.736   8.089  0.4883  0.4332 -0.4125
  200MOL0     C27517  10.620   7.045   8.104 -0.7005  0.3187  0.3562
  200MOL0     C27518  10.540   6.962   8.018 -0.0465 -0.5547 -0.7647
  200MOL0     C27519  10.423   7.009   7.961  0.4733 -0.3580 -0.1820
  200MOL0     C27520  10.373   7.131   7.989  0.1897 -0.1143  0.0827
  200MOL0     O27521  10.244   7.158   7.940 -0.4869 -0.8241 -1.4228
  200MOL0     C27522  10.182   7.290   7.973  0.3847 -0.8461 -1.1635
  200MOL0     C27523  10.049   7.306   7.902  0.0403  0.1937  0.2046
  200MOL0     C27524   9.966   7.175   7.904 -0.1263  0.2451  0.1439
  200MOL0     C27525   9.814   7.199   7.884  1.1192  0.3042 -0.3095
  200MOL0     C27526   9.754   7.234   8.018 -0.4501 -1.1629  0.0520
  200MOL0     C27527   9.725   7.250   8.130  0.7815 -0.5714 -0.5259
  200MOL0     C27528  10.439   7.211   8.073 -0.9751 -0.6078  0.6512
  200MOL0     C27529  10.566   7.171   8.126 -0.1437 -0.1930  0.1505
  200MOL0     C27530  10.629   7.266   8.230  0.3245 -0.0602 -0.0236
  200MOL0     H27531  10.816   6.778   8.372 -2.8183  0.5013 -3.8305
  200MOL0     H27532  11.010   6.621   8.447 -0.2469 -2.1512 -0.9268
  200MOL0     H27533  11.255   6.414   8.159 -0.1235  1.9615 -1.8935
  200MOL0     H27534  11.332   6.377   8.305  0.7301 -0.7407 -1.4603
  200MOL0     H27535  11.389   6.598   8.113 -0.7390  1.9840  1.7506
  200MOL0     H27536  11.432   6.628   8.279 -2.4891 -0.4816  1.0969
  200MOL0     H27537  11.616   6.562   8.170  0.1769  1.1045  2.6882
  200MOL0     H27538  11.570   6.425   8.279 -0.8806 -1.4837 -0.4669
  200MOL0     H27539  11.462   6.301   8.106  0.9884 -1.9065 -1.1486
  200MOL0     H27540  11.484   6.426   7.989 -0.4608 -1.4163  1.0011
  200MOL0     H27541  11.677   6.233   8.121 -0.4902 -1.3847 -0.3677
  200MOL0     H27542  11.731   6.370   8.027  0.7897 -1.0765  1.2778
  200MOL0     H27543  11.546   6.153   7.930  2.3681 -1.4439  2.4854
  200MOL0     H27544  11.602   6.292   7.828  0.7484 -1.0957 -1.8846
  200MOL0     H27545  11.845   6.214   7.879 -0.1010  0.0717  2.1023
  200MOL0     H27546  11.753   6.109   7.768  0.4496 -2.4179 -0.0588
  200MOL0     H27547  11.740   6.057   8.063 -0.7161  2.4936 -1.1676
  200MOL0     H27548  11.706   5.949   7.932 -2.0911  1.6169 -1.4716
  200MOL0     H27549  11.971   5.922   7.762  1.0519 -2.7679 -0.3050
  200MOL0     H27550  12.179   5.795   7.749  0.6975 -0.6345 -0.2987
  200MOL0     H27551  12.204   5.706   7.903  1.2691  1.4332  2.8658
  200MOL0     H27552  12.328   5.978   7.859 -1.8832  0.6654  0.0489
  200MOL0     H27553  12.370   5.861   7.987  1.0045 -1.2606 -0.3597
  200MOL0     H27554  12.459   5.709   7.782  1.4013 -0.0059 -3.3757
  200MOL0     H27555  12.446   5.853   7.694  2.1287  0.7160  1.3308
  200MOL0     H27556  12.577   5.977   7.850 -0.7969  0.2356 -4.0560
  200MOL0     H27557  12.596   5.825   7.954  0.9921 -0.7410  0.1062
  200MOL0     H27558  12.834   5.993   7.911 -2.8267 -0.2504 -0.6674
  200MOL0     H27559  13.005   6.144   7.929 -2.2520 -0.1461 -3.3794
  200MOL0     H27560  13.119   6.186   7.809  1.0279 -0.5808 -0.6554
  200MOL0     H27561  13.159   6.058   7.926 -3.6871  0.0303  5.1763
  200MOL0     H27562  13.291   6.181   7.375 -0.1034  0.0225 -0.7699
  200MOL0     H27563  13.515   6.237   7.276  0.4144 -0.2979  0.1337
  200MOL0     H27564  13.744   6.259   7.217  0.2501  0.3768  1.2353
  200MOL0     H27565  13.778   6.236   7.393 -0.7692  1.8162 -0.4004
  200MOL0     H27566  13.969   6.167   7.153  0.6656  0.1980 -0.4891
  200MOL0     H27567  13.988   6.295   7.276  1.5640 -1.6942  0.0864
  200MOL0     H27568  13.995   5.999   7.318 -0.9516  0.1380  1.0104
  200MOL0     H27569  14.004   6.118   7.459 -1.1194  2.1025 -0.3734
  200MOL0     H27570  14.222   6.194   7.324  1.5823 -0.6428  0.8739
  200MOL0     H27571  14.200   6.036   7.246 -0.1012 -0.0077  0.0179
  200MOL0     H27572  14.228   6.092   7.545  2.0815  0.5282 -0.6880
  200MOL0     H27573  14.181   5.938   7.478  0.3147 -1.1806  1.1845
  200MOL0     H27574  14.446   6.083   7.405 -1.0221 -0.3525 -0.7277
  200MOL0     H27575  14.401   5.916   7.369  2.0860  0.2286  0.4696
  200MOL0     H27576  14.447   5.845   7.594  0.3890 -0.7279 -2.1221
  200MOL0     H27577  14.422   6.004   7.662  0.6458  1.0702  0.5142
  200MOL0     H27578  14.677   5.931   7.507  0.1424  0.0953  1.3314
  200MOL0     H27579  14.654   5.925   7.671 -1.8028  1.2366  2.8845
  200MOL0     H27580  13.654   5.838   7.358  0.1880  0.8985 -1.8986
  200MOL0     H27581  13.430   5.792   7.467  0.8843  0.3877  2.3462
  200MOL0     H27582  13.029   5.803   7.486 -0.3552  1.4500  0.1272
  200MOL0     H27583  12.806   5.743   7.558  0.0828  0.1563 -1.0660
  200MOL0     H27584  11.164   6.624   8.063  0.5534 -0.7326  2.2408
  200MOL0     H27585  10.977   6.763   7.983  3.5849 -3.9790 -1.7814
  200MOL0     H27586  10.572   6.865   7.980  1.0191  0.4738 -2.6329
  200MOL0     H27587  10.369   6.944   7.894  2.3236 -1.7895 -0.3660
  200MOL0     H27588  10.169   7.293   8.081  0.4423 -3.7246 -0.9911
  200MOL0     H27589  10.249   7.374   7.954 -0.2375  0.4790  1.9367
  200MOL0     H27590  10.073   7.342   7.802 -0.4648 -1.3556 -0.4930
  200MOL0     H27591   9.990   7.380   7.957  1.3272  1.9708 -0.7022
  200MOL0     H27592  10.009   7.105   7.832  0.8613 -1.1394  1.9949
  200MOL0     H27593   9.975   7.131   8.004 -1.0123  4.0894  2.1550
  200MOL0     H27594   9.769   7.105   7.850 -2.3165  1.1281  1.4649
  200MOL0     H27595   9.787   7.283   7.819 -0.3836  2.4252  2.8018
  200MOL0     H27596   9.697   7.278   8.229  0.6458  3.3163 -1.4949
  200MOL0     H27597  10.400   7.311   8.087  2.2115  0.9560 -0.8160
  200MOL0     H27598  10.624   7.220   8.330 -3.8690 -0.3209 -0.1907
  200MOL0     H27599  10.728   7.302   8.202 -0.6420 -0.2935 -4.3352
  200MOL0     H27600  10.571   7.358   8.243  1.8423  1.2092 -1.8120
  201MOL0     O27601  10.693   8.373   8.634  0.0043 -0.9080  0.2771
  201MOL0     C27602  10.659   8.455   8.720  0.1317  0.4115  0.7644
  201MOL0     O27603  10.729   8.481   8.830 -0.6048  0.3302  0.1598
  201MOL0     C27604  10.853   8.428   8.848 -0.7483  0.9151  0.3999
  201MOL0     C27605  10.965   8.505   8.882 -0.3964  0.2003  1.0598
  201MOL0     C27606  11.088   8.447   8.911  0.2837 -0.5348  0.2064
  201MOL0     C27607  11.097   8.309   8.899  0.7269  0.6384 -0.0070
  201MOL0     O27608  11.215   8.237   8.916 -0.4470 -0.0390 -0.1407
  201MOL0     C27609  11.292   8.277   9.023  0.6893 -0.4934  0.2744
  201MOL0     C27610  11.397   8.173   9.047  0.1638 -0.3542 -0.3902
  201MOL0     C27611  11.450   8.094   8.922 -0.1822 -0.0700  0.5576
  201MOL0     C27612  11.563   8.007   8.956  0.5144 -1.6970 -0.4238
  201MOL0     C27613  11.624   7.967   8.822 -0.0098 -1.0118  0.7992
  201MOL0     C27614  11.730   7.864   8.844  0.5599 -1.0119  0.4132
  201MOL0     C27615  11.803   7.809   8.723 -0.1666 -0.8761  0.7097
  201MOL0     C27616  11.884   7.916   8.640 -0.5876  0.3091 -0.3689
  201MOL0     N27617  11.984   7.984   8.735  0.1743  0.5591  0.4834
  201MOL0     C27618  12.084   7.923   8.796  0.0661  0.3033 -0.5778
  201MOL0     C27619  12.127   8.026   8.872  0.9179 -0.2088  0.5357
  201MOL0     C27620  12.249   8.003   8.959  0.2026  0.0823  0.5271
  201MOL0     C27621  12.367   7.962   8.867 -0.8627 -0.5707 -0.6401
  201MOL0     C27622  12.495   7.958   8.956 -0.5909 -0.3012  0.0613
  201MOL0     C27623  12.618   7.914   8.874 -0.7530 -0.1902 -0.2782
  201MOL0     O27624  12.655   8.038   8.795  0.1860  0.1220  0.5229
  201MOL0     C27625  12.786   8.079   8.806 -0.5309  0.0540 -0.6957
  201MOL0     C27626  12.838   8.105   8.929 -0.5639 -0.4408 -0.0685
  201MOL0     C27627  12.973   8.134   8.948  0.4304  0.1884  0.6805
  201MOL0     C27628  13.013   8.183   9.082 -0.5495  0.7633 -0.2821
  201MOL0     C27629  13.065   8.121   8.835  0.7676 -0.4656 -0.3536
  201MOL0     C27630  13.211   8.146   8.839  0.6304  0.2268  0.3342
  201MOL0     O27631  13.257   8.190   8.955 -0.0327  0.2448 -0.0685
  201MOL0     C27632  13.388   8.223   8.986  0.8931 -0.0819 -0.3612
  201MOL0     C27633  13.410   8.322   9.078 -0.0102 -0.5655  0.1964
  201MOL0     C27634  13.547   8.359   9.113  0.6373  0.7473 -0.0564
  201MOL0     C27635  13.663   8.298   9.055  0.6510  0.7128  0.1314
  201MOL0     O27636  13.781   8.348   9.084 -0.6473  0.2485 -0.2158
  201MOL0     C27637  13.888   8.307   9.001  0.0519  0.3682  0.1521
  201MOL0     C27638  14.024   8.342   9.074  0.3080  0.5875  0.1185
  201MOL0     C27639  14.142   8.326   8.975 -0.4399 -0.2495  0.6415
  201MOL0     C27640  14.259   8.336   9.069 -0.4591  0.5704 -0.3453
  201MOL0     C27641  14.399   8.344   9.005 -0.2723 -0.0038 -0.2962
  201MOL0     C27642  14.422   8.223   8.918  0.1628  0.2744  0.3009
  201MOL0     C27643  14.565   8.213   8.885 -0.9657  0.1359  0.5060
  201MOL0     C27644  14.603   8.073   8.845  0.8534  0.2794 -0.6180
  201MOL0    Cl27645  14.509   8.005   8.715  0.2494  0.4000  0.6001
  201MOL0     C27646  13.632   8.193   8.967  0.2167 -0.0189 -0.1385
  201MOL0     C27647  13.497   8.161   8.936  0.6672  0.7820  0.3259
  201MOL0     O27648  13.272   8.145   8.731  0.7117  0.4895 -0.2359
  201MOL0     C27649  13.007   8.097   8.705  0.0732  0.2155 -0.1883
  201MOL0     C27650  12.873   8.078   8.695 -0.6230  0.8799  0.0374
  201MOL0     N27651  12.057   8.138   8.859 -0.0538 -0.6397  0.8749
  201MOL0     N27652  11.970   8.112   8.769  0.9339  0.1574 -0.2885
  201MOL0     C27653  10.987   8.226   8.856  0.2063 -0.3732 -0.1548
  201MOL0     C27654  10.862   8.287   8.840  0.0372  0.3697 -0.4478
  201MOL0     C27655  10.527   8.517   8.705 -0.0544  0.2401  0.3055
  201MOL0     C27656  10.472   8.542   8.574  0.2632 -0.4570 -0.0603
  201MOL0     C27657  10.341   8.589   8.561 -0.0869  0.4581  0.3616
  201MOL0     C27658  10.258   8.618   8.664 -0.7737 -0.5854  1.0861
  201MOL0     O27659  10.130   8.671   8.652  0.2559 -0.0097  0.1095
  201MOL0     C27660  10.039   8.600   8.568  0.0136 -0.5447 -0.2048
  201MOL0     C27661   9.898   8.639   8.614  0.0436  0.3489 -0.9016
  201MOL0     C27662   9.852   8.781   8.593  0.6614 -0.3554 -0.5356
  201MOL0     C27663   9.713   8.804   8.654  0.7017 -0.1642  0.2514
  201MOL0     C27664   9.669   8.946   8.649 -1.4653  0.1950  0.5212
  201MOL0     C27665   9.643   9.061   8.668  0.1050 -0.0190  0.7582
  201MOL0     C27666  10.314   8.609   8.791 -0.0613  0.5709 -0.3571
  201MOL0     C27667  10.440   8.548   8.812  0.0191 -0.4489  0.0896
  201MOL0     C27668  10.475   8.519   8.956  0.1241  0.1342 -0.7533
  201MOL0     H27669  10.959   8.613   8.889  1.2771  0.4683 -0.9039
  201MOL0     H27670  11.167   8.516   8.940 -0.9657  1.4546 -0.8556
  201MOL0     H27671  11.234   8.299   9.112 -1.1973 -0.8823 -0.8067
  201MOL0     H27672  11.352   8.363   8.993  3.7308 -2.5249  0.0764
  201MOL0     H27673  11.477   8.230   9.094  0.5120  0.7523 -2.2239
  201MOL0     H27674  11.371   8.089   9.113 -0.3775  0.7709  0.8610
  201MOL0     H27675  11.365   8.043   8.877 -0.4816 -0.3346  1.3899
  201MOL0     H27676  11.484   8.166   8.848  0.3590 -0.5823  0.3014
  201MOL0     H27677  11.640   8.048   9.022 -1.2005 -1.4371  1.5155
  201MOL0     H27678  11.524   7.922   9.013  0.2386 -0.8570  0.6796
  201MOL0     H27679  11.659   8.063   8.780 -1.1071 -0.5421  0.9203
  201MOL0     H27680  11.547   7.929   8.755  0.4251  0.8259 -0.8638
  201MOL0     H27681  11.797   7.912   8.915  0.6462 -2.2463  1.1876
  201MOL0     H27682  11.670   7.786   8.891 -3.3203 -0.2413 -2.7037
  201MOL0     H27683  11.730   7.757   8.660 -0.3276  1.3208 -1.0257
  201MOL0     H27684  11.865   7.724   8.754  1.1053  0.6414  2.5698
  201MOL0     H27685  11.926   7.865   8.552 -0.9411  0.1291 -0.4371
  201MOL0     H27686  11.815   7.996   8.612  0.2039  1.6615  1.3489
  201MOL0     H27687  12.118   7.820   8.792  0.8016  0.5511 -0.9411
  201MOL0     H27688  12.237   7.919   9.028  0.5838  0.8234  1.5258
  201MOL0     H27689  12.262   8.089   9.026 -2.2400 -0.3156  1.6293
  201MOL0     H27690  12.345   7.864   8.823 -2.3780 -1.0587  1.0499
  201MOL0     H27691  12.379   8.044   8.796 -1.2340  0.6383  0.6504
  201MOL0     H27692  12.513   8.060   8.989  0.6791 -0.1252 -1.1144
  201MOL0     H27693  12.494   7.901   9.050  2.4501 -0.3772  0.1372
  201MOL0     H27694  12.700   7.887   8.940  1.6370 -0.5173 -3.1607
  201MOL0     H27695  12.602   7.819   8.822 -1.7733 -0.4451  0.4627
  201MOL0     H27696  12.780   8.103   9.021  1.2865 -2.3061  1.1484
  201MOL0     H27697  12.931   8.184   9.155  1.7403 -1.7057  2.5907
  201MOL0     H27698  13.069   8.276   9.081  0.6851  0.0319 -0.5204
  201MOL0     H27699  13.082   8.107   9.120 -1.6412 -0.4126 -0.5612
  201MOL0     H27700  13.329   8.368   9.135  1.5526  1.1451  1.1527
  201MOL0     H27701  13.559   8.429   9.194 -1.0229 -1.2741  2.1073
  201MOL0     H27702  13.886   8.199   8.985 -0.2590  0.6899 -2.5370
  201MOL0     H27703  13.886   8.361   8.906  0.5962  0.3301  0.1169
  201MOL0     H27704  14.032   8.445   9.109  3.1144  1.8338 -3.5401
  201MOL0     H27705  14.036   8.276   9.160  0.3528  2.7832  1.8975
  201MOL0     H27706  14.151   8.405   8.899  1.9019 -0.2612  0.8586
  201MOL0     H27707  14.142   8.230   8.922  0.3429 -0.0994  0.3611
  201MOL0     H27708  14.258   8.247   9.132 -0.3689 -0.6234 -1.9587
  201MOL0     H27709  14.250   8.419   9.139 -3.9965  1.2433 -1.3604
  201MOL0     H27710  14.410   8.438   8.951 -0.9934  1.1036  1.3962
  201MOL0     H27711  14.475   8.346   9.084  1.0856 -3.4449 -1.3307
  201MOL0     H27712  14.372   8.231   8.821  3.4226 -0.4807 -1.5778
  201MOL0     H27713  14.385   8.132   8.966 -1.1932 -0.4064 -1.9004
  201MOL0     H27714  14.626   8.238   8.972 -0.8362  1.9622 -0.0628
  201MOL0     H27715  14.587   8.283   8.803 -0.5727 -0.4868  0.0670
  201MOL0     H27716  14.600   7.997   8.924 -0.5809  0.0549 -0.8668
  201MOL0     H27717  14.706   8.082   8.808  0.9931 -1.6695 -0.7996
  201MOL0     H27718  13.709   8.131   8.921 -0.9642  0.4772 -2.9736
  201MOL0     H27719  13.477   8.075   8.872  0.4200  0.2876  1.0633
  201MOL0     H27720  13.058   8.069   8.613 -0.8990 -0.4923 -0.5405
  201MOL0     H27721  12.814   8.058   8.606 -0.4938  1.1372 -0.1071
  201MOL0     H27722  10.988   8.119   8.839  0.8875 -0.2587 -0.8430
  201MOL0     H27723  10.767   8.236   8.835  0.8748 -1.2505 -0.5822
  201MOL0     H27724  10.538   8.532   8.488  0.2582  2.1906 -0.4628
  201MOL0     H27725  10.294   8.599   8.463  2.5414  5.0432 -0.7647
  201MOL0     H27726  10.057   8.629   8.464 -0.1352  3.2295  0.6819
  201MOL0     H27727  10.048   8.491   8.576 -2.4644 -0.8010  0.0020
  201MOL0     H27728   9.889   8.622   8.721  0.9095  1.8431 -0.5717
  201MOL0     H27729   9.837   8.569   8.556 -0.5337  1.9831 -2.3547
  201MOL0     H27730   9.928   8.847   8.635 -0.0913 -0.9306  1.9052
  201MOL0     H27731   9.843   8.800   8.486 -2.3172  0.5235 -0.2366
  201MOL0     H27732   9.703   8.767   8.757 -2.5585  1.3202  0.5857
  201MOL0     H27733   9.641   8.746   8.596  1.9715  0.0477 -1.6091
  201MOL0     H27734   9.616   9.164   8.672 -0.1009  0.2946 -3.7616
  201MOL0     H27735  10.245   8.640   8.868  0.3231 -0.5101  0.4613
  201MOL0     H27736  10.537   8.430   8.964  0.9860  0.6477 -1.4381
  201MOL0     H27737  10.531   8.600   9.003 -0.2683 -0.9416  1.6999
  201MOL0     H27738  10.383   8.507   9.014  1.8840 -2.3349  1.7639
  202MOL0     O27739   5.508   1.872   9.270  0.4051  0.5397 -0.4056
  202MOL0     C27740   5.456   1.983   9.282  0.2775 -0.3911 -0.1183
  202MOL0     O27741   5.514   2.094   9.338 -0.0274 -0.6903  0.4881
  202MOL0     C27742   5.634   2.087   9.390  0.4207 -0.3859 -0.3379
  202MOL0     C27743   5.645   2.061   9.525 -0.6738  0.2317 -0.4227
  202MOL0     C27744   5.772   2.051   9.585  0.2278  0.0515  0.2209
  202MOL0     C27745   5.887   2.062   9.512 -0.5745  0.1531  0.5771
  202MOL0     O27746   6.003   2.035   9.577 -0.1465 -0.1367 -0.0864
  202MOL0     C27747   6.130   2.072   9.512  0.5665  0.0402 -0.5725
  202MOL0     C27748   6.253   2.018   9.589  0.0399 -0.8953  0.7235
  202MOL0     C27749   6.230   2.072   9.728  0.0361 -0.5908  0.8990
  202MOL0     C27750   6.357   2.065   9.810  0.1856  0.4880 -0.4289
  202MOL0     C27751   6.330   2.122   9.944  0.0496 -0.1948 -0.2760
  202MOL0     C27752   6.468   2.141  10.015 -0.6948 -0.3083  0.7922
  202MOL0     C27753   6.454   2.250  10.124  0.9497  0.1036  0.1093
  202MOL0     C27754   6.571   2.251  10.226  0.3805 -0.2077  0.3905
  202MOL0     N27755   6.664   2.358  10.201  0.4746  0.2355  0.6408
  202MOL0     C27756   6.792   2.336  10.177  0.8857 -0.3615  0.5561
  202MOL0     C27757   6.841   2.469  10.152 -0.5298  0.9479  0.6423
  202MOL0     C27758   6.987   2.506  10.114  0.0411  0.4687 -0.3102
  202MOL0     C27759   7.073   2.510  10.243 -0.1584  1.6248  1.0456
  202MOL0     C27760   7.223   2.496  10.203 -0.1273  0.1385 -0.0342
  202MOL0     C27761   7.302   2.495  10.331  1.5743  0.6559  0.0538
  202MOL0     O27762   7.443   2.461  10.324 -0.2105 -0.0071 -0.0759
  202MOL0     C27763   7.524   2.492  10.435 -0.0732  0.8702 -0.1404
  202MOL0     C27764   7.476   2.517  10.561  0.3216  0.1944  0.2177
  202MOL0     C27765   7.560   2.551  10.668 -0.5175  0.3476  0.1114
  202MOL0     C27766   7.496   2.604  10.794 -0.4110 -0.0987 -0.2330
  202MOL0     C27767   7.698   2.526  10.658 -0.2859  0.4056  0.1773
  202MOL0     C27768   7.811   2.548  10.761  0.2108 -0.3083 -0.1644
  202MOL0     O27769   7.773   2.577  10.889  0.0508  0.3992  0.6789
  202MOL0     C27770   7.866   2.591  10.990 -0.0207  0.1318 -0.2482
  202MOL0     C27771   7.941   2.484  11.038  0.7639 -0.3273 -0.5077
  202MOL0     C27772   8.029   2.496  11.145 -0.2040  0.2981 -0.7252
  202MOL0     C27773   8.063   2.620  11.190  0.0768 -0.1478  0.6777
  202MOL0     O27774   8.162   2.642  11.279 -0.3789  0.6064 -0.6435
  202MOL0     C27775   8.265   2.542  11.285  0.3497 -0.5207 -0.9702
  202MOL0     C27776   8.385   2.583  11.376 -0.4344 -1.3853 -0.0565
  202MOL0     C27777   8.460   2.712  11.314  0.0013  0.6533  0.2704
  202MOL0     C27778   8.577   2.759  11.402  0.1554  0.0821  0.0182
  202MOL0     C27779   8.683   2.850  11.336  0.0358 -0.3130  0.2993
  202MOL0     C27780   8.801   2.893  11.434  0.6263  0.1018  1.4303
  202MOL0     C27781   8.905   2.966  11.348  0.0113 -0.2833 -1.0079
  202MOL0     C27782   8.999   3.057  11.430  0.7439  0.6669  0.5455
  202MOL0    Cl27783   9.101   2.944  11.541  0.3088 -0.0790  0.1808
  202MOL0     C27784   7.985   2.732  11.151 -0.3252 -0.1621  0.2824
  202MOL0     C27785   7.897   2.716  11.042 -0.4853 -0.4806 -0.5099
  202MOL0     O27786   7.928   2.541  10.726  0.4753  0.3850  0.0830
  202MOL0     C27787   7.744   2.492  10.530 -0.6080 -0.2839  0.4753
  202MOL0     C27788   7.661   2.481  10.424 -1.0794  0.5137  0.4530
  202MOL0     N27789   6.737   2.560  10.164  0.2713 -0.5560 -0.0929
  202MOL0     N27790   6.632   2.490  10.192  0.0719  1.1428 -0.0216
  202MOL0     C27791   5.877   2.106   9.373 -0.6165  0.7372 -0.1947
  202MOL0     C27792   5.749   2.102   9.310 -0.4760  0.3946 -0.4352
  202MOL0     C27793   5.317   2.015   9.236  0.7919 -0.4457  0.4376
  202MOL0     C27794   5.252   2.139   9.264 -0.5186  0.3150  0.1970
  202MOL0     C27795   5.122   2.163   9.222  0.0469  0.4200 -0.5812
  202MOL0     C27796   5.042   2.069   9.167  0.2135  0.6143 -0.3444
  202MOL0     O27797   4.909   2.088   9.132 -0.2860  0.8093  1.1964
  202MOL0     C27798   4.854   2.216   9.105 -0.5844 -0.3627  0.2919
  202MOL0     C27799   4.764   2.199   8.982  1.1250  0.2580  1.5003
  202MOL0     C27800   4.619   2.184   9.020 -0.1508 -0.8870  0.0510
  202MOL0     C27801   4.586   2.056   9.108  0.2225  0.8597 -0.4175
  202MOL0     C27802   4.447   2.072   9.155 -0.7428  0.2530 -0.0749
  202MOL0     C27803   4.337   2.097   9.192  0.9487 -0.6025 -0.4599
  202MOL0     C27804   5.105   1.947   9.130  0.0711 -0.1045  0.0216
  202MOL0     C27805   5.235   1.914   9.174 -0.6232  0.5660 -0.4460
  202MOL0     C27806   5.281   1.768   9.141  0.1551 -0.0657  0.5536
  202MOL0     H27807   5.577   2.042   9.607  0.7409  0.6353  0.9051
  202MOL0     H27808   5.774   2.016   9.688  2.5131 -3.6995 -0.9138
  202MOL0     H27809   6.133   2.181   9.501  1.6982  0.0197 -0.5909
  202MOL0     H27810   6.134   2.027   9.412 -2.3198 -0.4513 -0.5356
  202MOL0     H27811   6.256   1.909   9.582  0.0838 -0.7816 -2.6393
  202MOL0     H27812   6.344   2.066   9.552  0.8598 -1.0785  2.3878
  202MOL0     H27813   6.200   2.177   9.731 -1.0419 -0.8578 -0.1036
  202MOL0     H27814   6.144   2.022   9.772 -0.9681  0.7072  0.4670
  202MOL0     H27815   6.390   1.960   9.811 -0.5365  0.2400 -1.4207
  202MOL0     H27816   6.438   2.117   9.759 -0.1217  1.3181 -0.0917
  202MOL0     H27817   6.267   2.056  10.004 -1.9338  1.0116 -0.9615
  202MOL0     H27818   6.284   2.220   9.933  0.0414 -0.3483 -1.8176
  202MOL0     H27819   6.506   2.048  10.059 -1.3980 -1.5221 -1.0475
  202MOL0     H27820   6.544   2.173   9.944 -1.6092 -1.2749 -0.6785
  202MOL0     H27821   6.365   2.235  10.185  1.1727  1.6037  0.8414
  202MOL0     H27822   6.436   2.350  10.083 -1.2315  0.3159  1.4185
  202MOL0     H27823   6.527   2.278  10.322  0.9158 -0.9358  0.8524
  202MOL0     H27824   6.608   2.151  10.253  1.9422  0.3776  0.5152
  202MOL0     H27825   6.840   2.239  10.173 -1.4556 -1.5383 -0.4099
  202MOL0     H27826   6.985   2.606  10.070 -1.5098 -0.0124 -1.4328
  202MOL0     H27827   7.022   2.431  10.044 -2.8579  1.1221 -2.6579
  202MOL0     H27828   7.050   2.600  10.301 -1.2452  0.0301  3.2187
  202MOL0     H27829   7.040   2.417  10.289  3.2466  0.4282  1.4017
  202MOL0     H27830   7.246   2.400  10.156  1.2441 -0.5014  1.8397
  202MOL0     H27831   7.251   2.576  10.134 -1.2254  0.7682  0.2196
  202MOL0     H27832   7.287   2.596  10.368 -1.4522  0.0096  0.8882
  202MOL0     H27833   7.248   2.425  10.396  3.0104  0.4812  1.0989
  202MOL0     H27834   7.369   2.533  10.571  0.5916  2.2054  0.2260
  202MOL0     H27835   7.514   2.531  10.873 -1.2440  1.2676  1.2846
  202MOL0     H27836   7.387   2.614  10.785 -0.4494  0.9750  1.1385
  202MOL0     H27837   7.546   2.696  10.825  1.0362 -1.2846  1.1423
  202MOL0     H27838   7.912   2.384  11.004 -1.0329 -0.2948  0.7526
  202MOL0     H27839   8.079   2.406  11.181  1.0998  1.4961  0.5983
  202MOL0     H27840   8.228   2.448  11.327 -1.0598  1.2362  2.0578
  202MOL0     H27841   8.296   2.530  11.181  1.3479 -0.6585 -0.6649
  202MOL0     H27842   8.353   2.608  11.478  1.2700 -1.7272  0.6010
  202MOL0     H27843   8.458   2.502  11.374  0.8717 -0.2380 -0.6013
  202MOL0     H27844   8.395   2.799  11.298 -1.3138 -0.2322  0.5851
  202MOL0     H27845   8.507   2.682  11.220  1.8284 -2.5417  2.0272
  202MOL0     H27846   8.628   2.673  11.449 -2.2170 -0.5042  1.7505
  202MOL0     H27847   8.527   2.811  11.485  2.4372  0.9310  0.9434
  202MOL0     H27848   8.725   2.792  11.252 -0.6004  0.5186 -0.6131
  202MOL0     H27849   8.624   2.926  11.284 -0.3783 -1.5115 -1.0665
  202MOL0     H27850   8.830   2.803  11.489 -0.4978 -0.4298  1.1829
  202MOL0     H27851   8.773   2.958  11.517 -0.1544  1.5285  0.1017
  202MOL0     H27852   8.857   3.027  11.270 -1.3381 -0.8190 -0.6129
  202MOL0     H27853   8.964   2.890  11.296  0.8188 -0.3544 -0.0168
  202MOL0     H27854   8.942   3.128  11.491 -2.1518 -0.9996 -0.0389
  202MOL0     H27855   9.074   3.098  11.362 -0.6701 -1.0311 -2.2231
  202MOL0     H27856   8.015   2.829  11.190 -1.5616  0.8813 -1.2373
  202MOL0     H27857   7.852   2.808  11.005  0.1371 -1.6378 -4.5256
  202MOL0     H27858   7.848   2.461  10.521 -1.1056 -1.6604 -0.7618
  202MOL0     H27859   7.709   2.468  10.327  0.2496 -0.1934  1.1781
  202MOL0     H27860   5.968   2.129   9.318  0.1760 -1.9911 -0.1634
  202MOL0     H27861   5.734   2.119   9.204  1.6309 -0.1619 -0.8622
  202MOL0     H27862   5.296   2.212   9.330 -0.3581  2.4880 -2.1517
  202MOL0     H27863   5.071   2.256   9.245 -1.6076  0.2991 -3.3314
  202MOL0     H27864   4.801   2.235   9.199  1.0397 -5.0088  2.4754
  202MOL0     H27865   4.927   2.294   9.084 -0.5265 -0.1524  1.2505
  202MOL0     H27866   4.803   2.117   8.920 -0.3624  0.1460  0.6773
  202MOL0     H27867   4.768   2.287   8.918 -1.1220 -1.2638 -0.9651
  202MOL0     H27868   4.589   2.277   9.070  3.2931  0.9857 -1.0254
  202MOL0     H27869   4.557   2.179   8.930 -1.8538  1.2440  1.0013
  202MOL0     H27870   4.651   2.043   9.195 -1.7705 -1.7623  0.8304
  202MOL0     H27871   4.588   1.967   9.044 -1.1319 -0.6252  1.4783
  202MOL0     H27872   4.234   2.110   9.217  0.4704  0.9536 -2.9169
  202MOL0     H27873   5.053   1.866   9.080 -0.9100 -0.8611  2.1552
  202MOL0     H27874   5.194   1.709   9.111 -1.4915  1.7475  1.5127
  202MOL0     H27875   5.355   1.770   9.061 -0.4222  2.3122  0.0195
  202MOL0     H27876   5.330   1.730   9.232  1.2329 -0.2554 -0.0858
  203MOL0     O27877   9.161   5.655   1.876 -0.0877 -0.7815 -0.3097
  203MOL0     C27878   9.148   5.776   1.865 -0.2562  0.4908 -0.6273
  203MOL0     O27879   9.254   5.861   1.854 -0.2536  0.0997  0.4134
  203MOL0     C27880   9.385   5.809   1.825 -0.4959  0.0430 -0.6630
  203MOL0     C27881   9.414   5.700   1.737  0.1204 -0.3517 -0.5240
  203MOL0     C27882   9.543   5.648   1.718  0.2442 -0.0011  0.0211
  203MOL0     C27883   9.649   5.714   1.782  0.3583  0.3506  0.1155
  203MOL0     O27884   9.771   5.663   1.754 -0.0209 -0.2795 -0.1626
  203MOL0     C27885   9.856   5.653   1.867  0.0121 -0.2955 -0.1484
  203MOL0     C27886   9.991   5.586   1.831 -0.0073 -0.2569 -0.1806
  203MOL0     C27887  10.076   5.690   1.751 -0.0499  1.0093  0.3058
  203MOL0     C27888  10.207   5.620   1.725 -0.4175 -0.2919  0.5012
  203MOL0     C27889  10.318   5.717   1.654  0.1422  0.7023 -0.6275
  203MOL0     C27890  10.453   5.646   1.631 -0.1593  0.2993 -0.6171
  203MOL0     C27891  10.548   5.634   1.746 -0.1970  0.2153 -0.6608
  203MOL0     C27892  10.673   5.544   1.716 -0.1193 -0.2661 -0.2801
  203MOL0     N27893  10.753   5.596   1.606 -0.2515 -0.1230  0.7284
  203MOL0     C27894  10.813   5.717   1.608 -0.8963  0.2039  0.7182
  203MOL0     C27895  10.853   5.754   1.479 -0.5717 -0.2784  0.8123
  203MOL0     C27896  10.901   5.890   1.428  0.1934  0.4422  0.3284
  203MOL0     C27897  11.053   5.899   1.433  0.7348  0.3280 -0.7742
  203MOL0     C27898  11.111   5.842   1.303  0.5776 -0.6810  0.2768
  203MOL0     C27899  11.253   5.808   1.308  0.5845 -0.0471 -0.5937
  203MOL0     O27900  11.281   5.692   1.389  0.8113 -0.1916  0.8840
  203MOL0     C27901  11.404   5.674   1.433  0.5897  1.4493  0.4181
  203MOL0     C27902  11.423   5.555   1.503 -0.2754 -0.3467 -0.2738
  203MOL0     C27903  11.552   5.524   1.556  0.4418  1.6102 -0.0226
  203MOL0     C27904  11.548   5.397   1.640  0.2826 -0.9584 -0.4720
  203MOL0     C27905  11.658   5.605   1.525  0.0893 -0.1385 -0.2829
  203MOL0     C27906  11.796   5.568   1.567 -0.0970  0.1095  0.3486
  203MOL0     O27907  11.887   5.673   1.567 -0.2732  0.5529 -0.4455
  203MOL0     C27908  12.006   5.669   1.636  0.5082  0.4831 -0.8491
  203MOL0     C27909  12.031   5.576   1.738  0.0066 -0.2062  0.1085
  203MOL0     C27910  12.159   5.563   1.798  0.3435 -0.2486  0.1125
  203MOL0     C27911  12.257   5.640   1.754  0.3625 -0.2124 -0.3493
  203MOL0     O27912  12.374   5.625   1.827 -0.6115 -0.2587 -0.1678
  203MOL0     C27913  12.482   5.612   1.731  0.8278  0.5404 -0.5316
  203MOL0     C27914  12.610   5.573   1.815 -0.5799  1.1440 -0.3474
  203MOL0     C27915  12.733   5.577   1.724  0.1328  0.2923 -0.5105
  203MOL0     C27916  12.778   5.714   1.691  0.8159 -0.0130  0.2823
  203MOL0     C27917  12.858   5.783   1.803 -0.2648 -0.0961  0.1929
  203MOL0     C27918  12.977   5.704   1.838  0.0955  0.3677 -0.1049
  203MOL0     C27919  13.082   5.776   1.913  0.1883 -0.4276  0.1898
  203MOL0     C27920  13.187   5.685   1.976  0.5383 -0.3038  0.5061
  203MOL0    Cl27921  13.288   5.593   1.859  0.2155  0.0989  0.3370
  203MOL0     C27922  12.233   5.737   1.653 -0.0404 -0.5495  0.3466
  203MOL0     C27923  12.105   5.752   1.600 -0.4516  0.2376 -0.3875
  203MOL0     O27924  11.829   5.448   1.611 -0.2841 -0.7531  0.1765
  203MOL0     C27925  11.639   5.729   1.465  1.0933 -0.5722  0.0753
  203MOL0     C27926  11.513   5.759   1.408  0.1202 -0.3555 -0.6993
  203MOL0     N27927  10.806   5.650   1.399 -0.1098  0.6964  0.1412
  203MOL0     N27928  10.758   5.554   1.473 -0.0300 -0.2878 -0.3830
  203MOL0     C27929   9.621   5.829   1.858 -0.0300 -0.1947  0.0336
  203MOL0     C27930   9.495   5.871   1.890  0.4047 -0.3814  0.4874
  203MOL0     C27931   9.007   5.827   1.867  0.0158 -0.4292 -0.2809
  203MOL0     C27932   8.922   5.758   1.950  0.0876 -0.3154 -0.7740
  203MOL0     C27933   8.787   5.801   1.956  0.1618 -0.2891 -0.0385
  203MOL0     C27934   8.744   5.916   1.882 -0.2012 -0.5520  0.2774
  203MOL0     O27935   8.614   5.952   1.885  0.3364 -0.6203  0.3988
  203MOL0     C27936   8.551   5.977   1.756 -0.6208  0.3213 -0.0114
  203MOL0     C27937   8.399   5.979   1.776  0.0950  0.3203 -0.9915
  203MOL0     C27938   8.334   5.967   1.636 -0.0400  0.8692  0.1501
  203MOL0     C27939   8.321   6.105   1.561 -0.0425  0.4719 -1.0858
  203MOL0     C27940   8.205   6.192   1.585 -0.0477 -0.4121 -0.1022
  203MOL0     C27941   8.119   6.273   1.611  0.6069 -0.1006 -0.8713
  203MOL0     C27942   8.833   5.985   1.803  0.7183  0.0574 -0.3741
  203MOL0     C27943   8.967   5.935   1.792  0.5330  0.0812  0.2480
  203MOL0     C27944   9.051   5.997   1.687  0.0081  0.4767  0.2889
  203MOL0     H27945   9.335   5.647   1.685  0.8126 -1.0640 -0.8816
  203MOL0     H27946   9.560   5.569   1.645  1.4612 -2.8313  3.1312
  203MOL0     H27947   9.800   5.590   1.938 -1.0577 -0.4182 -1.0850
  203MOL0     H27948   9.887   5.748   1.911  0.5068 -1.4344  2.1135
  203MOL0     H27949  10.043   5.570   1.926 -2.5782  1.2756  1.5956
  203MOL0     H27950   9.963   5.493   1.781  0.1263  0.3082 -1.3361
  203MOL0     H27951  10.025   5.698   1.655  1.8454 -1.7965 -1.0761
  203MOL0     H27952  10.090   5.789   1.795  1.3420  0.5324  0.9972
  203MOL0     H27953  10.258   5.583   1.814 -0.2914 -2.3533 -0.3869
  203MOL0     H27954  10.195   5.530   1.664 -3.0483  1.2530 -1.4874
  203MOL0     H27955  10.334   5.793   1.730  2.6677 -2.4243  2.2725
  203MOL0     H27956  10.275   5.750   1.559 -1.0752  0.5211 -0.1547
  203MOL0     H27957  10.435   5.542   1.601 -1.5514  0.1418  0.6706
  203MOL0     H27958  10.506   5.693   1.547 -0.2881 -0.7945 -1.3372
  203MOL0     H27959  10.499   5.597   1.837  0.4324  2.4797  0.6816
  203MOL0     H27960  10.575   5.733   1.782  1.3863 -1.0787  2.0916
  203MOL0     H27961  10.728   5.536   1.811 -0.1671  2.0208 -0.0060
  203MOL0     H27962  10.646   5.442   1.689 -2.9391 -0.1618  1.7002
  203MOL0     H27963  10.825   5.778   1.697 -0.6464  1.4790 -0.1723
  203MOL0     H27964  10.859   5.967   1.493  2.4844  0.4731  1.8797
  203MOL0     H27965  10.857   5.898   1.328 -1.9155  1.2970  1.2650
  203MOL0     H27966  11.083   6.004   1.432  1.5986  0.0870 -1.0834
  203MOL0     H27967  11.105   5.849   1.515  0.0487  0.0695 -0.4895
  203MOL0     H27968  11.056   5.752   1.275  0.9518 -0.4323 -1.3852
  203MOL0     H27969  11.091   5.918   1.226 -1.7507 -1.8818 -0.3899
  203MOL0     H27970  11.304   5.814   1.212  1.0065  1.3499 -0.3042
  203MOL0     H27971  11.293   5.894   1.364  0.5403 -0.9771  0.9184
  203MOL0     H27972  11.339   5.490   1.526  1.0083 -1.8865  0.2076
  203MOL0     H27973  11.526   5.305   1.584 -1.2404 -0.0911 -1.3878
  203MOL0     H27974  11.461   5.398   1.707  0.9770  1.0593  0.4751
  203MOL0     H27975  11.638   5.390   1.701  0.1547  3.1570  0.4683
  203MOL0     H27976  11.962   5.498   1.771  1.0576 -1.4311 -0.5203
  203MOL0     H27977  12.167   5.489   1.877 -2.3090 -1.2081 -0.4230
  203MOL0     H27978  12.457   5.523   1.672 -2.2631  0.8307  0.1441
  203MOL0     H27979  12.489   5.704   1.674 -1.9687  1.0854 -0.1383
  203MOL0     H27980  12.627   5.642   1.897  3.4555  0.6608 -0.5733
  203MOL0     H27981  12.590   5.469   1.845 -1.7104  0.9185 -1.7530
  203MOL0     H27982  12.698   5.529   1.632 -0.1112  0.6504 -0.6067
  203MOL0     H27983  12.821   5.517   1.750  0.3786 -0.2252 -2.3650
  203MOL0     H27984  12.697   5.775   1.649  0.0529 -1.8394 -1.0005
  203MOL0     H27985  12.846   5.707   1.606 -2.2205  0.4365 -2.3511
  203MOL0     H27986  12.878   5.885   1.770  1.7179 -0.5577 -0.1593
  203MOL0     H27987  12.798   5.799   1.893 -1.2981  0.2884 -0.5408
  203MOL0     H27988  13.035   5.660   1.756  0.7558 -0.3425  0.7221
  203MOL0     H27989  12.950   5.625   1.908  2.1531 -1.0065 -0.7503
  203MOL0     H27990  13.032   5.830   1.994 -0.0817 -1.9146  1.0506
  203MOL0     H27991  13.126   5.849   1.844 -2.5240  1.5309  0.3974
  203MOL0     H27992  13.141   5.622   2.053  0.2954 -1.6255 -0.6821
  203MOL0     H27993  13.253   5.756   2.026 -0.1175  2.1481 -1.8939
  203MOL0     H27994  12.301   5.813   1.616 -0.9383  0.2804  0.3623
  203MOL0     H27995  12.081   5.823   1.521 -1.2339  0.1331 -0.2506
  203MOL0     H27996  11.725   5.793   1.447 -1.9045  3.6616 -0.5866
  203MOL0     H27997  11.502   5.851   1.350  0.9267  0.3967  0.3031
  203MOL0     H27998   9.700   5.893   1.896 -0.2031 -1.1366  2.0852
  203MOL0     H27999   9.484   5.966   1.940  1.0703  0.1680 -0.3710
  203MOL0     H28000   8.951   5.673   2.010 -0.9394 -0.6612 -0.7359
  203MOL0     H28001   8.716   5.741   2.012  0.7375 -1.4216 -0.5040
  203MOL0     H28002   8.585   6.073   1.715  1.4917  0.6925  2.3835
  203MOL0     H28003   8.580   5.902   1.683  0.8341  0.3476  0.5178
  203MOL0     H28004   8.371   6.068   1.832  0.9174 -0.7212  1.1867
  203MOL0     H28005   8.368   5.890   1.832 -1.6452  0.4763 -1.6729
  203MOL0     H28006   8.382   5.896   1.567  2.5721  2.3503  0.3590
  203MOL0     H28007   8.234   5.923   1.643  0.7207 -1.0664 -0.4345
  203MOL0     H28008   8.329   6.094   1.452  2.8867 -1.6698 -0.7812
  203MOL0     H28009   8.413   6.156   1.590  1.6712 -2.5778 -0.7164
  203MOL0     H28010   8.037   6.338   1.634  0.6627 -0.7821  1.5694
  203MOL0     H28011   8.807   6.067   1.737 -1.4501 -1.0619 -1.0054
  203MOL0     H28012   9.088   5.918   1.621  4.5096  3.4162 -1.1769
  203MOL0     H28013   8.993   6.075   1.637 -0.3352  1.0943  1.5887
  203MOL0     H28014   9.138   6.048   1.731 -0.7218  5.1017 -2.9413
  204MOL0     O28015   8.217   8.850   4.659 -0.6512 -0.1268  0.0585
  204MOL0     C28016   8.160   8.777   4.739 -0.4867  1.1217 -0.0454
  204MOL0     O28017   8.230   8.728   4.844  0.8124 -0.2889  0.1566
  204MOL0     C28018   8.354   8.773   4.861 -0.5211  0.0433 -0.8660
  204MOL0     C28019   8.387   8.850   4.979  0.0214  0.4945  0.3175
  204MOL0     C28020   8.514   8.890   5.000 -0.3601 -0.2365 -0.5448
  204MOL0     C28021   8.613   8.871   4.903 -0.1272 -0.0608 -0.7371
  204MOL0     O28022   8.742   8.915   4.916  0.3690 -0.0639 -0.3625
  204MOL0     C28023   8.774   9.022   4.827 -0.2438 -0.4487  1.0177
  204MOL0     C28024   8.921   9.042   4.814  1.1985 -0.2315 -1.2726
  204MOL0     C28025   8.955   8.945   4.703  0.5237  0.2899 -0.4745
  204MOL0     C28026   9.102   8.958   4.669 -0.3568  0.0802 -0.3783
  204MOL0     C28027   9.141   8.859   4.564  0.0657  1.0695  0.1264
  204MOL0     C28028   9.294   8.859   4.532  0.5620  0.5576  0.2106
  204MOL0     C28029   9.327   8.728   4.464 -0.0570 -0.1992 -0.6795
  204MOL0     C28030   9.457   8.753   4.390 -0.3843 -0.0789  0.0136
  204MOL0     N28031   9.574   8.813   4.463 -0.9302  0.5541  0.4360
  204MOL0     C28032   9.616   8.781   4.590 -0.5664  0.6699 -0.2223
  204MOL0     C28033   9.734   8.839   4.601  0.6947  0.0642 -0.2860
  204MOL0     C28034   9.839   8.811   4.705  0.0471 -0.6028 -0.3787
  204MOL0     C28035   9.807   8.687   4.785 -0.4031  0.3561  0.0118
  204MOL0     C28036   9.917   8.649   4.883 -0.3685  0.7686 -0.2212
  204MOL0     C28037  10.046   8.583   4.820  0.5316  1.0448 -0.3220
  204MOL0     O28038  10.019   8.447   4.784 -0.5994 -0.4715  0.2100
  204MOL0     C28039  10.118   8.360   4.758 -0.2568  0.1431 -0.7715
  204MOL0     C28040  10.237   8.394   4.713  0.1450 -0.6036  1.0960
  204MOL0     C28041  10.332   8.301   4.682 -0.6133  0.6819 -0.6719
  204MOL0     C28042  10.460   8.360   4.647 -0.4732  0.4972 -0.0950
  204MOL0     C28043  10.308   8.164   4.700 -0.8094 -0.5982  0.5060
  204MOL0     C28044  10.414   8.072   4.674 -0.8024  0.1462 -0.5615
  204MOL0     O28045  10.537   8.103   4.719  0.1425 -0.1699  0.1080
  204MOL0     C28046  10.623   7.991   4.723  0.5917 -0.1943  0.5633
  204MOL0     C28047  10.596   7.882   4.805  0.6630 -0.1969 -0.0895
  204MOL0     C28048  10.680   7.777   4.812  0.6296 -0.0183 -0.1844
  204MOL0     C28049  10.780   7.756   4.721  0.4532 -0.0546  0.2238
  204MOL0     O28050  10.839   7.631   4.705  0.1982 -0.4984  0.1082
  204MOL0     C28051  10.881   7.580   4.585 -0.0243  0.0051  0.1998
  204MOL0     C28052  10.854   7.426   4.570  0.0271 -0.0525 -0.6968
  204MOL0     C28053  10.704   7.397   4.555 -0.8220  0.0967  0.8586
  204MOL0     C28054  10.686   7.246   4.539 -0.0573 -0.0529  1.4934
  204MOL0     C28055  10.545   7.200   4.539 -0.7539 -0.8442  0.0740
  204MOL0     C28056  10.446   7.257   4.433 -0.5020  0.3422 -0.7206
  204MOL0     C28057  10.297   7.250   4.471  0.5441 -0.2312 -0.5202
  204MOL0     C28058  10.214   7.263   4.345  0.2931 -0.1935  0.4753
  204MOL0    Cl28059  10.213   7.104   4.238 -0.0541 -0.2196  0.0333
  204MOL0     C28060  10.806   7.862   4.627  0.2169 -0.1715  0.4869
  204MOL0     C28061  10.726   7.981   4.628  0.0243 -0.0238 -0.9711
  204MOL0     O28062  10.380   7.961   4.623 -0.4819  0.0874  0.0716
  204MOL0     C28063  10.186   8.129   4.756  0.5421 -0.4805 -0.6056
  204MOL0     C28064  10.092   8.228   4.784  0.8173  0.4688  0.4324
  204MOL0     N28065   9.752   8.915   4.495  0.9732  0.3901 -0.2658
  204MOL0     N28066   9.656   8.915   4.426  0.1263 -0.4177  0.4764
  204MOL0     C28067   8.587   8.790   4.794  0.6286 -0.5204 -0.3844
  204MOL0     C28068   8.459   8.741   4.770 -0.5240  0.9875 -0.2667
  204MOL0     C28069   8.019   8.737   4.713  0.0438  0.3645 -0.0571
  204MOL0     C28070   7.952   8.792   4.600  0.0395 -0.3350 -0.3461
  204MOL0     C28071   7.816   8.780   4.575  1.1301 -0.2711  0.7934
  204MOL0     C28072   7.737   8.701   4.661 -0.2259 -0.0979  0.2899
  204MOL0     O28073   7.606   8.691   4.622  0.7445  0.7414  1.0120
  204MOL0     C28074   7.515   8.589   4.677 -0.9054  0.0348 -0.1728
  204MOL0     C28075   7.395   8.567   4.584  0.0733  0.4894  0.8034
  204MOL0     C28076   7.301   8.456   4.626  0.3666  0.1054  0.6033
  204MOL0     C28077   7.215   8.508   4.740  0.1791  0.5458  0.0722
  204MOL0     C28078   7.111   8.414   4.771  0.1918  0.0377 -0.4278
  204MOL0     C28079   7.002   8.357   4.794 -0.3891 -0.5841  0.0110
  204MOL0     C28080   7.796   8.631   4.771  0.8665  0.0483 -0.8145
  204MOL0     C28081   7.937   8.650   4.797  0.3017  0.0121  0.7225
  204MOL0     C28082   7.996   8.570   4.899  0.1577 -0.6166 -0.4431
  204MOL0     H28083   8.307   8.871   5.049 -1.7896  2.4391 -2.1236
  204MOL0     H28084   8.545   8.942   5.090 -2.0334  0.1514 -0.1545
  204MOL0     H28085   8.728   9.115   4.863  0.5476  0.0941  0.6620
  204MOL0     H28086   8.727   9.007   4.729 -2.2467  0.7168  1.7185
  204MOL0     H28087   8.947   9.148   4.805 -2.9804  1.4939  2.7591
  204MOL0     H28088   8.963   9.007   4.909 -1.5560 -0.7458 -0.1429
  204MOL0     H28089   8.933   8.841   4.728  0.1996  0.7582  1.3472
  204MOL0     H28090   8.902   8.979   4.613  1.0942  1.0857 -0.5185
  204MOL0     H28091   9.132   9.057   4.635  2.3951 -0.7268 -0.5558
  204MOL0     H28092   9.161   8.949   4.761  2.0882 -0.8838 -1.9546
  204MOL0     H28093   9.082   8.868   4.472  2.6713  0.8197 -1.7094
  204MOL0     H28094   9.127   8.760   4.608  0.8476  0.9192  0.0624
  204MOL0     H28095   9.311   8.947   4.469 -0.9502 -0.6973 -2.0761
  204MOL0     H28096   9.353   8.862   4.624  1.1245 -0.8465 -0.0751
  204MOL0     H28097   9.249   8.708   4.391 -0.0370  0.1398 -0.7943
  204MOL0     H28098   9.331   8.643   4.534 -1.6960 -0.7561 -1.2150
  204MOL0     H28099   9.491   8.656   4.353  0.1172  0.0291  0.1760
  204MOL0     H28100   9.436   8.812   4.300 -0.8608  0.4506  0.4673
  204MOL0     H28101   9.583   8.710   4.666 -0.1421  1.3290  0.6017
  204MOL0     H28102   9.845   8.897   4.772  2.1865  0.4397 -1.7803
  204MOL0     H28103   9.937   8.802   4.657 -0.2437 -2.3944 -0.7395
  204MOL0     H28104   9.720   8.705   4.848 -0.6984  0.5198 -0.4329
  204MOL0     H28105   9.792   8.605   4.713  0.3657  0.0464  0.1978
  204MOL0     H28106   9.947   8.737   4.941  4.4001  0.2662 -1.4827
  204MOL0     H28107   9.885   8.571   4.952  0.7854  0.2444 -0.2530
  204MOL0     H28108  10.072   8.643   4.732 -0.3043  0.1369 -1.2121
  204MOL0     H28109  10.118   8.592   4.901 -2.7850 -0.1238  3.0439
  204MOL0     H28110  10.268   8.498   4.725  0.1307 -0.3246 -0.8889
  204MOL0     H28111  10.461   8.470   4.640  0.1183  0.5976  1.1437
  204MOL0     H28112  10.507   8.328   4.554 -0.7221  0.0615 -0.0756
  204MOL0     H28113  10.539   8.344   4.721 -0.5073  1.1833  0.1024
  204MOL0     H28114  10.513   7.887   4.875 -0.4252  1.1930 -1.4019
  204MOL0     H28115  10.669   7.705   4.893  0.8634  2.2457  1.9855
  204MOL0     H28116  10.819   7.629   4.509 -1.6173  2.5827  2.9246
  204MOL0     H28117  10.984   7.607   4.562 -0.2772  2.1811  1.3157
  204MOL0     H28118  10.910   7.395   4.481 -0.0968  0.8500 -1.1005
  204MOL0     H28119  10.898   7.380   4.659 -2.3405  0.8234  1.0095
  204MOL0     H28120  10.670   7.445   4.464  0.1329 -2.0916 -0.7435
  204MOL0     H28121  10.649   7.442   4.639 -2.1250 -1.0391  0.6494
  204MOL0     H28122  10.740   7.194   4.618  2.2994  0.6221  0.4205
  204MOL0     H28123  10.724   7.225   4.438 -4.8754  0.5379 -0.7424
  204MOL0     H28124  10.545   7.090   4.538  3.0995 -0.9624  0.3793
  204MOL0     H28125  10.495   7.222   4.634  0.0760  0.0913  0.3013
  204MOL0     H28126  10.456   7.205   4.337 -1.7314  1.7720 -1.6621
  204MOL0     H28127  10.481   7.359   4.412  3.8306 -0.3502  1.8298
  204MOL0     H28128  10.280   7.338   4.534  1.4853 -0.3284 -0.1152
  204MOL0     H28129  10.271   7.161   4.529 -0.3096 -0.6868 -1.5849
  204MOL0     H28130  10.253   7.357   4.306 -0.5208  0.3454  0.9273
  204MOL0     H28131  10.110   7.281   4.376  0.3920  3.4409 -0.8864
  204MOL0     H28132  10.879   7.848   4.548 -1.3344 -3.2098 -0.5498
  204MOL0     H28133  10.751   8.069   4.569  0.4952  0.7009  0.2664
  204MOL0     H28134  10.139   8.031   4.759 -4.0479  1.4899  0.5071
  204MOL0     H28135   9.998   8.200   4.830  1.0803  0.2901  0.8544
  204MOL0     H28136   8.668   8.771   4.724  1.8949  0.7544  0.6564
  204MOL0     H28137   8.445   8.674   4.686  1.9463 -0.1368  0.1424
  204MOL0     H28138   8.018   8.851   4.536  1.3427 -3.3430 -1.9614
  204MOL0     H28139   7.773   8.819   4.483 -0.1612 -1.4383  0.8687
  204MOL0     H28140   7.570   8.498   4.700 -0.9467  0.5121  2.0312
  204MOL0     H28141   7.473   8.629   4.770 -1.9574  1.6402 -1.2705
  204MOL0     H28142   7.422   8.565   4.478 -1.8395  0.5499  0.2847
  204MOL0     H28143   7.340   8.662   4.587  2.0672  1.9366 -2.6380
  204MOL0     H28144   7.228   8.432   4.548 -1.2115  1.1842  1.6762
  204MOL0     H28145   7.362   8.369   4.651  2.1988  0.8664 -0.9944
  204MOL0     H28146   7.163   8.599   4.710 -2.4310  0.4025  3.6035
  204MOL0     H28147   7.276   8.533   4.827  0.5040  1.3817 -0.3904
  204MOL0     H28148   6.918   8.291   4.797 -0.3748 -0.6213  2.5305
  204MOL0     H28149   7.730   8.576   4.837  1.0685  0.1152 -0.5543
  204MOL0     H28150   8.084   8.522   4.856  0.4062  0.4650 -1.1970
  204MOL0     H28151   8.030   8.639   4.977 -3.7168  0.7825  0.2143
  204MOL0     H28152   7.927   8.496   4.941  1.0306 -1.3262 -0.2364
  205MOL0     O28153   3.950   9.251   6.203 -0.1414  0.0835 -0.6415
  205MOL0     C28154   3.952   9.192   6.314 -0.4957  0.1921  0.0620
  205MOL0     O28155   4.065   9.137   6.371 -0.2254 -0.4615 -0.0747
  205MOL0     C28156   4.170   9.123   6.295  0.0877  0.0639  0.0553
  205MOL0     C28157   4.176   9.027   6.191  0.1364 -0.0365  0.4288
  205MOL0     C28158   4.296   9.031   6.109  0.0211 -0.2244  0.0668
  205MOL0     C28159   4.412   9.102   6.153 -0.2978 -0.0782  0.4349
  205MOL0     O28160   4.533   9.106   6.090  0.5135 -0.1512  0.9204
  205MOL0     C28161   4.542   9.057   5.953 -0.4249  0.7324 -0.5323
  205MOL0     C28162   4.693   9.056   5.925  0.0920  0.4087 -0.4645
  205MOL0     C28163   4.727   9.011   5.784 -0.4743  0.0629 -0.9137
  205MOL0     C28164   4.867   9.014   5.755 -0.4248 -0.0939 -0.1089
  205MOL0     C28165   4.921   9.158   5.716  0.1058  0.0954  0.0699
  205MOL0     C28166   5.069   9.153   5.698  0.0796 -0.4265  0.5763
  205MOL0     C28167   5.116   9.257   5.595  0.3849 -0.4987 -0.3151
  205MOL0     C28168   5.083   9.399   5.649 -0.4737  0.4019  0.2998
  205MOL0     N28169   5.179   9.435   5.753 -0.6347 -0.0879  0.1883
  205MOL0     C28170   5.310   9.471   5.723  0.0325  0.2656 -0.4169
  205MOL0     C28171   5.353   9.519   5.842  0.2597 -0.4046  0.2423
  205MOL0     C28172   5.492   9.578   5.851  0.0657  0.6748  0.3949
  205MOL0     C28173   5.506   9.711   5.788 -0.4213 -0.2366 -0.2375
  205MOL0     C28174   5.638   9.794   5.827 -0.7042 -0.5474  0.3364
  205MOL0     C28175   5.765   9.739   5.771 -0.2925  0.4821  0.4668
  205MOL0     O28176   5.776   9.751   5.629 -0.2578 -0.5517  0.3251
  205MOL0     C28177   5.896   9.765   5.565 -0.5420  0.6962  0.7514
  205MOL0     C28178   5.918   9.698   5.443 -0.1784 -0.2399  0.5593
  205MOL0     C28179   6.032   9.721   5.369 -0.4814 -0.1749  0.5405
  205MOL0     C28180   6.040   9.639   5.242 -0.0882  0.2875  0.1470
  205MOL0     C28181   6.140   9.798   5.420 -0.4694  0.4225 -0.0514
  205MOL0     C28182   6.265   9.830   5.350 -0.9056 -1.0824  0.6504
  205MOL0     O28183   6.323   9.949   5.384  0.5533 -0.5381  0.2131
  205MOL0     C28184   6.448   9.989   5.332 -0.4115 -0.2654  0.8316
  205MOL0     C28185   6.512  10.081   5.411  0.2543  0.8249  0.2232
  205MOL0     C28186   6.639  10.131   5.380 -0.0434  0.1456 -0.1822
  205MOL0     C28187   6.703  10.097   5.254  0.6126 -0.2492  0.1367
  205MOL0     O28188   6.827  10.152   5.216 -0.1645  0.0067 -0.0949
  205MOL0     C28189   6.849  10.155   5.075 -0.2082  0.0440  0.7356
  205MOL0     C28190   6.925  10.287   5.050 -0.6768  0.0671 -0.3436
  205MOL0     C28191   7.045  10.291   5.142  1.2688 -0.3759  0.9240
  205MOL0     C28192   7.142  10.419   5.134  0.2261  0.5637  0.9511
  205MOL0     C28193   7.212  10.410   4.994 -0.0020  0.2264  0.3378
  205MOL0     C28194   7.336  10.502   4.997  0.3340 -0.0543  0.3776
  205MOL0     C28195   7.281  10.649   5.006 -0.3916 -0.6525 -0.4307
  205MOL0     C28196   7.384  10.746   4.937 -0.2498 -0.1602  0.1620
  205MOL0    Cl28197   7.555  10.714   4.985  0.0634  0.0566  0.2060
  205MOL0     C28198   6.637  10.003   5.176  0.2217 -0.5027  0.1683
  205MOL0     C28199   6.517   9.948   5.216  0.3570  0.0692  0.2872
  205MOL0     O28200   6.305   9.743   5.269  0.3732  0.0744 -0.3495
  205MOL0     C28201   6.120   9.856   5.551  0.7515 -0.0671  1.3279
  205MOL0     C28202   6.001   9.838   5.619 -0.1608 -0.1280  0.4039
  205MOL0     N28203   5.266   9.497   5.941 -0.1179 -0.5253 -0.7089
  205MOL0     N28204   5.160   9.444   5.891  0.6232 -0.0931 -0.4563
  205MOL0     C28205   4.394   9.193   6.258  0.1046  0.1944  0.0005
  205MOL0     C28206   4.274   9.212   6.323  0.9712  0.0587  0.0030
  205MOL0     C28207   3.834   9.200   6.398  0.3128 -0.3765 -0.1450
  205MOL0     C28208   3.849   9.223   6.537  0.1962 -0.0055  0.0086
  205MOL0     C28209   3.734   9.230   6.614  0.6085 -0.0218  0.4379
  205MOL0     C28210   3.605   9.206   6.565 -0.3584  0.7752  0.8081
  205MOL0     O28211   3.490   9.200   6.640  0.3987  0.4046 -0.3429
  205MOL0     C28212   3.474   9.309   6.738 -0.2930  0.0583  0.1095
  205MOL0     C28213   3.480   9.254   6.879 -0.0441 -0.1001 -0.0528
  205MOL0     C28214   3.346   9.201   6.929  0.3912 -0.3076 -1.0468
  205MOL0     C28215   3.305   9.067   6.866  0.0183 -0.3498  0.2453
  205MOL0     C28216   3.391   8.956   6.907  0.8550  0.1779  0.0016
  205MOL0     C28217   3.462   8.863   6.914 -0.1505  0.6418 -0.2338
  205MOL0     C28218   3.589   9.193   6.427  0.1112  0.2935  0.5982
  205MOL0     C28219   3.703   9.184   6.340 -0.0638 -0.5814  0.0344
  205MOL0     C28220   3.679   9.187   6.185  0.0933  0.0531  0.1315
  205MOL0     H28221   4.097   8.959   6.164  1.6479 -0.7638 -2.6434
  205MOL0     H28222   4.291   8.969   6.020  1.4666  1.5384 -1.3169
  205MOL0     H28223   4.491   9.129   5.887  0.9628  0.7936 -1.6038
  205MOL0     H28224   4.499   8.957   5.947 -0.8899  0.8665  0.4204
  205MOL0     H28225   4.731   9.157   5.945  1.9934 -0.7232  2.1765
  205MOL0     H28226   4.749   8.996   5.997  1.1564  1.3981 -0.4295
  205MOL0     H28227   4.702   8.907   5.761  1.0972 -0.2365 -1.3933
  205MOL0     H28228   4.676   9.075   5.711  0.7714  1.5922 -0.4953
  205MOL0     H28229   4.926   8.980   5.841  0.1173  1.7943  0.3163
  205MOL0     H28230   4.881   8.955   5.664 -2.2722  0.3766 -0.7470
  205MOL0     H28231   4.904   9.229   5.798  1.0087 -0.2435  0.5598
  205MOL0     H28232   4.873   9.181   5.621  0.7305  0.7173 -0.1001
  205MOL0     H28233   5.119   9.175   5.793  0.1226  0.7697  0.2903
  205MOL0     H28234   5.109   9.056   5.664 -1.3144 -0.9904  0.4845
  205MOL0     H28235   5.062   9.249   5.501 -1.3050 -0.4591  0.5997
  205MOL0     H28236   5.224   9.243   5.585  0.3917 -1.7982  1.0660
  205MOL0     H28237   5.104   9.475   5.573 -2.4764  0.8321  0.1124
  205MOL0     H28238   4.979   9.409   5.680 -0.1903  0.5025  1.2378
  205MOL0     H28239   5.350   9.488   5.624 -0.8262 -0.6577 -0.9441
  205MOL0     H28240   5.572   9.519   5.806  0.8255  1.7730  0.2620
  205MOL0     H28241   5.520   9.584   5.957 -1.6060 -1.4862  1.0468
  205MOL0     H28242   5.494   9.711   5.680  2.4291  2.8261 -0.7106
  205MOL0     H28243   5.419   9.767   5.822  0.3234  1.3937 -0.9176
  205MOL0     H28244   5.630   9.894   5.784 -1.3434 -0.9285 -0.4512
  205MOL0     H28245   5.654   9.807   5.935 -0.1179  0.3029  0.1598
  205MOL0     H28246   5.842   9.800   5.819 -0.0358  0.1639  0.4565
  205MOL0     H28247   5.779   9.632   5.789  1.4828  1.0633  3.0905
  205MOL0     H28248   5.848   9.624   5.407  0.4998  0.0879 -1.6112
  205MOL0     H28249   6.054   9.704   5.155 -2.1659 -1.1172 -1.3602
  205MOL0     H28250   5.949   9.584   5.216  1.3455 -0.3025 -4.6837
  205MOL0     H28251   6.104   9.550   5.248 -2.4041 -1.6404 -1.5901
  205MOL0     H28252   6.470  10.101   5.509 -0.1475  0.4387  0.1313
  205MOL0     H28253   6.684  10.196   5.454  0.9493  0.2930 -0.9036
  205MOL0     H28254   6.904  10.065   5.046 -1.4227 -0.1459 -1.1898
  205MOL0     H28255   6.754  10.167   5.022 -0.1676 -1.0203  0.3887
  205MOL0     H28256   6.956  10.288   4.945 -0.2342  2.3964 -0.2313
  205MOL0     H28257   6.859  10.373   5.060  0.1941  0.9875 -2.0644
  205MOL0     H28258   7.092  10.195   5.121 -1.2965 -1.6507  0.5656
  205MOL0     H28259   7.017  10.294   5.248  2.3127 -1.7392  1.2549
  205MOL0     H28260   7.209  10.419   5.221  1.0937 -1.9206  0.3593
  205MOL0     H28261   7.073  10.503   5.144 -1.1723 -0.5548  1.0943
  205MOL0     H28262   7.240  10.310   4.963  3.1283  1.7014 -2.1082
  205MOL0     H28263   7.136  10.453   4.927 -2.7099  0.2810  3.1840
  205MOL0     H28264   7.404  10.493   4.911  0.6702 -1.1162  0.7433
  205MOL0     H28265   7.398  10.483   5.085  3.0072  1.2248 -1.0668
  205MOL0     H28266   7.284  10.676   5.111  0.6814 -1.4903 -0.2330
  205MOL0     H28267   7.176  10.654   4.973 -0.6292 -2.5766 -0.0776
  205MOL0     H28268   7.347  10.845   4.964 -3.4731 -0.9754 -0.8264
  205MOL0     H28269   7.375  10.725   4.830 -2.6667 -0.3525  0.3490
  205MOL0     H28270   6.676   9.964   5.083 -0.0304 -2.8472  0.9659
  205MOL0     H28271   6.465   9.882   5.148 -0.4188  0.1809  0.7548
  205MOL0     H28272   6.191   9.923   5.600  0.0997  0.7048  1.2382
  205MOL0     H28273   5.980   9.900   5.706  1.2450 -0.0266  0.6861
  205MOL0     H28274   4.477   9.254   6.293 -1.4851  1.7902  1.1484
  205MOL0     H28275   4.260   9.286   6.400  0.7723  1.8178 -1.6556
  205MOL0     H28276   3.946   9.227   6.585  0.3270 -0.1515 -0.2409
  205MOL0     H28277   3.736   9.250   6.721 -2.2678 -1.3040  0.8514
  205MOL0     H28278   3.558   9.379   6.737 -1.9742  2.1987 -2.2869
  205MOL0     H28279   3.382   9.366   6.725 -0.6379 -0.4640  0.2280
  205MOL0     H28280   3.513   9.333   6.948 -0.2970 -2.0567  2.4515
  205MOL0     H28281   3.563   9.185   6.898 -0.4811 -1.0001 -1.2502
  205MOL0     H28282   3.338   9.193   7.038 -0.9489  1.3741 -0.9731
  205MOL0     H28283   3.259   9.262   6.904 -0.2411 -0.7154  0.0805
  205MOL0     H28284   3.296   9.083   6.758 -0.1265  4.2703  0.7710
  205MOL0     H28285   3.200   9.052   6.892 -0.4388 -0.6570 -1.6415
  205MOL0     H28286   3.528   8.780   6.901  0.1732  0.8380  0.1542
  205MOL0     H28287   3.491   9.187   6.381 -0.3225  0.7989  1.4269
  205MOL0     H28288   3.698   9.289   6.150  0.9116  0.5789  2.0116
  205MOL0     H28289   3.753   9.130   6.128 -1.0799 -1.4726  0.0407
  205MOL0     H28290   3.584   9.145   6.150  0.6762 -0.1200 -1.3199
  206MOL0     O28291  10.127   8.725   5.680 -0.2943 -0.5507 -0.4435
  206MOL0     C28292  10.076   8.731   5.569  0.2595  0.4260 -0.1404
  206MOL0     O28293  10.152   8.735   5.455 -0.5883 -0.1844  0.0739
  206MOL0     C28294  10.277   8.686   5.478  0.5482 -0.1383  0.1495
  206MOL0     C28295  10.310   8.545   5.475 -0.1158 -0.8662 -0.2164
  206MOL0     C28296  10.437   8.502   5.487 -0.2355 -0.5694 -0.0110
  206MOL0     C28297  10.538   8.592   5.496 -0.0469 -0.0589 -0.0312
  206MOL0     O28298  10.662   8.540   5.507 -0.5036 -0.3345  0.0400
  206MOL0     C28299  10.773   8.600   5.433  0.4629  0.0862 -0.3656
  206MOL0     C28300  10.905   8.612   5.516  0.4520 -0.3897 -0.1375
  206MOL0     C28301  10.905   8.710   5.631 -1.4062  0.0801 -0.7841
  206MOL0     C28302  11.012   8.665   5.733  0.1781  0.0485 -0.3690
  206MOL0     C28303  11.157   8.673   5.677 -0.5241 -0.8409 -0.2185
  206MOL0     C28304  11.261   8.645   5.787  0.6009 -0.0618 -0.2129
  206MOL0     C28305  11.400   8.705   5.760  0.1124  0.1539  0.6031
  206MOL0     C28306  11.400   8.854   5.807 -0.3589  0.1324  0.2098
  206MOL0     N28307  11.523   8.908   5.854  1.1690 -0.1089  0.5236
  206MOL0     C28308  11.642   8.922   5.771  0.8170  1.0208 -0.5736
  206MOL0     C28309  11.725   8.981   5.852  0.2355 -0.1121 -0.2705
  206MOL0     C28310  11.862   9.030   5.817 -0.6207  0.8837  0.3884
  206MOL0     C28311  11.966   8.967   5.915  0.0681 -0.2208 -0.1819
  206MOL0     C28312  12.106   8.990   5.865 -0.1622  1.2690 -0.1308
  206MOL0     C28313  12.207   8.926   5.962  0.0876 -0.2338  0.7257
  206MOL0     O28314  12.201   8.785   5.950  0.0164  0.4107  0.5194
  206MOL0     C28315  12.308   8.720   6.003 -0.3499 -0.8655 -0.1516
  206MOL0     C28316  12.402   8.778   6.095 -0.3128 -0.9985  0.9970
  206MOL0     C28317  12.506   8.708   6.161  0.0787  0.4701  0.0045
  206MOL0     C28318  12.604   8.787   6.249 -1.0020 -0.4490 -0.1939
  206MOL0     C28319  12.511   8.567   6.147 -0.5105 -0.3219  0.2672
  206MOL0     C28320  12.611   8.472   6.210 -0.0019 -0.2063 -0.3009
  206MOL0     O28321  12.633   8.352   6.149 -0.6613  0.2956  0.0204
  206MOL0     C28322  12.736   8.282   6.200  0.0184  0.3232  0.6025
  206MOL0     C28323  12.870   8.321   6.176  0.0411 -0.1386 -0.8632
  206MOL0     C28324  12.971   8.241   6.218 -0.0770  0.0820 -0.1884
  206MOL0     C28325  12.945   8.130   6.300 -0.4818  0.2661 -0.7273
  206MOL0     O28326  13.041   8.042   6.352  0.9959  0.7056  0.6284
  206MOL0     C28327  13.179   8.056   6.306 -0.1709  0.2970 -0.5940
  206MOL0     C28328  13.213   7.977   6.172  0.9811 -0.2999 -0.1704
  206MOL0     C28329  13.216   7.827   6.193  0.4008  0.3715  0.0845
  206MOL0     C28330  13.073   7.777   6.199 -0.4572  0.4243  0.7140
  206MOL0     C28331  13.067   7.621   6.198 -0.2242  0.0463  0.9145
  206MOL0     C28332  12.935   7.572   6.149 -0.3541 -0.3024 -0.1165
  206MOL0     C28333  12.827   7.592   6.261  0.4541 -0.3158  0.9219
  206MOL0     C28334  12.682   7.548   6.219  0.3686  0.3885  0.2551
  206MOL0    Cl28335  12.683   7.375   6.203 -0.2976 -0.0753 -0.3216
  206MOL0     C28336  12.814   8.097   6.331  0.2138 -0.0365  1.1245
  206MOL0     C28337  12.704   8.181   6.281  0.1378  1.0722  0.1572
  206MOL0     O28338  12.657   8.499   6.319 -0.4312 -1.1640  0.1209
  206MOL0     C28339  12.421   8.511   6.049 -0.8774  1.1651 -0.2273
  206MOL0     C28340  12.323   8.584   5.981  0.9251 -0.2399  0.1036
  206MOL0     N28341  11.666   8.982   5.984 -0.8189 -0.0852  0.1657
  206MOL0     N28342  11.550   8.936   5.980 -0.1829  0.3451 -0.2764
  206MOL0     C28343  10.513   8.729   5.494  0.6008 -1.2968  0.7638
  206MOL0     C28344  10.384   8.776   5.494  0.7151 -0.0235 -0.4702
  206MOL0     C28345   9.925   8.734   5.566  0.2331 -0.4986  0.1616
  206MOL0     C28346   9.866   8.741   5.440  0.2239 -0.0084 -0.5867
  206MOL0     C28347   9.724   8.756   5.430 -0.3513  0.4209 -0.1640
  206MOL0     C28348   9.638   8.750   5.541  0.0368 -0.3977  0.5476
  206MOL0     O28349   9.506   8.767   5.518 -0.5945  0.8681 -0.2261
  206MOL0     C28350   9.415   8.723   5.616  0.8545  0.3432 -0.1342
  206MOL0     C28351   9.275   8.740   5.555  0.0984  0.2853 -0.3825
  206MOL0     C28352   9.246   8.637   5.446 -0.2744 -0.1304 -0.2498
  206MOL0     C28353   9.119   8.674   5.368  0.2941 -0.5402 -0.2250
  206MOL0     C28354   8.997   8.621   5.443  0.0857 -0.1427  0.5563
  206MOL0     C28355   8.891   8.590   5.484  0.3166 -0.1518 -0.9288
  206MOL0     C28356   9.700   8.748   5.667  0.4277  0.0955  0.4049
  206MOL0     C28357   9.837   8.750   5.686 -0.1063  0.8551 -1.0922
  206MOL0     C28358   9.886   8.731   5.827 -0.5320 -0.3463  0.1285
  206MOL0     H28359  10.236   8.467   5.459 -0.0327 -0.9961  0.0268
  206MOL0     H28360  10.461   8.398   5.507 -0.1222  0.0187  3.4986
  206MOL0     H28361  10.750   8.703   5.404  0.2371  0.7900  2.0859
  206MOL0     H28362  10.796   8.538   5.346 -1.2701  0.1572 -0.9088
  206MOL0     H28363  10.916   8.512   5.560 -0.1990 -0.8690 -1.0205
  206MOL0     H28364  10.990   8.635   5.451  1.6603  0.2087  1.5973
  206MOL0     H28365  10.938   8.808   5.597  2.3763 -0.4778  0.8354
  206MOL0     H28366  10.811   8.713   5.687  0.3358  1.8654  2.2609
  206MOL0     H28367  11.009   8.727   5.823  2.0344  0.2002 -0.3785
  206MOL0     H28368  10.980   8.562   5.754 -2.0788  0.3587 -1.9826
  206MOL0     H28369  11.170   8.773   5.634  0.9745 -1.5108 -1.4335
  206MOL0     H28370  11.171   8.595   5.602 -0.5593 -0.6879 -0.3860
  206MOL0     H28371  11.243   8.678   5.890  2.9662 -0.1486  0.2769
  206MOL0     H28372  11.264   8.537   5.803  0.1523 -0.1478 -0.6668
  206MOL0     H28373  11.426   8.690   5.655 -1.9434 -1.5084  0.2627
  206MOL0     H28374  11.475   8.651   5.818  0.6079 -0.2480 -0.3860
  206MOL0     H28375  11.369   8.912   5.720 -2.9774 -0.0441  0.9423
  206MOL0     H28376  11.325   8.876   5.884  1.1939  3.6099  0.9352
  206MOL0     H28377  11.661   8.904   5.666 -0.3713  0.7820 -0.7699
  206MOL0     H28378  11.861   9.139   5.820  1.9057  0.9871 -0.1442
  206MOL0     H28379  11.891   9.003   5.715 -1.6956 -1.3281  0.6055
  206MOL0     H28380  11.951   9.018   6.011  0.9456 -1.0341  0.4031
  206MOL0     H28381  11.949   8.859   5.924 -0.8949 -0.5293 -3.9877
  206MOL0     H28382  12.126   8.946   5.767  1.0444  1.4798  0.0123
  206MOL0     H28383  12.123   9.098   5.856  0.2633  1.4376  2.1760
  206MOL0     H28384  12.301   8.973   5.934  0.2639 -1.4646 -0.8623
  206MOL0     H28385  12.173   8.960   6.060 -0.8328 -0.1891  0.3995
  206MOL0     H28386  12.397   8.883   6.124  0.4804 -0.3559 -0.9493
  206MOL0     H28387  12.697   8.731   6.262 -0.0120  1.1300 -0.2275
  206MOL0     H28388  12.555   8.803   6.345 -2.0791  1.6289 -1.0351
  206MOL0     H28389  12.640   8.882   6.208  3.2521 -2.1918 -1.0286
  206MOL0     H28390  12.894   8.411   6.120  0.1386  1.7024  1.9301
  206MOL0     H28391  13.072   8.260   6.184 -0.4413  0.5962 -1.0175
  206MOL0     H28392  13.204   8.162   6.295  1.9007 -0.2461 -1.6556
  206MOL0     H28393  13.232   8.012   6.391 -0.8776 -0.2077 -0.4073
  206MOL0     H28394  13.151   7.998   6.084  2.9954 -2.6332 -2.3287
  206MOL0     H28395  13.317   8.004   6.149  0.6307 -0.0824 -1.5906
  206MOL0     H28396  13.278   7.798   6.278 -0.2987 -0.4460  0.3319
  206MOL0     H28397  13.255   7.774   6.106 -1.3762  1.6873 -1.6045
  206MOL0     H28398  13.013   7.809   6.114 -0.8897 -3.7576 -0.7982
  206MOL0     H28399  13.030   7.800   6.297 -0.9292 -0.3781  0.7048
  206MOL0     H28400  13.144   7.585   6.129  0.9248 -1.8450  3.0033
  206MOL0     H28401  13.091   7.575   6.295  0.5912 -1.6186 -0.0217
  206MOL0     H28402  12.958   7.466   6.129  0.3822 -0.6034  2.0786
  206MOL0     H28403  12.902   7.625   6.059 -0.5299 -0.6620 -0.2704
  206MOL0     H28404  12.828   7.699   6.283 -2.3432 -0.0557  0.0914
  206MOL0     H28405  12.862   7.544   6.353 -0.7002  0.1145  1.6000
  206MOL0     H28406  12.645   7.599   6.130 -1.1549  1.4623  1.4389
  206MOL0     H28407  12.609   7.573   6.297  1.2288  1.8145  0.6426
  206MOL0     H28408  12.810   8.010   6.395  2.5999 -1.3004 -0.3235
  206MOL0     H28409  12.604   8.152   6.311  0.7504 -0.2662  0.9893
  206MOL0     H28410  12.431   8.404   6.030 -1.6565  0.7178  1.7301
  206MOL0     H28411  12.261   8.531   5.909  0.6332  1.6325 -1.0820
  206MOL0     H28412  10.599   8.794   5.503 -1.9175  2.3336  0.7190
  206MOL0     H28413  10.371   8.884   5.493 -1.5302 -0.2368 -2.2164
  206MOL0     H28414   9.934   8.749   5.356  1.9292  0.0931  0.7446
  206MOL0     H28415   9.671   8.782   5.339 -0.1061  1.5545 -0.0056
  206MOL0     H28416   9.430   8.618   5.644 -0.0826  0.4388  0.8072
  206MOL0     H28417   9.421   8.777   5.711 -0.0343 -1.1168  0.7968
  206MOL0     H28418   9.253   8.843   5.525 -3.0913 -0.1621  0.0706
  206MOL0     H28419   9.199   8.714   5.630 -0.6701 -1.4212 -1.6850
  206MOL0     H28420   9.331   8.630   5.378 -1.2385 -3.1179 -1.3276
  206MOL0     H28421   9.235   8.540   5.495 -0.5693  0.8412  1.7117
  206MOL0     H28422   9.117   8.635   5.266 -2.4917 -1.9266  0.2813
  206MOL0     H28423   9.108   8.782   5.357  0.7886 -0.1463  2.3203
  206MOL0     H28424   8.800   8.552   5.527 -0.4276  0.4031 -1.9685
  206MOL0     H28425   9.635   8.738   5.753 -2.1449 -5.0479 -1.6651
  206MOL0     H28426   9.808   8.748   5.902 -0.9623  1.4884 -0.6739
  206MOL0     H28427   9.931   8.633   5.844 -1.1175 -0.3410  1.8667
  206MOL0     H28428   9.958   8.808   5.855 -0.8219  0.1255 -0.4027
  207MOL0     O28429   9.069   8.505   3.716  0.1630  0.4907  0.1117
  207MOL0     C28430   9.058   8.450   3.610  1.2887  1.2676 -0.1938
  207MOL0     O28431   9.155   8.383   3.547  0.2730  0.2845 -0.0088
  207MOL0     C28432   9.272   8.359   3.613  0.6798 -0.3244  0.3413
  207MOL0     C28433   9.373   8.453   3.589 -0.4833  0.4639 -0.5199
  207MOL0     C28434   9.504   8.436   3.648  1.2107  0.3019 -0.1022
  207MOL0     C28435   9.535   8.320   3.727 -0.5068 -0.4203 -0.2650
  207MOL0     O28436   9.652   8.296   3.794  0.1617  0.2445  0.9149
  207MOL0     C28437   9.711   8.413   3.852 -0.4108  0.5160 -0.8614
  207MOL0     C28438   9.803   8.371   3.966  0.3868 -0.0951  0.1970
  207MOL0     C28439   9.925   8.305   3.905 -0.6368  1.5457  0.2101
  207MOL0     C28440  10.036   8.289   4.013  0.1114 -0.2395 -0.6006
  207MOL0     C28441  10.154   8.205   3.965 -0.1045 -0.1182  0.7650
  207MOL0     C28442  10.272   8.224   4.059  0.2541  0.4810  0.4753
  207MOL0     C28443  10.268   8.136   4.182  0.2363 -0.3090  0.8323
  207MOL0     C28444  10.382   8.154   4.275  0.2489  0.0878  0.0524
  207MOL0     N28445  10.517   8.147   4.219  0.2228 -0.0175  0.0924
  207MOL0     C28446  10.625   8.205   4.278  0.0885  0.0092  0.0367
  207MOL0     C28447  10.732   8.185   4.193 -0.6263 -0.5630  0.1487
  207MOL0     C28448  10.874   8.241   4.207  0.6637  0.2127 -0.2117
  207MOL0     C28449  10.966   8.165   4.304 -0.1423  0.6006 -0.1198
  207MOL0     C28450  10.999   8.252   4.420 -0.1025  0.2056 -0.5552
  207MOL0     C28451  11.115   8.206   4.507  0.0138  0.6154  0.0043
  207MOL0     O28452  11.096   8.071   4.551 -0.0200 -0.2221  0.1019
  207MOL0     C28453  11.192   8.022   4.638  0.4740 -0.8453 -0.3808
  207MOL0     C28454  11.163   7.892   4.672  0.3311  0.0830 -0.8483
  207MOL0     C28455  11.252   7.810   4.741 -0.0991  0.2146 -0.0394
  207MOL0     C28456  11.201   7.677   4.778  0.1893  1.0555  0.3812
  207MOL0     C28457  11.376   7.866   4.780 -0.9316 -0.1593  0.8685
  207MOL0     C28458  11.476   7.799   4.859 -0.4083  0.5540 -0.5345
  207MOL0     O28459  11.551   7.879   4.946 -0.2444  0.6810 -0.0797
  207MOL0     C28460  11.674   7.839   4.979 -0.8043  0.2519 -0.7678
  207MOL0     C28461  11.718   7.841   5.115  0.8670  0.0518  0.3695
  207MOL0     C28462  11.849   7.784   5.142  1.3385  0.2781  0.5573
  207MOL0     C28463  11.925   7.741   5.033 -0.1948  0.2100  0.8486
  207MOL0     O28464  12.047   7.681   5.034  0.2612 -0.1719 -0.5696
  207MOL0     C28465  12.158   7.752   5.105  0.0731  0.8331  0.5441
  207MOL0     C28466  12.287   7.674   5.093  0.2662  0.3848  0.1953
  207MOL0     C28467  12.286   7.555   5.198 -0.1138 -0.3990  0.3312
  207MOL0     C28468  12.414   7.465   5.201  0.2550 -0.5652  0.2547
  207MOL0     C28469  12.545   7.522   5.150 -0.1903 -0.2832  0.0399
  207MOL0     C28470  12.609   7.649   5.224  0.7520 -0.7303 -0.9471
  207MOL0     C28471  12.737   7.701   5.160  0.1751  0.3693  0.7795
  207MOL0     C28472  12.863   7.609   5.181 -0.5959 -0.9866 -0.3619
  207MOL0    Cl28473  13.003   7.695   5.099 -0.2081  0.0637  0.3449
  207MOL0     C28474  11.883   7.757   4.902  0.2064 -0.2061  0.2796
  207MOL0     C28475  11.756   7.804   4.869 -0.1193  0.1519 -0.3639
  207MOL0     O28476  11.491   7.677   4.854 -0.7955 -0.3573  0.3338
  207MOL0     C28477  11.398   8.003   4.760 -0.0403 -0.4177  0.8099
  207MOL0     C28478  11.308   8.083   4.687  0.9317  0.4647  0.9538
  207MOL0     N28479  10.688   8.109   4.092  0.3306 -0.1820  0.4783
  207MOL0     N28480  10.566   8.081   4.108  0.2853 -0.2176  0.3945
  207MOL0     C28481   9.436   8.233   3.755  0.0524  0.0683 -0.3685
  207MOL0     C28482   9.307   8.250   3.692  0.3456 -0.0799 -0.1954
  207MOL0     C28483   8.916   8.459   3.555 -0.4966  0.2717  0.5916
  207MOL0     C28484   8.877   8.345   3.469  0.8000 -0.7984 -0.4916
  207MOL0     C28485   8.748   8.343   3.415  0.6682  1.0788  0.1617
  207MOL0     C28486   8.660   8.444   3.429  0.9908 -0.6895 -0.4246
  207MOL0     O28487   8.530   8.443   3.384  0.4552  0.0912  0.2619
  207MOL0     C28488   8.474   8.321   3.339 -0.2103  0.3102 -0.1832
  207MOL0     C28489   8.329   8.340   3.315 -0.3280 -0.2213  0.2378
  207MOL0     C28490   8.260   8.206   3.261 -0.6462  0.3141  0.0546
  207MOL0     C28491   8.125   8.238   3.187  0.5844 -0.1222  0.6349
  207MOL0     C28492   8.148   8.296   3.056 -0.4750  0.0411 -0.4460
  207MOL0     C28493   8.170   8.343   2.952 -0.4084 -0.6215  0.9650
  207MOL0     C28494   8.695   8.556   3.507  0.4593  0.7870  0.6877
  207MOL0     C28495   8.824   8.568   3.567  0.7272 -0.3381 -0.8657
  207MOL0     C28496   8.844   8.685   3.657  0.3108  0.5841  0.0686
  207MOL0     H28497   9.340   8.537   3.528 -0.0207 -0.2472 -1.7926
  207MOL0     H28498   9.588   8.502   3.626  2.0774  0.3535  2.8381
  207MOL0     H28499   9.629   8.476   3.884 -0.7821 -0.8900  1.1358
  207MOL0     H28500   9.772   8.461   3.775  1.5554  1.6829  1.3015
  207MOL0     H28501   9.839   8.466   4.004 -0.6899  0.7855 -0.9099
  207MOL0     H28502   9.747   8.307   4.034 -0.3068 -2.6969 -2.5852
  207MOL0     H28503   9.900   8.200   3.883 -0.3865  1.5534 -0.1241
  207MOL0     H28504   9.977   8.349   3.819  1.9292  0.5203  1.1278
  207MOL0     H28505  10.071   8.386   4.049 -1.9723  0.9141 -1.4815
  207MOL0     H28506  10.000   8.239   4.104 -0.0824 -0.5668 -0.8535
  207MOL0     H28507  10.176   8.248   3.867 -0.9701  0.2653  0.7303
  207MOL0     H28508  10.128   8.100   3.953 -0.9042  0.2478 -1.0299
  207MOL0     H28509  10.355   8.182   4.002  1.4834  1.4159  1.5374
  207MOL0     H28510  10.285   8.329   4.083  1.4124  1.0763 -2.3637
  207MOL0     H28511  10.264   8.035   4.138 -0.0929  0.7008 -1.6635
  207MOL0     H28512  10.171   8.141   4.232  0.1222 -1.0405  0.7076
  207MOL0     H28513  10.373   8.251   4.324  0.6836 -1.1739  2.8104
  207MOL0     H28514  10.357   8.093   4.363 -1.8561 -0.9855 -1.2020
  207MOL0     H28515  10.643   8.275   4.359  2.3473  2.1004 -2.0639
  207MOL0     H28516  10.872   8.345   4.240 -1.1379 -0.0868  0.7352
  207MOL0     H28517  10.917   8.239   4.106 -1.6974 -0.3214 -1.2655
  207MOL0     H28518  10.915   8.074   4.338  2.6046 -0.8891  0.3823
  207MOL0     H28519  11.059   8.138   4.252 -0.3798  0.7545 -0.6301
  207MOL0     H28520  11.022   8.354   4.385  1.6186 -0.5271 -1.7021
  207MOL0     H28521  10.914   8.247   4.489 -0.3763  2.4787 -0.6332
  207MOL0     H28522  11.207   8.209   4.447  0.7439 -2.3581  0.8269
  207MOL0     H28523  11.131   8.275   4.591 -0.2988  0.0547  0.5301
  207MOL0     H28524  11.065   7.857   4.641  0.2887 -0.3187 -0.2872
  207MOL0     H28525  11.247   7.643   4.871  0.3295  0.2019  0.0109
  207MOL0     H28526  11.216   7.598   4.704 -3.3682  0.9940 -0.4370
  207MOL0     H28527  11.092   7.681   4.785  0.0653 -1.1245  0.6017
  207MOL0     H28528  11.661   7.884   5.197  2.8844  2.1513  0.8079
  207MOL0     H28529  11.880   7.783   5.246 -0.0512 -0.0926  0.9958
  207MOL0     H28530  12.180   7.842   5.047 -3.3217  0.5946 -1.3532
  207MOL0     H28531  12.120   7.764   5.207 -4.1311  0.3279 -0.8030
  207MOL0     H28532  12.288   7.622   4.997 -3.7560 -2.4573  1.4097
  207MOL0     H28533  12.376   7.737   5.098  1.1546 -0.5996 -1.9946
  207MOL0     H28534  12.201   7.491   5.177 -1.1212  0.7444  0.7984
  207MOL0     H28535  12.276   7.599   5.298  0.6035  0.9765 -0.1628
  207MOL0     H28536  12.400   7.370   5.149  0.9577 -0.7534  0.3970
  207MOL0     H28537  12.426   7.432   5.305  0.1689  0.1191  0.4845
  207MOL0     H28538  12.614   7.439   5.166  0.1643  0.4097  2.4577
  207MOL0     H28539  12.544   7.553   5.045 -0.8565  1.8840  0.6187
  207MOL0     H28540  12.633   7.621   5.327 -1.1778  0.0554 -0.2455
  207MOL0     H28541  12.540   7.734   5.233  2.2787  0.5787 -1.0449
  207MOL0     H28542  12.762   7.801   5.198  2.0856 -0.2927  1.4000
  207MOL0     H28543  12.718   7.708   5.053 -1.0819 -0.8984  0.8954
  207MOL0     H28544  12.851   7.514   5.128  3.7543 -0.7520 -2.1519
  207MOL0     H28545  12.875   7.600   5.289 -0.2870  1.2971 -0.1760
  207MOL0     H28546  11.953   7.743   4.820  1.5795 -1.9807  1.6649
  207MOL0     H28547  11.728   7.808   4.764  1.0702  0.5681 -0.6785
  207MOL0     H28548  11.483   8.061   4.796 -1.7755  2.7447  0.1202
  207MOL0     H28549  11.319   8.190   4.674  0.2636  0.2977 -1.4055
  207MOL0     H28550   9.457   8.145   3.815 -0.2542 -1.3920 -2.3195
  207MOL0     H28551   9.239   8.166   3.688  1.9161 -1.3596 -1.0856
  207MOL0     H28552   8.933   8.253   3.459  0.3665 -1.1069 -0.1155
  207MOL0     H28553   8.712   8.250   3.372  1.1434 -0.3619  2.6886
  207MOL0     H28554   8.518   8.283   3.247  1.2194 -2.8298  1.6264
  207MOL0     H28555   8.479   8.246   3.419 -1.4172 -0.0177 -0.3954
  207MOL0     H28556   8.324   8.419   3.239  0.8878 -0.6424 -0.3002
  207MOL0     H28557   8.278   8.364   3.409 -1.1870 -1.1849  0.0395
  207MOL0     H28558   8.335   8.165   3.193  0.9554  0.1525  1.8590
  207MOL0     H28559   8.237   8.131   3.337  1.2137 -1.7819 -1.3263
  207MOL0     H28560   8.068   8.311   3.246 -0.1847 -1.9978  2.3092
  207MOL0     H28561   8.055   8.156   3.170 -1.1457  0.8372  2.6423
  207MOL0     H28562   8.192   8.393   2.860  0.3840  2.4070  2.6508
  207MOL0     H28563   8.614   8.628   3.510  0.0359  0.3334  0.2299
  207MOL0     H28564   8.770   8.761   3.632 -1.4070 -1.0332 -0.0378
  207MOL0     H28565   8.830   8.652   3.760 -2.2687 -2.7405 -1.1691
  207MOL0     H28566   8.945   8.724   3.638  1.0788 -1.6257 -0.7054
  208MOL0     O28567   0.225   7.682   9.575  0.0233 -0.2028 -0.4261
  208MOL0     C28568   0.251   7.642   9.462 -0.2994 -0.0443  0.7525
  208MOL0     O28569   0.178   7.670   9.349  0.5948  0.0528 -0.8485
  208MOL0     C28570   0.051   7.723   9.366  0.3204  0.1809 -0.1058
  208MOL0     C28571   0.017   7.836   9.288  0.6193 -0.6433 -0.1545
  208MOL0     C28572  -0.113   7.892   9.298 -0.2357  0.3567  0.2460
  208MOL0     C28573  -0.213   7.840   9.383  0.0102 -0.5522  0.0601
  208MOL0     O28574  -0.338   7.900   9.380  0.1702  0.1772  0.1394
  208MOL0     C28575  -0.378   7.952   9.506  0.2134 -0.2050  0.2634
  208MOL0     C28576  -0.512   8.002   9.503  1.0596  0.0429 -0.1549
  208MOL0     C28577  -0.628   7.906   9.461 -0.0758  0.2632  0.0292
  208MOL0     C28578  -0.697   7.823   9.573 -0.0190 -0.0294 -0.6397
  208MOL0     C28579  -0.813   7.733   9.528  0.6262  0.8713 -0.2538
  208MOL0     C28580  -0.848   7.639   9.635 -0.0322  0.4641 -0.5470
  208MOL0     C28581  -0.971   7.555   9.606  0.2526 -0.5090  0.1479
  208MOL0     C28582  -0.973   7.433   9.710 -1.5094 -0.7120  0.3180
  208MOL0     N28583  -0.883   7.319   9.678 -0.3825  0.7694  0.0112
  208MOL0     C28584  -0.907   7.216   9.590 -0.7013 -0.0985 -0.0639
  208MOL0     C28585  -0.794   7.149   9.584 -0.2867  0.0290  0.9451
  208MOL0     C28586  -0.779   7.023   9.505 -0.0989 -0.2441  0.1096
  208MOL0     C28587  -0.645   6.957   9.494 -0.4963  0.0717 -0.0900
  208MOL0     C28588  -0.609   6.890   9.624  0.3640 -0.0048  0.4629
  208MOL0     C28589  -0.478   6.817   9.614  0.2034  0.4803 -0.0909
  208MOL0     O28590  -0.498   6.679   9.563  0.0029 -0.9954 -0.1475
  208MOL0     C28591  -0.388   6.606   9.536  0.5548  0.8348 -0.0302
  208MOL0     C28592  -0.411   6.468   9.528  0.3682  0.5538 -0.4050
  208MOL0     C28593  -0.304   6.372   9.528 -0.7706 -0.8243  0.3307
  208MOL0     C28594  -0.333   6.229   9.532  0.2361 -0.1249 -0.1371
  208MOL0     C28595  -0.165   6.415   9.531  0.0033 -0.2416  0.4780
  208MOL0     C28596  -0.047   6.323   9.539 -0.5651 -0.2648  0.4962
  208MOL0     O28597   0.072   6.384   9.534 -0.4477 -0.9031  0.3444
  208MOL0     C28598   0.191   6.325   9.527  0.5535 -0.5197 -0.2665
  208MOL0     C28599   0.294   6.405   9.580  0.3663  0.3958  0.5961
  208MOL0     C28600   0.427   6.352   9.585 -0.3625  0.2391 -0.1054
  208MOL0     C28601   0.461   6.233   9.522  0.5271  0.1234  0.7101
  208MOL0     O28602   0.583   6.171   9.515  0.7194  0.3373 -0.2655
  208MOL0     C28603   0.681   6.209   9.608  0.0933  0.2345  0.0400
  208MOL0     C28604   0.804   6.120   9.573  0.1392 -0.3085  0.1322
  208MOL0     C28605   0.919   6.152   9.668  0.7385 -0.2693 -0.5596
  208MOL0     C28606   1.044   6.061   9.666 -0.1487 -0.0503  0.0188
  208MOL0     C28607   1.164   6.122   9.730 -0.4685  0.2475 -0.4685
  208MOL0     C28608   1.290   6.029   9.698  0.0824 -0.1277 -0.9614
  208MOL0     C28609   1.428   6.072   9.750 -0.0836 -0.1819  0.4086
  208MOL0     C28610   1.424   6.111   9.906 -0.0678  0.1932  0.5172
  208MOL0    Cl28611   1.575   6.092   9.994 -0.3109  0.2699 -0.3947
  208MOL0     C28612   0.356   6.162   9.469 -0.8072  0.2713 -1.1472
  208MOL0     C28613   0.223   6.202   9.473 -0.7662  0.0892  0.5562
  208MOL0     O28614  -0.060   6.198   9.527 -0.4695 -0.3628 -0.1451
  208MOL0     C28615  -0.145   6.553   9.534  0.1041 -0.1433 -0.2032
  208MOL0     C28616  -0.251   6.644   9.542  0.1472  1.0047 -0.4237
  208MOL0     N28617  -0.700   7.202   9.672 -0.2729  0.1098 -0.4256
  208MOL0     N28618  -0.755   7.298   9.731 -0.4759 -0.0481 -0.8359
  208MOL0     C28619  -0.177   7.734   9.468  0.3484 -0.4341 -0.0040
  208MOL0     C28620  -0.046   7.677   9.449 -0.1037 -0.2857  0.3537
  208MOL0     C28621   0.368   7.558   9.429 -0.0770 -0.5790 -0.3480
  208MOL0     C28622   0.411   7.563   9.300 -0.0280 -0.5693  0.9653
  208MOL0     C28623   0.521   7.488   9.250  0.6364 -0.5388 -0.1513
  208MOL0     C28624   0.595   7.420   9.345  0.0600 -0.8856  0.0880
  208MOL0     O28625   0.705   7.360   9.307  0.5040  0.4383 -0.6209
  208MOL0     C28626   0.793   7.425   9.218  1.0263  0.4200 -0.4217
  208MOL0     C28627   0.936   7.425   9.268  0.3397  0.0255  0.1533
  208MOL0     C28628   1.024   7.528   9.191 -0.2670  0.0708 -0.1725
  208MOL0     C28629   1.173   7.513   9.242  0.9778 -0.4582  0.7215
  208MOL0     C28630   1.286   7.573   9.163  0.1296  0.4228  0.2586
  208MOL0     C28631   1.372   7.626   9.101 -0.5079  0.7520 -0.1255
  208MOL0     C28632   0.549   7.411   9.475 -0.1938  1.2798 -0.1114
  208MOL0     C28633   0.428   7.470   9.522 -0.0380 -0.5673 -0.6679
  208MOL0     C28634   0.383   7.443   9.660 -0.0588  0.0072 -0.1320
  208MOL0     H28635   0.090   7.888   9.227  0.7035  0.7658  1.0754
  208MOL0     H28636  -0.127   7.974   9.229  5.2788  0.4943 -1.2354
  208MOL0     H28637  -0.309   8.038   9.510  1.0322 -0.8786  1.2755
  208MOL0     H28638  -0.367   7.885   9.592 -0.2342 -1.5881 -0.7236
  208MOL0     H28639  -0.537   8.033   9.604  0.1572 -2.4689  0.4715
  208MOL0     H28640  -0.517   8.081   9.428 -0.1620  0.1343  0.0171
  208MOL0     H28641  -0.717   7.965   9.435  0.0866 -0.2206 -1.7619
  208MOL0     H28642  -0.611   7.843   9.373  0.4085  1.1557 -0.5353
  208MOL0     H28643  -0.625   7.765   9.632 -0.9802  0.9190  1.6147
  208MOL0     H28644  -0.733   7.901   9.640  2.3236  2.0030 -1.5937
  208MOL0     H28645  -0.782   7.676   9.440  0.5552  2.0029 -1.0361
  208MOL0     H28646  -0.903   7.793   9.512 -0.9788 -1.2745  0.3014
  208MOL0     H28647  -0.772   7.566   9.665  1.1456  2.6744  2.2899
  208MOL0     H28648  -0.868   7.706   9.719  0.7965 -1.6897  1.4835
  208MOL0     H28649  -0.976   7.521   9.502  2.7346 -0.4781 -0.0329
  208MOL0     H28650  -1.057   7.622   9.614  1.5669  1.0626  1.9893
  208MOL0     H28651  -0.941   7.462   9.811  0.6128 -2.3555  0.2055
  208MOL0     H28652  -1.074   7.395   9.728 -1.9425  0.4056  0.3059
  208MOL0     H28653  -1.001   7.197   9.540 -0.0230  0.1485 -1.4969
  208MOL0     H28654  -0.804   7.047   9.401  0.4488  0.4182  0.1195
  208MOL0     H28655  -0.850   6.944   9.531 -1.0328 -0.4349 -2.7227
  208MOL0     H28656  -0.648   6.873   9.424  1.9770 -2.6510  2.7564
  208MOL0     H28657  -0.568   7.026   9.459  0.8221 -0.8532  0.8873
  208MOL0     H28658  -0.605   6.969   9.699  0.1724 -1.4004  2.0117
  208MOL0     H28659  -0.685   6.817   9.653 -1.0869  1.8455  1.5069
  208MOL0     H28660  -0.412   6.870   9.545  3.3734 -2.8817  0.0127
  208MOL0     H28661  -0.428   6.804   9.711 -2.7694  3.3201  2.0078
  208MOL0     H28662  -0.511   6.426   9.528  0.8728 -0.7118  0.3911
  208MOL0     H28663  -0.280   6.162   9.463 -2.3767 -0.9276 -1.5055
  208MOL0     H28664  -0.440   6.216   9.513 -0.0794  0.0282  1.3824
  208MOL0     H28665  -0.310   6.191   9.632 -1.2777  1.2154  0.7591
  208MOL0     H28666   0.273   6.507   9.612  2.1585  1.0860 -0.2790
  208MOL0     H28667   0.497   6.411   9.645  0.1382  0.3481 -0.7880
  208MOL0     H28668   0.703   6.316   9.604 -2.8488  0.9681  1.0512
  208MOL0     H28669   0.648   6.191   9.710  0.1272  1.2251  0.2349
  208MOL0     H28670   0.782   6.013   9.577  0.2886 -0.3229  0.6561
  208MOL0     H28671   0.826   6.131   9.466 -1.9969 -1.6944 -0.5223
  208MOL0     H28672   0.882   6.148   9.771 -1.9477  2.6757 -1.2679
  208MOL0     H28673   0.955   6.254   9.652 -1.6492  1.0822  1.9489
  208MOL0     H28674   1.062   6.035   9.562  0.8099 -0.8771  0.3792
  208MOL0     H28675   1.023   5.970   9.725 -1.8639  0.6884  0.6296
  208MOL0     H28676   1.168   6.225   9.694  0.6933 -0.4064 -2.3474
  208MOL0     H28677   1.145   6.133   9.837  0.5731 -0.8692 -0.1420
  208MOL0     H28678   1.297   6.032   9.589  3.5987 -0.7940 -0.8679
  208MOL0     H28679   1.272   5.929   9.738  0.1718  0.5753  0.9561
  208MOL0     H28680   1.458   6.161   9.696  0.4581 -1.6663 -1.8699
  208MOL0     H28681   1.510   6.003   9.727  1.0266  1.5769 -1.2245
  208MOL0     H28682   1.357   6.045   9.961 -0.4615 -0.0910 -0.2898
  208MOL0     H28683   1.376   6.208   9.916 -1.4896 -0.5062  0.6992
  208MOL0     H28684   0.395   6.070   9.428 -2.3162 -0.6848 -0.5244
  208MOL0     H28685   0.142   6.134   9.446 -0.8771  1.2019 -2.1593
  208MOL0     H28686  -0.047   6.598   9.546 -0.9267  1.6988  2.6743
  208MOL0     H28687  -0.214   6.746   9.550  0.9910  0.8487 -1.9139
  208MOL0     H28688  -0.237   7.694   9.548  1.4684  0.5868  1.4022
  208MOL0     H28689  -0.020   7.592   9.511 -0.2788  0.1958  1.1045
  208MOL0     H28690   0.364   7.628   9.227  1.4440 -3.0626 -2.4782
  208MOL0     H28691   0.549   7.505   9.147 -2.1356  1.0181 -0.7738
  208MOL0     H28692   0.786   7.362   9.129 -2.3934 -0.0596  0.0290
  208MOL0     H28693   0.768   7.524   9.179 -2.3801 -0.1151  0.0718
  208MOL0     H28694   0.980   7.326   9.250  1.8194  1.2537 -4.4628
  208MOL0     H28695   0.936   7.454   9.374 -1.5342 -0.7896  0.4191
  208MOL0     H28696   1.020   7.517   9.083  0.4485  0.5398 -0.2540
  208MOL0     H28697   0.988   7.630   9.209  0.0836  0.4401 -1.4340
  208MOL0     H28698   1.196   7.406   9.237  0.5930 -0.5232  0.2027
  208MOL0     H28699   1.184   7.537   9.348  0.7522 -0.3166  0.7152
  208MOL0     H28700   1.451   7.662   9.038  2.1223 -1.0999  1.9062
  208MOL0     H28701   0.612   7.351   9.539 -2.3684 -0.8194  0.2064
  208MOL0     H28702   0.276   7.423   9.669  0.1668 -1.3470 -0.2890
  208MOL0     H28703   0.445   7.368   9.710  2.0795  0.3093 -2.1367
  208MOL0     H28704   0.402   7.538   9.710  1.3582 -1.0900  1.5136
  209MOL0     O28705   6.090   6.524   0.918 -0.1556  0.1184 -0.3440
  209MOL0     C28706   6.127   6.422   0.980 -0.0485 -0.9621 -0.1711
  209MOL0     O28707   6.250   6.377   0.996 -0.3283 -0.3825 -0.4034
  209MOL0     C28708   6.347   6.406   0.906 -0.1821  0.6743  0.1817
  209MOL0     C28709   6.480   6.402   0.956 -0.4799 -0.2819  0.4907
  209MOL0     C28710   6.589   6.426   0.869  0.4721 -0.1285  0.0798
  209MOL0     C28711   6.562   6.453   0.738  0.2059 -0.1086 -0.0006
  209MOL0     O28712   6.664   6.488   0.649 -0.4815  0.5397 -0.8414
  209MOL0     C28713   6.806   6.476   0.683 -0.4805 -0.7475  0.6166
  209MOL0     C28714   6.873   6.513   0.549 -0.0886  0.1106 -0.0760
  209MOL0     C28715   7.024   6.483   0.544  0.5344 -0.6779  0.4804
  209MOL0     C28716   7.075   6.549   0.416  1.2109 -0.7948 -0.1704
  209MOL0     C28717   7.219   6.572   0.407 -0.7695  0.8628  0.1086
  209MOL0     C28718   7.291   6.438   0.407  0.2296  0.0909  0.4203
  209MOL0     C28719   7.443   6.444   0.398 -0.5488 -0.2665  0.1978
  209MOL0     C28720   7.514   6.323   0.453 -0.1957 -0.1042 -0.3362
  209MOL0     N28721   7.659   6.304   0.434  0.9991  0.2176  0.1757
  209MOL0     C28722   7.752   6.330   0.539  0.3220 -0.0343 -0.0912
  209MOL0     C28723   7.867   6.288   0.494  0.0862 -0.0402  0.3286
  209MOL0     C28724   7.998   6.296   0.564 -0.1318  0.3259  0.1509
  209MOL0     C28725   8.121   6.345   0.466  0.0909 -0.0284 -0.6894
  209MOL0     C28726   8.263   6.352   0.530 -0.1119  0.6716  0.3880
  209MOL0     C28727   8.317   6.216   0.574 -1.1804  0.1384 -0.2218
  209MOL0     O28728   8.410   6.178   0.465  0.1412 -0.3361  0.1959
  209MOL0     C28729   8.478   6.059   0.484 -0.4687 -0.6445  0.6565
  209MOL0     C28730   8.428   5.940   0.540 -0.0457  0.4062 -0.1728
  209MOL0     C28731   8.497   5.818   0.543 -0.0009 -0.5100  1.0076
  209MOL0     C28732   8.415   5.699   0.591 -0.6532  0.5992  0.3428
  209MOL0     C28733   8.627   5.812   0.482 -0.4482  0.1393 -0.4024
  209MOL0     C28734   8.707   5.688   0.480  0.5943 -0.5471 -0.1845
  209MOL0     O28735   8.833   5.690   0.427  0.1781  0.5028 -0.2345
  209MOL0     C28736   8.893   5.572   0.404  0.1513 -0.6168  0.3219
  209MOL0     C28737   8.829   5.460   0.355 -0.2582  0.0272 -0.2264
  209MOL0     C28738   8.900   5.353   0.314  0.5907 -0.4091 -0.5963
  209MOL0     C28739   9.038   5.358   0.304 -0.5362  0.4875 -0.7407
  209MOL0     O28740   9.099   5.254   0.253 -0.1416  0.0793  0.6228
  209MOL0     C28741   9.238   5.242   0.251 -0.2772 -0.1585 -0.9304
  209MOL0     C28742   9.276   5.095   0.223  0.0871 -0.1118 -0.3292
  209MOL0     C28743   9.190   4.981   0.306 -0.7740 -0.0403  0.7269
  209MOL0     C28744   9.245   4.845   0.292 -0.2425  0.0142  0.2132
  209MOL0     C28745   9.171   4.743   0.386 -0.4650 -0.1082  0.6213
  209MOL0     C28746   9.026   4.752   0.368 -0.0171 -0.6381  0.4172
  209MOL0     C28747   8.941   4.634   0.420  0.0906  0.5406 -0.3269
  209MOL0     C28748   8.792   4.664   0.447 -0.7030  0.0780  0.0705
  209MOL0    Cl28749   8.714   4.692   0.295 -0.0495  0.0696 -0.0216
  209MOL0     C28750   9.106   5.475   0.338 -0.2755 -0.0923 -0.2744
  209MOL0     C28751   9.033   5.589   0.389 -0.0684  0.5541 -0.1650
  209MOL0     O28752   8.656   5.591   0.536 -0.3282 -0.4778  0.0282
  209MOL0     C28753   8.679   5.932   0.427  0.5121 -0.5599 -1.0030
  209MOL0     C28754   8.605   6.056   0.438  0.1142 -0.8300  0.8751
  209MOL0     N28755   7.847   6.247   0.359  0.2261 -0.0603  0.1873
  209MOL0     N28756   7.721   6.250   0.333 -0.9920  0.7100  0.2350
  209MOL0     C28757   6.433   6.459   0.684 -0.2054  0.4285  0.3600
  209MOL0     C28758   6.323   6.431   0.772  1.0471 -1.0529 -0.1956
  209MOL0     C28759   6.033   6.355   1.066 -0.1238  0.2917 -0.4229
  209MOL0     C28760   6.082   6.281   1.172 -0.3350  0.4803  0.9691
  209MOL0     C28761   5.992   6.219   1.261  0.4495 -0.0616 -0.3774
  209MOL0     C28762   5.854   6.235   1.250 -0.3310 -0.7312  1.1776
  209MOL0     O28763   5.766   6.185   1.342  0.4423 -0.3639  0.5835
  209MOL0     C28764   5.636   6.245   1.359  0.5332  0.6113 -1.1041
  209MOL0     C28765   5.593   6.218   1.502 -0.0678  0.4673 -0.7181
  209MOL0     C28766   5.608   6.073   1.566 -0.2550 -0.3081  0.4974
  209MOL0     C28767   5.562   5.961   1.470 -0.3300  0.2862  0.0541
  209MOL0     C28768   5.418   5.957   1.454 -0.3030 -0.8155 -0.2832
  209MOL0     C28769   5.297   5.943   1.436 -0.0983 -0.3342 -0.3133
  209MOL0     C28770   5.809   6.310   1.137 -0.3240 -0.3304 -0.5326
  209MOL0     C28771   5.897   6.362   1.041  0.1639 -0.7045 -0.2297
  209MOL0     C28772   5.834   6.426   0.919  0.2247 -0.5239 -1.0117
  209MOL0     H28773   6.490   6.399   1.064 -1.6967 -1.5701  0.6029
  209MOL0     H28774   6.686   6.424   0.918 -0.3855 -2.9008  1.8846
  209MOL0     H28775   6.827   6.371   0.708 -2.1459 -1.9067 -2.3724
  209MOL0     H28776   6.826   6.540   0.769 -2.5713 -1.3800  1.6389
  209MOL0     H28777   6.820   6.466   0.466  0.4527  2.4934 -1.9079
  209MOL0     H28778   6.860   6.620   0.529  0.5142  0.4917  1.4513
  209MOL0     H28779   7.075   6.525   0.631 -0.0851  1.7770 -0.2607
  209MOL0     H28780   7.038   6.375   0.539  1.9484 -0.5969  1.8366
  209MOL0     H28781   7.044   6.491   0.328  0.3647  0.2621 -0.5875
  209MOL0     H28782   7.040   6.653   0.415 -0.7170 -1.3974 -0.8202
  209MOL0     H28783   7.256   6.645   0.480 -0.6098  0.8799  0.0117
  209MOL0     H28784   7.230   6.620   0.309 -2.0138 -0.1027 -0.5378
  209MOL0     H28785   7.265   6.393   0.503 -2.3192 -0.1763 -0.3325
  209MOL0     H28786   7.248   6.379   0.326  1.3031  1.6859 -1.4115
  209MOL0     H28787   7.489   6.524   0.456 -1.9657 -0.4517  1.6335
  209MOL0     H28788   7.468   6.457   0.292  1.0735 -0.2115  0.5657
  209MOL0     H28789   7.494   6.330   0.560  1.2358  0.8950 -0.1138
  209MOL0     H28790   7.474   6.230   0.410 -0.0285 -0.4744  0.2920
  209MOL0     H28791   7.723   6.375   0.633  0.6947  1.2324 -0.5544
  209MOL0     H28792   8.035   6.201   0.604  3.4618  1.3818 -0.3416
  209MOL0     H28793   7.985   6.369   0.645  1.9384  0.2655  0.5734
  209MOL0     H28794   8.134   6.278   0.381  0.4008 -0.1821 -0.5247
  209MOL0     H28795   8.095   6.440   0.418  0.2766 -0.2817 -1.2927
  209MOL0     H28796   8.324   6.405   0.457 -0.2670  1.0058  0.5001
  209MOL0     H28797   8.243   6.418   0.615 -0.2386  0.9794  0.1196
  209MOL0     H28798   8.370   6.221   0.670 -2.2349 -1.6572  0.4998
  209MOL0     H28799   8.234   6.145   0.579 -2.6436  1.7673 -0.5757
  209MOL0     H28800   8.325   5.939   0.575  0.2846  0.2917  0.8285
  209MOL0     H28801   8.402   5.629   0.508 -1.1730  0.8047  0.2510
  209MOL0     H28802   8.315   5.729   0.623 -1.4573 -2.4045  0.9260
  209MOL0     H28803   8.459   5.651   0.679  0.1096  0.5305 -0.0627
  209MOL0     H28804   8.725   5.432   0.345  0.0156 -1.6417  0.9623
  209MOL0     H28805   8.852   5.264   0.274  2.0583 -0.6860 -1.8676
  209MOL0     H28806   9.290   5.298   0.173  0.7950  3.0673  1.8810
  209MOL0     H28807   9.279   5.272   0.348 -0.8236 -0.0752 -0.7202
  209MOL0     H28808   9.263   5.066   0.119 -3.0232  1.0164 -0.3822
  209MOL0     H28809   9.378   5.081   0.260 -0.0547 -0.2542  0.0101
  209MOL0     H28810   9.088   4.988   0.269 -0.3851 -4.6144 -2.0534
  209MOL0     H28811   9.197   5.006   0.412  1.0689 -1.7099  1.0758
  209MOL0     H28812   9.350   4.848   0.320  0.2195  0.6900 -1.5221
  209MOL0     H28813   9.246   4.805   0.191  0.4762 -1.3067  0.7149
  209MOL0     H28814   9.204   4.643   0.354  1.5808 -0.4619  3.4232
  209MOL0     H28815   9.197   4.750   0.492  3.3890 -2.0462 -0.0193
  209MOL0     H28816   9.004   4.767   0.262  1.2684 -1.9576 -0.0669
  209MOL0     H28817   8.992   4.841   0.421  0.0434 -0.6472  0.4708
  209MOL0     H28818   8.984   4.597   0.513 -2.2255 -1.0889  0.1878
  209MOL0     H28819   8.942   4.551   0.349 -3.1613 -1.1378  1.3735
  209MOL0     H28820   8.786   4.748   0.516  1.4374 -0.2705  0.7647
  209MOL0     H28821   8.740   4.579   0.494  0.2813 -1.2657 -1.1598
  209MOL0     H28822   9.213   5.486   0.334  0.0103 -1.5378  1.8071
  209MOL0     H28823   9.082   5.682   0.417  1.9887  0.0692 -1.8669
  209MOL0     H28824   8.782   5.934   0.393  0.8568  2.5718 -0.0697
  209MOL0     H28825   8.642   6.148   0.394  2.0363 -1.2171  1.5847
  209MOL0     H28826   6.426   6.492   0.581 -0.2190  2.1724  0.8986
  209MOL0     H28827   6.224   6.439   0.729  0.3584 -3.8720  0.6934
  209MOL0     H28828   6.187   6.268   1.196 -0.3863 -3.5217 -0.2780
  209MOL0     H28829   6.025   6.151   1.339 -2.1141 -2.0679 -0.9174
  209MOL0     H28830   5.640   6.355   1.359 -0.7585  0.7372  1.9229
  209MOL0     H28831   5.564   6.210   1.285 -1.5763  2.0674  0.1561
  209MOL0     H28832   5.490   6.252   1.509  0.1930  1.2105 -0.4420
  209MOL0     H28833   5.658   6.284   1.559 -2.0526  1.2697  0.7043
  209MOL0     H28834   5.716   6.059   1.579  0.0227 -1.6012 -2.3817
  209MOL0     H28835   5.576   6.068   1.671  3.9378 -0.7746  1.9607
  209MOL0     H28836   5.601   5.865   1.507  3.3400  2.2670  1.9684
  209MOL0     H28837   5.622   5.972   1.379 -2.1546  2.5919 -0.9658
  209MOL0     H28838   5.195   5.922   1.412 -1.1932  3.5917  0.2334
  209MOL0     H28839   5.701   6.316   1.128 -0.7461 -1.1047  2.7824
  209MOL0     H28840   5.846   6.533   0.934  1.8173 -0.9376  1.1433
  209MOL0     H28841   5.874   6.404   0.820  1.7080 -0.0242 -0.5403
  209MOL0     H28842   5.727   6.399   0.918  0.8945 -3.6671 -2.6279
  210MOL0     O28843   9.878   9.477   7.551 -0.1016 -0.8150 -0.1594
  210MOL0     C28844   9.764   9.462   7.598  0.9703 -0.1543 -0.8625
  210MOL0     O28845   9.737   9.419   7.726  0.1722 -0.5102 -0.3983
  210MOL0     C28846   9.832   9.332   7.780  0.2398  0.0889 -0.2387
  210MOL0     C28847   9.883   9.217   7.714 -0.0637  0.5157 -0.7969
  210MOL0     C28848   9.977   9.135   7.775  0.5786 -0.3326 -0.3474
  210MOL0     C28849  10.013   9.149   7.909 -0.1121  0.0830 -0.3392
  210MOL0     O28850  10.106   9.063   7.967 -0.0074 -0.7261  0.1023
  210MOL0     C28851  10.201   9.132   8.039  0.6461  0.5312 -0.4481
  210MOL0     C28852  10.327   9.057   8.080 -0.4114 -0.3910  0.3017
  210MOL0     C28853  10.464   9.111   8.033 -0.6387  0.5427  0.3441
  210MOL0     C28854  10.485   9.090   7.879  0.5052  0.0929  0.8248
  210MOL0     C28855  10.622   9.127   7.829 -0.3538  0.2629  0.1891
  210MOL0     C28856  10.656   9.109   7.679  0.7997  0.4544  0.7305
  210MOL0     C28857  10.809   9.103   7.656 -0.9288  0.7599 -0.0533
  210MOL0     C28858  10.880   9.239   7.679  1.0056  0.4971 -0.9368
  210MOL0     N28859  11.026   9.218   7.665  0.0161 -0.5403 -0.4495
  210MOL0     C28860  11.095   9.193   7.553 -0.0314 -0.1744 -0.2220
  210MOL0     C28861  11.224   9.173   7.585  0.0108  0.0758 -0.0107
  210MOL0     C28862  11.344   9.130   7.503 -0.1346 -0.4716  0.8502
  210MOL0     C28863  11.320   9.020   7.407  0.4845 -0.5167 -0.5110
  210MOL0     C28864  11.329   8.877   7.463  0.6397 -0.0935 -1.0474
  210MOL0     C28865  11.227   8.845   7.572  1.0664  0.4923  0.0951
  210MOL0     O28866  11.102   8.828   7.501  0.2703  0.4168  0.2352
  210MOL0     C28867  10.988   8.790   7.571 -0.2787  0.1645  0.2380
  210MOL0     C28868  10.978   8.774   7.705  0.8453  0.6900  0.1068
  210MOL0     C28869  10.848   8.741   7.769  0.5254  0.0898 -0.8315
  210MOL0     C28870  10.854   8.739   7.927 -0.2976 -1.0459 -0.0330
  210MOL0     C28871  10.736   8.707   7.691  0.6865  0.0553 -0.2992
  210MOL0     C28872  10.603   8.677   7.750  0.2539  0.3876  0.2071
  210MOL0     O28873  10.567   8.690   7.887 -0.1344 -0.2606  0.0591
  210MOL0     C28874  10.444   8.659   7.940  0.1184 -0.6732  0.1765
  210MOL0     C28875  10.435   8.611   8.072  1.4580  0.4304  0.0879
  210MOL0     C28876  10.311   8.606   8.140  0.7567 -0.6489 -0.1778
  210MOL0     C28877  10.191   8.645   8.074 -0.3490 -0.2351  0.0988
  210MOL0     O28878  10.072   8.623   8.139 -0.2338  0.1511  0.2522
  210MOL0     C28879   9.940   8.668   8.091 -0.9381 -0.1749 -0.3187
  210MOL0     C28880   9.848   8.685   8.214 -0.7527  0.1049 -0.2345
  210MOL0     C28881   9.692   8.702   8.195 -0.5696 -0.3345  0.4084
  210MOL0     C28882   9.663   8.741   8.047 -0.1307 -0.4132  0.3280
  210MOL0     C28883   9.517   8.762   8.026  0.1691  0.1457 -0.8415
  210MOL0     C28884   9.479   8.799   7.885  0.9381 -0.2247  0.7029
  210MOL0     C28885   9.336   8.770   7.858 -0.0841  1.0701  0.4305
  210MOL0     C28886   9.248   8.868   7.932  0.3558  0.4554  0.6730
  210MOL0    Cl28887   9.090   8.834   7.871  0.1528 -0.0174  0.1010
  210MOL0     C28888  10.203   8.697   7.944  0.0331  0.4525 -0.3134
  210MOL0     C28889  10.323   8.701   7.877 -0.7654 -0.5616 -0.8198
  210MOL0     O28890  10.525   8.632   7.660 -0.5530 -0.0643 -0.3980
  210MOL0     C28891  10.753   8.713   7.555 -0.9141  0.3274  0.6748
  210MOL0     C28892  10.873   8.757   7.497 -0.2735 -0.1944  0.3714
  210MOL0     N28893  11.226   9.180   7.724 -0.0002  0.3418 -0.3052
  210MOL0     N28894  11.108   9.207   7.772  0.2018 -0.1071 -0.1647
  210MOL0     C28895   9.980   9.276   7.962 -0.6281 -0.5993 -0.3291
  210MOL0     C28896   9.877   9.353   7.906  0.2126 -0.6563 -0.3371
  210MOL0     C28897   9.639   9.506   7.525  0.0877  0.6193  0.7021
  210MOL0     C28898   9.527   9.424   7.521  0.4609  0.5820 -0.7362
  210MOL0     C28899   9.409   9.466   7.458  0.4151  0.1505  0.2795
  210MOL0     C28900   9.403   9.592   7.393 -0.1989  0.0888  1.0590
  210MOL0     O28901   9.289   9.644   7.329 -0.6256 -0.7311  0.1550
  210MOL0     C28902   9.166   9.579   7.350 -0.1746 -1.1704  0.0573
  210MOL0     C28903   9.066   9.690   7.328 -0.5383  0.3990  0.4361
  210MOL0     C28904   9.086   9.818   7.411 -0.0035  0.1622  0.3982
  210MOL0     C28905   9.130   9.795   7.558 -0.1002 -0.5074  0.2349
  210MOL0     C28906   9.130   9.921   7.641  0.0969  0.8236  0.0051
  210MOL0     C28907   9.106  10.025   7.709  0.5332  1.4783  0.5740
  210MOL0     C28908   9.518   9.674   7.392 -0.3412  0.4229  1.1678
  210MOL0     C28909   9.639   9.636   7.456  0.4225  0.1456  1.1122
  210MOL0     C28910   9.752   9.735   7.460  0.5799  0.2349  0.6931
  210MOL0     H28911   9.853   9.195   7.612  2.1575  3.0212 -2.1083
  210MOL0     H28912  10.029   9.051   7.730  1.2163 -1.1259  1.7072
  210MOL0     H28913  10.153   9.153   8.135  1.2880 -1.1475  0.2728
  210MOL0     H28914  10.234   9.214   7.975 -0.7304 -0.3374 -2.3518
  210MOL0     H28915  10.324   9.058   8.189 -1.2107  0.0021  0.2827
  210MOL0     H28916  10.321   8.951   8.053 -2.4702  0.1451 -1.6799
  210MOL0     H28917  10.473   9.220   8.037 -0.3958  0.5399 -0.0795
  210MOL0     H28918  10.543   9.060   8.089 -0.9937 -1.8512 -1.2205
  210MOL0     H28919  10.456   8.989   7.847 -1.0545  0.9138 -0.5016
  210MOL0     H28920  10.414   9.152   7.824  2.6455 -0.7466 -3.3261
  210MOL0     H28921  10.679   9.061   7.895 -3.3206 -1.5028  1.2180
  210MOL0     H28922  10.635   9.232   7.856 -3.1425  0.0820  2.9143
  210MOL0     H28923  10.617   9.012   7.644  0.8470  1.0823 -1.1850
  210MOL0     H28924  10.614   9.187   7.615  0.9006  1.5328  1.9482
  210MOL0     H28925  10.840   9.071   7.556  3.0606  0.7948  1.0024
  210MOL0     H28926  10.846   9.025   7.723  1.8940  2.2722  0.3089
  210MOL0     H28927  10.845   9.312   7.605  3.6960  2.7208 -0.1793
  210MOL0     H28928  10.864   9.282   7.778  1.4256  3.3351 -2.0055
  210MOL0     H28929  11.061   9.183   7.451 -2.0147  0.2751  0.3604
  210MOL0     H28930  11.422   9.103   7.574 -0.5220 -0.6040  1.2270
  210MOL0     H28931  11.391   9.206   7.440 -0.5737  0.2426  1.3739
  210MOL0     H28932  11.223   9.043   7.363 -0.5836 -0.4369  1.7365
  210MOL0     H28933  11.394   9.027   7.326  0.7312  0.0631 -0.2451
  210MOL0     H28934  11.314   8.807   7.380 -1.8808 -0.3277 -0.4619
  210MOL0     H28935  11.429   8.873   7.508  0.2680 -0.7201 -0.2476
  210MOL0     H28936  11.258   8.752   7.622  2.6982  0.3712 -1.0740
  210MOL0     H28937  11.230   8.921   7.651 -0.7260  0.2332  0.4463
  210MOL0     H28938  11.053   8.821   7.769  0.7231 -0.4898  1.1603
  210MOL0     H28939  10.797   8.663   7.981  0.6025 -0.2951  2.1182
  210MOL0     H28940  10.819   8.836   7.965  1.4110 -1.0021  1.6537
  210MOL0     H28941  10.957   8.711   7.953 -0.9007 -1.3314  2.2593
  210MOL0     H28942  10.527   8.582   8.122  0.3022 -1.5483  1.2234
  210MOL0     H28943  10.302   8.570   8.242 -0.1691  2.2652  0.8627
  210MOL0     H28944   9.951   8.766   8.043  2.9323 -1.1920 -1.8912
  210MOL0     H28945   9.892   8.591   8.030 -2.2246  1.2496 -1.1642
  210MOL0     H28946   9.866   8.606   8.288 -2.4696 -0.8924 -0.8275
  210MOL0     H28947   9.876   8.771   8.275  1.5027 -1.0425  0.4541
  210MOL0     H28948   9.646   8.768   8.269  0.7078  0.8542  0.1820
  210MOL0     H28949   9.641   8.608   8.218 -2.0689  0.6088  1.0973
  210MOL0     H28950   9.701   8.672   7.972  1.3952  2.2467 -1.5019
  210MOL0     H28951   9.714   8.836   8.028 -1.4870  0.0501 -1.2948
  210MOL0     H28952   9.486   8.660   8.052  0.7938 -0.3691 -2.0694
  210MOL0     H28953   9.476   8.829   8.102  1.2855 -1.1466  0.9849
  210MOL0     H28954   9.536   8.740   7.812  0.7401 -2.1764  2.0493
  210MOL0     H28955   9.498   8.903   7.856 -0.8090  0.1599  0.8538
  210MOL0     H28956   9.315   8.669   7.894 -0.6797  1.6078  1.6227
  210MOL0     H28957   9.309   8.773   7.752  0.9837 -1.3158  0.0175
  210MOL0     H28958   9.271   8.970   7.901 -0.1733  0.2930 -0.3322
  210MOL0     H28959   9.266   8.859   8.039 -0.2051  0.4652  0.7707
  210MOL0     H28960  10.115   8.731   7.889  0.1933  1.0165 -0.2182
  210MOL0     H28961  10.323   8.746   7.778  3.2036  1.2757 -0.1915
  210MOL0     H28962  10.666   8.694   7.493 -1.2028  1.8977  0.5400
  210MOL0     H28963  10.884   8.774   7.391  4.1522  0.5202  0.7566
  210MOL0     H28964  10.003   9.291   8.067  0.1470  2.4553 -0.8248
  210MOL0     H28965   9.841   9.436   7.965 -0.5369  0.0928 -1.8032
  210MOL0     H28966   9.539   9.321   7.554 -0.0233  0.9669  0.7513
  210MOL0     H28967   9.328   9.394   7.449  1.2799 -0.6192 -2.7816
  210MOL0     H28968   9.156   9.503   7.272  1.7248 -0.7229 -0.6921
  210MOL0     H28969   9.148   9.536   7.449  0.0425 -1.3384  0.0256
  210MOL0     H28970   8.968   9.642   7.334 -1.5188  2.4392  1.8610
  210MOL0     H28971   9.072   9.716   7.222  1.0659 -0.1026  0.3723
  210MOL0     H28972   9.174   9.871   7.374  0.7674 -0.7591  0.8742
  210MOL0     H28973   8.995   9.879   7.403  0.4017  0.6990 -0.2109
  210MOL0     H28974   9.232   9.755   7.562 -0.2405 -0.9888 -0.6587
  210MOL0     H28975   9.059   9.734   7.615  1.1258 -1.2736  0.9702
  210MOL0     H28976   9.072  10.094   7.784 -0.1856 -0.7048  2.3503
  210MOL0     H28977   9.505   9.775   7.354  1.6538 -0.3217 -1.8268
  210MOL0     H28978   9.723   9.838   7.435 -3.1394 -1.0188 -0.7933
  210MOL0     H28979   9.792   9.737   7.562  3.3006  2.1871 -0.2819
  210MOL0     H28980   9.836   9.703   7.398 -0.2259  2.1892 -1.5590
  211MOL0     O28981  10.978   9.316   9.461 -0.4998 -0.1130 -0.0589
  211MOL0     C28982  10.926   9.423   9.430  0.6892 -0.4759 -0.2555
  211MOL0     O28983  10.977   9.547   9.459  0.0850 -0.0743 -0.1423
  211MOL0     C28984  11.110   9.544   9.500 -1.1537 -0.4567  0.0612
  211MOL0     C28985  11.140   9.596   9.631 -0.0930 -0.2433 -0.6282
  211MOL0     C28986  11.268   9.615   9.671 -0.0456  0.6596  0.0485
  211MOL0     C28987  11.374   9.581   9.595 -0.6052 -0.0976  0.2017
  211MOL0     O28988  11.508   9.619   9.623 -0.2812 -0.2832 -1.1356
  211MOL0     C28989  11.531   9.621   9.765  0.1796 -0.4277 -0.2599
  211MOL0     C28990  11.684   9.601   9.784  0.5807 -0.0971 -0.0254
  211MOL0     C28991  11.761   9.710   9.710  0.0268  0.1211  0.4896
  211MOL0     C28992  11.908   9.707   9.732 -0.2725  0.7252  0.7166
  211MOL0     C28993  11.969   9.824   9.649  0.1161 -2.0511  0.6618
  211MOL0     C28994  12.119   9.819   9.650 -0.4820  0.1144  0.3653
  211MOL0     C28995  12.187   9.932   9.565 -0.6629  0.5642 -0.2535
  211MOL0     C28996  12.314   9.978   9.623 -0.3987  0.5832  0.2439
  211MOL0     N28997  12.356  10.088   9.537  0.4126  0.3045  0.7160
  211MOL0     C28998  12.384  10.210   9.585 -0.4216 -0.6236 -0.7536
  211MOL0     C28999  12.456  10.271   9.485  0.5393 -0.3282 -0.4740
  211MOL0     C29000  12.521  10.405   9.499 -0.4731 -0.5433  0.3476
  211MOL0     C29001  12.623  10.444   9.389  0.2993 -0.7630 -0.4242
  211MOL0     C29002  12.753  10.373   9.416  0.0585  0.5235  0.8024
  211MOL0     C29003  12.863  10.462   9.352  0.3114 -0.0954 -0.4135
  211MOL0     O29004  12.991  10.412   9.328 -0.8860  0.2110 -0.5988
  211MOL0     C29005  13.081  10.407   9.431  0.4129 -0.1681  0.1874
  211MOL0     C29006  13.046  10.448   9.566 -0.8648  0.4415  0.3641
  211MOL0     C29007  13.149  10.442   9.658 -0.3036  0.0290 -0.2168
  211MOL0     C29008  13.112  10.491   9.796 -0.4249 -0.2376  0.0905
  211MOL0     C29009  13.284  10.410   9.619  0.2214  0.1284 -0.4835
  211MOL0     C29010  13.406  10.414   9.702 -0.2676  0.4023  0.6334
  211MOL0     O29011  13.524  10.381   9.640  0.1195  0.1812  1.0708
  211MOL0     C29012  13.639  10.408   9.707 -0.0699  0.5746 -0.0902
  211MOL0     C29013  13.738  10.306   9.705  0.3936 -0.7041 -0.2707
  211MOL0     C29014  13.861  10.334   9.773  0.1990 -0.2116 -0.0660
  211MOL0     C29015  13.893  10.461   9.827  0.5435  0.2428  0.2294
  211MOL0     O29016  14.022  10.471   9.880 -0.2515  0.0802 -0.0570
  211MOL0     C29017  14.089  10.591   9.855  0.1609  0.0610  0.1972
  211MOL0     C29018  14.239  10.563   9.879  0.8975 -1.2342 -0.5804
  211MOL0     C29019  14.310  10.695   9.909  0.4295 -0.4471 -0.8489
  211MOL0     C29020  14.457  10.683   9.920 -0.0821  0.1020 -0.0723
  211MOL0     C29021  14.530  10.818   9.905  0.2326 -0.4281 -0.7424
  211MOL0     C29022  14.676  10.819   9.942 -0.5445  0.3263  0.2197
  211MOL0     C29023  14.736  10.947   9.897 -0.2726 -0.4709  0.5918
  211MOL0     C29024  14.887  10.952   9.913 -0.0313  0.4576 -0.1489
  211MOL0    Cl29025  14.971  10.812   9.828 -0.1201  0.1363  0.1045
  211MOL0     C29026  13.799  10.559   9.814  0.1948  0.1952 -0.0160
  211MOL0     C29027  13.674  10.536   9.755 -0.4843  0.1545  0.1420
  211MOL0     O29028  13.395  10.453   9.818 -0.4227  0.8572 -0.4811
  211MOL0     C29029  13.309  10.381   9.484  0.5058 -0.2269  0.4151
  211MOL0     C29030  13.206  10.369   9.395 -0.0179  0.2162 -0.0397
  211MOL0     N29031  12.468  10.181   9.375  0.2102  0.5663 -0.0185
  211MOL0     N29032  12.409  10.075   9.407  0.6951  0.0110 -0.4348
  211MOL0     C29033  11.354   9.517   9.467 -0.1304  0.0864  0.1677
  211MOL0     C29034  11.218   9.489   9.423  0.3010  0.0636 -0.3237
  211MOL0     C29035  10.790   9.419   9.359  0.2318  0.2767  1.6391
  211MOL0     C29036  10.754   9.295   9.297 -0.0229  0.3902 -1.0081
  211MOL0     C29037  10.631   9.269   9.242 -1.0012 -0.2245  0.0801
  211MOL0     C29038  10.545   9.376   9.225  0.7819 -0.7832  0.3382
  211MOL0     O29039  10.419   9.372   9.166 -0.1161 -0.1616  0.5217
  211MOL0     C29040  10.393   9.268   9.072  0.8404  0.0102 -0.0169
  211MOL0     C29041  10.281   9.310   8.977 -0.2674  0.5205  0.4312
  211MOL0     C29042  10.151   9.335   9.056 -0.3730 -0.1360 -0.3111
  211MOL0     C29043  10.025   9.343   8.983  1.4167  1.0305  0.6009
  211MOL0     C29044   9.992   9.210   8.928  0.2587 -0.4577  1.0894
  211MOL0     C29045   9.963   9.111   8.864 -0.5682  0.7649  0.1813
  211MOL0     C29046  10.586   9.498   9.268 -0.0534  0.0812  0.2701
  211MOL0     C29047  10.710   9.522   9.328 -0.1843 -0.5077 -0.7206
  211MOL0     C29048  10.742   9.670   9.351  0.1401 -0.2253  0.1250
  211MOL0     H29049  11.060   9.636   9.692  0.3459 -0.0164 -0.1929
  211MOL0     H29050  11.273   9.665   9.767 -0.0800  0.9092 -0.0788
  211MOL0     H29051  11.468   9.549   9.818  0.8908 -1.1672 -0.3959
  211MOL0     H29052  11.510   9.720   9.807  0.9760 -0.0902 -0.6517
  211MOL0     H29053  11.706   9.605   9.891 -0.3550  4.0204  0.2024
  211MOL0     H29054  11.723   9.509   9.741  3.2189  0.8999  0.0388
  211MOL0     H29055  11.734   9.694   9.605 -0.1166 -0.5067  0.6167
  211MOL0     H29056  11.720   9.807   9.740 -3.0757 -1.9499  3.8259
  211MOL0     H29057  11.931   9.730   9.837  0.8864 -2.9398  1.4238
  211MOL0     H29058  11.957   9.611   9.713 -1.3789  0.7624 -2.9207
  211MOL0     H29059  11.944   9.921   9.693  0.2200 -0.8505 -1.7306
  211MOL0     H29060  11.927   9.832   9.548 -0.7726  1.7431  1.1801
  211MOL0     H29061  12.153   9.843   9.751  1.4975  2.0303 -0.6623
  211MOL0     H29062  12.158   9.721   9.620 -2.8251 -0.0155 -2.7143
  211MOL0     H29063  12.114  10.013   9.556 -0.3798  0.9312  0.6136
  211MOL0     H29064  12.207   9.892   9.465  0.7615 -0.4701  0.4216
  211MOL0     H29065  12.298  10.017   9.725 -3.9472 -2.3281  0.9773
  211MOL0     H29066  12.395   9.906   9.613  0.4716  1.2676  1.8568
  211MOL0     H29067  12.368  10.255   9.682 -0.6694  0.3768 -1.2496
  211MOL0     H29068  12.586  10.413   9.587  0.1078  1.1008 -0.1966
  211MOL0     H29069  12.443  10.481   9.501  0.0702  0.0683 -0.7190
  211MOL0     H29070  12.581  10.426   9.290  1.9944  0.2458 -1.3652
  211MOL0     H29071  12.642  10.551   9.402 -0.9511 -0.5429 -0.2352
  211MOL0     H29072  12.783  10.363   9.521  0.6757 -1.2692  0.4942
  211MOL0     H29073  12.761  10.272   9.374 -1.4515  0.8794 -0.4144
  211MOL0     H29074  12.825  10.480   9.251 -1.4922 -1.1818  0.0230
  211MOL0     H29075  12.863  10.558   9.405  0.5423 -0.2540 -0.1181
  211MOL0     H29076  12.944  10.480   9.585 -0.9548 -0.7999  2.1886
  211MOL0     H29077  13.009  10.472   9.825  0.1303 -0.0124  2.4285
  211MOL0     H29078  13.121  10.600   9.793 -0.3077 -0.2552 -0.3149
  211MOL0     H29079  13.172  10.437   9.871 -0.6262 -0.8647 -0.1965
  211MOL0     H29080  13.727  10.213   9.650  1.0874 -0.6172 -0.5687
  211MOL0     H29081  13.936  10.256   9.764 -0.9494 -1.1801 -1.7847
  211MOL0     H29082  14.072  10.629   9.753 -1.4699 -1.8793 -0.3170
  211MOL0     H29083  14.058  10.672   9.922 -1.2973 -1.3910  1.3372
  211MOL0     H29084  14.248  10.508   9.974 -0.3800  0.1832  0.4158
  211MOL0     H29085  14.288  10.509   9.797 -0.6752 -2.7177 -0.5991
  211MOL0     H29086  14.274  10.738  10.003  0.3371  1.5860 -1.7667
  211MOL0     H29087  14.289  10.763   9.826 -3.7046 -1.0949 -0.5681
  211MOL0     H29088  14.477  10.624   9.830  0.1318 -2.5338  1.6004
  211MOL0     H29089  14.491  10.620  10.003 -1.6623 -1.7504 -0.7504
  211MOL0     H29090  14.522  10.844   9.799  1.2968 -0.0921 -0.7532
  211MOL0     H29091  14.480  10.889   9.972  1.0496  1.4186 -1.9973
  211MOL0     H29092  14.726  10.737   9.890  0.2184  1.5127 -1.0153
  211MOL0     H29093  14.704  10.814  10.048  1.3090  3.3003 -0.0132
  211MOL0     H29094  14.696  11.027   9.960 -0.2110 -1.4933  1.9644
  211MOL0     H29095  14.712  10.965   9.791  0.4973  2.1477  0.7870
  211MOL0     H29096  14.906  10.945  10.020 -0.2666  1.3453 -0.0406
  211MOL0     H29097  14.920  11.047   9.870 -0.3494  0.6573  0.0442
  211MOL0     H29098  13.835  10.660   9.832  0.3824 -0.3089  2.7213
  211MOL0     H29099  13.613  10.623   9.734 -0.3424 -0.3698 -2.9032
  211MOL0     H29100  13.410  10.368   9.446  0.0178 -1.0571 -0.6484
  211MOL0     H29101  13.220  10.347   9.290 -1.6710  0.2559 -0.2892
  211MOL0     H29102  11.432   9.491   9.396 -1.6243 -1.1321 -1.1180
  211MOL0     H29103  11.198   9.434   9.332 -1.3302  0.8327 -0.4562
  211MOL0     H29104  10.812   9.205   9.315  3.3425  2.5922  0.3107
  211MOL0     H29105  10.614   9.171   9.199 -1.7735  0.1895 -0.5828
  211MOL0     H29106  10.487   9.245   9.021  2.4294  4.1581  0.6503
  211MOL0     H29107  10.349   9.182   9.124  0.9134 -0.4105 -0.6395
  211MOL0     H29108  10.268   9.233   8.900  2.0335  0.7647 -0.2700
  211MOL0     H29109  10.314   9.402   8.928 -0.3394  0.3748  0.1024
  211MOL0     H29110  10.129   9.262   9.134  0.9648 -0.1842  0.0583
  211MOL0     H29111  10.173   9.427   9.111  0.9829  0.6829 -2.1088
  211MOL0     H29112  10.032   9.424   8.910  3.2816 -0.3097 -0.8169
  211MOL0     H29113   9.939   9.366   9.046 -0.2595  2.4207 -2.0128
  211MOL0     H29114   9.938   9.020   8.814 -2.2206  0.5051  1.3989
  211MOL0     H29115  10.521   9.581   9.243 -1.0924 -0.3722  1.3479
  211MOL0     H29116  10.816   9.683   9.272 -2.3703  0.0431 -2.3601
  211MOL0     H29117  10.667   9.745   9.326  2.0403  1.1588 -1.7728
  211MOL0     H29118  10.772   9.684   9.455 -0.1023 -0.0942  0.1783
  212MOL0     O29119   1.714   4.153   7.731  0.4145 -0.0073  0.9205
  212MOL0     C29120   1.691   4.080   7.638 -1.7115  0.0664 -0.9362
  212MOL0     O29121   1.771   4.060   7.529  0.5564 -0.0154 -0.2287
  212MOL0     C29122   1.890   4.128   7.513 -0.4313  0.9279  0.4841
  212MOL0     C29123   2.004   4.067   7.563 -0.1596  0.0115 -0.2393
  212MOL0     C29124   2.128   4.127   7.534 -0.1699 -0.4119 -0.0675
  212MOL0     C29125   2.131   4.238   7.450 -0.3514 -0.4068  0.0515
  212MOL0     O29126   2.252   4.281   7.401 -0.1944  0.7112  0.2031
  212MOL0     C29127   2.248   4.306   7.257  0.8413  0.5397  0.5240
  212MOL0     C29128   2.382   4.365   7.213 -0.3301 -0.0682 -1.4995
  212MOL0     C29129   2.499   4.263   7.230  0.1754  0.0176 -0.3343
  212MOL0     C29130   2.631   4.310   7.178 -0.6865 -0.4670  0.2888
  212MOL0     C29131   2.755   4.206   7.203  0.6621  0.6935  0.0736
  212MOL0     C29132   2.884   4.289   7.164 -0.9535  0.1863 -0.3971
  212MOL0     C29133   3.010   4.230   7.213  0.0464  0.1685 -0.3630
  212MOL0     C29134   3.125   4.324   7.166 -0.3826  0.6445 -0.2646
  212MOL0     N29135   3.257   4.274   7.206  0.6600 -0.1829 -0.2016
  212MOL0     C29136   3.287   4.262   7.337 -0.0955  0.4744  0.3995
  212MOL0     C29137   3.403   4.191   7.341 -0.6959 -0.1323  0.1084
  212MOL0     C29138   3.468   4.151   7.469  0.4336  0.3242 -0.0485
  212MOL0     C29139   3.600   4.223   7.483  0.6710 -0.4887 -0.0624
  212MOL0     C29140   3.696   4.170   7.593  0.4917  0.0952 -0.0111
  212MOL0     C29141   3.832   4.240   7.596  0.5388  0.5294 -0.4427
  212MOL0     O29142   3.878   4.261   7.735  0.3704 -0.0375  0.6790
  212MOL0     C29143   3.995   4.202   7.763 -0.5863 -0.3312 -0.6234
  212MOL0     C29144   4.109   4.272   7.727  0.5066  0.1879  0.8598
  212MOL0     C29145   4.231   4.211   7.740  0.5112  0.0893 -0.1275
  212MOL0     C29146   4.350   4.304   7.704 -0.2249 -0.7076  0.1135
  212MOL0     C29147   4.236   4.083   7.815 -0.5904 -0.2111  0.3071
  212MOL0     C29148   4.364   4.014   7.851  0.2822 -0.0477  0.4403
  212MOL0     O29149   4.350   3.889   7.904 -0.0366  0.3346  0.0665
  212MOL0     C29150   4.467   3.848   7.958  0.0474 -0.7595 -0.5209
  212MOL0     C29151   4.478   3.836   8.094  0.3738 -0.7679 -0.9698
  212MOL0     C29152   4.592   3.783   8.149  0.0931  0.7191  0.0867
  212MOL0     C29153   4.701   3.736   8.075  0.3208 -0.2078  0.1711
  212MOL0     O29154   4.816   3.680   8.124  0.1523  0.8255 -0.7129
  212MOL0     C29155   4.862   3.731   8.252  0.1598 -0.3095  0.3002
  212MOL0     C29156   4.997   3.671   8.276  0.3537  0.9095 -0.4859
  212MOL0     C29157   5.108   3.743   8.206 -0.4593  0.2113  0.0206
  212MOL0     C29158   5.121   3.685   8.061 -0.5242 -0.6585  0.1480
  212MOL0     C29159   5.226   3.764   7.978  0.2209 -0.1713  0.3298
  212MOL0     C29160   5.374   3.759   8.029  0.1225  0.0621  0.2039
  212MOL0     C29161   5.467   3.831   7.924 -0.4747 -0.9481 -0.6836
  212MOL0     C29162   5.617   3.804   7.961  0.4423  0.1324 -0.8036
  212MOL0    Cl29163   5.669   3.889   8.116  0.2055  0.4299 -0.4523
  212MOL0     C29164   4.688   3.741   7.939  0.2491  0.1554  0.4676
  212MOL0     C29165   4.575   3.807   7.884 -0.0113  0.3150 -0.2359
  212MOL0     O29166   4.465   4.069   7.827 -0.2684 -0.5767 -0.2625
  212MOL0     C29167   4.118   4.024   7.851  0.4850  0.9421 -0.5086
  212MOL0     C29168   4.002   4.076   7.821  0.4502 -0.1342  0.4697
  212MOL0     N29169   3.434   4.148   7.216  0.2910 -0.1079  0.3406
  212MOL0     N29170   3.346   4.202   7.139 -1.5118 -0.8637  0.3755
  212MOL0     C29171   2.019   4.297   7.413  0.1837  0.0204  0.2023
  212MOL0     C29172   1.893   4.242   7.438  0.5519  0.3820  0.3109
  212MOL0     C29173   1.564   4.016   7.643 -0.0315  0.3920  0.8420
  212MOL0     C29174   1.506   3.989   7.760  0.1821 -0.0905 -0.8678
  212MOL0     C29175   1.381   3.929   7.767 -0.5444 -0.3229 -0.5459
  212MOL0     C29176   1.317   3.889   7.647 -0.3761  0.2095 -0.3953
  212MOL0     O29177   1.194   3.825   7.661  0.4350 -0.5381  0.3596
  212MOL0     C29178   1.087   3.903   7.624  0.7014  0.7111 -0.7558
  212MOL0     C29179   1.010   3.945   7.751 -0.1663 -0.6072 -0.0188
  212MOL0     C29180   1.073   4.071   7.819  0.7728 -0.3640  0.3859
  212MOL0     C29181   1.116   4.189   7.730  0.3101 -0.1356  0.0311
  212MOL0     C29182   1.012   4.219   7.630  0.1009 -0.0986  1.0433
  212MOL0     C29183   0.928   4.255   7.547  0.5425 -0.1754 -0.1700
  212MOL0     C29184   1.377   3.921   7.529  0.8368  0.1014 -0.0111
  212MOL0     C29185   1.500   3.989   7.521 -0.0929 -0.2523  0.3286
  212MOL0     C29186   1.550   4.004   7.385 -0.3060  0.4933  0.6295
  212MOL0     H29187   1.997   3.967   7.604  0.0313 -0.0480 -0.3496
  212MOL0     H29188   2.223   4.083   7.565  0.0615 -1.0023 -1.5148
  212MOL0     H29189   2.186   4.391   7.225  4.7692  3.8797  0.8656
  212MOL0     H29190   2.228   4.206   7.219  1.7984  0.5053  0.0892
  212MOL0     H29191   2.373   4.377   7.104 -1.4579  1.4763 -1.2600
  212MOL0     H29192   2.400   4.456   7.271  0.7479 -1.8042  1.0595
  212MOL0     H29193   2.501   4.230   7.334  0.7877 -1.8707 -0.9148
  212MOL0     H29194   2.472   4.175   7.171 -1.2065  0.6650 -0.7116
  212MOL0     H29195   2.627   4.332   7.071  0.2144  3.6500  0.9335
  212MOL0     H29196   2.665   4.406   7.216  0.6834  0.0707 -2.0766
  212MOL0     H29197   2.744   4.112   7.147  2.4316  0.5310 -0.0655
  212MOL0     H29198   2.753   4.171   7.306 -1.6737 -3.3140 -1.1196
  212MOL0     H29199   2.882   4.305   7.056 -0.5508 -0.2780 -0.4789
  212MOL0     H29200   2.875   4.391   7.203  2.6338  0.9085 -1.1107
  212MOL0     H29201   3.030   4.134   7.165  3.5268 -0.4844  2.0643
  212MOL0     H29202   3.009   4.197   7.317 -0.6382 -1.6678 -0.9159
  212MOL0     H29203   3.120   4.324   7.057  0.3724  2.4573 -0.3292
  212MOL0     H29204   3.109   4.423   7.209  0.6730  0.7467 -0.0705
  212MOL0     H29205   3.233   4.295   7.426 -0.3669  0.7570  0.1334
  212MOL0     H29206   3.477   4.042   7.462  0.4803  0.3818 -0.9943
  212MOL0     H29207   3.409   4.185   7.555 -0.7394 -1.1408 -0.2298
  212MOL0     H29208   3.653   4.214   7.387  0.3158  0.2893 -0.3430
  212MOL0     H29209   3.581   4.329   7.499  2.4362 -0.4493  2.2097
  212MOL0     H29210   3.645   4.182   7.690 -1.1376 -0.2824 -0.7785
  212MOL0     H29211   3.699   4.061   7.581 -3.4503 -0.2175  0.2399
  212MOL0     H29212   3.903   4.185   7.533  0.7142  1.9185 -1.5227
  212MOL0     H29213   3.820   4.335   7.543  0.9520  0.5179 -0.5638
  212MOL0     H29214   4.092   4.370   7.684  0.1253  1.3433  3.4664
  212MOL0     H29215   4.304   4.388   7.651  0.8970  1.3237  2.1857
  212MOL0     H29216   4.423   4.258   7.637  0.2798  1.9823 -1.3184
  212MOL0     H29217   4.399   4.345   7.793 -1.1081  0.3420  0.1318
  212MOL0     H29218   4.399   3.857   8.165  2.4552  1.2102  0.9537
  212MOL0     H29219   4.601   3.777   8.257  0.8269  0.3548  0.0129
  212MOL0     H29220   4.860   3.841   8.248  2.0714 -0.2251  0.6074
  212MOL0     H29221   4.794   3.688   8.326  1.9897  0.1198  2.3610
  212MOL0     H29222   5.022   3.688   8.381 -1.3982  1.1563 -0.0809
  212MOL0     H29223   4.988   3.564   8.257 -1.4176  0.8459  0.4961
  212MOL0     H29224   5.201   3.712   8.254  0.2210  3.9872  1.4481
  212MOL0     H29225   5.099   3.852   8.212 -0.5175  0.3777 -2.1161
  212MOL0     H29226   5.029   3.682   8.002 -0.2864  1.6200 -0.4272
  212MOL0     H29227   5.154   3.583   8.081 -1.7756 -0.9047  1.1294
  212MOL0     H29228   5.229   3.731   7.874 -0.7632 -1.8637  0.7873
  212MOL0     H29229   5.200   3.870   7.987 -1.3619 -0.3469 -1.5208
  212MOL0     H29230   5.411   3.659   8.054 -0.4294 -0.2554 -0.2310
  212MOL0     H29231   5.370   3.819   8.121 -0.3773  1.1561 -0.5130
  212MOL0     H29232   5.455   3.940   7.929  2.2981 -0.6195  1.9997
  212MOL0     H29233   5.457   3.800   7.820  1.0505 -1.5906 -0.6530
  212MOL0     H29234   5.679   3.854   7.885  0.6576 -0.0502 -0.7495
  212MOL0     H29235   5.641   3.699   7.976  2.7148  0.5413 -1.1513
  212MOL0     H29236   4.774   3.722   7.876  1.3475  0.9018  1.7022
  212MOL0     H29237   4.572   3.821   7.776 -0.6476  2.1671 -0.0273
  212MOL0     H29238   4.123   3.929   7.905 -1.2354  1.6090  0.9290
  212MOL0     H29239   3.906   4.026   7.833  0.7678 -0.5839  1.1780
  212MOL0     H29240   2.025   4.392   7.361 -0.6678 -0.7634 -1.4214
  212MOL0     H29241   1.803   4.287   7.397  1.4332  0.9981 -0.9927
  212MOL0     H29242   1.561   3.996   7.853 -0.2111  0.4851 -0.6789
  212MOL0     H29243   1.340   3.908   7.866 -1.5932  0.8196 -0.7119
  212MOL0     H29244   1.101   3.985   7.553  0.1226  0.9041 -0.6474
  212MOL0     H29245   1.016   3.840   7.569  2.4522 -0.8323 -1.3710
  212MOL0     H29246   1.023   3.857   7.816 -1.9846 -0.3367  0.7693
  212MOL0     H29247   0.907   3.970   7.727 -0.5406 -1.9705  0.0717
  212MOL0     H29248   0.993   4.115   7.879  0.5144 -0.3992  0.0687
  212MOL0     H29249   1.154   4.040   7.886  2.1858 -2.2043 -2.0136
  212MOL0     H29250   1.211   4.164   7.683 -0.7014  0.5749 -2.5839
  212MOL0     H29251   1.135   4.273   7.796  1.5266 -0.0671 -0.3925
  212MOL0     H29252   0.865   4.283   7.465  0.2782 -0.2000  0.0226
  212MOL0     H29253   1.336   3.881   7.436 -0.4923  2.2797 -0.4175
  212MOL0     H29254   1.632   3.934   7.367 -0.6387 -0.0803  1.2796
  212MOL0     H29255   1.469   3.982   7.315  0.2558  1.0535 -0.2056
  212MOL0     H29256   1.582   4.103   7.351 -1.3684  0.6854  0.1584
  213MOL0     O29257   9.155   8.147   8.429 -0.3891  0.7932  0.7179
  213MOL0     C29258   9.130   8.271   8.426 -0.5147  0.9294 -0.2724
  213MOL0     O29259   9.228   8.362   8.415  0.4436 -0.0094  0.2744
  213MOL0     C29260   9.368   8.350   8.391  0.8426  0.1129 -0.2890
  213MOL0     C29261   9.419   8.230   8.347 -0.4306 -0.4690 -0.1468
  213MOL0     C29262   9.550   8.218   8.306 -0.7542 -0.0028 -0.4345
  213MOL0     C29263   9.644   8.317   8.331 -0.0198  0.8178 -0.5764
  213MOL0     O29264   9.781   8.328   8.307 -0.0021 -0.5325  0.1489
  213MOL0     C29265   9.828   8.228   8.214 -0.2122 -0.1238  0.4780
  213MOL0     C29266   9.960   8.276   8.155  0.6300 -0.0155  0.5369
  213MOL0     C29267  10.047   8.167   8.095  0.4330 -0.2455 -0.0073
  213MOL0     C29268  10.107   8.066   8.191  0.0891 -0.1087  0.2199
  213MOL0     C29269  10.232   8.011   8.137 -0.4697  0.7846  1.0144
  213MOL0     C29270  10.295   7.912   8.238 -0.7870 -0.6832 -0.1434
  213MOL0     C29271  10.440   7.883   8.192 -0.3196  0.8399 -0.8720
  213MOL0     C29272  10.441   7.810   8.064  0.6481  0.0342  0.1131
  213MOL0     N29273  10.573   7.758   8.039  0.3076 -0.2891  0.5549
  213MOL0     C29274  10.674   7.807   7.960  0.3357 -0.4836 -0.3876
  213MOL0     C29275  10.783   7.733   7.991  0.1032 -0.4806  0.5018
  213MOL0     C29276  10.917   7.757   7.921  0.4902 -0.2271 -0.2206
  213MOL0     C29277  11.035   7.723   8.014 -0.3293 -0.4062 -0.3723
  213MOL0     C29278  11.162   7.714   7.933 -0.2602 -0.3809 -0.2677
  213MOL0     C29279  11.289   7.692   8.023 -0.0604  0.5924 -0.1758
  213MOL0     O29280  11.264   7.575   8.096 -0.2566  0.2995 -0.2297
  213MOL0     C29281  11.378   7.520   8.149  0.2269 -0.8405  0.3790
  213MOL0     C29282  11.456   7.599   8.228  0.0224  0.1424  0.4031
  213MOL0     C29283  11.579   7.559   8.276  0.3579  0.4320 -0.5536
  213MOL0     C29284  11.631   7.659   8.372 -0.6463 -0.8212  0.4721
  213MOL0     C29285  11.622   7.427   8.255 -0.6711  0.3810  0.3558
  213MOL0     C29286  11.752   7.370   8.307  0.5602  0.9521  0.0525
  213MOL0     O29287  11.770   7.232   8.288  0.5192  0.3972  0.2232
  213MOL0     C29288  11.876   7.174   8.350  0.1100  0.2240  0.0065
  213MOL0     C29289  11.887   7.167   8.486 -1.2397  0.2759 -0.0890
  213MOL0     C29290  12.008   7.114   8.539  0.4890 -0.0154 -0.0754
  213MOL0     C29291  12.115   7.064   8.459  0.2136  0.6762 -0.2835
  213MOL0     O29292  12.232   7.025   8.513 -0.6346 -0.3056  0.0894
  213MOL0     C29293  12.274   6.893   8.482 -0.1073 -0.6025 -0.1178
  213MOL0     C29294  12.381   6.847   8.575 -0.7905 -0.0400  0.4907
  213MOL0     C29295  12.513   6.927   8.552 -0.4231 -0.4889 -0.2353
  213MOL0     C29296  12.625   6.880   8.648 -0.2145  0.8331  0.5455
  213MOL0     C29297  12.751   6.965   8.628  0.7297 -0.1183 -0.4339
  213MOL0     C29298  12.845   6.949   8.741  0.2390  0.7120 -1.1409
  213MOL0     C29299  12.949   7.064   8.754  0.9277  0.3862 -0.0436
  213MOL0     C29300  13.052   7.080   8.635  0.8678 -0.3314 -0.5676
  213MOL0    Cl29301  12.977   7.164   8.488 -0.0435  0.0654 -0.1428
  213MOL0     C29302  12.083   7.055   8.325 -0.0253  0.8314  0.4061
  213MOL0     C29303  11.973   7.110   8.274  0.3738 -0.1332  0.1824
  213MOL0     O29304  11.818   7.437   8.383  0.4834 -0.2500 -0.0226
  213MOL0     C29305  11.532   7.340   8.183 -0.4227 -0.4262 -0.0782
  213MOL0     C29306  11.411   7.387   8.137 -0.1514  0.1306 -0.0354
  213MOL0     N29307  10.743   7.649   8.093 -0.0505  0.3529  0.1231
  213MOL0     N29308  10.622   7.654   8.122 -0.3002  0.4336  0.0377
  213MOL0     C29309   9.589   8.432   8.400  0.0919  0.6287 -1.0674
  213MOL0     C29310   9.453   8.451   8.427 -0.3466  0.0407 -0.8505
  213MOL0     C29311   8.983   8.321   8.447  0.2452 -0.0872  0.8916
  213MOL0     C29312   8.966   8.444   8.516 -0.0638  0.6051 -0.5029
  213MOL0     C29313   8.849   8.496   8.552  0.7298 -0.6539  0.6244
  213MOL0     C29314   8.736   8.426   8.514  0.7844  0.4242 -0.5070
  213MOL0     O29315   8.612   8.475   8.562 -0.1151 -0.0015  0.1481
  213MOL0     C29316   8.490   8.421   8.509  0.4474 -0.2287 -0.1590
  213MOL0     C29317   8.381   8.492   8.583 -0.2130  0.3228  0.7340
  213MOL0     C29318   8.391   8.643   8.594  0.6563  0.2297  0.0695
  213MOL0     C29319   8.276   8.713   8.650  1.0100 -1.1492  0.1442
  213MOL0     C29320   8.314   8.844   8.704 -0.0288 -0.0154  0.7992
  213MOL0     C29321   8.340   8.956   8.745  0.2098 -0.1505  0.6912
  213MOL0     C29322   8.744   8.314   8.431 -0.1697  0.2509  0.0631
  213MOL0     C29323   8.867   8.259   8.398 -0.5634  0.5519 -0.5028
  213MOL0     C29324   8.875   8.122   8.325 -0.0453 -0.4606 -0.3871
  213MOL0     H29325   9.354   8.148   8.319  0.7009 -1.7982  0.9869
  213MOL0     H29326   9.596   8.129   8.266  3.7760  1.9752 -0.2974
  213MOL0     H29327   9.760   8.194   8.135  0.4734 -3.8775  1.2951
  213MOL0     H29328   9.846   8.133   8.266  1.5410 -0.1159 -0.0254
  213MOL0     H29329   9.945   8.341   8.068 -0.3598 -1.9326 -0.8148
  213MOL0     H29330  10.028   8.324   8.226  0.5053 -1.1338  1.4393
  213MOL0     H29331  10.013   8.117   8.004 -3.1663  1.3640  0.2750
  213MOL0     H29332  10.127   8.233   8.059  0.6318 -0.0491  0.7783
  213MOL0     H29333  10.125   8.114   8.288 -1.5370 -0.6665  0.8340
  213MOL0     H29334  10.035   7.985   8.208  1.7404 -1.1440  3.0292
  213MOL0     H29335  10.288   8.100   8.107 -0.4547  0.7277  0.8700
  213MOL0     H29336  10.216   7.949   8.048 -0.1544 -0.3029  1.7041
  213MOL0     H29337  10.304   7.951   8.340  0.5997  0.0972 -0.5396
  213MOL0     H29338  10.242   7.816   8.241  1.2620 -1.9229 -0.8993
  213MOL0     H29339  10.490   7.823   8.269 -2.4038  0.9798  0.6698
  213MOL0     H29340  10.500   7.975   8.190 -0.0169  0.6987  0.4076
  213MOL0     H29341  10.361   7.735   8.067  0.5363  0.1438 -0.0454
  213MOL0     H29342  10.411   7.874   7.980 -3.2753 -0.8587  0.6473
  213MOL0     H29343  10.664   7.888   7.889  0.4917  0.9997  1.2229
  213MOL0     H29344  10.930   7.861   7.892 -0.5681  0.3259  1.2015
  213MOL0     H29345  10.914   7.691   7.833  3.1113  0.3734 -0.8400
  213MOL0     H29346  11.041   7.810   8.081 -1.2551  0.4861 -1.4045
  213MOL0     H29347  11.018   7.631   8.070  0.5658 -0.9940 -1.0280
  213MOL0     H29348  11.155   7.624   7.872 -2.5176  0.1355 -0.8519
  213MOL0     H29349  11.172   7.797   7.863  2.5590  0.6502  1.1874
  213MOL0     H29350  11.375   7.667   7.960 -0.0928 -2.5873  0.8877
  213MOL0     H29351  11.317   7.785   8.074 -0.1442  1.2750 -1.3338
  213MOL0     H29352  11.413   7.695   8.254  0.8708  0.0788  2.1738
  213MOL0     H29353  11.697   7.726   8.317 -1.5735  0.3872  0.7752
  213MOL0     H29354  11.676   7.608   8.457 -0.5603 -1.5308  0.0036
  213MOL0     H29355  11.553   7.728   8.406 -1.0833 -0.9127 -0.3155
  213MOL0     H29356  11.806   7.215   8.540 -1.4539 -1.3911  1.1411
  213MOL0     H29357  12.018   7.125   8.646  4.5741  0.0805 -0.3162
  213MOL0     H29358  12.186   6.832   8.501 -0.4901 -0.9258 -2.6085
  213MOL0     H29359  12.316   6.886   8.381 -1.2867  1.4153 -0.8170
  213MOL0     H29360  12.341   6.854   8.676 -2.6434  1.9198 -0.2938
  213MOL0     H29361  12.400   6.740   8.566  0.9460  0.2672  0.2386
  213MOL0     H29362  12.497   7.035   8.550  0.2435 -0.3985 -1.7741
  213MOL0     H29363  12.544   6.915   8.448 -0.8329  1.0537 -0.5639
  213MOL0     H29364  12.664   6.784   8.614 -1.1244  0.8033 -0.4464
  213MOL0     H29365  12.609   6.869   8.756  2.9234  0.3136  1.0650
  213MOL0     H29366  12.799   6.928   8.537  0.8429 -2.9025  0.6569
  213MOL0     H29367  12.723   7.069   8.610  0.1882  0.0552  1.2855
  213MOL0     H29368  12.905   6.857   8.741 -1.2961 -0.3365 -1.5587
  213MOL0     H29369  12.781   6.942   8.829  1.1500 -0.6632 -0.5480
  213MOL0     H29370  13.001   7.042   8.847 -0.1866  0.9488  0.7403
  213MOL0     H29371  12.906   7.165   8.761 -0.9813 -0.1081 -2.9685
  213MOL0     H29372  13.082   6.978   8.609 -2.6602 -1.9376  1.0010
  213MOL0     H29373  13.136   7.141   8.668 -0.2576  1.0722 -0.1997
  213MOL0     H29374  12.152   7.017   8.250 -1.4245  2.0604 -1.6294
  213MOL0     H29375  11.962   7.115   8.166  1.3851 -1.5570 -0.0273
  213MOL0     H29376  11.555   7.236   8.163 -1.4378 -0.2406 -2.5697
  213MOL0     H29377  11.347   7.318   8.083  1.1506 -2.1999  1.2668
  213MOL0     H29378   9.659   8.506   8.435 -1.5573  0.8570  2.1059
  213MOL0     H29379   9.409   8.543   8.466  2.8812  1.8543 -1.1588
  213MOL0     H29380   9.052   8.500   8.550 -0.7948  0.9757  0.8268
  213MOL0     H29381   8.843   8.582   8.617  0.4733 -0.4412  0.3263
  213MOL0     H29382   8.486   8.435   8.400 -1.6973 -0.0243 -0.1063
  213MOL0     H29383   8.489   8.314   8.527 -1.0894  0.0543  1.8326
  213MOL0     H29384   8.364   8.444   8.680  0.3271  1.4248  1.3889
  213MOL0     H29385   8.290   8.472   8.526  1.6287 -0.7199 -2.0925
  213MOL0     H29386   8.480   8.663   8.654 -0.2741 -0.6792  1.8138
  213MOL0     H29387   8.405   8.688   8.495 -0.1858 -0.5707 -0.4260
  213MOL0     H29388   8.244   8.653   8.736 -1.4123 -0.7967 -0.4221
  213MOL0     H29389   8.192   8.738   8.584  0.3188 -0.8307  1.1132
  213MOL0     H29390   8.365   9.057   8.768  1.1050 -0.3754  0.7155
  213MOL0     H29391   8.660   8.253   8.401  0.9080 -0.5571 -1.4255
  213MOL0     H29392   8.871   8.037   8.394  0.9768  0.7611  1.2526
  213MOL0     H29393   8.801   8.122   8.244 -0.1562  1.4758 -0.3406
  213MOL0     H29394   8.970   8.102   8.275  0.6419  0.6886  0.4071
  214MOL0     O29395   3.994   5.833   7.613  0.4043 -0.5801 -0.1954
  214MOL0     C29396   3.943   5.722   7.599 -0.6706 -0.4323  0.1138
  214MOL0     O29397   3.991   5.602   7.650 -0.1132 -0.1216 -0.2197
  214MOL0     C29398   4.098   5.596   7.731  0.1431 -0.3658 -0.0666
  214MOL0     C29399   4.172   5.480   7.751 -0.6661  0.0203 -0.2891
  214MOL0     C29400   4.281   5.469   7.839  0.9269  0.1038 -0.4813
  214MOL0     C29401   4.323   5.579   7.910  0.1470  0.4319  0.1275
  214MOL0     O29402   4.427   5.572   8.002 -0.0316  0.2599 -0.7033
  214MOL0     C29403   4.541   5.651   7.973 -0.4274 -0.0730  0.6101
  214MOL0     C29404   4.638   5.570   7.881  0.0026 -0.7751  0.1206
  214MOL0     C29405   4.696   5.440   7.936 -0.2586 -0.7945 -0.8956
  214MOL0     C29406   4.765   5.345   7.846 -0.0541  0.6229  0.5175
  214MOL0     C29407   4.788   5.208   7.909 -0.3291 -0.6286  0.1235
  214MOL0     C29408   4.892   5.201   8.024 -0.0409 -0.0958  1.1641
  214MOL0     C29409   4.887   5.061   8.086  0.2753 -0.1987  0.4636
  214MOL0     C29410   5.011   4.978   8.032 -0.3344 -0.5010 -1.2592
  214MOL0     N29411   5.138   5.035   8.084 -0.5716  0.0355  0.0736
  214MOL0     C29412   5.168   5.027   8.218  0.7818 -0.5184  0.0207
  214MOL0     C29413   5.291   5.081   8.227 -0.3487  0.4670 -0.4307
  214MOL0     C29414   5.379   5.074   8.348  0.0972 -1.1098 -0.8032
  214MOL0     C29415   5.377   4.932   8.399  0.3185 -0.3407  0.6788
  214MOL0     C29416   5.483   4.917   8.505  0.8068  0.3832 -0.1726
  214MOL0     C29417   5.518   4.770   8.536  0.7573 -0.1206  0.4016
  214MOL0     O29418   5.585   4.696   8.427 -0.3413 -0.5116  0.0816
  214MOL0     C29419   5.723   4.693   8.413  0.7037 -1.2572  0.2425
  214MOL0     C29420   5.770   4.605   8.324  0.2502 -0.1371 -0.0738
  214MOL0     C29421   5.904   4.583   8.299 -0.7972 -0.3922 -0.2124
  214MOL0     C29422   5.949   4.464   8.212 -0.1508 -0.7615  0.1433
  214MOL0     C29423   6.003   4.650   8.382 -0.2017 -0.5687 -0.1245
  214MOL0     C29424   6.152   4.627   8.382  0.8020 -0.7506  1.2878
  214MOL0     O29425   6.207   4.555   8.277 -0.0444  0.3078  0.3066
  214MOL0     C29426   6.338   4.518   8.286 -0.3515  0.5289  0.5476
  214MOL0     C29427   6.428   4.536   8.178  0.4202 -0.2890  0.8440
  214MOL0     C29428   6.569   4.513   8.197  0.8529 -0.2226 -0.1301
  214MOL0     C29429   6.623   4.461   8.313 -0.3434 -0.2514  0.3174
  214MOL0     O29430   6.746   4.420   8.334  0.1245 -1.1241  0.4215
  214MOL0     C29431   6.842   4.486   8.249  0.3122  1.2319 -0.0228
  214MOL0     C29432   6.983   4.434   8.267  0.0365 -0.0895  0.4461
  214MOL0     C29433   7.001   4.295   8.188  0.1714  0.3690  0.2128
  214MOL0     C29434   7.134   4.216   8.204 -0.3086  0.1658 -0.0771
  214MOL0     C29435   7.167   4.154   8.345  0.2527  0.0032  1.8032
  214MOL0     C29436   7.267   4.036   8.327  0.6356 -0.3220  0.1360
  214MOL0     C29437   7.293   3.973   8.464  0.3519 -0.0346 -0.8946
  214MOL0     C29438   7.425   3.899   8.469 -0.1935 -0.8517 -0.7554
  214MOL0    Cl29439   7.456   3.836   8.641 -0.0317  0.1367  0.1451
  214MOL0     C29440   6.536   4.428   8.410 -0.0255  0.1513 -0.1894
  214MOL0     C29441   6.395   4.452   8.400  0.2949 -0.3273 -1.2654
  214MOL0     O29442   6.209   4.675   8.479  0.3477  0.0209  0.3103
  214MOL0     C29443   5.948   4.744   8.477  0.3460  0.6937  0.2703
  214MOL0     C29444   5.813   4.764   8.492  0.5255 -0.0202  0.0722
  214MOL0     N29445   5.325   5.129   8.104  0.6120  0.1296 -1.1642
  214MOL0     N29446   5.243   5.083   8.018  0.4021 -0.1192  0.4701
  214MOL0     C29447   4.248   5.695   7.901  0.9181 -0.0502  1.1953
  214MOL0     C29448   4.146   5.706   7.801  0.1222  0.2697  0.1627
  214MOL0     C29449   3.803   5.706   7.540  0.2395 -0.0604 -1.1971
  214MOL0     C29450   3.747   5.579   7.528 -0.5952  0.1796  0.3357
  214MOL0     C29451   3.628   5.551   7.462 -0.6890 -0.3051 -0.0245
  214MOL0     C29452   3.545   5.653   7.426 -0.1518  0.3310  0.0219
  214MOL0     O29453   3.420   5.632   7.370  0.1378  0.3018  0.2207
  214MOL0     C29454   3.346   5.511   7.378 -0.5605  0.7060 -0.0714
  214MOL0     C29455   3.204   5.542   7.402  0.1804 -0.2042 -0.9217
  214MOL0     C29456   3.137   5.652   7.322  0.3165  0.3267  0.1430
  214MOL0     C29457   2.987   5.630   7.322 -0.3861  0.7994  0.1136
  214MOL0     C29458   2.916   5.719   7.232 -0.3429  0.1680 -0.4112
  214MOL0     C29459   2.843   5.787   7.157 -0.4120  0.4701 -0.1896
  214MOL0     C29460   3.592   5.778   7.435 -0.8125  0.5986 -0.0579
  214MOL0     C29461   3.725   5.808   7.485  0.2819 -0.1099 -0.1414
  214MOL0     C29462   3.761   5.959   7.480 -0.2333 -0.3132 -0.4537
  214MOL0     H29463   4.162   5.391   7.690 -0.9739 -0.4431  0.4164
  214MOL0     H29464   4.336   5.378   7.855  0.5232  0.3529  3.1631
  214MOL0     H29465   4.596   5.669   8.066 -0.1460  0.8595  0.2670
  214MOL0     H29466   4.515   5.748   7.932 -1.3660  0.7996  3.0806
  214MOL0     H29467   4.595   5.551   7.782 -1.7166 -2.8039  1.1916
  214MOL0     H29468   4.723   5.638   7.867 -1.3077  1.2869  1.6180
  214MOL0     H29469   4.750   5.472   8.026 -0.4502  2.4973 -1.8291
  214MOL0     H29470   4.608   5.379   7.963 -0.4949 -0.4327 -0.8384
  214MOL0     H29471   4.716   5.335   7.748  0.8970 -0.6158  0.1346
  214MOL0     H29472   4.858   5.396   7.822  0.4559  0.0049  1.1411
  214MOL0     H29473   4.810   5.136   7.829  0.0117 -1.7579  1.2028
  214MOL0     H29474   4.693   5.169   7.948  0.3509  0.3487  3.0141
  214MOL0     H29475   4.985   5.238   7.981 -0.6762  0.9775  0.6737
  214MOL0     H29476   4.868   5.275   8.102  1.4244  1.9547 -0.2239
  214MOL0     H29477   4.794   5.009   8.060  1.9993 -2.3620 -1.8681
  214MOL0     H29478   4.881   5.061   8.196 -1.9351  1.5390  0.4115
  214MOL0     H29479   5.014   4.873   8.063  3.3947 -0.4878 -1.1344
  214MOL0     H29480   5.021   4.979   7.923  0.2067 -2.3673 -1.2697
  214MOL0     H29481   5.107   4.982   8.295  0.9876  1.2193  1.2472
  214MOL0     H29482   5.350   5.155   8.416  0.7169 -0.9377 -0.7429
  214MOL0     H29483   5.483   5.081   8.316 -0.2379 -2.5845 -2.3810
  214MOL0     H29484   5.276   4.904   8.430 -0.1870  0.8267  0.1462
  214MOL0     H29485   5.393   4.863   8.315 -4.2072 -0.1694 -0.5905
  214MOL0     H29486   5.576   4.963   8.473  1.3803  2.3392  3.6944
  214MOL0     H29487   5.458   4.966   8.600  0.0329 -3.8923  2.1199
  214MOL0     H29488   5.592   4.773   8.617  1.3015  1.1191 -0.1225
  214MOL0     H29489   5.432   4.711   8.568  2.3243 -2.0606  1.2861
  214MOL0     H29490   5.699   4.553   8.261  2.0821  0.8688 -3.1930
  214MOL0     H29491   5.869   4.419   8.151  0.1140  2.1223 -2.5978
  214MOL0     H29492   5.988   4.385   8.278 -3.3508 -2.0579  0.6870
  214MOL0     H29493   6.027   4.494   8.142 -2.3239  2.9621 -1.0010
  214MOL0     H29494   6.392   4.572   8.082 -0.6668  0.0579  1.3636
  214MOL0     H29495   6.618   4.519   8.100  1.5924 -0.5956  0.2137
  214MOL0     H29496   6.820   4.475   8.143 -1.8450  2.5972  0.2227
  214MOL0     H29497   6.847   4.592   8.276  2.5302  0.5535  2.8005
  214MOL0     H29498   7.054   4.510   8.232  0.2643 -0.2847  0.4867
  214MOL0     H29499   7.005   4.420   8.373 -0.9332  1.2715  0.8644
  214MOL0     H29500   6.976   4.306   8.082 -1.9694 -1.4598  0.4631
  214MOL0     H29501   6.933   4.225   8.237  0.9936  0.4042  1.4472
  214MOL0     H29502   7.214   4.283   8.171  0.4490 -1.0372 -0.7332
  214MOL0     H29503   7.132   4.140   8.126  0.0601  2.8262 -2.8921
  214MOL0     H29504   7.209   4.237   8.403 -0.3671  1.7686 -0.1778
  214MOL0     H29505   7.078   4.109   8.390 -1.3889 -2.0932 -2.9176
  214MOL0     H29506   7.364   4.072   8.292  0.7752 -1.0686 -0.2624
  214MOL0     H29507   7.229   3.957   8.262 -2.4300  2.1227 -1.3013
  214MOL0     H29508   7.207   3.907   8.480 -2.0333  3.2964  1.3055
  214MOL0     H29509   7.282   4.048   8.542  0.9822 -0.3221 -0.5232
  214MOL0     H29510   7.500   3.973   8.440  0.9478 -0.9719  1.6383
  214MOL0     H29511   7.435   3.813   8.403  0.5309 -1.9214  0.6985
  214MOL0     H29512   6.576   4.390   8.503  0.1140 -1.2084 -0.7964
  214MOL0     H29513   6.329   4.428   8.483  1.9125 -2.5327 -0.4961
  214MOL0     H29514   6.001   4.800   8.553 -2.6449  2.6206  1.1108
  214MOL0     H29515   5.780   4.831   8.570  0.5068  0.8118 -0.6393
  214MOL0     H29516   4.262   5.781   7.966  0.6891  0.9703 -0.0675
  214MOL0     H29517   4.102   5.805   7.799  1.0731  0.7661 -3.3454
  214MOL0     H29518   3.805   5.491   7.554  0.0849  0.2665 -0.8295
  214MOL0     H29519   3.592   5.449   7.449 -2.0848  0.1292  0.2881
  214MOL0     H29520   3.350   5.457   7.283 -4.9949 -1.3096  0.6781
  214MOL0     H29521   3.380   5.447   7.461 -0.1730  3.9324  2.4687
  214MOL0     H29522   3.200   5.576   7.506  1.1630  1.2400 -1.3151
  214MOL0     H29523   3.147   5.449   7.407  1.2766 -0.8615  3.2542
  214MOL0     H29524   3.175   5.745   7.365  0.4952  0.1116  0.4536
  214MOL0     H29525   3.181   5.651   7.222  0.6651  1.5167  0.2662
  214MOL0     H29526   2.943   5.637   7.422 -1.7954 -0.3057 -0.3821
  214MOL0     H29527   2.973   5.527   7.286 -0.3291  0.8785 -0.1401
  214MOL0     H29528   2.776   5.832   7.087  1.0712 -1.5595 -3.1183
  214MOL0     H29529   3.539   5.863   7.393 -0.3843  0.0471 -1.8080
  214MOL0     H29530   3.868   5.972   7.463 -0.3175  1.6686  0.3025
  214MOL0     H29531   3.708   6.003   7.394  1.1204  2.6186  0.0726
  214MOL0     H29532   3.739   6.019   7.569  3.8430  1.4098 -0.3991
  215MOL0     O29533   5.784   2.868   1.066  0.4704 -0.5767 -0.0291
  215MOL0     C29534   5.734   2.954   0.989  0.7533  0.0590 -0.4865
  215MOL0     O29535   5.813   3.044   0.920 -0.3811 -0.5068 -0.0131
  215MOL0     C29536   5.936   3.078   0.983  0.3438 -0.2372 -0.6999
  215MOL0     C29537   6.054   3.012   0.947 -0.3406  0.3719 -0.4641
  215MOL0     C29538   6.177   3.039   1.008  0.1780 -0.3347  0.4899
  215MOL0     C29539   6.180   3.129   1.113  0.7264 -0.5333 -0.4020
  215MOL0     O29540   6.283   3.155   1.196  0.1099 -0.3474  0.0927
  215MOL0     C29541   6.409   3.092   1.164 -0.5473 -0.4496 -0.4483
  215MOL0     C29542   6.528   3.163   1.229 -1.1921  0.1294 -0.1175
  215MOL0     C29543   6.665   3.098   1.190  0.1306  0.0762  0.0415
  215MOL0     C29544   6.779   3.184   1.241 -0.4947 -0.1812 -0.1743
  215MOL0     C29545   6.920   3.139   1.206  0.3547  0.1333  0.6947
  215MOL0     C29546   7.024   3.250   1.226  0.2001  0.7276 -0.0024
  215MOL0     C29547   7.161   3.194   1.207 -0.9238  0.0596  0.0489
  215MOL0     C29548   7.264   3.304   1.191  0.3700 -0.3970  0.0518
  215MOL0     N29549   7.392   3.260   1.238 -0.0730  0.3316 -0.3176
  215MOL0     C29550   7.463   3.149   1.191  0.1544  0.3350 -0.3208
  215MOL0     C29551   7.581   3.149   1.252 -0.4558 -0.9083 -0.1715
  215MOL0     C29552   7.695   3.063   1.220 -1.1383  0.1118  0.5519
  215MOL0     C29553   7.790   3.138   1.132  0.0907  0.4694  0.1595
  215MOL0     C29554   7.910   3.050   1.099  0.2457 -0.0656  0.2542
  215MOL0     C29555   8.009   3.101   1.001 -0.1901 -0.3049 -0.0264
  215MOL0     O29556   8.116   3.011   0.977 -0.6828 -0.2997 -0.4760
  215MOL0     C29557   8.235   3.001   1.051 -0.0656 -0.0891 -0.4801
  215MOL0     C29558   8.276   3.089   1.157 -0.3076 -0.6092  0.7580
  215MOL0     C29559   8.384   3.057   1.229 -0.0612 -0.8821 -0.2046
  215MOL0     C29560   8.407   3.157   1.343  0.1913 -0.3743  0.1432
  215MOL0     C29561   8.459   2.936   1.215  0.2113 -0.0741 -0.0428
  215MOL0     C29562   8.568   2.893   1.302 -0.0242  0.3243 -0.2153
  215MOL0     O29563   8.671   2.839   1.238 -0.2883 -0.2087 -0.3424
  215MOL0     C29564   8.771   2.768   1.302  0.2154 -0.5514  0.0212
  215MOL0     C29565   8.882   2.733   1.220  0.2524  0.7168  0.2779
  215MOL0     C29566   8.974   2.640   1.257 -0.2186  0.6739  0.5966
  215MOL0     C29567   8.975   2.586   1.383 -0.5331 -0.0776 -0.1562
  215MOL0     O29568   9.081   2.501   1.420 -0.4332  0.4029 -0.0831
  215MOL0     C29569   9.184   2.563   1.504  0.1368  0.2464  0.5318
  215MOL0     C29570   9.297   2.633   1.429 -0.4137  0.4834 -0.4890
  215MOL0     C29571   9.382   2.541   1.344  0.0265  0.7833  0.2031
  215MOL0     C29572   9.518   2.591   1.298  0.7203  0.0545 -0.0595
  215MOL0     C29573   9.601   2.495   1.205 -0.4407  0.0821 -0.2990
  215MOL0     C29574   9.521   2.403   1.110 -0.0826 -0.2808 -0.0777
  215MOL0     C29575   9.615   2.321   1.022  0.6965  0.1427 -0.2990
  215MOL0     C29576   9.696   2.205   1.093  0.7974 -0.4537 -0.0333
  215MOL0    Cl29577   9.841   2.276   1.143 -0.1985  0.2912 -0.0242
  215MOL0     C29578   8.877   2.627   1.476  0.2333  0.6811  0.2378
  215MOL0     C29579   8.777   2.724   1.432  0.6044  0.8229  0.1806
  215MOL0     O29580   8.538   2.873   1.418  1.1121 -0.1427  0.1040
  215MOL0     C29581   8.423   2.857   1.105  0.3005 -0.7434 -0.4079
  215MOL0     C29582   8.305   2.883   1.032 -0.4110  0.7863  0.1113
  215MOL0     N29583   7.573   3.259   1.347 -0.0899  0.0293 -0.2505
  215MOL0     N29584   7.455   3.313   1.338  0.0016 -0.5509  0.1871
  215MOL0     C29585   6.065   3.202   1.145 -0.2563  0.7020  0.4189
  215MOL0     C29586   5.940   3.176   1.088 -0.4593  0.5858  0.8147
  215MOL0     C29587   5.587   2.973   0.990 -0.5580  0.1143  0.1043
  215MOL0     C29588   5.500   2.863   1.014 -0.0536 -1.0306  0.0124
  215MOL0     C29589   5.362   2.867   0.986  0.5006 -0.7522  0.0249
  215MOL0     C29590   5.300   2.990   0.947 -1.0992  0.4717  0.2394
  215MOL0     O29591   5.172   3.004   0.910  0.0777  0.0053 -0.0407
  215MOL0     C29592   5.082   2.893   0.902  0.3103 -0.6510  0.2967
  215MOL0     C29593   4.939   2.956   0.915 -0.3855  0.4363  0.0352
  215MOL0     C29594   4.906   3.051   0.811  0.7449  0.0646  0.5930
  215MOL0     C29595   4.763   3.091   0.822  0.0119 -0.0823  0.2328
  215MOL0     C29596   4.712   3.177   0.706 -0.7107 -0.1687 -1.0883
  215MOL0     C29597   4.662   3.236   0.606 -0.6925  0.1795 -0.4614
  215MOL0     C29598   5.381   3.101   0.926 -0.1738  0.8547 -0.0908
  215MOL0     C29599   5.524   3.096   0.957 -0.4713 -0.3902  0.5139
  215MOL0     C29600   5.583   3.234   0.944 -0.8785  0.2582  0.3563
  215MOL0     H29601   6.066   2.944   0.863 -3.5624 -0.4936 -0.3240
  215MOL0     H29602   6.260   2.977   0.975  0.1920  1.0632 -2.4481
  215MOL0     H29603   6.435   3.092   1.058  1.2850 -1.2960 -0.0265
  215MOL0     H29604   6.395   2.988   1.196 -1.1615  0.4913  2.7392
  215MOL0     H29605   6.526   3.265   1.190 -1.0827 -0.5494 -1.9802
  215MOL0     H29606   6.501   3.152   1.334 -2.0257  1.3412 -0.1952
  215MOL0     H29607   6.672   2.994   1.224 -0.4185 -0.0036 -0.0821
  215MOL0     H29608   6.684   3.089   1.083 -0.2124 -0.3736  0.0165
  215MOL0     H29609   6.775   3.287   1.201 -0.9633  0.3885  1.2864
  215MOL0     H29610   6.774   3.189   1.350 -1.9126  1.5711 -0.2625
  215MOL0     H29611   6.929   3.100   1.104  0.8062 -2.7582  1.7239
  215MOL0     H29612   6.946   3.056   1.272 -0.1106  1.4204  2.5821
  215MOL0     H29613   6.995   3.322   1.150  0.8254  0.1217 -0.8413
  215MOL0     H29614   7.012   3.301   1.321 -2.6182 -0.7654  0.5355
  215MOL0     H29615   7.163   3.134   1.116 -0.7546 -0.6439  0.5098
  215MOL0     H29616   7.182   3.132   1.294 -3.7549  0.0014  0.8174
  215MOL0     H29617   7.285   3.328   1.086  1.0213  0.2297  0.3135
  215MOL0     H29618   7.234   3.398   1.238  1.1887 -0.8096  1.4634
  215MOL0     H29619   7.426   3.068   1.128 -0.1082 -2.1958  2.8250
  215MOL0     H29620   7.653   2.974   1.173 -2.6857  1.2272 -0.2741
  215MOL0     H29621   7.746   3.040   1.314 -0.5871 -0.1820  0.1787
  215MOL0     H29622   7.742   3.170   1.039 -1.3101  0.7159  0.9331
  215MOL0     H29623   7.821   3.233   1.176 -1.9287  1.6240 -0.7587
  215MOL0     H29624   7.958   3.027   1.195  0.3916  2.8306  0.9634
  215MOL0     H29625   7.868   2.958   1.058  0.8978  1.0988 -3.3858
  215MOL0     H29626   7.963   3.119   0.904  0.6951 -2.0156 -0.7997
  215MOL0     H29627   8.045   3.193   1.048 -1.0319 -1.0729  2.2604
  215MOL0     H29628   8.213   3.177   1.169  0.6378  0.1795  0.1080
  215MOL0     H29629   8.381   3.107   1.437 -0.4958  1.5691  1.0183
  215MOL0     H29630   8.349   3.247   1.324  0.5968  0.2058  1.4933
  215MOL0     H29631   8.513   3.185   1.348  0.2128 -0.5248  0.5490
  215MOL0     H29632   8.871   2.779   1.123 -1.2817  3.6512  1.7013
  215MOL0     H29633   9.052   2.621   1.184 -1.4099 -1.2082 -0.2392
  215MOL0     H29634   9.129   2.632   1.569 -0.3430  0.5557 -0.1898
  215MOL0     H29635   9.225   2.484   1.567  1.3875 -0.4680 -1.0988
  215MOL0     H29636   9.250   2.711   1.367  0.4604  1.5992  0.2285
  215MOL0     H29637   9.360   2.683   1.503  0.2873  0.5394 -1.1097
  215MOL0     H29638   9.318   2.518   1.258  1.1704  0.4592 -0.5855
  215MOL0     H29639   9.409   2.455   1.406 -1.9215  0.6412  0.9092
  215MOL0     H29640   9.585   2.610   1.383  1.0983 -1.0532 -0.0975
  215MOL0     H29641   9.509   2.684   1.240  1.9853 -0.4925 -1.1615
  215MOL0     H29642   9.673   2.551   1.143 -0.3422 -1.8534 -2.0343
  215MOL0     H29643   9.661   2.433   1.271  2.0934  1.4769 -1.1500
  215MOL0     H29644   9.453   2.467   1.053 -0.2976 -0.2053  0.2599
  215MOL0     H29645   9.460   2.331   1.165  2.7564 -1.6723  1.4399
  215MOL0     H29646   9.685   2.377   0.959  2.2380 -2.9831 -1.5653
  215MOL0     H29647   9.541   2.292   0.946  0.6637 -0.2008 -0.1350
  215MOL0     H29648   9.712   2.121   1.024 -0.7623 -0.3443 -0.5665
  215MOL0     H29649   9.634   2.165   1.174 -0.0667 -0.2096 -0.5612
  215MOL0     H29650   8.877   2.609   1.583 -4.2520 -0.5929  0.2063
  215MOL0     H29651   8.708   2.740   1.514  2.2944  0.4588  1.7346
  215MOL0     H29652   8.466   2.758   1.090 -0.7813 -0.9812 -2.1784
  215MOL0     H29653   8.261   2.813   0.962  0.6020  0.9259 -0.6956
  215MOL0     H29654   6.068   3.275   1.225 -0.6528  3.7585 -2.1286
  215MOL0     H29655   5.845   3.219   1.116 -0.7221 -0.0996  0.9962
  215MOL0     H29656   5.539   2.770   1.055 -0.2654 -1.0319  0.2083
  215MOL0     H29657   5.318   2.769   1.001  0.5286 -0.3867  3.1583
  215MOL0     H29658   5.082   2.858   0.798 -1.1778  1.2253 -0.3981
  215MOL0     H29659   5.099   2.817   0.978 -1.4179 -0.3150  1.0429
  215MOL0     H29660   4.938   2.998   1.016 -2.5977  1.0015 -0.1768
  215MOL0     H29661   4.874   2.868   0.906 -1.6023  1.0551  2.1848
  215MOL0     H29662   4.975   3.134   0.828 -0.5244  1.0367  1.1301
  215MOL0     H29663   4.920   3.008   0.711  2.8245 -0.3569  1.0359
  215MOL0     H29664   4.765   3.147   0.916  2.8707 -0.0492  0.2358
  215MOL0     H29665   4.694   3.006   0.823 -0.0914 -0.1152 -2.5390
  215MOL0     H29666   4.613   3.279   0.521 -2.8566  0.3302  0.7804
  215MOL0     H29667   5.336   3.190   0.885  1.9875  1.1790 -1.9625
  215MOL0     H29668   5.611   3.267   1.044 -1.7646 -1.1052  1.0840
  215MOL0     H29669   5.679   3.229   0.891 -1.0649  0.5535 -0.0163
  215MOL0     H29670   5.523   3.307   0.889  0.3142  0.9186 -0.1179
  216MOL0     O29671   9.822   1.229   2.016  0.8756 -0.9229  0.5989
  216MOL0     C29672   9.786   1.207   1.900  0.0877 -0.9184 -0.1855
  216MOL0     O29673   9.864   1.226   1.795  0.0442 -0.1001  0.0343
  216MOL0     C29674   9.982   1.287   1.808 -0.1193 -0.1392 -0.6194
  216MOL0     C29675  10.086   1.230   1.885  0.2134 -0.4381 -0.4854
  216MOL0     C29676  10.214   1.287   1.887  0.1833 -0.1112  0.0396
  216MOL0     C29677  10.237   1.395   1.810 -0.1540  0.0407  0.2139
  216MOL0     O29678  10.359   1.458   1.817 -0.0431 -0.0524  0.2193
  216MOL0     C29679  10.373   1.553   1.927  0.1406  0.4108 -0.0340
  216MOL0     C29680  10.510   1.525   1.993  0.8471  0.5360  0.3342
  216MOL0     C29681  10.635   1.543   1.906 -0.1263 -0.1037  0.6712
  216MOL0     C29682  10.761   1.497   1.977 -0.0355 -0.4477  0.4099
  216MOL0     C29683  10.861   1.613   2.022 -0.3878 -0.5105 -0.1477
  216MOL0     C29684  10.972   1.555   2.115  0.7422  0.2257 -0.1569
  216MOL0     C29685  11.073   1.664   2.166 -0.4732  0.2440 -0.1539
  216MOL0     C29686  11.136   1.629   2.300 -0.2929 -0.0097 -0.2841
  216MOL0     N29687  11.203   1.747   2.354 -0.4213  0.2493 -0.5429
  216MOL0     C29688  11.317   1.806   2.303  0.0912 -0.0886 -0.3470
  216MOL0     C29689  11.332   1.922   2.363  0.2953  0.6268  0.6941
  216MOL0     C29690  11.434   2.022   2.312 -0.5993  0.2312 -0.4572
  216MOL0     C29691  11.571   2.005   2.379  0.4967  0.1876 -0.3314
  216MOL0     C29692  11.578   2.108   2.494  0.0588  0.2260 -1.4527
  216MOL0     C29693  11.696   2.085   2.585  0.2090 -0.5993  0.6109
  216MOL0     O29694  11.678   1.961   2.663  0.2741 -0.4005 -0.1595
  216MOL0     C29695  11.772   1.930   2.751 -0.5743  0.1307 -0.0251
  216MOL0     C29696  11.894   2.000   2.774  0.4600  0.4167  0.9979
  216MOL0     C29697  11.990   1.957   2.867 -0.2555 -0.1072 -0.4156
  216MOL0     C29698  12.101   2.053   2.873 -0.1558 -0.2134 -0.4458
  216MOL0     C29699  11.976   1.827   2.929  0.7877  0.7326 -0.8284
  216MOL0     C29700  12.064   1.779   3.031 -0.1147  0.2125 -0.1170
  216MOL0     O29701  12.009   1.697   3.118 -0.1784  0.0240 -0.1862
  216MOL0     C29702  12.081   1.670   3.229  0.4558  0.1881  0.0716
  216MOL0     C29703  12.190   1.584   3.240 -0.0959 -0.3954  0.6947
  216MOL0     C29704  12.258   1.569   3.356 -0.2023 -0.5535 -0.6145
  216MOL0     C29705  12.214   1.630   3.471 -0.9773 -0.3161  0.3638
  216MOL0     O29706  12.267   1.590   3.591  0.4792  0.3260 -0.0497
  216MOL0     C29707  12.204   1.639   3.715 -0.7510  0.2962 -0.0729
  216MOL0     C29708  12.301   1.622   3.827 -0.4336  0.0241 -0.1269
  216MOL0     C29709  12.320   1.472   3.858 -0.2497 -0.1847 -0.1388
  216MOL0     C29710  12.426   1.445   3.959 -0.0563  0.3352 -0.0661
  216MOL0     C29711  12.567   1.475   3.909  0.3034  1.0338 -0.0016
  216MOL0     C29712  12.662   1.417   4.028 -0.0542 -0.2155 -0.0914
  216MOL0     C29713  12.808   1.395   3.986  0.6786  0.2069  0.7785
  216MOL0     C29714  12.819   1.279   3.891 -0.7638  0.2016  0.2477
  216MOL0    Cl29715  12.993   1.238   3.861 -0.1067  0.0744 -0.5119
  216MOL0     C29716  12.096   1.715   3.464 -0.0528 -0.1428  0.3049
  216MOL0     C29717  12.031   1.737   3.344 -0.1987  0.4368 -0.2938
  216MOL0     O29718  12.179   1.823   3.034 -0.1585  0.1683 -0.0302
  216MOL0     C29719  11.850   1.761   2.908  0.6996  0.2946  0.7447
  216MOL0     C29720  11.751   1.808   2.813 -0.3708 -0.4066 -0.6378
  216MOL0     N29721  11.231   1.935   2.458 -0.1919  1.0159 -0.1556
  216MOL0     N29722  11.159   1.830   2.456 -0.2772  0.4513 -0.5334
  216MOL0     C29723  10.139   1.441   1.731  0.0078  0.6891  0.4999
  216MOL0     C29724  10.015   1.391   1.727 -0.1563 -0.5501  0.0307
  216MOL0     C29725   9.640   1.177   1.868 -0.5557 -0.1031  0.5437
  216MOL0     C29726   9.603   1.173   1.732 -0.3543  0.1716  0.2205
  216MOL0     C29727   9.471   1.147   1.689 -0.2783 -0.8847 -0.6676
  216MOL0     C29728   9.376   1.111   1.790  0.4358 -0.4896 -0.1297
  216MOL0     O29729   9.241   1.078   1.772 -0.9109 -0.4572  0.0074
  216MOL0     C29730   9.199   1.060   1.630 -0.4940 -0.1568 -0.2868
  216MOL0     C29731   9.052   1.046   1.617  0.0405 -0.1262 -0.6933
  216MOL0     C29732   9.005   0.929   1.704 -0.3523  1.1147  0.3991
  216MOL0     C29733   8.853   0.916   1.709  0.8793  0.0925  0.2545
  216MOL0     C29734   8.801   1.028   1.789  0.2519 -0.3250  0.4164
  216MOL0     C29735   8.755   1.121   1.854 -0.4053  0.5518  0.5449
  216MOL0     C29736   9.410   1.105   1.921 -0.3526  0.5221 -0.4419
  216MOL0     C29737   9.537   1.147   1.970 -0.1155  0.0866 -0.1177
  216MOL0     C29738   9.583   1.140   2.117 -0.4360  0.5543  0.3028
  216MOL0     H29739  10.066   1.141   1.943  1.9655  1.0665  2.6583
  216MOL0     H29740  10.292   1.255   1.956  1.3967  0.5122 -1.0116
  216MOL0     H29741  10.292   1.544   2.000 -1.6157  3.3456 -1.4066
  216MOL0     H29742  10.381   1.654   1.886  1.6560  1.1356  1.8924
  216MOL0     H29743  10.506   1.595   2.077  3.0255  0.2768  0.7254
  216MOL0     H29744  10.512   1.423   2.033  0.0496  0.3848  0.0148
  216MOL0     H29745  10.621   1.505   1.805  0.4891  2.9706 -0.7089
  216MOL0     H29746  10.650   1.651   1.889 -2.8903  0.6233  2.2517
  216MOL0     H29747  10.738   1.451   2.074 -0.4513 -1.5515 -0.1975
  216MOL0     H29748  10.814   1.419   1.921 -0.0725 -1.1808  1.3697
  216MOL0     H29749  10.814   1.691   2.083 -1.6594 -0.1538 -1.5230
  216MOL0     H29750  10.888   1.671   1.933 -1.6266  0.8276  0.3059
  216MOL0     H29751  10.931   1.512   2.207 -1.6819  2.6578  0.0350
  216MOL0     H29752  11.028   1.471   2.072  2.3752  0.2333  1.7369
  216MOL0     H29753  11.021   1.759   2.183  0.0666  0.4870  0.1519
  216MOL0     H29754  11.163   1.683   2.106  0.2255  0.8888  1.0538
  216MOL0     H29755  11.055   1.594   2.366  1.6832 -3.6896  0.4897
  216MOL0     H29756  11.207   1.546   2.296  0.1081  0.2931  0.3882
  216MOL0     H29757  11.377   1.766   2.222 -0.1573  0.6251 -0.8880
  216MOL0     H29758  11.404   2.127   2.313 -0.5298  0.2452  0.5484
  216MOL0     H29759  11.454   1.998   2.207  0.2276 -0.9404 -0.0580
  216MOL0     H29760  11.590   1.903   2.415  2.4533  0.3793 -0.7409
  216MOL0     H29761  11.651   2.022   2.307  1.2492 -0.1062  0.4079
  216MOL0     H29762  11.557   2.208   2.456 -0.2036  0.8562  0.2881
  216MOL0     H29763  11.497   2.078   2.561  1.9194 -0.3627  0.6733
  216MOL0     H29764  11.792   2.099   2.536  2.2480  1.2092  4.6095
  216MOL0     H29765  11.690   2.168   2.657  1.3902  2.6324 -2.7000
  216MOL0     H29766  11.909   2.090   2.715  2.6654 -0.4264  0.1768
  216MOL0     H29767  12.078   2.146   2.821 -0.8903 -0.4990 -0.6471
  216MOL0     H29768  12.180   2.009   2.812  0.5718  0.8620 -0.3078
  216MOL0     H29769  12.133   2.080   2.974 -1.4563 -0.3444  0.0155
  216MOL0     H29770  12.210   1.518   3.156 -2.5341 -1.5518  0.9143
  216MOL0     H29771  12.341   1.499   3.358  2.9623  2.9200  0.1297
  216MOL0     H29772  12.186   1.746   3.704  2.5750  1.1709  1.6049
  216MOL0     H29773  12.115   1.579   3.733 -0.3539 -0.0716  0.7212
  216MOL0     H29774  12.393   1.668   3.789  0.0209  0.0491  0.9760
  216MOL0     H29775  12.269   1.669   3.920 -0.8511  2.1345 -1.2707
  216MOL0     H29776  12.351   1.417   3.768  1.4500  0.1334  0.2169
  216MOL0     H29777  12.230   1.427   3.900 -0.6509 -0.2796 -1.0730
  216MOL0     H29778  12.425   1.343   3.999  0.1468  0.7226  0.9459
  216MOL0     H29779  12.402   1.504   4.048  0.5570  1.2579 -0.5002
  216MOL0     H29780  12.596   1.419   3.819 -0.3529 -1.2024  1.1033
  216MOL0     H29781  12.578   1.579   3.877  0.5702  0.4260 -2.0370
  216MOL0     H29782  12.621   1.325   4.070  0.4063 -0.5780 -0.4208
  216MOL0     H29783  12.673   1.496   4.103  2.2317 -0.5764  0.0291
  216MOL0     H29784  12.871   1.362   4.068  0.9731 -1.2177  0.0147
  216MOL0     H29785  12.857   1.488   3.958 -1.0566  1.6271  2.2101
  216MOL0     H29786  12.764   1.304   3.801 -0.5556  1.6090  0.4843
  216MOL0     H29787  12.774   1.198   3.949  2.6738 -0.3295  2.5145
  216MOL0     H29788  12.055   1.765   3.551 -1.0531  3.6301 -2.0396
  216MOL0     H29789  11.941   1.797   3.336  1.8605  3.7066 -0.5830
  216MOL0     H29790  11.827   1.665   2.952  1.7692 -1.1598 -1.6865
  216MOL0     H29791  11.657   1.757   2.799 -0.3344 -0.1444 -1.9064
  216MOL0     H29792  10.169   1.527   1.672 -2.0165  0.5513 -0.8082
  216MOL0     H29793   9.942   1.436   1.661  0.5008  1.7382  0.7390
  216MOL0     H29794   9.680   1.198   1.659  0.4044 -1.8648  0.2674
  216MOL0     H29795   9.452   1.163   1.584  2.9458 -0.6453 -1.3161
  216MOL0     H29796   9.225   1.152   1.576 -0.4322 -0.1964 -0.3251
  216MOL0     H29797   9.248   0.972   1.587 -2.4465 -0.8152 -1.2767
  216MOL0     H29798   9.028   1.017   1.515  0.3084  1.3080 -1.1918
  216MOL0     H29799   9.006   1.141   1.646  1.2359  1.0608 -2.5137
  216MOL0     H29800   9.042   0.838   1.656 -1.7215  1.3241 -1.1550
  216MOL0     H29801   9.048   0.925   1.804  1.7824 -1.7024 -0.4965
  216MOL0     H29802   8.820   0.818   1.742  0.7708 -0.3030 -0.9629
  216MOL0     H29803   8.812   0.933   1.609  1.2811  2.5965  0.4293
  216MOL0     H29804   8.722   1.206   1.910  2.1519  4.0321 -2.7483
  216MOL0     H29805   9.337   1.071   1.994 -0.0103  3.2820  1.3583
  216MOL0     H29806   9.618   1.238   2.149  1.6903  0.5801 -1.8499
  216MOL0     H29807   9.497   1.121   2.183 -3.4956  3.2773 -2.5015
  216MOL0     H29808   9.659   1.062   2.127  3.3626  3.9223 -0.1631
  217MOL0     O29809   0.048   1.610  10.691  0.2440 -0.4988  0.4363
  217MOL0     C29810  -0.067   1.621  10.717 -0.1940 -0.0425 -0.0224
  217MOL0     O29811  -0.121   1.639  10.851 -0.2743  0.8299  0.0038
  217MOL0     C29812  -0.076   1.557  10.950 -0.0448 -0.1995  1.0293
  217MOL0     C29813  -0.143   1.444  10.978 -0.0423  0.0285  0.0277
  217MOL0     C29814  -0.106   1.363  11.093  0.0641 -0.1478  0.2288
  217MOL0     C29815  -0.005   1.400  11.177 -0.3140 -0.1895 -0.4152
  217MOL0     O29816   0.024   1.329  11.296  0.1723 -1.0454  0.5913
  217MOL0     C29817   0.017   1.178  11.280  0.3299 -0.4512 -0.1612
  217MOL0     C29818   0.066   1.097  11.397  0.3029 -0.8162 -0.1312
  217MOL0     C29819   0.217   1.095  11.431 -0.5310 -0.6101 -0.0453
  217MOL0     C29820   0.260   1.014  11.554 -0.0061 -0.3636  0.4979
  217MOL0     C29821   0.412   1.027  11.580 -0.6922  0.0832  0.8232
  217MOL0     C29822   0.451   0.952  11.706 -0.2838  0.1687 -0.2124
  217MOL0     C29823   0.605   0.955  11.715  0.2743 -0.7124 -0.6827
  217MOL0     C29824   0.651   0.868  11.836 -1.0238 -1.1121  0.3133
  217MOL0     N29825   0.791   0.890  11.856 -0.4787 -0.7221  0.1799
  217MOL0     C29826   0.893   0.855  11.769 -0.4757  0.3189 -1.1312
  217MOL0     C29827   1.002   0.923  11.807  0.2566 -0.0212  0.1930
  217MOL0     C29828   1.137   0.906  11.750 -0.2633 -0.4498  0.1074
  217MOL0     C29829   1.171   1.042  11.672  0.3982 -0.0939  0.4944
  217MOL0     C29830   1.293   1.012  11.592 -0.3680 -0.4204  0.2816
  217MOL0     C29831   1.346   1.132  11.503 -0.5684 -0.2487  0.6558
  217MOL0     O29832   1.421   1.089  11.382  0.2305  0.2795  0.1355
  217MOL0     C29833   1.493   1.180  11.311  0.8009 -0.2313 -0.0933
  217MOL0     C29834   1.475   1.322  11.329 -0.5795  0.0581  0.1540
  217MOL0     C29835   1.560   1.411  11.264 -0.8030 -0.0302 -0.5641
  217MOL0     C29836   1.523   1.553  11.258  0.4136 -0.8703 -0.5774
  217MOL0     C29837   1.675   1.356  11.193 -0.2268 -0.2967 -0.0311
  217MOL0     C29838   1.781   1.445  11.124 -0.5430 -0.1763  0.4131
  217MOL0     O29839   1.871   1.382  11.040 -0.4572  0.2169 -0.4522
  217MOL0     C29840   1.994   1.437  11.029 -0.4267 -0.3147 -0.3838
  217MOL0     C29841   2.068   1.428  10.908  0.0574  0.2852  0.3653
  217MOL0     C29842   2.186   1.492  10.889 -0.0484  0.0954  0.4918
  217MOL0     C29843   2.242   1.559  10.995 -1.1793 -0.7149  0.0201
  217MOL0     O29844   2.364   1.626  10.968 -0.0402  0.2907  0.1055
  217MOL0     C29845   2.451   1.634  11.083  0.6342 -0.2255  0.1898
  217MOL0     C29846   2.591   1.640  11.035 -0.3374  0.0404  0.2007
  217MOL0     C29847   2.634   1.777  10.993 -0.0200 -0.9898  0.3942
  217MOL0     C29848   2.775   1.786  10.958  0.3685 -0.2126 -0.1596
  217MOL0     C29849   2.831   1.927  10.968  0.7314  0.2787  0.0556
  217MOL0     C29850   2.986   1.920  10.947 -0.1130  0.6694  0.1393
  217MOL0     C29851   3.056   1.883  11.067 -0.4512 -0.6363 -0.8730
  217MOL0     C29852   3.200   1.841  11.046  0.3291  0.0440  0.2928
  217MOL0    Cl29853   3.192   1.670  10.981 -0.3942 -0.1980 -0.1459
  217MOL0     C29854   2.185   1.560  11.120  0.1317 -0.0433  0.7106
  217MOL0     C29855   2.059   1.497  11.132 -0.2069 -0.6756  0.3776
  217MOL0     O29856   1.778   1.566  11.135  0.6826 -0.1612  0.0348
  217MOL0     C29857   1.698   1.217  11.182 -0.4379  0.3958  0.4942
  217MOL0     C29858   1.609   1.130  11.243  0.7345 -0.5683 -0.6696
  217MOL0     N29859   0.977   0.998  11.921  1.0862  0.7933 -0.2014
  217MOL0     N29860   0.840   0.991  11.940 -0.2326  0.0067 -0.3300
  217MOL0     C29861   0.069   1.508  11.142  0.1897 -0.2559  0.7197
  217MOL0     C29862   0.036   1.585  11.030 -0.6527 -0.6775 -0.6043
  217MOL0     C29863  -0.174   1.607  10.613 -0.6810 -0.1368 -0.5152
  217MOL0     C29864  -0.285   1.690  10.611 -1.4154 -0.4770 -0.4861
  217MOL0     C29865  -0.391   1.670  10.526  0.4693  0.3591  0.1886
  217MOL0     C29866  -0.392   1.567  10.435 -0.6055  0.7979 -0.3011
  217MOL0     O29867  -0.484   1.558  10.332  0.1948  0.2902  0.8191
  217MOL0     C29868  -0.456   1.468  10.218 -0.7080 -0.2377  0.4044
  217MOL0     C29869  -0.569   1.481  10.123 -0.5664 -0.1833 -0.2559
  217MOL0     C29870  -0.556   1.387  10.001 -0.7325 -0.0556  0.8155
  217MOL0     C29871  -0.645   1.263  10.005 -0.3781 -0.2548 -0.1639
  217MOL0     C29872  -0.783   1.310   9.994  0.1229  0.0328  0.2704
  217MOL0     C29873  -0.902   1.342   9.986  0.0783 -0.2514  0.1052
  217MOL0     C29874  -0.276   1.479  10.440  0.7734 -0.5180  0.1276
  217MOL0     C29875  -0.165   1.504  10.523  0.5829 -0.0026 -1.0699
  217MOL0     C29876  -0.045   1.411  10.529 -0.2587  0.4897  0.0997
  217MOL0     H29877  -0.226   1.412  10.916  1.0240 -1.6855 -0.6005
  217MOL0     H29878  -0.159   1.269  11.109 -0.2054  0.0279  0.3626
  217MOL0     H29879   0.079   1.138  11.199  0.2107 -0.9975  0.0128
  217MOL0     H29880  -0.085   1.145  11.256  0.4822 -1.3695  0.4063
  217MOL0     H29881   0.017   1.144  11.483  0.5990 -0.5277 -0.1153
  217MOL0     H29882   0.032   0.994  11.384 -3.0081  0.3389 -1.6042
  217MOL0     H29883   0.247   1.039  11.342  0.2504 -0.3288  0.0354
  217MOL0     H29884   0.257   1.196  11.440 -0.8025 -0.4478 -0.6055
  217MOL0     H29885   0.216   1.063  11.641 -2.0955 -1.3363  0.0318
  217MOL0     H29886   0.227   0.910  11.542  0.5206 -0.4461 -0.2719
  217MOL0     H29887   0.442   1.129  11.603  1.6052 -0.4632  0.5040
  217MOL0     H29888   0.477   0.997  11.497 -0.2048 -0.8694  1.5395
  217MOL0     H29889   0.400   0.996  11.792  1.6269 -1.0365  1.6350
  217MOL0     H29890   0.410   0.851  11.697 -1.8044  0.7040  0.3598
  217MOL0     H29891   0.627   1.063  11.715 -2.8651  0.0168 -0.4301
  217MOL0     H29892   0.636   0.902  11.625 -0.0986 -0.7105 -0.8127
  217MOL0     H29893   0.594   0.903  11.923  0.1119  1.0142  0.2563
  217MOL0     H29894   0.630   0.762  11.815  2.0020 -1.3024 -2.5179
  217MOL0     H29895   0.881   0.785  11.687 -1.3049 -4.6656  2.7180
  217MOL0     H29896   1.132   0.819  11.684  1.7460 -0.6706  0.1878
  217MOL0     H29897   1.211   0.878  11.825  1.3213  1.8964 -0.4529
  217MOL0     H29898   1.080   1.062  11.614 -0.3299 -1.3040  1.1948
  217MOL0     H29899   1.179   1.119  11.749 -0.8254  0.4126  0.1392
  217MOL0     H29900   1.373   0.972  11.655  0.2821 -1.0151 -0.8901
  217MOL0     H29901   1.272   0.936  11.516 -1.8045  0.4883 -0.2741
  217MOL0     H29902   1.251   1.183  11.484 -0.9265  0.7884  4.3701
  217MOL0     H29903   1.404   1.185  11.579 -0.2354 -1.7824  1.5202
  217MOL0     H29904   1.384   1.347  11.383  0.4880 -0.9876  2.5674
  217MOL0     H29905   1.425   1.563  11.306 -0.2269  1.9394 -2.2613
  217MOL0     H29906   1.511   1.584  11.154  0.3708  0.3312 -0.2229
  217MOL0     H29907   1.589   1.624  11.307 -1.7413  2.0981 -1.6960
  217MOL0     H29908   2.010   1.381  10.830  1.4490  0.7416 -0.9860
  217MOL0     H29909   2.236   1.488  10.793  2.8040 -1.9809  1.9313
  217MOL0     H29910   2.424   1.725  11.138 -1.5164 -0.9788  0.5057
  217MOL0     H29911   2.433   1.549  11.150  0.1094  0.3875  0.8500
  217MOL0     H29912   2.657   1.602  11.114 -0.7942 -0.8908  0.1436
  217MOL0     H29913   2.603   1.578  10.946  0.9784 -2.2013  1.8163
  217MOL0     H29914   2.605   1.836  11.081 -0.2396  1.0399 -0.9670
  217MOL0     H29915   2.578   1.822  10.911 -1.4702  0.6830  2.2191
  217MOL0     H29916   2.787   1.764  10.851  1.4971 -0.2506 -0.0417
  217MOL0     H29917   2.841   1.716  11.011 -1.9644 -3.1381 -0.8753
  217MOL0     H29918   2.783   1.988  10.890  0.0562  0.2527  0.4444
  217MOL0     H29919   2.813   1.980  11.062 -1.6145 -3.0738  1.7049
  217MOL0     H29920   3.023   2.017  10.912  0.8122  0.4233  0.4112
  217MOL0     H29921   3.000   1.848  10.866 -3.0671 -1.8219  1.6266
  217MOL0     H29922   3.005   1.801  11.118  1.1147 -1.5634 -0.7224
  217MOL0     H29923   3.062   1.972  11.132 -1.5938  1.5689 -3.5911
  217MOL0     H29924   3.257   1.845  11.139  0.1019 -0.7920  0.4776
  217MOL0     H29925   3.236   1.911  10.970 -2.5686  3.1084  1.4870
  217MOL0     H29926   2.222   1.596  11.215 -1.2258 -2.7885  2.4241
  217MOL0     H29927   2.005   1.511  11.225 -0.7390  2.1915 -0.2405
  217MOL0     H29928   1.783   1.174  11.131  0.9421  0.8990  2.2376
  217MOL0     H29929   1.626   1.023  11.241 -1.3030 -0.9489 -0.1937
  217MOL0     H29930   0.152   1.549  11.199 -0.5083  2.1150  0.1389
  217MOL0     H29931   0.077   1.683  11.007 -0.3207 -0.7198 -0.2112
  217MOL0     H29932  -0.296   1.771  10.683 -0.3564 -0.8222  0.0880
  217MOL0     H29933  -0.468   1.746  10.529  1.8420  1.9072 -1.7355
  217MOL0     H29934  -0.362   1.503  10.174 -0.6982 -1.6312 -0.7555
  217MOL0     H29935  -0.450   1.362  10.248  2.4411 -0.8101 -1.7294
  217MOL0     H29936  -0.578   1.586  10.092 -1.8288  0.6288  2.5593
  217MOL0     H29937  -0.660   1.454  10.177  0.6203 -3.4151  0.3368
  217MOL0     H29938  -0.571   1.447   9.911  2.3814  1.7524  1.3472
  217MOL0     H29939  -0.451   1.355   9.993 -0.2739  1.5337  0.1366
  217MOL0     H29940  -0.613   1.218  10.100  1.5535  0.0125 -0.6455
  217MOL0     H29941  -0.615   1.193   9.927  0.4283 -1.6365  1.3328
  217MOL0     H29942  -1.001   1.383   9.983  0.0035 -0.1051  2.6236
  217MOL0     H29943  -0.257   1.393  10.377  2.7264 -1.1936  1.5384
  217MOL0     H29944  -0.044   1.366  10.629  0.9287  1.3239  0.4922
  217MOL0     H29945  -0.052   1.334  10.452  0.4466  0.2256  0.2888
  217MOL0     H29946   0.048   1.467  10.515 -0.1082  0.6939  1.6463
  218MOL0     O29947   5.569   1.493   1.290  0.0591  0.2385  0.4429
  218MOL0     C29948   5.628   1.454   1.190  0.3650 -0.8768  0.5765
  218MOL0     O29949   5.760   1.473   1.167 -0.2551  0.0816  0.6274
  218MOL0     C29950   5.826   1.536   1.258 -0.4644  0.1026  0.2937
  218MOL0     C29951   5.847   1.674   1.254 -0.3916  0.1741 -0.0860
  218MOL0     C29952   5.898   1.729   1.369 -0.5901 -0.6061  0.2399
  218MOL0     C29953   5.948   1.658   1.479 -0.2744  0.7351 -0.9506
  218MOL0     O29954   6.016   1.731   1.579  0.0435 -0.1292  0.2209
  218MOL0     C29955   6.127   1.671   1.644  0.1002 -0.5866 -0.1177
  218MOL0     C29956   6.242   1.635   1.554 -0.0580  1.0686  0.1839
  218MOL0     C29957   6.290   1.754   1.476 -0.1199 -0.4795  0.5274
  218MOL0     C29958   6.395   1.712   1.369  0.8231  0.2156  0.3057
  218MOL0     C29959   6.455   1.825   1.294  0.3250 -0.4881  0.1636
  218MOL0     C29960   6.474   1.792   1.145 -0.2974 -0.1283 -1.2057
  218MOL0     C29961   6.529   1.916   1.059 -0.1244  0.1619 -0.6397
  218MOL0     C29962   6.685   1.924   1.062  0.5572  0.4527 -0.1280
  218MOL0     N29963   6.724   2.065   1.036 -0.4672 -0.2313  0.4090
  218MOL0     C29964   6.697   2.133   0.919  0.2662  0.2710 -0.1155
  218MOL0     C29965   6.768   2.247   0.918  0.0567 -0.4065 -0.2441
  218MOL0     C29966   6.755   2.357   0.812 -0.1792  0.2291  0.2926
  218MOL0     C29967   6.884   2.384   0.737  0.5895  0.2824  0.7728
  218MOL0     C29968   6.928   2.270   0.648  0.3822 -0.7227  0.0187
  218MOL0     C29969   7.043   2.303   0.554 -0.2273 -0.0326  0.0595
  218MOL0     O29970   7.147   2.368   0.634 -0.3031  0.3898 -0.0847
  218MOL0     C29971   7.252   2.286   0.681 -0.0388 -0.2484 -0.7569
  218MOL0     C29972   7.364   2.349   0.720  0.5446 -0.6474  0.0988
  218MOL0     C29973   7.464   2.285   0.793  0.1629  0.4102 -0.3367
  218MOL0     C29974   7.588   2.361   0.820 -0.0529 -0.9251 -0.1468
  218MOL0     C29975   7.465   2.146   0.817  0.3118  0.3206  0.3213
  218MOL0     C29976   7.565   2.058   0.895 -0.0621 -0.4734 -0.3607
  218MOL0     O29977   7.689   2.096   0.891 -0.0967 -0.3703 -0.5476
  218MOL0     C29978   7.799   2.010   0.926 -0.7306 -0.2043  0.0357
  218MOL0     C29979   7.922   2.077   0.946 -0.2323  0.3477  0.0019
  218MOL0     C29980   8.045   2.011   0.954  0.1587 -0.1545  0.2561
  218MOL0     C29981   8.049   1.870   0.945  0.9675  0.1518 -0.9916
  218MOL0     O29982   8.173   1.809   0.981  0.5360 -0.0509  0.6205
  218MOL0     C29983   8.161   1.669   1.015  0.3174  0.3283 -0.0235
  218MOL0     C29984   8.302   1.621   1.068  0.5137 -0.6808 -1.2957
  218MOL0     C29985   8.292   1.490   1.140 -0.3604  0.8639 -0.9083
  218MOL0     C29986   8.406   1.466   1.231 -0.6460 -0.0262 -0.2202
  218MOL0     C29987   8.409   1.325   1.293  0.4590  0.5874  0.4175
  218MOL0     C29988   8.556   1.276   1.307  0.3173  0.0257 -0.1981
  218MOL0     C29989   8.566   1.152   1.398  0.4460  0.1873 -0.4983
  218MOL0     C29990   8.673   1.058   1.352  0.1327  0.2651  0.1268
  218MOL0    Cl29991   8.836   1.132   1.365  0.3702  0.4901 -0.1050
  218MOL0     C29992   7.929   1.805   0.913  0.6027  0.4226 -0.0401
  218MOL0     C29993   7.808   1.871   0.907  0.4503  0.0883  0.5486
  218MOL0     O29994   7.525   1.954   0.949  0.2439 -0.0319  0.1055
  218MOL0     C29995   7.366   2.078   0.755  0.1345 -0.1489 -0.5504
  218MOL0     C29996   7.253   2.143   0.691 -0.0395 -0.0319 -0.1133
  218MOL0     N29997   6.858   2.244   1.026  0.7231  0.7296  0.1429
  218MOL0     N29998   6.836   2.129   1.087 -0.8565 -0.0439 -0.4831
  218MOL0     C29999   5.925   1.518   1.478 -0.2183  0.6901 -0.5030
  218MOL0     C30000   5.866   1.459   1.370 -0.3943 -0.1788  0.4512
  218MOL0     C30001   5.561   1.366   1.081 -1.0072 -0.5583 -0.3003
  218MOL0     C30002   5.646   1.326   0.976  0.2961  0.2449 -0.3373
  218MOL0     C30003   5.584   1.271   0.860 -0.6819 -0.5614 -0.2523
  218MOL0     C30004   5.449   1.239   0.857  0.5164  0.6291 -1.1612
  218MOL0     O30005   5.382   1.185   0.751  0.0716  0.1283  0.2279
  218MOL0     C30006   5.453   1.085   0.672  0.6010 -0.5489  0.1078
  218MOL0     C30007   5.369   0.953   0.674  0.1855  0.8413  0.0844
  218MOL0     C30008   5.219   0.956   0.637  0.1374 -0.8998  1.1349
  218MOL0     C30009   5.124   1.024   0.735  0.2816 -0.5585  0.0385
  218MOL0     C30010   5.134   0.960   0.862 -0.2142 -0.1229 -0.1260
  218MOL0     C30011   5.149   0.909   0.971  0.3862  0.9334 -0.0373
  218MOL0     C30012   5.370   1.262   0.972 -1.1121  0.1961  0.6904
  218MOL0     C30013   5.427   1.332   1.076  0.4841  0.1869  0.6220
  218MOL0     C30014   5.333   1.361   1.189  0.2859 -0.2712 -0.3971
  218MOL0     H30015   5.800   1.730   1.174  0.7273 -0.6536 -1.3469
  218MOL0     H30016   5.918   1.836   1.364  1.0478 -0.9432 -2.1238
  218MOL0     H30017   6.092   1.581   1.697  1.5645  0.2234  2.4201
  218MOL0     H30018   6.156   1.748   1.717  0.6258 -0.2070 -0.7246
  218MOL0     H30019   6.328   1.605   1.614 -0.8903 -0.6652  0.5499
  218MOL0     H30020   6.222   1.544   1.496 -0.0411  0.6078  0.8946
  218MOL0     H30021   6.212   1.814   1.428 -1.7539 -1.5178  1.7614
  218MOL0     H30022   6.338   1.818   1.552  0.9673 -1.0524  0.3400
  218MOL0     H30023   6.473   1.650   1.414  2.4187  1.5876 -0.4522
  218MOL0     H30024   6.350   1.648   1.292  4.5050 -1.8065 -0.4000
  218MOL0     H30025   6.553   1.845   1.338  0.8390  1.9538 -1.8986
  218MOL0     H30026   6.393   1.914   1.304  1.6912  0.3050  2.3470
  218MOL0     H30027   6.536   1.703   1.130 -0.0188  0.1131 -1.5124
  218MOL0     H30028   6.376   1.771   1.101 -0.5472 -1.7855  0.0319
  218MOL0     H30029   6.490   2.010   1.098 -2.3343 -0.2103 -1.7649
  218MOL0     H30030   6.499   1.906   0.954 -2.1255 -2.3232  0.0453
  218MOL0     H30031   6.723   1.902   1.163  1.2602  1.8622 -0.0634
  218MOL0     H30032   6.732   1.860   0.987  1.7380 -1.4224  2.0992
  218MOL0     H30033   6.621   2.118   0.843  0.9480  1.6029 -1.0931
  218MOL0     H30034   6.709   2.441   0.866  0.7658  0.3623  0.8984
  218MOL0     H30035   6.683   2.321   0.737 -1.2155 -2.7284  2.5256
  218MOL0     H30036   6.870   2.469   0.669  0.1337 -1.1597 -1.0070
  218MOL0     H30037   6.960   2.411   0.811  1.1216  2.1175 -0.3635
  218MOL0     H30038   6.950   2.176   0.699  1.0749 -0.5519  0.0443
  218MOL0     H30039   6.838   2.253   0.588 -0.5362 -0.8924  1.4007
  218MOL0     H30040   7.073   2.228   0.481 -0.0139  1.6616 -1.6860
  218MOL0     H30041   7.011   2.378   0.481  1.5977 -0.1645 -0.9381
  218MOL0     H30042   7.371   2.456   0.702 -2.2848 -0.4430 -0.2231
  218MOL0     H30043   7.561   2.466   0.833  1.2277 -0.4755 -0.9897
  218MOL0     H30044   7.653   2.355   0.732 -1.3219 -0.1634 -1.1802
  218MOL0     H30045   7.643   2.338   0.912  0.7756  0.0502 -0.3826
  218MOL0     H30046   7.924   2.184   0.966 -0.8103  0.4326 -0.3689
  218MOL0     H30047   8.141   2.058   0.969 -0.1343  0.4584  0.2271
  218MOL0     H30048   8.077   1.644   1.081  0.0166 -1.3033 -0.9611
  218MOL0     H30049   8.148   1.622   0.917  5.3792  0.1214 -0.9053
  218MOL0     H30050   8.374   1.615   0.986 -0.4343 -4.1190 -2.0106
  218MOL0     H30051   8.326   1.694   1.147 -0.8669 -0.4555 -1.0644
  218MOL0     H30052   8.295   1.417   1.058 -3.6064 -0.1300 -0.3026
  218MOL0     H30053   8.200   1.487   1.199  0.6708 -2.4980  0.7473
  218MOL0     H30054   8.408   1.534   1.317 -2.6318  0.8541 -0.8242
  218MOL0     H30055   8.500   1.481   1.176  0.5910 -1.2320  1.4497
  218MOL0     H30056   8.359   1.334   1.389 -0.7789  1.0915 -0.2492
  218MOL0     H30057   8.359   1.246   1.237  1.9982 -0.7157  0.8092
  218MOL0     H30058   8.618   1.354   1.353  0.1242 -0.4794  0.9485
  218MOL0     H30059   8.598   1.246   1.210 -0.6820 -0.0582 -0.6141
  218MOL0     H30060   8.469   1.101   1.394  1.0181 -1.2129  1.8874
  218MOL0     H30061   8.580   1.172   1.504  0.5697  1.8395 -0.7891
  218MOL0     H30062   8.654   1.022   1.250 -0.5348  0.2173  0.2662
  218MOL0     H30063   8.669   0.970   1.417 -1.0600  0.7206  0.6889
  218MOL0     H30064   7.916   1.698   0.899 -1.2986  0.4096  1.2968
  218MOL0     H30065   7.717   1.822   0.875 -1.6098  3.9247 -0.0163
  218MOL0     H30066   7.364   1.970   0.757 -1.0993 -0.2057  2.7621
  218MOL0     H30067   7.161   2.103   0.651  0.3737 -1.1171 -0.0002
  218MOL0     H30068   5.949   1.449   1.558  3.1913  0.4940 -1.5392
  218MOL0     H30069   5.850   1.353   1.353 -0.0428 -0.1466 -0.1293
  218MOL0     H30070   5.755   1.325   0.973  0.3050 -1.2592 -0.6260
  218MOL0     H30071   5.649   1.250   0.776 -2.7883  0.3728 -2.2115
  218MOL0     H30072   5.459   1.118   0.568 -1.5214  1.3066  0.5145
  218MOL0     H30073   5.559   1.065   0.693  0.4042 -2.8944 -0.8341
  218MOL0     H30074   5.367   0.914   0.776 -0.0698  2.2175  0.6292
  218MOL0     H30075   5.424   0.884   0.610  1.3145  2.0265 -0.2585
  218MOL0     H30076   5.216   1.004   0.538 -2.3232 -0.6497  1.2835
  218MOL0     H30077   5.172   0.859   0.617 -1.7710 -0.4208  3.0061
  218MOL0     H30078   5.026   1.009   0.690  1.4763 -1.1602 -2.5919
  218MOL0     H30079   5.140   1.133   0.737 -0.8577 -0.3841  0.3043
  218MOL0     H30080   5.174   0.876   1.069 -3.0418 -1.8818  0.1021
  218MOL0     H30081   5.263   1.243   0.972 -1.3604  1.5479  0.3194
  218MOL0     H30082   5.310   1.467   1.198 -1.1760 -0.6661  0.9424
  218MOL0     H30083   5.237   1.311   1.177 -1.3215  2.6505 -0.6335
  218MOL0     H30084   5.381   1.321   1.278 -1.9228 -5.3985 -1.1392
  219MOL0     O30085   7.491  10.521   0.126  0.6940  0.5069 -0.7430
  219MOL0     C30086   7.477  10.506   0.008  0.2392 -0.3126  0.4842
  219MOL0     O30087   7.578  10.496  -0.085  0.4871  0.7539  1.0539
  219MOL0     C30088   7.700  10.456  -0.051 -0.4747 -0.3421 -0.2293
  219MOL0     C30089   7.793  10.471  -0.155  0.4516  0.1066  0.3506
  219MOL0     C30090   7.918  10.408  -0.149  0.1079 -0.2573  0.1465
  219MOL0     C30091   7.954  10.340  -0.036 -0.2272 -0.7512 -0.1261
  219MOL0     O30092   8.077  10.278  -0.032 -0.7625  0.2363 -0.1023
  219MOL0     C30093   8.177  10.283  -0.140 -0.6207  0.1305 -0.4662
  219MOL0     C30094   8.294  10.199  -0.094  0.1149 -0.2098 -0.2634
  219MOL0     C30095   8.234  10.059  -0.065  0.4789 -0.5413  0.2497
  219MOL0     C30096   8.342   9.985   0.014 -0.1863 -0.2611 -0.7105
  219MOL0     C30097   8.303   9.844   0.057 -0.4741  0.3234  0.6824
  219MOL0     C30098   8.417   9.776   0.136 -0.0620 -0.3178  0.6748
  219MOL0     C30099   8.410   9.826   0.278 -0.8402  0.1458 -0.0096
  219MOL0     C30100   8.522   9.777   0.368 -0.6134 -0.0110  0.3402
  219MOL0     N30101   8.644   9.857   0.337 -0.1004 -0.2943  0.5439
  219MOL0     C30102   8.757   9.828   0.259  0.5894 -0.2607  0.6852
  219MOL0     C30103   8.845   9.928   0.277  0.2333  0.4830 -0.0642
  219MOL0     C30104   8.989   9.935   0.236  0.3814 -0.1747  0.0780
  219MOL0     C30105   9.085   9.936   0.352 -0.7464  0.2976 -0.3085
  219MOL0     C30106   9.232   9.930   0.297 -0.1893 -0.3401  0.3272
  219MOL0     C30107   9.259  10.041   0.193 -0.5803  0.7374  0.4816
  219MOL0     O30108   9.398  10.063   0.184 -0.0279 -0.1791 -0.0365
  219MOL0     C30109   9.470  10.125   0.286 -0.7369  0.3421  1.0336
  219MOL0     C30110   9.608  10.106   0.306 -0.6823  0.0827 -0.1662
  219MOL0     C30111   9.675  10.166   0.406  0.1945 -0.4856  0.1973
  219MOL0     C30112   9.822  10.138   0.403 -0.1577 -0.0384 -0.5937
  219MOL0     C30113   9.603  10.256   0.497 -0.5249  0.1463  0.4459
  219MOL0     C30114   9.658  10.325   0.625  0.5394 -0.3702  0.3667
  219MOL0     O30115   9.561  10.404   0.707 -0.3546 -0.5536  0.2731
  219MOL0     C30116   9.616  10.448   0.824  0.0406  0.3542 -0.1128
  219MOL0     C30117   9.594  10.373   0.946 -0.1163  0.2041  0.6331
  219MOL0     C30118   9.640  10.418   1.065  0.4332 -0.2405  0.4517
  219MOL0     C30119   9.700  10.543   1.070 -0.5202  0.3362 -0.1847
  219MOL0     O30120   9.750  10.574   1.199  0.2497  0.0867 -0.2119
  219MOL0     C30121   9.745  10.710   1.234 -0.0248 -0.6702  0.2562
  219MOL0     C30122   9.883  10.784   1.241 -0.7722 -0.3593 -0.5825
  219MOL0     C30123   9.964  10.731   1.359  0.3964  0.2355 -0.8211
  219MOL0     C30124   9.964  10.841   1.473 -0.4077 -0.5128  0.2642
  219MOL0     C30125  10.018  10.796   1.611 -1.1094  0.7152  1.2324
  219MOL0     C30126  10.089  10.922   1.676 -1.1467  0.7716  0.1247
  219MOL0     C30127  10.126  10.892   1.823  0.1277 -0.3580  0.9288
  219MOL0     C30128  10.193  11.022   1.876 -0.5066 -0.1469 -0.9141
  219MOL0    Cl30129  10.173  11.020   2.056 -0.4362 -0.1622 -0.0643
  219MOL0     C30130   9.730  10.620   0.960 -0.9841 -0.9723  0.7261
  219MOL0     C30131   9.683  10.574   0.832  0.6210  0.0276 -0.5738
  219MOL0     O30132   9.774  10.306   0.655  0.6043 -0.3613 -0.0848
  219MOL0     C30133   9.466  10.262   0.478 -0.5482  0.5011 -0.3322
  219MOL0     C30134   9.408  10.209   0.370  0.3923  0.2809  0.0500
  219MOL0     N30135   8.781  10.033   0.346 -0.2065  0.6211  0.0595
  219MOL0     N30136   8.665   9.986   0.379 -0.1580 -0.0457 -0.2578
  219MOL0     C30137   7.858  10.316   0.066  0.3043 -0.0842  0.3959
  219MOL0     C30138   7.729  10.377   0.060  0.0009  1.0700 -0.0874
  219MOL0     C30139   7.343  10.504  -0.043 -0.1002  0.2346  0.1602
  219MOL0     C30140   7.323  10.527  -0.177  0.1519  0.2752 -0.6484
  219MOL0     C30141   7.193  10.522  -0.235 -0.4313 -0.5734  0.2385
  219MOL0     C30142   7.079  10.505  -0.155  0.4338 -0.0544 -0.4726
  219MOL0     O30143   6.950  10.506  -0.205 -0.1707  0.1096 -0.2249
  219MOL0     C30144   6.934  10.406  -0.297 -0.1092  0.2168  0.3582
  219MOL0     C30145   6.825  10.304  -0.249  0.0363 -0.5381 -0.3908
  219MOL0     C30146   6.848  10.247  -0.103 -0.3466 -0.6034  0.4797
  219MOL0     C30147   6.731  10.269  -0.008  0.4089  0.0112 -0.4377
  219MOL0     C30148   6.734  10.174   0.112  0.5694 -0.4868  0.5873
  219MOL0     C30149   6.737  10.071   0.175 -0.1930  0.4089  0.2616
  219MOL0     C30150   7.094  10.491  -0.020  0.1300 -0.3435  0.0363
  219MOL0     C30151   7.221  10.493   0.038  0.4552  0.5135  0.5318
  219MOL0     C30152   7.225  10.468   0.186  0.1223  0.6615 -0.2009
  219MOL0     H30153   7.772  10.529  -0.244  0.1929  0.5990  0.7272
  219MOL0     H30154   7.995  10.423  -0.224  1.8983 -0.1012  1.8999
  219MOL0     H30155   8.219  10.384  -0.140 -1.0363  0.3155  0.7204
  219MOL0     H30156   8.146  10.260  -0.242 -0.4145  1.3484 -0.8188
  219MOL0     H30157   8.373  10.187  -0.168  1.2120  0.7600  0.6935
  219MOL0     H30158   8.338  10.234   0.000  0.1564 -0.0651 -0.3354
  219MOL0     H30159   8.137  10.053  -0.015 -0.9778  2.4072 -1.8997
  219MOL0     H30160   8.214  10.012  -0.162 -1.0665  1.9506 -0.7330
  219MOL0     H30161   8.443   9.987  -0.028  0.8034  0.1511  1.5110
  219MOL0     H30162   8.348  10.037   0.110  1.1913 -0.6870 -0.5360
  219MOL0     H30163   8.261   9.790  -0.028 -0.6736  0.1478  0.8933
  219MOL0     H30164   8.212   9.857   0.117 -1.5505  2.2048 -1.1965
  219MOL0     H30165   8.401   9.668   0.144 -0.1990 -0.3453  0.0261
  219MOL0     H30166   8.516   9.788   0.092  0.7398 -2.4832  1.7276
  219MOL0     H30167   8.322   9.777   0.319 -0.1719 -0.7933  0.3544
  219MOL0     H30168   8.396   9.934   0.288 -2.6914 -0.1064  0.4022
  219MOL0     H30169   8.500   9.785   0.475 -1.0069 -3.6460  0.6638
  219MOL0     H30170   8.528   9.668   0.359  0.9574  0.0619  0.2450
  219MOL0     H30171   8.783   9.735   0.209  0.1674  1.2041 -2.5270
  219MOL0     H30172   9.001  10.020   0.168 -1.2949 -0.4067 -0.5379
  219MOL0     H30173   8.998   9.844   0.175 -1.9440  0.3839 -1.2016
  219MOL0     H30174   9.061  10.021   0.417 -0.5864 -0.7995  1.2318
  219MOL0     H30175   9.063   9.847   0.412  0.5847  0.9210  1.2019
  219MOL0     H30176   9.295   9.932   0.386 -0.7679  1.3756  0.7228
  219MOL0     H30177   9.247   9.838   0.239 -1.9536  0.2065 -1.0858
  219MOL0     H30178   9.219  10.014   0.095 -0.0769 -2.2722  1.0327
  219MOL0     H30179   9.208  10.138   0.205  0.5693  1.5804 -1.0608
  219MOL0     H30180   9.667  10.045   0.238 -0.7555 -1.0901  0.7880
  219MOL0     H30181   9.860  10.093   0.311  1.0824 -0.0786 -0.0788
  219MOL0     H30182   9.854  10.072   0.484  1.3231 -0.8582 -1.7980
  219MOL0     H30183   9.874  10.233   0.417  0.0672 -0.0136 -1.5390
  219MOL0     H30184   9.543  10.278   0.931  3.4411 -1.9355  1.0652
  219MOL0     H30185   9.643  10.348   1.148  0.5717 -2.4373 -1.3010
  219MOL0     H30186   9.676  10.773   1.177  0.0391  2.2345  3.0890
  219MOL0     H30187   9.702  10.716   1.334 -1.3894 -0.5393 -0.3169
  219MOL0     H30188   9.935  10.781   1.144  0.1410  0.9610 -0.1711
  219MOL0     H30189   9.861  10.889   1.262 -1.1627  0.2361 -3.5380
  219MOL0     H30190  10.066  10.705   1.328  0.4683 -0.5507  0.0017
  219MOL0     H30191   9.921  10.636   1.394 -0.2589  0.8649  0.1318
  219MOL0     H30192   9.857  10.861   1.485 -0.5751 -1.7701  1.0754
  219MOL0     H30193  10.014  10.931   1.439 -2.7797  0.8968  0.2693
  219MOL0     H30194   9.938  10.742   1.663 -0.9240 -0.3230  0.4619
  219MOL0     H30195  10.094  10.719   1.593 -0.9876  1.3599 -1.4070
  219MOL0     H30196  10.016  11.004   1.669 -1.5216  0.5147  0.9223
  219MOL0     H30197  10.183  10.943   1.625 -1.2974 -1.7781 -1.3647
  219MOL0     H30198  10.186  10.800   1.828 -1.8045 -1.8015 -0.5895
  219MOL0     H30199  10.028  10.881   1.871 -0.3010  1.6611  0.6079
  219MOL0     H30200  10.136  11.109   1.842 -1.9052 -0.3365  0.7614
  219MOL0     H30201  10.296  11.035   1.843  0.1031  1.8460  1.4541
  219MOL0     H30202   9.787  10.712   0.965 -2.1953 -0.0283 -1.5900
  219MOL0     H30203   9.686  10.634   0.742 -0.7266  0.1967 -0.5397
  219MOL0     H30204   9.408  10.314   0.553 -0.4002 -1.6005  1.2972
  219MOL0     H30205   9.300  10.220   0.374  0.1374 -1.8977  1.3428
  219MOL0     H30206   7.885  10.256   0.152  1.6858 -0.2221 -0.1037
  219MOL0     H30207   7.669  10.363   0.149  0.5938  2.3859  0.5469
  219MOL0     H30208   7.407  10.534  -0.246  1.7764 -1.8370  0.9788
  219MOL0     H30209   7.179  10.523  -0.343  0.7986 -0.7545  0.0528
  219MOL0     H30210   6.909  10.464  -0.386  1.8880 -2.2883 -2.0324
  219MOL0     H30211   7.023  10.346  -0.319 -1.2546 -1.6047  0.4192
  219MOL0     H30212   6.824  10.222  -0.321 -0.0822  0.3840 -1.4819
  219MOL0     H30213   6.731  10.357  -0.267  0.9381  0.5231 -2.4094
  219MOL0     H30214   6.854  10.138  -0.101  0.2539 -0.5984  3.1536
  219MOL0     H30215   6.938  10.286  -0.054 -0.4421 -0.3008  0.4161
  219MOL0     H30216   6.636  10.253  -0.059 -0.7877  4.5211 -0.0257
  219MOL0     H30217   6.739  10.373   0.024  1.9265 -0.1038 -0.3501
  219MOL0     H30218   6.745   9.988   0.242 -0.0922  0.2633  0.0730
  219MOL0     H30219   7.002  10.486   0.038 -0.3289 -3.5098 -0.7352
  219MOL0     H30220   7.284  10.547   0.232  0.3382  0.1014  0.5024
  219MOL0     H30221   7.127  10.466   0.233 -0.5655 -0.1534 -1.6047
  219MOL0     H30222   7.272  10.373   0.214 -1.1321  0.7319  2.4169
  220MOL0     O30223   2.720   4.286   0.521  0.2818  0.1637 -0.3594
  220MOL0     C30224   2.654   4.387   0.523 -0.2922 -0.8821 -0.1463
  220MOL0     O30225   2.703   4.509   0.568  0.8431  0.2979  0.1199
  220MOL0     C30226   2.841   4.526   0.568 -0.2021 -0.5617  1.0944
  220MOL0     C30227   2.900   4.639   0.501 -0.8180 -0.4156 -0.9339
  220MOL0     C30228   3.036   4.676   0.544  0.6755  0.8897  0.0304
  220MOL0     C30229   3.116   4.587   0.607 -0.0533  0.0670 -0.4283
  220MOL0     O30230   3.254   4.616   0.640 -0.0675 -0.2852  0.6063
  220MOL0     C30231   3.300   4.746   0.612  0.2071 -0.3875  0.2560
  220MOL0     C30232   3.453   4.751   0.629  0.7264 -0.0159  1.0052
  220MOL0     C30233   3.532   4.652   0.535 -0.3662  0.3796  0.1144
  220MOL0     C30234   3.680   4.651   0.567  0.5458  0.5060  0.0422
  220MOL0     C30235   3.739   4.530   0.506 -0.1948 -0.2404 -0.5240
  220MOL0     C30236   3.870   4.475   0.553 -0.3266  0.2863 -0.2078
  220MOL0     C30237   3.976   4.579   0.536 -0.0920 -0.5460  0.0796
  220MOL0     C30238   4.016   4.602   0.385  0.3646 -0.2172 -0.4562
  220MOL0     N30239   4.134   4.695   0.372 -0.1741  0.5499 -0.6292
  220MOL0     C30240   4.262   4.666   0.415  1.2339  0.7743  1.5204
  220MOL0     C30241   4.341   4.764   0.368  0.7291  0.8947  0.3490
  220MOL0     C30242   4.491   4.766   0.362 -0.2920  0.5599 -0.7939
  220MOL0     C30243   4.552   4.895   0.405 -0.1955  0.1594 -0.0421
  220MOL0     C30244   4.692   4.916   0.348 -0.4960 -0.0134 -0.1907
  220MOL0     C30245   4.739   5.055   0.372 -0.0237  0.7485 -0.7871
  220MOL0     O30246   4.868   5.094   0.316  0.1648 -0.0248  0.3867
  220MOL0     C30247   4.925   5.223   0.339 -0.2336  0.4449 -0.1074
  220MOL0     C30248   4.858   5.328   0.410  0.2503  0.3968  0.1980
  220MOL0     C30249   4.925   5.446   0.440 -0.0933  0.2152 -0.2382
  220MOL0     C30250   4.844   5.535   0.536  0.0358 -0.2703 -0.5312
  220MOL0     C30251   5.051   5.476   0.394 -0.0995 -0.1497  0.4321
  220MOL0     C30252   5.124   5.605   0.421 -0.0754 -0.4137 -0.7687
  220MOL0     O30253   5.266   5.592   0.410  0.1572 -0.7867  0.3622
  220MOL0     C30254   5.336   5.707   0.425  0.0499  0.0313  0.0652
  220MOL0     C30255   5.316   5.789   0.538  0.6225  0.2574  0.6186
  220MOL0     C30256   5.380   5.911   0.545  0.1194  0.1839  0.6910
  220MOL0     C30257   5.460   5.966   0.434  0.4419  0.5680 -0.3382
  220MOL0     O30258   5.520   6.082   0.433  0.2857  0.5088  0.2372
  220MOL0     C30259   5.539   6.142   0.565  0.3802  0.3102  0.7201
  220MOL0     C30260   5.642   6.264   0.549  0.2568  0.5509 -1.2385
  220MOL0     C30261   5.769   6.230   0.474  0.1439  0.7655 -1.0011
  220MOL0     C30262   5.838   6.100   0.532  0.0299 -0.4597 -0.2763
  220MOL0     C30263   5.880   6.107   0.681  0.7628 -0.1586  0.5724
  220MOL0     C30264   5.958   5.982   0.715 -0.6341 -0.3384 -0.3681
  220MOL0     C30265   6.032   6.001   0.847  0.1959 -0.3767 -0.7733
  220MOL0     C30266   5.937   5.979   0.966 -0.2775 -0.1903  0.4228
  220MOL0    Cl30267   5.890   5.802   0.981 -0.1166 -0.1933  0.2099
  220MOL0     C30268   5.467   5.877   0.321  0.1870 -0.8289  1.4859
  220MOL0     C30269   5.424   5.748   0.321  0.1445 -0.3723 -0.1503
  220MOL0     O30270   5.057   5.705   0.441 -0.0244 -0.9625 -0.4658
  220MOL0     C30271   5.108   5.375   0.309  0.1079  0.0905 -0.4277
  220MOL0     C30272   5.057   5.247   0.289  0.1203 -0.0846  0.1082
  220MOL0     N30273   4.256   4.863   0.304  0.5210 -0.1966  0.1734
  220MOL0     N30274   4.131   4.819   0.318  0.6418  0.5132 -0.1503
  220MOL0     C30275   3.057   4.470   0.658  0.2560  0.2193  0.4179
  220MOL0     C30276   2.920   4.443   0.639 -0.9321  0.7348 -0.3569
  220MOL0     C30277   2.515   4.384   0.480 -0.3817 -0.2173 -0.0589
  220MOL0     C30278   2.425   4.291   0.542 -0.0257 -0.1647 -0.1260
  220MOL0     C30279   2.287   4.290   0.514  0.0644  0.3497  0.8378
  220MOL0     C30280   2.239   4.369   0.411 -0.0045  0.6851  0.0600
  220MOL0     O30281   2.105   4.365   0.412 -0.6758  0.0780  0.2636
  220MOL0     C30282   2.061   4.344   0.273 -0.4010 -0.0081  0.3910
  220MOL0     C30283   2.079   4.202   0.224 -0.3924  0.2031  0.5136
  220MOL0     C30284   2.079   4.185   0.070 -0.5175  0.0855  0.2591
  220MOL0     C30285   1.958   4.255  -0.003  0.2028 -0.1351 -0.9201
  220MOL0     C30286   1.838   4.200   0.068  0.1924  0.4388  0.5166
  220MOL0     C30287   1.747   4.149   0.126  0.2020 -0.6023  0.6952
  220MOL0     C30288   2.326   4.458   0.342  0.0528  0.8914 -0.6679
  220MOL0     C30289   2.464   4.470   0.380 -1.2670 -0.1923 -0.6046
  220MOL0     C30290   2.560   4.566   0.315  0.0279  0.6375  0.0262
  220MOL0     H30291   2.839   4.712   0.450  0.6113  0.5221 -1.3798
  220MOL0     H30292   3.072   4.775   0.518  1.4747  0.8823  1.0587
  220MOL0     H30293   3.265   4.816   0.688 -0.4030 -1.5354  1.0600
  220MOL0     H30294   3.276   4.785   0.512  0.8308  2.6035  1.1754
  220MOL0     H30295   3.492   4.850   0.603  0.7048 -0.9434 -3.3102
  220MOL0     H30296   3.474   4.727   0.734  2.3727 -0.0579  0.6955
  220MOL0     H30297   3.492   4.551   0.539  0.2159  0.1719  0.8346
  220MOL0     H30298   3.520   4.697   0.436 -3.0402  1.0799  0.6565
  220MOL0     H30299   3.727   4.740   0.525 -0.2916  0.5831 -0.7557
  220MOL0     H30300   3.699   4.657   0.674 -1.1011 -1.0057  0.4673
  220MOL0     H30301   3.752   4.554   0.400 -0.0159  0.4219 -0.3611
  220MOL0     H30302   3.680   4.439   0.515  2.7019 -2.0303  2.3134
  220MOL0     H30303   3.856   4.458   0.660 -2.3273 -0.5200 -0.5481
  220MOL0     H30304   3.897   4.385   0.496  2.1744  0.3930  0.6514
  220MOL0     H30305   4.065   4.540   0.587  0.6639  1.0752  0.0778
  220MOL0     H30306   3.943   4.672   0.583 -1.5366 -1.7157  1.4631
  220MOL0     H30307   4.028   4.511   0.325 -0.1225  0.6432 -1.9011
  220MOL0     H30308   3.934   4.660   0.342  0.2063  0.9391  1.2924
  220MOL0     H30309   4.301   4.570   0.448  0.3667  0.8317  2.7775
  220MOL0     H30310   4.525   4.734   0.263  0.1870 -2.8842  0.3658
  220MOL0     H30311   4.536   4.694   0.431  2.4461  3.1830  0.4068
  220MOL0     H30312   4.485   4.977   0.376 -3.2547 -1.9133  0.5817
  220MOL0     H30313   4.568   4.889   0.513  0.1729 -0.5404 -0.1317
  220MOL0     H30314   4.751   4.839   0.398 -0.1416  0.1706 -0.3242
  220MOL0     H30315   4.699   4.912   0.239  0.7457  1.8958 -0.2400
  220MOL0     H30316   4.662   5.120   0.329  0.8427  1.1905 -1.6885
  220MOL0     H30317   4.745   5.082   0.478 -0.9648  2.9471 -1.2559
  220MOL0     H30318   4.758   5.303   0.443  0.7374 -0.2388  1.2630
  220MOL0     H30319   4.909   5.593   0.603  1.1622 -1.7650 -0.2782
  220MOL0     H30320   4.779   5.472   0.597 -0.5651 -0.5112 -1.4095
  220MOL0     H30321   4.780   5.609   0.487 -1.1129  0.2771  1.6879
  220MOL0     H30322   5.252   5.759   0.621  1.0745  0.4237  1.0317
  220MOL0     H30323   5.344   5.972   0.627 -1.6742  0.8964 -0.5772
  220MOL0     H30324   5.445   6.183   0.603 -0.6560  1.7795 -3.0127
  220MOL0     H30325   5.585   6.071   0.634  0.5632 -1.5534 -1.2068
  220MOL0     H30326   5.596   6.343   0.488  1.5698  2.0361 -0.3651
  220MOL0     H30327   5.660   6.308   0.648  0.9640 -3.2032  0.4593
  220MOL0     H30328   5.825   6.324   0.480 -0.7034  1.1942  0.9821
  220MOL0     H30329   5.754   6.226   0.366  1.8820  0.0271 -1.2513
  220MOL0     H30330   5.931   6.074   0.480 -0.0070 -1.8672  0.3025
  220MOL0     H30331   5.763   6.025   0.508 -0.6698  0.6705 -1.7598
  220MOL0     H30332   5.945   6.194   0.685  0.3834  0.0831  2.3439
  220MOL0     H30333   5.793   6.132   0.742  0.3604 -1.1644  0.4251
  220MOL0     H30334   6.026   5.946   0.637 -1.4198 -0.2648 -1.0975
  220MOL0     H30335   5.873   5.916   0.735 -0.1947 -0.5255  0.9860
  220MOL0     H30336   6.079   6.100   0.846  0.0820 -0.2913 -3.0536
  220MOL0     H30337   6.119   5.935   0.861  0.7850  0.4449 -0.4649
  220MOL0     H30338   5.854   6.048   0.950  1.8692  2.2457 -0.9758
  220MOL0     H30339   5.987   6.021   1.055  0.9284  3.4168 -1.7499
  220MOL0     H30340   5.525   5.919   0.240  0.0978 -1.2126  1.2185
  220MOL0     H30341   5.455   5.683   0.240  0.6599 -0.3425  0.0187
  220MOL0     H30342   5.204   5.397   0.263  0.4446  1.6350  0.9357
  220MOL0     H30343   5.118   5.175   0.235  2.6629 -0.1935  2.9016
  220MOL0     H30344   3.117   4.395   0.710 -0.2444 -1.8857 -1.8934
  220MOL0     H30345   2.879   4.358   0.694 -0.6859  0.6628 -0.2845
  220MOL0     H30346   2.457   4.223   0.619 -1.4726 -1.7731 -0.8772
  220MOL0     H30347   2.216   4.232   0.572  0.4897 -0.1393  0.8773
  220MOL0     H30348   1.952   4.355   0.260 -0.4924 -1.6953 -0.6322
  220MOL0     H30349   2.116   4.419   0.216 -1.6126  0.5447 -0.0953
  220MOL0     H30350   1.996   4.144   0.265  0.5812 -2.5223 -1.1650
  220MOL0     H30351   2.170   4.157   0.265  1.2115  3.2790  0.6352
  220MOL0     H30352   2.176   4.219   0.033  0.0532 -3.4961 -2.0400
  220MOL0     H30353   2.076   4.078   0.047 -0.0047  0.1045  0.0945
  220MOL0     H30354   1.940   4.218  -0.105 -1.5288  0.9681 -1.0490
  220MOL0     H30355   1.974   4.361   0.015  2.0970 -0.3913 -0.9229
  220MOL0     H30356   1.659   4.104   0.168  0.1283  1.0278  2.4102
  220MOL0     H30357   2.286   4.529   0.270  0.1954  0.4074 -1.2346
  220MOL0     H30358   2.529   4.574   0.210  3.2717  0.1078 -1.1092
  220MOL0     H30359   2.563   4.667   0.356  1.1757 -0.1008  1.8742
  220MOL0     H30360   2.661   4.523   0.318  0.7159  2.1469 -0.6455
  221MOL0     O30361  10.677   4.983   1.240  0.2176  0.5521  0.5168
  221MOL0     C30362  10.673   5.101   1.211 -0.2556 -0.4445  0.7343
  221MOL0     O30363  10.779   5.179   1.171 -0.5083  0.6246 -0.1690
  221MOL0     C30364  10.906   5.126   1.181 -0.2300  0.0166  0.0519
  221MOL0     C30365  10.957   5.046   1.293  0.7877 -0.1610 -0.3096
  221MOL0     C30366  11.090   4.996   1.288 -0.0626 -0.6757  0.0715
  221MOL0     C30367  11.163   5.003   1.171 -0.7903 -1.3975 -0.4875
  221MOL0     O30368  11.287   4.952   1.146 -0.2053  0.2770 -0.1247
  221MOL0     C30369  11.374   4.904   1.245 -0.3027  0.5419 -0.8015
  221MOL0     C30370  11.455   5.013   1.315 -0.3366 -0.3510  0.1865
  221MOL0     C30371  11.590   4.975   1.379  0.4963  0.4366  0.3714
  221MOL0     C30372  11.587   4.966   1.529 -0.2767 -0.0897  0.3595
  221MOL0     C30373  11.728   4.947   1.582 -0.4696 -0.0287  0.0411
  221MOL0     C30374  11.816   5.069   1.583 -0.1221 -0.1287  0.6759
  221MOL0     C30375  11.948   5.042   1.647  0.2704 -0.4730  0.4971
  221MOL0     C30376  12.021   5.179   1.671 -0.0556 -0.3998  0.2929
  221MOL0     N30377  12.159   5.154   1.722 -0.5816 -0.0503 -0.3293
  221MOL0     C30378  12.281   5.155   1.655  0.4120 -0.1311 -0.2586
  221MOL0     C30379  12.371   5.107   1.750 -0.4862  0.1642  0.8767
  221MOL0     C30380  12.519   5.105   1.727 -0.9512  0.0110  0.0685
  221MOL0     C30381  12.591   5.158   1.849 -0.2042  0.7788 -0.1587
  221MOL0     C30382  12.736   5.108   1.857  0.7262  0.3125  0.0909
  221MOL0     C30383  12.847   5.183   1.786  1.8905  0.0454 -0.5735
  221MOL0     O30384  12.964   5.110   1.803  0.3150  0.5277 -0.0724
  221MOL0     C30385  13.081   5.159   1.747 -0.4215 -0.5615  0.9240
  221MOL0     C30386  13.193   5.076   1.740  0.5898 -0.0581 -0.0649
  221MOL0     C30387  13.307   5.117   1.681  0.9908  1.0504  0.3560
  221MOL0     C30388  13.424   5.024   1.705 -0.5482  0.9407  0.1371
  221MOL0     C30389  13.314   5.234   1.604  0.1181 -0.3208 -0.7981
  221MOL0     C30390  13.441   5.268   1.525  0.6801 -0.5088 -0.6554
  221MOL0     O30391  13.566   5.210   1.556  0.2626 -0.7025 -0.1533
  221MOL0     C30392  13.682   5.246   1.486 -0.0757 -0.4546 -0.4570
  221MOL0     C30393  13.750   5.138   1.429 -0.3146 -0.0328 -0.5657
  221MOL0     C30394  13.874   5.159   1.373  0.0892  0.7663  0.1450
  221MOL0     C30395  13.928   5.288   1.354  0.4558 -0.1437 -0.3800
  221MOL0     O30396  14.049   5.303   1.296  0.1207 -0.6383 -0.0283
  221MOL0     C30397  14.105   5.434   1.313 -0.3375 -0.2033  0.0561
  221MOL0     C30398  14.251   5.436   1.268 -0.6593 -0.3933 -0.1000
  221MOL0     C30399  14.341   5.338   1.341 -0.2783 -0.1498  0.3836
  221MOL0     C30400  14.489   5.360   1.299 -0.1482  1.1215  0.6679
  221MOL0     C30401  14.589   5.255   1.359  0.0749 -0.4032 -0.0441
  221MOL0     C30402  14.726   5.300   1.316 -0.4418 -0.1808  0.4104
  221MOL0     C30403  14.762   5.264   1.175 -0.4703  0.0563 -0.0197
  221MOL0     C30404  14.911   5.281   1.149  0.1636  0.0438  0.4328
  221MOL0    Cl30405  15.014   5.188   1.250  0.2501 -0.3184  0.0787
  221MOL0     C30406  13.847   5.397   1.399 -0.0976 -0.9654 -1.0282
  221MOL0     C30407  13.726   5.374   1.469  0.2523  0.1725  0.2415
  221MOL0     O30408  13.427   5.353   1.438  0.2814 -0.1247  0.4802
  221MOL0     C30409  13.202   5.326   1.614  0.3677 -0.1337 -0.6843
  221MOL0     C30410  13.087   5.287   1.688  0.6827 -0.4226 -0.4287
  221MOL0     N30411  12.308   5.079   1.863  0.3704  0.7325  0.1286
  221MOL0     N30412  12.185   5.110   1.851 -0.1304  0.5625  0.3208
  221MOL0     C30413  11.107   5.068   1.062 -0.3739  0.3237 -0.4480
  221MOL0     C30414  10.986   5.122   1.068  0.3011  0.2376 -0.3951
  221MOL0     C30415  10.540   5.173   1.213  0.1046 -0.3752 -0.9454
  221MOL0     C30416  10.545   5.312   1.247  0.2461 -0.2293  0.2633
  221MOL0     C30417  10.425   5.392   1.264  0.0477  0.4943  0.6066
  221MOL0     C30418  10.306   5.340   1.220 -0.7629  0.1499  0.1637
  221MOL0     O30419  10.195   5.419   1.224 -0.1478  0.0293 -0.3375
  221MOL0     C30420  10.194   5.544   1.304  0.5750  0.3132 -0.5979
  221MOL0     C30421  10.049   5.581   1.314 -0.3902 -0.3522  0.0551
  221MOL0     C30422   9.955   5.475   1.378 -0.0068 -0.0647 -0.4289
  221MOL0     C30423   9.818   5.542   1.405  0.5238  1.0015  0.5311
  221MOL0     C30424   9.741   5.579   1.292 -0.6788 -0.2668  0.0626
  221MOL0     C30425   9.670   5.622   1.194 -0.2934 -0.3743 -0.7812
  221MOL0     C30426  10.312   5.214   1.166 -0.2564 -0.5140  0.9074
  221MOL0     C30427  10.420   5.124   1.161  0.6791 -0.5286 -0.4296
  221MOL0     C30428  10.390   4.980   1.123  0.2958 -0.4654 -0.0448
  221MOL0     H30429  10.897   5.029   1.382 -0.8439 -0.0595 -1.3512
  221MOL0     H30430  11.112   4.938   1.377 -0.6717 -1.2250 -0.1247
  221MOL0     H30431  11.450   4.839   1.200 -0.7017  0.2093 -0.9981
  221MOL0     H30432  11.324   4.836   1.314  2.3264 -2.2460 -1.4249
  221MOL0     H30433  11.463   5.091   1.239 -1.5195 -1.9940 -1.7166
  221MOL0     H30434  11.386   5.040   1.396 -0.5875 -5.0155  1.8333
  221MOL0     H30435  11.631   4.878   1.348  1.0777 -0.7434  4.3187
  221MOL0     H30436  11.672   5.034   1.338  0.1937  0.8951  0.4240
  221MOL0     H30437  11.534   5.051   1.571 -4.6042 -0.8000 -2.9807
  221MOL0     H30438  11.529   4.875   1.546 -5.3456  2.7710  0.0644
  221MOL0     H30439  11.780   4.869   1.527  0.2096 -1.1395  2.1365
  221MOL0     H30440  11.721   4.910   1.685  0.9690 -4.6835 -1.2918
  221MOL0     H30441  11.842   5.101   1.482 -1.3403 -1.0970  0.0303
  221MOL0     H30442  11.748   5.137   1.635 -1.5672 -2.0240  1.3953
  221MOL0     H30443  12.000   4.964   1.590 -2.3301 -2.6941  0.9553
  221MOL0     H30444  11.945   4.993   1.745 -0.6056 -2.1828 -0.3328
  221MOL0     H30445  12.025   5.258   1.596  2.8593  0.2441  1.0044
  221MOL0     H30446  11.968   5.226   1.754  1.9188  0.2035  1.2799
  221MOL0     H30447  12.292   5.184   1.550  1.1713 -0.0724 -0.1675
  221MOL0     H30448  12.548   5.165   1.640 -0.3961 -0.8940 -0.3888
  221MOL0     H30449  12.551   5.005   1.694 -0.2363  0.5589 -0.9421
  221MOL0     H30450  12.578   5.266   1.844 -0.2141  0.7501 -4.3956
  221MOL0     H30451  12.556   5.109   1.941 -0.2413 -1.4172 -1.2827
  221MOL0     H30452  12.761   5.107   1.963  3.0626  0.4664 -0.4075
  221MOL0     H30453  12.752   5.006   1.819  0.6151  0.8525 -1.4953
  221MOL0     H30454  12.826   5.189   1.679 -1.3021 -0.2654 -0.0663
  221MOL0     H30455  12.846   5.282   1.831  0.1625 -0.5286  0.7439
  221MOL0     H30456  13.181   4.981   1.791  1.2460 -2.4679 -3.9791
  221MOL0     H30457  13.388   4.935   1.758  0.5908  0.3888  0.0126
  221MOL0     H30458  13.502   5.073   1.764 -0.8329  1.2548  0.2581
  221MOL0     H30459  13.475   4.987   1.616  2.2441 -1.2475  2.4497
  221MOL0     H30460  13.716   5.035   1.437  1.0710 -0.7393 -2.8301
  221MOL0     H30461  13.928   5.076   1.328 -1.7286 -1.9156  2.5831
  221MOL0     H30462  14.055   5.512   1.254  3.3942  4.9776  2.9284
  221MOL0     H30463  14.096   5.452   1.420 -3.3000  0.8916 -0.2739
  221MOL0     H30464  14.258   5.399   1.165  1.7777  0.6250 -0.3681
  221MOL0     H30465  14.290   5.537   1.256  0.1685 -0.8834 -1.8604
  221MOL0     H30466  14.313   5.233   1.327  0.4390 -0.4987  1.3835
  221MOL0     H30467  14.333   5.358   1.448 -1.5038  2.4849 -0.1280
  221MOL0     H30468  14.520   5.458   1.338 -1.0636  0.5199  3.0423
  221MOL0     H30469  14.498   5.365   1.190  0.4508 -0.9433  0.5826
  221MOL0     H30470  14.595   5.258   1.468  2.9254  2.5602 -0.1463
  221MOL0     H30471  14.565   5.153   1.325  0.8552 -0.6271  0.0540
  221MOL0     H30472  14.795   5.250   1.386 -0.1717 -3.2600 -1.8566
  221MOL0     H30473  14.730   5.408   1.330 -1.2956 -0.0264 -0.4544
  221MOL0     H30474  14.702   5.321   1.104 -2.1533 -0.4026  0.9736
  221MOL0     H30475  14.738   5.160   1.152  0.4855  0.1114 -1.3772
  221MOL0     H30476  14.924   5.388   1.168 -2.3266  0.0946  2.4903
  221MOL0     H30477  14.913   5.261   1.041  0.3753 -0.6666  0.5618
  221MOL0     H30478  13.885   5.498   1.402  3.2961 -2.1176 -0.3960
  221MOL0     H30479  13.672   5.462   1.504 -3.1763 -0.2913 -3.2104
  221MOL0     H30480  13.206   5.410   1.545  0.6788 -0.4880 -1.1095
  221MOL0     H30481  13.002   5.355   1.691  1.3553  0.4059  0.1165
  221MOL0     H30482  11.151   5.052   0.964 -1.9921 -0.2540 -1.1172
  221MOL0     H30483  10.952   5.177   0.980  3.2930  0.2844 -1.6357
  221MOL0     H30484  10.641   5.352   1.278 -0.2101  1.6096 -0.5343
  221MOL0     H30485  10.435   5.497   1.290  1.7564  0.5421 -0.1188
  221MOL0     H30486  10.234   5.522   1.404  1.1967  1.1693 -0.6472
  221MOL0     H30487  10.248   5.625   1.254  0.2363 -0.0112 -1.5010
  221MOL0     H30488  10.001   5.607   1.219 -0.6722  1.0486  0.5657
  221MOL0     H30489  10.052   5.670   1.377  2.6514  0.9429 -1.6701
  221MOL0     H30490   9.936   5.379   1.328  1.7670  0.5118 -2.3709
  221MOL0     H30491   9.997   5.434   1.470  0.6663 -0.3900 -0.8774
  221MOL0     H30492   9.829   5.631   1.467 -3.4131  0.4412  2.3321
  221MOL0     H30493   9.757   5.472   1.461 -1.7059  2.9041  0.6396
  221MOL0     H30494   9.601   5.672   1.129  1.7502  0.4862 -2.4314
  221MOL0     H30495  10.224   5.177   1.114 -1.2676  2.5249  0.2353
  221MOL0     H30496  10.293   4.965   1.075  0.3124  1.4422 -0.7907
  221MOL0     H30497  10.462   4.965   1.043 -1.5679  3.3091 -2.7561
  221MOL0     H30498  10.406   4.914   1.209  1.3243 -0.5753 -0.3133
  222MOL0     O30499   8.089   2.061   9.066  0.3045 -0.1806  0.5346
  222MOL0     C30500   8.011   2.013   9.152  0.6510 -0.8672  0.1417
  222MOL0     O30501   8.034   1.997   9.281  0.2440 -0.1939 -0.2603
  222MOL0     C30502   8.138   2.072   9.334  0.1914 -0.7993  1.0936
  222MOL0     C30503   8.268   2.037   9.308 -0.4053 -1.3037  0.2598
  222MOL0     C30504   8.375   2.124   9.344 -0.1359 -1.1690 -0.0789
  222MOL0     C30505   8.344   2.239   9.428  0.8451  0.2546  0.0228
  222MOL0     O30506   8.435   2.335   9.471 -0.1191  1.0414  0.5841
  222MOL0     C30507   8.536   2.304   9.561 -0.5364 -0.0934  0.1775
  222MOL0     C30508   8.667   2.288   9.484  0.0459 -1.0406 -0.1250
  222MOL0     C30509   8.784   2.292   9.585  0.2085 -0.9131 -0.9760
  222MOL0     C30510   8.908   2.267   9.500 -0.7699  0.0970  0.1578
  222MOL0     C30511   9.035   2.246   9.579  0.3666  0.3973 -0.5765
  222MOL0     C30512   9.137   2.220   9.470 -0.1732  0.5033 -0.3545
  222MOL0     C30513   9.263   2.167   9.553 -0.5482 -0.5603 -0.8439
  222MOL0     C30514   9.396   2.179   9.478  0.2678  0.4685 -0.2695
  222MOL0     N30515   9.508   2.120   9.550 -0.3400 -0.6218 -0.4335
  222MOL0     C30516   9.574   2.171   9.661 -0.5708 -0.6347  0.2752
  222MOL0     C30517   9.677   2.076   9.694  0.6805 -0.0457  1.3807
  222MOL0     C30518   9.798   2.099   9.783 -0.4673 -0.3845  0.6454
  222MOL0     C30519   9.899   2.192   9.724 -0.3844  0.2481 -0.8029
  222MOL0     C30520  10.022   2.230   9.809 -0.0809  0.2045 -0.1525
  222MOL0     C30521  10.131   2.124   9.790  0.0489 -0.4567 -0.0353
  222MOL0     O30522  10.246   2.189   9.842 -0.6878 -0.4382 -0.4051
  222MOL0     C30523  10.367   2.139   9.818 -0.3326  0.2541 -0.7814
  222MOL0     C30524  10.476   2.228   9.842  0.7107 -0.3365  0.2332
  222MOL0     C30525  10.610   2.196   9.832 -0.2447  0.5402 -0.5084
  222MOL0     C30526  10.708   2.310   9.856 -0.1811 -0.1038 -0.4390
  222MOL0     C30527  10.643   2.058   9.805 -0.2948 -0.9143  0.4178
  222MOL0     C30528  10.786   2.009   9.780  0.3640 -0.0412 -0.3292
  222MOL0     O30529  10.797   1.888   9.732 -0.2213 -0.1982 -0.3512
  222MOL0     C30530  10.922   1.820   9.722  0.4945  0.1916 -0.2647
  222MOL0     C30531  10.927   1.692   9.773 -0.8669  0.6384 -0.7068
  222MOL0     C30532  11.038   1.612   9.741  0.0749  0.3336 -0.1209
  222MOL0     C30533  11.137   1.654   9.648  0.6456  0.4902  0.1465
  222MOL0     O30534  11.236   1.566   9.622 -0.6285 -0.0263 -0.1404
  222MOL0     C30535  11.348   1.614   9.540  0.0090  0.1751 -0.2549
  222MOL0     C30536  11.469   1.516   9.563  0.3254  0.0364 -0.5394
  222MOL0     C30537  11.447   1.369   9.564 -0.3518  0.4169  0.3792
  222MOL0     C30538  11.560   1.294   9.632  0.4765  0.2744 -0.3748
  222MOL0     C30539  11.549   1.140   9.634  0.0397  0.5563  0.0254
  222MOL0     C30540  11.647   1.072   9.734  0.2108 -0.0905  0.4481
  222MOL0     C30541  11.651   0.925   9.729  0.5408  0.9583  0.2784
  222MOL0     C30542  11.773   0.883   9.824  0.1954 -0.1581  0.4408
  222MOL0    Cl30543  11.722   0.856   9.989  0.3916  0.1819 -0.6539
  222MOL0     C30544  11.126   1.788   9.593  0.4138  0.3661 -0.1739
  222MOL0     C30545  11.015   1.867   9.632 -0.5496 -0.3069  0.4167
  222MOL0     O30546  10.879   2.073   9.835 -0.1574 -0.2080 -0.2787
  222MOL0     C30547  10.535   1.965   9.769 -0.5441  0.2603  0.3931
  222MOL0     C30548  10.404   2.011   9.774  0.0673 -0.6726 -0.3882
  222MOL0     N30549   9.666   1.977   9.597 -0.1339 -0.0974 -0.7071
  222MOL0     N30550   9.560   1.998   9.526 -0.2904  0.1596  0.2811
  222MOL0     C30551   8.208   2.267   9.452 -0.1928 -0.6039 -0.2296
  222MOL0     C30552   8.104   2.190   9.402  0.5916 -0.1759  0.2337
  222MOL0     C30553   7.877   1.959   9.097 -0.1818 -0.1773 -0.0441
  222MOL0     C30554   7.807   1.865   9.168  0.0966  0.7022  0.0441
  222MOL0     C30555   7.693   1.805   9.106 -0.6237 -0.2386 -0.2297
  222MOL0     C30556   7.647   1.836   8.980 -0.2062  0.5188  0.4370
  222MOL0     O30557   7.545   1.758   8.929  0.6839 -0.0462  0.1167
  222MOL0     C30558   7.527   1.754   8.784 -0.4036 -0.4283  0.1383
  222MOL0     C30559   7.454   1.623   8.746  0.1129  0.5444 -0.3644
  222MOL0     C30560   7.296   1.638   8.741  0.1873  0.2141 -0.1250
  222MOL0     C30561   7.241   1.537   8.644 -0.6688  0.1358  0.8044
  222MOL0     C30562   7.097   1.543   8.621 -0.4231 -0.8789 -0.4313
  222MOL0     C30563   6.978   1.513   8.616 -0.4254  0.2749  0.4946
  222MOL0     C30564   7.705   1.943   8.915 -1.3556  0.4988 -0.4489
  222MOL0     C30565   7.821   2.000   8.965 -0.7161  0.3983 -0.1709
  222MOL0     C30566   7.874   2.122   8.905  0.1965  0.0306  0.3766
  222MOL0     H30567   8.289   1.952   9.245 -1.0024 -0.9567 -0.4157
  222MOL0     H30568   8.471   2.104   9.298 -0.7519 -2.2466 -0.9633
  222MOL0     H30569   8.507   2.206   9.600  1.7787 -1.1912 -0.6772
  222MOL0     H30570   8.542   2.371   9.648  0.2855  0.1417 -0.0482
  222MOL0     H30571   8.665   2.193   9.429 -1.4039 -1.8012  1.1569
  222MOL0     H30572   8.675   2.368   9.410 -0.9742 -0.8927 -0.0977
  222MOL0     H30573   8.789   2.392   9.630  0.0635 -0.2795 -2.3219
  222MOL0     H30574   8.770   2.224   9.670  0.8847  0.0054 -0.1031
  222MOL0     H30575   8.890   2.180   9.437  1.3651 -3.0639  3.5618
  222MOL0     H30576   8.922   2.354   9.435  1.0316 -1.6328 -1.9044
  222MOL0     H30577   9.027   2.160   9.646 -3.9687  0.7958 -0.2833
  222MOL0     H30578   9.047   2.333   9.643 -0.8141 -2.1752  3.5274
  222MOL0     H30579   9.108   2.147   9.394  1.1629 -1.2665  0.7634
  222MOL0     H30580   9.162   2.315   9.424  1.4875 -0.1955 -0.9660
  222MOL0     H30581   9.246   2.065   9.587 -0.6769 -0.1905  0.2361
  222MOL0     H30582   9.274   2.234   9.639 -4.4994  1.0062 -1.3074
  222MOL0     H30583   9.384   2.126   9.383 -2.0555  2.2052 -1.0279
  222MOL0     H30584   9.414   2.283   9.446  3.5738  0.6013  1.6253
  222MOL0     H30585   9.554   2.260   9.719 -1.4156 -0.9713  0.5293
  222MOL0     H30586   9.845   2.002   9.802 -0.0958 -0.5754 -1.0610
  222MOL0     H30587   9.760   2.139   9.878 -0.2447 -1.6402  1.2814
  222MOL0     H30588   9.931   2.149   9.629  2.4632 -1.2520  0.6802
  222MOL0     H30589   9.855   2.290   9.708 -1.9221 -0.0047  1.3732
  222MOL0     H30590  10.064   2.326   9.777  4.0257 -1.7811 -1.4190
  222MOL0     H30591   9.994   2.234   9.915  1.7657  1.0813  0.3536
  222MOL0     H30592  10.100   2.036   9.845 -2.0657 -1.7783 -3.0409
  222MOL0     H30593  10.136   2.091   9.686 -2.3088 -0.7303 -0.0937
  222MOL0     H30594  10.454   2.330   9.872  2.3225  0.3039 -0.6276
  222MOL0     H30595  10.785   2.281   9.928 -1.5356 -0.0026  1.1032
  222MOL0     H30596  10.658   2.394   9.903  1.3612  0.9558 -0.6172
  222MOL0     H30597  10.757   2.331   9.760  0.6577 -3.2114 -0.7962
  222MOL0     H30598  10.853   1.660   9.845 -0.2226 -0.0094 -0.3210
  222MOL0     H30599  11.052   1.511   9.780 -1.7043 -0.7681 -2.0841
  222MOL0     H30600  11.314   1.599   9.437  1.7607 -1.9722 -0.6094
  222MOL0     H30601  11.376   1.717   9.565 -0.0815  0.1146  0.1081
  222MOL0     H30602  11.543   1.533   9.484  0.9847 -0.1624  0.0288
  222MOL0     H30603  11.516   1.545   9.658  0.5600 -2.2608  0.1000
  222MOL0     H30604  11.435   1.335   9.461 -2.1316  2.5016 -0.1893
  222MOL0     H30605  11.357   1.345   9.621 -2.7733  1.3254 -2.7620
  222MOL0     H30606  11.549   1.332   9.734  0.7922  0.9403 -0.5810
  222MOL0     H30607  11.658   1.323   9.593  0.9874  1.4897  1.6182
  222MOL0     H30608  11.443   1.119   9.653  0.2009 -1.2694 -0.8631
  222MOL0     H30609  11.567   1.092   9.537 -1.6948 -0.9037  0.3774
  222MOL0     H30610  11.623   1.093   9.839  0.1002 -1.8506  0.8092
  222MOL0     H30611  11.745   1.116   9.715 -0.2238 -0.3111 -2.7990
  222MOL0     H30612  11.662   0.891   9.625 -2.9516 -1.6664  0.5927
  222MOL0     H30613  11.555   0.890   9.766  0.0395  1.8547 -0.1525
  222MOL0     H30614  11.849   0.960   9.817  0.4093 -0.2191  1.8707
  222MOL0     H30615  11.799   0.786   9.779  0.2711  0.0987 -0.0809
  222MOL0     H30616  11.183   1.827   9.510 -0.8532  3.3924  0.2664
  222MOL0     H30617  11.002   1.965   9.587 -3.0751 -0.5839  0.4009
  222MOL0     H30618  10.542   1.860   9.744  0.2478 -0.0088  1.6857
  222MOL0     H30619  10.320   1.942   9.775  1.7282 -2.7852  0.7323
  222MOL0     H30620   8.182   2.352   9.514 -1.1848 -1.3431  0.3869
  222MOL0     H30621   7.999   2.212   9.414  0.7967  1.4099 -0.5411
  222MOL0     H30622   7.831   1.841   9.271 -2.8634  0.2124  0.6869
  222MOL0     H30623   7.655   1.724   9.168  1.1317  0.6691  2.1633
  222MOL0     H30624   7.475   1.845   8.751  1.5856  1.4817  1.9606
  222MOL0     H30625   7.621   1.747   8.730 -1.2680  1.0769 -1.6706
  222MOL0     H30626   7.480   1.540   8.813  0.4872  0.4156 -0.6663
  222MOL0     H30627   7.499   1.597   8.650  0.0303 -0.5757 -0.1151
  222MOL0     H30628   7.262   1.621   8.844 -2.3681 -1.1121 -1.0734
  222MOL0     H30629   7.269   1.738   8.706 -1.0319 -0.0051  0.1206
  222MOL0     H30630   7.273   1.440   8.683  2.4445  0.3371 -0.9368
  222MOL0     H30631   7.289   1.546   8.546  0.4212 -0.8508  1.2271
  222MOL0     H30632   6.877   1.478   8.602 -0.4738  1.1288 -1.7517
  222MOL0     H30633   7.664   1.991   8.826 -1.6738 -1.6413 -1.5202
  222MOL0     H30634   7.896   2.196   8.984 -0.2314  0.1987  0.3397
  222MOL0     H30635   7.960   2.112   8.838 -1.5348  0.8148 -2.0640
  222MOL0     H30636   7.788   2.169   8.856 -1.0994  1.2034  3.4988
  223MOL0     O30637   5.204   1.866   0.756  0.2065 -0.3229  0.3334
  223MOL0     C30638   5.223   1.976   0.817 -0.5364 -0.3950 -0.4703
  223MOL0     O30639   5.310   2.072   0.773 -0.1885  0.1171  0.2559
  223MOL0     C30640   5.386   2.059   0.655  0.3760 -0.6591 -0.4163
  223MOL0     C30641   5.336   2.066   0.527 -0.1602  0.7328 -0.1633
  223MOL0     C30642   5.427   2.059   0.414  0.0037 -0.2807  0.8956
  223MOL0     C30643   5.565   2.041   0.430 -0.1622 -0.6160  0.0558
  223MOL0     O30644   5.652   2.045   0.319 -0.4985  0.0359 -0.3321
  223MOL0     C30645   5.793   2.021   0.321  0.0035 -0.3841 -0.2699
  223MOL0     C30646   5.855   2.025   0.185  0.1557 -0.4810  0.5033
  223MOL0     C30647   5.782   1.924   0.090 -0.2657 -0.1842  0.0096
  223MOL0     C30648   5.866   1.895  -0.037  0.4910  0.3555 -0.9740
  223MOL0     C30649   5.885   2.018  -0.122 -0.2353 -0.4939 -0.2525
  223MOL0     C30650   5.955   1.990  -0.256 -0.3807 -1.1346 -0.1031
  223MOL0     C30651   5.874   1.913  -0.361 -0.0146 -0.0603 -0.5517
  223MOL0     C30652   5.920   1.924  -0.505  0.1836 -0.6929  0.1041
  223MOL0     N30653   6.033   1.827  -0.529  0.1485 -0.9493 -0.0679
  223MOL0     C30654   6.131   1.846  -0.618  0.2551  0.0845 -0.1108
  223MOL0     C30655   6.207   1.732  -0.614 -0.6519  0.3065  1.0507
  223MOL0     C30656   6.349   1.712  -0.679  1.6215  0.7551 -0.4765
  223MOL0     C30657   6.355   1.699  -0.826  0.7398 -0.4679  0.2753
  223MOL0     C30658   6.322   1.556  -0.875  0.1815 -0.2751  0.2324
  223MOL0     C30659   6.451   1.480  -0.896  0.0547 -0.4326  0.1106
  223MOL0     O30660   6.553   1.561  -0.961 -0.1257 -0.0228  0.5961
  223MOL0     C30661   6.676   1.514  -0.946 -0.1419 -0.4412  0.7145
  223MOL0     C30662   6.778   1.612  -0.917 -0.2016 -0.0856 -0.7728
  223MOL0     C30663   6.921   1.586  -0.910  0.7947  0.0721  1.2404
  223MOL0     C30664   7.010   1.677  -0.836 -0.5741 -0.3744 -0.0624
  223MOL0     C30665   6.962   1.459  -0.957  0.4604 -0.3326 -0.0984
  223MOL0     C30666   7.102   1.414  -0.959 -0.0290  0.3074 -0.0617
  223MOL0     O30667   7.135   1.299  -0.889 -0.0440 -0.1006 -0.8098
  223MOL0     C30668   7.270   1.283  -0.867 -0.4005 -0.0534 -0.3128
  223MOL0     C30669   7.355   1.355  -0.768 -0.1672 -0.8248 -1.3650
  223MOL0     C30670   7.491   1.326  -0.766 -0.2542  1.3288  0.1079
  223MOL0     C30671   7.546   1.229  -0.850  0.3289  0.3807  0.7670
  223MOL0     O30672   7.684   1.209  -0.857  0.2566  0.0321  0.0036
  223MOL0     C30673   7.770   1.307  -0.790 -0.4291  0.0010 -0.1320
  223MOL0     C30674   7.910   1.287  -0.841 -0.7698 -0.1136 -0.5658
  223MOL0     C30675   7.969   1.149  -0.799 -0.5637  0.0865 -0.6916
  223MOL0     C30676   8.113   1.144  -0.851 -0.2051 -0.2585 -0.3125
  223MOL0     C30677   8.172   1.011  -0.847 -0.0300  0.3114 -0.3513
  223MOL0     C30678   8.315   0.998  -0.891  0.2334  0.3498  0.4495
  223MOL0     C30679   8.329   1.053  -1.034  0.8445 -0.1429  0.0613
  223MOL0     C30680   8.461   1.002  -1.095  0.2249  0.2009  0.7297
  223MOL0    Cl30681   8.583   1.060  -0.987  0.0215  0.3524  0.3015
  223MOL0     C30682   7.462   1.151  -0.930 -0.2546  0.0896 -1.9721
  223MOL0     C30683   7.327   1.188  -0.946 -0.7125  0.4703  0.3033
  223MOL0     O30684   7.180   1.488  -1.017  0.2126 -0.4074 -0.2657
  223MOL0     C30685   6.862   1.358  -0.992 -0.2613 -0.3497  1.0161
  223MOL0     C30686   6.718   1.386  -0.983  0.5515 -1.1275  0.0764
  223MOL0     N30687   6.148   1.646  -0.519 -0.1908 -0.1051 -0.4326
  223MOL0     N30688   6.047   1.709  -0.467  0.4287  0.4650  0.2153
  223MOL0     C30689   5.613   2.030   0.563 -0.7058  0.1679 -0.7151
  223MOL0     C30690   5.525   2.028   0.672 -0.2210  0.1528 -0.4684
  223MOL0     C30691   5.154   2.006   0.949 -0.0929  0.2912  0.1999
  223MOL0     C30692   5.186   2.134   1.008 -0.4116  0.0466 -1.3027
  223MOL0     C30693   5.109   2.182   1.114  0.3522  0.1163 -0.1912
  223MOL0     C30694   5.009   2.110   1.176 -0.0135 -0.7222 -0.0640
  223MOL0     O30695   4.947   2.168   1.283  0.0644  0.0943 -0.3434
  223MOL0     C30696   4.854   2.084   1.358 -0.4401  0.3486 -0.0832
  223MOL0     C30697   4.708   2.106   1.309  0.9438  0.6156  0.4729
  223MOL0     C30698   4.653   2.241   1.339  0.4892 -0.0170  0.7599
  223MOL0     C30699   4.518   2.257   1.286  0.4682  0.3238  0.3844
  223MOL0     C30700   4.507   2.275   1.141 -0.4460 -0.1753  0.0410
  223MOL0     C30701   4.495   2.284   1.023  0.5158 -0.5371 -0.2215
  223MOL0     C30702   4.983   1.979   1.120  0.0560  0.1662  0.4229
  223MOL0     C30703   5.055   1.925   1.013  0.2270  0.6810  0.9132
  223MOL0     C30704   5.027   1.783   0.976  0.0327  0.2873 -0.5936
  223MOL0     H30705   5.228   2.081   0.522 -0.5564 -1.4743  0.6228
  223MOL0     H30706   5.393   2.077   0.313 -0.8246 -1.3338  0.9768
  223MOL0     H30707   5.816   1.928   0.373  2.5049 -0.4626 -1.3949
  223MOL0     H30708   5.847   2.101   0.372  0.6071 -0.6618 -0.4638
  223MOL0     H30709   5.862   2.123   0.138  1.9529 -1.5632 -1.6373
  223MOL0     H30710   5.958   1.990   0.198  0.0059 -0.4848  1.8091
  223MOL0     H30711   5.754   1.827   0.132  2.6733 -1.3892 -0.5675
  223MOL0     H30712   5.686   1.969   0.062  0.0117  0.9072  0.7545
  223MOL0     H30713   5.960   1.841  -0.023  0.0197 -0.7796 -2.0345
  223MOL0     H30714   5.806   1.825  -0.097  2.3500  0.6732 -3.3343
  223MOL0     H30715   5.938   2.099  -0.072  0.8108  0.5392 -2.8440
  223MOL0     H30716   5.786   2.064  -0.137 -1.2689 -2.4425  0.2922
  223MOL0     H30717   5.966   2.089  -0.300 -1.6895 -0.8328  0.1856
  223MOL0     H30718   6.053   1.944  -0.241  0.9105  1.7747  1.1865
  223MOL0     H30719   5.777   1.964  -0.360  0.5854  1.1434 -0.8021
  223MOL0     H30720   5.855   1.813  -0.322  0.9100 -1.0206 -2.4202
  223MOL0     H30721   5.837   1.903  -0.573 -0.8017 -0.3143  1.1673
  223MOL0     H30722   5.958   2.025  -0.524 -4.6329  1.1985 -0.7489
  223MOL0     H30723   6.159   1.937  -0.671  1.6763 -0.2162  0.0907
  223MOL0     H30724   6.392   1.622  -0.633  2.1328  0.0929 -2.1709
  223MOL0     H30725   6.406   1.802  -0.654  1.0290  1.2120 -0.7407
  223MOL0     H30726   6.276   1.763  -0.868  0.8656 -0.3403  0.2345
  223MOL0     H30727   6.451   1.731  -0.867 -0.3526  1.5178 -0.9205
  223MOL0     H30728   6.259   1.501  -0.804  0.2517  0.4361  0.8641
  223MOL0     H30729   6.271   1.570  -0.971  1.2005 -0.2543 -0.3216
  223MOL0     H30730   6.488   1.446  -0.799 -1.1879  1.6914  1.4036
  223MOL0     H30731   6.431   1.392  -0.958  0.4665 -1.2776  1.1460
  223MOL0     H30732   6.740   1.710  -0.888  2.7659  1.0657 -0.4142
  223MOL0     H30733   7.115   1.647  -0.851 -0.4000  0.5720 -0.8741
  223MOL0     H30734   6.979   1.662  -0.733 -1.6937  0.9634 -0.1766
  223MOL0     H30735   7.006   1.780  -0.872  1.0151 -0.6046 -1.0206
  223MOL0     H30736   7.320   1.435  -0.704  1.3479 -0.1086 -1.3812
  223MOL0     H30737   7.553   1.387  -0.701 -0.0330  1.1364  0.0813
  223MOL0     H30738   7.745   1.411  -0.816 -1.0177  0.7134  2.8665
  223MOL0     H30739   7.769   1.295  -0.681  0.0076  0.7191 -0.0432
  223MOL0     H30740   7.919   1.296  -0.949  4.5652 -1.3867 -0.4882
  223MOL0     H30741   7.973   1.369  -0.806  0.0675 -0.0069 -2.2489
  223MOL0     H30742   7.900   1.071  -0.835  1.0472 -1.8192  0.1300
  223MOL0     H30743   7.972   1.137  -0.690  1.5439 -5.2776 -1.0185
  223MOL0     H30744   8.183   1.220  -0.817 -2.0839  1.4878 -0.1755
  223MOL0     H30745   8.100   1.164  -0.958 -3.0416  0.2227  0.0627
  223MOL0     H30746   8.166   0.976  -0.743 -0.4869 -0.5692 -0.6572
  223MOL0     H30747   8.105   0.937  -0.892  3.0149 -3.0034  0.1286
  223MOL0     H30748   8.353   0.895  -0.888  1.9052  0.9504  2.6446
  223MOL0     H30749   8.380   1.049  -0.820  1.9457 -1.1103  0.0266
  223MOL0     H30750   8.333   1.163  -1.028  2.0438 -0.1049 -0.9686
  223MOL0     H30751   8.247   1.028  -1.102  1.2435  0.7310 -0.7614
  223MOL0     H30752   8.478   1.040  -1.196 -0.4060 -0.4856  0.3565
  223MOL0     H30753   8.459   0.893  -1.104  0.9492  0.1072  1.5351
  223MOL0     H30754   7.502   1.069  -0.988  1.9820 -0.3242  0.0405
  223MOL0     H30755   7.268   1.142  -1.025 -0.4934 -2.4780  1.7363
  223MOL0     H30756   6.894   1.260  -1.026 -1.9177 -0.2253 -1.1018
  223MOL0     H30757   6.639   1.313  -0.998 -0.9902 -0.6029  4.3674
  223MOL0     H30758   5.717   2.003   0.578 -1.4042 -2.0017  0.5376
  223MOL0     H30759   5.565   2.012   0.772  2.1380 -3.5879 -1.8059
  223MOL0     H30760   5.267   2.204   0.993 -0.0278  0.4885  2.0836
  223MOL0     H30761   5.121   2.281   1.156 -1.1391 -0.7127  2.3604
  223MOL0     H30762   4.882   1.978   1.363  0.8810  0.7021  0.4550
  223MOL0     H30763   4.853   2.116   1.463 -3.1534 -0.7440  0.3337
  223MOL0     H30764   4.637   2.039   1.359  1.6082 -1.4869 -1.2337
  223MOL0     H30765   4.703   2.079   1.204 -1.7436  0.6958  0.5182
  223MOL0     H30766   4.648   2.244   1.449 -0.0387 -1.7414  0.8103
  223MOL0     H30767   4.719   2.317   1.296  2.0994 -0.5107  2.2454
  223MOL0     H30768   4.481   2.349   1.331  0.4679  0.8556 -0.6643
  223MOL0     H30769   4.457   2.171   1.316  2.2210 -1.1264 -0.0016
  223MOL0     H30770   4.501   2.280   0.916 -0.7827 -0.1854 -0.3256
  223MOL0     H30771   4.901   1.919   1.159 -0.5627 -0.0290 -1.1288
  223MOL0     H30772   4.959   1.779   0.890 -0.6953 -1.6522  0.0182
  223MOL0     H30773   5.116   1.727   0.946 -0.0846 -1.1070  1.4208
  223MOL0     H30774   4.989   1.727   1.062  0.1879  1.6936  0.4296
  224MOL0     O30775   2.919   1.225   6.915 -0.2086  0.9196 -0.3580
  224MOL0     C30776   2.893   1.156   7.017  0.2927  0.1526  1.1180
  224MOL0     O30777   2.955   1.163   7.131 -0.6116  1.0230 -0.0115
  224MOL0     C30778   3.085   1.216   7.138 -0.4378  0.6483  0.7358
  224MOL0     C30779   3.191   1.209   7.044 -0.5485  0.0789 -0.2093
  224MOL0     C30780   3.323   1.259   7.072  0.8903  0.9375  0.2172
  224MOL0     C30781   3.352   1.330   7.188 -0.0898  0.2806 -0.0452
  224MOL0     O30782   3.478   1.379   7.217  0.2535  0.2859  0.3815
  224MOL0     C30783   3.523   1.342   7.348  0.3062  0.6999  0.9319
  224MOL0     C30784   3.665   1.345   7.383  0.6911 -0.0078 -0.4267
  224MOL0     C30785   3.725   1.491   7.405 -0.5869 -0.8413  0.3615
  224MOL0     C30786   3.848   1.485   7.501 -0.3121 -0.5896  0.1931
  224MOL0     C30787   3.938   1.613   7.482  0.0691  0.5049 -0.2521
  224MOL0     C30788   4.051   1.634   7.587  0.4220 -0.2462 -0.0370
  224MOL0     C30789   4.159   1.533   7.560  0.4196  0.0390  0.4971
  224MOL0     C30790   4.249   1.478   7.668 -0.4144  0.0964  0.3905
  224MOL0     N30791   4.320   1.578   7.754 -0.6623 -0.0881  0.0453
  224MOL0     C30792   4.414   1.560   7.853  0.1387  0.3452  0.0745
  224MOL0     C30793   4.482   1.672   7.870  0.1227 -0.5829  0.2646
  224MOL0     C30794   4.596   1.702   7.953  0.3557 -0.2264 -1.0382
  224MOL0     C30795   4.551   1.724   8.093  0.0728  0.4598 -0.5663
  224MOL0     C30796   4.654   1.812   8.169 -0.5969 -0.4287  0.5799
  224MOL0     C30797   4.607   1.851   8.313  0.4477 -0.2880  0.7730
  224MOL0     O30798   4.722   1.892   8.390 -0.1502 -0.0616 -0.4053
  224MOL0     C30799   4.718   2.018   8.428 -0.6374 -0.1576 -1.0139
  224MOL0     C30800   4.768   2.118   8.344 -0.9881  0.3455 -0.2411
  224MOL0     C30801   4.773   2.254   8.386  0.7236  0.1870 -0.2001
  224MOL0     C30802   4.841   2.361   8.304  0.7691  0.8618  1.3659
  224MOL0     C30803   4.719   2.290   8.512  0.3421 -0.6199  0.2851
  224MOL0     C30804   4.717   2.420   8.580 -0.2173 -0.5527 -0.4003
  224MOL0     O30805   4.720   2.427   8.716 -0.3836 -0.2518  0.1595
  224MOL0     C30806   4.684   2.546   8.775 -0.0269 -0.8882 -0.4812
  224MOL0     C30807   4.581   2.639   8.735 -0.0461  0.3807  0.8169
  224MOL0     C30808   4.553   2.757   8.805  0.4544 -0.8709 -0.5861
  224MOL0     C30809   4.633   2.798   8.916 -0.3918 -0.7054  0.6329
  224MOL0     O30810   4.643   2.928   8.978 -0.1464 -0.0104  0.1858
  224MOL0     C30811   4.532   3.021   8.981  0.0246  0.2636 -0.0812
  224MOL0     C30812   4.516   3.116   8.858  0.8272 -0.1187 -0.1268
  224MOL0     C30813   4.629   3.209   8.839 -0.2719 -0.4900 -0.1779
  224MOL0     C30814   4.633   3.281   8.706  0.5156  0.7246  0.9089
  224MOL0     C30815   4.754   3.373   8.685 -0.1813 -0.3583 -0.3042
  224MOL0     C30816   4.893   3.299   8.691  0.4270 -0.9461 -0.4375
  224MOL0     C30817   4.998   3.388   8.628  0.1904  1.1395  0.0862
  224MOL0     C30818   5.132   3.324   8.625  0.5387  0.4556  0.0350
  224MOL0    Cl30819   5.244   3.414   8.516  0.0325 -0.0835 -0.4675
  224MOL0     C30820   4.723   2.699   8.957 -0.5792 -0.3313  0.9363
  224MOL0     C30821   4.747   2.581   8.890 -1.2567 -0.1350 -0.1263
  224MOL0     O30822   4.706   2.514   8.502 -0.2982  0.1236  0.5285
  224MOL0     C30823   4.671   2.189   8.596 -0.2567  0.1419  0.3263
  224MOL0     C30824   4.667   2.057   8.551  0.2757 -0.5184  1.0101
  224MOL0     N30825   4.410   1.766   7.790  0.1837  0.3982 -0.1479
  224MOL0     N30826   4.316   1.707   7.722 -0.3090  0.3464  0.7011
  224MOL0     C30827   3.243   1.347   7.273  0.2285  0.0693  0.2534
  224MOL0     C30828   3.117   1.281   7.258  0.0976 -0.1201 -0.7975
  224MOL0     C30829   2.760   1.084   7.016 -1.1744  0.4843 -0.0661
  224MOL0     C30830   2.690   1.065   7.140  1.1994 -0.0243 -0.2264
  224MOL0     C30831   2.573   0.982   7.134 -0.5183 -0.2390 -0.4146
  224MOL0     C30832   2.523   0.919   7.027  0.7980  0.9657  0.1759
  224MOL0     O30833   2.412   0.831   7.029  0.0173 -0.3558  0.3602
  224MOL0     C30834   2.312   0.852   7.127  0.4776 -0.1470 -0.3117
  224MOL0     C30835   2.182   0.783   7.093 -0.0326 -0.3132 -0.2571
  224MOL0     C30836   2.198   0.627   7.053  1.2021  0.5873 -0.0305
  224MOL0     C30837   2.051   0.584   7.026 -0.0942 -0.8866 -0.3808
  224MOL0     C30838   1.980   0.636   6.907 -0.4342 -0.4634 -0.4451
  224MOL0     C30839   1.943   0.672   6.804 -0.4231 -0.1466  0.0435
  224MOL0     C30840   2.588   0.938   6.912 -0.3112  0.7590  0.6497
  224MOL0     C30841   2.711   1.014   6.900 -0.4519 -0.2994 -0.2175
  224MOL0     C30842   2.777   1.019   6.773  0.4828 -0.0482  0.4413
  224MOL0     H30843   3.175   1.170   6.944  0.3932  0.6683 -0.6124
  224MOL0     H30844   3.404   1.251   7.000 -0.4526  1.6362 -1.4372
  224MOL0     H30845   3.489   1.240   7.366  1.4654 -0.2318 -1.5806
  224MOL0     H30846   3.467   1.396   7.425  0.4161 -0.1969  1.6539
  224MOL0     H30847   3.672   1.282   7.472 -2.0071  0.1711 -0.0284
  224MOL0     H30848   3.725   1.292   7.309  2.3066  1.3031 -0.1302
  224MOL0     H30849   3.761   1.543   7.316  1.3541  1.0216  2.1445
  224MOL0     H30850   3.657   1.568   7.443  1.5471  1.8385 -0.8949
  224MOL0     H30851   3.808   1.462   7.600 -1.5851 -1.2453 -0.4450
  224MOL0     H30852   3.920   1.406   7.477  1.6484  1.0365  0.4854
  224MOL0     H30853   3.875   1.702   7.478 -0.8282 -0.0446  1.1779
  224MOL0     H30854   3.993   1.606   7.388 -0.5910  0.5598 -0.6442
  224MOL0     H30855   4.088   1.735   7.567  1.7400 -0.9732 -1.5828
  224MOL0     H30856   4.023   1.632   7.692 -0.5533  3.5796 -0.0685
  224MOL0     H30857   4.219   1.577   7.481 -0.7382 -1.1668 -1.1206
  224MOL0     H30858   4.117   1.444   7.512  1.2060  0.0879 -0.2955
  224MOL0     H30859   4.180   1.427   7.735 -1.7667  1.3831  0.0173
  224MOL0     H30860   4.326   1.410   7.629 -1.4479  0.0086 -1.6042
  224MOL0     H30861   4.449   1.468   7.898 -0.4183 -0.1599 -0.5105
  224MOL0     H30862   4.640   1.789   7.904 -0.2490 -0.0669 -1.3173
  224MOL0     H30863   4.668   1.620   7.948  1.1067  0.4030 -0.6002
  224MOL0     H30864   4.453   1.770   8.104 -0.0441 -0.2221  1.8273
  224MOL0     H30865   4.538   1.626   8.139 -1.2272  0.2978 -1.2282
  224MOL0     H30866   4.747   1.755   8.170 -0.3316 -0.2328 -2.5296
  224MOL0     H30867   4.681   1.903   8.115 -2.4122  0.4974  1.1349
  224MOL0     H30868   4.537   1.935   8.301  2.7534  1.8282  1.4280
  224MOL0     H30869   4.565   1.764   8.365  1.4311  0.4049  2.7973
  224MOL0     H30870   4.814   2.100   8.247  1.1840  3.8445 -0.0556
  224MOL0     H30871   4.903   2.321   8.223  0.2589  1.5991  0.5847
  224MOL0     H30872   4.899   2.424   8.372  0.2493  0.5097  2.1551
  224MOL0     H30873   4.758   2.418   8.261 -1.1897 -2.0392  0.9987
  224MOL0     H30874   4.516   2.626   8.649 -0.2783 -1.4938  1.2175
  224MOL0     H30875   4.477   2.819   8.760 -0.0563 -1.6610 -0.8243
  224MOL0     H30876   4.453   2.947   8.995 -0.5642  1.1858  1.8814
  224MOL0     H30877   4.535   3.082   9.072 -0.7906  2.1516 -1.2591
  224MOL0     H30878   4.495   3.052   8.772 -1.5041  1.5671 -0.9090
  224MOL0     H30879   4.425   3.174   8.877  0.9330  0.7119 -2.0160
  224MOL0     H30880   4.721   3.154   8.861 -0.4619 -0.5917  0.3875
  224MOL0     H30881   4.629   3.297   8.904  4.1690  1.2090 -2.1217
  224MOL0     H30882   4.544   3.342   8.689  0.9138  1.0868 -0.0127
  224MOL0     H30883   4.641   3.204   8.629  0.6191  2.2700 -0.7155
  224MOL0     H30884   4.743   3.414   8.585  0.4861  3.0515  0.8793
  224MOL0     H30885   4.751   3.446   8.766 -1.5154 -0.7483  0.0236
  224MOL0     H30886   4.879   3.203   8.639  0.4877 -0.8725 -0.5910
  224MOL0     H30887   4.919   3.279   8.795  1.2500 -0.2429 -0.4962
  224MOL0     H30888   4.996   3.480   8.689  0.8649  0.7246  0.7507
  224MOL0     H30889   4.973   3.414   8.525  0.4616  1.7401  0.1712
  224MOL0     H30890   5.121   3.221   8.591  2.5204  0.4562 -0.7294
  224MOL0     H30891   5.172   3.323   8.727  3.1964  4.7346 -0.6865
  224MOL0     H30892   4.787   2.721   9.042 -0.4005  1.6449  0.3355
  224MOL0     H30893   4.831   2.530   8.936 -0.0536  2.2679  0.5308
  224MOL0     H30894   4.621   2.210   8.690 -3.7570  3.0189 -1.9050
  224MOL0     H30895   4.624   1.982   8.617  0.3158 -0.6883  0.8420
  224MOL0     H30896   3.265   1.401   7.364  0.9685 -2.3820  1.6164
  224MOL0     H30897   3.046   1.292   7.340  1.8834 -0.2957  0.8276
  224MOL0     H30898   2.726   1.109   7.232  1.8231 -2.1422  0.6007
  224MOL0     H30899   2.530   0.957   7.230  1.0363 -1.6734 -0.0452
  224MOL0     H30900   2.351   0.810   7.221 -0.6829  3.3780  1.9358
  224MOL0     H30901   2.295   0.958   7.147 -0.6697 -0.5774  1.1932
  224MOL0     H30902   2.138   0.833   7.006 -0.3299  0.9523  0.5941
  224MOL0     H30903   2.117   0.779   7.181 -0.1544 -1.9411 -0.3895
  224MOL0     H30904   2.265   0.616   6.967  0.8247  6.1732 -1.4645
  224MOL0     H30905   2.240   0.573   7.138 -1.5884  0.6833  1.5123
  224MOL0     H30906   1.983   0.610   7.107 -2.4540 -0.8951 -2.2695
  224MOL0     H30907   2.052   0.475   7.012 -0.0657 -0.6982 -1.9716
  224MOL0     H30908   1.906   0.696   6.706 -0.6090 -0.9409 -0.0885
  224MOL0     H30909   2.536   0.898   6.826  0.3813 -2.4021  1.5780
  224MOL0     H30910   2.758   0.931   6.712 -1.0091  0.1421  0.5759
  224MOL0     H30911   2.756   1.114   6.724  2.1694  0.5300  0.7627
  224MOL0     H30912   2.886   1.027   6.779  0.6708  0.2907 -2.3072
  225MOL0     O30913   0.072   2.949  10.601 -0.2044 -0.6014  0.0277
  225MOL0     C30914  -0.021   2.964  10.519  1.0792 -0.1287 -0.5609
  225MOL0     O30915  -0.018   2.926  10.392 -0.2590 -0.5630  0.8182
  225MOL0     C30916   0.111   2.931  10.341  0.2669  0.3749 -0.3641
  225MOL0     C30917   0.170   2.822  10.270  0.1720 -0.4654  0.7975
  225MOL0     C30918   0.303   2.835  10.207  0.4287 -0.8387  0.1800
  225MOL0     C30919   0.366   2.958  10.213 -0.4595 -0.5408  0.6136
  225MOL0     O30920   0.488   2.967  10.153  0.2204 -0.3268  0.8514
  225MOL0     C30921   0.546   3.099  10.129  0.0427 -0.0070 -0.6770
  225MOL0     C30922   0.688   3.086  10.075 -0.1363 -0.2034  0.3202
  225MOL0     C30923   0.800   3.084  10.190  0.2152  0.0133 -0.3035
  225MOL0     C30924   0.933   3.051  10.133 -0.1419  0.0381 -0.4417
  225MOL0     C30925   1.041   3.081  10.239 -0.3384 -0.2412 -0.5076
  225MOL0     C30926   1.175   3.029  10.169 -0.4321  0.4303 -0.5560
  225MOL0     C30927   1.290   3.020  10.276  0.0971  0.2845 -0.8387
  225MOL0     C30928   1.415   2.951  10.241  0.2623 -0.5601 -0.5254
  225MOL0     N30929   1.517   3.038  10.191 -0.0837 -0.3788 -0.4250
  225MOL0     C30930   1.560   3.055  10.059  0.1391 -0.1153  0.2804
  225MOL0     C30931   1.662   3.142  10.064 -0.7237  0.3141 -0.1637
  225MOL0     C30932   1.720   3.209   9.944  0.3418  0.9548 -0.2783
  225MOL0     C30933   1.870   3.167   9.921  0.6734 -0.3655 -0.0847
  225MOL0     C30934   1.925   3.240   9.795  0.4130 -0.0571 -0.2950
  225MOL0     C30935   2.077   3.242   9.788 -0.0770  0.0461 -0.9977
  225MOL0     O30936   2.136   3.336   9.875 -0.6485 -0.6797  0.6376
  225MOL0     C30937   2.271   3.350   9.874 -0.3774  0.4013 -0.5404
  225MOL0     C30938   2.323   3.454   9.960  0.6822 -0.2033 -0.0780
  225MOL0     C30939   2.456   3.482   9.955 -0.2162 -0.8139 -0.4825
  225MOL0     C30940   2.496   3.606  10.050  0.2413  0.0203 -0.3758
  225MOL0     C30941   2.544   3.407   9.885 -0.7516  0.0604  0.5444
  225MOL0     C30942   2.691   3.427   9.888 -0.0259  0.4210 -1.0215
  225MOL0     O30943   2.746   3.421   9.767 -0.1370 -0.1219  0.0755
  225MOL0     C30944   2.874   3.449   9.748 -1.1345  0.2294  0.4734
  225MOL0     C30945   2.982   3.384   9.817 -0.2335 -0.5029  0.2010
  225MOL0     C30946   3.116   3.417   9.793  0.0925  0.3427  1.3446
  225MOL0     C30947   3.146   3.518   9.713 -0.5742 -0.2454 -0.4739
  225MOL0     O30948   3.277   3.556   9.693 -0.2317  0.0014  0.3406
  225MOL0     C30949   3.304   3.673   9.768  0.3028 -0.0288 -0.6359
  225MOL0     C30950   3.451   3.700   9.804 -0.7333 -0.5112  1.4037
  225MOL0     C30951   3.528   3.698   9.670 -0.3711  0.2341 -0.2717
  225MOL0     C30952   3.649   3.791   9.700 -0.4827  0.1806 -0.1372
  225MOL0     C30953   3.746   3.808   9.576  0.2540 -0.3027  0.1436
  225MOL0     C30954   3.830   3.687   9.553 -0.8019 -0.7491 -0.1002
  225MOL0     C30955   3.935   3.703   9.443 -0.3777  0.3200 -0.2591
  225MOL0     C30956   3.955   3.588   9.349 -0.1782  0.6038  0.1807
  225MOL0    Cl30957   4.121   3.606   9.274  0.3165  0.2711  0.6411
  225MOL0     C30958   3.049   3.575   9.631 -0.2767 -0.2691  0.1299
  225MOL0     C30959   2.915   3.535   9.639  0.4155 -0.2414 -0.2849
  225MOL0     O30960   2.751   3.445   9.990 -0.4864 -0.4025 -0.3193
  225MOL0     C30961   2.496   3.300   9.818 -0.2545  1.0908 -0.2791
  225MOL0     C30962   2.362   3.267   9.814  0.1943 -1.0032  0.4032
  225MOL0     N30963   1.688   3.182  10.195 -0.5508 -0.0594 -0.5218
  225MOL0     N30964   1.598   3.118  10.272  0.2628  0.4412  0.0769
  225MOL0     C30965   0.300   3.068  10.272 -0.1440 -0.0568  0.4887
  225MOL0     C30966   0.181   3.050  10.343  0.1920  0.6209 -0.3253
  225MOL0     C30967  -0.163   2.991  10.567  0.1129  0.0287 -0.4409
  225MOL0     C30968  -0.228   2.906  10.666 -0.6489 -0.0821  0.4005
  225MOL0     C30969  -0.357   2.935  10.712  0.3519 -0.8802 -0.0499
  225MOL0     C30970  -0.422   3.048  10.665 -0.6528 -0.5607 -0.0886
  225MOL0     O30971  -0.552   3.058  10.706 -0.0264 -0.5330 -0.8293
  225MOL0     C30972  -0.632   3.150  10.637 -0.3439 -0.1137 -0.5060
  225MOL0     C30973  -0.764   3.079  10.594 -0.7565 -0.9537  0.2231
  225MOL0     C30974  -0.861   3.070  10.705 -0.4622 -0.0740 -0.2704
  225MOL0     C30975  -0.995   3.031  10.651  0.6795 -0.1968  0.4557
  225MOL0     C30976  -1.089   2.994  10.755  0.5044  0.2040 -0.6512
  225MOL0     C30977  -1.173   2.955  10.831 -0.7750  0.9561  0.0613
  225MOL0     C30978  -0.353   3.138  10.579  0.5474  0.3181  0.1608
  225MOL0     C30979  -0.225   3.112  10.529 -0.1109  0.0595  0.2676
  225MOL0     C30980  -0.146   3.215  10.448  0.5048  0.2155  0.8782
  225MOL0     H30981   0.129   2.722  10.267 -0.4428 -0.2662  1.8381
  225MOL0     H30982   0.352   2.749  10.164 -0.0200 -1.8567  1.6399
  225MOL0     H30983   0.555   3.155  10.222  2.2051 -1.8698  0.3405
  225MOL0     H30984   0.481   3.154  10.060 -0.2768  1.3011  0.6186
  225MOL0     H30985   0.693   2.996  10.013  0.1941  0.0558 -0.0313
  225MOL0     H30986   0.706   3.169  10.006  1.4160  0.2796  1.2496
  225MOL0     H30987   0.801   3.181  10.240  3.3340 -0.1096  0.0687
  225MOL0     H30988   0.768   3.022  10.275  0.3817 -0.4175 -0.5556
  225MOL0     H30989   0.940   2.947  10.098  0.8101  0.3662 -1.2839
  225MOL0     H30990   0.948   3.118  10.048  0.4889  1.5069  0.7994
  225MOL0     H30991   1.021   3.019  10.327 -0.5206 -1.9057 -1.6697
  225MOL0     H30992   1.046   3.186  10.269  0.7210 -0.4286  0.0010
  225MOL0     H30993   1.164   2.923  10.143 -1.1329  0.1941  0.6204
  225MOL0     H30994   1.210   3.082  10.080 -1.5350  1.9317 -0.1226
  225MOL0     H30995   1.257   2.963  10.362 -0.0149  0.1781 -0.9517
  225MOL0     H30996   1.307   3.118  10.321  2.6703 -0.5582  0.2029
  225MOL0     H30997   1.456   2.910  10.333  0.3054 -0.7380 -0.6229
  225MOL0     H30998   1.388   2.865  10.178 -0.3408 -0.7582 -0.0152
  225MOL0     H30999   1.514   3.008   9.973  0.2014 -0.7124  0.5661
  225MOL0     H31000   1.712   3.315   9.968 -0.1590  0.2610  3.0852
  225MOL0     H31001   1.662   3.186   9.853 -0.0950 -0.5232  0.3395
  225MOL0     H31002   1.929   3.197  10.007  2.6254 -0.8575 -1.1929
  225MOL0     H31003   1.873   3.059   9.901 -1.4303 -0.3911 -0.4673
  225MOL0     H31004   1.887   3.181   9.711 -1.4582 -0.1153  0.5576
  225MOL0     H31005   1.887   3.343   9.789  1.3172  0.8666  4.8267
  225MOL0     H31006   2.117   3.145   9.819  1.5154  1.5272  1.8840
  225MOL0     H31007   2.103   3.263   9.684  0.3564  1.2825 -0.6558
  225MOL0     H31008   2.256   3.512  10.024  2.2053  0.8513  0.6075
  225MOL0     H31009   2.517   3.581  10.154 -2.5991 -1.1082 -0.0056
  225MOL0     H31010   2.417   3.680  10.038  0.2071  0.1695  0.6862
  225MOL0     H31011   2.584   3.662  10.014 -1.0459  1.4008 -1.5580
  225MOL0     H31012   2.942   3.316   9.891 -0.7812  0.4985  0.8476
  225MOL0     H31013   3.197   3.373   9.851 -0.6440 -1.7162  0.8841
  225MOL0     H31014   3.263   3.764   9.724  2.1779  1.4612  0.5408
  225MOL0     H31015   3.262   3.664   9.869 -0.7709  0.5008 -1.0199
  225MOL0     H31016   3.466   3.795   9.856  1.7790  0.3796 -0.7419
  225MOL0     H31017   3.491   3.619   9.865  1.2941 -0.8446 -0.2731
  225MOL0     H31018   3.474   3.740   9.584 -0.7153 -0.5624 -0.4573
  225MOL0     H31019   3.558   3.594   9.658  1.5823  0.1599  3.6165
  225MOL0     H31020   3.702   3.750   9.786  0.5668  0.0515 -0.8258
  225MOL0     H31021   3.615   3.890   9.733 -3.8415 -0.9581  0.2234
  225MOL0     H31022   3.691   3.825   9.482  0.2755 -0.9268  0.0178
  225MOL0     H31023   3.815   3.889   9.602  1.8941 -2.1451  1.8343
  225MOL0     H31024   3.766   3.604   9.523  2.6948 -3.2150 -1.3850
  225MOL0     H31025   3.886   3.657   9.643  0.3472  0.5134 -0.3569
  225MOL0     H31026   4.032   3.706   9.493 -0.0536 -0.8078 -0.7761
  225MOL0     H31027   3.916   3.788   9.377  0.2800 -1.1821 -2.4809
  225MOL0     H31028   3.873   3.594   9.277 -0.9871  0.5516  1.0748
  225MOL0     H31029   3.942   3.489   9.394 -0.4462 -0.2653 -1.7188
  225MOL0     H31030   3.082   3.658   9.569 -0.8972  0.0219  0.1847
  225MOL0     H31031   2.842   3.575   9.569 -1.4445 -1.7247  0.6967
  225MOL0     H31032   2.567   3.236   9.766 -0.2690  1.4987 -0.8088
  225MOL0     H31033   2.329   3.177   9.763 -0.5704 -1.2086  1.2325
  225MOL0     H31034   0.335   3.171  10.265  0.1933 -0.1707  0.4787
  225MOL0     H31035   0.134   3.140  10.382  0.2264  0.0661  1.0187
  225MOL0     H31036  -0.168   2.827  10.708  1.3956  1.2851  0.1887
  225MOL0     H31037  -0.402   2.872  10.789 -1.3986 -0.4259 -0.6529
  225MOL0     H31038  -0.660   3.222  10.714  2.3598 -0.0595  0.5454
  225MOL0     H31039  -0.591   3.205  10.552 -0.7615  0.3552 -0.4090
  225MOL0     H31040  -0.720   2.986  10.557  0.5651 -0.4675  0.5077
  225MOL0     H31041  -0.814   3.127  10.510 -0.2421 -2.4281 -0.9719
  225MOL0     H31042  -0.830   2.998  10.781 -0.2834  1.4783  1.1874
  225MOL0     H31043  -0.866   3.162  10.764 -0.3005  0.3401 -0.8909
  225MOL0     H31044  -0.990   2.943  10.586 -1.3028 -0.0548  0.0377
  225MOL0     H31045  -1.052   3.102  10.590 -0.3216 -1.7018 -0.4184
  225MOL0     H31046  -1.249   2.920  10.898  1.6066  0.8114  2.8559
  225MOL0     H31047  -0.401   3.228  10.543 -2.7137 -1.5615 -0.5874
  225MOL0     H31048  -0.114   3.175  10.351 -0.8774  2.0369 -0.3783
  225MOL0     H31049  -0.211   3.301  10.432  0.1459 -0.3487 -0.9233
  225MOL0     H31050  -0.062   3.261  10.502 -0.6649  0.9224  2.1578
  226MOL0     O31051   6.136   5.924  10.490  0.9460 -0.4932 -0.1409
  226MOL0     C31052   6.133   5.920  10.613 -0.3305  0.3313  0.4172
  226MOL0     O31053   6.243   5.928  10.695  0.9407  0.1365  0.0502
  226MOL0     C31054   6.370   5.923  10.645  0.2750  0.4240 -0.8049
  226MOL0     C31055   6.420   5.797  10.595 -0.3049 -0.1101 -0.1914
  226MOL0     C31056   6.547   5.792  10.552  0.1404 -0.4484  0.2381
  226MOL0     C31057   6.635   5.904  10.567  0.2405 -0.0503 -0.7545
  226MOL0     O31058   6.763   5.886  10.529  0.2449 -0.1053 -0.3325
  226MOL0     C31059   6.827   5.994  10.455 -0.8602  0.2698 -0.0529
  226MOL0     C31060   6.956   5.951  10.384  0.3465  0.5196 -0.2773
  226MOL0     C31061   6.931   5.880  10.249  0.2731  0.0384  0.0614
  226MOL0     C31062   7.028   5.767  10.209 -0.2055 -0.2431 -1.0066
  226MOL0     C31063   7.171   5.827  10.193 -0.3405 -0.1834  0.4975
  226MOL0     C31064   7.286   5.742  10.147  0.5007 -0.3004 -0.7568
  226MOL0     C31065   7.290   5.598  10.214 -0.0995  0.4183 -0.0161
  226MOL0     C31066   7.398   5.505  10.151 -0.1627  0.0852  0.0998
  226MOL0     N31067   7.535   5.567  10.154  0.1749  0.3623 -0.0294
  226MOL0     C31068   7.599   5.631  10.259 -0.1926 -0.1306  0.5021
  226MOL0     C31069   7.698   5.698  10.203  0.3099 -0.2029 -0.1458
  226MOL0     C31070   7.806   5.788  10.270 -0.3312  0.3125  0.1778
  226MOL0     C31071   7.864   5.904  10.187  0.0847  0.9599  0.3865
  226MOL0     C31072   7.972   5.852  10.090  0.1302 -0.7523 -0.3712
  226MOL0     C31073   8.029   5.978  10.016 -0.6632  0.6558 -0.0145
  226MOL0     O31074   8.142   5.957   9.931 -0.3462 -0.2469  0.1845
  226MOL0     C31075   8.268   5.926   9.996  0.3167 -0.2363 -0.1121
  226MOL0     C31076   8.294   5.937  10.132  0.1710 -0.7498 -0.2340
  226MOL0     C31077   8.426   5.922  10.179 -0.0114  0.8741  0.0288
  226MOL0     C31078   8.436   5.965  10.328 -0.0622 -0.1054 -0.0553
  226MOL0     C31079   8.532   5.874  10.098  0.1738  0.6888 -1.2659
  226MOL0     C31080   8.664   5.836  10.152 -0.3306  0.8219  0.6789
  226MOL0     O31081   8.760   5.826  10.061 -0.5298 -0.7269 -0.5763
  226MOL0     C31082   8.891   5.803  10.100  0.9527 -0.4702  0.2790
  226MOL0     C31083   8.980   5.906  10.118 -0.2531  0.5086 -0.5267
  226MOL0     C31084   9.112   5.885  10.153 -0.2342  0.0360  0.4860
  226MOL0     C31085   9.154   5.755  10.185 -0.3661 -0.0619  0.4506
  226MOL0     O31086   9.279   5.734  10.211 -0.3897  0.8619  0.1941
  226MOL0     C31087   9.310   5.646  10.323  0.7062  0.0649  0.3367
  226MOL0     C31088   9.373   5.514  10.272  0.2428  0.1275 -0.4237
  226MOL0     C31089   9.360   5.400  10.371 -0.3166  0.4773  0.0277
  226MOL0     C31090   9.390   5.272  10.293 -0.1481  0.0571  0.1843
  226MOL0     C31091   9.265   5.212  10.235  0.1191 -0.0217 -0.3202
  226MOL0     C31092   9.276   5.081  10.158 -0.5502 -1.4231  0.4838
  226MOL0     C31093   9.297   4.961  10.255 -0.3199 -0.0233  0.7052
  226MOL0     C31094   9.410   4.868  10.200 -1.1789 -0.2654 -0.8808
  226MOL0    Cl31095   9.578   4.930  10.227  0.6320  0.0372  0.2806
  226MOL0     C31096   9.061   5.651  10.169 -0.0407 -0.3725  0.2243
  226MOL0     C31097   8.934   5.672  10.126  0.3343  0.0942 -0.2048
  226MOL0     O31098   8.669   5.789  10.261  0.5820 -0.1274 -0.7771
  226MOL0     C31099   8.505   5.859   9.961 -0.1640 -0.0787  0.2375
  226MOL0     C31100   8.378   5.879   9.910 -0.2575  0.8604 -0.3703
  226MOL0     N31101   7.713   5.647  10.076 -0.1129 -0.1973 -0.6824
  226MOL0     N31102   7.621   5.564  10.045 -0.1568  0.2170 -0.4661
  226MOL0     C31103   6.587   6.024  10.629 -0.4261  0.6339  0.4304
  226MOL0     C31104   6.459   6.037  10.672  0.7517  0.7883 -0.4383
  226MOL0     C31105   6.006   5.901  10.685 -0.3570 -0.3374  0.2493
  226MOL0     C31106   5.885   5.896  10.611  0.3173  0.1567 -1.0410
  226MOL0     C31107   5.757   5.868  10.664 -0.0274  0.3238 -0.4240
  226MOL0     C31108   5.742   5.841  10.801  0.7503 -0.3715  0.3434
  226MOL0     O31109   5.624   5.807  10.857  0.1176 -0.6544 -0.2746
  226MOL0     C31110   5.562   5.689  10.801  0.0933  0.4593 -0.3697
  226MOL0     C31111   5.467   5.625  10.898 -0.0674  0.1413  0.0562
  226MOL0     C31112   5.337   5.712  10.921 -0.1918  0.7265  0.4540
  226MOL0     C31113   5.247   5.727  10.801 -0.3918 -0.6459  0.1059
  226MOL0     C31114   5.111   5.771  10.842  0.7714 -0.1565  1.2002
  226MOL0     C31115   5.005   5.819  10.896  0.3135 -0.2843 -0.0347
  226MOL0     C31116   5.864   5.838  10.876  0.8151 -0.1936  0.4671
  226MOL0     C31117   5.992   5.868  10.823 -0.0986 -0.2854  0.4477
  226MOL0     C31118   6.105   5.866  10.925  0.1662  0.8308  0.6018
  226MOL0     H31119   6.350   5.714  10.584 -1.5969  1.2800 -3.8830
  226MOL0     H31120   6.579   5.696  10.513  0.0485  1.2785 -4.8446
  226MOL0     H31121   6.848   6.081  10.517  0.8131  0.0804 -0.3076
  226MOL0     H31122   6.765   6.017  10.368  2.7597 -1.9004 -3.5295
  226MOL0     H31123   7.012   6.044  10.373  0.0608  1.5634  4.6839
  226MOL0     H31124   7.014   5.897  10.460 -0.1203  2.1974  1.3566
  226MOL0     H31125   6.838   5.824  10.243  1.9882 -2.8256 -3.3523
  226MOL0     H31126   6.928   5.950  10.165  1.1616  0.1977  0.1429
  226MOL0     H31127   7.029   5.695  10.291 -0.4042 -0.3237 -1.0746
  226MOL0     H31128   7.000   5.722  10.113 -0.1080 -0.0802 -1.1126
  226MOL0     H31129   7.200   5.866  10.290  0.2751 -1.6235  0.9207
  226MOL0     H31130   7.170   5.909  10.121 -1.3393  0.5985  1.3741
  226MOL0     H31131   7.261   5.738  10.040 -0.9544  1.4778 -0.5348
  226MOL0     H31132   7.376   5.803  10.153 -1.0141  2.1205 -1.2778
  226MOL0     H31133   7.197   5.541  10.202  1.1598 -1.2798 -2.8364
  226MOL0     H31134   7.322   5.603  10.318  0.9327 -1.5723 -0.1941
  226MOL0     H31135   7.408   5.415  10.213  0.8710 -0.1775 -0.4156
  226MOL0     H31136   7.371   5.475  10.049 -1.3110 -0.5184  0.5580
  226MOL0     H31137   7.563   5.652  10.360 -0.5577 -2.4409  0.9007
  226MOL0     H31138   7.881   5.711  10.289 -1.2810 -1.3921 -2.4407
  226MOL0     H31139   7.758   5.821  10.363 -1.4490 -5.7503  2.1652
  226MOL0     H31140   7.796   5.968  10.129  2.7726 -0.0270 -4.2831
  226MOL0     H31141   7.915   5.981  10.246  1.1451  0.9733 -0.5205
  226MOL0     H31142   8.050   5.805  10.150  1.5619 -0.6908 -2.1142
  226MOL0     H31143   7.929   5.775  10.025 -1.2697 -0.8399  0.6006
  226MOL0     H31144   7.946   6.027   9.964 -0.0407  1.3979 -0.3236
  226MOL0     H31145   8.047   6.059  10.087 -0.3253 -0.2472  0.9397
  226MOL0     H31146   8.213   5.989  10.184  1.2170  1.5898 -0.8155
  226MOL0     H31147   8.341   5.978  10.380  0.6005 -0.2353  1.2298
  226MOL0     H31148   8.484   6.062  10.340 -0.8219  0.1719  0.7885
  226MOL0     H31149   8.495   5.897  10.390 -1.5236 -0.4003  1.0702
  226MOL0     H31150   8.949   6.008  10.098  2.0822  0.7334 -3.7369
  226MOL0     H31151   9.183   5.966  10.173 -0.8412  1.3255 -2.1991
  226MOL0     H31152   9.390   5.698  10.378 -0.4271  0.1846  1.9280
  226MOL0     H31153   9.225   5.637  10.391 -0.3324 -2.3751 -1.1741
  226MOL0     H31154   9.316   5.498  10.180  0.4529 -2.3175 -0.1946
  226MOL0     H31155   9.481   5.511  10.253 -0.0026 -2.4808 -1.8890
  226MOL0     H31156   9.265   5.405  10.424  0.0372  0.4121  0.6797
  226MOL0     H31157   9.442   5.404  10.444 -0.4843 -0.1338  0.2571
  226MOL0     H31158   9.432   5.195  10.358  1.2394  1.4288  0.9448
  226MOL0     H31159   9.464   5.291  10.215 -1.3062 -0.5286 -1.1251
  226MOL0     H31160   9.187   5.201  10.312  0.0373  0.2266 -0.3662
  226MOL0     H31161   9.228   5.282  10.159  1.9138  0.2094 -1.0195
  226MOL0     H31162   9.357   5.097  10.087 -2.1562 -0.7911 -1.3008
  226MOL0     H31163   9.180   5.081  10.104 -0.3311  0.5120  0.0130
  226MOL0     H31164   9.203   4.904  10.252 -1.4340  1.7262 -2.1768
  226MOL0     H31165   9.314   4.989  10.359  0.4813 -0.8790  0.8168
  226MOL0     H31166   9.393   4.855  10.092  1.1204  0.5373 -1.3977
  226MOL0     H31167   9.426   4.769  10.244  1.8587  0.6933  0.4571
  226MOL0     H31168   9.086   5.546  10.178 -3.3564 -1.5392 -2.2421
  226MOL0     H31169   8.861   5.594  10.109  2.0603 -1.3826 -1.2139
  226MOL0     H31170   8.586   5.843   9.890 -1.4724 -0.5952 -1.1956
  226MOL0     H31171   8.359   5.868   9.804 -0.3116 -2.5828 -0.1120
  226MOL0     H31172   6.661   6.100  10.652  1.2490 -0.5181 -0.8685
  226MOL0     H31173   6.422   6.126  10.722 -0.1730 -0.1070  0.5332
  226MOL0     H31174   5.886   5.915  10.504  1.0281 -1.1224 -1.2805
  226MOL0     H31175   5.674   5.851  10.597 -0.9831 -1.0653  1.0231
  226MOL0     H31176   5.519   5.715  10.704 -0.9609 -1.5666 -0.4948
  226MOL0     H31177   5.642   5.616  10.786  2.1300  2.7129 -1.2170
  226MOL0     H31178   5.523   5.605  10.990 -0.6683 -6.2441 -0.5314
  226MOL0     H31179   5.431   5.526  10.867  2.3532 -0.5118 -0.8988
  226MOL0     H31180   5.284   5.651  10.994  1.0722 -0.9965 -0.0243
  226MOL0     H31181   5.348   5.813  10.961 -2.2524  0.3781  2.0903
  226MOL0     H31182   5.248   5.630  10.750  1.7820 -0.6894  0.1239
  226MOL0     H31183   5.297   5.798  10.734 -0.1026  0.0104  1.0037
  226MOL0     H31184   4.921   5.875  10.931 -1.4462 -2.4038 -0.6664
  226MOL0     H31185   5.842   5.851  10.982 -0.0175 -0.2910  0.3069
  226MOL0     H31186   6.156   5.962  10.938  1.9687  0.3314 -1.9505
  226MOL0     H31187   6.068   5.832  11.022 -2.2924 -2.3473 -1.2658
  226MOL0     H31188   6.180   5.796  10.889 -0.9186  1.2393 -2.8689
  227MOL0     O31189   5.532   8.535   0.352 -0.0797 -0.1630 -0.5162
  227MOL0     C31190   5.485   8.512   0.461 -0.6766  0.0178 -0.5016
  227MOL0     O31191   5.562   8.477   0.570  0.3206  0.4640 -0.5628
  227MOL0     C31192   5.682   8.542   0.605 -0.2471  0.0031  0.4646
  227MOL0     C31193   5.748   8.650   0.532  0.5776  0.3661 -0.2926
  227MOL0     C31194   5.872   8.700   0.572  0.1419  0.5386  1.0017
  227MOL0     C31195   5.925   8.670   0.700 -0.6720  0.9614  0.8257
  227MOL0     O31196   6.036   8.720   0.762 -0.1738 -0.2539  0.2365
  227MOL0     C31197   6.134   8.801   0.683  1.1341 -0.5521 -0.2830
  227MOL0     C31198   6.242   8.715   0.606  0.2217  0.0642 -0.5287
  227MOL0     C31199   6.350   8.806   0.565  0.4108  0.3966  0.5981
  227MOL0     C31200   6.484   8.736   0.539 -0.7366  1.2556 -0.2800
  227MOL0     C31201   6.584   8.847   0.494  0.2434  0.9880 -0.2237
  227MOL0     C31202   6.725   8.793   0.457  0.8143 -0.4768  0.4196
  227MOL0     C31203   6.813   8.921   0.436 -0.1933  0.3343 -0.4054
  227MOL0     C31204   6.965   8.901   0.421  0.5111 -0.4799 -0.4625
  227MOL0     N31205   6.993   8.866   0.284  0.4205  1.2248 -0.7753
  227MOL0     C31206   6.993   8.741   0.231  0.0202 -0.3189 -0.4367
  227MOL0     C31207   7.044   8.759   0.111 -0.1132  0.1681 -0.1800
  227MOL0     C31208   7.059   8.647   0.019 -0.1609  0.2392 -0.4730
  227MOL0     C31209   7.182   8.555   0.051 -0.4094 -0.1890  0.5702
  227MOL0     C31210   7.311   8.627   0.008 -0.1727 -0.4941  0.1854
  227MOL0     C31211   7.433   8.542   0.050 -0.2365 -0.2952  0.6930
  227MOL0     O31212   7.536   8.570  -0.041 -0.3942 -0.1566  0.1762
  227MOL0     C31213   7.668   8.554  -0.008 -0.7521 -0.2875 -0.3250
  227MOL0     C31214   7.749   8.589  -0.112 -0.0242  0.8413 -0.2671
  227MOL0     C31215   7.888   8.592  -0.091  0.1664 -0.6002  0.4672
  227MOL0     C31216   7.971   8.654  -0.203  0.1185  0.3415 -0.5835
  227MOL0     C31217   7.938   8.551   0.033 -0.4628 -0.6125  0.3418
  227MOL0     C31218   8.075   8.566   0.069 -0.0568  0.2119 -0.0369
  227MOL0     O31219   8.135   8.457   0.133 -0.1867  0.5031 -0.1537
  227MOL0     C31220   8.262   8.463   0.172 -0.4259 -0.2249 -1.0133
  227MOL0     C31221   8.360   8.387   0.105 -0.2688  1.0403  0.2101
  227MOL0     C31222   8.490   8.381   0.161  0.1573  0.5418  0.6019
  227MOL0     C31223   8.523   8.443   0.281  1.0097 -0.4424  0.0744
  227MOL0     O31224   8.654   8.433   0.315 -0.6299  0.7616 -0.1143
  227MOL0     C31225   8.714   8.535   0.400 -1.4789 -0.3695  0.1512
  227MOL0     C31226   8.860   8.545   0.363 -0.0310 -0.2686  1.1367
  227MOL0     C31227   8.943   8.640   0.437 -0.3981 -0.3731  0.4056
  227MOL0     C31228   9.094   8.620   0.426  0.4184  0.0026 -0.0203
  227MOL0     C31229   9.176   8.738   0.483 -0.8149 -0.3721  1.0286
  227MOL0     C31230   9.322   8.726   0.434  0.4794  0.1134 -0.4050
  227MOL0     C31231   9.394   8.859   0.468 -0.3314  0.4808 -0.6512
  227MOL0     C31232   9.546   8.859   0.450  0.7086 -0.1601  0.3228
  227MOL0    Cl31233   9.585   8.806   0.277  0.0633  0.5814  0.5170
  227MOL0     C31234   8.425   8.521   0.343 -0.1229  0.2876 -0.6953
  227MOL0     C31235   8.292   8.532   0.292 -0.0815 -0.7501 -0.1989
  227MOL0     O31236   8.126   8.672   0.053  0.1958  1.2029  0.2061
  227MOL0     C31237   7.855   8.501   0.128  0.5433 -0.2091 -0.7007
  227MOL0     C31238   7.717   8.500   0.112 -0.6429  0.0416 -0.2220
  227MOL0     N31239   7.077   8.892   0.087  0.4228  0.1907  0.0777
  227MOL0     N31240   7.033   8.955   0.189  0.5320 -0.1970  0.0162
  227MOL0     C31241   5.861   8.566   0.768  0.3662 -0.1348 -0.5082
  227MOL0     C31242   5.755   8.495   0.717  0.4188  0.5106 -0.1362
  227MOL0     C31243   5.330   8.522   0.480 -0.5713  1.1256 -0.2633
  227MOL0     C31244   5.289   8.529   0.613 -0.7702 -0.2695  0.2682
  227MOL0     C31245   5.152   8.544   0.641  0.0056  0.4662  0.2355
  227MOL0     C31246   5.061   8.539   0.544  0.1148  0.5944 -0.0894
  227MOL0     O31247   4.924   8.541   0.560  0.5074  0.3426  0.3166
  227MOL0     C31248   4.872   8.548   0.691  0.5748  0.6433 -0.7243
  227MOL0     C31249   4.718   8.544   0.682 -0.1159  0.4200 -0.7930
  227MOL0     C31250   4.662   8.424   0.601 -0.0587  0.1631 -0.2641
  227MOL0     C31251   4.622   8.440   0.459  0.0147  0.1240  0.6539
  227MOL0     C31252   4.498   8.525   0.450 -0.4585  0.2540  0.0528
  227MOL0     C31253   4.402   8.593   0.441 -0.0808 -0.1185  0.1811
  227MOL0     C31254   5.107   8.504   0.411  0.4434  0.1649  0.9303
  227MOL0     C31255   5.239   8.500   0.378  0.1019  0.2039  1.1832
  227MOL0     C31256   5.272   8.461   0.234 -0.0488 -0.1906 -0.3535
  227MOL0     H31257   5.701   8.691   0.443 -0.0160 -0.2603 -0.2774
  227MOL0     H31258   5.923   8.775   0.513  1.1764 -1.6174 -1.0202
  227MOL0     H31259   6.193   8.846   0.763 -0.3873  1.5274 -0.2598
  227MOL0     H31260   6.086   8.867   0.610  0.2148 -1.9267 -0.9719
  227MOL0     H31261   6.285   8.639   0.672  0.5475 -0.2931 -1.1455
  227MOL0     H31262   6.197   8.665   0.520  0.0312  0.3881 -0.6202
  227MOL0     H31263   6.311   8.834   0.466 -1.3865 -0.3602  1.0456
  227MOL0     H31264   6.367   8.891   0.631  0.1011  0.7193  0.2735
  227MOL0     H31265   6.523   8.694   0.632 -1.3308  1.7759  0.2145
  227MOL0     H31266   6.477   8.662   0.459  0.1688 -0.6242  1.2968
  227MOL0     H31267   6.587   8.920   0.576  0.3283 -0.1783  0.8501
  227MOL0     H31268   6.549   8.903   0.407  0.3692  0.5480 -0.5584
  227MOL0     H31269   6.762   8.721   0.530  1.1165 -0.4419  0.3020
  227MOL0     H31270   6.714   8.755   0.355  0.5061 -0.6649  0.5222
  227MOL0     H31271   6.781   8.996   0.509 -1.5461  3.3073 -3.7329
  227MOL0     H31272   6.777   8.957   0.339  0.8667 -1.7122 -1.6181
  227MOL0     H31273   7.017   8.987   0.464 -0.3778 -0.0536 -0.2347
  227MOL0     H31274   6.993   8.819   0.488  1.8795  0.3515  0.0242
  227MOL0     H31275   6.971   8.649   0.284  0.6327 -0.2337 -0.0221
  227MOL0     H31276   7.068   8.688  -0.082  4.0879  1.8139  0.3147
  227MOL0     H31277   6.971   8.586   0.038 -0.2700  1.4616  4.1150
  227MOL0     H31278   7.181   8.527   0.157 -0.0932  0.9289  0.8858
  227MOL0     H31279   7.169   8.457   0.004 -1.1462 -1.2289  2.7781
  227MOL0     H31280   7.310   8.645  -0.100  0.4360  0.1463  0.2765
  227MOL0     H31281   7.318   8.725   0.055 -1.5351  0.0359 -0.6459
  227MOL0     H31282   7.470   8.567   0.150  1.0573 -1.0333  0.4225
  227MOL0     H31283   7.412   8.435   0.049 -1.1209 -0.1325  1.0123
  227MOL0     H31284   7.696   8.621  -0.201 -1.9045  1.2887  0.9432
  227MOL0     H31285   7.997   8.756  -0.171 -1.0287 -0.0362  1.7177
  227MOL0     H31286   7.933   8.656  -0.306 -0.0199 -2.7641 -0.6893
  227MOL0     H31287   8.072   8.615  -0.219  0.1024  0.8608 -2.1112
  227MOL0     H31288   8.335   8.345   0.008  0.8840  3.0195 -1.0040
  227MOL0     H31289   8.560   8.329   0.096 -2.3282  0.1177 -1.9526
  227MOL0     H31290   8.669   8.633   0.380  1.4597  1.5449  2.1280
  227MOL0     H31291   8.701   8.518   0.508 -2.8376 -1.4375 -0.1407
  227MOL0     H31292   8.910   8.449   0.375  1.7250  0.4657  0.1376
  227MOL0     H31293   8.862   8.573   0.257 -1.2646  0.6446  1.3341
  227MOL0     H31294   8.921   8.647   0.544  0.5544  0.5576  0.5604
  227MOL0     H31295   8.931   8.741   0.398  1.2315  0.4747  1.9243
  227MOL0     H31296   9.118   8.613   0.319 -3.2042 -0.1869 -0.9412
  227MOL0     H31297   9.120   8.520   0.461  0.3152 -0.6060 -1.5979
  227MOL0     H31298   9.140   8.834   0.443 -2.5591 -1.3479  0.1242
  227MOL0     H31299   9.180   8.738   0.592  2.5092 -2.6258  1.0375
  227MOL0     H31300   9.334   8.725   0.326 -0.4680  0.2703 -0.5193
  227MOL0     H31301   9.373   8.641   0.479 -1.9982 -0.3701  1.7469
  227MOL0     H31302   9.363   8.884   0.570 -2.2103 -3.5891 -0.0116
  227MOL0     H31303   9.363   8.923   0.385  0.0557  2.1215  0.4269
  227MOL0     H31304   9.595   8.787   0.517 -1.4814 -0.9362  1.1820
  227MOL0     H31305   9.586   8.960   0.466  1.7997 -0.6181  0.6060
  227MOL0     H31306   8.453   8.581   0.430  2.4642 -1.1193 -0.4482
  227MOL0     H31307   8.211   8.585   0.340  1.8214  3.8019 -1.4606
  227MOL0     H31308   7.889   8.485   0.230  3.6889  0.8183 -1.4882
  227MOL0     H31309   7.661   8.475   0.201  2.1762  1.7129  2.1663
  227MOL0     H31310   5.916   8.542   0.858 -1.3686 -0.8043  0.4111
  227MOL0     H31311   5.717   8.405   0.764 -2.7579  1.9545  0.3122
  227MOL0     H31312   5.352   8.528   0.702 -0.3043  0.5072 -0.0445
  227MOL0     H31313   5.114   8.556   0.742  1.0015  3.0535  0.3655
  227MOL0     H31314   4.913   8.465   0.749 -1.4601 -0.0779 -0.2332
  227MOL0     H31315   4.884   8.649   0.732  2.0633  0.6777 -1.2052
  227MOL0     H31316   4.684   8.627   0.621  1.6233 -0.0376 -2.4693
  227MOL0     H31317   4.679   8.552   0.784  0.3644 -0.2446 -0.5489
  227MOL0     H31318   4.733   8.340   0.593 -0.4813 -0.1168 -1.1596
  227MOL0     H31319   4.573   8.389   0.653  0.5663 -0.1358  0.6415
  227MOL0     H31320   4.608   8.338   0.421 -1.0771  1.5233 -3.1730
  227MOL0     H31321   4.706   8.486   0.406 -1.3097  3.3743  1.1580
  227MOL0     H31322   4.319   8.657   0.417 -1.4723 -0.6510  3.1341
  227MOL0     H31323   5.034   8.486   0.334  0.2496  3.2113  0.3045
  227MOL0     H31324   5.348   8.383   0.236  0.3421  0.1747 -0.9181
  227MOL0     H31325   5.184   8.416   0.187 -0.7991 -1.0400  1.7454
  227MOL0     H31326   5.309   8.543   0.172  3.2803 -0.9379  0.4578
  228MOL0     O31327   6.133   3.002   4.790  0.3233 -0.1743  0.0295
  228MOL0     C31328   6.095   3.021   4.675 -0.0606  0.1685  0.3474
  228MOL0     O31329   6.165   2.978   4.564 -0.1232  0.4988  0.5961
  228MOL0     C31330   6.295   2.944   4.575  0.1078 -0.4960 -0.3247
  228MOL0     C31331   6.404   3.037   4.590 -0.2510 -0.8088  0.1812
  228MOL0     C31332   6.535   2.992   4.613  0.3925  0.3263 -0.5361
  228MOL0     C31333   6.551   2.856   4.633  0.0178  0.4238  0.1294
  228MOL0     O31334   6.680   2.807   4.651  1.2701 -0.2620  0.4339
  228MOL0     C31335   6.745   2.841   4.768  0.0422 -0.1181 -0.1719
  228MOL0     C31336   6.879   2.911   4.726 -0.4185 -0.1931 -0.1189
  228MOL0     C31337   7.019   2.834   4.703  0.0776 -0.7176  0.0641
  228MOL0     C31338   7.127   2.924   4.643  0.5126  0.4493  1.0338
  228MOL0     C31339   7.111   2.961   4.498 -0.3771 -0.3608  0.2505
  228MOL0     C31340   7.220   3.050   4.456 -0.0342  0.6463  0.0056
  228MOL0     C31341   7.194   3.088   4.310  0.2053  0.4443  0.1194
  228MOL0     C31342   7.319   3.139   4.244 -0.3344  0.5387  0.4397
  228MOL0     N31343   7.362   3.270   4.293 -0.4075  0.5694  1.4223
  228MOL0     C31344   7.294   3.386   4.266  0.7740 -0.3545  0.3241
  228MOL0     C31345   7.384   3.481   4.300  0.0535 -0.0294 -0.0626
  228MOL0     C31346   7.358   3.631   4.277 -0.4905 -0.9423 -1.0636
  228MOL0     C31347   7.331   3.722   4.396 -0.2279  0.6894 -0.0202
  228MOL0     C31348   7.202   3.681   4.472  0.3951 -0.5898  0.0290
  228MOL0     C31349   7.186   3.764   4.592  0.1495  0.1763 -0.3382
  228MOL0     O31350   7.299   3.730   4.679  0.1510 -0.2626 -0.6562
  228MOL0     C31351   7.384   3.825   4.723 -0.1791  0.0081 -0.5157
  228MOL0     C31352   7.360   3.964   4.728 -1.3242  0.1463  0.1981
  228MOL0     C31353   7.454   4.053   4.774 -0.7743  0.0256  0.4205
  228MOL0     C31354   7.428   4.203   4.761  1.0201  0.9430  0.1694
  228MOL0     C31355   7.580   4.005   4.825 -0.2517  0.4943 -0.2251
  228MOL0     C31356   7.684   4.093   4.877  0.3663  0.7787 -0.0635
  228MOL0     O31357   7.802   4.039   4.874 -0.5458  0.7031 -0.5077
  228MOL0     C31358   7.897   4.094   4.951  0.1801 -0.1327 -0.6331
  228MOL0     C31359   7.965   4.013   5.047  0.3352  0.3106  0.4158
  228MOL0     C31360   8.080   4.064   5.115  0.0503 -0.0662 -0.3084
  228MOL0     C31361   8.102   4.205   5.113 -0.2893  0.4727  1.0333
  228MOL0     O31362   8.194   4.243   5.197 -0.1954 -0.1964 -0.2622
  228MOL0     C31363   8.195   4.382   5.239  0.0902 -0.0248 -0.9425
  228MOL0     C31364   8.287   4.428   5.349  0.2368  0.1555  0.1267
  228MOL0     C31365   8.427   4.423   5.303  0.0282  0.1458  0.0735
  228MOL0     C31366   8.516   4.481   5.413  0.2301 -0.7174 -0.0361
  228MOL0     C31367   8.666   4.469   5.382  0.2631  0.5044 -0.0691
  228MOL0     C31368   8.716   4.564   5.273  0.7979  0.5545  0.1744
  228MOL0     C31369   8.681   4.711   5.303  0.1954  0.5869 -0.0803
  228MOL0     C31370   8.773   4.793   5.202  0.1949  0.0356 -0.1563
  228MOL0    Cl31371   8.714   4.967   5.191  0.2779  0.1904  0.2222
  228MOL0     C31372   8.037   4.287   5.017 -0.0706  0.0841 -0.5525
  228MOL0     C31373   7.937   4.226   4.936  0.2890 -0.0141 -0.0229
  228MOL0     O31374   7.643   4.187   4.942 -0.0106 -0.1240 -0.0532
  228MOL0     C31375   7.599   3.862   4.818  0.2584 -0.2389 -0.6807
  228MOL0     C31376   7.505   3.775   4.771  0.2486  0.5718 -0.1058
  228MOL0     N31377   7.498   3.419   4.340 -0.4124  0.2009  0.0323
  228MOL0     N31378   7.498   3.288   4.325  0.1944  0.0712 -0.1214
  228MOL0     C31379   6.446   2.770   4.632  0.5698 -1.0164  0.1846
  228MOL0     C31380   6.322   2.811   4.599  0.4975 -0.3810  0.5489
  228MOL0     C31381   5.966   3.090   4.638 -1.1581  0.3340  0.6066
  228MOL0     C31382   5.898   3.043   4.529 -0.6149  0.1772  0.0439
  228MOL0     C31383   5.777   3.092   4.485  0.2320  0.0430  0.3974
  228MOL0     C31384   5.715   3.181   4.573 -0.5699  0.1509 -0.4126
  228MOL0     O31385   5.588   3.234   4.559 -0.7425 -0.3235  0.5780
  228MOL0     C31386   5.525   3.220   4.434 -0.3293  0.6076  0.5517
  228MOL0     C31387   5.391   3.292   4.437  0.3256 -0.0256 -0.2945
  228MOL0     C31388   5.293   3.237   4.541 -0.2433  0.6631 -1.1661
  228MOL0     C31389   5.261   3.336   4.656 -0.3437  0.0225 -0.1901
  228MOL0     C31390   5.371   3.369   4.746  0.0550  0.2416 -0.2579
  228MOL0     C31391   5.469   3.402   4.811 -0.4661  0.4947 -0.0013
  228MOL0     C31392   5.783   3.227   4.681 -1.1470 -0.3754  0.1796
  228MOL0     C31393   5.905   3.190   4.713 -0.1417 -0.1627 -0.4330
  228MOL0     C31394   5.983   3.270   4.813 -0.1667 -0.0654  0.0587
  228MOL0     H31395   6.380   3.142   4.597 -0.0455 -0.4027 -3.4443
  228MOL0     H31396   6.618   3.061   4.598  1.2995 -0.8022 -0.9005
  228MOL0     H31397   6.756   2.744   4.818  0.2062 -1.1255 -2.0685
  228MOL0     H31398   6.683   2.900   4.836  0.9482 -1.9319  2.3771
  228MOL0     H31399   6.849   2.972   4.641 -0.6363  0.3111  0.3134
  228MOL0     H31400   6.898   2.985   4.804 -0.4319 -0.1176 -0.1874
  228MOL0     H31401   7.059   2.787   4.793 -0.0734 -0.2058  0.4002
  228MOL0     H31402   6.995   2.761   4.624  0.2420  0.9791 -1.6266
  228MOL0     H31403   7.147   3.017   4.698 -1.6562  0.4887  1.8223
  228MOL0     H31404   7.214   2.862   4.665 -0.1996 -1.5841 -1.4410
  228MOL0     H31405   7.023   3.025   4.489  0.6287  1.0282  0.0604
  228MOL0     H31406   7.096   2.867   4.443  1.5383 -1.8483  2.0905
  228MOL0     H31407   7.212   3.140   4.517 -0.3796  0.4707  0.2175
  228MOL0     H31408   7.321   3.009   4.465  0.4510  1.8087  0.0548
  228MOL0     H31409   7.112   3.160   4.297  0.0091  0.2304  0.1509
  228MOL0     H31410   7.175   2.996   4.254  1.2350 -0.4225  1.1466
  228MOL0     H31411   7.397   3.061   4.242  2.6603  3.3327 -1.8580
  228MOL0     H31412   7.296   3.144   4.137  0.8979  1.6712  0.2102
  228MOL0     H31413   7.191   3.401   4.235  0.0308 -2.9106  1.2358
  228MOL0     H31414   7.261   3.636   4.226 -1.6839  0.8183  1.1951
  228MOL0     H31415   7.441   3.679   4.224  0.5726  0.2042  1.4538
  228MOL0     H31416   7.406   3.689   4.469 -0.1517 -1.0017 -0.8364
  228MOL0     H31417   7.334   3.829   4.373  0.0813  0.3379 -1.7157
  228MOL0     H31418   7.112   3.702   4.414 -0.5589 -0.9891  1.3289
  228MOL0     H31419   7.209   3.579   4.509 -1.7447 -0.4833  0.8733
  228MOL0     H31420   7.178   3.868   4.560 -0.3088 -0.0281 -0.9031
  228MOL0     H31421   7.094   3.741   4.647  1.4798  0.3296  2.1128
  228MOL0     H31422   7.261   4.003   4.706 -0.7190  1.6292  0.0505
  228MOL0     H31423   7.515   4.243   4.709  3.7071 -1.6926  2.2702
  228MOL0     H31424   7.412   4.249   4.859 -0.5820 -2.4793  1.6574
  228MOL0     H31425   7.337   4.216   4.702 -0.9174  0.9029  2.9305
  228MOL0     H31426   7.960   3.906   5.064  1.4437  0.1996  0.1324
  228MOL0     H31427   8.140   3.998   5.176  0.8817 -0.5645 -1.6246
  228MOL0     H31428   8.222   4.448   5.156  2.9574  3.1066  2.1480
  228MOL0     H31429   8.094   4.408   5.272 -1.0825 -3.6886 -1.2663
  228MOL0     H31430   8.265   4.529   5.384  3.0008  0.5476  0.9369
  228MOL0     H31431   8.293   4.355   5.430  0.6228 -0.0587 -0.0892
  228MOL0     H31432   8.445   4.485   5.214  0.7135  1.4475  1.0996
  228MOL0     H31433   8.443   4.321   5.266  1.7282  0.7585 -0.9900
  228MOL0     H31434   8.500   4.409   5.494  0.8119 -3.1249 -1.9474
  228MOL0     H31435   8.477   4.581   5.435  2.0255 -0.2476  1.2545
  228MOL0     H31436   8.718   4.496   5.475 -2.3187  0.4918  1.4703
  228MOL0     H31437   8.692   4.365   5.359 -0.9477 -0.1699  1.3914
  228MOL0     H31438   8.667   4.527   5.182  0.8098 -0.8035  0.6908
  228MOL0     H31439   8.823   4.549   5.255  0.4293 -2.2058 -0.2806
  228MOL0     H31440   8.699   4.738   5.407  1.7437  0.2607 -0.2420
  228MOL0     H31441   8.579   4.731   5.268 -0.3800 -1.1907  0.4739
  228MOL0     H31442   8.766   4.748   5.103  0.9633 -0.1649 -0.1188
  228MOL0     H31443   8.871   4.781   5.249  0.0026 -0.5709  0.1103
  228MOL0     H31444   8.062   4.391   4.998  1.4688 -0.3224 -0.8552
  228MOL0     H31445   7.889   4.294   4.866 -0.5271  0.3897  0.9105
  228MOL0     H31446   7.695   3.820   4.847  0.3883  2.8335  4.7993
  228MOL0     H31447   7.524   3.668   4.777  0.1749  0.6205  3.4681
  228MOL0     H31448   6.465   2.665   4.651 -1.2116 -1.2027  1.1465
  228MOL0     H31449   6.236   2.745   4.608  0.0842  0.3007  1.8220
  228MOL0     H31450   5.952   2.966   4.475  0.7175 -0.1770  1.7901
  228MOL0     H31451   5.731   3.045   4.398  0.5277 -2.0450  1.2994
  228MOL0     H31452   5.601   3.273   4.377  0.1401 -0.1783  0.4243
  228MOL0     H31453   5.519   3.116   4.401  2.7550  0.2114  0.9951
  228MOL0     H31454   5.339   3.294   4.341 -0.7102 -1.9035  0.1905
  228MOL0     H31455   5.414   3.395   4.468  0.2972  0.0878 -0.6514
  228MOL0     H31456   5.200   3.203   4.495  1.0387 -1.2539 -2.5241
  228MOL0     H31457   5.338   3.150   4.590 -1.8345  0.9195  0.8878
  228MOL0     H31458   5.188   3.280   4.715  0.7118 -1.2927 -0.0921
  228MOL0     H31459   5.224   3.431   4.616  3.2941  1.1006 -1.3914
  228MOL0     H31460   5.555   3.432   4.865 -0.2589  0.7668 -0.4732
  228MOL0     H31461   5.737   3.315   4.725 -2.0357  0.3358 -2.0189
  228MOL0     H31462   5.974   3.218   4.909  1.8647  0.5673  0.6530
  228MOL0     H31463   6.089   3.281   4.789 -0.5869  1.8621 -1.1423
  228MOL0     H31464   5.941   3.369   4.836  2.3501  1.5943 -2.0130
  229MOL0     O31465   6.658   1.138  10.643 -0.6866  0.0927 -0.5568
  229MOL0     C31466   6.588   1.218  10.699 -0.4707 -0.2047 -0.3883
  229MOL0     O31467   6.630   1.313  10.788 -0.1342  0.0689 -0.1786
  229MOL0     C31468   6.763   1.313  10.838  0.0821 -0.4457 -0.0470
  229MOL0     C31469   6.887   1.256  10.777  0.6351  0.1000  0.4048
  229MOL0     C31470   7.013   1.257  10.838 -1.2441  0.0531  0.2710
  229MOL0     C31471   7.034   1.336  10.952  0.6153  0.0759  0.2517
  229MOL0     O31472   7.154   1.364  11.012 -0.1695 -0.0596 -0.9137
  229MOL0     C31473   7.279   1.309  10.977  0.2921 -0.3609  0.2102
  229MOL0     C31474   7.386   1.339  11.076 -0.5334  0.2326  0.1983
  229MOL0     C31475   7.524   1.291  11.027  0.6914  0.2043  0.3574
  229MOL0     C31476   7.635   1.305  11.121 -0.1575 -0.5060 -0.8662
  229MOL0     C31477   7.756   1.253  11.058 -0.1411  0.1997  0.3602
  229MOL0     C31478   7.880   1.287  11.141  0.0968  0.0472  0.1269
  229MOL0     C31479   8.000   1.202  11.107  0.4297 -0.8277  0.4822
  229MOL0     C31480   8.056   1.208  10.960  0.1249  0.2405 -0.0796
  229MOL0     N31481   8.188   1.147  10.973  0.1749  0.1015  0.1408
  229MOL0     C31482   8.310   1.206  10.983 -0.4749 -0.2803  0.2894
  229MOL0     C31483   8.400   1.109  11.005 -0.6487  0.2195  0.5709
  229MOL0     C31484   8.545   1.137  11.034 -0.5265 -0.4629  0.0524
  229MOL0     C31485   8.595   1.081  11.166  0.2518  0.3705  0.4030
  229MOL0     C31486   8.740   1.128  11.195  0.0240 -0.5015  0.8885
  229MOL0     C31487   8.774   1.106  11.340 -0.3436 -0.3174 -0.4075
  229MOL0     O31488   8.905   1.148  11.374 -0.1655 -0.0007  0.4811
  229MOL0     C31489   9.017   1.065  11.351  0.3433  0.6335  0.2548
  229MOL0     C31490   9.010   0.931  11.319  0.0665 -0.5225  1.5092
  229MOL0     C31491   9.130   0.859  11.294  0.5970  0.7312  0.3546
  229MOL0     C31492   9.115   0.714  11.245  0.0628 -0.6017 -0.1887
  229MOL0     C31493   9.253   0.921  11.321  0.3450 -0.2162  0.4090
  229MOL0     C31494   9.383   0.846  11.304  0.2577 -0.3047  0.3245
  229MOL0     O31495   9.466   0.882  11.200  0.7134 -0.6752 -0.5410
  229MOL0     C31496   9.579   0.812  11.183  0.7064 -0.3488  0.2813
  229MOL0     C31497   9.590   0.711  11.095 -0.8527  0.9577 -0.3539
  229MOL0     C31498   9.711   0.633  11.082 -0.1853  0.0311  0.2041
  229MOL0     C31499   9.824   0.670  11.153  0.0457  0.3235  0.1392
  229MOL0     O31500   9.948   0.618  11.125 -0.3478  0.0341  0.3279
  229MOL0     C31501   9.972   0.488  11.168  0.4752 -0.4392 -0.1703
  229MOL0     C31502  10.124   0.487  11.187 -0.1483  0.5938 -0.5324
  229MOL0     C31503  10.167   0.342  11.207  0.0179 -0.2768  0.1980
  229MOL0     C31504  10.309   0.324  11.264  0.0845 -0.2976 -0.0694
  229MOL0     C31505  10.345   0.170  11.275 -0.1964  0.0609 -0.9306
  229MOL0     C31506  10.496   0.161  11.304 -0.4537 -0.3926  0.0489
  229MOL0     C31507  10.535   0.023  11.358 -0.2038  0.1012 -0.0026
  229MOL0     C31508  10.691  -0.003  11.344 -0.0003 -0.1739 -0.6137
  229MOL0    Cl31509  10.734  -0.177  11.351 -0.0424  0.1690 -0.4281
  229MOL0     C31510   9.808   0.778  11.249  0.1599 -0.4189  0.8140
  229MOL0     C31511   9.690   0.846  11.258 -0.0328 -0.2379  0.4510
  229MOL0     O31512   9.409   0.752  11.377 -0.0526 -0.0857 -0.6632
  229MOL0     C31513   9.261   1.051  11.362  0.1813  0.7547 -1.1337
  229MOL0     C31514   9.144   1.125  11.382 -0.1372 -0.6652 -0.6363
  229MOL0     N31515   8.333   0.990  11.017  0.0014  0.0150 -0.4932
  229MOL0     N31516   8.212   1.010  10.990  0.1217 -0.5494  0.0005
  229MOL0     C31517   6.926   1.404  10.999  0.5141  0.0510 -0.2489
  229MOL0     C31518   6.796   1.394  10.950  0.4409 -0.0533 -0.4685
  229MOL0     C31519   6.442   1.212  10.682  0.4776  1.0798  0.0220
  229MOL0     C31520   6.358   1.295  10.766  0.0896  0.7188 -0.1106
  229MOL0     C31521   6.215   1.299  10.754  0.0043 -0.0156 -0.0389
  229MOL0     C31522   6.158   1.225  10.652 -1.1294  0.5884  0.5173
  229MOL0     O31523   6.025   1.259  10.645 -0.3938 -0.5230  0.3069
  229MOL0     C31524   5.960   1.254  10.524  0.8367 -0.1317 -0.0853
  229MOL0     C31525   5.932   1.399  10.465  0.3500  0.2761 -0.4290
  229MOL0     C31526   5.834   1.490  10.544  0.0290 -0.5010 -0.7943
  229MOL0     C31527   5.696   1.426  10.569 -0.4439  0.2348  0.2316
  229MOL0     C31528   5.633   1.380  10.443  0.1602 -1.0776 -0.3708
  229MOL0     C31529   5.592   1.350  10.333 -0.5043 -0.2385 -0.8578
  229MOL0     C31530   6.236   1.148  10.563 -0.7439 -0.8176 -0.1661
  229MOL0     C31531   6.374   1.139  10.585 -0.1449 -0.8079 -0.6383
  229MOL0     C31532   6.454   1.066  10.477  1.0201 -0.4489 -1.0212
  229MOL0     H31533   6.878   1.202  10.683  0.4306  0.8036  0.0136
  229MOL0     H31534   7.100   1.214  10.789 -1.1744 -0.7611  1.0739
  229MOL0     H31535   7.305   1.349  10.879 -1.3847 -0.9911 -0.5348
  229MOL0     H31536   7.274   1.200  10.962 -0.8411 -0.1432 -1.2975
  229MOL0     H31537   7.387   1.444  11.105  3.1771  0.4793 -0.3414
  229MOL0     H31538   7.369   1.277  11.165 -0.4011 -2.9539 -1.8294
  229MOL0     H31539   7.502   1.185  11.008  0.9084  0.4099 -1.2006
  229MOL0     H31540   7.534   1.342  10.931 -2.6803 -0.2454 -0.3775
  229MOL0     H31541   7.658   1.409  11.142  0.9038 -1.1124  1.2595
  229MOL0     H31542   7.616   1.263  11.221 -3.0568  0.9779 -0.6710
  229MOL0     H31543   7.767   1.310  10.965  0.1418 -0.2497  0.1173
  229MOL0     H31544   7.735   1.148  11.037  0.9020 -0.1023  0.7535
  229MOL0     H31545   7.915   1.391  11.132  0.2562  0.0594  0.8102
  229MOL0     H31546   7.861   1.284  11.248  2.3995  2.4748  0.7221
  229MOL0     H31547   7.985   1.097  11.133 -0.1478 -0.4719  1.6624
  229MOL0     H31548   8.070   1.246  11.179 -1.5481  2.5643  0.5618
  229MOL0     H31549   7.992   1.140  10.902  0.6871 -1.3310  1.0626
  229MOL0     H31550   8.057   1.305  10.910 -0.0595  0.1047 -0.3488
  229MOL0     H31551   8.340   1.310  10.972  1.9094 -1.0568 -1.3321
  229MOL0     H31552   8.561   1.245  11.034  0.2134 -0.5684 -0.0152
  229MOL0     H31553   8.603   1.101  10.949 -0.1912  1.5380 -0.6082
  229MOL0     H31554   8.538   1.127  11.247  0.1677  0.3553  0.3537
  229MOL0     H31555   8.584   0.972  11.162  1.6894  0.2473 -1.1725
  229MOL0     H31556   8.806   1.069  11.132  1.4359  0.2414  1.6145
  229MOL0     H31557   8.762   1.232  11.166  3.8692 -0.9661  1.6450
  229MOL0     H31558   8.704   1.165  11.400 -1.3465 -2.5222  0.7331
  229MOL0     H31559   8.755   1.001  11.363 -1.3413  0.0052  0.2699
  229MOL0     H31560   8.916   0.881  11.297 -0.0491  0.4346 -0.4292
  229MOL0     H31561   9.056   0.656  11.317 -1.9941  2.8669  1.1610
  229MOL0     H31562   9.212   0.663  11.236  0.7647  0.7587 -0.6248
  229MOL0     H31563   9.053   0.712  11.155 -0.3899  0.5941  0.0813
  229MOL0     H31564   9.514   0.679  11.024  1.1988 -2.1537 -1.3418
  229MOL0     H31565   9.721   0.562  11.001  1.9583 -0.4483  0.8203
  229MOL0     H31566   9.924   0.463  11.263 -0.6651 -0.2539 -0.6861
  229MOL0     H31567   9.916   0.424  11.099 -1.6341  1.8182 -0.6803
  229MOL0     H31568  10.163   0.519  11.090 -3.5421  0.8520 -1.9498
  229MOL0     H31569  10.155   0.551  11.270  0.3255 -0.1784 -0.0957
  229MOL0     H31570  10.154   0.292  11.111  2.3374 -1.2633  0.3450
  229MOL0     H31571  10.101   0.296  11.281 -0.6654  1.8033  0.9530
  229MOL0     H31572  10.297   0.368  11.364  0.1414  1.4688 -0.8015
  229MOL0     H31573  10.390   0.373  11.209  0.5741 -0.9925  0.0085
  229MOL0     H31574  10.284   0.124  11.353 -1.9444  3.5067 -0.0404
  229MOL0     H31575  10.323   0.116  11.182 -1.1257 -1.2593  0.0220
  229MOL0     H31576  10.534   0.232  11.378  1.6254 -3.6761  2.3874
  229MOL0     H31577  10.546   0.183  11.209 -2.2969  1.2606 -0.6090
  229MOL0     H31578  10.479  -0.048  11.296 -1.6638  2.0397 -0.9870
  229MOL0     H31579  10.505   0.006  11.462 -2.4230 -1.8196 -0.8591
  229MOL0     H31580  10.746   0.059  11.415 -1.7990 -0.5377  1.1700
  229MOL0     H31581  10.724   0.029  11.244  0.2294  1.6875  0.0126
  229MOL0     H31582   9.890   0.819  11.306 -0.2110 -1.3907  2.0903
  229MOL0     H31583   9.689   0.936  11.319 -0.1437 -0.2989  0.5389
  229MOL0     H31584   9.346   1.115  11.381  0.7712  0.3744 -2.4076
  229MOL0     H31585   9.165   1.230  11.399 -2.1051 -0.2868 -0.3438
  229MOL0     H31586   6.942   1.469  11.085  0.3443 -0.8350  0.4660
  229MOL0     H31587   6.721   1.439  11.015  4.2749  3.7942  1.7570
  229MOL0     H31588   6.393   1.367  10.840 -0.0607  0.4474  0.2275
  229MOL0     H31589   6.151   1.373  10.803  0.2904  0.4300 -0.3343
  229MOL0     H31590   6.007   1.188  10.450 -0.4178  0.5054 -1.5067
  229MOL0     H31591   5.859   1.211  10.530  0.1645  1.2926 -0.5369
  229MOL0     H31592   5.903   1.380  10.361  1.3684  1.2620 -0.9181
  229MOL0     H31593   6.028   1.451  10.464 -0.0527  1.2942 -4.4307
  229MOL0     H31594   5.880   1.515  10.639  0.7016  3.4886 -1.9969
  229MOL0     H31595   5.814   1.580  10.486  0.7441 -0.1028 -0.4342
  229MOL0     H31596   5.632   1.504  10.613 -1.7081 -0.1366 -0.8668
  229MOL0     H31597   5.704   1.343  10.639  0.9368 -1.5131 -1.8792
  229MOL0     H31598   5.534   1.312  10.251  0.9052 -2.4470 -0.9353
  229MOL0     H31599   6.201   1.096  10.474  1.2725 -0.6940 -1.1020
  229MOL0     H31600   6.380   1.015  10.414 -0.3653  1.3003 -0.9006
  229MOL0     H31601   6.521   1.130  10.419  0.4866  0.5300 -0.5838
  229MOL0     H31602   6.516   0.993  10.529 -1.9793 -1.9437  0.7425
  230MOL0     O31603  10.563  10.910   3.500  0.2659 -0.1526  0.1911
  230MOL0     C31604  10.611  10.884   3.387 -0.4473 -1.4600 -0.0179
  230MOL0     O31605  10.740  10.899   3.350  0.8683 -0.4250 -0.0480
  230MOL0     C31606  10.822  10.941   3.447 -0.1031 -0.1351 -0.1623
  230MOL0     C31607  10.946  10.871   3.455  0.0982  0.0537 -0.0323
  230MOL0     C31608  11.048  10.908   3.550  0.4986  0.2066  0.4615
  230MOL0     C31609  11.026  11.013   3.644 -0.3270 -0.2191 -0.1357
  230MOL0     O31610  11.135  11.025   3.733  0.6107 -0.3033  0.7620
  230MOL0     C31611  11.131  11.119   3.837  0.0270 -0.4779  0.7723
  230MOL0     C31612  11.180  11.261   3.780  0.1864 -0.3803  0.1056
  230MOL0     C31613  11.329  11.277   3.724 -0.5598 -0.9018 -0.4642
  230MOL0     C31614  11.357  11.222   3.580 -0.3677 -0.4188 -0.4740
  230MOL0     C31615  11.510  11.208   3.572 -0.1308  0.3760  1.2295
  230MOL0     C31616  11.558  11.171   3.430 -0.0791  0.4295 -0.3370
  230MOL0     C31617  11.705  11.200   3.413 -0.2307 -0.1902 -0.7593
  230MOL0     C31618  11.802  11.108   3.487  0.3421  0.2081  0.1813
  230MOL0     N31619  11.941  11.149   3.494  0.0905 -0.1693 -1.2747
  230MOL0     C31620  11.978  11.257   3.573  0.2600  0.1259 -0.7471
  230MOL0     C31621  12.114  11.262   3.564  0.2068 -0.0940 -0.2744
  230MOL0     C31622  12.223  11.356   3.622 -0.3533 -0.3502  0.6754
  230MOL0     C31623  12.336  11.274   3.688 -0.4730  0.2805  0.6566
  230MOL0     C31624  12.405  11.367   3.778 -0.6700 -0.8994  0.0850
  230MOL0     C31625  12.500  11.295   3.869  0.8556  0.9580 -0.2852
  230MOL0     O31626  12.618  11.258   3.800 -0.6712  0.3498  0.9436
  230MOL0     C31627  12.730  11.230   3.872 -0.2452 -0.0746  0.6432
  230MOL0     C31628  12.733  11.188   4.007  0.5390 -0.1613  0.0872
  230MOL0     C31629  12.852  11.153   4.071  0.2057 -0.3229 -0.5696
  230MOL0     C31630  12.842  11.119   4.221 -0.4098 -0.0928  0.1628
  230MOL0     C31631  12.971  11.149   3.992  0.7296 -0.3831 -0.8117
  230MOL0     C31632  13.102  11.117   4.043 -0.2328  0.2396  0.3364
  230MOL0     O31633  13.122  11.056   4.173 -0.1944  0.4239 -0.1815
  230MOL0     C31634  13.244  11.034   4.238  0.3401  0.1182  0.0199
  230MOL0     C31635  13.223  11.004   4.369  0.1068 -0.4871 -0.4332
  230MOL0     C31636  13.328  10.963   4.454 -0.5950  0.0218 -0.4350
  230MOL0     C31637  13.460  10.956   4.409 -0.0489 -0.0332  0.0823
  230MOL0     O31638  13.566  10.919   4.486 -0.2411  0.0211 -0.0397
  230MOL0     C31639  13.565  10.933   4.631  0.2927  0.0310  0.3983
  230MOL0     C31640  13.703  10.895   4.685 -0.4092  0.6678 -0.0521
  230MOL0     C31641  13.697  10.910   4.847 -0.5167 -0.7295  0.3281
  230MOL0     C31642  13.641  10.789   4.917  1.1101  0.5685  0.5838
  230MOL0     C31643  13.583  10.825   5.055 -0.1971 -0.2915 -0.7106
  230MOL0     C31644  13.456  10.742   5.081  0.4530 -0.1185  0.8128
  230MOL0     C31645  13.399  10.778   5.221 -0.2958 -0.0266 -0.3674
  230MOL0     C31646  13.316  10.673   5.294 -0.8423 -0.3242  0.0520
  230MOL0    Cl31647  13.186  10.612   5.201  0.2748  0.0257 -0.3428
  230MOL0     C31648  13.479  10.995   4.279 -0.3953  0.0102  0.2812
  230MOL0     C31649  13.374  11.029   4.191 -0.1317 -0.9718 -0.1537
  230MOL0     O31650  13.200  11.153   3.969  0.2293 -0.3683 -0.4700
  230MOL0     C31651  12.968  11.181   3.859 -0.2795 -0.1826  0.2959
  230MOL0     C31652  12.849  11.226   3.795  0.1926  0.2552  0.0373
  230MOL0     N31653  12.153  11.154   3.483  0.1714  0.2109 -0.6503
  230MOL0     N31654  12.053  11.089   3.442 -0.1921  0.2421  0.3988
  230MOL0     C31655  10.904  11.079   3.647 -0.3047 -0.7610  1.1509
  230MOL0     C31656  10.808  11.051   3.540  0.5306 -0.1614  0.3597
  230MOL0     C31657  10.512  10.855   3.278 -0.1397 -0.0223  0.1534
  230MOL0     C31658  10.547  10.896   3.148  1.0491  0.4593 -0.3238
  230MOL0     C31659  10.453  10.879   3.046 -0.6329  0.5788  0.3853
  230MOL0     C31660  10.329  10.830   3.057  0.8042 -0.3712 -0.7576
  230MOL0     O31661  10.239  10.818   2.963  0.6292 -0.6568  0.8434
  230MOL0     C31662  10.206  10.944   2.897 -0.2012  0.2395  0.4066
  230MOL0     C31663  10.100  10.915   2.800  0.1155 -0.6546 -0.4328
  230MOL0     C31664   9.969  10.887   2.869 -0.2513  0.8010 -0.2543
  230MOL0     C31665   9.864  10.835   2.773  0.7372 -0.1004  0.1602
  230MOL0     C31666   9.811  10.942   2.686 -0.5180 -0.2766  0.0342
  230MOL0     C31667   9.756  11.034   2.625 -0.5059 -0.3514 -0.2086
  230MOL0     C31668  10.300  10.770   3.179 -0.2371 -0.1459 -0.3089
  230MOL0     C31669  10.393  10.784   3.282  0.2837  0.1375 -1.3613
  230MOL0     C31670  10.364  10.700   3.407  0.1119 -0.4867 -0.0194
  230MOL0     H31671  10.956  10.796   3.377 -2.0508  2.9254 -3.3570
  230MOL0     H31672  11.136  10.844   3.557  1.0855  1.1749  3.9475
  230MOL0     H31673  11.201  11.091   3.916  1.4288 -0.9800 -0.5953
  230MOL0     H31674  11.033  11.127   3.885  0.0117 -0.7150  0.7836
  230MOL0     H31675  11.112  11.298   3.703  3.0198 -1.2673 -3.0818
  230MOL0     H31676  11.167  11.325   3.868 -0.5301 -0.9503  0.4221
  230MOL0     H31677  11.350  11.385   3.719  1.8026 -1.3514 -3.8922
  230MOL0     H31678  11.395  11.238   3.802 -0.2781  1.5459  0.6199
  230MOL0     H31679  11.308  11.125   3.576  1.5395 -1.5501  1.4727
  230MOL0     H31680  11.315  11.282   3.499  2.0426 -1.8226 -2.9522
  230MOL0     H31681  11.540  11.125   3.637  1.6784 -1.5897 -1.8203
  230MOL0     H31682  11.562  11.296   3.611 -0.0547  0.3413  1.2085
  230MOL0     H31683  11.552  11.064   3.409 -0.4520  0.1995  0.8508
  230MOL0     H31684  11.501  11.222   3.352 -3.0886 -2.6940 -0.4180
  230MOL0     H31685  11.722  11.302   3.446 -0.0403 -0.6518  0.6461
  230MOL0     H31686  11.727  11.190   3.306 -1.5696 -2.5025 -0.8977
  230MOL0     H31687  11.774  11.111   3.592  0.3032  0.5021  0.1640
  230MOL0     H31688  11.792  11.005   3.452  0.0870  0.6997 -1.2731
  230MOL0     H31689  11.907  11.318   3.628  1.0720  1.0175 -0.6372
  230MOL0     H31690  12.174  11.421   3.694  0.6968  0.7409  0.4422
  230MOL0     H31691  12.263  11.426   3.548  0.8406 -1.2138  0.4676
  230MOL0     H31692  12.282  11.190   3.733 -0.8063 -0.2701 -0.7086
  230MOL0     H31693  12.403  11.229   3.614 -2.1195 -1.7801  0.3050
  230MOL0     H31694  12.454  11.440   3.713 -0.2852 -1.0309  0.2251
  230MOL0     H31695  12.339  11.427   3.840  1.4294  0.6465  0.9280
  230MOL0     H31696  12.526  11.362   3.951 -0.4141  1.2168 -0.0775
  230MOL0     H31697  12.442  11.217   3.920  3.4070  0.4594  2.1169
  230MOL0     H31698  12.644  11.186   4.068  0.9471 -1.3379  0.6782
  230MOL0     H31699  12.927  11.164   4.273  1.7749 -3.4488 -0.2032
  230MOL0     H31700  12.844  11.010   4.233 -0.5609 -0.0928  0.1907
  230MOL0     H31701  12.749  11.150   4.271 -0.7605 -1.5328  0.4508
  230MOL0     H31702  13.123  11.000   4.410 -0.0903 -0.5522 -0.9037
  230MOL0     H31703  13.307  10.943   4.558  0.4017  0.9405 -0.0367
  230MOL0     H31704  13.541  11.037   4.656 -1.2216 -0.0812 -0.4441
  230MOL0     H31705  13.484  10.874   4.676 -0.6906  0.3015 -0.9427
  230MOL0     H31706  13.726  10.790   4.667  3.1299  0.9245  2.1039
  230MOL0     H31707  13.783  10.948   4.634  1.4414 -0.4604  1.5461
  230MOL0     H31708  13.623  10.989   4.863 -0.8593 -0.8173 -0.7077
  230MOL0     H31709  13.793  10.943   4.888 -1.5626  1.8681  0.9065
  230MOL0     H31710  13.703  10.700   4.933 -0.0060 -0.6551 -1.4657
  230MOL0     H31711  13.556  10.751   4.860  1.5488  0.6160 -0.1127
  230MOL0     H31712  13.667  10.814   5.125 -0.4411 -0.6703 -0.4765
  230MOL0     H31713  13.561  10.932   5.065  2.7825  0.4412 -0.7802
  230MOL0     H31714  13.485  10.638   5.066  0.0902 -0.0872 -0.1650
  230MOL0     H31715  13.373  10.754   5.011  0.9709  1.6514  0.4256
  230MOL0     H31716  13.346  10.874   5.221 -1.1259 -0.4466 -2.2419
  230MOL0     H31717  13.489  10.793   5.281  0.4645  0.2114 -1.5443
  230MOL0     H31718  13.275  10.722   5.383  3.2110  3.6052  0.1668
  230MOL0     H31719  13.392  10.599   5.322 -1.3493 -0.4421  1.1776
  230MOL0     H31720  13.581  10.993   4.240 -1.5839 -1.4858 -3.1621
  230MOL0     H31721  13.401  11.055   4.089  0.8782 -0.4253  0.2395
  230MOL0     H31722  13.058  11.175   3.799  1.3082  1.9079  2.3032
  230MOL0     H31723  12.845  11.239   3.687 -2.0073  3.5096  0.3574
  230MOL0     H31724  10.898  11.164   3.714 -2.3583  0.5583 -0.5539
  230MOL0     H31725  10.717  11.110   3.530 -1.5154 -2.8995  1.6712
  230MOL0     H31726  10.640  10.951   3.140  1.3783  0.0295  0.3730
  230MOL0     H31727  10.488  10.918   2.951  0.9604 -1.1595  0.1760
  230MOL0     H31728  10.179  11.028   2.962  0.9520  2.7146 -2.1123
  230MOL0     H31729  10.297  10.985   2.851  0.6989 -0.1585  1.7460
  230MOL0     H31730  10.136  10.826   2.748 -1.5562  1.0039 -4.9232
  230MOL0     H31731  10.088  10.999   2.731  0.8833 -1.9012 -2.1571
  230MOL0     H31732   9.990  10.806   2.939 -1.3659 -0.4517 -1.3142
  230MOL0     H31733   9.922  10.964   2.931 -3.5000 -3.3851  3.0427
  230MOL0     H31734   9.775  10.816   2.835 -0.1317  4.0043  0.4567
  230MOL0     H31735   9.880  10.739   2.723 -1.9262  0.7516 -2.6444
  230MOL0     H31736   9.709  11.115   2.574  1.3865  1.8808  1.3575
  230MOL0     H31737  10.206  10.719   3.196 -0.8062  0.6075 -1.1264
  230MOL0     H31738  10.453  10.648   3.442 -0.1179 -0.8023  0.0922
  230MOL0     H31739  10.320  10.759   3.489 -1.9359 -3.2076  0.9725
  230MOL0     H31740  10.292  10.623   3.380  0.0152 -0.4625  0.1678
  231MOL0     O31741   4.149   4.424   4.551 -0.2787 -0.0340 -0.4749
  231MOL0     C31742   4.087   4.514   4.507  0.2205 -1.1318  0.2472
  231MOL0     O31743   4.143   4.610   4.423  0.2264 -0.7099  0.4707
  231MOL0     C31744   4.280   4.615   4.423 -0.3254 -0.2539 -0.1709
  231MOL0     C31745   4.348   4.711   4.486 -0.1631  0.4457  0.2687
  231MOL0     C31746   4.493   4.726   4.487  0.3803  0.4756  0.5632
  231MOL0     C31747   4.562   4.607   4.444 -0.2050 -0.6376 -0.1890
  231MOL0     O31748   4.700   4.608   4.455 -0.3617  0.9714 -0.4044
  231MOL0     C31749   4.774   4.495   4.423 -0.8137 -0.2320  0.0895
  231MOL0     C31750   4.910   4.538   4.388  0.4227 -0.3296  0.2644
  231MOL0     C31751   4.995   4.574   4.512 -0.6063 -0.3206  1.1316
  231MOL0     C31752   5.120   4.658   4.486  0.0278 -0.0225  0.7881
  231MOL0     C31753   5.224   4.599   4.399  0.3573  0.0665  0.0802
  231MOL0     C31754   5.306   4.491   4.473  0.0563  0.0085 -0.0933
  231MOL0     C31755   5.398   4.401   4.385  0.5964 -0.6770 -0.0642
  231MOL0     C31756   5.537   4.457   4.341  0.0764 -0.0718  0.0662
  231MOL0     N31757   5.619   4.502   4.459 -0.2025  0.7831  0.4691
  231MOL0     C31758   5.632   4.633   4.478 -0.0075 -0.2683  0.3479
  231MOL0     C31759   5.718   4.638   4.579  0.4405 -1.2597  0.5720
  231MOL0     C31760   5.768   4.763   4.645  0.0078 -0.1696  0.1410
  231MOL0     C31761   5.912   4.768   4.682 -0.2465  0.4236  0.5449
  231MOL0     C31762   5.949   4.878   4.782  0.3506 -0.2995  0.4740
  231MOL0     C31763   6.093   4.879   4.831  0.1610  0.1565  0.1009
  231MOL0     O31764   6.165   4.982   4.756  0.3109  0.1350 -0.3277
  231MOL0     C31765   6.260   5.062   4.819 -0.7894  0.6494  0.5067
  231MOL0     C31766   6.305   5.053   4.951 -0.4232  0.0820  0.6353
  231MOL0     C31767   6.390   5.159   5.005  0.3484  0.0829 -0.0023
  231MOL0     C31768   6.398   5.158   5.156 -0.5338 -0.1971 -1.6812
  231MOL0     C31769   6.443   5.262   4.920  0.2423  0.0746 -1.6962
  231MOL0     C31770   6.539   5.365   4.967  0.0025  0.6444 -0.5088
  231MOL0     O31771   6.593   5.358   5.091 -0.2679 -0.8851 -0.0218
  231MOL0     C31772   6.702   5.433   5.123  0.5296 -0.4455  0.2762
  231MOL0     C31773   6.684   5.552   5.192  0.6327 -0.0241  0.6179
  231MOL0     C31774   6.794   5.635   5.236  0.3275  1.4684  0.4189
  231MOL0     C31775   6.927   5.588   5.210  0.3309  0.0127 -0.5117
  231MOL0     O31776   7.027   5.675   5.243 -0.2560 -0.2839 -0.2638
  231MOL0     C31777   7.163   5.622   5.260  0.9976 -0.0861  0.5602
  231MOL0     C31778   7.266   5.724   5.224 -0.2129  0.2323 -0.4949
  231MOL0     C31779   7.414   5.661   5.240  0.1091  0.1334 -0.7614
  231MOL0     C31780   7.508   5.774   5.286  0.7231  0.3250 -0.3569
  231MOL0     C31781   7.547   5.867   5.178 -0.2673  0.1249  0.4070
  231MOL0     C31782   7.651   5.974   5.223 -0.2694  0.1070  0.5598
  231MOL0     C31783   7.712   6.042   5.105 -0.0268  0.1932 -0.4153
  231MOL0     C31784   7.846   6.115   5.131 -1.1934 -0.5246  0.3434
  231MOL0    Cl31785   7.973   6.003   5.221 -0.2125  0.3370 -0.1280
  231MOL0     C31786   6.940   5.462   5.148  0.0015  0.0051 -0.0417
  231MOL0     C31787   6.831   5.391   5.096 -0.5906 -0.8036  0.9917
  231MOL0     O31788   6.568   5.452   4.886 -0.6173 -0.3721  0.6355
  231MOL0     C31789   6.402   5.263   4.788  0.3353 -0.0368  0.5647
  231MOL0     C31790   6.308   5.168   4.746  0.0562 -0.3033 -0.0601
  231MOL0     N31791   5.747   4.517   4.631 -0.0053  0.4307  0.3623
  231MOL0     N31792   5.677   4.433   4.555 -0.4162  0.3842 -0.4369
  231MOL0     C31793   4.484   4.505   4.388 -0.2635 -0.1210  0.3740
  231MOL0     C31794   4.347   4.507   4.364  0.1042  0.0627 -0.2986
  231MOL0     C31795   3.937   4.513   4.536  0.2878 -0.9586 -0.0901
  231MOL0     C31796   3.857   4.582   4.441  0.4594  0.1302 -0.5365
  231MOL0     C31797   3.722   4.598   4.464  0.5201  0.9763 -0.3803
  231MOL0     C31798   3.655   4.533   4.569 -0.4405 -0.3795 -0.2955
  231MOL0     O31799   3.516   4.534   4.583  0.1056 -0.0581  0.1770
  231MOL0     C31800   3.431   4.645   4.540  0.1197 -0.1250  0.4299
  231MOL0     C31801   3.319   4.677   4.641  0.0449 -0.6593  0.1690
  231MOL0     C31802   3.223   4.565   4.672 -0.0899  0.1792  0.1279
  231MOL0     C31803   3.269   4.439   4.749 -0.7664  0.2375 -0.5465
  231MOL0     C31804   3.285   4.446   4.895 -0.0798 -0.5036 -0.2225
  231MOL0     C31805   3.284   4.457   5.012 -0.0422  0.3212 -0.4990
  231MOL0     C31806   3.722   4.449   4.644  0.0953  0.0980  0.4413
  231MOL0     C31807   3.865   4.436   4.632 -0.9173 -0.7493  0.3115
  231MOL0     C31808   3.924   4.339   4.735 -0.0977 -0.4067  0.5379
  231MOL0     H31809   4.299   4.788   4.545  1.5214  1.2658  0.6555
  231MOL0     H31810   4.536   4.814   4.532  0.5501  0.9021 -0.3970
  231MOL0     H31811   4.732   4.449   4.334 -5.3721  2.4126  0.5632
  231MOL0     H31812   4.771   4.424   4.507 -0.7955  0.1401  0.4119
  231MOL0     H31813   4.958   4.465   4.322 -0.1992 -0.3196 -0.2122
  231MOL0     H31814   4.895   4.634   4.338 -0.9395 -0.3346  0.6213
  231MOL0     H31815   4.930   4.622   4.585  2.9677  1.2748  3.5898
  231MOL0     H31816   5.031   4.475   4.542  2.0476  0.4388  0.7154
  231MOL0     H31817   5.090   4.748   4.431 -3.5203 -2.4490 -1.7728
  231MOL0     H31818   5.159   4.680   4.585  0.6445 -0.8260  0.7279
  231MOL0     H31819   5.288   4.677   4.357 -1.4076  1.3411 -0.3480
  231MOL0     H31820   5.174   4.565   4.308 -2.1652  2.5745  0.4092
  231MOL0     H31821   5.381   4.535   4.538  1.2849 -0.5606 -1.0814
  231MOL0     H31822   5.236   4.421   4.520  0.3750 -0.2121  0.0515
  231MOL0     H31823   5.342   4.370   4.297 -0.8313  1.8286 -0.1051
  231MOL0     H31824   5.412   4.314   4.450 -0.4642 -0.5926  0.2958
  231MOL0     H31825   5.588   4.373   4.294  0.9695  1.6398 -2.1788
  231MOL0     H31826   5.536   4.535   4.265  2.2496 -0.4521 -0.4163
  231MOL0     H31827   5.587   4.720   4.431 -3.7975 -1.1334  1.9852
  231MOL0     H31828   5.717   4.764   4.742 -1.0525 -2.5712 -0.3333
  231MOL0     H31829   5.745   4.849   4.581 -0.4657  1.0060  1.7991
  231MOL0     H31830   5.944   4.672   4.726  1.5188  0.3782 -0.7187
  231MOL0     H31831   5.974   4.780   4.592  0.2915  0.1199  0.8644
  231MOL0     H31832   5.940   4.979   4.740 -0.4942 -0.1992  0.8814
  231MOL0     H31833   5.889   4.864   4.872 -0.1741  0.9649  0.3480
  231MOL0     H31834   6.077   4.914   4.933 -2.1349 -1.1494  0.2631
  231MOL0     H31835   6.144   4.782   4.835  2.3582  1.2323 -0.3174
  231MOL0     H31836   6.275   4.971   5.016 -6.6260  0.9097 -0.6068
  231MOL0     H31837   6.493   5.113   5.187  0.2436  1.4183 -1.6309
  231MOL0     H31838   6.312   5.101   5.192 -0.2890 -0.6439 -1.7903
  231MOL0     H31839   6.393   5.257   5.202 -0.0158 -1.0633  0.3308
  231MOL0     H31840   6.588   5.592   5.224  1.5042  1.4076  1.5272
  231MOL0     H31841   6.755   5.726   5.282 -1.8154  1.1714 -0.6833
  231MOL0     H31842   7.175   5.600   5.366 -0.9165  1.6949  1.2126
  231MOL0     H31843   7.181   5.536   5.194  0.0449  1.4684 -1.8798
  231MOL0     H31844   7.251   5.747   5.118 -0.2525  1.0518 -0.3189
  231MOL0     H31845   7.271   5.813   5.287  2.3522  1.4917 -2.2815
  231MOL0     H31846   7.445   5.606   5.151 -2.2007  0.3272 -1.7576
  231MOL0     H31847   7.397   5.578   5.309 -0.8802 -0.7362 -2.0255
  231MOL0     H31848   7.596   5.736   5.339 -0.2488  0.5628  1.5332
  231MOL0     H31849   7.469   5.832   5.370  1.6298 -0.0858  0.3736
  231MOL0     H31850   7.593   5.813   5.096 -0.1948  0.1518  0.4301
  231MOL0     H31851   7.458   5.923   5.146 -0.2136 -0.4871 -0.8613
  231MOL0     H31852   7.728   5.933   5.289  1.4379  2.2314  0.0070
  231MOL0     H31853   7.605   6.058   5.274  0.9079  0.5124  0.9790
  231MOL0     H31854   7.634   6.112   5.072  0.6944  0.3714 -1.8329
  231MOL0     H31855   7.719   5.972   5.021 -1.3240 -2.9157  1.9101
  231MOL0     H31856   7.833   6.207   5.188 -0.6848  0.2808 -0.8090
  231MOL0     H31857   7.884   6.146   5.033 -1.9346  1.2100  0.5704
  231MOL0     H31858   7.034   5.411   5.128 -0.0666  0.3760 -1.4709
  231MOL0     H31859   6.846   5.290   5.060 -0.5091 -0.4299 -0.0758
  231MOL0     H31860   6.444   5.334   4.718  0.1752  0.5181  1.0244
  231MOL0     H31861   6.266   5.172   4.646  2.8514  0.5883 -1.3218
  231MOL0     H31862   4.528   4.414   4.349  0.7752  0.9395 -1.0111
  231MOL0     H31863   4.298   4.420   4.322 -3.9860  0.8464  2.2043
  231MOL0     H31864   3.904   4.636   4.360  3.1023 -1.7490 -0.4105
  231MOL0     H31865   3.668   4.666   4.400 -2.6041 -2.3276 -1.5997
  231MOL0     H31866   3.484   4.738   4.520  0.8545 -0.6367 -0.0417
  231MOL0     H31867   3.382   4.618   4.446 -0.1800  2.3097 -0.1853
  231MOL0     H31868   3.271   4.770   4.611 -0.9197 -0.2023  2.8614
  231MOL0     H31869   3.376   4.701   4.731  0.2566  1.9762 -0.5840
  231MOL0     H31870   3.141   4.603   4.733  0.1287 -0.1042  0.5990
  231MOL0     H31871   3.184   4.538   4.573  1.6649  3.2777 -1.5516
  231MOL0     H31872   3.364   4.401   4.710  0.5646  1.1850  1.5775
  231MOL0     H31873   3.193   4.364   4.726  0.1325 -1.3874  1.5279
  231MOL0     H31874   3.295   4.455   5.119  1.3690 -3.1732 -0.5780
  231MOL0     H31875   3.683   4.395   4.730  0.9917  2.0004  2.1345
  231MOL0     H31876   4.031   4.358   4.744 -0.3937  1.9925 -0.3764
  231MOL0     H31877   3.883   4.350   4.836  0.2770  0.3177  0.6131
  231MOL0     H31878   3.904   4.237   4.699 -1.3089 -0.9732  2.6368
  232MOL0     O31879   6.861   9.208   1.051  0.2373  0.8785  0.1430
  232MOL0     C31880   6.818   9.159   1.157 -0.6758 -0.2710  0.2227
  232MOL0     O31881   6.900   9.137   1.268  0.2469  0.4231  0.2399
  232MOL0     C31882   7.034   9.149   1.247 -0.4144  0.5033 -0.1739
  232MOL0     C31883   7.099   9.257   1.304 -0.7860  0.7070  0.4335
  232MOL0     C31884   7.242   9.277   1.301  0.0607  1.0523 -0.3060
  232MOL0     C31885   7.316   9.185   1.226  1.0960  0.6505  0.7485
  232MOL0     O31886   7.449   9.191   1.202  0.2750  0.6450 -0.0442
  232MOL0     C31887   7.528   9.288   1.265 -0.3327  0.3032 -0.1702
  232MOL0     C31888   7.674   9.260   1.233  0.1815 -0.1652  0.0748
  232MOL0     C31889   7.770   9.361   1.292  0.5029 -0.6032 -0.3926
  232MOL0     C31890   7.895   9.376   1.216 -1.0555  0.0472 -0.2729
  232MOL0     C31891   7.997   9.459   1.286 -0.8511  0.0813 -0.5638
  232MOL0     C31892   8.130   9.487   1.205  0.1318  0.5764 -0.9475
  232MOL0     C31893   8.240   9.539   1.296 -0.6760 -0.4992  0.6588
  232MOL0     C31894   8.368   9.569   1.219  0.9098  0.4145  0.1719
  232MOL0     N31895   8.479   9.546   1.308 -0.9270 -0.5135 -0.9331
  232MOL0     C31896   8.503   9.427   1.370 -0.3138  0.2098  0.1918
  232MOL0     C31897   8.632   9.431   1.418 -0.5770  0.5809  0.5270
  232MOL0     C31898   8.702   9.338   1.508  0.5443 -0.2185 -0.1210
  232MOL0     C31899   8.781   9.418   1.619 -1.3057 -0.0126  0.1925
  232MOL0     C31900   8.863   9.326   1.713  1.3126  0.1218  0.1849
  232MOL0     C31901   8.999   9.291   1.653  0.3476 -0.4027 -0.3245
  232MOL0     O31902   9.080   9.234   1.752  0.0205 -0.6459  0.0769
  232MOL0     C31903   9.210   9.221   1.716  0.0876 -0.2732 -0.9380
  232MOL0     C31904   9.260   9.132   1.619  0.9141 -0.9586 -0.3390
  232MOL0     C31905   9.391   9.136   1.580 -0.5355 -0.1742 -0.3362
  232MOL0     C31906   9.429   9.042   1.461 -0.3423 -0.3128 -0.0240
  232MOL0     C31907   9.488   9.211   1.648 -0.8599 -0.1725  0.0893
  232MOL0     C31908   9.630   9.206   1.601 -0.6042  0.2985 -0.6819
  232MOL0     O31909   9.684   9.081   1.600 -0.2147 -0.1782 -0.2728
  232MOL0     C31910   9.817   9.075   1.562 -0.3586  0.3701 -0.1987
  232MOL0     C31911   9.845   9.018   1.438 -0.1076 -0.0052  0.4722
  232MOL0     C31912   9.963   9.031   1.368 -0.3836  0.9913  0.5907
  232MOL0     C31913  10.071   9.095   1.425  0.8281 -0.7394  0.4699
  232MOL0     O31914  10.186   9.125   1.362 -0.3109 -0.2753  0.1688
  232MOL0     C31915  10.227   9.042   1.254 -0.6650 -0.3560 -0.0033
  232MOL0     C31916  10.365   9.070   1.197  1.0178  0.4910 -0.6910
  232MOL0     C31917  10.361   9.192   1.103 -0.3488 -0.6098 -0.5731
  232MOL0     C31918  10.479   9.193   1.010  0.5067  0.2246 -0.3345
  232MOL0     C31919  10.484   9.306   0.909 -0.8049 -0.3526 -0.0638
  232MOL0     C31920  10.627   9.360   0.877  0.4154  0.3342  0.7746
  232MOL0     C31921  10.633   9.451   0.752  0.6913  0.2885 -0.2243
  232MOL0     C31922  10.772   9.486   0.718  0.4244  0.2335 -0.8653
  232MOL0    Cl31923  10.857   9.338   0.655 -0.0274  0.1211 -0.6764
  232MOL0     C31924  10.052   9.148   1.554 -0.6339 -0.3050 -0.2675
  232MOL0     C31925   9.927   9.141   1.620  0.0606  0.1793  0.2310
  232MOL0     O31926   9.693   9.308   1.596  0.5836  0.3100  0.3652
  232MOL0     C31927   9.442   9.300   1.755 -0.1214  0.1851  0.7277
  232MOL0     C31928   9.304   9.305   1.775 -1.3612  0.4342 -1.2753
  232MOL0     N31929   8.685   9.555   1.374 -0.4622  0.1911 -0.3790
  232MOL0     N31930   8.597   9.625   1.314  0.9666  0.1746  0.0381
  232MOL0     C31931   7.250   9.075   1.163  0.5581 -0.2995 -0.3604
  232MOL0     C31932   7.109   9.060   1.177 -0.5508 -0.1992  0.7116
  232MOL0     C31933   6.668   9.144   1.170 -0.0628  0.3798  0.4004
  232MOL0     C31934   6.622   9.094   1.295 -0.0161  0.7302 -0.4901
  232MOL0     C31935   6.489   9.097   1.322  0.2553  0.3612  0.5622
  232MOL0     C31936   6.385   9.137   1.236  0.2702 -0.1494 -0.4104
  232MOL0     O31937   6.256   9.145   1.268 -0.2041  0.5013 -0.4015
  232MOL0     C31938   6.217   9.125   1.403 -0.5090  1.3538 -0.1552
  232MOL0     C31939   6.077   9.174   1.434 -0.3430  0.1653 -0.6488
  232MOL0     C31940   5.966   9.094   1.373 -0.5826  0.2630  0.0452
  232MOL0     C31941   5.834   9.175   1.376 -0.2479  0.0911 -0.8066
  232MOL0     C31942   5.805   9.267   1.268  0.1422 -0.0967  0.2095
  232MOL0     C31943   5.768   9.342   1.176 -0.9969  0.5731 -0.5783
  232MOL0     C31944   6.431   9.182   1.111 -0.1511  0.1511 -0.2276
  232MOL0     C31945   6.566   9.190   1.076  0.3346  0.2281  0.7623
  232MOL0     C31946   6.593   9.255   0.938 -0.2612  0.0906 -0.3736
  232MOL0     H31947   7.044   9.320   1.373 -0.0827  0.5484  1.1533
  232MOL0     H31948   7.286   9.364   1.349  2.3261  0.0970 -0.5467
  232MOL0     H31949   7.526   9.257   1.371  1.6735 -3.0898 -0.9635
  232MOL0     H31950   7.488   9.388   1.250 -0.8546 -0.0053 -0.9141
  232MOL0     H31951   7.694   9.165   1.284 -0.1771  0.4687  1.4149
  232MOL0     H31952   7.692   9.255   1.125  1.4066 -0.1930  0.2622
  232MOL0     H31953   7.719   9.458   1.296  3.4942  1.0838 -0.3582
  232MOL0     H31954   7.793   9.334   1.396  0.0335 -1.4073 -0.4883
  232MOL0     H31955   7.934   9.274   1.218 -2.2865 -0.4687 -1.1732
  232MOL0     H31956   7.886   9.413   1.113  0.1827  0.8683 -0.1064
  232MOL0     H31957   8.017   9.398   1.375 -0.2150  1.3027  0.1445
  232MOL0     H31958   7.946   9.550   1.316 -1.6201 -1.2620  2.6046
  232MOL0     H31959   8.152   9.388   1.164  1.9315 -0.1557  1.5613
  232MOL0     H31960   8.120   9.556   1.121  1.5783  1.5226 -0.3645
  232MOL0     H31961   8.266   9.479   1.383 -1.5136 -0.0525  1.2230
  232MOL0     H31962   8.201   9.628   1.345 -2.5936 -0.5062 -0.7445
  232MOL0     H31963   8.385   9.492   1.143  0.9193 -1.5677  2.1015
  232MOL0     H31964   8.371   9.672   1.182  3.1594  1.0236  1.8094
  232MOL0     H31965   8.439   9.341   1.383  0.3109 -0.1455  1.0089
  232MOL0     H31966   8.776   9.276   1.455  0.0301 -0.9605  0.0132
  232MOL0     H31967   8.623   9.277   1.552  1.3118  0.1326  1.8441
  232MOL0     H31968   8.860   9.470   1.564  0.3079 -2.6040 -0.1167
  232MOL0     H31969   8.711   9.481   1.674 -1.5272  1.0139 -1.2027
  232MOL0     H31970   8.874   9.373   1.811  0.4760  1.1943 -0.2252
  232MOL0     H31971   8.805   9.237   1.740  2.0713 -0.6517 -0.6594
  232MOL0     H31972   8.984   9.231   1.563  1.7807  2.5220 -2.7093
  232MOL0     H31973   9.046   9.381   1.614 -1.2733  1.0718  0.9639
  232MOL0     H31974   9.192   9.061   1.574  4.0094 -1.6136 -4.6208
  232MOL0     H31975   9.455   8.942   1.495  0.5365 -0.2166 -0.3924
  232MOL0     H31976   9.502   9.078   1.389 -0.3027  0.0614  0.1987
  232MOL0     H31977   9.335   9.033   1.406 -0.5465 -0.7593  0.3836
  232MOL0     H31978   9.762   8.973   1.385  0.2363 -2.4051  1.8254
  232MOL0     H31979   9.978   8.986   1.270  0.2880  3.6046 -0.5787
  232MOL0     H31980  10.227   8.939   1.289 -0.6435  0.0328  1.2098
  232MOL0     H31981  10.149   9.047   1.177 -0.8914 -0.9124  0.1893
  232MOL0     H31982  10.438   9.091   1.275  2.1989  0.3711 -1.7343
  232MOL0     H31983  10.399   8.984   1.138 -2.9160 -2.7230  1.2285
  232MOL0     H31984  10.370   9.284   1.160 -1.2792  0.1979 -1.6865
  232MOL0     H31985  10.270   9.190   1.042  0.6658 -2.2555 -2.1328
  232MOL0     H31986  10.480   9.103   0.948  3.7510  0.3967 -0.6671
  232MOL0     H31987  10.564   9.209   1.077 -0.1882  2.2314  0.1398
  232MOL0     H31988  10.438   9.279   0.813 -0.6468  2.8552 -1.1722
  232MOL0     H31989  10.431   9.393   0.949 -2.2535 -0.7679 -0.9883
  232MOL0     H31990  10.683   9.267   0.862 -0.2744  0.0324  0.0092
  232MOL0     H31991  10.674   9.411   0.961 -1.6891  2.3208  0.8203
  232MOL0     H31992  10.570   9.535   0.782 -0.0952 -1.2092  2.6954
  232MOL0     H31993  10.589   9.400   0.665 -1.6059  1.3347  0.2528
  232MOL0     H31994  10.831   9.521   0.803 -1.2881  0.5092  0.2609
  232MOL0     H31995  10.769   9.562   0.640  2.4541 -2.0336 -3.3479
  232MOL0     H31996  10.133   9.209   1.593 -2.3072  2.1660 -0.4580
  232MOL0     H31997   9.907   9.186   1.717 -1.6773  1.1581 -0.5336
  232MOL0     H31998   9.507   9.364   1.814 -1.1113 -1.0513  3.3169
  232MOL0     H31999   9.265   9.367   1.855  0.8431 -2.0717  2.0247
  232MOL0     H32000   7.297   8.995   1.107 -2.5670 -0.7619 -2.6066
  232MOL0     H32001   7.064   8.974   1.127  1.2352 -0.3090 -0.8407
  232MOL0     H32002   6.689   9.051   1.369 -0.7175  0.2874 -0.1043
  232MOL0     H32003   6.454   9.045   1.411 -1.5012  0.3090 -0.1202
  232MOL0     H32004   6.215   9.018   1.428  2.4062  0.2203 -3.8331
  232MOL0     H32005   6.287   9.178   1.467 -0.6687  1.1356  0.2075
  232MOL0     H32006   6.067   9.277   1.401 -0.3189  0.8474  1.3431
  232MOL0     H32007   6.071   9.159   1.542  2.5366  1.8939 -0.1585
  232MOL0     H32008   5.991   9.072   1.269 -0.7148 -0.4049  0.1499
  232MOL0     H32009   5.952   9.003   1.432 -1.8779  0.1597 -0.3968
  232MOL0     H32010   5.830   9.233   1.469 -1.5907  0.4549 -1.0725
  232MOL0     H32011   5.750   9.108   1.397 -0.5958  1.3200  2.2814
  232MOL0     H32012   5.724   9.414   1.110 -1.8160  1.9777  1.4144
  232MOL0     H32013   6.355   9.203   1.035  1.4537  3.7204 -1.0438
  232MOL0     H32014   6.661   9.339   0.953  1.7138 -1.4626 -0.2199
  232MOL0     H32015   6.634   9.186   0.863 -2.4084  1.0319 -2.5819
  232MOL0     H32016   6.501   9.296   0.895 -0.0792 -0.3404 -1.2086
  233MOL0     O32017   9.189   8.703   7.149  0.1662 -0.2735 -0.1563
  233MOL0     C32018   9.149   8.746   7.045  0.7436 -1.3311  0.7491
  233MOL0     O32019   9.220   8.817   6.953  0.5096  0.2091  0.3690
  233MOL0     C32020   9.353   8.809   6.957 -0.4394 -0.7069  0.6709
  233MOL0     C32021   9.426   8.923   6.927  0.2116  0.5282  0.9373
  233MOL0     C32022   9.561   8.923   6.934 -1.0061  0.4022 -0.1696
  233MOL0     C32023   9.638   8.805   6.981 -0.2090  0.0186 -0.0961
  233MOL0     O32024   9.778   8.798   7.014 -0.5043 -0.1317 -0.1419
  233MOL0     C32025   9.866   8.905   6.962  1.1909 -0.0395 -0.3105
  233MOL0     C32026  10.017   8.892   7.005 -0.0818  0.4628 -0.1550
  233MOL0     C32027  10.085   9.022   6.959  0.1489 -0.0115 -0.3530
  233MOL0     C32028  10.235   8.996   6.988  0.0371 -0.9499  0.1140
  233MOL0     C32029  10.309   9.127   6.974  0.6099  0.6442 -0.0925
  233MOL0     C32030  10.352   9.144   6.827 -0.3153  0.2951  0.1427
  233MOL0     C32031  10.318   9.290   6.789 -0.6971 -0.2119  1.0954
  233MOL0     C32032  10.391   9.348   6.670 -0.0946  0.2365 -0.4594
  233MOL0     N32033  10.338   9.486   6.648 -0.4762 -0.1375  0.3684
  233MOL0     C32034  10.370   9.598   6.725 -1.2132  1.0871 -0.0879
  233MOL0     C32035  10.322   9.700   6.649  0.2574 -0.0979 -0.0516
  233MOL0     C32036  10.344   9.844   6.687  0.0014  0.1340  0.0741
  233MOL0     C32037  10.493   9.893   6.681 -0.1672 -1.5202 -1.0856
  233MOL0     C32038  10.495  10.030   6.749 -1.2994 -0.0261 -0.2747
  233MOL0     C32039  10.645  10.083   6.775  0.4464  0.2729  0.4021
  233MOL0     O32040  10.708  10.116   6.648  0.0651  0.0404 -0.9304
  233MOL0     C32041  10.841  10.142   6.640  0.7894 -0.4333 -0.6088
  233MOL0     C32042  10.886  10.188   6.512  0.2893  0.1629 -0.5105
  233MOL0     C32043  11.023  10.209   6.484 -0.7213 -0.6156  0.4285
  233MOL0     C32044  11.060  10.253   6.343 -0.4011  0.0631  0.4143
  233MOL0     C32045  11.122  10.176   6.587 -0.5270  0.1413 -0.1852
  233MOL0     C32046  11.275  10.191   6.583  0.4495 -0.4366  0.6361
  233MOL0     O32047  11.343  10.156   6.695  0.2832 -0.3912  0.6210
  233MOL0     C32048  11.475  10.132   6.675 -0.3861 -0.3686  0.1312
  233MOL0     C32049  11.530  10.042   6.584 -0.6979 -0.1098  0.5596
  233MOL0     C32050  11.669  10.011   6.567 -0.1228  0.0345  1.1784
  233MOL0     C32051  11.762  10.078   6.646 -0.7508  0.2997 -0.4830
  233MOL0     O32052  11.893  10.048   6.620  0.4286  0.2539  0.2838
  233MOL0     C32053  11.987  10.127   6.698 -1.1190  0.3148  0.3944
  233MOL0     C32054  11.993  10.061   6.835 -0.7962  0.9393  0.0865
  233MOL0     C32055  12.115  10.110   6.918  0.7560 -0.6662  0.7761
  233MOL0     C32056  12.122  10.027   7.046 -0.0057  0.6591  0.0239
  233MOL0     C32057  12.188  10.095   7.164 -0.1677  0.2194  0.4155
  233MOL0     C32058  12.229   9.987   7.261 -0.0825  0.2280 -0.4268
  233MOL0     C32059  12.279  10.060   7.391 -0.0241 -0.3273  0.7108
  233MOL0     C32060  12.315   9.956   7.499  0.6691  0.2834  0.0985
  233MOL0    Cl32061  12.460   9.862   7.428  0.1989 -0.4369  0.0915
  233MOL0     C32062  11.707  10.163   6.745 -0.4920  0.6287  0.3591
  233MOL0     C32063  11.567  10.186   6.763 -0.4643 -0.5143 -0.3580
  233MOL0     O32064  11.324  10.253   6.486 -0.6091 -0.2856 -0.3216
  233MOL0     C32065  11.067  10.146   6.710  0.3884 -0.3955 -0.3161
  233MOL0     C32066  10.932  10.123   6.742 -0.3749 -0.2420  0.0710
  233MOL0     N32067  10.265   9.653   6.541  0.4924 -0.4293  0.0458
  233MOL0     N32068  10.273   9.525   6.537 -0.2406  0.1747 -0.5419
  233MOL0     C32069   9.565   8.691   7.005  0.6832 -0.0066 -0.2957
  233MOL0     C32070   9.426   8.693   6.989  0.6801  0.1348  0.0453
  233MOL0     C32071   9.005   8.719   7.011  0.1352 -0.3099  0.0700
  233MOL0     C32072   8.940   8.816   6.935 -0.4952 -0.6947 -0.9001
  233MOL0     C32073   8.814   8.794   6.885 -0.3784 -0.6085  0.2433
  233MOL0     C32074   8.744   8.676   6.902 -0.0404 -0.5491  0.0614
  233MOL0     O32075   8.624   8.664   6.832  0.6025 -0.3622 -0.7479
  233MOL0     C32076   8.526   8.581   6.899  0.0283 -0.1498 -0.4783
  233MOL0     C32077   8.384   8.632   6.876  0.5510  0.1292 -1.3851
  233MOL0     C32078   8.328   8.612   6.738 -1.2726 -0.7532 -0.0756
  233MOL0     C32079   8.335   8.468   6.699 -0.9500  0.2702  0.8646
  233MOL0     C32080   8.248   8.456   6.576 -0.5940 -0.5613 -1.4445
  233MOL0     C32081   8.178   8.454   6.475 -0.9665  0.1410  0.3944
  233MOL0     C32082   8.810   8.582   6.969 -0.3172  0.1275 -0.3733
  233MOL0     C32083   8.927   8.602   7.035 -0.0393  0.1177  0.5950
  233MOL0     C32084   8.972   8.490   7.126  0.3373 -0.2559  0.2167
  233MOL0     H32085   9.365   9.013   6.918 -1.8542 -0.7105  1.8980
  233MOL0     H32086   9.616   9.016   6.932 -0.5994  0.1676 -0.0961
  233MOL0     H32087   9.823   8.995   7.007 -1.5941 -1.3910 -0.0171
  233MOL0     H32088   9.855   8.925   6.855 -2.7928  1.3722  0.1829
  233MOL0     H32089  10.020   8.886   7.114  0.9560  1.7318 -0.0833
  233MOL0     H32090  10.071   8.809   6.958  2.3206  1.0632  1.3972
  233MOL0     H32091  10.075   9.034   6.851  0.9491 -0.8073 -0.5258
  233MOL0     H32092  10.062   9.117   7.008  3.7746  1.3738 -1.0240
  233MOL0     H32093  10.255   8.962   7.090 -1.8954  0.2031  0.9445
  233MOL0     H32094  10.278   8.917   6.926  1.3001  0.7148 -1.2438
  233MOL0     H32095  10.396   9.115   7.039 -1.0740 -0.5988  2.1251
  233MOL0     H32096  10.254   9.213   7.012 -1.0861 -0.4978  0.2002
  233MOL0     H32097  10.460   9.124   6.820 -0.5191 -0.7109 -0.3794
  233MOL0     H32098  10.304   9.070   6.762 -0.5240 -0.8576  1.5564
  233MOL0     H32099  10.339   9.354   6.876 -0.8126 -1.0382  1.7507
  233MOL0     H32100  10.211   9.310   6.774 -0.4944  1.9231  2.1127
  233MOL0     H32101  10.499   9.335   6.677  0.2226  2.8817  1.1276
  233MOL0     H32102  10.360   9.291   6.582 -1.8762 -0.8736  0.8042
  233MOL0     H32103  10.445   9.601   6.804 -1.2921  0.5797  0.0096
  233MOL0     H32104  10.301   9.854   6.787 -1.5361  2.1212 -0.7236
  233MOL0     H32105  10.278   9.908   6.628 -0.6183  0.7662  1.3938
  233MOL0     H32106  10.563   9.830   6.737 -2.2014 -1.7869  1.3530
  233MOL0     H32107  10.527   9.909   6.579  1.8234  2.5652 -0.0189
  233MOL0     H32108  10.432  10.101   6.695 -1.0656  1.6109  1.5100
  233MOL0     H32109  10.444  10.020   6.845 -1.2165 -4.2598 -0.4918
  233MOL0     H32110  10.637  10.180   6.825  1.6218  0.1043  0.9445
  233MOL0     H32111  10.713  10.012   6.823  0.4069  1.1850  1.8531
  233MOL0     H32112  10.803  10.204   6.444 -0.5734 -0.1851  0.4146
  233MOL0     H32113  10.967  10.258   6.286 -1.3723  1.3662  2.0277
  233MOL0     H32114  11.116  10.174   6.292 -3.3009 -0.3859 -2.3935
  233MOL0     H32115  11.113  10.348   6.346 -0.3277 -0.0014  1.8106
  233MOL0     H32116  11.451   9.991   6.529 -0.4360 -0.9134  0.9112
  233MOL0     H32117  11.708   9.944   6.491  0.3862 -0.1237  1.5752
  233MOL0     H32118  12.085  10.116   6.651 -2.5317  0.7255 -2.8790
  233MOL0     H32119  11.962  10.234   6.703  0.5038  0.7485 -0.2540
  233MOL0     H32120  11.897  10.083   6.884 -2.1856 -1.0428 -1.6127
  233MOL0     H32121  11.998   9.953   6.822 -0.3063  1.0633 -0.7938
  233MOL0     H32122  12.103  10.218   6.932 -0.0822 -0.8651  1.7786
  233MOL0     H32123  12.211  10.089   6.871 -0.0531 -1.5898 -0.5167
  233MOL0     H32124  12.175   9.933   7.026 -3.3497 -1.1857 -0.9644
  233MOL0     H32125  12.019   9.996   7.068 -0.2765  1.7649  0.3438
  233MOL0     H32126  12.269  10.158   7.128  0.4924 -2.0034 -2.3531
  233MOL0     H32127  12.110  10.157   7.210 -2.1448 -0.9954 -1.1092
  233MOL0     H32128  12.325   9.951   7.224 -1.0708 -0.5222 -2.4152
  233MOL0     H32129  12.157   9.909   7.287 -0.2875  0.6736  0.3837
  233MOL0     H32130  12.201  10.124   7.434 -1.5001 -0.7286 -1.2093
  233MOL0     H32131  12.371  10.118   7.378  0.8588 -1.7060  0.6973
  233MOL0     H32132  12.234   9.884   7.516  1.4412 -0.3433  1.2705
  233MOL0     H32133  12.331   9.988   7.602  0.2822 -3.6898  1.5874
  233MOL0     H32134  11.769  10.219   6.813 -0.7397 -0.3053  1.3867
  233MOL0     H32135  11.517  10.252   6.833 -2.1988  0.7980 -2.6822
  233MOL0     H32136  11.135  10.140   6.794  0.1219  0.5047 -0.0246
  233MOL0     H32137  10.900  10.108   6.844 -0.0827 -2.6736 -0.1438
  233MOL0     H32138   9.612   8.597   7.030 -0.9378  0.0894  3.9563
  233MOL0     H32139   9.389   8.591   7.001 -0.8912  0.7729  0.9643
  233MOL0     H32140   8.996   8.906   6.912 -1.7819  0.5742  0.6405
  233MOL0     H32141   8.771   8.876   6.828 -0.5402 -1.2677 -0.6010
  233MOL0     H32142   8.533   8.477   6.866  0.9132 -0.3153  0.1904
  233MOL0     H32143   8.549   8.585   7.006 -2.2582  0.3562  0.0359
  233MOL0     H32144   8.386   8.736   6.907  0.0716 -0.8466  2.4125
  233MOL0     H32145   8.312   8.583   6.942  1.0850 -2.2947 -2.4720
  233MOL0     H32146   8.225   8.647   6.742 -1.1251 -0.2196 -0.7027
  233MOL0     H32147   8.382   8.679   6.671  1.2284 -2.6501 -0.1090
  233MOL0     H32148   8.302   8.403   6.781 -3.0851 -0.4727 -0.4822
  233MOL0     H32149   8.437   8.446   6.666 -0.3473  1.2859  1.9782
  233MOL0     H32150   8.125   8.456   6.382 -0.8562  2.5046  0.3239
  233MOL0     H32151   8.758   8.489   6.986 -0.6393  0.5295  0.9903
  233MOL0     H32152   9.017   8.413   7.063  1.0981  0.8070 -0.5628
  233MOL0     H32153   9.046   8.511   7.205  0.9405 -0.5510 -0.2612
  233MOL0     H32154   8.879   8.451   7.168  0.5563  0.7039  1.6860
  234MOL0     O32155   2.164   4.508   2.429 -0.2625 -0.1766 -0.0110
  234MOL0     C32156   2.112   4.403   2.392 -1.0394  0.0787 -0.0168
  234MOL0     O32157   2.182   4.289   2.351 -0.0626 -0.2784 -0.5468
  234MOL0     C32158   2.318   4.276   2.357 -0.0601 -0.5859  0.9870
  234MOL0     C32159   2.351   4.149   2.414 -0.3239 -0.7082  0.7879
  234MOL0     C32160   2.484   4.121   2.440 -1.1831  0.3449 -0.2796
  234MOL0     C32161   2.592   4.215   2.394 -0.7500  0.8391  0.3444
  234MOL0     O32162   2.725   4.187   2.407  0.0875  0.0167 -0.0515
  234MOL0     C32163   2.770   4.056   2.446 -0.1771 -1.0847 -0.0992
  234MOL0     C32164   2.924   4.059   2.429 -0.6601 -0.1930  0.5102
  234MOL0     C32165   3.003   3.928   2.474  0.0236  0.1542 -0.2270
  234MOL0     C32166   3.003   3.901   2.625 -0.5142  0.2618  0.5622
  234MOL0     C32167   3.032   3.763   2.673 -0.0236 -0.3182 -0.0008
  234MOL0     C32168   2.921   3.667   2.637  0.0595 -0.5384  0.5240
  234MOL0     C32169   2.875   3.571   2.747 -0.0111 -0.3347 -0.1277
  234MOL0     C32170   2.970   3.451   2.759  0.8167  0.1734 -0.1791
  234MOL0     N32171   2.984   3.377   2.636  0.1774 -0.4823 -0.6227
  234MOL0     C32172   2.885   3.310   2.560  0.1138  0.2263  0.0389
  234MOL0     C32173   2.961   3.250   2.462  0.4874  0.4173 -1.6910
  234MOL0     C32174   2.898   3.183   2.340  0.4151  0.5606 -0.7712
  234MOL0     C32175   2.904   3.291   2.229  0.3890 -0.3098  0.5746
  234MOL0     C32176   3.035   3.339   2.167  0.0588 -0.3490  0.4067
  234MOL0     C32177   3.090   3.211   2.096  0.1435 -0.5706  0.5208
  234MOL0     O32178   3.186   3.249   1.998 -0.1063  0.8188 -0.0187
  234MOL0     C32179   3.259   3.168   1.928 -0.3740 -0.4953 -0.2732
  234MOL0     C32180   3.378   3.213   1.867 -0.9825 -0.9622 -0.4569
  234MOL0     C32181   3.457   3.127   1.794 -0.5411  0.4039 -0.4806
  234MOL0     C32182   3.585   3.178   1.736  0.6239 -0.1611  0.0688
  234MOL0     C32183   3.423   2.989   1.786 -0.1062 -0.1288  0.1797
  234MOL0     C32184   3.514   2.881   1.713 -0.2244 -0.7447  0.2919
  234MOL0     O32185   3.461   2.754   1.698  0.3098 -0.3160 -0.3381
  234MOL0     C32186   3.545   2.657   1.649  0.3728  0.1109 -0.1703
  234MOL0     C32187   3.600   2.669   1.520  0.0777 -0.1374  0.2194
  234MOL0     C32188   3.681   2.562   1.472 -0.4728  0.1838  0.2676
  234MOL0     C32189   3.711   2.449   1.549 -0.5336  0.5625  0.7026
  234MOL0     O32190   3.797   2.342   1.517 -0.1671 -0.9603  0.0223
  234MOL0     C32191   3.871   2.352   1.394 -0.8833  0.4400 -0.3203
  234MOL0     C32192   3.954   2.226   1.383 -0.0635 -0.2215  0.5926
  234MOL0     C32193   4.063   2.251   1.267  0.8446 -0.6726 -0.3663
  234MOL0     C32194   4.025   2.159   1.152  1.1465 -0.1561  0.3916
  234MOL0     C32195   4.124   2.190   1.045  0.2673 -0.1119  0.0226
  234MOL0     C32196   4.092   2.114   0.915 -0.2189  0.1794 -0.5685
  234MOL0     C32197   4.211   2.131   0.810  0.1339  0.0756 -0.6887
  234MOL0     C32198   4.198   2.043   0.679 -0.4129 -0.0163  0.5695
  234MOL0    Cl32199   4.369   2.024   0.622 -0.2478 -0.3533  0.0465
  234MOL0     C32200   3.640   2.444   1.673 -0.4785  0.3634  1.0386
  234MOL0     C32201   3.559   2.542   1.722  0.1073 -0.7968 -0.5505
  234MOL0     O32202   3.621   2.913   1.665 -0.8180 -0.0863 -0.5726
  234MOL0     C32203   3.304   2.939   1.845 -0.5920 -0.0420  0.9079
  234MOL0     C32204   3.222   3.031   1.915 -0.0936 -0.7636 -0.5761
  234MOL0     N32205   3.090   3.243   2.504  0.1496  0.0527  0.0155
  234MOL0     N32206   3.104   3.326   2.599  0.2429  0.2868  0.8318
  234MOL0     C32207   2.555   4.335   2.335  0.2052  0.2497 -0.3056
  234MOL0     C32208   2.421   4.364   2.317  0.2462 -0.1759 -0.0031
  234MOL0     C32209   1.969   4.401   2.408  0.9516  0.3547  0.0113
  234MOL0     C32210   1.907   4.499   2.491 -0.4571 -0.0240 -0.8812
  234MOL0     C32211   1.768   4.504   2.509  0.1533 -0.6844  0.4673
  234MOL0     C32212   1.687   4.415   2.443 -0.3454  0.2921 -0.8319
  234MOL0     O32213   1.549   4.410   2.456 -0.6796 -0.3438 -0.0603
  234MOL0     C32214   1.483   4.502   2.542 -0.7341  0.5259 -0.1264
  234MOL0     C32215   1.342   4.529   2.505  0.2757 -0.2472  0.0028
  234MOL0     C32216   1.242   4.422   2.573  0.8873  0.0702  0.2443
  234MOL0     C32217   1.110   4.469   2.528  0.6069 -0.3145 -0.1955
  234MOL0     C32218   1.060   4.594   2.597  0.3809 -0.4750  0.0015
  234MOL0     C32219   1.000   4.670   2.672 -0.3436  0.1598  0.9579
  234MOL0     C32220   1.744   4.316   2.371 -0.6819  0.4428 -0.1865
  234MOL0     C32221   1.882   4.311   2.344  0.2183 -0.3174 -0.6968
  234MOL0     C32222   1.934   4.201   2.253  0.2837  0.0057  0.0872
  234MOL0     H32223   2.261   4.092   2.438 -1.0342  0.9608  2.3801
  234MOL0     H32224   2.506   4.024   2.483 -1.5783  0.1312 -0.5452
  234MOL0     H32225   2.723   3.985   2.377 -0.7273 -0.8594  0.0356
  234MOL0     H32226   2.733   4.034   2.547  2.4759  1.0689  1.4969
  234MOL0     H32227   2.939   4.063   2.321  0.0596  1.4624  0.6411
  234MOL0     H32228   2.961   4.144   2.488 -1.3779 -0.7776  1.8467
  234MOL0     H32229   2.959   3.844   2.420 -0.6679 -0.1397  0.7614
  234MOL0     H32230   3.104   3.950   2.439 -0.6887  3.8062 -0.4285
  234MOL0     H32231   3.077   3.970   2.668  1.5682 -1.8063  0.4682
  234MOL0     H32232   2.911   3.939   2.671 -1.4154  0.4989 -1.3456
  234MOL0     H32233   3.020   3.766   2.782 -1.0011 -0.2514 -0.1036
  234MOL0     H32234   3.132   3.732   2.640 -0.3204 -1.4329  0.1031
  234MOL0     H32235   2.825   3.716   2.620 -1.6546 -3.7215  0.2504
  234MOL0     H32236   2.939   3.617   2.542 -0.9852  0.6704 -0.3435
  234MOL0     H32237   2.777   3.530   2.724 -1.1744  2.3993 -0.4899
  234MOL0     H32238   2.869   3.621   2.845  2.3033 -0.4493  0.1521
  234MOL0     H32239   3.069   3.488   2.790 -0.1026  2.5454  0.1701
  234MOL0     H32240   2.924   3.386   2.834  1.8360 -0.8798 -0.4452
  234MOL0     H32241   2.777   3.317   2.560  0.1625  1.1963 -0.2652
  234MOL0     H32242   2.798   3.147   2.368  0.6277  0.5519  0.0177
  234MOL0     H32243   2.958   3.094   2.321  0.4136 -0.0994  1.9079
  234MOL0     H32244   2.834   3.255   2.153 -1.2458  1.1689  1.3187
  234MOL0     H32245   2.857   3.386   2.256  0.8164  1.0533 -2.9272
  234MOL0     H32246   3.036   3.421   2.095  1.4716 -0.6666  0.0315
  234MOL0     H32247   3.089   3.367   2.258 -1.2628 -3.5521  2.3446
  234MOL0     H32248   3.136   3.142   2.167  0.9740 -1.7984 -1.1507
  234MOL0     H32249   3.016   3.154   2.039 -1.0082  0.9704  0.3956
  234MOL0     H32250   3.403   3.317   1.886  2.3851 -1.9457  1.1532
  234MOL0     H32251   3.595   3.287   1.743  0.7921 -0.0867 -1.0276
  234MOL0     H32252   3.588   3.148   1.631 -0.8293 -0.6240  0.1351
  234MOL0     H32253   3.668   3.144   1.798  0.4738  0.7894  0.8176
  234MOL0     H32254   3.587   2.755   1.455  2.8336  0.0584 -0.1805
  234MOL0     H32255   3.720   2.583   1.373 -0.4753  0.3316  0.2976
  234MOL0     H32256   3.809   2.347   1.304  0.9452 -2.6126 -1.5817
  234MOL0     H32257   3.940   2.437   1.398  1.6783 -1.4913 -0.4324
  234MOL0     H32258   4.007   2.217   1.479  3.4965  1.0328 -1.1016
  234MOL0     H32259   3.902   2.130   1.369  1.0525 -0.5463 -1.7879
  234MOL0     H32260   4.162   2.235   1.310  0.4474 -2.2323  0.0397
  234MOL0     H32261   4.054   2.352   1.226 -3.1786 -0.1999  1.1665
  234MOL0     H32262   3.922   2.167   1.114  0.9095 -0.4702  0.9525
  234MOL0     H32263   4.036   2.058   1.192  1.3460 -0.0452  0.6165
  234MOL0     H32264   4.130   2.297   1.023  0.3205  0.2398  1.6455
  234MOL0     H32265   4.218   2.163   1.093  1.5080  0.4834 -1.9664
  234MOL0     H32266   4.001   2.147   0.863 -1.1498 -1.6133 -0.1703
  234MOL0     H32267   4.077   2.009   0.941  0.8605 -0.1837 -1.3708
  234MOL0     H32268   4.298   2.093   0.866 -0.8925  0.7065  1.4496
  234MOL0     H32269   4.235   2.236   0.791  0.3037  0.0914 -0.3955
  234MOL0     H32270   4.133   2.097   0.610 -0.7969  0.0347  0.9606
  234MOL0     H32271   4.159   1.941   0.688 -1.8043  0.1045 -2.7149
  234MOL0     H32272   3.656   2.351   1.727  3.8334 -0.7209 -1.6300
  234MOL0     H32273   3.499   2.527   1.811 -1.9005 -0.1151 -1.7405
  234MOL0     H32274   3.280   2.834   1.838 -0.5159 -0.0616  0.9541
  234MOL0     H32275   3.141   2.989   1.973  1.0825 -0.8202  1.0569
  234MOL0     H32276   2.632   4.399   2.293  3.0636 -2.7484  0.0050
  234MOL0     H32277   2.395   4.461   2.275  1.1000  0.3411  0.6478
  234MOL0     H32278   1.968   4.577   2.536 -0.0312 -0.3254 -0.9233
  234MOL0     H32279   1.715   4.575   2.570 -1.6906 -2.1941  0.7241
  234MOL0     H32280   1.480   4.460   2.643 -0.7693  0.6107 -0.0915
  234MOL0     H32281   1.527   4.602   2.545  0.5959 -0.0191  2.7165
  234MOL0     H32282   1.336   4.517   2.396  2.1158  0.3986 -0.2050
  234MOL0     H32283   1.318   4.634   2.528 -0.2100  0.4194 -3.0873
  234MOL0     H32284   1.272   4.323   2.538  0.2659  0.2222 -0.7830
  234MOL0     H32285   1.242   4.428   2.682  1.1397 -0.4771  0.2771
  234MOL0     H32286   1.041   4.386   2.546  0.6546 -0.3468 -0.1596
  234MOL0     H32287   1.111   4.485   2.420  2.7847 -0.9550 -0.3091
  234MOL0     H32288   0.938   4.724   2.740  1.5289 -0.1002  2.9825
  234MOL0     H32289   1.687   4.238   2.323  0.5149  1.0717 -2.7963
  234MOL0     H32290   1.992   4.254   2.176 -0.3029  1.5759  0.6860
  234MOL0     H32291   1.996   4.126   2.302 -0.4788  0.0448  1.1263
  234MOL0     H32292   1.848   4.150   2.209  1.2919 -0.6005 -1.2721
  235MOL0     O32293   1.403   0.044   6.678  0.8686  0.0828  0.3568
  235MOL0     C32294   1.424   0.090   6.794  0.4664  0.5583  0.0258
  235MOL0     O32295   1.525   0.169   6.828 -0.0647 -0.1928  0.0995
  235MOL0     C32296   1.635   0.196   6.742  0.2497  0.3730 -0.0124
  235MOL0     C32297   1.682   0.125   6.626  0.4765 -0.4586 -0.7206
  235MOL0     C32298   1.806   0.154   6.567  0.2204 -0.2677  0.0093
  235MOL0     C32299   1.880   0.265   6.607 -0.0200 -0.7023  0.3726
  235MOL0     O32300   2.002   0.302   6.552  0.6325  0.0508 -0.0321
  235MOL0     C32301   2.054   0.245   6.435 -0.2397 -0.4159  0.7071
  235MOL0     C32302   2.156   0.338   6.371 -0.3535  0.1291  0.2058
  235MOL0     C32303   2.223   0.276   6.251 -0.8305  0.8237 -0.3163
  235MOL0     C32304   2.279   0.388   6.159  0.1362  0.0199  0.4054
  235MOL0     C32305   2.316   0.311   6.029  0.5729 -0.4536 -0.1769
  235MOL0     C32306   2.372   0.395   5.923  0.8046 -0.6373 -0.2336
  235MOL0     C32307   2.512   0.459   5.941  0.6231  0.5496  0.9797
  235MOL0     C32308   2.614   0.359   5.886 -0.1448 -0.2174 -0.3239
  235MOL0     N32309   2.623   0.380   5.735  0.6318 -0.0708  0.1065
  235MOL0     C32310   2.580   0.287   5.648 -0.2242 -0.5546 -0.4054
  235MOL0     C32311   2.629   0.321   5.527  0.5664  0.2216  0.0717
  235MOL0     C32312   2.606   0.237   5.405 -0.6306  0.1559 -1.0115
  235MOL0     C32313   2.722   0.145   5.393 -0.0278  0.0003  0.3837
  235MOL0     C32314   2.786   0.142   5.250  0.4569  0.5079  0.5051
  235MOL0     C32315   2.711   0.046   5.159  0.5498 -0.1258  0.2129
  235MOL0     O32316   2.747  -0.088   5.191 -0.7461 -0.5673  0.5903
  235MOL0     C32317   2.853  -0.159   5.146 -0.3642 -0.1681 -0.0306
  235MOL0     C32318   2.982  -0.114   5.129 -0.0987 -0.5656  0.1139
  235MOL0     C32319   3.084  -0.179   5.064 -0.8112  0.1595  0.1324
  235MOL0     C32320   3.221  -0.106   5.040  0.0983 -0.5228  0.1933
  235MOL0     C32321   3.059  -0.302   5.008 -0.5743  0.8323 -0.0974
  235MOL0     C32322   3.166  -0.381   4.936 -0.1898 -0.1277  0.6544
  235MOL0     O32323   3.289  -0.383   4.987 -0.3920 -0.7029  0.1583
  235MOL0     C32324   3.388  -0.443   4.921  0.0973 -0.4399  0.1435
  235MOL0     C32325   3.425  -0.398   4.795  0.0601  1.7244 -0.2378
  235MOL0     C32326   3.541  -0.452   4.737 -0.4285 -0.3460 -0.5024
  235MOL0     C32327   3.614  -0.556   4.804 -0.0254 -0.7837 -0.0241
  235MOL0     O32328   3.730  -0.609   4.736 -0.0098 -0.1505 -0.0818
  235MOL0     C32329   3.838  -0.652   4.816  0.7476 -0.2920  0.3317
  235MOL0     C32330   3.956  -0.602   4.740 -0.0185 -0.5764  0.5324
  235MOL0     C32331   4.086  -0.646   4.801 -0.8493 -0.2306  0.1699
  235MOL0     C32332   4.105  -0.606   4.952 -0.0770  0.2768  0.7362
  235MOL0     C32333   4.238  -0.668   5.008 -1.0184 -0.0654  0.6335
  235MOL0     C32334   4.363  -0.601   4.950  0.3759  0.6194  0.3015
  235MOL0     C32335   4.473  -0.643   5.045  0.4268 -0.8566  0.2918
  235MOL0     C32336   4.616  -0.618   4.987  1.0317  0.7340  0.4063
  235MOL0    Cl32337   4.733  -0.721   5.063  0.0496  0.1974 -0.0428
  235MOL0     C32338   3.569  -0.598   4.924 -0.5325  0.0596 -0.4579
  235MOL0     C32339   3.457  -0.536   4.989 -0.4420 -0.5960  0.3050
  235MOL0     O32340   3.120  -0.435   4.833 -0.8263 -0.4651  0.1473
  235MOL0     C32341   2.931  -0.360   5.035  0.8765 -0.3494 -0.8699
  235MOL0     C32342   2.828  -0.293   5.109  0.0341  0.3843 -0.3652
  235MOL0     N32343   2.708   0.436   5.533 -0.4033 -0.7763 -0.6200
  235MOL0     N32344   2.698   0.466   5.662 -0.1347  0.2209 -0.2633
  235MOL0     C32345   1.846   0.331   6.720  0.4021  0.2336 -0.2074
  235MOL0     C32346   1.721   0.304   6.782 -1.0008  0.1849 -0.3556
  235MOL0     C32347   1.324   0.057   6.897 -0.3193  0.0457 -1.0760
  235MOL0     C32348   1.216   0.140   6.916 -0.4798 -0.3700 -0.0383
  235MOL0     C32349   1.115   0.108   7.013  0.3843 -0.3835  0.3919
  235MOL0     C32350   1.127   0.001   7.102 -0.3726 -0.0943 -0.1310
  235MOL0     O32351   1.036  -0.047   7.195  0.1747  0.1946 -0.4292
  235MOL0     C32352   0.897  -0.054   7.155  0.7179  0.3871  0.2042
  235MOL0     C32353   0.852  -0.203   7.147  0.0787  0.0604  0.9606
  235MOL0     C32354   0.933  -0.280   7.039  0.4923 -0.5072 -0.3122
  235MOL0     C32355   0.947  -0.433   7.037 -0.1458 -0.0198 -0.3753
  235MOL0     C32356   0.824  -0.490   6.991 -0.4011 -0.8658  0.2038
  235MOL0     C32357   0.721  -0.539   6.943 -0.2891 -0.0664 -0.0371
  235MOL0     C32358   1.245  -0.071   7.089  0.3414 -0.0644  0.2142
  235MOL0     C32359   1.348  -0.046   6.996  0.2075 -0.5431 -0.0258
  235MOL0     C32360   1.468  -0.130   7.003 -0.4251 -0.4472  0.3451
  235MOL0     H32361   1.620   0.042   6.591  1.3057 -0.9499 -1.0623
  235MOL0     H32362   1.838   0.102   6.477 -0.7209  0.4019 -0.7449
  235MOL0     H32363   1.973   0.229   6.363 -0.6964  0.4985  1.0075
  235MOL0     H32364   2.095   0.145   6.456  2.3792  0.3593 -0.2219
  235MOL0     H32365   2.109   0.432   6.339 -0.2418  0.0165 -0.2937
  235MOL0     H32366   2.233   0.372   6.441  0.7944  2.6631 -2.0769
  235MOL0     H32367   2.304   0.205   6.269 -0.4567  1.7482  2.0446
  235MOL0     H32368   2.143   0.222   6.200 -2.2550 -0.1070  2.6529
  235MOL0     H32369   2.200   0.453   6.122 -1.7482 -3.1320 -1.6353
  235MOL0     H32370   2.362   0.445   6.202  1.6649 -1.0027 -1.0366
  235MOL0     H32371   2.223   0.265   5.992 -1.3902  1.8949  1.5417
  235MOL0     H32372   2.381   0.228   6.057  0.1575 -0.6081  0.3537
  235MOL0     H32373   2.360   0.344   5.827 -1.7897 -0.4631 -0.0611
  235MOL0     H32374   2.312   0.486   5.931  0.0172 -1.2503  1.2535
  235MOL0     H32375   2.535   0.480   6.046  0.4551  1.8838  0.7649
  235MOL0     H32376   2.508   0.548   5.877  0.2019 -0.8068 -0.9581
  235MOL0     H32377   2.705   0.387   5.940  0.9013 -1.1783 -1.4857
  235MOL0     H32378   2.597   0.256   5.916  4.1737 -0.2746  2.9535
  235MOL0     H32379   2.537   0.191   5.677  1.5881 -1.0215  1.0067
  235MOL0     H32380   2.603   0.300   5.315 -0.8442 -0.2645 -1.3003
  235MOL0     H32381   2.513   0.181   5.398 -1.1874  1.1863 -2.3238
  235MOL0     H32382   2.805   0.162   5.463  1.5127 -1.5747 -0.9633
  235MOL0     H32383   2.686   0.043   5.409  0.1743 -0.1215  0.0709
  235MOL0     H32384   2.798   0.243   5.210  0.9562 -0.3713 -1.6885
  235MOL0     H32385   2.886   0.100   5.264  0.3595 -0.1473 -0.6972
  235MOL0     H32386   2.605   0.064   5.180  0.9444  2.3431  0.3955
  235MOL0     H32387   2.729   0.065   5.053  0.7757  0.1135  0.2921
  235MOL0     H32388   3.002  -0.011   5.156  1.4384 -0.4201 -1.4365
  235MOL0     H32389   3.261  -0.113   4.938  2.2660  0.8219  0.8993
  235MOL0     H32390   3.294  -0.134   5.116  0.5051 -1.6935 -0.5987
  235MOL0     H32391   3.202   0.001   5.050 -1.0785 -0.8674  2.0087
  235MOL0     H32392   3.352  -0.331   4.752 -2.1198 -0.0720  0.4485
  235MOL0     H32393   3.575  -0.420   4.639  0.9607 -1.0628 -0.2713
  235MOL0     H32394   3.832  -0.607   4.916 -0.3012  0.8117 -0.2085
  235MOL0     H32395   3.832  -0.761   4.819 -1.1178 -0.2938 -1.5358
  235MOL0     H32396   3.950  -0.636   4.636  0.7785 -1.6307  0.8150
  235MOL0     H32397   3.961  -0.493   4.745 -0.3094 -0.6144  2.1217
  235MOL0     H32398   4.167  -0.596   4.748 -1.7982  1.9405  0.6367
  235MOL0     H32399   4.104  -0.753   4.787  0.2746  0.1102 -1.2026
  235MOL0     H32400   4.017  -0.629   5.012 -0.4280  0.6495  0.3692
  235MOL0     H32401   4.121  -0.499   4.972  0.2191  0.0877  1.5478
  235MOL0     H32402   4.233  -0.657   5.117  1.9455 -0.7841  0.9212
  235MOL0     H32403   4.242  -0.774   4.984  3.5768 -0.0360  0.3820
  235MOL0     H32404   4.363  -0.494   4.929 -1.7513 -0.0413 -4.4323
  235MOL0     H32405   4.379  -0.642   4.849  1.7373  2.7549 -0.4154
  235MOL0     H32406   4.463  -0.747   5.075  1.8701 -1.4242 -1.0526
  235MOL0     H32407   4.469  -0.591   5.141  2.0304 -0.3261  0.1095
  235MOL0     H32408   4.637  -0.511   4.999  1.2309  0.6520  0.8043
  235MOL0     H32409   4.613  -0.638   4.879  0.9952 -1.3617  0.7562
  235MOL0     H32410   3.614  -0.685   4.970  1.2834  1.5194  0.6395
  235MOL0     H32411   3.429  -0.567   5.089 -0.7304  1.9568  1.0828
  235MOL0     H32412   2.907  -0.458   4.996  0.0895 -0.4632 -0.1347
  235MOL0     H32413   2.726  -0.327   5.122 -0.3969  1.8052  0.1877
  235MOL0     H32414   1.906   0.411   6.762  2.3865 -2.3789  2.4239
  235MOL0     H32415   1.686   0.346   6.876 -2.2476 -0.9938 -0.2612
  235MOL0     H32416   1.197   0.227   6.854  0.7259 -0.6226 -0.7986
  235MOL0     H32417   1.020   0.160   7.006 -0.3083 -1.6456  0.1650
  235MOL0     H32418   0.837  -0.001   7.230  2.5595  0.0175  2.0362
  235MOL0     H32419   0.883   0.002   7.062  3.0266  1.1335  0.2473
  235MOL0     H32420   0.746  -0.211   7.121  0.1215 -1.6354  1.1916
  235MOL0     H32421   0.851  -0.250   7.245 -1.3372 -0.3948  0.7523
  235MOL0     H32422   0.906  -0.254   6.936 -0.6226  1.0304  0.3290
  235MOL0     H32423   1.033  -0.236   7.053 -1.4398  4.0503  0.9651
  235MOL0     H32424   0.984  -0.466   7.134  2.7218  0.9105 -1.0702
  235MOL0     H32425   1.023  -0.474   6.969  0.4483 -0.4211  0.5150
  235MOL0     H32426   0.631  -0.578   6.901 -0.1172 -1.1260  0.5374
  235MOL0     H32427   1.233  -0.159   7.152  0.2123  0.2174  0.5862
  235MOL0     H32428   1.446  -0.226   7.049  0.4522  0.5812  3.1356
  235MOL0     H32429   1.517  -0.140   6.906  0.6228 -0.9779  0.9161
  235MOL0     H32430   1.540  -0.077   7.066 -1.0545  1.4513 -0.4456
  236MOL0     O32431  11.260   3.354   0.103  0.1841 -0.1981  0.0466
  236MOL0     C32432  11.195   3.337   0.213 -0.3407  0.2855  0.0411
  236MOL0     O32433  11.217   3.409   0.326  0.0482 -0.0126  0.0477
  236MOL0     C32434  11.346   3.457   0.346  0.7028  0.1755  0.2632
  236MOL0     C32435  11.466   3.391   0.316  0.0340 -0.1136  0.1355
  236MOL0     C32436  11.586   3.436   0.370 -0.4474  0.2611 -0.4689
  236MOL0     C32437  11.594   3.538   0.466  0.0024  0.5065  0.7199
  236MOL0     O32438  11.701   3.586   0.536  0.3102  0.3762 -0.4085
  236MOL0     C32439  11.827   3.576   0.466  0.7652 -0.1786 -0.0170
  236MOL0     C32440  11.925   3.653   0.550 -0.1633  0.0477 -0.3425
  236MOL0     C32441  12.067   3.627   0.497 -0.0442  0.5861  0.7852
  236MOL0     C32442  12.178   3.697   0.590  0.2518  0.5904  0.1410
  236MOL0     C32443  12.315   3.698   0.535  0.0123  0.1470 -0.8489
  236MOL0     C32444  12.410   3.785   0.622  0.8037  0.1530 -0.4667
  236MOL0     C32445  12.553   3.786   0.585 -0.1427 -0.4304  0.5345
  236MOL0     C32446  12.630   3.891   0.670 -0.0684 -0.0809 -0.3284
  236MOL0     N32447  12.774   3.876   0.639  0.4933  0.8634  1.0051
  236MOL0     C32448  12.832   3.928   0.525  0.2197  0.1955  0.4042
  236MOL0     C32449  12.963   3.902   0.526  0.1697  0.6084  0.0465
  236MOL0     C32450  13.082   3.924   0.431  0.9032 -0.5400  0.7534
  236MOL0     C32451  13.132   3.795   0.372  0.5441 -0.6205  0.2554
  236MOL0     C32452  13.226   3.819   0.247 -0.0365  0.4965  0.6915
  236MOL0     C32453  13.275   3.689   0.177 -0.5227 -0.0781 -0.0930
  236MOL0     O32454  13.402   3.663   0.240  0.4387 -0.9143 -0.2945
  236MOL0     C32455  13.506   3.671   0.149 -1.0747 -0.4737 -0.5932
  236MOL0     C32456  13.607   3.771   0.166 -0.6282  0.1879  0.3641
  236MOL0     C32457  13.711   3.795   0.070 -0.2958 -0.1885 -0.4450
  236MOL0     C32458  13.819   3.903   0.111 -0.2572 -0.2080 -0.2473
  236MOL0     C32459  13.721   3.714  -0.039  0.0263  0.0425 -0.0930
  236MOL0     C32460  13.825   3.726  -0.142  0.0675 -0.5370  0.8715
  236MOL0     O32461  13.855   3.613  -0.213  0.2728 -0.0942 -0.6463
  236MOL0     C32462  13.949   3.614  -0.310 -0.4119 -0.0530 -0.4679
  236MOL0     C32463  14.079   3.560  -0.292  0.5300 -1.0666 -0.3193
  236MOL0     C32464  14.163   3.562  -0.395 -0.1016 -0.2661  0.3496
  236MOL0     C32465  14.135   3.625  -0.518 -0.7753  0.2316  0.3754
  236MOL0     O32466  14.227   3.640  -0.616  0.6133  0.0576 -0.3059
  236MOL0     C32467  14.347   3.709  -0.578 -0.1266 -0.4412  0.1553
  236MOL0     C32468  14.483   3.663  -0.646 -0.3041  0.2687 -0.3359
  236MOL0     C32469  14.510   3.522  -0.596 -0.5887 -0.1364 -0.1056
  236MOL0     C32470  14.640   3.463  -0.640  0.0573  0.2863  0.7797
  236MOL0     C32471  14.678   3.326  -0.586  0.5961 -0.5050 -0.1486
  236MOL0     C32472  14.665   3.312  -0.433 -0.2841  0.5019 -0.2004
  236MOL0     C32473  14.656   3.166  -0.379  0.2649 -1.1906 -0.1548
  236MOL0     C32474  14.634   3.175  -0.219  0.5472 -0.0723 -0.2673
  236MOL0    Cl32475  14.459   3.194  -0.189 -0.1404  0.8326 -0.1670
  236MOL0     C32476  14.011   3.687  -0.531  0.5200 -0.8778  0.2794
  236MOL0     C32477  13.912   3.679  -0.430 -0.3195  0.0028  0.0765
  236MOL0     O32478  13.882   3.835  -0.159 -1.1258  0.3800 -0.5258
  236MOL0     C32479  13.625   3.603  -0.046 -1.1327  0.0023 -0.0619
  236MOL0     C32480  13.518   3.580   0.049  0.4459 -0.3820  1.2341
  236MOL0     N32481  12.989   3.835   0.646 -0.2239  0.3763 -0.0904
  236MOL0     N32482  12.873   3.813   0.704  0.0241  0.1475 -0.5278
  236MOL0     C32483  11.476   3.604   0.497  0.0772  0.7614 -0.1975
  236MOL0     C32484  11.354   3.564   0.442  0.9003 -0.3940 -0.1828
  236MOL0     C32485  11.080   3.256   0.218 -0.1504 -0.6135  0.2799
  236MOL0     C32486  10.988   3.250   0.110  0.5486 -0.0915 -0.0359
  236MOL0     C32487  10.876   3.171   0.108  0.5815  0.5133 -0.6805
  236MOL0     C32488  10.849   3.095   0.219 -0.4320  0.3461 -0.0474
  236MOL0     O32489  10.725   3.028   0.232 -0.1683 -0.2712  0.1746
  236MOL0     C32490  10.715   2.892   0.194  0.0041 -0.3189  0.6373
  236MOL0     C32491  10.568   2.854   0.182 -0.1096  0.3238 -0.1902
  236MOL0     C32492  10.511   2.901   0.047 -1.0257  0.6427 -0.5296
  236MOL0     C32493  10.360   2.934   0.044  0.3273 -0.2506  0.2010
  236MOL0     C32494  10.329   2.975  -0.092 -1.0971 -0.1893  0.2580
  236MOL0     C32495  10.321   3.012  -0.203 -0.4587 -1.0559  0.5393
  236MOL0     C32496  10.948   3.093   0.328 -0.1479 -0.4296  0.0447
  236MOL0     C32497  11.059   3.169   0.321 -0.4609 -0.2962 -0.6278
  236MOL0     C32498  11.153   3.170   0.446  0.0953 -0.0200  0.6564
  236MOL0     H32499  11.468   3.305   0.250 -0.8860  1.2744 -1.8075
  236MOL0     H32500  11.678   3.393   0.332 -0.4964  0.6385 -1.0275
  236MOL0     H32501  11.819   3.610   0.362  0.7148 -1.8477 -0.5973
  236MOL0     H32502  11.854   3.470   0.467  0.7031 -0.1936  0.0721
  236MOL0     H32503  11.921   3.762   0.536  1.9657  0.1842 -0.2668
  236MOL0     H32504  11.911   3.630   0.655 -1.0394  0.0071 -0.4643
  236MOL0     H32505  12.088   3.519   0.490 -1.6571  0.3175 -0.8997
  236MOL0     H32506  12.061   3.669   0.396 -2.8089 -1.5614 -0.0682
  236MOL0     H32507  12.150   3.801   0.610 -2.3311  0.2087 -0.9967
  236MOL0     H32508  12.172   3.641   0.684 -0.1728  0.9820  0.3525
  236MOL0     H32509  12.317   3.740   0.434  0.7819 -2.3167 -1.9286
  236MOL0     H32510  12.353   3.595   0.537  2.6297  1.0278  1.2874
  236MOL0     H32511  12.368   3.886   0.619  0.2060 -0.0704  0.0536
  236MOL0     H32512  12.406   3.752   0.726 -1.4344 -0.0966 -0.5997
  236MOL0     H32513  12.554   3.820   0.481  3.1492  0.9417  0.9129
  236MOL0     H32514  12.611   3.693   0.586 -0.2275 -0.4907  0.1418
  236MOL0     H32515  12.606   3.997   0.656 -0.0741 -0.0430 -0.0485
  236MOL0     H32516  12.621   3.868   0.777  0.4674 -1.7393 -0.6154
  236MOL0     H32517  12.795   3.984   0.440  1.5794  1.4349  0.5892
  236MOL0     H32518  13.160   3.977   0.486  0.9264 -0.6755  0.8515
  236MOL0     H32519  13.047   3.991   0.352 -0.9471  2.2779  3.6883
  236MOL0     H32520  13.180   3.732   0.447  1.2947  0.4067  0.6575
  236MOL0     H32521  13.044   3.732   0.354 -0.2047 -0.1609  2.0833
  236MOL0     H32522  13.161   3.875   0.180 -3.0057 -2.4502  0.8000
  236MOL0     H32523  13.310   3.882   0.277 -0.1270  0.1433  1.7387
  236MOL0     H32524  13.208   3.604   0.190 -1.0672  0.1446 -1.3186
  236MOL0     H32525  13.284   3.713   0.071  0.0367  2.1079  0.3905
  236MOL0     H32526  13.602   3.832   0.256  1.8702 -0.7546  1.2387
  236MOL0     H32527  13.905   3.846   0.149  0.2082 -0.5276 -1.6948
  236MOL0     H32528  13.785   3.967   0.193  2.5495  0.6433  0.3625
  236MOL0     H32529  13.844   3.970   0.028 -0.2979  0.1218  0.0047
  236MOL0     H32530  14.110   3.527  -0.194 -0.1630  0.7522  0.5602
  236MOL0     H32531  14.256   3.508  -0.379  0.0335  0.5168  2.3898
  236MOL0     H32532  14.326   3.810  -0.612 -0.5181 -0.1547  1.2030
  236MOL0     H32533  14.360   3.719  -0.469  1.2350  1.6839 -0.1397
  236MOL0     H32534  14.466   3.655  -0.754 -0.6342 -1.8685 -0.1781
  236MOL0     H32535  14.561   3.735  -0.621 -0.8155  0.0795  2.1132
  236MOL0     H32536  14.428   3.456  -0.624 -0.0428 -0.4334 -1.0531
  236MOL0     H32537  14.507   3.524  -0.487  0.3032 -0.7927 -0.0630
  236MOL0     H32538  14.719   3.536  -0.619 -0.2622  1.9298 -2.9301
  236MOL0     H32539  14.644   3.466  -0.750  1.4057  0.5429  0.8168
  236MOL0     H32540  14.611   3.250  -0.625  0.3968 -0.7305  0.6282
  236MOL0     H32541  14.781   3.305  -0.618  0.8693  0.7547 -0.1537
  236MOL0     H32542  14.575   3.363  -0.398  0.8740  2.0131  0.6988
  236MOL0     H32543  14.743   3.358  -0.372 -1.3722  0.7910  0.9966
  236MOL0     H32544  14.744   3.110  -0.412 -0.7213 -2.2034 -1.1513
  236MOL0     H32545  14.566   3.115  -0.415 -1.5775 -1.4629  4.2464
  236MOL0     H32546  14.686   3.256  -0.167 -0.2153  0.3552 -0.1589
  236MOL0     H32547  14.667   3.085  -0.166 -0.3441  1.4562  3.1477
  236MOL0     H32548  14.010   3.739  -0.626  2.3572  2.3167  1.8259
  236MOL0     H32549  13.810   3.713  -0.446 -0.0814  0.0722 -1.4329
  236MOL0     H32550  13.632   3.528  -0.124  0.7730  0.5093 -0.4136
  236MOL0     H32551  13.446   3.500   0.047 -3.9314  3.1149  2.8975
  236MOL0     H32552  11.485   3.678   0.576 -0.9488  0.7019 -0.0126
  236MOL0     H32553  11.262   3.608   0.478  0.6225 -1.5582  0.5615
  236MOL0     H32554  11.004   3.329   0.037  1.6213  0.6362  0.9437
  236MOL0     H32555  10.805   3.178   0.026 -0.6462  0.0373  0.3036
  236MOL0     H32556  10.776   2.880   0.104  3.2335  3.3156  2.0687
  236MOL0     H32557  10.742   2.822   0.273 -0.4831  0.6353  1.6859
  236MOL0     H32558  10.492   2.878   0.257 -2.5108 -2.0519 -1.6977
  236MOL0     H32559  10.558   2.745   0.181 -1.0768  0.4100 -0.6450
  236MOL0     H32560  10.573   2.986   0.019  0.8438 -0.1775  0.9012
  236MOL0     H32561  10.537   2.823  -0.025 -0.3214  1.5209 -1.2462
  236MOL0     H32562  10.337   3.021   0.107 -3.7674 -2.0205  1.5109
  236MOL0     H32563  10.289   2.861   0.084  0.1891  0.3305  1.0435
  236MOL0     H32564  10.321   3.071  -0.292 -4.3268  1.7029  2.0748
  236MOL0     H32565  10.919   3.037   0.416 -3.7270  0.4700 -0.4224
  236MOL0     H32566  11.131   3.074   0.494 -5.4095  0.5362 -0.0901
  236MOL0     H32567  11.256   3.182   0.412 -1.0749  1.1330 -2.9962
  236MOL0     H32568  11.114   3.253   0.505  1.8165  2.2280 -1.1634
  237MOL0     O32569  10.203   1.542   4.347 -0.4857 -0.6459 -0.0364
  237MOL0     C32570  10.116   1.544   4.429  0.1229  0.0116  0.4512
  237MOL0     O32571  10.134   1.587   4.554  0.2060 -0.2036 -0.9799
  237MOL0     C32572  10.263   1.624   4.586  0.0504  0.3881 -0.0563
  237MOL0     C32573  10.333   1.547   4.676 -0.0773 -0.0981  0.7647
  237MOL0     C32574  10.465   1.578   4.713  0.2452 -0.1445  0.4197
  237MOL0     C32575  10.530   1.695   4.665  0.0382  0.5410  0.5632
  237MOL0     O32576  10.662   1.708   4.690  0.3656 -0.9162  0.7757
  237MOL0     C32577  10.719   1.848   4.696 -0.0544 -0.0722 -0.8487
  237MOL0     C32578  10.870   1.836   4.699 -0.1430  0.2038 -0.2752
  237MOL0     C32579  10.954   1.955   4.732 -0.3900  0.1473  0.4696
  237MOL0     C32580  11.090   1.938   4.661 -0.7373  0.7310  0.3331
  237MOL0     C32581  11.170   2.077   4.655 -1.0205 -0.2652  0.7639
  237MOL0     C32582  11.309   2.047   4.592 -0.3178  0.8783 -0.2650
  237MOL0     C32583  11.376   2.187   4.568 -1.3181 -0.4017 -0.0404
  237MOL0     C32584  11.513   2.166   4.497  0.3173 -0.1331  0.3457
  237MOL0     N32585  11.604   2.091   4.589 -0.0809 -0.0469  0.7548
  237MOL0     C32586  11.687   2.148   4.682 -0.1165 -0.6852  0.1998
  237MOL0     C32587  11.768   2.050   4.717 -0.8741  0.4493  0.3400
  237MOL0     C32588  11.894   2.067   4.805  0.0651  0.5771  0.5238
  237MOL0     C32589  11.861   2.041   4.950  0.6330  0.6429 -0.3919
  237MOL0     C32590  11.988   2.036   5.045  0.5386  0.5115  0.6902
  237MOL0     C32591  11.942   2.063   5.186 -0.2090  0.3444 -0.3792
  237MOL0     O32592  12.024   2.165   5.254  0.4724 -0.1319  0.1849
  237MOL0     C32593  12.149   2.137   5.297  0.9633  0.2420 -0.4836
  237MOL0     C32594  12.201   2.233   5.380  0.1878 -0.3307 -0.4207
  237MOL0     C32595  12.320   2.225   5.440 -0.4028  0.4096 -0.3573
  237MOL0     C32596  12.364   2.334   5.544 -0.3875  0.0434 -0.2161
  237MOL0     C32597  12.401   2.113   5.414 -0.5694  0.7538  0.0692
  237MOL0     C32598  12.541   2.093   5.454  0.1409 -0.8757  0.0052
  237MOL0     O32599  12.575   1.979   5.515 -0.7652 -0.2648 -0.4645
  237MOL0     C32600  12.690   1.966   5.583  0.4090  0.0062 -0.7513
  237MOL0     C32601  12.795   1.918   5.511 -0.6893 -0.7548  0.4254
  237MOL0     C32602  12.923   1.894   5.568  0.5029 -0.4699 -0.2157
  237MOL0     C32603  12.946   1.925   5.705 -0.7698 -0.5556  0.5108
  237MOL0     O32604  13.056   1.887   5.778  0.2700  0.4343 -0.6109
  237MOL0     C32605  13.157   1.802   5.713  0.1692  0.3668  0.4588
  237MOL0     C32606  13.250   1.734   5.818 -0.7564 -0.2518  0.1738
  237MOL0     C32607  13.327   1.830   5.908 -0.2321  0.5137 -0.5218
  237MOL0     C32608  13.432   1.756   5.988 -0.9086  0.8930 -1.1289
  237MOL0     C32609  13.535   1.851   6.043 -1.0205 -0.4287 -0.1119
  237MOL0     C32610  13.639   1.773   6.131 -1.2048 -0.4902  0.3755
  237MOL0     C32611  13.763   1.863   6.159  0.9149  0.4230 -0.1810
  237MOL0     C32612  13.786   1.868   6.310 -0.1319 -0.1029 -0.0982
  237MOL0    Cl32613  13.924   1.985   6.326 -0.1861 -0.3483 -0.0909
  237MOL0     C32614  12.832   1.962   5.780  0.0470 -0.5480 -1.0010
  237MOL0     C32615  12.710   1.994   5.724 -0.7171  0.9867  0.8866
  237MOL0     O32616  12.616   2.187   5.434  0.2488  0.0809  0.9115
  237MOL0     C32617  12.350   2.011   5.332 -0.2017 -0.4636 -0.4793
  237MOL0     C32618  12.221   2.022   5.273 -0.0912 -0.2747  0.1302
  237MOL0     N32619  11.732   1.933   4.662 -0.5214 -0.6221  0.6022
  237MOL0     N32620  11.631   1.960   4.578  0.1258  0.6114 -0.4137
  237MOL0     C32621  10.462   1.774   4.571 -0.2397  0.6716 -0.1582
  237MOL0     C32622  10.330   1.741   4.538 -0.3172  0.4915 -0.7675
  237MOL0     C32623   9.972   1.513   4.389 -0.3781 -0.3366  0.4053
  237MOL0     C32624   9.936   1.547   4.259  0.7530  0.0269 -0.9534
  237MOL0     C32625   9.805   1.529   4.204 -0.3210  0.0745 -0.4236
  237MOL0     C32626   9.714   1.463   4.294  0.1669  0.0055  0.4795
  237MOL0     O32627   9.593   1.432   4.236  0.2621  0.1634 -0.0741
  237MOL0     C32628   9.520   1.323   4.291  0.0206 -0.2135  0.1420
  237MOL0     C32629   9.398   1.310   4.201  0.7338  0.0510 -0.8358
  237MOL0     C32630   9.421   1.264   4.056 -0.6468  0.2330 -0.0320
  237MOL0     C32631   9.462   1.124   4.064 -0.3139  0.6023 -0.2014
  237MOL0     C32632   9.349   1.040   4.068 -0.0248 -0.3425 -0.6295
  237MOL0     C32633   9.239   0.987   4.068  0.8662  0.0615 -0.2502
  237MOL0     C32634   9.756   1.426   4.423 -0.2769 -0.1792  0.3991
  237MOL0     C32635   9.885   1.440   4.467  0.3964 -0.8633 -0.6759
  237MOL0     C32636   9.922   1.387   4.600  0.5015 -0.3466 -0.5846
  237MOL0     H32637  10.291   1.458   4.722 -0.4477  0.5592  1.7370
  237MOL0     H32638  10.527   1.514   4.775  1.0865  1.6739  1.5455
  237MOL0     H32639  10.686   1.902   4.786  0.4170 -1.3881  0.1552
  237MOL0     H32640  10.694   1.909   4.609 -2.0558 -1.6286 -1.4574
  237MOL0     H32641  10.890   1.757   4.773 -0.4417 -0.0473 -0.4603
  237MOL0     H32642  10.901   1.792   4.604 -0.4837  1.9280 -1.2237
  237MOL0     H32643  10.901   2.048   4.707  1.0628  1.1079  0.8384
  237MOL0     H32644  10.964   1.968   4.840  1.8711 -0.3249  0.3768
  237MOL0     H32645  11.153   1.865   4.713  1.4401  1.0937 -1.6521
  237MOL0     H32646  11.073   1.907   4.558  0.6311 -2.0813  0.8609
  237MOL0     H32647  11.190   2.123   4.752  0.7231  0.4934  0.0849
  237MOL0     H32648  11.120   2.157   4.599  0.5020  2.1216  2.5986
  237MOL0     H32649  11.375   2.000   4.666  3.3076  2.0379 -2.5115
  237MOL0     H32650  11.293   1.983   4.505  1.6900  0.1497 -0.1506
  237MOL0     H32651  11.396   2.232   4.665  0.7208 -0.9866 -0.1350
  237MOL0     H32652  11.316   2.259   4.512 -0.0553  0.5068 -0.2701
  237MOL0     H32653  11.493   2.100   4.413  1.9122 -2.0250  1.3658
  237MOL0     H32654  11.557   2.257   4.456 -0.9629 -1.3130 -4.2077
  237MOL0     H32655  11.694   2.252   4.713  2.0363 -1.1578  1.5318
  237MOL0     H32656  11.915   2.174   4.799 -0.5983  0.7091  0.4266
  237MOL0     H32657  11.982   2.021   4.758 -0.3314  1.2440 -0.9465
  237MOL0     H32658  11.786   2.116   4.972 -0.2335 -0.8055  1.9010
  237MOL0     H32659  11.807   1.946   4.956 -2.9472  2.6169  1.2825
  237MOL0     H32660  12.044   1.942   5.038  0.6293  0.6887 -1.7492
  237MOL0     H32661  12.057   2.115   5.014 -0.8262  0.9360 -1.4035
  237MOL0     H32662  11.843   2.109   5.192  0.6802  2.1965  0.5654
  237MOL0     H32663  11.937   1.968   5.241  0.2351  1.4404  1.6369
  237MOL0     H32664  12.148   2.328   5.386  0.4563 -0.2495  0.8515
  237MOL0     H32665  12.277   2.395   5.570  0.2835  0.6865  0.5930
  237MOL0     H32666  12.440   2.401   5.502  0.0821 -1.3227 -1.6410
  237MOL0     H32667  12.404   2.286   5.634  1.5392 -0.3596 -1.2305
  237MOL0     H32668  12.789   1.886   5.408  0.3196  0.6439 -0.1089
  237MOL0     H32669  13.002   1.846   5.509  2.1623 -1.6225  2.7243
  237MOL0     H32670  13.100   1.727   5.658 -0.0399  0.4532  0.5588
  237MOL0     H32671  13.213   1.860   5.639 -0.9816 -0.9392 -1.5329
  237MOL0     H32672  13.188   1.665   5.875 -0.5311 -2.9721 -2.5980
  237MOL0     H32673  13.319   1.666   5.768  0.5086  1.3154 -0.2943
  237MOL0     H32674  13.249   1.870   5.974 -0.2543 -1.1109  0.4748
  237MOL0     H32675  13.378   1.911   5.854  0.8825 -1.0673 -1.9569
  237MOL0     H32676  13.481   1.680   5.926 -3.8209 -1.2832 -0.9608
  237MOL0     H32677  13.386   1.703   6.071 -2.8337  1.6416 -1.6474
  237MOL0     H32678  13.591   1.890   5.957  2.6170 -1.5487  1.5371
  237MOL0     H32679  13.493   1.928   6.108  0.0998 -0.2740  0.4499
  237MOL0     H32680  13.670   1.680   6.083 -1.3502 -0.8411  0.9583
  237MOL0     H32681  13.589   1.756   6.226 -1.1020  2.9024  1.1919
  237MOL0     H32682  13.738   1.960   6.115 -1.5129 -0.1240 -0.1392
  237MOL0     H32683  13.847   1.830   6.098 -0.6005 -0.1538 -2.0543
  237MOL0     H32684  13.822   1.771   6.346 -1.5107  0.0613  1.8626
  237MOL0     H32685  13.696   1.890   6.367  1.0131 -1.5339  2.4437
  237MOL0     H32686  12.843   1.969   5.888 -3.1165  4.1475 -0.6453
  237MOL0     H32687  12.625   2.032   5.779 -1.5967 -0.4065  0.5516
  237MOL0     H32688  12.424   1.939   5.299  0.5625  1.4583 -3.3205
  237MOL0     H32689  12.190   1.942   5.206 -0.5805 -0.1895  0.2472
  237MOL0     H32690  10.507   1.861   4.525  0.6637  0.1033 -0.3638
  237MOL0     H32691  10.282   1.805   4.465 -1.6855 -1.3295 -1.5401
  237MOL0     H32692  10.003   1.609   4.201  0.7066  0.6599 -0.3509
  237MOL0     H32693   9.777   1.560   4.104 -1.4307 -2.9816 -1.1927
  237MOL0     H32694   9.581   1.232   4.297  2.3022  1.0857 -1.8200
  237MOL0     H32695   9.473   1.348   4.386 -1.4124  0.2810 -0.6559
  237MOL0     H32696   9.347   1.406   4.207 -0.3770 -0.5952  0.6239
  237MOL0     H32697   9.337   1.237   4.254  1.8690  0.0211  0.4951
  237MOL0     H32698   9.326   1.271   4.002 -1.1883 -2.1311  0.5267
  237MOL0     H32699   9.491   1.333   4.008 -2.2239  1.2611 -0.9519
  237MOL0     H32700   9.522   1.101   4.153  0.7268  0.9897 -0.7869
  237MOL0     H32701   9.521   1.097   3.976 -1.1781  2.7507 -1.5192
  237MOL0     H32702   9.147   0.936   4.049  1.4174 -0.4101 -1.8257
  237MOL0     H32703   9.686   1.390   4.498  0.2666  1.5258  1.7783
  237MOL0     H32704   9.954   1.469   4.665 -0.6934  0.2431 -0.7042
  237MOL0     H32705   9.842   1.340   4.658  0.4979 -0.3132 -0.5626
  237MOL0     H32706  10.002   1.313   4.587  3.2416  2.3580 -0.2165
  238MOL0     O32707   8.050   8.927   3.321  0.0458  0.0700  0.9225
  238MOL0     C32708   7.999   9.001   3.233  0.3012 -0.2645 -1.1051
  238MOL0     O32709   8.055   9.043   3.111 -0.2128  0.2766  0.2561
  238MOL0     C32710   8.196   9.047   3.094  0.3092 -0.1012 -0.1298
  238MOL0     C32711   8.256   9.135   3.184 -0.3865  0.2677  0.3870
  238MOL0     C32712   8.389   9.145   3.175 -0.1816 -0.5927  0.2993
  238MOL0     C32713   8.467   9.076   3.079 -0.1426 -0.1445  0.1180
  238MOL0     O32714   8.593   9.118   3.075 -0.4763 -0.0966 -0.0681
  238MOL0     C32715   8.679   9.024   3.000  0.1778  0.0441  0.1702
  238MOL0     C32716   8.825   9.050   3.042 -0.7443  0.2427  0.4817
  238MOL0     C32717   8.913   8.940   3.004  0.8157 -0.1856  0.2272
  238MOL0     C32718   8.944   8.936   2.854 -0.3974 -0.1693 -0.2431
  238MOL0     C32719   9.019   8.811   2.826 -0.1021 -0.6419  0.2617
  238MOL0     C32720   9.092   8.812   2.689  0.6480 -0.2424  0.5278
  238MOL0     C32721   8.998   8.826   2.566  0.3266 -0.8311 -0.8230
  238MOL0     C32722   8.906   8.703   2.567  0.4060 -0.0774 -0.0697
  238MOL0     N32723   8.966   8.570   2.527  0.5700 -0.6678  0.3222
  238MOL0     C32724   8.908   8.445   2.558 -0.5766 -0.5953 -0.5390
  238MOL0     C32725   9.011   8.353   2.532  0.6477 -0.1562 -0.6873
  238MOL0     C32726   9.022   8.199   2.551  0.2109  0.3800 -0.3271
  238MOL0     C32727   9.117   8.160   2.666  0.4839 -0.0586 -0.3647
  238MOL0     C32728   9.082   8.014   2.701 -0.3070  0.3074  0.7053
  238MOL0     C32729   9.167   7.963   2.815 -0.6339 -0.2144 -0.4046
  238MOL0     O32730   9.306   7.959   2.774 -0.0630  0.2362  0.0421
  238MOL0     C32731   9.404   7.927   2.861 -0.1671  0.6008 -1.0316
  238MOL0     C32732   9.535   7.932   2.816  0.4642 -0.2070  0.0458
  238MOL0     C32733   9.648   7.915   2.903 -0.6138 -0.2254 -0.2872
  238MOL0     C32734   9.789   7.929   2.842 -0.0237 -0.7446 -0.1204
  238MOL0     C32735   9.628   7.872   3.042  1.2591 -0.2582  0.2969
  238MOL0     C32736   9.736   7.837   3.134  0.3755 -0.1819 -1.2373
  238MOL0     O32737   9.706   7.738   3.232  0.1676  0.2624  0.6423
  238MOL0     C32738   9.811   7.675   3.291 -0.1303 -0.8435  1.0891
  238MOL0     C32739   9.876   7.737   3.396 -0.4957  0.3435 -0.6588
  238MOL0     C32740   9.995   7.673   3.447  0.4666 -0.2897  0.0888
  238MOL0     C32741  10.037   7.554   3.397 -0.1288  0.0392 -0.4397
  238MOL0     O32742  10.147   7.506   3.459 -0.5964  0.3074  0.0907
  238MOL0     C32743  10.207   7.380   3.420  0.9273 -0.3223  0.3526
  238MOL0     C32744  10.279   7.400   3.287  0.8687 -0.4037 -0.3004
  238MOL0     C32745  10.360   7.525   3.263 -0.7751 -0.0589 -0.3765
  238MOL0     C32746  10.470   7.512   3.154  1.3208 -0.5290 -0.5550
  238MOL0     C32747  10.577   7.613   3.167 -0.5255 -0.0476  0.0104
  238MOL0     C32748  10.687   7.594   3.060 -0.1156 -0.3452 -0.7657
  238MOL0     C32749  10.807   7.695   3.072  0.4473 -0.1017  0.7355
  238MOL0     C32750  10.766   7.841   3.040  0.0751 -0.9641 -0.6884
  238MOL0    Cl32751  10.901   7.954   3.075  0.2185  0.2696 -0.4146
  238MOL0     C32752   9.967   7.486   3.292  0.0365 -0.3490  0.2620
  238MOL0     C32753   9.854   7.553   3.241  0.8434  0.1881 -0.1629
  238MOL0     O32754   9.851   7.882   3.123 -0.5917  0.8230  0.1513
  238MOL0     C32755   9.490   7.866   3.080  0.5822 -0.7483  0.2800
  238MOL0     C32756   9.381   7.900   2.997 -0.0927 -0.0914 -0.4212
  238MOL0     N32757   9.120   8.430   2.493 -0.1829  0.2502  1.1165
  238MOL0     N32758   9.085   8.549   2.474 -0.8977  0.0685  0.2614
  238MOL0     C32759   8.405   8.995   2.987  0.8011  0.3122  0.2038
  238MOL0     C32760   8.264   8.981   2.995 -1.3237  1.0001  0.4558
  238MOL0     C32761   7.860   9.036   3.250  0.5529 -0.0336  0.1101
  238MOL0     C32762   7.767   8.929   3.223 -0.0248 -0.1802 -0.2018
  238MOL0     C32763   7.628   8.946   3.232 -0.8665 -0.2102  0.4227
  238MOL0     C32764   7.587   9.079   3.266  0.1214 -0.2567  0.7583
  238MOL0     O32765   7.456   9.116   3.274  0.4637  0.3843 -0.3060
  238MOL0     C32766   7.345   9.021   3.269 -0.1727 -0.9814 -0.0792
  238MOL0     C32767   7.313   8.994   3.122  0.6239  0.6946 -1.1456
  238MOL0     C32768   7.186   8.902   3.107 -0.5924  0.1263  0.3114
  238MOL0     C32769   7.083   8.890   3.224 -0.1781  0.2808  0.6369
  238MOL0     C32770   6.962   8.825   3.176 -0.0135 -0.2354 -0.2259
  238MOL0     C32771   6.860   8.766   3.136  0.4159  0.6743  0.1616
  238MOL0     C32772   7.672   9.180   3.298 -0.1441  0.0628  0.5117
  238MOL0     C32773   7.805   9.162   3.289 -0.7561 -0.3599  0.3120
  238MOL0     C32774   7.900   9.276   3.322  0.3039  0.1918 -0.0679
  238MOL0     H32775   8.214   9.208   3.252  1.3606  1.1387  0.5771
  238MOL0     H32776   8.452   9.211   3.234 -0.3522  2.1215 -2.2820
  238MOL0     H32777   8.659   9.036   2.894  0.6212  0.9600  0.1836
  238MOL0     H32778   8.654   8.921   3.028  2.9073 -0.9708 -0.8791
  238MOL0     H32779   8.862   9.145   3.003 -1.6392  0.3221 -0.2143
  238MOL0     H32780   8.835   9.057   3.151  2.2357  0.3729  0.2636
  238MOL0     H32781   9.010   8.958   3.051  1.6650 -1.5881 -0.8993
  238MOL0     H32782   8.872   8.847   3.045  0.9633 -0.9542 -1.2836
  238MOL0     H32783   8.843   8.941   2.812 -0.9559  0.2327  1.0865
  238MOL0     H32784   9.004   9.022   2.824 -1.3222  0.2327 -0.9904
  238MOL0     H32785   8.961   8.718   2.829  0.7213 -1.2085 -0.7279
  238MOL0     H32786   9.098   8.802   2.901 -1.2875  0.0974  1.6564
  238MOL0     H32787   9.161   8.897   2.689  0.8951 -0.4369  0.0779
  238MOL0     H32788   9.145   8.717   2.675  0.1221 -0.5400  0.5239
  238MOL0     H32789   9.054   8.833   2.473 -1.6762 -3.2207 -2.3193
  238MOL0     H32790   8.948   8.924   2.562  4.4124  1.4167 -2.9309
  238MOL0     H32791   8.849   8.696   2.660 -0.7803  3.7119 -0.3710
  238MOL0     H32792   8.825   8.717   2.495 -2.0787 -0.9475  2.3800
  238MOL0     H32793   8.810   8.432   2.602 -1.6183  3.2202 -1.4125
  238MOL0     H32794   9.066   8.163   2.458 -2.2905 -2.1259 -0.7093
  238MOL0     H32795   8.923   8.152   2.563  1.3232 -2.0083  0.1315
  238MOL0     H32796   9.221   8.176   2.639  1.3706  0.7851  3.0673
  238MOL0     H32797   9.089   8.221   2.753 -0.2271 -3.4380  1.9724
  238MOL0     H32798   8.975   8.007   2.724 -1.2135  1.4297 -2.5716
  238MOL0     H32799   9.094   7.956   2.608 -4.1232 -0.1854  0.3550
  238MOL0     H32800   9.148   8.026   2.902 -1.4254 -1.3312  0.2495
  238MOL0     H32801   9.146   7.859   2.842  5.7475 -1.7352  0.3301
  238MOL0     H32802   9.546   7.945   2.708 -0.9822 -1.0267 -0.2309
  238MOL0     H32803   9.790   7.936   2.733  1.9843  0.6727 -0.0634
  238MOL0     H32804   9.849   7.839   2.860 -0.3211 -1.6448 -3.1307
  238MOL0     H32805   9.833   8.019   2.886 -0.8698  0.3003 -1.3467
  238MOL0     H32806   9.828   7.826   3.435 -3.2028 -0.9755 -0.7377
  238MOL0     H32807  10.055   7.723   3.523  1.2453  1.4913 -1.6324
  238MOL0     H32808  10.269   7.351   3.506  1.3345  1.3976  0.6623
  238MOL0     H32809  10.140   7.295   3.400 -0.5318  0.9488 -0.3345
  238MOL0     H32810  10.345   7.313   3.294 -0.0037 -1.0119  0.9562
  238MOL0     H32811  10.209   7.386   3.204 -1.7894 -1.4159  1.9379
  238MOL0     H32812  10.410   7.549   3.357 -0.4641  0.4157 -0.6604
  238MOL0     H32813  10.300   7.612   3.237  2.5506  2.2999 -0.7034
  238MOL0     H32814  10.439   7.518   3.050 -0.7532  1.6854  0.1108
  238MOL0     H32815  10.512   7.414   3.179  0.8349 -0.0711  2.4515
  238MOL0     H32816  10.540   7.714   3.147  1.0301  0.6929  0.6489
  238MOL0     H32817  10.618   7.613   3.268 -2.1896 -1.6996  0.7361
  238MOL0     H32818  10.650   7.601   2.957 -1.3522 -1.2700 -0.4152
  238MOL0     H32819  10.729   7.493   3.065 -0.3052 -0.4966 -1.9322
  238MOL0     H32820  10.879   7.649   3.005 -1.2186 -1.9366  0.0966
  238MOL0     H32821  10.844   7.690   3.175 -0.1285  1.6764  1.0614
  238MOL0     H32822  10.675   7.856   3.098 -0.2855  1.2128 -1.7248
  238MOL0     H32823  10.749   7.850   2.933  2.2999 -3.2390 -1.3325
  238MOL0     H32824   9.990   7.384   3.262 -0.4859 -0.9718  1.8788
  238MOL0     H32825   9.792   7.500   3.170  0.1713 -0.5498  0.9574
  238MOL0     H32826   9.484   7.846   3.187  0.9755  2.7313  1.0759
  238MOL0     H32827   9.281   7.884   3.036  1.2132  0.3920  3.5791
  238MOL0     H32828   8.461   8.935   2.916  1.2771  3.3791 -2.2344
  238MOL0     H32829   8.209   8.911   2.933 -1.3655 -0.1011  1.6783
  238MOL0     H32830   7.804   8.832   3.193  7.7805  1.8072  0.7913
  238MOL0     H32831   7.552   8.877   3.195 -1.7318  0.1500  1.4674
  238MOL0     H32832   7.361   8.923   3.315 -2.0494 -1.0510  0.4773
  238MOL0     H32833   7.259   9.064   3.321 -1.1704 -0.7405 -1.8353
  238MOL0     H32834   7.401   8.949   3.075  1.2379  0.0632  0.5468
  238MOL0     H32835   7.290   9.086   3.066  1.9793  1.8310  0.0622
  238MOL0     H32836   7.138   8.938   3.016 -0.4288  0.6815  0.4439
  238MOL0     H32837   7.233   8.803   3.103  3.3387  1.8127  0.6202
  238MOL0     H32838   7.073   8.990   3.268  2.0446 -0.2452  2.5421
  238MOL0     H32839   7.122   8.825   3.303 -1.2835 -2.3837 -0.8879
  238MOL0     H32840   6.772   8.714   3.103 -2.4202  2.3784  4.2169
  238MOL0     H32841   7.635   9.274   3.337 -4.6678 -1.2260 -0.1722
  238MOL0     H32842   8.002   9.241   3.342  0.5937  0.2622 -1.3620
  238MOL0     H32843   7.906   9.346   3.238 -1.1002 -2.3585 -2.4724
  238MOL0     H32844   7.860   9.325   3.411  0.7719  1.8211 -0.7098
  239MOL0     O32845   2.626   8.143   4.149 -0.0146  0.0385  0.5860
  239MOL0     C32846   2.610   8.118   4.267 -0.9855 -0.3741  0.3049
  239MOL0     O32847   2.712   8.071   4.342  0.1790 -0.0793  0.0851
  239MOL0     C32848   2.830   8.049   4.280  0.1696 -0.6743  0.5004
  239MOL0     C32849   2.933   8.151   4.291  0.5046  0.0882 -0.7005
  239MOL0     C32850   3.058   8.125   4.223  0.0653  0.3314  0.6165
  239MOL0     C32851   3.071   8.015   4.139  0.0370  0.0175 -0.0130
  239MOL0     O32852   3.179   8.014   4.053  0.1204  0.3655  0.5947
  239MOL0     C32853   3.181   7.921   3.940 -0.8733  0.5738 -0.1209
  239MOL0     C32854   3.311   7.944   3.856 -0.0560 -0.5834  0.2458
  239MOL0     C32855   3.448   7.903   3.921  1.1738 -0.5730  0.5325
  239MOL0     C32856   3.559   7.913   3.822 -0.7217  0.1201 -0.6362
  239MOL0     C32857   3.694   7.874   3.886  0.0465 -0.2573 -0.8702
  239MOL0     C32858   3.791   7.888   3.763 -0.1732  0.8914 -0.9773
  239MOL0     C32859   3.939   7.877   3.813  0.0035  0.4738  0.5465
  239MOL0     C32860   4.042   7.872   3.701  0.5509 -0.4493 -0.2706
  239MOL0     N32861   4.180   7.887   3.734 -0.4977 -0.3256 -0.9795
  239MOL0     C32862   4.288   7.807   3.697 -0.6339 -0.5252  0.6427
  239MOL0     C32863   4.395   7.856   3.760 -0.7836 -0.6860 -0.2593
  239MOL0     C32864   4.536   7.809   3.746  0.2508  0.1487 -0.2893
  239MOL0     C32865   4.630   7.925   3.731 -0.0506  0.3690 -0.0175
  239MOL0     C32866   4.779   7.881   3.719 -0.2102  0.1817 -0.2989
  239MOL0     C32867   4.842   7.823   3.846  0.1780  0.6247  0.4695
  239MOL0     O32868   4.843   7.912   3.954 -0.3227  0.4549  0.6203
  239MOL0     C32869   4.935   8.014   3.954  1.0841  0.2715  0.7408
  239MOL0     C32870   4.919   8.101   4.061 -0.9640  0.8901  0.7059
  239MOL0     C32871   5.002   8.206   4.078 -0.0762  0.4056 -0.1134
  239MOL0     C32872   4.962   8.292   4.194  0.9736 -0.4780 -0.3464
  239MOL0     C32873   5.092   8.244   3.988 -0.2935 -0.4456  0.0355
  239MOL0     C32874   5.182   8.368   4.007 -0.2433  0.4397 -0.2455
  239MOL0     O32875   5.209   8.387   4.140 -0.0721 -0.2702  0.4897
  239MOL0     C32876   5.318   8.464   4.183  0.9986 -0.4123 -0.0841
  239MOL0     C32877   5.301   8.495   4.320 -1.1561  0.2598  0.5326
  239MOL0     C32878   5.399   8.557   4.396  1.0042 -0.8509 -0.4027
  239MOL0     C32879   5.508   8.616   4.331 -0.1463 -0.3608  0.2603
  239MOL0     O32880   5.605   8.694   4.387  0.7114 -0.2947 -0.6937
  239MOL0     C32881   5.576   8.782   4.505 -0.4647 -0.7330 -0.1852
  239MOL0     C32882   5.708   8.845   4.545  0.3318 -0.3289  0.3144
  239MOL0     C32883   5.825   8.749   4.542 -0.0374 -0.7933 -0.8821
  239MOL0     C32884   5.952   8.816   4.605 -1.6250  0.0377 -0.4111
  239MOL0     C32885   6.070   8.716   4.595  0.5295 -0.2437 -0.3335
  239MOL0     C32886   6.207   8.780   4.604 -0.8256  0.2939 -0.1147
  239MOL0     C32887   6.329   8.695   4.583  0.3461 -0.2100  0.0001
  239MOL0     C32888   6.448   8.791   4.575  0.5030  0.2409 -0.4069
  239MOL0    Cl32889   6.614   8.707   4.573 -0.2030  0.3497  0.2966
  239MOL0     C32890   5.524   8.597   4.194  0.6141 -0.1015  0.0310
  239MOL0     C32891   5.430   8.518   4.121 -0.0722 -0.8143  0.4632
  239MOL0     O32892   5.213   8.434   3.915  0.1023 -0.3229  0.4131
  239MOL0     C32893   5.108   8.166   3.874 -0.1536  0.3083  0.4119
  239MOL0     C32894   5.030   8.049   3.860 -0.1321 -1.4764  0.1364
  239MOL0     N32895   4.358   7.970   3.827  0.3508  0.8657 -0.2536
  239MOL0     N32896   4.232   7.990   3.808 -0.1831 -0.5942  0.2959
  239MOL0     C32897   2.964   7.916   4.137 -0.3210 -0.0989  0.1535
  239MOL0     C32898   2.853   7.932   4.211 -0.2004 -0.2531  0.4394
  239MOL0     C32899   2.483   8.112   4.335  0.3659  1.0429 -1.0198
  239MOL0     C32900   2.480   8.161   4.472 -0.3036 -0.2089 -0.5575
  239MOL0     C32901   2.360   8.161   4.548 -0.5291  0.0703  0.9307
  239MOL0     C32902   2.236   8.134   4.484  0.0673 -0.0530 -0.1092
  239MOL0     O32903   2.114   8.150   4.536  0.0820  0.4877 -0.7853
  239MOL0     C32904   2.089   8.262   4.631 -0.0169 -0.4715  0.7732
  239MOL0     C32905   2.046   8.397   4.570 -0.1660  0.7532 -0.4254
  239MOL0     C32906   1.926   8.390   4.470 -0.5438  0.5066 -0.1027
  239MOL0     C32907   1.802   8.320   4.515  1.3028  0.2793 -0.3332
  239MOL0     C32908   1.764   8.354   4.649  0.4579 -0.2225  0.1757
  239MOL0     C32909   1.724   8.395   4.751  0.1959 -0.0710  0.3183
  239MOL0     C32910   2.238   8.100   4.350 -0.7425 -0.8577 -0.9501
  239MOL0     C32911   2.355   8.082   4.276 -0.1868  0.1099 -0.4554
  239MOL0     C32912   2.344   8.026   4.139  0.2683  0.8153  0.0751
  239MOL0     H32913   2.912   8.240   4.349  0.0740 -0.7523  0.4748
  239MOL0     H32914   3.136   8.200   4.226  0.1740  0.2430  0.1389
  239MOL0     H32915   3.094   7.927   3.874 -0.2463  1.8887 -0.8568
  239MOL0     H32916   3.184   7.818   3.978 -2.6689  1.7098  3.5515
  239MOL0     H32917   3.293   7.905   3.756 -4.1928  1.1228  0.1282
  239MOL0     H32918   3.320   8.053   3.851  0.2361 -0.5871  0.5843
  239MOL0     H32919   3.462   7.956   4.015  0.6748 -0.8688  0.7785
  239MOL0     H32920   3.449   7.799   3.956 -1.2280 -0.4168  1.2165
  239MOL0     H32921   3.541   7.852   3.733  0.5285 -0.9383 -0.2081
  239MOL0     H32922   3.583   8.014   3.789 -4.4970  2.1557  2.1406
  239MOL0     H32923   3.700   7.780   3.942 -0.7173  0.9955  1.4306
  239MOL0     H32924   3.711   7.954   3.959 -3.2335  1.5478 -1.8923
  239MOL0     H32925   3.765   7.806   3.696 -2.5916  0.0323  0.8945
  239MOL0     H32926   3.785   7.983   3.709 -0.8597 -0.2640 -3.0274
  239MOL0     H32927   3.957   7.784   3.867 -0.8326  0.4609  0.8147
  239MOL0     H32928   3.955   7.957   3.885 -0.2910  0.3744  0.7200
  239MOL0     H32929   4.022   7.781   3.643  2.0329 -1.9617  1.4447
  239MOL0     H32930   4.017   7.957   3.637  2.7686  0.6079  0.1878
  239MOL0     H32931   4.288   7.714   3.641 -2.0447  0.8550 -1.8626
  239MOL0     H32932   4.540   7.737   3.664 -0.5141  0.1750 -0.3534
  239MOL0     H32933   4.572   7.760   3.837 -0.5271  0.5057  0.2187
  239MOL0     H32934   4.595   7.976   3.640 -0.7111  0.5913  0.3514
  239MOL0     H32935   4.623   7.991   3.818  0.3814  0.8012 -0.3021
  239MOL0     H32936   4.800   7.798   3.652 -1.4992  0.2924 -0.8664
  239MOL0     H32937   4.846   7.960   3.685 -0.0124  0.3036  0.3574
  239MOL0     H32938   4.777   7.742   3.878 -2.3110  3.1806  2.4267
  239MOL0     H32939   4.943   7.782   3.837  0.1796  0.6376  0.4245
  239MOL0     H32940   4.848   8.060   4.132 -1.3666  0.8275  0.2725
  239MOL0     H32941   4.936   8.397   4.174  0.7571 -0.1498  1.4316
  239MOL0     H32942   5.045   8.297   4.265 -1.4589  3.2417  2.6819
  239MOL0     H32943   4.871   8.256   4.244  0.5263  1.3426  0.2454
  239MOL0     H32944   5.215   8.462   4.376 -0.7953 -0.8524  0.4571
  239MOL0     H32945   5.383   8.561   4.503  1.5873  1.7647 -0.3393
  239MOL0     H32946   5.517   8.868   4.472 -0.5511 -0.2179  1.2296
  239MOL0     H32947   5.532   8.722   4.586 -1.5516  0.5711  0.2321
  239MOL0     H32948   5.726   8.931   4.480 -3.4144 -0.4146 -1.0220
  239MOL0     H32949   5.702   8.892   4.644 -0.3667 -1.1114  0.6503
  239MOL0     H32950   5.849   8.719   4.440  1.8110 -1.3395 -0.3298
  239MOL0     H32951   5.795   8.658   4.594 -2.3494  0.1618 -0.3911
  239MOL0     H32952   5.938   8.847   4.709 -1.3193  2.8252 -1.1172
  239MOL0     H32953   5.981   8.906   4.551 -2.9505  1.3949  1.0020
  239MOL0     H32954   6.061   8.638   4.671 -0.0525  0.4705  0.3603
  239MOL0     H32955   6.069   8.662   4.500 -2.6689 -1.4916  0.2827
  239MOL0     H32956   6.213   8.851   4.687 -0.0179  2.0051 -1.5754
  239MOL0     H32957   6.210   8.849   4.519 -0.4854 -1.3187 -1.4706
  239MOL0     H32958   6.308   8.644   4.488 -0.4963 -1.7112  0.9400
  239MOL0     H32959   6.351   8.623   4.662  3.5094  0.4770 -0.1348
  239MOL0     H32960   6.446   8.851   4.666  1.1429  2.2189 -1.6304
  239MOL0     H32961   6.462   8.860   4.491  4.6762  2.1986  1.5802
  239MOL0     H32962   5.613   8.627   4.139  0.4534 -1.8386 -1.2619
  239MOL0     H32963   5.449   8.495   4.016 -1.8613 -0.7242  0.0931
  239MOL0     H32964   5.178   8.190   3.795 -0.9154 -1.9974 -1.0562
  239MOL0     H32965   5.060   7.993   3.772  0.8108  0.5378 -0.8911
  239MOL0     H32966   2.963   7.825   4.079 -0.9552  0.7657 -1.2564
  239MOL0     H32967   2.783   7.850   4.217  0.3685 -0.6460  4.5587
  239MOL0     H32968   2.572   8.203   4.511  0.0378 -1.1963 -0.2701
  239MOL0     H32969   2.367   8.203   4.648  3.3138 -0.6005  1.1060
  239MOL0     H32970   2.006   8.236   4.697 -0.3018 -0.0952  0.5639
  239MOL0     H32971   2.176   8.271   4.697  2.1549 -2.3351 -1.6268
  239MOL0     H32972   2.137   8.425   4.516  1.8044 -0.3314  2.0821
  239MOL0     H32973   2.030   8.471   4.648  0.1130 -0.4515  0.8173
  239MOL0     H32974   1.898   8.494   4.453  2.0421  1.1960 -0.6850
  239MOL0     H32975   1.965   8.347   4.377  0.1807  0.6891  0.1052
  239MOL0     H32976   1.807   8.211   4.505 -0.0629  0.1790 -0.1260
  239MOL0     H32977   1.722   8.352   4.448 -0.1813  0.7436  1.5926
  239MOL0     H32978   1.691   8.448   4.838  0.0273  0.6901 -0.1997
  239MOL0     H32979   2.146   8.080   4.297 -0.7052 -0.1050 -1.3022
  239MOL0     H32980   2.243   7.990   4.116  0.5241  0.8412 -1.1975
  239MOL0     H32981   2.369   8.104   4.065  0.3286 -0.5467 -1.3940
  239MOL0     H32982   2.414   7.942   4.135  1.8647  1.9222  2.4918
  240MOL0     O32983   0.908   4.135   9.784  0.2776  0.3850 -0.6140
  240MOL0     C32984   0.841   4.225   9.730  0.8021 -0.3750 -0.1833
  240MOL0     O32985   0.882   4.302   9.622 -0.6035 -0.1665  0.1574
  240MOL0     C32986   1.013   4.323   9.598 -0.3363  0.1887  0.1660
  240MOL0     C32987   1.048   4.388   9.473  0.1825  0.2118 -0.1768
  240MOL0     C32988   1.185   4.423   9.449  0.2829  0.0193  0.0733
  240MOL0     C32989   1.282   4.399   9.544  0.1786 -0.4690  0.5014
  240MOL0     O32990   1.414   4.416   9.521 -0.0243  0.2397  0.4211
  240MOL0     C32991   1.466   4.507   9.422  0.3409 -0.1341  0.0015
  240MOL0     C32992   1.614   4.532   9.454  0.8414 -0.4151  0.9375
  240MOL0     C32993   1.675   4.629   9.357  0.0038 -0.8182 -0.2205
  240MOL0     C32994   1.821   4.627   9.368  0.1379 -0.0066  0.2712
  240MOL0     C32995   1.904   4.714   9.271  0.1796 -0.3854 -0.3202
  240MOL0     C32996   2.053   4.726   9.316  0.8882  0.5351  0.4710
  240MOL0     C32997   2.125   4.825   9.225  0.7093 -0.3473 -0.6388
  240MOL0     C32998   2.257   4.878   9.291 -0.6545  0.0351 -0.2781
  240MOL0     N32999   2.341   4.974   9.207  0.5877  0.7239 -0.2581
  240MOL0     C33000   2.407   4.938   9.091 -0.1471  0.0781 -0.1024
  240MOL0     C33001   2.460   5.049   9.033  0.1693 -0.5044 -0.6506
  240MOL0     C33002   2.541   5.071   8.906 -0.1518 -0.0603  0.3059
  240MOL0     C33003   2.683   5.006   8.904 -0.1653 -0.1138  0.3391
  240MOL0     C33004   2.747   5.009   8.760  0.1408  0.1327 -1.4695
  240MOL0     C33005   2.886   4.948   8.752  0.8154  0.5344  0.6655
  240MOL0     O33006   2.988   5.019   8.821 -0.6075 -0.3452  0.2521
  240MOL0     C33007   3.117   5.008   8.785  0.5087 -0.5074  0.9005
  240MOL0     C33008   3.153   4.913   8.691 -0.0190 -0.4769 -0.6155
  240MOL0     C33009   3.289   4.907   8.643  0.1759  0.3637 -0.4212
  240MOL0     C33010   3.313   4.816   8.524  1.0565  1.4692 -0.3284
  240MOL0     C33011   3.385   5.003   8.682  0.5904 -0.7210 -0.7295
  240MOL0     C33012   3.532   5.015   8.636  0.4701  0.4683  0.6675
  240MOL0     O33013   3.600   5.128   8.673  0.2859  0.0104  0.3831
  240MOL0     C33014   3.735   5.142   8.641  0.1307  0.8038  0.2217
  240MOL0     C33015   3.775   5.264   8.591 -0.6764 -0.1346  0.5096
  240MOL0     C33016   3.911   5.291   8.562  0.6913  0.4227  0.4449
  240MOL0     C33017   4.000   5.186   8.566 -0.2167 -0.5830  0.0573
  240MOL0     O33018   4.121   5.220   8.511  0.1532 -0.0378  0.2304
  240MOL0     C33019   4.237   5.126   8.531  0.6476 -0.1290 -0.4204
  240MOL0     C33020   4.352   5.212   8.482 -1.0877 -0.0782  0.0833
  240MOL0     C33021   4.363   5.239   8.343 -0.6815 -0.6528  0.0317
  240MOL0     C33022   4.393   5.112   8.259 -0.1124 -0.8107  0.9390
  240MOL0     C33023   4.344   5.135   8.116 -0.1324 -0.4121 -0.0113
  240MOL0     C33024   4.215   5.049   8.078 -0.2790 -0.0256  0.1755
  240MOL0     C33025   4.102   5.053   8.181 -0.7183 -0.1064  0.0919
  240MOL0     C33026   3.972   4.991   8.116 -0.1982 -0.6637  0.0824
  240MOL0    Cl33027   3.914   5.085   7.983 -0.3560  0.6858 -0.1767
  240MOL0     C33028   3.964   5.058   8.611 -0.2363 -0.0753 -0.3973
  240MOL0     C33029   3.833   5.037   8.652  0.3236 -0.5499  0.7264
  240MOL0     O33030   3.580   4.921   8.571 -0.0682 -0.3611  0.0491
  240MOL0     C33031   3.349   5.102   8.772 -0.0056 -0.1209 -0.0148
  240MOL0     C33032   3.220   5.101   8.823 -0.6200 -0.0384 -0.4365
  240MOL0     N33033   2.419   5.152   9.120  0.1992  0.6453 -0.0438
  240MOL0     N33034   2.353   5.105   9.226  0.2464 -0.7176 -0.3162
  240MOL0     C33035   1.247   4.342   9.669 -0.1587 -0.9255 -0.3461
  240MOL0     C33036   1.119   4.299   9.692 -0.2537 -0.0083  0.4081
  240MOL0     C33037   0.688   4.247   9.762 -0.3160 -0.6890 -0.2230
  240MOL0     C33038   0.602   4.312   9.668  1.3909  0.2660  0.6400
  240MOL0     C33039   0.462   4.341   9.692 -0.2964  0.7097  0.0091
  240MOL0     C33040   0.409   4.300   9.820 -0.8317 -0.7546  0.0887
  240MOL0     O33041   0.276   4.305   9.858  0.1248 -0.7615  0.1506
  240MOL0     C33042   0.190   4.381   9.777  0.3267  0.8129  0.5340
  240MOL0     C33043   0.139   4.264   9.682  0.0877 -0.0276  0.2538
  240MOL0     C33044   0.048   4.325   9.577  0.4589 -0.3580 -0.1869
  240MOL0     C33045   0.010   4.205   9.483  0.5521  0.6079  0.0602
  240MOL0     C33046  -0.041   4.258   9.360  0.1275  0.2452  0.3933
  240MOL0     C33047  -0.091   4.310   9.267 -0.0789 -0.3420  0.7046
  240MOL0     C33048   0.492   4.236   9.909  0.5142  0.1742 -0.7465
  240MOL0     C33049   0.627   4.204   9.887  0.0879 -0.2789 -0.0220
  240MOL0     C33050   0.700   4.134  10.002 -0.1782 -0.1627  0.0733
  240MOL0     H33051   0.973   4.425   9.403  0.0116 -0.8383 -0.5602
  240MOL0     H33052   1.220   4.470   9.358 -0.9375  0.6964 -0.0728
  240MOL0     H33053   1.411   4.601   9.419 -0.8669 -0.8344 -2.2078
  240MOL0     H33054   1.465   4.462   9.322  4.4475  0.4351 -0.4853
  240MOL0     H33055   1.618   4.584   9.550  1.2691  0.1719  0.6061
  240MOL0     H33056   1.671   4.439   9.469  0.5783 -0.7410 -0.0198
  240MOL0     H33057   1.652   4.601   9.253 -0.6557  0.8232 -0.5455
  240MOL0     H33058   1.640   4.730   9.378  1.0437 -0.8632  1.9542
  240MOL0     H33059   1.853   4.650   9.470 -0.9844  1.5877  0.2985
  240MOL0     H33060   1.856   4.525   9.348 -0.2324 -0.2098  0.6379
  240MOL0     H33061   1.854   4.810   9.264  1.6870  0.5913  1.4872
  240MOL0     H33062   1.895   4.656   9.178 -1.7451 -0.4518 -0.1315
  240MOL0     H33063   2.062   4.740   9.424  2.4124  0.0329  0.4285
  240MOL0     H33064   2.099   4.629   9.299 -0.7586 -0.1452 -0.3450
  240MOL0     H33065   2.060   4.913   9.211  1.1694 -0.1909 -1.8461
  240MOL0     H33066   2.142   4.786   9.125  0.9459  1.1729 -1.2305
  240MOL0     H33067   2.235   4.933   9.382 -0.5533 -0.9801  0.3804
  240MOL0     H33068   2.321   4.791   9.308 -0.5189  0.2812  0.4816
  240MOL0     H33069   2.425   4.836   9.056 -1.1880 -0.2302  0.2244
  240MOL0     H33070   2.544   5.179   8.890 -1.1762 -0.1139 -0.3130
  240MOL0     H33071   2.490   5.028   8.819  0.4808 -1.3776  0.5548
  240MOL0     H33072   2.749   5.070   8.963  0.3841  1.7601 -2.1668
  240MOL0     H33073   2.681   4.904   8.943 -0.9625  0.3476  1.5739
  240MOL0     H33074   2.684   4.961   8.685  0.5065 -0.8319 -1.1790
  240MOL0     H33075   2.758   5.112   8.726  0.6566  0.5854 -0.0076
  240MOL0     H33076   2.873   4.845   8.789  0.1404  0.6083  0.6495
  240MOL0     H33077   2.903   4.953   8.644  2.2339 -2.6195  0.6358
  240MOL0     H33078   3.078   4.840   8.660  0.9410 -3.3893  3.2013
  240MOL0     H33079   3.392   4.741   8.536 -0.6092 -0.0712  1.8709
  240MOL0     H33080   3.336   4.870   8.432  0.1499  1.7535 -0.3965
  240MOL0     H33081   3.224   4.754   8.510  3.0258 -1.4868 -0.9198
  240MOL0     H33082   3.702   5.339   8.561  1.3273  0.2257 -4.4084
  240MOL0     H33083   3.949   5.383   8.519  1.4164 -0.2338 -0.3482
  240MOL0     H33084   4.255   5.100   8.636 -1.6349  1.9986  0.6155
  240MOL0     H33085   4.228   5.035   8.472  0.6117 -0.2729 -0.1944
  240MOL0     H33086   4.343   5.301   8.545 -2.7045  0.0485 -0.2960
  240MOL0     H33087   4.446   5.178   8.527 -0.8517  0.8708  0.3171
  240MOL0     H33088   4.434   5.321   8.327 -3.3790  2.1835  1.4472
  240MOL0     H33089   4.266   5.281   8.315 -0.1611  0.7077  0.1878
  240MOL0     H33090   4.357   5.017   8.299  1.2069 -2.0867 -0.7839
  240MOL0     H33091   4.499   5.093   8.247  0.0207  0.9641 -1.2892
  240MOL0     H33092   4.326   5.239   8.088 -0.4575 -0.7710 -1.1751
  240MOL0     H33093   4.427   5.096   8.055  0.5539  0.0473  0.6080
  240MOL0     H33094   4.236   4.942   8.070 -0.5510 -0.1902  1.4165
  240MOL0     H33095   4.183   5.078   7.978 -0.9395 -0.9567  0.1090
  240MOL0     H33096   4.085   5.156   8.213 -0.9168  0.2449 -1.0933
  240MOL0     H33097   4.128   4.992   8.268  0.4946  0.4429  0.1384
  240MOL0     H33098   3.903   4.985   8.200  2.3709 -1.1713  2.2781
  240MOL0     H33099   3.981   4.890   8.074 -1.5223 -0.0573 -1.8110
  240MOL0     H33100   4.039   4.980   8.609  0.1175  0.2667 -0.4354
  240MOL0     H33101   3.792   4.943   8.688  0.7642 -2.3489 -3.0289
  240MOL0     H33102   3.410   5.186   8.801  1.7729 -1.4255  0.1879
  240MOL0     H33103   3.199   5.185   8.888 -0.1399  0.8745 -1.4414
  240MOL0     H33104   1.324   4.324   9.743 -0.0688 -0.6202 -0.3661
  240MOL0     H33105   1.107   4.266   9.795  1.2945  2.3836  1.4196
  240MOL0     H33106   0.640   4.349   9.573 -1.1481  2.1231  0.2300
  240MOL0     H33107   0.409   4.397   9.616  0.5186 -2.9735 -3.5774
  240MOL0     H33108   0.097   4.427   9.813 -1.9731 -2.4245 -0.8925
  240MOL0     H33109   0.248   4.457   9.724  0.1294  0.0420 -0.8190
  240MOL0     H33110   0.089   4.190   9.745  1.0482 -0.3042  0.7006
  240MOL0     H33111   0.222   4.219   9.628  1.5399 -1.4679  3.4173
  240MOL0     H33112  -0.039   4.358   9.634 -0.9900 -1.7907 -1.4663
  240MOL0     H33113   0.108   4.404   9.530 -0.5620  0.3982 -0.2529
  240MOL0     H33114  -0.069   4.151   9.537 -1.1844  1.5497 -1.3947
  240MOL0     H33115   0.094   4.137   9.469  0.7956  0.5720  1.5226
  240MOL0     H33116  -0.149   4.354   9.189  0.1591  3.4439  2.4243
  240MOL0     H33117   0.454   4.192  10.001  1.0030  1.5061  0.1288
  240MOL0     H33118   0.769   4.196  10.060 -2.5952  0.9633  1.9472
  240MOL0     H33119   0.630   4.093  10.075  0.1123 -0.2139  0.3196
  240MOL0     H33120   0.752   4.044   9.967  1.3830  0.4843  0.6329
  241MOL0     O33121   6.369   5.403   8.413  0.1051 -0.6232 -0.0823
  241MOL0     C33122   6.365   5.464   8.521 -0.0896  0.5070 -0.0212
  241MOL0     O33123   6.469   5.517   8.589  0.1626 -0.0120  0.5304
  241MOL0     C33124   6.590   5.515   8.528  0.0132  0.3670  0.3864
  241MOL0     C33125   6.675   5.400   8.533  0.3432 -0.5125  0.1323
  241MOL0     C33126   6.798   5.395   8.475  0.2639 -0.2998 -0.3463
  241MOL0     C33127   6.855   5.509   8.422 -0.4032 -0.2302 -0.2086
  241MOL0     O33128   6.975   5.506   8.366 -0.3163 -0.3066 -0.3021
  241MOL0     C33129   6.988   5.412   8.264 -1.0380  0.2636 -0.2398
  241MOL0     C33130   7.132   5.378   8.237 -1.2997 -0.2123 -0.3376
  241MOL0     C33131   7.211   5.318   8.356 -0.3938  0.5013  0.7042
  241MOL0     C33132   7.342   5.246   8.302 -0.0605 -0.5693 -0.0147
  241MOL0     C33133   7.385   5.158   8.418 -0.4187 -0.1183  0.3745
  241MOL0     C33134   7.525   5.096   8.389  0.9783 -0.3962  0.3476
  241MOL0     C33135   7.588   5.035   8.509 -0.5867  0.2318 -0.0423
  241MOL0     C33136   7.513   4.912   8.564  0.0230 -0.2019 -0.5536
  241MOL0     N33137   7.491   4.803   8.467  0.9264  0.0009 -0.7512
  241MOL0     C33138   7.409   4.695   8.509 -0.2069  0.7588  0.7262
  241MOL0     C33139   7.432   4.597   8.407  0.4892 -0.1538  0.2049
  241MOL0     C33140   7.376   4.458   8.406 -0.2361 -0.4757  0.2468
  241MOL0     C33141   7.497   4.360   8.424  0.1966  0.4060  0.5965
  241MOL0     C33142   7.545   4.353   8.570  0.6237 -0.7008 -0.0661
  241MOL0     C33143   7.695   4.319   8.577  0.5607 -0.5413 -0.4076
  241MOL0     O33144   7.713   4.180   8.538  0.2301  0.4186  0.1240
  241MOL0     C33145   7.816   4.108   8.607 -0.5238 -0.4699  0.2656
  241MOL0     C33146   7.796   3.974   8.637  1.0923  0.2997  0.1696
  241MOL0     C33147   7.892   3.885   8.698  1.2878 -0.1927  0.0017
  241MOL0     C33148   7.830   3.757   8.739 -0.2698  0.4894  0.0087
  241MOL0     C33149   8.025   3.932   8.726 -0.5148  0.6448  0.4838
  241MOL0     C33150   8.123   3.849   8.795 -0.3176  0.3738  0.1650
  241MOL0     O33151   8.209   3.918   8.877 -0.6618  0.5606  0.9373
  241MOL0     C33152   8.315   3.854   8.939 -0.4200  0.2730 -0.1803
  241MOL0     C33153   8.292   3.739   9.012  0.2793 -0.3975 -0.2287
  241MOL0     C33154   8.401   3.687   9.081 -0.1596  0.0052  0.1860
  241MOL0     C33155   8.531   3.743   9.075  0.1434 -0.0475 -0.3951
  241MOL0     O33156   8.632   3.679   9.145 -0.5424  0.8830  0.0141
  241MOL0     C33157   8.772   3.720   9.141  0.2074 -0.1911  0.0087
  241MOL0     C33158   8.853   3.630   9.231  0.5254  0.4358  0.0898
  241MOL0     C33159   9.001   3.612   9.188 -0.0811  0.0960  0.0296
  241MOL0     C33160   9.080   3.579   9.313 -0.3014 -0.6359  0.5551
  241MOL0     C33161   9.231   3.553   9.282  0.0719 -0.2161  1.1969
  241MOL0     C33162   9.309   3.481   9.397  0.1549 -0.1611  0.6982
  241MOL0     C33163   9.375   3.573   9.505  0.5568  0.1763 -0.6341
  241MOL0     C33164   9.503   3.629   9.462  0.4398 -0.0588  0.3655
  241MOL0    Cl33165   9.497   3.790   9.388 -0.1307  0.2873  0.1162
  241MOL0     C33166   8.545   3.850   8.987 -0.6277 -0.0623  0.5526
  241MOL0     C33167   8.439   3.895   8.918  0.3105  0.5496 -0.1901
  241MOL0     O33168   8.130   3.729   8.760  0.5475 -0.0287  0.7687
  241MOL0     C33169   8.041   4.072   8.712 -0.6219  0.1709  0.8226
  241MOL0     C33170   7.943   4.157   8.664  0.8897 -0.4220  0.3578
  241MOL0     N33171   7.530   4.644   8.324 -0.1479  0.1932  0.8310
  241MOL0     N33172   7.571   4.756   8.366  0.2590 -0.5804 -0.5144
  241MOL0     C33173   6.786   5.630   8.423  0.4850  0.6822 -0.2438
  241MOL0     C33174   6.652   5.623   8.469  0.2327  0.4002  0.1105
  241MOL0     C33175   6.240   5.457   8.598 -0.2229  0.0843  0.1575
  241MOL0     C33176   6.218   5.546   8.705  0.0975 -0.6611 -0.8080
  241MOL0     C33177   6.108   5.558   8.786  0.2217  0.0663 -0.1748
  241MOL0     C33178   6.004   5.471   8.764  0.6238 -0.0392 -0.2132
  241MOL0     O33179   5.886   5.473   8.840  0.0887 -0.3585  0.5992
  241MOL0     C33180   5.902   5.523   8.976  0.3492  0.3777  0.6459
  241MOL0     C33181   5.764   5.490   9.031 -0.3332  0.0629  0.3301
  241MOL0     C33182   5.710   5.567   9.157 -0.5846  0.4060 -0.4144
  241MOL0     C33183   5.597   5.502   9.241  0.2201 -0.2904 -0.3690
  241MOL0     C33184   5.469   5.579   9.235 -0.5827 -0.6421 -0.4546
  241MOL0     C33185   5.371   5.648   9.257 -0.4348  0.1800 -0.6984
  241MOL0     C33186   6.011   5.392   8.643  0.9320 -0.1082 -0.4753
  241MOL0     C33187   6.133   5.384   8.568  0.3308 -0.6376  0.2961
  241MOL0     C33188   6.116   5.301   8.443 -0.2253 -0.3567 -0.2360
  241MOL0     H33189   6.628   5.313   8.580 -0.3866 -0.3506 -0.2779
  241MOL0     H33190   6.839   5.295   8.486 -0.1728 -0.1950  3.6496
  241MOL0     H33191   6.958   5.444   8.164  0.0466  2.8410  0.1888
  241MOL0     H33192   6.931   5.321   8.286  0.1195 -0.1079  1.3892
  241MOL0     H33193   7.141   5.297   8.163  2.9997 -0.7616  0.4803
  241MOL0     H33194   7.177   5.468   8.195  1.0276  1.0023  4.1649
  241MOL0     H33195   7.244   5.394   8.427  1.7113 -0.4192  0.7597
  241MOL0     H33196   7.146   5.247   8.408 -0.3054  1.1889  1.7778
  241MOL0     H33197   7.328   5.191   8.208 -0.3606 -1.3835  0.4951
  241MOL0     H33198   7.421   5.317   8.276 -0.5657 -0.5598 -1.6089
  241MOL0     H33199   7.312   5.077   8.424  0.1779 -0.7598 -0.6356
  241MOL0     H33200   7.384   5.219   8.509  0.0184 -0.7887  0.8363
  241MOL0     H33201   7.508   5.018   8.314 -0.2411 -2.0821  2.2420
  241MOL0     H33202   7.591   5.170   8.344  0.7811  1.2953  2.6130
  241MOL0     H33203   7.576   5.110   8.588 -2.0279 -1.2577  1.2006
  241MOL0     H33204   7.693   5.012   8.490 -0.3822  1.3724 -0.3766
  241MOL0     H33205   7.564   4.865   8.649 -0.4273  0.2963 -0.0072
  241MOL0     H33206   7.413   4.940   8.598 -0.1312 -4.1459  3.1395
  241MOL0     H33207   7.357   4.687   8.604 -2.1039 -0.2747 -0.3443
  241MOL0     H33208   7.333   4.442   8.307  1.7151 -1.8423 -0.4415
  241MOL0     H33209   7.300   4.451   8.484  0.8157 -0.5246  1.2847
  241MOL0     H33210   7.468   4.266   8.376  1.0227  0.0490  0.7815
  241MOL0     H33211   7.578   4.390   8.357 -0.2147 -1.3037 -0.7517
  241MOL0     H33212   7.538   4.456   8.606  5.6971  0.3382 -1.1776
  241MOL0     H33213   7.487   4.280   8.627 -1.7945  0.7544 -0.5242
  241MOL0     H33214   7.753   4.379   8.506  0.8399 -0.1096  0.1748
  241MOL0     H33215   7.750   4.349   8.667  1.3771 -0.7362 -0.8362
  241MOL0     H33216   7.694   3.941   8.625  0.4863  2.5496 -1.4384
  241MOL0     H33217   7.833   3.720   8.842 -2.3850  0.2814  0.0376
  241MOL0     H33218   7.877   3.675   8.684  1.2157  0.7063  0.9191
  241MOL0     H33219   7.722   3.759   8.718  0.0678 -0.7486 -2.1356
  241MOL0     H33220   8.200   3.682   9.003  0.1095  0.1300 -2.5014
  241MOL0     H33221   8.386   3.595   9.137  0.8127  0.3438  1.0251
  241MOL0     H33222   8.819   3.720   9.042  0.9681  1.3382  0.3384
  241MOL0     H33223   8.777   3.822   9.180 -2.7437 -1.2308  3.7078
  241MOL0     H33224   8.833   3.668   9.331 -0.7641 -1.1320  0.4671
  241MOL0     H33225   8.807   3.530   9.232  3.2189 -0.9121 -0.1937
  241MOL0     H33226   9.036   3.707   9.147 -1.1765  1.0064  1.1242
  241MOL0     H33227   9.001   3.529   9.116  2.1313  0.0845 -0.0282
  241MOL0     H33228   9.037   3.490   9.362  1.6496 -1.8593  0.1466
  241MOL0     H33229   9.081   3.660   9.387  2.2848  0.3441 -0.4485
  241MOL0     H33230   9.246   3.500   9.188 -0.6257 -3.4835  2.7797
  241MOL0     H33231   9.273   3.653   9.272  1.7426 -0.9379  0.6809
  241MOL0     H33232   9.393   3.429   9.351 -0.6330 -0.3652 -0.5542
  241MOL0     H33233   9.247   3.406   9.447 -0.0129  0.1959  1.0331
  241MOL0     H33234   9.395   3.510   9.592  2.4030  3.1472  1.2778
  241MOL0     H33235   9.313   3.657   9.539  0.5255 -0.3759  0.7274
  241MOL0     H33236   9.555   3.571   9.385 -0.4805  0.4094 -0.6269
  241MOL0     H33237   9.567   3.623   9.550  1.9069 -0.7356 -0.7018
  241MOL0     H33238   8.648   3.883   8.974 -0.2336 -1.2468  0.5220
  241MOL0     H33239   8.448   3.979   8.849 -0.6975  1.5502  0.8559
  241MOL0     H33240   8.131   4.123   8.743  0.6890 -0.5937 -1.4167
  241MOL0     H33241   7.967   4.263   8.656 -0.6148  0.0725  1.7740
  241MOL0     H33242   6.827   5.723   8.385  3.6811 -0.1150  0.9345
  241MOL0     H33243   6.588   5.710   8.456  1.4883  1.6837  1.8237
  241MOL0     H33244   6.296   5.619   8.725  0.7844 -1.6914  0.4640
  241MOL0     H33245   6.101   5.639   8.857 -0.5821  0.6728 -0.9285
  241MOL0     H33246   5.981   5.468   9.028  0.0305 -1.3155 -0.5446
  241MOL0     H33247   5.919   5.631   8.978  1.6815  0.2708 -1.5648
  241MOL0     H33248   5.748   5.383   9.047 -1.3309  0.2055  0.3813
  241MOL0     H33249   5.695   5.522   8.952  1.4106  1.1572 -0.8100
  241MOL0     H33250   5.790   5.579   9.231 -0.1664 -3.4986 -0.0090
  241MOL0     H33251   5.678   5.662   9.115  2.0120  0.4760 -2.5205
  241MOL0     H33252   5.636   5.506   9.343 -0.8540 -0.1727  0.0461
  241MOL0     H33253   5.589   5.394   9.225  1.5173 -0.7742  1.8011
  241MOL0     H33254   5.289   5.712   9.281 -0.3198 -0.8612  3.1832
  241MOL0     H33255   5.923   5.333   8.620  0.4196  0.4669 -0.0013
  241MOL0     H33256   6.196   5.227   8.434 -0.5529 -1.0945  2.1685
  241MOL0     H33257   6.018   5.251   8.440  0.1990 -1.3261  1.0066
  241MOL0     H33258   6.125   5.357   8.350  0.7344 -3.1743 -1.9790
  242MOL0     O33259   8.442   7.925  10.962 -0.1205  0.0002 -0.4059
  242MOL0     C33260   8.319   7.921  10.941 -1.0674 -0.6684  0.4861
  242MOL0     O33261   8.232   7.851  11.022 -0.4190 -0.0185  0.3931
  242MOL0     C33262   8.265   7.746  11.106  0.7233 -0.7846 -0.7821
  242MOL0     C33263   8.379   7.673  11.096 -0.7088  0.4812 -0.8280
  242MOL0     C33264   8.409   7.578  11.186 -1.0677 -0.1611 -0.2419
  242MOL0     C33265   8.320   7.531  11.281  0.3657 -0.2624  0.5503
  242MOL0     O33266   8.335   7.430  11.364  0.1731 -0.7949  0.0104
  242MOL0     C33267   8.451   7.350  11.344  0.5017 -0.2153  0.0738
  242MOL0     C33268   8.436   7.233  11.440 -0.1547 -0.1148  0.7057
  242MOL0     C33269   8.433   7.266  11.591 -0.1347  0.4003  1.0856
  242MOL0     C33270   8.564   7.292  11.659 -1.0574  0.9338 -0.2065
  242MOL0     C33271   8.559   7.314  11.808  0.8701 -0.2375 -0.6547
  242MOL0     C33272   8.690   7.350  11.866 -0.0497  0.6197  0.3168
  242MOL0     C33273   8.801   7.249  11.838  0.0340 -0.1778 -0.0736
  242MOL0     C33274   8.925   7.257  11.936 -0.2860  0.0683 -0.1885
  242MOL0     N33275   9.025   7.345  11.879  0.9330  0.3056  0.3917
  242MOL0     C33276   9.119   7.327  11.786 -0.7817 -0.3527  0.0354
  242MOL0     C33277   9.183   7.447  11.779  0.1057 -0.0523  0.2247
  242MOL0     C33278   9.299   7.483  11.680  0.1486 -0.2826  0.6727
  242MOL0     C33279   9.413   7.382  11.678  0.5831 -0.8182  0.8169
  242MOL0     C33280   9.497   7.398  11.801  0.3141  0.5637  0.4830
  242MOL0     C33281   9.612   7.503  11.780  0.1234 -0.6133  0.8615
  242MOL0     O33282   9.722   7.420  11.746 -0.4612 -0.3574 -0.1661
  242MOL0     C33283   9.856   7.458  11.757 -0.7924 -1.1658 -0.8553
  242MOL0     C33284   9.893   7.594  11.794 -0.3623 -0.2055 -0.2913
  242MOL0     C33285  10.029   7.634  11.812  0.0751 -0.1612 -0.0574
  242MOL0     C33286  10.071   7.787  11.812  0.2909  0.0132  0.4981
  242MOL0     C33287  10.127   7.536  11.827  0.3083  0.7619  0.5324
  242MOL0     C33288  10.261   7.561  11.872 -0.1649  0.7090  0.1881
  242MOL0     O33289  10.282   7.670  11.955  0.4878  0.5877  0.2615
  242MOL0     C33290  10.416   7.698  11.985 -0.0652  0.6475  0.7410
  242MOL0     C33291  10.485   7.795  11.909  0.4873  0.8917 -0.5540
  242MOL0     C33292  10.612   7.836  11.938 -0.5973 -0.1261 -0.6752
  242MOL0     C33293  10.674   7.785  12.047  0.3673 -0.1314  0.4018
  242MOL0     O33294  10.803   7.821  12.095  0.4830 -0.0559 -0.2039
  242MOL0     C33295  10.835   7.958  12.072  0.5004  0.2875 -0.5515
  242MOL0     C33296  10.960   8.013  12.145 -0.3517  0.9107  1.6497
  242MOL0     C33297  11.087   7.922  12.140 -1.2602  0.7478 -0.5017
  242MOL0     C33298  11.180   7.971  12.238  0.2015 -0.6754  0.5965
  242MOL0     C33299  11.321   7.912  12.236  0.1230  0.1538  0.2776
  242MOL0     C33300  11.379   7.911  12.102 -0.7740 -0.8769  0.4647
  242MOL0     C33301  11.533   7.887  12.114  0.0520 -0.0133 -0.0148
  242MOL0     C33302  11.577   7.744  12.154  0.1576  0.4849  0.8629
  242MOL0    Cl33303  11.507   7.628  12.038  0.3717 -0.3093  0.5965
  242MOL0     C33304  10.618   7.677  12.121  0.5828  0.0264  0.4614
  242MOL0     C33305  10.481   7.645  12.093  0.5644 -0.7374  0.1446
  242MOL0     O33306  10.350   7.483  11.838  0.5751  0.5541  0.5838
  242MOL0     C33307  10.084   7.407  11.786 -0.0240 -0.0114  0.0928
  242MOL0     C33308   9.958   7.367  11.743  0.2103  0.9916  0.4069
  242MOL0     N33309   9.128   7.532  11.874 -0.3351 -0.5533  0.3049
  242MOL0     N33310   9.034   7.473  11.933  0.0060  0.4431  0.0231
  242MOL0     C33311   8.200   7.601  11.285  0.2703  0.6782  0.5567
  242MOL0     C33312   8.169   7.704  11.196  0.7283 -0.4426  0.4925
  242MOL0     C33313   8.275   8.001  10.834 -0.3330 -0.3239 -1.1208
  242MOL0     C33314   8.347   8.122  10.810  0.5251 -0.3784 -0.5465
  242MOL0     C33315   8.302   8.220  10.726  0.0321 -0.2126 -0.3261
  242MOL0     C33316   8.183   8.192  10.650 -0.2163 -0.6348 -0.2910
  242MOL0     O33317   8.127   8.265  10.548 -0.0324  0.1781 -0.0527
  242MOL0     C33318   8.223   8.343  10.471 -0.0800  0.8044 -0.2029
  242MOL0     C33319   8.159   8.389  10.346  0.1357 -0.6996  0.0445
  242MOL0     C33320   8.207   8.528  10.306 -0.3650 -0.1836 -0.6378
  242MOL0     C33321   8.170   8.567  10.165 -0.0893 -0.2155 -0.5314
  242MOL0     C33322   8.026   8.600  10.152  0.5895 -0.0321  0.0217
  242MOL0     C33323   7.911   8.626  10.124  1.2893  0.6469  0.6096
  242MOL0     C33324   8.109   8.075  10.671 -0.5829  0.0360  1.1024
  242MOL0     C33325   8.149   7.983  10.768 -0.0964 -0.0004  0.3058
  242MOL0     C33326   8.060   7.866  10.788 -0.0810 -0.7242 -0.0433
  242MOL0     H33327   8.459   7.681  11.023  1.3249 -1.5429  1.0072
  242MOL0     H33328   8.502   7.522  11.182  0.4849  2.2966 -0.1286
  242MOL0     H33329   8.538   7.404  11.380  0.7005 -0.5750  0.1337
  242MOL0     H33330   8.473   7.333  11.238  3.6537  0.7534  0.4718
  242MOL0     H33331   8.338   7.188  11.424 -1.1929  2.3926 -0.3533
  242MOL0     H33332   8.511   7.154  11.427  0.0510  0.2316 -0.3206
  242MOL0     H33333   8.371   7.357  11.592 -1.8993 -0.7223  0.2724
  242MOL0     H33334   8.375   7.183  11.633 -1.0928 -0.5320 -1.8338
  242MOL0     H33335   8.623   7.201  11.654 -0.3644  1.3359  0.4127
  242MOL0     H33336   8.616   7.375  11.611 -0.4512  1.9648  2.1086
  242MOL0     H33337   8.538   7.217  11.852  1.8464 -0.2583 -0.2039
  242MOL0     H33338   8.488   7.397  11.819  0.5054 -0.7148  0.6795
  242MOL0     H33339   8.724   7.446  11.825 -0.6736 -0.0913 -2.0150
  242MOL0     H33340   8.676   7.360  11.974 -3.0368  0.3385  0.0511
  242MOL0     H33341   8.837   7.237  11.735  1.7289 -1.8800  0.6625
  242MOL0     H33342   8.760   7.149  11.855  0.8799 -0.5694 -0.2610
  242MOL0     H33343   8.878   7.290  12.029 -0.6703  2.4800 -1.1559
  242MOL0     H33344   8.970   7.159  11.949 -0.5420 -0.0356 -0.0685
  242MOL0     H33345   9.146   7.241  11.725  3.4009  0.4285  0.5382
  242MOL0     H33346   9.339   7.583  11.701 -0.0287 -0.0055 -0.2481
  242MOL0     H33347   9.255   7.487  11.580  0.7064  0.8374  0.4568
  242MOL0     H33348   9.364   7.284  11.671 -1.5958  0.2117  0.7850
  242MOL0     H33349   9.470   7.382  11.585  0.5877 -3.3951  0.7462
  242MOL0     H33350   9.431   7.408  11.887 -1.0598 -2.9362  0.0114
  242MOL0     H33351   9.549   7.302  11.812 -2.1953 -0.8162  1.2274
  242MOL0     H33352   9.601   7.576  11.700 -1.0103 -3.4243 -1.7476
  242MOL0     H33353   9.629   7.562  11.870 -0.8858  0.7992  0.1613
  242MOL0     H33354   9.818   7.672  11.789  0.0381  0.2291  0.3995
  242MOL0     H33355   9.991   7.849  11.771  0.7072 -0.8406 -1.7929
  242MOL0     H33356  10.165   7.803  11.759 -0.6250  1.5116 -0.7596
  242MOL0     H33357  10.090   7.820  11.914 -1.0226 -2.7135  1.7319
  242MOL0     H33358  10.431   7.853  11.835  2.2391  1.2529 -1.5849
  242MOL0     H33359  10.652   7.930  11.900  1.3302 -0.1946  1.0073
  242MOL0     H33360  10.842   7.971  11.964  0.1354  1.5845 -0.4277
  242MOL0     H33361  10.756   8.022  12.112  0.5719 -0.8344  1.5450
  242MOL0     H33362  10.989   8.114  12.114 -0.5589  1.1911  2.3366
  242MOL0     H33363  10.927   8.017  12.250 -5.0479 -2.4151  0.6404
  242MOL0     H33364  11.130   7.928  12.039  0.8100 -0.3589  0.2523
  242MOL0     H33365  11.062   7.818  12.162  0.3613  0.7194  1.5065
  242MOL0     H33366  11.138   7.970  12.339  0.3982  1.0916  0.7295
  242MOL0     H33367  11.202   8.075  12.213  1.8978 -1.0356  0.4372
  242MOL0     H33368  11.381   7.966  12.310  1.8822 -0.8299 -0.3713
  242MOL0     H33369  11.313   7.809  12.270 -0.9320  1.7484  5.7966
  242MOL0     H33370  11.366   8.008  12.054  0.6739 -0.5646  0.6416
  242MOL0     H33371  11.338   7.833  12.037  0.2762 -1.7823  0.8621
  242MOL0     H33372  11.565   7.964  12.185 -1.1854  0.3385  0.1853
  242MOL0     H33373  11.577   7.920  12.020  0.9865 -2.1435 -0.3695
  242MOL0     H33374  11.550   7.725  12.259  2.3779  1.2199  1.6245
  242MOL0     H33375  11.686   7.740  12.144  0.5337 -5.4949  2.9505
  242MOL0     H33376  10.666   7.634  12.208 -0.2477  2.7121  2.4156
  242MOL0     H33377  10.417   7.581  12.154  0.1550 -0.8631 -0.4144
  242MOL0     H33378  10.157   7.329  11.804 -1.1243 -1.4794 -1.5096
  242MOL0     H33379   9.928   7.266  11.717 -1.3518  1.3076  0.8631
  242MOL0     H33380   8.139   7.586  11.374  0.5643  0.4066  0.7146
  242MOL0     H33381   8.078   7.763  11.185  1.0728  0.1015  0.5064
  242MOL0     H33382   8.436   8.142  10.869  1.0837  2.4954 -2.1803
  242MOL0     H33383   8.364   8.309  10.715  0.1600 -0.1513  0.8164
  242MOL0     H33384   8.253   8.427  10.534 -1.2874  1.0142  0.1237
  242MOL0     H33385   8.304   8.272  10.453 -0.4924  0.6478 -1.5732
  242MOL0     H33386   8.050   8.389  10.345  0.0695  1.9429 -1.3183
  242MOL0     H33387   8.195   8.314  10.274  1.6860  0.2353 -0.2143
  242MOL0     H33388   8.163   8.607  10.368 -2.4532  0.5563 -2.8669
  242MOL0     H33389   8.314   8.532  10.325 -0.8482  1.4987  2.4573
  242MOL0     H33390   8.182   8.478  10.101  1.3149  0.4865 -1.2938
  242MOL0     H33391   8.245   8.641  10.135  0.5121 -1.2438 -1.7094
  242MOL0     H33392   7.805   8.634  10.113  0.9554 -0.9832  2.1031
  242MOL0     H33393   8.026   8.051  10.605  1.7054 -1.1764 -1.4900
  242MOL0     H33394   8.019   7.855  10.889  0.5443 -1.3419  0.1548
  242MOL0     H33395   7.975   7.868  10.720 -2.8141  0.0555  3.1537
  242MOL0     H33396   8.113   7.772  10.769 -0.4026 -0.8786 -0.1772
  243MOL0     O33397   5.224   3.760   6.859  0.3252 -0.4715 -0.5479
  243MOL0     C33398   5.143   3.832   6.913 -0.7903  0.1940  0.6913
  243MOL0     O33399   5.158   3.967   6.939  0.2793  0.2482  0.2291
  243MOL0     C33400   5.254   4.041   6.872 -0.5244  0.8147 -0.1914
  243MOL0     C33401   5.316   4.017   6.750 -0.1648  0.4309 -0.6122
  243MOL0     C33402   5.408   4.096   6.693 -0.0130 -0.9842  0.4554
  243MOL0     C33403   5.451   4.217   6.758 -1.0799  0.0802  0.4602
  243MOL0     O33404   5.541   4.301   6.703  0.1392 -0.4052 -0.3865
  243MOL0     C33405   5.541   4.326   6.561  0.6109  0.0003 -0.6760
  243MOL0     C33406   5.645   4.248   6.473 -0.5355  0.5648 -0.3416
  243MOL0     C33407   5.780   4.319   6.467 -0.2767 -0.9709  0.7745
  243MOL0     C33408   5.886   4.215   6.456 -0.7157 -0.0358 -0.6372
  243MOL0     C33409   6.022   4.279   6.440 -1.2153  0.0367 -0.4281
  243MOL0     C33410   6.068   4.295   6.297 -0.0086  0.7976 -0.7584
  243MOL0     C33411   6.217   4.285   6.278 -0.4162  0.3824  0.0524
  243MOL0     C33412   6.299   4.376   6.371  0.0284  0.5467  0.1242
  243MOL0     N33413   6.439   4.342   6.351  0.0077 -0.0003  0.8359
  243MOL0     C33414   6.531   4.411   6.270 -0.0670  0.3919  1.3801
  243MOL0     C33415   6.637   4.327   6.285 -0.1148  0.3351 -0.0161
  243MOL0     C33416   6.772   4.363   6.233  0.8413 -0.2993  0.1641
  243MOL0     C33417   6.852   4.433   6.339 -0.5371  0.9013  0.1447
  243MOL0     C33418   6.978   4.506   6.270 -0.7645  0.4339  0.1864
  243MOL0     C33419   7.082   4.542   6.378  0.5117 -0.0637 -0.1690
  243MOL0     O33420   7.206   4.573   6.311 -0.0858 -0.1548  0.3064
  243MOL0     C33421   7.303   4.621   6.386 -0.4920  0.6086 -1.2020
  243MOL0     C33422   7.287   4.637   6.528  0.0085  0.0464  0.5147
  243MOL0     C33423   7.381   4.699   6.605 -0.6355 -0.0833  0.5591
  243MOL0     C33424   7.377   4.689   6.757 -0.0421  0.4579 -1.0350
  243MOL0     C33425   7.498   4.751   6.538 -0.4050  0.9012  0.4494
  243MOL0     C33426   7.624   4.817   6.606  0.8123 -0.0273 -0.2635
  243MOL0     O33427   7.724   4.849   6.519 -0.0432  0.2222  1.0617
  243MOL0     C33428   7.840   4.905   6.567 -0.2458 -0.1207  0.2035
  243MOL0     C33429   7.927   4.829   6.653  0.2256 -0.1307  0.8176
  243MOL0     C33430   8.053   4.881   6.691  0.1094  0.6077 -0.3632
  243MOL0     C33431   8.093   5.013   6.649  0.2053  0.5277 -0.0071
  243MOL0     O33432   8.197   5.075   6.717  0.1620 -0.0280  0.7359
  243MOL0     C33433   8.315   4.998   6.741  0.0177  0.8388 -0.6580
  243MOL0     C33434   8.430   5.095   6.769 -0.3954 -0.1027 -0.6879
  243MOL0     C33435   8.561   5.025   6.761 -0.4888  0.2390 -0.9715
  243MOL0     C33436   8.676   5.123   6.746  0.4617 -0.4717  0.3004
  243MOL0     C33437   8.806   5.061   6.715  0.0051 -0.1027 -0.0996
  243MOL0     C33438   8.879   5.021   6.845 -0.5636  0.7340  0.2136
  243MOL0     C33439   9.026   4.993   6.818 -0.8127  0.1288 -0.5609
  243MOL0     C33440   9.092   4.871   6.889 -0.3594  0.2949 -0.1569
  243MOL0    Cl33441   9.146   4.911   7.058 -0.3453  0.4923  0.2323
  243MOL0     C33442   8.006   5.088   6.569  0.0177 -0.9475 -0.6714
  243MOL0     C33443   7.887   5.034   6.526 -0.5263  0.1021 -0.5792
  243MOL0     O33444   7.631   4.836   6.723 -0.0536 -0.2517 -0.3494
  243MOL0     C33445   7.508   4.736   6.398 -0.0055  0.3593  0.3428
  243MOL0     C33446   7.414   4.667   6.329 -0.0030 -0.4924  0.1257
  243MOL0     N33447   6.607   4.211   6.360 -0.1094 -0.2021 -0.0510
  243MOL0     N33448   6.486   4.224   6.397 -1.3598 -0.3568  0.4644
  243MOL0     C33449   5.382   4.248   6.874 -0.2618  0.9775 -0.6302
  243MOL0     C33450   5.286   4.157   6.935 -0.4668 -1.3449  0.1049
  243MOL0     C33451   5.013   3.775   6.952  0.0357  0.1030  0.6976
  243MOL0     C33452   4.907   3.861   6.997 -0.5109 -0.1629  0.2153
  243MOL0     C33453   4.782   3.817   7.024  0.0448  0.3641  0.2239
  243MOL0     C33454   4.754   3.680   6.998  0.5405  0.0229 -1.1722
  243MOL0     O33455   4.627   3.621   7.012  0.4402  0.3529 -0.4387
  243MOL0     C33456   4.519   3.694   7.064 -0.9874  0.6656  0.1012
  243MOL0     C33457   4.390   3.639   7.026 -0.0391  0.6782 -0.0137
  243MOL0     C33458   4.288   3.676   7.139  0.9689  0.0085 -0.5255
  243MOL0     C33459   4.143   3.678   7.114  0.2159  0.5312  0.2044
  243MOL0     C33460   4.076   3.545   7.103 -0.3404  0.2528  0.7196
  243MOL0     C33461   4.020   3.443   7.074  0.2201 -0.2421 -0.0320
  243MOL0     C33462   4.860   3.601   6.950  0.6694  0.3972 -0.0659
  243MOL0     C33463   4.988   3.639   6.934  0.0621  0.1510 -0.5382
  243MOL0     C33464   5.088   3.527   6.896 -0.0155  0.2684  0.1985
  243MOL0     H33465   5.286   3.933   6.688  0.8383 -0.4355  0.0405
  243MOL0     H33466   5.450   4.065   6.598 -0.5798 -1.0378  0.2166
  243MOL0     H33467   5.553   4.434   6.551 -3.5763  0.7600  0.5330
  243MOL0     H33468   5.439   4.307   6.525  0.0324 -1.3031  1.4656
  243MOL0     H33469   5.659   4.154   6.528 -2.3587  0.8733  0.7442
  243MOL0     H33470   5.612   4.236   6.370  2.4757  0.1894 -1.3462
  243MOL0     H33471   5.782   4.393   6.387  1.6753 -1.7940  0.0087
  243MOL0     H33472   5.800   4.377   6.558  2.6148 -1.9804  0.8807
  243MOL0     H33473   5.890   4.152   6.545 -0.3667  0.4297 -0.3214
  243MOL0     H33474   5.869   4.158   6.364  0.6841  1.1136 -1.6529
  243MOL0     H33475   6.093   4.210   6.484  0.3367  0.1205 -2.6297
  243MOL0     H33476   6.035   4.369   6.501  5.4181 -0.8398  0.0768
  243MOL0     H33477   6.025   4.205   6.252 -0.8088 -1.4485  3.8940
  243MOL0     H33478   6.028   4.389   6.258  0.5113  1.3861  0.0862
  243MOL0     H33479   6.242   4.310   6.174 -0.1130 -0.1665 -0.0080
  243MOL0     H33480   6.261   4.186   6.289  2.5503  1.6279  0.4383
  243MOL0     H33481   6.283   4.481   6.348 -0.1333  0.5292  0.1487
  243MOL0     H33482   6.274   4.355   6.476  0.8059  0.6700  0.3329
  243MOL0     H33483   6.526   4.512   6.230 -0.7946 -0.6296 -1.3658
  243MOL0     H33484   6.766   4.426   6.144 -0.0748 -0.3270  0.2032
  243MOL0     H33485   6.825   4.273   6.199 -2.9022 -2.0179 -1.5932
  243MOL0     H33486   6.783   4.499   6.392 -0.8122 -0.4452  1.5286
  243MOL0     H33487   6.886   4.367   6.420 -1.2025  1.3697  0.8195
  243MOL0     H33488   7.026   4.441   6.195 -0.2293 -0.1179  0.9914
  243MOL0     H33489   6.940   4.598   6.224  0.4621  0.1257 -1.5812
  243MOL0     H33490   7.049   4.624   6.443 -0.1685 -1.9272  1.9461
  243MOL0     H33491   7.091   4.449   6.434 -3.3125  0.0255  0.8771
  243MOL0     H33492   7.212   4.574   6.576 -0.4076  0.3172  0.2210
  243MOL0     H33493   7.446   4.618   6.802 -1.7604 -0.8330 -0.3000
  243MOL0     H33494   7.286   4.637   6.789  0.6583 -0.8138 -1.0684
  243MOL0     H33495   7.376   4.783   6.813  2.5801 -0.6504  1.0560
  243MOL0     H33496   7.890   4.733   6.689 -2.3198  1.3079  2.2867
  243MOL0     H33497   8.117   4.820   6.753  1.0180 -0.1431 -1.9706
  243MOL0     H33498   8.297   4.935   6.828  0.4635  1.3104 -0.2217
  243MOL0     H33499   8.347   4.939   6.655  2.1628  1.8235 -0.6054
  243MOL0     H33500   8.418   5.179   6.699 -1.4803  1.6366  1.4357
  243MOL0     H33501   8.420   5.143   6.866  2.0400  0.5542 -0.7129
  243MOL0     H33502   8.554   4.958   6.675 -0.9405 -2.2073  0.8644
  243MOL0     H33503   8.590   4.970   6.851 -1.8557 -1.3553 -1.4558
  243MOL0     H33504   8.685   5.172   6.844 -4.1298  2.3713 -0.3989
  243MOL0     H33505   8.647   5.191   6.665  0.0518  0.6749  1.3736
  243MOL0     H33506   8.785   4.972   6.655 -0.7698 -0.1994  0.3050
  243MOL0     H33507   8.865   5.133   6.657 -0.4419  0.8593  0.6038
  243MOL0     H33508   8.831   4.929   6.880  0.0718  0.6822  1.0009
  243MOL0     H33509   8.872   5.095   6.925 -2.0597  0.6478  0.1881
  243MOL0     H33510   9.082   5.083   6.846 -0.0847  0.2189 -2.2136
  243MOL0     H33511   9.060   4.970   6.717  0.9494  0.9312 -0.1984
  243MOL0     H33512   9.181   4.843   6.831 -0.8669  0.7381 -1.1724
  243MOL0     H33513   9.027   4.784   6.882 -0.1368  0.0831  0.3074
  243MOL0     H33514   8.020   5.193   6.547  1.0241 -0.7174  0.8908
  243MOL0     H33515   7.829   5.093   6.456  0.3321  0.4080 -1.0477
  243MOL0     H33516   7.588   4.775   6.336 -0.0443  2.1605  1.3763
  243MOL0     H33517   7.432   4.657   6.222  2.1007  1.5008  0.2124
  243MOL0     H33518   5.395   4.345   6.919 -2.5538  0.7262  0.7800
  243MOL0     H33519   5.235   4.189   7.025 -0.3284 -0.4407 -0.1282
  243MOL0     H33520   4.939   3.962   7.020 -1.0542 -0.0412  0.4448
  243MOL0     H33521   4.712   3.882   7.076  2.0013  1.7883  1.1682
  243MOL0     H33522   4.535   3.690   7.172  1.8986  1.2922 -0.2136
  243MOL0     H33523   4.520   3.802   7.049  0.3926  0.6065 -0.4512
  243MOL0     H33524   4.398   3.530   7.028 -0.0757  0.6836  0.7714
  243MOL0     H33525   4.363   3.669   6.924 -0.8739  0.0274  0.0012
  243MOL0     H33526   4.302   3.608   7.223 -2.0681  2.0042  1.8371
  243MOL0     H33527   4.304   3.780   7.169  0.2358  0.0437 -0.2351
  243MOL0     H33528   4.120   3.716   7.014  1.9026 -1.2760 -0.9529
  243MOL0     H33529   4.102   3.738   7.196  1.4141 -0.0088  1.2325
  243MOL0     H33530   3.956   3.359   7.055  0.7501 -0.8141  0.6439
  243MOL0     H33531   4.838   3.498   6.923 -1.1470  1.0799 -1.4104
  243MOL0     H33532   5.180   3.525   6.955 -0.3138  2.2393  0.7949
  243MOL0     H33533   5.037   3.430   6.901  3.4364 -1.6443  1.3164
  243MOL0     H33534   5.120   3.534   6.791 -3.3193 -0.2505 -0.9792
  244MOL0     O33535   6.823   5.171   1.651 -0.3256  0.0784 -0.1201
  244MOL0     C33536   6.769   5.281   1.649  0.4327  0.0447  0.7552
  244MOL0     O33537   6.786   5.378   1.739  1.0278 -0.5489 -0.3912
  244MOL0     C33538   6.895   5.378   1.818  0.4437  0.2178  0.7827
  244MOL0     C33539   7.023   5.407   1.778 -0.3723 -1.2022  0.3588
  244MOL0     C33540   7.132   5.388   1.864 -0.0567 -0.6692 -0.1175
  244MOL0     C33541   7.106   5.326   1.992 -0.5160 -0.9113  0.4505
  244MOL0     O33542   7.215   5.295   2.064 -0.5280 -0.4919 -0.8730
  244MOL0     C33543   7.230   5.378   2.179 -0.0940 -0.8695 -0.4004
  244MOL0     C33544   7.365   5.436   2.198 -0.1640  0.2102 -0.2029
  244MOL0     C33545   7.412   5.511   2.064  0.7697  0.4199 -0.1269
  244MOL0     C33546   7.521   5.603   2.102  0.0574  0.4398 -0.0206
  244MOL0     C33547   7.577   5.690   1.998  0.1614 -0.1541  0.7055
  244MOL0     C33548   7.681   5.783   2.050 -0.1555  0.1634 -0.3927
  244MOL0     C33549   7.757   5.845   1.937 -0.2348 -0.4018 -0.6321
  244MOL0     C33550   7.839   5.752   1.846 -0.0421 -0.3665  0.4903
  244MOL0     N33551   7.961   5.715   1.921  0.5393 -0.2473 -0.6044
  244MOL0     C33552   7.965   5.616   2.015  0.8082  0.3249 -0.2693
  244MOL0     C33553   8.093   5.610   2.051 -0.1170  1.0855 -0.6163
  244MOL0     C33554   8.144   5.513   2.154  0.1189 -1.0887 -0.4613
  244MOL0     C33555   8.297   5.518   2.160  0.0772  0.4932 -0.5654
  244MOL0     C33556   8.336   5.409   2.256 -0.3730  0.6746 -0.1622
  244MOL0     C33557   8.487   5.431   2.295  0.2015  0.3785  0.6929
  244MOL0     O33558   8.567   5.395   2.176  0.4014 -0.4797  0.1616
  244MOL0     C33559   8.703   5.392   2.204 -0.2737  0.2719  0.1689
  244MOL0     C33560   8.770   5.432   2.313 -0.2317 -0.4866  0.2995
  244MOL0     C33561   8.910   5.449   2.310 -0.5116  0.1072 -0.0918
  244MOL0     C33562   8.971   5.505   2.440 -0.2292  0.1324  0.3323
  244MOL0     C33563   8.982   5.416   2.198 -0.4260  0.2292  0.2815
  244MOL0     C33564   9.131   5.417   2.188 -0.1776  0.1872 -0.1718
  244MOL0     O33565   9.190   5.382   2.072  0.6722  0.4260  0.0202
  244MOL0     C33566   9.325   5.388   2.073 -0.6613  0.5727  0.3951
  244MOL0     C33567   9.395   5.274   2.077  0.2450 -0.1105  0.0753
  244MOL0     C33568   9.542   5.277   2.071  0.1294  0.0448  0.2403
  244MOL0     C33569   9.604   5.402   2.079  0.2993 -0.2362 -0.4033
  244MOL0     O33570   9.739   5.420   2.093  0.0120  0.6377  0.3744
  244MOL0     C33571   9.830   5.313   2.069 -0.3786 -0.5036 -0.0069
  244MOL0     C33572   9.856   5.245   2.206  0.3729 -0.9638  0.0854
  244MOL0     C33573   9.878   5.339   2.324 -0.0010 -0.7880 -0.5771
  244MOL0     C33574   9.964   5.280   2.441  0.0973  0.8536 -0.4104
  244MOL0     C33575  10.016   5.380   2.542 -0.3710  0.1584 -0.2786
  244MOL0     C33576   9.921   5.416   2.654  1.0210  0.8979  1.2202
  244MOL0     C33577   9.990   5.495   2.760 -0.3390 -0.2028  0.0278
  244MOL0     C33578   9.989   5.647   2.715 -0.2327  0.4023  0.2139
  244MOL0    Cl33579  10.104   5.747   2.791 -0.0457  0.5855  0.5568
  244MOL0     C33580   9.527   5.518   2.080 -0.3686 -0.8690 -0.1772
  244MOL0     C33581   9.388   5.514   2.075 -0.5591 -0.1537  0.9838
  244MOL0     O33582   9.194   5.458   2.288 -0.0043  0.4077  0.9182
  244MOL0     C33583   8.916   5.347   2.100  0.1177 -0.0658  0.1941
  244MOL0     C33584   8.778   5.332   2.100 -0.1432 -0.2000  0.0806
  244MOL0     N33585   8.160   5.711   1.978 -0.1793  0.1395 -0.3989
  244MOL0     N33586   8.076   5.772   1.901  0.7403  0.2060 -0.5631
  244MOL0     C33587   6.976   5.314   2.044 -0.4405  0.0970 -0.3895
  244MOL0     C33588   6.871   5.335   1.951  0.1132 -0.8713 -0.3700
  244MOL0     C33589   6.664   5.295   1.542 -0.2478  0.8698 -0.5852
  244MOL0     C33590   6.566   5.399   1.562 -0.5275  0.0028  0.7650
  244MOL0     C33591   6.472   5.429   1.465 -0.5980  0.0933  0.6518
  244MOL0     C33592   6.462   5.360   1.343  0.6449  0.3242 -0.2323
  244MOL0     O33593   6.368   5.398   1.254 -0.1867  0.0787 -0.0411
  244MOL0     C33594   6.343   5.307   1.150 -0.4551  0.7266 -1.0588
  244MOL0     C33595   6.241   5.381   1.056 -0.0099 -0.2438 -0.0684
  244MOL0     C33596   6.110   5.412   1.134 -0.8190 -0.6121  0.3634
  244MOL0     C33597   6.011   5.489   1.057  0.1002 -0.3490  0.2645
  244MOL0     C33598   5.951   5.418   0.946 -0.8002  0.1304 -0.4302
  244MOL0     C33599   5.907   5.355   0.852 -0.6284  0.4243  0.7226
  244MOL0     C33600   6.545   5.242   1.335 -0.1025  0.8930 -0.0415
  244MOL0     C33601   6.654   5.212   1.422  0.9284  0.2536  0.4933
  244MOL0     C33602   6.740   5.094   1.391  0.2867 -0.6019  0.6714
  244MOL0     H33603   7.032   5.463   1.685 -0.2129 -1.2395  0.3515
  244MOL0     H33604   7.236   5.401   1.837 -0.4381  2.1168 -0.5249
  244MOL0     H33605   7.203   5.324   2.270  0.2037 -0.5881 -0.1435
  244MOL0     H33606   7.163   5.464   2.182  0.0344 -0.7216 -1.5022
  244MOL0     H33607   7.362   5.507   2.281 -0.0632 -0.3602  0.2880
  244MOL0     H33608   7.423   5.349   2.229 -0.6279 -0.0922 -0.1761
  244MOL0     H33609   7.445   5.427   2.002 -1.8933 -1.5488  0.9032
  244MOL0     H33610   7.327   5.562   2.017  0.6453  0.5864  0.2746
  244MOL0     H33611   7.493   5.669   2.184 -2.2641 -2.1228  1.4105
  244MOL0     H33612   7.601   5.540   2.142  1.4823  2.0745 -0.1883
  244MOL0     H33613   7.495   5.747   1.953  0.0294 -0.9106 -0.0437
  244MOL0     H33614   7.616   5.628   1.916  1.2966  1.6272 -0.1686
  244MOL0     H33615   7.632   5.855   2.116 -0.0590 -0.7592  0.7146
  244MOL0     H33616   7.742   5.725   2.119 -0.3371  0.0658 -0.3111
  244MOL0     H33617   7.818   5.926   1.979  0.2565 -1.0371 -0.1032
  244MOL0     H33618   7.681   5.898   1.879  0.3523  1.1818 -0.0151
  244MOL0     H33619   7.788   5.666   1.802  0.5282  0.8269 -2.7501
  244MOL0     H33620   7.875   5.807   1.759  1.9821 -0.0744  1.4330
  244MOL0     H33621   7.884   5.556   2.054  2.4508 -0.0965  2.7586
  244MOL0     H33622   8.106   5.412   2.138 -0.0769 -0.9138 -1.1427
  244MOL0     H33623   8.107   5.547   2.251  1.1219 -0.6042 -0.2328
  244MOL0     H33624   8.337   5.501   2.059 -1.3793 -0.1248 -1.0636
  244MOL0     H33625   8.324   5.618   2.195  2.0428 -0.7995  1.9359
  244MOL0     H33626   8.282   5.413   2.351 -0.1013  0.1129  0.0199
  244MOL0     H33627   8.334   5.311   2.208  1.4931  0.1224  0.7771
  244MOL0     H33628   8.505   5.533   2.330  1.2504  0.0673  1.1003
  244MOL0     H33629   8.504   5.361   2.377  0.3374  1.3879  1.5472
  244MOL0     H33630   8.710   5.450   2.401 -0.8510 -1.7684  0.1590
  244MOL0     H33631   9.034   5.594   2.428 -0.3346 -0.0080 -1.5933
  244MOL0     H33632   9.033   5.425   2.484  0.2204  0.2515 -0.0731
  244MOL0     H33633   8.894   5.538   2.510  0.9859  1.2688  1.1772
  244MOL0     H33634   9.344   5.179   2.077  2.7136 -1.5549 -1.8759
  244MOL0     H33635   9.595   5.183   2.075 -0.6433 -0.5491 -2.0678
  244MOL0     H33636   9.796   5.240   1.995 -1.8300 -1.3508  1.4430
  244MOL0     H33637   9.925   5.354   2.033 -0.1081  0.6870  1.9300
  244MOL0     H33638   9.772   5.180   2.229 -0.1659 -0.7046 -1.0902
  244MOL0     H33639   9.934   5.170   2.188 -0.5047 -1.8014 -0.2968
  244MOL0     H33640   9.784   5.374   2.366 -0.2623  0.3379 -2.0094
  244MOL0     H33641   9.925   5.428   2.279 -3.0765  1.3776  0.2005
  244MOL0     H33642  10.050   5.241   2.386 -2.3593  1.0742 -4.8491
  244MOL0     H33643   9.921   5.188   2.484  1.3716 -0.1368 -1.1797
  244MOL0     H33644  10.098   5.329   2.594  0.6332  1.4376 -0.5540
  244MOL0     H33645  10.049   5.472   2.493  1.4485  0.0533  0.6520
  244MOL0     H33646   9.873   5.326   2.692  1.3514 -1.5176 -3.3497
  244MOL0     H33647   9.840   5.477   2.613 -1.7726 -1.8366  2.2630
  244MOL0     H33648  10.092   5.466   2.784 -0.6472 -2.3122 -0.9787
  244MOL0     H33649   9.945   5.503   2.859  0.6680  4.0843  0.3721
  244MOL0     H33650   9.889   5.691   2.725  0.7229  2.3355  1.9550
  244MOL0     H33651  10.007   5.647   2.607  0.4633  2.9761  0.2805
  244MOL0     H33652   9.566   5.619   2.089 -1.1126 -0.6669  0.8658
  244MOL0     H33653   9.344   5.613   2.072 -0.8937 -0.3173  0.2990
  244MOL0     H33654   8.972   5.306   2.016 -1.6936 -0.3759 -0.9225
  244MOL0     H33655   8.726   5.274   2.025  0.2138  1.1403 -1.2436
  244MOL0     H33656   6.967   5.282   2.147 -1.3245  3.4328  0.6808
  244MOL0     H33657   6.774   5.321   1.998  0.5113  1.4813  1.3134
  244MOL0     H33658   6.568   5.459   1.652 -0.8790 -2.6937  2.6943
  244MOL0     H33659   6.403   5.511   1.486 -1.2464  0.0269 -1.0389
  244MOL0     H33660   6.429   5.299   1.082 -1.5830  1.3686 -2.6329
  244MOL0     H33661   6.308   5.211   1.187  4.3070 -0.1020  2.1093
  244MOL0     H33662   6.225   5.329   0.961  2.2990  0.4109 -0.8739
  244MOL0     H33663   6.281   5.473   1.011  3.8384 -2.9130 -2.7323
  244MOL0     H33664   6.048   5.330   1.170 -2.6628  0.6595  0.2326
  244MOL0     H33665   6.147   5.473   1.217  0.3215  0.7590 -1.0838
  244MOL0     H33666   6.061   5.578   1.019 -0.1555  1.0513  2.9938
  244MOL0     H33667   5.930   5.512   1.127  1.1615 -3.0120  2.5972
  244MOL0     H33668   5.857   5.302   0.773  1.1986 -0.1225 -0.1278
  244MOL0     H33669   6.534   5.172   1.252 -1.9704 -1.9089  2.3400
  244MOL0     H33670   6.837   5.130   1.355  0.1110  1.7757  2.3893
  244MOL0     H33671   6.753   5.017   1.468 -1.4502  0.5965  2.2311
  244MOL0     H33672   6.699   5.034   1.310 -0.3496 -1.3470  1.5304
  245MOL0     O33673   1.182  10.373   0.821  0.9717  0.1941 -0.0460
  245MOL0     C33674   1.091  10.290   0.799  0.5138  0.3814  0.2575
  245MOL0     O33675   1.107  10.151   0.808 -0.0906 -1.3819 -0.5108
  245MOL0     C33676   1.226  10.088   0.836 -1.1386 -0.1430  0.3548
  245MOL0     C33677   1.224   9.950   0.820  0.2073  0.2351 -0.2754
  245MOL0     C33678   1.337   9.875   0.834 -0.5504  0.0164  0.0861
  245MOL0     C33679   1.461   9.935   0.848 -0.3244 -0.0669  0.5541
  245MOL0     O33680   1.570   9.848   0.858  0.6534  0.1163  0.0737
  245MOL0     C33681   1.676   9.890   0.945  0.2734 -0.8872 -0.6268
  245MOL0     C33682   1.791   9.964   0.882  0.7843  0.3058 -0.4996
  245MOL0     C33683   1.855   9.880   0.781 -0.8964  0.3856 -0.1853
  245MOL0     C33684   1.973   9.968   0.718  0.5827 -0.2994  0.4155
  245MOL0     C33685   2.007   9.941   0.571 -0.3735 -0.2070 -0.5044
  245MOL0     C33686   1.897   9.965   0.468 -0.4095 -0.2159 -0.2083
  245MOL0     C33687   1.957   9.970   0.326 -0.6475 -0.0027  0.4327
  245MOL0     C33688   1.871   9.904   0.217 -0.0259 -0.1193 -0.6597
  245MOL0     N33689   1.855   9.760   0.239 -0.0302 -0.1564 -0.2866
  245MOL0     C33690   1.934   9.660   0.193 -0.6752  0.1049 -0.2851
  245MOL0     C33691   1.858   9.548   0.205  0.1383 -1.7377 -0.1922
  245MOL0     C33692   1.905   9.411   0.179 -0.2916  0.7897  0.2116
  245MOL0     C33693   1.961   9.356   0.308  0.1745 -0.0201  0.4398
  245MOL0     C33694   2.029   9.228   0.285  0.1703  0.9513 -0.6870
  245MOL0     C33695   2.167   9.241   0.220 -0.2335  0.7730  0.0722
  245MOL0     O33696   2.243   9.303   0.322 -0.1469 -0.0601 -0.6671
  245MOL0     C33697   2.377   9.317   0.299 -0.4049 -0.4179 -0.2994
  245MOL0     C33698   2.441   9.284   0.180  0.3178  0.2388 -0.0578
  245MOL0     C33699   2.581   9.308   0.170  0.4272 -0.8075 -0.6428
  245MOL0     C33700   2.651   9.264   0.044  0.8711  0.2757 -0.0202
  245MOL0     C33701   2.660   9.358   0.280  0.7284  0.3610  1.2690
  245MOL0     C33702   2.803   9.401   0.281  0.6381  0.4227  0.4123
  245MOL0     O33703   2.831   9.512   0.363 -0.4399  0.5104  0.5553
  245MOL0     C33704   2.955   9.559   0.362  0.2110  0.2723 -0.1341
  245MOL0     C33705   3.071   9.486   0.380 -0.5675  0.1758  1.0450
  245MOL0     C33706   3.199   9.548   0.362 -0.1661 -0.1880 -0.2524
  245MOL0     C33707   3.212   9.686   0.339  0.1783  0.0989  0.1565
  245MOL0     O33708   3.332   9.750   0.318 -0.2280  0.6610 -0.3826
  245MOL0     C33709   3.437   9.748   0.417 -0.1511  0.0509 -0.0654
  245MOL0     C33710   3.426   9.856   0.531  0.4736  0.1839  1.1644
  245MOL0     C33711   3.443  10.003   0.463  0.3448  0.4457 -0.2238
  245MOL0     C33712   3.442  10.108   0.567 -0.4008 -0.8468 -0.5186
  245MOL0     C33713   3.470  10.248   0.509 -0.1862  0.4204  0.1961
  245MOL0     C33714   3.347  10.296   0.419 -0.5529  0.3067  0.3747
  245MOL0     C33715   3.375  10.438   0.378  0.0017 -0.1388  0.8770
  245MOL0     C33716   3.323  10.465   0.231 -0.2070  0.7182  0.1838
  245MOL0    Cl33717   3.140  10.462   0.210 -0.0909 -0.2093 -0.0764
  245MOL0     C33718   3.087   9.759   0.323 -0.7444  0.3596  0.0264
  245MOL0     C33719   2.966   9.695   0.339  0.4652  0.6104 -0.0819
  245MOL0     O33720   2.883   9.330   0.222 -0.3547 -0.1813 -0.0886
  245MOL0     C33721   2.589   9.379   0.396 -0.7932 -0.8123  0.5099
  245MOL0     C33722   2.450   9.361   0.408  0.1062 -0.3854  0.2345
  245MOL0     N33723   1.731   9.578   0.240  0.1855 -0.1831 -0.2927
  245MOL0     N33724   1.731   9.705   0.259  0.0729  1.3047 -1.3111
  245MOL0     C33725   1.460  10.074   0.867  0.9333  1.0140  0.5008
  245MOL0     C33726   1.346  10.148   0.863 -0.1923 -0.7142  0.3821
  245MOL0     C33727   0.947  10.328   0.780  0.0889 -0.6817 -0.3802
  245MOL0     C33728   0.856  10.217   0.762 -0.6618 -0.5412  0.0247
  245MOL0     C33729   0.729  10.254   0.714  0.1893 -0.0828  0.3556
  245MOL0     C33730   0.684  10.387   0.697  0.1672 -0.3242  0.4266
  245MOL0     O33731   0.556  10.388   0.637  0.5664  0.2275 -0.5066
  245MOL0     C33732   0.491  10.517   0.614  0.0761 -0.4085 -0.5511
  245MOL0     C33733   0.343  10.512   0.669 -0.0430 -0.6617 -0.1820
  245MOL0     C33734   0.276  10.658   0.671  0.3624  0.4502  0.2840
  245MOL0     C33735   0.340  10.755   0.773  0.2466 -0.2989  0.7710
  245MOL0     C33736   0.276  10.890   0.753 -0.0789  0.3519 -0.2405
  245MOL0     C33737   0.215  10.997   0.766  0.1626  0.2623 -0.1673
  245MOL0     C33738   0.773  10.488   0.721  0.3973 -0.8723 -0.2762
  245MOL0     C33739   0.902  10.467   0.770 -0.3005  1.1074  1.1886
  245MOL0     C33740   0.990  10.593   0.783  0.2692 -0.0898  0.0483
  245MOL0     H33741   1.139   9.885   0.800  1.9383 -1.9964 -0.8312
  245MOL0     H33742   1.322   9.770   0.812 -1.2909  0.5985 -2.4939
  245MOL0     H33743   1.708   9.800   0.998 -5.5287 -1.7333  2.2972
  245MOL0     H33744   1.635   9.957   1.022  2.8607 -1.0885  1.0421
  245MOL0     H33745   1.747  10.051   0.833 -2.0399  0.8644  2.6078
  245MOL0     H33746   1.853  10.000   0.965 -1.1910  2.2571  0.2251
  245MOL0     H33747   1.889   9.784   0.820 -1.9947  0.5974  1.4147
  245MOL0     H33748   1.783   9.854   0.704 -0.3364  0.2047 -0.6492
  245MOL0     H33749   1.948  10.073   0.735  0.0418 -0.2982 -0.3380
  245MOL0     H33750   2.067   9.947   0.768  0.7911 -1.1140 -0.2957
  245MOL0     H33751   2.040   9.837   0.561 -0.2845 -0.5891  2.6502
  245MOL0     H33752   2.090  10.007   0.544 -0.9663  0.6837 -0.2142
  245MOL0     H33753   1.817   9.890   0.472  0.5014 -1.2457 -0.8407
  245MOL0     H33754   1.848  10.060   0.493  2.4824  1.5846 -0.8694
  245MOL0     H33755   2.056   9.925   0.327 -1.3097 -1.5275 -0.0625
  245MOL0     H33756   1.967  10.073   0.291  1.3998 -1.0100 -2.2914
  245MOL0     H33757   1.777   9.962   0.214  1.1310  1.8507 -2.8894
  245MOL0     H33758   1.921   9.921   0.121 -0.6199  1.2755 -0.7540
  245MOL0     H33759   2.035   9.667   0.154 -0.9040  1.7832 -0.6292
  245MOL0     H33760   1.976   9.409   0.096 -1.0351 -1.1731 -0.4192
  245MOL0     H33761   1.815   9.359   0.145  0.1365  1.1895 -1.6022
  245MOL0     H33762   2.034   9.427   0.348  1.1686  0.3583 -1.8685
  245MOL0     H33763   1.880   9.358   0.382 -1.2803  1.2386 -1.0948
  245MOL0     H33764   2.037   9.185   0.385 -0.8988 -0.1278 -1.0466
  245MOL0     H33765   1.972   9.163   0.218  1.3119  0.8659 -1.6306
  245MOL0     H33766   2.222   9.148   0.205  0.9574  1.7738 -2.2495
  245MOL0     H33767   2.174   9.296   0.126 -2.6378  2.4570  0.7814
  245MOL0     H33768   2.391   9.248   0.091  2.8205  0.8710 -1.8056
  245MOL0     H33769   2.706   9.348   0.002 -0.5616  1.1214 -0.2568
  245MOL0     H33770   2.580   9.238  -0.035 -0.1599  0.5306  0.7990
  245MOL0     H33771   2.713   9.175   0.062  0.0865 -0.5645 -1.2614
  245MOL0     H33772   3.059   9.380   0.395 -0.5885  0.0410  0.0800
  245MOL0     H33773   3.296   9.499   0.362  0.6117  1.3006  0.0931
  245MOL0     H33774   3.444   9.645   0.454  2.5404  0.1116 -0.2100
  245MOL0     H33775   3.528   9.769   0.360 -0.2323  4.4525  1.0398
  245MOL0     H33776   3.335   9.851   0.591 -0.4246 -1.7633 -0.2465
  245MOL0     H33777   3.514   9.839   0.594  1.9253  1.4856 -0.4040
  245MOL0     H33778   3.356  10.023   0.401  0.6678 -0.0907 -0.8568
  245MOL0     H33779   3.535  10.005   0.404  0.6711 -0.3001  0.2450
  245MOL0     H33780   3.520  10.072   0.635  2.3512  1.8564 -2.0303
  245MOL0     H33781   3.354  10.119   0.632  0.9534  0.6101  1.1647
  245MOL0     H33782   3.494  10.324   0.584  1.2431  1.6734 -1.4328
  245MOL0     H33783   3.563  10.244   0.452 -0.3496  1.8337 -0.2123
  245MOL0     H33784   3.255  10.295   0.479  0.8154 -0.7732  2.6026
  245MOL0     H33785   3.334  10.228   0.334 -1.1079 -0.1058  0.7815
  245MOL0     H33786   3.480  10.470   0.383  0.5416 -1.5008 -0.8346
  245MOL0     H33787   3.320  10.507   0.443 -0.7375  1.0290 -0.9222
  245MOL0     H33788   3.363  10.381   0.175  0.8852  2.3395 -1.5756
  245MOL0     H33789   3.361  10.562   0.197  0.4617  0.9481  1.5313
  245MOL0     H33790   3.106   9.865   0.314  0.1632  0.1288 -0.9609
  245MOL0     H33791   2.878   9.757   0.326 -0.2736 -0.3535  0.1959
  245MOL0     H33792   2.640   9.421   0.482  3.0802 -1.4533 -1.2949
  245MOL0     H33793   2.394   9.386   0.498 -3.3029 -1.2191 -1.4623
  245MOL0     H33794   1.558  10.120   0.876  1.7537 -0.1077 -1.8335
  245MOL0     H33795   1.362  10.255   0.864  1.9924 -1.0089  0.7388
  245MOL0     H33796   0.887  10.114   0.774 -1.1753 -0.8541 -1.1733
  245MOL0     H33797   0.660  10.174   0.687 -0.1087 -0.0838  1.0965
  245MOL0     H33798   0.544  10.596   0.669 -0.2910  0.2950 -1.1782
  245MOL0     H33799   0.477  10.545   0.509  0.7322 -2.1934 -1.1418
  245MOL0     H33800   0.345  10.475   0.772 -1.3894  2.5768  1.1526
  245MOL0     H33801   0.276  10.449   0.609 -1.7612  1.5532 -0.7483
  245MOL0     H33802   0.285  10.695   0.568  0.2987 -5.1842 -2.1166
  245MOL0     H33803   0.168  10.655   0.686  0.1841 -0.6474 -1.0439
  245MOL0     H33804   0.449  10.756   0.759  0.0994 -0.7975 -0.5458
  245MOL0     H33805   0.323  10.703   0.868  2.4088 -3.3553 -0.3266
  245MOL0     H33806   0.156  11.086   0.779  0.0103  0.0705  0.5420
  245MOL0     H33807   0.732  10.588   0.725  1.0852 -0.5752  3.4274
  245MOL0     H33808   0.935  10.682   0.816  0.5365  0.6288 -1.4007
  245MOL0     H33809   1.068  10.569   0.856  2.6174  0.8994 -1.9905
  245MOL0     H33810   1.041  10.620   0.691  1.5737 -1.0932  0.4503
  246MOL0     O33811   4.141   2.330   9.950  0.7485 -0.3223  0.1446
  246MOL0     C33812   4.085   2.432   9.927  0.0490 -1.0147 -0.1726
  246MOL0     O33813   4.136   2.534   9.854  0.0731  0.0033 -0.2901
  246MOL0     C33814   4.263   2.519   9.812  0.7549 -0.0799  0.0962
  246MOL0     C33815   4.281   2.456   9.688 -0.2925 -0.2489 -0.1806
  246MOL0     C33816   4.413   2.444   9.638 -0.5175 -1.0068  0.8957
  246MOL0     C33817   4.524   2.498   9.709  0.7001 -0.3399 -0.4408
  246MOL0     O33818   4.637   2.490   9.639 -0.0681 -0.4177  0.8156
  246MOL0     C33819   4.764   2.488   9.702 -0.8388  0.8658  0.7467
  246MOL0     C33820   4.863   2.431   9.603 -0.3490  0.0663 -0.2382
  246MOL0     C33821   5.007   2.432   9.657 -0.1789 -0.3556  0.7522
  246MOL0     C33822   5.114   2.369   9.556 -0.6830 -0.1112  0.0297
  246MOL0     C33823   5.254   2.364   9.609 -0.5129  0.0443 -0.6151
  246MOL0     C33824   5.282   2.294   9.738 -0.4473 -0.0913  0.3989
  246MOL0     C33825   5.426   2.328   9.779  0.9883 -0.6263 -0.1435
  246MOL0     C33826   5.455   2.237   9.898 -0.0906 -0.1378  0.6020
  246MOL0     N33827   5.579   2.267   9.971 -0.4478 -0.4924  0.1121
  246MOL0     C33828   5.680   2.175   9.963 -0.2923  1.0633 -0.2061
  246MOL0     C33829   5.776   2.232  10.023 -0.6687  0.3573 -0.0540
  246MOL0     C33830   5.914   2.179  10.043 -0.3433  0.0914 -0.6321
  246MOL0     C33831   5.918   2.108  10.185 -0.0418  1.4289 -0.0096
  246MOL0     C33832   6.057   2.055  10.207 -0.3617 -0.2317  0.2192
  246MOL0     C33833   6.067   1.990  10.346  0.6139 -0.4958  0.4712
  246MOL0     O33834   6.209   1.979  10.381  0.3670 -0.2877  0.1413
  246MOL0     C33835   6.268   2.068  10.475  0.5977  0.5284 -0.7512
  246MOL0     C33836   6.402   2.039  10.507  0.0448 -0.5543  0.1694
  246MOL0     C33837   6.480   2.086  10.616  0.1169 -0.2435 -0.0219
  246MOL0     C33838   6.621   2.038  10.630  0.4810  0.2720 -0.0939
  246MOL0     C33839   6.409   2.161  10.715 -0.1559  0.3638  0.8842
  246MOL0     C33840   6.478   2.210  10.841  0.4466  0.0314  0.1907
  246MOL0     O33841   6.617   2.209  10.846 -0.5343  0.4289  0.2526
  246MOL0     C33842   6.685   2.244  10.963 -0.0120  0.1178 -0.0290
  246MOL0     C33843   6.636   2.223  11.094 -1.1829 -0.1523 -0.3249
  246MOL0     C33844   6.727   2.248  11.201  0.0003 -0.1431  0.9555
  246MOL0     C33845   6.855   2.296  11.183  0.3431  0.6216 -0.6911
  246MOL0     O33846   6.927   2.307  11.308 -0.1729  0.4619  0.1627
  246MOL0     C33847   7.070   2.329  11.296  0.0873  0.0978  0.5587
  246MOL0     C33848   7.137   2.314  11.437  0.3398 -0.5895  0.7161
  246MOL0     C33849   7.276   2.387  11.436  0.2665  0.2089 -0.8363
  246MOL0     C33850   7.337   2.406  11.579 -0.0614 -0.3615 -0.6744
  246MOL0     C33851   7.457   2.496  11.570  0.1143  0.3224 -0.0238
  246MOL0     C33852   7.507   2.549  11.702  0.1492  0.5233 -0.2774
  246MOL0     C33853   7.616   2.650  11.699 -0.7155  0.0446  0.2837
  246MOL0     C33854   7.677   2.669  11.838  1.7062 -0.5611  0.6120
  246MOL0    Cl33855   7.553   2.725  11.949 -0.3104 -0.2849 -0.0622
  246MOL0     C33856   6.894   2.314  11.052  0.3496 -0.8728  0.3570
  246MOL0     C33857   6.814   2.298  10.945  0.3832  0.1519  0.3932
  246MOL0     O33858   6.399   2.247  10.930 -0.0355  0.0328  0.4506
  246MOL0     C33859   6.269   2.198  10.686 -1.0909  0.3792 -0.0165
  246MOL0     C33860   6.204   2.150  10.569 -0.3153 -0.3452  0.8121
  246MOL0     N33861   5.738   2.360  10.078  0.5535  0.7400 -0.0028
  246MOL0     N33862   5.616   2.380  10.042  0.0346  0.5586  0.4957
  246MOL0     C33863   4.499   2.576   9.825  0.5871 -0.0164  0.9283
  246MOL0     C33864   4.373   2.582   9.877 -0.4844 -0.2191 -0.3768
  246MOL0     C33865   3.948   2.465   9.979  0.0412  0.0022  0.2516
  246MOL0     C33866   3.916   2.601   9.980 -0.1911 -0.4708 -0.5020
  246MOL0     C33867   3.794   2.641  10.022 -0.1764  0.2555 -0.4677
  246MOL0     C33868   3.693   2.554  10.057 -0.2470 -0.3087 -0.8104
  246MOL0     O33869   3.574   2.612  10.094 -0.0603 -0.1327  0.5684
  246MOL0     C33870   3.467   2.532  10.145 -0.1923 -0.3481 -0.0087
  246MOL0     C33871   3.357   2.622  10.198 -0.1478  0.6910  0.2810
  246MOL0     C33872   3.246   2.553  10.278  0.1361  0.2068 -0.5043
  246MOL0     C33873   3.156   2.655  10.342  0.6936 -0.6416  0.4961
  246MOL0     C33874   3.207   2.731  10.459  0.0254 -0.4264 -0.0485
  246MOL0     C33875   3.219   2.807  10.553 -1.0305 -0.3409 -0.7835
  246MOL0     C33876   3.726   2.413  10.066 -0.6183 -0.7214  0.5464
  246MOL0     C33877   3.859   2.369  10.029 -0.2967 -0.0343  0.1008
  246MOL0     C33878   3.892   2.230  10.058  0.3632 -0.6542  0.4419
  246MOL0     H33879   4.195   2.420   9.634 -1.0772  2.1222 -0.6242
  246MOL0     H33880   4.441   2.387   9.550  1.5334  0.8684  0.2253
  246MOL0     H33881   4.761   2.427   9.793  2.1703 -2.1939 -0.9701
  246MOL0     H33882   4.782   2.591   9.733  1.8527  1.4496 -2.2563
  246MOL0     H33883   4.841   2.327   9.576  0.8994 -0.5710  1.0975
  246MOL0     H33884   4.864   2.491   9.511 -2.8461 -1.4598 -1.3814
  246MOL0     H33885   5.040   2.534   9.676  1.4522 -0.5978 -0.5662
  246MOL0     H33886   5.010   2.380   9.753 -0.1891  3.0078  2.7329
  246MOL0     H33887   5.079   2.267   9.540 -2.3579  0.4183  0.1248
  246MOL0     H33888   5.105   2.419   9.459 -2.8490 -0.5225 -0.0483
  246MOL0     H33889   5.297   2.465   9.604  0.6266 -0.4225 -0.6976
  246MOL0     H33890   5.299   2.303   9.530 -2.2044 -1.8419 -0.2117
  246MOL0     H33891   5.212   2.318   9.819 -1.8685  0.7663 -1.0149
  246MOL0     H33892   5.270   2.185   9.729 -0.5005 -0.2113  1.7032
  246MOL0     H33893   5.420   2.433   9.812  0.5574 -1.1570  1.5800
  246MOL0     H33894   5.507   2.322   9.706  1.4541 -2.2727  0.4762
  246MOL0     H33895   5.372   2.250   9.968 -0.9732 -0.2774 -0.3901
  246MOL0     H33896   5.455   2.132   9.866  0.7387  0.0373  0.0096
  246MOL0     H33897   5.673   2.077   9.916 -2.8518  0.9683  0.2080
  246MOL0     H33898   5.997   2.250  10.037  0.2603 -0.7390 -3.9678
  246MOL0     H33899   5.945   2.096   9.980  2.5602 -0.9596  1.9406
  246MOL0     H33900   5.894   2.189  10.255 -0.4611  1.7280 -0.4968
  246MOL0     H33901   5.848   2.027  10.205  2.4197 -0.5841  1.0522
  246MOL0     H33902   6.098   1.985  10.134  1.3847  3.0345 -2.1585
  246MOL0     H33903   6.129   2.136  10.195 -1.2947  0.5976  0.0982
  246MOL0     H33904   6.009   2.048  10.418  0.0160  0.0445 -0.4345
  246MOL0     H33905   6.020   1.895  10.316  2.1117 -0.1581 -3.6720
  246MOL0     H33906   6.454   1.974  10.437  0.7457  1.0792 -0.9064
  246MOL0     H33907   6.648   1.971  10.548  0.2349  0.0161  0.0321
  246MOL0     H33908   6.631   1.977  10.720 -0.3656 -1.7247 -1.2975
  246MOL0     H33909   6.695   2.118  10.633  0.5900  0.1582  2.0382
  246MOL0     H33910   6.535   2.185  11.104 -1.0485 -0.4727 -0.1652
  246MOL0     H33911   6.690   2.226  11.301  1.2540 -0.2084  1.4181
  246MOL0     H33912   7.114   2.257  11.226  0.5232  2.0094 -1.2300
  246MOL0     H33913   7.079   2.432  11.261  1.5637 -0.9618 -2.6174
  246MOL0     H33914   7.067   2.361  11.507  1.2204 -1.6543  2.3844
  246MOL0     H33915   7.144   2.209  11.469 -0.2100 -0.7764  0.2481
  246MOL0     H33916   7.264   2.483  11.383  1.9136 -0.3207 -2.2665
  246MOL0     H33917   7.347   2.325  11.381  1.6711  0.5889  0.4652
  246MOL0     H33918   7.361   2.307  11.620  0.4057 -0.5088 -1.2755
  246MOL0     H33919   7.267   2.447  11.652  0.0552 -2.2120  0.5483
  246MOL0     H33920   7.535   2.435  11.523  0.5876  1.0315 -0.1671
  246MOL0     H33921   7.441   2.568  11.490 -1.9921 -0.1071 -0.0344
  246MOL0     H33922   7.536   2.461  11.760 -0.9879  0.2576 -0.0993
  246MOL0     H33923   7.432   2.603  11.759 -0.8615 -0.1758 -0.9159
  246MOL0     H33924   7.574   2.748  11.677 -2.0468 -0.1811  1.6382
  246MOL0     H33925   7.697   2.640  11.626 -0.5425  0.4204  0.4232
  246MOL0     H33926   7.764   2.735  11.824  1.0897 -0.1625 -1.8904
  246MOL0     H33927   7.697   2.569  11.877 -0.9884 -0.2193  3.1769
  246MOL0     H33928   6.994   2.354  11.044 -0.6290  1.6834 -0.1122
  246MOL0     H33929   6.837   2.331  10.844 -1.5962  2.6482  0.6274
  246MOL0     H33930   6.213   2.262  10.753 -2.6211 -1.5886  0.7221
  246MOL0     H33931   6.100   2.176  10.549 -0.3785 -1.1283  0.0846
  246MOL0     H33932   4.573   2.637   9.876  0.8123  1.9724 -1.5978
  246MOL0     H33933   4.375   2.633   9.973 -1.7606 -0.9289  0.0550
  246MOL0     H33934   3.991   2.678   9.967 -0.0827 -0.6784 -1.1523
  246MOL0     H33935   3.782   2.749  10.019 -0.7608  0.3375  2.3458
  246MOL0     H33936   3.438   2.466  10.063  0.2626  0.3700 -0.7750
  246MOL0     H33937   3.513   2.470  10.222 -2.6106 -1.5009  0.6097
  246MOL0     H33938   3.306   2.666  10.113 -1.3225  0.7439  0.9889
  246MOL0     H33939   3.406   2.703  10.253  3.8971 -2.6677  2.1825
  246MOL0     H33940   3.192   2.482  10.213  0.9385 -0.7232 -0.1799
  246MOL0     H33941   3.287   2.491  10.358  2.4166  3.4123  0.9970
  246MOL0     H33942   3.066   2.602  10.375  0.4165 -0.3700  0.1849
  246MOL0     H33943   3.117   2.725  10.267 -0.7146 -1.3399  0.5355
  246MOL0     H33944   3.224   2.885  10.626  1.0056 -0.0061 -1.2411
  246MOL0     H33945   3.651   2.338  10.085 -0.0949 -1.0165  1.5137
  246MOL0     H33946   3.795   2.186  10.083 -0.9191  2.0933  0.6522
  246MOL0     H33947   3.934   2.179   9.971  1.9027 -0.4436  1.0305
  246MOL0     H33948   3.964   2.224  10.140  0.7177  2.8348  0.5245
  247MOL0     O33949   5.526  10.935   1.176 -0.0448  0.5107 -0.3794
  247MOL0     C33950   5.555  10.830   1.231 -0.0515  0.6500 -0.5186
  247MOL0     O33951   5.679  10.784   1.258  0.4919  0.1435  0.0507
  247MOL0     C33952   5.787  10.832   1.192 -0.5160 -0.1789  0.6978
  247MOL0     C33953   5.782  10.874   1.058  0.3579  0.5249 -0.1042
  247MOL0     C33954   5.899  10.896   0.992 -0.2291 -0.0090  0.2216
  247MOL0     C33955   6.026  10.905   1.057  0.1401  0.0756 -0.5543
  247MOL0     O33956   6.137  10.941   0.980  0.4647 -0.1729  0.4356
  247MOL0     C33957   6.254  10.871   1.014  1.1515 -0.1672  0.8527
  247MOL0     C33958   6.368  10.909   0.929 -0.2334 -0.8375  0.0569
  247MOL0     C33959   6.361  10.849   0.784 -0.0913  0.2711 -0.5346
  247MOL0     C33960   6.253  10.904   0.694  0.0028 -0.7273 -0.6733
  247MOL0     C33961   6.266  11.049   0.674  0.3074 -0.6646  0.3653
  247MOL0     C33962   6.156  11.097   0.570  0.3498 -0.0685 -0.3214
  247MOL0     C33963   6.191  11.233   0.516 -0.0356  0.1954 -0.1780
  247MOL0     C33964   6.092  11.283   0.402  0.0386 -0.0352  1.0898
  247MOL0     N33965   6.157  11.375   0.313  0.0087  0.0146 -1.5904
  247MOL0     C33966   6.246  11.349   0.211 -0.5848  0.0147  0.0637
  247MOL0     C33967   6.269  11.475   0.165 -0.5659 -0.2785  0.2680
  247MOL0     C33968   6.387  11.506   0.084 -0.2023  0.3225 -0.6981
  247MOL0     C33969   6.515  11.502   0.159  0.1857 -0.2482  0.1147
  247MOL0     C33970   6.522  11.602   0.283  0.0053 -0.1859  0.9134
  247MOL0     C33971   6.635  11.570   0.378 -0.4127 -0.4586 -0.6988
  247MOL0     O33972   6.761  11.595   0.306  0.4190  0.5019 -0.2277
  247MOL0     C33973   6.865  11.554   0.386 -1.0050  0.5443  0.4516
  247MOL0     C33974   6.945  11.649   0.444  0.6401 -0.0816  0.5971
  247MOL0     C33975   7.057  11.616   0.519  0.4874 -1.3696  0.8911
  247MOL0     C33976   7.128  11.742   0.583 -0.1120 -0.0685 -0.0845
  247MOL0     C33977   7.089  11.479   0.547  0.2439 -0.0985  0.5741
  247MOL0     C33978   7.195  11.438   0.646  0.1687 -0.3636  0.1353
  247MOL0     O33979   7.204  11.307   0.678  0.5148 -0.0273  0.6692
  247MOL0     C33980   7.298  11.259   0.767  0.2660  0.6268  0.4641
  247MOL0     C33981   7.256  11.158   0.857  0.3302  0.0928 -0.2231
  247MOL0     C33982   7.341  11.107   0.959 -1.1121 -0.7268 -0.7911
  247MOL0     C33983   7.476  11.151   0.953  0.1119 -0.6261 -0.1670
  247MOL0     O33984   7.570  11.111   1.047 -0.5656  0.0548 -0.0570
  247MOL0     C33985   7.685  11.058   0.997  1.0280  0.7499  0.8787
  247MOL0     C33986   7.687  10.907   0.952  0.4569 -0.9156  1.1109
  247MOL0     C33987   7.623  10.889   0.810 -0.1713  0.1943  0.7219
  247MOL0     C33988   7.650  10.761   0.733  0.4453  0.2884  0.7425
  247MOL0     C33989   7.570  10.760   0.611  0.6914  0.1886  0.1527
  247MOL0     C33990   7.621  10.652   0.516  0.2619 -0.3021  0.2508
  247MOL0     C33991   7.594  10.507   0.575 -0.3282 -0.6434 -0.1655
  247MOL0     C33992   7.602  10.396   0.470 -0.3818 -1.0285  0.3106
  247MOL0    Cl33993   7.603  10.222   0.526 -0.1155  0.1331 -0.2837
  247MOL0     C33994   7.513  11.256   0.875  0.7019  0.0394  0.9990
  247MOL0     C33995   7.427  11.308   0.776  0.7432 -1.1024 -0.0142
  247MOL0     O33996   7.259  11.525   0.711 -0.5554 -0.2886  0.1089
  247MOL0     C33997   7.002  11.386   0.503 -0.4007 -0.7394  1.3676
  247MOL0     C33998   6.891  11.420   0.423  0.1913  0.6544  0.1947
  247MOL0     N33999   6.199  11.568   0.233  0.7366 -0.7542 -0.1135
  247MOL0     N34000   6.134  11.504   0.323  0.0890 -0.4005 -0.4179
  247MOL0     C34001   6.023  10.874   1.198 -0.6533  0.7009  0.4874
  247MOL0     C34002   5.906  10.826   1.261  0.2900  0.2568  0.9284
  247MOL0     C34003   5.442  10.737   1.280 -0.3366  0.1501 -0.4333
  247MOL0     C34004   5.451  10.606   1.255  0.3162  0.3563  0.5556
  247MOL0     C34005   5.336  10.525   1.260 -0.8611  0.5647  0.8748
  247MOL0     C34006   5.215  10.573   1.305  0.8117 -0.1160 -0.5045
  247MOL0     O34007   5.127  10.476   1.339  0.1974 -0.0142  0.3572
  247MOL0     C34008   4.986  10.506   1.354 -0.3490  0.3000  0.8886
  247MOL0     C34009   4.903  10.373   1.356 -0.9055  0.2220 -0.1013
  247MOL0     C34010   4.924  10.296   1.486  0.3033 -0.2630 -0.2110
  247MOL0     C34011   4.830  10.341   1.594 -0.2077 -0.0502  0.3264
  247MOL0     C34012   4.699  10.277   1.606  0.2990  0.0377  0.5841
  247MOL0     C34013   4.583  10.243   1.606  0.0808 -0.5563 -1.1685
  247MOL0     C34014   5.213  10.709   1.352  0.6494 -0.1168  0.3163
  247MOL0     C34015   5.324  10.793   1.329  0.0725  0.7378  0.6985
  247MOL0     C34016   5.305  10.934   1.348  0.5911 -0.6989  0.9486
  247MOL0     H34017   5.698  10.866   0.990  0.7177 -0.0767 -0.4911
  247MOL0     H34018   5.900  10.919   0.886  0.3928 -0.0401  0.2206
  247MOL0     H34019   6.235  10.764   0.997  0.7243 -0.3539  2.4133
  247MOL0     H34020   6.279  10.888   1.119 -0.2056  0.4039  1.1098
  247MOL0     H34021   6.366  11.017   0.911 -1.1130 -0.9972 -0.8914
  247MOL0     H34022   6.461  10.873   0.973  0.3920 -2.1552 -2.1995
  247MOL0     H34023   6.461  10.868   0.744 -0.6368  1.4452 -1.3798
  247MOL0     H34024   6.354  10.740   0.778 -2.0350  0.1404  2.0242
  247MOL0     H34025   6.261  10.852   0.599 -2.3225  0.4323 -1.5758
  247MOL0     H34026   6.151  10.881   0.725  0.2953 -1.8996 -0.5387
  247MOL0     H34027   6.363  11.065   0.626  0.3984 -3.0007 -0.3341
  247MOL0     H34028   6.248  11.103   0.768 -2.0492 -2.3464  0.9694
  247MOL0     H34029   6.152  11.022   0.491  0.3387 -0.6627  0.2371
  247MOL0     H34030   6.062  11.099   0.628 -0.0253  0.1515 -0.9325
  247MOL0     H34031   6.291  11.216   0.475  0.2264 -0.2631  0.6353
  247MOL0     H34032   6.202  11.312   0.592  2.3923  1.4120 -1.6821
  247MOL0     H34033   6.088  11.190   0.344  3.4307  0.1466  0.3766
  247MOL0     H34034   5.995  11.319   0.437 -1.0836 -1.0371 -0.8080
  247MOL0     H34035   6.306  11.262   0.186 -0.8946  0.0392 -0.7747
  247MOL0     H34036   6.376  11.604   0.037 -4.1755  0.0179 -0.6970
  247MOL0     H34037   6.383  11.440  -0.002 -2.4919  0.3190 -0.6597
  247MOL0     H34038   6.521  11.401   0.200 -1.4423 -0.4530 -0.0738
  247MOL0     H34039   6.596  11.515   0.088 -2.0433  2.0352 -2.2255
  247MOL0     H34040   6.529  11.707   0.251 -1.3954 -1.2696 -3.7175
  247MOL0     H34041   6.431  11.608   0.343  1.4297  0.3868  3.1298
  247MOL0     H34042   6.625  11.634   0.466  1.3144  1.2272 -1.6498
  247MOL0     H34043   6.634  11.467   0.416  0.8159 -0.9041 -1.7583
  247MOL0     H34044   6.912  11.752   0.432 -1.0954 -0.8943 -2.8781
  247MOL0     H34045   7.233  11.741   0.555  0.3869  1.2637  1.5710
  247MOL0     H34046   7.123  11.725   0.692 -0.9205 -0.6931 -0.2058
  247MOL0     H34047   7.073  11.832   0.557 -3.0142 -2.0095 -1.2287
  247MOL0     H34048   7.148  11.147   0.862  0.3906 -1.1466 -1.2102
  247MOL0     H34049   7.316  11.035   1.036 -1.0087 -0.4426 -0.4894
  247MOL0     H34050   7.714  11.129   0.919 -2.0442  0.4427 -0.7369
  247MOL0     H34051   7.761  11.055   1.075  0.2713 -1.6880  1.6223
  247MOL0     H34052   7.785  10.859   0.963 -0.4332 -2.4218  2.9073
  247MOL0     H34053   7.628  10.849   1.023 -1.5939 -0.2207  0.0484
  247MOL0     H34054   7.643  10.970   0.739 -1.0601 -0.2615 -0.0717
  247MOL0     H34055   7.515  10.887   0.823 -0.2134  2.0489  0.8757
  247MOL0     H34056   7.620  10.673   0.790  1.6741 -2.0517 -1.9332
  247MOL0     H34057   7.756  10.753   0.706  0.6030  0.2789  1.3662
  247MOL0     H34058   7.464  10.746   0.633  0.8204 -0.6644  0.2720
  247MOL0     H34059   7.591  10.857   0.566  0.8426  1.0500  2.0146
  247MOL0     H34060   7.726  10.671   0.491 -0.2995  2.8045 -0.0658
  247MOL0     H34061   7.571  10.668   0.420  0.1371  1.1914  0.5411
  247MOL0     H34062   7.495  10.503   0.621 -0.6961 -0.0652 -0.8865
  247MOL0     H34063   7.674  10.480   0.645 -0.0138  1.1809  0.2348
  247MOL0     H34064   7.701  10.413   0.425  0.9411 -0.7705  3.0954
  247MOL0     H34065   7.520  10.419   0.402 -0.2422 -0.7926  0.2193
  247MOL0     H34066   7.607  11.310   0.878 -0.1984  2.0653 -1.7754
  247MOL0     H34067   7.456  11.383   0.702 -2.4938 -2.0704 -2.5307
  247MOL0     H34068   7.022  11.286   0.540 -1.1695 -1.7235 -0.7189
  247MOL0     H34069   6.821  11.344   0.388  0.3526  0.0359  1.1811
  247MOL0     H34070   6.109  10.874   1.264 -0.5243 -2.0799  0.4337
  247MOL0     H34071   5.902  10.788   1.362  0.4125 -1.1873  0.4219
  247MOL0     H34072   5.544  10.563   1.220  0.4883  0.8296  0.4377
  247MOL0     H34073   5.337  10.417   1.243  0.6563  0.6028  0.5998
  247MOL0     H34074   4.963  10.557   1.449  2.0894  1.2785  1.0375
  247MOL0     H34075   4.952  10.568   1.271  0.8751  1.0085  0.8944
  247MOL0     H34076   4.919  10.309   1.268 -0.5053 -0.1082  0.2048
  247MOL0     H34077   4.797  10.398   1.368 -0.8935 -0.4311  1.6754
  247MOL0     H34078   4.916  10.187   1.483  2.6088 -0.4850 -2.3234
  247MOL0     H34079   5.026  10.316   1.519 -0.0017  0.2770  0.4247
  247MOL0     H34080   4.801  10.446   1.581 -1.7170 -0.5203 -0.3759
  247MOL0     H34081   4.878  10.335   1.692  0.7503  0.8636 -0.0567
  247MOL0     H34082   4.480  10.214   1.596  0.2478 -1.7337  0.2260
  247MOL0     H34083   5.122  10.745   1.398  0.9091  2.2601 -0.8725
  247MOL0     H34084   5.250  10.987   1.270 -0.3908 -0.7831  1.5643
  247MOL0     H34085   5.235  10.953   1.430  1.5626  4.7929  0.9159
  247MOL0     H34086   5.390  11.000   1.368 -0.8413  1.0470  1.5501
  248MOL0     O34087   2.459   8.010   2.879  0.9039  0.5617  0.1058
  248MOL0     C34088   2.338   7.985   2.911  0.1572  0.1457 -0.0083
  248MOL0     O34089   2.298   7.897   3.002  0.5513  0.4873 -0.0052
  248MOL0     C34090   2.376   7.782   3.006 -0.2940  0.5353  0.0628
  248MOL0     C34091   2.323   7.658   2.950  0.1964 -0.2277  0.3253
  248MOL0     C34092   2.393   7.548   2.957 -0.1463  0.1918  0.6562
  248MOL0     C34093   2.529   7.541   3.003  0.1863  0.1404 -0.3586
  248MOL0     O34094   2.622   7.434   3.002 -0.2625 -0.4068 -0.3836
  248MOL0     C34095   2.572   7.306   2.972  0.2502  0.4552  0.1955
  248MOL0     C34096   2.674   7.194   2.994 -0.4771 -0.3268 -0.3839
  248MOL0     C34097   2.760   7.210   3.112  0.0579  0.0169 -0.3263
  248MOL0     C34098   2.674   7.216   3.239 -0.1557  0.7715 -0.0161
  248MOL0     C34099   2.744   7.269   3.367  0.8344 -0.0733  0.5945
  248MOL0     C34100   2.857   7.177   3.417 -0.3011 -0.7535  0.3251
  248MOL0     C34101   2.960   7.249   3.505 -0.6670  0.0830 -0.5026
  248MOL0     C34102   3.076   7.162   3.558 -0.4261 -0.1254  0.3102
  248MOL0     N34103   3.170   7.127   3.450  0.9723 -0.1906 -0.1863
  248MOL0     C34104   3.245   7.214   3.366  0.0580  0.1297  0.0593
  248MOL0     C34105   3.314   7.120   3.289 -0.5632  0.0788  0.1004
  248MOL0     C34106   3.401   7.146   3.170  0.0362 -0.9962  0.4464
  248MOL0     C34107   3.553   7.162   3.206  0.1405 -0.5391  0.4273
  248MOL0     C34108   3.621   7.042   3.267  0.5995 -0.2045 -0.7377
  248MOL0     C34109   3.768   7.066   3.311 -0.0827 -0.6464 -0.8093
  248MOL0     O34110   3.777   7.182   3.395 -0.0346 -0.7213  0.3447
  248MOL0     C34111   3.892   7.204   3.467 -0.2121  0.4287 -0.3441
  248MOL0     C34112   3.909   7.317   3.542  0.3110 -0.5703  0.2038
  248MOL0     C34113   4.032   7.350   3.596  0.6196 -0.6974 -0.5064
  248MOL0     C34114   4.026   7.480   3.669  0.2604  0.0642 -0.2402
  248MOL0     C34115   4.149   7.271   3.577  0.0327 -0.5400 -0.1486
  248MOL0     C34116   4.279   7.303   3.627 -0.3679 -0.0513 -0.1057
  248MOL0     O34117   4.381   7.264   3.551 -1.1180  0.2220  0.3180
  248MOL0     C34118   4.495   7.343   3.550 -0.7824 -0.1725  0.1968
  248MOL0     C34119   4.577   7.356   3.666  0.3500 -0.4539 -0.1100
  248MOL0     C34120   4.693   7.432   3.645  0.3321 -0.1927 -0.5758
  248MOL0     C34121   4.730   7.491   3.525  0.2985  0.0447  0.1869
  248MOL0     O34122   4.852   7.562   3.512 -0.1835  0.2278 -0.5378
  248MOL0     C34123   4.972   7.528   3.589 -0.5735 -0.1764 -0.2591
  248MOL0     C34124   5.092   7.555   3.507  0.3308 -0.2398  0.5943
  248MOL0     C34125   5.085   7.682   3.438 -0.0167 -0.3358  0.2742
  248MOL0     C34126   5.213   7.720   3.373 -0.5164 -0.1182 -0.5858
  248MOL0     C34127   5.203   7.840   3.276 -0.5497 -0.2327 -0.8690
  248MOL0     C34128   5.341   7.884   3.222 -0.1709  0.1688  0.0728
  248MOL0     C34129   5.312   7.984   3.110 -0.3542 -0.6788  0.1206
  248MOL0     C34130   5.423   8.091   3.106 -0.3013 -0.2068  0.2644
  248MOL0    Cl34131   5.392   8.173   2.949  0.3158 -0.1711  0.4425
  248MOL0     C34132   4.647   7.469   3.415  0.0573  0.1648 -0.5775
  248MOL0     C34133   4.532   7.396   3.431 -0.4314 -0.8135  0.5814
  248MOL0     O34134   4.284   7.361   3.736 -0.3692  0.1582  0.4744
  248MOL0     C34135   4.133   7.152   3.501  0.1647 -0.1545  0.4895
  248MOL0     C34136   4.005   7.121   3.442  0.2922 -0.2712 -1.0205
  248MOL0     N34137   3.285   6.991   3.332 -0.0863 -0.8119  0.1858
  248MOL0     N34138   3.201   6.994   3.429 -0.5643 -0.2174 -0.6454
  248MOL0     C34139   2.579   7.660   3.060 -0.2230 -0.3796  0.2182
  248MOL0     C34140   2.503   7.775   3.061  0.2699 -0.5332 -0.5611
  248MOL0     C34141   2.222   8.044   2.839  0.2869  0.2326 -0.8004
  248MOL0     C34142   2.097   7.978   2.825  0.6067 -0.4808  0.5113
  248MOL0     C34143   1.993   8.019   2.743 -0.1253 -0.4522  0.5439
  248MOL0     C34144   2.005   8.140   2.680  1.1450  1.0604 -0.1215
  248MOL0     O34145   1.892   8.183   2.611 -0.9131  0.0146 -0.1893
  248MOL0     C34146   1.923   8.249   2.483 -0.3193  0.6932 -0.2155
  248MOL0     C34147   1.899   8.392   2.494  0.4363 -0.5247  0.6799
  248MOL0     C34148   1.757   8.430   2.512 -0.6690 -0.2414 -0.1412
  248MOL0     C34149   1.739   8.554   2.591  0.2032 -0.1425  0.0362
  248MOL0     C34150   1.599   8.593   2.568  0.2708  0.6543  0.5336
  248MOL0     C34151   1.481   8.623   2.563  0.6441  0.0245  0.2726
  248MOL0     C34152   2.129   8.202   2.687  0.0422  0.6330  0.4880
  248MOL0     C34153   2.233   8.158   2.753  0.2894  0.2910 -0.5052
  248MOL0     C34154   2.367   8.245   2.741  1.0546  0.2639 -0.1102
  248MOL0     H34155   2.226   7.665   2.902 -0.3213 -0.9348  1.2404
  248MOL0     H34156   2.359   7.461   2.903  2.7488 -0.9727  0.5494
  248MOL0     H34157   2.521   7.301   2.875 -2.7416 -2.5702  1.6631
  248MOL0     H34158   2.489   7.288   3.041  0.2132  2.6470  0.7893
  248MOL0     H34159   2.618   7.101   3.002 -1.2189  0.0779 -0.7054
  248MOL0     H34160   2.745   7.188   2.911  2.7127  0.0745  2.1141
  248MOL0     H34161   2.825   7.123   3.129  0.4477  0.7739  2.5612
  248MOL0     H34162   2.818   7.302   3.107 -0.9060  0.6908  0.5422
  248MOL0     H34163   2.588   7.280   3.215 -0.7642  1.0091  2.5421
  248MOL0     H34164   2.633   7.116   3.253 -0.9559  1.3629  2.2235
  248MOL0     H34165   2.669   7.273   3.446 -1.2023 -0.4431 -1.2289
  248MOL0     H34166   2.794   7.366   3.352  3.6966 -1.5682 -0.2187
  248MOL0     H34167   2.803   7.094   3.465 -1.6367 -0.3708 -0.4953
  248MOL0     H34168   2.909   7.138   3.329  0.9728 -2.3098  1.7000
  248MOL0     H34169   2.931   7.296   3.600  0.4098  0.8019 -0.5179
  248MOL0     H34170   3.000   7.326   3.439 -1.7848 -1.9032 -3.7310
  248MOL0     H34171   3.126   7.232   3.626  0.4522 -0.1888 -0.2569
  248MOL0     H34172   3.046   7.076   3.619 -2.3785 -0.0831 -0.5126
  248MOL0     H34173   3.236   7.322   3.358 -1.5104 -0.0381 -1.0189
  248MOL0     H34174   3.371   7.243   3.130  2.0294  0.0362  1.3261
  248MOL0     H34175   3.387   7.081   3.083 -0.1161 -0.3706 -0.0039
  248MOL0     H34176   3.614   7.193   3.121 -1.9456  1.5464 -0.4256
  248MOL0     H34177   3.557   7.249   3.272 -1.1356  1.2477 -1.7312
  248MOL0     H34178   3.560   7.022   3.356  0.4480  3.2129  0.0652
  248MOL0     H34179   3.614   6.964   3.191  0.8806  1.0242 -2.0768
  248MOL0     H34180   3.792   6.982   3.377 -1.8362 -2.1479 -1.9806
  248MOL0     H34181   3.831   7.080   3.222  1.8727  3.4779  0.9403
  248MOL0     H34182   3.819   7.375   3.562 -0.5810 -0.2665 -3.8403
  248MOL0     H34183   4.103   7.549   3.634  2.8527 -2.9993 -1.0453
  248MOL0     H34184   4.039   7.457   3.775 -2.2604 -2.5252 -0.3511
  248MOL0     H34185   3.934   7.539   3.666 -0.6722 -1.2708  0.8095
  248MOL0     H34186   4.538   7.334   3.766 -0.4212  2.2625  0.2722
  248MOL0     H34187   4.763   7.443   3.728 -0.0976 -0.3424 -0.1885
  248MOL0     H34188   4.974   7.595   3.676  1.4244 -2.7439  1.8371
  248MOL0     H34189   4.984   7.425   3.623  0.4108 -0.2220 -0.7044
  248MOL0     H34190   5.186   7.554   3.564  1.1872 -0.6108 -0.7631
  248MOL0     H34191   5.110   7.484   3.426 -0.6790 -3.5497  3.0490
  248MOL0     H34192   5.069   7.765   3.508  2.5111 -0.7950  1.5221
  248MOL0     H34193   5.002   7.673   3.367  0.5184  1.5951 -0.6946
  248MOL0     H34194   5.246   7.637   3.309 -1.2212 -2.4369  1.9103
  248MOL0     H34195   5.282   7.734   3.457 -1.7662  0.5966  0.3511
  248MOL0     H34196   5.127   7.829   3.198 -1.3891  1.2660 -0.3079
  248MOL0     H34197   5.168   7.923   3.338  2.4929  0.9408 -0.5232
  248MOL0     H34198   5.385   7.792   3.182 -0.0887 -0.8289  2.3122
  248MOL0     H34199   5.413   7.920   3.296  1.3626  0.4771 -1.5053
  248MOL0     H34200   5.212   8.030   3.114 -0.3285 -0.5847 -0.2596
  248MOL0     H34201   5.302   7.922   3.020 -1.5782 -2.3032  1.3177
  248MOL0     H34202   5.521   8.043   3.113  0.1316  0.6175 -0.0343
  248MOL0     H34203   5.395   8.156   3.189 -0.3633  0.0826  0.0166
  248MOL0     H34204   4.670   7.511   3.318  1.6794  2.9121  0.8665
  248MOL0     H34205   4.467   7.384   3.344 -0.0707  1.0189  0.0196
  248MOL0     H34206   4.216   7.091   3.470 -0.0076 -0.2770  0.2650
  248MOL0     H34207   4.001   7.027   3.387  0.4641 -1.4502  0.8932
  248MOL0     H34208   2.683   7.665   3.089  1.0034 -0.2843 -3.6884
  248MOL0     H34209   2.548   7.862   3.107  0.9369  0.7295 -3.4256
  248MOL0     H34210   2.083   7.891   2.888 -1.5412 -0.8701 -0.4277
  248MOL0     H34211   1.906   7.954   2.743 -0.4496 -0.0186  0.1865
  248MOL0     H34212   2.024   8.224   2.447 -1.3024 -2.8077 -0.8654
  248MOL0     H34213   1.858   8.199   2.411 -0.3481 -1.8182  1.4498
  248MOL0     H34214   1.935   8.431   2.398 -1.7797 -2.2455 -0.9323
  248MOL0     H34215   1.965   8.437   2.569  2.0080 -1.2312 -0.2202
  248MOL0     H34216   1.725   8.454   2.410  2.2919  0.7767 -0.9087
  248MOL0     H34217   1.697   8.350   2.557 -1.2550  0.8449  1.1114
  248MOL0     H34218   1.814   8.631   2.573  1.0415 -1.1244 -0.7652
  248MOL0     H34219   1.752   8.521   2.694  2.1394  0.5745  0.0477
  248MOL0     H34220   1.378   8.648   2.547  1.4478  1.9109 -2.5973
  248MOL0     H34221   2.134   8.292   2.626 -0.3945  0.2299 -0.1554
  248MOL0     H34222   2.386   8.303   2.832 -0.4416 -3.3515  2.7825
  248MOL0     H34223   2.456   8.184   2.724 -1.1859 -3.3836  0.2659
  248MOL0     H34224   2.353   8.309   2.653 -0.7001  1.6745  1.1119
  249MOL0     O34225   7.688   1.612   8.298  0.6065 -0.6057  0.8311
  249MOL0     C34226   7.677   1.646   8.176  1.1645 -0.0186  0.0344
  249MOL0     O34227   7.781   1.648   8.081 -0.1267  0.7872 -0.5037
  249MOL0     C34228   7.911   1.610   8.124  0.4486  0.3697  0.0842
  249MOL0     C34229   7.969   1.494   8.069  0.1842 -0.0227  0.3208
  249MOL0     C34230   8.102   1.464   8.098 -0.2746  0.1533  0.1201
  249MOL0     C34231   8.183   1.557   8.171  0.3644  0.1212  0.9172
  249MOL0     O34232   8.318   1.524   8.182 -0.1152  0.1379  0.4499
  249MOL0     C34233   8.398   1.599   8.274  0.9243  0.1988 -0.6517
  249MOL0     C34234   8.536   1.531   8.293  0.0479 -0.6644 -1.1333
  249MOL0     C34235   8.602   1.494   8.161  0.1294 -0.1984 -0.4878
  249MOL0     C34236   8.733   1.417   8.175  0.2354  0.0645 -0.2186
  249MOL0     C34237   8.833   1.466   8.060  0.4913 -0.6814  0.1149
  249MOL0     C34238   8.928   1.588   8.118  0.7169  0.1003  0.2953
  249MOL0     C34239   9.013   1.660   8.013 -0.3513 -0.7807  0.5087
  249MOL0     C34240   9.114   1.769   8.059 -0.1647  0.6922  0.8222
  249MOL0     N34241   9.192   1.814   7.939 -0.5318  0.5924 -0.1106
  249MOL0     C34242   9.160   1.870   7.821  0.3486 -0.5361 -0.4530
  249MOL0     C34243   9.266   1.873   7.739 -0.1284 -0.5803 -1.2358
  249MOL0     C34244   9.281   1.926   7.599  0.4209  0.0074  0.7872
  249MOL0     C34245   9.403   2.009   7.586  1.0264 -0.2755  0.4425
  249MOL0     C34246   9.444   2.051   7.448 -0.4865 -0.0276 -0.7988
  249MOL0     C34247   9.592   2.095   7.455 -0.7709 -0.3231 -0.3998
  249MOL0     O34248   9.680   1.992   7.494  0.2364  0.0216  0.3281
  249MOL0     C34249   9.813   2.019   7.506  0.0873  0.5353 -0.1952
  249MOL0     C34250   9.899   1.918   7.554 -0.2770  0.2044 -0.1979
  249MOL0     C34251  10.038   1.944   7.562 -0.5157  0.0953  0.5282
  249MOL0     C34252  10.125   1.837   7.623 -0.2247  0.3910  0.3461
  249MOL0     C34253  10.096   2.073   7.530  0.6295  0.0490  0.3731
  249MOL0     C34254  10.238   2.111   7.539 -0.2547  0.0072 -0.9362
  249MOL0     O34255  10.337   2.008   7.520  0.2650  0.2221  0.2078
  249MOL0     C34256  10.463   2.038   7.560 -0.1423  0.5593 -0.5478
  249MOL0     C34257  10.544   2.140   7.506 -0.2650 -0.6846 -0.9309
  249MOL0     C34258  10.669   2.161   7.554  0.2159 -0.1633  0.3862
  249MOL0     C34259  10.721   2.093   7.665 -0.3925 -0.0041 -0.2603
  249MOL0     O34260  10.843   2.126   7.711 -0.4359 -0.4085  0.1409
  249MOL0     C34261  10.935   2.022   7.732  0.0918 -0.3865  0.3061
  249MOL0     C34262  11.069   2.100   7.762 -0.3375  0.4493  0.6592
  249MOL0     C34263  11.148   2.166   7.653  0.4440  0.2789 -0.7886
  249MOL0     C34264  11.230   2.281   7.718  0.5712  0.0662  0.6271
  249MOL0     C34265  11.345   2.326   7.621  0.9414  0.5760  0.2969
  249MOL0     C34266  11.445   2.406   7.699 -0.6865 -0.3607  0.2525
  249MOL0     C34267  11.386   2.524   7.792 -0.3813  0.2589 -0.2405
  249MOL0     C34268  11.494   2.608   7.859  0.4364  0.7229  0.0881
  249MOL0    Cl34269  11.537   2.732   7.729 -0.4511  0.1976 -0.0341
  249MOL0     C34270  10.641   1.992   7.716 -0.3428  0.4064  0.6249
  249MOL0     C34271  10.510   1.969   7.670  0.7647  0.0232  0.3783
  249MOL0     O34272  10.258   2.226   7.577 -0.4649 -0.2676  0.4821
  249MOL0     C34273  10.004   2.172   7.489 -0.6206  0.0828 -0.2791
  249MOL0     C34274   9.866   2.142   7.474 -0.6674 -0.0968  0.1416
  249MOL0     N34275   9.368   1.819   7.814 -0.5246 -0.6650  0.2300
  249MOL0     N34276   9.326   1.778   7.926 -0.6349 -0.3143  0.5955
  249MOL0     C34277   8.124   1.677   8.223 -0.1460  0.3347  0.1876
  249MOL0     C34278   7.985   1.702   8.193  0.4314  0.8050 -0.1576
  249MOL0     C34279   7.554   1.720   8.132 -0.0413 -0.4336  0.3810
  249MOL0     C34280   7.548   1.785   7.999 -0.1975  0.3641  0.2225
  249MOL0     C34281   7.438   1.858   7.957 -0.2019  0.4947  0.0943
  249MOL0     C34282   7.326   1.871   8.032 -0.3879  0.0498 -0.5837
  249MOL0     O34283   7.211   1.926   7.982 -0.2159 -0.0256 -0.4595
  249MOL0     C34284   7.219   2.028   7.885 -0.0392 -0.0296  0.2160
  249MOL0     C34285   7.103   2.125   7.867  0.4788  0.2733 -0.2537
  249MOL0     C34286   7.153   2.235   7.764  1.1383  0.7235 -0.5269
  249MOL0     C34287   7.037   2.321   7.715 -0.3835  0.5882 -0.3245
  249MOL0     C34288   6.951   2.257   7.618 -0.1792  0.1657  0.4202
  249MOL0     C34289   6.875   2.205   7.542 -0.6062 -0.7760  0.7336
  249MOL0     C34290   7.321   1.799   8.158 -0.5933  0.4101  0.3785
  249MOL0     C34291   7.432   1.734   8.210 -0.5005 -0.2732 -0.2666
  249MOL0     C34292   7.407   1.667   8.344  0.0609  0.2804 -0.6875
  249MOL0     H34293   7.908   1.428   8.008 -0.5942 -0.3771  1.4551
  249MOL0     H34294   8.151   1.376   8.058  3.6556  2.2811 -0.3107
  249MOL0     H34295   8.345   1.596   8.369  1.3043 -0.6530 -0.4513
  249MOL0     H34296   8.406   1.699   8.230  1.9918  0.3182 -0.2151
  249MOL0     H34297   8.599   1.582   8.366  0.1411  0.7843 -2.1914
  249MOL0     H34298   8.513   1.431   8.333 -0.6548 -0.1538 -0.2183
  249MOL0     H34299   8.533   1.425   8.112 -4.7838  3.3429  0.6832
  249MOL0     H34300   8.616   1.585   8.102  1.3856  0.8773  1.3342
  249MOL0     H34301   8.779   1.433   8.273  1.7048  2.6372 -1.2255
  249MOL0     H34302   8.726   1.309   8.160 -1.3169  0.2314 -0.8294
  249MOL0     H34303   8.784   1.502   7.969  2.6820 -1.7732 -1.5711
  249MOL0     H34304   8.897   1.385   8.024 -2.1154 -1.2987 -3.7298
  249MOL0     H34305   8.875   1.666   8.173  2.3995  1.1060  0.5474
  249MOL0     H34306   8.990   1.534   8.191 -0.7834 -0.9239  0.8579
  249MOL0     H34307   8.944   1.719   7.953 -0.1224  0.0118  1.0129
  249MOL0     H34308   9.063   1.587   7.948  1.0747 -0.4527  1.1962
  249MOL0     H34309   9.053   1.849   8.102 -0.7150  0.2834  0.8125
  249MOL0     H34310   9.184   1.726   8.131 -0.8029 -0.0344  1.0216
  249MOL0     H34311   9.065   1.913   7.793  0.0093 -2.1616 -1.9847
  249MOL0     H34312   9.193   1.983   7.569  1.7797  1.4842 -0.5530
  249MOL0     H34313   9.278   1.838   7.534  0.2705  2.0086 -2.0897
  249MOL0     H34314   9.397   2.087   7.663  2.9456 -1.5343  1.9585
  249MOL0     H34315   9.488   1.948   7.618  1.7228  0.6549  0.4226
  249MOL0     H34316   9.429   1.976   7.371  0.2082 -1.1438  0.1308
  249MOL0     H34317   9.388   2.143   7.425 -0.9811 -1.0131 -4.0119
  249MOL0     H34318   9.625   2.134   7.358 -3.6316  4.8051  0.3471
  249MOL0     H34319   9.601   2.177   7.526 -3.0772 -1.0933  0.9006
  249MOL0     H34320   9.850   1.823   7.572  1.7696 -1.1793 -1.4807
  249MOL0     H34321  10.190   1.788   7.550  3.2615  2.7509  1.6005
  249MOL0     H34322  10.056   1.764   7.668 -1.0841  1.1770  0.3217
  249MOL0     H34323  10.194   1.877   7.697 -2.5137  0.9904  2.2886
  249MOL0     H34324  10.491   2.200   7.433 -1.4394  0.2562  0.6295
  249MOL0     H34325  10.731   2.232   7.500  3.2524 -4.4748 -2.4307
  249MOL0     H34326  10.900   1.969   7.822 -1.4234  1.3547  0.8174
  249MOL0     H34327  10.947   1.961   7.643 -2.7565 -2.8147  1.4024
  249MOL0     H34328  11.058   2.156   7.855 -1.8480 -0.3262  0.9773
  249MOL0     H34329  11.141   2.025   7.793 -1.1908 -0.6085  0.1437
  249MOL0     H34330  11.081   2.204   7.575 -0.3526  1.8855  0.5969
  249MOL0     H34331  11.213   2.086   7.616 -0.7253 -0.2644 -1.7514
  249MOL0     H34332  11.280   2.234   7.803 -1.2653 -1.4672  0.9222
  249MOL0     H34333  11.166   2.364   7.752  1.1718  0.0622  1.8146
  249MOL0     H34334  11.384   2.247   7.556 -1.1071  0.1788 -0.5322
  249MOL0     H34335  11.298   2.403   7.559 -0.4023 -0.0909  0.4497
  249MOL0     H34336  11.516   2.452   7.629 -0.0488  0.0808  1.1641
  249MOL0     H34337  11.503   2.335   7.758 -0.4518 -1.5780 -1.3975
  249MOL0     H34338  11.330   2.479   7.874  1.5568  0.5314  1.2903
  249MOL0     H34339  11.319   2.587   7.733 -2.2786  0.0468  1.5945
  249MOL0     H34340  11.586   2.553   7.882  0.4021 -1.0284 -3.2954
  249MOL0     H34341  11.473   2.664   7.951 -1.1551 -2.9361  2.1315
  249MOL0     H34342  10.668   1.924   7.796 -0.9732 -1.0585 -0.3681
  249MOL0     H34343  10.446   1.899   7.722  1.2896  0.2612  1.3519
  249MOL0     H34344  10.037   2.273   7.465  2.3057 -0.5484  0.6320
  249MOL0     H34345   9.809   2.231   7.451  0.5138  0.7322  0.3243
  249MOL0     H34346   8.171   1.764   8.269 -0.1244  0.7134 -0.5445
  249MOL0     H34347   7.933   1.789   8.233 -0.3770  0.3365 -0.1809
  249MOL0     H34348   7.638   1.776   7.938  0.6146 -1.6033  1.6109
  249MOL0     H34349   7.455   1.919   7.868  2.5797  1.0650  0.8898
  249MOL0     H34350   7.308   2.088   7.907  1.5636 -0.6051 -3.7263
  249MOL0     H34351   7.232   1.987   7.784  2.0893 -1.4003  0.9943
  249MOL0     H34352   7.077   2.170   7.963 -2.0212 -2.7409  0.6448
  249MOL0     H34353   7.019   2.072   7.820 -0.2760  2.5847 -1.6825
  249MOL0     H34354   7.232   2.289   7.816  0.0593  0.1083  1.8600
  249MOL0     H34355   7.200   2.188   7.677 -0.0418 -0.0499 -0.7697
  249MOL0     H34356   7.082   2.404   7.661  0.4083 -1.4322 -2.9376
  249MOL0     H34357   6.975   2.347   7.802 -0.6223 -1.5062  0.1891
  249MOL0     H34358   6.802   2.158   7.478 -0.5308  1.4048 -1.0678
  249MOL0     H34359   7.233   1.815   8.220 -1.1740  1.0251 -0.5796
  249MOL0     H34360   7.319   1.714   8.390  1.0567  3.0288 -1.3667
  249MOL0     H34361   7.391   1.559   8.336 -1.5254 -0.0243  3.9328
  249MOL0     H34362   7.488   1.682   8.416  0.8427  1.1518 -1.7032
  250MOL0     O34363  10.104   5.423   6.200 -0.5075  0.2186 -0.1608
  250MOL0     C34364  10.075   5.512   6.119  0.3420  0.1825  0.1577
  250MOL0     O34365  10.156   5.593   6.057  0.0992  0.0687 -0.9834
  250MOL0     C34366  10.293   5.581   6.063  0.8511 -0.5132 -0.2238
  250MOL0     C34367  10.373   5.550   5.950 -0.4801 -0.6813  0.5683
  250MOL0     C34368  10.510   5.522   5.954 -0.0233  0.6501 -0.3814
  250MOL0     C34369  10.582   5.539   6.078  0.3124  0.4447 -0.5635
  250MOL0     O34370  10.719   5.527   6.073  0.8793 -0.2344  0.4191
  250MOL0     C34371  10.799   5.555   6.188 -0.1984  0.2105 -0.5341
  250MOL0     C34372  10.919   5.463   6.203 -0.5705  0.1600  0.0813
  250MOL0     C34373  11.030   5.474   6.104 -0.5470 -0.3553 -0.5804
  250MOL0     C34374  11.155   5.386   6.120  0.9134 -0.4481 -0.8176
  250MOL0     C34375  11.251   5.396   6.001 -0.0317 -0.0903 -0.9408
  250MOL0     C34376  11.216   5.296   5.887  0.0550  0.1292  0.1991
  250MOL0     C34377  11.341   5.249   5.801  0.6960  0.5319 -0.3203
  250MOL0     C34378  11.310   5.151   5.688 -1.2472  0.0233 -0.6581
  250MOL0     N34379  11.444   5.097   5.642  0.4130 -0.9634 -0.4869
  250MOL0     C34380  11.510   4.983   5.684  0.4625  0.2975 -0.2843
  250MOL0     C34381  11.638   4.980   5.633 -0.4935  0.5706 -0.1782
  250MOL0     C34382  11.744   4.868   5.629  0.4642  0.5267  0.3449
  250MOL0     C34383  11.864   4.911   5.537 -1.1146 -0.0330  0.5198
  250MOL0     C34384  11.967   4.798   5.542  0.0675  1.1474  0.1524
  250MOL0     C34385  12.075   4.821   5.438 -0.0197 -0.1734  0.9243
  250MOL0     O34386  12.196   4.874   5.497 -0.3301  0.3023  0.1713
  250MOL0     C34387  12.318   4.856   5.442  0.5239  0.1617  0.2208
  250MOL0     C34388  12.343   4.788   5.326  0.7570  1.2665  0.1674
  250MOL0     C34389  12.468   4.763   5.270  0.5732 -0.9370  0.7284
  250MOL0     C34390  12.486   4.697   5.134  0.4501  0.5882 -0.6583
  250MOL0     C34391  12.579   4.821   5.338  0.2876 -0.2599  0.2591
  250MOL0     C34392  12.714   4.797   5.299 -0.3049 -0.6246  0.0160
  250MOL0     O34393  12.800   4.895   5.338 -0.3604 -0.3574  0.0637
  250MOL0     C34394  12.930   4.874   5.311 -0.0227  0.6464  0.8543
  250MOL0     C34395  12.991   4.770   5.375  1.3450 -0.8702  1.2615
  250MOL0     C34396  13.114   4.732   5.322  0.6157  0.4687 -0.3934
  250MOL0     C34397  13.173   4.796   5.211 -0.7001 -0.0768 -0.0107
  250MOL0     O34398  13.295   4.760   5.151  0.5285 -0.3243 -0.4918
  250MOL0     C34399  13.336   4.623   5.180 -1.1568  0.0845 -0.1597
  250MOL0     C34400  13.449   4.584   5.083  0.5199 -0.1222  0.1695
  250MOL0     C34401  13.511   4.443   5.117 -0.5722  0.0703  0.2085
  250MOL0     C34402  13.623   4.405   5.018 -0.1387 -0.0238 -0.3029
  250MOL0     C34403  13.570   4.356   4.885  0.3366  0.3480 -0.3419
  250MOL0     C34404  13.649   4.245   4.820  0.9722  0.0646  0.7593
  250MOL0     C34405  13.804   4.260   4.807 -0.1821 -0.2931 -0.9472
  250MOL0     C34406  13.847   4.404   4.757  0.8140  0.2692 -0.1826
  250MOL0    Cl34407  13.777   4.452   4.601 -0.0632 -0.2374 -0.3235
  250MOL0     C34408  13.113   4.914   5.164 -1.4052  0.5045 -0.1268
  250MOL0     C34409  12.989   4.948   5.211 -0.1189  0.2869 -0.2022
  250MOL0     O34410  12.740   4.700   5.230  0.2550  0.5903 -0.2679
  250MOL0     C34411  12.549   4.895   5.457 -0.3331 -0.0096  0.5018
  250MOL0     C34412  12.423   4.908   5.511  0.6090  0.6437 -0.0686
  250MOL0     N34413  11.643   5.095   5.559 -0.3367 -0.6246  0.1509
  250MOL0     N34414  11.533   5.166   5.564 -0.7675  0.2203 -0.3053
  250MOL0     C34415  10.505   5.579   6.189  0.8142  1.2385 -0.4394
  250MOL0     C34416  10.366   5.585   6.182  0.2694 -0.3711  0.8984
  250MOL0     C34417   9.930   5.528   6.085  0.1433 -0.1976 -0.0673
  250MOL0     C34418   9.898   5.639   6.003  0.0775  0.3488 -0.3113
  250MOL0     C34419   9.767   5.654   5.957  0.1934  0.2947 -0.4430
  250MOL0     C34420   9.660   5.572   6.000 -0.1404 -0.2665  0.0925
  250MOL0     O34421   9.535   5.575   5.949 -0.1845  0.6948 -0.5519
  250MOL0     C34422   9.511   5.635   5.826 -0.3767  0.0303 -0.4005
  250MOL0     C34423   9.357   5.644   5.813  0.4184  0.6653 -0.0804
  250MOL0     C34424   9.278   5.503   5.795 -0.1275 -1.1057 -0.2934
  250MOL0     C34425   9.333   5.416   5.679  0.2029  0.1575  0.2554
  250MOL0     C34426   9.350   5.489   5.554  0.3751  0.3069 -0.5654
  250MOL0     C34427   9.345   5.544   5.446  0.0119 -0.0775  0.2172
  250MOL0     C34428   9.692   5.463   6.077 -0.8340  0.1244 -0.7452
  250MOL0     C34429   9.829   5.437   6.110  0.9743  0.5948  0.0217
  250MOL0     C34430   9.838   5.317   6.202 -0.2681  0.3577 -0.0935
  250MOL0     H34431  10.314   5.529   5.861  2.7030  0.1048 -1.9280
  250MOL0     H34432  10.563   5.489   5.865 -0.5572 -1.2997 -0.0322
  250MOL0     H34433  10.745   5.536   6.281 -0.3066  2.0024 -0.2001
  250MOL0     H34434  10.817   5.662   6.178  0.5806  0.2721  1.0872
  250MOL0     H34435  10.962   5.478   6.302  0.4815  2.9241 -0.7048
  250MOL0     H34436  10.897   5.356   6.204  1.1737 -0.2265  0.3686
  250MOL0     H34437  10.979   5.466   6.007 -2.3745  1.5063  0.1357
  250MOL0     H34438  11.064   5.578   6.111 -0.9161 -0.3371  1.7204
  250MOL0     H34439  11.195   5.409   6.219 -4.1136 -0.6728  1.6053
  250MOL0     H34440  11.115   5.285   6.131 -0.9460  0.5329  3.8045
  250MOL0     H34441  11.351   5.377   6.041 -0.5362  1.0480  0.9583
  250MOL0     H34442  11.245   5.497   5.958 -3.4328  0.6675  1.0068
  250MOL0     H34443  11.186   5.211   5.949  1.1183 -0.2593  0.2000
  250MOL0     H34444  11.128   5.320   5.827 -1.1502 -1.7610  1.0982
  250MOL0     H34445  11.415   5.200   5.864  0.1728 -0.8767 -0.7543
  250MOL0     H34446  11.392   5.332   5.751 -2.3995  1.3352 -2.4585
  250MOL0     H34447  11.256   5.064   5.726  0.6259 -1.9546 -2.2627
  250MOL0     H34448  11.265   5.197   5.600  0.3261  4.1873  0.4711
  250MOL0     H34449  11.468   4.906   5.748 -0.9645  0.1900 -1.3040
  250MOL0     H34450  11.688   4.781   5.595  1.2790 -0.5089  1.5486
  250MOL0     H34451  11.776   4.845   5.731  0.6159 -1.8350 -0.1931
  250MOL0     H34452  11.837   4.940   5.435  0.5823  0.7395  0.2535
  250MOL0     H34453  11.923   4.991   5.582  2.1799 -2.2094  0.4341
  250MOL0     H34454  12.013   4.797   5.641 -1.8517  1.1549  1.1040
  250MOL0     H34455  11.919   4.702   5.521  2.6212 -0.1672 -0.0493
  250MOL0     H34456  12.087   4.736   5.370 -0.6735  0.5574 -0.1209
  250MOL0     H34457  12.056   4.907   5.374  0.3588  0.6030  1.8346
  250MOL0     H34458  12.260   4.744   5.271  1.7756 -0.5299 -0.0263
  250MOL0     H34459  12.518   4.593   5.145  1.1979  1.0415  2.3000
  250MOL0     H34460  12.557   4.747   5.069 -0.6587  0.8399 -1.7187
  250MOL0     H34461  12.394   4.695   5.074  0.9286 -0.1796 -1.3989
  250MOL0     H34462  12.938   4.711   5.450 -1.3219 -0.7333 -0.3930
  250MOL0     H34463  13.148   4.642   5.373 -1.4606 -0.2554 -0.2076
  250MOL0     H34464  13.382   4.611   5.279  1.6201  0.5739 -1.2903
  250MOL0     H34465  13.249   4.557   5.168 -1.8963  0.8324  0.9340
  250MOL0     H34466  13.423   4.589   4.976 -1.0988  3.3508  0.5730
  250MOL0     H34467  13.526   4.662   5.092 -0.7563  1.1267  0.6962
  250MOL0     H34468  13.441   4.359   5.123  2.3366 -2.5573  0.0501
  250MOL0     H34469  13.546   4.454   5.220  1.6386 -0.0440 -0.4805
  250MOL0     H34470  13.660   4.316   5.069  0.2357 -1.4676 -2.8944
  250MOL0     H34471  13.698   4.485   5.014 -0.5823  0.5387  1.7032
  250MOL0     H34472  13.468   4.316   4.897  0.5842 -0.3170 -0.3991
  250MOL0     H34473  13.560   4.436   4.812 -2.9380 -0.7544 -1.3002
  250MOL0     H34474  13.610   4.236   4.719  1.0520  1.2426  0.6175
  250MOL0     H34475  13.630   4.154   4.879 -0.2576  0.9951  1.8587
  250MOL0     H34476  13.844   4.188   4.735 -0.5754 -1.5154  0.0123
  250MOL0     H34477  13.849   4.236   4.903 -1.3035 -0.6363 -0.4897
  250MOL0     H34478  13.955   4.407   4.747  1.0461 -1.2445  1.3561
  250MOL0     H34479  13.810   4.468   4.838 -3.6230 -0.1099 -1.6084
  250MOL0     H34480  13.159   4.972   5.085 -0.3975 -3.6883 -2.9464
  250MOL0     H34481  12.932   5.026   5.160  0.6380  0.5886 -0.6129
  250MOL0     H34482  12.637   4.921   5.515 -2.0671  0.9535  2.8658
  250MOL0     H34483  12.411   4.976   5.594  2.0432  0.4898  0.3061
  250MOL0     H34484  10.533   5.600   6.291 -2.9843  1.5040  0.7241
  250MOL0     H34485  10.306   5.621   6.265 -1.4347  3.0472 -1.5671
  250MOL0     H34486   9.976   5.707   5.973  1.0942 -0.5632  0.1821
  250MOL0     H34487   9.756   5.738   5.889  0.2458  1.2395  0.6749
  250MOL0     H34488   9.558   5.734   5.824 -0.5683  0.1295 -0.0247
  250MOL0     H34489   9.558   5.577   5.745  0.0938 -0.0213 -0.0911
  250MOL0     H34490   9.330   5.711   5.731  0.2469  2.5694  1.4562
  250MOL0     H34491   9.308   5.696   5.895 -2.1668 -0.3320 -0.8949
  250MOL0     H34492   9.278   5.456   5.893  2.0849  1.0671  0.8442
  250MOL0     H34493   9.173   5.529   5.777 -0.9433 -3.8138  0.1040
  250MOL0     H34494   9.254   5.341   5.671  1.2815 -0.9654 -0.1540
  250MOL0     H34495   9.427   5.368   5.706  1.3552  1.3868 -1.4309
  250MOL0     H34496   9.327   5.584   5.348 -1.1157 -0.6804  0.1602
  250MOL0     H34497   9.607   5.402   6.107 -1.9375  1.5004 -0.9438
  250MOL0     H34498   9.801   5.354   6.298 -2.5021  1.9568 -1.4648
  250MOL0     H34499   9.771   5.240   6.164  1.9198 -1.8005  0.1679
  250MOL0     H34500   9.930   5.262   6.225 -2.7820 -2.8459  3.6682
  251MOL0     O34501   4.646   8.070   1.632  0.3968 -0.0790 -0.6896
  251MOL0     C34502   4.582   8.152   1.559 -0.6667  0.1630  0.0954
  251MOL0     O34503   4.649   8.239   1.468  0.1936  0.0840  0.1234
  251MOL0     C34504   4.783   8.252   1.484 -0.5476 -0.6340  0.2593
  251MOL0     C34505   4.848   8.296   1.600  0.0446 -0.4801 -0.9975
  251MOL0     C34506   4.979   8.343   1.600  0.2946 -0.5561 -0.4696
  251MOL0     C34507   5.052   8.353   1.483  0.1785 -0.2708 -0.5224
  251MOL0     O34508   5.167   8.424   1.469 -0.2409  0.1760 -0.0186
  251MOL0     C34509   5.209   8.485   1.594  0.2001  0.5532  0.6621
  251MOL0     C34510   5.364   8.529   1.574  0.3511 -0.0666  0.6985
  251MOL0     C34511   5.368   8.662   1.499  0.4159 -0.0048 -0.0501
  251MOL0     C34512   5.491   8.753   1.514  0.3736 -0.1260  0.5083
  251MOL0     C34513   5.468   8.895   1.464 -0.1736 -0.0862  0.6173
  251MOL0     C34514   5.399   8.900   1.324 -0.4954  0.1905  0.3972
  251MOL0     C34515   5.399   9.043   1.260 -0.4897  0.5440 -0.1345
  251MOL0     C34516   5.323   9.053   1.125  0.1694  0.2169 -0.8018
  251MOL0     N34517   5.336   9.181   1.053 -0.2379  0.5508 -0.1165
  251MOL0     C34518   5.455   9.237   1.002 -0.0644  0.5133 -0.7724
  251MOL0     C34519   5.426   9.362   0.956  0.3275 -1.0789  0.2714
  251MOL0     C34520   5.512   9.469   0.898 -0.6557 -0.5199 -0.1928
  251MOL0     C34521   5.649   9.418   0.838  0.6253  0.2919 -0.2758
  251MOL0     C34522   5.751   9.527   0.811 -0.0977  0.2218 -0.2639
  251MOL0     C34523   5.882   9.461   0.768  0.0648 -0.5122 -0.4759
  251MOL0     O34524   5.944   9.432   0.896  0.4866 -0.8669 -0.8274
  251MOL0     C34525   6.069   9.477   0.920 -0.3946 -0.9341 -0.8459
  251MOL0     C34526   6.153   9.543   0.825 -0.0516  0.4474 -1.4121
  251MOL0     C34527   6.277   9.595   0.862  0.2687  0.0260  0.5321
  251MOL0     C34528   6.349   9.672   0.755  0.2627 -0.5292 -0.6449
  251MOL0     C34529   6.322   9.583   0.998 -0.0578  0.8424  0.5445
  251MOL0     C34530   6.453   9.620   1.050 -0.4934  0.3542  0.3443
  251MOL0     O34531   6.479   9.577   1.181  1.2610 -0.2356  0.0421
  251MOL0     C34532   6.600   9.602   1.242  0.0908 -1.0142  0.1172
  251MOL0     C34533   6.692   9.497   1.243  0.5497  0.6570 -0.4522
  251MOL0     C34534   6.820   9.510   1.300  0.1624 -0.3095  0.6429
  251MOL0     C34535   6.855   9.637   1.348 -0.0060  0.6957 -0.4679
  251MOL0     O34536   6.981   9.647   1.413 -0.5624  0.2827 -0.2660
  251MOL0     C34537   7.012   9.767   1.485  0.2658 -0.2486 -1.1458
  251MOL0     C34538   7.150   9.753   1.562  0.7019  0.5322 -0.4990
  251MOL0     C34539   7.254   9.666   1.487 -0.1598  0.2996  0.1105
  251MOL0     C34540   7.393   9.679   1.559  0.1458  0.4408  0.2970
  251MOL0     C34541   7.481   9.578   1.493  0.5101 -0.3199 -0.1550
  251MOL0     C34542   7.617   9.553   1.572 -0.1472 -0.3587 -0.2192
  251MOL0     C34543   7.721   9.668   1.539 -0.1588  1.2733 -0.8249
  251MOL0     C34544   7.853   9.638   1.596 -0.1508 -0.8106 -0.3463
  251MOL0    Cl34545   7.841   9.619   1.775  0.2685  0.8244 -0.6274
  251MOL0     C34546   6.761   9.742   1.335 -0.4457  0.4420  0.2539
  251MOL0     C34547   6.633   9.727   1.284  0.1343 -0.6260 -0.0577
  251MOL0     O34548   6.533   9.687   0.978 -0.3654  0.4442  0.6090
  251MOL0     C34549   6.237   9.507   1.081 -0.1565  0.0346 -0.3144
  251MOL0     C34550   6.114   9.460   1.047  0.2413  0.1644 -0.3180
  251MOL0     N34551   5.289   9.369   0.974  0.2320 -0.5753  0.6993
  251MOL0     N34552   5.242   9.270   1.033  0.0772 -0.4380 -0.4813
  251MOL0     C34553   4.989   8.309   1.365 -0.1085  0.4335 -0.5851
  251MOL0     C34554   4.854   8.257   1.364 -0.3631  0.8717 -0.6363
  251MOL0     C34555   4.432   8.169   1.563 -0.5330  0.9656 -0.8120
  251MOL0     C34556   4.358   8.230   1.453 -0.2086 -0.5762  0.5015
  251MOL0     C34557   4.221   8.230   1.437 -0.0973 -0.2783  0.4070
  251MOL0     C34558   4.141   8.187   1.540  0.9105  0.1227  0.1032
  251MOL0     O34559   4.011   8.193   1.517  0.2680 -0.0302  0.9261
  251MOL0     C34560   3.922   8.121   1.602  0.0619  0.3495 -0.4225
  251MOL0     C34561   3.794   8.124   1.529  0.1586  0.5689  1.0598
  251MOL0     C34562   3.715   8.256   1.543  0.1216 -0.8623  0.6063
  251MOL0     C34563   3.596   8.251   1.455  0.2623 -0.1876 -0.5550
  251MOL0     C34564   3.522   8.372   1.468 -0.0911  0.3793 -0.5983
  251MOL0     C34565   3.459   8.475   1.490  0.4104 -0.1906 -0.9500
  251MOL0     C34566   4.210   8.139   1.652 -0.6175  0.2871  0.1234
  251MOL0     C34567   4.347   8.126   1.667  0.6082  0.1073 -0.4914
  251MOL0     C34568   4.393   8.067   1.799  0.0676  1.0545 -0.3463
  251MOL0     H34569   4.787   8.302   1.689 -0.6563 -2.3003 -1.3214
  251MOL0     H34570   5.008   8.370   1.701  1.9820 -1.5767 -0.6429
  251MOL0     H34571   5.215   8.405   1.669 -1.5997 -0.2744 -0.0410
  251MOL0     H34572   5.149   8.571   1.623 -0.8046  0.0358  0.1573
  251MOL0     H34573   5.411   8.540   1.672 -1.4511 -0.5620  1.6689
  251MOL0     H34574   5.407   8.445   1.518 -1.3358 -0.4014 -0.1859
  251MOL0     H34575   5.370   8.636   1.392  3.5385 -0.9172  0.1372
  251MOL0     H34576   5.276   8.716   1.524 -1.1306 -1.4285 -2.2219
  251MOL0     H34577   5.504   8.754   1.622 -1.4169 -0.7704  0.7724
  251MOL0     H34578   5.569   8.696   1.464 -1.8547 -2.2984 -0.6883
  251MOL0     H34579   5.557   8.957   1.452 -1.8707  2.4264  0.3305
  251MOL0     H34580   5.401   8.943   1.535  0.2651  1.8749 -0.2446
  251MOL0     H34581   5.455   8.836   1.254 -0.5327  1.2581 -0.6352
  251MOL0     H34582   5.299   8.856   1.327 -1.8147  2.9663 -0.4004
  251MOL0     H34583   5.504   9.070   1.242  0.2668 -1.6568  0.6319
  251MOL0     H34584   5.350   9.110   1.332 -1.6915  1.4677 -1.7343
  251MOL0     H34585   5.360   8.976   1.056 -1.9586 -2.1724  0.5570
  251MOL0     H34586   5.217   9.034   1.144 -0.3570  2.0304 -1.6992
  251MOL0     H34587   5.552   9.190   1.018 -1.4567 -1.6772  2.1655
  251MOL0     H34588   5.530   9.544   0.975 -0.0546  0.6642 -1.4365
  251MOL0     H34589   5.465   9.522   0.814  1.5954  2.0236  0.0238
  251MOL0     H34590   5.692   9.342   0.903  0.0925 -0.0935 -0.3614
  251MOL0     H34591   5.625   9.369   0.743  0.8522  0.5083 -0.4447
  251MOL0     H34592   5.722   9.595   0.729  1.3384  0.5197 -0.5435
  251MOL0     H34593   5.765   9.574   0.909 -0.4754 -1.4284  0.6094
  251MOL0     H34594   5.881   9.368   0.711  1.9504 -0.4831 -0.6394
  251MOL0     H34595   5.933   9.537   0.708  2.1071 -2.4754 -1.3492
  251MOL0     H34596   6.120   9.562   0.723  0.3611  0.5642 -1.5249
  251MOL0     H34597   6.285   9.699   0.671 -2.5291 -0.0070  1.4757
  251MOL0     H34598   6.442   9.624   0.724  2.1106  0.7894  2.4209
  251MOL0     H34599   6.383   9.764   0.803  0.4960 -1.8621  1.9312
  251MOL0     H34600   6.670   9.403   1.193 -0.7211  1.3029 -1.1808
  251MOL0     H34601   6.898   9.435   1.293 -0.7266 -1.1307 -1.6949
  251MOL0     H34602   7.024   9.844   1.408 -4.4036  1.4037 -0.5310
  251MOL0     H34603   6.935   9.800   1.556  1.1273  2.2407 -1.2826
  251MOL0     H34604   7.189   9.855   1.574  0.0210  0.7983 -0.5066
  251MOL0     H34605   7.140   9.709   1.662 -1.6854 -0.3897 -1.0739
  251MOL0     H34606   7.257   9.712   1.388 -2.5796 -0.1088 -0.1933
  251MOL0     H34607   7.222   9.562   1.474  0.3194  0.0954  0.5129
  251MOL0     H34608   7.386   9.645   1.662  2.6956  0.8902  0.6710
  251MOL0     H34609   7.426   9.782   1.542  0.2419  0.2547 -0.6959
  251MOL0     H34610   7.427   9.483   1.497 -0.9359  0.5104  0.8613
  251MOL0     H34611   7.499   9.600   1.387 -0.8958 -1.1192 -0.5845
  251MOL0     H34612   7.656   9.454   1.549 -1.6695 -0.6263 -1.8823
  251MOL0     H34613   7.607   9.554   1.681 -0.5552 -1.4483 -0.2384
  251MOL0     H34614   7.685   9.764   1.577  0.6979  0.5643  2.0015
  251MOL0     H34615   7.734   9.670   1.430 -0.0907  2.2424 -0.8086
  251MOL0     H34616   7.921   9.719   1.568 -0.0463 -0.4643  0.8462
  251MOL0     H34617   7.898   9.546   1.559  0.6758 -0.5581 -0.0025
  251MOL0     H34618   6.783   9.838   1.380 -0.5528 -0.1044  1.5354
  251MOL0     H34619   6.555   9.802   1.288 -1.0120 -1.6453 -1.7594
  251MOL0     H34620   6.250   9.475   1.184 -1.4081 -1.5284 -0.5890
  251MOL0     H34621   6.055   9.395   1.110 -0.4785 -1.1709 -2.2843
  251MOL0     H34622   5.039   8.328   1.271 -0.0348 -0.9618 -0.8473
  251MOL0     H34623   4.805   8.216   1.276 -1.3114 -1.3799  0.8743
  251MOL0     H34624   4.414   8.259   1.364 -0.2390 -0.4704  0.5164
  251MOL0     H34625   4.174   8.263   1.346  0.1887  0.5676  0.5537
  251MOL0     H34626   3.962   8.019   1.598  0.0621  0.3675 -0.9511
  251MOL0     H34627   3.908   8.159   1.703  2.2199  2.5231 -0.8654
  251MOL0     H34628   3.737   8.038   1.565 -1.1062 -0.2805 -2.5032
  251MOL0     H34629   3.799   8.095   1.423 -3.2458 -1.1510  1.2142
  251MOL0     H34630   3.677   8.279   1.643 -0.2974 -0.6052  0.3908
  251MOL0     H34631   3.786   8.335   1.518 -1.2402  0.6280  1.3000
  251MOL0     H34632   3.526   8.171   1.481 -0.9536  0.8134 -0.6740
  251MOL0     H34633   3.623   8.229   1.352 -2.4270 -2.4849 -0.8668
  251MOL0     H34634   3.404   8.566   1.503  0.2802 -0.7066  3.9154
  251MOL0     H34635   4.151   8.098   1.733  0.2822 -0.1222  0.5795
  251MOL0     H34636   4.452   8.141   1.853 -0.8104  0.8263  0.9681
  251MOL0     H34637   4.309   8.049   1.866  1.0348  4.2496  1.9379
  251MOL0     H34638   4.450   7.975   1.782 -2.5610 -1.0361  1.3551
  252MOL0     O34639  11.201   1.780   3.614 -0.1682 -0.7918 -0.7957
  252MOL0     C34640  11.129   1.686   3.576  0.1221  0.0188  0.5312
  252MOL0     O34641  11.173   1.559   3.568 -0.2129 -0.1638  0.0304
  252MOL0     C34642  11.280   1.533   3.649  0.1813 -0.1209 -0.4187
  252MOL0     C34643  11.414   1.557   3.601  0.0152 -0.0257  0.3778
  252MOL0     C34644  11.518   1.542   3.686 -0.4748 -0.2270  0.0613
  252MOL0     C34645  11.515   1.504   3.823 -0.1656  0.2635  0.2898
  252MOL0     O34646  11.618   1.476   3.911 -0.2779 -0.0905 -0.4894
  252MOL0     C34647  11.703   1.588   3.918 -0.0990 -0.5385  0.0060
  252MOL0     C34648  11.841   1.550   3.848 -0.6380 -0.5926 -0.3144
  252MOL0     C34649  11.901   1.415   3.884  0.5108 -0.2019 -0.0914
  252MOL0     C34650  11.910   1.387   4.036  0.4363  0.5821  0.7583
  252MOL0     C34651  11.987   1.260   4.064  0.0730  0.1053 -0.6253
  252MOL0     C34652  12.029   1.261   4.216 -0.1177  1.0502  0.0033
  252MOL0     C34653  12.163   1.319   4.230 -0.7134 -0.1138  0.0953
  252MOL0     C34654  12.211   1.339   4.380 -0.1573 -0.6414  0.4669
  252MOL0     N34655  12.322   1.435   4.386 -0.4020  0.3789  0.1432
  252MOL0     C34656  12.323   1.568   4.372 -0.1314 -0.0816 -0.7154
  252MOL0     C34657  12.453   1.607   4.340  0.7069 -0.6163  0.0887
  252MOL0     C34658  12.508   1.741   4.291 -0.1929  0.1643  0.7675
  252MOL0     C34659  12.497   1.754   4.142 -0.0085 -0.7081  0.3756
  252MOL0     C34660  12.499   1.903   4.099  0.3030 -1.2585  0.6295
  252MOL0     C34661  12.637   1.957   4.097  0.0710  0.3569  0.4657
  252MOL0     O34662  12.686   1.997   4.229  0.2414 -0.1034  0.2040
  252MOL0     C34663  12.813   2.052   4.239  0.6546  0.3175  0.4680
  252MOL0     C34664  12.837   2.186   4.253  0.1743 -0.3301  0.2738
  252MOL0     C34665  12.953   2.249   4.277 -0.1393  0.0729 -0.6632
  252MOL0     C34666  12.958   2.394   4.326  0.5237 -0.1756 -0.2982
  252MOL0     C34667  13.071   2.161   4.273  0.9522  0.4041 -0.3244
  252MOL0     C34668  13.208   2.197   4.322 -0.6640 -0.1049  0.9080
  252MOL0     O34669  13.226   2.324   4.372 -0.7746  0.2535  0.2392
  252MOL0     C34670  13.331   2.347   4.451  0.7381  0.0913  0.3600
  252MOL0     C34671  13.469   2.359   4.414  0.2597 -0.9860  0.7101
  252MOL0     C34672  13.567   2.386   4.505  0.5034 -0.7631 -0.0016
  252MOL0     C34673  13.547   2.388   4.649 -0.3081  0.4194  1.1540
  252MOL0     O34674  13.659   2.397   4.729 -0.0372 -0.4735 -0.0984
  252MOL0     C34675  13.655   2.418   4.874  0.9305 -0.0853  0.0341
  252MOL0     C34676  13.792   2.453   4.913 -0.2458  0.3035  0.8101
  252MOL0     C34677  13.882   2.327   4.904  0.2316 -0.2782 -0.4550
  252MOL0     C34678  14.007   2.348   5.003  0.1105 -0.2803 -0.3724
  252MOL0     C34679  14.099   2.229   5.007 -0.6481  0.5846 -0.5203
  252MOL0     C34680  14.187   2.236   5.131  0.5002  0.0009  0.0359
  252MOL0     C34681  14.278   2.112   5.146 -0.0606  0.2841  0.3372
  252MOL0     C34682  14.384   2.107   5.031  0.1422 -0.6489 -0.9272
  252MOL0    Cl34683  14.496   2.245   5.035 -0.4934  0.4097 -0.0490
  252MOL0     C34684  13.412   2.380   4.685 -0.4142 -0.3286 -0.3056
  252MOL0     C34685  13.310   2.363   4.587  0.6337 -0.3727  0.3104
  252MOL0     O34686  13.291   2.106   4.331 -0.1658  0.5157  0.9277
  252MOL0     C34687  13.047   2.023   4.241 -0.1337  0.7670  0.2831
  252MOL0     C34688  12.917   1.973   4.225  0.7143 -0.1997 -0.1330
  252MOL0     N34689  12.531   1.496   4.356 -0.1805 -0.1086 -1.0633
  252MOL0     N34690  12.452   1.389   4.386  0.8375  0.3611  0.0560
  252MOL0     C34691  11.388   1.482   3.872  0.3690 -1.0139 -0.3895
  252MOL0     C34692  11.273   1.490   3.784 -0.0806  0.1661  0.2178
  252MOL0     C34693  10.980   1.718   3.534 -0.4797  0.1291 -0.6698
  252MOL0     C34694  10.908   1.612   3.478  0.0591 -1.1114 -0.1791
  252MOL0     C34695  10.783   1.627   3.419  0.1450  0.5806  0.4737
  252MOL0     C34696  10.732   1.753   3.405 -0.3721  0.1296 -0.4724
  252MOL0     O34697  10.615   1.785   3.340  0.3603  0.0228 -0.5600
  252MOL0     C34698  10.546   1.687   3.266 -0.0830 -0.4499  0.1249
  252MOL0     C34699  10.464   1.595   3.354  0.1149 -0.3038 -0.4877
  252MOL0     C34700  10.318   1.639   3.357  0.8157  0.7265 -0.1362
  252MOL0     C34701  10.227   1.546   3.440 -0.2299  0.4636  0.6784
  252MOL0     C34702  10.165   1.433   3.369 -0.2215  0.1923  0.3402
  252MOL0     C34703  10.104   1.339   3.309  0.2955  0.2606  0.0186
  252MOL0     C34704  10.792   1.860   3.474 -0.8727  0.1256  0.2630
  252MOL0     C34705  10.916   1.845   3.536 -0.2752 -0.3074  0.2983
  252MOL0     C34706  10.985   1.971   3.591 -0.5641 -0.1381 -1.3676
  252MOL0     H34707  11.433   1.576   3.496 -1.0522  2.3495  0.5505
  252MOL0     H34708  11.613   1.565   3.640 -0.2018  2.8283  1.8750
  252MOL0     H34709  11.715   1.617   4.023  0.3162 -0.6022 -0.0246
  252MOL0     H34710  11.667   1.677   3.866 -0.9856 -1.7622 -1.5857
  252MOL0     H34711  11.830   1.555   3.739  2.1589  0.1101 -0.6397
  252MOL0     H34712  11.914   1.626   3.878 -0.8409 -0.7459  0.6180
  252MOL0     H34713  11.832   1.345   3.835 -1.6398  1.4548  0.3992
  252MOL0     H34714  11.995   1.395   3.834  1.0944 -0.4781  1.0660
  252MOL0     H34715  11.960   1.468   4.090  0.4352  1.2816 -0.2658
  252MOL0     H34716  11.812   1.394   4.084  1.1319  2.8442  2.0479
  252MOL0     H34717  12.080   1.255   4.006  2.0736  2.4382  2.0928
  252MOL0     H34718  11.921   1.174   4.052  1.7490 -1.3759  0.2797
  252MOL0     H34719  11.951   1.316   4.269  0.5245  1.3527  0.6435
  252MOL0     H34720  12.037   1.162   4.263  0.6920  1.1889  0.1641
  252MOL0     H34721  12.168   1.411   4.172 -2.6168 -0.1427 -0.1775
  252MOL0     H34722  12.227   1.246   4.179 -2.2900 -0.6808 -1.1715
  252MOL0     H34723  12.124   1.373   4.437  0.1323  0.5317  0.2392
  252MOL0     H34724  12.238   1.239   4.413 -3.4385 -1.1450  2.0331
  252MOL0     H34725  12.254   1.652   4.372 -0.5337 -0.3693  1.1358
  252MOL0     H34726  12.615   1.744   4.310 -0.0363  1.4706 -0.2357
  252MOL0     H34727  12.464   1.816   4.357 -0.3417 -1.5388  2.7294
  252MOL0     H34728  12.579   1.699   4.094  1.3735  0.4212  1.3588
  252MOL0     H34729  12.404   1.713   4.101 -0.8181  1.3868 -0.0094
  252MOL0     H34730  12.464   1.913   3.996  0.1011  0.1757  0.8224
  252MOL0     H34731  12.438   1.967   4.162 -3.2819 -0.9722 -2.7397
  252MOL0     H34732  12.707   1.882   4.059  0.4927  0.9513  0.0560
  252MOL0     H34733  12.640   2.040   4.026  2.0815 -0.2430 -0.2196
  252MOL0     H34734  12.746   2.246   4.252  0.7516  0.6763 -2.5950
  252MOL0     H34735  12.949   2.387   4.434  2.1416 -1.2851 -0.2112
  252MOL0     H34736  12.865   2.441   4.290 -0.9135 -1.7822  1.1330
  252MOL0     H34737  13.042   2.454   4.289  0.5060 -0.6041 -1.0724
  252MOL0     H34738  13.501   2.336   4.313 -2.8459 -1.4858 -0.2702
  252MOL0     H34739  13.672   2.386   4.478  1.2061 -0.8531  2.4711
  252MOL0     H34740  13.593   2.505   4.897  2.5663  1.0170  0.3898
  252MOL0     H34741  13.615   2.327   4.920  1.8559 -1.0572 -1.0050
  252MOL0     H34742  13.842   2.529   4.853  3.7074 -2.1735  0.5959
  252MOL0     H34743  13.776   2.504   5.009 -1.8288  3.2278 -0.8719
  252MOL0     H34744  13.907   2.328   4.797 -0.9857 -1.0630 -0.7612
  252MOL0     H34745  13.822   2.239   4.929 -0.9254  0.4394 -0.6303
  252MOL0     H34746  13.960   2.361   5.101 -2.5043 -1.5520 -1.3717
  252MOL0     H34747  14.062   2.439   4.976  1.8162 -0.9516  0.6771
  252MOL0     H34748  14.045   2.134   5.014 -0.8889  0.8135  0.9572
  252MOL0     H34749  14.158   2.233   4.915  0.2704 -1.3636 -0.0504
  252MOL0     H34750  14.120   2.228   5.218  1.0891 -2.1119  0.3675
  252MOL0     H34751  14.243   2.329   5.138 -0.7228  0.7505  0.1734
  252MOL0     H34752  14.224   2.017   5.155  0.6762  0.0515  3.7749
  252MOL0     H34753  14.327   2.121   5.243  0.7705 -3.3862  0.3940
  252MOL0     H34754  14.331   2.095   4.936 -1.1989 -0.3926 -0.2299
  252MOL0     H34755  14.462   2.030   5.029  1.1665  0.2048  1.5516
  252MOL0     H34756  13.393   2.390   4.791 -1.5143 -0.8639 -0.4351
  252MOL0     H34757  13.206   2.352   4.614  0.0285 -2.8775 -2.5937
  252MOL0     H34758  13.124   1.947   4.245 -0.3491  0.5573  0.4198
  252MOL0     H34759  12.909   1.865   4.216  2.0494 -0.2621 -0.7112
  252MOL0     H34760  11.368   1.466   3.978  0.7420  4.3958  0.7769
  252MOL0     H34761  11.173   1.479   3.824 -1.0046 -0.6424 -2.1816
  252MOL0     H34762  10.956   1.516   3.495 -0.1731 -1.3412 -0.7946
  252MOL0     H34763  10.734   1.540   3.378  0.6683  0.2200  0.6127
  252MOL0     H34764  10.486   1.735   3.188  0.7579  1.2182  0.4667
  252MOL0     H34765  10.618   1.622   3.216  0.3403 -0.8091  1.1837
  252MOL0     H34766  10.516   1.592   3.450 -2.0373 -2.4325  0.7245
  252MOL0     H34767  10.464   1.493   3.315  1.2623  0.2418 -1.9871
  252MOL0     H34768  10.307   1.743   3.388  0.4275  0.8514 -0.6818
  252MOL0     H34769  10.282   1.642   3.253 -2.2603  1.7689  0.8537
  252MOL0     H34770  10.143   1.600   3.485 -0.2771 -0.8501  2.2647
  252MOL0     H34771  10.281   1.505   3.526 -0.9642  0.8314  1.3340
  252MOL0     H34772  10.052   1.272   3.243  1.3963  1.9700 -2.7120
  252MOL0     H34773  10.751   1.960   3.469  0.5428  0.6787 -1.7329
  252MOL0     H34774  10.976   1.976   3.700  2.1737  1.5220 -1.1364
  252MOL0     H34775  11.087   1.963   3.553 -0.9113 -1.0823 -2.1456
  252MOL0     H34776  10.951   2.058   3.534 -0.0056  1.3371  0.4566
  253MOL0     O34777   5.502   3.668   6.671 -0.0460 -0.7244 -0.4447
  253MOL0     C34778   5.509   3.603   6.771 -0.7791 -0.4583 -0.3457
  253MOL0     O34779   5.595   3.633   6.876  0.4470 -0.4124 -0.5673
  253MOL0     C34780   5.675   3.741   6.877  0.7832  0.3581 -0.1038
  253MOL0     C34781   5.616   3.869   6.855 -0.2996  0.4512  0.3010
  253MOL0     C34782   5.698   3.980   6.857 -0.8196 -0.7368  0.4358
  253MOL0     C34783   5.834   3.974   6.879  0.5325  2.0327  0.1840
  253MOL0     O34784   5.891   4.094   6.883 -0.8803 -0.8735  0.9207
  253MOL0     C34785   6.021   4.125   6.829 -0.4689  0.6744 -0.3472
  253MOL0     C34786   6.035   4.279   6.831  0.3218  0.9426 -0.1015
  253MOL0     C34787   6.174   4.339   6.794 -0.2872  0.2434 -0.3041
  253MOL0     C34788   6.286   4.322   6.900  0.3496  0.5813 -0.4942
  253MOL0     C34789   6.399   4.419   6.894  0.3368  0.6492 -0.5231
  253MOL0     C34790   6.463   4.428   6.765  0.0203 -0.1754  0.1765
  253MOL0     C34791   6.603   4.501   6.777  0.1541  0.6342 -0.3606
  253MOL0     C34792   6.671   4.525   6.649  0.9066 -0.6918  0.2522
  253MOL0     N34793   6.800   4.584   6.670 -0.7369  0.4714 -0.6395
  253MOL0     C34794   6.817   4.716   6.701 -0.1396  0.1148 -0.1647
  253MOL0     C34795   6.953   4.728   6.721 -0.6701 -0.3557 -0.7576
  253MOL0     C34796   7.026   4.848   6.763  0.1467  0.3047 -0.3933
  253MOL0     C34797   7.038   4.864   6.912 -0.4618 -0.4634 -0.3955
  253MOL0     C34798   7.134   4.973   6.953  0.1588  0.1689  0.0447
  253MOL0     C34799   7.126   4.995   7.105 -0.3991  0.0036 -0.3114
  253MOL0     O34800   7.239   5.067   7.160  0.0782  0.1070  0.7791
  253MOL0     C34801   7.363   5.017   7.182 -0.6421 -0.1603  0.1466
  253MOL0     C34802   7.410   4.895   7.126 -0.0404 -0.3954 -0.2167
  253MOL0     C34803   7.543   4.855   7.121  0.6153  0.5825 -0.5030
  253MOL0     C34804   7.568   4.722   7.054 -0.3858  0.2938 -0.1739
  253MOL0     C34805   7.638   4.941   7.184 -0.6976  0.1749  0.0173
  253MOL0     C34806   7.781   4.906   7.193 -0.1745  0.1706 -0.2768
  253MOL0     O34807   7.866   5.016   7.186  0.4820  0.9514  0.4998
  253MOL0     C34808   7.999   4.979   7.186 -1.2086 -0.1747  0.1081
  253MOL0     C34809   8.094   5.008   7.079  0.1624 -0.5278 -0.3025
  253MOL0     C34810   8.226   4.965   7.094  0.0572  0.8830 -0.9286
  253MOL0     C34811   8.276   4.894   7.207  0.7182  0.5112 -0.1805
  253MOL0     O34812   8.410   4.865   7.214  0.2315  0.9058 -0.5663
  253MOL0     C34813   8.475   4.864   7.343 -0.2388  0.0709  0.7254
  253MOL0     C34814   8.621   4.844   7.319 -0.1054  0.4196  0.7153
  253MOL0     C34815   8.645   4.706   7.256  0.2483 -0.2610 -0.5328
  253MOL0     C34816   8.790   4.675   7.225  0.2547 -0.3867  0.7240
  253MOL0     C34817   8.803   4.532   7.163 -0.7168  0.0083  0.2586
  253MOL0     C34818   8.957   4.499   7.136 -0.2169  0.7242  0.1127
  253MOL0     C34819   9.048   4.487   7.263  0.1661  0.5702 -0.3146
  253MOL0     C34820   9.129   4.352   7.275 -0.3838  0.1632  0.2333
  253MOL0    Cl34821   9.031   4.198   7.257 -0.4639  0.0226 -0.0303
  253MOL0     C34822   8.186   4.866   7.309 -0.6355  0.0474 -0.3397
  253MOL0     C34823   8.052   4.913   7.296 -0.8268  0.5728  0.2507
  253MOL0     O34824   7.812   4.788   7.211  0.3411 -0.3177  0.3388
  253MOL0     C34825   7.595   5.065   7.238 -0.5442 -0.2981 -0.3056
  253MOL0     C34826   7.457   5.102   7.237 -0.1047  0.4065  0.2955
  253MOL0     N34827   7.005   4.603   6.710  0.1314 -0.3467  0.0189
  253MOL0     N34828   6.922   4.521   6.662  0.7462  0.3625 -0.2018
  253MOL0     C34829   5.896   3.845   6.895 -0.4927 -0.2189 -0.2916
  253MOL0     C34830   5.815   3.733   6.902  0.3707 -0.1151 -0.0491
  253MOL0     C34831   5.443   3.467   6.790  0.9845 -0.2160 -0.0214
  253MOL0     C34832   5.439   3.411   6.919 -0.3865 -0.3149  0.4348
  253MOL0     C34833   5.362   3.296   6.946  0.1007  0.1143 -0.4105
  253MOL0     C34834   5.314   3.222   6.837  0.5642  1.0277 -1.4234
  253MOL0     O34835   5.262   3.099   6.869  0.3028  0.7763 -0.4710
  253MOL0     C34836   5.156   3.038   6.793  0.5010 -0.8556  0.6472
  253MOL0     C34837   5.018   3.108   6.781  0.3138 -0.5895  0.6532
  253MOL0     C34838   4.955   3.137   6.911  0.3668  0.2861  0.2632
  253MOL0     C34839   4.939   3.012   6.999  0.4219  0.0760  0.0550
  253MOL0     C34840   4.850   2.914   6.939  0.1266 -0.4536  1.9430
  253MOL0     C34841   4.785   2.827   6.877  1.1700 -1.0166  0.1510
  253MOL0     C34842   5.326   3.271   6.712 -0.0612 -0.7806  0.4952
  253MOL0     C34843   5.390   3.393   6.685 -0.0003  0.3694  0.2281
  253MOL0     C34844   5.380   3.437   6.537 -0.5022  0.7516  0.5783
  253MOL0     H34845   5.510   3.886   6.844  0.1802  2.6250 -2.1078
  253MOL0     H34846   5.679   4.086   6.843  5.6252  0.6571 -1.1237
  253MOL0     H34847   6.037   4.091   6.727  1.4444  0.4719 -0.0139
  253MOL0     H34848   6.096   4.080   6.894 -0.3302  3.3287  1.5142
  253MOL0     H34849   5.954   4.308   6.764  0.1471 -0.6045 -0.5907
  253MOL0     H34850   6.013   4.308   6.935  1.3165 -1.2378  0.7721
  253MOL0     H34851   6.200   4.313   6.691  1.9699  0.3829  0.1845
  253MOL0     H34852   6.145   4.444   6.783 -0.8618 -0.0385 -1.7484
  253MOL0     H34853   6.243   4.320   7.000 -1.0095 -1.1008 -1.0772
  253MOL0     H34854   6.331   4.223   6.890 -0.9447 -0.1232  0.3610
  253MOL0     H34855   6.475   4.413   6.973 -0.0206 -0.5134 -0.2358
  253MOL0     H34856   6.353   4.517   6.907 -3.8071 -1.3177  1.3560
  253MOL0     H34857   6.472   4.329   6.719 -2.3499 -0.1110 -0.5086
  253MOL0     H34858   6.398   4.486   6.699 -1.3400 -0.3453  1.3395
  253MOL0     H34859   6.662   4.440   6.845 -1.8368 -0.9858  0.0232
  253MOL0     H34860   6.586   4.603   6.812 -1.7597 -0.0992  1.0284
  253MOL0     H34861   6.688   4.430   6.597  1.5226 -1.0295  1.0445
  253MOL0     H34862   6.615   4.593   6.584  1.5597  0.9171  1.2942
  253MOL0     H34863   6.750   4.801   6.709  0.4108  0.4646  1.0497
  253MOL0     H34864   6.983   4.937   6.716 -1.4054 -0.7804 -1.1529
  253MOL0     H34865   7.127   4.830   6.726 -0.6748 -0.9640 -2.1325
  253MOL0     H34866   6.945   4.901   6.957  1.1779  1.5216  1.5506
  253MOL0     H34867   7.063   4.770   6.962 -1.1104 -0.7581 -0.6109
  253MOL0     H34868   7.236   4.944   6.926  0.6754  2.5467 -0.7260
  253MOL0     H34869   7.101   5.065   6.905  0.3294  0.0293 -0.3504
  253MOL0     H34870   7.032   5.046   7.130 -1.1498 -1.4871  0.0549
  253MOL0     H34871   7.116   4.896   7.150 -0.5101  1.0638  2.1195
  253MOL0     H34872   7.338   4.822   7.091 -0.2970 -0.4769  0.4552
  253MOL0     H34873   7.475   4.685   7.009  0.6531 -1.6024 -0.8683
  253MOL0     H34874   7.610   4.642   7.114 -0.8847 -0.1324 -0.3801
  253MOL0     H34875   7.647   4.738   6.980  0.8881 -0.2577  1.0158
  253MOL0     H34876   8.062   5.064   6.992  0.7448 -2.8042 -2.0818
  253MOL0     H34877   8.311   4.982   7.029 -0.4605 -1.6517 -2.3848
  253MOL0     H34878   8.456   4.966   7.378 -0.7724  0.5102 -0.7455
  253MOL0     H34879   8.426   4.789   7.405 -1.2936 -0.6250 -0.8888
  253MOL0     H34880   8.664   4.913   7.247 -0.0313 -1.2691 -0.9410
  253MOL0     H34881   8.668   4.855   7.418 -1.0303 -0.7057  1.3172
  253MOL0     H34882   8.578   4.698   7.170  0.4408 -1.1075 -0.6132
  253MOL0     H34883   8.609   4.623   7.318 -3.7068  2.7941  1.7903
  253MOL0     H34884   8.847   4.690   7.317  0.5745  0.7718  0.3574
  253MOL0     H34885   8.838   4.740   7.151  0.2737  0.7510  1.7012
  253MOL0     H34886   8.763   4.451   7.224 -2.6697  0.7903  0.0909
  253MOL0     H34887   8.744   4.527   7.072  0.2147  0.8719 -0.4158
  253MOL0     H34888   8.998   4.580   7.075 -1.7121  0.0590 -1.9036
  253MOL0     H34889   8.963   4.408   7.076 -2.2709  1.2666 -0.9893
  253MOL0     H34890   8.986   4.489   7.353 -0.1978  0.4009 -0.5627
  253MOL0     H34891   9.117   4.572   7.260  1.5331 -0.4510  0.7063
  253MOL0     H34892   9.182   4.343   7.371  4.0671 -0.9420 -2.0567
  253MOL0     H34893   9.205   4.359   7.197 -1.2511 -2.9543 -1.0339
  253MOL0     H34894   8.217   4.798   7.388  0.1260  0.7276 -0.0463
  253MOL0     H34895   7.979   4.895   7.374 -0.4246  0.3685  0.5846
  253MOL0     H34896   7.673   5.130   7.275  0.0258 -0.2328 -1.5690
  253MOL0     H34897   7.424   5.194   7.283 -1.1345  0.5738 -0.7206
  253MOL0     H34898   6.001   3.831   6.918 -0.2136 -0.2525 -1.5488
  253MOL0     H34899   5.860   3.638   6.926 -1.6820 -0.7762  1.4549
  253MOL0     H34900   5.475   3.475   6.999  0.5283  2.2353 -1.8609
  253MOL0     H34901   5.352   3.264   7.049  1.8185 -0.8395 -0.5036
  253MOL0     H34902   5.191   3.028   6.690 -0.9556 -3.0879  0.2708
  253MOL0     H34903   5.142   2.937   6.833  0.4457  0.1673  3.4203
  253MOL0     H34904   4.953   3.051   6.714  1.8150 -0.9046 -0.6025
  253MOL0     H34905   5.045   3.201   6.730  2.9986 -2.0054 -0.7502
  253MOL0     H34906   5.014   3.215   6.962  1.7986 -0.4364 -0.2273
  253MOL0     H34907   4.858   3.181   6.889  0.6880  0.8408 -0.0657
  253MOL0     H34908   4.901   3.049   7.095  1.0495  0.8159  0.0319
  253MOL0     H34909   5.034   2.966   7.026 -0.1674 -1.5744 -0.5819
  253MOL0     H34910   4.728   2.752   6.826 -2.3558  0.6672  1.3274
  253MOL0     H34911   5.293   3.215   6.625  1.7980  4.4591 -4.2420
  253MOL0     H34912   5.323   3.371   6.471 -0.9719  0.4262  1.2960
  253MOL0     H34913   5.321   3.528   6.525 -1.3229  0.0160 -1.3716
  253MOL0     H34914   5.480   3.452   6.495 -1.5555  1.1013 -1.9820
  254MOL0     O34915   8.100   7.432   0.352  0.3202  0.2024 -0.2038
  254MOL0     C34916   8.026   7.526   0.333  0.4133  0.0729 -0.6001
  254MOL0     O34917   8.025   7.647   0.415 -0.1459 -0.1891 -0.2926
  254MOL0     C34918   8.128   7.646   0.510  0.3329 -0.7297 -0.5273
  254MOL0     C34919   8.108   7.641   0.652  0.2907  0.0071  0.4481
  254MOL0     C34920   8.213   7.634   0.740  0.6312 -0.0688 -0.0582
  254MOL0     C34921   8.345   7.646   0.697 -0.5756 -0.1230 -0.0779
  254MOL0     O34922   8.437   7.644   0.794 -0.3610 -0.5422  0.7304
  254MOL0     C34923   8.568   7.688   0.756 -0.3461  0.6164 -0.4631
  254MOL0     C34924   8.656   7.724   0.875  0.0735 -1.0066  0.9771
  254MOL0     C34925   8.583   7.829   0.956 -1.3484  0.1476  0.0288
  254MOL0     C34926   8.684   7.885   1.059 -0.2644  0.2551 -0.1187
  254MOL0     C34927   8.694   7.799   1.195 -0.1787 -0.1150  0.4254
  254MOL0     C34928   8.773   7.666   1.190  0.0533 -0.6484 -0.3578
  254MOL0     C34929   8.829   7.635   1.328  0.2901  0.2612  0.4497
  254MOL0     C34930   8.924   7.521   1.318  0.8575  0.7215 -0.1804
  254MOL0     N34931   8.996   7.496   1.443 -0.3134  0.3512  0.2676
  254MOL0     C34932   8.963   7.513   1.581 -0.2424 -0.5119 -0.2505
  254MOL0     C34933   9.074   7.461   1.647 -0.2127 -0.4290  0.1974
  254MOL0     C34934   9.090   7.471   1.797 -0.8141  0.0126  0.2637
  254MOL0     C34935   9.163   7.593   1.835 -0.8101 -1.7878  0.8478
  254MOL0     C34936   9.168   7.617   1.992  0.3461  0.7284 -0.4268
  254MOL0     C34937   9.241   7.757   2.013  0.4450  0.4989  0.2469
  254MOL0     O34938   9.236   7.798   2.152 -0.0103 -0.3953 -0.0768
  254MOL0     C34939   9.342   7.857   2.219  0.6755  0.0310  0.5492
  254MOL0     C34940   9.475   7.814   2.206 -0.7007  0.3069 -0.2396
  254MOL0     C34941   9.575   7.871   2.281 -0.2755 -0.1505 -0.1116
  254MOL0     C34942   9.717   7.808   2.278  0.6780  0.3760 -0.3227
  254MOL0     C34943   9.551   7.986   2.357  0.5319  0.6738 -0.0816
  254MOL0     C34944   9.652   8.068   2.422 -0.0198 -0.0856 -0.1549
  254MOL0     O34945   9.614   8.127   2.539 -0.5320 -0.1448  0.1495
  254MOL0     C34946   9.684   8.240   2.593  0.3377 -0.5096 -1.1413
  254MOL0     C34947   9.750   8.332   2.521  0.8929 -0.2598  0.6449
  254MOL0     C34948   9.811   8.444   2.584  0.1847 -0.3267  1.2762
  254MOL0     C34949   9.802   8.460   2.724 -1.3014 -1.4321 -0.6129
  254MOL0     O34950   9.873   8.564   2.792  0.1717 -0.1352 -1.3129
  254MOL0     C34951   9.951   8.656   2.722 -0.8393  0.4441 -1.1064
  254MOL0     C34952  10.054   8.722   2.815  1.3186  0.4909  0.1448
  254MOL0     C34953   9.983   8.820   2.901 -0.0646 -1.0269 -0.6671
  254MOL0     C34954  10.068   8.867   3.016  0.0225  0.6561 -0.4178
  254MOL0     C34955   9.997   8.970   3.098  0.1286  0.5279  0.7355
  254MOL0     C34956  10.040   8.964   3.242 -0.2448 -0.1493  0.5038
  254MOL0     C34957  10.006   9.103   3.300  0.5478 -0.0521  0.0969
  254MOL0     C34958  10.058   9.126   3.446  0.2095 -0.0328  0.9945
  254MOL0    Cl34959  10.241   9.121   3.450 -0.0312  0.0704  0.1883
  254MOL0     C34960   9.727   8.372   2.801 -0.3717  0.2810  0.4794
  254MOL0     C34961   9.667   8.263   2.739  0.2672  0.1832  0.2258
  254MOL0     O34962   9.761   8.082   2.371 -0.2398  0.0524 -0.0941
  254MOL0     C34963   9.415   8.022   2.382  0.2296 -0.4405 -0.1157
  254MOL0     C34964   9.311   7.957   2.309 -0.3695 -1.1069  0.3611
  254MOL0     N34965   9.178   7.436   1.553 -0.1887  0.2728 -0.2697
  254MOL0     N34966   9.124   7.454   1.434 -0.0065  0.6179 -0.0317
  254MOL0     C34967   8.372   7.658   0.556  0.1320  0.1150  0.2878
  254MOL0     C34968   8.264   7.654   0.469 -0.0945  0.3756  0.4142
  254MOL0     C34969   7.895   7.505   0.257 -0.4976  0.4874 -0.8244
  254MOL0     C34970   7.794   7.600   0.259 -0.4792 -0.1271  0.8616
  254MOL0     C34971   7.669   7.580   0.199 -0.0485 -0.0006 -0.0586
  254MOL0     C34972   7.644   7.458   0.132 -0.4809  0.7621 -0.3398
  254MOL0     O34973   7.521   7.449   0.070  0.0777  0.5252 -0.1372
  254MOL0     C34974   7.494   7.343  -0.017  0.0919 -0.0607  0.3398
  254MOL0     C34975   7.359   7.364  -0.086  0.1092 -1.0591  0.4796
  254MOL0     C34976   7.352   7.487  -0.182 -0.2039  0.2916  0.1157
  254MOL0     C34977   7.209   7.544  -0.176 -0.0457 -0.6189  0.0465
  254MOL0     C34978   7.170   7.628  -0.285 -0.1660  0.3606  0.7156
  254MOL0     C34979   7.143   7.716  -0.365  0.0118  1.0220  0.6275
  254MOL0     C34980   7.745   7.362   0.126 -0.4156  0.1998  0.8165
  254MOL0     C34981   7.870   7.379   0.191  0.1327  0.0834  0.4679
  254MOL0     C34982   7.981   7.267   0.172  0.3261  0.2965  0.0644
  254MOL0     H34983   8.002   7.638   0.676  0.2556 -0.2500  0.2612
  254MOL0     H34984   8.177   7.626   0.842 -2.6889  0.3632 -1.0751
  254MOL0     H34985   8.551   7.771   0.687  2.2146  0.7140 -1.0604
  254MOL0     H34986   8.631   7.618   0.700 -0.3646 -1.4959  1.9658
  254MOL0     H34987   8.690   7.635   0.929  1.1142 -0.3150  1.4968
  254MOL0     H34988   8.741   7.774   0.828 -1.9244 -0.8589 -2.8723
  254MOL0     H34989   8.555   7.916   0.896  1.9216  0.6646 -0.9667
  254MOL0     H34990   8.502   7.780   1.010  1.0602 -1.3642  2.5122
  254MOL0     H34991   8.777   7.881   1.002 -0.5053  0.4238 -0.5279
  254MOL0     H34992   8.662   7.989   1.084 -2.9938 -0.2999  0.0903
  254MOL0     H34993   8.598   7.786   1.247  0.9917 -0.6428  2.5471
  254MOL0     H34994   8.750   7.863   1.264 -2.0636  1.6409  0.4381
  254MOL0     H34995   8.707   7.583   1.163 -1.1007  0.5907 -1.4992
  254MOL0     H34996   8.850   7.672   1.113  1.0063  2.6102  0.6913
  254MOL0     H34997   8.743   7.610   1.390 -0.2873 -2.4304 -1.2866
  254MOL0     H34998   8.886   7.724   1.356  0.7563 -0.1091  0.6876
  254MOL0     H34999   8.862   7.434   1.296 -0.3755  1.0837  1.6369
  254MOL0     H35000   8.995   7.541   1.237  0.5117  0.7442 -0.4794
  254MOL0     H35001   8.875   7.549   1.634  0.4187 -0.2142  0.6597
  254MOL0     H35002   9.154   7.385   1.819 -0.4909  0.5698  1.5745
  254MOL0     H35003   8.990   7.459   1.841 -1.0825 -0.1632 -0.3816
  254MOL0     H35004   9.262   7.581   1.791 -0.5723 -0.7929  1.0864
  254MOL0     H35005   9.119   7.684   1.791  0.4665 -0.9616  1.2369
  254MOL0     H35006   9.068   7.622   2.036 -0.0784 -1.4669 -0.9772
  254MOL0     H35007   9.229   7.550   2.054 -1.7296 -0.3463  0.5541
  254MOL0     H35008   9.346   7.748   1.984 -0.3798  1.0960 -3.4637
  254MOL0     H35009   9.194   7.836   1.953  1.6855  1.8551  0.9986
  254MOL0     H35010   9.489   7.728   2.140  0.3761 -1.2718  1.9213
  254MOL0     H35011   9.740   7.753   2.370 -2.3895  0.1444  0.4288
  254MOL0     H35012   9.794   7.879   2.247  1.1380  0.7977  1.6447
  254MOL0     H35013   9.711   7.723   2.209  2.7882 -0.2361  0.1888
  254MOL0     H35014   9.756   8.327   2.413  1.4877  2.1072  0.5216
  254MOL0     H35015   9.852   8.527   2.528  3.2888 -1.3181  1.8898
  254MOL0     H35016  10.002   8.607   2.639 -0.0402  0.0516 -0.4053
  254MOL0     H35017   9.886   8.731   2.676  0.4962  0.8375 -2.4157
  254MOL0     H35018  10.105   8.650   2.879 -1.2575 -0.0704  1.7177
  254MOL0     H35019  10.130   8.778   2.760 -0.6104  0.7258 -2.5334
  254MOL0     H35020   9.880   8.794   2.926 -0.0068 -0.6480 -0.0246
  254MOL0     H35021   9.964   8.908   2.837  0.2001 -1.0931 -0.8404
  254MOL0     H35022  10.161   8.918   2.990  0.0288  0.9392  0.1462
  254MOL0     H35023  10.090   8.777   3.075 -2.0123  1.2991  1.4450
  254MOL0     H35024  10.006   9.068   3.051 -1.5199  0.9368  1.2096
  254MOL0     H35025   9.890   8.946   3.102 -0.2599  2.0795  0.1474
  254MOL0     H35026  10.146   8.942   3.261  0.3938  0.9611 -1.5192
  254MOL0     H35027   9.990   8.878   3.289 -0.1935 -1.3825 -1.5990
  254MOL0     H35028   9.897   9.103   3.310  0.5233 -1.5010  0.1110
  254MOL0     H35029  10.041   9.182   3.233  2.6220 -2.1200 -1.4359
  254MOL0     H35030  10.029   9.044   3.512 -0.1466 -2.1710 -1.6716
  254MOL0     H35031  10.019   9.222   3.482 -1.4305  0.7199 -2.4362
  254MOL0     H35032   9.701   8.377   2.906 -4.2874 -1.8758 -0.1952
  254MOL0     H35033   9.594   8.203   2.792  1.0406 -1.6331 -0.6542
  254MOL0     H35034   9.390   8.105   2.447  1.6004  0.3453 -0.5469
  254MOL0     H35035   9.212   8.000   2.325  0.7022  0.7504  2.4455
  254MOL0     H35036   8.470   7.683   0.516  1.0882  1.8134  3.3372
  254MOL0     H35037   8.299   7.662   0.367  2.6728 -1.7560  1.0733
  254MOL0     H35038   7.812   7.698   0.303 -0.6343 -0.4517  1.6677
  254MOL0     H35039   7.607   7.669   0.195 -0.0335 -0.0248 -3.7166
  254MOL0     H35040   7.566   7.341  -0.099 -0.1606  0.5850  0.0925
  254MOL0     H35041   7.499   7.246   0.032  2.2422 -1.2230 -1.9101
  254MOL0     H35042   7.284   7.375  -0.007  0.0410  2.7065  0.0640
  254MOL0     H35043   7.336   7.276  -0.147 -0.1105 -3.3167  3.5979
  254MOL0     H35044   7.427   7.562  -0.157 -1.7342  1.9053  0.0875
  254MOL0     H35045   7.367   7.454  -0.286 -2.8827  2.0956 -0.9545
  254MOL0     H35046   7.194   7.598  -0.082 -3.5263 -1.6445  0.2347
  254MOL0     H35047   7.145   7.454  -0.175 -0.2971 -0.5754 -2.9654
  254MOL0     H35048   7.117   7.804  -0.421 -0.4476 -0.5811 -1.8600
  254MOL0     H35049   7.723   7.266   0.080  0.7424 -1.3487  3.2381
  254MOL0     H35050   7.956   7.194   0.095 -0.6303  1.7364 -1.0599
  254MOL0     H35051   8.079   7.293   0.130  0.6943 -2.2039 -0.7649
  254MOL0     H35052   7.996   7.220   0.269 -0.5137  1.4148  0.7627
  255MOL0     O35053   6.630   1.936   5.420 -0.2797  0.1451 -0.0242
  255MOL0     C35054   6.630   2.028   5.338 -0.0973 -1.0662  0.4577
  255MOL0     O35055   6.736   2.066   5.260 -1.1667  0.3988  0.0173
  255MOL0     C35056   6.869   2.024   5.274  0.1127 -1.2615  0.2290
  255MOL0     C35057   6.917   1.902   5.328 -0.4034 -0.3018 -0.9604
  255MOL0     C35058   7.054   1.874   5.317 -0.1845  0.6209 -0.0913
  255MOL0     C35059   7.146   1.967   5.259 -0.0474 -0.6436 -0.0212
  255MOL0     O35060   7.278   1.947   5.253  0.2193 -0.7244  0.3164
  255MOL0     C35061   7.340   1.856   5.337 -0.2757  0.5630 -0.3079
  255MOL0     C35062   7.494   1.855   5.332  0.0611 -0.5127 -0.8583
  255MOL0     C35063   7.556   1.759   5.433  0.1623  0.0622  0.8194
  255MOL0     C35064   7.703   1.748   5.441 -0.3110 -0.3247  0.4551
  255MOL0     C35065   7.752   1.858   5.537 -0.4037 -0.1469 -0.3148
  255MOL0     C35066   7.904   1.855   5.554 -0.1808 -0.6333  0.1450
  255MOL0     C35067   7.993   1.897   5.440 -0.3332  0.1158 -0.2996
  255MOL0     C35068   8.128   1.942   5.500  0.2209  0.1297 -0.0629
  255MOL0     N35069   8.127   2.069   5.576 -0.0984 -1.0162  0.1576
  255MOL0     C35070   8.236   2.109   5.662 -0.2068 -0.3312  0.9080
  255MOL0     C35071   8.223   2.236   5.686  0.5825 -0.2401  0.3568
  255MOL0     C35072   8.314   2.314   5.769 -0.0291  0.6552 -0.6632
  255MOL0     C35073   8.431   2.374   5.694  0.2252 -0.2304 -1.3410
  255MOL0     C35074   8.521   2.460   5.790  0.8592 -0.1200  0.7888
  255MOL0     C35075   8.550   2.406   5.936 -0.4273 -0.1924 -0.1197
  255MOL0     O35076   8.577   2.262   5.939  0.3484 -0.4345 -0.4590
  255MOL0     C35077   8.692   2.219   5.879  0.5764  0.7405 -0.4735
  255MOL0     C35078   8.692   2.089   5.842 -0.1605  0.3858  0.0260
  255MOL0     C35079   8.799   2.033   5.762 -0.4939 -0.9023 -0.8240
  255MOL0     C35080   8.766   1.898   5.719  0.0932 -0.0105  0.1104
  255MOL0     C35081   8.914   2.110   5.733 -0.2294 -0.3072  0.4948
  255MOL0     C35082   9.039   2.052   5.670 -0.2880  0.1056 -0.6625
  255MOL0     O35083   9.149   2.134   5.664 -0.3003  0.0279  0.1546
  255MOL0     C35084   9.254   2.117   5.573  0.6975  0.5835 -0.0173
  255MOL0     C35085   9.247   2.021   5.471  1.0260 -0.0342 -0.7809
  255MOL0     C35086   9.358   2.015   5.388 -0.5986 -0.2166  0.5108
  255MOL0     C35087   9.468   2.108   5.396  0.2900 -0.1449  0.3189
  255MOL0     O35088   9.565   2.098   5.302  0.1492 -0.0454 -0.0592
  255MOL0     C35089   9.652   2.208   5.274 -0.4127 -0.3928 -0.6842
  255MOL0     C35090   9.753   2.163   5.173 -1.0684 -0.5691 -0.8620
  255MOL0     C35091   9.834   2.283   5.139 -0.3912 -0.9568 -0.1153
  255MOL0     C35092   9.966   2.252   5.072 -0.0582  0.1817 -0.8054
  255MOL0     C35093  10.034   2.365   5.002 -0.1231  0.8078  0.0201
  255MOL0     C35094  10.054   2.493   5.081 -0.4265 -0.7697 -0.5326
  255MOL0     C35095  10.138   2.596   4.999 -0.3288 -0.6112 -0.8156
  255MOL0     C35096  10.169   2.719   5.073 -0.9194 -0.0666  0.4703
  255MOL0    Cl35097  10.275   2.673   5.217  0.1380  0.1075 -0.0375
  255MOL0     C35098   9.467   2.202   5.493 -0.0146 -0.1597 -0.0720
  255MOL0     C35099   9.362   2.204   5.585  0.0460 -0.1801  0.6716
  255MOL0     O35100   9.041   1.932   5.644 -0.3446  0.0541 -0.3403
  255MOL0     C35101   8.919   2.239   5.778  0.9255 -1.1008 -0.1494
  255MOL0     C35102   8.800   2.298   5.830 -0.3395  0.1593 -0.4674
  255MOL0     N35103   8.114   2.285   5.610 -0.2259 -0.7546  0.6558
  255MOL0     N35104   8.059   2.181   5.554  0.0144 -0.1060 -0.0144
  255MOL0     C35105   7.095   2.079   5.201 -0.9666  0.4464  0.5511
  255MOL0     C35106   6.962   2.115   5.215 -0.3222 -0.0218  0.3984
  255MOL0     C35107   6.507   2.096   5.302  0.3799  0.6476  0.6558
  255MOL0     C35108   6.486   2.167   5.182 -0.2154 -0.9155  0.2843
  255MOL0     C35109   6.364   2.222   5.155  0.2459 -0.6761  0.3284
  255MOL0     C35110   6.246   2.206   5.237 -0.3834  0.7577 -0.0230
  255MOL0     O35111   6.117   2.236   5.202 -0.1572  0.2165  0.5277
  255MOL0     C35112   6.079   2.248   5.073  0.1371 -0.6225 -0.1427
  255MOL0     C35113   5.934   2.260   5.064  0.9424 -0.0586  0.3094
  255MOL0     C35114   5.862   2.345   5.175  0.3228 -0.0815 -0.0145
  255MOL0     C35115   5.714   2.381   5.152  0.8161 -0.0187 -0.2567
  255MOL0     C35116   5.611   2.280   5.176  0.3999  0.5965 -0.0018
  255MOL0     C35117   5.513   2.204   5.195  0.0417  0.1093  0.3339
  255MOL0     C35118   6.270   2.149   5.367  0.2181 -0.0300  0.7923
  255MOL0     C35119   6.397   2.100   5.396 -0.4963  0.1566 -0.5282
  255MOL0     C35120   6.411   2.028   5.532 -0.3963 -0.8530  0.3032
  255MOL0     H35121   6.848   1.827   5.366 -1.3275  1.5538  1.2255
  255MOL0     H35122   7.087   1.776   5.350 -0.2023  0.6325 -0.0388
  255MOL0     H35123   7.319   1.754   5.303  1.3789  0.5781 -1.4955
  255MOL0     H35124   7.297   1.867   5.437 -2.2033  1.8144 -1.2203
  255MOL0     H35125   7.529   1.820   5.235  1.2692 -0.5347 -0.4270
  255MOL0     H35126   7.533   1.955   5.351 -0.2445 -0.7814  1.4220
  255MOL0     H35127   7.519   1.788   5.532  1.1699 -0.8039  1.4778
  255MOL0     H35128   7.501   1.666   5.415  0.7781 -0.2597  0.5896
  255MOL0     H35129   7.734   1.649   5.476  2.1751  0.3632  0.3363
  255MOL0     H35130   7.742   1.760   5.340 -1.2129 -1.1152 -0.0066
  255MOL0     H35131   7.705   1.838   5.634  1.1745  2.5946  1.1529
  255MOL0     H35132   7.716   1.959   5.516  1.6517  1.3050  2.3386
  255MOL0     H35133   7.927   1.911   5.645 -0.5927 -0.9525  0.4502
  255MOL0     H35134   7.922   1.749   5.570  0.7594 -0.7783 -1.6374
  255MOL0     H35135   7.952   1.969   5.369 -1.1275  0.6425  0.6705
  255MOL0     H35136   8.004   1.805   5.382 -4.6809 -2.9084  2.9977
  255MOL0     H35137   8.167   1.861   5.563  1.0850 -1.6679 -2.7212
  255MOL0     H35138   8.200   1.956   5.419 -1.0716  0.4580 -1.1902
  255MOL0     H35139   8.312   2.039   5.694  0.3909 -0.6239 -1.0009
  255MOL0     H35140   8.350   2.251   5.851 -2.4078  1.3783  1.0383
  255MOL0     H35141   8.244   2.388   5.809 -2.4308 -1.5011 -0.6546
  255MOL0     H35142   8.499   2.302   5.646 -0.8148 -1.2294 -1.3484
  255MOL0     H35143   8.401   2.430   5.605 -0.2390 -0.5175 -1.3695
  255MOL0     H35144   8.608   2.488   5.730  0.5263  0.0259  0.3747
  255MOL0     H35145   8.474   2.558   5.803  3.2555  0.8653  3.1765
  255MOL0     H35146   8.628   2.467   5.982 -1.3399  0.9940 -0.0949
  255MOL0     H35147   8.469   2.413   6.010  1.0407 -0.6960  1.6057
  255MOL0     H35148   8.605   2.030   5.868  0.9422 -0.6713  1.5037
  255MOL0     H35149   8.659   1.881   5.735 -0.0869  0.5155 -0.4600
  255MOL0     H35150   8.822   1.824   5.776  0.7972  1.2698  1.1258
  255MOL0     H35151   8.792   1.894   5.613  0.7437  0.4070  0.2466
  255MOL0     H35152   9.167   1.952   5.449  1.8970 -1.4502  0.3361
  255MOL0     H35153   9.366   1.940   5.310 -3.3932 -1.9984  1.8065
  255MOL0     H35154   9.599   2.299   5.244  1.9480  1.1882 -0.2867
  255MOL0     H35155   9.701   2.242   5.365 -1.7254  1.8847 -0.7552
  255MOL0     H35156   9.817   2.094   5.230  0.6816 -0.3613 -2.4634
  255MOL0     H35157   9.721   2.110   5.083 -3.3415 -0.0697 -0.4059
  255MOL0     H35158   9.841   2.346   5.228  0.1373  2.3125 -2.3071
  255MOL0     H35159   9.779   2.347   5.070 -0.9328 -0.3940  0.8201
  255MOL0     H35160   9.939   2.182   4.992 -2.3450  1.2027 -0.9928
  255MOL0     H35161  10.036   2.195   5.134 -0.0496  0.4279 -0.5880
  255MOL0     H35162  10.130   2.328   4.967  0.0375  1.8128 -0.6434
  255MOL0     H35163   9.968   2.385   4.917 -0.3186 -1.9644 -0.5737
  255MOL0     H35164  10.111   2.478   5.173 -0.9032  0.7462  0.0500
  255MOL0     H35165   9.953   2.534   5.093 -0.0991 -0.7425  3.0622
  255MOL0     H35166  10.096   2.636   4.906  2.0991 -0.3058 -1.8614
  255MOL0     H35167  10.231   2.549   4.967  1.1667  1.6815 -0.1326
  255MOL0     H35168  10.078   2.765   5.111  0.2447  3.1594 -0.3439
  255MOL0     H35169  10.223   2.787   5.007 -0.4849 -3.6672 -3.2767
  255MOL0     H35170   9.548   2.272   5.510 -0.7008  0.8107 -0.7130
  255MOL0     H35171   9.361   2.270   5.671 -0.4042  0.1729  0.3977
  255MOL0     H35172   9.005   2.303   5.763 -0.1105  1.1217  2.5329
  255MOL0     H35173   8.800   2.406   5.839  1.3606  0.1211  0.2908
  255MOL0     H35174   7.160   2.147   5.148  2.0387  0.0104  3.3285
  255MOL0     H35175   6.930   2.214   5.182 -0.1948 -0.3437 -0.7090
  255MOL0     H35176   6.559   2.185   5.103 -0.9989 -1.0619 -0.4808
  255MOL0     H35177   6.356   2.275   5.061  1.4952 -0.9159  0.0677
  255MOL0     H35178   6.114   2.342   5.029  0.0291  0.0102  1.0762
  255MOL0     H35179   6.110   2.157   5.021  1.4500 -0.4896  0.3831
  255MOL0     H35180   5.892   2.159   5.064 -0.1238  0.2884  3.1970
  255MOL0     H35181   5.912   2.301   4.965 -1.0872  1.8178  1.4526
  255MOL0     H35182   5.874   2.291   5.269  0.0298 -0.5755 -0.2580
  255MOL0     H35183   5.914   2.439   5.196 -1.2194  0.9065 -0.4289
  255MOL0     H35184   5.703   2.420   5.051  1.3778  0.9836  0.0440
  255MOL0     H35185   5.695   2.466   5.219  0.1979 -1.4840  1.4973
  255MOL0     H35186   5.420   2.153   5.207  0.9622 -1.2876  1.8754
  255MOL0     H35187   6.189   2.122   5.434  1.0241 -2.1636  0.9842
  255MOL0     H35188   6.427   1.921   5.517  4.5090 -0.0955 -1.5884
  255MOL0     H35189   6.484   2.068   5.604 -1.5540  1.4293  0.3153
  255MOL0     H35190   6.313   2.046   5.579 -2.1545  0.7694 -3.5312
  256MOL0     O35191   2.793   4.046   1.543  0.1321  0.0413  0.4405
  256MOL0     C35192   2.724   4.126   1.483 -0.0444 -0.0827 -0.5507
  256MOL0     O35193   2.769   4.234   1.420  0.1295  0.5533 -0.2363
  256MOL0     C35194   2.898   4.272   1.443 -0.1883  0.8997 -1.5109
  256MOL0     C35195   3.002   4.248   1.366  0.3761 -0.0845 -0.2313
  256MOL0     C35196   3.126   4.302   1.383 -0.5389 -0.4979  0.2483
  256MOL0     C35197   3.149   4.389   1.491 -1.4588  0.3605  0.3575
  256MOL0     O35198   3.260   4.457   1.524  0.1151  0.2534 -0.4308
  256MOL0     C35199   3.328   4.519   1.412  0.4992 -0.0425 -0.9242
  256MOL0     C35200   3.479   4.527   1.438 -0.2683 -0.2884 -0.4699
  256MOL0     C35201   3.549   4.396   1.456  0.2967 -0.1867  0.1321
  256MOL0     C35202   3.698   4.400   1.427 -0.1756 -1.0786  0.4947
  256MOL0     C35203   3.796   4.405   1.543  0.6474  0.1417 -0.2374
  256MOL0     C35204   3.801   4.536   1.629 -0.2381 -0.6690 -0.1337
  256MOL0     C35205   3.898   4.526   1.744  0.2518  0.4091  0.0482
  256MOL0     C35206   3.851   4.419   1.846  0.5883 -0.7971 -0.0645
  256MOL0     N35207   3.931   4.407   1.964 -0.3044 -0.6629  0.0540
  256MOL0     C35208   4.040   4.324   1.977 -0.4524 -0.3311 -0.2101
  256MOL0     C35209   4.100   4.362   2.096 -0.1204 -0.1753  0.3959
  256MOL0     C35210   4.223   4.294   2.142  0.2985  0.8699  0.3112
  256MOL0     C35211   4.333   4.394   2.185  0.0037 -0.8956 -0.4478
  256MOL0     C35212   4.459   4.320   2.214  0.6408  1.3830  0.1294
  256MOL0     C35213   4.562   4.411   2.291  0.1145  0.1841  0.1573
  256MOL0     O35214   4.664   4.332   2.329 -0.1814 -0.1291 -0.1589
  256MOL0     C35215   4.747   4.382   2.427  0.4532 -0.7006 -1.0715
  256MOL0     C35216   4.773   4.515   2.452  0.0040 -0.3904 -0.6543
  256MOL0     C35217   4.882   4.554   2.541 -0.4523 -0.8926  0.3011
  256MOL0     C35218   4.893   4.700   2.567  0.0646  0.6904  0.0862
  256MOL0     C35219   4.952   4.458   2.611  0.2228  0.0811  0.2157
  256MOL0     C35220   5.053   4.493   2.711 -0.5879 -0.4929 -0.3265
  256MOL0     O35221   5.177   4.424   2.715  0.1873 -0.6709 -0.3253
  256MOL0     C35222   5.270   4.483   2.802  0.7552  0.3098  0.2711
  256MOL0     C35223   5.274   4.465   2.941  0.0058  1.0938 -0.6094
  256MOL0     C35224   5.377   4.507   3.021 -1.4776  0.3033  0.4578
  256MOL0     C35225   5.493   4.550   2.963 -0.2574 -0.3227  0.3016
  256MOL0     O35226   5.596   4.583   3.046 -0.2003 -0.2285 -0.0505
  256MOL0     C35227   5.727   4.603   2.996 -0.6373  0.5540  1.2052
  256MOL0     C35228   5.833   4.557   3.101 -0.4832 -1.2754 -0.2261
  256MOL0     C35229   5.963   4.629   3.068 -0.3089 -0.5097  0.0156
  256MOL0     C35230   6.079   4.593   3.151  0.7126  0.1716 -0.0047
  256MOL0     C35231   6.192   4.691   3.108 -0.6931  0.4103  0.2405
  256MOL0     C35232   6.318   4.665   3.191  0.2837  0.3519  0.1387
  256MOL0     C35233   6.417   4.790   3.180 -1.2286 -0.0156 -0.5658
  256MOL0     C35234   6.562   4.740   3.143  0.0758 -0.0730  0.2791
  256MOL0    Cl35235   6.650   4.670   3.273 -0.2152  0.2703 -0.0665
  256MOL0     C35236   5.486   4.585   2.830 -0.2984 -0.5833  0.9423
  256MOL0     C35237   5.376   4.555   2.756  0.0361  0.1013 -0.9132
  256MOL0     O35238   5.019   4.576   2.796  0.3390 -0.1086 -0.0101
  256MOL0     C35239   4.930   4.325   2.593  0.3400  0.5420  1.0184
  256MOL0     C35240   4.827   4.287   2.498  0.4457 -0.0068  0.7220
  256MOL0     N35241   4.026   4.459   2.150  0.2665  0.1420 -0.2483
  256MOL0     N35242   3.931   4.492   2.075  0.2121  0.2966  0.2287
  256MOL0     C35243   3.051   4.403   1.585 -0.7803  0.1254  0.7571
  256MOL0     C35244   2.931   4.335   1.569  0.9170  0.7603  0.8143
  256MOL0     C35245   2.584   4.091   1.474  0.0997 -0.5978 -0.9708
  256MOL0     C35246   2.492   4.185   1.492  0.9782  0.6264 -0.0189
  256MOL0     C35247   2.352   4.155   1.481 -0.4512  0.8285 -0.2589
  256MOL0     C35248   2.306   4.021   1.479  0.6747  0.3183  0.4191
  256MOL0     O35249   2.178   3.978   1.488 -0.2600 -0.1753 -0.1108
  256MOL0     C35250   2.069   4.067   1.530 -0.1902  0.2160  0.6671
  256MOL0     C35251   2.080   4.090   1.682 -0.8444  0.0888 -0.7378
  256MOL0     C35252   1.939   4.131   1.739 -0.1330  0.0005  0.4557
  256MOL0     C35253   1.943   4.181   1.886  1.0590  0.2351  0.2167
  256MOL0     C35254   1.808   4.231   1.918  0.3543 -0.0275  0.3998
  256MOL0     C35255   1.698   4.268   1.937  0.2143 -0.6945 -0.4774
  256MOL0     C35256   2.405   3.926   1.460  0.3917  0.7580  0.2715
  256MOL0     C35257   2.542   3.958   1.453  0.6199  0.3443  0.2849
  256MOL0     C35258   2.622   3.832   1.410  0.6102 -0.5703 -0.7759
  256MOL0     H35259   2.994   4.199   1.270 -0.0751 -0.0229 -0.2280
  256MOL0     H35260   3.211   4.292   1.316 -0.0918  2.1784  0.2921
  256MOL0     H35261   3.281   4.617   1.401 -0.1052  0.2950  3.2165
  256MOL0     H35262   3.311   4.478   1.312 -0.5147 -1.6686 -0.1242
  256MOL0     H35263   3.515   4.583   1.352 -0.0686  0.4836  0.1104
  256MOL0     H35264   3.498   4.590   1.525 -0.4595 -0.2588 -0.4483
  256MOL0     H35265   3.529   4.352   1.554 -2.2883 -2.3351 -1.2386
  256MOL0     H35266   3.514   4.320   1.386  2.6906  1.3795 -3.0163
  256MOL0     H35267   3.723   4.310   1.370 -2.3657 -2.3250  1.4046
  256MOL0     H35268   3.714   4.496   1.377 -0.2536 -0.1886  2.0979
  256MOL0     H35269   3.890   4.381   1.493  0.5362 -1.4363  0.2320
  256MOL0     H35270   3.773   4.317   1.604 -3.7718 -1.0194 -3.0710
  256MOL0     H35271   3.829   4.617   1.560  3.4415 -0.7808  1.0008
  256MOL0     H35272   3.703   4.562   1.670  0.8217  1.1885  1.3792
  256MOL0     H35273   3.901   4.621   1.798  0.0434 -0.8923  2.4780
  256MOL0     H35274   4.002   4.502   1.720  0.2615  0.6869 -0.1946
  256MOL0     H35275   3.756   4.450   1.889  1.5809  0.9907  0.9604
  256MOL0     H35276   3.827   4.321   1.803 -1.2507  0.3955 -1.9746
  256MOL0     H35277   4.084   4.258   1.902 -1.4228  0.1020 -1.1986
  256MOL0     H35278   4.257   4.234   2.057 -0.5347  0.2750  0.3860
  256MOL0     H35279   4.203   4.227   2.226  2.6381  1.1482  1.1665
  256MOL0     H35280   4.338   4.467   2.104  0.2626 -0.9266 -0.4611
  256MOL0     H35281   4.298   4.443   2.276  1.5482  0.7822 -0.7021
  256MOL0     H35282   4.438   4.225   2.264 -2.3439  1.0499 -1.4500
  256MOL0     H35283   4.512   4.287   2.124  3.4780  1.1274  1.7745
  256MOL0     H35284   4.577   4.489   2.216 -2.6684 -0.1436 -0.8538
  256MOL0     H35285   4.518   4.462   2.377  0.4569 -2.4085  1.9963
  256MOL0     H35286   4.716   4.597   2.411  1.8941  1.4760  0.2358
  256MOL0     H35287   4.839   4.722   2.660  2.0783 -2.4698  2.2147
  256MOL0     H35288   4.847   4.757   2.486 -1.7150 -1.2782 -0.3776
  256MOL0     H35289   4.997   4.735   2.571 -0.6008  3.2544 -2.1175
  256MOL0     H35290   5.190   4.409   2.982  1.3743 -1.6579 -1.3390
  256MOL0     H35291   5.379   4.494   3.129 -1.5399  2.2290  0.7295
  256MOL0     H35292   5.739   4.536   2.910  1.4162 -1.7716  3.1758
  256MOL0     H35293   5.743   4.707   2.965 -0.4329  0.6283  1.5582
  256MOL0     H35294   5.795   4.585   3.200 -1.6536 -2.1186 -0.4160
  256MOL0     H35295   5.849   4.452   3.128  1.9333 -0.5086  1.6607
  256MOL0     H35296   5.946   4.737   3.067  2.4923 -0.0075  0.0768
  256MOL0     H35297   5.987   4.604   2.964 -0.0433  3.0519 -0.9045
  256MOL0     H35298   6.112   4.490   3.139 -0.8550 -0.4341  0.5422
  256MOL0     H35299   6.048   4.605   3.256  1.6198  0.2709  0.2566
  256MOL0     H35300   6.213   4.681   3.001  0.8186 -2.4602  0.6999
  256MOL0     H35301   6.155   4.793   3.121 -2.9339 -0.0872 -1.4861
  256MOL0     H35302   6.358   4.571   3.151 -0.9209 -0.2580  0.3104
  256MOL0     H35303   6.301   4.649   3.298  1.9575 -1.4581  0.1926
  256MOL0     H35304   6.413   4.854   3.268  3.1831 -1.3611  0.8747
  256MOL0     H35305   6.392   4.851   3.092 -1.6913 -0.6985 -0.9195
  256MOL0     H35306   6.612   4.827   3.099 -0.0052  0.1939  0.7058
  256MOL0     H35307   6.543   4.666   3.065 -0.3985  0.4135 -0.0822
  256MOL0     H35308   5.569   4.637   2.783  1.5763 -3.8975  0.3590
  256MOL0     H35309   5.385   4.557   2.648  1.3219 -0.4680 -0.8396
  256MOL0     H35310   4.989   4.251   2.646  1.6905  1.1287  0.3636
  256MOL0     H35311   4.796   4.184   2.489  0.8207 -0.1291  0.8148
  256MOL0     H35312   3.081   4.456   1.674  0.3126  1.7439 -0.5129
  256MOL0     H35313   2.850   4.334   1.642 -1.5840 -3.3682 -1.5817
  256MOL0     H35314   2.522   4.288   1.504 -0.1672  1.1678 -1.4636
  256MOL0     H35315   2.283   4.239   1.487 -0.1855  0.9716  1.1710
  256MOL0     H35316   2.048   4.156   1.471  0.0100 -0.8229 -1.0607
  256MOL0     H35317   1.976   4.012   1.513  0.2265 -0.6620  1.1365
  256MOL0     H35318   2.155   4.169   1.697 -2.7054  1.5398  1.9557
  256MOL0     H35319   2.118   4.003   1.736 -0.4751 -0.1929 -1.4426
  256MOL0     H35320   1.894   4.206   1.674  1.8821 -0.4568 -1.5699
  256MOL0     H35321   1.880   4.038   1.739  1.8517 -1.3300  1.0662
  256MOL0     H35322   2.009   4.268   1.885 -0.0224  1.1079 -2.1173
  256MOL0     H35323   1.974   4.108   1.961 -1.2032 -1.3073 -0.2429
  256MOL0     H35324   1.603   4.317   1.949  0.2091 -0.9553  0.6116
  256MOL0     H35325   2.363   3.828   1.438  1.7095  0.4537 -1.0487
  256MOL0     H35326   2.699   3.868   1.341  3.2471 -1.1406  1.6763
  256MOL0     H35327   2.680   3.798   1.496 -0.3575  0.4882  0.3352
  256MOL0     H35328   2.558   3.754   1.368 -1.7975  1.1517 -0.4777
  257MOL0     O35329   9.760   6.254   3.714  0.1041  0.2315  0.3427
  257MOL0     C35330   9.649   6.203   3.697  0.0003 -0.6065 -0.4002
  257MOL0     O35331   9.616   6.119   3.589 -0.2494 -0.5133  0.3392
  257MOL0     C35332   9.703   6.057   3.513 -0.4781 -0.5576 -0.2939
  257MOL0     C35333   9.797   5.969   3.568 -0.0538 -0.5746  0.3425
  257MOL0     C35334   9.905   5.909   3.496  0.3319  1.0740  0.0334
  257MOL0     C35335   9.917   5.945   3.364  0.9532 -0.6108  0.3052
  257MOL0     O35336  10.025   5.885   3.307 -0.0181 -0.0564 -0.4326
  257MOL0     C35337  10.049   5.902   3.169 -0.6492  0.6067 -0.2565
  257MOL0     C35338  10.186   5.840   3.144 -0.0773 -0.4074  0.6064
  257MOL0     C35339  10.299   5.899   3.225  0.6410  0.3351  0.5023
  257MOL0     C35340  10.328   6.047   3.185 -0.2916  0.4428  0.1415
  257MOL0     C35341  10.348   6.072   3.039  0.0747 -0.2109  0.2780
  257MOL0     C35342  10.430   6.207   3.021  0.1073  0.2443  0.6117
  257MOL0     C35343  10.478   6.243   2.885 -0.0347 -0.0663  0.9251
  257MOL0     C35344  10.368   6.242   2.778 -0.1984  0.0735 -0.2715
  257MOL0     N35345  10.418   6.307   2.659  0.1427 -0.0079 -0.3820
  257MOL0     C35346  10.552   6.326   2.628  0.3704  0.3017  0.8451
  257MOL0     C35347  10.552   6.428   2.541 -0.3526  0.4448  0.1087
  257MOL0     C35348  10.683   6.480   2.483 -0.3328  0.3677 -0.1479
  257MOL0     C35349  10.745   6.567   2.594 -0.8654 -0.1881  0.1085
  257MOL0     C35350  10.888   6.547   2.603 -0.4816  0.1674 -0.2852
  257MOL0     C35351  10.944   6.583   2.741 -0.5365  0.8886  0.3248
  257MOL0     O35352  11.075   6.523   2.775 -0.1193  0.0177 -0.2524
  257MOL0     C35353  11.191   6.584   2.718  0.5175 -0.5004 -0.4292
  257MOL0     C35354  11.224   6.569   2.583 -0.3784 -0.1501 -0.3327
  257MOL0     C35355  11.348   6.618   2.532 -0.1254  0.2393 -0.3804
  257MOL0     C35356  11.374   6.609   2.387  0.1341  0.4065  0.3822
  257MOL0     C35357  11.444   6.679   2.624 -0.2024  0.1837 -0.7403
  257MOL0     C35358  11.576   6.733   2.586  0.2750  0.4303 -0.0045
  257MOL0     O35359  11.683   6.698   2.677  0.2025 -0.3999  0.3250
  257MOL0     C35360  11.804   6.758   2.658 -0.3967 -0.5470 -0.6462
  257MOL0     C35361  11.897   6.724   2.566 -0.3786  0.5536 -0.2243
  257MOL0     C35362  12.019   6.786   2.562  0.2354 -0.5811 -0.4416
  257MOL0     C35363  12.053   6.900   2.640  0.2353  1.7647  0.1450
  257MOL0     O35364  12.177   6.951   2.611  0.4610  0.4106  0.2089
  257MOL0     C35365  12.230   7.069   2.676  0.4416  0.5219  0.6258
  257MOL0     C35366  12.265   7.049   2.827  0.1024  0.1133  0.2174
  257MOL0     C35367  12.391   6.966   2.846  0.3622 -0.1159 -0.5525
  257MOL0     C35368  12.400   6.921   2.995  0.7244  0.2554  0.2289
  257MOL0     C35369  12.524   6.834   3.015 -0.4427 -0.3753 -0.2727
  257MOL0     C35370  12.546   6.776   3.151  0.2798  0.4430 -0.2626
  257MOL0     C35371  12.698   6.719   3.177  0.6949  0.2089 -0.0923
  257MOL0     C35372  12.710   6.605   3.277 -1.1556 -0.6408  0.5391
  257MOL0    Cl35373  12.868   6.618   3.359  0.1272 -0.2354 -0.3299
  257MOL0     C35374  11.957   6.949   2.732  0.8357  0.3298 -0.2407
  257MOL0     C35375  11.842   6.866   2.742  0.2974  0.3401 -0.1894
  257MOL0     O35376  11.585   6.807   2.488 -0.0162 -0.1375 -0.3602
  257MOL0     C35377  11.409   6.688   2.762 -0.1362 -0.0206 -0.4333
  257MOL0     C35378  11.275   6.655   2.800  0.3409  0.1952 -0.4840
  257MOL0     N35379  10.421   6.473   2.508  0.0988  0.1025 -0.0083
  257MOL0     N35380  10.349   6.398   2.582 -0.6639 -0.1519 -0.5364
  257MOL0     C35381   9.835   6.044   3.310  0.2382  0.0327 -0.4999
  257MOL0     C35382   9.732   6.098   3.383 -0.2772 -0.2387  0.4486
  257MOL0     C35383   9.535   6.238   3.791 -0.2333  0.4400 -0.1460
  257MOL0     C35384   9.399   6.208   3.750  0.1603  0.3505  0.2698
  257MOL0     C35385   9.283   6.228   3.826 -0.2461 -0.4782  0.7500
  257MOL0     C35386   9.308   6.293   3.951 -0.5339 -0.8423  0.4268
  257MOL0     O35387   9.192   6.328   4.016 -0.0422 -0.1510  0.3518
  257MOL0     C35388   9.202   6.423   4.128  0.6542  0.5870 -0.6881
  257MOL0     C35389   9.063   6.479   4.152  0.5717  0.3613  0.0700
  257MOL0     C35390   9.049   6.578   4.265 -0.5395  0.7018 -0.4476
  257MOL0     C35391   8.909   6.617   4.311  0.3732  0.1914 -0.3328
  257MOL0     C35392   8.902   6.698   4.440  0.3854  0.2686  0.0426
  257MOL0     C35393   8.890   6.790   4.518  1.3736  0.7156  0.3440
  257MOL0     C35394   9.440   6.308   4.003  0.0620  0.5266  0.2299
  257MOL0     C35395   9.560   6.290   3.928 -0.0136 -0.2484 -0.2817
  257MOL0     C35396   9.706   6.314   3.986  0.2076 -0.5326  0.4200
  257MOL0     H35397   9.790   5.936   3.672 -0.8606  0.3401  0.5911
  257MOL0     H35398   9.975   5.842   3.544 -1.2802 -0.6599  0.0928
  257MOL0     H35399  10.058   6.004   3.131 -3.5623  1.3846  0.8314
  257MOL0     H35400   9.973   5.853   3.107 -0.5371 -0.1468  0.1827
  257MOL0     H35401  10.183   5.733   3.170 -0.1450  0.0577  2.7472
  257MOL0     H35402  10.218   5.836   3.040 -1.2205 -0.0134  0.2243
  257MOL0     H35403  10.272   5.900   3.330 -1.4819  3.2447  0.0667
  257MOL0     H35404  10.391   5.839   3.222  1.4126  1.4755  0.6449
  257MOL0     H35405  10.252   6.117   3.221 -0.4180  0.4147 -0.0644
  257MOL0     H35406  10.426   6.063   3.230 -0.7067 -1.9171  2.1273
  257MOL0     H35407  10.252   6.083   2.988 -0.3656  1.2582  1.3499
  257MOL0     H35408  10.406   5.996   2.986 -0.1635  0.1140 -0.4593
  257MOL0     H35409  10.361   6.285   3.053  0.3077  1.3565 -1.5094
  257MOL0     H35410  10.513   6.205   3.092  0.9187 -0.6514 -0.3297
  257MOL0     H35411  10.559   6.176   2.855 -0.4840 -0.2522  0.0751
  257MOL0     H35412  10.513   6.346   2.887 -1.4070  0.6725 -2.9262
  257MOL0     H35413  10.341   6.139   2.753 -2.1638  0.1813  1.2043
  257MOL0     H35414  10.278   6.286   2.822 -0.2984 -0.6610  0.2707
  257MOL0     H35415  10.639   6.267   2.654  0.6492 -0.2036 -1.0562
  257MOL0     H35416  10.659   6.548   2.401  2.9417  1.6855 -0.1409
  257MOL0     H35417  10.744   6.396   2.447  0.3876 -0.3795  2.5871
  257MOL0     H35418  10.734   6.673   2.571 -0.7789  0.0106  0.9521
  257MOL0     H35419  10.694   6.551   2.690 -2.4057  3.5726  0.0846
  257MOL0     H35420  10.894   6.441   2.576 -0.0176  0.3114 -0.7745
  257MOL0     H35421  10.958   6.600   2.537 -0.0165  0.8511  0.7470
  257MOL0     H35422  10.942   6.692   2.748  1.1151  1.1226 -1.9042
  257MOL0     H35423  10.879   6.542   2.820  1.0979 -1.5662  0.5137
  257MOL0     H35424  11.152   6.527   2.513 -0.7586  0.9233 -0.6050
  257MOL0     H35425  11.398   6.711   2.355  1.1045 -0.1575 -0.7599
  257MOL0     H35426  11.293   6.561   2.330 -0.2491 -1.1161  2.1162
  257MOL0     H35427  11.454   6.536   2.372 -1.0679 -0.6261 -1.3902
  257MOL0     H35428  11.888   6.638   2.500 -0.0457  0.2576  0.1113
  257MOL0     H35429  12.091   6.742   2.494 -1.0115 -2.4927 -0.6115
  257MOL0     H35430  12.327   7.100   2.637  1.4878  0.6004  3.1512
  257MOL0     H35431  12.156   7.150   2.671 -1.2119 -0.8544  1.5864
  257MOL0     H35432  12.272   7.151   2.866 -1.6612  0.3259  0.0315
  257MOL0     H35433  12.184   7.003   2.885  0.4677  0.8912  1.3909
  257MOL0     H35434  12.484   7.018   2.824  0.6099  1.7554  3.8522
  257MOL0     H35435  12.382   6.883   2.775  4.7075  0.2104 -1.7395
  257MOL0     H35436  12.308   6.869   3.025 -0.3964  2.2706  0.4705
  257MOL0     H35437  12.411   7.013   3.053 -1.3459  0.4880  0.3512
  257MOL0     H35438  12.515   6.752   2.944  2.3188 -2.0694  1.1445
  257MOL0     H35439  12.616   6.890   2.998  1.2349 -2.7649  0.3814
  257MOL0     H35440  12.472   6.700   3.178  2.0058 -0.4821  2.2645
  257MOL0     H35441  12.542   6.849   3.232  1.7819 -1.3586  1.5559
  257MOL0     H35442  12.756   6.808   3.202  0.2996 -0.2467  2.6723
  257MOL0     H35443  12.742   6.688   3.081 -0.2603  2.8563 -1.5269
  257MOL0     H35444  12.702   6.518   3.210 -0.4119  0.3998 -0.9584
  257MOL0     H35445  12.636   6.597   3.357  1.0563 -1.3871  2.6042
  257MOL0     H35446  11.984   7.032   2.796  1.3517 -1.3676  1.8778
  257MOL0     H35447  11.753   6.876   2.804 -0.0644 -0.7599 -0.5078
  257MOL0     H35448  11.474   6.726   2.841 -0.3807 -0.7590  0.1311
  257MOL0     H35449  11.242   6.673   2.902  0.3786 -1.5819 -0.1267
  257MOL0     H35450   9.858   6.082   3.211  1.9361 -0.7798 -0.4675
  257MOL0     H35451   9.687   6.188   3.342  1.4913  0.3730 -0.2271
  257MOL0     H35452   9.385   6.181   3.645  2.0304  3.1615 -0.8071
  257MOL0     H35453   9.182   6.228   3.786  0.4417 -0.5174 -1.0601
  257MOL0     H35454   9.226   6.363   4.216 -4.0767  2.1962  2.0556
  257MOL0     H35455   9.278   6.499   4.109  1.2245  0.2201  0.1016
  257MOL0     H35456   8.989   6.404   4.180 -0.6225  1.1698 -0.8621
  257MOL0     H35457   9.038   6.526   4.057 -1.0667 -0.8806 -0.1483
  257MOL0     H35458   9.090   6.535   4.357  2.5743  4.9416  0.5003
  257MOL0     H35459   9.105   6.671   4.249  1.4182  0.0916  2.0508
  257MOL0     H35460   8.846   6.529   4.330 -0.9359  1.0461 -0.5959
  257MOL0     H35461   8.862   6.680   4.235  4.1743  4.1977  0.2071
  257MOL0     H35462   8.888   6.867   4.593 -1.4742  1.3292 -0.2384
  257MOL0     H35463   9.450   6.340   4.106  2.5442  3.4161 -0.7746
  257MOL0     H35464   9.726   6.418   3.959  0.0222 -0.6351 -0.1216
  257MOL0     H35465   9.702   6.296   4.094 -1.9506 -2.3704  0.1036
  257MOL0     H35466   9.785   6.248   3.948  2.9308  1.5451  2.1210
  258MOL0     O35467   2.331   2.056   9.513 -0.5427 -1.0148  0.4719
  258MOL0     C35468   2.270   1.956   9.545 -0.2793 -0.3937  0.3572
  258MOL0     O35469   2.327   1.844   9.601  0.0418 -0.0605 -0.3012
  258MOL0     C35470   2.460   1.841   9.591 -0.0352  0.1199 -0.9031
  258MOL0     C35471   2.525   1.745   9.509  0.0616 -0.0430  0.3171
  258MOL0     C35472   2.664   1.743   9.494  0.7643  0.2658  0.5944
  258MOL0     C35473   2.742   1.842   9.556  0.2434 -0.5564 -0.9596
  258MOL0     O35474   2.877   1.841   9.523 -0.1681  0.6088 -0.1701
  258MOL0     C35475   2.958   1.958   9.540 -0.5417 -0.0572  0.7440
  258MOL0     C35476   3.098   1.936   9.485 -0.4971  0.6772 -0.6630
  258MOL0     C35477   3.195   2.044   9.533  0.4183 -0.1115  0.3140
  258MOL0     C35478   3.346   2.022   9.514  1.0432  0.1736  0.6475
  258MOL0     C35479   3.397   2.055   9.363  0.0368 -0.8090  0.2058
  258MOL0     C35480   3.533   1.987   9.336 -0.2311  0.3938  0.1780
  258MOL0     C35481   3.611   2.041   9.217  0.4375  0.9635 -0.7029
  258MOL0     C35482   3.742   1.968   9.196  0.9096 -0.6248  0.8071
  258MOL0     N35483   3.833   2.039   9.101  0.5073 -0.4851 -0.2238
  258MOL0     C35484   3.815   2.055   8.965  0.0691 -0.5766  0.5539
  258MOL0     C35485   3.924   2.122   8.922  0.0703 -0.7388 -0.9448
  258MOL0     C35486   3.948   2.172   8.789  0.0420  0.1271  0.0258
  258MOL0     C35487   3.892   2.313   8.778  0.1369 -0.1393 -0.0414
  258MOL0     C35488   3.864   2.356   8.638  0.8236  0.2178 -0.1441
  258MOL0     C35489   3.850   2.506   8.650  0.3792  0.1662  0.1490
  258MOL0     O35490   3.733   2.552   8.729 -0.5446 -0.2054  0.2210
  258MOL0     C35491   3.620   2.567   8.655 -0.1288 -0.2085  0.2043
  258MOL0     C35492   3.610   2.629   8.526  0.5455  0.1388 -0.7521
  258MOL0     C35493   3.487   2.641   8.460  0.9659 -0.0128 -0.5702
  258MOL0     C35494   3.467   2.739   8.350 -0.7970  0.1809  0.0625
  258MOL0     C35495   3.373   2.575   8.512  0.1021 -0.4150  0.8172
  258MOL0     C35496   3.235   2.570   8.450 -0.5854  0.1092  0.1664
  258MOL0     O35497   3.132   2.511   8.518 -0.0046 -0.2289 -0.5434
  258MOL0     C35498   3.017   2.490   8.456 -0.0854 -0.1222 -0.7578
  258MOL0     C35499   2.949   2.583   8.376  0.1716 -0.1597 -0.6957
  258MOL0     C35500   2.815   2.569   8.346  1.3490  0.5374 -0.7239
  258MOL0     C35501   2.749   2.450   8.384  0.3885 -0.2691  1.0942
  258MOL0     O35502   2.618   2.439   8.338  0.5075  0.2604 -0.2938
  258MOL0     C35503   2.531   2.355   8.425 -0.0501  0.5082  0.0447
  258MOL0     C35504   2.384   2.356   8.376  0.0031  0.2536  0.2541
  258MOL0     C35505   2.294   2.305   8.489 -0.3066  0.3320  0.2539
  258MOL0     C35506   2.150   2.333   8.452  0.0976 -0.3356 -0.3233
  258MOL0     C35507   2.098   2.224   8.357 -0.5483 -0.2044  0.0018
  258MOL0     C35508   1.954   2.182   8.391 -0.0778 -0.0512  0.1931
  258MOL0     C35509   1.908   2.071   8.295 -0.6506  0.1466  0.7947
  258MOL0     C35510   1.767   2.020   8.324  0.1092  1.4646  0.6728
  258MOL0    Cl35511   1.726   1.999   8.490  0.0083 -0.1366 -0.2427
  258MOL0     C35512   2.819   2.347   8.458 -0.4047  0.0106  0.5127
  258MOL0     C35513   2.957   2.379   8.497  1.1267 -0.7302 -0.4891
  258MOL0     O35514   3.223   2.613   8.337  0.9291 -0.2283 -0.1383
  258MOL0     C35515   3.387   2.518   8.644 -0.0908  1.1197  0.2733
  258MOL0     C35516   3.512   2.506   8.710  0.5493  0.1859  0.0908
  258MOL0     N35517   4.000   2.142   9.034  0.2347 -0.6525 -1.0223
  258MOL0     N35518   3.954   2.077   9.140  0.1523 -0.5419  0.2079
  258MOL0     C35519   2.675   1.936   9.639 -0.5667 -0.0720 -0.4256
  258MOL0     C35520   2.537   1.931   9.667  0.2641  0.7404  0.2367
  258MOL0     C35521   2.126   1.969   9.548 -0.1748  0.5046 -0.2017
  258MOL0     C35522   2.067   2.034   9.438 -0.2260  0.0629 -0.5678
  258MOL0     C35523   1.925   2.048   9.421 -0.5664  0.2194 -0.2244
  258MOL0     C35524   1.841   2.008   9.521 -0.4255  0.2448 -0.2448
  258MOL0     O35525   1.704   2.042   9.523 -0.6338 -0.1609 -0.0602
  258MOL0     C35526   1.649   2.078   9.392  0.3347  0.5987  0.0963
  258MOL0     C35527   1.500   2.056   9.373 -1.5420  0.0746 -0.2066
  258MOL0     C35528   1.418   2.149   9.455  0.4049 -0.0084 -0.0907
  258MOL0     C35529   1.360   2.262   9.368 -0.4315  0.6363  0.1997
  258MOL0     C35530   1.334   2.385   9.443 -0.0493  0.1226 -0.9027
  258MOL0     C35531   1.334   2.494   9.500  0.0072 -0.1503  0.5937
  258MOL0     C35532   1.899   1.945   9.632  0.2160  0.0217  0.1415
  258MOL0     C35533   2.036   1.923   9.644  0.3006  0.4022 -0.4028
  258MOL0     C35534   2.069   1.853   9.774  0.0738 -0.3287  0.5269
  258MOL0     H35535   2.464   1.684   9.443  0.0443  0.7487 -0.4025
  258MOL0     H35536   2.711   1.675   9.423 -0.0094  0.7206 -0.3778
  258MOL0     H35537   2.948   1.983   9.646 -0.1841 -2.3353  1.3706
  258MOL0     H35538   2.920   2.043   9.483 -2.0813 -0.8900  0.4563
  258MOL0     H35539   3.140   1.840   9.515  1.0166  0.6710 -2.6121
  258MOL0     H35540   3.087   1.920   9.377 -1.2391 -0.6185 -0.4163
  258MOL0     H35541   3.178   2.139   9.482 -2.0343 -1.5992 -1.9090
  258MOL0     H35542   3.169   2.051   9.639 -1.3801 -0.4313 -0.0816
  258MOL0     H35543   3.403   2.080   9.586  1.1161  1.1336 -0.1596
  258MOL0     H35544   3.352   1.914   9.532  2.3134 -0.2615 -1.8618
  258MOL0     H35545   3.396   2.160   9.335 -0.9184 -0.6966  0.6303
  258MOL0     H35546   3.323   2.011   9.295 -0.4465 -0.9029  0.7873
  258MOL0     H35547   3.580   1.988   9.434 -1.1820 -2.2772  0.7562
  258MOL0     H35548   3.511   1.882   9.316  0.3676  0.2899  0.0482
  258MOL0     H35549   3.627   2.148   9.233 -0.7859  0.7170  3.2586
  258MOL0     H35550   3.546   2.024   9.131 -1.9596  0.7034  1.0687
  258MOL0     H35551   3.793   1.958   9.292  1.7689 -0.5964  0.3603
  258MOL0     H35552   3.725   1.865   9.164  1.2729 -0.2409 -0.7050
  258MOL0     H35553   3.726   2.027   8.911 -0.0710  1.4080 -0.3182
  258MOL0     H35554   3.899   2.102   8.720 -1.6579  1.5327 -0.2841
  258MOL0     H35555   4.056   2.169   8.774 -0.0559 -2.0187 -0.4975
  258MOL0     H35556   3.794   2.317   8.826 -0.7168 -0.0835 -1.7145
  258MOL0     H35557   3.963   2.385   8.821  0.7022 -1.0477  0.5718
  258MOL0     H35558   3.935   2.323   8.562  1.5243  2.1582 -0.3875
  258MOL0     H35559   3.766   2.317   8.609 -0.1449  2.0988  0.4546
  258MOL0     H35560   3.937   2.562   8.686  0.6972 -0.6233  0.6570
  258MOL0     H35561   3.825   2.539   8.549 -1.3632 -1.6192 -0.0568
  258MOL0     H35562   3.694   2.687   8.491  0.7070  0.5012  0.2053
  258MOL0     H35563   3.560   2.796   8.341 -1.2436  1.2945  2.0457
  258MOL0     H35564   3.397   2.820   8.374  1.8763  2.5519  0.4458
  258MOL0     H35565   3.448   2.690   8.254 -0.5586 -1.0995  0.6538
  258MOL0     H35566   2.985   2.679   8.341 -0.5416  0.4594  0.2230
  258MOL0     H35567   2.760   2.647   8.295 -1.0619 -0.3345  0.4035
  258MOL0     H35568   2.576   2.255   8.420  2.3553  1.5935 -2.1956
  258MOL0     H35569   2.520   2.388   8.528 -1.5055 -0.7485  0.3254
  258MOL0     H35570   2.354   2.461   8.369 -4.4360 -0.8646 -0.7074
  258MOL0     H35571   2.369   2.316   8.275 -0.3124  0.5523  0.1789
  258MOL0     H35572   2.316   2.352   8.586  1.3070  0.5672 -0.1922
  258MOL0     H35573   2.316   2.199   8.502 -1.3003  0.1266  0.3141
  258MOL0     H35574   2.120   2.428   8.407 -1.7112 -0.9622 -0.5066
  258MOL0     H35575   2.102   2.328   8.550  3.4210 -2.6124  1.3867
  258MOL0     H35576   2.118   2.260   8.256  1.0502  0.9894  0.7131
  258MOL0     H35577   2.167   2.139   8.350  0.4063  0.3839  1.7217
  258MOL0     H35578   1.887   2.268   8.402  0.0484 -0.2324  3.2268
  258MOL0     H35579   1.957   2.147   8.495  1.8168  0.6199  0.4142
  258MOL0     H35580   1.984   1.992   8.294 -0.3718  0.4116  0.9483
  258MOL0     H35581   1.900   2.116   8.196  0.3046  0.4758  0.8546
  258MOL0     H35582   1.748   1.921   8.281 -0.1767  1.4698  0.7841
  258MOL0     H35583   1.704   2.101   8.284  1.1563  1.1141 -1.9004
  258MOL0     H35584   2.780   2.249   8.484  0.6994  0.1478  2.9726
  258MOL0     H35585   3.012   2.307   8.556 -3.0852 -3.3672  0.6944
  258MOL0     H35586   3.302   2.474   8.696  0.8640 -0.1371  0.8420
  258MOL0     H35587   3.507   2.449   8.803  1.1848 -0.3812 -0.2135
  258MOL0     H35588   2.722   2.023   9.684  0.1724 -0.3027 -0.7350
  258MOL0     H35589   2.491   2.001   9.736 -0.9394  0.6659 -0.4593
  258MOL0     H35590   2.140   2.077   9.371  1.2195 -2.4271 -0.7363
  258MOL0     H35591   1.896   2.109   9.336  3.9607  3.5751  0.2842
  258MOL0     H35592   1.659   2.186   9.376 -1.9103  1.0766  1.4199
  258MOL0     H35593   1.697   2.015   9.316 -0.4763 -2.5969  2.0573
  258MOL0     H35594   1.487   1.950   9.399  1.5068 -0.7683 -1.6359
  258MOL0     H35595   1.474   2.063   9.267 -1.7634 -0.4283 -0.1887
  258MOL0     H35596   1.333   2.088   9.486 -2.2030  2.9293 -0.9845
  258MOL0     H35597   1.466   2.194   9.542  0.9730 -0.0567 -0.3697
  258MOL0     H35598   1.264   2.223   9.332 -0.0871  1.2495 -1.4869
  258MOL0     H35599   1.429   2.281   9.285  0.9860  2.9425  1.8166
  258MOL0     H35600   1.333   2.595   9.536 -0.0315  0.8907 -2.1064
  258MOL0     H35601   1.829   1.913   9.709  1.1843  0.0572  1.0545
  258MOL0     H35602   1.994   1.853   9.853  1.0413 -2.7030  1.5304
  258MOL0     H35603   2.105   1.753   9.751 -3.8620 -1.7775 -0.1472
  258MOL0     H35604   2.152   1.914   9.812 -0.2725  0.8816 -0.5607
  259MOL0     O35605   3.159   6.586   2.963 -0.0978  0.3052 -0.0228
  259MOL0     C35606   3.149   6.705   3.001 -0.3984 -0.4463 -0.5273
  259MOL0     O35607   3.254   6.792   3.008  0.0731 -0.4092 -0.9841
  259MOL0     C35608   3.373   6.757   2.949  0.2613 -0.1983  0.4849
  259MOL0     C35609   3.385   6.707   2.818 -0.5398  0.5361  0.0371
  259MOL0     C35610   3.509   6.669   2.766  0.7653 -0.5188  0.0048
  259MOL0     C35611   3.632   6.679   2.834  0.3271 -0.2871 -0.0079
  259MOL0     O35612   3.762   6.652   2.792  0.4392 -0.2407  0.0179
  259MOL0     C35613   3.775   6.580   2.669 -0.0955 -0.1922  0.1136
  259MOL0     C35614   3.912   6.518   2.660 -1.0630 -0.1768  0.6630
  259MOL0     C35615   4.018   6.616   2.611 -0.1103  0.3313 -0.2926
  259MOL0     C35616   4.167   6.552   2.599  0.2795 -0.2518  0.1242
  259MOL0     C35617   4.179   6.489   2.463  0.3788 -0.1957  0.0282
  259MOL0     C35618   4.319   6.432   2.439 -0.5473  0.3998 -0.5602
  259MOL0     C35619   4.338   6.352   2.310  0.2218  0.2531 -0.6571
  259MOL0     C35620   4.482   6.286   2.303  0.7890  0.2969 -1.0045
  259MOL0     N35621   4.585   6.398   2.301  0.3851 -0.2950  0.4629
  259MOL0     C35622   4.645   6.463   2.401 -0.6123  0.0154  0.3479
  259MOL0     C35623   4.712   6.565   2.341  0.5409 -0.6161  0.2860
  259MOL0     C35624   4.812   6.661   2.412 -0.4874 -0.1358 -0.4063
  259MOL0     C35625   4.763   6.802   2.428  0.1847 -0.6596  0.5228
  259MOL0     C35626   4.622   6.815   2.480 -0.5910 -0.6969 -0.0081
  259MOL0     C35627   4.583   6.961   2.497  0.5082  0.0491 -0.3774
  259MOL0     O35628   4.471   6.991   2.582  0.7237  0.2449  0.3807
  259MOL0     C35629   4.340   6.963   2.538 -0.3197  0.3759  0.3567
  259MOL0     C35630   4.308   6.944   2.405 -0.6216 -0.0371 -0.3092
  259MOL0     C35631   4.175   6.930   2.360 -0.6137  0.3077  0.0918
  259MOL0     C35632   4.161   6.891   2.215  0.1513 -0.2865  0.3179
  259MOL0     C35633   4.068   6.941   2.456  0.7051  0.2617 -0.6070
  259MOL0     C35634   3.934   6.934   2.408 -0.5942  0.0802 -0.3359
  259MOL0     O35635   3.897   7.010   2.308 -0.0297  0.4788 -0.7674
  259MOL0     C35636   3.762   7.005   2.273 -0.0480 -0.1289 -0.5407
  259MOL0     C35637   3.676   7.118   2.279  0.4287  0.7202  0.3031
  259MOL0     C35638   3.545   7.119   2.232 -0.4963  0.9298  0.4182
  259MOL0     C35639   3.500   7.008   2.163  0.3097 -0.5851 -0.2438
  259MOL0     O35640   3.369   7.010   2.121  0.7436 -0.6189 -0.6934
  259MOL0     C35641   3.334   6.922   2.016 -0.3141  0.4610 -1.0032
  259MOL0     C35642   3.211   6.970   1.950  0.7971 -0.3460 -0.2068
  259MOL0     C35643   3.090   6.976   2.051 -0.6355 -0.4817 -0.3072
  259MOL0     C35644   2.966   7.031   1.981  0.0648  0.2674 -0.0910
  259MOL0     C35645   2.901   6.915   1.892 -0.0933  0.3145 -0.0623
  259MOL0     C35646   2.753   6.929   1.877  0.3696 -0.2247 -0.8316
  259MOL0     C35647   2.710   7.035   1.773  0.2662  0.0314 -0.5292
  259MOL0     C35648   2.566   7.072   1.778 -0.7847 -0.0863  0.5529
  259MOL0    Cl35649   2.531   7.205   1.652 -0.0915  0.1969  0.3043
  259MOL0     C35650   3.584   6.897   2.141  0.2471 -0.3659 -0.3966
  259MOL0     C35651   3.711   6.894   2.200 -0.6869  0.1473  0.6918
  259MOL0     O35652   3.861   6.865   2.482  0.2117 -0.7584 -0.8747
  259MOL0     C35653   4.101   6.954   2.597  0.4385 -0.6711 -0.9210
  259MOL0     C35654   4.234   6.962   2.631 -0.0070 -0.2263 -0.3936
  259MOL0     N35655   4.695   6.575   2.207  0.3999  0.6522 -0.1459
  259MOL0     N35656   4.611   6.472   2.183 -0.1247  0.4181 -0.7907
  259MOL0     C35657   3.611   6.716   2.967  0.4411  0.4119 -0.0498
  259MOL0     C35658   3.491   6.762   3.018  0.0735  0.0186 -0.0240
  259MOL0     C35659   3.020   6.764   3.055 -0.2061  0.5233 -0.2484
  259MOL0     C35660   3.011   6.816   3.184  0.0540 -0.0294  0.0370
  259MOL0     C35661   2.881   6.852   3.230 -0.2531  0.1170 -0.5434
  259MOL0     C35662   2.768   6.836   3.158 -0.0111 -0.4582 -0.2108
  259MOL0     O35663   2.656   6.883   3.224  0.5791  0.3269 -0.8446
  259MOL0     C35664   2.536   6.815   3.185  0.0265  0.5772  0.5084
  259MOL0     C35665   2.427   6.860   3.277  0.1027 -0.6886  0.5505
  259MOL0     C35666   2.294   6.847   3.204  0.1229 -0.0351 -0.4834
  259MOL0     C35667   2.174   6.863   3.295  0.3921 -0.1712  0.5248
  259MOL0     C35668   2.042   6.869   3.233 -0.7293 -0.6250 -0.0343
  259MOL0     C35669   1.924   6.868   3.206 -0.3060  0.4025 -0.3909
  259MOL0     C35670   2.777   6.783   3.028  0.3320  0.3889  0.2531
  259MOL0     C35671   2.899   6.747   2.974  0.5394  0.6026 -0.3696
  259MOL0     C35672   2.904   6.696   2.828  0.3351 -1.0196  0.0098
  259MOL0     H35673   3.304   6.703   2.747 -1.8614 -0.5544  1.5188
  259MOL0     H35674   3.504   6.632   2.664  2.1517  1.2336 -0.7528
  259MOL0     H35675   3.754   6.646   2.584 -0.1214  1.5381  1.4182
  259MOL0     H35676   3.697   6.504   2.663  0.9652 -1.4344  1.4699
  259MOL0     H35677   3.946   6.485   2.759 -1.5683  0.6911  1.1492
  259MOL0     H35678   3.898   6.430   2.597 -1.8278 -0.5126  1.2838
  259MOL0     H35679   3.993   6.661   2.515 -1.2791  1.0661  0.3411
  259MOL0     H35680   4.021   6.701   2.680 -3.2939  0.7421 -0.5532
  259MOL0     H35681   4.247   6.626   2.608  1.2204 -0.9945 -1.7237
  259MOL0     H35682   4.187   6.482   2.681  1.8240  1.8451  1.6464
  259MOL0     H35683   4.167   6.565   2.385  1.2755 -1.7952 -1.7703
  259MOL0     H35684   4.110   6.404   2.467  1.3992 -1.0128  1.0015
  259MOL0     H35685   4.389   6.516   2.446  0.8241 -0.7110 -0.4803
  259MOL0     H35686   4.348   6.361   2.517  0.1019  1.4904  0.2224
  259MOL0     H35687   4.308   6.411   2.223 -0.4089 -0.2403 -0.7740
  259MOL0     H35688   4.266   6.271   2.309  0.8844 -0.4169  1.2759
  259MOL0     H35689   4.491   6.225   2.393  0.3977 -2.7391 -2.8890
  259MOL0     H35690   4.487   6.223   2.214 -1.7323 -1.4978  0.0122
  259MOL0     H35691   4.645   6.438   2.506  2.5640 -1.4893  0.1242
  259MOL0     H35692   4.904   6.660   2.353 -0.8253 -2.7638 -1.0383
  259MOL0     H35693   4.827   6.631   2.516 -4.6619 -0.0450  0.4169
  259MOL0     H35694   4.840   6.857   2.484 -0.2347  2.3586 -1.5991
  259MOL0     H35695   4.774   6.848   2.329  1.4851 -2.3006 -0.1465
  259MOL0     H35696   4.547   6.766   2.417 -1.5596 -0.4704  0.9373
  259MOL0     H35697   4.615   6.762   2.575 -1.3247  0.6297  0.6990
  259MOL0     H35698   4.665   7.007   2.554  1.0266 -3.3148  1.8645
  259MOL0     H35699   4.581   7.012   2.400 -0.4339 -0.0539 -0.4229
  259MOL0     H35700   4.393   6.939   2.336 -1.4789 -1.3599 -1.3275
  259MOL0     H35701   4.104   6.799   2.198  0.4297 -0.4674  0.3539
  259MOL0     H35702   4.256   6.871   2.164  1.0361  1.6502  1.1116
  259MOL0     H35703   4.114   6.972   2.158 -0.4077 -1.7476 -1.3946
  259MOL0     H35704   3.720   7.203   2.330  2.1619  0.6082 -0.9213
  259MOL0     H35705   3.485   7.208   2.242  0.7559  1.9607 -0.8369
  259MOL0     H35706   3.418   6.910   1.946 -1.4038  0.3827 -2.3373
  259MOL0     H35707   3.313   6.821   2.054  0.4271  1.1030  1.2856
  259MOL0     H35708   3.233   7.065   1.900  1.2756 -2.6261 -4.9198
  259MOL0     H35709   3.172   6.897   1.878  0.5897 -2.0701  1.5685
  259MOL0     H35710   3.118   7.056   2.121  0.1373  0.4296 -1.5997
  259MOL0     H35711   3.069   6.882   2.103 -1.4504  0.5201  1.2509
  259MOL0     H35712   2.985   7.127   1.932  2.6713  1.7649  3.3987
  259MOL0     H35713   2.896   7.055   2.061  0.7781  1.8000  0.1209
  259MOL0     H35714   2.951   6.903   1.796 -2.0309  0.4519 -1.1329
  259MOL0     H35715   2.921   6.819   1.940 -0.4773 -0.5566 -1.5864
  259MOL0     H35716   2.710   6.936   1.977  0.7922  1.0067 -0.7112
  259MOL0     H35717   2.723   6.834   1.833  0.7944 -0.1619 -1.2762
  259MOL0     H35718   2.735   6.995   1.675 -0.9710 -3.2200  0.3481
  259MOL0     H35719   2.772   7.125   1.773 -1.7701  1.5191  0.2120
  259MOL0     H35720   2.540   7.100   1.880 -2.2692 -1.6609  0.6560
  259MOL0     H35721   2.505   6.986   1.749  3.2489 -2.3202 -2.3357
  259MOL0     H35722   3.553   6.799   2.106 -1.6341  0.2074 -0.4264
  259MOL0     H35723   3.775   6.807   2.187  0.1262  1.1293 -2.9813
  259MOL0     H35724   4.016   6.951   2.665  1.4066 -1.5359  0.3135
  259MOL0     H35725   4.258   6.980   2.735  1.4024  2.4181 -1.1102
  259MOL0     H35726   3.697   6.734   3.031 -1.8605 -0.4907  3.5905
  259MOL0     H35727   3.490   6.807   3.117 -1.1451  1.7926 -0.7917
  259MOL0     H35728   3.096   6.822   3.250 -0.9637 -2.4729  1.7087
  259MOL0     H35729   2.868   6.902   3.326 -4.4226  0.2896 -1.0287
  259MOL0     H35730   2.511   6.840   3.082 -0.0726  1.3521  0.7169
  259MOL0     H35731   2.548   6.706   3.191  3.0131  0.8321  0.7666
  259MOL0     H35732   2.450   6.966   3.295  1.6891 -0.3560 -2.6863
  259MOL0     H35733   2.440   6.802   3.368  2.8459  1.8741  1.9683
  259MOL0     H35734   2.296   6.902   3.109  0.3616 -0.8727 -0.9732
  259MOL0     H35735   2.292   6.743   3.169 -1.4881 -0.1347 -0.2060
  259MOL0     H35736   2.187   6.957   3.351  3.4732  0.6736 -1.4024
  259MOL0     H35737   2.177   6.782   3.369  0.2803 -2.1620 -1.5468
  259MOL0     H35738   1.819   6.852   3.190 -0.2756 -0.6207  0.3045
  259MOL0     H35739   2.692   6.767   2.962  2.0901  0.7093 -2.2567
  259MOL0     H35740   2.840   6.610   2.806  0.0176 -0.3263 -2.0612
  259MOL0     H35741   2.874   6.776   2.759  0.0681 -0.9025  0.2631
  259MOL0     H35742   3.007   6.673   2.798  0.2262 -1.1243 -0.2860
  260MOL0     O35743   5.711   9.558   7.011 -0.4207  0.1190  0.6536
  260MOL0     C35744   5.614   9.629   6.981 -0.3399 -0.1411 -1.0525
  260MOL0     O35745   5.621   9.765   6.973  0.2667 -0.4480  0.1580
  260MOL0     C35746   5.719   9.842   7.031 -0.0057  0.7455  0.1685
  260MOL0     C35747   5.828   9.868   6.955  0.1169  0.8218 -0.7402
  260MOL0     C35748   5.938   9.930   7.008  0.1955  0.0711 -0.2909
  260MOL0     C35749   5.948   9.940   7.150  0.0903  0.5945  0.0699
  260MOL0     O35750   6.065   9.976   7.199  0.0301  0.3548 -0.9835
  260MOL0     C35751   6.091   9.973   7.340  0.5294  0.5955  0.2908
  260MOL0     C35752   6.231  10.018   7.388 -0.9553 -1.1627  0.8998
  260MOL0     C35753   6.247   9.998   7.542 -0.1964  0.2527 -0.1509
  260MOL0     C35754   6.344  10.090   7.612 -0.1505  0.4069  0.2525
  260MOL0     C35755   6.490  10.041   7.603  0.8119  0.2373 -0.1376
  260MOL0     C35756   6.586  10.118   7.678  0.5758 -0.8195  0.2899
  260MOL0     C35757   6.719  10.052   7.721 -1.2534  0.4711 -0.0966
  260MOL0     C35758   6.769  10.097   7.853  0.5468 -0.1024  0.1749
  260MOL0     N35759   6.912  10.067   7.883 -0.0504  0.0010  1.1112
  260MOL0     C35760   6.955   9.941   7.924  0.3610 -0.3440  0.1372
  260MOL0     C35761   7.087   9.953   7.937 -0.0936 -0.4222  0.3007
  260MOL0     C35762   7.189   9.850   7.977 -0.1041  0.0456 -1.0953
  260MOL0     C35763   7.332   9.909   7.956 -0.2640 -0.6924 -0.0366
  260MOL0     C35764   7.442   9.805   7.990  0.1822  0.5015 -0.1588
  260MOL0     C35765   7.573   9.867   7.975  0.8081 -0.8724 -0.1187
  260MOL0     O35766   7.669   9.757   7.974  0.3335  0.0655 -0.1941
  260MOL0     C35767   7.780   9.769   8.051 -0.3331 -0.0892 -0.1493
  260MOL0     C35768   7.879   9.868   8.035  0.4973 -0.0616  0.7572
  260MOL0     C35769   8.005   9.857   8.105 -0.5383 -0.2709  1.3573
  260MOL0     C35770   8.118   9.943   8.058 -0.1853  0.4936 -0.1594
  260MOL0     C35771   8.020   9.776   8.216 -0.0434  0.8691 -0.3011
  260MOL0     C35772   8.142   9.766   8.305  0.4030 -0.0800 -0.1930
  260MOL0     O35773   8.168   9.650   8.367  0.2333  0.1604  0.1668
  260MOL0     C35774   8.255   9.657   8.471 -0.2655 -0.5306 -0.1666
  260MOL0     C35775   8.236   9.728   8.587 -0.6197  0.1628  1.3260
  260MOL0     C35776   8.332   9.735   8.688  0.3729  0.6434  0.8111
  260MOL0     C35777   8.442   9.648   8.679  0.1550  0.1142  0.8637
  260MOL0     O35778   8.523   9.661   8.788 -0.3437 -0.0161 -0.2813
  260MOL0     C35779   8.658   9.597   8.790 -0.1395 -0.9437  0.3997
  260MOL0     C35780   8.723   9.601   8.937  0.5180  0.1188  0.1507
  260MOL0     C35781   8.625   9.559   9.048 -0.1762  1.3879 -0.1407
  260MOL0     C35782   8.593   9.412   9.048  0.0474  0.3944  0.1003
  260MOL0     C35783   8.483   9.375   9.144  0.7768 -0.1323  0.1186
  260MOL0     C35784   8.344   9.403   9.081  0.1925  0.1812 -1.2022
  260MOL0     C35785   8.308   9.305   8.965 -0.8013 -0.2880  0.3649
  260MOL0     C35786   8.201   9.360   8.883 -0.6940  0.0388  0.3047
  260MOL0    Cl35787   8.045   9.380   8.975  0.3045  0.3561  0.2305
  260MOL0     C35788   8.459   9.559   8.569  0.0005 -0.2683 -0.7619
  260MOL0     C35789   8.366   9.566   8.471 -0.4827  0.4949 -0.6412
  260MOL0     O35790   8.201   9.873   8.328 -0.7693 -0.1853 -0.6976
  260MOL0     C35791   7.911   9.691   8.238  0.4543  0.8907  0.3959
  260MOL0     C35792   7.802   9.684   8.152  0.4371 -1.1897 -0.1026
  260MOL0     N35793   7.121  10.082   7.906 -0.6729  0.5649 -0.3977
  260MOL0     N35794   7.016  10.147   7.879  0.7438  0.0223  0.1566
  260MOL0     C35795   5.831   9.906   7.232 -0.9168  0.4439 -0.2425
  260MOL0     C35796   5.716   9.856   7.167  0.0777 -0.2142  0.3481
  260MOL0     C35797   5.487   9.562   6.946  0.0437 -0.6936 -0.4406
  260MOL0     C35798   5.371   9.634   6.927 -0.1506 -0.5526 -0.5576
  260MOL0     C35799   5.252   9.573   6.898 -0.0530  0.5128 -0.7074
  260MOL0     C35800   5.239   9.436   6.873  0.2205 -0.0411  0.2899
  260MOL0     O35801   5.115   9.388   6.829  0.2423 -0.1920 -0.3858
  260MOL0     C35802   5.119   9.289   6.714  0.2352 -0.5036 -0.7105
  260MOL0     C35803   4.992   9.289   6.638 -0.3467  0.8342 -0.5696
  260MOL0     C35804   4.882   9.214   6.718  0.1371 -0.7204 -0.8536
  260MOL0     C35805   4.794   9.133   6.631  0.2268  0.2533  0.8877
  260MOL0     C35806   4.869   9.025   6.566  0.2268 -0.4752 -0.2908
  260MOL0     C35807   4.916   8.936   6.502 -0.1719  0.0446  0.4759
  260MOL0     C35808   5.356   9.363   6.886  0.5217 -0.0719 -0.2332
  260MOL0     C35809   5.474   9.422   6.925 -1.3801  0.6678  0.0216
  260MOL0     C35810   5.593   9.333   6.941  0.2239  0.4902 -0.7059
  260MOL0     H35811   5.830   9.844   6.849  1.1630  0.4018 -0.6370
  260MOL0     H35812   6.024   9.966   6.951  0.1001  1.4765  0.4147
  260MOL0     H35813   6.070   9.869   7.363  0.5965  0.1876 -1.3180
  260MOL0     H35814   6.022  10.029   7.404 -2.2154 -2.3712  0.1722
  260MOL0     H35815   6.305   9.964   7.327 -2.1698 -1.0275 -0.7474
  260MOL0     H35816   6.239  10.125   7.368 -0.9278 -1.2731  0.3056
  260MOL0     H35817   6.150  10.017   7.590  0.5651  2.8010  0.5363
  260MOL0     H35818   6.283   9.896   7.557  0.2310  0.4283  0.0460
  260MOL0     H35819   6.342  10.190   7.567  5.3480  0.7612  0.1501
  260MOL0     H35820   6.309  10.107   7.714 -1.9409 -0.6543 -0.1474
  260MOL0     H35821   6.521  10.039   7.498 -1.0713 -2.4763 -0.7759
  260MOL0     H35822   6.500   9.939   7.642 -3.2545 -0.5125 -0.5700
  260MOL0     H35823   6.600  10.208   7.618 -0.0634 -1.3366 -0.6396
  260MOL0     H35824   6.548  10.165   7.770  1.7191  2.7412 -0.8979
  260MOL0     H35825   6.801  10.076   7.651  0.3965 -3.9469 -0.0161
  260MOL0     H35826   6.716   9.942   7.724 -0.1984  0.4269 -0.2451
  260MOL0     H35827   6.756  10.206   7.858  0.7356 -0.0849  0.2824
  260MOL0     H35828   6.706  10.048   7.927 -0.9123 -1.4047 -1.8393
  260MOL0     H35829   6.901   9.848   7.935 -0.5024  0.2702  1.3793
  260MOL0     H35830   7.166   9.767   7.910 -0.3782  0.3440 -1.3765
  260MOL0     H35831   7.183   9.808   8.078  0.1420  0.8418 -0.7331
  260MOL0     H35832   7.332   9.936   7.850 -1.4129 -3.1095 -0.7239
  260MOL0     H35833   7.348  10.001   8.012  0.7814  0.1099 -1.5878
  260MOL0     H35834   7.428   9.764   8.091 -3.2981 -1.6124 -1.3118
  260MOL0     H35835   7.430   9.726   7.915  1.3996  2.0542 -2.0761
  260MOL0     H35836   7.582   9.930   7.886  2.1916 -0.3282  0.3701
  260MOL0     H35837   7.584   9.937   8.059  0.2307 -1.2410  0.2646
  260MOL0     H35838   7.884   9.944   7.958  0.0852 -1.4726 -0.7112
  260MOL0     H35839   8.144  10.020   8.132  1.2844  1.0842 -1.2272
  260MOL0     H35840   8.092  10.000   7.968  2.3608 -2.3876 -2.9575
  260MOL0     H35841   8.211   9.895   8.028 -0.0073  0.8108 -0.1269
  260MOL0     H35842   8.144   9.784   8.599  0.3318  1.7114  1.7066
  260MOL0     H35843   8.309   9.805   8.768  0.1507  1.2719  0.2102
  260MOL0     H35844   8.643   9.493   8.761 -1.0829 -0.8742  0.6247
  260MOL0     H35845   8.729   9.653   8.728  1.4392 -0.5851  2.4173
  260MOL0     H35846   8.812   9.537   8.939  0.1127 -0.4419  1.1828
  260MOL0     H35847   8.756   9.701   8.965 -1.7603  0.7708  0.7361
  260MOL0     H35848   8.537   9.621   9.027 -0.6585  0.9790  0.6190
  260MOL0     H35849   8.672   9.591   9.142  0.3811  1.2360 -0.3687
  260MOL0     H35850   8.681   9.350   9.066 -0.7790 -0.4368  1.4072
  260MOL0     H35851   8.567   9.394   8.943  1.1046  3.7904 -0.9021
  260MOL0     H35852   8.490   9.278   9.193  0.2133 -1.2248 -1.8727
  260MOL0     H35853   8.501   9.439   9.231  3.2454 -1.3524  0.5884
  260MOL0     H35854   8.343   9.507   9.047  1.8314  0.5149 -0.3425
  260MOL0     H35855   8.264   9.397   9.156  0.1606 -2.2930 -1.3474
  260MOL0     H35856   8.279   9.210   9.011  1.6281 -0.1766  2.3605
  260MOL0     H35857   8.390   9.291   8.895 -0.5027  1.6406  0.2758
  260MOL0     H35858   8.183   9.289   8.802  0.4422 -0.2692  0.3152
  260MOL0     H35859   8.225   9.455   8.834 -2.9415  0.0480 -0.9070
  260MOL0     H35860   8.543   9.490   8.569  0.6996  0.4494  2.0428
  260MOL0     H35861   8.381   9.494   8.392  1.9558  0.2903 -0.0857
  260MOL0     H35862   7.930   9.620   8.318  1.3592  2.2112  1.3897
  260MOL0     H35863   7.720   9.618   8.181  2.1103 -4.1918 -1.6948
  260MOL0     H35864   5.840   9.909   7.340 -0.0688 -2.8301 -0.1355
  260MOL0     H35865   5.627   9.818   7.216 -1.9487 -3.9517 -5.3560
  260MOL0     H35866   5.370   9.742   6.938  2.5569 -0.5155  0.1464
  260MOL0     H35867   5.163   9.633   6.886 -0.8373 -0.2137  1.1210
  260MOL0     H35868   5.199   9.325   6.649  0.9706  1.1767  1.0287
  260MOL0     H35869   5.148   9.192   6.755 -1.7681  0.0754  2.5036
  260MOL0     H35870   5.008   9.248   6.538  1.5791 -0.3399  0.1626
  260MOL0     H35871   4.958   9.392   6.626 -3.9863 -0.1193  0.3915
  260MOL0     H35872   4.932   9.147   6.787 -2.1264 -1.5531  0.0722
  260MOL0     H35873   4.825   9.288   6.776  2.2520 -0.5076  1.0983
  260MOL0     H35874   4.743   9.193   6.555 -1.1305 -0.8070  0.9065
  260MOL0     H35875   4.716   9.084   6.691 -0.1490 -0.2755 -0.0091
  260MOL0     H35876   4.971   8.856   6.457  0.9609  0.2893  1.3751
  260MOL0     H35877   5.344   9.257   6.865 -1.9764  0.2646 -0.8731
  260MOL0     H35878   5.564   9.228   6.928 -0.3220 -0.6110  5.7541
  260MOL0     H35879   5.660   9.363   6.860  0.0591  0.6492 -0.7834
  260MOL0     H35880   5.635   9.335   7.042 -2.5120 -1.0164  0.5905
  261MOL0     O35881   4.624   5.955   1.856 -0.4096 -0.6626  0.1720
  261MOL0     C35882   4.717   5.894   1.813 -0.4470 -0.2397 -0.3077
  261MOL0     O35883   4.847   5.915   1.854 -0.1547 -0.0929 -0.3168
  261MOL0     C35884   4.901   6.026   1.921  0.5904  0.5041  0.2878
  261MOL0     C35885   4.842   6.152   1.940 -0.2759 -0.7219 -0.0321
  261MOL0     C35886   4.911   6.270   1.971 -0.5844 -0.2702  0.5615
  261MOL0     C35887   5.047   6.256   1.995 -0.4910 -0.5481 -0.6200
  261MOL0     O35888   5.125   6.366   2.028  0.2366  0.6536 -0.1992
  261MOL0     C35889   5.057   6.449   2.132 -0.0439  0.9935 -0.2553
  261MOL0     C35890   5.152   6.483   2.251 -0.3165  0.5972  0.7299
  261MOL0     C35891   5.300   6.511   2.213 -0.4538 -0.4731 -0.1591
  261MOL0     C35892   5.379   6.578   2.322 -0.6619 -0.0335  0.0529
  261MOL0     C35893   5.538   6.584   2.320 -0.5794 -0.0594 -0.6448
  261MOL0     C35894   5.584   6.669   2.204 -0.6091  0.3952  0.9021
  261MOL0     C35895   5.733   6.643   2.182  0.5570  0.4474  0.4868
  261MOL0     C35896   5.795   6.739   2.080 -0.2703  0.8434 -0.8250
  261MOL0     N35897   5.913   6.678   2.009  0.6245 -0.9618  0.0603
  261MOL0     C35898   5.900   6.586   1.912 -0.4962  0.3502  0.1159
  261MOL0     C35899   6.020   6.534   1.878 -0.7257 -0.3102 -0.2156
  261MOL0     C35900   6.042   6.429   1.774 -0.6916  0.2530  0.4202
  261MOL0     C35901   6.170   6.353   1.814  0.0392  0.2659  0.2845
  261MOL0     C35902   6.296   6.426   1.773 -0.0567  0.8978 -0.2668
  261MOL0     C35903   6.426   6.340   1.757  0.1499  0.3523 -0.4985
  261MOL0     O35904   6.402   6.259   1.634 -0.2373 -0.1001  0.3354
  261MOL0     C35905   6.505   6.209   1.565 -1.2323  0.4026 -0.3245
  261MOL0     C35906   6.470   6.171   1.442 -0.1417  0.2289 -0.4452
  261MOL0     C35907   6.565   6.144   1.344  0.2032 -0.3529 -0.1157
  261MOL0     C35908   6.526   6.119   1.199 -0.4535 -0.4689 -0.0609
  261MOL0     C35909   6.708   6.136   1.384 -0.4188 -0.4392  0.7884
  261MOL0     C35910   6.826   6.083   1.295 -0.2022 -0.1677 -0.4603
  261MOL0     O35911   6.944   6.123   1.339 -0.2858  0.1001  0.0542
  261MOL0     C35912   7.062   6.101   1.268  0.0902 -0.0856  0.7679
  261MOL0     C35913   7.091   5.964   1.246 -0.7317  0.5509  0.1750
  261MOL0     C35914   7.226   5.933   1.200  0.8425 -0.2342  0.0315
  261MOL0     C35915   7.323   6.030   1.181  0.2860 -0.1862  0.4010
  261MOL0     O35916   7.446   5.985   1.134 -0.1160 -0.1723 -0.2515
  261MOL0     C35917   7.543   6.089   1.104  0.3136  0.7750  0.0888
  261MOL0     C35918   7.655   6.015   1.030 -0.3505  1.1254  0.2096
  261MOL0     C35919   7.738   6.116   0.951  0.6240  0.5925 -0.1020
  261MOL0     C35920   7.804   6.226   1.034 -0.0215  0.3225 -0.2472
  261MOL0     C35921   7.912   6.292   0.946 -0.2891  0.2845 -0.4517
  261MOL0     C35922   8.003   6.396   1.020  0.1714  0.2853  0.0829
  261MOL0     C35923   8.074   6.490   0.922 -0.2258  0.0338  0.7939
  261MOL0     C35924   7.980   6.583   0.834 -1.0706  0.0732 -0.1105
  261MOL0    Cl35925   8.080   6.714   0.745  0.0151  0.2870 -0.4427
  261MOL0     C35926   7.285   6.164   1.204  0.4971  0.2646  0.2557
  261MOL0     C35927   7.157   6.207   1.244  0.6861 -0.0719 -0.4363
  261MOL0     O35928   6.805   6.014   1.194  0.0380 -0.1261 -0.0920
  261MOL0     C35929   6.742   6.181   1.510 -0.6329 -0.4920  0.5833
  261MOL0     C35930   6.645   6.222   1.600 -0.5201  0.1469  1.4534
  261MOL0     N35931   6.107   6.613   1.956 -0.3593 -0.2138 -0.2817
  261MOL0     N35932   6.053   6.700   2.032  0.2055 -0.2852  0.4553
  261MOL0     C35933   5.115   6.143   1.962  0.4462  0.1937  0.6273
  261MOL0     C35934   5.043   6.028   1.927 -0.7921 -0.4220 -0.2590
  261MOL0     C35935   4.697   5.792   1.704 -0.1015 -0.3715 -1.2321
  261MOL0     C35936   4.810   5.735   1.657  0.3229  0.1893  0.0804
  261MOL0     C35937   4.805   5.654   1.540 -0.0043  0.2923  0.2854
  261MOL0     C35938   4.676   5.621   1.480 -0.4693  1.1172  0.7799
  261MOL0     O35939   4.685   5.524   1.372 -0.8276 -0.1815 -0.5772
  261MOL0     C35940   4.581   5.435   1.347 -0.1484  0.4031  0.1288
  261MOL0     C35941   4.631   5.335   1.241 -0.1681  0.1633 -0.3180
  261MOL0     C35942   4.752   5.251   1.290 -0.6649 -0.6993 -0.0812
  261MOL0     C35943   4.825   5.157   1.183  0.0794  0.0633 -0.6836
  261MOL0     C35944   4.959   5.144   1.229 -0.8253  0.1796 -0.1930
  261MOL0     C35945   5.066   5.126   1.272 -0.0664 -0.1389  0.3890
  261MOL0     C35946   4.564   5.679   1.530  0.9744 -0.0871  0.3434
  261MOL0     C35947   4.571   5.765   1.641 -0.5615 -0.2269 -0.0480
  261MOL0     C35948   4.435   5.812   1.705  0.2467  0.1185 -0.1398
  261MOL0     H35949   4.737   6.175   1.927 -0.8385 -2.3766  1.2819
  261MOL0     H35950   4.868   6.365   1.999  1.8786  0.6932  1.4131
  261MOL0     H35951   4.968   6.403   2.174 -0.6737  2.6646  0.3299
  261MOL0     H35952   5.014   6.537   2.085 -1.5206  1.0884  1.1967
  261MOL0     H35953   5.113   6.570   2.303  2.2520  0.4915  3.0620
  261MOL0     H35954   5.155   6.398   2.321 -0.7222 -1.4794 -1.6247
  261MOL0     H35955   5.343   6.413   2.187  1.2082  0.1655  0.0876
  261MOL0     H35956   5.308   6.583   2.132 -0.1098 -0.2105  0.1052
  261MOL0     H35957   5.341   6.679   2.343 -0.3507 -0.4737  3.2119
  261MOL0     H35958   5.356   6.522   2.413 -1.6411 -0.3046 -0.3586
  261MOL0     H35959   5.574   6.482   2.307  0.0622 -0.2446  2.0446
  261MOL0     H35960   5.581   6.611   2.417  1.3338 -0.8359 -1.2257
  261MOL0     H35961   5.529   6.628   2.119 -0.3287 -0.5250  1.1510
  261MOL0     H35962   5.555   6.774   2.208 -1.8469  0.1293 -0.2405
  261MOL0     H35963   5.750   6.539   2.154  0.7631  0.3245  1.0567
  261MOL0     H35964   5.780   6.656   2.280 -1.0011  0.1337  1.3005
  261MOL0     H35965   5.719   6.789   2.019 -0.4428  1.4518 -0.1309
  261MOL0     H35966   5.831   6.824   2.140 -2.3184  0.1310  1.5413
  261MOL0     H35967   5.813   6.569   1.849  1.8896  0.3976 -3.4365
  261MOL0     H35968   6.045   6.477   1.676  1.6726 -1.9636 -0.7280
  261MOL0     H35969   5.962   6.355   1.773 -1.7220  1.3403  0.2820
  261MOL0     H35970   6.184   6.326   1.919  0.2017 -2.0894 -0.2803
  261MOL0     H35971   6.174   6.256   1.763 -0.3979 -0.7076  2.0027
  261MOL0     H35972   6.264   6.484   1.686  1.8700 -2.7060 -3.6930
  261MOL0     H35973   6.325   6.488   1.859 -0.7159  2.3592 -1.0637
  261MOL0     H35974   6.517   6.397   1.737  1.0843 -1.4022 -1.3921
  261MOL0     H35975   6.444   6.273   1.842 -0.4023 -1.9098 -2.0730
  261MOL0     H35976   6.364   6.176   1.417 -0.9325 -2.6587  1.7749
  261MOL0     H35977   6.447   6.186   1.165 -0.7356 -1.8365 -2.2757
  261MOL0     H35978   6.498   6.014   1.186  0.4055 -0.8195  0.7858
  261MOL0     H35979   6.615   6.126   1.135  1.1243 -4.3439  1.3729
  261MOL0     H35980   7.029   5.875   1.256  1.1759 -0.7903  0.6748
  261MOL0     H35981   7.249   5.835   1.160 -1.7573 -0.3132 -1.5563
  261MOL0     H35982   7.515   6.170   1.037  1.5319  2.1978  1.2256
  261MOL0     H35983   7.582   6.132   1.197 -1.1265  1.9911  0.1624
  261MOL0     H35984   7.720   5.955   1.095  0.0227 -0.7278 -1.7466
  261MOL0     H35985   7.598   5.952   0.961 -0.6986  0.9108  0.6884
  261MOL0     H35986   7.673   6.171   0.883  1.2537 -0.1513 -1.3363
  261MOL0     H35987   7.806   6.058   0.887  0.9226 -0.3126  0.9899
  261MOL0     H35988   7.851   6.184   1.123  1.4886 -1.0531 -1.6236
  261MOL0     H35989   7.727   6.297   1.065  1.4760  1.2069  1.6876
  261MOL0     H35990   7.982   6.223   0.899  1.1733 -2.5889  5.0490
  261MOL0     H35991   7.851   6.352   0.879  2.2050  5.1123  1.1028
  261MOL0     H35992   8.082   6.337   1.067  0.8568 -0.1760 -1.5592
  261MOL0     H35993   7.944   6.448   1.095 -0.7896  0.3120 -0.6693
  261MOL0     H35994   8.137   6.435   0.852 -1.0889  1.1701 -0.9548
  261MOL0     H35995   8.144   6.542   0.988 -0.8655 -1.0484  2.3786
  261MOL0     H35996   7.897   6.633   0.885 -0.1979  1.6662 -0.1764
  261MOL0     H35997   7.932   6.524   0.756 -1.0005  1.8475 -1.5654
  261MOL0     H35998   7.349   6.246   1.175 -1.9443  2.0582 -0.3488
  261MOL0     H35999   7.130   6.307   1.277  0.3508  0.7258 -2.9572
  261MOL0     H36000   6.847   6.192   1.534 -1.0598  1.5012  1.7178
  261MOL0     H36001   6.678   6.252   1.699  0.6000  1.1357  0.8072
  261MOL0     H36002   5.223   6.145   1.970  0.3631  1.8047  1.8426
  261MOL0     H36003   5.098   5.940   1.896  1.4652  0.7064  0.3104
  261MOL0     H36004   4.905   5.742   1.709 -0.8206  0.7330  2.1907
  261MOL0     H36005   4.899   5.614   1.503 -1.5494 -0.2655 -3.5457
  261MOL0     H36006   4.562   5.388   1.443 -0.2482 -2.8482 -1.3343
  261MOL0     H36007   4.486   5.478   1.316 -1.3094 -0.8759  1.7632
  261MOL0     H36008   4.668   5.397   1.158  1.9713  2.2378  2.0057
  261MOL0     H36009   4.555   5.262   1.214 -0.0709 -0.7727  1.7484
  261MOL0     H36010   4.824   5.316   1.341 -3.0551  1.9837  0.1497
  261MOL0     H36011   4.721   5.188   1.374  1.1498 -3.1300 -1.1031
  261MOL0     H36012   4.816   5.201   1.083 -2.4534  2.6914  0.5468
  261MOL0     H36013   4.771   5.062   1.184 -0.7647  0.5057  1.7556
  261MOL0     H36014   5.162   5.119   1.320  0.9581  1.6607 -1.2738
  261MOL0     H36015   4.469   5.651   1.485  1.2113  0.8851 -0.8041
  261MOL0     H36016   4.418   5.920   1.708 -2.3778 -0.2444  1.9353
  261MOL0     H36017   4.341   5.777   1.662  0.3434  0.5813 -0.7543
  261MOL0     H36018   4.445   5.770   1.805  2.4250 -0.3247 -0.4863
  262MOL0     O36019   5.981   9.637   6.376  0.1069 -0.3704 -0.7783
  262MOL0     C36020   5.920   9.540   6.428  0.1260  0.5492 -0.3507
  262MOL0     O36021   5.935   9.499   6.560  0.6636  0.0050  0.7512
  262MOL0     C36022   6.033   9.563   6.634 -0.8859 -0.2047  0.2441
  262MOL0     C36023   6.005   9.615   6.758  0.0352 -0.2606  0.1414
  262MOL0     C36024   6.108   9.668   6.842  0.2115 -0.4140 -0.7436
  262MOL0     C36025   6.236   9.671   6.802 -0.1980 -0.5402 -0.1829
  262MOL0     O36026   6.329   9.733   6.884  0.4235  0.3038  0.2555
  262MOL0     C36027   6.464   9.734   6.840  0.3862  0.5330  0.5181
  262MOL0     C36028   6.536   9.809   6.953  0.2340 -0.1046 -0.2655
  262MOL0     C36029   6.679   9.773   6.938 -0.9187  0.6154  0.5200
  262MOL0     C36030   6.768   9.850   7.042  0.7532  0.0518 -0.1670
  262MOL0     C36031   6.920   9.847   7.003 -0.2911  0.5467 -0.1357
  262MOL0     C36032   7.019   9.918   7.100  0.8194  0.4945  0.3061
  262MOL0     C36033   7.154   9.936   7.034 -0.0207  0.0224 -0.3342
  262MOL0     C36034   7.247  10.005   7.133 -0.0961  0.1441 -0.1708
  262MOL0     N36035   7.365  10.037   7.056  0.9623 -0.4992  0.2380
  262MOL0     C36036   7.455   9.955   7.001 -0.3880 -0.4271  0.0388
  262MOL0     C36037   7.529  10.027   6.918 -0.5942 -0.0229  1.2201
  262MOL0     C36038   7.636   9.996   6.820  0.1190 -0.4589  0.1446
  262MOL0     C36039   7.770  10.032   6.874 -0.3174 -0.4092 -0.7033
  262MOL0     C36040   7.879   9.985   6.783  0.7435 -0.0211  0.4347
  262MOL0     C36041   8.007   9.971   6.853  0.2093  0.6184 -0.0310
  262MOL0     O36042   8.041  10.091   6.923 -0.2425 -0.4285  0.1780
  262MOL0     C36043   8.175  10.123   6.934  0.2687 -0.3152 -0.5669
  262MOL0     C36044   8.286  10.033   6.937 -0.1045 -0.0840 -0.4467
  262MOL0     C36045   8.417  10.084   6.935 -0.4994  0.0236  1.3391
  262MOL0     C36046   8.531   9.983   6.920 -0.2347  0.6104 -0.4395
  262MOL0     C36047   8.448  10.223   6.942  0.1455  0.4186  0.2507
  262MOL0     C36048   8.584  10.282   6.942 -0.0349 -0.8070  0.0660
  262MOL0     O36049   8.604  10.406   6.878 -0.3046 -0.4766  0.2478
  262MOL0     C36050   8.738  10.446   6.881  0.5996  0.1779 -0.4592
  262MOL0     C36051   8.767  10.562   6.953 -0.7468  0.2287  0.0774
  262MOL0     C36052   8.896  10.617   6.943 -0.6460  0.7580  0.6979
  262MOL0     C36053   8.995  10.553   6.856  0.0143  0.2648 -0.3842
  262MOL0     O36054   9.115  10.609   6.819 -0.3929  0.2510 -0.5235
  262MOL0     C36055   9.173  10.704   6.915 -0.2250 -0.3712 -0.7105
  262MOL0     C36056   9.309  10.751   6.859 -0.2250  0.4303 -0.6747
  262MOL0     C36057   9.365  10.882   6.919 -0.1197  0.3339 -0.4947
  262MOL0     C36058   9.516  10.875   6.936  0.4764  0.1283 -0.1550
  262MOL0     C36059   9.570  11.005   7.004  0.3478 -0.3321  0.1265
  262MOL0     C36060   9.721  10.986   7.020  0.1917  0.0322 -0.6604
  262MOL0     C36061   9.798  11.110   7.071  0.1346  0.0420 -0.2737
  262MOL0     C36062   9.887  11.075   7.194  0.7991  0.5837 -0.2960
  262MOL0    Cl36063  10.035  10.967   7.173  0.0481  0.1474 -0.0964
  262MOL0     C36064   8.957  10.435   6.783 -0.2234 -0.4122  0.4536
  262MOL0     C36065   8.829  10.386   6.801  0.6209  0.2809  0.0081
  262MOL0     O36066   8.667  10.220   6.999 -0.1156 -1.2067 -0.1745
  262MOL0     C36067   8.334  10.307   6.946 -0.0925  0.1550 -0.2069
  262MOL0     C36068   8.205  10.258   6.951 -0.6396  0.1212 -0.6073
  262MOL0     N36069   7.487  10.157   6.934 -0.5089 -0.1360  0.2638
  262MOL0     N36070   7.401  10.169   7.027 -0.0953 -0.0201 -0.5569
  262MOL0     C36071   6.261   9.628   6.669 -0.0853 -0.2153 -0.7284
  262MOL0     C36072   6.162   9.574   6.588  0.6376 -0.6721  0.3208
  262MOL0     C36073   5.807   9.466   6.359  0.1150  0.6378 -0.9443
  262MOL0     C36074   5.722   9.394   6.443 -0.5494  0.1799  0.7255
  262MOL0     C36075   5.617   9.319   6.385 -0.1594 -0.0399  0.0828
  262MOL0     C36076   5.586   9.328   6.250 -0.5556  0.2206  0.7805
  262MOL0     O36077   5.477   9.252   6.209  0.5974 -0.2574  0.9776
  262MOL0     C36078   5.448   9.249   6.072 -0.6322 -0.0478  0.0503
  262MOL0     C36079   5.325   9.167   6.047  0.1761 -0.7181  0.1930
  262MOL0     C36080   5.210   9.212   6.133  0.1696 -0.7195  0.3173
  262MOL0     C36081   5.189   9.125   6.252 -0.0724 -0.7446  0.5425
  262MOL0     C36082   5.125   8.997   6.214 -0.2939  0.0197  0.2736
  262MOL0     C36083   5.076   8.888   6.182  0.3182  0.1625 -0.8858
  262MOL0     C36084   5.670   9.406   6.165  0.1602  0.0554 -1.1264
  262MOL0     C36085   5.784   9.469   6.222 -0.3760 -0.6986 -0.3053
  262MOL0     C36086   5.861   9.566   6.137 -0.0164 -0.4067  0.6310
  262MOL0     H36087   5.900   9.610   6.785 -0.4092 -1.0426 -1.5826
  262MOL0     H36088   6.081   9.705   6.940  3.2973  1.9299 -0.6218
  262MOL0     H36089   6.484   9.793   6.751  0.9362 -0.5130 -0.0770
  262MOL0     H36090   6.502   9.632   6.833 -1.3031 -0.1195  0.3026
  262MOL0     H36091   6.518   9.916   6.944 -0.3729 -0.2354 -0.6498
  262MOL0     H36092   6.492   9.777   7.048 -1.0305 -3.4875 -1.8245
  262MOL0     H36093   6.697   9.669   6.966 -2.7750  0.7839  2.5632
  262MOL0     H36094   6.714   9.791   6.836 -0.9916  2.6070  0.8015
  262MOL0     H36095   6.730   9.951   7.061  0.0581 -0.0352 -0.9871
  262MOL0     H36096   6.750   9.801   7.138  0.9156  1.1233  0.4318
  262MOL0     H36097   6.942   9.893   6.906  5.6689  3.9244  2.2878
  262MOL0     H36098   6.948   9.742   6.997  0.7322  0.7675  0.5500
  262MOL0     H36099   6.971  10.016   7.112 -0.5556 -0.0900 -0.1720
  262MOL0     H36100   7.031   9.863   7.193  0.0810  0.9308  0.6667
  262MOL0     H36101   7.139   9.986   6.938 -1.1023  2.2252  0.9142
  262MOL0     H36102   7.196   9.836   7.016 -1.0316 -0.8670  1.8552
  262MOL0     H36103   7.213  10.102   7.168 -0.2985 -0.8140  2.4727
  262MOL0     H36104   7.272   9.938   7.216  1.4023 -0.8116 -1.3391
  262MOL0     H36105   7.458   9.848   7.020 -3.9995 -0.3411  1.9072
  262MOL0     H36106   7.617  10.037   6.720 -0.7937  1.6829  1.1231
  262MOL0     H36107   7.635   9.889   6.800 -0.2578 -0.4918  0.3266
  262MOL0     H36108   7.778  10.141   6.883  2.1254 -0.6348  1.0219
  262MOL0     H36109   7.775   9.993   6.976 -2.9136  2.0561  0.5003
  262MOL0     H36110   7.852   9.901   6.719  0.2104 -1.6565  2.7279
  262MOL0     H36111   7.890  10.063   6.706 -0.0444  1.4091  1.7127
  262MOL0     H36112   7.992   9.888   6.923  3.3122 -0.8455 -0.9148
  262MOL0     H36113   8.086   9.934   6.787  0.8703 -0.3411  1.2513
  262MOL0     H36114   8.281   9.925   6.922  2.5893 -0.2687 -0.5228
  262MOL0     H36115   8.579   9.954   7.014  1.3015 -0.5794 -1.5346
  262MOL0     H36116   8.614  10.014   6.855  0.6340 -2.6474 -1.0942
  262MOL0     H36117   8.497   9.885   6.885  6.0453 -1.9629 -0.8031
  262MOL0     H36118   8.700  10.604   7.027  1.1953 -1.5347  3.0440
  262MOL0     H36119   8.923  10.708   6.995 -0.0616  0.2293  1.3361
  262MOL0     H36120   9.106  10.790   6.925  0.8331  0.4426 -0.5013
  262MOL0     H36121   9.190  10.659   7.013  2.2503  2.1456  0.1415
  262MOL0     H36122   9.387  10.675   6.870 -0.1625  0.5530 -0.2569
  262MOL0     H36123   9.299  10.764   6.751 -0.7487  0.6462 -0.6011
  262MOL0     H36124   9.325  10.883   7.020  2.7110 -1.0347  0.7711
  262MOL0     H36125   9.338  10.966   6.854  0.9429 -0.2946 -1.8014
  262MOL0     H36126   9.568  10.865   6.841  1.4370  1.5060  0.1945
  262MOL0     H36127   9.543  10.786   6.994  0.2367 -0.3424 -0.7582
  262MOL0     H36128   9.540  11.088   6.940 -1.1373  1.5890  3.0963
  262MOL0     H36129   9.518  11.027   7.098  2.2854  1.6084  0.8130
  262MOL0     H36130   9.777  10.948   6.934 -0.0038  0.6289 -1.0520
  262MOL0     H36131   9.730  10.913   7.101 -1.2980  1.0806  0.5140
  262MOL0     H36132   9.716  11.177   7.097 -0.3721 -1.0485  1.0712
  262MOL0     H36133   9.866  11.148   6.994 -2.2252  0.2214 -2.3770
  262MOL0     H36134   9.824  11.028   7.270  0.6608  1.5782  0.2271
  262MOL0     H36135   9.918  11.167   7.245 -2.1072  0.5423  1.8228
  262MOL0     H36136   9.023  10.386   6.713 -1.0610  0.0206 -0.6788
  262MOL0     H36137   8.800  10.291   6.757  2.0135  0.7979 -2.1631
  262MOL0     H36138   8.338  10.414   6.965 -1.8168  0.7244 -2.6163
  262MOL0     H36139   8.118  10.323   6.956  0.6328  1.7773  1.0854
  262MOL0     H36140   6.366   9.633   6.639  0.6188  0.8337  1.6275
  262MOL0     H36141   6.177   9.531   6.490 -2.3165  0.0774 -0.5653
  262MOL0     H36142   5.737   9.391   6.550  0.9145 -0.4043  0.5187
  262MOL0     H36143   5.552   9.274   6.459 -0.7634  1.0508  0.2504
  262MOL0     H36144   5.431   9.350   6.036 -0.0329  0.4901  1.2232
  262MOL0     H36145   5.531   9.205   6.015  0.6850  2.8657 -0.4454
  262MOL0     H36146   5.354   9.062   6.063  2.2391 -0.0057  1.5658
  262MOL0     H36147   5.297   9.175   5.941 -1.4976  1.4611  0.7524
  262MOL0     H36148   5.224   9.316   6.165 -2.0191  0.5097 -2.3171
  262MOL0     H36149   5.119   9.226   6.075 -0.6108 -3.2369  0.8065
  262MOL0     H36150   5.110   9.169   6.314 -0.9499 -2.3842  0.6338
  262MOL0     H36151   5.282   9.107   6.307  0.3772 -1.3176 -0.3956
  262MOL0     H36152   5.011   8.807   6.158 -1.5919  1.1889  0.5489
  262MOL0     H36153   5.646   9.426   6.061  0.2273  4.1270 -0.5497
  262MOL0     H36154   5.835   9.557   6.031  1.0604  0.4116  0.2792
  262MOL0     H36155   5.830   9.667   6.166  0.4065 -0.4111  1.0885
  262MOL0     H36156   5.968   9.554   6.155 -0.4486 -1.3156  2.8979
  263MOL0     O36157   2.612   0.037   3.611  0.0937  0.3070  0.7201
  263MOL0     C36158   2.652   0.021   3.727 -0.1562 -0.5317 -0.6763
  263MOL0     O36159   2.770  -0.044   3.762  0.0811  0.5396 -0.9422
  263MOL0     C36160   2.855  -0.089   3.665 -0.0693  0.3837 -0.8573
  263MOL0     C36161   2.912  -0.006   3.569 -0.4662  0.7513 -0.7977
  263MOL0     C36162   3.016  -0.043   3.493  0.6116 -0.4342  0.1955
  263MOL0     C36163   3.064  -0.172   3.497 -0.3610 -0.1269 -0.5580
  263MOL0     O36164   3.174  -0.195   3.420 -0.2396  1.2837  0.2848
  263MOL0     C36165   3.263  -0.302   3.464  0.3841  0.1567 -0.0919
  263MOL0     C36166   3.384  -0.315   3.367  0.8902  0.0150 -0.0333
  263MOL0     C36167   3.480  -0.195   3.379  0.7398  0.1564 -0.5408
  263MOL0     C36168   3.585  -0.209   3.502  1.0693 -0.3037 -0.0922
  263MOL0     C36169   3.678  -0.323   3.465 -0.1906  0.0664  0.1099
  263MOL0     C36170   3.804  -0.327   3.561  0.8385 -0.2142 -0.6477
  263MOL0     C36171   3.908  -0.422   3.492 -0.5526  0.1615  0.2420
  263MOL0     C36172   4.033  -0.447   3.579 -0.2504  0.5150  0.6943
  263MOL0     N36173   4.111  -0.327   3.601 -0.0257 -0.7402  0.8780
  263MOL0     C36174   4.163  -0.249   3.501  0.4430 -0.3381 -0.1011
  263MOL0     C36175   4.253  -0.165   3.560  0.4394 -0.0506  0.8240
  263MOL0     C36176   4.360  -0.072   3.490  0.1615 -0.1103  0.4080
  263MOL0     C36177   4.494  -0.138   3.457  0.0147 -0.1212 -0.0102
  263MOL0     C36178   4.582  -0.189   3.576 -0.5296  0.4470  0.2927
  263MOL0     C36179   4.724  -0.241   3.535 -0.5822  0.5126  0.7832
  263MOL0     O36180   4.701  -0.362   3.463 -0.5565  0.0945  0.4276
  263MOL0     C36181   4.814  -0.427   3.435 -0.2984 -0.0690  0.8160
  263MOL0     C36182   4.883  -0.501   3.530  0.5706  0.0710 -0.0495
  263MOL0     C36183   5.004  -0.572   3.500  0.4147  0.9672  0.2634
  263MOL0     C36184   5.071  -0.657   3.603 -0.4513  0.1527 -0.1664
  263MOL0     C36185   5.046  -0.568   3.365 -0.1255  0.1496  0.6396
  263MOL0     C36186   5.170  -0.637   3.322 -0.2129 -0.1224 -0.5093
  263MOL0     O36187   5.162  -0.717   3.213  0.7612  0.3035 -0.0545
  263MOL0     C36188   5.264  -0.804   3.182 -0.2793 -1.0464  0.3292
  263MOL0     C36189   5.270  -0.930   3.249 -0.2934 -0.0630  0.6272
  263MOL0     C36190   5.387  -1.007   3.228 -0.3144 -0.5922 -0.3434
  263MOL0     C36191   5.489  -0.965   3.140 -1.3233 -0.0218 -0.1684
  263MOL0     O36192   5.601  -1.044   3.136 -0.4570  0.4324 -0.1923
  263MOL0     C36193   5.718  -1.001   3.069 -0.4047 -0.3936  0.3567
  263MOL0     C36194   5.848  -1.073   3.094 -0.4882  0.2462  0.2765
  263MOL0     C36195   5.959  -1.010   3.010 -0.1748  0.5944  0.3327
  263MOL0     C36196   6.086  -1.090   3.003 -0.7400  0.6582  0.5854
  263MOL0     C36197   6.207  -1.001   2.957  0.2613  0.6830 -0.4841
  263MOL0     C36198   6.318  -1.090   2.894  0.5080  1.1182 -0.3601
  263MOL0     C36199   6.420  -0.989   2.842 -0.5424 -0.6950  0.5676
  263MOL0     C36200   6.555  -1.055   2.822  0.3160  0.0285  0.5409
  263MOL0    Cl36201   6.622  -1.118   2.982  0.0044  0.1739 -0.3216
  263MOL0     C36202   5.477  -0.842   3.070  0.4499  0.4373 -0.5974
  263MOL0     C36203   5.366  -0.758   3.098 -0.3568  0.2264 -0.9133
  263MOL0     O36204   5.277  -0.602   3.375 -0.3819 -0.8992  0.5460
  263MOL0     C36205   4.975  -0.492   3.272 -0.8895 -0.7670 -0.1290
  263MOL0     C36206   4.862  -0.430   3.306  0.8576 -0.8061  0.1407
  263MOL0     N36207   4.241  -0.180   3.698  0.1815 -0.1402 -0.7069
  263MOL0     N36208   4.157  -0.280   3.721 -0.0116  0.0041  0.1666
  263MOL0     C36209   2.998  -0.267   3.584 -0.0387  0.3155 -0.6205
  263MOL0     C36210   2.893  -0.222   3.665 -0.3711 -0.5785  0.9486
  263MOL0     C36211   2.579   0.094   3.832  0.2471 -0.3616 -0.0592
  263MOL0     C36212   2.451   0.152   3.794 -0.7347  0.2063 -0.9267
  263MOL0     C36213   2.372   0.221   3.883 -0.2116  0.5655 -0.1553
  263MOL0     C36214   2.413   0.240   4.014  0.6232 -0.1798 -0.6398
  263MOL0     O36215   2.335   0.305   4.104 -0.0701  0.5376  0.0234
  263MOL0     C36216   2.386   0.449   4.109  0.3821  0.7763  0.4855
  263MOL0     C36217   2.370   0.499   4.256 -0.0744  0.0306 -0.8959
  263MOL0     C36218   2.223   0.489   4.314  0.9978  0.6477 -0.6184
  263MOL0     C36219   2.105   0.534   4.225  0.0559 -0.7516  0.2850
  263MOL0     C36220   1.987   0.550   4.312 -0.4176  0.1058 -0.2174
  263MOL0     C36221   1.876   0.575   4.360  0.0753 -0.2869  0.5628
  263MOL0     C36222   2.533   0.193   4.058 -0.2524  0.3557  0.7019
  263MOL0     C36223   2.620   0.120   3.970 -0.8721 -0.3058  1.1852
  263MOL0     C36224   2.762   0.088   4.018 -0.3898 -0.4846  0.4177
  263MOL0     H36225   2.880   0.098   3.564 -2.0391  0.2662 -1.6445
  263MOL0     H36226   3.059   0.030   3.425  2.5290 -0.7236  1.0217
  263MOL0     H36227   3.212  -0.398   3.457 -1.0222  0.9757 -4.5513
  263MOL0     H36228   3.300  -0.284   3.565  0.3945 -1.5732  0.2377
  263MOL0     H36229   3.433  -0.411   3.388  0.1319 -0.4065 -0.1700
  263MOL0     H36230   3.338  -0.311   3.268 -0.1799  2.3843  0.5007
  263MOL0     H36231   3.534  -0.186   3.285  1.1204  1.4206 -0.2242
  263MOL0     H36232   3.423  -0.102   3.392  1.9157  0.8917 -0.5517
  263MOL0     H36233   3.649  -0.121   3.492  1.3154 -0.5997 -1.2999
  263MOL0     H36234   3.548  -0.223   3.604  0.4455 -1.5702 -0.4693
  263MOL0     H36235   3.736  -0.290   3.379 -1.8815 -1.5319 -1.7490
  263MOL0     H36236   3.636  -0.424   3.464  2.2329 -1.0085 -0.0142
  263MOL0     H36237   3.849  -0.228   3.575  1.9093 -0.7541 -0.1987
  263MOL0     H36238   3.771  -0.360   3.660  1.8201  1.8448  0.4253
  263MOL0     H36239   3.941  -0.386   3.394  0.5740 -1.2482  0.0737
  263MOL0     H36240   3.860  -0.517   3.469  2.0203 -0.8349 -1.4338
  263MOL0     H36241   4.009  -0.487   3.678 -2.9166 -3.8038 -1.4085
  263MOL0     H36242   4.090  -0.532   3.539 -1.6660 -1.5618  2.8073
  263MOL0     H36243   4.147  -0.245   3.393 -0.4380  2.6429  0.0461
  263MOL0     H36244   4.377   0.008   3.563  0.6080  0.4210 -0.2667
  263MOL0     H36245   4.316  -0.031   3.399 -0.7384 -1.9509 -0.0150
  263MOL0     H36246   4.467  -0.224   3.395  3.5174 -0.5182 -1.1699
  263MOL0     H36247   4.541  -0.072   3.383 -1.5428  0.4056 -0.5820
  263MOL0     H36248   4.598  -0.100   3.637  0.4284 -0.5952  1.6227
  263MOL0     H36249   4.531  -0.265   3.636  3.1227 -1.1840  1.6568
  263MOL0     H36250   4.788  -0.171   3.481 -1.1050  2.6292  2.7497
  263MOL0     H36251   4.771  -0.254   3.633 -0.0988  0.7133  0.5756
  263MOL0     H36252   4.854  -0.504   3.634  2.9423  0.7316  0.7033
  263MOL0     H36253   5.021  -0.645   3.700  0.7099  2.4394  0.2187
  263MOL0     H36254   5.174  -0.620   3.606 -0.7790  1.0797  2.7424
  263MOL0     H36255   5.068  -0.763   3.577 -0.3106 -0.5399  2.3229
  263MOL0     H36256   5.191  -0.964   3.316 -1.9813 -0.5062 -1.4622
  263MOL0     H36257   5.397  -1.101   3.282 -2.1901  0.4987  2.1408
  263MOL0     H36258   5.692  -1.015   2.963 -2.2362  2.0644  0.3870
  263MOL0     H36259   5.745  -0.896   3.082  2.1694 -0.7695 -1.2291
  263MOL0     H36260   5.882  -1.064   3.198  0.1388 -1.8598  0.3029
  263MOL0     H36261   5.833  -1.176   3.060  0.0216 -0.2419  1.4645
  263MOL0     H36262   5.983  -0.914   3.056 -2.0431  0.5288  1.5631
  263MOL0     H36263   5.921  -0.997   2.909 -1.6102  0.8368  0.8721
  263MOL0     H36264   6.067  -1.168   2.928 -4.3185  1.6766  0.2092
  263MOL0     H36265   6.112  -1.126   3.103  0.9638  2.9549  1.0423
  263MOL0     H36266   6.161  -0.937   2.881 -0.7769 -1.3630 -1.6762
  263MOL0     H36267   6.247  -0.941   3.039 -2.7586  4.9346 -1.7766
  263MOL0     H36268   6.269  -1.149   2.817 -1.5107 -0.7275  2.1720
  263MOL0     H36269   6.359  -1.154   2.973  1.3538  1.5120 -0.4615
  263MOL0     H36270   6.436  -0.903   2.908  2.7278 -0.1193 -0.7636
  263MOL0     H36271   6.388  -0.959   2.742  0.9906 -1.3013 -0.1382
  263MOL0     H36272   6.627  -0.985   2.779 -0.9437  0.1667 -1.4610
  263MOL0     H36273   6.541  -1.138   2.752  0.2328 -0.1898  0.8145
  263MOL0     H36274   5.560  -0.811   3.007  0.1030 -0.2981 -1.4366
  263MOL0     H36275   5.362  -0.663   3.045 -0.3029  0.7842  0.0619
  263MOL0     H36276   5.007  -0.493   3.168 -2.8757  0.7111 -0.8154
  263MOL0     H36277   4.813  -0.378   3.225 -0.2131  0.2232  1.3916
  263MOL0     H36278   3.033  -0.370   3.590  0.0389  0.4264  1.9085
  263MOL0     H36279   2.833  -0.284   3.731 -2.6964 -1.2976 -1.6752
  263MOL0     H36280   2.426   0.140   3.689  1.8228 -1.0980 -1.4710
  263MOL0     H36281   2.286   0.277   3.847 -0.9179 -0.1911  0.3079
  263MOL0     H36282   2.492   0.450   4.083  0.2894  3.6758 -0.1085
  263MOL0     H36283   2.326   0.517   4.048 -1.0174  2.5684  3.6091
  263MOL0     H36284   2.405   0.602   4.261  0.0828 -0.0648  1.2164
  263MOL0     H36285   2.432   0.437   4.321  1.1289  0.9887 -1.1143
  263MOL0     H36286   2.193   0.391   4.350  1.8386  0.9172  0.9102
  263MOL0     H36287   2.219   0.543   4.409  1.3686 -1.6992  0.8013
  263MOL0     H36288   2.087   0.453   4.154 -0.3311 -1.1057  0.7818
  263MOL0     H36289   2.130   0.631   4.181 -2.3275  0.9840  2.4336
  263MOL0     H36290   1.777   0.601   4.390  0.7174  0.8916  1.7826
  263MOL0     H36291   2.547   0.207   4.165 -3.0728  1.9760  0.9599
  263MOL0     H36292   2.800  -0.012   3.996  1.6013  0.6599 -1.9322
  263MOL0     H36293   2.834   0.164   3.984  0.8006 -2.1240 -0.8684
  263MOL0     H36294   2.769   0.093   4.127 -2.2268 -2.3632  0.6727
  264MOL0     O36295  10.639   5.526   5.240  0.3127 -0.5413  0.3240
  264MOL0     C36296  10.633   5.642   5.284 -0.4036  0.2463  1.5004
  264MOL0     O36297  10.726   5.739   5.243 -0.4283 -0.0124 -0.5335
  264MOL0     C36298  10.847   5.704   5.174  0.9578  0.0034 -0.3900
  264MOL0     C36299  10.903   5.799   5.091 -0.3672  0.4410 -0.2417
  264MOL0     C36300  11.015   5.775   5.019 -0.4511 -0.0811 -0.7220
  264MOL0     C36301  11.081   5.649   5.030  0.2123 -0.1785  0.9583
  264MOL0     O36302  11.199   5.603   4.969 -0.3814 -0.1073 -0.3523
  264MOL0     C36303  11.244   5.693   4.862  0.0592 -0.4096 -1.0934
  264MOL0     C36304  11.317   5.620   4.754 -0.2460  0.4783  0.0591
  264MOL0     C36305  11.465   5.636   4.771 -0.9582 -0.0223  0.2250
  264MOL0     C36306  11.547   5.557   4.668 -0.4633  0.7060 -0.3776
  264MOL0     C36307  11.704   5.573   4.695  0.4917  0.6770  0.5230
  264MOL0     C36308  11.779   5.515   4.577  0.6069 -0.2862 -0.5120
  264MOL0     C36309  11.924   5.563   4.581 -0.5679 -0.2062 -0.5326
  264MOL0     C36310  12.006   5.505   4.458 -0.0273  0.8106  0.1500
  264MOL0     N36311  12.147   5.536   4.466 -0.1673 -1.1611 -0.2486
  264MOL0     C36312  12.218   5.578   4.577 -0.7254 -0.1057 -0.0564
  264MOL0     C36313  12.351   5.553   4.552 -0.5404  0.2159  0.7695
  264MOL0     C36314  12.465   5.563   4.639 -0.3683 -0.0376 -0.8413
  264MOL0     C36315  12.522   5.433   4.685 -0.1835 -0.1728 -0.1571
  264MOL0     C36316  12.648   5.469   4.757  0.0575  0.5630  0.6816
  264MOL0     C36317  12.775   5.475   4.665 -0.3926 -1.0079 -0.8529
  264MOL0     O36318  12.893   5.515   4.734  0.1713  0.4715 -0.6973
  264MOL0     C36319  12.958   5.614   4.670  0.6183 -0.0879  0.2625
  264MOL0     C36320  12.954   5.751   4.718  0.3475  0.6004  0.1346
  264MOL0     C36321  13.020   5.854   4.652 -0.7779  0.6217 -0.5290
  264MOL0     C36322  13.018   5.989   4.721  0.6466  0.0203  0.5334
  264MOL0     C36323  13.091   5.816   4.537  0.0276  0.2370  1.3487
  264MOL0     C36324  13.166   5.916   4.452 -0.3701 -0.4949  0.5979
  264MOL0     O36325  13.154   6.050   4.483 -0.4270 -0.1075 -0.7017
  264MOL0     C36326  13.229   6.147   4.423 -0.6666  0.4487 -0.0427
  264MOL0     C36327  13.350   6.185   4.473 -0.3755 -0.1437  0.2735
  264MOL0     C36328  13.428   6.282   4.403 -0.0963 -0.0005 -0.0342
  264MOL0     C36329  13.379   6.346   4.287 -0.1425  1.0718  0.5480
  264MOL0     O36330  13.472   6.420   4.221 -0.1471 -0.7280  0.9635
  264MOL0     C36331  13.424   6.526   4.143  0.0787  0.0715  0.1596
  264MOL0     C36332  13.543   6.597   4.076 -0.4980 -0.6963  0.3465
  264MOL0     C36333  13.626   6.667   4.193 -0.3257 -0.3027 -0.1561
  264MOL0     C36334  13.711   6.775   4.125  0.2359 -0.3031 -0.5825
  264MOL0     C36335  13.814   6.853   4.211  0.3299 -0.1018  0.1855
  264MOL0     C36336  13.864   6.988   4.142 -0.9002 -0.0478  0.1309
  264MOL0     C36337  13.962   7.062   4.237 -0.0685 -0.3295 -0.2935
  264MOL0     C36338  13.891   7.144   4.343 -0.1726  0.0369 -0.2167
  264MOL0    Cl36339  13.780   7.251   4.252 -0.1249 -0.2030  0.0012
  264MOL0     C36340  13.258   6.296   4.233 -0.1157  0.8452 -0.2183
  264MOL0     C36341  13.179   6.203   4.305 -0.1598 -0.1247 -0.2356
  264MOL0     O36342  13.230   5.873   4.355 -0.1507 -0.2472  0.4707
  264MOL0     C36343  13.105   5.675   4.499 -0.2285  0.2339  0.5197
  264MOL0     C36344  13.038   5.579   4.570  0.1980  0.1731  0.3230
  264MOL0     N36345  12.358   5.508   4.423  0.6821  0.3300  0.4582
  264MOL0     N36346  12.242   5.489   4.376 -0.3029  0.0879  0.9283
  264MOL0     C36347  11.030   5.559   5.121 -0.3265  1.0126  0.2163
  264MOL0     C36348  10.914   5.588   5.193 -0.8073 -0.1229  0.1509
  264MOL0     C36349  10.528   5.671   5.385 -0.7956 -0.7333 -0.4849
  264MOL0     C36350  10.544   5.801   5.448 -1.0175 -0.5338  0.5042
  264MOL0     C36351  10.469   5.836   5.558  0.0734 -0.3692 -0.0998
  264MOL0     C36352  10.374   5.745   5.612  0.6660  0.9757  0.2414
  264MOL0     O36353  10.289   5.766   5.722  0.3251 -0.2452  0.4418
  264MOL0     C36354  10.302   5.891   5.799  0.1079  0.0729 -0.4538
  264MOL0     C36355  10.175   5.924   5.872 -0.1357 -0.0111  0.1993
  264MOL0     C36356  10.181   6.064   5.914  0.2786 -0.0450 -0.3773
  264MOL0     C36357  10.258   6.086   6.053  0.0281 -0.1842  0.8056
  264MOL0     C36358  10.217   5.998   6.157  0.7734  0.8458  0.3222
  264MOL0     C36359  10.189   5.929   6.253  0.0388  0.1003 -0.0466
  264MOL0     C36360  10.362   5.616   5.548  0.2094  0.4118 -0.3636
  264MOL0     C36361  10.430   5.585   5.431  0.5793  0.3596 -0.3540
  264MOL0     C36362  10.397   5.451   5.376 -0.6377  1.1065 -0.9105
  264MOL0     H36363  10.864   5.901   5.082  0.2344  1.2164  3.9088
  264MOL0     H36364  11.046   5.861   4.961 -1.0268  2.0807  1.9878
  264MOL0     H36365  11.303   5.773   4.907 -0.8415 -1.6323  2.6741
  264MOL0     H36366  11.153   5.737   4.822  0.7022  2.9414  0.8072
  264MOL0     H36367  11.286   5.515   4.752 -1.2679  0.7796 -1.6077
  264MOL0     H36368  11.286   5.649   4.653 -0.7166 -2.3415 -0.7177
  264MOL0     H36369  11.490   5.742   4.778  2.7179 -0.6524 -0.8170
  264MOL0     H36370  11.491   5.599   4.870 -1.1416  0.4611  0.4548
  264MOL0     H36371  11.520   5.453   4.648  0.6420  0.2965  0.1666
  264MOL0     H36372  11.514   5.607   4.576 -0.9587  0.5261 -0.2994
  264MOL0     H36373  11.740   5.527   4.787 -1.6598 -1.0969  0.5746
  264MOL0     H36374  11.729   5.679   4.697 -2.1855  1.4320 -0.8363
  264MOL0     H36375  11.777   5.405   4.584 -0.7622 -0.1773  2.1230
  264MOL0     H36376  11.731   5.557   4.489 -3.0313  0.2623  1.5197
  264MOL0     H36377  11.967   5.541   4.679  1.7512 -0.2818 -1.4990
  264MOL0     H36378  11.931   5.672   4.575  0.1417 -0.2437 -0.4904
  264MOL0     H36379  11.999   5.396   4.456 -0.9144  0.8464  0.6200
  264MOL0     H36380  11.959   5.541   4.366 -1.0725  2.3043  1.2278
  264MOL0     H36381  12.183   5.608   4.675 -1.7139 -1.1746 -0.0615
  264MOL0     H36382  12.442   5.621   4.729  3.8794 -0.6821  0.9374
  264MOL0     H36383  12.541   5.625   4.590 -1.6988  0.6615 -2.1027
  264MOL0     H36384  12.455   5.387   4.758  1.3951 -2.0316  0.2180
  264MOL0     H36385  12.538   5.359   4.606  3.2128  0.3792 -0.1408
  264MOL0     H36386  12.633   5.562   4.813 -1.9519  1.1963 -0.7720
  264MOL0     H36387  12.677   5.390   4.827  1.5427  0.3475 -0.1414
  264MOL0     H36388  12.802   5.379   4.620  2.0983 -0.6087 -0.3634
  264MOL0     H36389  12.755   5.545   4.584  4.4290  2.9830  0.8786
  264MOL0     H36390  12.902   5.770   4.811 -1.1293  3.0445 -1.0981
  264MOL0     H36391  12.959   5.996   4.813  1.3573 -1.6563  1.1599
  264MOL0     H36392  12.971   6.057   4.650 -0.5214 -1.0603  0.2457
  264MOL0     H36393  13.120   6.017   4.748  0.9111 -2.3502  2.3695
  264MOL0     H36394  13.393   6.135   4.560  0.6144 -1.6518 -1.0222
  264MOL0     H36395  13.522   6.304   4.452  0.2884  0.3356 -0.9019
  264MOL0     H36396  13.368   6.487   4.058 -1.9823 -0.0891  1.5255
  264MOL0     H36397  13.360   6.599   4.193 -2.3917 -0.5902 -1.8054
  264MOL0     H36398  13.613   6.528   4.029 -0.7757 -0.3249 -0.6330
  264MOL0     H36399  13.503   6.662   3.998  0.7677  1.5230  1.4258
  264MOL0     H36400  13.690   6.597   4.247  0.2608 -0.4753 -1.0650
  264MOL0     H36401  13.562   6.714   4.269 -0.7599 -0.8895 -0.1503
  264MOL0     H36402  13.649   6.853   4.081  2.0551  0.6703 -1.5459
  264MOL0     H36403  13.760   6.733   4.036  1.2512 -1.5085  0.5066
  264MOL0     H36404  13.774   6.865   4.311 -0.0763 -4.5997  0.7714
  264MOL0     H36405  13.906   6.794   4.211  0.7140  0.4610  1.3395
  264MOL0     H36406  13.782   7.052   4.109  0.4594  2.6015  1.6059
  264MOL0     H36407  13.928   6.961   4.057 -0.0284 -0.2022  0.8208
  264MOL0     H36408  14.016   7.135   4.175  1.1094  0.5066  1.6269
  264MOL0     H36409  14.033   6.991   4.279 -0.2552 -1.3287 -1.6208
  264MOL0     H36410  13.967   7.194   4.403 -0.4014 -1.4683  1.4064
  264MOL0     H36411  13.822   7.084   4.404  0.3471 -1.3751 -0.9613
  264MOL0     H36412  13.228   6.334   4.136 -1.4908  2.1805  0.6820
  264MOL0     H36413  13.083   6.180   4.261 -1.1836  3.1345  0.0204
  264MOL0     H36414  13.162   5.644   4.412 -2.0053 -1.3801 -0.1474
  264MOL0     H36415  13.039   5.474   4.540  1.1558 -0.0542  1.0705
  264MOL0     H36416  11.086   5.467   5.137 -1.8655 -0.0094 -0.1049
  264MOL0     H36417  10.876   5.523   5.270  1.2038  0.5060  1.7801
  264MOL0     H36418  10.611   5.878   5.412 -2.9762  0.9706 -0.1262
  264MOL0     H36419  10.476   5.938   5.595 -0.7253  0.1728 -1.3743
  264MOL0     H36420  10.370   5.864   5.880  3.4198  2.1265 -2.2984
  264MOL0     H36421  10.337   5.975   5.738  2.4980 -1.1410 -0.9014
  264MOL0     H36422  10.152   5.857   5.955  2.0076 -1.8946 -0.5909
  264MOL0     H36423  10.102   5.921   5.791  2.8649 -0.0936 -2.7072
  264MOL0     H36424  10.209   6.136   5.837 -2.9063  1.7918  0.0062
  264MOL0     H36425  10.076   6.095   5.923 -0.8223 -2.4267 -3.2809
  264MOL0     H36426  10.232   6.184   6.094  1.7729 -0.0101  1.5737
  264MOL0     H36427  10.367   6.079   6.045  0.1965  0.4626  2.2095
  264MOL0     H36428  10.159   5.875   6.341 -2.1720  0.5905 -0.4286
  264MOL0     H36429  10.281   5.548   5.573 -2.1245  2.3247 -2.2187
  264MOL0     H36430  10.461   5.372   5.418 -1.6827 -1.0396 -3.0962
  264MOL0     H36431  10.292   5.420   5.386 -0.4382  0.1927 -1.5401
  264MOL0     H36432  10.401   5.462   5.268  0.9318 -2.3020 -1.3439
  265MOL0     O36433   2.343   5.813   0.075 -0.1508  0.5983  0.1767
  265MOL0     C36434   2.327   5.692   0.088 -0.1181 -0.0029 -0.5332
  265MOL0     O36435   2.427   5.600   0.103 -0.3377  0.4504  0.1890
  265MOL0     C36436   2.564   5.631   0.105  0.2192 -0.4449 -0.4005
  265MOL0     C36437   2.611   5.757   0.146 -0.4513  0.4827 -0.2790
  265MOL0     C36438   2.748   5.783   0.142  0.2959  1.2612 -0.0868
  265MOL0     C36439   2.843   5.688   0.097  0.2657 -0.6044 -0.0634
  265MOL0     O36440   2.978   5.714   0.106 -0.0102  0.4252  0.1753
  265MOL0     C36441   3.024   5.855   0.109  0.2202  0.4005  0.0878
  265MOL0     C36442   3.175   5.863   0.080  0.5678  0.4946  0.3937
  265MOL0     C36443   3.262   5.775   0.173  0.5493 -0.9498  0.8796
  265MOL0     C36444   3.408   5.802   0.127  0.3004  0.9566 -0.5550
  265MOL0     C36445   3.500   5.688   0.182 -0.0570 -0.1786  0.0075
  265MOL0     C36446   3.650   5.730   0.176 -0.1757 -0.8099 -0.0974
  265MOL0     C36447   3.706   5.711   0.033  1.0141 -0.3391  0.6005
  265MOL0     C36448   3.857   5.758   0.035  0.2089  0.3668  0.1261
  265MOL0     N36449   3.933   5.668   0.111 -0.6442  0.0380 -0.6460
  265MOL0     C36450   4.028   5.586   0.044 -0.7027 -0.9427 -1.1944
  265MOL0     C36451   4.109   5.541   0.146 -0.2818  0.2688  0.0197
  265MOL0     C36452   4.224   5.445   0.140 -0.4633 -0.5166 -0.1448
  265MOL0     C36453   4.177   5.321   0.213  0.3200 -0.5256 -0.0971
  265MOL0     C36454   4.306   5.238   0.256  0.4067  0.2122 -0.2104
  265MOL0     C36455   4.375   5.165   0.146 -0.0502 -0.0519  0.0863
  265MOL0     O36456   4.435   5.261   0.053 -0.3902 -0.2653  0.4344
  265MOL0     C36457   4.573   5.283   0.047 -0.0491  0.3330  0.2152
  265MOL0     C36458   4.623   5.411   0.062 -0.7839  0.6124 -0.7909
  265MOL0     C36459   4.762   5.440   0.054 -0.3439  1.1972  0.6802
  265MOL0     C36460   4.793   5.582   0.084 -0.0868 -0.2240 -0.6404
  265MOL0     C36461   4.852   5.335   0.013  0.3304 -0.3473 -0.1857
  265MOL0     C36462   4.991   5.365  -0.021  0.1685  0.0540  0.5294
  265MOL0     O36463   5.045   5.485  -0.005 -0.5347  0.2128 -0.6279
  265MOL0     C36464   5.184   5.497  -0.008  0.7062 -0.1395  0.2128
  265MOL0     C36465   5.230   5.621  -0.063 -0.1444  0.3121  0.1575
  265MOL0     C36466   5.369   5.651  -0.079 -0.2477  0.7547  0.4493
  265MOL0     C36467   5.470   5.555  -0.047  0.3646  0.4730  0.3588
  265MOL0     O36468   5.616   5.561  -0.062  0.4527  0.1632  0.3573
  265MOL0     C36469   5.672   5.685  -0.119  0.3471 -0.8308  0.4728
  265MOL0     C36470   5.680   5.786  -0.000 -0.0656 -0.5940  0.9648
  265MOL0     C36471   5.718   5.925  -0.052  0.6546  0.0433  0.0214
  265MOL0     C36472   5.743   6.029   0.063 -0.2977 -0.5333 -0.1093
  265MOL0     C36473   5.803   6.155  -0.009  0.6328 -0.5768  0.2750
  265MOL0     C36474   5.837   6.278   0.067  0.5150 -0.0833 -0.3312
  265MOL0     C36475   5.721   6.371   0.102  0.1960 -0.6225 -0.3686
  265MOL0     C36476   5.770   6.512   0.157 -0.2831  0.5023  0.2751
  265MOL0    Cl36477   5.844   6.497   0.319  0.2575  0.2836  0.2754
  265MOL0     C36478   5.425   5.431  -0.004  0.3381  0.9324  0.1016
  265MOL0     C36479   5.286   5.404   0.018  0.1561 -0.2594  0.4565
  265MOL0     O36480   5.046   5.269  -0.076 -0.3321  0.3500  0.0508
  265MOL0     C36481   4.791   5.207  -0.010 -0.2530  0.5894 -0.2935
  265MOL0     C36482   4.655   5.187   0.004  0.2327  0.2725  0.0457
  265MOL0     N36483   4.050   5.578   0.273 -0.2389  0.0542  0.6467
  265MOL0     N36484   3.959   5.665   0.246 -1.3267 -0.8561 -0.0851
  265MOL0     C36485   2.799   5.567   0.059 -0.6631  0.3305  0.1520
  265MOL0     C36486   2.659   5.537   0.064 -0.3106  0.8224 -0.5715
  265MOL0     C36487   2.188   5.637   0.083  1.0523 -0.6617 -0.0739
  265MOL0     C36488   2.175   5.501   0.109 -0.4744  1.1999  0.1841
  265MOL0     C36489   2.057   5.429   0.089 -0.2095 -0.2843  0.0290
  265MOL0     C36490   1.936   5.500   0.058 -0.5828 -0.1046 -0.1054
  265MOL0     O36491   1.826   5.424   0.057  0.6032  0.3338 -0.7414
  265MOL0     C36492   1.697   5.486   0.014  0.0371  0.3825  0.3540
  265MOL0     C36493   1.574   5.403   0.057  1.0279  0.4156 -0.2806
  265MOL0     C36494   1.431   5.463   0.025 -0.5228  0.4274  0.0157
  265MOL0     C36495   1.315   5.356   0.040 -0.6202  0.0329 -0.0839
  265MOL0     C36496   1.332   5.236  -0.049  0.1733 -0.0107 -0.3358
  265MOL0     C36497   1.359   5.141  -0.114 -0.2278  0.9900  0.7455
  265MOL0     C36498   1.944   5.642   0.045 -0.4757  0.7439  0.4935
  265MOL0     C36499   2.068   5.708   0.044  0.1687 -0.6381 -0.2851
  265MOL0     C36500   2.065   5.860   0.012 -0.0701  0.1554 -0.2864
  265MOL0     H36501   2.548   5.838   0.181  0.2544  0.6320  0.6750
  265MOL0     H36502   2.789   5.876   0.180  2.6654 -0.1736  1.1562
  265MOL0     H36503   3.004   5.903   0.205  2.0312  1.3373  0.0567
  265MOL0     H36504   2.963   5.903   0.032 -3.0358 -3.9520 -0.4157
  265MOL0     H36505   3.179   5.833  -0.024  0.4994  2.6287 -0.2833
  265MOL0     H36506   3.211   5.967   0.077  0.6832  0.4391 -0.1728
  265MOL0     H36507   3.253   5.811   0.276 -2.3702  1.9624 -0.2069
  265MOL0     H36508   3.227   5.671   0.168 -0.2429 -0.6637  0.1806
  265MOL0     H36509   3.416   5.799   0.018  0.6235 -0.4549 -0.5037
  265MOL0     H36510   3.440   5.900   0.165 -0.7672  1.1771 -0.1700
  265MOL0     H36511   3.481   5.598   0.122  0.8314 -0.0551 -0.4871
  265MOL0     H36512   3.482   5.672   0.288 -0.7191  2.5385  0.3807
  265MOL0     H36513   3.667   5.834   0.203 -0.2270 -0.7959 -0.1189
  265MOL0     H36514   3.698   5.668   0.252 -0.7071 -1.5115 -0.3164
  265MOL0     H36515   3.649   5.768  -0.041  0.8275 -0.6843  0.4793
  265MOL0     H36516   3.695   5.607   0.001  0.4047  0.2689 -1.2515
  265MOL0     H36517   3.892   5.751  -0.069  0.9694 -1.0513  0.4522
  265MOL0     H36518   3.872   5.861   0.067  3.7289 -0.6655  2.2441
  265MOL0     H36519   4.050   5.568  -0.061 -2.9892  1.2956 -2.1641
  265MOL0     H36520   4.302   5.492   0.201  0.7743 -0.3192 -1.8193
  265MOL0     H36521   4.256   5.431   0.037 -1.5064 -1.3074 -0.3792
  265MOL0     H36522   4.124   5.348   0.304  1.1565 -4.1991  1.6637
  265MOL0     H36523   4.112   5.259   0.151 -1.9385  1.2318  0.3724
  265MOL0     H36524   4.382   5.284   0.319  0.2356 -0.3299  0.4079
  265MOL0     H36525   4.271   5.154   0.317  0.6833 -2.5517 -3.5110
  265MOL0     H36526   4.451   5.095   0.180  0.0531 -0.1692 -0.3785
  265MOL0     H36527   4.302   5.105   0.092  0.1601 -2.6168  2.4286
  265MOL0     H36528   4.551   5.488   0.088 -1.6489 -0.5208  0.2916
  265MOL0     H36529   4.710   5.632   0.135  0.2101 -0.3296 -0.0488
  265MOL0     H36530   4.800   5.634  -0.012 -0.7434 -0.5450 -0.8678
  265MOL0     H36531   4.878   5.591   0.152 -0.6913  0.8274  0.0017
  265MOL0     H36532   5.160   5.698  -0.094  1.5394  1.1489 -1.8225
  265MOL0     H36533   5.386   5.744  -0.133 -0.5499  1.0105  0.7868
  265MOL0     H36534   5.772   5.651  -0.148  0.3643 -1.2773  1.0291
  265MOL0     H36535   5.619   5.728  -0.204 -0.3528  1.3086  1.8991
  265MOL0     H36536   5.585   5.789   0.054 -1.5833  0.4752 -1.5509
  265MOL0     H36537   5.754   5.750   0.072  0.4272 -0.2728  0.6220
  265MOL0     H36538   5.634   5.955  -0.115  0.9328  3.2864  0.9978
  265MOL0     H36539   5.809   5.921  -0.112  0.5427  3.2608 -0.5046
  265MOL0     H36540   5.817   5.993   0.135  1.1795 -1.3903 -1.9503
  265MOL0     H36541   5.647   6.049   0.112  1.2739  1.9558  2.2183
  265MOL0     H36542   5.893   6.127  -0.064  0.2865  0.1983 -0.7110
  265MOL0     H36543   5.737   6.184  -0.091  2.6300 -0.8535 -1.5193
  265MOL0     H36544   5.917   6.332   0.016 -0.8352  2.6363  0.2269
  265MOL0     H36545   5.879   6.244   0.162  0.7804 -3.0897 -1.4128
  265MOL0     H36546   5.653   6.323   0.173 -2.6960 -0.7478 -3.0043
  265MOL0     H36547   5.664   6.399   0.013  0.5904  0.4955 -0.2872
  265MOL0     H36548   5.686   6.578   0.180 -1.3842 -0.9776  0.6774
  265MOL0     H36549   5.837   6.548   0.078 -0.4070 -2.4719 -1.3212
  265MOL0     H36550   5.488   5.346   0.022 -1.0562  0.0886  0.8317
  265MOL0     H36551   5.258   5.302   0.040 -0.8889  0.0744  0.7005
  265MOL0     H36552   4.850   5.122  -0.043 -0.9214 -0.1341  0.3580
  265MOL0     H36553   4.603   5.095  -0.020  0.2986  0.8027 -2.4142
  265MOL0     H36554   2.875   5.491   0.046  0.7970  1.8203 -0.5216
  265MOL0     H36555   2.629   5.435   0.040 -1.0784 -0.0124  3.3222
  265MOL0     H36556   2.252   5.446   0.161 -0.8438  1.3876  0.9378
  265MOL0     H36557   2.050   5.326   0.119  0.3711  0.3049  2.3784
  265MOL0     H36558   1.686   5.585   0.057 -0.6477  1.0518 -1.2630
  265MOL0     H36559   1.691   5.493  -0.095  1.0133 -1.3604  0.1443
  265MOL0     H36560   1.583   5.389   0.165  1.6800 -1.6733 -0.5488
  265MOL0     H36561   1.589   5.308   0.004 -0.3069  0.2526 -0.3898
  265MOL0     H36562   1.418   5.550   0.091  0.1071 -1.5920  2.9812
  265MOL0     H36563   1.423   5.496  -0.079  1.1608 -0.4239 -0.4203
  265MOL0     H36564   1.214   5.398   0.035 -0.5275  0.4078  0.9913
  265MOL0     H36565   1.326   5.327   0.145 -1.9464  2.1794  0.7236
  265MOL0     H36566   1.373   5.068  -0.191  0.2325  1.6929  0.1481
  265MOL0     H36567   1.857   5.701   0.017 -0.9924 -0.2323 -0.0374
  265MOL0     H36568   1.964   5.897   0.032  0.3313  0.7353  0.7389
  265MOL0     H36569   2.139   5.916   0.071 -0.8193  1.7073 -0.7483
  265MOL0     H36570   2.083   5.880  -0.094 -3.2823  0.0274 -0.9600
  266MOL0     O36571   1.641   4.276   5.839 -0.0451 -0.4833 -0.3033
  266MOL0     C36572   1.576   4.229   5.739  1.2975 -0.4333 -0.2803
  266MOL0     O36573   1.619   4.221   5.608  0.2542  0.4000 -0.0801
  266MOL0     C36574   1.754   4.212   5.577 -0.0553 -0.3287  0.5104
  266MOL0     C36575   1.798   4.295   5.473 -0.2609  0.6331 -0.3674
  266MOL0     C36576   1.927   4.293   5.427 -0.9746  0.2317  0.7988
  266MOL0     C36577   2.024   4.219   5.494 -0.0307  0.0909  0.6824
  266MOL0     O36578   2.148   4.227   5.440  0.3411  0.1095  0.6124
  266MOL0     C36579   2.259   4.177   5.512  0.2613  0.5854 -0.9030
  266MOL0     C36580   2.391   4.171   5.430  0.1215 -0.2146  0.3168
  266MOL0     C36581   2.454   4.308   5.439 -0.4795  0.2355 -0.1970
  266MOL0     C36582   2.561   4.326   5.336 -0.1680  0.0621  0.6007
  266MOL0     C36583   2.599   4.470   5.295  0.1416  0.1253 -0.2921
  266MOL0     C36584   2.673   4.479   5.159  0.0099 -0.0879  0.0849
  266MOL0     C36585   2.809   4.412   5.170 -0.3736  0.0139 -0.4833
  266MOL0     C36586   2.915   4.481   5.085 -1.0768 -0.1724 -0.6252
  266MOL0     N36587   2.894   4.468   4.939  0.2702  0.2742 -0.6577
  266MOL0     C36588   2.829   4.566   4.867 -0.4425  0.2900  1.7104
  266MOL0     C36589   2.853   4.523   4.738 -0.3631 -0.0128 -1.0235
  266MOL0     C36590   2.839   4.594   4.604  0.9472  0.3966 -0.6956
  266MOL0     C36591   2.795   4.504   4.491  0.2779 -0.1199  0.8003
  266MOL0     C36592   2.779   4.576   4.355 -1.0667 -0.5607 -0.3024
  266MOL0     C36593   2.915   4.580   4.287  0.2275 -0.4468  0.0989
  266MOL0     O36594   2.983   4.447   4.276 -0.3718 -0.5782 -0.4151
  266MOL0     C36595   3.121   4.442   4.256 -0.4193  0.3446 -0.2828
  266MOL0     C36596   3.183   4.509   4.146 -1.0629 -0.8801  0.8667
  266MOL0     C36597   3.324   4.493   4.120 -0.6436  0.3117  0.0773
  266MOL0     C36598   3.370   4.552   3.989  0.4161 -0.2608  0.5720
  266MOL0     C36599   3.399   4.411   4.210  0.8497  0.0784  0.2714
  266MOL0     C36600   3.548   4.401   4.194 -0.6653 -0.0213  0.4690
  266MOL0     O36601   3.603   4.304   4.266  1.0515 -0.3803 -0.4245
  266MOL0     C36602   3.731   4.279   4.250 -0.7544  0.6157  0.9002
  266MOL0     C36603   3.800   4.259   4.126  0.1265  0.3409  0.4793
  266MOL0     C36604   3.937   4.240   4.117 -0.4022  0.0213 -0.2229
  266MOL0     C36605   4.012   4.233   4.233 -0.8193  0.2865  0.4418
  266MOL0     O36606   4.143   4.208   4.219 -0.2720 -0.6223  0.0837
  266MOL0     C36607   4.210   4.140   4.325 -0.0697  0.3729 -0.3835
  266MOL0     C36608   4.345   4.095   4.263 -0.6783 -0.0682  0.3188
  266MOL0     C36609   4.453   4.052   4.369 -0.0761 -0.0321  0.5439
  266MOL0     C36610   4.589   4.024   4.293 -0.4703  0.3407 -0.4820
  266MOL0     C36611   4.688   3.961   4.398  0.3052  0.4768  0.2099
  266MOL0     C36612   4.734   4.067   4.503  0.2224  0.3029 -0.1455
  266MOL0     C36613   4.838   4.005   4.604  0.4454 -0.5224  0.1153
  266MOL0     C36614   4.853   4.088   4.732  0.6337 -0.7149 -0.0018
  266MOL0    Cl36615   4.939   4.237   4.691  0.3007  0.4959 -0.2737
  266MOL0     C36616   3.938   4.223   4.348  0.0748  0.2691 -0.4650
  266MOL0     C36617   3.807   4.245   4.357  0.6278  0.2088  0.0705
  266MOL0     O36618   3.612   4.485   4.129  0.5955  0.5773 -0.0499
  266MOL0     C36619   3.332   4.340   4.315 -0.8932 -0.8236 -0.0104
  266MOL0     C36620   3.201   4.367   4.340 -0.0422  0.4304 -0.1952
  266MOL0     N36621   2.923   4.407   4.741 -0.0642  0.3729 -0.9094
  266MOL0     N36622   2.952   4.373   4.864 -0.0363  0.0434 -1.3772
  266MOL0     C36623   1.989   4.142   5.607  0.5990 -0.2793  0.5403
  266MOL0     C36624   1.854   4.138   5.644 -0.4894 -0.2172  0.0839
  266MOL0     C36625   1.451   4.157   5.776 -0.1251 -0.8989  0.8772
  266MOL0     C36626   1.436   4.024   5.741 -0.3931 -0.0758 -0.0112
  266MOL0     C36627   1.313   3.964   5.746  0.4614  0.6662 -0.3613
  266MOL0     C36628   1.210   4.024   5.816  0.4750 -0.8989  0.0050
  266MOL0     O36629   1.083   3.970   5.818 -0.0572 -1.0402 -0.3969
  266MOL0     C36630   1.061   3.827   5.806  0.1057 -0.2688  0.0937
  266MOL0     C36631   0.939   3.777   5.884  0.3584 -0.3219  0.1351
  266MOL0     C36632   0.810   3.764   5.791 -0.4213  0.0719  0.0941
  266MOL0     C36633   0.726   3.649   5.823 -0.6261 -0.1505  0.1651
  266MOL0     C36634   0.626   3.693   5.922  0.5025 -0.2876 -0.0742
  266MOL0     C36635   0.547   3.723   6.017 -0.0001  0.5433 -0.0403
  266MOL0     C36636   1.235   4.143   5.873  0.5930 -0.4943 -0.0481
  266MOL0     C36637   1.354   4.223   5.850 -0.0438  0.3816 -0.8193
  266MOL0     C36638   1.357   4.359   5.908 -0.1840  0.1139  0.1227
  266MOL0     H36639   1.729   4.362   5.423 -1.2589 -1.1811 -1.5413
  266MOL0     H36640   1.953   4.341   5.333 -2.4014 -0.4644  0.0166
  266MOL0     H36641   2.237   4.072   5.538 -2.2899  0.6405 -2.4298
  266MOL0     H36642   2.265   4.233   5.605  1.5446 -2.2657  0.8877
  266MOL0     H36643   2.459   4.088   5.451 -0.6114 -0.3871  2.1120
  266MOL0     H36644   2.359   4.152   5.326  1.7748  0.0967 -0.2712
  266MOL0     H36645   2.369   4.374   5.417 -1.1043 -0.8537 -1.1322
  266MOL0     H36646   2.491   4.328   5.540  1.0880 -0.8946 -0.5161
  266MOL0     H36647   2.650   4.274   5.374 -1.0656 -2.0371 -0.0157
  266MOL0     H36648   2.522   4.273   5.249  0.8298 -2.8789  1.7930
  266MOL0     H36649   2.660   4.517   5.373 -0.6156 -4.7356  3.6937
  266MOL0     H36650   2.501   4.517   5.285 -0.3970 -1.0096 -0.4503
  266MOL0     H36651   2.608   4.427   5.088  1.4636 -1.3857 -0.3392
  266MOL0     H36652   2.683   4.585   5.134 -0.5807 -0.3375 -1.3131
  266MOL0     H36653   2.808   4.309   5.132  2.4128 -0.3470  0.2309
  266MOL0     H36654   2.847   4.409   5.273 -0.7380 -1.9213 -0.3669
  266MOL0     H36655   2.934   4.586   5.113 -0.1655 -1.0432  2.4702
  266MOL0     H36656   3.003   4.419   5.105 -0.5104  0.3717 -1.3628
  266MOL0     H36657   2.783   4.660   4.895 -1.3853 -0.1662  1.7622
  266MOL0     H36658   2.935   4.643   4.585  3.4889 -3.1097  1.8784
  266MOL0     H36659   2.751   4.658   4.617  1.9061  1.4722  0.8855
  266MOL0     H36660   2.861   4.417   4.489 -0.4156 -0.6841  1.7644
  266MOL0     H36661   2.697   4.463   4.518 -0.3567  1.2159  0.6031
  266MOL0     H36662   2.712   4.525   4.285  0.1196 -1.2257 -0.9678
  266MOL0     H36663   2.742   4.678   4.368  0.5487 -0.2184  2.5609
  266MOL0     H36664   2.887   4.612   4.186  0.6490  1.2831  0.4892
  266MOL0     H36665   2.980   4.657   4.329  0.9174 -0.6865 -0.5056
  266MOL0     H36666   3.120   4.570   4.082 -1.4761 -0.6703  1.4620
  266MOL0     H36667   3.446   4.630   4.001  1.1574 -0.8716 -0.0468
  266MOL0     H36668   3.284   4.602   3.944 -0.3587 -0.8282  1.3890
  266MOL0     H36669   3.417   4.476   3.926 -0.3036 -0.0834 -0.2044
  266MOL0     H36670   3.749   4.266   4.031  0.6221 -0.3791  0.1571
  266MOL0     H36671   3.977   4.231   4.017 -0.8112  2.1228 -0.6071
  266MOL0     H36672   4.232   4.202   4.412 -1.5760 -1.4582  1.4055
  266MOL0     H36673   4.159   4.046   4.348  1.6582 -0.1902  1.3443
  266MOL0     H36674   4.322   4.008   4.199  1.6965 -2.0008  1.9111
  266MOL0     H36675   4.384   4.178   4.203 -0.9649 -0.1844 -0.0364
  266MOL0     H36676   4.417   3.970   4.431  0.7079 -0.2406  0.7265
  266MOL0     H36677   4.475   4.140   4.430 -0.2780 -0.1625  0.8037
  266MOL0     H36678   4.621   4.111   4.236 -0.8526  1.2918  0.7094
  266MOL0     H36679   4.561   3.958   4.210 -2.7772  0.6358 -0.0077
  266MOL0     H36680   4.644   3.873   4.445  0.9240 -0.5562 -1.0691
  266MOL0     H36681   4.779   3.931   4.344  0.4443  1.5687 -0.2030
  266MOL0     H36682   4.646   4.110   4.552  0.5309  1.7080 -0.7853
  266MOL0     H36683   4.788   4.142   4.445 -0.6313 -0.3248 -1.8324
  266MOL0     H36684   4.939   4.007   4.560 -0.9291  2.0302 -3.4291
  266MOL0     H36685   4.807   3.904   4.634 -2.0498  0.5792  1.5232
  266MOL0     H36686   4.901   4.037   4.817  0.6623 -0.6704  0.0093
  266MOL0     H36687   4.754   4.100   4.777  1.2698 -2.7625  2.1677
  266MOL0     H36688   4.002   4.204   4.434  1.5688 -2.7362 -2.0591
  266MOL0     H36689   3.757   4.239   4.453  2.0416 -2.5355  0.7320
  266MOL0     H36690   3.382   4.280   4.389  1.1724  2.4628  1.4979
  266MOL0     H36691   3.150   4.324   4.426 -1.4896  1.1335 -0.6698
  266MOL0     H36692   2.059   4.086   5.668 -1.5231 -1.1097  2.4006
  266MOL0     H36693   1.831   4.073   5.729  2.1249  0.5298  1.4580
  266MOL0     H36694   1.523   3.983   5.690  0.1059 -0.1144  0.8619
  266MOL0     H36695   1.302   3.878   5.681 -1.5786  2.9016 -3.2527
  266MOL0     H36696   1.081   3.785   5.708  3.1368 -1.4036  1.0626
  266MOL0     H36697   1.143   3.775   5.858  2.0116  1.3743 -1.0872
  266MOL0     H36698   0.920   3.834   5.975 -1.3349 -2.6184  1.3156
  266MOL0     H36699   0.964   3.674   5.913 -1.6754 -0.5307  1.3571
  266MOL0     H36700   0.758   3.859   5.774  1.9867  1.3128 -0.7613
  266MOL0     H36701   0.859   3.744   5.695 -0.3052  1.4001 -0.1356
  266MOL0     H36702   0.780   3.558   5.850 -0.5314 -1.0444 -2.7634
  266MOL0     H36703   0.668   3.621   5.735 -1.9743  1.6921  0.4037
  266MOL0     H36704   0.489   3.756   6.101 -3.4500  0.3940 -2.1897
  266MOL0     H36705   1.153   4.183   5.932 -0.2794 -1.4997 -0.5497
  266MOL0     H36706   1.282   4.379   5.986  0.8212 -0.4398  1.2610
  266MOL0     H36707   1.444   4.367   5.974  0.3998 -1.7979 -0.3443
  266MOL0     H36708   1.346   4.434   5.829  1.1285 -1.1491 -1.3176
  267MOL0     O36709   1.076   6.947  10.089 -0.2135 -0.4921  0.4470
  267MOL0     C36710   0.975   7.005  10.137  0.5194  0.2196  0.5623
  267MOL0     O36711   0.964   7.142  10.145  0.2427  0.0596  0.2324
  267MOL0     C36712   1.075   7.230  10.133  0.8115  0.5023  0.3856
  267MOL0     C36713   1.105   7.309  10.241 -0.0306 -0.3108  0.1873
  267MOL0     C36714   1.213   7.397  10.240  0.3867 -0.4784  0.0896
  267MOL0     C36715   1.290   7.409  10.119  0.3219  0.3234  0.6989
  267MOL0     O36716   1.402   7.482  10.135 -0.1786 -0.3021  0.4452
  267MOL0     C36717   1.464   7.526  10.012 -0.1571 -0.2419  0.0757
  267MOL0     C36718   1.593   7.605  10.037 -0.1380 -0.7203  0.9305
  267MOL0     C36719   1.635   7.686   9.920  0.4547  0.6432 -0.0582
  267MOL0     C36720   1.781   7.649   9.893 -0.7154  0.2335  0.6986
  267MOL0     C36721   1.840   7.758   9.804 -0.7316 -0.6432  0.1522
  267MOL0     C36722   1.981   7.723   9.759  0.3567  0.2684  0.4038
  267MOL0     C36723   2.058   7.844   9.713 -0.2219 -0.1473 -0.1833
  267MOL0     C36724   2.194   7.797   9.656  0.2668  0.2885  0.0825
  267MOL0     N36725   2.288   7.740   9.754 -0.7791 -0.4297  0.4473
  267MOL0     C36726   2.334   7.818   9.858  0.6043 -0.8152  0.4084
  267MOL0     C36727   2.399   7.739   9.942  0.2898 -0.1752  0.3377
  267MOL0     C36728   2.461   7.751  10.073 -0.8594  0.2535  0.4102
  267MOL0     C36729   2.367   7.775  10.191  0.6088 -0.2828  0.2857
  267MOL0     C36730   2.253   7.678  10.205 -0.9095  0.3956  0.0175
  267MOL0     C36731   2.311   7.536  10.242 -0.1358 -0.4271 -0.1096
  267MOL0     O36732   2.207   7.448  10.276  0.0194 -0.7421  1.0017
  267MOL0     C36733   2.118   7.415  10.177  0.0508 -0.2136 -0.3556
  267MOL0     C36734   2.149   7.405  10.039 -0.4657  0.7776  0.3752
  267MOL0     C36735   2.057   7.353   9.950  0.2600 -0.5791 -0.4320
  267MOL0     C36736   2.114   7.330   9.811  0.1470  0.1638 -0.0284
  267MOL0     C36737   1.928   7.314   9.996  0.9356 -0.0897 -0.2918
  267MOL0     C36738   1.820   7.254   9.905 -0.3686 -0.7575  0.6129
  267MOL0     O36739   1.716   7.198   9.968 -0.3444  0.6169 -0.3489
  267MOL0     C36740   1.622   7.116   9.909  0.3436  0.4238 -0.1741
  267MOL0     C36741   1.493   7.098   9.963  0.1627  0.0615 -0.1260
  267MOL0     C36742   1.409   7.006   9.899  1.6242  0.7675 -0.9267
  267MOL0     C36743   1.432   6.950   9.773 -0.6143  0.1514 -0.0341
  267MOL0     O36744   1.337   6.884   9.698 -0.8683  0.0951 -0.8088
  267MOL0     C36745   1.246   6.801   9.778  0.5649  0.3622 -0.4958
  267MOL0     C36746   1.187   6.716   9.669  0.6487 -0.5068 -0.5418
  267MOL0     C36747   1.248   6.577   9.665  0.1204 -0.1267 -0.0194
  267MOL0     C36748   1.404   6.567   9.640 -0.7697  0.8648 -0.5649
  267MOL0     C36749   1.459   6.417   9.663  0.0763  0.9451  0.6179
  267MOL0     C36750   1.610   6.411   9.704  0.5880 -0.3660 -0.2053
  267MOL0     C36751   1.686   6.465   9.575  1.6549  0.5173  0.1399
  267MOL0     C36752   1.825   6.424   9.603  0.0660 -0.8031 -0.2767
  267MOL0    Cl36753   1.862   6.242   9.577 -0.3218 -0.2179  0.0796
  267MOL0     C36754   1.563   6.963   9.719 -0.1857 -0.5140  0.6372
  267MOL0     C36755   1.656   7.042   9.788  0.9115  0.1297 -0.3339
  267MOL0     O36756   1.832   7.267   9.781 -0.2093 -0.5877 -0.0271
  267MOL0     C36757   1.900   7.329  10.132  0.1454  0.0006  0.2741
  267MOL0     C36758   1.989   7.389  10.228 -0.0831  0.5924 -0.7762
  267MOL0     N36759   2.391   7.613   9.885  0.2681 -0.2860  0.0052
  267MOL0     N36760   2.325   7.609   9.775 -0.1542 -0.0532  0.3272
  267MOL0     C36761   1.236   7.348  10.000 -0.3677  0.9769  0.4367
  267MOL0     C36762   1.138   7.248  10.011 -0.1327  0.1652  0.5457
  267MOL0     C36763   0.864   6.920  10.189 -0.0503 -0.4854  0.2713
  267MOL0     C36764   0.784   6.973  10.293 -0.3933  0.1794 -0.7644
  267MOL0     C36765   0.683   6.898  10.353  0.4991  0.5721  0.7717
  267MOL0     C36766   0.660   6.765  10.323 -1.1993  0.5353 -1.2312
  267MOL0     O36767   0.559   6.697  10.388 -0.7977 -0.2588 -0.6049
  267MOL0     C36768   0.440   6.712  10.316  0.3742  0.6035  0.0060
  267MOL0     C36769   0.360   6.590  10.374  0.5531  0.1791  0.2031
  267MOL0     C36770   0.427   6.445  10.371  0.5157  0.8864 -0.5591
  267MOL0     C36771   0.327   6.337  10.415  0.5990 -0.4195  0.3952
  267MOL0     C36772   0.389   6.207  10.388  0.2427 -0.0922 -0.4687
  267MOL0     C36773   0.424   6.095  10.363  0.8348  0.4745  0.1027
  267MOL0     C36774   0.740   6.714  10.220 -0.3913  0.4302  0.2132
  267MOL0     C36775   0.838   6.785  10.149  0.9053 -0.7308 -0.6726
  267MOL0     C36776   0.912   6.703  10.043  0.0440 -0.9353  0.4658
  267MOL0     H36777   1.054   7.303  10.337  1.6271  2.1203  1.3381
  267MOL0     H36778   1.249   7.451  10.327  2.0866 -0.3299 -0.6663
  267MOL0     H36779   1.391   7.596   9.971 -0.2602 -1.2525 -1.5180
  267MOL0     H36780   1.490   7.437   9.954 -0.5151 -0.2001 -0.1470
  267MOL0     H36781   1.581   7.676  10.119 -0.4592 -0.0181  0.2849
  267MOL0     H36782   1.671   7.531  10.055  1.3751  0.1980 -1.4629
  267MOL0     H36783   1.577   7.669   9.829  1.5377 -0.6671 -0.5451
  267MOL0     H36784   1.636   7.794   9.939 -0.0598  0.9552 -1.6792
  267MOL0     H36785   1.842   7.640   9.984  1.8382 -1.8341 -1.0694
  267MOL0     H36786   1.774   7.550   9.846 -1.4515 -0.9835  3.1986
  267MOL0     H36787   1.837   7.851   9.861  0.1042 -0.1047 -0.6495
  267MOL0     H36788   1.775   7.766   9.716 -1.2027 -1.7518  0.3762
  267MOL0     H36789   2.034   7.679   9.844  2.7710  0.1910 -1.0348
  267MOL0     H36790   1.970   7.646   9.682 -2.2145  1.3578 -0.4314
  267MOL0     H36791   2.069   7.905   9.803 -3.1453 -2.0711  1.6180
  267MOL0     H36792   2.009   7.903   9.634 -0.0278 -1.2968 -1.1936
  267MOL0     H36793   2.171   7.717   9.584 -0.7935  1.0781 -0.4740
  267MOL0     H36794   2.240   7.878   9.599 -0.9562  0.7142 -0.3267
  267MOL0     H36795   2.323   7.926   9.859 -1.1396 -0.8817 -2.3213
  267MOL0     H36796   2.532   7.834  10.067  0.5561 -0.9998 -2.6202
  267MOL0     H36797   2.517   7.659  10.096 -1.6106 -0.1321  0.7226
  267MOL0     H36798   2.428   7.775  10.281  1.3294  1.6335 -0.1603
  267MOL0     H36799   2.321   7.873  10.182 -1.9238 -1.3769  0.4073
  267MOL0     H36800   2.197   7.712  10.292  1.2521 -0.8613  1.9964
  267MOL0     H36801   2.198   7.686  10.110  1.7834  1.0360 -1.5942
  267MOL0     H36802   2.372   7.498  10.159 -1.8060 -2.5770 -0.4208
  267MOL0     H36803   2.373   7.544  10.332 -1.0842 -0.0397  0.5136
  267MOL0     H36804   2.246   7.423   9.992 -1.1716 -0.9300 -1.9265
  267MOL0     H36805   2.046   7.375   9.739  0.4790  1.5979  0.5275
  267MOL0     H36806   2.112   7.223   9.789 -1.4711 -0.0599  1.1070
  267MOL0     H36807   2.219   7.363   9.804  0.3023 -0.3108  0.0334
  267MOL0     H36808   1.462   7.159  10.047  0.1171  0.0214 -0.1144
  267MOL0     H36809   1.311   6.981   9.939  1.6267  1.7528 -0.2707
  267MOL0     H36810   1.293   6.738   9.854 -0.3381 -0.5840 -0.7038
  267MOL0     H36811   1.168   6.863   9.824  1.7116 -0.2374  2.4627
  267MOL0     H36812   1.084   6.702   9.701  0.6994  0.4471  0.0620
  267MOL0     H36813   1.183   6.762   9.570  0.0895 -1.5866 -1.0353
  267MOL0     H36814   1.185   6.534   9.586 -1.0813 -0.0334  0.8510
  267MOL0     H36815   1.221   6.540   9.764 -3.0016  0.3680 -0.5762
  267MOL0     H36816   1.447   6.625   9.722  1.5583 -1.8421  0.3239
  267MOL0     H36817   1.444   6.604   9.545 -1.8767  1.3669 -0.8538
  267MOL0     H36818   1.408   6.380   9.752 -0.5612  1.1571  0.3482
  267MOL0     H36819   1.432   6.353   9.579  1.8844  0.8233  0.0920
  267MOL0     H36820   1.644   6.312   9.733  0.4631 -0.8143 -1.5088
  267MOL0     H36821   1.634   6.464   9.797 -2.7052 -1.3301  1.3484
  267MOL0     H36822   1.684   6.574   9.572  3.3873  0.5509 -0.6179
  267MOL0     H36823   1.649   6.421   9.481 -0.5895  0.4698  0.9723
  267MOL0     H36824   1.850   6.451   9.707  2.1177  1.3644 -1.2248
  267MOL0     H36825   1.888   6.491   9.544 -1.2528 -0.5158 -1.3939
  267MOL0     H36826   1.592   6.926   9.622 -0.9594 -1.8593  0.8987
  267MOL0     H36827   1.752   7.057   9.739 -1.5492 -0.2329 -6.0406
  267MOL0     H36828   1.800   7.309  10.170 -1.6512  2.3082 -2.7837
  267MOL0     H36829   1.961   7.394  10.333  1.8065  1.0170 -0.2667
  267MOL0     H36830   1.279   7.348   9.901 -1.5330 -2.1459 -0.1874
  267MOL0     H36831   1.099   7.198   9.923 -0.9301  1.8950 -0.1443
  267MOL0     H36832   0.796   7.072  10.336 -2.5179 -0.0503  0.5605
  267MOL0     H36833   0.622   6.948  10.428  2.0780  1.1089  1.7456
  267MOL0     H36834   0.395   6.806  10.352 -2.3477 -0.7172  0.3292
  267MOL0     H36835   0.448   6.709  10.207 -0.1899 -1.0281 -0.0140
  267MOL0     H36836   0.266   6.589  10.319  1.5675  1.9051 -1.7168
  267MOL0     H36837   0.337   6.612  10.478 -0.4205 -0.6904  0.1871
  267MOL0     H36838   0.453   6.425  10.267  2.4546  1.9430 -0.3253
  267MOL0     H36839   0.520   6.435  10.428 -0.9039 -0.6372  1.6578
  267MOL0     H36840   0.228   6.340  10.368 -0.1635  0.4048  1.9696
  267MOL0     H36841   0.312   6.350  10.523 -1.4451 -0.8576  0.2003
  267MOL0     H36842   0.448   5.992  10.347  0.1343  0.4459 -0.8735
  267MOL0     H36843   0.724   6.610  10.193 -2.5978  1.2420 -2.0071
  267MOL0     H36844   1.017   6.679  10.062  0.0694 -1.0872  0.1402
  267MOL0     H36845   0.858   6.610  10.022 -1.0837 -0.0526 -0.6981
  267MOL0     H36846   0.903   6.753   9.946 -0.5742 -0.1874  0.9083
  268MOL0     O36847   3.056   6.506   1.197 -0.3805 -0.0803  0.3930
  268MOL0     C36848   2.996   6.450   1.108 -0.5149  0.9945  0.6145
  268MOL0     O36849   3.054   6.383   1.009 -0.1957 -0.0640 -0.1127
  268MOL0     C36850   3.190   6.381   1.006 -0.6906  0.8454  0.3206
  268MOL0     C36851   3.266   6.266   1.053 -0.0872 -0.2097 -0.8239
  268MOL0     C36852   3.404   6.260   1.056 -1.3217 -0.0404 -0.0143
  268MOL0     C36853   3.472   6.376   1.009  0.2608 -0.4503 -0.2508
  268MOL0     O36854   3.603   6.373   1.029 -0.4552 -0.0219 -0.4347
  268MOL0     C36855   3.683   6.489   0.990  0.2867  0.1425  0.1766
  268MOL0     C36856   3.816   6.489   1.069  0.2538 -0.2450 -0.1863
  268MOL0     C36857   3.906   6.376   1.018 -0.1777  0.0386 -0.0101
  268MOL0     C36858   4.051   6.373   1.080 -0.0757  0.4004 -0.0530
  268MOL0     C36859   4.138   6.262   1.016 -0.1824  0.1665  0.0669
  268MOL0     C36860   4.282   6.244   1.078  0.1767  0.1954 -0.5797
  268MOL0     C36861   4.352   6.384   1.097  0.0876  0.2387 -0.4271
  268MOL0     C36862   4.502   6.374   1.106  0.3000 -0.4717  0.2838
  268MOL0     N36863   4.560   6.249   1.178 -0.0895 -0.3273 -0.1434
  268MOL0     C36864   4.578   6.250   1.312 -0.5782  0.0541 -0.6138
  268MOL0     C36865   4.640   6.136   1.348  0.6618 -0.1192  0.4175
  268MOL0     C36866   4.695   6.097   1.481  0.5066  0.9403 -0.2379
  268MOL0     C36867   4.841   6.148   1.524  0.2933 -0.5834  0.4037
  268MOL0     C36868   4.835   6.294   1.571 -0.3759 -1.3833  0.0920
  268MOL0     C36869   4.970   6.335   1.631 -0.8701 -0.1686  0.6740
  268MOL0     O36870   5.024   6.458   1.583  0.0566  0.0402 -0.2494
  268MOL0     C36871   5.161   6.476   1.593 -0.1865 -0.0782  0.3497
  268MOL0     C36872   5.246   6.423   1.686 -0.2289  0.2410 -0.3200
  268MOL0     C36873   5.383   6.463   1.691 -0.7336 -0.8008 -0.5370
  268MOL0     C36874   5.471   6.388   1.790 -0.1348 -0.4211 -0.0905
  268MOL0     C36875   5.439   6.547   1.597  0.2203 -1.2409 -0.6965
  268MOL0     C36876   5.578   6.588   1.593  0.2273 -0.4819  0.3795
  268MOL0     O36877   5.631   6.586   1.468 -0.3154 -0.3610  0.1706
  268MOL0     C36878   5.762   6.619   1.438  0.1572 -0.0737 -0.2986
  268MOL0     C36879   5.866   6.530   1.442 -0.0883 -0.0505 -0.1507
  268MOL0     C36880   5.998   6.571   1.401  0.9070  0.3978 -0.8825
  268MOL0     C36881   6.019   6.703   1.370 -0.3924 -0.3074 -0.8602
  268MOL0     O36882   6.149   6.747   1.372 -0.3292 -0.3851  0.0473
  268MOL0     C36883   6.169   6.882   1.321 -1.2783  0.4288  0.2752
  268MOL0     C36884   6.324   6.912   1.330  0.2970 -0.4990 -0.5812
  268MOL0     C36885   6.362   7.045   1.262 -0.1497 -0.0252 -0.5176
  268MOL0     C36886   6.510   7.078   1.281 -0.6566 -0.6193 -0.2748
  268MOL0     C36887   6.584   7.182   1.192  0.2430  0.0783 -0.4380
  268MOL0     C36888   6.499   7.306   1.188 -0.1030 -0.1735 -0.0022
  268MOL0     C36889   6.559   7.427   1.110  0.1593  0.8003  0.1977
  268MOL0     C36890   6.575   7.398   0.967  0.4294 -0.4332  0.0666
  268MOL0    Cl36891   6.397   7.381   0.902  0.1341 -0.0413 -0.1638
  268MOL0     C36892   5.911   6.789   1.354  0.1778  0.1128 -0.3013
  268MOL0     C36893   5.785   6.749   1.394 -0.0633 -0.7060 -0.4286
  268MOL0     O36894   5.638   6.631   1.685  0.0659 -0.8075 -0.2354
  268MOL0     C36895   5.345   6.599   1.502 -0.4410  0.2739  0.7876
  268MOL0     C36896   5.210   6.567   1.499 -0.5711 -0.0806  0.4835
  268MOL0     N36897   4.669   6.065   1.231  0.3036 -0.9562 -0.6850
  268MOL0     N36898   4.607   6.133   1.135 -0.9960 -0.2298  0.4213
  268MOL0     C36899   3.401   6.480   0.949  0.5403  0.1083 -0.1625
  268MOL0     C36900   3.259   6.486   0.954 -0.0762  0.0685  0.1937
  268MOL0     C36901   2.851   6.451   1.114  1.1991  0.3133  0.2938
  268MOL0     C36902   2.777   6.464   0.990  0.6382 -0.5535 -0.3501
  268MOL0     C36903   2.642   6.479   0.986 -0.3909 -0.1900  0.5200
  268MOL0     C36904   2.566   6.492   1.106 -0.4436  0.7852  0.0330
  268MOL0     O36905   2.439   6.518   1.096  0.6024  0.2533  0.0189
  268MOL0     C36906   2.362   6.507   1.215 -0.0126  0.9165 -0.3607
  268MOL0     C36907   2.217   6.528   1.196  0.4099 -0.2754  0.3732
  268MOL0     C36908   2.165   6.452   1.071  0.0068 -0.4120 -0.9627
  268MOL0     C36909   2.200   6.304   1.046  0.0725 -0.4442  0.0982
  268MOL0     C36910   2.102   6.222   1.116 -0.1917 -0.4061  0.2460
  268MOL0     C36911   2.012   6.152   1.165 -0.0654  0.3098  0.6433
  268MOL0     C36912   2.641   6.469   1.225  0.7879 -0.7379 -0.0620
  268MOL0     C36913   2.774   6.435   1.232 -0.3509  0.1096  0.8042
  268MOL0     C36914   2.829   6.409   1.368  0.4849 -0.2170  1.2333
  268MOL0     H36915   3.214   6.183   1.100  1.6307 -0.3017  1.0850
  268MOL0     H36916   3.453   6.178   1.107  0.1339  2.2482  2.5495
  268MOL0     H36917   3.630   6.585   0.990  1.0824  0.5922 -0.3208
  268MOL0     H36918   3.713   6.478   0.886  1.6241 -2.5538  0.7508
  268MOL0     H36919   3.876   6.579   1.054  0.9360 -0.5110  0.8411
  268MOL0     H36920   3.807   6.480   1.178  2.0109  0.8689  0.0893
  268MOL0     H36921   3.852   6.285   1.045  0.6723 -0.2123  0.9066
  268MOL0     H36922   3.907   6.383   0.908  1.2647 -1.4876 -0.1494
  268MOL0     H36923   4.103   6.467   1.060  1.9098 -0.4423  0.8393
  268MOL0     H36924   4.059   6.363   1.189 -2.5580  0.0102  0.1321
  268MOL0     H36925   4.152   6.304   0.916  1.9590  1.2657  0.7678
  268MOL0     H36926   4.080   6.170   1.023 -0.6631  0.4079 -0.6986
  268MOL0     H36927   4.270   6.195   1.175 -0.3006  1.3708 -0.0207
  268MOL0     H36928   4.347   6.183   1.015 -0.3303  1.1633 -2.1054
  268MOL0     H36929   4.310   6.442   1.181  0.7429 -1.2942  1.0249
  268MOL0     H36930   4.340   6.441   1.004  0.8748 -0.4569 -0.9589
  268MOL0     H36931   4.537   6.377   1.002 -1.6585  1.3817 -0.4115
  268MOL0     H36932   4.533   6.471   1.144 -0.5085 -0.2862  0.4926
  268MOL0     H36933   4.562   6.341   1.369 -0.8732 -1.1689  1.3829
  268MOL0     H36934   4.698   5.989   1.464  2.7098  1.4119 -3.8124
  268MOL0     H36935   4.627   6.119   1.563 -0.9858 -0.4517 -1.0400
  268MOL0     H36936   4.859   6.091   1.615  1.1442 -0.1749  0.5012
  268MOL0     H36937   4.917   6.131   1.446  1.5828 -2.0354  1.8943
  268MOL0     H36938   4.806   6.359   1.489  1.7645 -1.9682 -1.1937
  268MOL0     H36939   4.767   6.305   1.656 -1.1172 -2.7013 -0.2996
  268MOL0     H36940   4.949   6.352   1.737  1.1549  1.4925  0.8576
  268MOL0     H36941   5.043   6.254   1.623  0.3673  1.0569 -1.1736
  268MOL0     H36942   5.206   6.350   1.756  1.7885  0.3736  1.0358
  268MOL0     H36943   5.432   6.286   1.801  2.4767 -1.6911 -1.4479
  268MOL0     H36944   5.474   6.443   1.884 -0.0250  1.5827 -1.2145
  268MOL0     H36945   5.578   6.383   1.765  0.7009  2.2128  2.4026
  268MOL0     H36946   5.848   6.430   1.478  0.0760  0.3770  1.1555
  268MOL0     H36947   6.079   6.500   1.410  1.0744  0.6116 -0.7044
  268MOL0     H36948   6.131   6.885   1.218  0.5388  4.0561 -0.4496
  268MOL0     H36949   6.121   6.950   1.391 -2.4764 -1.1813  1.1002
  268MOL0     H36950   6.366   6.915   1.431  0.6635  0.6978 -0.7569
  268MOL0     H36951   6.381   6.828   1.290  1.6138  0.6292 -1.1185
  268MOL0     H36952   6.303   7.134   1.285 -0.5008 -0.1326 -0.9814
  268MOL0     H36953   6.368   7.023   1.155  2.7401 -2.9599  0.0680
  268MOL0     H36954   6.559   6.981   1.273 -1.2687 -0.8795 -0.9696
  268MOL0     H36955   6.525   7.103   1.387  0.9528  0.0030 -0.6201
  268MOL0     H36956   6.678   7.211   1.241  1.0171  0.4246 -2.0436
  268MOL0     H36957   6.604   7.138   1.094  1.3220 -1.4689  0.4426
  268MOL0     H36958   6.495   7.336   1.293 -1.3979  2.0393 -0.6100
  268MOL0     H36959   6.400   7.279   1.150  0.7731 -2.8286 -0.5934
  268MOL0     H36960   6.658   7.449   1.152  1.3423 -0.8165 -1.6043
  268MOL0     H36961   6.499   7.518   1.120 -0.6175  0.6949 -2.7753
  268MOL0     H36962   6.627   7.305   0.944 -1.3247 -0.7737 -3.0192
  268MOL0     H36963   6.631   7.476   0.914  1.0256 -0.2568  0.9298
  268MOL0     H36964   5.926   6.891   1.322  2.5895 -0.4205 -1.1400
  268MOL0     H36965   5.705   6.822   1.386 -0.8291 -0.8920  3.4728
  268MOL0     H36966   5.381   6.671   1.429  0.7862  1.7867  2.7555
  268MOL0     H36967   5.148   6.601   1.417  0.4413  0.8020  0.0664
  268MOL0     H36968   3.450   6.568   0.908 -0.9776  1.4094  0.7026
  268MOL0     H36969   3.202   6.560   0.899 -0.0635  0.5304  0.7828
  268MOL0     H36970   2.833   6.466   0.897  0.9716  0.1724 -0.1427
  268MOL0     H36971   2.602   6.489   0.886  0.3900 -3.6086 -0.2539
  268MOL0     H36972   2.380   6.406   1.253 -0.8659  0.8722 -0.0583
  268MOL0     H36973   2.393   6.580   1.290 -0.5785 -0.8911  1.7363
  268MOL0     H36974   2.200   6.636   1.183 -1.8777 -0.3891  1.7628
  268MOL0     H36975   2.159   6.512   1.287  0.3732  2.0416  0.8411
  268MOL0     H36976   2.058   6.477   1.068  0.4560  2.7746  2.1784
  268MOL0     H36977   2.205   6.505   0.985  0.3934 -0.5773 -0.8867
  268MOL0     H36978   2.297   6.268   1.081  0.9228 -0.7197 -2.3710
  268MOL0     H36979   2.201   6.287   0.938  2.1033 -0.5675  0.0919
  268MOL0     H36980   1.934   6.091   1.205 -1.1510 -0.0023 -1.8251
  268MOL0     H36981   2.596   6.477   1.323 -0.5903 -2.4556 -0.5090
  268MOL0     H36982   2.789   6.491   1.429 -3.4353  1.6232 -3.0972
  268MOL0     H36983   2.789   6.311   1.397  1.1642 -2.0788 -3.2700
  268MOL0     H36984   2.938   6.407   1.376  0.5559 -2.4652  0.4035
  269MOL0     O36985   1.847   4.374   2.838 -0.2320  0.4525 -0.3926
  269MOL0     C36986   1.842   4.258   2.869  0.2203  0.1463  0.2772
  269MOL0     O36987   1.950   4.180   2.906 -0.1988  0.5872 -0.1771
  269MOL0     C36988   2.080   4.223   2.876  0.0899 -0.0585 -0.7922
  269MOL0     C36989   2.173   4.240   2.978  0.4677  0.2735 -0.3033
  269MOL0     C36990   2.301   4.287   2.957  0.6480  0.0606  0.0651
  269MOL0     C36991   2.337   4.332   2.833  0.5094  0.5813  0.4832
  269MOL0     O36992   2.467   4.384   2.827  0.3199  0.5593 -0.1181
  269MOL0     C36993   2.526   4.423   2.707 -0.8452  0.6891  0.8060
  269MOL0     C36994   2.669   4.466   2.730  0.1168  0.0115 -0.2260
  269MOL0     C36995   2.729   4.534   2.611 -0.3316 -0.1378 -0.0521
  269MOL0     C36996   2.871   4.558   2.646  0.4076  0.0791 -0.4407
  269MOL0     C36997   2.959   4.594   2.527  0.4270 -0.8146  0.8870
  269MOL0     C36998   3.099   4.541   2.558 -0.2372 -0.0787 -0.2500
  269MOL0     C36999   3.202   4.573   2.441  0.1581  0.0078  0.0584
  269MOL0     C37000   3.215   4.724   2.384 -0.2754 -0.4970  0.1786
  269MOL0     N37001   3.258   4.821   2.484 -0.2854 -0.5471 -0.0439
  269MOL0     C37002   3.380   4.880   2.501 -1.0018  0.0311  0.1776
  269MOL0     C37003   3.377   4.957   2.613 -0.1250 -0.1302  0.3699
  269MOL0     C37004   3.483   5.040   2.672 -0.0466 -0.1447 -0.1354
  269MOL0     C37005   3.595   4.953   2.742 -0.4099 -0.5778 -0.9610
  269MOL0     C37006   3.714   5.048   2.780 -0.6683 -0.5074  0.3007
  269MOL0     C37007   3.672   5.129   2.910 -0.5260 -0.8020  0.8354
  269MOL0     O37008   3.763   5.246   2.917 -0.1614  0.3195 -0.1174
  269MOL0     C37009   3.898   5.210   2.934  0.2724  0.7171  0.0081
  269MOL0     C37010   3.996   5.302   2.879  0.4379  1.0943 -0.3147
  269MOL0     C37011   4.135   5.272   2.877 -0.1495  0.1438 -0.7789
  269MOL0     C37012   4.222   5.369   2.808 -0.6263  0.4428  0.1355
  269MOL0     C37013   4.178   5.153   2.945 -1.5405 -0.2554  0.4413
  269MOL0     C37014   4.322   5.131   2.974  0.0826  0.6815  0.2277
  269MOL0     O37015   4.368   5.005   2.969  0.5910  0.2240 -0.7833
  269MOL0     C37016   4.498   4.974   3.008  0.2842  0.0395 -1.2266
  269MOL0     C37017   4.609   4.950   2.923 -0.4052 -0.0967  0.3851
  269MOL0     C37018   4.740   4.918   2.982 -1.4285  1.1445 -0.3894
  269MOL0     C37019   4.762   4.912   3.121 -0.3276 -0.8628  0.2236
  269MOL0     O37020   4.878   4.879   3.186 -0.0254 -0.6126  0.7730
  269MOL0     C37021   4.986   4.835   3.108 -0.1142 -0.2023 -0.0179
  269MOL0     C37022   5.093   4.766   3.196  0.1626 -0.1121  0.2912
  269MOL0     C37023   5.236   4.798   3.188 -0.3914  0.6329  0.1636
  269MOL0     C37024   5.269   4.946   3.187 -0.1630 -0.2332 -0.4851
  269MOL0     C37025   5.421   4.972   3.214 -0.1708 -0.5982  0.4134
  269MOL0     C37026   5.491   4.910   3.333  0.4242  0.1971  0.0371
  269MOL0     C37027   5.631   4.975   3.343  0.8444  0.8725 -0.0774
  269MOL0     C37028   5.730   4.910   3.256 -0.4643 -0.1750 -0.6499
  269MOL0    Cl37029   5.879   5.003   3.258  0.4334 -0.0032 -0.6492
  269MOL0     C37030   4.658   4.952   3.199 -0.1641  0.0276  0.8086
  269MOL0     C37031   4.528   4.974   3.149  0.7595  0.1324 -0.1631
  269MOL0     O37032   4.399   5.222   2.988 -0.2385  0.1539  0.4606
  269MOL0     C37033   4.089   5.058   2.989 -0.2653  0.2171  1.0682
  269MOL0     C37034   3.948   5.084   2.981  0.3522  0.3180  0.6881
  269MOL0     N37035   3.253   4.948   2.663 -0.0418  0.6736  0.7663
  269MOL0     N37036   3.185   4.867   2.590  0.6644  0.6982  0.1846
  269MOL0     C37037   2.251   4.311   2.727  0.2814 -0.5196  0.1907
  269MOL0     C37038   2.121   4.267   2.753  0.9138 -0.3459 -0.1139
  269MOL0     C37039   1.702   4.203   2.873  0.1252  0.1700 -0.0081
  269MOL0     C37040   1.615   4.236   2.763 -0.4116  0.2434 -0.9253
  269MOL0     C37041   1.485   4.178   2.761 -0.2947 -0.1513 -0.4161
  269MOL0     C37042   1.440   4.084   2.851 -0.6246  0.4487 -0.5277
  269MOL0     O37043   1.314   4.029   2.832  0.3243  0.3880  0.3796
  269MOL0     C37044   1.260   3.941   2.930 -1.2996 -0.5076 -0.5990
  269MOL0     C37045   1.113   3.921   2.893 -0.2411  0.0079  1.0421
  269MOL0     C37046   1.107   3.836   2.764  0.0749  0.1679  0.6064
  269MOL0     C37047   0.964   3.812   2.714  0.9810 -0.2636 -0.9719
  269MOL0     C37048   0.881   3.746   2.816  0.0841 -0.0895  0.0096
  269MOL0     C37049   0.824   3.675   2.900  0.7281 -0.3875  0.3077
  269MOL0     C37050   1.537   4.042   2.944 -0.1393  0.8091 -0.4530
  269MOL0     C37051   1.666   4.100   2.962  0.9207  0.1576 -0.3033
  269MOL0     C37052   1.735   4.073   3.087  0.8355 -0.4444  0.0073
  269MOL0     H37053   2.158   4.220   3.084  2.7066 -0.1629 -0.0272
  269MOL0     H37054   2.371   4.298   3.039  0.9678  1.5771 -0.3772
  269MOL0     H37055   2.470   4.508   2.666  1.3729  1.6863 -0.3367
  269MOL0     H37056   2.523   4.354   2.622 -1.9567  1.2517  0.3683
  269MOL0     H37057   2.678   4.531   2.818  1.5022 -0.2495 -0.1588
  269MOL0     H37058   2.720   4.374   2.757 -0.6145 -0.6277 -0.9769
  269MOL0     H37059   2.722   4.465   2.526  0.8856 -1.4709  0.8826
  269MOL0     H37060   2.672   4.619   2.573  0.7879  1.0285  0.8222
  269MOL0     H37061   2.880   4.640   2.717  0.2722 -1.9392  2.0430
  269MOL0     H37062   2.913   4.469   2.694  3.5438  0.8682 -1.4405
  269MOL0     H37063   2.957   4.702   2.511  0.1438 -0.9474 -0.0906
  269MOL0     H37064   2.918   4.548   2.437 -2.0241 -1.3227  2.1830
  269MOL0     H37065   3.127   4.595   2.649 -1.1423  0.9579 -0.5693
  269MOL0     H37066   3.098   4.434   2.579  0.7735 -0.1146 -0.3196
  269MOL0     H37067   3.182   4.511   2.353 -0.7404  2.7522 -1.8258
  269MOL0     H37068   3.293   4.528   2.481 -0.3816 -0.9686  0.2169
  269MOL0     H37069   3.292   4.732   2.307 -1.1965 -1.0716 -0.8360
  269MOL0     H37070   3.119   4.754   2.342 -0.0519 -1.9704 -1.5221
  269MOL0     H37071   3.459   4.859   2.430 -1.6275  3.1456 -1.6107
  269MOL0     H37072   3.445   5.109   2.748  0.7771 -0.9505  1.0450
  269MOL0     H37073   3.524   5.093   2.585 -4.4948  1.5112 -1.5446
  269MOL0     H37074   3.550   4.907   2.831 -1.8333  1.0705 -0.7980
  269MOL0     H37075   3.632   4.877   2.673  2.7174 -2.2906  2.2606
  269MOL0     H37076   3.803   4.985   2.792  0.4630  1.2543  1.7030
  269MOL0     H37077   3.741   5.113   2.697  1.5150  1.2798  2.2905
  269MOL0     H37078   3.570   5.169   2.901 -0.1842 -0.2357 -0.9325
  269MOL0     H37079   3.671   5.071   3.002 -1.2470 -1.6749  0.2932
  269MOL0     H37080   3.967   5.396   2.833 -2.9586  0.0066 -0.6194
  269MOL0     H37081   4.288   5.424   2.877  2.1330 -2.8038  0.3576
  269MOL0     H37082   4.165   5.437   2.744 -0.4626 -0.1019 -0.6102
  269MOL0     H37083   4.297   5.318   2.747 -0.4556 -1.5787  1.8956
  269MOL0     H37084   4.605   4.943   2.814  0.0258 -0.2269  0.3743
  269MOL0     H37085   4.831   4.904   2.924  0.1502  1.4576  1.8504
  269MOL0     H37086   4.949   4.766   3.032  1.7693 -0.4866 -0.7230
  269MOL0     H37087   5.033   4.923   3.063  0.5207 -0.5140  0.0239
  269MOL0     H37088   5.070   4.776   3.303 -0.8030 -1.2014  0.2077
  269MOL0     H37089   5.076   4.659   3.180 -0.2042 -0.4282  2.4565
  269MOL0     H37090   5.271   4.752   3.095 -2.2924  1.0264 -0.8095
  269MOL0     H37091   5.281   4.743   3.271  0.2894  0.9165 -0.0096
  269MOL0     H37092   5.217   4.990   3.272  0.3622 -0.3773 -0.0799
  269MOL0     H37093   5.240   4.992   3.092  0.2548 -3.3727 -2.2797
  269MOL0     H37094   5.477   4.942   3.125 -1.9730 -0.0286 -0.9643
  269MOL0     H37095   5.423   5.081   3.218  0.5732 -0.6225  0.8600
  269MOL0     H37096   5.503   4.804   3.311 -2.1806  0.0222 -0.8409
  269MOL0     H37097   5.433   4.917   3.426  2.4072 -0.1549  1.3716
  269MOL0     H37098   5.663   4.982   3.448 -0.4773 -0.4450  0.4498
  269MOL0     H37099   5.628   5.079   3.310 -1.0233  1.3063  1.2815
  269MOL0     H37100   5.697   4.898   3.152 -3.4063 -3.4454  0.4645
  269MOL0     H37101   5.746   4.807   3.286 -2.7417 -0.8434 -1.5041
  269MOL0     H37102   4.671   4.964   3.306  3.4097  0.7708  0.4431
  269MOL0     H37103   4.456   5.000   3.225  1.8290 -1.3526  1.4267
  269MOL0     H37104   4.109   4.958   3.029  0.6925 -0.9531 -2.0452
  269MOL0     H37105   3.874   5.014   3.018 -0.6902  0.2237 -1.3958
  269MOL0     H37106   2.275   4.341   2.626 -1.0813  1.8369  0.4884
  269MOL0     H37107   2.058   4.251   2.665 -0.8988 -1.7204  1.3485
  269MOL0     H37108   1.645   4.311   2.692 -0.6917  1.7743  0.5078
  269MOL0     H37109   1.423   4.222   2.683  1.5312  1.1639 -1.2288
  269MOL0     H37110   1.316   3.848   2.935  1.3728  1.0629  1.5173
  269MOL0     H37111   1.269   3.982   3.032  0.0542  2.3536 -1.7637
  269MOL0     H37112   1.067   4.018   2.873  1.1365  0.4193 -0.3824
  269MOL0     H37113   1.070   3.875   2.982  2.5459 -2.0297  1.4582
  269MOL0     H37114   1.147   3.896   2.681 -3.1521  0.6169 -0.7595
  269MOL0     H37115   1.158   3.740   2.778  0.4022  0.2069 -0.2661
  269MOL0     H37116   0.976   3.758   2.619 -0.3743 -0.9064 -0.8019
  269MOL0     H37117   0.913   3.907   2.700 -0.9606 -0.8131  1.7250
  269MOL0     H37118   0.775   3.623   2.980 -0.3053  0.6620  0.3977
  269MOL0     H37119   1.505   3.972   3.021 -0.0722  0.1780 -0.9825
  269MOL0     H37120   1.750   4.164   3.145 -1.8620 -0.5318  0.9835
  269MOL0     H37121   1.680   4.003   3.151 -0.8072 -0.1159 -0.9955
  269MOL0     H37122   1.835   4.037   3.062  0.6427 -0.4629 -0.7596
  270MOL0     O37123   7.816  11.230   3.606  0.3737  0.0762 -0.3521
  270MOL0     C37124   7.716  11.214   3.536  0.0550 -0.5476 -0.0273
  270MOL0     O37125   7.717  11.170   3.412  0.2602 -0.1882 -0.4573
  270MOL0     C37126   7.832  11.125   3.346 -0.3385 -1.0400  0.5498
  270MOL0     C37127   7.922  11.040   3.412  0.1572  0.4793 -0.1819
  270MOL0     C37128   8.043  10.993   3.346  0.9144  0.3730  0.0074
  270MOL0     C37129   8.057  11.022   3.207  0.3685 -0.1003  0.1591
  270MOL0     O37130   8.164  10.966   3.147 -0.1853 -0.0868  0.7476
  270MOL0     C37131   8.222  11.028   3.025 -0.5123 -0.5323  0.5579
  270MOL0     C37132   8.324  10.923   2.971 -0.1865 -0.0453 -0.6528
  270MOL0     C37133   8.452  10.939   3.049 -0.1463  0.3395 -0.2281
  270MOL0     C37134   8.575  10.938   2.967  0.0620  0.6535  0.4546
  270MOL0     C37135   8.705  10.964   3.057  1.2301  0.4098  0.5516
  270MOL0     C37136   8.761  10.839   3.117 -0.1353 -0.9221  0.2205
  270MOL0     C37137   8.861  10.875   3.232  0.0073  0.2230 -0.7767
  270MOL0     C37138   8.964  10.981   3.183  0.1215  0.2713 -0.1596
  270MOL0     N37139   9.050  11.020   3.291  0.0766 -0.2958  0.3209
  270MOL0     C37140   9.157  10.947   3.334 -0.6327  0.7715  0.9999
  270MOL0     C37141   9.207  11.035   3.425  0.2352 -0.2002 -0.0808
  270MOL0     C37142   9.327  11.001   3.513  0.4447  0.1659 -0.6996
  270MOL0     C37143   9.409  11.122   3.546  0.9022 -0.3895 -0.9092
  270MOL0     C37144   9.463  11.199   3.427  0.4491 -0.6842 -0.0872
  270MOL0     C37145   9.541  11.326   3.464 -0.6040  0.0171 -0.1122
  270MOL0     O37146   9.660  11.287   3.538 -0.8517 -0.2137 -0.0637
  270MOL0     C37147   9.742  11.394   3.576  0.0423 -0.1836 -0.4936
  270MOL0     C37148   9.728  11.531   3.562  0.7651 -0.2685 -0.0450
  270MOL0     C37149   9.823  11.629   3.593 -0.5473 -0.3078  0.2575
  270MOL0     C37150   9.789  11.771   3.574  0.5181 -0.0182 -0.0159
  270MOL0     C37151   9.952  11.587   3.645 -0.0433  0.3112  0.1624
  270MOL0     C37152  10.074  11.668   3.667 -0.0000 -0.7301  0.5609
  270MOL0     O37153  10.187  11.610   3.711 -0.1747 -0.6733 -0.1117
  270MOL0     C37154  10.308  11.681   3.716  0.4017 -0.1391  0.2488
  270MOL0     C37155  10.331  11.788   3.807  0.8720 -0.2408  0.6123
  270MOL0     C37156  10.450  11.857   3.796  0.5172  0.0469  0.1642
  270MOL0     C37157  10.546  11.825   3.703 -0.8065 -0.6074 -0.1449
  270MOL0     O37158  10.666  11.897   3.699  0.2124  0.3012  0.4145
  270MOL0     C37159  10.706  12.002   3.788  0.5916  0.2083  0.1069
  270MOL0     C37160  10.843  12.043   3.737 -0.5842 -0.8109 -0.2308
  270MOL0     C37161  10.903  12.163   3.825  0.2598  0.2651  0.2733
  270MOL0     C37162  11.046  12.193   3.778 -0.5990 -0.3646  1.2392
  270MOL0     C37163  11.147  12.083   3.823  0.1719  0.3484  0.2439
  270MOL0     C37164  11.290  12.129   3.796 -1.0785  0.1961  0.3506
  270MOL0     C37165  11.400  12.034   3.837  0.0119  0.1687 -0.0598
  270MOL0     C37166  11.533  12.085   3.788 -0.1416  1.1062  0.6752
  270MOL0    Cl37167  11.672  11.975   3.832  0.2027 -0.2888  0.0743
  270MOL0     C37168  10.526  11.708   3.620  0.3201  0.2578 -0.0529
  270MOL0     C37169  10.404  11.639   3.621  0.0448  0.2227  0.1945
  270MOL0     O37170  10.065  11.788   3.637  0.0157 -0.1432  0.2573
  270MOL0     C37171   9.967  11.448   3.665  0.0441  0.5513  0.8529
  270MOL0     C37172   9.867  11.358   3.631 -0.2376  0.5332 -0.4286
  270MOL0     N37173   9.137  11.155   3.433 -0.5662 -0.0372 -0.4646
  270MOL0     N37174   9.050  11.148   3.342 -0.8070  0.4911  0.6762
  270MOL0     C37175   7.967  11.106   3.137  0.7835 -0.1657 -0.1939
  270MOL0     C37176   7.859  11.153   3.212  0.0106  0.3663 -0.1528
  270MOL0     C37177   7.583  11.222   3.605 -0.0838 -0.0124 -0.2903
  270MOL0     C37178   7.474  11.146   3.548 -0.9446 -0.2636 -0.3913
  270MOL0     C37179   7.345  11.140   3.615 -0.2425  0.7864 -0.5891
  270MOL0     C37180   7.323  11.210   3.726 -0.9454 -0.1771 -0.2666
  270MOL0     O37181   7.202  11.211   3.796  0.1469 -0.9123 -0.3563
  270MOL0     C37182   7.099  11.125   3.750 -0.2668 -0.3893  1.1309
  270MOL0     C37183   6.975  11.156   3.838  0.0269 -0.0066  0.1063
  270MOL0     C37184   6.990  11.055   3.959 -1.0489 -0.0782 -0.1182
  270MOL0     C37185   6.875  11.077   4.059  0.0644 -0.3639  0.6725
  270MOL0     C37186   6.753  11.003   4.013  0.6611  0.0590  0.3077
  270MOL0     C37187   6.662  10.922   3.972 -0.0465 -0.4687 -0.2032
  270MOL0     C37188   7.427  11.291   3.772 -0.0642  0.0928  0.1058
  270MOL0     C37189   7.552  11.303   3.714  0.0498 -0.5454 -0.1470
  270MOL0     C37190   7.655  11.394   3.780 -0.8060  0.4498 -0.2298
  270MOL0     H37191   7.899  11.006   3.513  2.9729  0.1954  0.4556
  270MOL0     H37192   8.118  10.936   3.399 -1.7389 -0.6669  2.9467
  270MOL0     H37193   8.265  11.127   3.042 -2.4830  0.7598 -1.4780
  270MOL0     H37194   8.150  11.037   2.943  0.3985 -0.1322 -0.2242
  270MOL0     H37195   8.286  10.821   2.963  1.0547 -0.7109  1.3111
  270MOL0     H37196   8.342  10.957   2.868 -4.1031 -0.0731 -1.4900
  270MOL0     H37197   8.452  11.033   3.106 -1.9699 -0.7797  1.7566
  270MOL0     H37198   8.457  10.858   3.123 -2.0295  0.9092  0.6033
  270MOL0     H37199   8.575  10.848   2.905 -0.1871  0.5888  0.5453
  270MOL0     H37200   8.565  11.023   2.898  1.0264  2.2065  2.1249
  270MOL0     H37201   8.670  11.031   3.137 -0.6522 -0.3078  0.3570
  270MOL0     H37202   8.785  11.001   2.992  0.5928 -1.2311 -1.2389
  270MOL0     H37203   8.680  10.775   3.153  0.0691 -1.3399 -0.0615
  270MOL0     H37204   8.814  10.790   3.035  2.2926 -2.1688  2.3679
  270MOL0     H37205   8.906  10.783   3.270 -1.7903 -0.8910 -1.2213
  270MOL0     H37206   8.810  10.920   3.317 -0.4896  0.4741 -1.2006
  270MOL0     H37207   9.023  10.950   3.096 -0.7513 -0.5758 -0.4747
  270MOL0     H37208   8.905  11.071   3.162  0.2043  1.1163  2.8280
  270MOL0     H37209   9.183  10.843   3.316  1.4060  1.4245 -0.1388
  270MOL0     H37210   9.389  10.928   3.461  1.2667  1.3195 -1.3704
  270MOL0     H37211   9.292  10.948   3.602 -3.9251  0.0040 -2.2589
  270MOL0     H37212   9.346  11.192   3.602 -1.0530 -2.4061 -0.4378
  270MOL0     H37213   9.493  11.094   3.611  0.2787  4.9208  2.8201
  270MOL0     H37214   9.524  11.133   3.365 -2.1451 -0.7882 -2.7876
  270MOL0     H37215   9.385  11.222   3.354  0.4488 -2.8391 -0.8614
  270MOL0     H37216   9.576  11.385   3.379  0.5368  1.6620  1.4157
  270MOL0     H37217   9.478  11.385   3.531 -1.3941  0.3328 -1.1123
  270MOL0     H37218   9.629  11.562   3.530  1.1691  2.3041  0.9508
  270MOL0     H37219   9.811  11.820   3.669  0.3577 -0.0067  0.0154
  270MOL0     H37220   9.683  11.785   3.551  0.6406  1.8674  0.4146
  270MOL0     H37221   9.838  11.824   3.493 -1.6380 -0.0743 -1.4296
  270MOL0     H37222  10.245  11.831   3.859 -0.9784 -2.5665 -0.3320
  270MOL0     H37223  10.464  11.947   3.855  0.5761  0.5108 -0.5305
  270MOL0     H37224  10.638  12.088   3.784 -1.4139 -1.3221 -2.4526
  270MOL0     H37225  10.714  11.955   3.886 -0.5460  2.2674  1.2665
  270MOL0     H37226  10.908  11.955   3.740  1.9854  0.9615  0.7858
  270MOL0     H37227  10.840  12.067   3.630  1.2803  1.9374  0.2165
  270MOL0     H37228  10.896  12.155   3.934 -1.7990 -2.8349  0.0514
  270MOL0     H37229  10.837  12.245   3.797  1.7110  0.8990 -1.5130
  270MOL0     H37230  11.072  12.297   3.798 -2.3887  0.5813 -0.8844
  270MOL0     H37231  11.049  12.188   3.669  1.5628 -0.9596  1.2864
  270MOL0     H37232  11.134  12.071   3.931 -1.2493  0.5265  0.1129
  270MOL0     H37233  11.130  11.989   3.770  0.5104  0.7073 -0.5273
  270MOL0     H37234  11.305  12.222   3.851  1.1118 -0.0128  0.2109
  270MOL0     H37235  11.302  12.160   3.692  0.2112  0.0897  0.4525
  270MOL0     H37236  11.377  11.936   3.795 -0.5656 -0.0261  0.6987
  270MOL0     H37237  11.404  12.025   3.946 -0.7532  0.3235 -0.0123
  270MOL0     H37238  11.556  12.187   3.822  0.5705  1.6117 -1.2238
  270MOL0     H37239  11.529  12.086   3.679 -2.3202 -0.8248  0.6680
  270MOL0     H37240  10.611  11.687   3.555  0.5258  2.1491 -0.4574
  270MOL0     H37241  10.367  11.565   3.550 -0.7203  1.1599 -0.4144
  270MOL0     H37242  10.055  11.404   3.711 -0.8348 -1.4762  0.7051
  270MOL0     H37243   9.877  11.252   3.652 -1.0264  0.8389  1.6325
  270MOL0     H37244   7.965  11.141   3.034 -3.3827  5.8347  1.4144
  270MOL0     H37245   7.792  11.221   3.159  0.0922  2.2485  1.9574
  270MOL0     H37246   7.482  11.093   3.454  0.0781 -0.2222 -0.3373
  270MOL0     H37247   7.276  11.065   3.577  1.6433 -1.8571  0.8365
  270MOL0     H37248   7.072  11.132   3.644  0.7563 -2.4480  0.6789
  270MOL0     H37249   7.111  11.016   3.758  1.2287 -0.4156 -0.6342
  270MOL0     H37250   6.883  11.122   3.789  0.5739 -2.3570  0.6044
  270MOL0     H37251   6.956  11.259   3.869  0.7851 -0.1520  1.1098
  270MOL0     H37252   6.989  10.951   3.924 -0.1231  0.5455 -2.1090
  270MOL0     H37253   7.092  11.067   3.997 -0.4473 -0.2951 -1.5975
  270MOL0     H37254   6.858  11.184   4.074 -2.2429 -0.2941 -1.8048
  270MOL0     H37255   6.913  11.040   4.155  2.4239  1.5090  0.5536
  270MOL0     H37256   6.587  10.851   3.944 -1.7681  2.3185 -3.3514
  270MOL0     H37257   7.402  11.339   3.867 -1.7785 -2.1078  0.8578
  270MOL0     H37258   7.700  11.461   3.706  0.8087 -0.4064 -0.0811
  270MOL0     H37259   7.614  11.450   3.864 -0.9011  0.9685 -0.6174
  270MOL0     H37260   7.733  11.332   3.826  0.4527  1.9423 -0.2467
  271MOL0     O37261   8.230   3.423   1.438  0.0690  0.6441 -0.2716
  271MOL0     C37262   8.204   3.530   1.494 -0.0880  0.3237 -0.3744
  271MOL0     O37263   8.295   3.620   1.541 -0.5318 -0.2346 -0.4045
  271MOL0     C37264   8.434   3.602   1.544 -0.1464 -0.3709 -0.4078
  271MOL0     C37265   8.512   3.506   1.471 -0.2489  0.1088 -0.2533
  271MOL0     C37266   8.658   3.499   1.475 -0.0982  1.1545  0.5311
  271MOL0     C37267   8.728   3.590   1.562 -0.1203 -0.0656  0.0711
  271MOL0     O37268   8.866   3.620   1.567  1.1772 -0.4883 -0.1847
  271MOL0     C37269   8.944   3.550   1.470 -0.4252 -0.4022  0.1118
  271MOL0     C37270   9.088   3.562   1.514 -0.7615  0.3634  0.0486
  271MOL0     C37271   9.187   3.504   1.406  0.8167  1.0491  0.1386
  271MOL0     C37272   9.334   3.531   1.433  0.3659 -0.0083 -1.0971
  271MOL0     C37273   9.410   3.458   1.319 -0.1088 -0.3474 -0.2674
  271MOL0     C37274   9.555   3.479   1.337 -0.4558 -0.6179  0.7578
  271MOL0     C37275   9.616   3.586   1.250  0.2466  0.3906 -0.2930
  271MOL0     C37276   9.764   3.602   1.282 -0.6853  0.2888  0.6433
  271MOL0     N37277   9.844   3.487   1.235 -0.3312 -0.3042 -0.0159
  271MOL0     C37278   9.903   3.394   1.323 -0.1292 -0.5955  0.0743
  271MOL0     C37279   9.994   3.321   1.251  0.6989  0.7717  0.8915
  271MOL0     C37280  10.088   3.226   1.310  0.4399 -0.4266 -0.3775
  271MOL0     C37281  10.113   3.103   1.218 -0.1830 -0.0741 -0.2111
  271MOL0     C37282  10.165   2.984   1.305 -0.0625 -0.0414  0.0162
  271MOL0     C37283  10.166   2.852   1.224 -0.3035  0.2341  0.2171
  271MOL0     O37284  10.257   2.856   1.119 -1.0655  0.0553 -0.2894
  271MOL0     C37285  10.393   2.860   1.146 -0.3960 -0.1304  0.6804
  271MOL0     C37286  10.468   2.942   1.067  0.2758 -0.0332 -0.4721
  271MOL0     C37287  10.602   2.974   1.098 -0.1614  0.9623 -0.9511
  271MOL0     C37288  10.661   3.092   1.028 -0.0732  0.9607 -0.2766
  271MOL0     C37289  10.670   2.895   1.198  0.2598  0.5355 -0.4596
  271MOL0     C37290  10.818   2.918   1.238  0.1036  0.1345 -0.0448
  271MOL0     O37291  10.899   2.805   1.261  0.4119  0.3639  0.2506
  271MOL0     C37292  11.033   2.833   1.267 -0.0492  0.2024 -0.1256
  271MOL0     C37293  11.119   2.747   1.199  0.4442 -0.0985  0.2309
  271MOL0     C37294  11.257   2.777   1.194  0.0236 -0.2130  0.3223
  271MOL0     C37295  11.311   2.879   1.267  0.4612  0.1787 -0.2072
  271MOL0     O37296  11.446   2.904   1.255 -0.1362  0.0828  0.2355
  271MOL0     C37297  11.509   2.901   1.393  0.0197 -0.5154  0.3388
  271MOL0     C37298  11.639   2.819   1.406 -0.5649  0.7743  0.3872
  271MOL0     C37299  11.735   2.868   1.294 -0.4171 -0.6460  0.6046
  271MOL0     C37300  11.881   2.818   1.323  0.2523 -0.0425 -0.8563
  271MOL0     C37301  11.968   2.876   1.216  0.8798 -0.4976  0.4600
  271MOL0     C37302  12.112   2.857   1.240  0.0045 -0.5466  0.4399
  271MOL0     C37303  12.167   2.715   1.239  0.0890 -0.3654  0.7598
  271MOL0     C37304  12.323   2.715   1.204  0.3441  0.4334  0.4291
  271MOL0    Cl37305  12.410   2.805   1.328  0.3459 -0.5495  0.3711
  271MOL0     C37306  11.222   2.958   1.342 -0.5123 -0.4463  0.1140
  271MOL0     C37307  11.086   2.930   1.350 -0.4387 -0.0124  0.1308
  271MOL0     O37308  10.843   3.039   1.259 -0.4412 -0.5202 -0.0702
  271MOL0     C37309  10.587   2.811   1.277 -0.3279 -0.1556  0.4768
  271MOL0     C37310  10.459   2.797   1.248  0.9757  0.3672 -0.1712
  271MOL0     N37311   9.993   3.372   1.123 -0.0136 -0.3866  0.0195
  271MOL0     N37312   9.909   3.474   1.114 -0.5867  0.2932  0.1707
  271MOL0     C37313   8.650   3.681   1.632 -0.7196 -0.4976  0.6939
  271MOL0     C37314   8.507   3.690   1.616  0.5320  0.3170  0.4596
  271MOL0     C37315   8.061   3.562   1.533 -0.2132 -0.1885  0.6534
  271MOL0     C37316   8.036   3.687   1.601 -0.2032  0.3080  0.1269
  271MOL0     C37317   7.903   3.731   1.642  0.2189  0.0703  0.3443
  271MOL0     C37318   7.789   3.651   1.621 -0.9473  0.1217 -0.0229
  271MOL0     O37319   7.675   3.702   1.677 -0.2041  0.1540  0.1537
  271MOL0     C37320   7.551   3.669   1.615  0.6625  1.5417  0.6531
  271MOL0     C37321   7.467   3.574   1.688 -0.5232  0.8867 -0.2015
  271MOL0     C37322   7.470   3.589   1.843  0.3840  0.8098  0.2979
  271MOL0     C37323   7.394   3.474   1.907 -0.4749  0.5460  0.0970
  271MOL0     C37324   7.393   3.480   2.052 -0.2821 -0.3779  1.1937
  271MOL0     C37325   7.394   3.488   2.177 -0.6326  0.3136  0.0873
  271MOL0     C37326   7.812   3.525   1.559  0.5182 -0.2654  0.3846
  271MOL0     C37327   7.940   3.493   1.506  0.2466  0.5391 -0.1038
  271MOL0     C37328   7.952   3.366   1.424  0.0876 -0.1239 -0.0936
  271MOL0     H37329   8.473   3.440   1.395 -1.5120 -0.5798  0.9421
  271MOL0     H37330   8.710   3.433   1.407 -0.3493  3.0795 -1.6667
  271MOL0     H37331   8.933   3.606   1.377 -1.0791  0.0813  0.4628
  271MOL0     H37332   8.915   3.445   1.460 -0.0279 -0.6029  0.9445
  271MOL0     H37333   9.100   3.670   1.525 -0.8185  0.2589  1.2645
  271MOL0     H37334   9.092   3.514   1.613 -2.3376  4.9740  2.6724
  271MOL0     H37335   9.177   3.395   1.397 -3.6457  1.2982 -0.1999
  271MOL0     H37336   9.161   3.541   1.306  1.2579  0.8996 -0.0335
  271MOL0     H37337   9.358   3.637   1.416  1.0481 -0.2371 -1.6167
  271MOL0     H37338   9.362   3.509   1.536  0.4579 -1.8292 -1.4828
  271MOL0     H37339   9.390   3.501   1.221  2.1884 -3.3418 -2.2282
  271MOL0     H37340   9.393   3.350   1.325 -1.1616 -0.1225  1.4251
  271MOL0     H37341   9.583   3.503   1.440  2.4856 -1.0363  0.1442
  271MOL0     H37342   9.613   3.392   1.307  3.4958  1.7385  0.9071
  271MOL0     H37343   9.563   3.682   1.248  3.2119  2.1410 -1.5947
  271MOL0     H37344   9.607   3.548   1.148 -0.5917  2.5546 -1.0849
  271MOL0     H37345   9.807   3.691   1.235  3.3661  0.0284  3.3567
  271MOL0     H37346   9.777   3.625   1.388 -0.1772  0.7851  0.4734
  271MOL0     H37347   9.873   3.388   1.428  2.0555  2.3694  0.9884
  271MOL0     H37348  10.053   3.194   1.408  1.2129 -0.2641 -0.0415
  271MOL0     H37349  10.189   3.267   1.319  0.3532 -0.0221 -1.1482
  271MOL0     H37350  10.021   3.068   1.170 -1.1055  2.7103 -0.6568
  271MOL0     H37351  10.182   3.137   1.140  0.7850 -2.0298 -0.2707
  271MOL0     H37352  10.265   3.017   1.334  0.4620 -0.0617 -1.6624
  271MOL0     H37353  10.112   2.970   1.399 -1.0316 -1.9429 -0.7609
  271MOL0     H37354  10.189   2.762   1.282 -1.8265 -0.9936 -0.9861
  271MOL0     H37355  10.063   2.839   1.189 -0.4410  1.0277  0.3074
  271MOL0     H37356  10.413   2.992   0.988 -0.1243  0.4370  0.0956
  271MOL0     H37357  10.605   3.102   0.934 -1.8606  0.0978  0.6520
  271MOL0     H37358  10.769   3.076   1.023  0.0083  0.1421  2.5376
  271MOL0     H37359  10.657   3.185   1.084  1.0430  1.0308 -0.2883
  271MOL0     H37360  11.084   2.668   1.134  1.2190  0.6899 -1.2003
  271MOL0     H37361  11.320   2.724   1.123  2.5932  1.3494  1.2980
  271MOL0     H37362  11.526   3.007   1.414 -1.2032 -0.1012 -0.6023
  271MOL0     H37363  11.446   2.848   1.465  0.5569 -3.7607 -1.3769
  271MOL0     H37364  11.677   2.834   1.507 -0.7588  0.6228  0.4817
  271MOL0     H37365  11.615   2.717   1.374 -1.9515  1.8294 -2.3106
  271MOL0     H37366  11.745   2.977   1.302 -0.0223 -0.6917  0.7727
  271MOL0     H37367  11.705   2.835   1.195  1.1244 -1.5809  0.4184
  271MOL0     H37368  11.868   2.709   1.323 -2.0686  0.1698  0.5217
  271MOL0     H37369  11.919   2.848   1.421 -0.3464 -1.4573 -0.1488
  271MOL0     H37370  11.949   2.840   1.114  0.9148 -0.0135  0.2824
  271MOL0     H37371  11.954   2.984   1.207  2.2665 -0.3704 -0.4420
  271MOL0     H37372  12.146   2.915   1.326  0.0585  1.2376 -0.7325
  271MOL0     H37373  12.163   2.913   1.161  1.2150 -1.2002  0.7240
  271MOL0     H37374  12.122   2.654   1.161  0.7433 -0.5006  0.4799
  271MOL0     H37375  12.148   2.671   1.337  0.3242 -1.0491  0.5033
  271MOL0     H37376  12.329   2.760   1.105  1.0638  0.4729  0.4860
  271MOL0     H37377  12.345   2.608   1.197 -4.0407 -0.7776  1.6725
  271MOL0     H37378  11.254   3.043   1.401 -0.8602 -0.7491  0.7508
  271MOL0     H37379  11.022   2.993   1.410 -1.9692 -1.2397 -0.1308
  271MOL0     H37380  10.628   2.756   1.362 -1.2727 -1.8366 -0.0965
  271MOL0     H37381  10.393   2.737   1.310  1.0385 -1.3926 -1.7248
  271MOL0     H37382   8.696   3.766   1.681 -0.9731 -0.5786  1.0768
  271MOL0     H37383   8.463   3.771   1.673  2.6456  1.4449  0.5979
  271MOL0     H37384   8.122   3.749   1.621 -1.1570  1.9261 -0.5609
  271MOL0     H37385   7.881   3.824   1.692 -1.3464  0.9670 -1.8317
  271MOL0     H37386   7.483   3.755   1.611 -0.7303  0.4591  0.1293
  271MOL0     H37387   7.563   3.650   1.508 -1.8889  0.8695  0.4099
  271MOL0     H37388   7.503   3.475   1.659 -2.9644 -0.8219  2.1059
  271MOL0     H37389   7.366   3.589   1.647 -0.7307 -0.3319 -0.1567
  271MOL0     H37390   7.568   3.607   1.888  1.0012 -0.6862 -0.3895
  271MOL0     H37391   7.407   3.672   1.877 -0.5932 -0.8222  2.7875
  271MOL0     H37392   7.449   3.382   1.883  0.3980  0.6457  1.5591
  271MOL0     H37393   7.294   3.455   1.868 -0.1550 -1.8288  0.2410
  271MOL0     H37394   7.406   3.505   2.283  1.0329  1.2751 -0.2102
  271MOL0     H37395   7.722   3.464   1.563 -0.3595  1.0401  1.2899
  271MOL0     H37396   7.860   3.326   1.381  0.4706 -0.9765 -0.1408
  271MOL0     H37397   8.017   3.370   1.336 -1.2323  1.7747 -1.0563
  271MOL0     H37398   8.000   3.296   1.492  1.8107 -0.2418 -1.3621
  272MOL0     O37399   5.615   2.982   9.822  0.1778 -0.0791  0.1112
  272MOL0     C37400   5.659   2.951   9.709  0.8554 -0.1805  0.5988
  272MOL0     O37401   5.763   2.877   9.683  0.1991  0.7707  0.2716
  272MOL0     C37402   5.825   2.816   9.793  0.3284 -0.1485  0.1583
  272MOL0     C37403   5.957   2.842   9.807 -0.3209  1.0980  0.2437
  272MOL0     C37404   6.029   2.801   9.912 -0.0989  0.5350 -0.2783
  272MOL0     C37405   5.966   2.719  10.010 -0.3398  0.0418  0.5176
  272MOL0     O37406   6.058   2.675  10.097 -0.0586  0.6703 -0.1369
  272MOL0     C37407   6.017   2.572  10.184 -1.0227 -0.2602 -0.0336
  272MOL0     C37408   6.142   2.485  10.217 -0.7735 -0.4743  0.3850
  272MOL0     C37409   6.240   2.560  10.311 -0.0799 -0.2080 -0.4848
  272MOL0     C37410   6.308   2.473  10.414  0.3298 -0.0102  0.2521
  272MOL0     C37411   6.426   2.549  10.485  1.1290 -1.3161  0.2301
  272MOL0     C37412   6.495   2.448  10.577 -0.3037 -0.2319 -0.3388
  272MOL0     C37413   6.620   2.516  10.650 -0.6604  0.7879  1.1965
  272MOL0     C37414   6.729   2.541  10.546  0.3655  1.0586  0.0123
  272MOL0     N37415   6.842   2.619  10.594  0.1240  0.2837 -0.0594
  272MOL0     C37416   6.854   2.757  10.598  0.6975 -0.6254  0.8517
  272MOL0     C37417   6.982   2.781  10.615 -0.1731 -0.5582 -0.1348
  272MOL0     C37418   7.050   2.919  10.638  0.2683  0.4491  0.0901
  272MOL0     C37419   7.141   2.925  10.765 -0.4230  0.0943 -0.6298
  272MOL0     C37420   7.237   3.039  10.749 -0.4170  0.2663  0.0848
  272MOL0     C37421   7.335   3.062  10.870 -0.3170  1.2768  0.1631
  272MOL0     O37422   7.399   2.937  10.899 -0.3668  0.1863  0.6364
  272MOL0     C37423   7.499   2.948  10.990 -0.0694  0.1981 -0.4513
  272MOL0     C37424   7.605   3.039  10.974 -0.4017 -1.1203  0.3643
  272MOL0     C37425   7.700   3.052  11.081  0.1005  0.6512 -0.2642
  272MOL0     C37426   7.810   3.154  11.066 -0.5660 -0.4424  0.2822
  272MOL0     C37427   7.693   2.960  11.198  0.3270 -0.1255 -0.7779
  272MOL0     C37428   7.783   2.971  11.310  1.4685  0.2641  0.1378
  272MOL0     O37429   7.752   2.893  11.419 -0.5708  0.0102  0.3734
  272MOL0     C37430   7.857   2.878  11.507  0.3699 -0.3106  0.6666
  272MOL0     C37431   7.878   2.973  11.612  0.8775  0.7790  0.3981
  272MOL0     C37432   7.975   2.947  11.705  0.2719 -0.0209 -0.4114
  272MOL0     C37433   8.061   2.843  11.695  0.7986  0.3367 -0.2289
  272MOL0     O37434   8.147   2.834  11.805  0.3635 -0.2956 -0.5743
  272MOL0     C37435   8.236   2.721  11.792 -0.4737  0.0942 -0.0486
  272MOL0     C37436   8.343   2.727  11.905  0.1780  0.0616  0.3673
  272MOL0     C37437   8.453   2.620  11.915 -0.0820 -0.2643  0.5449
  272MOL0     C37438   8.549   2.626  11.790 -0.9100 -0.0081 -0.4847
  272MOL0     C37439   8.673   2.544  11.817  0.2100  0.0096 -0.3305
  272MOL0     C37440   8.731   2.509  11.686  0.2119 -0.3192 -0.6737
  272MOL0     C37441   8.861   2.427  11.694 -0.3430  0.5233 -0.0031
  272MOL0     C37442   8.952   2.445  11.573  0.1854  0.3028  0.2434
  272MOL0    Cl37443   8.878   2.374  11.414  0.3368  0.3355  0.0747
  272MOL0     C37444   8.057   2.770  11.582  0.2115 -0.0388  0.3003
  272MOL0     C37445   7.958   2.779  11.493  0.3818 -0.0696  0.2799
  272MOL0     O37446   7.874   3.046  11.302  0.4110 -0.3410 -0.2409
  272MOL0     C37447   7.590   2.865  11.197  0.1660  0.6592 -0.0827
  272MOL0     C37448   7.492   2.860  11.101 -0.2012 -0.4517  0.4282
  272MOL0     N37449   7.049   2.658  10.630  0.0158 -0.0923 -0.4815
  272MOL0     N37450   6.972   2.569  10.613 -0.4236 -0.2225  0.9876
  272MOL0     C37451   5.824   2.696  10.008 -0.3136  0.4765 -0.1379
  272MOL0     C37452   5.756   2.747   9.898  0.1887  0.3749 -0.5004
  272MOL0     C37453   5.588   3.002   9.592 -0.3671 -0.6558  0.7719
  272MOL0     C37454   5.654   3.000   9.468 -0.0922  0.3470  0.2802
  272MOL0     C37455   5.601   3.034   9.343 -0.2204 -0.3543  0.3227
  272MOL0     C37456   5.474   3.090   9.341 -0.2303 -0.5568 -0.5855
  272MOL0     O37457   5.409   3.139   9.225 -0.4814  0.3498  0.0028
  272MOL0     C37458   5.466   3.110   9.091  0.6018 -0.9990 -0.0690
  272MOL0     C37459   5.450   2.961   9.070 -0.5987  1.2966  0.5536
  272MOL0     C37460   5.451   2.916   8.921  0.2897  0.0173 -0.6217
  272MOL0     C37461   5.412   2.769   8.900 -0.7583  0.2669 -0.3557
  272MOL0     C37462   5.447   2.721   8.770 -0.2045  0.3584  0.2217
  272MOL0     C37463   5.452   2.659   8.666  0.1244 -0.5164  0.3226
  272MOL0     C37464   5.405   3.096   9.460 -0.2619 -0.9967  0.2873
  272MOL0     C37465   5.458   3.058   9.585  1.2070 -0.8101  0.1940
  272MOL0     C37466   5.370   3.082   9.713  0.2595  0.1932  0.5201
  272MOL0     H37467   5.997   2.898   9.722  0.0869 -0.5686 -0.6994
  272MOL0     H37468   6.124   2.851   9.929 -0.5412  1.0717  0.6983
  272MOL0     H37469   5.945   2.501  10.142  1.2559 -2.6439 -0.2034
  272MOL0     H37470   5.975   2.608  10.278 -1.0101 -1.2222  0.3461
  272MOL0     H37471   6.096   2.397  10.263 -0.3213  0.4205  2.6941
  272MOL0     H37472   6.197   2.452  10.129  0.5263  2.1886  0.0894
  272MOL0     H37473   6.311   2.605  10.241  1.2880 -2.7090 -0.8120
  272MOL0     H37474   6.182   2.636  10.365 -0.1301  1.1388 -2.3264
  272MOL0     H37475   6.228   2.465  10.489  0.4329  0.6862  0.4419
  272MOL0     H37476   6.337   2.376  10.374 -3.4106 -0.3425 -2.1576
  272MOL0     H37477   6.403   2.650  10.518  1.3547 -1.5816  1.2247
  272MOL0     H37478   6.494   2.573  10.402  2.0677 -1.6647  0.8874
  272MOL0     H37479   6.426   2.409  10.653  0.1871  0.3172  0.4086
  272MOL0     H37480   6.522   2.358  10.520  0.6403 -1.0749  1.3483
  272MOL0     H37481   6.669   2.465  10.734 -0.1584  0.2838  0.6078
  272MOL0     H37482   6.589   2.613  10.689 -1.2616  0.4456  1.5694
  272MOL0     H37483   6.765   2.443  10.512 -0.3565  0.4612  0.9122
  272MOL0     H37484   6.688   2.595  10.460  0.3454  2.0993  0.6617
  272MOL0     H37485   6.771   2.825  10.586  1.4127  0.3119  1.1209
  272MOL0     H37486   6.972   2.995  10.649 -0.1202  0.0286  0.2989
  272MOL0     H37487   7.097   2.937  10.541  0.1609 -2.9046 -0.7075
  272MOL0     H37488   7.090   2.937  10.861  3.4714  0.2815  1.6611
  272MOL0     H37489   7.199   2.832  10.764  1.4506  1.1703  0.6458
  272MOL0     H37490   7.294   3.025  10.657 -0.4139 -0.3285  0.1741
  272MOL0     H37491   7.187   3.135  10.728  1.3895  1.7364  2.0690
  272MOL0     H37492   7.402   3.146  10.846  1.4707 -0.5887 -1.8556
  272MOL0     H37493   7.281   3.073  10.964  1.2083  0.8332  1.1225
  272MOL0     H37494   7.606   3.102  10.886 -0.7034  0.0108  1.1559
  272MOL0     H37495   7.797   3.218  10.979 -0.3024  1.2397  1.4401
  272MOL0     H37496   7.906   3.105  11.048 -1.2210 -1.5399 -0.3839
  272MOL0     H37497   7.814   3.215  11.157  2.7325  0.7024 -0.5051
  272MOL0     H37498   7.828   3.068  11.631 -1.4969 -0.4908  0.8349
  272MOL0     H37499   7.975   3.014  11.790 -1.1054 -2.7898  1.9301
  272MOL0     H37500   8.192   2.622  11.808 -0.0163 -0.2921 -1.1013
  272MOL0     H37501   8.293   2.721  11.699 -1.3202 -2.2782 -0.6569
  272MOL0     H37502   8.392   2.824  11.893 -0.1533  0.0941 -0.7825
  272MOL0     H37503   8.294   2.733  12.003 -0.5064  0.8888 -0.0076
  272MOL0     H37504   8.399   2.524  11.917 -1.8223  0.6631 -0.0830
  272MOL0     H37505   8.514   2.632  12.004  0.8481  0.2683 -0.1506
  272MOL0     H37506   8.576   2.732  11.780 -0.1785 -0.1811 -0.3602
  272MOL0     H37507   8.492   2.602  11.699 -1.4383 -0.3793 -0.0671
  272MOL0     H37508   8.747   2.596  11.878 -1.6905  2.4619  0.0588
  272MOL0     H37509   8.649   2.451  11.869  4.3162 -0.0689  1.8771
  272MOL0     H37510   8.747   2.607  11.640  0.5877 -0.9996 -2.0367
  272MOL0     H37511   8.663   2.447  11.629  1.5066 -1.2869 -1.2123
  272MOL0     H37512   8.828   2.323  11.700 -0.8928  0.7216  0.5956
  272MOL0     H37513   8.917   2.453  11.785  0.3901  2.1544 -0.8789
  272MOL0     H37514   9.044   2.392  11.600 -0.2680  0.3783  2.0478
  272MOL0     H37515   8.977   2.550  11.557 -0.3397  1.0685  3.5897
  272MOL0     H37516   8.131   2.696  11.552 -0.4989 -1.0667  1.0353
  272MOL0     H37517   7.937   2.707  11.414  1.0082 -2.6888  2.3651
  272MOL0     H37518   7.584   2.781  11.266  0.6720 -2.7607 -3.8586
  272MOL0     H37519   7.414   2.785  11.115  0.8314 -1.4322  1.0586
  272MOL0     H37520   5.765   2.644  10.083 -1.9588 -1.2277 -2.4783
  272MOL0     H37521   5.649   2.731   9.904  0.1534  1.1340  3.2274
  272MOL0     H37522   5.756   2.963   9.468 -1.0101 -2.4737 -1.6045
  272MOL0     H37523   5.666   3.035   9.256  1.4742  1.4186  1.5185
  272MOL0     H37524   5.402   3.159   9.018  0.0857 -1.3386  0.1501
  272MOL0     H37525   5.566   3.154   9.089 -0.1141  0.7834  0.9643
  272MOL0     H37526   5.350   2.929   9.100 -0.3849 -0.5222 -0.5531
  272MOL0     H37527   5.531   2.908   9.121  1.6041 -0.0895 -3.8702
  272MOL0     H37528   5.379   2.972   8.861  0.1028 -0.7002 -1.0784
  272MOL0     H37529   5.555   2.935   8.892  0.8563 -0.6127  0.9113
  272MOL0     H37530   5.305   2.759   8.924 -1.2431  1.0570 -2.0457
  272MOL0     H37531   5.475   2.711   8.968  0.1333  1.6454  0.0479
  272MOL0     H37532   5.467   2.614   8.570 -0.4012  2.5587 -1.3275
  272MOL0     H37533   5.309   3.143   9.443  0.0415 -0.2646  0.5899
  272MOL0     H37534   5.270   3.121   9.694  0.7815  1.1384 -0.3911
  272MOL0     H37535   5.345   2.983   9.753 -0.0177 -1.0822 -2.4791
  272MOL0     H37536   5.425   3.142   9.786  1.5920  2.3315 -2.0630
  273MOL0     O37537   1.960   7.345   8.109  0.0736 -1.1475  0.8508
  273MOL0     C37538   1.884   7.285   8.190 -0.5782 -0.3798  0.9643
  273MOL0     O37539   1.906   7.259   8.322 -0.0178 -0.4103 -0.2485
  273MOL0     C37540   2.013   7.307   8.386 -0.6831  0.2534  1.3435
  273MOL0     C37541   2.050   7.436   8.379  0.7912 -0.5120 -0.3684
  273MOL0     C37542   2.164   7.482   8.453 -0.4867  0.1682  0.4567
  273MOL0     C37543   2.250   7.386   8.519  0.2605 -0.0058 -0.3696
  273MOL0     O37544   2.360   7.419   8.599 -0.1519  0.0894  1.2193
  273MOL0     C37545   2.482   7.409   8.529  0.3608 -0.0227  0.2111
  273MOL0     C37546   2.597   7.491   8.592 -0.2217 -0.1391  0.1050
  273MOL0     C37547   2.722   7.487   8.509 -0.0047 -0.6269 -0.6224
  273MOL0     C37548   2.846   7.555   8.579 -0.1467  0.0635 -0.5424
  273MOL0     C37549   2.977   7.555   8.498  0.2627 -0.6728 -0.5381
  273MOL0     C37550   3.083   7.631   8.585  0.0607  0.4262 -0.0654
  273MOL0     C37551   3.216   7.610   8.520  0.1239  0.0843  0.8409
  273MOL0     C37552   3.243   7.716   8.415 -0.6993  0.6347 -0.6528
  273MOL0     N37553   3.387   7.724   8.395  0.1151 -0.5803  0.1662
  273MOL0     C37554   3.449   7.629   8.329 -0.3057  0.9102  0.3574
  273MOL0     C37555   3.575   7.673   8.324 -0.1411 -0.4530  0.8452
  273MOL0     C37556   3.681   7.594   8.252  0.7393  0.1580 -0.2087
  273MOL0     C37557   3.693   7.638   8.100 -0.8027 -0.0355 -0.4544
  273MOL0     C37558   3.816   7.595   8.020 -0.5077 -0.1984  0.2485
  273MOL0     C37559   3.818   7.450   7.967  0.7856  0.4111 -0.2161
  273MOL0     O37560   3.777   7.350   8.070 -0.6384 -1.1036  0.4950
  273MOL0     C37561   3.858   7.296   8.155  0.1743 -0.2742 -0.4352
  273MOL0     C37562   3.987   7.328   8.176 -1.2646  0.2781 -0.6752
  273MOL0     C37563   4.074   7.269   8.271 -0.6268  0.3191  0.8666
  273MOL0     C37564   4.216   7.325   8.282 -1.1036  0.7227  0.8357
  273MOL0     C37565   4.023   7.167   8.346 -0.3421  0.6266  1.7982
  273MOL0     C37566   4.097   7.090   8.450  1.1529 -0.2421  0.5677
  273MOL0     O37567   4.230   7.110   8.460  0.0198  0.3670 -0.3737
  273MOL0     C37568   4.318   7.060   8.552 -0.7299  0.0656  0.9637
  273MOL0     C37569   4.291   6.968   8.653  0.0567  1.1514 -0.8095
  273MOL0     C37570   4.390   6.916   8.738 -0.0227 -0.4867  0.2674
  273MOL0     C37571   4.519   6.960   8.716 -0.2638  0.0205 -0.0227
  273MOL0     O37572   4.631   6.910   8.792  0.0142 -0.2324  0.4440
  273MOL0     C37573   4.639   6.768   8.816 -0.1197 -0.1949  0.1604
  273MOL0     C37574   4.779   6.705   8.809 -0.3620  0.1034 -0.2686
  273MOL0     C37575   4.871   6.738   8.933  0.8117 -0.1101  0.3190
  273MOL0     C37576   5.023   6.704   8.918 -0.3188 -0.3667 -0.9955
  273MOL0     C37577   5.094   6.774   8.806 -0.3732 -0.1216 -0.1241
  273MOL0     C37578   5.240   6.706   8.797  0.0582 -0.2752 -0.5417
  273MOL0     C37579   5.338   6.810   8.727 -0.0710 -0.3354 -0.4215
  273MOL0     C37580   5.361   6.793   8.575 -0.2251 -0.1528  1.1604
  273MOL0    Cl37581   5.213   6.797   8.471 -0.5378 -0.1220 -0.0674
  273MOL0     C37582   4.558   7.055   8.615  0.0638  0.5665  0.0175
  273MOL0     C37583   4.457   7.104   8.540  0.9601 -1.6522 -0.3830
  273MOL0     O37584   4.026   7.020   8.533  0.0490  0.4684 -0.4633
  273MOL0     C37585   3.886   7.132   8.332  0.6942 -0.1978 -0.0499
  273MOL0     C37586   3.807   7.201   8.239  0.2310 -0.5600 -0.3553
  273MOL0     N37587   3.582   7.798   8.370 -0.2459  0.7128  0.2759
  273MOL0     N37588   3.469   7.824   8.423 -0.1931  0.0830  0.1975
  273MOL0     C37589   2.208   7.251   8.524  0.8110  0.4673 -0.3147
  273MOL0     C37590   2.094   7.218   8.455  0.1024  0.3778  0.2008
  273MOL0     C37591   1.749   7.291   8.156  0.4412 -0.8489  0.5004
  273MOL0     C37592   1.640   7.333   8.243  0.1797  0.0307  0.9793
  273MOL0     C37593   1.513   7.313   8.213 -1.5334  0.2940  0.4876
  273MOL0     C37594   1.478   7.263   8.086  0.0973 -0.0113 -0.8621
  273MOL0     O37595   1.347   7.243   8.077  0.2142 -0.1475 -0.4379
  273MOL0     C37596   1.282   7.250   7.952 -0.2675  0.8034 -0.3665
  273MOL0     C37597   1.133   7.239   7.990 -0.4573  0.0051 -0.0723
  273MOL0     C37598   1.069   7.367   8.022 -0.6629  0.7263 -0.3457
  273MOL0     C37599   1.114   7.426   8.158  0.4827 -0.1915  1.0791
  273MOL0     C37600   1.038   7.363   8.260 -1.0212  0.3479  0.2624
  273MOL0     C37601   0.989   7.301   8.349  0.2894 -0.4151 -0.0256
  273MOL0     C37602   1.581   7.220   7.999 -0.1112  0.2529 -0.9782
  273MOL0     C37603   1.717   7.237   8.025 -0.0519 -0.2774  0.4871
  273MOL0     C37604   1.807   7.176   7.921  0.4716 -1.0472  0.3238
  273MOL0     H37605   1.984   7.508   8.332 -0.0990  0.9938  2.8722
  273MOL0     H37606   2.190   7.586   8.467 -0.2944  0.1965 -0.1263
  273MOL0     H37607   2.465   7.428   8.422  0.2892 -1.4988 -0.0503
  273MOL0     H37608   2.525   7.309   8.533 -0.6843 -0.5308 -0.7882
  273MOL0     H37609   2.567   7.596   8.596 -1.1696 -0.1991 -2.9606
  273MOL0     H37610   2.619   7.455   8.693  1.5941 -3.4879 -1.3036
  273MOL0     H37611   2.764   7.391   8.480  0.0340 -1.3112  1.5277
  273MOL0     H37612   2.701   7.541   8.416 -2.1771  0.5602  0.4899
  273MOL0     H37613   2.818   7.649   8.628 -0.9876  0.0293 -0.9471
  273MOL0     H37614   2.867   7.490   8.665  2.5530  1.0663 -0.3258
  273MOL0     H37615   2.967   7.610   8.404 -1.6778  0.2579  0.1427
  273MOL0     H37616   3.009   7.451   8.485  1.9875 -0.2549  0.1452
  273MOL0     H37617   3.053   7.735   8.600  0.0561  0.7796 -2.1993
  273MOL0     H37618   3.090   7.580   8.682 -1.1412  1.9257  0.8483
  273MOL0     H37619   3.234   7.512   8.475  2.2576  0.5018  0.6893
  273MOL0     H37620   3.289   7.615   8.602  1.3098 -1.0447 -0.1041
  273MOL0     H37621   3.185   7.693   8.325  0.7653  0.9549 -1.6989
  273MOL0     H37622   3.203   7.811   8.452 -0.6749  0.2169  0.4960
  273MOL0     H37623   3.416   7.529   8.302  0.2654  1.1821 -1.4668
  273MOL0     H37624   3.655   7.488   8.253 -1.5636  0.5553 -3.4380
  273MOL0     H37625   3.779   7.601   8.300 -0.3511 -0.2755  2.2381
  273MOL0     H37626   3.602   7.618   8.042 -0.9231 -2.3647  0.4088
  273MOL0     H37627   3.688   7.747   8.104  0.6524  0.0154  2.7690
  273MOL0     H37628   3.833   7.655   7.930 -2.6614  2.6624  1.5922
  273MOL0     H37629   3.903   7.609   8.085 -0.3113  1.1426 -0.2739
  273MOL0     H37630   3.749   7.438   7.884  0.5181 -0.7333  0.1572
  273MOL0     H37631   3.918   7.429   7.927  1.7676 -0.8978  2.5981
  273MOL0     H37632   4.028   7.409   8.116  0.9976  1.0721  1.7725
  273MOL0     H37633   4.257   7.368   8.374  2.3028  0.1019 -0.2571
  273MOL0     H37634   4.222   7.400   8.203  0.6763 -2.1213 -1.9484
  273MOL0     H37635   4.281   7.239   8.262 -3.0753 -0.8563  0.9160
  273MOL0     H37636   4.196   6.915   8.655  1.0371 -0.6648  0.9790
  273MOL0     H37637   4.366   6.849   8.821 -2.5077  2.0717  1.7982
  273MOL0     H37638   4.609   6.756   8.920  0.1785  1.8854  0.5366
  273MOL0     H37639   4.564   6.723   8.750  0.1239  0.8724 -0.8763
  273MOL0     H37640   4.766   6.597   8.810 -0.6308  0.1332  0.7727
  273MOL0     H37641   4.827   6.732   8.715  1.7264 -0.3849  0.5984
  273MOL0     H37642   4.818   6.688   9.016 -0.2989 -0.4502 -0.5650
  273MOL0     H37643   4.867   6.844   8.957  0.8426 -0.4146  1.7722
  273MOL0     H37644   5.036   6.597   8.901  3.5396 -0.8442  3.0759
  273MOL0     H37645   5.072   6.733   9.012 -1.7486  1.5067 -0.7507
  273MOL0     H37646   5.038   6.757   8.713 -0.0424  1.3638 -0.6107
  273MOL0     H37647   5.103   6.882   8.820  1.8173 -0.3341  0.4554
  273MOL0     H37648   5.233   6.606   8.754 -1.3391 -0.5862  0.3640
  273MOL0     H37649   5.273   6.686   8.899 -0.7486 -2.1678 -0.6170
  273MOL0     H37650   5.437   6.797   8.772 -0.8110 -2.0946  0.8220
  273MOL0     H37651   5.313   6.915   8.743 -0.7918 -0.5573 -0.0599
  273MOL0     H37652   5.414   6.702   8.545 -1.0440 -0.6476  1.1645
  273MOL0     H37653   5.428   6.868   8.533 -0.2822 -0.1926  0.9937
  273MOL0     H37654   4.659   7.089   8.597  0.7740 -1.6586 -0.5895
  273MOL0     H37655   4.476   7.180   8.465  1.5269  0.8049  2.0672
  273MOL0     H37656   3.840   7.061   8.400  2.6566  1.9671  3.9094
  273MOL0     H37657   3.701   7.178   8.237  0.2340 -0.6053 -0.0126
  273MOL0     H37658   2.273   7.181   8.574 -1.6141  0.1415  2.6410
  273MOL0     H37659   2.060   7.116   8.462 -0.7187  0.7807  4.7663
  273MOL0     H37660   1.668   7.389   8.332  0.3538  0.1875  0.8298
  273MOL0     H37661   1.431   7.336   8.280 -0.3819  1.9906  1.3913
  273MOL0     H37662   1.313   7.333   7.888  0.4943  3.0007  2.6302
  273MOL0     H37663   1.301   7.161   7.892  1.2051 -0.8180  2.2999
  273MOL0     H37664   1.124   7.171   8.076  0.7454  0.6350  0.5892
  273MOL0     H37665   1.077   7.192   7.909 -1.6112 -1.4859  1.4995
  273MOL0     H37666   1.095   7.434   7.939  4.4281  0.9717  1.1171
  273MOL0     H37667   0.960   7.358   8.022 -0.6125 -0.3122  1.2155
  273MOL0     H37668   1.096   7.533   8.172  0.7220 -0.2116  1.5720
  273MOL0     H37669   1.220   7.417   8.182  1.0387  0.1256 -1.0556
  273MOL0     H37670   0.925   7.262   8.426 -0.3937  3.0221  1.3366
  273MOL0     H37671   1.553   7.170   7.907  0.2363  0.4432 -1.1913
  273MOL0     H37672   1.753   7.172   7.827  2.3857  1.2207 -0.9834
  273MOL0     H37673   1.900   7.232   7.905  0.6389 -1.8298 -1.7300
  273MOL0     H37674   1.842   7.079   7.957 -1.2380 -1.5712  0.6594
  274MOL0     O37675   9.569   3.832   3.517 -0.6135  0.4577 -0.3311
  274MOL0     C37676   9.485   3.807   3.434  0.4694  1.2607 -0.2641
  274MOL0     O37677   9.511   3.778   3.304  0.4145  0.0608  0.1542
  274MOL0     C37678   9.635   3.766   3.258 -1.7098  0.1497  0.5186
  274MOL0     C37679   9.682   3.852   3.156 -0.6608 -0.0538  0.6544
  274MOL0     C37680   9.811   3.827   3.105 -0.2105  0.7456 -0.9368
  274MOL0     C37681   9.891   3.726   3.158 -0.4445  0.2659 -0.7407
  274MOL0     O37682  10.010   3.692   3.098 -0.5025  0.3128 -0.4141
  274MOL0     C37683  10.124   3.728   3.178  0.3349 -0.9657  0.7149
  274MOL0     C37684  10.177   3.865   3.125  0.7436  1.1648  0.0247
  274MOL0     C37685  10.312   3.897   3.178 -0.5852 -0.1595  0.2671
  274MOL0     C37686  10.427   3.831   3.103 -0.8249  0.3979 -0.5034
  274MOL0     C37687  10.568   3.866   3.158 -0.1945 -0.4057  0.6059
  274MOL0     C37688  10.602   3.854   3.305  0.1679 -0.2920 -0.3849
  274MOL0     C37689  10.756   3.873   3.334  0.3622  0.6250 -0.6221
  274MOL0     C37690  10.800   3.860   3.481 -0.1754 -0.5868  0.4387
  274MOL0     N37691  10.728   3.944   3.581 -0.6739 -0.0693 -0.1048
  274MOL0     C37692  10.660   3.890   3.687  0.2603  0.3730 -0.0768
  274MOL0     C37693  10.638   3.992   3.764  0.1988 -0.8543  0.1707
  274MOL0     C37694  10.569   3.996   3.896 -0.1992  0.7261  0.1834
  274MOL0     C37695  10.612   4.112   3.981  0.7013 -0.3882 -0.3042
  274MOL0     C37696  10.762   4.094   4.025  0.6277 -0.3512  0.6203
  274MOL0     C37697  10.809   4.227   4.092 -0.2256  0.2440  0.4774
  274MOL0     O37698  10.932   4.201   4.174 -0.0836  0.0337  0.4197
  274MOL0     C37699  11.052   4.208   4.107 -0.8421  0.1588 -0.2145
  274MOL0     C37700  11.152   4.124   4.141  0.4766  0.5043 -0.4097
  274MOL0     C37701  11.279   4.130   4.095 -0.9518  1.7482  0.3136
  274MOL0     C37702  11.363   4.011   4.140  0.6492  0.3433 -0.3146
  274MOL0     C37703  11.313   4.216   3.991  0.6025  0.4132  0.2279
  274MOL0     C37704  11.449   4.240   3.941 -0.7604 -0.4043 -0.0932
  274MOL0     O37705  11.478   4.366   3.893 -0.6108  0.5738  0.0286
  274MOL0     C37706  11.612   4.395   3.873 -0.3466 -0.7991  0.2451
  274MOL0     C37707  11.711   4.370   3.971  0.2781 -0.3200 -0.3657
  274MOL0     C37708  11.849   4.389   3.943  0.0031  0.4694  0.7135
  274MOL0     C37709  11.880   4.430   3.810  1.0222 -0.3804 -0.1565
  274MOL0     O37710  12.010   4.467   3.765 -0.8778 -0.0369  0.1434
  274MOL0     C37711  12.120   4.419   3.845  0.4706  0.3346  0.0235
  274MOL0     C37712  12.230   4.365   3.761 -0.4431  0.0896  0.0468
  274MOL0     C37713  12.361   4.376   3.829 -1.3854  0.6420 -0.2275
  274MOL0     C37714  12.471   4.303   3.742  0.6615  0.3091  0.3682
  274MOL0     C37715  12.607   4.337   3.785 -0.6441 -0.0898 -0.2725
  274MOL0     C37716  12.703   4.352   3.666  0.0227  0.2091  0.2186
  274MOL0     C37717  12.706   4.240   3.565  0.2772  0.2767 -0.6062
  274MOL0     C37718  12.832   4.231   3.480  1.0213 -0.5243  0.8520
  274MOL0    Cl37719  12.839   4.084   3.371  0.2841  0.2458 -0.0318
  274MOL0     C37720  11.781   4.455   3.718  0.3137 -0.7022 -0.0391
  274MOL0     C37721  11.646   4.433   3.744 -0.1395  0.1136  0.3751
  274MOL0     O37722  11.528   4.147   3.936 -0.5035 -0.4669 -1.0195
  274MOL0     C37723  11.211   4.311   3.952 -0.0417 -1.0494  0.6198
  274MOL0     C37724  11.081   4.301   4.002 -0.6264  0.2009 -0.7896
  274MOL0     N37725  10.689   4.108   3.708  0.5674  0.3609 -0.5303
  274MOL0     N37726  10.755   4.073   3.606 -0.8759  0.3291  0.0004
  274MOL0     C37727   9.839   3.644   3.259 -0.3290  1.0467 -0.4493
  274MOL0     C37728   9.712   3.662   3.312  0.0018 -0.1545  0.0115
  274MOL0     C37729   9.349   3.796   3.481  0.7148 -0.2114  0.5566
  274MOL0     C37730   9.310   3.719   3.590 -0.7115 -0.4445 -0.0422
  274MOL0     C37731   9.187   3.719   3.650 -0.1768  0.3542 -0.1102
  274MOL0     C37732   9.086   3.787   3.588 -0.2321  0.7730  0.3615
  274MOL0     O37733   8.962   3.803   3.633  0.5021  0.0117  0.3627
  274MOL0     C37734   8.904   3.720   3.739 -1.4667 -0.1851 -0.2857
  274MOL0     C37735   8.755   3.736   3.755  0.6496 -0.7444 -0.1386
  274MOL0     C37736   8.678   3.801   3.632  0.5684  0.9654  0.8052
  274MOL0     C37737   8.521   3.785   3.647 -1.3766 -0.2104  0.3037
  274MOL0     C37738   8.472   3.647   3.623  0.1919 -0.0861 -0.3187
  274MOL0     C37739   8.433   3.536   3.601 -0.0802  0.5799 -1.1518
  274MOL0     C37740   9.110   3.857   3.466  0.2126 -0.7704  0.0893
  274MOL0     C37741   9.249   3.863   3.417  0.7772 -0.0473  0.9593
  274MOL0     C37742   9.261   3.950   3.290  0.2982  0.8031 -0.4485
  274MOL0     H37743   9.613   3.928   3.121 -1.0691  1.0502  3.5888
  274MOL0     H37744   9.857   3.886   3.027  1.1223  0.7619 -0.1677
  274MOL0     H37745  10.205   3.660   3.151 -0.4343 -1.1453 -1.3781
  274MOL0     H37746  10.107   3.739   3.285 -1.4595 -0.4357  0.4154
  274MOL0     H37747  10.173   3.871   3.015  3.7060 -1.4741 -0.3810
  274MOL0     H37748  10.112   3.946   3.159  1.6790  1.5705  0.8846
  274MOL0     H37749  10.326   4.004   3.157 -1.9008  0.1740  1.0010
  274MOL0     H37750  10.332   3.877   3.284  1.8620  0.4208 -0.0194
  274MOL0     H37751  10.425   3.723   3.120 -3.5638  0.6934  1.8463
  274MOL0     H37752  10.414   3.848   2.996 -1.9823 -0.6198 -0.5463
  274MOL0     H37753  10.587   3.971   3.131 -0.4149 -0.0915  1.6303
  274MOL0     H37754  10.642   3.806   3.104  1.2871  1.0942  0.8655
  274MOL0     H37755  10.553   3.931   3.365  2.7822  3.6064 -2.8311
  274MOL0     H37756  10.572   3.757   3.346 -1.5729 -0.2694 -1.5056
  274MOL0     H37757  10.781   3.974   3.302 -1.6801  2.7061  3.5887
  274MOL0     H37758  10.806   3.795   3.276 -1.7156 -1.8679  0.6939
  274MOL0     H37759  10.783   3.754   3.505  2.6253 -0.6598  2.6421
  274MOL0     H37760  10.905   3.887   3.493 -0.2724 -1.0192  2.7101
  274MOL0     H37761  10.645   3.786   3.716  0.7539  0.8562  2.0412
  274MOL0     H37762  10.587   3.903   3.951 -0.3638  0.3624 -0.3650
  274MOL0     H37763  10.462   3.993   3.874 -0.1277 -3.5627 -0.4740
  274MOL0     H37764  10.607   4.204   3.923  0.4796  1.4722  2.4997
  274MOL0     H37765  10.548   4.132   4.066  3.0831  0.1410  1.4750
  274MOL0     H37766  10.762   4.011   4.097 -1.7552 -1.9659 -1.0894
  274MOL0     H37767  10.828   4.072   3.941  1.7713  3.1797  0.4311
  274MOL0     H37768  10.829   4.292   4.006 -1.3121 -0.7410 -0.5639
  274MOL0     H37769  10.739   4.271   4.164 -0.0212 -0.7717  1.3147
  274MOL0     H37770  11.133   4.045   4.213  0.6210  0.0548 -0.8631
  274MOL0     H37771  11.448   3.991   4.075  0.0480 -0.3616 -0.8969
  274MOL0     H37772  11.304   3.919   4.146  0.4778  0.5364  1.6402
  274MOL0     H37773  11.397   4.030   4.243 -3.9760 -0.3944  1.6115
  274MOL0     H37774  11.687   4.341   4.073  1.6599 -1.6553 -0.3763
  274MOL0     H37775  11.921   4.377   4.023 -2.5693  0.8803  3.2866
  274MOL0     H37776  12.161   4.494   3.913  2.5492  0.1443 -0.9692
  274MOL0     H37777  12.085   4.340   3.912  1.5711 -0.8874 -0.7918
  274MOL0     H37778  12.221   4.256   3.751 -1.6429  0.0319  1.4006
  274MOL0     H37779  12.224   4.412   3.663  0.0721  0.4612  0.1829
  274MOL0     H37780  12.363   4.337   3.931  1.5918  2.2724  0.4536
  274MOL0     H37781  12.385   4.482   3.846 -2.8837  0.7377  1.5512
  274MOL0     H37782  12.456   4.332   3.637 -3.4500 -1.1707  0.3589
  274MOL0     H37783  12.462   4.194   3.748 -0.1281  0.3660  0.2994
  274MOL0     H37784  12.613   4.429   3.845  0.6437 -0.3066 -0.0396
  274MOL0     H37785  12.637   4.258   3.854  1.4394 -0.0941 -1.1104
  274MOL0     H37786  12.807   4.362   3.699  0.1559  1.8019 -0.6030
  274MOL0     H37787  12.689   4.446   3.612  2.3224  0.1058 -0.6335
  274MOL0     H37788  12.613   4.251   3.508 -1.0394  1.0396  1.5930
  274MOL0     H37789  12.699   4.149   3.623  1.0833  1.1856  0.9787
  274MOL0     H37790  12.924   4.241   3.539  1.7673 -1.4409 -0.1295
  274MOL0     H37791  12.835   4.318   3.414 -0.5243 -1.5188 -0.5825
  274MOL0     H37792  11.803   4.494   3.619 -4.3409 -1.1655 -1.5210
  274MOL0     H37793  11.579   4.442   3.659  0.8047  0.0961 -0.3896
  274MOL0     H37794  11.225   4.393   3.883  4.2754 -1.1885  1.0338
  274MOL0     H37795  11.013   4.379   3.971  0.3100  0.6949 -1.6447
  274MOL0     H37796   9.904   3.567   3.298 -1.6392  1.0494  1.9375
  274MOL0     H37797   9.664   3.596   3.383 -0.1042 -1.5706 -1.3270
  274MOL0     H37798   9.392   3.666   3.637  0.0298 -0.7044 -1.5544
  274MOL0     H37799   9.163   3.645   3.726  0.7189 -2.4679 -2.3581
  274MOL0     H37800   8.928   3.617   3.711  2.1566  1.2715 -3.3881
  274MOL0     H37801   8.956   3.737   3.834 -1.1072  3.8471 -1.0452
  274MOL0     H37802   8.741   3.804   3.839 -2.3039 -1.5528  0.1069
  274MOL0     H37803   8.711   3.640   3.783  1.7637 -1.0410  0.6930
  274MOL0     H37804   8.707   3.906   3.635  1.0543  0.9062 -0.6259
  274MOL0     H37805   8.713   3.758   3.537  2.4001  2.9402  0.5103
  274MOL0     H37806   8.468   3.857   3.585 -1.4133 -0.3626  0.1587
  274MOL0     H37807   8.505   3.828   3.747 -1.1156  1.3867 -0.3121
  274MOL0     H37808   8.411   3.432   3.586  2.7496  0.0149 -2.0557
  274MOL0     H37809   9.032   3.920   3.425  0.6921  1.6978  2.6646
  274MOL0     H37810   9.230   3.893   3.203  2.9614 -2.7505  0.6960
  274MOL0     H37811   9.198   4.038   3.310  0.3752  0.6499  0.5334
  274MOL0     H37812   9.362   3.992   3.283  1.2912 -0.6215  3.2306
  275MOL0     O37813   3.402   6.352   3.679 -0.3090  0.0496 -0.3440
  275MOL0     C37814   3.369   6.236   3.658 -0.1152  0.0995 -0.8136
  275MOL0     O37815   3.450   6.124   3.661  0.3028 -0.2379 -0.2027
  275MOL0     C37816   3.581   6.136   3.688 -0.3036 -0.3754 -0.4075
  275MOL0     C37817   3.633   6.195   3.807  0.7869 -0.1667 -0.4819
  275MOL0     C37818   3.766   6.200   3.822 -0.4199  0.3040 -0.5576
  275MOL0     C37819   3.856   6.140   3.739  1.0694  0.5809 -0.4122
  275MOL0     O37820   3.992   6.154   3.775  0.3680 -0.3492  0.6241
  275MOL0     C37821   4.099   6.134   3.675 -0.0211  0.0954  0.2820
  275MOL0     C37822   4.128   6.264   3.589  0.2477 -0.2613 -0.3636
  275MOL0     C37823   4.280   6.268   3.566 -0.1955 -0.1455  1.1747
  275MOL0     C37824   4.331   6.403   3.526 -0.9824 -0.0251  0.2804
  275MOL0     C37825   4.491   6.405   3.510 -0.0474  0.1025  0.3235
  275MOL0     C37826   4.524   6.538   3.450 -0.4797  0.2042 -0.5065
  275MOL0     C37827   4.675   6.543   3.438  0.6936 -0.6315  0.3064
  275MOL0     C37828   4.714   6.688   3.424  0.6262  0.9953  0.6787
  275MOL0     N37829   4.855   6.724   3.396 -0.1167  0.3523 -0.6866
  275MOL0     C37830   4.915   6.721   3.278 -0.3146 -0.2864  0.1631
  275MOL0     C37831   5.038   6.781   3.297  0.0069  0.1992  0.7910
  275MOL0     C37832   5.135   6.792   3.180 -0.0785 -0.0487 -0.3150
  275MOL0     C37833   5.280   6.810   3.220 -0.7669 -0.1348  0.6164
  275MOL0     C37834   5.361   6.818   3.085  0.1523 -0.9162  0.1546
  275MOL0     C37835   5.506   6.782   3.113 -0.0647 -0.0863 -0.2318
  275MOL0     O37836   5.564   6.865   3.217  0.2740  0.1324 -0.0965
  275MOL0     C37837   5.703   6.874   3.225  0.0155  0.4103  0.2385
  275MOL0     C37838   5.756   6.970   3.309  1.0292  0.4493 -0.3489
  275MOL0     C37839   5.896   6.997   3.311  0.2508 -0.4642 -0.2748
  275MOL0     C37840   5.938   7.111   3.407 -1.0370  0.7666 -0.6892
  275MOL0     C37841   5.976   6.936   3.215  0.1367 -0.1328 -0.8513
  275MOL0     C37842   6.112   6.961   3.198 -0.2113 -0.5911  0.2154
  275MOL0     O37843   6.150   6.962   3.069  0.2377 -0.3138  0.5270
  275MOL0     C37844   6.279   6.996   3.035 -0.3686 -0.2528  0.3593
  275MOL0     C37845   6.299   7.113   2.965 -0.4294 -0.4445  0.0887
  275MOL0     C37846   6.422   7.154   2.919 -0.4208 -0.0142 -0.1141
  275MOL0     C37847   6.532   7.076   2.943  0.2039 -0.8334  0.8518
  275MOL0     O37848   6.657   7.127   2.914 -0.0673 -0.6978 -0.4967
  275MOL0     C37849   6.776   7.050   2.936 -0.4905  0.3344 -0.7738
  275MOL0     C37850   6.896   7.120   2.869  0.2708  0.0010  0.2601
  275MOL0     C37851   7.016   7.099   2.951 -0.2136 -0.2776  0.0052
  275MOL0     C37852   7.137   7.163   2.872 -0.1341  0.0234  0.2956
  275MOL0     C37853   7.269   7.150   2.944 -0.1927 -0.5190  0.4263
  275MOL0     C37854   7.317   6.997   2.960  0.8446  0.5100  0.1824
  275MOL0     C37855   7.458   6.999   3.031  0.2108  0.0502 -0.6336
  275MOL0     C37856   7.539   6.878   2.984 -0.1845 -0.1350 -0.0845
  275MOL0    Cl37857   7.562   6.869   2.800 -0.3577  0.0604 -1.1349
  275MOL0     C37858   6.516   6.959   3.020  0.0428  1.2173  0.8233
  275MOL0     C37859   6.389   6.911   3.066  0.5978  0.3757 -0.3520
  275MOL0     O37860   6.186   6.963   3.296 -0.4376  0.5031  0.0864
  275MOL0     C37861   5.919   6.832   3.134  0.6245 -0.2870 -0.3879
  275MOL0     C37862   5.786   6.805   3.138 -0.9772  0.0526 -0.1321
  275MOL0     N37863   5.050   6.809   3.428  0.2210  0.5918  0.5500
  275MOL0     N37864   4.942   6.780   3.485  0.0397 -0.2096  0.0221
  275MOL0     C37865   3.802   6.069   3.625  0.4013  0.1227  0.8674
  275MOL0     C37866   3.665   6.069   3.598 -0.4352 -0.2337  0.0666
  275MOL0     C37867   3.230   6.218   3.624 -0.4891  0.6466 -1.0601
  275MOL0     C37868   3.191   6.115   3.531 -0.0968 -0.6127 -0.7954
  275MOL0     C37869   3.059   6.092   3.497 -0.3148  0.8066 -0.3528
  275MOL0     C37870   2.955   6.161   3.556  0.7664  0.2747 -0.1598
  275MOL0     O37871   2.830   6.126   3.510  0.1587 -0.0749 -0.0375
  275MOL0     C37872   2.715   6.185   3.578  0.0404 -0.3352 -0.7619
  275MOL0     C37873   2.665   6.093   3.688  0.5111  0.1747  0.4005
  275MOL0     C37874   2.528   6.133   3.730 -0.2935 -0.4235  0.7000
  275MOL0     C37875   2.421   6.090   3.632  0.3997 -0.0738  0.3870
  275MOL0     C37876   2.286   6.127   3.679  0.3422  0.1033 -0.2695
  275MOL0     C37877   2.178   6.145   3.729  0.7222  0.3446  0.0842
  275MOL0     C37878   2.986   6.254   3.658 -0.1607  0.5914 -0.6538
  275MOL0     C37879   3.125   6.285   3.689 -0.3214  0.6599 -0.1703
  275MOL0     C37880   3.155   6.376   3.817 -0.2681 -0.1773  0.9179
  275MOL0     H37881   3.565   6.248   3.872 -1.0181  0.2851 -2.6059
  275MOL0     H37882   3.799   6.262   3.905 -0.9749  0.3039 -0.3299
  275MOL0     H37883   4.083   6.049   3.608 -0.9208  2.5202 -2.8782
  275MOL0     H37884   4.188   6.114   3.735 -0.4222 -0.3607  0.7345
  275MOL0     H37885   4.068   6.273   3.497  1.9018 -1.8508 -1.6650
  275MOL0     H37886   4.106   6.358   3.641  3.1299  0.2844  0.0054
  275MOL0     H37887   4.334   6.234   3.655 -0.9502 -1.0581  1.3079
  275MOL0     H37888   4.306   6.196   3.488  0.6685  0.8136  0.5496
  275MOL0     H37889   4.283   6.444   3.437 -1.5179 -0.0637  0.5464
  275MOL0     H37890   4.313   6.477   3.605  0.0213  1.9929 -1.2839
  275MOL0     H37891   4.527   6.331   3.439 -0.1343  2.1480 -2.0106
  275MOL0     H37892   4.542   6.385   3.604 -0.5653  0.4306  0.6831
  275MOL0     H37893   4.479   6.563   3.353  1.3707 -0.8794 -1.7185
  275MOL0     H37894   4.498   6.606   3.531  0.7356 -0.3650  0.3893
  275MOL0     H37895   4.709   6.496   3.346 -1.3843 -0.5387 -0.5714
  275MOL0     H37896   4.727   6.501   3.525  1.9560 -1.5176 -0.8356
  275MOL0     H37897   4.641   6.740   3.362 -1.0874 -1.6910  0.2682
  275MOL0     H37898   4.690   6.725   3.524  1.1391  0.8006  0.8793
  275MOL0     H37899   4.872   6.680   3.187 -2.0643 -0.2222  0.9168
  275MOL0     H37900   5.103   6.871   3.111  1.5233 -2.2417 -3.8647
  275MOL0     H37901   5.128   6.698   3.124 -1.3564 -1.3438  1.8700
  275MOL0     H37902   5.292   6.902   3.278  0.5676  0.1777 -0.1112
  275MOL0     H37903   5.312   6.731   3.288 -0.6125 -0.1867  0.4848
  275MOL0     H37904   5.327   6.746   3.010  0.8042 -1.8275  0.7205
  275MOL0     H37905   5.351   6.916   3.037 -0.2068 -0.4939  1.0653
  275MOL0     H37906   5.527   6.681   3.151  0.7351 -0.1712 -0.8677
  275MOL0     H37907   5.556   6.803   3.018 -0.7619 -2.0925 -1.1075
  275MOL0     H37908   5.698   7.008   3.392 -1.4122 -2.1992 -0.6767
  275MOL0     H37909   6.030   7.154   3.366 -0.2652 -0.7370 -0.6420
  275MOL0     H37910   5.960   7.067   3.505 -2.5231  0.6044 -0.4103
  275MOL0     H37911   5.864   7.188   3.427  0.1794  1.7137  0.3359
  275MOL0     H37912   6.203   7.159   2.942 -0.7333 -0.7675  0.6779
  275MOL0     H37913   6.425   7.250   2.867  2.1102 -0.0302 -0.1238
  275MOL0     H37914   6.787   7.054   3.045 -0.1503 -1.5256 -0.7021
  275MOL0     H37915   6.767   6.945   2.905 -2.0174 -0.0673  0.8642
  275MOL0     H37916   6.902   7.081   2.767  2.5143 -2.5333  1.2119
  275MOL0     H37917   6.875   7.227   2.863  2.1163  0.3270 -1.4728
  275MOL0     H37918   7.038   6.992   2.951 -1.6811 -0.6506 -2.1197
  275MOL0     H37919   7.012   7.135   3.054 -0.5036 -1.0768  0.2809
  275MOL0     H37920   7.105   7.266   2.858 -2.2586 -0.5577  0.5070
  275MOL0     H37921   7.144   7.108   2.778  1.1240 -0.4864  0.6657
  275MOL0     H37922   7.341   7.197   2.876  0.3324 -1.3334  0.4069
  275MOL0     H37923   7.279   7.202   3.039  0.2012 -1.9399  1.1878
  275MOL0     H37924   7.316   6.937   2.868 -1.8487  1.3449 -0.4554
  275MOL0     H37925   7.246   6.954   3.031 -2.9543  3.3300 -1.5283
  275MOL0     H37926   7.444   6.992   3.139 -1.2298  1.1898 -0.7087
  275MOL0     H37927   7.503   7.096   3.009  1.5817 -0.7211 -1.3000
  275MOL0     H37928   7.503   6.792   3.041 -0.2954  1.3854  2.3365
  275MOL0     H37929   7.643   6.878   3.019  0.1855 -0.8552 -1.1528
  275MOL0     H37930   6.602   6.897   3.042 -1.4981 -1.1026  0.6577
  275MOL0     H37931   6.384   6.818   3.122 -0.5295  1.3813  1.3157
  275MOL0     H37932   5.983   6.779   3.064 -0.7701 -0.6339 -1.4241
  275MOL0     H37933   5.750   6.734   3.064 -0.9378 -0.5672  0.4390
  275MOL0     H37934   3.866   6.021   3.551  0.2316 -0.2224  0.9421
  275MOL0     H37935   3.626   6.026   3.506  0.3832 -1.2607  0.1730
  275MOL0     H37936   3.272   6.056   3.490 -1.4084 -2.1501 -1.2590
  275MOL0     H37937   3.043   6.015   3.421  0.6602  1.1189 -0.8988
  275MOL0     H37938   2.743   6.282   3.620 -0.7138 -0.2429 -0.4717
  275MOL0     H37939   2.641   6.197   3.499 -2.0627 -0.8956  1.0297
  275MOL0     H37940   2.723   6.105   3.780  0.3126  2.2045  0.3066
  275MOL0     H37941   2.674   5.988   3.660  0.2012  0.1237  0.4936
  275MOL0     H37942   2.513   6.080   3.824  2.0952 -0.4783  1.1217
  275MOL0     H37943   2.537   6.242   3.733 -0.4144 -0.3219 -1.3398
  275MOL0     H37944   2.415   5.981   3.635 -1.6554 -0.0193  3.3082
  275MOL0     H37945   2.436   6.132   3.532 -0.6571 -1.6683 -0.4919
  275MOL0     H37946   2.077   6.150   3.766 -0.6576  0.9106 -3.3136
  275MOL0     H37947   2.905   6.295   3.718 -0.6947  0.7485 -1.4628
  275MOL0     H37948   3.215   6.317   3.886 -0.9396 -0.3134  1.3994
  275MOL0     H37949   3.201   6.470   3.784  0.8344 -1.2043 -0.5999
  275MOL0     H37950   3.057   6.402   3.859 -0.8045  4.2462 -2.2709
  276MOL0     O37951   1.492   7.089   7.022  0.1612  0.1599  0.6191
  276MOL0     C37952   1.515   7.209   7.031  1.0372  0.6208 -0.1597
  276MOL0     O37953   1.630   7.268   7.006 -0.2921  0.4169  0.3683
  276MOL0     C37954   1.738   7.206   6.942 -0.5737 -1.1194  0.4740
  276MOL0     C37955   1.736   7.094   6.860  0.2652  0.3274  0.3825
  276MOL0     C37956   1.857   7.048   6.786 -0.2773  0.2850 -0.7120
  276MOL0     C37957   1.977   7.112   6.790 -0.5027 -0.8958 -1.1226
  276MOL0     O37958   2.096   7.074   6.745 -0.1969 -0.7997 -0.1382
  276MOL0     C37959   2.101   6.972   6.633  0.5437  0.3556 -0.0827
  276MOL0     C37960   2.060   7.036   6.494 -0.0992  0.0251 -0.2891
  276MOL0     C37961   2.164   7.140   6.450  0.3409  0.5822  0.6039
  276MOL0     C37962   2.287   7.081   6.397  0.2766 -0.2198 -0.3258
  276MOL0     C37963   2.416   7.155   6.437  0.2748 -0.1013  0.7976
  276MOL0     C37964   2.542   7.092   6.374  0.6886  0.6013 -0.8632
  276MOL0     C37965   2.663   7.107   6.471  0.9461  0.0077  0.0026
  276MOL0     C37966   2.787   7.042   6.404 -0.4027  0.3214  0.3903
  276MOL0     N37967   2.787   6.899   6.398  0.4365 -0.9362  0.2653
  276MOL0     C37968   2.800   6.814   6.503 -0.0918  0.3755  0.1201
  276MOL0     C37969   2.787   6.694   6.447  0.3061 -0.7144  0.5311
  276MOL0     C37970   2.795   6.556   6.521 -0.1229 -0.2343 -0.7609
  276MOL0     C37971   2.939   6.525   6.566  0.0400 -0.3904  0.0068
  276MOL0     C37972   3.023   6.524   6.444 -0.6380  0.7392 -0.0457
  276MOL0     C37973   3.171   6.481   6.464  0.3130  0.8131 -0.1913
  276MOL0     O37974   3.232   6.556   6.566 -0.0970 -0.1126 -0.3891
  276MOL0     C37975   3.362   6.547   6.593 -0.0420 -0.2920 -0.3372
  276MOL0     C37976   3.460   6.492   6.506  0.5430  0.5536 -0.8564
  276MOL0     C37977   3.592   6.472   6.544  0.0700  0.6771 -0.4504
  276MOL0     C37978   3.689   6.403   6.452 -0.1794  0.1572 -0.0120
  276MOL0     C37979   3.631   6.533   6.667  0.7054 -0.2832  0.0688
  276MOL0     C37980   3.771   6.542   6.718  0.2738 -0.1558  0.0183
  276MOL0     O37981   3.781   6.532   6.853 -0.4665 -0.5739  0.3188
  276MOL0     C37982   3.908   6.526   6.900 -0.6314 -0.2426  0.4271
  276MOL0     C37983   3.988   6.641   6.921 -0.3439 -0.7081 -0.6797
  276MOL0     C37984   4.122   6.641   6.961  0.3601  0.2837  0.1440
  276MOL0     C37985   4.183   6.521   6.996  0.1524  1.0640 -0.2501
  276MOL0     O37986   4.311   6.504   7.032  0.2740 -0.7447  0.6324
  276MOL0     C37987   4.407   6.605   7.023  0.4750 -0.1415 -0.1173
  276MOL0     C37988   4.537   6.529   7.018 -0.5150  0.2579  0.3752
  276MOL0     C37989   4.650   6.622   6.997 -0.4189  0.1321 -0.3051
  276MOL0     C37990   4.776   6.533   6.972 -0.8472  0.2399 -0.6150
  276MOL0     C37991   4.902   6.623   6.948 -0.0641  0.2138  0.1680
  276MOL0     C37992   4.947   6.683   7.083  0.1199  0.3068  0.1766
  276MOL0     C37993   5.064   6.775   7.060 -0.4610 -0.2449 -0.4862
  276MOL0     C37994   5.116   6.848   7.183  0.3005  0.2388 -0.0346
  276MOL0    Cl37995   5.232   6.959   7.120 -0.1644  0.9004 -0.1215
  276MOL0     C37996   4.097   6.408   6.986  0.1667  0.6969 -1.0057
  276MOL0     C37997   3.966   6.414   6.943  0.0991  0.2243  0.2411
  276MOL0     O37998   3.860   6.544   6.629  0.5908  1.1738 -0.1852
  276MOL0     C37999   3.532   6.595   6.748  0.7605 -0.3752 -0.5761
  276MOL0     C38000   3.402   6.599   6.711 -0.2642 -0.0660 -1.0286
  276MOL0     N38001   2.771   6.709   6.308  0.1252  0.5967  0.0426
  276MOL0     N38002   2.785   6.831   6.279 -0.1933  0.1314 -0.0587
  276MOL0     C38003   1.982   7.225   6.880 -1.8256 -0.3126  0.6707
  276MOL0     C38004   1.870   7.268   6.950  0.0154 -0.6743 -1.0359
  276MOL0     C38005   1.397   7.284   7.063  0.0685  0.4531  0.3566
  276MOL0     C38006   1.279   7.261   6.989  0.0185  0.6774  0.1770
  276MOL0     C38007   1.169   7.333   7.008  0.5958  1.2060  0.7372
  276MOL0     C38008   1.166   7.430   7.110  0.6945 -0.0484 -0.3390
  276MOL0     O38009   1.040   7.491   7.129  0.0941 -0.0468 -0.4724
  276MOL0     C38010   1.041   7.599   7.227  0.4089  0.5459 -0.0740
  276MOL0     C38011   0.895   7.644   7.236 -0.1976 -0.2887  0.2291
  276MOL0     C38012   0.869   7.751   7.347 -0.1956  0.1039  0.4760
  276MOL0     C38013   0.956   7.740   7.472  0.5766  0.2404 -0.0859
  276MOL0     C38014   1.086   7.807   7.458  0.7687 -0.0020 -0.0987
  276MOL0     C38015   1.194   7.855   7.455  0.3404 -0.1176 -0.1211
  276MOL0     C38016   1.280   7.453   7.184 -0.0359 -0.2188 -0.2190
  276MOL0     C38017   1.399   7.381   7.164  0.8409 -0.8081  0.4960
  276MOL0     C38018   1.524   7.411   7.242  0.2777 -1.0844 -0.0805
  276MOL0     H38019   1.645   7.042   6.834 -2.2468  5.0641 -1.4973
  276MOL0     H38020   1.840   6.957   6.728 -2.5094 -0.0125  0.3096
  276MOL0     H38021   2.054   6.877   6.658 -2.2791  2.2715  2.7672
  276MOL0     H38022   2.208   6.950   6.635  1.1702  2.9908 -0.3222
  276MOL0     H38023   2.051   6.958   6.418  1.2128 -0.0517 -0.3868
  276MOL0     H38024   1.957   7.071   6.502 -0.6262 -1.1458 -1.5001
  276MOL0     H38025   2.109   7.203   6.380 -0.1968 -0.9448 -0.3879
  276MOL0     H38026   2.190   7.197   6.540 -0.5249  0.6170  0.8432
  276MOL0     H38027   2.283   6.975   6.427 -0.2536  0.1797  1.0916
  276MOL0     H38028   2.279   7.087   6.288  2.5058  0.0538 -0.5124
  276MOL0     H38029   2.428   7.156   6.546 -0.6996  0.2369  0.9104
  276MOL0     H38030   2.395   7.257   6.405 -0.1299  0.0888  1.6472
  276MOL0     H38031   2.520   6.985   6.377 -1.2272  0.9455  2.7056
  276MOL0     H38032   2.552   7.138   6.275 -0.6969  0.3036 -1.1584
  276MOL0     H38033   2.637   7.062   6.567  0.7589 -0.1980 -0.1436
  276MOL0     H38034   2.689   7.212   6.487  0.7850  0.2476 -1.2285
  276MOL0     H38035   2.788   7.082   6.302 -2.2441 -2.5366 -0.8925
  276MOL0     H38036   2.877   7.078   6.454 -0.3880  1.1418 -0.2089
  276MOL0     H38037   2.816   6.842   6.607  0.0599  4.9217 -0.9207
  276MOL0     H38038   2.757   6.474   6.460 -2.8034 -1.5938  2.4275
  276MOL0     H38039   2.729   6.560   6.608  0.8605  1.7996 -0.0369
  276MOL0     H38040   2.964   6.599   6.643 -2.1794 -0.7382  1.1301
  276MOL0     H38041   2.940   6.427   6.613  1.7952 -0.9866 -1.1396
  276MOL0     H38042   2.976   6.469   6.361 -0.0186  0.0091  0.0826
  276MOL0     H38043   3.042   6.625   6.405  1.1785  0.8217  0.9642
  276MOL0     H38044   3.177   6.374   6.485  1.1451  1.2578  2.0257
  276MOL0     H38045   3.228   6.496   6.372  1.5675  0.2002  0.4734
  276MOL0     H38046   3.417   6.448   6.416 -2.7864 -0.6579  1.1616
  276MOL0     H38047   3.751   6.477   6.401 -1.6987 -0.6621 -3.3652
  276MOL0     H38048   3.627   6.360   6.373  3.1421  0.5932 -3.1291
  276MOL0     H38049   3.743   6.324   6.505 -1.4636 -0.5883  0.2271
  276MOL0     H38050   3.944   6.736   6.893 -0.0884 -0.0173  1.1222
  276MOL0     H38051   4.171   6.737   6.952 -2.9016  2.0779 -0.1951
  276MOL0     H38052   4.388   6.659   6.929  0.5394  0.2856  0.1167
  276MOL0     H38053   4.394   6.679   7.102 -1.0179 -1.5918  1.0797
  276MOL0     H38054   4.558   6.476   7.112  0.5056  0.3759  0.2273
  276MOL0     H38055   4.532   6.455   6.939 -1.4210 -0.0950  0.7519
  276MOL0     H38056   4.660   6.695   7.078  0.8595  0.4785 -0.7342
  276MOL0     H38057   4.627   6.681   6.908  0.4576 -0.2363 -0.7926
  276MOL0     H38058   4.762   6.472   6.882 -1.7963 -0.4735  0.0014
  276MOL0     H38059   4.793   6.465   7.056 -2.9057 -0.1522 -0.4728
  276MOL0     H38060   4.986   6.572   6.899  0.1269  0.0045  0.7059
  276MOL0     H38061   4.872   6.709   6.887 -0.1034  0.1099  0.0419
  276MOL0     H38062   4.976   6.601   7.149 -1.0216 -1.7026 -1.6866
  276MOL0     H38063   4.863   6.741   7.121 -0.4436  1.2679 -2.3242
  276MOL0     H38064   5.038   6.847   6.982 -0.5826  1.3591  0.9856
  276MOL0     H38065   5.146   6.707   7.034 -1.0207 -1.1046 -0.0480
  276MOL0     H38066   5.164   6.781   7.254  1.5017 -0.5047 -1.4898
  276MOL0     H38067   5.025   6.891   7.227 -1.5616 -2.0179 -1.4441
  276MOL0     H38068   4.144   6.314   7.013 -0.0908  0.6651 -0.6608
  276MOL0     H38069   3.906   6.323   6.940  2.7598 -1.6476 -1.2529
  276MOL0     H38070   3.556   6.644   6.842  1.7380 -0.4867 -0.7591
  276MOL0     H38071   3.333   6.637   6.785  1.6421 -2.1948  2.0896
  276MOL0     H38072   2.077   7.273   6.898 -2.2722  0.8674 -0.0325
  276MOL0     H38073   1.887   7.365   6.996  1.1043  0.9036 -4.3734
  276MOL0     H38074   1.273   7.174   6.925  0.6512  1.5207 -1.0740
  276MOL0     H38075   1.082   7.314   6.945  1.8608  1.7060 -1.2871
  276MOL0     H38076   1.074   7.567   7.326 -0.6139  1.4415  0.5688
  276MOL0     H38077   1.105   7.678   7.186 -2.0451  1.6021 -2.1374
  276MOL0     H38078   0.828   7.561   7.261  1.7902 -2.5648 -1.4625
  276MOL0     H38079   0.872   7.685   7.138  0.8586  1.0493  0.5190
  276MOL0     H38080   0.878   7.853   7.308 -1.4512  0.4000  0.9178
  276MOL0     H38081   0.766   7.742   7.382 -0.4792  0.1595 -0.3215
  276MOL0     H38082   0.966   7.635   7.498 -1.3709 -0.5638 -2.1529
  276MOL0     H38083   0.905   7.794   7.552 -1.0051  2.2033 -2.2498
  276MOL0     H38084   1.289   7.904   7.455 -0.2028  1.0965  2.4466
  276MOL0     H38085   1.280   7.532   7.258  0.2757 -0.6173  0.2161
  276MOL0     H38086   1.603   7.445   7.174 -0.3056 -1.3344 -0.9053
  276MOL0     H38087   1.511   7.498   7.308  1.7670 -1.9544  1.4290
  276MOL0     H38088   1.545   7.320   7.298  1.8115 -0.1164  0.9892
  277MOL0     O38089   7.666   3.693   9.379 -0.1478  0.4572  0.3873
  277MOL0     C38090   7.661   3.727   9.260 -0.2405 -0.7597  0.3837
  277MOL0     O38091   7.776   3.741   9.182  0.4975 -0.0187  0.0489
  277MOL0     C38092   7.895   3.724   9.242 -0.5218  0.5506  0.4291
  277MOL0     C38093   7.984   3.830   9.248  1.0973 -0.1145  0.1645
  277MOL0     C38094   8.107   3.809   9.312  0.2877 -0.3053 -0.3074
  277MOL0     C38095   8.145   3.688   9.378 -0.2742  0.1910 -0.2654
  277MOL0     O38096   8.264   3.652   9.438  0.5255  0.3051  0.8475
  277MOL0     C38097   8.367   3.751   9.441  0.5246  0.2995 -0.4952
  277MOL0     C38098   8.452   3.715   9.560  0.2836  0.1448  0.2114
  277MOL0     C38099   8.573   3.810   9.571  0.6510  0.5052 -0.2060
  277MOL0     C38100   8.646   3.787   9.702  0.1872 -0.1067  1.2262
  277MOL0     C38101   8.779   3.867   9.717  0.1580 -0.1180 -0.6822
  277MOL0     C38102   8.906   3.804   9.660  0.1385  0.7955 -0.5450
  277MOL0     C38103   8.959   3.689   9.759 -0.2786  0.0941 -0.2379
  277MOL0     C38104   9.066   3.608   9.675  0.8621 -0.3168 -0.1002
  277MOL0     N38105   9.156   3.535   9.761  0.0840  0.0000  0.2908
  277MOL0     C38106   9.249   3.588   9.845  0.1275  0.3858  0.0204
  277MOL0     C38107   9.312   3.481   9.897  0.0008 -0.2953  0.1149
  277MOL0     C38108   9.411   3.488  10.009 -0.5574 -0.5921 -0.1124
  277MOL0     C38109   9.558   3.485   9.956  1.3400 -0.2196  0.0272
  277MOL0     C38110   9.614   3.371   9.883 -0.5256  0.0573 -0.4552
  277MOL0     C38111   9.600   3.242   9.967 -1.0419 -0.2909  0.3462
  277MOL0     O38112   9.649   3.247  10.101  0.5386 -0.6881 -0.4735
  277MOL0     C38113   9.786   3.224  10.129 -0.5958 -0.4814 -0.5663
  277MOL0     C38114   9.877   3.160  10.040 -0.6756  0.5722 -0.2441
  277MOL0     C38115  10.006   3.129  10.078 -0.1107  0.1828  0.6916
  277MOL0     C38116  10.089   3.037   9.985  0.0571 -0.0212 -0.2015
  277MOL0     C38117  10.062   3.179  10.198  0.8110  0.2426 -0.1589
  277MOL0     C38118  10.195   3.162  10.249 -0.3650  0.6152 -0.7182
  277MOL0     O38119  10.269   3.062  10.194 -0.1588 -0.1622  0.1036
  277MOL0     C38120  10.404   3.066  10.221  0.2390 -0.2264  0.2946
  277MOL0     C38121  10.484   3.179  10.207 -0.0838 -0.6199 -0.2010
  277MOL0     C38122  10.620   3.164  10.232 -0.3878 -0.0551  0.6326
  277MOL0     C38123  10.685   3.047  10.261  0.4079  0.3903 -0.3317
  277MOL0     O38124  10.821   3.040  10.291  0.3825 -0.1766  0.2518
  277MOL0     C38125  10.901   2.935  10.230  0.2105 -0.0730  0.0101
  277MOL0     C38126  11.016   3.004  10.157 -0.0070  0.3415  0.4645
  277MOL0     C38127  11.108   2.891  10.101  0.1750 -0.9499  0.7527
  277MOL0     C38128  11.239   2.936  10.057  0.8816 -0.0149 -0.2477
  277MOL0     C38129  11.279   2.896   9.913  0.0523  0.6807 -0.5187
  277MOL0     C38130  11.429   2.935   9.900  0.0116 -1.0815  0.4026
  277MOL0     C38131  11.468   2.925   9.754 -0.1844 -0.3493  0.5003
  277MOL0     C38132  11.616   2.912   9.727  1.5115 -1.3737 -0.7066
  277MOL0    Cl38133  11.720   3.028   9.828  0.1509  0.1788  0.2408
  277MOL0     C38134  10.601   2.929  10.259 -0.6636  0.0009 -1.0648
  277MOL0     C38135  10.469   2.946  10.240 -0.3244  0.8882  0.0416
  277MOL0     O38136  10.229   3.238  10.343  0.3095 -0.6180  0.6203
  277MOL0     C38137   9.972   3.253  10.287 -1.0022  0.5642 -0.3497
  277MOL0     C38138   9.833   3.270  10.256 -0.3237  0.8764 -0.4984
  277MOL0     N38139   9.261   3.365   9.842  0.3816 -0.1888  0.6291
  277MOL0     N38140   9.158   3.397   9.763  0.3608  0.2890 -0.9394
  277MOL0     C38141   8.055   3.585   9.369  0.0338 -0.3575  0.4365
  277MOL0     C38142   7.932   3.595   9.294 -0.2147  0.1560 -0.5533
  277MOL0     C38143   7.534   3.751   9.189  0.7510  0.5748 -0.7919
  277MOL0     C38144   7.547   3.841   9.074  0.1854  0.0895  0.6379
  277MOL0     C38145   7.431   3.885   9.004  0.3700 -0.7467  0.0642
  277MOL0     C38146   7.309   3.842   9.061 -0.0988 -0.0748  0.0929
  277MOL0     O38147   7.188   3.865   9.005 -0.1703 -0.0135 -0.7076
  277MOL0     C38148   7.177   3.932   8.885  0.2471 -1.3112 -0.6083
  277MOL0     C38149   7.030   3.921   8.845 -0.9858  0.5293  0.6259
  277MOL0     C38150   6.936   4.009   8.929  0.3586 -0.0240 -0.0166
  277MOL0     C38151   6.899   3.957   9.071 -0.0553 -0.0045  0.1252
  277MOL0     C38152   6.839   3.826   9.056  0.7738 -0.2217 -0.1020
  277MOL0     C38153   6.786   3.725   9.035 -0.6071 -0.0080  1.0429
  277MOL0     C38154   7.293   3.761   9.176 -0.4194 -0.3495 -0.7509
  277MOL0     C38155   7.404   3.711   9.239  0.4951 -0.1027 -0.1789
  277MOL0     C38156   7.388   3.634   9.366 -0.3163 -0.0696  0.5087
  277MOL0     H38157   7.948   3.916   9.193 -1.0490 -1.4955 -0.7234
  277MOL0     H38158   8.178   3.891   9.319 -0.4201  0.4054 -1.2232
  277MOL0     H38159   8.325   3.850   9.464 -0.8345  0.4010 -3.0402
  277MOL0     H38160   8.426   3.772   9.351 -0.7305  1.2166 -1.1329
  277MOL0     H38161   8.398   3.727   9.655  1.2050  1.6742  0.5715
  277MOL0     H38162   8.483   3.613   9.535 -0.5227  0.4746 -2.5076
  277MOL0     H38163   8.637   3.802   9.483  1.0823  1.2013  0.0416
  277MOL0     H38164   8.540   3.914   9.572  0.5888  0.5795 -2.7213
  277MOL0     H38165   8.578   3.807   9.785  1.5889  2.5120  1.8446
  277MOL0     H38166   8.676   3.682   9.691 -1.7203 -0.4907 -1.2873
  277MOL0     H38167   8.790   3.878   9.825  0.7596 -0.8974 -0.6538
  277MOL0     H38168   8.777   3.969   9.677  1.2209  0.4709  0.6849
  277MOL0     H38169   8.886   3.772   9.557  1.9670  1.6556 -1.2024
  277MOL0     H38170   8.984   3.880   9.650  0.5601  0.3549 -0.6635
  277MOL0     H38171   8.881   3.625   9.801 -1.2785  0.1265 -1.9303
  277MOL0     H38172   9.006   3.739   9.844 -2.6955 -0.1140  1.3204
  277MOL0     H38173   9.009   3.537   9.614  0.3709 -0.3983  0.4380
  277MOL0     H38174   9.118   3.679   9.611  0.6208 -2.0822 -2.3677
  277MOL0     H38175   9.264   3.693   9.866  0.0653  1.0039 -2.6474
  277MOL0     H38176   9.396   3.416  10.090 -3.2974  1.2455  1.1339
  277MOL0     H38177   9.394   3.584  10.059 -1.6085 -0.6813 -0.2726
  277MOL0     H38178   9.558   3.563   9.878 -1.2302  1.3961  1.4880
  277MOL0     H38179   9.631   3.514  10.031 -0.0285  2.0427  0.5981
  277MOL0     H38180   9.554   3.354   9.794 -0.3631 -1.1662 -0.3463
  277MOL0     H38181   9.721   3.378   9.862 -0.6612 -0.9887 -1.5894
  277MOL0     H38182   9.494   3.222   9.985 -0.8095 -0.6891  1.3402
  277MOL0     H38183   9.643   3.159   9.910  0.5286  1.8311 -1.7693
  277MOL0     H38184   9.855   3.142   9.935  0.6310  0.7687 -0.5791
  277MOL0     H38185  10.186   3.075   9.954  0.7140  0.2264  1.9641
  277MOL0     H38186  10.024   3.006   9.903 -0.1831  1.8275 -0.7539
  277MOL0     H38187  10.107   2.946  10.043  0.3522  0.8755  1.1707
  277MOL0     H38188  10.462   3.281  10.179 -0.3942 -0.1341  1.6805
  277MOL0     H38189  10.679   3.255  10.237  0.2384 -0.4574  0.6501
  277MOL0     H38190  10.943   2.883  10.317 -0.7156  2.2019  1.9583
  277MOL0     H38191  10.835   2.869  10.172 -1.9376  0.1499  2.0183
  277MOL0     H38192  10.980   3.063  10.072  0.1382 -0.2913 -0.0535
  277MOL0     H38193  11.068   3.074  10.223  2.8408 -1.8596  0.8084
  277MOL0     H38194  11.061   2.843  10.015  2.8209 -0.5679 -1.0214
  277MOL0     H38195  11.114   2.821  10.184 -0.1225  0.5131  2.0719
  277MOL0     H38196  11.310   2.892  10.127  0.4614  0.1011  0.2563
  277MOL0     H38197  11.252   3.044  10.050  6.2631 -0.4090 -0.5887
  277MOL0     H38198  11.269   2.787   9.906 -0.0593  0.7053 -0.7338
  277MOL0     H38199  11.209   2.945   9.845 -0.2375  3.0330  1.3477
  277MOL0     H38200  11.484   2.870   9.969 -0.3975 -1.8899 -0.0187
  277MOL0     H38201  11.446   3.042   9.915 -0.5392 -0.9513  0.1359
  277MOL0     H38202  11.440   3.014   9.698  1.4757 -0.7341 -1.0280
  277MOL0     H38203  11.423   2.842   9.698 -0.0333 -0.5416  0.6624
  277MOL0     H38204  11.631   2.940   9.622 -0.9989  4.2135  0.0685
  277MOL0     H38205  11.639   2.806   9.742  0.4366 -1.3973  1.1089
  277MOL0     H38206  10.652   2.834  10.272  0.7250  0.8364 -0.0167
  277MOL0     H38207  10.405   2.859  10.253  0.7086  0.0895 -0.1184
  277MOL0     H38208   9.995   3.301  10.381 -2.3378 -0.7829  0.7198
  277MOL0     H38209   9.766   3.322  10.325 -0.2038 -0.3066  0.5493
  277MOL0     H38210   8.086   3.490   9.413  3.1525 -1.3030 -3.2922
  277MOL0     H38211   7.874   3.504   9.289  0.3080 -0.2135 -0.0534
  277MOL0     H38212   7.643   3.875   9.036 -0.2623  1.3329  0.5525
  277MOL0     H38213   7.449   3.944   8.914 -0.5443  0.3885  0.5958
  277MOL0     H38214   7.198   4.038   8.904  0.0008 -1.2291 -0.7767
  277MOL0     H38215   7.236   3.880   8.810  2.6875  0.0835  0.2436
  277MOL0     H38216   7.003   3.815   8.844 -0.5670  0.4171  1.0850
  277MOL0     H38217   7.028   3.942   8.737  1.2323  3.0308  0.9666
  277MOL0     H38218   6.986   4.106   8.932  1.9687 -0.7797 -1.0741
  277MOL0     H38219   6.842   4.022   8.874  0.7075  2.1755 -0.1808
  277MOL0     H38220   6.826   4.021   9.121  0.5159  0.5783  0.2210
  277MOL0     H38221   6.980   3.946   9.144  0.1802 -1.5825 -0.3378
  277MOL0     H38222   6.730   3.635   9.022 -1.4032  0.5025  0.8862
  277MOL0     H38223   7.195   3.740   9.217  0.5585  0.5784  2.3704
  277MOL0     H38224   7.443   3.685   9.446  0.6776  2.1500 -1.4548
  277MOL0     H38225   7.288   3.612   9.402 -2.2187  0.4444 -3.8194
  277MOL0     H38226   7.442   3.542   9.344 -1.0605 -0.8267  1.7779
  278MOL0     O38227   3.107   6.774  10.673  0.7162  0.4551  0.1477
  278MOL0     C38228   3.066   6.699  10.585 -0.1917  0.0247 -0.0204
  278MOL0     O38229   3.144   6.622  10.510  0.1484 -0.3079 -0.0070
  278MOL0     C38230   3.275   6.651  10.518 -0.0856  0.0697  0.3364
  278MOL0     C38231   3.324   6.776  10.480 -0.2410 -0.2705  0.3268
  278MOL0     C38232   3.464   6.801  10.470 -0.1793  0.0880  0.3623
  278MOL0     C38233   3.556   6.704  10.508 -0.4666  0.3736  0.1243
  278MOL0     O38234   3.694   6.739  10.511 -0.6197  0.1310 -0.0064
  278MOL0     C38235   3.786   6.625  10.495 -0.0158  0.0218 -0.6843
  278MOL0     C38236   3.829   6.583  10.634 -0.6454 -0.1405 -0.3765
  278MOL0     C38237   3.907   6.684  10.706  0.5642  0.2623 -0.9815
  278MOL0     C38238   4.061   6.665  10.684  0.5193  0.4672  0.3095
  278MOL0     C38239   4.139   6.784  10.748 -0.3893 -0.3284  0.5612
  278MOL0     C38240   4.126   6.906  10.659 -0.2268 -0.1960  0.4445
  278MOL0     C38241   4.160   7.035  10.729  0.1006  0.8537 -0.3685
  278MOL0     C38242   4.162   7.153  10.628  0.3864 -0.3124  0.6015
  278MOL0     N38243   4.205   7.275  10.699  0.2818  0.7351  0.6493
  278MOL0     C38244   4.132   7.370  10.766  0.4869  0.3314 -0.2286
  278MOL0     C38245   4.219   7.461  10.802  0.0273 -0.6520 -0.5305
  278MOL0     C38246   4.200   7.591  10.880  0.5082 -0.1701 -0.2411
  278MOL0     C38247   4.284   7.604  11.011  0.6055  0.1502 -1.3487
  278MOL0     C38248   4.418   7.681  11.006 -0.2547  0.0887 -0.4112
  278MOL0     C38249   4.492   7.719  11.144 -0.8956  0.3513  0.1674
  278MOL0     O38250   4.617   7.787  11.108 -0.7487 -0.4535 -0.4722
  278MOL0     C38251   4.724   7.798  11.194  0.2382 -0.1045  0.5904
  278MOL0     C38252   4.841   7.842  11.139 -0.1153  0.2298  0.1026
  278MOL0     C38253   4.954   7.867  11.220 -0.2160 -0.1682 -0.1453
  278MOL0     C38254   5.078   7.935  11.148  0.0656 -0.2450  0.3082
  278MOL0     C38255   4.942   7.845  11.361  0.0160 -0.3019 -0.6142
  278MOL0     C38256   5.056   7.850  11.459 -0.2701 -0.2298 -1.1173
  278MOL0     O38257   5.181   7.861  11.408  0.5142  0.6342  0.2360
  278MOL0     C38258   5.275   7.908  11.492 -0.3469  0.2678 -0.8077
  278MOL0     C38259   5.315   7.823  11.598  0.7742  0.5015  0.6803
  278MOL0     C38260   5.409   7.859  11.692 -0.7720 -0.1485 -0.3076
  278MOL0     C38261   5.470   7.986  11.686 -0.5343  0.4087  0.1047
  278MOL0     O38262   5.564   8.028  11.774 -0.3571  0.1117  0.0075
  278MOL0     C38263   5.625   8.158  11.767 -0.2447 -0.6877  0.0912
  278MOL0     C38264   5.767   8.158  11.700 -0.2131  0.2937 -0.6054
  278MOL0     C38265   5.868   8.089  11.787  0.5196 -0.0164 -0.0590
  278MOL0     C38266   5.910   8.151  11.908 -0.0480 -0.1994 -0.8766
  278MOL0     C38267   6.018   8.259  11.878  0.1326  0.0709  0.3089
  278MOL0     C38268   6.163   8.202  11.888 -0.1056  0.4970  0.1534
  278MOL0     C38269   6.256   8.321  11.871 -0.0908 -0.3955  0.0210
  278MOL0     C38270   6.406   8.283  11.889  0.3036  0.5714 -0.3424
  278MOL0    Cl38271   6.502   8.418  11.935  0.2500  0.1413 -0.1374
  278MOL0     C38272   5.436   8.062  11.571  0.4476 -0.5919 -0.4359
  278MOL0     C38273   5.348   8.028  11.469 -0.0209  0.4412 -0.3550
  278MOL0     O38274   5.028   7.841  11.582  0.4408 -0.3563  0.7993
  278MOL0     C38275   4.819   7.794  11.415  0.5882  0.2441  0.4243
  278MOL0     C38276   4.712   7.770  11.331 -0.1410 -0.3158 -0.2238
  278MOL0     N38277   4.342   7.425  10.757  0.5470  0.4461  0.4383
  278MOL0     N38278   4.333   7.315  10.690  0.1817 -0.4967 -0.4551
  278MOL0     C38279   3.503   6.575  10.540 -0.7573 -0.3246 -0.1081
  278MOL0     C38280   3.368   6.549  10.537 -0.0483  0.9663  0.0271
  278MOL0     C38281   2.920   6.690  10.579  0.1367 -0.1786  0.0296
  278MOL0     C38282   2.866   6.575  10.513  0.1370 -0.4282 -0.5824
  278MOL0     C38283   2.735   6.536  10.527 -0.7156 -0.3501 -0.8853
  278MOL0     C38284   2.642   6.615  10.600 -0.1829  0.0459 -0.4083
  278MOL0     O38285   2.517   6.561  10.627  0.4878 -0.9993 -0.0665
  278MOL0     C38286   2.453   6.467  10.539 -0.7876  0.5807  0.1845
  278MOL0     C38287   2.471   6.320  10.591 -1.1771  0.6403 -0.1815
  278MOL0     C38288   2.412   6.309  10.732  0.5690 -0.3496  0.5429
  278MOL0     C38289   2.378   6.163  10.782 -0.4727  0.7641 -0.1503
  278MOL0     C38290   2.372   6.154  10.931 -0.2487 -0.4985 -0.8938
  278MOL0     C38291   2.366   6.147  11.051 -0.1400  0.8133  0.0492
  278MOL0     C38292   2.684   6.736  10.653 -0.3855 -0.3497 -0.0182
  278MOL0     C38293   2.821   6.775  10.649  0.0590 -0.8108 -0.6410
  278MOL0     C38294   2.863   6.909  10.716 -0.4343 -0.7808  0.1445
  278MOL0     H38295   3.258   6.861  10.463  1.5184  1.3348  1.1636
  278MOL0     H38296   3.506   6.897  10.441 -0.7008  0.5122  0.9823
  278MOL0     H38297   3.869   6.661  10.435 -0.7074 -0.7273 -2.1551
  278MOL0     H38298   3.745   6.540  10.440  1.7929 -1.9543  0.8433
  278MOL0     H38299   3.736   6.554  10.683 -0.7407 -0.0201 -0.4822
  278MOL0     H38300   3.880   6.488  10.618 -0.5397 -0.0753 -0.4256
  278MOL0     H38301   3.868   6.781  10.675 -1.0777 -0.9109 -2.8482
  278MOL0     H38302   3.890   6.672  10.814 -4.2496 -1.7303 -1.6890
  278MOL0     H38303   4.086   6.572  10.735  2.9072  1.1994  0.6078
  278MOL0     H38304   4.083   6.664  10.576 -2.6531 -1.1433 -0.4380
  278MOL0     H38305   4.242   6.747  10.753  0.2386  1.0415 -1.3439
  278MOL0     H38306   4.101   6.802  10.849 -1.4591 -0.0403  0.1195
  278MOL0     H38307   4.193   6.896  10.573  0.4790 -1.7971  1.1527
  278MOL0     H38308   4.022   6.906  10.624 -1.0714  3.6218  2.4298
  278MOL0     H38309   4.261   7.020  10.769  0.4997  1.5239 -1.0974
  278MOL0     H38310   4.092   7.045  10.814 -0.2929 -1.2783 -0.3695
  278MOL0     H38311   4.235   7.134  10.549  0.3516  1.8353 -0.0118
  278MOL0     H38312   4.072   7.161  10.567  1.6649 -2.3870 -1.7381
  278MOL0     H38313   4.024   7.374  10.779  0.6088  0.2273  0.8924
  278MOL0     H38314   4.092   7.585  10.901  0.6524 -1.7144  0.2090
  278MOL0     H38315   4.221   7.674  10.812 -0.7347  1.3293  1.1207
  278MOL0     H38316   4.223   7.673  11.070 -0.0281 -1.3619 -0.1680
  278MOL0     H38317   4.301   7.511  11.065 -0.1085 -0.2618 -1.8109
  278MOL0     H38318   4.486   7.620  10.946  0.0435 -1.0959  1.0453
  278MOL0     H38319   4.404   7.772  10.947  0.6094 -0.0240 -0.8056
  278MOL0     H38320   4.426   7.790  11.193  1.5947  1.4544  2.1918
  278MOL0     H38321   4.504   7.631  11.209 -3.1146 -0.8278 -0.9341
  278MOL0     H38322   4.857   7.875  11.037  2.2083 -0.5329  0.1585
  278MOL0     H38323   5.136   7.855  11.101  0.4961  1.1562 -1.7002
  278MOL0     H38324   5.139   7.999  11.211  1.3769 -2.1441  1.0637
  278MOL0     H38325   5.040   8.000  11.068 -2.1180 -0.9524  0.6972
  278MOL0     H38326   5.268   7.725  11.607  0.0269  0.6673 -1.0895
  278MOL0     H38327   5.425   7.786  11.770 -0.6944 -0.9544 -1.0571
  278MOL0     H38328   5.558   8.235  11.728 -0.3313  0.9144  3.1254
  278MOL0     H38329   5.641   8.203  11.865  1.0464  1.6109 -1.1003
  278MOL0     H38330   5.761   8.102  11.606  2.3897 -1.2358  0.0348
  278MOL0     H38331   5.802   8.261  11.693  3.2639 -0.2170  3.9924
  278MOL0     H38332   5.953   8.066  11.722  0.1940  0.3049 -0.6117
  278MOL0     H38333   5.824   7.993  11.814 -1.7539  0.5194 -1.5846
  278MOL0     H38334   5.951   8.075  11.974 -0.9975  1.3576  1.6888
  278MOL0     H38335   5.825   8.200  11.958  2.2428 -1.2999  4.8490
  278MOL0     H38336   6.006   8.305  11.779  0.9520 -3.1145 -1.3992
  278MOL0     H38337   6.019   8.338  11.953  2.0706 -0.1872  0.5929
  278MOL0     H38338   6.173   8.130  11.806 -2.9430  1.6185 -1.3380
  278MOL0     H38339   6.178   8.159  11.987  0.6712  1.4795  0.4789
  278MOL0     H38340   6.237   8.394  11.950  1.3485  0.2216 -0.1815
  278MOL0     H38341   6.245   8.375  11.777  0.6509 -1.8903 -0.9699
  278MOL0     H38342   6.435   8.246  11.790 -0.6082  0.3692 -0.5359
  278MOL0     H38343   6.422   8.212  11.971  0.8587  1.7467  0.6148
  278MOL0     H38344   5.490   8.155  11.554  0.2276 -0.2824  0.5302
  278MOL0     H38345   5.349   8.085  11.376  0.3459  1.5971  0.3340
  278MOL0     H38346   4.806   7.785  11.523  0.9072  0.6702  0.4989
  278MOL0     H38347   4.621   7.744  11.385  0.5640 -0.5532  0.8900
  278MOL0     H38348   3.557   6.483  10.561 -0.5000 -0.4849 -1.4163
  278MOL0     H38349   3.339   6.445  10.542  3.0614 -0.1450 -2.0611
  278MOL0     H38350   2.935   6.515  10.455 -0.2332  0.5277 -2.0565
  278MOL0     H38351   2.715   6.444  10.474 -0.4865 -1.3901  0.7637
  278MOL0     H38352   2.343   6.472  10.535 -0.9504 -1.1743  1.2923
  278MOL0     H38353   2.476   6.473  10.433  0.3577 -0.7943  0.3284
  278MOL0     H38354   2.577   6.294  10.602 -1.4203 -0.2221  0.2634
  278MOL0     H38355   2.427   6.247  10.522  3.6781 -3.1959  0.2256
  278MOL0     H38356   2.470   6.358  10.811 -0.0502  2.7271 -0.7630
  278MOL0     H38357   2.318   6.364  10.723  0.2468 -0.8877  0.5529
  278MOL0     H38358   2.455   6.095  10.746 -0.9982  0.1087 -0.0503
  278MOL0     H38359   2.284   6.129  10.737 -0.9974 -0.8811  2.0567
  278MOL0     H38360   2.364   6.153  11.158 -2.7745  0.3917  0.0756
  278MOL0     H38361   2.605   6.797  10.695  0.6916 -0.7049  2.6848
  278MOL0     H38362   2.934   6.964  10.652 -1.6754  0.9596  0.2105
  278MOL0     H38363   2.777   6.975  10.725  0.5235  0.4232  0.7577
  278MOL0     H38364   2.914   6.893  10.812 -0.2176  1.3856  0.4404
  279MOL0     O38365   6.960  11.348  11.298  0.0580  0.0385  1.0037
  279MOL0     C38366   6.906  11.251  11.351 -1.1928 -0.1613 -0.4961
  279MOL0     O38367   6.969  11.180  11.437  0.3882  0.7649 -0.3307
  279MOL0     C38368   7.090  11.196  11.481 -0.2203  0.5071  0.3305
  279MOL0     C38369   7.202  11.254  11.413  0.8934  0.1489  0.6903
  279MOL0     C38370   7.314  11.284  11.488  0.4185  0.1264 -0.0785
  279MOL0     C38371   7.322  11.275  11.628  0.3644  0.2268 -0.0602
  279MOL0     O38372   7.422  11.330  11.710 -0.1530 -0.4565 -0.7193
  279MOL0     C38373   7.524  11.401  11.658  0.1204  0.2367 -0.1843
  279MOL0     C38374   7.637  11.406  11.755 -0.7860  0.1092 -0.0737
  279MOL0     C38375   7.681  11.267  11.807 -0.1379  0.3581 -0.4995
  279MOL0     C38376   7.803  11.270  11.892  0.3729  0.4021 -0.1957
  279MOL0     C38377   7.882  11.139  11.889 -0.1128  0.4733  0.0525
  279MOL0     C38378   7.980  11.113  12.003  0.7307 -0.7444 -0.1978
  279MOL0     C38379   8.103  11.201  12.011  0.3884  0.0823 -0.0330
  279MOL0     C38380   8.161  11.200  12.157 -0.4630  0.7796  0.3521
  279MOL0     N38381   8.293  11.259  12.151 -0.0782  0.1237 -0.0840
  279MOL0     C38382   8.404  11.178  12.180 -0.5089  0.1989 -0.0738
  279MOL0     C38383   8.512  11.267  12.155  0.6266  0.9458  0.0127
  279MOL0     C38384   8.652  11.220  12.158 -1.1205  0.0182 -0.1809
  279MOL0     C38385   8.758  11.337  12.178 -0.1166 -0.5649 -0.3812
  279MOL0     C38386   8.741  11.416  12.309  0.1875  0.3223 -0.2013
  279MOL0     C38387   8.868  11.506  12.328  0.6306 -0.7530  0.0295
  279MOL0     O38388   8.982  11.428  12.357 -1.2314 -0.0315  0.4388
  279MOL0     C38389   9.109  11.487  12.348 -0.2142 -0.2858  0.1387
  279MOL0     C38390   9.217  11.404  12.366  0.0815 -0.1179 -0.5596
  279MOL0     C38391   9.346  11.453  12.372  0.1185  0.7799  0.3943
  279MOL0     C38392   9.450  11.341  12.387  0.0272 -0.4379  0.0725
  279MOL0     C38393   9.365  11.592  12.364 -0.5682 -0.4712  0.6874
  279MOL0     C38394   9.498  11.660  12.376  0.1598  0.5060 -0.5089
  279MOL0     O38395   9.506  11.793  12.412  0.0732 -0.1552  0.0949
  279MOL0     C38396   9.624  11.862  12.435 -0.5043 -0.7891 -1.0099
  279MOL0     C38397   9.726  11.852  12.343 -1.0077  0.5753 -0.0543
  279MOL0     C38398   9.855  11.903  12.392 -0.1105 -0.5464  0.7094
  279MOL0     C38399   9.871  11.969  12.515 -0.6475 -0.6836 -0.9590
  279MOL0     O38400   9.998  12.018  12.549 -0.3799 -0.2997 -0.4999
  279MOL0     C38401  10.099  12.073  12.457  0.1719 -0.1573 -0.4591
  279MOL0     C38402  10.052  12.182  12.353 -0.1604  0.0398 -0.3148
  279MOL0     C38403  10.009  12.309  12.438 -0.1252  0.0527  0.6620
  279MOL0     C38404  10.082  12.433  12.391 -0.0330  0.4026  0.0157
  279MOL0     C38405  10.225  12.445  12.426 -0.2279  1.3756  0.7234
  279MOL0     C38406  10.286  12.579  12.384 -1.1708 -0.3795 -0.1611
  279MOL0     C38407  10.437  12.604  12.406 -0.0972  1.4183  0.0148
  279MOL0     C38408  10.465  12.615  12.547 -0.6873  0.3648 -0.6128
  279MOL0    Cl38409  10.507  12.459  12.621 -0.0197  0.1325  0.0567
  279MOL0     C38410   9.756  11.985  12.592  0.3041 -0.2418 -0.9102
  279MOL0     C38411   9.640  11.926  12.559  0.3581 -0.1384  0.6458
  279MOL0     O38412   9.591  11.591  12.344 -0.2516 -0.0891 -0.1345
  279MOL0     C38413   9.252  11.673  12.327  0.7539 -0.2946  0.3031
  279MOL0     C38414   9.127  11.621  12.318  0.4327 -0.0497 -0.0123
  279MOL0     N38415   8.462  11.395  12.129 -0.0101  0.5572 -0.1586
  279MOL0     N38416   8.335  11.389  12.136  0.2866  0.8021  0.4376
  279MOL0     C38417   7.214  11.216  11.688 -0.1114  0.3409 -0.9657
  279MOL0     C38418   7.098  11.173  11.619  0.6199 -0.7957  0.0404
  279MOL0     C38419   6.764  11.209  11.328 -0.8331  0.2294  0.2067
  279MOL0     C38420   6.695  11.129  11.422  0.0413 -0.6245 -0.4745
  279MOL0     C38421   6.554  11.098  11.406 -0.2662  0.0219 -0.7160
  279MOL0     C38422   6.475  11.157  11.311 -0.6915 -0.6152 -0.2524
  279MOL0     O38423   6.340  11.137  11.309  0.7445  0.1970 -0.1591
  279MOL0     C38424   6.287  11.144  11.173  0.3220 -0.0819 -0.1463
  279MOL0     C38425   6.149  11.078  11.159 -0.8188  0.4138 -0.3343
  279MOL0     C38426   6.108  11.106  11.014 -0.0872  0.3599 -0.2438
  279MOL0     C38427   5.957  11.069  10.990 -0.0975 -0.4572  0.6408
  279MOL0     C38428   5.909  11.094  10.855  0.3070 -0.0161  0.6978
  279MOL0     C38429   5.859  11.119  10.748  0.8170 -0.5850  0.0342
  279MOL0     C38430   6.544  11.240  11.221 -0.6849  0.1776  0.2414
  279MOL0     C38431   6.682  11.269  11.228 -0.1493  0.1626  0.9366
  279MOL0     C38432   6.729  11.374  11.121  0.0483  0.5757  0.0498
  279MOL0     H38433   7.215  11.260  11.306 -0.6592 -0.6407  0.4299
  279MOL0     H38434   7.397  11.314  11.424  0.3106 -3.9146 -2.4932
  279MOL0     H38435   7.493  11.501  11.625 -0.8775 -0.6429 -2.0300
  279MOL0     H38436   7.569  11.347  11.574  0.6114 -1.5594  1.1737
  279MOL0     H38437   7.725  11.456  11.713 -0.3805 -0.7432 -0.2727
  279MOL0     H38438   7.605  11.463  11.843  0.4252  0.5074  0.1259
  279MOL0     H38439   7.606  11.207  11.858  2.7370 -1.2130  2.2052
  279MOL0     H38440   7.704  11.213  11.715  0.4447  1.3544 -0.9598
  279MOL0     H38441   7.863  11.359  11.869  1.6744 -0.0509  1.2843
  279MOL0     H38442   7.767  11.294  11.992 -0.5067  0.9834 -0.6394
  279MOL0     H38443   7.939  11.139  11.795 -0.2128 -0.3262 -0.0148
  279MOL0     H38444   7.810  11.057  11.884  0.3821  0.1083 -2.8213
  279MOL0     H38445   7.916  11.131  12.090  0.3042  0.2850 -0.7047
  279MOL0     H38446   8.014  11.011  12.023  0.2387 -0.4215  2.6865
  279MOL0     H38447   8.086  11.306  11.985  1.9934  0.4935  0.4498
  279MOL0     H38448   8.180  11.159  11.945  0.1129 -2.4678  1.1472
  279MOL0     H38449   8.109  11.269  12.224  0.8053  1.1200  1.0020
  279MOL0     H38450   8.177  11.101  12.202  1.9027  1.0447  0.2110
  279MOL0     H38451   8.409  11.071  12.195  2.0763  0.0266 -1.5154
  279MOL0     H38452   8.675  11.159  12.071 -1.7703 -1.9068  0.9305
  279MOL0     H38453   8.659  11.158  12.248  1.3009 -0.9262 -0.9461
  279MOL0     H38454   8.858  11.292  12.172 -0.4331 -1.2826 -0.3383
  279MOL0     H38455   8.741  11.407  12.096  0.1208  0.1366  0.1551
  279MOL0     H38456   8.651  11.476  12.292 -1.2274 -1.8497 -0.8538
  279MOL0     H38457   8.722  11.349  12.394  1.5711 -0.8477 -0.7880
  279MOL0     H38458   8.884  11.558  12.233 -0.9414  0.0304  0.1597
  279MOL0     H38459   8.850  11.582  12.405  0.9423 -1.3279  0.6825
  279MOL0     H38460   9.189  11.302  12.387  0.6658  0.2322  2.3744
  279MOL0     H38461   9.470  11.350  12.494 -0.2650 -0.1393  0.1035
  279MOL0     H38462   9.539  11.367  12.329 -1.4226 -2.5388 -3.4770
  279MOL0     H38463   9.416  11.240  12.363 -2.0246  0.3207 -0.4193
  279MOL0     H38464   9.719  11.804  12.245 -0.7093  0.8798 -0.2264
  279MOL0     H38465   9.942  11.883  12.330 -0.9937 -2.3509 -0.0228
  279MOL0     H38466  10.182  12.114  12.515 -1.2496  0.6974  1.0741
  279MOL0     H38467  10.136  11.985  12.403  1.6763  0.7212 -0.8858
  279MOL0     H38468  10.132  12.215  12.285  1.9556 -1.5434  1.2673
  279MOL0     H38469   9.967  12.146  12.294 -1.6040  0.4131  1.4734
  279MOL0     H38470  10.028  12.281  12.542 -0.4156 -1.5630  0.2931
  279MOL0     H38471   9.904  12.322  12.408 -0.3787 -3.8717 -0.6390
  279MOL0     H38472  10.034  12.517  12.442 -0.6726  0.2083 -0.2604
  279MOL0     H38473  10.072  12.447  12.283 -1.3248 -0.1621  0.0497
  279MOL0     H38474  10.234  12.419  12.532 -0.7269 -3.3318 -0.1665
  279MOL0     H38475  10.286  12.371  12.373 -0.1157  2.0347 -0.1030
  279MOL0     H38476  10.235  12.659  12.437  2.7886  1.7013  0.8774
  279MOL0     H38477  10.275  12.583  12.275  4.7153 -0.3494 -1.0493
  279MOL0     H38478  10.455  12.699  12.355  0.9068  0.9735 -0.5037
  279MOL0     H38479  10.507  12.530  12.366  1.0327  2.7829 -0.6078
  279MOL0     H38480  10.384  12.663  12.602 -0.4846  0.0759 -0.0453
  279MOL0     H38481  10.552  12.678  12.563  0.8761 -1.7413 -0.3699
  279MOL0     H38482   9.744  12.047  12.681  0.4817 -0.0341 -1.0307
  279MOL0     H38483   9.557  11.933  12.628  1.2115  0.8639  1.6069
  279MOL0     H38484   9.272  11.778  12.307  1.2419 -0.1773  1.3151
  279MOL0     H38485   9.042  11.685  12.296  0.3159 -0.5538 -1.0546
  279MOL0     H38486   7.216  11.199  11.795 -0.2114 -0.0723 -1.0294
  279MOL0     H38487   7.010  11.141  11.672 -0.0954  0.4742 -0.3351
  279MOL0     H38488   6.754  11.091  11.505  2.2897  0.1186 -1.6512
  279MOL0     H38489   6.512  11.035  11.484  0.8056  1.2724  0.9160
  279MOL0     H38490   6.277  11.248  11.140 -0.6321 -0.4040 -0.9338
  279MOL0     H38491   6.357  11.092  11.106  0.1539 -2.0829  1.1331
  279MOL0     H38492   6.083  11.126  11.231 -0.2006 -0.8750  1.1481
  279MOL0     H38493   6.166  10.971  11.174  2.4211  1.0105  1.1545
  279MOL0     H38494   6.125  11.211  10.988  0.9781  1.0325  2.8508
  279MOL0     H38495   6.171  11.042  10.951  0.6606  2.4460 -1.7072
  279MOL0     H38496   5.895  11.122  11.063 -0.7529  1.9661 -1.5368
  279MOL0     H38497   5.955  10.963  11.017 -2.6190  0.0254  2.7315
  279MOL0     H38498   5.819  11.150  10.654  2.1291 -1.5922 -0.8983
  279MOL0     H38499   6.489  11.297  11.146  0.6305  0.3643 -0.6111
  279MOL0     H38500   6.822  11.336  11.078 -0.3528  0.1255 -0.4384
  279MOL0     H38501   6.651  11.388  11.046 -1.0515 -0.4140  0.9610
  279MOL0     H38502   6.750  11.466  11.176 -2.8886  0.9092  0.8036
  280MOL0     O38503   0.965   3.514  10.211 -1.0651  0.1354 -0.4815
  280MOL0     C38504   0.873   3.479  10.146  0.5318  0.2842  0.6840
  280MOL0     O38505   0.877   3.464  10.005 -0.0102 -0.1243  0.3534
  280MOL0     C38506   0.992   3.456   9.935 -1.1434  0.0235 -0.0247
  280MOL0     C38507   1.112   3.534   9.942  0.5020  0.2598 -0.8615
  280MOL0     C38508   1.223   3.502   9.855  0.7328 -0.1996 -0.1019
  280MOL0     C38509   1.226   3.388   9.772 -0.2591 -0.6439  0.0111
  280MOL0     O38510   1.330   3.348   9.693  0.7623 -0.0305  0.3118
  280MOL0     C38511   1.421   3.448   9.653  0.3609 -0.1061  0.0767
  280MOL0     C38512   1.502   3.384   9.538  0.0813  0.1564  0.4165
  280MOL0     C38513   1.590   3.497   9.487 -0.1472 -0.4836 -0.6070
  280MOL0     C38514   1.706   3.538   9.578  0.6175  0.5069  0.5910
  280MOL0     C38515   1.807   3.616   9.502 -0.1824 -0.4992 -0.8082
  280MOL0     C38516   1.775   3.763   9.470  0.2583 -0.3243  0.0980
  280MOL0     C38517   1.751   3.849   9.598 -0.6634 -0.3901  0.0898
  280MOL0     C38518   1.701   3.992   9.571 -0.9011 -0.8761  0.7441
  280MOL0     N38519   1.817   4.072   9.525  0.7325 -0.0413  0.4160
  280MOL0     C38520   1.896   4.150   9.610  0.3771 -1.1097  0.0317
  280MOL0     C38521   1.970   4.220   9.523 -0.1049 -0.9312 -0.1966
  280MOL0     C38522   2.077   4.317   9.550 -0.6871  1.0478  0.2489
  280MOL0     C38523   2.213   4.252   9.551  0.1819  0.3452 -0.6428
  280MOL0     C38524   2.258   4.203   9.689  0.1744  0.1333  0.0621
  280MOL0     C38525   2.395   4.135   9.682 -0.4118 -0.0599  0.5697
  280MOL0     O38526   2.498   4.234   9.654 -0.4019 -0.4377  0.1040
  280MOL0     C38527   2.629   4.187   9.689  0.2089  0.4106 -0.2669
  280MOL0     C38528   2.664   4.057   9.695  0.1450  0.1099  1.0612
  280MOL0     C38529   2.802   4.013   9.720  0.0037 -0.6447 -0.5478
  280MOL0     C38530   2.818   3.865   9.737  0.8522  0.2726 -0.1484
  280MOL0     C38531   2.901   4.111   9.748 -0.1949  0.4371 -0.0132
  280MOL0     C38532   3.033   4.077   9.789  0.4330 -0.5784 -0.4136
  280MOL0     O38533   3.087   4.168   9.877  0.1692  0.1159  0.6644
  280MOL0     C38534   3.197   4.115   9.946  0.2468 -0.7568 -0.8224
  280MOL0     C38535   3.189   4.090  10.088 -0.2283  0.2565  0.7043
  280MOL0     C38536   3.301   4.057  10.163  0.1901  1.2006 -1.3588
  280MOL0     C38537   3.427   4.041  10.102 -0.1220  0.8023 -0.0353
  280MOL0     O38538   3.548   4.013  10.164  0.1616  0.0745 -0.1160
  280MOL0     C38539   3.559   4.041  10.310  0.1610 -0.5892 -0.2712
  280MOL0     C38540   3.571   4.192  10.339 -0.1561  0.5128  0.9632
  280MOL0     C38541   3.609   4.249  10.476 -0.4618 -0.7613  0.0219
  280MOL0     C38542   3.764   4.242  10.499  0.8171  0.6305  0.0517
  280MOL0     C38543   3.805   4.352  10.603 -0.5392  0.4496  0.3489
  280MOL0     C38544   3.942   4.332  10.652 -0.5723  0.3866 -0.4517
  280MOL0     C38545   4.048   4.367  10.547  0.1538  0.4468 -0.1462
  280MOL0     C38546   4.187   4.354  10.601 -0.5594 -0.1777 -1.0160
  280MOL0    Cl38547   4.292   4.360  10.460  0.1157 -0.0141  0.0602
  280MOL0     C38548   3.429   4.078   9.970  0.6192  0.7195 -0.1135
  280MOL0     C38549   3.320   4.119   9.892  0.5135  0.8415 -0.1695
  280MOL0     O38550   3.085   3.966   9.760  0.0868 -0.5403  0.3645
  280MOL0     C38551   2.866   4.241   9.727  0.9668 -0.2284 -0.2810
  280MOL0     C38552   2.731   4.273   9.700 -0.5780 -0.2452  0.6151
  280MOL0     N38553   1.932   4.183   9.394  0.4160  0.2921 -0.2409
  280MOL0     N38554   1.840   4.097   9.396  0.4588 -1.6874  0.4532
  280MOL0     C38555   1.107   3.317   9.773  0.3452  0.6894  0.7865
  280MOL0     C38556   0.994   3.354   9.844  0.0960 -0.0017  0.4281
  280MOL0     C38557   0.736   3.466  10.209 -0.7433 -1.0274  0.3134
  280MOL0     C38558   0.622   3.436  10.131  0.0612 -0.2964 -0.7236
  280MOL0     C38559   0.488   3.426  10.188 -0.7536  1.0125  0.2827
  280MOL0     C38560   0.471   3.437  10.326  0.0506 -0.3151 -0.4150
  280MOL0     O38561   0.339   3.420  10.359  0.1566 -0.0613 -0.1319
  280MOL0     C38562   0.288   3.493  10.475 -1.0147 -0.1830  0.4084
  280MOL0     C38563   0.136   3.474  10.468 -0.1520 -0.2907 -0.5464
  280MOL0     C38564   0.056   3.574  10.376  0.1535  0.5498 -0.0944
  280MOL0     C38565   0.122   3.593  10.239 -0.8741 -0.5354  0.3690
  280MOL0     C38566   0.109   3.472  10.156 -0.1575  0.2988  0.1316
  280MOL0     C38567   0.128   3.374  10.087 -0.0749 -0.2290 -0.4717
  280MOL0     C38568   0.586   3.470  10.403  0.5557  0.6799  0.3770
  280MOL0     C38569   0.714   3.488  10.349  0.4933 -0.9103  0.4010
  280MOL0     C38570   0.813   3.534  10.449 -0.3641  0.2686  0.8640
  280MOL0     H38571   1.132   3.616  10.010  1.5286 -0.1452 -0.6637
  280MOL0     H38572   1.316   3.557   9.869  0.3064 -0.1632  3.2598
  280MOL0     H38573   1.483   3.483   9.736 -1.0566  0.7269  0.8200
  280MOL0     H38574   1.366   3.536   9.618  0.5723  0.1417  0.3631
  280MOL0     H38575   1.563   3.299   9.572  0.4064 -0.9104 -2.5441
  280MOL0     H38576   1.437   3.349   9.458  0.0790  1.2517 -0.0810
  280MOL0     H38577   1.621   3.462   9.388 -2.4911 -1.5119 -1.0513
  280MOL0     H38578   1.530   3.585   9.463  0.1251 -0.4686 -1.2402
  280MOL0     H38579   1.683   3.601   9.665  1.1433  0.1700  0.9790
  280MOL0     H38580   1.761   3.449   9.608 -0.4452  0.3745  2.2475
  280MOL0     H38581   1.829   3.560   9.411  0.6743  0.7618 -1.4160
  280MOL0     H38582   1.899   3.618   9.562 -0.6271  2.6517 -0.0768
  280MOL0     H38583   1.862   3.792   9.411  1.1388 -3.3308 -0.2082
  280MOL0     H38584   1.686   3.774   9.408  0.3164  1.7044  0.3003
  280MOL0     H38585   1.836   3.841   9.667  0.3197 -1.1039 -1.1563
  280MOL0     H38586   1.665   3.799   9.643 -1.1656 -0.7725 -1.2668
  280MOL0     H38587   1.620   4.006   9.499 -2.9185  0.7065  3.1397
  280MOL0     H38588   1.666   4.022   9.671  0.2117 -0.6309  1.0709
  280MOL0     H38589   1.901   4.164   9.717  3.6920  1.0550 -0.2440
  280MOL0     H38590   2.049   4.363   9.645 -2.2872 -1.4659  1.1025
  280MOL0     H38591   2.083   4.388   9.467 -1.0387  0.2844 -0.4498
  280MOL0     H38592   2.210   4.166   9.483  0.3904  0.8342 -1.2758
  280MOL0     H38593   2.287   4.320   9.508  0.1855 -0.6722 -2.3048
  280MOL0     H38594   2.263   4.297   9.745  0.3996  1.1931 -1.6757
  280MOL0     H38595   2.189   4.131   9.735 -0.7343  0.9772  0.0490
  280MOL0     H38596   2.409   4.090   9.781  0.1495  0.9377  0.9580
  280MOL0     H38597   2.398   4.070   9.594  0.9689  2.5535 -1.4294
  280MOL0     H38598   2.596   3.979   9.662  1.4158 -0.6406  0.1031
  280MOL0     H38599   2.859   3.813   9.650  0.2318  1.0183 -0.9041
  280MOL0     H38600   2.720   3.820   9.756 -0.2678  3.2724  2.1049
  280MOL0     H38601   2.880   3.857   9.827 -1.9746 -0.5206  1.8779
  280MOL0     H38602   3.097   4.086  10.144  0.6763 -1.4252  2.1626
  280MOL0     H38603   3.290   4.038  10.270 -0.0685 -1.9575 -1.8409
  280MOL0     H38604   3.473   3.990  10.357  0.1956 -1.1206 -0.7700
  280MOL0     H38605   3.655   4.001  10.343 -0.5000 -0.3652  2.1694
  280MOL0     H38606   3.636   4.236  10.262 -0.1693 -1.7034 -0.3960
  280MOL0     H38607   3.469   4.224  10.318 -1.3477 -2.8740  1.0767
  280MOL0     H38608   3.558   4.207  10.563 -0.0432 -1.7854 -0.2163
  280MOL0     H38609   3.584   4.355  10.463  1.7807 -0.0427  1.1429
  280MOL0     H38610   3.816   4.261  10.405  1.3159 -2.1321 -0.3029
  280MOL0     H38611   3.786   4.138  10.524 -0.1008  0.4827  0.2912
  280MOL0     H38612   3.795   4.455  10.566  0.7035  0.2531 -0.6073
  280MOL0     H38613   3.746   4.336  10.694 -2.6677  1.2798 -0.8207
  280MOL0     H38614   3.959   4.231  10.690  0.3586  0.5475 -0.4082
  280MOL0     H38615   3.945   4.403  10.735 -0.8461 -0.8573  0.6538
  280MOL0     H38616   4.022   4.467  10.510 -3.1687 -0.6793 -1.2019
  280MOL0     H38617   4.040   4.301  10.460 -3.0594  1.3721 -0.6901
  280MOL0     H38618   4.199   4.255  10.646  2.7595  0.0565 -1.1572
  280MOL0     H38619   4.208   4.436  10.670  1.7888 -2.3112  1.0147
  280MOL0     H38620   3.526   4.069   9.921 -0.0039 -1.2429 -1.0866
  280MOL0     H38621   3.338   4.150   9.789 -0.0508  0.3895 -0.4092
  280MOL0     H38622   2.945   4.316   9.726 -1.1088  2.0746  0.1487
  280MOL0     H38623   2.713   4.378   9.678 -1.1478 -0.3009  0.8005
  280MOL0     H38624   1.102   3.231   9.708 -0.4242  0.9941  0.4268
  280MOL0     H38625   0.900   3.306   9.820 -0.3364  1.5365 -1.1791
  280MOL0     H38626   0.648   3.407  10.030 -0.5244  0.2218 -1.0221
  280MOL0     H38627   0.398   3.409  10.129 -0.1327  2.1986 -1.0624
  280MOL0     H38628   0.332   3.457  10.569  1.1477  1.4567  0.1028
  280MOL0     H38629   0.314   3.599  10.485 -1.6973 -0.1719  2.6602
  280MOL0     H38630   0.104   3.484  10.572  0.7363  1.5579 -0.4187
  280MOL0     H38631   0.123   3.373  10.427  0.6755 -1.5726  2.1024
  280MOL0     H38632  -0.046   3.534  10.369  0.6208 -0.4367 -1.9437
  280MOL0     H38633   0.054   3.672  10.425  3.3345  1.7951 -2.1522
  280MOL0     H38634   0.226   3.626  10.242 -1.0157 -0.0724  3.0240
  280MOL0     H38635   0.074   3.677  10.188  3.8644  0.9041 -2.2310
  280MOL0     H38636   0.153   3.283  10.036 -1.5587 -2.6365  2.7418
  280MOL0     H38637   0.584   3.489  10.510  1.1115  0.4897  0.4260
  280MOL0     H38638   0.830   3.642  10.445  1.7468 -0.0797 -1.6938
  280MOL0     H38639   0.778   3.502  10.548 -2.2268 -0.9923 -0.1343
  280MOL0     H38640   0.911   3.488  10.435 -0.9483  0.0294 -5.0272
  281MOL0     O38641   1.107   7.834   4.012 -0.4929  0.5225 -0.4780
  281MOL0     C38642   1.111   7.757   4.112 -0.6113 -0.7053 -0.4235
  281MOL0     O38643   1.216   7.742   4.202 -0.2773  0.6292  0.6217
  281MOL0     C38644   1.318   7.828   4.179  0.1584 -0.3683  0.0849
  281MOL0     C38645   1.317   7.962   4.208  0.7453 -0.6556 -0.0653
  281MOL0     C38646   1.431   8.050   4.184  0.5191 -0.3805  0.1517
  281MOL0     C38647   1.551   8.000   4.130  1.1111  0.3497 -0.3809
  281MOL0     O38648   1.668   8.071   4.113 -0.3881 -0.5317 -0.0483
  281MOL0     C38649   1.661   8.218   4.095 -0.1571  0.4328 -0.0964
  281MOL0     C38650   1.746   8.271   3.985 -0.2600 -0.6608  0.3744
  281MOL0     C38651   1.901   8.259   3.997  0.3328 -0.4270 -1.5761
  281MOL0     C38652   1.979   8.263   3.870 -0.0147 -0.7387 -0.3503
  281MOL0     C38653   2.133   8.259   3.885  0.8286 -0.0507 -0.7857
  281MOL0     C38654   2.201   8.312   3.757  0.0341 -0.2268  0.2336
  281MOL0     C38655   2.349   8.336   3.788 -0.6160 -0.3735  1.2506
  281MOL0     C38656   2.391   8.469   3.840  0.3297 -0.6391  0.4718
  281MOL0     N38657   2.533   8.465   3.870  0.7956  0.5746  0.7775
  281MOL0     C38658   2.600   8.409   3.977  0.0119  0.3581 -0.5575
  281MOL0     C38659   2.727   8.421   3.931 -0.4575  0.3988 -0.7831
  281MOL0     C38660   2.852   8.359   3.997  0.6326  0.4471 -0.0640
  281MOL0     C38661   2.912   8.438   4.115  0.3564  0.3498  0.5248
  281MOL0     C38662   2.923   8.592   4.081  0.4315  0.9263 -0.0200
  281MOL0     C38663   2.957   8.670   4.204 -0.5858  0.3345 -0.1019
  281MOL0     O38664   3.089   8.640   4.260  0.2955  0.2061  0.1539
  281MOL0     C38665   3.198   8.714   4.231  0.3513  0.1765 -0.5310
  281MOL0     C38666   3.211   8.803   4.133 -0.0419  0.7446  0.4522
  281MOL0     C38667   3.329   8.874   4.117  0.1795 -0.0471 -0.3900
  281MOL0     C38668   3.335   8.963   3.999  0.3662 -0.1290  0.3451
  281MOL0     C38669   3.442   8.849   4.201 -0.6351 -0.2121 -0.3578
  281MOL0     C38670   3.584   8.906   4.178  0.2891 -0.1665 -0.1943
  281MOL0     O38671   3.686   8.822   4.224 -0.5004 -0.1670  0.2924
  281MOL0     C38672   3.812   8.858   4.186  0.1030  0.0129 -0.4459
  281MOL0     C38673   3.870   8.803   4.080  0.1711  0.2576  0.5150
  281MOL0     C38674   3.995   8.845   4.039 -0.3404 -0.6979 -0.7997
  281MOL0     C38675   4.085   8.921   4.123  0.3343 -0.4806 -0.7884
  281MOL0     O38676   4.219   8.930   4.107 -0.1036  0.4940 -0.5141
  281MOL0     C38677   4.281   8.822   4.030  0.6764 -0.0930 -0.0052
  281MOL0     C38678   4.433   8.856   4.034  0.2139 -0.3287  0.0677
  281MOL0     C38679   4.472   8.988   3.971  0.2774 -0.1910 -0.2711
  281MOL0     C38680   4.627   9.007   3.966 -0.3656 -0.2891  0.6150
  281MOL0     C38681   4.664   9.138   3.905 -0.8857 -0.5671  0.2344
  281MOL0     C38682   4.820   9.163   3.901 -0.0482 -0.4338  0.0047
  281MOL0     C38683   4.860   9.294   3.825  0.2807  0.1658  0.0253
  281MOL0     C38684   5.004   9.303   3.783 -0.7624  0.1933 -0.6019
  281MOL0    Cl38685   5.045   9.189   3.653 -0.0556  0.2565 -0.2213
  281MOL0     C38686   4.022   8.978   4.233  1.0563  0.1989  0.0437
  281MOL0     C38687   3.884   8.952   4.264  0.1988  0.0238 -0.3069
  281MOL0     O38688   3.595   9.000   4.097 -0.7943  0.2862  0.0202
  281MOL0     C38689   3.428   8.758   4.299 -0.3044  0.0689  0.0990
  281MOL0     C38690   3.309   8.686   4.318 -0.9391  0.5571  0.5694
  281MOL0     N38691   2.740   8.481   3.807  0.6019  0.8218  0.2982
  281MOL0     N38692   2.623   8.514   3.776  0.7583  0.2560  0.2850
  281MOL0     C38693   1.555   7.863   4.104  0.1031  0.0912 -0.4175
  281MOL0     C38694   1.439   7.776   4.125 -0.2970  0.3786  0.6207
  281MOL0     C38695   0.990   7.675   4.137  0.1217  0.5335 -0.0250
  281MOL0     C38696   0.894   7.680   4.031 -0.8344  0.1270 -0.3206
  281MOL0     C38697   0.781   7.606   4.042  0.3400 -0.3207 -0.4620
  281MOL0     C38698   0.751   7.517   4.150  0.0778 -0.2286 -0.5855
  281MOL0     O38699   0.632   7.456   4.177 -0.3738  0.2619 -0.8777
  281MOL0     C38700   0.546   7.442   4.058  0.0790  0.4633  0.1189
  281MOL0     C38701   0.419   7.359   4.097 -0.6020 -0.4584 -1.4474
  281MOL0     C38702   0.308   7.391   4.004 -0.2272 -0.5110  0.1523
  281MOL0     C38703   0.179   7.315   4.049  0.1320  0.2127  0.3880
  281MOL0     C38704   0.069   7.319   3.948  0.0165  0.0067 -0.6410
  281MOL0     C38705  -0.012   7.337   3.862 -0.0951 -1.2688 -0.3951
  281MOL0     C38706   0.840   7.522   4.259  0.5084 -0.0004  0.0265
  281MOL0     C38707   0.961   7.593   4.257 -0.3753  0.4200 -0.2715
  281MOL0     C38708   1.063   7.574   4.370 -0.1138  0.4316  0.2671
  281MOL0     H38709   1.222   7.999   4.245  0.1120 -1.1390 -1.1468
  281MOL0     H38710   1.402   8.154   4.200 -2.0459 -1.2555  1.8573
  281MOL0     H38711   1.695   8.260   4.190 -0.1469  0.6967 -0.2169
  281MOL0     H38712   1.556   8.247   4.080  0.0895  2.2033  1.2675
  281MOL0     H38713   1.710   8.228   3.891  0.3947  4.0952 -2.3544
  281MOL0     H38714   1.716   8.375   3.971 -1.7463 -1.2312 -0.9048
  281MOL0     H38715   1.932   8.322   4.081  0.9995 -3.1094  0.3458
  281MOL0     H38716   1.916   8.166   4.053 -1.4764 -0.0146 -0.2973
  281MOL0     H38717   1.942   8.188   3.800 -0.5508 -1.3268  0.5362
  281MOL0     H38718   1.957   8.360   3.825  1.0307 -0.0807  0.5106
  281MOL0     H38719   2.153   8.154   3.910 -1.7002 -0.1698  1.1447
  281MOL0     H38720   2.153   8.323   3.971  0.8855 -0.1573 -0.7180
  281MOL0     H38721   2.183   8.244   3.674  0.8212 -0.9096  0.6024
  281MOL0     H38722   2.167   8.412   3.729  2.1685 -0.1453 -2.4888
  281MOL0     H38723   2.408   8.322   3.697 -0.9298  0.4542  0.9191
  281MOL0     H38724   2.389   8.258   3.854  1.0749  0.3114  1.0774
  281MOL0     H38725   2.372   8.549   3.769 -3.7908  0.2492  2.2944
  281MOL0     H38726   2.333   8.498   3.928 -0.9326  1.6346 -1.0313
  281MOL0     H38727   2.553   8.367   4.065 -1.3023  0.2470 -1.2856
  281MOL0     H38728   2.926   8.343   3.918 -0.2539 -0.0913 -0.8068
  281MOL0     H38729   2.830   8.255   4.023  3.3995 -0.3336 -0.5532
  281MOL0     H38730   2.862   8.432   4.212  0.0503 -0.0161  0.3440
  281MOL0     H38731   3.015   8.402   4.117 -0.1266 -1.2027 -0.9506
  281MOL0     H38732   2.995   8.612   4.000 -1.4558  0.6502 -1.8540
  281MOL0     H38733   2.825   8.632   4.053 -0.4897 -0.1607  1.5532
  281MOL0     H38734   2.950   8.776   4.177 -1.3184  0.1486 -0.6983
  281MOL0     H38735   2.878   8.649   4.277 -0.6859 -0.0280 -0.3110
  281MOL0     H38736   3.134   8.829   4.061 -1.1342 -0.3261  1.2083
  281MOL0     H38737   3.332   9.070   4.023 -2.6915  0.2515 -1.1552
  281MOL0     H38738   3.251   8.944   3.931  0.3843 -0.1631  0.3329
  281MOL0     H38739   3.433   8.943   3.954  1.0909  0.4242  1.6270
  281MOL0     H38740   3.826   8.736   4.006  2.5897 -0.6579 -0.1915
  281MOL0     H38741   4.029   8.811   3.942  2.5951  0.3500 -0.2432
  281MOL0     H38742   4.256   8.722   4.068  2.7412  0.0502  1.8773
  281MOL0     H38743   4.244   8.830   3.927  0.9533  2.5175  0.0438
  281MOL0     H38744   4.467   8.848   4.137  1.8499 -0.5057 -0.4661
  281MOL0     H38745   4.480   8.777   3.975  1.1124 -0.5301  1.0329
  281MOL0     H38746   4.424   9.060   4.038 -2.2490 -2.5773  0.6933
  281MOL0     H38747   4.435   8.990   3.868 -0.4548 -0.8037 -0.0252
  281MOL0     H38748   4.660   8.937   3.889 -4.6319 -0.8365 -0.9833
  281MOL0     H38749   4.676   8.994   4.063  0.0588 -0.6384  0.3556
  281MOL0     H38750   4.623   9.146   3.803  1.7152 -0.4195 -0.8958
  281MOL0     H38751   4.615   9.207   3.974  0.3380  0.0930  0.4690
  281MOL0     H38752   4.867   9.079   3.849 -1.1541  0.2854 -2.3344
  281MOL0     H38753   4.859   9.162   4.002  1.0863  2.6891 -0.3012
  281MOL0     H38754   4.855   9.384   3.886  1.9731  1.3231 -1.4473
  281MOL0     H38755   4.791   9.309   3.742 -0.7562  0.6823  0.9528
  281MOL0     H38756   5.066   9.289   3.873 -0.1684 -1.5286 -1.2353
  281MOL0     H38757   5.012   9.404   3.743  0.4862  0.8292  1.1273
  281MOL0     H38758   4.082   9.044   4.294  1.8952 -0.5345  0.0441
  281MOL0     H38759   3.839   9.012   4.343 -0.3657  1.7973 -1.9023
  281MOL0     H38760   3.508   8.737   4.370  0.6979 -0.9900 -1.2907
  281MOL0     H38761   3.306   8.611   4.397 -0.3298 -2.3603 -1.9843
  281MOL0     H38762   1.646   7.830   4.053  0.3301  1.4129 -0.9012
  281MOL0     H38763   1.447   7.671   4.096  4.0036  0.7071 -0.1089
  281MOL0     H38764   0.912   7.726   3.934  1.8439  0.4843  0.2583
  281MOL0     H38765   0.721   7.612   3.951 -0.9446 -0.0065  0.3669
  281MOL0     H38766   0.493   7.532   4.025 -0.7386 -0.2634 -0.5857
  281MOL0     H38767   0.599   7.394   3.976 -0.2066  1.3650 -0.6128
  281MOL0     H38768   0.391   7.383   4.200 -1.2075  2.2895 -2.1681
  281MOL0     H38769   0.439   7.253   4.080  0.6649 -0.1360 -2.1181
  281MOL0     H38770   0.288   7.498   4.010  1.9651 -0.0206 -0.3629
  281MOL0     H38771   0.331   7.366   3.901  2.6920  2.8949 -0.2179
  281MOL0     H38772   0.136   7.355   4.141  0.8356  0.0780  0.7880
  281MOL0     H38773   0.203   7.212   4.078 -2.4151 -0.8525 -1.0009
  281MOL0     H38774  -0.090   7.360   3.792  1.3243  2.5450 -0.9255
  281MOL0     H38775   0.809   7.465   4.347  1.0567  0.3134  0.4335
  281MOL0     H38776   1.143   7.517   4.323 -0.9713  2.2153 -3.8132
  281MOL0     H38777   1.101   7.672   4.398  0.0276  0.5042 -0.1701
  281MOL0     H38778   1.028   7.514   4.454  1.3312  1.2387  1.4976
  282MOL0     O38779   0.327   0.522   0.606  0.4017  0.0476  0.1403
  282MOL0     C38780   0.243   0.436   0.585 -1.0343  0.2767 -0.5526
  282MOL0     O38781   0.270   0.304   0.618  0.6125  0.0093  0.6949
  282MOL0     C38782   0.393   0.255   0.610 -1.0759  0.1420  0.5347
  282MOL0     C38783   0.476   0.280   0.504  0.0268 -0.7430 -0.5738
  282MOL0     C38784   0.606   0.228   0.494 -0.4721 -0.8290  0.0672
  282MOL0     C38785   0.658   0.148   0.606 -0.5498 -0.3797  0.6367
  282MOL0     O38786   0.782   0.085   0.601 -0.5915 -0.5901 -0.1965
  282MOL0     C38787   0.888   0.156   0.543  0.1211 -0.6388 -0.7348
  282MOL0     C38788   1.016   0.079   0.546  0.7941  0.1426 -0.5390
  282MOL0     C38789   1.136   0.147   0.477  0.0313  0.3207  0.4291
  282MOL0     C38790   1.145   0.302   0.500 -1.3038 -0.8068  0.9693
  282MOL0     C38791   1.279   0.351   0.442 -0.6337  0.4150  0.1276
  282MOL0     C38792   1.272   0.502   0.423 -0.4056  0.9527 -0.3347
  282MOL0     C38793   1.398   0.580   0.381  0.2966  0.5529  0.3928
  282MOL0     C38794   1.529   0.512   0.415  0.6338  0.2017  0.3173
  282MOL0     N38795   1.637   0.598   0.368  0.3429 -0.0381  0.0351
  282MOL0     C38796   1.626   0.697   0.271  0.7230 -0.1433 -0.2960
  282MOL0     C38797   1.735   0.769   0.291  0.0830  0.0665 -0.3459
  282MOL0     C38798   1.771   0.878   0.198  0.2480  0.8589  0.5091
  282MOL0     C38799   1.807   0.996   0.280 -0.2986 -0.2378  0.2294
  282MOL0     C38800   1.787   1.136   0.207 -0.4625 -0.6971  0.3825
  282MOL0     C38801   1.898   1.166   0.105  0.1376  1.1419 -0.2845
  282MOL0     O38802   2.026   1.168   0.178  0.3897  0.3143  0.5409
  282MOL0     C38803   2.144   1.202   0.113  0.4226  0.2552  0.2803
  282MOL0     C38804   2.261   1.190   0.180  0.2948  0.4327 -0.0006
  282MOL0     C38805   2.392   1.222   0.135 -0.6770 -0.0100 -0.1236
  282MOL0     C38806   2.496   1.198   0.233 -0.5705  0.0828  0.0832
  282MOL0     C38807   2.405   1.251  -0.005  0.0902  0.5686  0.2842
  282MOL0     C38808   2.534   1.277  -0.075 -0.5339  0.8522  0.4031
  282MOL0     O38809   2.532   1.302  -0.207  0.0193 -0.1148  0.4700
  282MOL0     C38810   2.635   1.321  -0.294  0.2981  0.3495 -0.1126
  282MOL0     C38811   2.611   1.305  -0.435  0.2993  0.5324  0.1386
  282MOL0     C38812   2.710   1.320  -0.530 -0.0100  0.1000  0.1218
  282MOL0     C38813   2.830   1.382  -0.498 -0.2652 -0.7167  0.1010
  282MOL0     O38814   2.921   1.405  -0.600  0.4007  0.4538  0.4377
  282MOL0     C38815   2.946   1.541  -0.627 -0.4258 -0.1198 -0.6680
  282MOL0     C38816   3.049   1.566  -0.727 -0.5820 -0.2680  0.0317
  282MOL0     C38817   3.029   1.712  -0.796  0.1574  0.3188  0.4695
  282MOL0     C38818   3.155   1.753  -0.872  0.2174 -0.3311  0.5270
  282MOL0     C38819   3.117   1.860  -0.974 -0.3064 -0.1808 -0.5518
  282MOL0     C38820   3.222   1.925  -1.063 -0.0460 -0.0981 -0.2497
  282MOL0     C38821   3.332   1.984  -0.976 -0.4492 -0.0764 -0.0415
  282MOL0     C38822   3.396   2.099  -1.045 -0.5129  0.3132 -0.2707
  282MOL0    Cl38823   3.278   2.233  -1.068  0.0518 -0.3916  0.1427
  282MOL0     C38824   2.857   1.383  -0.359  0.4888 -0.1260  0.5572
  282MOL0     C38825   2.764   1.367  -0.260 -0.1354  0.0105  0.1764
  282MOL0     O38826   2.639   1.263  -0.011  0.1797 -0.3719  0.2547
  282MOL0     C38827   2.282   1.259  -0.080 -0.2007 -0.7182  0.5736
  282MOL0     C38828   2.157   1.235  -0.019  0.0810  0.4306  0.8051
  282MOL0     N38829   1.813   0.712   0.392 -0.2127 -0.4941 -0.7661
  282MOL0     N38830   1.745   0.607   0.438  0.2125  0.0979 -0.1972
  282MOL0     C38831   0.573   0.134   0.714 -0.4447  0.3884  0.3692
  282MOL0     C38832   0.446   0.181   0.710  0.0669  0.6499 -0.3607
  282MOL0     C38833   0.105   0.479   0.542  0.4463  0.0483  0.4629
  282MOL0     C38834   0.013   0.382   0.507  0.4616  0.5419  0.3409
  282MOL0     C38835  -0.123   0.412   0.471  0.1008 -0.0799  0.6634
  282MOL0     C38836  -0.160   0.550   0.468 -0.1939  0.3251  0.2880
  282MOL0     O38837  -0.286   0.599   0.436  0.2887  0.1661  0.0313
  282MOL0     C38838  -0.389   0.493   0.419 -0.6067  0.6819 -0.2591
  282MOL0     C38839  -0.513   0.563   0.397 -0.2529  0.1128 -0.4624
  282MOL0     C38840  -0.556   0.646   0.523  0.1724 -0.4235  0.0471
  282MOL0     C38841  -0.656   0.759   0.490  0.3194 -0.6370  0.1629
  282MOL0     C38842  -0.796   0.708   0.482 -0.7223  0.5682  0.0165
  282MOL0     C38843  -0.902   0.663   0.454  0.2397  0.3050  0.1275
  282MOL0     C38844  -0.058   0.648   0.480  0.1817 -0.0276 -0.7276
  282MOL0     C38845   0.060   0.611   0.538  1.1937 -0.5140  0.0695
  282MOL0     C38846   0.146   0.734   0.574  0.4102 -0.5433  0.6233
  282MOL0     H38847   0.427   0.326   0.419 -0.8997 -1.0152 -0.1971
  282MOL0     H38848   0.669   0.244   0.407 -0.5156 -2.3236 -0.2510
  282MOL0     H38849   0.900   0.249   0.600  1.6651 -1.0421 -0.3485
  282MOL0     H38850   0.877   0.193   0.440  2.9124 -0.4860 -1.0597
  282MOL0     H38851   1.037   0.057   0.650 -2.1285  0.2254  0.1648
  282MOL0     H38852   1.003  -0.019   0.499 -0.4198  0.2703 -0.5153
  282MOL0     H38853   1.231   0.096   0.497  2.2227  2.8849 -2.4130
  282MOL0     H38854   1.113   0.143   0.370  2.3374 -0.6215 -0.0806
  282MOL0     H38855   1.067   0.351   0.442 -0.5546 -1.6240 -0.8253
  282MOL0     H38856   1.147   0.333   0.605 -1.7037  2.0698  0.2001
  282MOL0     H38857   1.297   0.294   0.350  1.5526 -0.6605  1.1449
  282MOL0     H38858   1.363   0.330   0.509  0.2834 -0.8883 -1.3545
  282MOL0     H38859   1.200   0.522   0.343 -0.0035  0.2713 -0.8820
  282MOL0     H38860   1.230   0.553   0.510 -1.1051 -0.6198  0.3032
  282MOL0     H38861   1.394   0.674   0.436  1.0658  0.1095  1.2431
  282MOL0     H38862   1.398   0.590   0.272 -3.2482 -2.2781 -0.0368
  282MOL0     H38863   1.542   0.486   0.521 -3.4748  0.6383  1.0940
  282MOL0     H38864   1.528   0.417   0.360 -3.4446  0.7276 -0.7882
  282MOL0     H38865   1.545   0.720   0.202  1.1101  0.3338 -0.5963
  282MOL0     H38866   1.694   0.903   0.125 -2.8039 -0.3385  3.1004
  282MOL0     H38867   1.855   0.848   0.135 -1.8863 -0.4087 -1.9175
  282MOL0     H38868   1.749   0.996   0.373 -0.3867 -0.0585  0.1766
  282MOL0     H38869   1.911   0.984   0.312  0.4275 -0.3684 -2.0172
  282MOL0     H38870   1.695   1.127   0.148  0.0518 -0.1558 -0.5111
  282MOL0     H38871   1.777   1.200   0.295  0.4232 -0.6614  0.4616
  282MOL0     H38872   1.898   1.087   0.029 -1.2312  1.6305 -0.8252
  282MOL0     H38873   1.867   1.251   0.042 -1.4275  0.2921 -0.7240
  282MOL0     H38874   2.243   1.161   0.283 -1.2231 -2.3783 -0.9663
  282MOL0     H38875   2.569   1.279   0.233  1.0074 -1.2921 -0.5863
  282MOL0     H38876   2.545   1.105   0.204 -1.1780  0.0092 -0.7464
  282MOL0     H38877   2.457   1.185   0.335 -2.6620  0.0033 -0.6879
  282MOL0     H38878   2.515   1.271  -0.472  0.4998 -0.3471  0.4108
  282MOL0     H38879   2.684   1.297  -0.633  4.0645  1.9062 -1.5056
  282MOL0     H38880   2.854   1.594  -0.654 -1.0048  0.2073  1.7453
  282MOL0     H38881   2.986   1.586  -0.536 -0.8317 -1.2833  0.1119
  282MOL0     H38882   3.145   1.556  -0.675 -0.5545  4.0743  1.1930
  282MOL0     H38883   3.051   1.488  -0.804  1.8459 -0.9035  0.6352
  282MOL0     H38884   3.015   1.783  -0.714  2.8943  1.7924 -0.2109
  282MOL0     H38885   2.945   1.705  -0.865  0.8577  0.7067 -0.4417
  282MOL0     H38886   3.209   1.670  -0.920  0.6261  0.4099 -0.3308
  282MOL0     H38887   3.227   1.793  -0.800  0.8696 -0.0211 -0.2781
  282MOL0     H38888   3.036   1.813  -1.030 -1.3205 -0.1310  0.8027
  282MOL0     H38889   3.072   1.942  -0.917  2.7121  1.0319  0.3097
  282MOL0     H38890   3.179   2.004  -1.126  0.1571  1.3855  1.3787
  282MOL0     H38891   3.269   1.861  -1.138 -1.2107 -0.1204 -0.9733
  282MOL0     H38892   3.404   1.906  -0.949  0.4749  0.0969 -1.8063
  282MOL0     H38893   3.282   2.028  -0.890 -0.1702  0.3568 -0.1011
  282MOL0     H38894   3.446   2.062  -1.135  1.0914  0.9192  0.3281
  282MOL0     H38895   3.477   2.141  -0.984 -0.4800 -0.8815  0.5577
  282MOL0     H38896   2.955   1.415  -0.328  1.3929 -0.6136 -1.5768
  282MOL0     H38897   2.785   1.378  -0.155  0.0588 -0.8545  0.2366
  282MOL0     H38898   2.276   1.289  -0.184  1.4042  1.6128  1.0630
  282MOL0     H38899   2.070   1.249  -0.081  0.9760  0.7047 -0.4354
  282MOL0     H38900   0.599   0.058   0.787 -1.0156 -1.9626 -1.7340
  282MOL0     H38901   0.373   0.151   0.784  1.8853  0.1399  1.3249
  282MOL0     H38902   0.026   0.278   0.535 -1.5738  0.3102  0.5515
  282MOL0     H38903  -0.199   0.334   0.464 -2.3003  2.1394  0.4857
  282MOL0     H38904  -0.356   0.433   0.333  0.1659 -0.7972  1.0079
  282MOL0     H38905  -0.394   0.435   0.512 -2.0736 -2.4178 -2.1070
  282MOL0     H38906  -0.590   0.489   0.373 -0.2824  0.1671 -0.5370
  282MOL0     H38907  -0.499   0.629   0.311 -0.7470 -1.6713 -1.9988
  282MOL0     H38908  -0.605   0.588   0.602 -1.6264 -0.7212 -1.2305
  282MOL0     H38909  -0.472   0.704   0.564  0.9394 -1.0549 -0.6001
  282MOL0     H38910  -0.615   0.815   0.406  1.1063 -2.2873 -0.6020
  282MOL0     H38911  -0.658   0.824   0.579 -0.1017  0.0629 -0.3470
  282MOL0     H38912  -1.001   0.624   0.439  0.1561  0.8931 -0.9192
  282MOL0     H38913  -0.079   0.752   0.461  0.8529  0.0855 -0.8582
  282MOL0     H38914   0.220   0.770   0.502 -2.0809 -0.2851 -2.0116
  282MOL0     H38915   0.084   0.823   0.590  1.1417  0.3842 -1.3682
  282MOL0     H38916   0.194   0.718   0.671 -0.9508  1.3843  1.6976
  283MOL0     O38917   1.323   7.055   1.549 -1.3671  0.2089 -0.4441
  283MOL0     C38918   1.407   7.129   1.492  0.4295 -0.3419 -0.5253
  283MOL0     O38919   1.445   7.252   1.543 -0.0726 -0.2433 -0.0660
  283MOL0     C38920   1.376   7.304   1.655 -0.0697  0.5770  0.3774
  283MOL0     C38921   1.231   7.311   1.660  0.3188 -0.0640  0.2970
  283MOL0     C38922   1.162   7.374   1.759 -0.4720  0.5702  0.0662
  283MOL0     C38923   1.242   7.441   1.850 -0.2387  0.2489 -0.8498
  283MOL0     O38924   1.183   7.517   1.946  0.0960  0.7684 -0.0791
  283MOL0     C38925   1.190   7.447   2.075 -0.7281 -0.4068  0.4819
  283MOL0     C38926   1.250   7.552   2.174  0.5000 -1.1702  1.0331
  283MOL0     C38927   1.396   7.591   2.142 -0.2261 -0.1809 -0.1494
  283MOL0     C38928   1.453   7.656   2.267  0.2029  0.2711 -0.4005
  283MOL0     C38929   1.583   7.733   2.227 -0.2649 -0.0197  0.1825
  283MOL0     C38930   1.618   7.824   2.338  0.3966 -0.2840  0.4494
  283MOL0     C38931   1.753   7.897   2.308 -0.3544  0.0224  0.1570
  283MOL0     C38932   1.875   7.806   2.265 -0.1645  0.2135 -0.2737
  283MOL0     N38933   2.000   7.883   2.275  0.2904 -0.2800 -0.1505
  283MOL0     C38934   2.093   7.885   2.177  0.4159 -0.4457 -0.5538
  283MOL0     C38935   2.203   7.944   2.230 -0.6180 -0.6032  0.7274
  283MOL0     C38936   2.332   7.974   2.158 -0.0244 -0.2984  0.1576
  283MOL0     C38937   2.305   8.002   2.004 -0.1251  0.3874 -1.0779
  283MOL0     C38938   2.428   8.069   1.947 -0.6325  0.0812 -0.3518
  283MOL0     C38939   2.544   7.984   1.907 -0.2963 -0.4943  0.8161
  283MOL0     O38940   2.635   7.973   2.016  0.1784 -0.3093  0.4921
  283MOL0     C38941   2.765   7.945   1.986  0.0677 -0.5823 -0.0607
  283MOL0     C38942   2.875   8.025   2.028 -0.4197 -0.3042 -0.0142
  283MOL0     C38943   3.008   7.996   1.990  0.7360  0.2238 -0.1875
  283MOL0     C38944   3.119   8.082   2.045  0.8568 -0.2873 -0.2433
  283MOL0     C38945   3.030   7.879   1.906 -0.2031  0.2443  0.2267
  283MOL0     C38946   3.157   7.841   1.847  0.0614 -0.0133  0.7569
  283MOL0     O38947   3.242   7.940   1.839 -0.0182 -0.4337  0.0733
  283MOL0     C38948   3.379   7.926   1.823  0.2075 -0.3199 -0.0457
  283MOL0     C38949   3.444   7.805   1.849  0.7632 -0.1183  0.1872
  283MOL0     C38950   3.589   7.796   1.833 -0.2143  0.3359 -0.1434
  283MOL0     C38951   3.659   7.911   1.810 -0.1969  0.2110  0.2869
  283MOL0     O38952   3.796   7.909   1.794  0.0400  0.2498 -0.7267
  283MOL0     C38953   3.878   7.792   1.831  0.0495 -0.0884  0.1213
  283MOL0     C38954   4.020   7.818   1.788 -0.8056 -0.3701 -0.3416
  283MOL0     C38955   4.099   7.696   1.845 -0.9505  0.6181  0.0373
  283MOL0     C38956   4.250   7.699   1.810 -0.4265 -0.2709  1.3229
  283MOL0     C38957   4.333   7.594   1.888 -0.3972  0.6442  0.1106
  283MOL0     C38958   4.476   7.580   1.840 -0.7472  0.9826 -0.1987
  283MOL0     C38959   4.494   7.465   1.745 -0.1768 -0.8079  0.4336
  283MOL0     C38960   4.644   7.437   1.724  0.2336  0.0597  0.2009
  283MOL0    Cl38961   4.725   7.582   1.641  0.0264  0.4988 -0.1593
  283MOL0     C38962   3.590   8.032   1.799 -0.5391  0.7760  0.1856
  283MOL0     C38963   3.453   8.038   1.796  0.3873 -0.1893  0.8744
  283MOL0     O38964   3.182   7.719   1.842  0.1128  0.3151  0.2043
  283MOL0     C38965   2.920   7.805   1.870  0.4130 -0.4756  0.2788
  283MOL0     C38966   2.793   7.834   1.910 -0.6498 -0.0857 -0.1611
  283MOL0     N38967   2.170   7.985   2.358 -0.7195  0.4349  0.0272
  283MOL0     N38968   2.046   7.956   2.377 -0.2538 -0.6938 -0.4373
  283MOL0     C38969   1.386   7.450   1.837 -0.2547 -0.2668 -0.0379
  283MOL0     C38970   1.446   7.379   1.739 -0.8208  0.7001  0.6002
  283MOL0     C38971   1.470   7.084   1.367 -0.1224 -0.0392  0.3876
  283MOL0     C38972   1.594   7.133   1.328  0.3791 -0.5714 -0.2763
  283MOL0     C38973   1.668   7.097   1.215 -0.4910  0.4055  0.1630
  283MOL0     C38974   1.612   7.004   1.124  0.3208 -0.7864  0.4421
  283MOL0     O38975   1.678   6.981   1.006  0.1935 -0.0435  0.1709
  283MOL0     C38976   1.632   6.875   0.924 -0.1319 -0.8927  0.1384
  283MOL0     C38977   1.711   6.872   0.795 -0.1959  0.4712  0.1453
  283MOL0     C38978   1.710   7.011   0.730 -0.1327 -0.1028  0.9510
  283MOL0     C38979   1.752   7.015   0.583  0.4710  0.4903 -0.0757
  283MOL0     C38980   1.898   7.011   0.578  1.3895 -0.4183 -0.7305
  283MOL0     C38981   2.016   7.034   0.581  0.1750 -0.7966  0.2585
  283MOL0     C38982   1.483   6.952   1.165  0.0390  0.5010 -0.2042
  283MOL0     C38983   1.415   6.986   1.277  0.1262 -0.2662  0.9587
  283MOL0     C38984   1.270   6.930   1.294 -0.1856 -0.3327 -0.4286
  283MOL0     H38985   1.168   7.258   1.590 -1.9703  1.9458  0.7047
  283MOL0     H38986   1.054   7.371   1.767 -0.4034  2.4614  4.0218
  283MOL0     H38987   1.253   7.358   2.085  0.8672  0.7367  0.8964
  283MOL0     H38988   1.088   7.420   2.105 -0.6020 -2.1262 -0.4900
  283MOL0     H38989   1.194   7.645   2.161  1.1589 -0.9810 -0.8083
  283MOL0     H38990   1.237   7.495   2.266  1.3923 -3.7320 -0.3067
  283MOL0     H38991   1.452   7.501   2.117  1.4949  0.9207 -0.4649
  283MOL0     H38992   1.399   7.660   2.058 -3.0308 -0.2571 -0.4141
  283MOL0     H38993   1.378   7.717   2.319 -0.5681 -0.6972 -0.3551
  283MOL0     H38994   1.480   7.584   2.345  0.4077  1.0098  0.2275
  283MOL0     H38995   1.554   7.795   2.141  0.6503  0.4547  0.2013
  283MOL0     H38996   1.670   7.672   2.203  0.2434  0.2324  1.3159
  283MOL0     H38997   1.536   7.888   2.371 -1.2716 -1.7735 -0.6948
  283MOL0     H38998   1.638   7.753   2.418 -1.0560 -1.1374  0.0785
  283MOL0     H38999   1.778   7.961   2.393  0.2019  0.1783 -0.1199
  283MOL0     H39000   1.747   7.970   2.227 -0.1836 -1.7439 -1.5125
  283MOL0     H39001   1.883   7.718   2.330  0.3231  0.9754  0.7412
  283MOL0     H39002   1.847   7.770   2.166  0.4024 -1.5111  0.1531
  283MOL0     H39003   2.076   7.850   2.076  2.5362 -4.5882  0.2964
  283MOL0     H39004   2.398   7.887   2.169 -2.8374 -2.9771 -2.1640
  283MOL0     H39005   2.375   8.059   2.211 -0.2811 -0.8124  1.2324
  283MOL0     H39006   2.283   7.908   1.953 -0.6030  0.9024 -1.8340
  283MOL0     H39007   2.212   8.060   2.000  0.3300  1.1758 -0.6655
  283MOL0     H39008   2.392   8.105   1.851  4.4620  1.8927 -1.9035
  283MOL0     H39009   2.472   8.146   2.011  1.2675 -1.3972  0.2434
  283MOL0     H39010   2.517   7.883   1.874  2.1644 -2.3961  4.0318
  283MOL0     H39011   2.597   8.030   1.823 -1.1465 -2.2989 -0.8175
  283MOL0     H39012   2.866   8.120   2.080  1.7700 -0.4752  0.7836
  283MOL0     H39013   3.199   8.017   2.079 -0.0738 -2.0716 -1.2854
  283MOL0     H39014   3.078   8.145   2.124 -2.2005 -2.0404 -0.2599
  283MOL0     H39015   3.161   8.144   1.965  1.1347 -0.1726 -0.0081
  283MOL0     H39016   3.400   7.709   1.872  1.1113 -0.3191  0.0381
  283MOL0     H39017   3.633   7.696   1.834  0.9869  0.8203  2.5238
  283MOL0     H39018   3.876   7.774   1.939 -0.2297 -1.4257 -0.0919
  283MOL0     H39019   3.835   7.704   1.782  0.3931 -0.6042  0.7368
  283MOL0     H39020   4.017   7.820   1.679  1.2678 -2.2321 -0.4935
  283MOL0     H39021   4.061   7.912   1.828  2.8570 -2.4627  1.2903
  283MOL0     H39022   4.065   7.594   1.824  1.7416 -0.6237  1.2569
  283MOL0     H39023   4.098   7.710   1.954 -1.0227  0.4390  0.0602
  283MOL0     H39024   4.282   7.797   1.847  0.8370 -0.1199 -0.0946
  283MOL0     H39025   4.271   7.704   1.703  0.6367  3.6795  1.5610
  283MOL0     H39026   4.332   7.623   1.993  1.0220  1.4339 -0.0732
  283MOL0     H39027   4.284   7.497   1.871  2.5886 -0.7274 -1.5041
  283MOL0     H39028   4.536   7.563   1.930 -1.3983 -0.2929  0.0076
  283MOL0     H39029   4.508   7.677   1.801 -2.8890  1.9939  0.4236
  283MOL0     H39030   4.445   7.492   1.651 -0.1455  0.2261  0.7047
  283MOL0     H39031   4.456   7.371   1.787 -0.9871  0.5261  2.8857
  283MOL0     H39032   4.674   7.355   1.658 -1.7143 -0.4692 -0.0670
  283MOL0     H39033   4.696   7.405   1.814 -0.3880  1.4369  1.0801
  283MOL0     H39034   3.652   8.121   1.803  1.8814 -0.4299 -4.3623
  283MOL0     H39035   3.394   8.128   1.790 -3.8079 -2.6204  1.5644
  283MOL0     H39036   2.940   7.726   1.799  0.9151  0.9813 -1.2878
  283MOL0     H39037   2.705   7.775   1.885  1.3852 -3.2506 -0.4858
  283MOL0     H39038   1.442   7.518   1.899 -0.1202  0.4203 -0.8836
  283MOL0     H39039   1.552   7.389   1.723 -0.5751 -0.3501  1.4525
  283MOL0     H39040   1.645   7.209   1.387  0.3533  1.7725 -3.0201
  283MOL0     H39041   1.754   7.161   1.196 -1.0841  1.2097  0.1453
  283MOL0     H39042   1.636   6.778   0.974  0.7352 -0.9726 -0.0755
  283MOL0     H39043   1.527   6.901   0.906 -0.8111 -2.7877  1.0823
  283MOL0     H39044   1.653   6.811   0.725  1.3868  1.9091 -2.5965
  283MOL0     H39045   1.811   6.828   0.799 -0.1317  0.1390 -2.6398
  283MOL0     H39046   1.606   7.043   0.723  0.0196  0.2632  0.1683
  283MOL0     H39047   1.761   7.086   0.791  0.1413  0.5869 -0.0858
  283MOL0     H39048   1.728   7.112   0.538  5.0675  1.9164  0.0130
  283MOL0     H39049   1.708   6.933   0.525  1.6081  2.0454 -3.3982
  283MOL0     H39050   2.119   7.064   0.584  0.0561 -0.1454 -1.3616
  283MOL0     H39051   1.429   6.879   1.106  0.6089  1.9127 -2.5687
  283MOL0     H39052   1.243   6.882   1.200  0.9039  1.0259 -1.4686
  283MOL0     H39053   1.269   6.855   1.375 -1.7090 -2.4060 -2.2333
  283MOL0     H39054   1.196   7.007   1.318  0.1476 -0.0710 -0.2305
  284MOL0     O39055   8.160   7.310   1.544  0.2375 -0.4006  0.2251
  284MOL0     C39056   8.136   7.206   1.481  0.0737  1.1112  0.1955
  284MOL0     O39057   8.227   7.117   1.434 -0.3080 -0.4638  0.9690
  284MOL0     C39058   8.364   7.126   1.467  0.6663  0.3440 -0.8668
  284MOL0     C39059   8.460   7.113   1.365  0.4175 -0.8545  0.0284
  284MOL0     C39060   8.590   7.125   1.398 -0.5018  0.3257  0.4745
  284MOL0     C39061   8.633   7.144   1.530  0.3898  0.0773  0.5561
  284MOL0     O39062   8.760   7.142   1.572 -0.0581 -0.0343  0.0950
  284MOL0     C39063   8.858   7.115   1.473  0.5995 -0.3273  1.3143
  284MOL0     C39064   8.992   7.092   1.531 -0.2665 -0.3101 -0.4246
  284MOL0     C39065   9.090   7.046   1.426  0.2727 -0.4138  0.1964
  284MOL0     C39066   9.077   6.902   1.380 -0.4070 -0.0832  0.0030
  284MOL0     C39067   9.131   6.881   1.235  0.0552  0.8971 -0.3980
  284MOL0     C39068   9.281   6.915   1.229 -0.1986  0.0389  0.1095
  284MOL0     C39069   9.369   6.845   1.341 -0.7372 -0.5008 -0.4222
  284MOL0     C39070   9.514   6.822   1.297 -0.2328 -1.1439 -0.2789
  284MOL0     N39071   9.590   6.725   1.378  0.6260  0.1434  0.2568
  284MOL0     C39072   9.604   6.723   1.509  0.4012 -0.1124 -1.0748
  284MOL0     C39073   9.697   6.630   1.531 -0.6049 -0.4896  0.9066
  284MOL0     C39074   9.755   6.599   1.666  0.3285 -0.1006  0.6131
  284MOL0     C39075   9.875   6.699   1.686  0.2493  0.3799 -0.1187
  284MOL0     C39076   9.960   6.661   1.808 -0.1047 -0.5530  0.4820
  284MOL0     C39077  10.087   6.756   1.803  0.2587  0.6452 -0.0847
  284MOL0     O39078  10.165   6.737   1.913 -0.2175  0.1975 -0.3732
  284MOL0     C39079  10.286   6.806   1.913  0.6965 -0.4770 -0.5114
  284MOL0     C39080  10.357   6.778   2.035  0.1305  0.1110 -0.0417
  284MOL0     C39081  10.492   6.822   2.055  0.4750  0.2632 -0.1111
  284MOL0     C39082  10.563   6.783   2.183  0.2368 -0.1626  0.0069
  284MOL0     C39083  10.549   6.912   1.956 -0.2707  0.0444  0.7310
  284MOL0     C39084  10.683   6.976   1.975 -0.3413 -0.0284  0.5583
  284MOL0     O39085  10.745   7.020   1.864  0.1722 -0.2406  0.9459
  284MOL0     C39086  10.852   7.104   1.873 -0.1583 -0.4895 -0.1488
  284MOL0     C39087  10.976   7.053   1.837  1.2462  0.0805  0.1928
  284MOL0     C39088  11.093   7.134   1.857 -0.1447  0.5664  0.2440
  284MOL0     C39089  11.079   7.275   1.883  0.5369 -0.1572  0.3245
  284MOL0     O39090  11.191   7.356   1.887  0.6084  0.3183 -0.1523
  284MOL0     C39091  11.178   7.495   1.889  0.4060 -0.1768 -0.1555
  284MOL0     C39092  11.317   7.557   1.879 -0.7879  0.4360  0.5472
  284MOL0     C39093  11.390   7.537   2.015 -0.1396  0.0050  0.1417
  284MOL0     C39094  11.530   7.606   2.006  0.0369  0.3877  1.1594
  284MOL0     C39095  11.604   7.600   2.142 -0.3267 -0.3149  0.5985
  284MOL0     C39096  11.737   7.668   2.133  0.1242  0.4409 -0.3501
  284MOL0     C39097  11.840   7.588   2.048 -0.3426 -0.4216 -0.1674
  284MOL0     C39098  11.983   7.650   2.043 -0.0819  0.2468 -0.0554
  284MOL0    Cl39099  12.074   7.617   2.202  0.3680 -0.2308 -0.1038
  284MOL0     C39100  10.953   7.328   1.914  0.7350  0.8871 -0.5910
  284MOL0     C39101  10.842   7.237   1.917  0.6346 -1.0345  0.1165
  284MOL0     O39102  10.707   7.026   2.083  0.0009  0.2992  0.8523
  284MOL0     C39103  10.480   6.943   1.836 -0.0912  0.1820 -0.2942
  284MOL0     C39104  10.349   6.885   1.813 -0.6360 -0.5502  0.0578
  284MOL0     N39105   9.724   6.563   1.415 -0.5949  0.1835 -0.9268
  284MOL0     N39106   9.658   6.621   1.323 -0.1743  0.0391  0.7163
  284MOL0     C39107   8.537   7.170   1.635  0.0514  0.1022 -0.1872
  284MOL0     C39108   8.400   7.159   1.608  0.1424  0.2591  0.0533
  284MOL0     C39109   7.992   7.167   1.470  0.2236  0.0035  1.1000
  284MOL0     C39110   7.957   7.034   1.439 -0.3824 -0.3698  0.4993
  284MOL0     C39111   7.824   6.992   1.447 -0.1944  0.1109 -0.5213
  284MOL0     C39112   7.717   7.077   1.454 -0.1892  0.2906 -0.7742
  284MOL0     O39113   7.591   7.025   1.445 -0.4901 -0.0746  0.0265
  284MOL0     C39114   7.483   7.093   1.508  0.1835  0.0747 -0.2665
  284MOL0     C39115   7.344   7.055   1.473 -0.3523  0.2487 -0.6277
  284MOL0     C39116   7.305   7.097   1.332  0.2551 -0.1584 -0.2348
  284MOL0     C39117   7.349   7.008   1.216  1.4583 -0.8069  0.1598
  284MOL0     C39118   7.300   6.871   1.240  0.4791  0.2874  0.0118
  284MOL0     C39119   7.258   6.753   1.232 -0.2769 -0.4867  0.6043
  284MOL0     C39120   7.752   7.216   1.461  0.2760 -0.0385 -0.2790
  284MOL0     C39121   7.882   7.258   1.476  0.1195 -0.2548 -0.3846
  284MOL0     C39122   7.898   7.409   1.484 -0.3427  0.8424 -0.1267
  284MOL0     H39123   8.431   7.101   1.261  0.5033 -0.7842 -0.0041
  284MOL0     H39124   8.664   7.116   1.320 -1.4058 -1.2113 -0.2644
  284MOL0     H39125   8.864   7.193   1.396 -1.7936 -1.1552  0.1927
  284MOL0     H39126   8.831   7.025   1.417  1.5345  0.4130 -0.4276
  284MOL0     H39127   9.023   7.187   1.575 -1.5098 -0.6970  1.3883
  284MOL0     H39128   8.974   7.015   1.607  0.7939  0.5817  0.7701
  284MOL0     H39129   9.085   7.114   1.340  0.6456  3.1429  2.7479
  284MOL0     H39130   9.190   7.061   1.469  0.5955 -2.6808  0.3763
  284MOL0     H39131   9.120   6.839   1.458  1.3675 -0.5547 -1.2668
  284MOL0     H39132   8.972   6.871   1.383 -0.5358  0.4065  1.7141
  284MOL0     H39133   9.070   6.942   1.168 -1.1165  0.1782 -0.0249
  284MOL0     H39134   9.120   6.775   1.211  0.4557  0.0944  2.4779
  284MOL0     H39135   9.316   6.902   1.126 -1.3327  2.4072 -0.6499
  284MOL0     H39136   9.285   7.024   1.241 -1.9050  0.2137 -0.6816
  284MOL0     H39137   9.337   6.742   1.363  0.9166 -1.1336 -0.7698
  284MOL0     H39138   9.372   6.900   1.435  0.8308  0.6629 -1.1081
  284MOL0     H39139   9.509   6.780   1.196 -0.0780  1.2572 -1.3494
  284MOL0     H39140   9.566   6.915   1.273 -1.1418 -0.6428 -0.3485
  284MOL0     H39141   9.544   6.779   1.579  1.6935  2.1887 -1.6740
  284MOL0     H39142   9.792   6.496   1.668 -0.3633 -0.4957 -2.3492
  284MOL0     H39143   9.684   6.623   1.746  2.2180  2.1087  1.7357
  284MOL0     H39144   9.942   6.693   1.600 -0.9776 -0.4786 -1.0498
  284MOL0     H39145   9.832   6.799   1.687 -0.6333  0.0443 -1.6327
  284MOL0     H39146   9.909   6.645   1.903  1.3176 -0.8866  1.2152
  284MOL0     H39147  10.003   6.564   1.780  0.1828 -0.2829 -0.0414
  284MOL0     H39148  10.145   6.724   1.716  1.6826  0.8269  0.7735
  284MOL0     H39149  10.064   6.863   1.802  1.8936  1.0740  1.9933
  284MOL0     H39150  10.318   6.715   2.114  0.0924  1.7503  1.3176
  284MOL0     H39151  10.543   6.852   2.265 -3.8916 -1.2744  0.1695
  284MOL0     H39152  10.671   6.776   2.172  0.3037 -0.9782  1.0188
  284MOL0     H39153  10.526   6.686   2.220 -3.4594 -0.2199 -3.1619
  284MOL0     H39154  10.981   6.950   1.804 -2.8413 -0.0268 -0.5595
  284MOL0     H39155  11.192   7.094   1.838 -0.4380  0.9170 -2.5357
  284MOL0     H39156  11.129   7.524   1.795 -1.6458 -3.1021 -0.1392
  284MOL0     H39157  11.128   7.526   1.981 -1.6487  0.4509 -1.4079
  284MOL0     H39158  11.366   7.511   1.792 -0.5628 -1.7070  1.7379
  284MOL0     H39159  11.313   7.664   1.858 -0.4058  0.3928  0.2154
  284MOL0     H39160  11.396   7.430   2.039  1.0538  0.3518  1.5119
  284MOL0     H39161  11.341   7.596   2.093 -1.5343 -0.1021 -0.6221
  284MOL0     H39162  11.513   7.711   1.980 -0.5873 -0.1130 -0.5223
  284MOL0     H39163  11.586   7.556   1.927 -2.6570 -0.2810 -0.4131
  284MOL0     H39164  11.540   7.645   2.218 -2.2069  0.4109 -1.3069
  284MOL0     H39165  11.624   7.499   2.178 -1.3669 -0.4844  0.7391
  284MOL0     H39166  11.782   7.683   2.231 -0.4821  1.1210 -0.1685
  284MOL0     H39167  11.715   7.766   2.088 -0.1503 -0.5482 -2.5121
  284MOL0     H39168  11.807   7.579   1.944  0.5789  0.8864 -0.5902
  284MOL0     H39169  11.836   7.483   2.079 -1.3911 -0.5717 -0.7709
  284MOL0     H39170  11.980   7.757   2.022  2.4282  0.0006 -2.0862
  284MOL0     H39171  12.045   7.620   1.959  1.7186  0.8868  0.9871
  284MOL0     H39172  10.949   7.435   1.933  1.4743  0.9892 -0.9659
  284MOL0     H39173  10.745   7.282   1.937  1.1794 -0.3644  1.3475
  284MOL0     H39174  10.519   7.008   1.758 -2.8057 -0.6792 -2.5306
  284MOL0     H39175  10.303   6.901   1.716 -0.8944 -0.8045  0.1364
  284MOL0     H39176   8.576   7.184   1.736  0.6864  1.7922 -0.6354
  284MOL0     H39177   8.318   7.174   1.677 -2.3900  0.9943 -2.9011
  284MOL0     H39178   8.030   6.954   1.433 -1.0072 -0.9717  0.8031
  284MOL0     H39179   7.804   6.886   1.441  1.6206 -0.3094  0.1327
  284MOL0     H39180   7.493   7.079   1.616 -1.2208  1.2477  0.0508
  284MOL0     H39181   7.492   7.201   1.494 -1.9727  0.2868 -0.2760
  284MOL0     H39182   7.269   7.106   1.535 -1.9572  0.0582 -2.3286
  284MOL0     H39183   7.335   6.947   1.483  2.8179 -0.4805 -3.8008
  284MOL0     H39184   7.196   7.092   1.332  0.1002  2.0358  0.4288
  284MOL0     H39185   7.328   7.203   1.317  0.5546  0.0271  1.3455
  284MOL0     H39186   7.458   7.013   1.207  1.6656  1.6327  2.5665
  284MOL0     H39187   7.300   7.051   1.128  3.6648  1.6855  0.0356
  284MOL0     H39188   7.237   6.648   1.226  1.5655 -0.7977 -1.1853
  284MOL0     H39189   7.677   7.293   1.444  2.9921  2.3577 -2.3456
  284MOL0     H39190   7.914   7.431   1.590  1.3095 -1.0118  0.0907
  284MOL0     H39191   7.984   7.453   1.432 -2.4099  0.5733 -4.2180
  284MOL0     H39192   7.809   7.462   1.450 -1.3465  0.4230  1.7050
  285MOL0     O39193   9.324   5.127   6.491 -0.4135  0.3305  0.2738
  285MOL0     C39194   9.380   5.223   6.439 -0.5371  0.3659 -0.0361
  285MOL0     O39195   9.509   5.221   6.394 -0.1058  0.2049  0.2577
  285MOL0     C39196   9.586   5.107   6.421  0.3637  0.4169 -0.8048
  285MOL0     C39197   9.620   5.030   6.311  0.0422  1.0530 -0.9390
  285MOL0     C39198   9.715   4.930   6.327 -0.8164 -0.3713  0.2102
  285MOL0     C39199   9.788   4.909   6.445  0.1748  0.2692 -0.3094
  285MOL0     O39200   9.871   4.797   6.446 -0.0752 -0.2049 -0.4491
  285MOL0     C39201   9.957   4.786   6.565 -0.3795  0.5285 -0.1810
  285MOL0     C39202  10.049   4.665   6.528 -0.1415  0.7362  0.3445
  285MOL0     C39203  10.154   4.629   6.635  0.0702  0.0595  0.6464
  285MOL0     C39204  10.240   4.507   6.594  0.2374 -0.3407 -0.4179
  285MOL0     C39205  10.341   4.544   6.481 -0.4136  0.0010  0.1491
  285MOL0     C39206  10.453   4.635   6.526 -0.4645 -0.1733  0.5659
  285MOL0     C39207  10.537   4.667   6.399 -0.8524  0.7177 -0.6721
  285MOL0     C39208  10.630   4.784   6.424  0.8623  0.5681 -0.0144
  285MOL0     N39209  10.715   4.814   6.311 -0.7490 -0.4951 -0.0463
  285MOL0     C39210  10.658   4.868   6.196  0.1302 -0.7385  0.0968
  285MOL0     C39211  10.760   4.847   6.107 -0.4649  0.3335 -0.0815
  285MOL0     C39212  10.748   4.874   5.957 -0.6198 -0.0613  0.1600
  285MOL0     C39213  10.842   4.987   5.901 -0.2199  0.4921  0.4736
  285MOL0     C39214  10.837   5.115   5.973 -0.4726 -0.7221  0.7137
  285MOL0     C39215  10.703   5.190   5.969 -0.7629 -0.2891 -0.7803
  285MOL0     O39216  10.664   5.211   5.833 -0.4468 -0.0001  0.2080
  285MOL0     C39217  10.530   5.208   5.788 -0.6954 -0.1694 -0.1967
  285MOL0     C39218  10.429   5.232   5.877  0.1551 -0.7722 -0.2500
  285MOL0     C39219  10.295   5.231   5.834 -0.6144  0.6890  0.4245
  285MOL0     C39220  10.191   5.266   5.933 -0.3618  0.5765 -0.3577
  285MOL0     C39221  10.270   5.192   5.698 -0.2611  0.3166  0.0431
  285MOL0     C39222  10.134   5.184   5.647 -0.1045  0.2657  0.9639
  285MOL0     O39223  10.127   5.213   5.514  0.0916  0.3224 -0.5491
  285MOL0     C39224  10.004   5.205   5.445 -0.2586  0.4707 -0.4115
  285MOL0     C39225   9.961   5.317   5.368  0.1871  0.4122  0.3796
  285MOL0     C39226   9.830   5.319   5.312  0.2580  0.1094  0.2688
  285MOL0     C39227   9.745   5.212   5.333 -0.1027 -0.8679  0.2298
  285MOL0     O39228   9.625   5.207   5.269  1.4516 -0.6857  0.1335
  285MOL0     C39229   9.517   5.158   5.355  0.1532  0.2120  0.1749
  285MOL0     C39230   9.387   5.139   5.281 -0.0602  0.3245  0.1210
  285MOL0     C39231   9.265   5.129   5.377 -0.0016  0.1383  0.5391
  285MOL0     C39232   9.145   5.076   5.299 -0.0754  0.7501  0.2652
  285MOL0     C39233   9.016   5.130   5.371  0.4828  0.4569  0.3266
  285MOL0     C39234   8.990   5.073   5.515 -0.1130 -0.3434 -0.4112
  285MOL0     C39235   8.858   5.131   5.574 -0.2161 -0.3675 -0.4067
  285MOL0     C39236   8.885   5.164   5.723 -0.3948  0.0135 -0.2944
  285MOL0    Cl39237   8.941   5.012   5.802  0.3881  0.8996  0.4969
  285MOL0     C39238   9.793   5.093   5.391 -0.1531  0.1596  0.3472
  285MOL0     C39239   9.920   5.092   5.443 -0.2365 -0.0099  0.2269
  285MOL0     O39240  10.037   5.147   5.708 -0.1211  0.0136 -0.1855
  285MOL0     C39241  10.376   5.174   5.615 -0.3293  0.1783  1.3522
  285MOL0     C39242  10.504   5.176   5.660  0.1412 -0.4078  0.5329
  285MOL0     N39243  10.871   4.796   6.173 -1.2207 -0.1867 -0.8449
  285MOL0     N39244  10.846   4.782   6.295  0.1761  0.0416  0.1868
  285MOL0     C39245   9.757   5.002   6.554 -0.2613  0.3963  0.5446
  285MOL0     C39246   9.660   5.102   6.534 -0.1070 -0.7150  0.3486
  285MOL0     C39247   9.294   5.336   6.400 -0.2606  0.4061  0.6191
  285MOL0     C39248   9.338   5.409   6.290  0.0590  0.0639  0.0027
  285MOL0     C39249   9.278   5.525   6.238  0.8156 -1.4391 -1.3390
  285MOL0     C39250   9.161   5.571   6.300  0.7770  0.8186 -0.6345
  285MOL0     O39251   9.102   5.686   6.243 -0.2884  0.1116 -0.0286
  285MOL0     C39252   8.964   5.703   6.254  0.0372 -0.0629 -0.1877
  285MOL0     C39253   8.874   5.623   6.150 -0.1007  0.1474 -0.4392
  285MOL0     C39254   8.914   5.648   6.004  0.2070 -0.2046 -0.0656
  285MOL0     C39255   8.801   5.580   5.915 -0.0846 -0.2461 -0.2025
  285MOL0     C39256   8.837   5.560   5.778  0.0251 -1.2724  0.4062
  285MOL0     C39257   8.882   5.548   5.666  0.9715 -0.2008  0.5901
  285MOL0     C39258   9.110   5.503   6.411 -0.8710  0.6052  0.3366
  285MOL0     C39259   9.178   5.379   6.465  0.0928 -0.6448  0.8176
  285MOL0     C39260   9.111   5.300   6.575  0.4183  0.0554 -0.6607
  285MOL0     H39261   9.581   5.026   6.210  1.1454 -3.4746 -1.3846
  285MOL0     H39262   9.740   4.870   6.241  1.5559  1.1643 -0.2820
  285MOL0     H39263   9.898   4.772   6.657  0.2938  1.4865  0.4067
  285MOL0     H39264  10.023   4.873   6.569  0.9468 -0.0236 -4.5729
  285MOL0     H39265   9.989   4.575   6.511  0.0750  0.6628 -0.0521
  285MOL0     H39266  10.105   4.682   6.435 -0.7978 -0.5339 -0.3091
  285MOL0     H39267  10.218   4.716   6.651  2.1223 -0.9413 -1.5555
  285MOL0     H39268  10.093   4.618   6.725 -0.2111 -0.6266  0.3788
  285MOL0     H39269  10.297   4.479   6.683  1.5405  1.4470 -0.6406
  285MOL0     H39270  10.166   4.433   6.561 -1.7680  0.6299  1.6179
  285MOL0     H39271  10.290   4.588   6.395 -0.0277  0.4599  0.1525
  285MOL0     H39272  10.387   4.450   6.448 -0.8600  0.2521 -1.2273
  285MOL0     H39273  10.414   4.723   6.579 -4.0423 -0.4170 -1.3862
  285MOL0     H39274  10.520   4.568   6.581  1.0404 -0.2540 -1.2579
  285MOL0     H39275  10.480   4.702   6.312  2.0697  2.1877 -2.1590
  285MOL0     H39276  10.594   4.578   6.372 -1.2767 -0.3288  1.6218
  285MOL0     H39277  10.569   4.871   6.451  0.9562  0.6654 -0.1163
  285MOL0     H39278  10.684   4.768   6.517 -0.6141  1.8216  1.1048
  285MOL0     H39279  10.559   4.911   6.185 -0.1403 -1.4210 -0.1974
  285MOL0     H39280  10.642   4.889   5.934 -0.7363 -0.7757  0.2276
  285MOL0     H39281  10.773   4.777   5.915  0.0755  0.3518 -0.4091
  285MOL0     H39282  10.945   4.960   5.924 -0.1133  0.0954 -0.4366
  285MOL0     H39283  10.832   5.005   5.794  1.6380 -0.3307  0.1304
  285MOL0     H39284  10.878   5.090   6.072  3.8960 -0.4265 -0.7857
  285MOL0     H39285  10.907   5.188   5.930 -3.0056  1.0643 -0.6714
  285MOL0     H39286  10.626   5.127   6.016 -1.8332  1.5067  0.0147
  285MOL0     H39287  10.697   5.287   6.019 -1.6432 -1.2330  1.0569
  285MOL0     H39288  10.455   5.233   5.982  0.1927 -1.5513 -0.2421
  285MOL0     H39289  10.235   5.272   6.034  1.9595 -0.2767 -1.2449
  285MOL0     H39290  10.118   5.186   5.946  0.5418 -0.1623  0.3050
  285MOL0     H39291  10.139   5.354   5.893 -0.2980  0.7463 -0.0696
  285MOL0     H39292  10.017   5.410   5.361  0.4046  0.1460 -2.7208
  285MOL0     H39293   9.797   5.405   5.256 -1.8584 -0.0496  1.1495
  285MOL0     H39294   9.538   5.068   5.414  2.2856  2.0607  2.4668
  285MOL0     H39295   9.497   5.237   5.428  0.0598  1.6547 -1.3521
  285MOL0     H39296   9.374   5.220   5.209 -3.5047 -0.5053 -0.3845
  285MOL0     H39297   9.408   5.042   5.233  0.1103 -0.9101  2.5520
  285MOL0     H39298   9.256   5.222   5.435 -1.1195 -0.0127  0.6191
  285MOL0     H39299   9.290   5.050   5.449  1.4039 -0.6185 -0.7255
  285MOL0     H39300   9.136   4.967   5.298  0.1855  0.7217 -0.8595
  285MOL0     H39301   9.142   5.111   5.195 -1.8726 -2.1925 -0.7925
  285MOL0     H39302   9.021   5.239   5.376 -1.5545  0.5518  1.1348
  285MOL0     H39303   8.934   5.112   5.301  3.0230 -0.6199 -2.6517
  285MOL0     H39304   9.073   5.113   5.573  0.4659 -0.0649 -1.4044
  285MOL0     H39305   9.001   4.965   5.526  0.3408 -0.1971  0.7251
  285MOL0     H39306   8.782   5.053   5.568 -0.8977  0.1179  1.3659
  285MOL0     H39307   8.821   5.217   5.516  2.1418  1.2941  0.3929
  285MOL0     H39308   8.801   5.196   5.785  0.1736 -1.9510  1.6307
  285MOL0     H39309   8.966   5.238   5.724 -3.1224  3.3600 -2.8879
  285MOL0     H39310   9.728   5.006   5.392 -2.3805  1.7123 -0.2300
  285MOL0     H39311   9.952   4.997   5.487  1.1781  0.4923  0.3234
  285MOL0     H39312  10.374   5.164   5.507  2.5402 -0.4637  1.2818
  285MOL0     H39313  10.589   5.158   5.595  0.4044 -2.1067  1.3060
  285MOL0     H39314   9.810   4.992   6.648  0.1066 -2.2995  0.1288
  285MOL0     H39315   9.639   5.176   6.611  1.5771 -0.6116  0.7492
  285MOL0     H39316   9.425   5.379   6.233 -0.5358  0.8550 -1.3645
  285MOL0     H39317   9.323   5.578   6.154 -1.0934  1.7938 -0.4940
  285MOL0     H39318   8.933   5.703   6.359  0.1540 -0.3108 -0.1528
  285MOL0     H39319   8.942   5.808   6.229 -1.5949  0.6472  3.5555
  285MOL0     H39320   8.769   5.651   6.168 -0.7430 -1.3419 -1.6149
  285MOL0     H39321   8.881   5.516   6.171 -2.6134 -0.0550 -0.3359
  285MOL0     H39322   8.910   5.754   5.980 -0.3634 -0.2392 -0.1418
  285MOL0     H39323   9.008   5.597   5.981 -0.2893 -2.3604  2.2843
  285MOL0     H39324   8.711   5.643   5.914 -0.5199 -0.8528  0.3338
  285MOL0     H39325   8.770   5.483   5.953 -0.0257  0.2851  1.2666
  285MOL0     H39326   8.931   5.520   5.575 -0.6850  0.7586 -0.6650
  285MOL0     H39327   9.018   5.526   6.464 -1.0922 -0.6743  0.5479
  285MOL0     H39328   9.094   5.195   6.551  0.2538 -0.6943  2.4107
  285MOL0     H39329   9.156   5.313   6.673 -3.0298 -0.0784  1.0748
  285MOL0     H39330   9.007   5.332   6.584  0.7419  1.1664 -0.7158
  286MOL0     O39331   0.792   5.018   0.701  0.2075 -0.5025  0.1979
  286MOL0     C39332   0.746   5.068   0.601  0.3887  0.0720  0.2502
  286MOL0     O39333   0.786   5.188   0.546  0.0962 -0.5281 -0.0050
  286MOL0     C39334   0.824   5.300   0.621 -0.2473 -0.1366 -0.8111
  286MOL0     C39335   0.792   5.321   0.762  0.5008  1.0517 -0.2049
  286MOL0     C39336   0.817   5.443   0.820 -0.1621  0.3423 -0.4051
  286MOL0     C39337   0.881   5.547   0.752 -0.3696 -0.8502  0.4362
  286MOL0     O39338   0.910   5.664   0.827  0.4360 -0.0091  0.3951
  286MOL0     C39339   1.043   5.714   0.798 -0.1856  0.7838  0.1258
  286MOL0     C39340   1.084   5.823   0.908 -0.0420  0.5892  0.3340
  286MOL0     C39341   1.202   5.909   0.849 -0.0810 -0.2938 -0.7308
  286MOL0     C39342   1.302   5.960   0.953  0.4770  0.0803  0.1831
  286MOL0     C39343   1.215   6.039   1.056  0.4814 -0.4222 -1.2870
  286MOL0     C39344   1.300   6.113   1.169 -0.1256 -0.4545  0.0237
  286MOL0     C39345   1.396   6.025   1.250  0.5012  0.2851 -0.7074
  286MOL0     C39346   1.497   6.122   1.323  0.2940 -0.3211  0.3497
  286MOL0     N39347   1.597   6.048   1.404  0.0562 -0.2535 -0.1450
  286MOL0     C39348   1.667   5.932   1.361 -0.1981  0.3975  1.2764
  286MOL0     C39349   1.742   5.888   1.466  0.2635  0.2622  0.4964
  286MOL0     C39350   1.835   5.776   1.476  0.1402 -0.3478  0.6628
  286MOL0     C39351   1.978   5.810   1.507 -0.1253 -0.3651 -0.7723
  286MOL0     C39352   2.043   5.898   1.411 -0.0960  0.5977 -0.3701
  286MOL0     C39353   2.184   5.930   1.444 -0.4667  0.1299  0.4955
  286MOL0     O39354   2.240   5.996   1.332 -0.2361 -0.7595 -0.1846
  286MOL0     C39355   2.381   6.025   1.333  0.9025 -0.0590 -0.0520
  286MOL0     C39356   2.433   6.051   1.206  0.0601 -0.0150 -0.1998
  286MOL0     C39357   2.573   6.078   1.187  0.0239 -0.4214  0.0009
  286MOL0     C39358   2.609   6.115   1.043  0.1690 -0.2527 -0.0699
  286MOL0     C39359   2.658   6.055   1.298 -0.2278  0.7116 -0.5399
  286MOL0     C39360   2.806   6.062   1.294 -0.0964 -0.1619 -0.4233
  286MOL0     O39361   2.876   6.077   1.417  0.2432  0.0010 -0.0829
  286MOL0     C39362   3.011   6.098   1.426  0.4742  0.2154  0.7830
  286MOL0     C39363   3.107   6.032   1.349  0.0483 -0.2003 -0.7822
  286MOL0     C39364   3.242   6.057   1.369 -0.3539  0.7027  0.2392
  286MOL0     C39365   3.275   6.159   1.453 -0.1101  0.1612  0.3602
  286MOL0     O39366   3.410   6.191   1.460 -0.7603  0.7224  0.2478
  286MOL0     C39367   3.447   6.326   1.504  0.3874  0.2346  1.0466
  286MOL0     C39368   3.595   6.359   1.456 -0.5988  0.3959  0.0308
  286MOL0     C39369   3.701   6.275   1.533  0.1406 -0.3778  0.0527
  286MOL0     C39370   3.833   6.252   1.449  0.3649  0.7028  0.4858
  286MOL0     C39371   3.947   6.213   1.542  0.5061 -0.1243  0.4415
  286MOL0     C39372   4.071   6.181   1.460  1.3784  0.8573 -0.2922
  286MOL0     C39373   4.184   6.127   1.560 -0.4410  0.3398  0.6217
  286MOL0     C39374   4.311   6.082   1.483  0.6121 -0.9586 -0.1453
  286MOL0    Cl39375   4.286   5.915   1.422  0.0915 -0.1655  0.0171
  286MOL0     C39376   3.184   6.212   1.540  0.0700  0.5754 -0.4246
  286MOL0     C39377   3.048   6.184   1.529 -0.1224 -0.0140  0.6205
  286MOL0     O39378   2.854   6.075   1.187  0.0674  0.5945  0.1569
  286MOL0     C39379   2.598   6.019   1.427 -0.3073 -0.2350 -0.1077
  286MOL0     C39380   2.469   6.007   1.437  0.0204  0.5351 -0.8437
  286MOL0     N39381   1.714   5.979   1.574  0.0533  0.4325 -0.1321
  286MOL0     N39382   1.634   6.071   1.535 -0.3005  0.3081  0.0931
  286MOL0     C39383   0.916   5.530   0.615  0.0332  0.0176 -0.9158
  286MOL0     C39384   0.892   5.402   0.558 -0.3582 -0.4643  1.1334
  286MOL0     C39385   0.649   4.985   0.515  0.1342 -0.2623  0.1512
  286MOL0     C39386   0.674   4.999   0.377 -0.6160  0.0666  0.6672
  286MOL0     C39387   0.602   4.930   0.283 -0.3951 -0.2715  1.2760
  286MOL0     C39388   0.486   4.852   0.316  0.0595  0.2349  0.0526
  286MOL0     O39389   0.407   4.807   0.212  0.4586  0.0189  0.0866
  286MOL0     C39390   0.278   4.755   0.254  0.0348  0.4517  0.1122
  286MOL0     C39391   0.187   4.730   0.138  0.7321 -0.3629  0.8125
  286MOL0     C39392   0.079   4.836   0.115  0.2639  0.6475  0.2117
  286MOL0     C39393   0.146   4.943   0.025  0.0380 -0.0984  0.0609
  286MOL0     C39394   0.044   5.038  -0.009 -0.0223 -0.1502 -0.5214
  286MOL0     C39395  -0.032   5.122  -0.041 -0.3540 -0.5015 -0.2023
  286MOL0     C39396   0.466   4.832   0.450 -0.4812 -0.2546 -0.6226
  286MOL0     C39397   0.545   4.889   0.551  0.5090 -0.4089  0.1708
  286MOL0     C39398   0.520   4.850   0.689 -0.0212 -0.3773 -0.3270
  286MOL0     H39399   0.750   5.237   0.817  1.6668  0.8018  0.3474
  286MOL0     H39400   0.785   5.456   0.923 -1.1301 -2.3304 -0.3011
  286MOL0     H39401   1.052   5.752   0.696  1.9769  0.9476  0.3413
  286MOL0     H39402   1.117   5.634   0.786 -1.7789 -0.3735 -3.6355
  286MOL0     H39403   0.997   5.889   0.917 -0.5127 -0.0491  0.5427
  286MOL0     H39404   1.112   5.776   1.003  0.0172  0.9139  0.4778
  286MOL0     H39405   1.269   5.836   0.802  1.6709 -0.7417  2.1780
  286MOL0     H39406   1.173   5.988   0.779  0.2898 -0.9172 -1.6021
  286MOL0     H39407   1.355   5.879   1.005  0.5392  1.2087  1.9951
  286MOL0     H39408   1.372   6.026   0.901  0.3255 -0.9539 -1.3732
  286MOL0     H39409   1.143   5.968   1.098  1.0888 -0.7384 -0.7409
  286MOL0     H39410   1.159   6.115   1.001 -4.0020 -2.5504 -0.1263
  286MOL0     H39411   1.349   6.199   1.122  1.7060 -2.6966 -2.4858
  286MOL0     H39412   1.220   6.152   1.233 -1.4060 -2.2260 -0.3988
  286MOL0     H39413   1.445   5.959   1.178 -0.3894  1.2911 -2.2904
  286MOL0     H39414   1.334   5.964   1.316 -0.0909  2.6176  1.0223
  286MOL0     H39415   1.551   6.182   1.249 -4.4239 -0.8927 -4.0704
  286MOL0     H39416   1.440   6.196   1.380 -2.3271 -1.7022 -0.3501
  286MOL0     H39417   1.670   5.898   1.258 -0.4837  0.7759  1.1391
  286MOL0     H39418   1.835   5.723   1.380  0.4972  3.1864 -1.4409
  286MOL0     H39419   1.792   5.713   1.555  0.1898  1.0125  1.8302
  286MOL0     H39420   1.983   5.856   1.606 -1.5690 -2.7803  0.5344
  286MOL0     H39421   2.030   5.715   1.526  2.1277  1.1952  1.4947
  286MOL0     H39422   2.043   5.856   1.310  0.5973  3.8983 -1.8391
  286MOL0     H39423   1.991   5.993   1.401  0.9886  1.2592  0.0740
  286MOL0     H39424   2.191   6.004   1.525 -1.3836  0.8871 -0.0895
  286MOL0     H39425   2.246   5.842   1.458 -1.0349 -0.7221 -1.8507
  286MOL0     H39426   2.371   6.043   1.117  2.8081 -1.5105 -2.1296
  286MOL0     H39427   2.698   6.179   1.034  0.0140 -0.2462 -2.0078
  286MOL0     H39428   2.530   6.173   0.995  1.4197 -0.4508 -2.5559
  286MOL0     H39429   2.635   6.027   0.984 -0.7418  0.3356 -1.4067
  286MOL0     H39430   3.076   5.956   1.278 -1.9473 -0.0754 -0.0880
  286MOL0     H39431   3.319   5.995   1.325 -0.8915  0.4040 -0.3036
  286MOL0     H39432   3.380   6.398   1.457  1.0663 -0.8637 -1.7757
  286MOL0     H39433   3.452   6.334   1.613  0.1971  2.7999  0.9060
  286MOL0     H39434   3.612   6.344   1.349  4.9779  0.2022  0.6974
  286MOL0     H39435   3.629   6.462   1.467  2.3662 -0.1539 -2.6773
  286MOL0     H39436   3.645   6.184   1.559 -0.9361  0.1547 -0.3312
  286MOL0     H39437   3.729   6.333   1.621  1.9634  0.2925 -0.9252
  286MOL0     H39438   3.859   6.341   1.391 -0.0180 -0.0809 -0.9394
  286MOL0     H39439   3.822   6.171   1.377  0.6415 -0.1544  1.3894
  286MOL0     H39440   3.959   6.285   1.623  0.4008 -1.6576  1.8843
  286MOL0     H39441   3.907   6.127   1.596 -0.4813 -0.1833 -0.3662
  286MOL0     H39442   4.092   6.263   1.391 -2.8225  0.5183 -2.3494
  286MOL0     H39443   4.022   6.101   1.402 -4.4671  1.3454  3.1915
  286MOL0     H39444   4.139   6.048   1.621 -2.8995  0.9021 -0.3113
  286MOL0     H39445   4.216   6.217   1.614  0.9460  1.1559 -1.4353
  286MOL0     H39446   4.403   6.075   1.542  1.9638 -0.7832 -2.1380
  286MOL0     H39447   4.327   6.154   1.402 -2.0194  0.1122  0.2021
  286MOL0     H39448   3.217   6.274   1.622 -0.6630 -0.3710  0.6173
  286MOL0     H39449   2.971   6.236   1.587 -0.7544  1.3790 -1.3462
  286MOL0     H39450   2.659   6.006   1.516 -2.5732 -3.3406  1.1558
  286MOL0     H39451   2.421   5.972   1.529 -1.2490 -4.9571 -3.1871
  286MOL0     H39452   0.960   5.612   0.558 -1.0120  0.5598 -0.9693
  286MOL0     H39453   0.937   5.401   0.460 -1.4445  1.0459  0.5924
  286MOL0     H39454   0.762   5.054   0.347 -0.2832 -1.7526 -2.0280
  286MOL0     H39455   0.620   4.933   0.176 -1.8788 -0.8271  0.9875
  286MOL0     H39456   0.300   4.662   0.307 -1.5498  0.0239  0.0714
  286MOL0     H39457   0.229   4.820   0.327  0.7821 -1.8175  2.8170
  286MOL0     H39458   0.121   4.644   0.152 -0.8655  0.4936 -0.9754
  286MOL0     H39459   0.242   4.714   0.044 -2.3460 -1.5709 -0.9380
  286MOL0     H39460  -0.004   4.795   0.057  1.8757 -0.9465 -1.1130
  286MOL0     H39461   0.044   4.889   0.204 -0.8497 -1.1826  0.9090
  286MOL0     H39462   0.182   4.898  -0.068 -0.5652  0.1751 -0.3103
  286MOL0     H39463   0.234   4.984   0.074  0.1680  1.3428 -1.3112
  286MOL0     H39464  -0.096   5.195  -0.087 -0.5195 -0.8384 -0.5122
  286MOL0     H39465   0.382   4.774   0.486  0.7594 -1.3129  0.6530
  286MOL0     H39466   0.465   4.927   0.745  0.5003  0.9167 -1.5513
  286MOL0     H39467   0.454   4.764   0.677 -0.7784  0.2592 -0.8237
  286MOL0     H39468   0.610   4.821   0.743 -1.3369 -1.4678  1.3991
  287MOL0     O39469   3.851  10.642   3.644 -0.1140 -0.0324  0.3332
  287MOL0     C39470   3.819  10.644   3.756  0.5728 -0.5815 -0.0806
  287MOL0     O39471   3.862  10.556   3.858  0.0102  0.4283  0.4634
  287MOL0     C39472   3.973  10.476   3.857 -0.0315 -0.0708 -0.0113
  287MOL0     C39473   4.090  10.496   3.781 -0.0948  0.6992  0.7886
  287MOL0     C39474   4.202  10.407   3.783  0.3475 -0.4594 -0.0523
  287MOL0     C39475   4.199  10.298   3.866  0.4099  0.2733  0.1489
  287MOL0     O39476   4.294  10.190   3.870  0.5877  0.1964 -0.2370
  287MOL0     C39477   4.430  10.220   3.904  0.6151 -0.0433 -0.3071
  287MOL0     C39478   4.513  10.125   3.818 -1.1230  0.1156 -0.3188
  287MOL0     C39479   4.668  10.156   3.823  0.2500 -0.7397 -0.7103
  287MOL0     C39480   4.742  10.020   3.835 -0.4648  0.0633 -0.7621
  287MOL0     C39481   4.881  10.016   3.780  0.4501  0.6972  0.4680
  287MOL0     C39482   4.972  10.129   3.817  0.0063 -0.2174 -0.0720
  287MOL0     C39483   5.123  10.112   3.784 -0.4732  0.1132  0.4373
  287MOL0     C39484   5.204  10.054   3.897 -0.4503  1.2930  0.2625
  287MOL0     N39485   5.175   9.911   3.935 -0.3262 -0.6632 -0.1641
  287MOL0     C39486   5.228   9.811   3.864  0.4649 -0.2600 -0.1036
  287MOL0     C39487   5.222   9.705   3.947  0.5763 -0.4094  0.1873
  287MOL0     C39488   5.288   9.569   3.942  0.1914 -0.0296 -0.1585
  287MOL0     C39489   5.442   9.581   3.920 -0.2128  0.3919  0.1531
  287MOL0     C39490   5.506   9.442   3.896  0.6387  0.0387  0.0641
  287MOL0     C39491   5.645   9.450   3.830  0.6333  0.1646 -0.4399
  287MOL0     O39492   5.647   9.513   3.703 -0.5022  0.5805  0.3630
  287MOL0     C39493   5.755   9.496   3.620  0.8067  0.7249  0.2176
  287MOL0     C39494   5.751   9.577   3.503 -0.4979  0.6541 -0.1726
  287MOL0     C39495   5.855   9.578   3.411  0.0563 -1.0529 -0.0704
  287MOL0     C39496   5.833   9.644   3.271 -0.0078 -0.6421 -0.3714
  287MOL0     C39497   5.967   9.495   3.433  0.1179  0.3446  1.1649
  287MOL0     C39498   6.067   9.467   3.333  0.2145  0.2165  0.6049
  287MOL0     O39499   6.198   9.461   3.379 -1.0499 -0.2120 -0.6023
  287MOL0     C39500   6.294   9.429   3.283  0.0892  0.0098 -0.4026
  287MOL0     C39501   6.351   9.525   3.195 -0.7961 -0.3411 -0.2188
  287MOL0     C39502   6.456   9.485   3.107  0.4625  0.3989  0.3351
  287MOL0     C39503   6.512   9.360   3.122  0.3577  0.0898  0.5625
  287MOL0     O39504   6.632   9.356   3.050  0.7102 -0.2387 -0.0761
  287MOL0     C39505   6.697   9.226   3.052  0.4138  0.3005  0.0461
  287MOL0     C39506   6.832   9.220   2.973 -0.6280 -0.0795  0.0556
  287MOL0     C39507   6.927   9.336   3.016 -0.7335 -0.5494  0.4235
  287MOL0     C39508   7.055   9.352   2.933  0.2793  0.0327  0.1751
  287MOL0     C39509   7.144   9.462   3.002  0.0232  0.0262  0.0792
  287MOL0     C39510   7.279   9.487   2.922  1.0552  0.5983 -0.1704
  287MOL0     C39511   7.378   9.371   2.922 -0.7570  0.3876 -0.0947
  287MOL0     C39512   7.510   9.422   2.853  0.3241  0.0067 -0.0468
  287MOL0    Cl39513   7.596   9.546   2.957  0.2102  0.2276  0.1695
  287MOL0     C39514   6.446   9.265   3.188 -0.0806  0.5787 -0.8964
  287MOL0     C39515   6.337   9.298   3.269  0.8830 -0.6894 -0.9757
  287MOL0     O39516   6.036   9.445   3.213 -0.9059  0.5722  0.1479
  287MOL0     C39517   5.974   9.421   3.551 -0.6141 -0.3865 -0.6232
  287MOL0     C39518   5.873   9.419   3.647  1.4819  0.1469 -0.7534
  287MOL0     N39519   5.149   9.751   4.056  0.0702 -0.2673 -0.6531
  287MOL0     N39520   5.122   9.875   4.051 -0.0807  0.1053  0.4344
  287MOL0     C39521   4.088  10.277   3.946  0.3658  0.3411  0.2581
  287MOL0     C39522   3.972  10.360   3.939 -0.6065 -0.5548  0.4974
  287MOL0     C39523   3.712  10.738   3.786 -0.1345  0.9051 -0.3346
  287MOL0     C39524   3.609  10.764   3.695  0.0273 -0.2877 -1.1568
  287MOL0     C39525   3.503  10.856   3.726  0.2896  0.5299 -0.2190
  287MOL0     C39526   3.495  10.924   3.848 -0.8823  0.5752  0.6848
  287MOL0     O39527   3.391  11.014   3.867 -0.0066 -0.7350 -0.1084
  287MOL0     C39528   3.360  11.091   3.980 -0.3974  0.8042 -0.8081
  287MOL0     C39529   3.208  11.108   4.003 -0.6627 -0.2894 -0.1040
  287MOL0     C39530   3.182  11.199   4.127 -0.1472  0.0195 -0.2825
  287MOL0     C39531   3.044  11.270   4.102 -0.7492 -0.7948 -0.0661
  287MOL0     C39532   3.013  11.357   4.218 -0.4687  0.2096  0.4329
  287MOL0     C39533   2.995  11.413   4.322 -0.7952 -0.2088 -0.2632
  287MOL0     C39534   3.600  10.904   3.938 -0.4124 -0.2537  0.6685
  287MOL0     C39535   3.703  10.810   3.910 -0.6025 -0.4611  0.1243
  287MOL0     C39536   3.812  10.809   4.007 -0.1977  0.5778  0.2323
  287MOL0     H39537   4.091  10.582   3.715 -3.9718  0.7314  0.5331
  287MOL0     H39538   4.292  10.429   3.727  0.5578 -0.6974  0.1886
  287MOL0     H39539   4.450  10.230   4.011 -1.3596  0.6007  0.0428
  287MOL0     H39540   4.447  10.323   3.873  0.7841  0.6013  1.7958
  287MOL0     H39541   4.496  10.025   3.858  3.0984 -0.0084  1.7094
  287MOL0     H39542   4.482  10.122   3.713  0.0000 -0.4095 -0.6587
  287MOL0     H39543   4.699  10.202   3.729 -0.0309  0.3697 -0.2862
  287MOL0     H39544   4.688  10.224   3.907 -0.1291 -0.2717 -0.9925
  287MOL0     H39545   4.752  10.006   3.943 -1.4241  1.1032 -0.5192
  287MOL0     H39546   4.676   9.941   3.797 -0.9520 -0.1578  0.4687
  287MOL0     H39547   4.875  10.010   3.671  0.1403 -3.1356  0.5461
  287MOL0     H39548   4.924   9.920   3.809 -2.9035 -0.7916  0.9803
  287MOL0     H39549   4.939  10.217   3.760  0.1917  0.3538  0.6826
  287MOL0     H39550   4.969  10.156   3.923 -0.7666  0.6697 -0.3099
  287MOL0     H39551   5.173  10.207   3.762 -1.2255  0.6074  0.8308
  287MOL0     H39552   5.132  10.042   3.701 -0.4316 -1.6247  1.8262
  287MOL0     H39553   5.312  10.069   3.884 -0.0840 -0.5628  0.8258
  287MOL0     H39554   5.184  10.114   3.986 -0.2509 -0.3721  1.4819
  287MOL0     H39555   5.275   9.819   3.766 -0.4646  0.8926 -0.4694
  287MOL0     H39556   5.230   9.502   3.877 -1.1672 -0.1916  1.1724
  287MOL0     H39557   5.272   9.523   4.040  2.3040 -0.8706 -0.1620
  287MOL0     H39558   5.456   9.648   3.834 -0.0955  0.5826  0.3199
  287MOL0     H39559   5.485   9.631   4.007  1.4048  2.1814 -1.5712
  287MOL0     H39560   5.503   9.383   3.988  2.3082 -1.9927 -1.0770
  287MOL0     H39561   5.436   9.394   3.826  1.4518 -4.0742  1.7580
  287MOL0     H39562   5.716   9.507   3.890  0.3981  0.5601 -0.5258
  287MOL0     H39563   5.682   9.347   3.828 -0.1989 -0.1990  1.5436
  287MOL0     H39564   5.665   9.638   3.478 -1.5925 -1.3687 -1.6837
  287MOL0     H39565   5.921   9.695   3.232 -1.3708 -0.0118 -2.8977
  287MOL0     H39566   5.739   9.699   3.260  0.4554  0.4833  1.0025
  287MOL0     H39567   5.817   9.557   3.206 -3.6596 -1.4101  1.2593
  287MOL0     H39568   6.322   9.629   3.188  0.8784  0.4531  2.7062
  287MOL0     H39569   6.511   9.556   3.046  0.2227  0.3047  0.0051
  287MOL0     H39570   6.710   9.191   3.155  1.1352 -1.1516 -0.4938
  287MOL0     H39571   6.634   9.146   3.010 -1.1003  1.0056  0.9272
  287MOL0     H39572   6.886   9.129   2.999  2.5402  2.5612  4.0303
  287MOL0     H39573   6.811   9.232   2.867 -1.3592 -1.9070 -0.0324
  287MOL0     H39574   6.963   9.319   3.118  2.7002  0.2951 -0.5166
  287MOL0     H39575   6.876   9.432   3.022  0.6955  0.5627 -2.9173
  287MOL0     H39576   7.021   9.377   2.832 -0.0932 -0.9023  0.0603
  287MOL0     H39577   7.119   9.264   2.926  1.1255  0.6826 -0.4749
  287MOL0     H39578   7.083   9.552   2.995  2.0072  1.4474  0.1089
  287MOL0     H39579   7.158   9.421   3.103 -0.3761 -3.2995 -1.0826
  287MOL0     H39580   7.333   9.575   2.959  4.0897 -0.4838 -1.7448
  287MOL0     H39581   7.256   9.510   2.817  1.2686  0.0691 -0.3355
  287MOL0     H39582   7.350   9.287   2.859  1.1600 -0.5643  0.2428
  287MOL0     H39583   7.403   9.334   3.022 -0.6711 -0.0606 -0.2807
  287MOL0     H39584   7.482   9.474   2.761 -0.2380 -1.7602 -0.9157
  287MOL0     H39585   7.586   9.346   2.831  1.4139  0.7370  1.0763
  287MOL0     H39586   6.478   9.162   3.180  0.2734  0.4517  1.3330
  287MOL0     H39587   6.293   9.222   3.333  0.7877 -0.8605 -1.2452
  287MOL0     H39588   6.067   9.369   3.570 -0.4062  0.3366  0.3964
  287MOL0     H39589   5.887   9.366   3.741  1.0275  0.0181 -0.7585
  287MOL0     H39590   4.088  10.193   4.015  0.3546  0.1995  0.0862
  287MOL0     H39591   3.881  10.354   3.998 -0.4631 -2.8019  0.5725
  287MOL0     H39592   3.615  10.713   3.599  0.2249 -1.8296 -0.3411
  287MOL0     H39593   3.431  10.858   3.645  2.2146 -3.2288 -2.3448
  287MOL0     H39594   3.402  11.032   4.063  2.1143  1.5665 -1.4376
  287MOL0     H39595   3.420  11.183   3.980  1.3485 -0.2416  1.1148
  287MOL0     H39596   3.148  11.016   4.011  0.0988 -0.7632  0.3459
  287MOL0     H39597   3.167  11.163   3.918 -1.9491  1.6864  1.7171
  287MOL0     H39598   3.168  11.138   4.217 -1.6214  0.6230 -0.0853
  287MOL0     H39599   3.262  11.269   4.155 -1.3788  1.0506  0.8055
  287MOL0     H39600   2.967  11.194   4.085  0.8999 -2.1973 -1.6763
  287MOL0     H39601   3.042  11.331   4.012  0.0554  1.8996  1.6093
  287MOL0     H39602   2.989  11.450   4.422  1.3417 -2.2910  0.7316
  287MOL0     H39603   3.600  10.969   4.025  0.6747  2.3484 -1.1448
  287MOL0     H39604   3.805  10.712   4.058 -1.4192  0.8044  0.5255
  287MOL0     H39605   3.906  10.827   3.954  0.0188 -1.0757 -0.0175
  287MOL0     H39606   3.808  10.891   4.079 -3.1847  0.5781  0.2082
  288MOL0     O39607   1.327   1.483   1.510 -0.3324 -0.3529  0.5242
  288MOL0     C39608   1.208   1.505   1.507 -0.1417 -0.5126 -0.5285
  288MOL0     O39609   1.160   1.628   1.526 -0.0577  0.4054  0.9387
  288MOL0     C39610   1.244   1.729   1.508 -0.5762 -0.3607  0.9277
  288MOL0     C39611   1.307   1.759   1.391  0.7767 -0.1100  0.3571
  288MOL0     C39612   1.408   1.863   1.379  0.0914  1.3377 -0.1903
  288MOL0     C39613   1.431   1.943   1.487 -0.2272 -0.5065  0.5218
  288MOL0     O39614   1.530   2.036   1.467  0.0782 -0.1547 -0.4250
  288MOL0     C39615   1.553   2.133   1.572  0.0731  0.1519  0.1287
  288MOL0     C39616   1.681   2.207   1.547 -0.1210 -0.3333  0.2377
  288MOL0     C39617   1.793   2.113   1.565  0.0217  0.0004  0.5091
  288MOL0     C39618   1.896   2.137   1.449 -0.1848  0.6080  0.2493
  288MOL0     C39619   2.037   2.102   1.493  0.0577 -0.1494 -0.7113
  288MOL0     C39620   2.046   1.955   1.540  0.1319 -0.5348 -0.1870
  288MOL0     C39621   2.189   1.913   1.564  0.5226  0.3536 -0.2345
  288MOL0     C39622   2.259   1.860   1.439  0.7956 -0.8919 -0.5307
  288MOL0     N39623   2.413   1.851   1.447  0.7008 -0.8334  0.0864
  288MOL0     C39624   2.509   1.934   1.503 -0.7805  0.2003 -0.3498
  288MOL0     C39625   2.625   1.899   1.441 -0.2962  0.7884 -0.2792
  288MOL0     C39626   2.748   1.972   1.461 -0.1731  0.1230  0.3002
  288MOL0     C39627   2.854   1.941   1.364 -0.1911 -0.3531  0.4948
  288MOL0     C39628   2.976   2.032   1.368  0.0742 -0.5678  0.5089
  288MOL0     C39629   3.072   1.995   1.256 -1.3236  0.1939  0.1645
  288MOL0     O39630   3.138   1.881   1.312  0.4191  0.1544  0.3896
  288MOL0     C39631   3.219   1.803   1.233  0.2777  0.1141 -0.9873
  288MOL0     C39632   3.218   1.805   1.091  0.4597  0.6893 -0.5532
  288MOL0     C39633   3.319   1.743   1.014 -0.6748 -0.0934  0.0947
  288MOL0     C39634   3.317   1.758   0.858 -0.2276 -0.1296  0.4067
  288MOL0     C39635   3.410   1.656   1.082  0.2452  0.4805  0.6493
  288MOL0     C39636   3.522   1.584   1.011  0.6884  0.4637  0.2221
  288MOL0     O39637   3.520   1.572   0.876  1.1238 -0.4946 -0.2963
  288MOL0     C39638   3.601   1.495   0.800 -0.5771  0.3408  0.4553
  288MOL0     C39639   3.549   1.384   0.733  0.3170 -0.0785 -0.0269
  288MOL0     C39640   3.630   1.311   0.650  1.0942 -1.2553  0.6511
  288MOL0     C39641   3.761   1.337   0.637  0.2330  0.1161 -0.5532
  288MOL0     O39642   3.823   1.261   0.532  0.1996 -0.2377 -0.3019
  288MOL0     C39643   3.899   1.337   0.437  0.7088  0.0492  0.5216
  288MOL0     C39644   3.880   1.279   0.295  0.3458 -0.4649 -0.7723
  288MOL0     C39645   3.964   1.150   0.268 -0.1072 -0.4654 -0.2923
  288MOL0     C39646   4.099   1.175   0.204  0.1173 -0.6694 -0.9365
  288MOL0     C39647   4.196   1.059   0.220 -0.3799 -0.6089 -0.0911
  288MOL0     C39648   4.330   1.092   0.143 -0.1838  0.5169  0.4046
  288MOL0     C39649   4.425   1.180   0.221  0.4742 -0.4268 -0.0306
  288MOL0     C39650   4.557   1.206   0.142  0.1444  0.0768  0.1900
  288MOL0    Cl39651   4.658   1.318   0.229  0.0586 -0.3664  0.2254
  288MOL0     C39652   3.823   1.433   0.717 -0.1452 -0.6308 -0.0843
  288MOL0     C39653   3.736   1.506   0.802 -0.6200  0.1693 -0.0157
  288MOL0     O39654   3.611   1.530   1.078  0.2058  0.3732  0.1249
  288MOL0     C39655   3.399   1.647   1.224 -0.5948  0.0187  0.6810
  288MOL0     C39656   3.311   1.725   1.294 -0.4553  0.1250 -0.3947
  288MOL0     N39657   2.600   1.787   1.368  1.0175  0.1659 -0.6307
  288MOL0     N39658   2.472   1.759   1.372 -0.4128  0.3158  0.0596
  288MOL0     C39659   1.358   1.923   1.605  0.0772  0.8782 -0.3927
  288MOL0     C39660   1.271   1.808   1.613 -0.1820 -0.4262  0.8877
  288MOL0     C39661   1.105   1.399   1.509 -0.2709 -0.1016  0.2488
  288MOL0     C39662   0.964   1.443   1.522 -0.7763  0.2551 -0.3918
  288MOL0     C39663   0.858   1.349   1.541 -0.0554  0.2760 -0.1863
  288MOL0     C39664   0.887   1.208   1.525  0.7582 -0.0527  0.4477
  288MOL0     O39665   0.791   1.112   1.503  0.0837  0.3802 -0.5971
  288MOL0     C39666   0.658   1.146   1.541  0.6291 -0.2532  0.7189
  288MOL0     C39667   0.582   1.020   1.560  1.2679 -0.2814 -0.2359
  288MOL0     C39668   0.440   1.042   1.629  0.0486  0.6254 -0.0925
  288MOL0     C39669   0.358   1.153   1.561 -0.9464 -0.2825 -0.3142
  288MOL0     C39670   0.325   1.114   1.425 -0.3171  0.0560 -0.1283
  288MOL0     C39671   0.308   1.080   1.309 -0.1947  0.1807 -0.6180
  288MOL0     C39672   1.022   1.173   1.501  0.4052  0.2990 -0.3376
  288MOL0     C39673   1.128   1.262   1.497 -0.8020  0.3319  1.4091
  288MOL0     C39674   1.267   1.207   1.497 -1.1512  0.8611 -0.1721
  288MOL0     H39675   1.279   1.706   1.301  0.0377  2.4070 -0.9921
  288MOL0     H39676   1.455   1.897   1.288  1.7098 -2.2666 -0.8550
  288MOL0     H39677   1.563   2.084   1.669 -1.3246 -1.7505 -0.6229
  288MOL0     H39678   1.466   2.198   1.565 -1.8614 -2.3935 -1.0436
  288MOL0     H39679   1.668   2.250   1.448 -2.3285  1.6169  1.2914
  288MOL0     H39680   1.695   2.288   1.618 -1.0257  0.8257 -0.8729
  288MOL0     H39681   1.840   2.135   1.661 -1.7242  0.7212  1.2567
  288MOL0     H39682   1.758   2.011   1.551 -1.3594  0.7127 -1.8842
  288MOL0     H39683   1.876   2.085   1.355 -0.5354  0.6760  0.2851
  288MOL0     H39684   1.892   2.244   1.426  2.4280  0.7578  0.1870
  288MOL0     H39685   2.070   2.171   1.571  3.0435 -2.1666 -0.0405
  288MOL0     H39686   2.111   2.121   1.414  1.9486  2.1035  1.4214
  288MOL0     H39687   1.991   1.914   1.626 -0.7062 -0.9680 -0.9082
  288MOL0     H39688   2.020   1.897   1.451 -1.2098  1.9805 -1.5372
  288MOL0     H39689   2.186   1.832   1.637 -0.3113 -0.8586 -1.5741
  288MOL0     H39690   2.235   2.000   1.612 -0.3053  0.1274  1.0204
  288MOL0     H39691   2.214   1.764   1.412 -0.8877 -0.7413  1.4921
  288MOL0     H39692   2.232   1.926   1.357 -1.1363 -0.2247  0.5834
  288MOL0     H39693   2.502   2.008   1.582  3.1938 -0.4301  0.8209
  288MOL0     H39694   2.787   1.957   1.562 -1.2641  0.0112  0.7284
  288MOL0     H39695   2.718   2.077   1.463  1.2260  0.5387  0.0960
  288MOL0     H39696   2.885   1.841   1.392  1.2658 -0.2712 -0.6770
  288MOL0     H39697   2.816   1.943   1.261  1.0127 -1.8487 -0.0012
  288MOL0     H39698   2.956   2.139   1.362  2.3763  0.1737  3.6777
  288MOL0     H39699   3.030   2.016   1.462  0.4869 -1.9476  0.0622
  288MOL0     H39700   3.027   1.966   1.160 -1.7674  0.6889  0.2167
  288MOL0     H39701   3.146   2.074   1.242 -0.1888 -0.5032  1.9599
  288MOL0     H39702   3.147   1.869   1.041 -0.4552  1.3515  1.4762
  288MOL0     H39703   3.288   1.662   0.812 -2.7115 -0.0761  1.6840
  288MOL0     H39704   3.413   1.795   0.820  0.9110 -2.2598  0.9924
  288MOL0     H39705   3.238   1.824   0.822 -0.1542 -0.9544 -1.3774
  288MOL0     H39706   3.443   1.366   0.750  1.0390 -2.8400  2.3795
  288MOL0     H39707   3.573   1.242   0.588  1.7118  1.1070 -2.8586
  288MOL0     H39708   3.854   1.436   0.419 -2.2252 -1.3086 -0.2256
  288MOL0     H39709   4.002   1.356   0.469  1.0251  0.0320 -0.4422
  288MOL0     H39710   3.774   1.251   0.291 -0.8128  3.0395  0.8345
  288MOL0     H39711   3.910   1.347   0.215  2.2328 -2.4434 -1.8615
  288MOL0     H39712   3.913   1.082   0.199 -0.9082  2.0375 -2.3298
  288MOL0     H39713   3.972   1.095   0.362 -0.2518 -2.3156 -1.3239
  288MOL0     H39714   4.137   1.273   0.238 -0.7135  0.0347 -1.9919
  288MOL0     H39715   4.084   1.187   0.097  0.3879 -2.9053 -1.2628
  288MOL0     H39716   4.225   1.026   0.320 -0.4605 -1.3002 -0.2832
  288MOL0     H39717   4.149   0.966   0.185 -0.3730 -0.6579  0.0301
  288MOL0     H39718   4.303   1.131   0.045  1.0298 -0.7797 -0.4737
  288MOL0     H39719   4.390   1.001   0.143 -0.0290  0.5658 -2.0372
  288MOL0     H39720   4.446   1.125   0.314 -1.8494 -0.6881  0.3959
  288MOL0     H39721   4.367   1.270   0.241 -1.3543 -1.6219  0.2895
  288MOL0     H39722   4.518   1.257   0.054 -0.4137  0.4933  0.6651
  288MOL0     H39723   4.607   1.116   0.105 -1.5373 -0.1837 -1.5795
  288MOL0     H39724   3.928   1.457   0.704 -0.4035  0.2871 -0.5437
  288MOL0     H39725   3.775   1.574   0.877  0.7187 -0.7190  0.1188
  288MOL0     H39726   3.464   1.586   1.287 -1.6099  0.2981  2.0528
  288MOL0     H39727   3.313   1.720   1.403 -1.5192  0.5488 -0.3476
  288MOL0     H39728   1.360   1.996   1.686 -1.8385  0.2392  0.2897
  288MOL0     H39729   1.223   1.788   1.708 -0.8576 -1.0563  0.4361
  288MOL0     H39730   0.932   1.545   1.506 -0.6203 -0.0016 -2.6323
  288MOL0     H39731   0.758   1.391   1.550 -0.5682 -0.4069 -2.1120
  288MOL0     H39732   0.662   1.208   1.630 -0.3713  4.0840 -1.9736
  288MOL0     H39733   0.609   1.204   1.462  1.4628 -1.7513 -1.0039
  288MOL0     H39734   0.635   0.949   1.625  1.4290  1.8042  2.0714
  288MOL0     H39735   0.568   0.968   1.465 -1.0874 -0.1540 -0.0243
  288MOL0     H39736   0.386   0.947   1.627 -0.2297  0.6734 -4.4926
  288MOL0     H39737   0.453   1.080   1.731  0.2793  0.9752 -0.2532
  288MOL0     H39738   0.416   1.244   1.538 -1.4049 -0.4350 -2.2656
  288MOL0     H39739   0.263   1.173   1.612 -1.9687  0.5858 -2.4150
  288MOL0     H39740   0.289   1.055   1.207  1.9201  1.2012 -1.3006
  288MOL0     H39741   1.037   1.068   1.481 -0.2335 -0.0559  0.9192
  288MOL0     H39742   1.275   1.100   1.519 -0.1114  0.7812 -0.8900
  288MOL0     H39743   1.311   1.215   1.397 -2.5734  0.4150 -0.8681
  288MOL0     H39744   1.336   1.252   1.568 -1.4469 -0.8829  1.3059
  289MOL0     O39745   9.956   1.523   7.717 -0.9378 -0.0347 -0.3321
  289MOL0     C39746   9.924   1.505   7.600  0.2790  0.4160 -0.2862
  289MOL0     O39747  10.011   1.463   7.497  0.0246  0.3155 -0.5697
  289MOL0     C39748  10.147   1.471   7.516 -0.1222 -0.2162  0.5191
  289MOL0     C39749  10.219   1.420   7.626 -0.2999 -0.0793  0.5611
  289MOL0     C39750  10.358   1.439   7.637  0.0345  0.7741 -0.1871
  289MOL0     C39751  10.425   1.504   7.535 -0.7187 -0.3624  0.6347
  289MOL0     O39752  10.559   1.525   7.552 -0.1474 -0.4143  0.3102
  289MOL0     C39753  10.600   1.657   7.526  0.4420  0.3772 -0.2087
  289MOL0     C39754  10.750   1.675   7.563  0.0592 -0.4078  0.0860
  289MOL0     C39755  10.790   1.630   7.706 -0.2175 -0.0861  0.1997
  289MOL0     C39756  10.935   1.655   7.728  0.3181  0.0507  0.3109
  289MOL0     C39757  10.993   1.530   7.768 -0.2207 -0.5721  0.2236
  289MOL0     C39758  11.141   1.541   7.804  0.1127 -0.2194 -1.1261
  289MOL0     C39759  11.233   1.613   7.699  0.7675  0.0215 -0.1136
  289MOL0     C39760  11.389   1.616   7.735 -0.5454 -0.5511  0.2657
  289MOL0     N39761  11.437   1.477   7.756 -0.6284  0.5032  0.0279
  289MOL0     C39762  11.501   1.451   7.873  0.3455  0.1051  0.0286
  289MOL0     C39763  11.582   1.348   7.850 -0.2154  0.0271 -0.0208
  289MOL0     C39764  11.658   1.267   7.957 -0.1858 -0.2688 -0.1418
  289MOL0     C39765  11.785   1.335   8.008  0.4759  0.4675  0.0166
  289MOL0     C39766  11.871   1.402   7.909  0.0892 -0.1690  0.3141
  289MOL0     C39767  12.000   1.448   7.969  0.5845 -0.0607  0.0381
  289MOL0     O39768  12.075   1.548   7.889  0.3993  0.9179  0.2322
  289MOL0     C39769  12.208   1.574   7.900  0.1382  0.2120 -0.5338
  289MOL0     C39770  12.246   1.681   7.826 -0.5434  0.2917 -0.8503
  289MOL0     C39771  12.373   1.729   7.817  0.3554  0.7372 -0.1651
  289MOL0     C39772  12.391   1.849   7.727  0.4601 -0.0887 -0.5197
  289MOL0     C39773  12.477   1.659   7.890 -0.5518  0.2541  0.1310
  289MOL0     C39774  12.612   1.702   7.894 -1.1915 -0.6129  0.4932
  289MOL0     O39775  12.706   1.627   7.966  0.0104 -0.5427 -0.0369
  289MOL0     C39776  12.843   1.662   7.979  0.3475  0.4225  0.0426
  289MOL0     C39777  12.936   1.562   7.982 -1.1504  0.2677 -0.7828
  289MOL0     C39778  13.076   1.589   7.991 -0.0390 -0.2660  0.7525
  289MOL0     C39779  13.130   1.721   8.005 -0.0018  0.3949  0.3859
  289MOL0     O39780  13.267   1.736   8.024  0.5011  0.3107 -0.1982
  289MOL0     C39781  13.334   1.862   7.982  0.1433  0.1922  0.2548
  289MOL0     C39782  13.482   1.822   7.954  0.1546  0.0811 -0.0807
  289MOL0     C39783  13.562   1.945   7.917  0.1015 -0.4158  0.6236
  289MOL0     C39784  13.698   1.893   7.872 -1.0169  0.3049 -0.6641
  289MOL0     C39785  13.805   1.997   7.826 -0.5761 -0.4414  0.2610
  289MOL0     C39786  13.946   1.929   7.808 -0.5630  0.4301 -0.6774
  289MOL0     C39787  14.058   2.028   7.773 -0.4827 -0.2162 -0.1218
  289MOL0     C39788  14.196   1.957   7.780 -0.0999 -0.2582  0.0739
  289MOL0    Cl39789  14.207   1.853   7.647  0.4859 -0.1733 -0.1782
  289MOL0     C39790  13.036   1.822   8.012  0.0768  0.4385  0.1925
  289MOL0     C39791  12.895   1.792   7.992 -0.0467 -0.2013  0.5872
  289MOL0     O39792  12.643   1.811   7.842  0.3082 -0.3840  0.5136
  289MOL0     C39793  12.436   1.550   7.965  0.1355  0.0786  0.3387
  289MOL0     C39794  12.304   1.505   7.973 -0.5401  0.4375 -0.2347
  289MOL0     N39795  11.576   1.316   7.721 -0.0127 -0.8249 -0.5196
  289MOL0     N39796  11.481   1.381   7.665  0.8078  0.1536  0.7019
  289MOL0     C39797  10.350   1.541   7.423 -0.4740  0.0867 -0.4938
  289MOL0     C39798  10.215   1.531   7.411  0.6649 -0.3135 -0.6450
  289MOL0     C39799   9.784   1.545   7.553 -0.2500  0.8569 -0.5369
  289MOL0     C39800   9.743   1.509   7.426 -0.3456  0.9555 -0.1344
  289MOL0     C39801   9.620   1.542   7.378  0.7806  0.4384  0.2547
  289MOL0     C39802   9.525   1.616   7.453 -0.1125  0.5945 -0.3643
  289MOL0     O39803   9.400   1.656   7.414 -0.4535  0.2159  0.4022
  289MOL0     C39804   9.351   1.592   7.298  0.0254  0.5693  0.2014
  289MOL0     C39805   9.206   1.594   7.284  0.2238 -0.7852 -0.1373
  289MOL0     C39806   9.144   1.733   7.268  0.1954  0.7959 -0.3250
  289MOL0     C39807   8.997   1.737   7.232  1.1780  0.2372  0.1800
  289MOL0     C39808   8.963   1.702   7.092  0.4371  0.0661 -0.9243
  289MOL0     C39809   8.920   1.671   6.984 -0.1018 -0.0583  0.4807
  289MOL0     C39810   9.572   1.652   7.579  0.0034 -0.1298 -0.2676
  289MOL0     C39811   9.697   1.612   7.637  0.1692  0.7342  0.2207
  289MOL0     C39812   9.727   1.674   7.781  0.0659 -0.5142 -0.0589
  289MOL0     H39813  10.176   1.355   7.702 -1.4627 -0.1479 -0.1404
  289MOL0     H39814  10.403   1.394   7.725 -1.1480 -2.0037 -0.8806
  289MOL0     H39815  10.554   1.723   7.600  3.3829  2.5933 -0.1955
  289MOL0     H39816  10.579   1.676   7.420 -1.8951 -1.0018 -0.0741
  289MOL0     H39817  10.802   1.613   7.489 -1.9816 -1.6646 -0.4038
  289MOL0     H39818  10.763   1.783   7.551 -3.9478  0.3559  1.1845
  289MOL0     H39819  10.743   1.687   7.787  0.0157  1.8981 -0.9724
  289MOL0     H39820  10.759   1.526   7.712  1.4128 -0.5459  1.0138
  289MOL0     H39821  10.968   1.693   7.631 -2.6778  0.2489 -0.7230
  289MOL0     H39822  10.948   1.736   7.800  1.4760  1.0936 -1.0069
  289MOL0     H39823  10.984   1.455   7.688  1.0724 -1.3338  0.7504
  289MOL0     H39824  10.945   1.487   7.856  3.9898 -0.6290  2.8188
  289MOL0     H39825  11.148   1.592   7.900 -1.0081 -0.5967 -0.8290
  289MOL0     H39826  11.191   1.444   7.805  0.2093 -0.1696 -1.1565
  289MOL0     H39827  11.202   1.718   7.692  0.3805  0.4254  4.3957
  289MOL0     H39828  11.234   1.558   7.605  1.9709 -0.5761  0.2228
  289MOL0     H39829  11.439   1.667   7.652 -0.6926 -1.5531 -0.4605
  289MOL0     H39830  11.405   1.673   7.827  2.1706  0.8320 -0.9392
  289MOL0     H39831  11.497   1.499   7.971 -0.2648 -1.6741  0.9094
  289MOL0     H39832  11.682   1.164   7.929 -0.1715  0.0574 -1.3565
  289MOL0     H39833  11.591   1.250   8.042  0.3424  0.4685  0.4392
  289MOL0     H39834  11.746   1.400   8.086 -0.9715 -0.2599 -0.0625
  289MOL0     H39835  11.844   1.263   8.067 -1.0615  1.3358  2.7713
  289MOL0     H39836  11.886   1.328   7.830  0.8313 -1.1249  1.3187
  289MOL0     H39837  11.831   1.496   7.870  2.4839  0.1722 -1.6313
  289MOL0     H39838  11.992   1.487   8.071 -2.4729  2.8438 -1.1405
  289MOL0     H39839  12.060   1.356   7.972 -1.9217 -1.7983 -0.1546
  289MOL0     H39840  12.159   1.725   7.778 -1.1373  1.8160  1.4200
  289MOL0     H39841  12.431   1.939   7.775 -0.1882  0.4286 -0.9286
  289MOL0     H39842  12.301   1.888   7.679 -0.6534 -1.7072  0.1535
  289MOL0     H39843  12.462   1.814   7.651  1.5771 -2.5962  1.5216
  289MOL0     H39844  12.903   1.459   7.982  1.3248 -0.6026 -1.6661
  289MOL0     H39845  13.134   1.498   7.996 -1.1121 -1.1054 -1.0282
  289MOL0     H39846  13.283   1.899   7.893 -0.3908 -1.3622 -0.1166
  289MOL0     H39847  13.332   1.939   8.060  0.1903 -0.1494  0.5987
  289MOL0     H39848  13.530   1.781   8.044 -1.1582  2.4155  1.8068
  289MOL0     H39849  13.480   1.745   7.876 -3.2986 -2.4978  2.2058
  289MOL0     H39850  13.577   2.016   7.999 -0.4201 -2.5020  2.6333
  289MOL0     H39851  13.518   1.997   7.832  1.5347 -0.0159  0.1007
  289MOL0     H39852  13.692   1.812   7.799  0.6167 -2.2351  1.7934
  289MOL0     H39853  13.747   1.837   7.953 -0.4313 -1.6362 -2.2696
  289MOL0     H39854  13.774   2.050   7.736 -0.4144  1.9160  1.5118
  289MOL0     H39855  13.804   2.076   7.902 -2.8765 -0.5166  0.3656
  289MOL0     H39856  13.945   1.857   7.726  4.2724 -1.0487  0.2366
  289MOL0     H39857  13.967   1.874   7.900 -2.6811  1.7527  0.6882
  289MOL0     H39858  14.063   2.114   7.840 -0.5632 -1.3182  1.3315
  289MOL0     H39859  14.038   2.072   7.674  3.9812 -0.8943 -1.5496
  289MOL0     H39860  14.211   1.895   7.869 -0.3809 -0.5248 -0.0666
  289MOL0     H39861  14.278   2.031   7.776 -1.0899  0.9330  0.9156
  289MOL0     H39862  13.072   1.924   8.019 -0.6827  0.7652 -0.5333
  289MOL0     H39863  12.823   1.872   7.997 -0.5258 -0.7149  2.8607
  289MOL0     H39864  12.510   1.486   8.011 -0.3992 -2.0584 -1.5923
  289MOL0     H39865  12.272   1.424   8.037 -1.5301 -0.4992 -1.8569
  289MOL0     H39866  10.406   1.590   7.344  0.0346 -0.1246 -0.2653
  289MOL0     H39867  10.160   1.567   7.325 -2.0036 -0.9943  0.6877
  289MOL0     H39868   9.815   1.462   7.360  1.1367  2.4774  0.3387
  289MOL0     H39869   9.606   1.509   7.275  0.3443  1.7097 -0.1144
  289MOL0     H39870   9.397   1.633   7.207  0.2625 -1.8018 -0.8163
  289MOL0     H39871   9.369   1.484   7.299 -3.0981 -0.0543 -1.1736
  289MOL0     H39872   9.167   1.551   7.377 -2.4092  2.5313  0.5098
  289MOL0     H39873   9.179   1.537   7.195  0.3028  0.1383 -0.7699
  289MOL0     H39874   9.153   1.787   7.362 -0.6919 -0.4343  0.5011
  289MOL0     H39875   9.206   1.782   7.193  2.6698 -1.5526  0.0472
  289MOL0     H39876   8.975   1.844   7.242 -2.4710 -0.3306 -0.3920
  289MOL0     H39877   8.931   1.683   7.300 -3.9790 -0.2562 -4.5515
  289MOL0     H39878   8.876   1.656   6.887  3.1871  1.4064 -1.4122
  289MOL0     H39879   9.501   1.715   7.632 -2.7441 -1.5207 -2.0429
  289MOL0     H39880   9.819   1.733   7.771 -1.0463  1.3754  0.2325
  289MOL0     H39881   9.649   1.743   7.813  1.2194  1.3650 -1.0880
  289MOL0     H39882   9.747   1.598   7.857  0.8723  1.0513  1.3721
  290MOL0     O39883   6.306   4.170   9.653  0.1854 -0.6345  0.1304
  290MOL0     C39884   6.257   4.280   9.635 -0.0503  0.6045  0.1757
  290MOL0     O39885   6.302   4.365   9.537  0.5635 -0.9115 -0.2207
  290MOL0     C39886   6.416   4.331   9.478 -0.2954 -0.6729  0.6133
  290MOL0     C39887   6.428   4.262   9.356  0.6512  0.5316  0.6127
  290MOL0     C39888   6.560   4.239   9.300 -0.0150 -0.2695 -0.2345
  290MOL0     C39889   6.669   4.281   9.375 -0.5754 -0.3858  0.9627
  290MOL0     O39890   6.791   4.260   9.307  0.4161  0.5023 -0.5813
  290MOL0     C39891   6.908   4.280   9.389  0.0133 -0.1280  0.4797
  290MOL0     C39892   7.032   4.238   9.310 -0.8026 -0.1384 -0.4548
  290MOL0     C39893   7.138   4.191   9.409  0.8568 -0.5900  0.0386
  290MOL0     C39894   7.269   4.151   9.347 -0.3941 -0.7741  0.4154
  290MOL0     C39895   7.387   4.143   9.444  0.1855 -0.8721  0.1129
  290MOL0     C39896   7.515   4.083   9.375 -0.0902  0.4098  0.3243
  290MOL0     C39897   7.650   4.118   9.452  0.7082 -0.3726  0.8254
  290MOL0     C39898   7.654   4.072   9.596 -0.1151  0.0167 -0.7507
  290MOL0     N39899   7.789   4.070   9.647 -0.0298 -1.0526  0.1299
  290MOL0     C39900   7.890   3.976   9.634 -0.2214 -0.5006  0.0739
  290MOL0     C39901   8.003   4.029   9.695  0.2922 -0.3359  0.1333
  290MOL0     C39902   8.154   3.979   9.691 -0.3551 -0.0487 -0.0570
  290MOL0     C39903   8.256   4.087   9.735  0.1344  0.1908  0.0810
  290MOL0     C39904   8.281   4.087   9.882 -0.2876  0.4458  0.0091
  290MOL0     C39905   8.403   4.003   9.915 -0.2850 -1.2192  0.0664
  290MOL0     O39906   8.433   4.025  10.054 -0.1746  0.0408 -0.6120
  290MOL0     C39907   8.563   3.999  10.098  0.1081  0.0695 -0.2400
  290MOL0     C39908   8.623   4.098  10.174 -0.1422 -0.3406 -0.4145
  290MOL0     C39909   8.758   4.095  10.217  0.6983  0.0222  0.3252
  290MOL0     C39910   8.817   4.218  10.275  0.9865  0.5805  0.0097
  290MOL0     C39911   8.825   3.970  10.208 -1.2236 -0.0820  0.3323
  290MOL0     C39912   8.966   3.942  10.266  0.5935 -0.4246 -0.1231
  290MOL0     O39913   9.010   3.808  10.256  0.0110 -0.4974  0.2831
  290MOL0     C39914   9.126   3.770  10.322 -0.2241  0.0921 -0.5440
  290MOL0     C39915   9.240   3.710  10.254 -0.3750  0.1544  0.3731
  290MOL0     C39916   9.356   3.678  10.318 -0.0759 -0.6839 -0.5337
  290MOL0     C39917   9.363   3.694  10.457  0.1304 -0.7041  0.4294
  290MOL0     O39918   9.478   3.657  10.513 -0.8728  0.2405 -0.3518
  290MOL0     C39919   9.482   3.674  10.660 -0.8006  0.5390  0.1712
  290MOL0     C39920   9.615   3.616  10.701 -0.5224 -0.2362  0.3394
  290MOL0     C39921   9.718   3.725  10.677 -0.1248 -0.1799  0.1444
  290MOL0     C39922   9.856   3.692  10.727 -0.5607  1.0650  0.0386
  290MOL0     C39923   9.930   3.566  10.674 -0.1687  0.2203 -0.2516
  290MOL0     C39924  10.080   3.557  10.720 -0.2845 -0.6969  0.0142
  290MOL0     C39925  10.144   3.417  10.690  0.7321 -0.1687  0.8426
  290MOL0     C39926  10.299   3.395  10.725 -0.1278  0.2546  0.8359
  290MOL0    Cl39927  10.314   3.327  10.888 -0.5030 -0.0297 -0.4412
  290MOL0     C39928   9.251   3.752  10.526 -0.5494  1.0476  0.6629
  290MOL0     C39929   9.136   3.795  10.459 -0.4961  0.3066 -0.5930
  290MOL0     O39930   9.022   4.030  10.329  0.3059 -0.1404 -0.5455
  290MOL0     C39931   8.758   3.867  10.141  0.0384  0.0700  0.5570
  290MOL0     C39932   8.635   3.879  10.082  0.5720 -0.3116 -0.4842
  290MOL0     N39933   7.960   4.146   9.752  1.3331 -0.5466 -0.0714
  290MOL0     N39934   7.841   4.166   9.726 -0.0033 -0.6808  0.3749
  290MOL0     C39935   6.656   4.342   9.500 -0.0001  0.4644 -0.4263
  290MOL0     C39936   6.534   4.367   9.548 -0.1811 -1.0148  0.9931
  290MOL0     C39937   6.127   4.302   9.702 -0.4890 -0.7154  0.9565
  290MOL0     C39938   6.027   4.371   9.639  0.6949  0.6234 -0.1950
  290MOL0     C39939   5.894   4.379   9.682  0.3139  0.3599 -0.0896
  290MOL0     C39940   5.853   4.313   9.800  0.2203  0.6238  1.1633
  290MOL0     O39941   5.727   4.313   9.850 -0.0308  0.6430 -0.2553
  290MOL0     C39942   5.620   4.270   9.768 -0.5813 -0.0001 -0.3682
  290MOL0     C39943   5.512   4.204   9.852 -0.1510 -0.9232 -0.1734
  290MOL0     C39944   5.396   4.158   9.769  0.1407 -0.0658  0.2789
  290MOL0     C39945   5.327   4.043   9.856 -0.5356 -0.7080 -0.4834
  290MOL0     C39946   5.270   4.111   9.979  0.4709  0.0939  0.3750
  290MOL0     C39947   5.221   4.151  10.084  0.1196 -0.0916 -0.9396
  290MOL0     C39948   5.954   4.249   9.872  0.0097  0.2105 -0.3425
  290MOL0     C39949   6.091   4.241   9.829  0.1556  0.1402  0.5829
  290MOL0     C39950   6.181   4.145   9.908 -0.7633 -0.4131 -0.0171
  290MOL0     H39951   6.347   4.236   9.289  1.4931 -1.5761  0.3068
  290MOL0     H39952   6.570   4.193   9.203  3.1666 -2.6169  1.0673
  290MOL0     H39953   6.895   4.231   9.486  0.1639 -1.1910 -0.0274
  290MOL0     H39954   6.910   4.389   9.398 -1.1631  0.1893 -2.1758
  290MOL0     H39955   7.015   4.160   9.235  1.3781 -0.0603 -1.0848
  290MOL0     H39956   7.074   4.324   9.257  0.5541 -0.4091  0.1604
  290MOL0     H39957   7.159   4.271   9.481 -0.7990  0.2376 -0.3637
  290MOL0     H39958   7.103   4.106   9.469  2.5543 -1.8426 -0.6610
  290MOL0     H39959   7.268   4.050   9.305  1.7831 -0.8045  0.3076
  290MOL0     H39960   7.284   4.223   9.266  0.8047  1.0848  2.1667
  290MOL0     H39961   7.361   4.079   9.529 -0.7633 -0.5351  0.0903
  290MOL0     H39962   7.408   4.245   9.476 -0.9962 -0.5601 -0.0719
  290MOL0     H39963   7.504   3.974   9.374 -1.1346  0.4951  0.6730
  290MOL0     H39964   7.522   4.117   9.271 -0.2399 -3.4235 -1.1139
  290MOL0     H39965   7.668   4.225   9.455 -0.1334 -0.1839 -0.2503
  290MOL0     H39966   7.740   4.090   9.396  1.6621  2.6556  0.6789
  290MOL0     H39967   7.590   4.136   9.657  0.7760 -0.9915  1.3463
  290MOL0     H39968   7.626   3.966   9.604  2.7197 -1.0090 -2.8289
  290MOL0     H39969   7.877   3.890   9.569 -1.1195 -1.2627  1.2267
  290MOL0     H39970   8.182   3.948   9.590 -0.6474 -1.3324  0.2356
  290MOL0     H39971   8.171   3.889   9.751 -0.6327  1.3032  2.1496
  290MOL0     H39972   8.355   4.081   9.687  0.5212  1.2664  0.7262
  290MOL0     H39973   8.224   4.185   9.699  1.1808 -0.7028 -3.7437
  290MOL0     H39974   8.301   4.187   9.921 -0.0866 -0.2982  1.9156
  290MOL0     H39975   8.196   4.047   9.938  0.6413 -2.2385 -0.3745
  290MOL0     H39976   8.387   3.899   9.887  0.7952 -0.8286 -2.2901
  290MOL0     H39977   8.489   4.031   9.853 -1.5976 -1.3671 -1.9205
  290MOL0     H39978   8.560   4.186  10.179  0.3258  0.0753 -1.4454
  290MOL0     H39979   8.813   4.212  10.384  1.4556  0.6455  0.0321
  290MOL0     H39980   8.753   4.302  10.247 -1.6918 -0.6160  2.0999
  290MOL0     H39981   8.918   4.224  10.232  1.0968  0.8043  0.3011
  290MOL0     H39982   9.232   3.682  10.150  0.3941 -3.7532  1.1852
  290MOL0     H39983   9.437   3.629  10.265  1.7977  1.8339 -0.1891
  290MOL0     H39984   9.471   3.780  10.682 -2.8313  0.5864 -0.8508
  290MOL0     H39985   9.399   3.613  10.697 -1.5449  0.6789 -1.2041
  290MOL0     H39986   9.599   3.578  10.803 -0.2366 -0.4305  0.3112
  290MOL0     H39987   9.646   3.528  10.644 -1.6378 -0.1769 -0.3849
  290MOL0     H39988   9.691   3.818  10.727 -2.2076 -0.1161 -0.9515
  290MOL0     H39989   9.712   3.740  10.568 -1.3246  1.0277  0.3431
  290MOL0     H39990   9.843   3.683  10.835  0.3778 -0.4149  0.0637
  290MOL0     H39991   9.918   3.778  10.701 -0.6974  1.1263 -0.0842
  290MOL0     H39992   9.876   3.482  10.718  0.3355 -0.8685 -1.6349
  290MOL0     H39993   9.930   3.573  10.565  4.3803 -1.3076 -0.5580
  290MOL0     H39994  10.078   3.555  10.829 -0.4104 -1.8299 -0.0025
  290MOL0     H39995  10.146   3.640  10.692  0.4471 -0.8142  1.3022
  290MOL0     H39996  10.133   3.407  10.581  0.9062  0.8069  0.7296
  290MOL0     H39997  10.083   3.335  10.730 -0.1576 -0.3514 -0.7902
  290MOL0     H39998  10.355   3.489  10.718 -0.1689  0.2772  0.8104
  290MOL0     H39999  10.341   3.335  10.644  0.4238  0.4404  0.9825
  290MOL0     H40000   9.253   3.788  10.628  0.1155 -0.0914  1.0731
  290MOL0     H40001   9.067   3.862  10.509 -0.3028  0.6383 -0.7705
  290MOL0     H40002   8.798   3.766  10.147 -0.6465 -0.1054  3.3496
  290MOL0     H40003   8.594   3.793  10.030 -0.2925  0.3361 -0.8973
  290MOL0     H40004   6.736   4.364   9.569  0.8932 -3.3888 -0.0216
  290MOL0     H40005   6.524   4.425   9.639 -0.8165  1.8884 -0.8124
  290MOL0     H40006   6.058   4.421   9.548  2.4480 -0.9921 -0.5376
  290MOL0     H40007   5.825   4.437   9.622  3.0426  1.8437 -1.9981
  290MOL0     H40008   5.574   4.351   9.710  1.4557  0.3571 -1.5999
  290MOL0     H40009   5.656   4.191   9.700  0.0341 -0.7255  0.7768
  290MOL0     H40010   5.470   4.281   9.917 -3.1804 -1.4432 -1.3412
  290MOL0     H40011   5.552   4.128   9.920 -0.8276  0.9946  2.5179
  290MOL0     H40012   5.324   4.237   9.746 -1.1657 -1.3713 -0.2503
  290MOL0     H40013   5.429   4.118   9.673  1.3908 -1.4309  1.2117
  290MOL0     H40014   5.391   3.961   9.889  1.1016  1.1227  1.1472
  290MOL0     H40015   5.249   4.008   9.788  0.5845  1.4008 -3.0225
  290MOL0     H40016   5.173   4.179  10.176  1.4181 -1.7676  0.3144
  290MOL0     H40017   5.921   4.187   9.954 -2.6653 -0.9564 -2.1302
  290MOL0     H40018   6.284   4.176   9.887 -1.0143 -1.5595 -3.6668
  290MOL0     H40019   6.156   4.141  10.015  1.3899 -0.8730  0.5301
  290MOL0     H40020   6.191   4.042   9.873 -0.9461  0.0927 -1.6505
  291MOL0     O40021  10.937   4.983   3.774  0.7308 -0.1905  0.6852
  291MOL0     C40022  10.953   5.051   3.881  0.0474  0.1451 -0.3626
  291MOL0     O40023  11.046   5.152   3.895 -0.0899  0.0766  0.3182
  291MOL0     C40024  11.113   5.186   3.777  0.0440  0.6929  0.4381
  291MOL0     C40025  11.184   5.093   3.696 -0.2614  0.1660 -0.1539
  291MOL0     C40026  11.253   5.132   3.581  0.3671  0.1442 -0.2365
  291MOL0     C40027  11.251   5.265   3.541 -0.1038 -0.3326 -0.6622
  291MOL0     O40028  11.329   5.292   3.430 -0.3397  0.8969  0.6928
  291MOL0     C40029  11.361   5.430   3.395 -0.3914  0.0761 -1.0536
  291MOL0     C40030  11.452   5.444   3.270  0.1562 -0.5059  0.5278
  291MOL0     C40031  11.600   5.453   3.311  0.3939  0.9089 -0.0051
  291MOL0     C40032  11.694   5.490   3.186 -0.4014  0.2318  0.1137
  291MOL0     C40033  11.840   5.474   3.237 -0.7668  0.0309 -0.1259
  291MOL0     C40034  11.942   5.493   3.122 -0.8358 -0.7203  0.7109
  291MOL0     C40035  12.089   5.481   3.177 -0.2298 -0.7289 -0.1803
  291MOL0     C40036  12.196   5.485   3.064 -0.9691 -0.5903  0.2160
  291MOL0     N40037  12.331   5.444   3.116  0.3324  0.0024  0.3573
  291MOL0     C40038  12.447   5.519   3.130 -0.0476 -0.0439  0.4061
  291MOL0     C40039  12.541   5.439   3.192 -0.0310  1.1691 -0.5283
  291MOL0     C40040  12.682   5.463   3.236  0.5683 -0.2708  0.5556
  291MOL0     C40041  12.775   5.470   3.107  0.1690  0.5736  0.0785
  291MOL0     C40042  12.788   5.337   3.030 -0.0921  0.3596  0.0251
  291MOL0     C40043  12.890   5.347   2.922  0.1392  0.4252  0.3614
  291MOL0     O40044  13.023   5.361   2.974  0.0479  0.1346 -0.4363
  291MOL0     C40045  13.126   5.368   2.892  0.7664  0.8583  0.2317
  291MOL0     C40046  13.123   5.313   2.760  0.3014 -0.3820 -0.2139
  291MOL0     C40047  13.234   5.319   2.672 -0.3603  0.8186 -0.2384
  291MOL0     C40048  13.218   5.255   2.533  0.3243 -0.5833 -0.4465
  291MOL0     C40049  13.354   5.388   2.715 -0.4143  0.4872 -0.0713
  291MOL0     C40050  13.479   5.389   2.633 -0.9158 -0.0712  0.2023
  291MOL0     O40051  13.587   5.474   2.680  0.2206 -0.7451 -1.0479
  291MOL0     C40052  13.721   5.438   2.662 -0.0205  0.9990 -0.3773
  291MOL0     C40053  13.768   5.306   2.692 -0.1160 -0.3383  0.1571
  291MOL0     C40054  13.892   5.263   2.660  0.4209  0.7149 -0.2021
  291MOL0     C40055  13.980   5.357   2.600  0.2431 -0.5904 -0.1946
  291MOL0     O40056  14.103   5.321   2.558 -1.2143  0.6864 -0.7780
  291MOL0     C40057  14.149   5.185   2.540  0.4261 -0.7254  0.0713
  291MOL0     C40058  14.280   5.190   2.457 -0.0224  0.3122 -0.3085
  291MOL0     C40059  14.248   5.212   2.305  0.4835  0.4960 -0.6371
  291MOL0     C40060  14.367   5.191   2.215 -0.5766 -0.5064  0.8915
  291MOL0     C40061  14.330   5.223   2.071 -0.1694 -0.0644  0.5164
  291MOL0     C40062  14.456   5.214   1.979 -0.1445 -0.0014 -0.1692
  291MOL0     C40063  14.414   5.277   1.843  0.2849  0.2457 -0.0744
  291MOL0     C40064  14.511   5.237   1.734  0.3180  0.1496 -0.1937
  291MOL0    Cl40065  14.677   5.295   1.769 -0.1114  0.3279  0.1073
  291MOL0     C40066  13.938   5.483   2.568  0.6005  0.4245  0.8421
  291MOL0     C40067  13.803   5.526   2.593  0.8029  0.0749  0.4175
  291MOL0     O40068  13.496   5.302   2.548  0.7845  0.5578 -0.2332
  291MOL0     C40069  13.358   5.443   2.847  0.2735 -0.3126 -0.1797
  291MOL0     C40070  13.245   5.435   2.934 -0.4201 -0.5153 -0.4272
  291MOL0     N40071  12.481   5.311   3.198 -0.0572  0.0594  0.3315
  291MOL0     N40072  12.358   5.318   3.159  0.3378 -0.4128 -0.2986
  291MOL0     C40073  11.182   5.360   3.619 -0.2274 -0.4510  0.4429
  291MOL0     C40074  11.102   5.323   3.731  0.2773 -0.7264 -0.5705
  291MOL0     C40075  10.851   5.017   3.991 -0.8754  0.3612 -0.3177
  291MOL0     C40076  10.882   5.067   4.123  0.2312 -0.1347  0.6639
  291MOL0     C40077  10.796   5.057   4.227  0.3283  1.1269 -0.4262
  291MOL0     C40078  10.666   5.011   4.204 -0.4964  0.1066 -0.2720
  291MOL0     O40079  10.576   5.011   4.314  0.6975 -0.0296 -0.2152
  291MOL0     C40080  10.437   5.039   4.285  0.2289  0.0093  0.2713
  291MOL0     C40081  10.366   5.087   4.421 -0.5391 -0.4186  0.6761
  291MOL0     C40082  10.227   5.140   4.375 -0.4504 -0.6044  0.0822
  291MOL0     C40083  10.129   5.148   4.494 -0.0877 -1.2876  0.0453
  291MOL0     C40084   9.997   5.172   4.448 -0.2798  0.9650  1.2621
  291MOL0     C40085   9.887   5.218   4.425  0.5331 -0.2478  0.1563
  291MOL0     C40086  10.627   4.960   4.079  0.6220  0.4340  0.5664
  291MOL0     C40087  10.722   4.948   3.970  0.0371 -0.3675 -0.1804
  291MOL0     C40088  10.669   4.880   3.842 -0.4121 -0.7885  0.3199
  291MOL0     H40089  11.192   4.990   3.730  0.2565  0.1403 -0.3516
  291MOL0     H40090  11.314   5.062   3.525  0.5747  0.5469 -0.5253
  291MOL0     H40091  11.398   5.481   3.484 -0.3157 -1.5434 -0.1248
  291MOL0     H40092  11.267   5.480   3.371  0.9270  3.0796 -0.4520
  291MOL0     H40093  11.440   5.362   3.200 -1.3613 -1.0087  1.3304
  291MOL0     H40094  11.413   5.530   3.215  0.0541  0.0055  1.3687
  291MOL0     H40095  11.615   5.525   3.392 -1.0626 -0.5602  1.6610
  291MOL0     H40096  11.624   5.357   3.359 -3.1312  1.6222  3.7031
  291MOL0     H40097  11.674   5.435   3.094 -0.4411  0.0900  0.2067
  291MOL0     H40098  11.680   5.593   3.153 -0.1492  0.2586  0.0932
  291MOL0     H40099  11.850   5.377   3.287  0.1811  0.6057  0.8441
  291MOL0     H40100  11.861   5.549   3.314  0.6480 -0.6648  0.1973
  291MOL0     H40101  11.930   5.418   3.043 -1.0727  0.9719 -0.9500
  291MOL0     H40102  11.927   5.593   3.081 -1.8032 -2.1483 -2.7989
  291MOL0     H40103  12.104   5.388   3.234  2.1397  0.1480  0.7574
  291MOL0     H40104  12.107   5.556   3.255 -1.3977  0.5709 -1.1227
  291MOL0     H40105  12.163   5.419   2.983  2.1697 -0.5503 -1.2373
  291MOL0     H40106  12.195   5.584   3.017 -1.1357 -1.0026 -0.6819
  291MOL0     H40107  12.460   5.625   3.109  1.4664  0.2586  2.5598
  291MOL0     H40108  12.717   5.380   3.298 -2.6307 -2.5082 -0.4214
  291MOL0     H40109  12.683   5.557   3.293  0.3684  0.3907 -0.5007
  291MOL0     H40110  12.735   5.551   3.045  1.6061 -0.4765 -2.3159
  291MOL0     H40111  12.874   5.503   3.139  0.1107  0.2724  0.5880
  291MOL0     H40112  12.822   5.254   3.092 -0.9147 -0.3013 -0.4009
  291MOL0     H40113  12.698   5.297   2.982  0.8220 -1.5746 -0.1618
  291MOL0     H40114  12.884   5.250   2.871 -1.5273  1.3498 -1.3200
  291MOL0     H40115  12.865   5.430   2.855 -1.0300  0.0805  0.3344
  291MOL0     H40116  13.032   5.280   2.712  0.9051 -2.2126 -0.1565
  291MOL0     H40117  13.245   5.333   2.461  2.5861  0.9497  1.8909
  291MOL0     H40118  13.113   5.225   2.526 -0.5998  2.1328  0.5474
  291MOL0     H40119  13.284   5.169   2.524 -0.2755 -1.1029 -0.0587
  291MOL0     H40120  13.698   5.230   2.725  2.5848 -2.4083  1.4713
  291MOL0     H40121  13.926   5.165   2.692  1.7813  1.7011  1.5573
  291MOL0     H40122  14.169   5.143   2.639  0.9003  0.8998  0.6925
  291MOL0     H40123  14.068   5.120   2.504 -0.9281  0.7425  0.3637
  291MOL0     H40124  14.339   5.274   2.496  0.9879 -0.7748  0.5690
  291MOL0     H40125  14.330   5.095   2.478 -0.2844  0.4534  1.0842
  291MOL0     H40126  14.195   5.307   2.298  1.2823  0.9984 -0.0353
  291MOL0     H40127  14.176   5.133   2.280  0.5387 -0.2498  1.4255
  291MOL0     H40128  14.393   5.085   2.219 -1.9228 -0.8976  0.0505
  291MOL0     H40129  14.448   5.253   2.255 -1.3197  1.9554 -1.1449
  291MOL0     H40130  14.268   5.147   2.023  1.9280 -0.4069 -1.8841
  291MOL0     H40131  14.279   5.319   2.059  0.5075  0.2715  0.2648
  291MOL0     H40132  14.483   5.108   1.971  2.2182  0.4827  0.5556
  291MOL0     H40133  14.543   5.268   2.017  0.0183  0.3608 -1.0332
  291MOL0     H40134  14.421   5.386   1.851 -2.1231  0.3238  2.3079
  291MOL0     H40135  14.313   5.251   1.810 -0.5398 -0.1287  2.5613
  291MOL0     H40136  14.459   5.282   1.648 -0.7687 -0.3863  0.1745
  291MOL0     H40137  14.516   5.128   1.729 -0.7438  0.0181  1.1690
  291MOL0     H40138  14.005   5.547   2.511  1.2021 -1.9777 -1.3576
  291MOL0     H40139  13.767   5.623   2.562  1.9154  0.8555  1.4711
  291MOL0     H40140  13.451   5.488   2.880  0.7607  0.0994 -2.0106
  291MOL0     H40141  13.260   5.474   3.034 -1.2371  0.5310 -0.6946
  291MOL0     H40142  11.191   5.464   3.593  0.2161 -0.2495  1.3457
  291MOL0     H40143  11.047   5.389   3.797  3.5667 -0.9009  2.6334
  291MOL0     H40144  10.979   5.113   4.138  0.4737 -0.8447  1.3415
  291MOL0     H40145  10.819   5.092   4.327 -2.0813  1.4843  0.0466
  291MOL0     H40146  10.427   5.117   4.209  2.4857 -1.3698 -1.5719
  291MOL0     H40147  10.391   4.943   4.257  2.1793 -0.7576 -0.5201
  291MOL0     H40148  10.424   5.169   4.466 -1.0744  0.5333 -0.3330
  291MOL0     H40149  10.366   5.002   4.490  1.2657 -1.7855 -0.8701
  291MOL0     H40150  10.239   5.239   4.331 -2.0256 -0.9979 -1.3141
  291MOL0     H40151  10.191   5.070   4.300 -0.7906  0.4379 -0.7549
  291MOL0     H40152  10.161   5.230   4.558 -1.0901  0.2888 -1.3645
  291MOL0     H40153  10.122   5.049   4.540 -0.4204 -2.1535 -1.7696
  291MOL0     H40154   9.794   5.271   4.420  0.7636  0.0166 -1.8775
  291MOL0     H40155  10.528   4.919   4.065  0.1703  1.1616  1.4952
  291MOL0     H40156  10.648   4.963   3.773  2.1098 -0.3997 -0.0799
  291MOL0     H40157  10.748   4.820   3.795 -1.3213 -1.7133 -0.0793
  291MOL0     H40158  10.577   4.822   3.856 -0.0755 -1.2190  0.7555
  292MOL0     O40159   5.442   6.963   1.454  0.1928  0.2638 -0.3320
  292MOL0     C40160   5.391   7.077   1.467 -1.2950 -0.3815  0.8074
  292MOL0     O40161   5.467   7.189   1.440  0.6474  0.2094 -0.1715
  292MOL0     C40162   5.598   7.195   1.400  0.0860 -0.0766 -0.3031
  292MOL0     C40163   5.633   7.246   1.272 -0.3930 -0.3989  0.1917
  292MOL0     C40164   5.767   7.254   1.229  0.4765 -0.4879  1.0720
  292MOL0     C40165   5.871   7.200   1.303  1.0033 -0.3115 -0.0993
  292MOL0     O40166   6.004   7.198   1.264 -0.2024  0.0678  0.1051
  292MOL0     C40167   6.042   7.249   1.140 -0.1484  0.3820  0.6356
  292MOL0     C40168   6.048   7.396   1.137  0.1536  0.1106 -0.2557
  292MOL0     C40169   6.144   7.453   1.244 -0.3654  0.2888 -0.7536
  292MOL0     C40170   6.177   7.597   1.210 -1.2099  0.7143  0.4569
  292MOL0     C40171   6.248   7.661   1.326 -0.4159  0.1437 -0.5652
  292MOL0     C40172   6.299   7.804   1.292 -0.4594  1.2692  0.1124
  292MOL0     C40173   6.359   7.880   1.409  0.3927 -0.5371 -0.3549
  292MOL0     C40174   6.489   7.828   1.456  0.9007 -0.6408 -0.0273
  292MOL0     N40175   6.599   7.835   1.361 -0.1710  0.2937  0.1546
  292MOL0     C40176   6.670   7.945   1.314 -0.3352  0.4369 -0.2832
  292MOL0     C40177   6.744   7.896   1.215 -0.6654 -1.0593 -0.4102
  292MOL0     C40178   6.843   7.976   1.125  0.3053 -0.5714 -0.3836
  292MOL0     C40179   6.994   7.961   1.164  0.5608  0.5697  0.2470
  292MOL0     C40180   7.054   7.823   1.111 -0.0802 -0.0917  0.3001
  292MOL0     C40181   7.208   7.824   1.146 -0.0238  0.2243  0.4706
  292MOL0     O40182   7.242   7.871   1.276  0.1334 -0.2161 -0.5851
  292MOL0     C40183   7.369   7.864   1.325 -0.1652  0.3757 -0.8850
  292MOL0     C40184   7.479   7.814   1.247 -0.5970  0.5089 -0.3728
  292MOL0     C40185   7.600   7.808   1.312  0.5264  0.4648  0.3164
  292MOL0     C40186   7.710   7.743   1.223 -0.8307 -0.1919 -0.9044
  292MOL0     C40187   7.612   7.842   1.454  0.8718  0.9376  0.2519
  292MOL0     C40188   7.731   7.824   1.533  0.1027  0.1771  0.6323
  292MOL0     O40189   7.760   7.906   1.641 -0.3375 -0.5386 -0.4045
  292MOL0     C40190   7.894   7.915   1.665  0.4216 -0.4433 -0.7704
  292MOL0     C40191   7.925   7.935   1.799 -0.0634  0.6336  0.0244
  292MOL0     C40192   8.064   7.941   1.832  1.1635  0.1782  0.3038
  292MOL0     C40193   8.167   7.947   1.736  0.5181 -0.4812  0.7565
  292MOL0     O40194   8.306   7.948   1.751  0.6382  0.1648 -0.3360
  292MOL0     C40195   8.355   7.975   1.885  0.2428 -0.0331  0.4476
  292MOL0     C40196   8.381   7.846   1.957  0.4735 -0.3945 -0.1523
  292MOL0     C40197   8.485   7.855   2.069  0.8644 -0.0695  0.0902
  292MOL0     C40198   8.488   7.725   2.155 -0.9479  0.7185 -0.9866
  292MOL0     C40199   8.588   7.621   2.097  0.2484  0.6580  0.6819
  292MOL0     C40200   8.575   7.482   2.167 -0.5773  0.5294  0.6717
  292MOL0     C40201   8.686   7.395   2.127  0.3199  0.0511  0.0854
  292MOL0     C40202   8.690   7.371   1.975  0.2795  0.2796 -0.3900
  292MOL0    Cl40203   8.819   7.243   1.939  0.0219 -0.0082  0.4937
  292MOL0     C40204   8.124   7.949   1.605  0.8120  0.4373  0.5975
  292MOL0     C40205   7.998   7.934   1.571  0.4358  0.4390 -0.1028
  292MOL0     O40206   7.803   7.732   1.492 -0.4350 -0.2438  0.1116
  292MOL0     C40207   7.504   7.905   1.515  0.9498 -0.4128 -0.1628
  292MOL0     C40208   7.387   7.910   1.456  0.8783  0.1389  1.3321
  292MOL0     N40209   6.712   7.763   1.198  0.5376  0.5097  0.1832
  292MOL0     N40210   6.629   7.725   1.293  0.2175 -0.7099 -0.3665
  292MOL0     C40211   5.834   7.149   1.432  0.2453 -0.4802  0.2868
  292MOL0     C40212   5.701   7.153   1.478 -0.4264 -0.0873 -0.0133
  292MOL0     C40213   5.267   7.092   1.540 -0.4476  0.0218 -0.4661
  292MOL0     C40214   5.266   7.174   1.658  0.6285  0.6286  1.1495
  292MOL0     C40215   5.145   7.187   1.733 -0.1050  1.2282  0.0486
  292MOL0     C40216   5.034   7.108   1.697  0.5183 -0.9404  0.2788
  292MOL0     O40217   4.919   7.097   1.770  1.3314  0.2706 -0.6534
  292MOL0     C40218   4.919   7.133   1.906  0.3011 -0.5809  0.4255
  292MOL0     C40219   4.805   7.067   1.978 -0.5407 -0.1292 -0.0716
  292MOL0     C40220   4.671   7.084   1.909 -0.6462  0.2317 -0.6561
  292MOL0     C40221   4.539   7.030   1.985  1.1665 -0.0740 -0.0483
  292MOL0     C40222   4.468   7.135   2.061 -1.4420  0.1503  0.1464
  292MOL0     C40223   4.411   7.214   2.121  0.3084  0.3672  0.3847
  292MOL0     C40224   5.036   7.036   1.582  0.4599 -0.0782  0.3193
  292MOL0     C40225   5.146   7.016   1.517 -1.0473  0.7480 -0.5211
  292MOL0     C40226   5.144   6.929   1.387  0.1885  0.1648  0.3292
  292MOL0     H40227   5.552   7.289   1.213 -1.2289 -0.3779  1.3165
  292MOL0     H40228   5.791   7.297   1.132  0.9405 -3.4566 -0.2403
  292MOL0     H40229   5.977   7.214   1.060 -0.8312  1.6102  0.6137
  292MOL0     H40230   6.142   7.211   1.116 -0.6282 -0.6315  0.2173
  292MOL0     H40231   6.080   7.424   1.036  0.3710 -2.5645 -1.0206
  292MOL0     H40232   5.950   7.441   1.154 -0.0562 -0.3394 -0.2671
  292MOL0     H40233   6.100   7.440   1.344  1.8993  0.2034  0.3015
  292MOL0     H40234   6.238   7.399   1.251  0.4329  1.7641  0.7336
  292MOL0     H40235   6.241   7.612   1.123  0.8653  2.1008  2.1224
  292MOL0     H40236   6.094   7.662   1.183 -1.1347  0.3595 -0.6520
  292MOL0     H40237   6.334   7.598   1.349  0.7651  1.2334 -1.8756
  292MOL0     H40238   6.172   7.677   1.404 -0.6729  2.0926 -1.1645
  292MOL0     H40239   6.379   7.805   1.217 -0.0157  0.7151  0.5719
  292MOL0     H40240   6.217   7.866   1.254 -1.2055  0.0924 -0.2630
  292MOL0     H40241   6.291   7.864   1.494  2.3282  1.5797  1.7287
  292MOL0     H40242   6.364   7.987   1.388 -0.8225 -0.2326  0.7871
  292MOL0     H40243   6.519   7.869   1.553  4.0625  0.2313 -1.2497
  292MOL0     H40244   6.478   7.722   1.480 -2.1152 -0.4525 -0.2107
  292MOL0     H40245   6.667   8.041   1.364  2.6837  0.2678  0.3775
  292MOL0     H40246   6.812   8.080   1.133  0.8843 -0.3262 -1.1868
  292MOL0     H40247   6.820   7.940   1.024 -1.7651 -0.6893  0.0834
  292MOL0     H40248   7.046   8.047   1.122 -0.2832  1.7739  1.5853
  292MOL0     H40249   7.002   7.980   1.271 -2.9939  2.7614  0.2877
  292MOL0     H40250   7.010   7.734   1.157  0.1041 -2.2722 -3.3577
  292MOL0     H40251   7.039   7.820   1.003 -0.4587 -1.0989  0.3638
  292MOL0     H40252   7.256   7.732   1.113  2.3325  1.8489 -0.9342
  292MOL0     H40253   7.259   7.898   1.084 -0.5220 -0.1819 -0.4419
  292MOL0     H40254   7.467   7.768   1.149 -1.1639 -0.7743  0.2757
  292MOL0     H40255   7.695   7.751   1.115  0.3716  2.7058 -0.9600
  292MOL0     H40256   7.720   7.635   1.238  1.5343 -0.4243 -3.2479
  292MOL0     H40257   7.810   7.785   1.236 -0.7070 -1.4397  4.6353
  292MOL0     H40258   7.843   7.935   1.870  1.2545 -2.1439  1.7489
  292MOL0     H40259   8.089   7.949   1.938 -1.1801  0.0730  0.9028
  292MOL0     H40260   8.449   8.029   1.865 -0.1816  0.0026 -1.6115
  292MOL0     H40261   8.295   8.045   1.945  2.2223 -0.1998  2.8110
  292MOL0     H40262   8.290   7.792   1.983  1.1100 -0.8177  1.3094
  292MOL0     H40263   8.427   7.779   1.883 -1.2870 -0.9089 -0.8484
  292MOL0     H40264   8.454   7.939   2.131 -0.9283 -1.6785  1.4840
  292MOL0     H40265   8.586   7.872   2.031  0.4500  0.8719 -0.6490
  292MOL0     H40266   8.388   7.680   2.152 -1.5283  1.9178 -0.1508
  292MOL0     H40267   8.523   7.746   2.256  0.9011 -0.6600 -1.2764
  292MOL0     H40268   8.563   7.609   1.992 -0.5355  1.8583  0.7187
  292MOL0     H40269   8.690   7.659   2.088  0.2286  0.3543 -0.9657
  292MOL0     H40270   8.476   7.439   2.149 -0.5448  1.1170 -1.0690
  292MOL0     H40271   8.593   7.493   2.274  0.6478  0.2684  0.4974
  292MOL0     H40272   8.676   7.303   2.186  1.7684 -0.1700  0.0211
  292MOL0     H40273   8.778   7.439   2.167 -0.2789  0.2747  1.2682
  292MOL0     H40274   8.723   7.461   1.922  1.7569 -1.8247 -3.4017
  292MOL0     H40275   8.591   7.331   1.951  0.5868 -1.3783  0.9152
  292MOL0     H40276   8.210   7.944   1.539  0.4934  0.4418  0.1739
  292MOL0     H40277   7.966   7.941   1.468 -0.6367  2.3635  0.3014
  292MOL0     H40278   7.504   7.940   1.618 -1.1365  0.0327 -0.2740
  292MOL0     H40279   7.315   7.959   1.520 -0.4773 -1.7316  1.3524
  292MOL0     H40280   5.916   7.110   1.492  1.4834  0.1938 -0.9309
  292MOL0     H40281   5.673   7.119   1.577 -1.0415 -0.7023 -0.3878
  292MOL0     H40282   5.356   7.231   1.679  1.3448 -0.0682  0.0839
  292MOL0     H40283   5.146   7.248   1.823 -0.9772  0.3340  0.6884
  292MOL0     H40284   5.014   7.108   1.955  2.0349 -0.8839 -2.8490
  292MOL0     H40285   4.903   7.241   1.909 -0.5107 -0.6340 -1.0753
  292MOL0     H40286   4.795   7.105   2.080 -0.2270 -0.8527  0.2363
  292MOL0     H40287   4.817   6.961   1.999 -2.0738 -0.2989  0.0466
  292MOL0     H40288   4.657   7.193   1.909 -2.4309  0.0574  0.3213
  292MOL0     H40289   4.666   7.050   1.806 -0.5359 -0.0405 -0.5711
  292MOL0     H40290   4.551   6.934   2.037  2.1298 -0.9621 -1.8483
  292MOL0     H40291   4.464   6.998   1.912 -0.9167 -0.5792  2.1489
  292MOL0     H40292   4.352   7.285   2.174  1.0764  0.7149  0.7891
  292MOL0     H40293   4.952   6.977   1.548 -0.1456  0.2941  1.1212
  292MOL0     H40294   5.141   6.823   1.413  1.6397  0.3262  1.2698
  292MOL0     H40295   5.050   6.954   1.338 -0.1191 -2.7096 -0.6882
  292MOL0     H40296   5.228   6.952   1.320 -1.1589 -0.1774 -1.5456
  293MOL0     O40297   0.162   1.819  11.195 -0.0324 -0.0955 -0.3753
  293MOL0     C40298   0.173   1.899  11.282  0.1890 -0.6419  0.1256
  293MOL0     O40299   0.293   1.957  11.327 -0.2268  0.1332  0.1000
  293MOL0     C40300   0.408   1.938  11.265 -0.2270  0.3186 -0.6609
  293MOL0     C40301   0.422   1.923  11.129  0.1340  0.0574 -0.0915
  293MOL0     C40302   0.547   1.922  11.070  0.7268  0.0586  0.1170
  293MOL0     C40303   0.661   1.925  11.152 -0.2315 -0.2366 -0.5919
  293MOL0     O40304   0.783   1.899  11.096  0.1402  0.0401  0.2527
  293MOL0     C40305   0.817   1.998  10.995  0.0426 -0.3354 -0.1082
  293MOL0     C40306   0.961   1.976  10.933 -0.3881  0.8104 -1.0389
  293MOL0     C40307   0.998   2.071  10.822 -0.2418  1.1552 -0.2753
  293MOL0     C40308   1.011   2.216  10.877  1.1162 -0.0505  0.5481
  293MOL0     C40309   1.058   2.320  10.769 -0.0469 -0.2089 -0.7237
  293MOL0     C40310   1.192   2.268  10.704  0.3145  0.3736  0.2753
  293MOL0     C40311   1.297   2.377  10.680 -0.7842  0.2156  0.0279
  293MOL0     C40312   1.426   2.317  10.619  0.9296  0.6096 -0.4485
  293MOL0     N40313   1.539   2.420  10.600  0.3675  0.1022 -0.5109
  293MOL0     C40314   1.610   2.445  10.490  0.2677 -0.8648 -0.2367
  293MOL0     C40315   1.718   2.514  10.536  0.2612 -0.4889 -0.2723
  293MOL0     C40316   1.827   2.573  10.446  0.4801  0.1929  0.9726
  293MOL0     C40317   1.808   2.714  10.409 -0.7147  0.0467  0.2830
  293MOL0     C40318   1.877   2.740  10.268 -0.0822  0.7690  0.3296
  293MOL0     C40319   1.850   2.881  10.198 -0.1813  0.3191  0.3786
  293MOL0     O40320   1.883   2.867  10.062  0.3600 -0.3233  0.0875
  293MOL0     C40321   2.019   2.870  10.035  0.6748  0.2231  0.1668
  293MOL0     C40322   2.125   2.897  10.123  0.2568 -0.3501  0.0240
  293MOL0     C40323   2.257   2.914  10.079 -0.0842 -0.7698 -0.1960
  293MOL0     C40324   2.343   2.990  10.179  0.0054  1.0948  0.1482
  293MOL0     C40325   2.291   2.889   9.942  0.2065  0.0988  0.6093
  293MOL0     C40326   2.426   2.892   9.880  0.1904 -0.1973 -0.0079
  293MOL0     O40327   2.433   2.940   9.747  0.2967  0.8854  0.8926
  293MOL0     C40328   2.553   2.962   9.682 -0.4960  0.3205 -0.1345
  293MOL0     C40329   2.550   2.951   9.546 -0.1302 -0.2599  0.2936
  293MOL0     C40330   2.664   2.985   9.469  0.0658 -0.6741 -0.2653
  293MOL0     C40331   2.786   3.039   9.525  0.5094  0.2403  0.4729
  293MOL0     O40332   2.895   3.058   9.439  0.3257 -0.2930 -0.6762
  293MOL0     C40333   2.957   3.185   9.462  0.3244  0.1606  0.7980
  293MOL0     C40334   3.099   3.154   9.522 -0.0711 -0.2958  0.4183
  293MOL0     C40335   3.186   3.099   9.409 -0.2176  0.0147 -0.7025
  293MOL0     C40336   3.328   3.065   9.457  0.6233  0.0440  0.6506
  293MOL0     C40337   3.418   3.022   9.336 -0.2647 -0.3655 -0.3351
  293MOL0     C40338   3.558   2.998   9.384  0.0526 -0.0487  0.0090
  293MOL0     C40339   3.652   2.943   9.274  0.1294 -0.8005  0.2567
  293MOL0     C40340   3.703   3.059   9.188  0.4644  0.4471 -0.1421
  293MOL0    Cl40341   3.783   3.189   9.277  0.1247 -0.2039  0.1761
  293MOL0     C40342   2.787   3.056   9.665  0.1106  0.3721 -0.6741
  293MOL0     C40343   2.675   3.008   9.736  0.4455  0.0960 -0.2648
  293MOL0     O40344   2.529   2.864   9.944 -0.1540 -0.0997 -0.1642
  293MOL0     C40345   2.186   2.853   9.854  0.5429 -0.2508 -0.3536
  293MOL0     C40346   2.056   2.848   9.901 -0.0001 -0.6161  0.2063
  293MOL0     N40347   1.707   2.532  10.676  0.3790  0.1816 -0.4758
  293MOL0     N40348   1.599   2.473  10.712 -0.4895  0.2253  0.3892
  293MOL0     C40349   0.650   1.923  11.297 -0.0833 -0.1435  0.3411
  293MOL0     C40350   0.525   1.928  11.346 -0.0376  0.1411 -0.5435
  293MOL0     C40351   0.064   1.935  11.364  0.7702 -0.2057 -0.2207
  293MOL0     C40352   0.080   1.974  11.490 -0.2708  0.9167  0.6243
  293MOL0     C40353  -0.027   1.987  11.574  0.3620  0.5737 -0.5924
  293MOL0     C40354  -0.161   1.987  11.524 -0.1001  0.2756  0.0722
  293MOL0     O40355  -0.260   2.029  11.609  0.0860  0.1477 -0.2194
  293MOL0     C40356  -0.394   2.010  11.569  0.2420  0.0494 -0.4044
  293MOL0     C40357  -0.479   2.038  11.682  0.2517  0.5974 -0.9966
  293MOL0     C40358  -0.617   2.061  11.639 -1.0100 -0.1423  0.8443
  293MOL0     C40359  -0.702   2.081  11.760 -0.3033 -0.5295  1.0641
  293MOL0     C40360  -0.841   2.123  11.711 -1.2166  1.3000 -0.7723
  293MOL0     C40361  -0.953   2.144  11.669 -0.4291  0.2362 -0.3221
  293MOL0     C40362  -0.179   1.947  11.395  0.8974  0.4236  0.6356
  293MOL0     C40363  -0.073   1.916  11.316 -0.0773  0.1939  0.0160
  293MOL0     C40364  -0.109   1.879  11.180 -0.0689  0.1805 -0.0763
  293MOL0     H40365   0.334   1.910  11.066 -1.3854  1.0326  1.7234
  293MOL0     H40366   0.551   1.907  10.963  0.8825 -1.7889  0.3570
  293MOL0     H40367   0.815   2.094  11.047  1.8726 -0.4698  0.2556
  293MOL0     H40368   0.743   2.000  10.914  1.6063  1.6729 -1.5555
  293MOL0     H40369   1.033   1.980  11.015 -1.4388  1.0243 -0.0888
  293MOL0     H40370   0.960   1.870  10.909 -2.2467 -0.3191  3.0205
  293MOL0     H40371   1.092   2.028  10.786  0.4456 -0.9699  3.4378
  293MOL0     H40372   0.930   2.070  10.737  2.4660 -4.4832 -2.9157
  293MOL0     H40373   0.918   2.255  10.919  0.4182 -1.5717  0.4871
  293MOL0     H40374   1.080   2.210  10.962  1.1809 -0.7681  0.4549
  293MOL0     H40375   1.074   2.420  10.809 -2.4435  0.3202 -0.9563
  293MOL0     H40376   0.982   2.327  10.690 -3.2603  2.0144  2.2910
  293MOL0     H40377   1.240   2.193  10.768  0.2655  1.3000  1.4222
  293MOL0     H40378   1.174   2.213  10.610 -1.1267  0.4377  0.4910
  293MOL0     H40379   1.325   2.427  10.773  1.4559 -1.2094  0.1786
  293MOL0     H40380   1.268   2.452  10.606  0.4323 -0.9486 -1.7118
  293MOL0     H40381   1.462   2.230  10.675 -1.9987  0.0201  0.7073
  293MOL0     H40382   1.396   2.299  10.515 -0.1041  0.6074 -0.1523
  293MOL0     H40383   1.595   2.405  10.389 -1.2942  1.2804 -0.9179
  293MOL0     H40384   1.813   2.503  10.363  0.3975 -0.2297  1.3396
  293MOL0     H40385   1.927   2.556  10.487  1.6166  1.1965 -1.2493
  293MOL0     H40386   1.701   2.738  10.408 -0.6365  0.6406  1.9126
  293MOL0     H40387   1.854   2.781  10.483  0.5310  1.1211 -1.4029
  293MOL0     H40388   1.986   2.734  10.278 -0.0115  1.3116 -0.0582
  293MOL0     H40389   1.850   2.667  10.192  1.7667  1.6134 -1.2272
  293MOL0     H40390   1.745   2.910  10.195  0.1121  1.5898  1.2371
  293MOL0     H40391   1.900   2.962  10.253 -1.3884  0.9869  0.5152
  293MOL0     H40392   2.111   2.913  10.230  2.6195  0.5315  0.2649
  293MOL0     H40393   2.381   3.080  10.131  0.5419  0.5730 -0.4319
  293MOL0     H40394   2.425   2.923  10.208 -3.5282 -2.0828  4.2539
  293MOL0     H40395   2.295   3.010  10.275  0.0809  0.9579  0.2161
  293MOL0     H40396   2.458   2.916   9.501  0.8688 -2.4890 -0.1316
  293MOL0     H40397   2.662   2.978   9.361 -0.4356 -2.1355 -0.1709
  293MOL0     H40398   2.989   3.224   9.365  0.4602  0.4819  0.9697
  293MOL0     H40399   2.904   3.250   9.532  0.6225  0.0385  1.1451
  293MOL0     H40400   3.137   3.250   9.557  2.8059 -0.3331 -2.2322
  293MOL0     H40401   3.094   3.093   9.613  0.9264  2.1940  2.2513
  293MOL0     H40402   3.199   3.178   9.334  1.1837  2.2942  1.7747
  293MOL0     H40403   3.131   3.012   9.371  0.5040 -1.0655  0.6110
  293MOL0     H40404   3.319   2.974   9.518  1.7806 -2.3900 -2.5030
  293MOL0     H40405   3.371   3.146   9.516  0.8053 -0.2260  0.8902
  293MOL0     H40406   3.373   2.934   9.290  0.8169 -0.3903 -1.3931
  293MOL0     H40407   3.432   3.105   9.267 -0.1310 -1.4413 -1.6376
  293MOL0     H40408   3.558   2.920   9.461  2.4278  0.7752  0.9263
  293MOL0     H40409   3.606   3.086   9.426 -1.0379  2.4398 -3.4910
  293MOL0     H40410   3.599   2.880   9.203 -0.8832  2.5500 -2.2558
  293MOL0     H40411   3.735   2.888   9.320  1.1847 -0.0666 -0.6988
  293MOL0     H40412   3.612   3.092   9.137 -0.1552  0.2370  0.7935
  293MOL0     H40413   3.773   3.020   9.114  1.3362 -1.5365  1.6162
  293MOL0     H40414   2.881   3.081   9.714 -0.0937 -2.8415  1.6444
  293MOL0     H40415   2.690   3.021   9.843  2.0016  4.6232 -0.8372
  293MOL0     H40416   2.183   2.830   9.748 -2.6311 -3.7005  0.2811
  293MOL0     H40417   1.974   2.826   9.833  1.6662 -2.8678 -1.2351
  293MOL0     H40418   0.744   1.921  11.352  1.2866 -0.5388 -1.8530
  293MOL0     H40419   0.517   1.906  11.452 -1.6671 -2.1038 -1.0520
  293MOL0     H40420   0.173   2.002  11.538 -0.3563  1.9877  0.1813
  293MOL0     H40421  -0.011   2.014  11.678 -0.2983 -2.9913  0.5778
  293MOL0     H40422  -0.405   2.079  11.484  1.4745  1.0658  0.2254
  293MOL0     H40423  -0.404   1.909  11.530  1.5725 -0.0100 -0.6628
  293MOL0     H40424  -0.438   2.132  11.721 -1.7645  1.9494 -1.9342
  293MOL0     H40425  -0.467   1.956  11.753  1.2564 -0.6982 -2.6039
  293MOL0     H40426  -0.612   2.157  11.587 -0.3153 -1.2276 -1.1665
  293MOL0     H40427  -0.653   1.984  11.571 -0.8359 -0.0186  0.6148
  293MOL0     H40428  -0.666   2.168  11.818 -0.9432  2.3304 -2.4697
  293MOL0     H40429  -0.710   1.982  11.806  0.3791  0.3995  3.3267
  293MOL0     H40430  -1.049   2.158  11.624  0.4390  0.2308 -2.2680
  293MOL0     H40431  -0.275   1.950  11.346  1.6171  0.8503 -0.8237
  293MOL0     H40432  -0.034   1.912  11.108  0.3141 -1.9202 -0.6990
  293MOL0     H40433  -0.122   1.770  11.176  1.9334 -0.0592 -1.3335
  293MOL0     H40434  -0.201   1.933  11.156 -0.3794  0.0339  0.7445
  294MOL0     O40435   3.184   1.776   8.298 -0.4465 -0.2783 -0.1710
  294MOL0     C40436   3.183   1.694   8.394  0.1961  0.1490 -1.1667
  294MOL0     O40437   3.100   1.690   8.505  0.3419  0.2280  0.3170
  294MOL0     C40438   3.030   1.798   8.548  0.2059 -0.1333 -0.8749
  294MOL0     C40439   2.903   1.771   8.595 -0.0503 -0.5290  0.5846
  294MOL0     C40440   2.831   1.869   8.659 -0.3616 -0.0315  0.6015
  294MOL0     C40441   2.889   2.000   8.697  0.7082  0.3722  1.0227
  294MOL0     O40442   2.817   2.093   8.770 -0.7631  0.5189 -0.1177
  294MOL0     C40443   2.691   2.069   8.834  0.2170 -0.8072  0.4908
  294MOL0     C40444   2.583   2.105   8.733  0.0830  0.1941  0.3244
  294MOL0     C40445   2.445   2.078   8.772  0.5602  0.3456 -0.9060
  294MOL0     C40446   2.395   2.180   8.871  0.1091 -0.5793  0.4053
  294MOL0     C40447   2.394   2.136   9.013 -0.1040  0.0236  0.0372
  294MOL0     C40448   2.376   2.255   9.109  0.2462  0.4340 -0.1049
  294MOL0     C40449   2.385   2.205   9.254  0.6586 -0.3580  0.4937
  294MOL0     C40450   2.525   2.222   9.312 -0.8654 -0.1597  1.0454
  294MOL0     N40451   2.634   2.138   9.248 -0.4355 -0.3311 -0.4042
  294MOL0     C40452   2.632   1.999   9.242  0.9352  0.1733  0.7691
  294MOL0     C40453   2.748   1.958   9.180  0.8516 -0.2873 -0.3066
  294MOL0     C40454   2.788   1.822   9.127  0.7337  0.0596  0.3019
  294MOL0     C40455   2.929   1.821   9.064 -0.0038 -0.4726 -0.3764
  294MOL0     C40456   2.953   1.688   8.998 -0.5568  0.4476  1.0680
  294MOL0     C40457   3.092   1.678   8.926  0.1617  0.4754  0.9482
  294MOL0     O40458   3.202   1.684   9.025 -0.4830  0.4514  0.1057
  294MOL0     C40459   3.324   1.650   8.977 -0.7304  0.4122  0.6558
  294MOL0     C40460   3.362   1.642   8.847 -0.2559 -0.0617  0.2869
  294MOL0     C40461   3.492   1.626   8.807 -0.4510  0.5702 -0.8186
  294MOL0     C40462   3.506   1.596   8.669 -0.6993 -0.0636 -0.0029
  294MOL0     C40463   3.601   1.630   8.898 -0.0920  0.8626  0.6992
  294MOL0     C40464   3.748   1.611   8.860 -0.9541  0.1052  0.6142
  294MOL0     O40465   3.832   1.606   8.968  0.2433  0.6680  0.3963
  294MOL0     C40466   3.963   1.619   8.928 -0.0171  0.3794 -0.1881
  294MOL0     C40467   4.030   1.510   8.878  0.0905  0.1689  0.0633
  294MOL0     C40468   4.160   1.528   8.836 -0.0333 -0.0341  0.1441
  294MOL0     C40469   4.230   1.655   8.832  0.0442 -0.3577 -0.1535
  294MOL0     O40470   4.361   1.676   8.786 -0.0810  0.3984 -0.0323
  294MOL0     C40471   4.441   1.573   8.730  0.6884 -0.2822 -0.1582
  294MOL0     C40472   4.568   1.634   8.674 -0.1064  0.4541  0.3682
  294MOL0     C40473   4.666   1.684   8.777  0.6002 -0.1338  0.8091
  294MOL0     C40474   4.795   1.737   8.725  0.5234 -0.7923  0.0900
  294MOL0     C40475   4.893   1.778   8.830  0.2772 -1.0490  0.2450
  294MOL0     C40476   5.007   1.860   8.770 -0.6660  0.3929  0.3201
  294MOL0     C40477   5.092   1.775   8.674 -0.1021 -0.2991  0.0412
  294MOL0     C40478   5.227   1.839   8.647  0.0551 -0.1970 -0.4026
  294MOL0    Cl40479   5.213   2.001   8.579 -0.0260  0.0040  0.0006
  294MOL0     C40480   4.161   1.762   8.890  0.0087  0.1095 -0.4086
  294MOL0     C40481   4.031   1.744   8.935  1.8767  0.0765  0.2049
  294MOL0     O40482   3.776   1.633   8.745 -0.8273 -0.2228 -0.8928
  294MOL0     C40483   3.560   1.637   9.028 -0.1998 -0.4650  0.3289
  294MOL0     C40484   3.424   1.652   9.070  0.1020 -0.0875  0.2310
  294MOL0     N40485   2.809   2.082   9.144  0.6823 -0.4891 -0.8711
  294MOL0     N40486   2.746   2.186   9.188 -0.2604 -0.5309  0.0177
  294MOL0     C40487   3.019   2.021   8.645  0.0680 -0.5875 -0.5288
  294MOL0     C40488   3.090   1.925   8.569 -0.1537 -0.0164  0.5366
  294MOL0     C40489   3.270   1.576   8.370 -0.1778  0.0101 -0.1331
  294MOL0     C40490   3.394   1.595   8.301  0.3126 -0.4546  0.0161
  294MOL0     C40491   3.488   1.498   8.278  0.5638  0.4488 -0.1412
  294MOL0     C40492   3.459   1.370   8.322 -0.2537  0.4148  0.1020
  294MOL0     O40493   3.553   1.267   8.315 -0.1378 -0.3584 -0.0932
  294MOL0     C40494   3.653   1.269   8.212 -0.4661 -0.4538  0.0370
  294MOL0     C40495   3.786   1.282   8.274  0.3801  1.0569  0.4321
  294MOL0     C40496   3.822   1.388   8.370 -0.6012 -0.9043  0.2989
  294MOL0     C40497   3.778   1.370   8.516  1.0162 -0.4105  0.5149
  294MOL0     C40498   3.860   1.270   8.584  1.3124  0.9792  0.2921
  294MOL0     C40499   3.916   1.182   8.651 -0.6018 -0.1070 -0.0597
  294MOL0     C40500   3.345   1.345   8.400  0.0835 -1.0574 -0.1783
  294MOL0     C40501   3.252   1.445   8.420  0.9475 -0.0382 -1.2835
  294MOL0     C40502   3.125   1.405   8.501 -0.0756  0.8283 -0.2824
  294MOL0     H40503   2.853   1.675   8.585  0.7703 -1.0569  1.3977
  294MOL0     H40504   2.726   1.849   8.678 -0.6196  0.7812  0.0760
  294MOL0     H40505   2.680   2.123   8.928 -1.5437 -2.8912  1.5569
  294MOL0     H40506   2.670   1.970   8.875 -2.5450  0.4748  2.5416
  294MOL0     H40507   2.595   2.207   8.694 -0.7946  0.8112  1.6102
  294MOL0     H40508   2.579   2.041   8.644 -2.0919  0.4516  0.1955
  294MOL0     H40509   2.378   2.082   8.685  1.1486 -0.4130 -1.4154
  294MOL0     H40510   2.435   1.978   8.817  0.2783  0.6297 -0.3332
  294MOL0     H40511   2.458   2.269   8.871 -1.4201  0.5564 -0.2098
  294MOL0     H40512   2.302   2.226   8.834 -0.0222  1.2392  2.7868
  294MOL0     H40513   2.488   2.086   9.039 -0.1034  0.5022  1.0131
  294MOL0     H40514   2.314   2.064   9.034 -0.1820 -0.3965 -1.5762
  294MOL0     H40515   2.451   2.334   9.097 -1.0906  2.1526  1.9423
  294MOL0     H40516   2.279   2.301   9.090 -0.4414 -1.1739 -0.7003
  294MOL0     H40517   2.357   2.099   9.249  0.8948 -0.4008 -0.1773
  294MOL0     H40518   2.323   2.270   9.316 -0.4039 -1.5753  0.7353
  294MOL0     H40519   2.569   2.320   9.290  0.2370 -0.8287  0.2334
  294MOL0     H40520   2.515   2.217   9.421  0.3686  0.9997  1.2363
  294MOL0     H40521   2.554   1.933   9.278 -0.9617 -0.8937 -4.3997
  294MOL0     H40522   2.723   1.806   9.041 -0.7632 -0.3209  1.4519
  294MOL0     H40523   2.778   1.744   9.204 -0.8256  1.6371  1.8071
  294MOL0     H40524   2.943   1.899   8.988  0.0173  0.8795  0.9550
  294MOL0     H40525   2.995   1.836   9.151  1.6336 -0.5050 -1.5734
  294MOL0     H40526   2.947   1.611   9.075 -0.4191 -0.3034  0.3368
  294MOL0     H40527   2.878   1.678   8.919 -0.7294  1.0119  1.1555
  294MOL0     H40528   3.102   1.583   8.872 -0.0183 -0.2677  2.1883
  294MOL0     H40529   3.120   1.752   8.851  3.6539 -1.6136 -0.0384
  294MOL0     H40530   3.288   1.649   8.768 -2.2996 -1.8979  1.9219
  294MOL0     H40531   3.412   1.577   8.617 -0.7188  2.6892 -1.1363
  294MOL0     H40532   3.578   1.514   8.656  1.3175  1.5038  0.6855
  294MOL0     H40533   3.554   1.674   8.610 -1.9114  0.0501 -0.8671
  294MOL0     H40534   3.982   1.414   8.862  0.8954 -0.2877  0.3021
  294MOL0     H40535   4.223   1.448   8.799  2.0242  1.7234 -0.4346
  294MOL0     H40536   4.469   1.504   8.811  0.4323 -0.4503 -0.2119
  294MOL0     H40537   4.395   1.529   8.641 -0.8088  1.9588 -0.5654
  294MOL0     H40538   4.609   1.557   8.608 -1.7090 -0.7434  0.7106
  294MOL0     H40539   4.537   1.717   8.609  1.1604  0.1694 -0.6516
  294MOL0     H40540   4.689   1.607   8.851 -0.1169  0.3234  1.5169
  294MOL0     H40541   4.612   1.763   8.830 -0.6232 -0.0835 -0.4827
  294MOL0     H40542   4.779   1.818   8.653  3.8086 -0.7601 -0.7557
  294MOL0     H40543   4.836   1.656   8.664 -2.0090 -1.4265 -0.9009
  294MOL0     H40544   4.830   1.841   8.893  0.9611 -2.0840  2.0239
  294MOL0     H40545   4.923   1.693   8.892 -2.0547 -0.3388  2.5015
  294MOL0     H40546   5.070   1.910   8.843 -0.9124 -1.2912  1.7442
  294MOL0     H40547   4.962   1.941   8.711  0.1322  1.0738  0.6304
  294MOL0     H40548   5.039   1.754   8.581 -3.7922  0.3769  1.8157
  294MOL0     H40549   5.102   1.679   8.724 -0.8042 -1.9536 -2.8017
  294MOL0     H40550   5.287   1.769   8.589  1.9869 -0.5001  1.8296
  294MOL0     H40551   5.281   1.856   8.740  1.6010 -0.3833 -1.2348
  294MOL0     H40552   4.214   1.856   8.901 -1.5941  0.8036  2.2525
  294MOL0     H40553   3.980   1.829   8.979  0.2109  0.3943 -2.1336
  294MOL0     H40554   3.641   1.646   9.100  0.1148  2.1001 -0.2640
  294MOL0     H40555   3.407   1.668   9.176 -2.4983  2.5275 -0.4583
  294MOL0     H40556   3.074   2.112   8.665 -0.0905 -0.4972 -0.5009
  294MOL0     H40557   3.193   1.944   8.541 -0.4763  1.5648  0.3493
  294MOL0     H40558   3.421   1.694   8.265  3.8995 -1.5024 -0.6207
  294MOL0     H40559   3.572   1.533   8.218  0.4876  2.8365  1.0217
  294MOL0     H40560   3.631   1.176   8.159 -0.5247 -0.6870  0.4685
  294MOL0     H40561   3.646   1.347   8.135  4.4485  0.4156  0.1542
  294MOL0     H40562   3.865   1.276   8.198  0.4510  1.5664  0.4594
  294MOL0     H40563   3.798   1.186   8.326  0.3121  2.2155  2.7208
  294MOL0     H40564   3.931   1.402   8.370 -0.7508  0.9887  2.8510
  294MOL0     H40565   3.779   1.480   8.330  0.1715 -1.0194 -0.8284
  294MOL0     H40566   3.670   1.356   8.510  0.4611  3.2866 -0.4547
  294MOL0     H40567   3.787   1.468   8.562  0.8469 -0.7158  1.2136
  294MOL0     H40568   3.971   1.118   8.718 -1.7441 -1.6179 -0.5168
  294MOL0     H40569   3.326   1.252   8.452  0.9476  0.2766  2.7428
  294MOL0     H40570   3.031   1.455   8.477 -0.6555  0.1855  0.5583
  294MOL0     H40571   3.100   1.301   8.480 -2.9451  1.2298  0.6966
  294MOL0     H40572   3.139   1.419   8.609 -1.7078 -0.7778  0.1785
  295MOL0     O40573   0.436   5.772   9.562 -0.1781  0.3175 -0.5144
  295MOL0     C40574   0.363   5.685   9.608  0.3937  0.3079  1.1870
  295MOL0     O40575   0.388   5.552   9.618 -0.0718 -0.2142  0.3971
  295MOL0     C40576   0.496   5.494   9.560  0.0566  0.4198  0.5584
  295MOL0     C40577   0.590   5.549   9.473 -0.4148  0.1114  0.5489
  295MOL0     C40578   0.696   5.460   9.435  0.5061 -0.6898  0.4233
  295MOL0     C40579   0.701   5.324   9.489  0.1832 -0.3134 -0.1070
  295MOL0     O40580   0.800   5.240   9.447 -0.2573 -1.0018  0.0136
  295MOL0     C40581   0.912   5.289   9.365 -0.3692  0.1460 -0.0825
  295MOL0     C40582   1.017   5.373   9.434 -0.4402  0.2128  0.0682
  295MOL0     C40583   1.139   5.425   9.358 -0.0123  1.0598 -0.2984
  295MOL0     C40584   1.238   5.474   9.462 -0.4407 -0.3326  0.1657
  295MOL0     C40585   1.365   5.532   9.389 -0.3995  0.0576 -0.2279
  295MOL0     C40586   1.476   5.544   9.494 -0.5982  0.0937 -0.2035
  295MOL0     C40587   1.434   5.618   9.622  0.5554 -0.3001  0.1089
  295MOL0     C40588   1.548   5.665   9.713  0.0803 -0.1763 -0.3388
  295MOL0     N40589   1.633   5.548   9.756  0.6873  0.8024 -0.1818
  295MOL0     C40590   1.584   5.454   9.843  0.1368  0.4352 -0.5461
  295MOL0     C40591   1.678   5.358   9.842  0.1362 -0.3792 -0.6981
  295MOL0     C40592   1.690   5.237   9.928  0.6655 -0.2599  0.2710
  295MOL0     C40593   1.739   5.279  10.061  0.1190  0.8202 -0.0389
  295MOL0     C40594   1.756   5.153  10.144  0.7159 -0.0541 -0.5715
  295MOL0     C40595   1.627   5.076  10.188 -0.7814  1.0481 -0.3765
  295MOL0     O40596   1.529   5.172  10.237  0.2340 -0.6470  0.3058
  295MOL0     C40597   1.394   5.134  10.257  0.2398 -0.2889 -0.0529
  295MOL0     C40598   1.320   5.208  10.348 -0.0683  0.7246 -0.3213
  295MOL0     C40599   1.181   5.191  10.378  0.1869  0.6073  0.3899
  295MOL0     C40600   1.117   5.281  10.483 -0.3812 -0.2861 -0.0380
  295MOL0     C40601   1.116   5.091  10.304  0.6750  0.2367  0.1269
  295MOL0     C40602   0.962   5.052  10.318 -0.5011 -0.2010 -0.0584
  295MOL0     O40603   0.918   4.947  10.246 -0.0122 -0.1448  0.1141
  295MOL0     C40604   0.786   4.922  10.246  0.1013  0.4148 -0.5468
  295MOL0     C40605   0.713   4.871  10.350 -0.4720 -0.0275 -0.2931
  295MOL0     C40606   0.577   4.845  10.342  0.0690 -0.8851  0.0918
  295MOL0     C40607   0.517   4.852  10.219  0.4586  0.2952  0.7481
  295MOL0     O40608   0.386   4.809  10.198  0.3135 -0.6627  0.3083
  295MOL0     C40609   0.282   4.901  10.233 -0.2667  0.1812 -0.0796
  295MOL0     C40610   0.268   4.919  10.387  0.8906 -0.7669  1.0199
  295MOL0     C40611   0.132   4.966  10.409 -0.1092 -0.2762 -0.0842
  295MOL0     C40612   0.109   4.966  10.566 -0.0828  0.6398  0.6557
  295MOL0     C40613  -0.032   5.013  10.600 -0.2172  1.3629 -0.2063
  295MOL0     C40614  -0.063   4.976  10.749 -0.2818 -0.1970 -0.3803
  295MOL0     C40615   0.043   5.025  10.839 -0.3591  0.7459  0.1631
  295MOL0     C40616   0.001   5.019  10.985 -0.0627 -0.0778  0.2758
  295MOL0    Cl40617  -0.049   4.848  11.019  0.1160  0.1290 -0.2804
  295MOL0     C40618   0.590   4.900  10.112  0.4448  0.0198 -0.4475
  295MOL0     C40619   0.718   4.944  10.125  0.1201  0.5799 -0.1863
  295MOL0     O40620   0.893   5.128  10.381  0.0861  0.5069  1.0878
  295MOL0     C40621   1.185   5.009  10.212 -0.2314 -0.1695 -0.3177
  295MOL0     C40622   1.322   5.035  10.187 -0.5556  0.5232 -0.8858
  295MOL0     N40623   1.776   5.395   9.758  0.3958  0.2619 -0.0022
  295MOL0     N40624   1.748   5.505   9.706 -0.2781  0.2016 -0.1606
  295MOL0     C40625   0.599   5.272   9.566 -0.2539  0.0831 -0.2571
  295MOL0     C40626   0.501   5.360   9.605  0.8416 -0.4143  0.5629
  295MOL0     C40627   0.239   5.733   9.670  0.1364  0.0325  0.0767
  295MOL0     C40628   0.202   5.874   9.651 -0.2513  0.7889  0.5433
  295MOL0     C40629   0.080   5.923   9.702 -0.5760 -0.4030  0.0295
  295MOL0     C40630  -0.003   5.845   9.772  0.0900  0.6133  0.7126
  295MOL0     O40631  -0.126   5.904   9.813 -0.5033  0.3954  0.0962
  295MOL0     C40632  -0.212   5.831   9.903 -0.3079 -1.3254 -0.7006
  295MOL0     C40633  -0.315   5.927   9.969 -1.0165  0.4177 -0.1000
  295MOL0     C40634  -0.403   5.989   9.859  0.2480  0.3905 -0.6654
  295MOL0     C40635  -0.510   6.071   9.927  0.6799  0.7539  0.7066
  295MOL0     C40636  -0.576   6.158   9.835  1.1648 -0.3609  0.1011
  295MOL0     C40637  -0.650   6.230   9.759 -0.3663 -0.4581 -0.1189
  295MOL0     C40638   0.031   5.707   9.789  0.0030 -0.0674 -0.3100
  295MOL0     C40639   0.156   5.660   9.751  0.1649  0.4438  0.3850
  295MOL0     C40640   0.172   5.505   9.771  0.3187 -0.3494 -0.5014
  295MOL0     H40641   0.585   5.651   9.437 -1.2934  0.4335  1.5189
  295MOL0     H40642   0.772   5.493   9.365 -0.8952  2.7471  0.3695
  295MOL0     H40643   0.877   5.340   9.275  1.5907  0.5790 -0.6476
  295MOL0     H40644   0.959   5.201   9.319 -3.0834 -0.9429 -0.9636
  295MOL0     H40645   0.968   5.453   9.490 -2.6621 -0.6318 -0.5516
  295MOL0     H40646   1.059   5.305   9.509 -2.0623 -1.5764 -0.5470
  295MOL0     H40647   1.195   5.363   9.288  1.5636  2.0837 -0.0129
  295MOL0     H40648   1.105   5.512   9.301 -3.1595 -0.5692 -1.1273
  295MOL0     H40649   1.192   5.556   9.517  0.0732 -2.1944  3.7145
  295MOL0     H40650   1.274   5.391   9.524  0.0818  2.0779  3.3294
  295MOL0     H40651   1.342   5.629   9.344 -0.4618  0.0965 -0.1105
  295MOL0     H40652   1.398   5.465   9.309  0.2802 -0.5716  0.5597
  295MOL0     H40653   1.515   5.444   9.519 -3.4922 -0.5192  2.6299
  295MOL0     H40654   1.556   5.599   9.444 -0.4655 -0.6418 -0.8109
  295MOL0     H40655   1.379   5.541   9.677  2.0394 -0.2631  1.7530
  295MOL0     H40656   1.370   5.704   9.601 -1.2889 -1.3442  1.2584
  295MOL0     H40657   1.610   5.733   9.654 -0.3729  0.7820  0.2736
  295MOL0     H40658   1.528   5.729   9.799  4.0370 -0.4369  0.9878
  295MOL0     H40659   1.489   5.450   9.894  0.2430 -0.9855 -0.4370
  295MOL0     H40660   1.753   5.160   9.881  5.4495  2.6221  1.2313
  295MOL0     H40661   1.588   5.201   9.944 -0.5934  2.4208 -0.9638
  295MOL0     H40662   1.831   5.337  10.048 -0.4149  1.8012  0.4439
  295MOL0     H40663   1.661   5.341  10.107 -2.4739 -0.2224 -2.7191
  295MOL0     H40664   1.829   5.081  10.105  2.6169 -0.4704  3.2871
  295MOL0     H40665   1.800   5.196  10.234  1.3391  0.3115 -1.0440
  295MOL0     H40666   1.601   5.012  10.103  1.9824 -1.5413  0.5566
  295MOL0     H40667   1.642   5.003  10.268 -0.5382 -0.8269 -2.0257
  295MOL0     H40668   1.367   5.294  10.395 -1.2664  1.7495 -0.9307
  295MOL0     H40669   1.029   5.330  10.441 -0.9025 -2.7548 -2.0484
  295MOL0     H40670   1.187   5.359  10.517 -0.1278 -1.8134  3.3093
  295MOL0     H40671   1.095   5.225  10.574  0.4533 -0.2727  0.1814
  295MOL0     H40672   0.769   4.838  10.438 -3.5128 -0.0565  1.7770
  295MOL0     H40673   0.522   4.795  10.421 -0.0825 -0.6829  0.1146
  295MOL0     H40674   0.309   4.998  10.190  2.6633 -0.6996 -0.4780
  295MOL0     H40675   0.183   4.868  10.201 -1.2999 -0.0820  3.0959
  295MOL0     H40676   0.285   4.825  10.440  0.6724  0.1421  2.7699
  295MOL0     H40677   0.342   4.989  10.427  0.2426  1.3367 -1.2408
  295MOL0     H40678   0.057   4.894  10.376 -0.1670 -0.5624  0.6616
  295MOL0     H40679   0.112   5.064  10.365  0.2850 -0.1848 -0.0686
  295MOL0     H40680   0.182   5.037  10.606  0.1898  1.3035 -0.9218
  295MOL0     H40681   0.137   4.869  10.608 -2.0477  0.7886  2.4719
  295MOL0     H40682  -0.035   5.122  10.596  0.9006  1.4093 -0.0561
  295MOL0     H40683  -0.109   4.970  10.536 -0.5822 -0.4649  1.3748
  295MOL0     H40684  -0.085   4.869  10.759 -3.4237  0.3541 -0.0752
  295MOL0     H40685  -0.151   5.035  10.779  0.8263  1.8502 -0.9418
  295MOL0     H40686   0.067   5.125  10.801 -1.9847  0.4282 -1.8654
  295MOL0     H40687   0.135   4.966  10.828  0.1876  1.8121 -1.3013
  295MOL0     H40688  -0.083   5.088  11.002 -0.1653 -0.1175 -0.0517
  295MOL0     H40689   0.081   5.048  11.053 -1.7955  1.4235  1.7976
  295MOL0     H40690   0.547   4.896  10.012 -0.6783  2.5926 -0.1631
  295MOL0     H40691   0.777   4.971  10.037  1.3037 -2.4594 -0.4587
  295MOL0     H40692   1.148   4.915  10.172  0.4055 -1.8175  2.7165
  295MOL0     H40693   1.375   4.969  10.120 -1.8658 -3.9279  2.0430
  295MOL0     H40694   0.598   5.171   9.607  2.4896 -0.9075 -2.3502
  295MOL0     H40695   0.420   5.326   9.667 -1.6334  0.8194 -1.7738
  295MOL0     H40696   0.250   5.940   9.580  0.7110  1.7119  1.9778
  295MOL0     H40697   0.044   6.023   9.677 -1.2359 -0.3051  1.3145
  295MOL0     H40698  -0.266   5.754   9.847 -1.0419 -2.3163  1.2620
  295MOL0     H40699  -0.165   5.777   9.986 -0.4697 -1.6419 -0.8152
  295MOL0     H40700  -0.273   6.015  10.018  0.3803  0.2603 -0.9490
  295MOL0     H40701  -0.368   5.872  10.047  1.1757 -0.6564  0.7086
  295MOL0     H40702  -0.343   6.055   9.797  1.0252 -1.4360 -1.9550
  295MOL0     H40703  -0.451   5.907   9.804  0.8559 -0.2184 -0.2940
  295MOL0     H40704  -0.462   6.133  10.003  0.9670  1.0873  0.2576
  295MOL0     H40705  -0.589   6.008   9.967 -2.7911  1.6822 -3.7669
  295MOL0     H40706  -0.710   6.290   9.694 -1.6931  2.7124  3.6281
  295MOL0     H40707  -0.042   5.640   9.833 -1.3949  1.7476  0.2486
  295MOL0     H40708   0.116   5.477   9.860  0.7916  0.5083  0.0814
  295MOL0     H40709   0.128   5.448   9.689 -1.4876  0.7901 -0.3789
  295MOL0     H40710   0.271   5.471   9.802  0.1354  0.9951  1.7691
  296MOL0     O40711  11.116   2.575   6.920 -0.4585 -0.4226  0.4032
  296MOL0     C40712  11.174   2.674   6.956  0.0139  0.1921  0.6835
  296MOL0     O40713  11.119   2.773   7.030  0.3768 -0.0702 -0.2711
  296MOL0     C40714  10.981   2.784   7.029 -0.1923 -0.5635  0.2656
  296MOL0     C40715  10.899   2.788   6.918  0.7604  0.6860 -0.6101
  296MOL0     C40716  10.762   2.823   6.923 -0.0904 -0.5347  0.1533
  296MOL0     C40717  10.704   2.854   7.045  0.1709 -0.5015  0.2497
  296MOL0     O40718  10.569   2.885   7.046  0.2159  0.4359 -0.4919
  296MOL0     C40719  10.516   2.959   7.150 -1.4918 -0.6039  0.2668
  296MOL0     C40720  10.371   2.971   7.109 -0.6081 -0.6118  0.1325
  296MOL0     C40721  10.348   3.044   6.979  0.2700  0.8573  0.4813
  296MOL0     C40722  10.364   3.193   6.991  0.2974  0.5593  0.8070
  296MOL0     C40723  10.312   3.252   6.861 -0.0719  0.0761  0.1477
  296MOL0     C40724  10.321   3.402   6.862  0.0908  0.1465  0.1223
  296MOL0     C40725  10.233   3.459   6.753  1.1060 -0.3143  0.5960
  296MOL0     C40726  10.218   3.612   6.755  0.2471  0.6255  0.3993
  296MOL0     N40727  10.345   3.673   6.748 -0.3082 -0.0181 -0.4496
  296MOL0     C40728  10.430   3.703   6.855  0.6530  0.3549 -0.7089
  296MOL0     C40729  10.539   3.749   6.783  0.1671 -0.3586  0.5531
  296MOL0     C40730  10.662   3.786   6.852  0.3019  0.3662 -0.0490
  296MOL0     C40731  10.625   3.894   6.956 -0.4482 -0.4968 -0.0785
  296MOL0     C40732  10.759   3.942   7.020 -0.1981  0.6272  0.3548
  296MOL0     C40733  10.849   4.025   6.927  0.4420 -0.1252 -0.1131
  296MOL0     O40734  10.950   3.951   6.859 -0.6115  0.1796  0.6276
  296MOL0     C40735  11.075   4.009   6.848  0.4864  0.0915 -0.1543
  296MOL0     C40736  11.103   4.143   6.875 -1.0119 -0.6005  0.2170
  296MOL0     C40737  11.226   4.204   6.842  0.9778 -0.0941  0.6679
  296MOL0     C40738  11.243   4.349   6.877 -0.7914  0.8800 -0.0900
  296MOL0     C40739  11.329   4.123   6.797  0.0827 -0.9768 -0.3746
  296MOL0     C40740  11.471   4.166   6.775 -0.8997  0.6114  0.2978
  296MOL0     O40741  11.494   4.301   6.761  0.2261 -0.3359 -0.8611
  296MOL0     C40742  11.618   4.364   6.752 -0.5187  0.0452  0.0652
  296MOL0     C40743  11.626   4.487   6.687  0.0465  0.0463 -0.1044
  296MOL0     C40744  11.741   4.570   6.679  0.2322 -0.8481 -0.2557
  296MOL0     C40745  11.864   4.517   6.712 -1.1061  0.6780  0.9451
  296MOL0     O40746  11.966   4.598   6.675 -0.2460 -0.0728  0.1018
  296MOL0     C40747  12.100   4.542   6.662  0.0291 -0.2025 -0.4915
  296MOL0     C40748  12.180   4.622   6.564 -0.3635 -0.1469 -0.4559
  296MOL0     C40749  12.116   4.665   6.428 -0.6928  0.5235  0.3927
  296MOL0     C40750  12.032   4.559   6.351  0.4569 -0.1558 -0.1558
  296MOL0     C40751  11.989   4.611   6.212 -0.2081  0.6007  0.0614
  296MOL0     C40752  11.858   4.698   6.224  0.3842 -0.2899 -0.3370
  296MOL0     C40753  11.783   4.707   6.090  0.0751  0.6760 -0.1318
  296MOL0     C40754  11.654   4.780   6.127  0.4554 -1.2124  0.1124
  296MOL0    Cl40755  11.556   4.820   5.980  0.0467 -0.5884 -0.5235
  296MOL0     C40756  11.867   4.389   6.774  0.5286  0.3217  0.0496
  296MOL0     C40757  11.747   4.314   6.796  0.2800  0.3064  0.0189
  296MOL0     O40758  11.556   4.085   6.787  0.4277  0.1612 -0.1237
  296MOL0     C40759  11.301   3.979   6.781 -0.5067 -0.0365 -0.8212
  296MOL0     C40760  11.177   3.930   6.793  0.0265  0.6719  0.5393
  296MOL0     N40761  10.522   3.749   6.648  0.0215 -0.0519  0.0441
  296MOL0     N40762  10.401   3.704   6.627 -0.2753 -0.5009 -0.0049
  296MOL0     C40763  10.788   2.856   7.161 -0.3820 -0.1536 -0.7298
  296MOL0     C40764  10.924   2.820   7.149  0.0043 -0.1662  0.1029
  296MOL0     C40765  11.327   2.680   6.931  0.5767  0.9529  0.5084
  296MOL0     C40766  11.388   2.804   6.955  0.0674 -0.1386 -0.3050
  296MOL0     C40767  11.529   2.819   6.943  0.1821 -0.1689  0.5237
  296MOL0     C40768  11.609   2.712   6.915  0.1834  0.2074  0.3638
  296MOL0     O40769  11.750   2.712   6.910  0.8662  0.9454 -0.2946
  296MOL0     C40770  11.830   2.824   6.935  0.1030  0.3515 -0.2348
  296MOL0     C40771  11.832   2.916   6.815  0.7250  0.4548 -0.2623
  296MOL0     C40772  11.912   3.049   6.834  0.2640  0.3258  0.5134
  296MOL0     C40773  11.913   3.147   6.718  0.3955 -0.2166 -0.4911
  296MOL0     C40774  11.777   3.187   6.673  0.4098  0.9865  0.7073
  296MOL0     C40775  11.667   3.203   6.619  0.0515 -0.2998 -0.4611
  296MOL0     C40776  11.545   2.585   6.892 -0.8700  0.7356  0.4849
  296MOL0     C40777  11.404   2.569   6.905 -0.9827 -0.4903 -0.4182
  296MOL0     C40778  11.356   2.424   6.896 -0.7517 -0.9088  0.4474
  296MOL0     H40779  10.926   2.747   6.822 -0.8752  0.2116 -0.9085
  296MOL0     H40780  10.712   2.825   6.827  0.4277  2.3917 -0.1306
  296MOL0     H40781  10.567   3.056   7.157  0.5511 -1.6272  0.5839
  296MOL0     H40782  10.529   2.905   7.244 -3.0030 -0.4561  0.5815
  296MOL0     H40783  10.333   2.869   7.094 -1.6705 -0.2528  0.3044
  296MOL0     H40784  10.321   3.010   7.198 -0.0693 -1.1594  0.6894
  296MOL0     H40785  10.420   3.007   6.905 -0.6427  1.5614 -0.8005
  296MOL0     H40786  10.250   3.019   6.938  0.1837 -0.0247  1.1920
  296MOL0     H40787  10.297   3.229   7.070 -2.6539 -3.1231  0.2518
  296MOL0     H40788  10.468   3.225   7.001  1.1684 -1.6273 -0.5519
  296MOL0     H40789  10.207   3.224   6.848  0.1871 -1.5050  1.2309
  296MOL0     H40790  10.378   3.205   6.787  2.5488  0.1750  2.2717
  296MOL0     H40791  10.278   3.422   6.960  2.0798 -0.2277  1.1090
  296MOL0     H40792  10.426   3.430   6.854  0.1875 -0.5880 -1.8865
  296MOL0     H40793  10.136   3.409   6.748  0.9648 -0.0861  1.0823
  296MOL0     H40794  10.278   3.433   6.656 -0.6618 -0.1464 -0.3123
  296MOL0     H40795  10.147   3.643   6.677  0.5197 -2.1602 -1.1010
  296MOL0     H40796  10.167   3.641   6.847 -2.0544 -1.1487 -0.2291
  296MOL0     H40797  10.412   3.700   6.961 -1.1816  0.4924 -0.9922
  296MOL0     H40798  10.730   3.824   6.775 -1.9918  2.9496 -1.0049
  296MOL0     H40799  10.705   3.696   6.896  3.0503 -0.1354 -3.3733
  296MOL0     H40800  10.565   3.976   6.915 -3.0589 -2.8238 -1.2405
  296MOL0     H40801  10.558   3.857   7.034 -0.0993 -0.7541  0.1036
  296MOL0     H40802  10.728   4.007   7.103 -3.2464  1.9874 -1.6834
  296MOL0     H40803  10.801   3.849   7.058 -3.3023 -0.8394  0.5471
  296MOL0     H40804  10.787   4.081   6.857  0.0452  0.7433  0.9018
  296MOL0     H40805  10.894   4.095   6.998 -0.8213  1.3460 -0.7127
  296MOL0     H40806  11.028   4.215   6.906  1.6283  2.8845 -0.8143
  296MOL0     H40807  11.333   4.363   6.938 -1.3764  0.9919  0.7627
  296MOL0     H40808  11.155   4.378   6.935 -2.1758 -0.5097 -1.4311
  296MOL0     H40809  11.238   4.416   6.791 -1.9875  1.6141  0.5278
  296MOL0     H40810  11.531   4.523   6.648 -0.6196 -2.2552 -0.7228
  296MOL0     H40811  11.727   4.669   6.638 -1.3063 -1.2424 -0.7685
  296MOL0     H40812  12.149   4.556   6.759  1.6959 -1.4954 -1.1019
  296MOL0     H40813  12.105   4.436   6.635 -1.5128 -0.1713 -0.9953
  296MOL0     H40814  12.212   4.716   6.610  1.9070 -0.4643 -1.2226
  296MOL0     H40815  12.276   4.574   6.543 -0.0529  0.7482 -1.1547
  296MOL0     H40816  12.203   4.696   6.369  1.3619  0.0031  2.9777
  296MOL0     H40817  12.050   4.750   6.451 -0.9717  0.8917 -1.5692
  296MOL0     H40818  11.946   4.537   6.414 -0.6932 -0.0934 -1.6444
  296MOL0     H40819  12.087   4.465   6.338  1.2621  0.5936 -2.9432
  296MOL0     H40820  12.073   4.651   6.155  0.5522  0.7712  1.2592
  296MOL0     H40821  11.951   4.523   6.159 -2.6476  1.4803  0.2227
  296MOL0     H40822  11.891   4.799   6.253 -1.4325  0.5496 -1.0384
  296MOL0     H40823  11.789   4.661   6.300 -1.3093  1.9551 -0.6786
  296MOL0     H40824  11.768   4.612   6.038  1.7422  1.0702 -1.4480
  296MOL0     H40825  11.832   4.765   6.011 -0.6965 -0.9428 -1.8709
  296MOL0     H40826  11.677   4.868   6.188  0.8307 -0.7665 -0.6472
  296MOL0     H40827  11.594   4.713   6.189  0.0134 -1.4450 -0.5622
  296MOL0     H40828  11.964   4.354   6.808  1.1811  0.1438 -1.8629
  296MOL0     H40829  11.766   4.232   6.865  2.9327  0.5911 -0.2779
  296MOL0     H40830  11.386   3.929   6.736  1.6742  1.9169  0.8686
  296MOL0     H40831  11.151   3.828   6.766 -2.0181  1.1667  0.4626
  296MOL0     H40832  10.750   2.870   7.261 -3.4300  0.4531 -1.8655
  296MOL0     H40833  10.980   2.818   7.242 -1.7202 -2.4180  1.1796
  296MOL0     H40834  11.330   2.892   6.981  1.2260  0.3635  0.7068
  296MOL0     H40835  11.566   2.921   6.945 -1.4257  0.4413  1.5558
  296MOL0     H40836  11.791   2.887   7.015  0.9497  1.2597 -0.5183
  296MOL0     H40837  11.934   2.804   6.963 -0.4833  0.4948  2.3391
  296MOL0     H40838  11.729   2.940   6.786  0.8897  2.3408  0.5415
  296MOL0     H40839  11.864   2.856   6.729 -0.3551  0.5706 -0.7701
  296MOL0     H40840  11.873   3.099   6.924 -0.0785 -0.7681  0.9805
  296MOL0     H40841  12.016   3.027   6.861  0.3595 -1.9541 -1.3497
  296MOL0     H40842  11.972   3.101   6.638 -0.1212 -2.3799  0.3097
  296MOL0     H40843  11.956   3.242   6.752  0.1498 -0.9752  2.2302
  296MOL0     H40844  11.574   3.223   6.570 -1.9677 -3.5306  1.6849
  296MOL0     H40845  11.604   2.497   6.869 -0.1285  1.6840 -1.4728
  296MOL0     H40846  11.275   2.416   6.824  0.5157  1.1417 -1.3486
  296MOL0     H40847  11.436   2.360   6.856  0.7657 -0.2119  2.1817
  296MOL0     H40848  11.325   2.383   6.993 -0.0471 -1.6851  0.3643
  297MOL0     O40849   1.245   4.512   3.272 -0.2037  0.4137  0.2482
  297MOL0     C40850   1.176   4.434   3.202  0.1226 -0.1974  0.3491
  297MOL0     O40851   1.194   4.401   3.073  0.0063  0.1749 -0.6073
  297MOL0     C40852   1.297   4.460   2.999 -0.5021 -0.9073  0.0476
  297MOL0     C40853   1.275   4.573   2.920  0.8573  0.7741  0.2269
  297MOL0     C40854   1.375   4.644   2.854 -0.6474  0.7267 -0.2769
  297MOL0     C40855   1.510   4.609   2.878  0.1627  0.5990  0.3994
  297MOL0     O40856   1.615   4.676   2.814  0.3747 -0.3461 -0.0422
  297MOL0     C40857   1.660   4.784   2.896 -0.0938  0.6783 -0.1822
  297MOL0     C40858   1.787   4.842   2.833 -0.1366  1.2169  0.0362
  297MOL0     C40859   1.839   4.951   2.926  0.0055 -0.1091  0.0723
  297MOL0     C40860   1.977   5.003   2.896  0.5842  0.3537 -0.5055
  297MOL0     C40861   2.030   5.091   3.009  0.3380 -0.0898  0.2710
  297MOL0     C40862   2.166   5.148   2.978  0.4871 -0.4310  0.0653
  297MOL0     C40863   2.208   5.238   3.094  0.0749  0.1116 -0.0495
  297MOL0     C40864   2.325   5.333   3.061  0.2248 -0.0792 -0.1384
  297MOL0     N40865   2.461   5.270   3.046  0.0535  0.6316  0.0957
  297MOL0     C40866   2.575   5.329   2.985 -0.0189  0.8668 -0.5573
  297MOL0     C40867   2.681   5.249   3.006  0.1182 -0.1169  0.1803
  297MOL0     C40868   2.827   5.279   2.952  0.0291  0.0122  0.0196
  297MOL0     C40869   2.932   5.203   3.037 -0.3478 -0.3853  0.6338
  297MOL0     C40870   3.076   5.231   2.980  0.7541 -0.2662 -0.0230
  297MOL0     C40871   3.179   5.153   3.040 -0.4995  0.3284 -0.5738
  297MOL0     O40872   3.217   5.207   3.169 -1.1601  0.7820  0.7044
  297MOL0     C40873   3.357   5.195   3.184 -0.2404 -0.2235 -0.0373
  297MOL0     C40874   3.431   5.309   3.196  0.2988  0.0447 -0.3642
  297MOL0     C40875   3.565   5.313   3.233 -0.0700 -0.3246 -1.0850
  297MOL0     C40876   3.644   5.444   3.242 -0.6087 -1.3058 -0.3250
  297MOL0     C40877   3.629   5.195   3.263 -0.0436  0.0729 -0.5815
  297MOL0     C40878   3.773   5.191   3.327 -0.4975  0.9726  0.2305
  297MOL0     O40879   3.871   5.285   3.306  0.0660 -0.5117 -0.2941
  297MOL0     C40880   3.996   5.275   3.364  0.3328 -0.5941 -0.2404
  297MOL0     C40881   4.105   5.286   3.269  0.3930 -0.4041 -0.0772
  297MOL0     C40882   4.241   5.298   3.323 -0.6179  0.0562 -0.2709
  297MOL0     C40883   4.269   5.282   3.460  0.1971 -0.2377 -0.2660
  297MOL0     O40884   4.394   5.289   3.518  0.3854 -0.2924 -0.2790
  297MOL0     C40885   4.509   5.268   3.438 -1.1468 -1.2311 -0.2253
  297MOL0     C40886   4.629   5.288   3.525 -0.1835 -0.4308 -0.3412
  297MOL0     C40887   4.719   5.162   3.505  0.8414 -0.4067  0.7462
  297MOL0     C40888   4.854   5.180   3.586  0.7143 -0.0567  0.0762
  297MOL0     C40889   4.935   5.293   3.536  0.0573 -0.2399 -0.4160
  297MOL0     C40890   5.072   5.303   3.590  0.4104  0.3262 -0.0898
  297MOL0     C40891   5.160   5.220   3.494 -0.2891  0.1113  0.6449
  297MOL0     C40892   5.310   5.234   3.533 -0.2868  0.9094 -0.4596
  297MOL0    Cl40893   5.369   5.139   3.675 -0.0787 -0.0112 -0.2730
  297MOL0     C40894   4.158   5.246   3.541  0.3934 -0.7652  0.0491
  297MOL0     C40895   4.027   5.240   3.498 -0.0898  0.5346  0.0107
  297MOL0     O40896   3.789   5.086   3.391  0.6624  0.0974  0.1319
  297MOL0     C40897   3.564   5.073   3.234 -0.4369  0.2361 -0.4334
  297MOL0     C40898   3.428   5.080   3.200  0.3206  0.6360 -0.0683
  297MOL0     N40899   2.633   5.143   3.072  0.5187 -0.1838 -0.3045
  297MOL0     N40900   2.506   5.148   3.096  1.0049  0.5893 -0.1285
  297MOL0     C40901   1.535   4.495   2.955  0.4699  0.3828 -0.1095
  297MOL0     C40902   1.430   4.426   3.024 -0.2079  0.0235  0.1205
  297MOL0     C40903   1.061   4.384   3.276  0.1188 -0.8028  0.2030
  297MOL0     C40904   0.990   4.478   3.345  0.7401  0.0972 -0.0722
  297MOL0     C40905   0.871   4.438   3.406  0.4026 -0.4833  0.1323
  297MOL0     C40906   0.824   4.302   3.407 -0.2713  0.5072  0.3011
  297MOL0     O40907   0.696   4.287   3.462 -0.0624  0.2959 -0.1780
  297MOL0     C40908   0.633   4.160   3.452 -0.0809 -0.3166  0.6199
  297MOL0     C40909   0.571   4.136   3.588  0.1490 -0.7532  1.0063
  297MOL0     C40910   0.479   4.013   3.575 -0.3007  0.7797 -0.0471
  297MOL0     C40911   0.406   3.977   3.708 -1.0286 -0.0305  0.8419
  297MOL0     C40912   0.295   3.882   3.688  0.3782 -0.0272 -0.0868
  297MOL0     C40913   0.200   3.807   3.678 -0.2126  0.2137  0.4355
  297MOL0     C40914   0.913   4.210   3.354 -0.8229 -0.2277 -0.4795
  297MOL0     C40915   1.026   4.248   3.285 -1.1529 -0.2700  0.6399
  297MOL0     C40916   1.117   4.142   3.223  0.1721 -0.0644  1.1260
  297MOL0     H40917   1.170   4.591   2.899  0.3100 -2.8443 -0.8582
  297MOL0     H40918   1.358   4.728   2.788 -1.2039 -0.9738 -2.4025
  297MOL0     H40919   1.681   4.751   2.999  2.2144 -0.9345 -1.0721
  297MOL0     H40920   1.582   4.860   2.889  0.1686  0.8916 -0.8255
  297MOL0     H40921   1.853   4.757   2.812 -2.3420 -0.8008  0.7481
  297MOL0     H40922   1.769   4.879   2.732  0.7593  1.9246  0.1196
  297MOL0     H40923   1.781   5.044   2.921  0.7552  0.6299  3.0047
  297MOL0     H40924   1.828   4.917   3.029  1.5079  2.8901  1.3788
  297MOL0     H40925   2.048   4.921   2.883 -0.3460 -0.3508 -1.2409
  297MOL0     H40926   1.968   5.079   2.818  0.8614  2.7831  1.6561
  297MOL0     H40927   2.027   5.033   3.102 -0.0530  1.0148  0.9618
  297MOL0     H40928   1.950   5.164   3.017 -0.5214 -0.8395 -1.0383
  297MOL0     H40929   2.244   5.071   2.967 -1.5120 -2.9238  2.0377
  297MOL0     H40930   2.162   5.225   2.900  0.2413 -0.1177  0.3862
  297MOL0     H40931   2.239   5.182   3.183 -2.0313  1.0624  1.3755
  297MOL0     H40932   2.128   5.305   3.128  1.5937  1.5155  0.9216
  297MOL0     H40933   2.309   5.387   2.967 -0.8309 -3.0718 -1.8362
  297MOL0     H40934   2.341   5.400   3.146 -0.5533 -0.0451 -0.0137
  297MOL0     H40935   2.579   5.421   2.927 -2.5169  1.8319  0.6889
  297MOL0     H40936   2.852   5.385   2.961 -7.1036  2.1533  0.4633
  297MOL0     H40937   2.825   5.245   2.848  0.5716  1.2431 -0.4046
  297MOL0     H40938   2.906   5.237   3.137 -0.0026 -0.7241  0.8399
  297MOL0     H40939   2.922   5.094   3.034  0.0870 -0.4251  0.5152
  297MOL0     H40940   3.082   5.220   2.871  0.4597  3.7620 -0.5895
  297MOL0     H40941   3.102   5.336   2.993  0.5916 -0.0896 -1.0380
  297MOL0     H40942   3.148   5.048   3.041  2.1459 -0.5302  0.8542
  297MOL0     H40943   3.266   5.149   2.974 -0.9332 -0.3490 -1.1187
  297MOL0     H40944   3.374   5.401   3.183 -0.1697  0.2627  2.5939
  297MOL0     H40945   3.579   5.527   3.212 -1.2416 -1.0204  1.6943
  297MOL0     H40946   3.733   5.439   3.178  0.1464 -0.4682  0.6130
  297MOL0     H40947   3.680   5.477   3.340  1.6099  1.1916 -1.8290
  297MOL0     H40948   4.090   5.305   3.163 -1.2501  1.0546  0.3688
  297MOL0     H40949   4.325   5.308   3.255  0.3097 -2.7107  0.3052
  297MOL0     H40950   4.510   5.168   3.393 -0.2982 -0.2930 -2.4291
  297MOL0     H40951   4.493   5.341   3.358 -5.5295 -2.6878 -0.9758
  297MOL0     H40952   4.693   5.374   3.499 -1.1184  1.0392  1.9432
  297MOL0     H40953   4.608   5.299   3.631 -1.0826  0.9661 -0.6378
  297MOL0     H40954   4.737   5.160   3.397 -1.4850  4.0228  0.0458
  297MOL0     H40955   4.661   5.075   3.536 -0.2136  0.1587  0.4066
  297MOL0     H40956   4.910   5.087   3.571  0.1549 -0.2020 -1.1936
  297MOL0     H40957   4.834   5.196   3.692  0.8826  0.5456  0.0199
  297MOL0     H40958   4.934   5.291   3.426 -0.6493  0.6798 -0.4315
  297MOL0     H40959   4.891   5.388   3.566  0.3717 -0.3248  0.3252
  297MOL0     H40960   5.061   5.253   3.687 -6.3595  2.4907  0.7405
  297MOL0     H40961   5.099   5.407   3.608 -1.5893  0.7288  0.8814
  297MOL0     H40962   5.153   5.267   3.396  3.5674 -0.4357 -0.0500
  297MOL0     H40963   5.130   5.115   3.485 -1.6638  0.6534 -2.3559
  297MOL0     H40964   5.331   5.338   3.556  2.9996 -0.1282  1.9150
  297MOL0     H40965   5.363   5.208   3.441  2.3119 -1.1779  1.4828
  297MOL0     H40966   4.180   5.226   3.645 -0.3179 -3.2856 -0.2106
  297MOL0     H40967   3.950   5.208   3.568  0.4060 -0.3653  0.1671
  297MOL0     H40968   3.625   4.983   3.232  1.4492  1.4778 -1.2991
  297MOL0     H40969   3.383   4.982   3.191 -0.1798  0.7949  0.6462
  297MOL0     H40970   1.637   4.459   2.963  0.8587  1.5706  0.4538
  297MOL0     H40971   1.463   4.359   3.102  2.0276  1.7334  0.7540
  297MOL0     H40972   1.025   4.580   3.339  1.0167 -0.0857 -2.2881
  297MOL0     H40973   0.813   4.517   3.455 -1.4990 -1.2731 -0.7605
  297MOL0     H40974   0.567   4.143   3.367 -0.4958 -0.1247  0.9021
  297MOL0     H40975   0.704   4.077   3.444  1.8719  1.2230  1.1365
  297MOL0     H40976   0.525   4.222   3.637  1.2520  0.0930  0.5910
  297MOL0     H40977   0.655   4.104   3.650  0.7187 -1.9525 -0.3032
  297MOL0     H40978   0.398   4.023   3.502 -0.8393 -2.2302  0.0108
  297MOL0     H40979   0.540   3.926   3.548 -0.7279  0.0471  1.2221
  297MOL0     H40980   0.366   4.065   3.759  1.8295  3.5480 -2.4354
  297MOL0     H40981   0.480   3.937   3.778  1.1916 -1.1650 -1.9313
  297MOL0     H40982   0.111   3.747   3.684 -0.8823  0.7991 -2.3835
  297MOL0     H40983   0.897   4.103   3.352 -1.6515 -0.1034 -0.5740
  297MOL0     H40984   1.100   4.049   3.278  1.8119 -1.8688 -1.2474
  297MOL0     H40985   1.090   4.132   3.118  1.6324  2.3560  0.4312
  297MOL0     H40986   1.226   4.157   3.227  0.3714 -1.6379  2.4718
  298MOL0     O40987  10.215  11.012   9.783 -0.4652  0.5389 -0.3073
  298MOL0     C40988  10.168  11.077   9.876  0.2570  0.7914 -0.4157
  298MOL0     O40989  10.236  11.151   9.972  0.0384  0.1640  0.9009
  298MOL0     C40990  10.372  11.159   9.949  0.4690 -0.2780  1.4145
  298MOL0     C40991  10.416  11.263   9.862 -0.0912  0.5402 -0.8634
  298MOL0     C40992  10.552  11.267   9.835 -0.1963 -0.0614  0.4602
  298MOL0     C40993  10.638  11.178   9.894 -0.9095 -0.6023 -0.0675
  298MOL0     O40994  10.771  11.194   9.867 -0.1008  0.5722 -0.2374
  298MOL0     C40995  10.860  11.244   9.972 -0.1064 -0.4981 -0.0390
  298MOL0     C40996  10.926  11.144  10.065 -0.3613  0.6062 -0.2854
  298MOL0     C40997  11.033  11.203  10.151 -0.2290 -0.5010  0.3744
  298MOL0     C40998  11.157  11.251  10.076 -0.5421 -0.2673 -0.3849
  298MOL0     C40999  11.277  11.159  10.051 -0.2535  0.2153 -0.2761
  298MOL0     C41000  11.327  11.087  10.175 -0.5955  0.6417 -0.3488
  298MOL0     C41001  11.469  11.043  10.157 -0.1949  0.6457  0.3550
  298MOL0     C41002  11.515  10.966  10.281  0.2713 -0.6691  0.9669
  298MOL0     N41003  11.640  10.909  10.247  0.6373  0.7192 -0.2044
  298MOL0     C41004  11.663  10.814  10.143 -0.1247 -0.1376 -0.0624
  298MOL0     C41005  11.802  10.816  10.130  0.3443 -0.8251  0.1347
  298MOL0     C41006  11.891  10.742  10.035  0.5001 -0.0960  0.5722
  298MOL0     C41007  11.980  10.843   9.960 -0.0853  0.2926  0.1710
  298MOL0     C41008  11.918  10.935   9.848  0.1262  0.1561 -0.1274
  298MOL0     C41009  12.024  11.005   9.763  0.6742 -0.2863  0.5970
  298MOL0     O41010  12.098  10.916   9.679 -0.2264  0.8580  0.0283
  298MOL0     C41011  12.184  10.961   9.582  0.5357  0.0245 -0.2347
  298MOL0     C41012  12.241  10.877   9.489  0.6808  0.0774 -0.4224
  298MOL0     C41013  12.323  10.913   9.381 -0.3208  0.2976 -0.9654
  298MOL0     C41014  12.367  10.805   9.280 -0.0623  0.2849  0.4227
  298MOL0     C41015  12.380  11.040   9.391  0.0890 -0.3890  0.2798
  298MOL0     C41016  12.475  11.105   9.299 -0.1666  0.5048  0.0319
  298MOL0     O41017  12.583  11.160   9.353  0.3559  0.1289  0.3046
  298MOL0     C41018  12.687  11.228   9.284  0.4709 -0.6220  0.7763
  298MOL0     C41019  12.803  11.161   9.258  0.2976  0.3450  0.8585
  298MOL0     C41020  12.910  11.228   9.207 -0.2714 -0.0688 -0.2390
  298MOL0     C41021  12.905  11.365   9.168 -0.0686 -0.5564 -0.2607
  298MOL0     O41022  13.019  11.407   9.100 -0.2317  0.1120  0.6476
  298MOL0     C41023  13.044  11.553   9.083  0.3007 -0.2530 -0.0440
  298MOL0     C41024  13.188  11.571   9.033  0.1000 -0.0872 -0.5217
  298MOL0     C41025  13.299  11.485   9.105 -0.2093 -0.1450  0.2353
  298MOL0     C41026  13.421  11.482   9.018  0.4538 -0.2773 -0.9515
  298MOL0     C41027  13.549  11.436   9.093  0.5461  0.5186 -0.1423
  298MOL0     C41028  13.661  11.426   8.990 -0.5502 -0.5749 -0.1983
  298MOL0     C41029  13.796  11.396   9.065  0.0806 -0.3636 -0.1543
  298MOL0     C41030  13.908  11.418   8.969 -0.3995 -1.2470 -0.2373
  298MOL0    Cl41031  14.052  11.475   9.059  0.0063 -0.2827  0.0542
  298MOL0     C41032  12.786  11.436   9.200  0.5910  0.2202  1.2453
  298MOL0     C41033  12.680  11.368   9.258  0.1968  0.6251 -0.1457
  298MOL0     O41034  12.454  11.086   9.179 -1.4446 -0.6516 -0.2325
  298MOL0     C41035  12.315  11.134   9.480 -0.3117  0.2575 -0.6121
  298MOL0     C41036  12.219  11.101   9.572 -0.3237 -0.7478 -0.2203
  298MOL0     N41037  11.851  10.909  10.216  0.0349 -0.4281 -0.5932
  298MOL0     N41038  11.758  10.967  10.283 -0.2375 -0.2767 -0.1043
  298MOL0     C41039  10.590  11.070   9.968 -0.1437 -0.1498  0.2001
  298MOL0     C41040  10.453  11.056  10.002 -0.0167 -0.2132  0.5270
  298MOL0     C41041  10.016  11.062   9.907 -0.0776 -0.2670  0.8348
  298MOL0     C41042   9.973  11.120  10.026  0.2212 -0.0231  0.3124
  298MOL0     C41043   9.841  11.104  10.073  0.4206 -0.4508 -0.3636
  298MOL0     C41044   9.748  11.020  10.007 -0.9831  0.4277  0.3366
  298MOL0     O41045   9.623  11.008  10.062  0.2811  0.1260  0.0552
  298MOL0     C41046   9.533  10.924   9.990  0.0307  0.2916 -0.4160
  298MOL0     C41047   9.395  10.946  10.058 -0.1439  0.0566 -0.1461
  298MOL0     C41048   9.298  10.831  10.031 -0.9008 -0.2555  0.2456
  298MOL0     C41049   9.273  10.813   9.881  0.7804  0.4292 -0.0112
  298MOL0     C41050   9.181  10.694   9.868  0.3059 -0.3257 -0.1818
  298MOL0     C41051   9.108  10.596   9.849 -0.0083  0.2249 -0.6212
  298MOL0     C41052   9.799  10.947   9.888  0.3256  0.1660 -0.2545
  298MOL0     C41053   9.927  10.978   9.839  1.6210 -0.1129 -0.4220
  298MOL0     C41054   9.961  10.906   9.712 -0.2518  0.1359  0.4723
  298MOL0     H41055  10.346  11.328   9.813  0.7564  1.7763 -0.4802
  298MOL0     H41056  10.593  11.336   9.762  1.0891  0.8508  1.9787
  298MOL0     H41057  10.813  11.318  10.038 -0.2601  0.5620 -1.2969
  298MOL0     H41058  10.942  11.301   9.929  0.5831 -0.5065  1.2026
  298MOL0     H41059  10.845  11.116  10.133  1.1708  0.2335  1.4591
  298MOL0     H41060  10.953  11.050  10.015  0.0029  0.1386  0.7539
  298MOL0     H41061  10.976  11.291  10.181  2.1095  2.2857 -2.6623
  298MOL0     H41062  11.053  11.125  10.225  2.1148 -3.5085 -3.0667
  298MOL0     H41063  11.130  11.303   9.983 -2.4628 -0.0342  0.2665
  298MOL0     H41064  11.205  11.332  10.132 -2.0172 -1.2074  2.3938
  298MOL0     H41065  11.359  11.220  10.013 -1.2476  0.1041 -2.7489
  298MOL0     H41066  11.247  11.083   9.978 -1.2649 -0.6216  0.9669
  298MOL0     H41067  11.319  11.166  10.251 -1.6025  1.0437 -0.8534
  298MOL0     H41068  11.267  10.999  10.198  2.1735 -1.1505  0.5915
  298MOL0     H41069  11.544  11.119  10.135 -0.0206  0.2630 -0.4145
  298MOL0     H41070  11.462  10.977  10.070 -1.2039  0.3305  0.6629
  298MOL0     H41071  11.518  11.037  10.364  0.4276  1.7371 -0.9992
  298MOL0     H41072  11.443  10.887  10.302 -1.9192  0.0669 -2.8015
  298MOL0     H41073  11.593  10.757  10.083 -0.4397  1.0071 -0.8304
  298MOL0     H41074  11.828  10.676   9.973 -0.4076 -0.5643  1.9507
  298MOL0     H41075  11.956  10.672  10.089 -1.0257 -1.5775  0.5787
  298MOL0     H41076  12.029  10.896  10.042 -0.1565 -0.4949  0.7425
  298MOL0     H41077  12.050  10.773   9.914 -0.2296 -0.2027  0.6857
  298MOL0     H41078  11.860  10.874   9.778  0.6609 -0.3671 -0.1264
  298MOL0     H41079  11.842  11.002   9.888 -0.7332 -2.1625  2.4739
  298MOL0     H41080  11.967  11.070   9.696 -0.0580  0.0122  1.4876
  298MOL0     H41081  12.085  11.056   9.838 -0.2312 -0.8447  1.7499
  298MOL0     H41082  12.215  10.771   9.486 -0.6795  0.4039 -1.7242
  298MOL0     H41083  12.388  10.708   9.325 -1.4359 -0.3575 -0.2794
  298MOL0     H41084  12.447  10.839   9.213 -1.3184  2.1226 -0.2245
  298MOL0     H41085  12.283  10.786   9.213  0.9092  0.4572 -0.8800
  298MOL0     H41086  12.814  11.057   9.288 -0.7646 -0.5897 -1.7233
  298MOL0     H41087  13.004  11.179   9.182  0.5221  0.6685  1.1855
  298MOL0     H41088  12.971  11.606   9.021  0.1510 -1.3309 -0.8241
  298MOL0     H41089  13.041  11.606   9.179  0.0699  0.3528 -0.3843
  298MOL0     H41090  13.186  11.532   8.931  0.2000 -0.9905 -0.1969
  298MOL0     H41091  13.218  11.676   9.030 -0.6455  0.2609  1.8565
  298MOL0     H41092  13.260  11.383   9.109  1.0550 -0.6903 -0.7578
  298MOL0     H41093  13.318  11.533   9.201 -0.6589  0.3684  0.0780
  298MOL0     H41094  13.443  11.582   8.980  3.1630 -0.2814  0.3485
  298MOL0     H41095  13.389  11.411   8.941 -0.8758 -0.1832 -0.5119
  298MOL0     H41096  13.571  11.497   9.181  2.6911  1.3172 -1.1456
  298MOL0     H41097  13.522  11.339   9.135 -4.3526  1.2113 -1.0898
  298MOL0     H41098  13.662  11.523   8.939  0.3826 -1.0671 -1.1528
  298MOL0     H41099  13.641  11.348   8.916 -1.5471 -1.2818  0.7653
  298MOL0     H41100  13.802  11.294   9.104  1.2391 -0.3176 -0.2058
  298MOL0     H41101  13.804  11.472   9.143  2.0445 -0.1929 -0.4713
  298MOL0     H41102  13.889  11.497   8.896  0.6720 -0.6280  0.1403
  298MOL0     H41103  13.918  11.323   8.916  0.8782 -1.6705  0.7191
  298MOL0     H41104  12.768  11.540   9.173  3.6474  0.4218 -0.4669
  298MOL0     H41105  12.582  11.414   9.263 -1.8611 -2.9013 -2.9283
  298MOL0     H41106  12.336  11.241   9.477 -1.3823  0.5379  0.7419
  298MOL0     H41107  12.183  11.179   9.638  0.3600  1.2780 -2.1076
  298MOL0     H41108  10.669  11.001   9.996  0.9642  0.2825 -1.6800
  298MOL0     H41109  10.413  10.969  10.053 -0.1208 -0.2195  0.4349
  298MOL0     H41110  10.036  11.191  10.078  2.1387  0.2761 -2.2352
  298MOL0     H41111   9.823  11.161  10.163  2.2962 -0.8415  0.3138
  298MOL0     H41112   9.528  10.958   9.886 -2.9968  1.2878 -0.0630
  298MOL0     H41113   9.563  10.820  10.002  2.9979  1.0798 -0.1507
  298MOL0     H41114   9.363  11.045  10.022  2.7452  1.0821 -0.1264
  298MOL0     H41115   9.414  10.943  10.165 -0.9673 -1.3231 -0.0105
  298MOL0     H41116   9.355  10.743  10.062  2.3050  0.2045 -3.5653
  298MOL0     H41117   9.202  10.846  10.081  0.1245 -1.0131  2.5752
  298MOL0     H41118   9.366  10.792   9.826 -0.2148  0.5447 -1.7910
  298MOL0     H41119   9.237  10.907   9.840  0.8948  0.7523  0.6204
  298MOL0     H41120   9.051  10.507   9.834  0.4657 -0.3155  0.6056
  298MOL0     H41121   9.743  10.868   9.838  0.9060  0.9753 -2.2870
  298MOL0     H41122  10.040  10.835   9.738 -0.8891 -0.5754  0.5133
  298MOL0     H41123   9.873  10.857   9.669  2.2479 -4.7027  0.2472
  298MOL0     H41124   9.991  10.971   9.630 -1.1737  0.9698  0.7731
  299MOL0     O41125   1.160   0.482   1.896 -0.1889  0.9337 -0.2044
  299MOL0     C41126   1.106   0.369   1.900 -0.2234  0.3883  0.3279
  299MOL0     O41127   1.162   0.253   1.853 -0.2672  0.9378 -0.4027
  299MOL0     C41128   1.295   0.238   1.828 -0.1241  0.8171  0.7450
  299MOL0     C41129   1.402   0.305   1.884  0.2579  0.3772 -0.1879
  299MOL0     C41130   1.534   0.269   1.857  0.0362  0.7371 -0.7023
  299MOL0     C41131   1.559   0.159   1.769  0.0249 -0.6692 -0.5058
  299MOL0     O41132   1.679   0.115   1.730 -0.3275 -0.8160  0.5951
  299MOL0     C41133   1.760   0.203   1.648 -0.5881  0.3856 -0.0630
  299MOL0     C41134   1.794   0.118   1.528 -0.4875 -1.2269 -0.6709
  299MOL0     C41135   1.942   0.108   1.503 -0.7847 -0.7796  0.1922
  299MOL0     C41136   1.965   0.013   1.381  0.0143 -0.3990 -0.0134
  299MOL0     C41137   2.110   0.018   1.341  1.0161  0.1336 -0.2854
  299MOL0     C41138   2.142  -0.086   1.237 -0.1504 -1.0919 -0.4352
  299MOL0     C41139   2.290  -0.095   1.204 -0.2291 -0.1356 -0.6176
  299MOL0     C41140   2.365  -0.180   1.308  0.7148 -0.2788 -0.2504
  299MOL0     N41141   2.518  -0.174   1.286  0.5717  0.0205 -0.0388
  299MOL0     C41142   2.576  -0.173   1.165  0.0869  0.7412  0.2403
  299MOL0     C41143   2.709  -0.183   1.197  1.3607  0.6298 -0.0212
  299MOL0     C41144   2.810  -0.190   1.093 -0.0204  0.1377  0.0502
  299MOL0     C41145   2.926  -0.283   1.139  1.1416  0.0217  0.1057
  299MOL0     C41146   3.010  -0.323   1.015  0.1935  0.4393 -0.5439
  299MOL0     C41147   2.956  -0.446   0.948 -0.4055 -0.3335 -0.3066
  299MOL0     O41148   3.011  -0.458   0.816  0.2453 -0.4510 -0.5574
  299MOL0     C41149   2.945  -0.534   0.718  0.4053  0.0292 -0.6775
  299MOL0     C41150   2.813  -0.590   0.727  0.1233  0.3590 -0.8235
  299MOL0     C41151   2.755  -0.660   0.628 -0.2276  0.1791  0.1603
  299MOL0     C41152   2.611  -0.708   0.659 -0.2003  0.1416  0.1109
  299MOL0     C41153   2.821  -0.687   0.505 -0.3396 -0.3626 -0.3750
  299MOL0     C41154   2.754  -0.740   0.383 -0.4535 -0.3589 -1.0092
  299MOL0     O41155   2.616  -0.734   0.356 -0.8451 -1.1119 -0.2908
  299MOL0     C41156   2.549  -0.794   0.255  0.6361 -0.1869 -0.5374
  299MOL0     C41157   2.420  -0.831   0.293  0.2448 -0.0532 -0.1101
  299MOL0     C41158   2.341  -0.909   0.209  0.2789  0.1055 -0.3226
  299MOL0     C41159   2.380  -0.928   0.073 -0.1459  0.6189 -0.3280
  299MOL0     O41160   2.290  -0.992  -0.013 -0.4049  0.0309 -0.1507
  299MOL0     C41161   2.325  -1.070  -0.126  0.0468 -1.1774 -0.6577
  299MOL0     C41162   2.185  -1.113  -0.197 -0.3142  0.5245 -0.1474
  299MOL0     C41163   2.099  -0.991  -0.231  0.6338 -0.2913  0.5172
  299MOL0     C41164   2.176  -0.902  -0.334  0.2623 -0.7742  0.2466
  299MOL0     C41165   2.093  -0.821  -0.433 -0.0557  0.9772 -0.5869
  299MOL0     C41166   2.179  -0.762  -0.548 -0.7166  1.3187  1.2104
  299MOL0     C41167   2.289  -0.670  -0.497  0.0368 -0.3117  0.1894
  299MOL0     C41168   2.283  -0.552  -0.591 -0.4137 -0.4101 -0.8345
  299MOL0    Cl41169   2.399  -0.409  -0.563  0.3741  0.0805 -0.3181
  299MOL0     C41170   2.504  -0.885   0.031 -0.2068 -0.4010  0.4814
  299MOL0     C41171   2.581  -0.815   0.121  0.6375 -0.0736 -0.8208
  299MOL0     O41172   2.829  -0.798   0.303 -0.2481  0.0397  0.1510
  299MOL0     C41173   2.955  -0.642   0.496 -0.6115 -0.3088 -0.6225
  299MOL0     C41174   3.012  -0.565   0.600  0.0593 -0.1394 -0.0962
  299MOL0     N41175   2.717  -0.213   1.336  0.4906  0.1600 -0.1757
  299MOL0     N41176   2.602  -0.201   1.385 -0.5166  0.5903 -1.8197
  299MOL0     C41177   1.449   0.091   1.711  0.0268 -0.2388  1.1321
  299MOL0     C41178   1.316   0.134   1.738  0.0373  0.2249  0.1079
  299MOL0     C41179   0.966   0.352   1.952 -0.0967  0.2829 -0.0001
  299MOL0     C41180   0.900   0.466   2.007  0.8859 -0.2549 -0.1462
  299MOL0     C41181   0.769   0.452   2.050  1.0776  0.0498 -0.1495
  299MOL0     C41182   0.697   0.339   2.053  0.9184  0.8037  0.9268
  299MOL0     O41183   0.564   0.349   2.099 -0.2736 -0.4895 -0.4597
  299MOL0     C41184   0.472   0.241   2.085 -0.7087 -0.9341 -0.8022
  299MOL0     C41185   0.330   0.302   2.107  0.2262  0.1040 -0.3186
  299MOL0     C41186   0.209   0.208   2.078 -0.4749 -0.1000 -0.6748
  299MOL0     C41187   0.077   0.277   2.078  0.4693 -0.1759 -0.3598
  299MOL0     C41188   0.045   0.328   2.208 -0.1907  0.8249 -0.0278
  299MOL0     C41189   0.006   0.378   2.311  0.4800 -0.6802  0.1993
  299MOL0     C41190   0.759   0.223   2.007  0.8650 -2.0358  0.3996
  299MOL0     C41191   0.888   0.232   1.948 -0.0462 -0.3213  0.0120
  299MOL0     C41192   0.942   0.103   1.888 -0.0072  0.1357  0.3113
  299MOL0     H41193   1.385   0.398   1.937  2.0738  1.2201 -0.9900
  299MOL0     H41194   1.613   0.320   1.912 -1.3958  0.2268  2.0128
  299MOL0     H41195   1.854   0.232   1.696 -0.5764 -0.5052  0.4737
  299MOL0     H41196   1.704   0.295   1.627 -0.2123  0.2145 -2.0355
  299MOL0     H41197   1.757   0.015   1.532 -0.7055 -1.1279  0.0194
  299MOL0     H41198   1.750   0.165   1.439 -0.0595 -2.8114 -1.7486
  299MOL0     H41199   1.983   0.208   1.488 -0.7167 -1.0048 -1.3416
  299MOL0     H41200   1.999   0.066   1.586 -1.9203 -2.9943 -0.0740
  299MOL0     H41201   1.936  -0.092   1.386  1.5351 -1.0082 -2.3376
  299MOL0     H41202   1.912   0.049   1.292  0.1753 -1.0935 -0.3985
  299MOL0     H41203   2.164  -0.014   1.431  0.9436 -0.2281 -0.3700
  299MOL0     H41204   2.139   0.122   1.324 -0.2165  0.7659  1.2920
  299MOL0     H41205   2.107  -0.187   1.263 -0.7981 -0.5602  0.8592
  299MOL0     H41206   2.095  -0.056   1.144 -0.9698 -1.7513 -0.2431
  299MOL0     H41207   2.333   0.004   1.191  3.3487 -1.0974  2.1844
  299MOL0     H41208   2.293  -0.145   1.107 -0.7944 -0.5435 -0.4325
  299MOL0     H41209   2.346  -0.130   1.404  0.0254  4.0153 -2.3591
  299MOL0     H41210   2.339  -0.286   1.308  1.9908 -0.6147 -1.2919
  299MOL0     H41211   2.530  -0.152   1.068  0.6984 -2.3190 -0.8131
  299MOL0     H41212   2.846  -0.087   1.078 -1.4770  0.2311 -3.7305
  299MOL0     H41213   2.770  -0.230   1.000  0.7319  2.5072 -1.3714
  299MOL0     H41214   2.985  -0.237   1.220 -0.4582  5.0224 -1.2223
  299MOL0     H41215   2.885  -0.374   1.184  2.7853 -0.6417  0.3600
  299MOL0     H41216   3.010  -0.237   0.947 -1.4603 -0.1959 -1.4160
  299MOL0     H41217   3.115  -0.334   1.043  0.1544 -2.5864 -1.2158
  299MOL0     H41218   2.973  -0.532   1.014  1.0142 -0.9624 -1.4529
  299MOL0     H41219   2.847  -0.435   0.944 -0.4285 -0.9409 -3.6261
  299MOL0     H41220   2.760  -0.575   0.820  0.8333 -0.7535 -0.2061
  299MOL0     H41221   2.578  -0.688   0.761 -0.9189 -0.0846 -0.0704
  299MOL0     H41222   2.604  -0.817   0.650  2.1164  0.0492 -1.5915
  299MOL0     H41223   2.544  -0.659   0.588 -3.8949 -0.4224  2.9366
  299MOL0     H41224   2.374  -0.817   0.391 -1.1347  1.1378 -0.8977
  299MOL0     H41225   2.238  -0.934   0.234 -0.4242  0.3899 -2.6554
  299MOL0     H41226   2.391  -1.021  -0.198 -0.5465 -0.1770 -0.5379
  299MOL0     H41227   2.392  -1.154  -0.106 -1.3699 -2.1718  0.0741
  299MOL0     H41228   2.212  -1.174  -0.284  0.1233  3.3262 -2.1048
  299MOL0     H41229   2.126  -1.175  -0.129 -0.1373  0.4627 -0.0505
  299MOL0     H41230   2.065  -0.923  -0.152 -1.2950  0.1493 -0.6142
  299MOL0     H41231   2.008  -1.029  -0.278  0.5919  0.9444 -0.4712
  299MOL0     H41232   2.237  -0.969  -0.396  2.5118 -0.0840  1.5856
  299MOL0     H41233   2.244  -0.837  -0.278 -3.3308  1.2951  2.5230
  299MOL0     H41234   2.005  -0.876  -0.470 -1.2421  0.6013  2.4885
  299MOL0     H41235   2.056  -0.732  -0.381  2.1196  2.0229 -0.7337
  299MOL0     H41236   2.120  -0.730  -0.635  1.0897 -0.9398 -0.9485
  299MOL0     H41237   2.239  -0.841  -0.592  0.6151  2.7201  0.4084
  299MOL0     H41238   2.385  -0.720  -0.488 -1.0762 -2.4862  0.5292
  299MOL0     H41239   2.271  -0.629  -0.396  1.6635 -1.1243  0.8418
  299MOL0     H41240   2.182  -0.509  -0.585  0.0094  0.4518  0.9853
  299MOL0     H41241   2.298  -0.588  -0.693 -1.0854 -1.1205 -0.6982
  299MOL0     H41242   2.535  -0.897  -0.072 -2.1063  3.4952 -0.7483
  299MOL0     H41243   2.677  -0.779   0.085  0.5774  0.2187 -0.6920
  299MOL0     H41244   3.015  -0.648   0.406 -1.1456  0.8736 -1.0775
  299MOL0     H41245   3.113  -0.545   0.566  0.2921 -0.8558  0.1546
  299MOL0     H41246   1.475   0.011   1.642  0.4494  0.5305  0.3876
  299MOL0     H41247   1.235   0.083   1.688  0.2789  0.1006 -0.1607
  299MOL0     H41248   0.940   0.567   2.012 -1.0002  0.4650  1.9311
  299MOL0     H41249   0.718   0.543   2.080  0.7261 -0.7517  1.8043
  299MOL0     H41250   0.486   0.219   1.979  0.7902  4.4504 -2.0445
  299MOL0     H41251   0.498   0.154   2.147  0.2450 -1.3316 -1.7256
  299MOL0     H41252   0.321   0.392   2.047  0.2017  0.8637  0.7901
  299MOL0     H41253   0.324   0.317   2.216 -3.5364 -3.4811  0.2392
  299MOL0     H41254   0.225   0.166   1.979  1.5590  1.2212 -0.9731
  299MOL0     H41255   0.205   0.126   2.150 -0.2248  1.2950  0.9962
  299MOL0     H41256  -0.002   0.213   2.038 -0.3630  1.1097 -0.8413
  299MOL0     H41257   0.088   0.365   2.015  0.0492  1.3138  1.5437
  299MOL0     H41258  -0.026   0.417   2.406  0.6373 -0.3827  0.1311
  299MOL0     H41259   0.701   0.132   2.015 -1.2102 -0.6654  2.0608
  299MOL0     H41260   1.025   0.068   1.950 -1.1402  0.1513  1.9224
  299MOL0     H41261   0.875   0.016   1.885 -0.0782  0.2037 -1.9147
  299MOL0     H41262   0.965   0.133   1.786 -0.1237  0.7633  0.4703
  300MOL0     O41263   5.902  11.269   5.940 -0.3019 -0.1653 -0.2644
  300MOL0     C41264   5.874  11.326   5.837  0.1351  0.1560  0.1799
  300MOL0     O41265   5.969  11.383   5.756 -0.5137 -0.0427  0.0398
  300MOL0     C41266   6.104  11.361   5.787  0.5033 -0.3020  0.2093
  300MOL0     C41267   6.183  11.259   5.727  0.0753 -0.6176 -0.9367
  300MOL0     C41268   6.322  11.264   5.743 -0.1273 -0.2827 -0.1513
  300MOL0     C41269   6.384  11.368   5.820 -0.6787  1.0586  0.6324
  300MOL0     O41270   6.531  11.363   5.830  0.9395  0.0570 -0.2471
  300MOL0     C41271   6.589  11.483   5.885  0.6041  0.5716  0.3559
  300MOL0     C41272   6.743  11.463   5.904  0.3161  0.0496 -0.3244
  300MOL0     C41273   6.823  11.412   5.777 -0.3227  0.7379 -0.2168
  300MOL0     C41274   6.977  11.429   5.786 -0.2287  1.1554  0.5088
  300MOL0     C41275   7.059  11.385   5.663  0.1018  1.0769 -0.0256
  300MOL0     C41276   7.210  11.421   5.666  0.6370  0.4232  0.4438
  300MOL0     C41277   7.286  11.355   5.784  0.3939  0.1980 -0.1615
  300MOL0     C41278   7.435  11.359   5.748 -0.8531  0.5283 -0.4534
  300MOL0     N41279   7.491  11.223   5.726  0.0376  0.1114 -0.4490
  300MOL0     C41280   7.529  11.149   5.837 -0.4265  0.1267 -0.2684
  300MOL0     C41281   7.581  11.039   5.782  0.6396 -0.4912  0.0356
  300MOL0     C41282   7.635  10.925   5.860  0.4901 -0.2080  0.0258
  300MOL0     C41283   7.779  10.875   5.827 -0.5041  0.7292 -0.4182
  300MOL0     C41284   7.859  10.822   5.951  0.3389  0.0567 -0.1821
  300MOL0     C41285   8.000  10.769   5.912  1.3830  1.3410 -0.1239
  300MOL0     O41286   8.069  10.870   5.857 -0.1593 -0.2572  0.1816
  300MOL0     C41287   8.197  10.844   5.793 -0.2066 -0.2025  0.4440
  300MOL0     C41288   8.241  10.942   5.705  0.4358  0.3194 -0.1311
  300MOL0     C41289   8.367  10.940   5.647 -0.2439  0.7728 -0.2260
  300MOL0     C41290   8.409  11.052   5.563  0.8921  0.9320 -0.0407
  300MOL0     C41291   8.441  10.815   5.650  0.6282  0.2472 -0.2240
  300MOL0     C41292   8.569  10.795   5.584 -0.4277  0.0160  0.0815
  300MOL0     O41293   8.601  10.667   5.570 -0.0990 -0.4111 -0.5520
  300MOL0     C41294   8.732  10.631   5.580  0.6582 -0.7227 -0.0678
  300MOL0     C41295   8.775  10.564   5.697 -0.3791 -0.6278 -0.4168
  300MOL0     C41296   8.907  10.519   5.708 -0.2040  0.1496  0.2298
  300MOL0     C41297   8.995  10.531   5.596 -1.1434  0.2401 -0.1295
  300MOL0     O41298   9.118  10.473   5.591 -0.1660  0.4685  0.2617
  300MOL0     C41299   9.141  10.345   5.655 -1.1183 -1.0146  0.1424
  300MOL0     C41300   9.254  10.260   5.593  0.4627  0.0892  0.0170
  300MOL0     C41301   9.393  10.288   5.649  0.4181 -0.5684  0.5784
  300MOL0     C41302   9.505  10.208   5.579  0.0896 -0.3524  0.6141
  300MOL0     C41303   9.640  10.235   5.656  0.5841 -0.7927  1.1049
  300MOL0     C41304   9.750  10.125   5.636 -0.0340  0.7135 -0.1660
  300MOL0     C41305   9.787  10.076   5.494 -0.3171 -0.0853  0.5983
  300MOL0     C41306   9.901   9.974   5.492  0.3828  0.4945  0.2937
  300MOL0    Cl41307  10.058  10.067   5.479 -0.3152  0.0968 -0.2228
  300MOL0     C41308   8.952  10.601   5.486 -0.3267  0.0463  0.7431
  300MOL0     C41309   8.825  10.645   5.474  0.3109 -0.8445 -0.0195
  300MOL0     O41310   8.647  10.889   5.560  0.0701  0.2115  0.1857
  300MOL0     C41311   8.393  10.712   5.744 -0.0215  0.2234 -0.1238
  300MOL0     C41312   8.269  10.724   5.807 -0.3855  0.6224 -0.0350
  300MOL0     N41313   7.570  11.044   5.645 -0.7833  0.0591 -0.2442
  300MOL0     N41314   7.522  11.156   5.607  0.7972 -0.1946 -0.4166
  300MOL0     C41315   6.300  11.467   5.875  0.1229  0.2098 -0.1059
  300MOL0     C41316   6.168  11.462   5.859  0.7912  0.3702 -0.4811
  300MOL0     C41317   5.728  11.320   5.791 -0.1429 -0.1820  0.6853
  300MOL0     C41318   5.701  11.348   5.656  0.0085 -0.7191  1.2122
  300MOL0     C41319   5.573  11.350   5.590 -0.5817  0.2492  0.1226
  300MOL0     C41320   5.464  11.320   5.673  0.3334  0.7227  0.1378
  300MOL0     O41321   5.336  11.321   5.634  0.6274  0.1356  0.3409
  300MOL0     C41322   5.293  11.262   5.508 -1.0137 -0.3056 -0.0761
  300MOL0     C41323   5.290  11.110   5.505 -0.0484  0.3184  0.5002
  300MOL0     C41324   5.206  11.038   5.616  0.2808 -0.4542 -0.3646
  300MOL0     C41325   5.216  10.888   5.591  0.9676  0.0601 -0.6949
  300MOL0     C41326   5.354  10.830   5.609  0.0132 -0.0078  0.2977
  300MOL0     C41327   5.471  10.812   5.621 -0.1235  0.3420 -0.1615
  300MOL0     C41328   5.492  11.284   5.802 -0.0248  0.3628 -0.1851
  300MOL0     C41329   5.618  11.278   5.865 -0.5944 -0.3540 -0.1063
  300MOL0     C41330   5.629  11.236   6.011 -0.8811  0.7051 -0.1682
  300MOL0     H41331   6.130  11.193   5.659 -0.6912 -3.4625  2.1625
  300MOL0     H41332   6.386  11.189   5.698 -0.1947 -0.2830 -0.2471
  300MOL0     H41333   6.548  11.495   5.986 -1.1844  0.8698 -0.3688
  300MOL0     H41334   6.564  11.574   5.829 -1.7334 -0.2217  0.0062
  300MOL0     H41335   6.782  11.559   5.939 -0.3348 -0.2223  1.2245
  300MOL0     H41336   6.748  11.386   5.982 -0.3354  1.0915  0.7704
  300MOL0     H41337   6.804  11.304   5.777  0.1146  0.6590  0.3478
  300MOL0     H41338   6.794  11.460   5.682  2.4190  3.4382  0.1599
  300MOL0     H41339   7.000  11.535   5.800 -1.4314  1.3010  1.5565
  300MOL0     H41340   7.020  11.377   5.873 -2.3982 -0.3022  0.7759
  300MOL0     H41341   7.021  11.431   5.571 -0.4346 -0.2435 -0.4909
  300MOL0     H41342   7.048  11.277   5.653  1.4766  1.0803 -2.4377
  300MOL0     H41343   7.257  11.397   5.571  0.5866 -1.6471  0.8872
  300MOL0     H41344   7.214  11.530   5.664 -0.5141  0.4906 -2.0369
  300MOL0     H41345   7.263  11.249   5.800  2.3000 -0.0185  1.6752
  300MOL0     H41346   7.258  11.420   5.867  1.0681  0.7885 -0.3821
  300MOL0     H41347   7.445  11.418   5.657  0.8835  2.3843  0.8656
  300MOL0     H41348   7.487  11.407   5.832 -2.1250 -3.2166  2.8267
  300MOL0     H41349   7.515  11.175   5.942  0.3723  0.5801 -0.2683
  300MOL0     H41350   7.565  10.843   5.845  1.5874 -1.3878  0.9932
  300MOL0     H41351   7.634  10.943   5.968 -0.1738  1.1217 -0.1923
  300MOL0     H41352   7.769  10.791   5.757 -0.4200 -0.3831  0.8551
  300MOL0     H41353   7.829  10.963   5.787 -2.0943  1.3437 -1.1578
  300MOL0     H41354   7.868  10.908   6.017  2.1895  2.5246 -3.3458
  300MOL0     H41355   7.799  10.746   6.002 -2.1862  1.0071 -1.5724
  300MOL0     H41356   8.046  10.714   5.995  2.1545 -0.7229 -1.8283
  300MOL0     H41357   7.969  10.700   5.833 -0.9424  0.8150  1.1366
  300MOL0     H41358   8.181  11.032   5.708 -1.2028 -0.7482  0.9048
  300MOL0     H41359   8.413  11.028   5.456 -0.1853 -3.4499  0.7106
  300MOL0     H41360   8.507  11.087   5.597  1.9762  3.1491 -4.6507
  300MOL0     H41361   8.341  11.137   5.570  0.6441  0.6609  0.9776
  300MOL0     H41362   8.701  10.558   5.776  0.8977  0.6832  0.9432
  300MOL0     H41363   8.931  10.458   5.794 -1.3483 -2.0199 -0.8826
  300MOL0     H41364   9.170  10.368   5.758  4.8783 -0.5644 -1.2512
  300MOL0     H41365   9.047  10.288   5.657 -1.1058 -1.0453 -0.0521
  300MOL0     H41366   9.234  10.153   5.607  0.1353  0.0501 -0.7106
  300MOL0     H41367   9.253  10.271   5.484  0.8376  1.8970  0.1687
  300MOL0     H41368   9.393  10.266   5.756 -2.2627 -0.7813  0.6116
  300MOL0     H41369   9.411  10.396   5.646 -3.2175  0.2308  2.3703
  300MOL0     H41370   9.506  10.246   5.477  2.3497 -1.0732  0.3121
  300MOL0     H41371   9.477  10.103   5.590 -1.5247  0.0906  0.9660
  300MOL0     H41372   9.680  10.325   5.609 -0.7753 -0.0781  1.2623
  300MOL0     H41373   9.622  10.267   5.759 -0.5984 -1.5356  1.1368
  300MOL0     H41374   9.719  10.040   5.698 -1.2782  2.7113  2.1196
  300MOL0     H41375   9.846  10.159   5.676  0.9965 -0.6111 -1.4055
  300MOL0     H41376   9.820  10.166   5.440 -1.8930  0.0279 -0.2405
  300MOL0     H41377   9.696  10.031   5.454  0.9431 -2.0824 -0.1204
  300MOL0     H41378   9.889   9.918   5.399  1.6942  1.2064 -0.3480
  300MOL0     H41379   9.905   9.894   5.567  1.3150  0.8881  0.6897
  300MOL0     H41380   9.010  10.604   5.394  4.5928 -0.3493  3.4738
  300MOL0     H41381   8.792  10.691   5.381  3.0811  1.9021  0.1969
  300MOL0     H41382   8.435  10.615   5.768 -4.6825 -1.4988  2.4531
  300MOL0     H41383   8.227  10.638   5.858  0.7866  1.5126  2.6087
  300MOL0     H41384   6.345  11.547   5.933  1.9185 -0.8703  0.0902
  300MOL0     H41385   6.100  11.532   5.907  1.9734  2.2314 -1.3781
  300MOL0     H41386   5.786  11.380   5.596 -1.0488  2.1723  1.1109
  300MOL0     H41387   5.567  11.379   5.486  0.6673  1.6720  0.4119
  300MOL0     H41388   5.194  11.296   5.477 -0.8796  0.3248  0.1653
  300MOL0     H41389   5.365  11.301   5.436 -0.4572  1.4488  1.3401
  300MOL0     H41390   5.394  11.077   5.497  0.1765  0.8570  1.1590
  300MOL0     H41391   5.239  11.085   5.411  0.1380  1.2531  0.1436
  300MOL0     H41392   5.241  11.063   5.717 -0.0469  0.1922 -0.4031
  300MOL0     H41393   5.100  11.063   5.603 -0.2326 -1.0468  2.1141
  300MOL0     H41394   5.182  10.868   5.488 -4.7035  0.0761  0.8314
  300MOL0     H41395   5.145  10.831   5.651  0.8979  0.2907 -0.5555
  300MOL0     H41396   5.574  10.784   5.622  0.1981  1.4601  0.7725
  300MOL0     H41397   5.405  11.255   5.861 -3.4496  2.1136 -3.8919
  300MOL0     H41398   5.532  11.230   6.060 -1.2359  0.5432 -0.8708
  300MOL0     H41399   5.672  11.136   6.001 -1.5709  0.2670  1.1242
  300MOL0     H41400   5.690  11.306   6.069 -0.8938 -0.4863  1.3346
  301MOL0     O41401   5.677   1.305   0.154 -1.0290 -0.2998 -0.2651
  301MOL0     C41402   5.651   1.413   0.207  0.8337  0.2236  0.1523
  301MOL0     O41403   5.680   1.441   0.335  0.6679 -0.1711 -0.2045
  301MOL0     C41404   5.768   1.366   0.404 -0.1256 -0.4520 -0.2076
  301MOL0     C41405   5.756   1.234   0.440  1.0500 -0.3055  0.4053
  301MOL0     C41406   5.847   1.167   0.517  0.3192 -0.2699 -0.6798
  301MOL0     C41407   5.954   1.233   0.583 -0.3697 -0.1837 -0.2703
  301MOL0     O41408   6.049   1.171   0.656 -0.8837  0.4796 -0.3835
  301MOL0     C41409   6.029   1.031   0.688  0.3547  0.8125 -0.0526
  301MOL0     C41410   6.137   0.992   0.789 -0.3517  0.3053  0.4154
  301MOL0     C41411   6.277   0.978   0.726  0.2508 -0.8710  0.3959
  301MOL0     C41412   6.379   0.961   0.840 -0.5467 -0.6251 -0.1437
  301MOL0     C41413   6.524   0.935   0.789  0.5558  0.1021 -0.6202
  301MOL0     C41414   6.591   1.059   0.735 -0.0208 -0.5140 -0.1061
  301MOL0     C41415   6.734   1.057   0.748  0.4122  0.0262 -0.4973
  301MOL0     C41416   6.788   1.050   0.891  0.0722 -1.0518 -0.1334
  301MOL0     N41417   6.915   1.116   0.894  0.5081  0.2478  0.1383
  301MOL0     C41418   7.042   1.062   0.902 -0.3092 -0.0154  0.4123
  301MOL0     C41419   7.133   1.166   0.896  0.9806 -0.3190 -0.0568
  301MOL0     C41420   7.280   1.166   0.897  0.1088 -0.0291  0.2826
  301MOL0     C41421   7.341   1.068   0.991 -0.4094  0.3495  0.4107
  301MOL0     C41422   7.500   1.087   1.000 -0.0329  0.5449  0.3599
  301MOL0     C41423   7.560   0.957   1.040 -0.4862 -0.0412 -0.2713
  301MOL0     O41424   7.674   0.986   1.123 -0.4394  0.0245 -0.6785
  301MOL0     C41425   7.803   0.989   1.065  0.5462  0.4505 -0.4708
  301MOL0     C41426   7.910   0.996   1.150 -1.2750  0.1028  0.3620
  301MOL0     C41427   8.048   1.001   1.112 -0.2221  0.7596  0.7365
  301MOL0     C41428   8.150   1.036   1.223 -0.5103  0.6313 -0.1503
  301MOL0     C41429   8.079   0.991   0.976  0.1352 -0.0080 -0.7080
  301MOL0     C41430   8.220   1.001   0.923  0.2772 -0.5891 -0.3172
  301MOL0     O41431   8.316   1.071   0.984  0.6491 -1.2667 -0.0571
  301MOL0     C41432   8.448   1.061   0.933  0.9989  0.4751 -0.2663
  301MOL0     C41433   8.533   1.176   0.924  0.4719  0.0326  0.0759
  301MOL0     C41434   8.669   1.175   0.894  0.4816  0.7247  0.1521
  301MOL0     C41435   8.728   1.048   0.885 -0.3399 -0.2162  0.1494
  301MOL0     O41436   8.859   1.027   0.863  0.2735 -0.2316  0.2615
  301MOL0     C41437   8.946   1.119   0.795  0.0349  0.0779 -0.5070
  301MOL0     C41438   9.024   1.219   0.880  1.0752  0.5873 -0.1721
  301MOL0     C41439   9.078   1.162   1.008  0.4919 -0.3265 -1.1481
  301MOL0     C41440   9.132   1.277   1.094 -0.3221 -0.4329 -1.3487
  301MOL0     C41441   9.031   1.356   1.179 -1.0310  0.8210  0.6194
  301MOL0     C41442   9.096   1.467   1.250 -0.4531 -0.1684 -0.2934
  301MOL0     C41443   8.993   1.531   1.340 -0.1961 -0.5104 -0.3095
  301MOL0     C41444   9.020   1.676   1.387 -0.6050  0.8029 -0.4516
  301MOL0    Cl41445   9.119   1.685   1.534  0.1428 -0.5749  0.0606
  301MOL0     C41446   8.653   0.927   0.909  1.0546 -0.0623  0.1807
  301MOL0     C41447   8.511   0.938   0.927 -0.3642 -0.2952  0.0237
  301MOL0     O41448   8.229   0.956   0.809 -0.6069  0.6260 -0.1033
  301MOL0     C41449   7.969   0.975   0.894 -0.6529  0.0182 -0.6561
  301MOL0     C41450   7.837   0.974   0.935  0.1992  0.2365  0.9140
  301MOL0     N41451   7.054   1.282   0.898  0.4150 -0.0146 -0.1878
  301MOL0     N41452   6.928   1.250   0.896 -0.1824 -0.0382  0.3027
  301MOL0     C41453   5.970   1.369   0.548  0.3927  0.1014  0.4248
  301MOL0     C41454   5.878   1.436   0.459 -0.0461 -0.2396 -0.6287
  301MOL0     C41455   5.562   1.515   0.142 -0.1253  0.3413 -0.7392
  301MOL0     C41456   5.573   1.643   0.185  0.6169 -0.4400 -1.1071
  301MOL0     C41457   5.496   1.740   0.130  0.5029  0.7926  0.4015
  301MOL0     C41458   5.407   1.706   0.028 -0.0549 -0.1840 -0.3045
  301MOL0     O41459   5.310   1.801  -0.017 -0.3611  0.2291  0.3407
  301MOL0     C41460   5.342   1.947   0.004 -0.0795 -0.0393 -0.5604
  301MOL0     C41461   5.249   2.019  -0.082 -0.1313 -0.0142  0.0846
  301MOL0     C41462   5.212   2.148  -0.016 -0.2246 -0.3443  0.2870
  301MOL0     C41463   5.298   2.260  -0.057  0.1425 -0.3540  0.4361
  301MOL0     C41464   5.421   2.250   0.016  0.2234  0.0065  0.0451
  301MOL0     C41465   5.540   2.248   0.048  0.1610 -0.2114 -0.1242
  301MOL0     C41466   5.393   1.569  -0.019  0.2878  0.2366  0.7830
  301MOL0     C41467   5.466   1.468   0.045 -0.1894 -0.8074 -0.1298
  301MOL0     C41468   5.452   1.329  -0.005  1.0865  0.3733 -0.1274
  301MOL0     H41469   5.667   1.192   0.395 -0.3149  2.7469 -0.0466
  301MOL0     H41470   5.826   1.061   0.530 -2.4989  0.3322  0.3365
  301MOL0     H41471   6.028   0.965   0.601  1.7340  0.9804 -0.2219
  301MOL0     H41472   5.931   1.021   0.734 -0.1280 -0.2870 -1.2791
  301MOL0     H41473   6.142   1.058   0.876  0.4457 -2.5914  2.7795
  301MOL0     H41474   6.104   0.898   0.836  1.4238 -0.5274  0.0889
  301MOL0     H41475   6.280   0.887   0.665  0.0133  0.2945 -1.4228
  301MOL0     H41476   6.292   1.062   0.658 -1.1124 -0.4025  0.6576
  301MOL0     H41477   6.385   1.054   0.898 -1.2016 -2.4417  3.0626
  301MOL0     H41478   6.342   0.883   0.907 -0.6415  0.0454  0.6034
  301MOL0     H41479   6.514   0.848   0.723 -4.3450  1.0061 -1.4702
  301MOL0     H41480   6.577   0.914   0.882  2.0831  1.6706 -1.0824
  301MOL0     H41481   6.573   1.054   0.627 -0.3945  0.8257 -0.1207
  301MOL0     H41482   6.545   1.150   0.775 -0.2242 -0.8190  0.3582
  301MOL0     H41483   6.774   1.137   0.684  1.5425  0.0951  0.2743
  301MOL0     H41484   6.759   0.962   0.698 -1.4471 -1.1322  0.6402
  301MOL0     H41485   6.708   1.082   0.959  0.0604  2.4924 -1.5906
  301MOL0     H41486   6.814   0.945   0.908  0.1242 -0.5340  3.9015
  301MOL0     H41487   7.069   0.957   0.910 -0.4642 -0.3404 -2.3781
  301MOL0     H41488   7.312   1.265   0.931 -0.0794 -0.2982  1.2961
  301MOL0     H41489   7.323   1.151   0.798 -0.5521 -0.4188  0.0548
  301MOL0     H41490   7.289   1.090   1.085  0.0520  1.0761  0.5015
  301MOL0     H41491   7.319   0.965   0.960  1.5278 -0.2846  1.0019
  301MOL0     H41492   7.549   1.116   0.907 -0.5275 -1.6334 -0.6428
  301MOL0     H41493   7.517   1.169   1.070  3.6155  0.1382  0.1345
  301MOL0     H41494   7.495   0.899   1.107 -0.9146  1.4486  0.6415
  301MOL0     H41495   7.585   0.896   0.953  1.2129 -0.3798  0.4166
  301MOL0     H41496   7.903   1.021   1.256 -1.4385  2.3612 -0.1202
  301MOL0     H41497   8.147   1.144   1.239  1.9750  0.2837  4.0158
  301MOL0     H41498   8.254   1.011   1.202 -0.3517  0.8784  0.3434
  301MOL0     H41499   8.114   0.997   1.319  0.3473  0.1363 -0.0153
  301MOL0     H41500   8.499   1.278   0.940  3.1495  0.8752  0.9194
  301MOL0     H41501   8.726   1.265   0.876 -0.3652  0.9409 -1.5828
  301MOL0     H41502   9.022   1.075   0.731  2.4740  0.4168  1.9558
  301MOL0     H41503   8.889   1.181   0.725 -0.8668  0.7835  0.8033
  301MOL0     H41504   9.104   1.264   0.820 -0.6899  1.0139 -2.3662
  301MOL0     H41505   8.956   1.298   0.913  0.8629  0.7055 -0.8707
  301MOL0     H41506   9.170   1.109   0.980  0.8682  1.4664 -3.6796
  301MOL0     H41507   9.007   1.103   1.067  1.2383  1.3093  1.5373
  301MOL0     H41508   9.175   1.352   1.027  2.5823  1.7570  2.5668
  301MOL0     H41509   9.203   1.237   1.167 -1.3405  0.3020  0.0846
  301MOL0     H41510   8.956   1.410   1.120  0.1782  0.0835 -1.7221
  301MOL0     H41511   8.970   1.282   1.231  0.0244 -0.4632  0.0591
  301MOL0     H41512   9.136   1.527   1.168 -0.1043 -0.4735 -0.3488
  301MOL0     H41513   9.177   1.435   1.316  0.0290 -2.5948 -1.9392
  301MOL0     H41514   8.980   1.472   1.431 -1.7005 -1.7250 -1.2531
  301MOL0     H41515   8.892   1.536   1.297 -0.1993 -1.0581 -0.3693
  301MOL0     H41516   8.931   1.737   1.402 -0.4220  1.1238 -0.6765
  301MOL0     H41517   9.065   1.727   1.302  2.0107 -0.6868 -0.0806
  301MOL0     H41518   8.711   0.835   0.912  3.3733  1.3328  0.7268
  301MOL0     H41519   8.459   0.847   0.953  1.0882 -1.1614 -0.0470
  301MOL0     H41520   7.983   0.969   0.787  0.2194 -1.4312 -0.4883
  301MOL0     H41521   7.770   0.959   0.851  0.1829  1.0435  0.7820
  301MOL0     H41522   6.051   1.429   0.589  0.3911 -0.5412  1.4093
  301MOL0     H41523   5.892   1.542   0.442 -0.0415 -0.2985 -0.9996
  301MOL0     H41524   5.643   1.667   0.263 -2.1670 -1.7901  2.0445
  301MOL0     H41525   5.489   1.840   0.171  0.3127  1.1945 -0.5798
  301MOL0     H41526   5.314   1.965   0.108 -1.6871 -0.3007 -0.9334
  301MOL0     H41527   5.446   1.968  -0.022 -0.5472  0.0058 -2.5293
  301MOL0     H41528   5.158   1.959  -0.093  0.4082 -0.8661  0.1809
  301MOL0     H41529   5.298   2.034  -0.178  3.6453  2.1845  2.1183
  301MOL0     H41530   5.111   2.167  -0.054  0.7750  0.6658 -2.0214
  301MOL0     H41531   5.206   2.149   0.093  0.4446 -0.7303  0.3340
  301MOL0     H41532   5.247   2.354  -0.036 -0.0346 -0.6503  1.4118
  301MOL0     H41533   5.318   2.256  -0.164 -0.3800  0.6602  0.2889
  301MOL0     H41534   5.638   2.267   0.088 -0.0156  0.9825 -0.2384
  301MOL0     H41535   5.303   1.547  -0.074 -0.5092 -0.0963  2.1671
  301MOL0     H41536   5.372   1.331  -0.079 -2.0724 -0.8417  3.0183
  301MOL0     H41537   5.544   1.300  -0.057  1.4944 -0.7137  1.1395
  301MOL0     H41538   5.421   1.265   0.078  0.7883  0.1595 -0.4022
  302MOL0     O41539   1.258   5.070  10.708 -0.1248  0.4778 -0.3864
  302MOL0     C41540   1.325   4.990  10.639  0.6380  0.3564 -0.2258
  302MOL0     O41541   1.456   4.959  10.659 -0.4779  0.1212  0.4820
  302MOL0     C41542   1.531   5.025  10.752 -0.2681  0.8325  0.1796
  302MOL0     C41543   1.609   4.970  10.857  0.5310 -0.0302 -0.7336
  302MOL0     C41544   1.701   5.050  10.930  0.0866 -0.3269  0.5721
  302MOL0     C41545   1.724   5.179  10.890  0.3769 -0.5466 -0.2277
  302MOL0     O41546   1.832   5.248  10.937 -0.0553  0.2082  0.0753
  302MOL0     C41547   1.810   5.371  11.007 -0.4117  1.0116  0.4648
  302MOL0     C41548   1.941   5.425  11.063  0.5226 -0.2869 -0.1654
  302MOL0     C41549   2.028   5.466  10.954 -0.4733  0.0601 -0.8405
  302MOL0     C41550   2.160   5.520  11.008 -0.8870  0.3359  0.4783
  302MOL0     C41551   2.246   5.588  10.894 -0.4527 -0.1372 -0.1562
  302MOL0     C41552   2.349   5.689  10.955 -0.1552  0.1969 -0.8497
  302MOL0     C41553   2.407   5.793  10.860  0.0713 -0.5556 -0.5171
  302MOL0     C41554   2.488   5.729  10.742 -0.2236 -0.3225  0.0111
  302MOL0     N41555   2.553   5.832  10.659  0.2292  1.2262  0.2673
  302MOL0     C41556   2.675   5.898  10.686  0.2829 -0.1477  0.1072
  302MOL0     C41557   2.694   5.966  10.570  0.4901  0.0291 -0.5472
  302MOL0     C41558   2.801   6.064  10.555  0.2005 -0.1775  0.6964
  302MOL0     C41559   2.938   6.002  10.542 -0.3058 -0.4858  0.4088
  302MOL0     C41560   3.050   6.105  10.486  1.2344  0.2441 -0.0687
  302MOL0     C41561   3.087   6.204  10.592 -0.5809 -0.5800 -0.2691
  302MOL0     O41562   3.159   6.130  10.695 -0.4055  0.3088 -0.4990
  302MOL0     C41563   3.287   6.089  10.664  0.9209 -0.3579  0.4129
  302MOL0     C41564   3.316   5.954  10.652  0.5596 -0.1639  0.2908
  302MOL0     C41565   3.443   5.909  10.622 -0.1118  0.6388  0.2888
  302MOL0     C41566   3.453   5.762  10.594  0.0859 -0.0267 -0.3172
  302MOL0     C41567   3.555   5.998  10.626  0.2160 -0.5106 -0.6070
  302MOL0     C41568   3.693   5.956  10.609 -0.7756 -0.3286  0.0953
  302MOL0     O41569   3.729   5.844  10.677  0.0045 -0.0960 -0.1607
  302MOL0     C41570   3.862   5.809  10.655  0.4416  0.2587  0.1276
  302MOL0     C41571   3.895   5.723  10.546  0.4489 -0.1867 -0.6204
  302MOL0     C41572   4.026   5.702  10.513 -0.2519  0.3777  0.2238
  302MOL0     C41573   4.128   5.735  10.597 -0.3545  0.1914  0.4771
  302MOL0     O41574   4.259   5.709  10.569  0.8667  0.3254  0.0380
  302MOL0     C41575   4.287   5.569  10.538  0.1658  0.3837  0.8972
  302MOL0     C41576   4.427   5.558  10.460  0.4446  0.4477  0.2135
  302MOL0     C41577   4.541   5.594  10.558 -0.2764 -0.4428  0.0138
  302MOL0     C41578   4.623   5.471  10.604 -0.2833 -0.3975  0.6234
  302MOL0     C41579   4.760   5.519  10.669 -0.3153 -0.5400 -0.6587
  302MOL0     C41580   4.747   5.552  10.814  0.2022  0.3017  0.4511
  302MOL0     C41581   4.745   5.413  10.891  0.1151  0.0481  0.3483
  302MOL0     C41582   4.770   5.441  11.038  0.0684 -0.4739  0.1582
  302MOL0    Cl41583   4.645   5.559  11.095  0.2086 -0.0803 -0.2427
  302MOL0     C41584   4.104   5.802  10.711 -0.7199  1.1125 -0.0143
  302MOL0     C41585   3.971   5.848  10.742  0.3314 -0.6489  0.3778
  302MOL0     O41586   3.769   6.037  10.548 -0.2420  0.6892 -0.0261
  302MOL0     C41587   3.527   6.130  10.634 -0.1637 -0.7369  0.3543
  302MOL0     C41588   3.392   6.177  10.661  0.1337 -0.3874  0.2270
  302MOL0     N41589   2.586   5.940  10.490  0.1515 -0.7221 -0.0876
  302MOL0     N41590   2.506   5.857  10.538 -1.1350  0.0630 -0.2640
  302MOL0     C41591   1.640   5.244  10.796  0.3410  0.2315 -0.6754
  302MOL0     C41592   1.542   5.166  10.726 -0.0128  0.3478 -0.3054
  302MOL0     C41593   1.260   4.895  10.552 -0.7983 -0.2150 -0.4965
  302MOL0     C41594   1.330   4.845  10.439  0.1213  0.1845  0.3861
  302MOL0     C41595   1.272   4.761  10.339 -0.0872  0.3509  0.4070
  302MOL0     C41596   1.143   4.716  10.354  0.2593  0.0260 -0.0163
  302MOL0     O41597   1.070   4.634  10.275  0.2783  0.3890 -0.3039
  302MOL0     C41598   1.127   4.579  10.161 -0.0596 -0.4490 -0.2434
  302MOL0     C41599   1.031   4.546  10.045 -0.7761  0.3433 -0.0675
  302MOL0     C41600   0.965   4.667   9.976 -0.4002 -1.3384  0.2880
  302MOL0     C41601   1.061   4.773   9.910 -0.1743 -0.3895  0.2074
  302MOL0     C41602   1.155   4.716   9.818  0.5973  0.0503  0.0164
  302MOL0     C41603   1.233   4.681   9.730  0.5273 -0.0538  0.6735
  302MOL0     C41604   1.075   4.755  10.465 -0.5264  0.5301 -0.4869
  302MOL0     C41605   1.128   4.848  10.556 -0.8001 -0.9804 -0.4183
  302MOL0     C41606   1.033   4.901  10.661  0.1777 -0.2381 -0.0885
  302MOL0     H41607   1.613   4.863  10.875 -0.6239  0.3978  2.8153
  302MOL0     H41608   1.754   4.997  11.008 -2.3740 -3.9187  0.0556
  302MOL0     H41609   1.744   5.350  11.092 -0.0812  1.7366  0.9105
  302MOL0     H41610   1.765   5.450  10.946 -2.2088  1.2219  1.9790
  302MOL0     H41611   1.918   5.512  11.126 -0.2925 -2.0341  2.0819
  302MOL0     H41612   1.995   5.357  11.129  1.6992  1.7656  1.1016
  302MOL0     H41613   2.051   5.394  10.876 -1.0922  0.2188 -1.1825
  302MOL0     H41614   1.977   5.548  10.902 -3.8848  0.4797  2.6653
  302MOL0     H41615   2.142   5.581  11.097  1.5311 -0.0571  1.3224
  302MOL0     H41616   2.219   5.438  11.050  0.0779  0.5037 -0.4991
  302MOL0     H41617   2.177   5.643  10.830 -1.7333 -0.5518  0.8349
  302MOL0     H41618   2.293   5.511  10.833 -0.3108 -0.5311  0.4471
  302MOL0     H41619   2.291   5.742  11.032  0.4349 -0.8553  0.3637
  302MOL0     H41620   2.418   5.629  11.015 -2.2109 -1.0147  0.4686
  302MOL0     H41621   2.477   5.857  10.914 -0.3381 -2.1100  2.0159
  302MOL0     H41622   2.315   5.833  10.818 -1.0068 -1.2762  1.0621
  302MOL0     H41623   2.571   5.666  10.774 -1.4514 -1.5916  0.8028
  302MOL0     H41624   2.421   5.671  10.679 -0.0881 -0.5217  0.0508
  302MOL0     H41625   2.740   5.898  10.773  0.6351 -0.4766 -0.1543
  302MOL0     H41626   2.805   6.134  10.639  2.7792  1.1561 -0.4148
  302MOL0     H41627   2.783   6.130  10.470  0.2648  0.8372  1.4438
  302MOL0     H41628   2.976   5.951  10.630 -1.2812  1.4758  2.0585
  302MOL0     H41629   2.933   5.926  10.464  0.6532  1.1117 -1.3154
  302MOL0     H41630   3.140   6.052  10.455  0.6356 -0.6206 -0.3390
  302MOL0     H41631   3.010   6.153  10.396 -0.6713 -0.5503  0.2912
  302MOL0     H41632   3.148   6.289  10.560 -0.6812 -0.6981 -0.7816
  302MOL0     H41633   3.003   6.252  10.643 -0.2307  1.9788 -1.9566
  302MOL0     H41634   3.233   5.885  10.661  1.5012 -1.1807  1.4976
  302MOL0     H41635   3.494   5.723  10.688  0.6155 -1.4276 -1.0854
  302MOL0     H41636   3.530   5.738  10.520  0.5291  0.1962  0.0654
  302MOL0     H41637   3.361   5.706  10.577  0.2631 -0.2423 -0.5871
  302MOL0     H41638   3.819   5.687  10.476  0.8443 -0.8779 -0.6940
  302MOL0     H41639   4.039   5.651  10.419 -0.6083 -0.7232  0.7532
  302MOL0     H41640   4.296   5.497  10.620 -0.9051 -0.0192  0.6842
  302MOL0     H41641   4.206   5.528  10.477 -0.2097  0.6185  1.2367
  302MOL0     H41642   4.436   5.453  10.432 -0.0747 -0.0433  1.7928
  302MOL0     H41643   4.443   5.615  10.368  1.0851 -2.1145 -1.3707
  302MOL0     H41644   4.501   5.644  10.646  0.5208 -0.6761  0.5245
  302MOL0     H41645   4.618   5.648  10.501 -0.5620 -1.6768 -1.6288
  302MOL0     H41646   4.648   5.416  10.513 -1.0829 -1.8154  1.2181
  302MOL0     H41647   4.564   5.411  10.674 -2.6396 -0.5307 -1.3382
  302MOL0     H41648   4.829   5.436  10.651 -0.0203  0.0369 -2.4520
  302MOL0     H41649   4.796   5.604  10.611 -1.1865  1.2355  1.2936
  302MOL0     H41650   4.651   5.604  10.829  0.7201  1.3424  0.2859
  302MOL0     H41651   4.835   5.614  10.833  1.8352 -0.8026 -2.7658
  302MOL0     H41652   4.827   5.344  10.873 -0.5753 -0.5246 -0.7829
  302MOL0     H41653   4.648   5.365  10.874 -0.9666  1.2515  2.6006
  302MOL0     H41654   4.868   5.481  11.064 -0.7410  2.5430 -1.0231
  302MOL0     H41655   4.749   5.340  11.076 -1.9520 -0.8838 -1.8637
  302MOL0     H41656   4.195   5.816  10.768 -1.2725  0.3037  1.1103
  302MOL0     H41657   3.940   5.905  10.829  0.2306  3.1390 -1.9319
  302MOL0     H41658   3.611   6.198  10.643 -0.5776 -0.0114 -1.0536
  302MOL0     H41659   3.379   6.280  10.692  0.3659  0.1784 -1.4725
  302MOL0     H41660   1.671   5.344  10.767  0.4717 -0.6189 -3.8479
  302MOL0     H41661   1.483   5.211  10.647 -2.0229  1.9481  1.9874
  302MOL0     H41662   1.435   4.875  10.432  0.6161 -1.3821  0.7207
  302MOL0     H41663   1.327   4.718  10.256  1.2326  0.0825  1.3831
  302MOL0     H41664   1.215   4.630  10.119 -0.0254 -0.3797 -0.0890
  302MOL0     H41665   1.163   4.489  10.211 -1.2996  0.3122  2.2169
  302MOL0     H41666   0.955   4.475  10.078  0.7376 -0.9766  0.7302
  302MOL0     H41667   1.084   4.495   9.964  1.1465 -0.4594  1.5978
  302MOL0     H41668   0.905   4.635   9.891  1.5258 -0.6450 -1.4238
  302MOL0     H41669   0.892   4.720  10.038 -0.7384 -0.1074 -1.1096
  302MOL0     H41670   1.114   4.822   9.992 -1.4102  0.5613  0.4568
  302MOL0     H41671   1.012   4.856   9.859  0.5926 -0.2283 -0.2907
  302MOL0     H41672   1.298   4.677   9.644 -2.4447  3.6300 -2.1440
  302MOL0     H41673   0.971   4.726  10.467  0.0091 -1.5043  1.0165
  302MOL0     H41674   1.025   5.009  10.655 -1.0980 -0.3359 -0.2918
  302MOL0     H41675   0.935   4.858  10.639 -0.1730 -0.1983  1.3028
  302MOL0     H41676   1.073   4.878  10.760 -0.3131 -0.1565  0.1310
  303MOL0     O41677   8.939   2.746   5.555  0.1243  0.2537 -0.1290
  303MOL0     C41678   8.942   2.623   5.543  0.3746 -0.2369  0.3563
  303MOL0     O41679   9.002   2.528   5.625 -0.5204  0.4551 -0.3653
  303MOL0     C41680   9.092   2.578   5.717  0.8074 -0.2091 -1.0707
  303MOL0     C41681   9.043   2.640   5.830  0.3468  0.0473 -0.3517
  303MOL0     C41682   9.140   2.677   5.934 -0.1785 -0.3089 -0.4513
  303MOL0     C41683   9.277   2.645   5.931  0.2168  1.0010  0.5360
  303MOL0     O41684   9.372   2.682   6.019  0.4605 -0.3139 -0.1777
  303MOL0     C41685   9.364   2.816   6.074 -0.1566 -0.2937 -0.7775
  303MOL0     C41686   9.390   2.917   5.960  0.0190 -0.1626 -0.6898
  303MOL0     C41687   9.536   2.902   5.898 -1.0625  0.2122  0.1216
  303MOL0     C41688   9.562   3.014   5.803 -0.6720 -0.1212 -0.3829
  303MOL0     C41689   9.711   2.999   5.771  0.1553  0.0502  0.3628
  303MOL0     C41690   9.746   3.098   5.662  0.3194  0.3529 -0.4688
  303MOL0     C41691   9.897   3.097   5.638  0.7909  0.0164 -0.4164
  303MOL0     C41692   9.946   2.955   5.589 -0.1251 -0.1188 -0.1541
  303MOL0     N41693  10.082   2.971   5.532 -0.2739 -0.7514 -0.5177
  303MOL0     C41694  10.192   2.946   5.609  0.1368 -0.1453  0.2388
  303MOL0     C41695  10.293   2.958   5.518  0.2528 -0.0853 -1.0242
  303MOL0     C41696  10.442   2.952   5.551  0.0102  0.9546 -0.0946
  303MOL0     C41697  10.490   3.097   5.585 -0.5457 -0.4107  1.2670
  303MOL0     C41698  10.561   3.156   5.457 -0.0704 -0.6363 -0.2739
  303MOL0     C41699  10.709   3.120   5.444  0.0066 -1.0117  0.4051
  303MOL0     O41700  10.741   2.982   5.467 -0.0870 -0.1630 -0.1403
  303MOL0     C41701  10.851   2.959   5.538 -0.6127 -0.8090  0.6290
  303MOL0     C41702  10.968   3.037   5.533 -1.0081  1.3745 -0.4407
  303MOL0     C41703  11.086   3.003   5.612 -0.0586 -0.8319  0.6639
  303MOL0     C41704  11.204   3.102   5.616  1.0683  0.3393 -0.0987
  303MOL0     C41705  11.095   2.877   5.673  0.3529 -0.6074 -0.7330
  303MOL0     C41706  11.213   2.817   5.740  0.7397 -0.9091 -0.4776
  303MOL0     O41707  11.180   2.729   5.839  0.6314  0.5664  0.2504
  303MOL0     C41708  11.258   2.694   5.955  0.1777  0.5513 -0.0521
  303MOL0     C41709  11.188   2.640   6.060  0.4014  0.7960 -0.4015
  303MOL0     C41710  11.249   2.601   6.183  0.5103  0.4191  0.5844
  303MOL0     C41711  11.394   2.603   6.192 -0.2649 -0.0888  0.7372
  303MOL0     O41712  11.471   2.543   6.282  0.4954  0.2531 -0.5589
  303MOL0     C41713  11.397   2.461   6.387 -0.2566 -0.3569  0.3317
  303MOL0     C41714  11.487   2.358   6.460 -0.2647 -0.0228 -0.2005
  303MOL0     C41715  11.588   2.285   6.367  0.3493 -0.4662  0.5447
  303MOL0     C41716  11.519   2.191   6.260 -0.2103  0.1663 -0.2393
  303MOL0     C41717  11.616   2.094   6.187 -0.0596  0.0341  0.2798
  303MOL0     C41718  11.544   2.000   6.093 -0.1023  0.2024  0.1337
  303MOL0     C41719  11.560   2.022   5.947 -0.3228 -0.5758 -0.3370
  303MOL0     C41720  11.455   1.943   5.860  0.0378 -1.4230 -0.5997
  303MOL0    Cl41721  11.292   2.013   5.877 -0.1007  0.2398 -0.2944
  303MOL0     C41722  11.462   2.660   6.078 -0.8717  0.7066  0.3212
  303MOL0     C41723  11.393   2.707   5.967 -0.1109  0.7083 -0.0645
  303MOL0     O41724  11.318   2.873   5.723  0.1804 -0.3795  0.4777
  303MOL0     C41725  10.980   2.799   5.675  0.4615  0.6095 -0.2180
  303MOL0     C41726  10.863   2.840   5.613  1.0771 -0.6970 -0.3245
  303MOL0     N41727  10.238   2.988   5.393  0.2969  0.3926 -0.1822
  303MOL0     N41728  10.113   2.988   5.402 -0.1946  0.0429 -0.4376
  303MOL0     C41729   9.311   2.578   5.816  0.1299 -0.4017  0.1709
  303MOL0     C41730   9.224   2.546   5.709  0.1164 -0.5765  0.4619
  303MOL0     C41731   8.839   2.566   5.443  0.4445 -0.0166 -0.8475
  303MOL0     C41732   8.707   2.622   5.434  0.4246  0.8601 -0.4190
  303MOL0     C41733   8.600   2.563   5.367 -0.4661 -0.0302 -0.2209
  303MOL0     C41734   8.620   2.450   5.295 -0.2286  0.4542  0.3548
  303MOL0     O41735   8.523   2.390   5.214 -0.3128 -0.2514 -0.2432
  303MOL0     C41736   8.408   2.322   5.274 -0.1246 -0.3157 -0.2437
  303MOL0     C41737   8.407   2.172   5.238 -0.3696 -0.2326 -0.5048
  303MOL0     C41738   8.541   2.099   5.264  0.3873 -0.2136  0.2724
  303MOL0     C41739   8.579   2.066   5.407 -0.0002  0.2820  0.4533
  303MOL0     C41740   8.519   1.936   5.448 -0.8877  0.6986  0.5601
  303MOL0     C41741   8.478   1.841   5.505  0.8187  0.1780  0.8114
  303MOL0     C41742   8.754   2.398   5.292  0.2450 -0.9469  0.2136
  303MOL0     C41743   8.861   2.451   5.364  0.5847 -0.1820  0.7612
  303MOL0     C41744   8.987   2.376   5.368  0.6898 -0.1067  0.3827
  303MOL0     H41745   8.937   2.661   5.839  0.2674 -0.2657 -0.5438
  303MOL0     H41746   9.115   2.730   6.025 -2.4591  0.3446 -1.3851
  303MOL0     H41747   9.438   2.813   6.156  0.9479 -0.4151 -1.7533
  303MOL0     H41748   9.265   2.830   6.117 -0.7192 -0.5683 -1.9746
  303MOL0     H41749   9.314   2.914   5.882 -1.3210  2.0201  0.4209
  303MOL0     H41750   9.394   3.017   6.005  0.2361  0.0075 -1.0882
  303MOL0     H41751   9.608   2.897   5.980 -0.1400  1.4837 -0.5752
  303MOL0     H41752   9.542   2.806   5.847  0.5237 -0.1494  0.9489
  303MOL0     H41753   9.502   3.009   5.711 -0.1867  0.1597 -0.7217
  303MOL0     H41754   9.551   3.108   5.858 -0.7688 -0.7680  0.7264
  303MOL0     H41755   9.732   2.901   5.728 -0.3270  1.4770 -3.5218
  303MOL0     H41756   9.774   3.018   5.859  0.9950  0.3892 -0.3022
  303MOL0     H41757   9.692   3.069   5.571  1.5392 -1.8032 -0.5813
  303MOL0     H41758   9.719   3.202   5.682  2.9663  0.8704  0.7863
  303MOL0     H41759   9.959   3.131   5.722  1.5623  0.5670 -1.1864
  303MOL0     H41760   9.930   3.172   5.566  1.8228 -0.0002  0.0222
  303MOL0     H41761   9.948   2.873   5.662 -1.7282 -1.6930 -1.7836
  303MOL0     H41762   9.870   2.932   5.514  0.1435  2.1041 -1.1743
  303MOL0     H41763  10.198   2.917   5.713  1.2086 -0.6436  0.0547
  303MOL0     H41764  10.494   2.900   5.470 -1.8423 -2.9114  0.9812
  303MOL0     H41765  10.461   2.884   5.635  1.0501  1.7992  0.3988
  303MOL0     H41766  10.407   3.165   5.607  0.9955  2.8813 -2.0390
  303MOL0     H41767  10.553   3.098   5.675 -2.8895  1.6519  3.0455
  303MOL0     H41768  10.519   3.121   5.362  3.3056 -0.7850 -1.8588
  303MOL0     H41769  10.540   3.263   5.470 -1.4860 -0.8042 -0.9544
  303MOL0     H41770  10.743   3.137   5.342 -0.8609 -1.2859  0.0643
  303MOL0     H41771  10.767   3.191   5.505  0.6669 -0.8912 -0.3476
  303MOL0     H41772  10.971   3.124   5.470 -0.7656  2.6916  1.3086
  303MOL0     H41773  11.222   3.121   5.722 -1.3302 -0.0086  0.4196
  303MOL0     H41774  11.168   3.194   5.570  2.2215  1.1490  0.5456
  303MOL0     H41775  11.292   3.062   5.565  1.3729 -0.0697  0.7226
  303MOL0     H41776  11.081   2.625   6.057  0.4381  0.5202 -0.3549
  303MOL0     H41777  11.180   2.558   6.255 -0.7403 -0.4347 -1.0570
  303MOL0     H41778  11.352   2.524   6.464 -1.1578  2.8022 -2.5151
  303MOL0     H41779  11.322   2.391   6.349  0.1791 -0.0046 -1.2461
  303MOL0     H41780  11.545   2.416   6.533 -1.1929  0.7854 -0.0887
  303MOL0     H41781  11.421   2.294   6.519 -3.0418 -0.2795 -3.3244
  303MOL0     H41782  11.644   2.219   6.434 -0.3538  1.6661  3.4100
  303MOL0     H41783  11.652   2.359   6.319  1.2004 -2.0798 -0.9064
  303MOL0     H41784  11.467   2.254   6.186 -2.0154  0.7872  1.4670
  303MOL0     H41785  11.435   2.138   6.305  1.0029  0.3227  2.3727
  303MOL0     H41786  11.698   2.148   6.139 -0.9991  0.1071 -1.3411
  303MOL0     H41787  11.658   2.044   6.275 -0.6084  1.8845  1.6458
  303MOL0     H41788  11.436   1.992   6.112 -0.0907  1.0689  0.6297
  303MOL0     H41789  11.585   1.902   6.121  2.0908  0.1236 -2.8988
  303MOL0     H41790  11.659   1.985   5.922  0.3670 -0.5793  2.1633
  303MOL0     H41791  11.544   2.128   5.925 -0.0960 -0.5055 -0.1628
  303MOL0     H41792  11.453   1.837   5.886  0.0267 -1.4704 -0.7929
  303MOL0     H41793  11.483   1.958   5.755 -1.0782  0.8922 -0.6232
  303MOL0     H41794  11.565   2.672   6.107 -1.1214  1.9766  0.7329
  303MOL0     H41795  11.451   2.753   5.888 -0.3438  0.8102 -0.1789
  303MOL0     H41796  10.966   2.705   5.728 -2.5784  1.5026  0.7351
  303MOL0     H41797  10.781   2.768   5.614  2.4724 -2.3891 -1.7931
  303MOL0     H41798   9.417   2.560   5.803 -0.0806  0.4252 -4.1616
  303MOL0     H41799   9.259   2.495   5.621 -1.8784 -0.1792 -0.6362
  303MOL0     H41800   8.691   2.715   5.488 -1.7348  1.1799 -1.5370
  303MOL0     H41801   8.500   2.603   5.366 -0.5055 -0.1163  0.0651
  303MOL0     H41802   8.404   2.341   5.381 -0.4909  1.8153 -0.6007
  303MOL0     H41803   8.313   2.367   5.246 -0.3759  0.7368  2.0798
  303MOL0     H41804   8.368   2.163   5.137 -0.2683  0.0319 -0.5674
  303MOL0     H41805   8.330   2.125   5.300  0.4251 -0.5781  0.2441
  303MOL0     H41806   8.547   2.004   5.210 -1.4450 -0.4087  0.3350
  303MOL0     H41807   8.613   2.159   5.208 -1.0449 -2.0494 -4.0273
  303MOL0     H41808   8.544   2.147   5.472 -2.1158 -1.9660  2.3515
  303MOL0     H41809   8.688   2.063   5.418 -0.1899 -0.3485  2.6330
  303MOL0     H41810   8.424   1.768   5.563  0.5154 -0.9213 -0.8002
  303MOL0     H41811   8.768   2.315   5.224  0.0478 -1.2733  0.5618
  303MOL0     H41812   8.988   2.307   5.453 -0.0705 -0.0762  0.4223
  303MOL0     H41813   8.986   2.311   5.280  2.1276 -2.0880  1.7459
  303MOL0     H41814   9.072   2.444   5.369  1.2257 -0.7668  0.1498
  304MOL0     O41815   1.724   7.746   0.672 -0.5704 -0.3630 -0.3783
  304MOL0     C41816   1.699   7.833   0.755  0.0946  1.2922  0.0159
  304MOL0     O41817   1.781   7.936   0.796 -0.0836  0.2863  0.2393
  304MOL0     C41818   1.911   7.918   0.771  0.5414  1.3700  0.3756
  304MOL0     C41819   1.964   7.946   0.647  0.0312 -0.1238  0.0150
  304MOL0     C41820   2.099   7.926   0.617 -0.0478 -0.0019 -0.4083
  304MOL0     C41821   2.190   7.890   0.718  0.1000 -0.6741 -0.2882
  304MOL0     O41822   2.329   7.889   0.694  0.1730  0.0948  0.1943
  304MOL0     C41823   2.394   7.773   0.744  0.2978  0.4505  0.5669
  304MOL0     C41824   2.507   7.747   0.644 -0.7157  0.2032 -0.8448
  304MOL0     C41825   2.602   7.625   0.679  0.6059  0.0449  0.2993
  304MOL0     C41826   2.744   7.643   0.617  0.0868  0.2800 -0.0246
  304MOL0     C41827   2.826   7.515   0.618 -0.9147 -0.0301 -0.3367
  304MOL0     C41828   2.891   7.484   0.753 -0.1361  0.0155  0.1475
  304MOL0     C41829   2.971   7.601   0.806  0.4805 -0.7136  0.1422
  304MOL0     C41830   3.048   7.551   0.929  0.3892  1.2745  0.3521
  304MOL0     N41831   3.179   7.498   0.892  0.2721 -1.0722 -0.3555
  304MOL0     C41832   3.210   7.365   0.863  0.2433  0.3547  1.0967
  304MOL0     C41833   3.341   7.367   0.832  0.1728 -0.0132 -0.0691
  304MOL0     C41834   3.419   7.237   0.812 -0.2103  0.7135 -0.0220
  304MOL0     C41835   3.509   7.274   0.689 -0.1816  0.1546  0.8965
  304MOL0     C41836   3.571   7.143   0.623  0.1516  0.1180 -0.3054
  304MOL0     C41837   3.654   7.067   0.724 -0.0097 -0.1019  0.1953
  304MOL0     O41838   3.742   6.966   0.666  0.1278  0.6158 -0.1442
  304MOL0     C41839   3.846   6.933   0.744 -0.0124  0.2817 -0.4141
  304MOL0     C41840   3.968   6.920   0.679 -0.2897  0.1111  0.4492
  304MOL0     C41841   4.083   6.872   0.745  1.0081 -0.8097 -0.4449
  304MOL0     C41842   4.211   6.893   0.663  0.2444  0.0872 -0.0170
  304MOL0     C41843   4.075   6.822   0.874  0.1330  0.2555 -0.4545
  304MOL0     C41844   4.193   6.768   0.943  0.1834  0.4425  0.8235
  304MOL0     O41845   4.222   6.820   1.061 -0.3965  0.6556 -0.8719
  304MOL0     C41846   4.347   6.812   1.104  0.0897 -0.0854  0.2049
  304MOL0     C41847   4.456   6.874   1.040 -0.0531 -0.4890 -0.1885
  304MOL0     C41848   4.585   6.842   1.079  0.2109 -0.2981  0.5076
  304MOL0     C41849   4.610   6.748   1.189 -0.0993  0.2475 -0.3349
  304MOL0     O41850   4.733   6.712   1.237 -0.3402 -0.2493  0.3567
  304MOL0     C41851   4.840   6.715   1.143  0.5144  0.7232 -0.6957
  304MOL0     C41852   4.959   6.645   1.206  0.3910  0.3569 -0.4270
  304MOL0     C41853   4.942   6.495   1.220  0.4462  0.3288 -0.0472
  304MOL0     C41854   4.999   6.417   1.106  0.6928  0.2099 -0.0113
  304MOL0     C41855   4.970   6.266   1.120 -1.1349 -0.6121 -0.1891
  304MOL0     C41856   5.005   6.193   0.990  0.0029 -0.1848 -0.7816
  304MOL0     C41857   4.933   6.049   0.983 -0.3686  0.6921 -0.5083
  304MOL0     C41858   4.971   5.976   0.858 -1.0874  0.0729 -0.0872
  304MOL0    Cl41859   5.152   5.958   0.846 -0.0461  0.2828  0.1821
  304MOL0     C41860   4.498   6.692   1.259  0.3885 -0.1299  0.2643
  304MOL0     C41861   4.373   6.728   1.212  0.9900 -0.0925  0.1535
  304MOL0     O41862   4.251   6.677   0.887 -0.4839  0.3697  0.1509
  304MOL0     C41863   3.950   6.841   0.942  0.0374 -0.0441 -0.4623
  304MOL0     C41864   3.835   6.879   0.870  0.3207 -0.4239  0.8279
  304MOL0     N41865   3.387   7.495   0.837 -0.4009 -0.2799  0.6493
  304MOL0     N41866   3.293   7.572   0.881 -0.3430  0.2114 -0.0594
  304MOL0     C41867   2.138   7.854   0.844  0.1815  0.5762 -0.2442
  304MOL0     C41868   1.996   7.871   0.872 -0.0238 -0.4503 -0.1047
  304MOL0     C41869   1.557   7.815   0.810  0.0868  0.2589  0.0318
  304MOL0     C41870   1.455   7.742   0.736  0.2704 -0.5009  0.6673
  304MOL0     C41871   1.317   7.726   0.782 -0.1748  0.3228  0.6567
  304MOL0     C41872   1.292   7.756   0.916  0.8160  0.5345  0.2825
  304MOL0     O41873   1.164   7.730   0.962 -0.1031  0.4156 -0.0035
  304MOL0     C41874   1.052   7.808   0.913  0.0668 -0.1942 -0.2003
  304MOL0     C41875   0.924   7.722   0.924  0.4276  0.0040 -0.2823
  304MOL0     C41876   0.925   7.595   0.841 -0.6927  0.6363  0.4481
  304MOL0     C41877   0.815   7.491   0.880  0.2141 -0.9004  1.0243
  304MOL0     C41878   0.677   7.554   0.882 -0.5920  0.2694  0.0738
  304MOL0     C41879   0.574   7.597   0.907  0.8042 -0.5563 -0.2516
  304MOL0     C41880   1.389   7.823   0.993  0.2316 -0.6355  0.2670
  304MOL0     C41881   1.517   7.852   0.947  0.5088  0.3360  0.2775
  304MOL0     C41882   1.619   7.919   1.030 -0.8399 -0.5785 -1.4462
  304MOL0     H41883   1.898   7.984   0.570 -2.0725 -3.1300  0.0999
  304MOL0     H41884   2.136   7.960   0.521 -2.4988  2.8532 -0.4907
  304MOL0     H41885   2.321   7.691   0.735 -0.4572  1.1313  0.3236
  304MOL0     H41886   2.427   7.797   0.845  2.2399  0.9757 -0.1503
  304MOL0     H41887   2.465   7.734   0.544  2.2932 -1.5702 -2.0026
  304MOL0     H41888   2.573   7.834   0.637  0.2494 -0.5807 -1.8006
  304MOL0     H41889   2.607   7.611   0.787 -1.7372  2.1592  0.7881
  304MOL0     H41890   2.554   7.536   0.637 -2.3436  0.9954  1.3436
  304MOL0     H41891   2.727   7.672   0.513 -0.5501 -0.1035 -0.0354
  304MOL0     H41892   2.793   7.723   0.673 -0.5863  0.8745 -0.2740
  304MOL0     H41893   2.918   7.540   0.563 -0.5898 -0.3897  0.0403
  304MOL0     H41894   2.783   7.427   0.570  0.0820 -2.0105  2.2016
  304MOL0     H41895   2.804   7.461   0.816 -1.0060  2.6094  0.0437
  304MOL0     H41896   2.951   7.394   0.744  2.5269  1.5651  1.2884
  304MOL0     H41897   2.900   7.680   0.834 -0.8306 -1.3724 -1.1601
  304MOL0     H41898   3.039   7.646   0.734  2.5617 -0.3693  2.2077
  304MOL0     H41899   3.076   7.634   0.995 -1.2882  0.8707  1.6318
  304MOL0     H41900   2.999   7.478   0.994  1.7727  1.3153  1.4960
  304MOL0     H41901   3.137   7.285   0.853  0.7898  0.1537 -4.2052
  304MOL0     H41902   3.353   7.151   0.796 -2.1807  2.3453 -1.2474
  304MOL0     H41903   3.491   7.224   0.893 -0.4017  2.2379  0.4374
  304MOL0     H41904   3.453   7.321   0.608  1.0288 -1.2393 -0.8159
  304MOL0     H41905   3.591   7.342   0.711 -0.3776  0.8469 -0.4129
  304MOL0     H41906   3.485   7.084   0.591  1.1491 -0.7951 -1.4048
  304MOL0     H41907   3.638   7.156   0.538  0.8155  1.5602  0.3959
  304MOL0     H41908   3.717   7.142   0.775 -1.9548  0.8375  1.3558
  304MOL0     H41909   3.585   7.030   0.800 -1.0630  1.2383 -0.0641
  304MOL0     H41910   3.982   6.955   0.577  1.6541 -1.4471  0.1238
  304MOL0     H41911   4.239   6.791   0.638  0.4522 -0.2722  1.5786
  304MOL0     H41912   4.282   6.955   0.719  0.5459 -0.1520 -0.1351
  304MOL0     H41913   4.192   6.941   0.566 -0.9609 -0.7254 -0.2017
  304MOL0     H41914   4.434   6.954   0.969 -1.9920 -0.0848  0.7947
  304MOL0     H41915   4.667   6.892   1.031 -1.4639 -0.8807 -3.3386
  304MOL0     H41916   4.810   6.671   1.047  0.3597 -1.3513  0.2414
  304MOL0     H41917   4.868   6.819   1.126  0.2926  1.1570  1.3783
  304MOL0     H41918   5.052   6.667   1.152  1.4149 -2.5389 -0.0137
  304MOL0     H41919   4.970   6.679   1.309 -4.0839  1.6084 -0.1593
  304MOL0     H41920   4.834   6.490   1.233  0.3976  2.6227  0.9856
  304MOL0     H41921   4.992   6.459   1.311  2.1586 -2.0768 -1.8002
  304MOL0     H41922   5.108   6.424   1.113  0.9312 -3.4377  2.1518
  304MOL0     H41923   4.960   6.447   1.008  1.4506  0.5140 -0.2249
  304MOL0     H41924   5.034   6.234   1.203 -1.6395  1.3520  1.0529
  304MOL0     H41925   4.864   6.261   1.148 -1.5184  0.9554 -1.2202
  304MOL0     H41926   5.113   6.186   0.977 -0.0550  1.9937 -3.0951
  304MOL0     H41927   4.972   6.257   0.908 -0.4351 -0.4980 -0.8553
  304MOL0     H41928   4.825   6.057   0.972 -0.1732  2.1808 -1.5446
  304MOL0     H41929   4.954   5.996   1.077 -1.6753  1.9630  0.5340
  304MOL0     H41930   4.942   6.035   0.771  0.4491  0.4722 -0.3674
  304MOL0     H41931   4.919   5.880   0.854 -2.0070  0.5318  0.5797
  304MOL0     H41932   4.510   6.609   1.327 -2.0905 -1.2258 -0.5178
  304MOL0     H41933   4.286   6.680   1.257  0.7059 -0.8345 -1.1380
  304MOL0     H41934   3.939   6.800   1.042  2.4511  1.3252  0.4603
  304MOL0     H41935   3.732   6.871   0.904 -0.4883 -0.2409 -1.4110
  304MOL0     H41936   2.214   7.813   0.911  1.1436 -2.8587 -3.1221
  304MOL0     H41937   1.943   7.847   0.963 -2.1466  0.1267 -1.1288
  304MOL0     H41938   1.488   7.690   0.647  1.7648 -1.8486  1.9626
  304MOL0     H41939   1.262   7.655   0.721  2.1346 -0.7849 -0.2612
  304MOL0     H41940   1.046   7.901   0.969  2.7513  0.8381 -1.4339
  304MOL0     H41941   1.066   7.841   0.809 -0.7516 -0.8137 -0.5208
  304MOL0     H41942   0.836   7.783   0.899 -0.8401 -0.7553  1.9881
  304MOL0     H41943   0.913   7.692   1.029  0.2421 -0.3916 -0.4129
  304MOL0     H41944   0.912   7.614   0.734 -2.3258 -0.7023  0.3667
  304MOL0     H41945   1.022   7.544   0.848  0.6564  3.0045  0.0103
  304MOL0     H41946   0.828   7.457   0.983  1.0069 -1.1353  0.8588
  304MOL0     H41947   0.801   7.410   0.808 -1.9308  1.0871 -0.9873
  304MOL0     H41948   0.476   7.632   0.931  1.5515  0.6710  1.1152
  304MOL0     H41949   1.360   7.858   1.091 -1.6829  0.4955 -0.6241
  304MOL0     H41950   1.571   7.955   1.122 -0.5432  0.0191 -1.5185
  304MOL0     H41951   1.708   7.857   1.045 -0.4030  0.3649  0.0872
  304MOL0     H41952   1.657   8.012   0.987  1.1696 -0.5193  0.2995
  305MOL0     O41953   3.289   9.580   8.521 -0.0119  0.6799 -0.2744
  305MOL0     C41954   3.228   9.501   8.447 -0.4257 -0.4478  0.7467
  305MOL0     O41955   3.277   9.440   8.335 -0.0366  0.3628  0.5511
  305MOL0     C41956   3.399   9.472   8.294  0.4022 -0.2557 -0.4173
  305MOL0     C41957   3.425   9.565   8.195 -0.6597 -1.4263  0.1043
  305MOL0     C41958   3.558   9.602   8.170  0.0564  0.3464 -0.4193
  305MOL0     C41959   3.667   9.540   8.228 -0.5473  0.1866 -0.2157
  305MOL0     O41960   3.794   9.585   8.201  0.3150 -0.5975  0.3109
  305MOL0     C41961   3.897   9.569   8.299 -0.1577  0.4837 -0.0115
  305MOL0     C41962   4.031   9.629   8.250 -0.1868 -0.0661  0.4374
  305MOL0     C41963   4.153   9.548   8.296 -0.1038  0.2934  0.0489
  305MOL0     C41964   4.186   9.536   8.437 -0.1476  0.1311 -0.9097
  305MOL0     C41965   4.326   9.473   8.454 -0.6355 -0.0060  0.3300
  305MOL0     C41966   4.433   9.577   8.413  0.3826 -1.1326 -0.3782
  305MOL0     C41967   4.561   9.511   8.356 -0.2058  0.3641 -0.3103
  305MOL0     C41968   4.630   9.432   8.478 -0.3609  0.8570  0.1036
  305MOL0     N41969   4.668   9.520   8.590  0.5546 -0.4504 -0.9459
  305MOL0     C41970   4.789   9.591   8.584  0.6858 -0.2541 -0.5865
  305MOL0     C41971   4.786   9.665   8.697 -0.3019 -0.0765  0.0794
  305MOL0     C41972   4.895   9.761   8.732  0.3195  0.5455  0.4183
  305MOL0     C41973   4.844   9.912   8.750 -0.9684  0.1965  0.1566
  305MOL0     C41974   4.958  10.009   8.710 -0.0200  0.6745  0.2971
  305MOL0     C41975   5.083   9.973   8.791  0.3467 -0.3325 -0.5288
  305MOL0     O41976   5.176  10.080   8.790 -0.1209 -0.3904  0.0656
  305MOL0     C41977   5.279  10.088   8.876 -0.4503  0.7744 -0.3681
  305MOL0     C41978   5.322  10.217   8.905  0.2332  0.1392  0.3967
  305MOL0     C41979   5.425  10.237   8.994  0.0071  0.0580 -0.1686
  305MOL0     C41980   5.470  10.380   9.003 -0.9379  0.3164  0.8109
  305MOL0     C41981   5.497  10.135   9.061  0.1731 -0.2001  0.2651
  305MOL0     C41982   5.610  10.152   9.154  0.3260  0.0874  0.1935
  305MOL0     O41983   5.651  10.041   9.216 -0.0035  0.1448  0.6654
  305MOL0     C41984   5.761  10.042   9.295  0.1493 -0.5840  0.1428
  305MOL0     C41985   5.892  10.028   9.251 -0.0273  0.0078  0.8394
  305MOL0     C41986   6.001  10.034   9.329  0.2419  0.1865  0.0832
  305MOL0     C41987   5.981  10.062   9.461  0.2956  0.3076 -1.1565
  305MOL0     O41988   6.078  10.069   9.555  0.4287 -0.4884  0.0063
  305MOL0     C41989   6.216  10.087   9.525  0.4243  0.0702  0.5749
  305MOL0     C41990   6.271  10.139   9.655 -0.2116 -1.2432  0.5688
  305MOL0     C41991   6.419  10.149   9.648 -0.3252 -0.2111  0.0146
  305MOL0     C41992   6.469  10.149   9.793 -0.3512 -0.3818  0.0953
  305MOL0     C41993   6.625  10.130   9.806  0.4662 -0.4282 -1.0599
  305MOL0     C41994   6.705  10.250   9.747  0.6189 -1.0977  0.3278
  305MOL0     C41995   6.853  10.224   9.752  0.5995 -0.8167 -0.5021
  305MOL0     C41996   6.916  10.207   9.893  0.4696 -0.5550  0.5731
  305MOL0    Cl41997   6.953  10.029   9.928 -0.0221 -0.0430  0.4737
  305MOL0     C41998   5.854  10.074   9.511  0.2901  0.2978 -0.3192
  305MOL0     C41999   5.754  10.067   9.432 -0.3541 -0.1282 -0.5908
  305MOL0     O42000   5.658  10.269   9.164 -0.4467 -0.3810  0.6522
  305MOL0     C42001   5.452  10.004   9.035 -0.0804  0.4034  0.1428
  305MOL0     C42002   5.344   9.979   8.948 -0.3328 -0.6247 -0.5632
  305MOL0     N42003   4.670   9.641   8.767 -0.1353 -0.4721  0.7450
  305MOL0     N42004   4.603   9.548   8.707  0.1208  0.1943 -0.1300
  305MOL0     C42005   3.648   9.450   8.335  0.4539 -0.2039 -0.3724
  305MOL0     C42006   3.511   9.418   8.365  0.8325 -0.7037 -0.5410
  305MOL0     C42007   3.082   9.478   8.480  0.6036  0.5254 -0.5036
  305MOL0     C42008   3.021   9.362   8.417  0.2920 -0.5071 -0.6274
  305MOL0     C42009   2.892   9.322   8.457 -0.0712  0.0554 -0.5342
  305MOL0     C42010   2.827   9.398   8.552 -0.0441 -0.1456  1.0890
  305MOL0     O42011   2.702   9.365   8.595 -0.2703 -0.2075 -0.9833
  305MOL0     C42012   2.625   9.304   8.494 -0.4320  0.0285 -0.1176
  305MOL0     C42013   2.475   9.318   8.523  0.1959 -0.6905  0.4045
  305MOL0     C42014   2.429   9.467   8.526  0.7215  0.5668  0.1387
  305MOL0     C42015   2.284   9.482   8.537 -0.3413 -0.6343 -0.4286
  305MOL0     C42016   2.219   9.397   8.638 -0.1409 -0.1772  0.0565
  305MOL0     C42017   2.169   9.336   8.730 -0.1492  0.1897 -0.7607
  305MOL0     C42018   2.881   9.507   8.600  0.4673 -0.4195 -0.7730
  305MOL0     C42019   3.006   9.553   8.576  0.1838  0.9052  0.2172
  305MOL0     C42020   3.043   9.682   8.651 -0.5085  0.2306  0.0090
  305MOL0     H42021   3.346   9.617   8.141  0.6953  2.4316  1.4533
  305MOL0     H42022   3.589   9.678   8.099 -0.9134  1.0077 -0.1524
  305MOL0     H42023   3.919   9.463   8.310  1.2323  0.7751  0.2051
  305MOL0     H42024   3.866   9.619   8.391  0.5503  0.9569 -0.0242
  305MOL0     H42025   4.029   9.616   8.142 -1.8776 -3.1129  0.7060
  305MOL0     H42026   4.030   9.737   8.267  2.3342  0.0637  0.0731
  305MOL0     H42027   4.141   9.452   8.245 -0.2332  1.5913 -2.5566
  305MOL0     H42028   4.232   9.600   8.241  0.7018 -2.2411 -1.3676
  305MOL0     H42029   4.180   9.631   8.490  1.6040 -0.9369  1.4159
  305MOL0     H42030   4.113   9.479   8.495  0.9977 -3.1977 -2.4410
  305MOL0     H42031   4.334   9.377   8.402 -1.2916 -0.6823  1.4180
  305MOL0     H42032   4.349   9.441   8.556 -2.2360 -0.0804  0.7035
  305MOL0     H42033   4.399   9.652   8.342 -0.6198 -0.2908  0.9441
  305MOL0     H42034   4.456   9.633   8.504  0.2772 -1.4500 -0.1531
  305MOL0     H42035   4.627   9.584   8.308  0.4776 -1.2610 -1.9811
  305MOL0     H42036   4.534   9.439   8.278  0.4418 -0.0897 -0.1196
  305MOL0     H42037   4.574   9.346   8.515  1.3107  0.8896  2.9443
  305MOL0     H42038   4.721   9.387   8.438 -0.2454  1.9051 -0.8730
  305MOL0     H42039   4.867   9.579   8.509  1.4569 -0.1171  0.1773
  305MOL0     H42040   4.966   9.760   8.649  0.0118 -0.1312  0.1533
  305MOL0     H42041   4.945   9.724   8.822  3.2590  0.9722 -0.9416
  305MOL0     H42042   4.759   9.914   8.680  0.6392 -1.1142 -1.9698
  305MOL0     H42043   4.818   9.946   8.850  2.1684  0.5597  0.9261
  305MOL0     H42044   4.984  10.008   8.604 -1.5686 -1.9468 -0.1521
  305MOL0     H42045   4.912  10.107   8.727 -3.2636 -0.3984 -1.3600
  305MOL0     H42046   5.047   9.938   8.888  0.0552  1.8152  0.1965
  305MOL0     H42047   5.135   9.888   8.746  0.0947 -1.9158  1.9657
  305MOL0     H42048   5.264  10.296   8.859  0.0453 -0.1551  0.1204
  305MOL0     H42049   5.570  10.390   8.962 -1.1948  0.5588  0.2309
  305MOL0     H42050   5.460  10.402   9.110  1.9986  0.8580  1.0542
  305MOL0     H42051   5.404  10.452   8.953  0.7046  1.4072  0.1220
  305MOL0     H42052   5.913  10.020   9.145  1.9654 -2.9225  1.3463
  305MOL0     H42053   6.100  10.025   9.287  0.5510 -0.9209  0.9969
  305MOL0     H42054   6.268   9.994   9.501  0.2511 -0.3586  1.8025
  305MOL0     H42055   6.229  10.163   9.447  2.0806  0.3557  1.0969
  305MOL0     H42056   6.236  10.242   9.662  3.6391  0.7248 -3.7379
  305MOL0     H42057   6.240  10.069   9.733 -3.1594 -1.5617 -0.7314
  305MOL0     H42058   6.452  10.240   9.596 -2.2289 -0.3802 -1.6306
  305MOL0     H42059   6.454  10.054   9.608 -2.1730 -1.6545  1.6073
  305MOL0     H42060   6.425  10.082   9.867  2.4316 -0.7234  1.5742
  305MOL0     H42061   6.441  10.248   9.830 -0.0207  1.1797 -3.3892
  305MOL0     H42062   6.633  10.133   9.915  1.3793  0.0320 -1.1259
  305MOL0     H42063   6.652  10.031   9.770  4.3107  0.8973 -2.3402
  305MOL0     H42064   6.668  10.339   9.799 -0.3273 -1.0087 -0.4695
  305MOL0     H42065   6.675  10.263   9.643 -0.2293  1.8699  0.8563
  305MOL0     H42066   6.906  10.291   9.684 -3.5220  1.5157 -1.7242
  305MOL0     H42067   6.857  10.124   9.708 -1.7058 -1.1261 -0.1087
  305MOL0     H42068   6.854  10.245   9.975 -0.4212  2.4456 -1.3395
  305MOL0     H42069   7.012  10.261   9.891  0.5265 -0.6702 -1.1930
  305MOL0     H42070   5.859  10.079   9.620 -0.9632  1.0663 -0.2787
  305MOL0     H42071   5.657  10.072   9.481 -0.3031 -1.0333 -0.3822
  305MOL0     H42072   5.505   9.920   9.080  2.4520  2.2141  0.7789
  305MOL0     H42073   5.302   9.880   8.935 -1.2382  0.0264 -3.2341
  305MOL0     H42074   3.731   9.404   8.388  0.7507  0.6382 -0.0930
  305MOL0     H42075   3.483   9.348   8.443 -1.8219  0.1289 -0.6395
  305MOL0     H42076   3.064   9.305   8.336  1.1880  2.6782 -2.5666
  305MOL0     H42077   2.843   9.244   8.399 -0.5356  1.5444 -2.2460
  305MOL0     H42078   2.646   9.345   8.394  0.1345 -1.1838 -0.5170
  305MOL0     H42079   2.648   9.197   8.492 -1.1293 -0.1187 -0.8610
  305MOL0     H42080   2.461   9.265   8.617 -0.8029  1.3795  1.4927
  305MOL0     H42081   2.414   9.280   8.441  1.0797  2.6883 -2.0382
  305MOL0     H42082   2.472   9.514   8.615  3.1849 -0.5050 -0.3811
  305MOL0     H42083   2.481   9.519   8.445  1.3802  0.3547  0.4173
  305MOL0     H42084   2.232   9.455   8.445 -0.3019 -3.0675  0.2002
  305MOL0     H42085   2.264   9.588   8.555  0.9030 -0.4205 -0.2520
  305MOL0     H42086   2.111   9.289   8.807  0.6337 -0.7786 -0.7420
  305MOL0     H42087   2.812   9.568   8.656  0.4659  1.4464 -2.6794
  305MOL0     H42088   3.131   9.660   8.712  1.1706  1.0283 -2.0106
  305MOL0     H42089   3.081   9.759   8.583  0.6489 -0.4422 -0.1231
  305MOL0     H42090   2.952   9.725   8.695 -1.3542 -0.7905 -0.7227
  306MOL0     O42091   0.232   9.270  10.660 -0.1641 -0.2437 -0.3141
  306MOL0     C42092   0.210   9.162  10.711  1.2551  0.2380 -0.5330
  306MOL0     O42093   0.300   9.057  10.727 -0.9961 -0.0860 -1.0582
  306MOL0     C42094   0.425   9.079  10.668  0.8200 -0.8391  0.8706
  306MOL0     C42095   0.455   8.999  10.555 -0.6130  0.3529 -0.3585
  306MOL0     C42096   0.575   9.020  10.491 -1.3244 -0.3615 -0.1662
  306MOL0     C42097   0.668   9.128  10.520  1.0291  0.6187  0.5671
  306MOL0     O42098   0.790   9.147  10.463 -0.3890  0.3978  0.6581
  306MOL0     C42099   0.843   9.052  10.378 -0.0215  0.2340  0.9670
  306MOL0     C42100   0.961   9.103  10.288 -0.9084  0.5472  0.2095
  306MOL0     C42101   1.070   9.152  10.378  0.7087  0.3143 -0.7556
  306MOL0     C42102   1.184   9.203  10.293 -0.4811  0.1257  0.5569
  306MOL0     C42103   1.295   9.282  10.358 -0.3609  0.3277  0.5730
  306MOL0     C42104   1.343   9.227  10.495 -0.5455 -0.2424 -0.1116
  306MOL0     C42105   1.486   9.277  10.547  0.2363 -0.0280  0.2258
  306MOL0     C42106   1.528   9.203  10.673  0.6617 -0.3827 -1.2006
  306MOL0     N42107   1.676   9.189  10.687 -0.0806  0.0569 -0.2809
  306MOL0     C42108   1.754   9.254  10.778 -1.7498  0.0624 -0.3777
  306MOL0     C42109   1.878   9.210  10.756  0.5520 -0.3745  0.4434
  306MOL0     C42110   2.008   9.248  10.827  0.3001  0.2502 -0.3403
  306MOL0     C42111   2.118   9.157  10.798 -0.7372  0.5192 -0.0281
  306MOL0     C42112   2.254   9.209  10.835 -0.1014 -0.3184  0.0038
  306MOL0     C42113   2.360   9.116  10.777  0.3419 -0.5000  0.4787
  306MOL0     O42114   2.349   8.981  10.816 -0.3329  0.5559 -0.0755
  306MOL0     C42115   2.448   8.894  10.768 -1.0557 -0.4546 -1.2426
  306MOL0     C42116   2.437   8.767  10.810 -0.8194  0.2332  0.3379
  306MOL0     C42117   2.543   8.669  10.777  0.4048  0.3417  0.1970
  306MOL0     C42118   2.522   8.531  10.836 -0.4164 -0.4894 -0.0363
  306MOL0     C42119   2.662   8.703  10.704  0.2768 -0.4723 -0.0184
  306MOL0     C42120   2.786   8.619  10.684 -0.2228 -0.0790 -0.1708
  306MOL0     O42121   2.889   8.673  10.612  0.0754 -0.7438 -0.0351
  306MOL0     C42122   3.011   8.616  10.603  0.2215 -0.3358 -0.1492
  306MOL0     C42123   3.034   8.494  10.546 -0.2612  0.2631 -1.5417
  306MOL0     C42124   3.167   8.438  10.534  0.2037 -0.4172 -0.1115
  306MOL0     C42125   3.276   8.501  10.586  0.4403  0.8141  0.9871
  306MOL0     O42126   3.403   8.459  10.573 -0.0941 -0.6015 -0.2229
  306MOL0     C42127   3.431   8.339  10.496  0.8977 -0.4383  0.5356
  306MOL0     C42128   3.407   8.369  10.349 -0.0361  0.3294  0.7274
  306MOL0     C42129   3.489   8.487  10.308  0.3260 -0.4323  0.2944
  306MOL0     C42130   3.496   8.501  10.156  0.8101  0.7084 -0.6493
  306MOL0     C42131   3.357   8.521  10.084  0.1829 -0.2721 -0.3602
  306MOL0     C42132   3.276   8.385  10.061  0.2339 -0.1265  0.0171
  306MOL0     C42133   3.209   8.402   9.922  0.9922  0.9231 -0.0936
  306MOL0     C42134   3.081   8.322   9.908 -0.7091 -0.1488 -0.2771
  306MOL0    Cl42135   2.967   8.353  10.049 -0.3890  0.1786 -0.6955
  306MOL0     C42136   3.247   8.628  10.639 -0.2600 -0.2460  0.2134
  306MOL0     C42137   3.120   8.685  10.649 -0.6045  0.6436  0.2567
  306MOL0     O42138   2.792   8.513  10.743  0.2335 -0.4795 -0.2866
  306MOL0     C42139   2.660   8.834  10.653 -1.0483 -0.7175  0.3918
  306MOL0     C42140   2.559   8.928  10.684  1.2825 -0.6226  1.0252
  306MOL0     N42141   1.876   9.116  10.659 -0.5303 -0.4698 -0.2097
  306MOL0     N42142   1.751   9.103  10.614 -0.0396  0.6607 -0.0721
  306MOL0     C42143   0.636   9.208  10.632  0.7422 -0.7498  0.3883
  306MOL0     C42144   0.516   9.184  10.703  0.0534  0.6863 -0.4168
  306MOL0     C42145   0.068   9.144  10.762 -0.2081  0.3670 -0.0891
  306MOL0     C42146   0.036   9.016  10.806 -0.1473  0.7677 -0.3549
  306MOL0     C42147  -0.080   8.992  10.883 -0.4141  0.6316 -0.2111
  306MOL0     C42148  -0.161   9.100  10.917 -0.1056  0.3150  0.0587
  306MOL0     O42149  -0.276   9.092  10.986 -0.0769  0.3897 -0.2854
  306MOL0     C42150  -0.311   8.974  11.061  0.3322 -0.3764  0.2079
  306MOL0     C42151  -0.386   8.877  10.967  1.0549 -0.1505 -0.0173
  306MOL0     C42152  -0.471   8.767  11.023  0.1578  0.0081  0.1518
  306MOL0     C42153  -0.386   8.654  11.083  0.7003 -0.3794  0.0183
  306MOL0     C42154  -0.458   8.560  11.180 -0.0922  0.0440 -0.0020
  306MOL0     C42155  -0.509   8.491  11.265 -1.2927  0.6514  0.6635
  306MOL0     C42156  -0.140   9.221  10.864 -0.3987 -0.1643 -0.5101
  306MOL0     C42157  -0.022   9.245  10.784 -0.5978  0.2165  0.5357
  306MOL0     C42158  -0.005   9.380  10.744  0.2359 -0.4471 -0.4106
  306MOL0     H42159   0.389   8.921  10.517 -0.4640 -1.0745  2.0913
  306MOL0     H42160   0.595   8.950  10.411  1.9711  0.4714 -0.2359
  306MOL0     H42161   0.765   9.018  10.309 -0.5101  1.1607  1.0441
  306MOL0     H42162   0.865   8.962  10.435  1.4758 -0.3596 -0.4647
  306MOL0     H42163   1.002   9.019  10.231 -2.4095 -0.7658  0.9950
  306MOL0     H42164   0.924   9.177  10.215 -3.1302 -1.7341 -1.1577
  306MOL0     H42165   1.032   9.238  10.432  1.8880 -0.4037  1.3247
  306MOL0     H42166   1.101   9.068  10.442  1.9573 -0.7312 -2.6125
  306MOL0     H42167   1.225   9.118  10.238 -0.4783  1.5650 -1.8446
  306MOL0     H42168   1.140   9.264  10.214 -3.0345  0.8942  2.4547
  306MOL0     H42169   1.257   9.384  10.371  0.1098  0.5115  0.5283
  306MOL0     H42170   1.378   9.299  10.289 -3.3837  1.8278 -3.0318
  306MOL0     H42171   1.269   9.225  10.576 -0.6096  0.0446 -0.1623
  306MOL0     H42172   1.353   9.120  10.476  1.7767 -0.7819  3.2313
  306MOL0     H42173   1.482   9.386  10.555 -1.2778  0.0136 -0.6686
  306MOL0     H42174   1.560   9.254  10.470 -0.8464 -2.6543 -0.1625
  306MOL0     H42175   1.494   9.256  10.763 -1.4541 -0.2935 -2.0016
  306MOL0     H42176   1.488   9.101  10.675 -1.8495  0.5271 -1.0927
  306MOL0     H42177   1.726   9.333  10.847 -1.2135  0.7036 -0.8706
  306MOL0     H42178   1.991   9.255  10.935  0.2568  0.4754 -0.3617
  306MOL0     H42179   2.026   9.350  10.793 -1.2110  1.6913  2.7146
  306MOL0     H42180   2.099   9.059  10.844 -1.0146  0.2556 -0.6954
  306MOL0     H42181   2.119   9.134  10.691 -0.7257 -2.5556  0.5265
  306MOL0     H42182   2.261   9.310  10.794 -0.8044 -0.0082  0.6090
  306MOL0     H42183   2.263   9.205  10.944  1.8356  3.3967  0.1472
  306MOL0     H42184   2.353   9.134  10.670 -2.7908 -1.9579  0.3397
  306MOL0     H42185   2.460   9.154  10.797 -0.3965  2.1721 -0.5185
  306MOL0     H42186   2.358   8.720  10.868  0.2876 -0.6589  1.1798
  306MOL0     H42187   2.421   8.526  10.879 -0.8056  0.2006 -0.8402
  306MOL0     H42188   2.587   8.503  10.919 -0.0921  0.0740 -0.0906
  306MOL0     H42189   2.521   8.459  10.754  1.6735  0.8187 -1.2910
  306MOL0     H42190   2.952   8.431  10.511  0.1584 -1.0548 -0.2800
  306MOL0     H42191   3.177   8.344  10.481  0.1407 -1.2471  1.3182
  306MOL0     H42192   3.538   8.319  10.513  1.1159  1.1321  1.1523
  306MOL0     H42193   3.372   8.252  10.525  1.1074 -0.7840 -0.0505
  306MOL0     H42194   3.441   8.284  10.290  1.4364  0.7426  0.9482
  306MOL0     H42195   3.300   8.389  10.334 -0.3301 -2.1697 -1.1240
  306MOL0     H42196   3.586   8.489  10.358  0.6152  1.7504 -0.2356
  306MOL0     H42197   3.441   8.579  10.343  0.0602 -0.7478  0.7638
  306MOL0     H42198   3.539   8.412  10.110 -2.4774 -0.3444 -1.9425
  306MOL0     H42199   3.561   8.587  10.139  1.2856  0.5633  0.3394
  306MOL0     H42200   3.289   8.585  10.141  0.5153  2.1975 -2.5337
  306MOL0     H42201   3.373   8.578   9.992 -2.1317  1.4921  0.2318
  306MOL0     H42202   3.202   8.370  10.140  0.0407  3.3434  0.6492
  306MOL0     H42203   3.335   8.292  10.054 -1.4868 -1.2953  0.4295
  306MOL0     H42204   3.273   8.363   9.843  2.0231  0.8590  0.7554
  306MOL0     H42205   3.200   8.507   9.892  2.2626  0.6339 -1.6059
  306MOL0     H42206   3.102   8.215   9.900  1.9762  0.3771 -1.5167
  306MOL0     H42207   3.033   8.356   9.816 -0.1998 -3.2001 -1.7668
  306MOL0     H42208   3.320   8.684  10.697 -1.3449 -0.4815  1.8636
  306MOL0     H42209   3.110   8.780  10.700 -1.0166  1.3733 -1.1348
  306MOL0     H42210   2.742   8.874  10.594 -0.2993  0.2276  2.0301
  306MOL0     H42211   2.574   9.026  10.642 -0.9033 -1.3799 -1.7833
  306MOL0     H42212   0.702   9.290  10.655  1.0299 -0.4919 -1.2132
  306MOL0     H42213   0.492   9.248  10.787 -0.8689 -0.4547  0.2148
  306MOL0     H42214   0.101   8.929  10.800 -0.4183  0.6034 -1.0519
  306MOL0     H42215  -0.109   8.892  10.915 -1.3992  1.2383  0.8604
  306MOL0     H42216  -0.222   8.919  11.092 -0.5162 -1.9073 -0.0117
  306MOL0     H42217  -0.377   9.004  11.143 -1.0295  0.4702 -1.1425
  306MOL0     H42218  -0.311   8.830  10.903  0.5077 -4.1483  1.9576
  306MOL0     H42219  -0.451   8.938  10.903  0.7872 -0.1170  0.2818
  306MOL0     H42220  -0.547   8.793  11.098 -0.1903  0.0433 -0.2068
  306MOL0     H42221  -0.527   8.737  10.934  0.2823 -1.3465  0.5052
  306MOL0     H42222  -0.300   8.690  11.138  0.7437 -1.9777  1.0642
  306MOL0     H42223  -0.346   8.599  10.997  0.7219  1.6478 -1.3559
  306MOL0     H42224  -0.551   8.422  11.336 -1.1069 -0.8703 -0.6567
  306MOL0     H42225  -0.211   9.300  10.887  0.3710  0.3522  0.1529
  306MOL0     H42226   0.085   9.418  10.793  0.1063 -0.8393  0.1372
  306MOL0     H42227   0.006   9.379  10.635 -0.3158  0.5871 -0.4872
  306MOL0     H42228  -0.094   9.439  10.768  0.8871  1.3825 -2.2103
  307MOL0     O42229   0.057   9.649   8.955 -0.3297  0.1131  0.4349
  307MOL0     C42230   0.010   9.571   8.877  0.0166 -0.5952 -0.0825
  307MOL0     O42231   0.080   9.508   8.781 -0.5089  0.2256  0.2156
  307MOL0     C42232   0.221   9.495   8.787 -0.1766 -0.0177  0.2311
  307MOL0     C42233   0.305   9.572   8.858  0.0204 -0.0414 -0.2078
  307MOL0     C42234   0.444   9.544   8.867  0.2238  0.6551  0.0974
  307MOL0     C42235   0.502   9.448   8.778  0.2295  0.5058 -0.5026
  307MOL0     O42236   0.639   9.438   8.797  0.0243  0.3867  0.2201
  307MOL0     C42237   0.685   9.301   8.798  0.4224  0.1323  0.5596
  307MOL0     C42238   0.820   9.281   8.876  0.3408  0.6189 -0.1900
  307MOL0     C42239   0.935   9.355   8.805 -0.3204 -0.3196 -0.5279
  307MOL0     C42240   1.060   9.346   8.898  0.3723  0.7383  0.3020
  307MOL0     C42241   1.193   9.380   8.830  0.2440  0.4549 -0.5118
  307MOL0     C42242   1.192   9.509   8.764 -0.1880 -0.2704  0.3097
  307MOL0     C42243   1.332   9.553   8.703 -0.3811  0.6921  0.2852
  307MOL0     C42244   1.384   9.455   8.590 -0.3038  0.3139  0.2706
  307MOL0     N42245   1.526   9.492   8.576  0.6265 -0.9697 -0.1630
  307MOL0     C42246   1.631   9.472   8.652  0.0776  0.3632 -0.7297
  307MOL0     C42247   1.729   9.528   8.593 -0.8220  0.0564 -0.6726
  307MOL0     C42248   1.869   9.528   8.644  0.4354 -0.0158 -0.1935
  307MOL0     C42249   1.915   9.637   8.740 -0.6978  0.0991  0.0075
  307MOL0     C42250   1.951   9.771   8.669 -0.2095 -0.1722 -0.3656
  307MOL0     C42251   1.998   9.877   8.769 -1.3538  0.9374  0.8545
  307MOL0     O42252   2.116   9.834   8.840  0.6132 -0.1542 -0.0701
  307MOL0     C42253   2.234   9.827   8.768  0.7280 -0.5167  0.0630
  307MOL0     C42254   2.342   9.764   8.824 -0.1881  0.1819 -0.5730
  307MOL0     C42255   2.469   9.754   8.768  0.2834 -0.5285  0.7711
  307MOL0     C42256   2.586   9.718   8.858  0.1766 -0.3340 -0.1424
  307MOL0     C42257   2.487   9.810   8.642 -0.1477 -0.1058 -1.4938
  307MOL0     C42258   2.615   9.830   8.566 -0.4836  0.7603 -0.0762
  307MOL0     O42259   2.616   9.821   8.431 -0.8911  0.2801  0.9444
  307MOL0     C42260   2.726   9.854   8.359 -1.0851 -1.0007 -0.0365
  307MOL0     C42261   2.826   9.762   8.339 -0.7140  0.7992 -0.7840
  307MOL0     C42262   2.940   9.794   8.271  0.6714  0.2251  0.2537
  307MOL0     C42263   2.967   9.920   8.223  0.5102 -0.1855  0.6664
  307MOL0     O42264   3.090   9.925   8.163 -0.1791 -0.7759 -0.5489
  307MOL0     C42265   3.100  10.020   8.059  0.1167  0.8334  0.8949
  307MOL0     C42266   3.230   9.997   7.978 -0.2610  0.0066  0.0118
  307MOL0     C42267   3.353  10.006   8.069  0.5522 -0.0946 -0.0019
  307MOL0     C42268   3.490  10.035   7.991 -0.3228 -0.0161 -0.1944
  307MOL0     C42269   3.613  10.000   8.073  0.1495 -0.3707 -0.2058
  307MOL0     C42270   3.610  10.060   8.209 -0.0054 -0.9508  0.3304
  307MOL0     C42271   3.750  10.065   8.275  0.4125 -0.4386 -0.1824
  307MOL0     C42272   3.751  10.075   8.437  0.0808  0.5293  0.0302
  307MOL0    Cl42273   3.685  10.229   8.490  0.0421 -0.1034  0.0868
  307MOL0     C42274   2.861  10.015   8.234 -0.4500  0.0306 -0.5037
  307MOL0     C42275   2.740   9.983   8.297 -0.4710 -0.2247  0.1790
  307MOL0     O42276   2.712   9.859   8.634 -0.2043  0.7632 -0.2959
  307MOL0     C42277   2.377   9.867   8.564  0.9050  0.4473  0.5077
  307MOL0     C42278   2.252   9.865   8.625  0.7677  0.8127  0.0344
  307MOL0     N42279   1.694   9.577   8.475  1.6068 -0.8122 -0.0540
  307MOL0     N42280   1.566   9.570   8.467  0.4513  0.1893 -0.0274
  307MOL0     C42281   0.418   9.375   8.692 -0.8099 -0.7339 -0.1481
  307MOL0     C42282   0.282   9.395   8.708  0.3321  0.2074 -0.0490
  307MOL0     C42283  -0.137   9.566   8.866 -0.2151  0.2559  0.5785
  307MOL0     C42284  -0.190   9.523   8.744 -0.0017 -0.2765 -0.0657
  307MOL0     C42285  -0.329   9.524   8.730  0.1511  0.2488  0.5107
  307MOL0     C42286  -0.420   9.548   8.821  0.4241  0.8403 -0.2188
  307MOL0     O42287  -0.557   9.535   8.794  0.1235 -0.0753 -0.1427
  307MOL0     C42288  -0.657   9.615   8.864  0.7255  0.4118 -0.3820
  307MOL0     C42289  -0.788   9.610   8.794 -0.2639 -0.1869  0.1688
  307MOL0     C42290  -0.908   9.668   8.875 -0.1737 -0.0550  0.0514
  307MOL0     C42291  -1.038   9.668   8.797 -0.1483  0.1595  0.4589
  307MOL0     C42292  -1.156   9.719   8.864 -0.2188  0.0950 -0.3659
  307MOL0     C42293  -1.264   9.750   8.907 -0.2028 -0.3712 -0.5417
  307MOL0     C42294  -0.377   9.594   8.949 -0.3990 -0.9564  0.3585
  307MOL0     C42295  -0.233   9.598   8.971  0.4181 -0.2447  0.5660
  307MOL0     C42296  -0.198   9.641   9.113 -0.5547 -0.1144  0.3517
  307MOL0     H42297   0.269   9.658   8.914  0.4924 -0.3354  0.5646
  307MOL0     H42298   0.505   9.603   8.935 -2.6294  2.7917  1.0178
  307MOL0     H42299   0.701   9.275   8.693 -2.3137 -0.3114  0.1739
  307MOL0     H42300   0.608   9.231   8.830  0.6231 -0.5018 -0.3355
  307MOL0     H42301   0.811   9.319   8.978  0.3431 -3.5354  1.5470
  307MOL0     H42302   0.829   9.174   8.897 -1.3343  0.4213 -0.2894
  307MOL0     H42303   0.947   9.313   8.705 -3.9918  2.5857 -2.4028
  307MOL0     H42304   0.914   9.461   8.792  0.8515 -0.3345 -3.1309
  307MOL0     H42305   1.041   9.413   8.982 -0.1488  1.2992 -0.2529
  307MOL0     H42306   1.068   9.243   8.933  0.8549 -0.9721 -4.1635
  307MOL0     H42307   1.218   9.302   8.757  0.3895 -0.9310  0.9609
  307MOL0     H42308   1.275   9.374   8.901  0.6300  1.8638 -0.8053
  307MOL0     H42309   1.116   9.504   8.686  1.5536 -1.5018 -1.3841
  307MOL0     H42310   1.171   9.590   8.834  0.1180  0.0585  0.0247
  307MOL0     H42311   1.405   9.560   8.783  1.6330  0.7578 -1.4630
  307MOL0     H42312   1.331   9.658   8.671 -1.5373  0.4628 -0.4857
  307MOL0     H42313   1.380   9.349   8.614  3.5555 -0.3281 -1.1405
  307MOL0     H42314   1.330   9.462   8.495 -0.3175 -2.0819  0.0606
  307MOL0     H42315   1.639   9.415   8.744  1.3026 -2.4578 -2.4749
  307MOL0     H42316   1.931   9.529   8.554  1.6129  1.7273  0.5738
  307MOL0     H42317   1.886   9.435   8.700  1.6445  0.1508 -0.2578
  307MOL0     H42318   1.835   9.662   8.810 -3.0275  0.8916 -2.7254
  307MOL0     H42319   2.005   9.609   8.796 -1.0925  1.6926  1.5382
  307MOL0     H42320   2.024   9.745   8.592 -1.0254  3.1263 -2.4775
  307MOL0     H42321   1.858   9.808   8.625  0.3669 -0.0313 -1.4884
  307MOL0     H42322   2.022   9.965   8.709 -0.8870  0.3752  0.1902
  307MOL0     H42323   1.913   9.900   8.833 -2.8561  0.4829 -0.8745
  307MOL0     H42324   2.321   9.736   8.926 -2.3474  1.2194 -0.6605
  307MOL0     H42325   2.657   9.659   8.800 -1.9685 -2.8866 -0.3882
  307MOL0     H42326   2.552   9.647   8.934 -2.4522 -0.4200 -1.2976
  307MOL0     H42327   2.625   9.810   8.903 -0.4504  1.3762 -2.8652
  307MOL0     H42328   2.806   9.657   8.357 -0.2518  0.2970 -3.0051
  307MOL0     H42329   3.015   9.716   8.266  1.2629  0.7776  0.2915
  307MOL0     H42330   3.018  10.001   7.990  0.9177 -3.2713  0.8474
  307MOL0     H42331   3.091  10.119   8.106  0.5231  0.7164  1.2218
  307MOL0     H42332   3.238   9.895   7.938 -0.6797 -1.0699  2.4609
  307MOL0     H42333   3.231  10.071   7.898 -0.3900  0.7492  0.6812
  307MOL0     H42334   3.363   9.916   8.129  1.9115 -1.6931 -2.4663
  307MOL0     H42335   3.327  10.081   8.144 -3.8151 -3.3853  2.2272
  307MOL0     H42336   3.500  10.137   7.952  2.4468 -0.2789 -0.3758
  307MOL0     H42337   3.500   9.973   7.902  0.8120 -0.6399  0.3497
  307MOL0     H42338   3.627   9.892   8.072 -2.7903 -0.8238 -1.2303
  307MOL0     H42339   3.700  10.050   8.028 -0.7702  1.8131  0.3351
  307MOL0     H42340   3.542  10.002   8.272  0.6720 -1.8709  0.2174
  307MOL0     H42341   3.575  10.163   8.191  1.0783 -0.5009  0.7047
  307MOL0     H42342   3.792  10.160   8.241 -2.7057  1.6644  1.3309
  307MOL0     H42343   3.813   9.981   8.243  1.3679 -1.0919  3.0391
  307MOL0     H42344   3.849  10.048   8.478  0.3709  0.5645 -0.6408
  307MOL0     H42345   3.694   9.996   8.487 -0.2419  2.5628  3.2194
  307MOL0     H42346   2.878  10.118   8.207  0.7955  0.6559  2.3107
  307MOL0     H42347   2.675  10.069   8.309 -0.2271  0.2385 -1.5356
  307MOL0     H42348   2.388   9.904   8.462 -1.6326 -2.0202 -0.7936
  307MOL0     H42349   2.176   9.897   8.555  0.8702  0.4818 -0.2343
  307MOL0     H42350   0.451   9.309   8.612 -1.4370  0.7020 -1.6513
  307MOL0     H42351   0.215   9.326   8.659 -1.8906  1.7063  0.7571
  307MOL0     H42352  -0.137   9.502   8.652  1.7822  0.9028  0.6504
  307MOL0     H42353  -0.369   9.502   8.631  1.8190  1.0965 -0.3968
  307MOL0     H42354  -0.679   9.575   8.963  0.6026  1.0760 -0.1305
  307MOL0     H42355  -0.611   9.715   8.868 -0.8262  1.1574 -0.2324
  307MOL0     H42356  -0.816   9.507   8.771 -1.7812 -0.0359  1.2816
  307MOL0     H42357  -0.784   9.660   8.696 -0.0990 -1.0438 -0.2744
  307MOL0     H42358  -0.909   9.613   8.970 -1.5347 -0.2990 -0.0812
  307MOL0     H42359  -0.887   9.774   8.896  2.5391 -0.3211 -0.9646
  307MOL0     H42360  -1.053   9.565   8.761  1.6004  0.0902 -0.1566
  307MOL0     H42361  -1.034   9.744   8.719  2.4548  0.0750  0.4263
  307MOL0     H42362  -1.350   9.796   8.951 -0.3386 -1.6472  0.5828
  307MOL0     H42363  -0.454   9.605   9.024  0.5912  1.0139  1.1448
  307MOL0     H42364  -0.194   9.750   9.120  2.8129 -0.1666  0.8029
  307MOL0     H42365  -0.256   9.587   9.189 -0.3854 -1.8908 -0.7342
  307MOL0     H42366  -0.094   9.613   9.132  0.6491  4.0856  1.0129
  308MOL0     O42367   1.828  10.733   2.782 -0.2654 -0.1173 -0.5172
  308MOL0     C42368   1.895  10.631   2.761 -0.7053  0.1259  0.7975
  308MOL0     O42369   2.033  10.629   2.743 -0.1415 -0.0906 -0.6299
  308MOL0     C42370   2.103  10.746   2.722 -0.5636  0.0873 -0.4428
  308MOL0     C42371   2.208  10.773   2.629  0.3727  0.1830  0.5579
  308MOL0     C42372   2.291  10.889   2.637  0.5344 -0.3217  0.2066
  308MOL0     C42373   2.261  10.992   2.732 -0.2145 -0.4828  0.0800
  308MOL0     O42374   2.333  11.114   2.745  0.0860  0.7442 -0.3251
  308MOL0     C42375   2.288  11.207   2.853 -0.8612 -0.2076 -0.2594
  308MOL0     C42376   2.394  11.323   2.866 -0.8568  0.6266  0.1231
  308MOL0     C42377   2.537  11.269   2.890 -0.3918  0.8178  0.0291
  308MOL0     C42378   2.637  11.378   2.878 -0.3924  0.5885  0.4486
  308MOL0     C42379   2.771  11.320   2.900 -0.0185  0.4891 -0.5880
  308MOL0     C42380   2.810  11.262   3.035  0.2686  0.4475 -0.3776
  308MOL0     C42381   2.787  11.352   3.153  0.0860  0.0860  1.2728
  308MOL0     C42382   2.846  11.490   3.145 -0.0894 -0.5796 -0.4559
  308MOL0     N42383   2.986  11.503   3.116  0.0274 -0.6116  0.7892
  308MOL0     C42384   3.082  11.424   3.161  0.5152 -0.5430  0.3195
  308MOL0     C42385   3.197  11.472   3.105  0.5923 -0.0487 -0.4795
  308MOL0     C42386   3.326  11.397   3.115 -0.6581  0.0514  0.4370
  308MOL0     C42387   3.443  11.489   3.059  1.0506  0.0866  0.9227
  308MOL0     C42388   3.575  11.453   3.123 -0.2078  0.3903  1.0473
  308MOL0     C42389   3.686  11.532   3.067 -0.2018  0.9200 -0.5174
  308MOL0     O42390   3.796  11.448   3.077 -0.4877  0.0126 -0.8724
  308MOL0     C42391   3.900  11.503   3.142 -0.5843  0.3695  0.6151
  308MOL0     C42392   3.922  11.499   3.279 -0.2823  1.0492  0.1623
  308MOL0     C42393   4.035  11.549   3.331 -0.5842  0.0029  0.0108
  308MOL0     C42394   4.046  11.529   3.475 -0.1935 -0.3426 -1.0863
  308MOL0     C42395   4.133  11.615   3.250 -0.0906  0.1600 -0.1479
  308MOL0     C42396   4.270  11.659   3.291 -0.4636  0.0029  0.7216
  308MOL0     O42397   4.334  11.746   3.213 -0.0085  0.5700 -0.2144
  308MOL0     C42398   4.470  11.768   3.212  0.1541  0.5186  0.3080
  308MOL0     C42399   4.572  11.719   3.304  0.5050 -0.1006  0.9149
  308MOL0     C42400   4.700  11.776   3.301  0.7874 -1.1340 -0.5721
  308MOL0     C42401   4.742  11.871   3.207  0.8531  0.4327  0.1838
  308MOL0     O42402   4.860  11.944   3.216 -0.4752 -0.5930  0.3963
  308MOL0     C42403   4.951  11.923   3.321 -0.2810 -0.0208  0.1536
  308MOL0     C42404   5.077  12.016   3.313  0.4176  0.3078  0.3582
  308MOL0     C42405   5.040  12.158   3.331 -0.2959 -0.4635 -0.5649
  308MOL0     C42406   5.158  12.261   3.318  0.5383  0.0102  0.6194
  308MOL0     C42407   5.112  12.404   3.374  0.1962  0.6038 -0.2985
  308MOL0     C42408   5.242  12.480   3.422  0.9268 -0.1229  1.0159
  308MOL0     C42409   5.205  12.623   3.479 -0.5920 -0.3068 -0.1237
  308MOL0     C42410   5.332  12.699   3.511 -0.5721 -0.2862 -0.6706
  308MOL0    Cl42411   5.415  12.760   3.368 -0.2154  0.1695  0.4606
  308MOL0     C42412   4.644  11.900   3.109 -0.0839 -0.5837  0.9217
  308MOL0     C42413   4.512  11.865   3.119 -0.1463  0.1091 -0.0866
  308MOL0     O42414   4.309  11.622   3.394 -0.5849 -0.6307 -1.2875
  308MOL0     C42415   4.109  11.627   3.112 -0.3062 -0.6419 -0.5643
  308MOL0     C42416   3.994  11.573   3.064 -0.1332  0.2588  0.3949
  308MOL0     N42417   3.161  11.594   3.045 -0.0417  0.3938  0.2934
  308MOL0     N42418   3.034  11.606   3.039  0.1284 -0.3010 -0.4086
  308MOL0     C42419   2.160  10.971   2.821 -0.1701 -0.4768  0.4698
  308MOL0     C42420   2.089  10.848   2.821 -0.2919 -0.1760 -0.6267
  308MOL0     C42421   1.823  10.497   2.745 -0.0871 -1.5883 -0.3262
  308MOL0     C42422   1.691  10.510   2.699  0.0578  0.4337 -0.2632
  308MOL0     C42423   1.608  10.401   2.674 -0.3580  0.3481 -0.3100
  308MOL0     C42424   1.651  10.278   2.717 -0.2080 -0.2291  0.4810
  308MOL0     O42425   1.580  10.163   2.685  0.0634 -0.2943  0.3892
  308MOL0     C42426   1.518  10.169   2.556 -0.3344  0.9438  1.4582
  308MOL0     C42427   1.471  10.026   2.517  0.1742 -0.5415 -0.7266
  308MOL0     C42428   1.339   9.981   2.580  0.9212  0.8155 -0.2838
  308MOL0     C42429   1.338   9.982   2.737 -0.0189  0.3203  0.5481
  308MOL0     C42430   1.317  10.113   2.795 -0.3747 -0.0073  0.6316
  308MOL0     C42431   1.305  10.217   2.851 -0.5542  0.2323  0.9078
  308MOL0     C42432   1.778  10.260   2.766  0.1044  0.9028  1.1409
  308MOL0     C42433   1.862  10.374   2.786  0.2055  0.2343 -0.2046
  308MOL0     C42434   1.996  10.345   2.849  0.2483 -0.2638  0.2139
  308MOL0     H42435   2.229  10.697   2.554  0.4491  0.9988 -0.2739
  308MOL0     H42436   2.372  10.904   2.566  0.5734 -1.7701 -0.0925
  308MOL0     H42437   2.293  11.161   2.952 -0.3902  2.4542  1.0468
  308MOL0     H42438   2.187  11.248   2.846 -1.5157 -1.4754  1.3029
  308MOL0     H42439   2.389  11.384   2.776 -0.5920  2.0410  1.0259
  308MOL0     H42440   2.367  11.383   2.954  0.7655  0.9001  0.4697
  308MOL0     H42441   2.535  11.226   2.990 -1.4926 -1.6937 -0.9834
  308MOL0     H42442   2.553  11.185   2.822 -1.3052 -1.0850  2.0504
  308MOL0     H42443   2.632  11.415   2.775 -1.2553  1.5261  0.8067
  308MOL0     H42444   2.625  11.462   2.947  2.3415  0.7462  0.8207
  308MOL0     H42445   2.851  11.390   2.874  1.2951 -0.1572  1.4274
  308MOL0     H42446   2.782  11.237   2.829 -2.5295 -2.0525  1.7494
  308MOL0     H42447   2.766  11.163   3.047 -2.2484  1.1861 -2.6126
  308MOL0     H42448   2.917  11.246   3.022  0.3578  1.0667 -0.4179
  308MOL0     H42449   2.819  11.299   3.243 -1.3044 -0.6528  1.3704
  308MOL0     H42450   2.681  11.376   3.164  0.4596  0.7310  4.0319
  308MOL0     H42451   2.789  11.551   3.074  0.9646 -1.7427 -2.4228
  308MOL0     H42452   2.829  11.529   3.245 -0.6479 -1.3878 -0.2288
  308MOL0     H42453   3.079  11.330   3.214  0.4754  0.1717  1.6276
  308MOL0     H42454   3.328  11.307   3.052 -3.2672 -0.1580  0.5526
  308MOL0     H42455   3.344  11.370   3.220 -0.5436  1.8268  0.9042
  308MOL0     H42456   3.448  11.493   2.950  0.6671 -1.7365  0.8028
  308MOL0     H42457   3.419  11.593   3.083 -3.4397 -0.5564  0.0576
  308MOL0     H42458   3.577  11.467   3.232  1.2497  0.8414  0.9773
  308MOL0     H42459   3.582  11.345   3.107 -0.1007  0.6041 -0.4054
  308MOL0     H42460   3.677  11.553   2.960 -1.4913  2.5906 -0.1350
  308MOL0     H42461   3.694  11.622   3.129  1.6861  0.5845 -0.2150
  308MOL0     H42462   3.853  11.443   3.341 -0.3636  0.1089 -0.7653
  308MOL0     H42463   4.053  11.622   3.531 -0.0412 -0.3476 -1.0964
  308MOL0     H42464   4.135  11.474   3.508  0.1949  1.4201  1.0273
  308MOL0     H42465   3.968  11.462   3.513  1.8717 -1.1914  2.0696
  308MOL0     H42466   4.556  11.639   3.374  0.8096 -1.6903 -0.7466
  308MOL0     H42467   4.758  11.768   3.392  0.4177 -0.1981 -0.2385
  308MOL0     H42468   4.900  11.943   3.415  1.1566 -2.8597  1.6489
  308MOL0     H42469   4.988  11.820   3.320  2.9326  1.0188 -1.2393
  308MOL0     H42470   5.145  11.978   3.389 -0.5285 -1.0334  0.5624
  308MOL0     H42471   5.123  11.996   3.216  1.1243  0.2214  0.7006
  308MOL0     H42472   4.989  12.155   3.428 -0.4907 -0.2747 -0.6600
  308MOL0     H42473   4.971  12.178   3.248 -0.1936 -3.2300 -1.4009
  308MOL0     H42474   5.186  12.275   3.213  4.8986 -0.0343  1.5693
  308MOL0     H42475   5.250  12.227   3.367  1.5883  2.3304  0.4408
  308MOL0     H42476   5.046  12.455   3.303 -1.8545 -0.9019  0.4342
  308MOL0     H42477   5.049  12.385   3.461 -0.4425 -2.1954 -1.2714
  308MOL0     H42478   5.306  12.470   3.333 -0.8230 -1.1520 -0.1795
  308MOL0     H42479   5.289  12.425   3.503  1.7633  0.5007  0.9758
  308MOL0     H42480   5.153  12.597   3.572  0.1896 -0.8602  0.1655
  308MOL0     H42481   5.138  12.675   3.410  0.9486 -0.4219 -1.7544
  308MOL0     H42482   5.393  12.627   3.568 -1.0266 -1.1154 -1.2110
  308MOL0     H42483   5.321  12.783   3.580  0.3061 -0.8139  0.1431
  308MOL0     H42484   4.675  11.960   3.024 -2.6313 -1.5526 -0.8040
  308MOL0     H42485   4.439  11.903   3.048 -0.8731 -3.6215 -1.5638
  308MOL0     H42486   4.172  11.686   3.046 -0.1741 -0.0103  0.1174
  308MOL0     H42487   3.970  11.566   2.959  1.2972  1.3783 -0.0404
  308MOL0     H42488   2.133  11.042   2.899 -1.5500  0.4742 -0.8016
  308MOL0     H42489   2.002  10.841   2.885 -2.5762 -2.1660 -3.6228
  308MOL0     H42490   1.649  10.610   2.688  0.5288  1.1361  3.1187
  308MOL0     H42491   1.503  10.411   2.650 -0.4075  1.3260  0.2758
  308MOL0     H42492   1.432  10.236   2.551 -1.0058  0.2864  3.2499
  308MOL0     H42493   1.590  10.194   2.478 -0.3403  1.0547  1.4879
  308MOL0     H42494   1.548   9.952   2.537 -0.2749 -0.4099  1.9089
  308MOL0     H42495   1.441  10.026   2.412  1.4173  2.0338 -1.1787
  308MOL0     H42496   1.267  10.051   2.539  1.1832  2.2233  1.5256
  308MOL0     H42497   1.316   9.882   2.540 -0.9369  1.9215 -2.1250
  308MOL0     H42498   1.435   9.937   2.761  1.3244  1.9002 -1.5472
  308MOL0     H42499   1.253   9.916   2.759 -1.1028  1.4512 -0.1043
  308MOL0     H42500   1.282  10.303   2.911 -4.5222 -1.7195  2.5656
  308MOL0     H42501   1.804  10.155   2.776  1.3279  0.9430 -0.9359
  308MOL0     H42502   2.024  10.407   2.935  1.1693 -1.1025  0.5441
  308MOL0     H42503   1.993  10.243   2.887  0.1599 -0.6352 -0.7588
  308MOL0     H42504   2.082  10.356   2.782  0.5927  2.4254  0.9636
  309MOL0     O42505   0.402   1.916   6.750 -0.1045 -0.8737 -0.4088
  309MOL0     C42506   0.282   1.930   6.771 -0.0650 -0.3035 -0.3310
  309MOL0     O42507   0.220   1.964   6.891 -0.3570  0.2260 -0.2109
  309MOL0     C42508   0.300   1.970   6.999 -0.8162  0.1636 -0.9674
  309MOL0     C42509   0.297   1.865   7.085  0.6921 -0.5372 -0.2511
  309MOL0     C42510   0.367   1.868   7.203 -0.5164 -0.1667 -0.0251
  309MOL0     C42511   0.448   1.972   7.227  0.6227  0.1403 -0.3245
  309MOL0     O42512   0.533   1.961   7.331  0.0553  0.4704 -0.7228
  309MOL0     C42513   0.517   2.039   7.448  0.7867 -0.1093  0.3358
  309MOL0     C42514   0.603   2.009   7.569  0.3768  0.2125  1.0080
  309MOL0     C42515   0.618   2.137   7.656  0.5527  0.8763  0.2589
  309MOL0     C42516   0.491   2.160   7.737 -1.5944  0.5247 -0.8558
  309MOL0     C42517   0.497   2.286   7.823 -0.5783 -0.2441 -1.1452
  309MOL0     C42518   0.566   2.257   7.961  0.3415  0.1541  0.9747
  309MOL0     C42519   0.554   2.373   8.049  0.4868 -0.5181 -0.0872
  309MOL0     C42520   0.642   2.360   8.178  0.1318 -0.5619  0.4323
  309MOL0     N42521   0.786   2.376   8.149  0.2329  0.0373 -0.0233
  309MOL0     C42522   0.852   2.443   8.048  0.2678  0.0209 -1.0929
  309MOL0     C42523   0.987   2.416   8.058 -0.3114  0.1225 -0.5199
  309MOL0     C42524   1.096   2.491   7.985 -0.7515 -0.5583  0.4201
  309MOL0     C42525   1.125   2.436   7.840 -1.1173 -0.6033 -0.6537
  309MOL0     C42526   1.024   2.479   7.741  0.3963  0.1075 -0.5697
  309MOL0     C42527   1.075   2.461   7.596 -0.5283  0.1552 -0.1158
  309MOL0     O42528   1.005   2.548   7.507  0.1654  0.0367 -0.6348
  309MOL0     C42529   1.051   2.572   7.379 -0.3827 -1.0225  0.2966
  309MOL0     C42530   0.978   2.655   7.294  0.1857 -0.4507  0.4776
  309MOL0     C42531   1.021   2.693   7.160  0.0862  0.0187 -0.0524
  309MOL0     C42532   0.927   2.785   7.088  0.0022  0.9404  0.2153
  309MOL0     C42533   1.142   2.637   7.108  0.1152  1.2106  0.7461
  309MOL0     C42534   1.202   2.663   6.973  0.2530 -0.1785 -0.1479
  309MOL0     O42535   1.329   2.614   6.951 -0.7900 -0.3271 -0.0728
  309MOL0     C42536   1.367   2.578   6.822 -0.2007  0.8169 -0.3724
  309MOL0     C42537   1.353   2.440   6.773 -0.0570 -0.3638 -0.9663
  309MOL0     C42538   1.417   2.405   6.651 -0.0074 -0.1094  0.3598
  309MOL0     C42539   1.499   2.496   6.579  0.2682 -0.2118  0.0201
  309MOL0     O42540   1.564   2.448   6.466  0.2003 -0.1242  0.3405
  309MOL0     C42541   1.600   2.547   6.371  0.1550 -0.7821 -1.2349
  309MOL0     C42542   1.637   2.486   6.234 -0.2174 -0.0724  0.9481
  309MOL0     C42543   1.732   2.580   6.151  0.8023  0.2570 -0.2458
  309MOL0     C42544   1.747   2.527   6.005 -0.3635 -0.5786  0.0531
  309MOL0     C42545   1.876   2.584   5.939  0.1641 -0.5184  0.2835
  309MOL0     C42546   1.845   2.595   5.783 -0.6632 -0.3729  0.9203
  309MOL0     C42547   1.981   2.630   5.721 -0.6152  0.7682  0.4805
  309MOL0     C42548   1.978   2.700   5.589  0.2176 -0.2157  0.2441
  309MOL0    Cl42549   2.144   2.709   5.524  0.2545  0.0117  0.1120
  309MOL0     C42550   1.516   2.626   6.635 -0.5450 -0.3426 -0.6615
  309MOL0     C42551   1.441   2.671   6.749  0.0315 -0.5783 -0.3113
  309MOL0     O42552   1.128   2.703   6.889 -0.1741 -0.2494  0.2937
  309MOL0     C42553   1.209   2.542   7.197  0.1855  0.1318 -0.6104
  309MOL0     C42554   1.171   2.519   7.332  0.6309 -0.1097  0.1077
  309MOL0     N42555   0.998   2.325   8.167  0.1818  0.6660  0.2662
  309MOL0     N42556   0.882   2.301   8.218 -0.2836 -0.0688 -0.1793
  309MOL0     C42557   0.461   2.075   7.137 -0.2376 -0.0421  0.2523
  309MOL0     C42558   0.380   2.079   7.021 -0.6064 -0.4860 -0.3836
  309MOL0     C42559   0.187   1.900   6.658 -0.1864 -0.0247  0.5773
  309MOL0     C42560   0.051   1.904   6.688  0.0038 -0.5461 -0.3618
  309MOL0     C42561  -0.040   1.888   6.583  0.2302 -0.0499 -0.6125
  309MOL0     C42562  -0.004   1.870   6.452  0.4129  1.5453 -0.0100
  309MOL0     O42563  -0.096   1.845   6.349 -0.1688 -0.3812 -0.3840
  309MOL0     C42564  -0.220   1.915   6.334 -0.2996 -0.2329  0.4351
  309MOL0     C42565  -0.202   2.069   6.330 -0.8556 -0.0145  0.0263
  309MOL0     C42566  -0.334   2.138   6.313  0.6761  0.5950  0.1858
  309MOL0     C42567  -0.333   2.291   6.333 -0.0983  0.2806  0.0990
  309MOL0     C42568  -0.291   2.325   6.469 -0.3472 -0.4444  0.8955
  309MOL0     C42569  -0.239   2.369   6.569 -0.0364 -0.4949 -0.1046
  309MOL0     C42570   0.132   1.862   6.422  0.3475 -0.0384  0.3835
  309MOL0     C42571   0.224   1.869   6.527  0.4816 -0.3253  0.6234
  309MOL0     C42572   0.365   1.850   6.472 -0.5400  0.3205  0.2479
  309MOL0     H42573   0.241   1.774   7.064  0.6975 -0.7240  0.5103
  309MOL0     H42574   0.373   1.782   7.269 -0.8867  1.8124  2.7734
  309MOL0     H42575   0.411   2.028   7.476  0.3115 -2.8271 -2.0532
  309MOL0     H42576   0.535   2.142   7.415  0.3472 -0.4959 -1.1542
  309MOL0     H42577   0.572   1.926   7.633 -0.9415 -0.3500 -0.3151
  309MOL0     H42578   0.697   1.978   7.522  0.9368  1.2466  1.4206
  309MOL0     H42579   0.704   2.125   7.724 -0.3010  1.0142  1.3898
  309MOL0     H42580   0.633   2.230   7.601 -3.8390  0.8039 -1.4027
  309MOL0     H42581   0.403   2.178   7.674 -1.2507  1.7500 -1.0159
  309MOL0     H42582   0.460   2.079   7.803 -0.4026  0.6103 -0.1605
  309MOL0     H42583   0.398   2.326   7.843  0.1625  1.0395  0.2008
  309MOL0     H42584   0.546   2.368   7.770  0.8527 -0.0652  0.3715
  309MOL0     H42585   0.526   2.164   8.001  1.3247 -0.8640 -0.3280
  309MOL0     H42586   0.672   2.237   7.948  0.3059  0.4176  0.2222
  309MOL0     H42587   0.449   2.384   8.077 -0.1652 -0.5273 -2.3403
  309MOL0     H42588   0.584   2.461   7.993 -2.5450  1.0358  0.5257
  309MOL0     H42589   0.613   2.435   8.253 -1.4924  1.6477 -2.2077
  309MOL0     H42590   0.630   2.264   8.228  3.7565 -1.6756 -0.5768
  309MOL0     H42591   0.820   2.528   7.987 -0.4237  0.8195  0.3425
  309MOL0     H42592   1.191   2.500   8.038  0.0262 -3.7151 -0.2573
  309MOL0     H42593   1.063   2.595   7.977  0.3024 -0.0453  2.2774
  309MOL0     H42594   1.221   2.474   7.804 -0.5084 -2.4255 -1.0386
  309MOL0     H42595   1.142   2.328   7.844  0.6318 -0.3235  2.3224
  309MOL0     H42596   0.922   2.439   7.751 -0.1044  1.4181 -0.1701
  309MOL0     H42597   1.016   2.587   7.754 -1.2579 -0.0659  0.1185
  309MOL0     H42598   1.180   2.491   7.597 -0.0232 -1.5396  0.8509
  309MOL0     H42599   1.078   2.359   7.556  1.1640  0.4158 -0.7064
  309MOL0     H42600   0.886   2.697   7.333  0.5076  0.2963  0.4602
  309MOL0     H42601   0.966   2.887   7.073 -0.9443  1.4863  1.2911
  309MOL0     H42602   0.830   2.792   7.139 -1.6691 -0.0809 -2.6028
  309MOL0     H42603   0.903   2.744   6.989 -2.3527 -0.1145  1.1555
  309MOL0     H42604   1.286   2.377   6.831 -2.0189  1.2759 -1.3890
  309MOL0     H42605   1.407   2.303   6.615  1.8338  0.6333 -2.6115
  309MOL0     H42606   1.524   2.622   6.350  2.4774  2.6454  1.3451
  309MOL0     H42607   1.682   2.596   6.424  0.2235 -1.8228 -0.3452
  309MOL0     H42608   1.671   2.382   6.245  2.0376 -0.0413 -3.5121
  309MOL0     H42609   1.543   2.475   6.179  0.1326 -1.6938  0.6285
  309MOL0     H42610   1.831   2.584   6.197 -0.0135 -0.5658  1.6765
  309MOL0     H42611   1.698   2.683   6.138  1.0982  0.7109  2.0971
  309MOL0     H42612   1.661   2.572   5.955  1.2180  0.8855 -1.4767
  309MOL0     H42613   1.748   2.418   6.017 -2.5581 -0.7454 -0.7831
  309MOL0     H42614   1.889   2.684   5.981 -1.8285  0.3161 -0.9266
  309MOL0     H42615   1.966   2.527   5.965  0.6998 -0.7668 -1.8847
  309MOL0     H42616   1.761   2.661   5.756 -0.2804 -0.4800 -0.6274
  309MOL0     H42617   1.809   2.499   5.746 -0.4846  0.1606 -0.7692
  309MOL0     H42618   2.026   2.532   5.703 -1.4679 -0.0446  2.4604
  309MOL0     H42619   2.047   2.688   5.786 -0.2585  1.2955 -0.3322
  309MOL0     H42620   1.951   2.806   5.593  0.1166 -0.2375  0.1484
  309MOL0     H42621   1.924   2.645   5.511 -1.0994  3.0330 -1.3533
  309MOL0     H42622   1.576   2.702   6.587  0.5945 -1.3429 -0.8618
  309MOL0     H42623   1.449   2.775   6.778  0.6630 -0.5438 -0.5951
  309MOL0     H42624   1.299   2.490   7.165 -1.3943 -1.9898 -1.8906
  309MOL0     H42625   1.238   2.448   7.380  1.7804 -0.7303 -2.2262
  309MOL0     H42626   0.548   2.140   7.145  0.7446 -1.1339 -0.9580
  309MOL0     H42627   0.376   2.157   6.946 -0.6433 -1.1833 -1.1275
  309MOL0     H42628   0.017   1.937   6.786  2.1562  0.8576 -0.0114
  309MOL0     H42629  -0.139   1.911   6.621  1.1757 -0.1365  2.0604
  309MOL0     H42630  -0.262   1.889   6.236  0.7461  2.5965 -0.8744
  309MOL0     H42631  -0.295   1.892   6.410 -2.5186  1.8024 -1.0109
  309MOL0     H42632  -0.147   2.107   6.244 -2.6394  2.2036 -0.2227
  309MOL0     H42633  -0.156   2.108   6.422 -1.7773  1.7406 -0.2194
  309MOL0     H42634  -0.379   2.115   6.215 -0.8471  2.3322  0.4354
  309MOL0     H42635  -0.407   2.094   6.381 -1.8093 -0.3122 -2.8212
  309MOL0     H42636  -0.435   2.320   6.308 -0.4119 -0.1981  0.7994
  309MOL0     H42637  -0.270   2.346   6.263 -1.6977  0.7311 -1.0253
  309MOL0     H42638  -0.207   2.417   6.659 -2.4036  1.7464 -0.3310
  309MOL0     H42639   0.157   1.852   6.317  1.0949  0.4741  0.5020
  309MOL0     H42640   0.418   1.773   6.528  0.4655 -1.1003 -2.4767
  309MOL0     H42641   0.369   1.820   6.367  0.7225  0.9424  0.1041
  309MOL0     H42642   0.422   1.943   6.475  0.8550 -0.4913 -0.4835
  310MOL0     O42643  11.298   9.201   2.667  0.5817 -0.3653 -0.1732
  310MOL0     C42644  11.245   9.128   2.587  0.2604  0.2830  0.5443
  310MOL0     O42645  11.306   9.033   2.504 -0.9037  0.3426  0.2121
  310MOL0     C42646  11.442   9.008   2.515 -0.8781  0.1291  0.1012
  310MOL0     C42647  11.534   9.054   2.608 -0.1758  0.3078  0.2961
  310MOL0     C42648  11.665   9.006   2.600  0.6028  0.3830  0.8489
  310MOL0     C42649  11.715   8.933   2.495  0.2096 -0.6116  0.1512
  310MOL0     O42650  11.847   8.895   2.501  0.6891  0.2649  0.0259
  310MOL0     C42651  11.878   8.765   2.468 -0.2881  0.6293 -0.7376
  310MOL0     C42652  12.037   8.734   2.465 -0.1111 -0.4601 -0.4082
  310MOL0     C42653  12.093   8.750   2.605  0.3740 -0.4427 -0.1646
  310MOL0     C42654  12.242   8.726   2.615  0.2729 -1.0091 -0.1548
  310MOL0     C42655  12.285   8.577   2.630 -0.4403 -0.0238 -0.0750
  310MOL0     C42656  12.439   8.561   2.619 -1.2209  0.5196  0.1636
  310MOL0     C42657  12.482   8.426   2.678 -0.5336 -0.0945  0.2916
  310MOL0     C42658  12.444   8.302   2.586 -0.0268 -0.0273  0.2520
  310MOL0     N42659  12.521   8.193   2.641  0.4688 -0.8881 -0.6277
  310MOL0     C42660  12.648   8.157   2.607 -0.5594  0.1650 -0.2191
  310MOL0     C42661  12.677   8.054   2.689  0.7931  0.2309  0.0097
  310MOL0     C42662  12.809   7.989   2.700 -0.5443 -0.0390  0.0117
  310MOL0     C42663  12.935   8.083   2.709 -0.2598 -0.4903  0.7474
  310MOL0     C42664  12.930   8.168   2.837  0.1958  0.8204  0.0786
  310MOL0     C42665  13.057   8.231   2.876  0.3304  0.3085  1.0184
  310MOL0     O42666  13.041   8.281   3.004 -0.2272 -0.3011  0.0834
  310MOL0     C42667  13.155   8.295   3.078  0.2271 -0.5593 -0.0466
  310MOL0     C42668  13.155   8.281   3.217  0.2849 -0.9245  0.0050
  310MOL0     C42669  13.277   8.289   3.290  0.5637  0.1536 -0.4855
  310MOL0     C42670  13.275   8.246   3.436 -0.4570 -0.3236  0.0132
  310MOL0     C42671  13.402   8.321   3.222  0.0418 -0.1251 -0.0649
  310MOL0     C42672  13.534   8.319   3.287  0.3977 -0.3572  1.3007
  310MOL0     O42673  13.644   8.314   3.202 -0.5406 -0.1799 -0.7194
  310MOL0     C42674  13.773   8.345   3.236  0.7508  0.0879  0.6807
  310MOL0     C42675  13.856   8.381   3.129 -0.2087 -0.7744 -0.0804
  310MOL0     C42676  13.991   8.404   3.146 -1.0204  0.2145  0.2221
  310MOL0     C42677  14.051   8.400   3.274  0.4787  0.1618  0.0987
  310MOL0     O42678  14.187   8.419   3.283 -0.4929 -0.3797 -0.1703
  310MOL0     C42679  14.223   8.481   3.407 -0.7626  0.0177 -0.1645
  310MOL0     C42680  14.363   8.550   3.382 -0.4724  0.2894 -0.1168
  310MOL0     C42681  14.410   8.660   3.488 -0.1918  0.2677 -0.9062
  310MOL0     C42682  14.414   8.607   3.634 -0.0189 -0.0344 -0.3821
  310MOL0     C42683  14.516   8.499   3.651  0.3597  0.2001  0.1724
  310MOL0     C42684  14.560   8.470   3.792  0.9758  0.4222 -0.3316
  310MOL0     C42685  14.639   8.577   3.867  0.4713 -0.1032  0.1093
  310MOL0     C42686  14.768   8.530   3.936  0.1464  0.6340 -0.2446
  310MOL0    Cl42687  14.716   8.393   4.050 -0.0218  0.1885 -0.2606
  310MOL0     C42688  13.965   8.369   3.378  0.2998  0.0307 -0.2808
  310MOL0     C42689  13.830   8.335   3.359  0.0486 -0.1157  1.3924
  310MOL0     O42690  13.541   8.320   3.402  0.7089 -1.1481  0.5638
  310MOL0     C42691  13.401   8.346   3.081  1.0429 -0.0708  0.1972
  310MOL0     C42692  13.277   8.329   3.012 -0.2139  0.0357  0.1226
  310MOL0     N42693  12.570   8.019   2.764  0.2657 -1.1926 -0.6471
  310MOL0     N42694  12.485   8.112   2.744 -0.6793 -0.0904  0.8194
  310MOL0     C42695  11.619   8.895   2.403 -0.3899 -0.3480 -0.8702
  310MOL0     C42696  11.487   8.933   2.410 -0.1159 -0.8004 -0.1837
  310MOL0     C42697  11.099   9.149   2.563 -0.2503 -0.0791 -0.4081
  310MOL0     C42698  11.033   9.265   2.615 -1.0825 -0.3212  0.5616
  310MOL0     C42699  10.902   9.290   2.589  0.6196 -0.7591 -0.1516
  310MOL0     C42700  10.817   9.196   2.518 -0.9356  0.3245 -0.5424
  310MOL0     O42701  10.695   9.221   2.477  0.3847  0.1197  0.5769
  310MOL0     C42702  10.608   9.303   2.561  0.9980  1.3534  0.3829
  310MOL0     C42703  10.487   9.349   2.477  0.3123 -0.8267  0.2884
  310MOL0     C42704  10.518   9.454   2.373  0.1753 -0.3865 -0.8054
  310MOL0     C42705  10.386   9.504   2.310  0.3095  0.0518 -0.7380
  310MOL0     C42706  10.297   9.558   2.405  0.0147 -0.1164 -0.2047
  310MOL0     C42707  10.226   9.608   2.491 -1.2121  0.3657  0.9120
  310MOL0     C42708  10.872   9.079   2.468 -0.5290 -0.0025 -0.0526
  310MOL0     C42709  11.008   9.056   2.500 -0.6386 -0.5572  0.5157
  310MOL0     C42710  11.056   8.924   2.445  0.2397  0.0289  0.8414
  310MOL0     H42711  11.510   9.125   2.687 -1.6848  0.8408 -0.5828
  310MOL0     H42712  11.734   9.036   2.679 -0.4591  0.3356  1.8259
  310MOL0     H42713  11.827   8.754   2.371 -1.9705  2.8049 -0.1774
  310MOL0     H42714  11.829   8.692   2.533 -0.2926  0.2870 -1.1150
  310MOL0     H42715  12.052   8.632   2.427 -1.9221  0.2517 -3.3870
  310MOL0     H42716  12.080   8.798   2.388  1.9326  0.6816  1.5652
  310MOL0     H42717  12.075   8.852   2.641  3.0793 -0.6702  2.2036
  310MOL0     H42718  12.039   8.675   2.664  0.8661 -0.3095  0.4654
  310MOL0     H42719  12.300   8.757   2.528  1.1093  0.3058  0.8479
  310MOL0     H42720  12.285   8.784   2.697  2.0056 -0.4289 -1.4316
  310MOL0     H42721  12.236   8.515   2.554  0.6792 -0.6460 -0.3109
  310MOL0     H42722  12.257   8.542   2.729  2.3714  0.2842  0.9095
  310MOL0     H42723  12.477   8.578   2.518  0.2964 -1.2535  0.3741
  310MOL0     H42724  12.485   8.640   2.679 -1.6365  0.3221  0.7506
  310MOL0     H42725  12.436   8.406   2.775 -0.6750 -1.2140  0.0117
  310MOL0     H42726  12.591   8.434   2.680 -0.5644  4.7224 -1.8140
  310MOL0     H42727  12.336   8.288   2.599 -0.0138  0.6896  1.2457
  310MOL0     H42728  12.465   8.315   2.479 -1.3091  1.2976  0.1349
  310MOL0     H42729  12.726   8.200   2.544 -0.0958  0.1316  0.3186
  310MOL0     H42730  12.823   7.923   2.614 -0.5872 -1.8257  1.3182
  310MOL0     H42731  12.818   7.927   2.790  3.3610 -0.0504 -0.1867
  310MOL0     H42732  13.026   8.023   2.706 -1.6229 -2.7603  2.2200
  310MOL0     H42733  12.938   8.154   2.626  1.8767 -2.3712 -0.9139
  310MOL0     H42734  12.866   8.256   2.824  1.8908  2.1341  0.3314
  310MOL0     H42735  12.891   8.104   2.917 -0.2884  1.0825  0.0562
  310MOL0     H42736  13.125   8.146   2.871  0.7275  0.6925 -2.0670
  310MOL0     H42737  13.098   8.291   2.794  2.2057 -2.7040 -0.4590
  310MOL0     H42738  13.061   8.267   3.269 -0.3956 -0.2026 -0.9934
  310MOL0     H42739  13.175   8.216   3.469 -1.9833  2.9113 -1.1894
  310MOL0     H42740  13.303   8.322   3.510  0.1542 -1.7150  1.2772
  310MOL0     H42741  13.345   8.163   3.446  0.3323  0.3996  0.5950
  310MOL0     H42742  13.815   8.388   3.028 -0.2802  0.6766  0.0295
  310MOL0     H42743  14.041   8.433   3.055 -1.6320 -0.2346 -0.2683
  310MOL0     H42744  14.157   8.566   3.430  1.7502  2.3214 -0.8706
  310MOL0     H42745  14.229   8.418   3.496 -0.0410  1.0698  0.5686
  310MOL0     H42746  14.436   8.469   3.374  0.2950  0.9951 -0.3878
  310MOL0     H42747  14.362   8.600   3.285 -1.6890 -1.3258 -0.9854
  310MOL0     H42748  14.350   8.751   3.482 -0.0451  0.5521  1.2781
  310MOL0     H42749  14.509   8.698   3.461 -0.2260 -0.0468 -1.5068
  310MOL0     H42750  14.314   8.573   3.660 -0.3709 -0.2267 -1.9211
  310MOL0     H42751  14.450   8.689   3.698 -0.4830 -0.6795  0.7395
  310MOL0     H42752  14.469   8.412   3.604  2.5394 -2.3296  2.3354
  310MOL0     H42753  14.611   8.533   3.608  0.2715 -0.2327 -0.3819
  310MOL0     H42754  14.628   8.384   3.785  1.3495  0.6123  0.7609
  310MOL0     H42755  14.476   8.444   3.856 -0.3718  1.8573 -1.4505
  310MOL0     H42756  14.564   8.638   3.918  0.2552  0.0898 -0.4381
  310MOL0     H42757  14.676   8.651   3.796 -1.4395 -0.7066 -1.6142
  310MOL0     H42758  14.813   8.605   4.002 -1.2515 -0.7318  2.4689
  310MOL0     H42759  14.838   8.482   3.867 -0.3707 -1.2005  0.4361
  310MOL0     H42760  14.002   8.361   3.480  0.3599  1.0075 -0.2113
  310MOL0     H42761  13.766   8.318   3.445  1.2359 -0.3700  2.2506
  310MOL0     H42762  13.486   8.371   3.019  1.0445 -1.8074 -0.5437
  310MOL0     H42763  13.277   8.331   2.903 -0.4426 -1.2195  0.0854
  310MOL0     H42764  11.641   8.825   2.323  0.6378 -2.1808  0.9064
  310MOL0     H42765  11.430   8.908   2.321  3.0393  1.2116 -3.0275
  310MOL0     H42766  11.089   9.333   2.679 -0.1335 -0.6415  0.0842
  310MOL0     H42767  10.863   9.385   2.627 -1.5049 -1.2596 -0.9190
  310MOL0     H42768  10.572   9.246   2.648  2.6483 -0.3238  0.0370
  310MOL0     H42769  10.667   9.382   2.609  1.7593 -0.2157  2.1987
  310MOL0     H42770  10.426   9.384   2.561  2.1376  1.8122  0.6603
  310MOL0     H42771  10.432   9.273   2.420  0.6581 -0.4016 -0.6309
  310MOL0     H42772  10.583   9.532   2.416  2.9132 -2.5668 -0.7055
  310MOL0     H42773  10.581   9.407   2.297  1.0913 -0.1216 -0.2412
  310MOL0     H42774  10.342   9.416   2.261 -0.4810 -1.4480  2.4086
  310MOL0     H42775  10.413   9.580   2.236  0.4100  0.7854  0.0372
  310MOL0     H42776  10.183   9.648   2.580  0.5184 -0.9789  2.4293
  310MOL0     H42777  10.812   9.012   2.407 -0.5188  0.0189 -0.0872
  310MOL0     H42778  10.970   8.874   2.397  1.3331  1.6823 -3.2455
  310MOL0     H42779  11.128   8.939   2.365 -2.1831  0.6801 -1.3537
  310MOL0     H42780  11.086   8.861   2.529  0.5657 -0.3368  0.4558
  311MOL0     O42781   7.395   6.096   3.280 -0.3272  0.2979 -0.9079
  311MOL0     C42782   7.337   6.001   3.233  0.5695 -0.1118 -0.5904
  311MOL0     O42783   7.208   6.000   3.203 -0.1984  0.3824 -0.1972
  311MOL0     C42784   7.126   6.106   3.229  0.1830  0.1068 -0.6814
  311MOL0     C42785   7.149   6.239   3.192 -0.0239 -0.7170  0.2946
  311MOL0     C42786   7.055   6.340   3.225 -0.5490  0.2885  0.8564
  311MOL0     C42787   6.943   6.307   3.301 -0.5025 -0.2655  0.6202
  311MOL0     O42788   6.844   6.386   3.352 -0.2855  0.3690  0.0247
  311MOL0     C42789   6.839   6.520   3.293  0.7313  0.3866  0.3823
  311MOL0     C42790   6.734   6.601   3.361  0.0496 -0.1094 -0.8334
  311MOL0     C42791   6.691   6.746   3.321 -0.4965 -0.3191  0.2060
  311MOL0     C42792   6.805   6.857   3.339 -0.3355  0.4896 -0.0090
  311MOL0     C42793   6.913   6.851   3.226 -0.1118 -0.0673 -0.5611
  311MOL0     C42794   7.038   6.932   3.264  0.5398 -0.1563 -0.3381
  311MOL0     C42795   7.099   6.917   3.407  0.0079 -0.6009  0.4378
  311MOL0     C42796   7.131   6.769   3.447  0.0004  0.2450  1.1240
  311MOL0     N42797   7.243   6.719   3.375 -0.0584  0.7741 -0.4167
  311MOL0     C42798   7.380   6.735   3.408  0.4802  0.3096 -0.5683
  311MOL0     C42799   7.453   6.672   3.304 -0.1087  0.4676  0.3432
  311MOL0     C42800   7.601   6.664   3.298  0.4248 -0.4422  0.0409
  311MOL0     C42801   7.651   6.545   3.221 -0.6081 -0.2082 -0.9961
  311MOL0     C42802   7.797   6.539   3.206 -0.2728  0.6425 -0.2666
  311MOL0     C42803   7.840   6.407   3.144  0.0948  0.5236  0.1391
  311MOL0     O42804   7.972   6.435   3.094 -0.5634  0.5731  0.3121
  311MOL0     C42805   8.062   6.330   3.085  0.0145  0.8217  0.0361
  311MOL0     C42806   8.029   6.194   3.072  0.6384  0.1854 -0.1372
  311MOL0     C42807   8.117   6.089   3.084 -0.2141 -0.5053  0.3875
  311MOL0     C42808   8.068   5.954   3.051 -0.1036  0.3121 -0.0809
  311MOL0     C42809   8.254   6.114   3.099  1.1404 -0.8085 -0.9775
  311MOL0     C42810   8.359   6.017   3.136 -0.3600  0.1506 -0.2215
  311MOL0     O42811   8.489   6.068   3.143  0.6442  0.1760  0.6075
  311MOL0     C42812   8.594   5.980   3.153  0.0898 -0.1713 -0.9985
  311MOL0     C42813   8.610   5.849   3.099  0.0476  0.3244  0.0128
  311MOL0     C42814   8.723   5.775   3.137 -0.7828 -0.2898 -0.0613
  311MOL0     C42815   8.812   5.816   3.233 -0.1279 -0.1620 -0.6593
  311MOL0     O42816   8.915   5.742   3.277  0.4752 -0.5581  0.2219
  311MOL0     C42817   8.989   5.666   3.179 -0.6837  0.4816  0.5956
  311MOL0     C42818   9.131   5.636   3.227 -0.5437 -0.3807  0.1321
  311MOL0     C42819   9.219   5.551   3.133  0.1119  0.2156  0.8250
  311MOL0     C42820   9.355   5.533   3.182 -1.0682 -0.1418  0.4623
  311MOL0     C42821   9.414   5.405   3.123  0.1296 -0.0658  0.3161
  311MOL0     C42822   9.555   5.372   3.163 -0.2744  0.0957  0.6529
  311MOL0     C42823   9.660   5.487   3.163  0.2376  0.7252 -0.0673
  311MOL0     C42824   9.807   5.458   3.181  0.5557 -0.5365  1.3169
  311MOL0    Cl42825   9.911   5.596   3.204  0.3123 -0.1877  0.3101
  311MOL0     C42826   8.799   5.944   3.282  0.2985  0.2964 -0.3848
  311MOL0     C42827   8.687   6.021   3.252  0.1405  0.3271 -0.6839
  311MOL0     O42828   8.338   5.901   3.156  0.2867  1.2130  0.1931
  311MOL0     C42829   8.285   6.250   3.118  0.1147  0.5236  0.2682
  311MOL0     C42830   8.198   6.358   3.100 -0.8371  0.9228  0.7018
  311MOL0     N42831   7.352   6.625   3.223 -0.7423  0.0069  0.2231
  311MOL0     N42832   7.238   6.667   3.251  0.3128  0.2486  0.4243
  311MOL0     C42833   6.923   6.177   3.337  0.2553 -0.4095 -1.0380
  311MOL0     C42834   7.019   6.078   3.309  0.2839 -0.2793  1.3682
  311MOL0     C42835   7.413   5.872   3.208 -0.7009 -1.2689 -0.2854
  311MOL0     C42836   7.335   5.755   3.187  0.3879 -0.2427 -0.4839
  311MOL0     C42837   7.383   5.625   3.152 -0.3615 -0.5730 -0.4739
  311MOL0     C42838   7.522   5.612   3.127 -0.1484 -0.3719 -0.9078
  311MOL0     O42839   7.590   5.504   3.089  0.2130 -0.3284  0.4446
  311MOL0     C42840   7.530   5.376   3.120  1.0424 -0.2910 -0.0339
  311MOL0     C42841   7.615   5.265   3.059  0.1657  0.0948  0.1656
  311MOL0     C42842   7.558   5.130   3.091  0.0058  0.6065  0.2232
  311MOL0     C42843   7.645   5.020   3.039  0.0362 -0.4710 -0.1223
  311MOL0     C42844   7.764   5.010   3.132  0.1632 -0.0176  0.0813
  311MOL0     C42845   7.858   5.005   3.210 -0.2619  0.1944 -0.4807
  311MOL0     C42846   7.599   5.727   3.148 -0.2032  0.4659  0.2201
  311MOL0     C42847   7.552   5.856   3.182  0.9187  0.4735  0.0787
  311MOL0     C42848   7.649   5.965   3.210  0.1259  0.2693  0.2392
  311MOL0     H42849   7.236   6.261   3.131 -1.6017  1.7631 -1.2021
  311MOL0     H42850   7.086   6.439   3.192 -2.0451  0.6852  0.5389
  311MOL0     H42851   6.800   6.512   3.191 -0.0914  1.2835  0.6164
  311MOL0     H42852   6.941   6.562   3.295  1.5741 -1.4561 -0.9465
  311MOL0     H42853   6.638   6.549   3.369 -2.4388  4.2345  1.5264
  311MOL0     H42854   6.765   6.612   3.465 -0.8916  2.0794 -0.7333
  311MOL0     H42855   6.664   6.748   3.215 -2.2689  0.3160  0.6384
  311MOL0     H42856   6.601   6.775   3.376 -0.8680 -1.1253  0.0457
  311MOL0     H42857   6.765   6.959   3.343 -0.3775  0.4837 -0.2208
  311MOL0     H42858   6.842   6.840   3.440  2.1981  1.6596 -0.6825
  311MOL0     H42859   6.875   6.889   3.130  0.2915 -0.3130 -0.8199
  311MOL0     H42860   6.947   6.748   3.224  0.4499  0.0838  0.3916
  311MOL0     H42861   7.119   6.903   3.196  1.2776 -0.1070  0.5091
  311MOL0     H42862   7.014   7.038   3.257 -3.3071 -0.9322 -1.2404
  311MOL0     H42863   7.023   6.962   3.472 -0.4003  1.1051 -1.1383
  311MOL0     H42864   7.183   6.982   3.430 -0.5891  0.0406  0.8636
  311MOL0     H42865   7.143   6.756   3.555 -3.2290  0.2477  1.5693
  311MOL0     H42866   7.039   6.713   3.425 -0.5259  1.4973  0.0507
  311MOL0     H42867   7.427   6.783   3.493 -2.7430  0.0817  1.4950
  311MOL0     H42868   7.658   6.661   3.392  1.4881 -0.8358 -0.5944
  311MOL0     H42869   7.630   6.759   3.251 -0.4974  0.3120  0.9661
  311MOL0     H42870   7.622   6.454   3.274 -0.1013  1.7700  3.0957
  311MOL0     H42871   7.608   6.557   3.121 -3.8515 -0.4074  0.2607
  311MOL0     H42872   7.843   6.625   3.155  2.0399 -0.0636  0.4832
  311MOL0     H42873   7.844   6.539   3.305 -1.6647  0.3042  0.4243
  311MOL0     H42874   7.850   6.328   3.219  0.3039  0.8429  0.4452
  311MOL0     H42875   7.779   6.368   3.061  0.8765 -0.6321  0.0862
  311MOL0     H42876   7.925   6.176   3.045  0.7691 -1.5381  0.3723
  311MOL0     H42877   8.148   5.901   2.997  0.6990  2.0077 -0.6161
  311MOL0     H42878   7.982   5.967   2.984 -0.2830  0.5286  0.1906
  311MOL0     H42879   8.032   5.901   3.139  1.4861  0.4277  0.6628
  311MOL0     H42880   8.530   5.809   3.038 -1.2252 -1.0039  2.3782
  311MOL0     H42881   8.729   5.674   3.097  1.3349  0.4925 -1.8993
  311MOL0     H42882   8.945   5.569   3.152  0.7016 -0.1168  0.3953
  311MOL0     H42883   8.983   5.727   3.088 -2.1582  1.8272  1.5564
  311MOL0     H42884   9.184   5.732   3.234  1.1232 -0.8738 -3.3271
  311MOL0     H42885   9.135   5.584   3.323  1.8896  0.4162  0.5478
  311MOL0     H42886   9.207   5.593   3.032 -2.4532 -1.3816  0.3553
  311MOL0     H42887   9.166   5.456   3.118 -0.5935  0.3957  2.0583
  311MOL0     H42888   9.357   5.523   3.291  3.0558  0.2856  0.5752
  311MOL0     H42889   9.416   5.616   3.144 -0.2730 -1.9710 -2.5878
  311MOL0     H42890   9.358   5.322   3.165  1.1147 -1.7910 -1.6079
  311MOL0     H42891   9.407   5.410   3.014 -1.6289 -0.7896  0.3699
  311MOL0     H42892   9.598   5.303   3.090  0.4759 -0.1178  1.2928
  311MOL0     H42893   9.557   5.335   3.266 -0.5249 -1.6601  0.0632
  311MOL0     H42894   9.629   5.559   3.239  1.0270  3.9656 -2.6047
  311MOL0     H42895   9.649   5.532   3.063 -0.4577  0.2078 -0.2376
  311MOL0     H42896   9.837   5.409   3.088  0.8618 -0.5142  1.4042
  311MOL0     H42897   9.809   5.387   3.265  1.8131 -1.1667  0.7828
  311MOL0     H42898   8.871   5.980   3.355 -1.4055  0.7326  1.1355
  311MOL0     H42899   8.681   6.114   3.307 -0.8447  0.2336 -0.6187
  311MOL0     H42900   8.390   6.276   3.127  0.1822  0.1320  0.6402
  311MOL0     H42901   8.227   6.462   3.093  0.3329  0.5267 -3.7591
  311MOL0     H42902   6.836   6.156   3.398  1.4074  1.0419  1.2336
  311MOL0     H42903   7.010   5.975   3.342 -0.2095 -0.2209  1.4211
  311MOL0     H42904   7.230   5.758   3.213  0.9965 -1.2052  2.5278
  311MOL0     H42905   7.314   5.541   3.141 -0.4066 -0.4998 -0.7744
  311MOL0     H42906   7.521   5.359   3.228 -1.9615 -0.9483 -0.3061
  311MOL0     H42907   7.430   5.375   3.076  0.8309  1.5627  0.3310
  311MOL0     H42908   7.718   5.270   3.098  0.0520  0.1415  0.4643
  311MOL0     H42909   7.633   5.270   2.952  0.2751  1.0786  0.2230
  311MOL0     H42910   7.565   5.114   3.199  1.3299  1.1300  0.2302
  311MOL0     H42911   7.456   5.110   3.055 -0.4462 -0.4914  2.0114
  311MOL0     H42912   7.679   5.053   2.940 -2.4811  1.8227 -0.3537
  311MOL0     H42913   7.609   4.917   3.036 -1.6322  0.1089 -1.6815
  311MOL0     H42914   7.941   4.996   3.276 -0.4616  1.7971  0.0527
  311MOL0     H42915   7.706   5.712   3.137 -0.1009 -0.3791  2.0919
  311MOL0     H42916   7.617   6.064   3.176 -0.1397  0.3799  0.8016
  311MOL0     H42917   7.665   5.989   3.316 -1.7781  1.4253  0.3118
  311MOL0     H42918   7.740   5.948   3.152 -1.9314 -2.0338 -2.6013
  312MOL0     O42919   7.976   6.429   5.719  0.3399 -0.7697  0.2881
  312MOL0     C42920   7.854   6.459   5.718 -0.5571 -0.0535 -0.4557
  312MOL0     O42921   7.805   6.583   5.744 -0.8671 -0.3606  0.0838
  312MOL0     C42922   7.873   6.663   5.836  0.5066  1.2118 -0.7124
  312MOL0     C42923   7.941   6.785   5.790  0.2789 -0.2901 -0.6173
  312MOL0     C42924   8.020   6.854   5.887  0.6073  1.3876 -0.0744
  312MOL0     C42925   8.024   6.820   6.024 -0.0770  0.9557  0.2704
  312MOL0     O42926   8.093   6.896   6.109 -0.1992 -0.7941 -0.3736
  312MOL0     C42927   8.183   6.834   6.198  0.0575 -0.2606  1.0769
  312MOL0     C42928   8.281   6.951   6.233  0.0210 -0.1310  0.5685
  312MOL0     C42929   8.368   6.905   6.354  0.9347 -0.2748 -0.1881
  312MOL0     C42930   8.283   6.885   6.479  0.0204 -0.6656 -0.5474
  312MOL0     C42931   8.370   6.844   6.592 -0.4318 -0.6601 -0.4094
  312MOL0     C42932   8.486   6.929   6.631 -1.5238 -0.8825  0.0536
  312MOL0     C42933   8.461   7.084   6.630  0.0437 -0.0019 -0.4024
  312MOL0     C42934   8.589   7.157   6.663 -0.7418  0.4531  0.0006
  312MOL0     N42935   8.647   7.162   6.801 -0.0915 -0.1073 -0.8129
  312MOL0     C42936   8.739   7.255   6.841 -0.4767 -0.1795  0.0030
  312MOL0     C42937   8.777   7.231   6.964 -0.8663  0.0096 -0.0340
  312MOL0     C42938   8.866   7.334   7.045  0.0092  0.3482 -0.7127
  312MOL0     C42939   8.769   7.431   7.125  0.1733 -0.6351 -0.4898
  312MOL0     C42940   8.829   7.482   7.260 -0.0427  0.6872 -0.4310
  312MOL0     C42941   8.908   7.606   7.237 -0.4750  0.7160 -0.8298
  312MOL0     O42942   8.953   7.662   7.367  0.2051 -0.3660  0.6783
  312MOL0     C42943   9.070   7.612   7.421  0.5786 -0.8111  0.7788
  312MOL0     C42944   9.104   7.672   7.540  0.2990  0.0986 -0.4812
  312MOL0     C42945   9.231   7.655   7.589 -0.5326  0.9021 -0.2860
  312MOL0     C42946   9.251   7.711   7.732  0.6059  0.0006  0.5841
  312MOL0     C42947   9.331   7.597   7.514  0.1608 -0.4638 -0.4729
  312MOL0     C42948   9.468   7.614   7.544 -0.0228 -0.0852  0.2586
  312MOL0     O42949   9.552   7.606   7.435  0.6308 -0.4328 -0.1970
  312MOL0     C42950   9.680   7.572   7.452 -0.1910  0.2949 -0.1073
  312MOL0     C42951   9.772   7.618   7.360  0.5562 -0.1355  0.4728
  312MOL0     C42952   9.909   7.589   7.366  0.2705 -0.4558 -0.3404
  312MOL0     C42953   9.964   7.509   7.467  0.6853 -0.8514  0.7354
  312MOL0     O42954  10.099   7.470   7.455  0.1093  0.5031 -0.0325
  312MOL0     C42955  10.160   7.402   7.562  0.3950 -0.1141 -0.8633
  312MOL0     C42956  10.295   7.356   7.510  0.6901  0.0575  0.8394
  312MOL0     C42957  10.367   7.255   7.592 -1.2330 -0.2033  0.0400
  312MOL0     C42958  10.495   7.209   7.510 -0.4514 -0.2827  0.3181
  312MOL0     C42959  10.532   7.072   7.556 -0.4504 -0.3886  0.7724
  312MOL0     C42960  10.651   7.017   7.469  0.5715 -0.3432 -0.5313
  312MOL0     C42961  10.795   7.047   7.518 -0.6800  0.1664  0.1260
  312MOL0     C42962  10.906   7.007   7.423  0.0812  0.4484  0.0467
  312MOL0    Cl42963  10.930   6.824   7.400 -0.0520  0.4390 -0.0663
  312MOL0     C42964   9.872   7.462   7.558 -0.2040 -0.4458  0.0300
  312MOL0     C42965   9.731   7.490   7.554  0.1429  0.3764 -0.6229
  312MOL0     O42966   9.504   7.612   7.665 -0.1382  0.4583 -0.0765
  312MOL0     C42967   9.291   7.525   7.393  0.1641 -0.4080  0.7845
  312MOL0     C42968   9.157   7.531   7.358  0.4334 -0.6898 -0.1262
  312MOL0     N42969   8.712   7.113   6.998  0.7371  0.8460  0.1774
  312MOL0     N42970   8.629   7.081   6.902  0.2354  0.6571 -0.8621
  312MOL0     C42971   7.951   6.708   6.064 -0.1372  0.1430  0.4150
  312MOL0     C42972   7.879   6.631   5.973  0.3480 -0.1747 -0.2847
  312MOL0     C42973   7.751   6.356   5.677 -0.6450 -0.2816 -0.1141
  312MOL0     C42974   7.621   6.373   5.730 -0.4912 -0.3307 -0.6264
  312MOL0     C42975   7.523   6.280   5.720  0.3462  0.5423 -0.5309
  312MOL0     C42976   7.546   6.160   5.648  0.1552 -0.4170 -0.5092
  312MOL0     O42977   7.468   6.049   5.637  0.4225 -0.5092 -0.2561
  312MOL0     C42978   7.345   6.053   5.709 -0.4069 -0.0789  0.5618
  312MOL0     C42979   7.312   5.898   5.722  0.0026  0.1480 -0.3340
  312MOL0     C42980   7.238   5.837   5.603 -0.9882 -0.1996  0.1769
  312MOL0     C42981   7.083   5.829   5.628  0.1681  1.3351  0.2918
  312MOL0     C42982   7.024   5.963   5.620 -0.0929 -0.9602  0.5505
  312MOL0     C42983   6.982   6.082   5.618  0.4278  0.0031  0.2585
  312MOL0     C42984   7.668   6.154   5.580  0.4606 -0.1712  0.5635
  312MOL0     C42985   7.776   6.243   5.597  0.6818  0.2491  0.2077
  312MOL0     C42986   7.911   6.215   5.527  0.1124 -0.4001 -0.8637
  312MOL0     H42987   7.936   6.827   5.690  0.1050  3.5418  0.8340
  312MOL0     H42988   8.083   6.940   5.864  1.8583  0.1934 -1.2243
  312MOL0     H42989   8.242   6.755   6.150 -1.9039 -0.5593 -1.0472
  312MOL0     H42990   8.123   6.786   6.276 -0.7547 -2.8975 -1.0047
  312MOL0     H42991   8.346   6.950   6.146  1.2544 -1.3887  1.4669
  312MOL0     H42992   8.226   7.044   6.252 -2.4806 -0.8718 -2.1360
  312MOL0     H42993   8.437   6.824   6.327  0.8726  0.2146 -1.9719
  312MOL0     H42994   8.440   6.985   6.373 -0.9699  1.7482 -1.0553
  312MOL0     H42995   8.231   6.976   6.509  1.7774  0.9377 -2.1489
  312MOL0     H42996   8.213   6.802   6.461 -1.6299  0.3706  0.7367
  312MOL0     H42997   8.413   6.745   6.575  0.1476 -0.9597  2.2762
  312MOL0     H42998   8.300   6.840   6.676  1.4198 -0.8658  1.2075
  312MOL0     H42999   8.524   6.902   6.729  0.5190  1.0957 -0.1059
  312MOL0     H43000   8.566   6.910   6.559 -1.2583  1.7474 -0.4518
  312MOL0     H43001   8.392   7.104   6.712  2.7994  0.3153  2.0399
  312MOL0     H43002   8.421   7.109   6.531  2.0053 -0.4700 -1.3635
  312MOL0     H43003   8.668   7.119   6.596 -0.7297  3.0219 -1.5566
  312MOL0     H43004   8.575   7.261   6.635  1.2470  0.4794 -1.1271
  312MOL0     H43005   8.763   7.343   6.781 -0.4309 -2.6543 -3.9816
  312MOL0     H43006   8.933   7.395   6.984  1.4522 -1.4981 -1.0373
  312MOL0     H43007   8.936   7.278   7.108 -0.5487  1.7717  1.3049
  312MOL0     H43008   8.745   7.526   7.076  1.2762  0.8836  1.7313
  312MOL0     H43009   8.672   7.383   7.143  0.6739 -1.3622  0.3421
  312MOL0     H43010   8.745   7.513   7.322  0.2886  0.1957  0.2758
  312MOL0     H43011   8.885   7.407   7.317  1.3024 -0.0794 -2.6074
  312MOL0     H43012   8.991   7.581   7.171 -1.3436 -2.7311 -0.8094
  312MOL0     H43013   8.851   7.684   7.185 -1.6584 -0.3969 -1.2456
  312MOL0     H43014   9.023   7.727   7.587  1.3257 -0.0982  1.6396
  312MOL0     H43015   9.282   7.638   7.808 -1.2177 -1.5117 -0.0639
  312MOL0     H43016   9.154   7.744   7.770  0.1264  1.0271 -1.4321
  312MOL0     H43017   9.306   7.805   7.720 -2.1691  1.6929  0.4006
  312MOL0     H43018   9.749   7.674   7.270 -2.4326 -0.0022  1.1922
  312MOL0     H43019   9.973   7.623   7.284 -1.0390  0.7434 -0.8954
  312MOL0     H43020  10.177   7.470   7.646 -2.0553 -1.9762  1.3346
  312MOL0     H43021  10.101   7.314   7.592  0.9377 -0.8045 -1.7652
  312MOL0     H43022  10.274   7.315   7.411  0.6141 -0.6264  1.1310
  312MOL0     H43023  10.358   7.445   7.501  0.4598  0.3450  1.9743
  312MOL0     H43024  10.310   7.167   7.624 -0.0527 -0.5452  1.3135
  312MOL0     H43025  10.414   7.302   7.678  3.0711  0.2825 -2.3031
  312MOL0     H43026  10.575   7.280   7.534 -0.8340 -0.0632  0.9795
  312MOL0     H43027  10.472   7.206   7.403  0.4389 -0.8625  0.1362
  312MOL0     H43028  10.550   7.082   7.664 -1.7339  2.4865  0.8094
  312MOL0     H43029  10.451   6.999   7.548 -0.8350 -0.5141  4.1667
  312MOL0     H43030  10.642   7.068   7.372 -2.3635  2.9154  1.2252
  312MOL0     H43031  10.629   6.910   7.458 -0.0131 -0.1168 -1.7970
  312MOL0     H43032  10.809   7.002   7.617  0.9202 -1.9404 -0.9554
  312MOL0     H43033  10.798   7.156   7.522  0.3690  0.1264  0.7334
  312MOL0     H43034  10.993   7.061   7.461  0.4535 -1.6529  2.4966
  312MOL0     H43035  10.876   7.046   7.325 -1.6712 -1.5001 -0.2731
  312MOL0     H43036   9.901   7.391   7.636 -1.0270 -0.3481  0.4392
  312MOL0     H43037   9.669   7.436   7.625  0.8708 -0.1360 -0.3603
  312MOL0     H43038   9.367   7.481   7.330 -1.1677 -0.9205 -0.5097
  312MOL0     H43039   9.132   7.478   7.266  1.1107  1.5560 -1.6936
  312MOL0     H43040   7.950   6.677   6.169  1.1064 -3.1138 -0.4209
  312MOL0     H43041   7.810   6.554   6.008 -1.4992  1.6688  0.4049
  312MOL0     H43042   7.607   6.463   5.789 -0.3387 -2.2495  2.5486
  312MOL0     H43043   7.430   6.294   5.774  1.3391 -1.7585  2.0142
  312MOL0     H43044   7.352   6.107   5.803  0.3185  2.7337 -1.0027
  312MOL0     H43045   7.269   6.098   5.644 -2.1811 -2.4404  0.8702
  312MOL0     H43046   7.246   5.879   5.807 -1.7242 -0.9384 -1.8530
  312MOL0     H43047   7.411   5.850   5.729 -0.7057 -1.4054 -0.6120
  312MOL0     H43048   7.259   5.893   5.512 -1.6559  0.8585  0.6663
  312MOL0     H43049   7.280   5.737   5.587 -0.7256 -0.0230 -0.2413
  312MOL0     H43050   7.050   5.780   5.720 -2.5097  0.2436 -1.1448
  312MOL0     H43051   7.037   5.770   5.548 -0.2416  1.0684  0.7203
  312MOL0     H43052   6.934   6.178   5.622 -0.9852 -0.7205  1.5909
  312MOL0     H43053   7.677   6.069   5.513  0.9883  0.2380  0.0944
  312MOL0     H43054   7.996   6.222   5.596  0.0038 -0.2339 -0.7471
  312MOL0     H43055   7.897   6.115   5.483 -1.4475 -1.5573  1.9753
  312MOL0     H43056   7.941   6.288   5.451 -0.2251 -1.1389 -1.7247
  313MOL0     O43057   9.337   2.107   3.886  0.4458  0.4055  0.5225
  313MOL0     C43058   9.246   2.060   3.953  0.3569 -0.4514 -0.2251
  313MOL0     O43059   9.269   2.010   4.080  0.1652 -0.0592 -0.0295
  313MOL0     C43060   9.395   2.017   4.132  0.9248 -0.3636 -0.2866
  313MOL0     C43061   9.445   1.898   4.180 -1.1671 -0.0740  0.0870
  313MOL0     C43062   9.576   1.889   4.243  0.2821  0.1923  0.5055
  313MOL0     C43063   9.661   2.000   4.241  0.7759 -0.1187  0.2788
  313MOL0     O43064   9.795   1.994   4.284  0.6680 -0.5059 -0.1308
  313MOL0     C43065   9.845   1.859   4.289 -0.3962  0.6016  0.3263
  313MOL0     C43066   9.991   1.880   4.335 -0.6509  0.2967  0.2710
  313MOL0     C43067  10.059   1.966   4.231  0.6406 -0.4380  0.5637
  313MOL0     C43068  10.204   1.969   4.239 -0.0298  0.6151  0.2623
  313MOL0     C43069  10.265   2.041   4.121  0.6128  1.0282 -0.2496
  313MOL0     C43070  10.411   2.009   4.097  0.2933  0.2532  1.2761
  313MOL0     C43071  10.503   2.033   4.210 -0.8667  0.2874 -0.9050
  313MOL0     C43072  10.651   2.013   4.161  0.1266  0.1924 -0.3524
  313MOL0     N43073  10.738   2.061   4.273  0.1508  0.0364  0.3604
  313MOL0     C43074  10.762   2.193   4.302  0.1095  0.2012  0.0520
  313MOL0     C43075  10.844   2.196   4.405  0.2560 -0.3775 -0.8607
  313MOL0     C43076  10.889   2.312   4.494  0.5981 -0.6232  0.4519
  313MOL0     C43077  11.006   2.387   4.439 -0.4679  0.0513 -0.0624
  313MOL0     C43078  10.972   2.471   4.315  0.3728  0.1016  0.2517
  313MOL0     C43079  11.078   2.570   4.270 -0.1376  0.5339  0.7922
  313MOL0     O43080  11.206   2.507   4.230 -0.8352 -0.4659 -0.8093
  313MOL0     C43081  11.318   2.508   4.320 -0.7170 -0.1624  1.0595
  313MOL0     C43082  11.313   2.536   4.451  0.5942 -0.3219 -0.3398
  313MOL0     C43083  11.430   2.545   4.526  0.6927 -0.5082 -0.1980
  313MOL0     C43084  11.411   2.564   4.677 -0.2855  0.3198  0.8224
  313MOL0     C43085  11.557   2.516   4.466 -0.3238 -0.1039  0.2733
  313MOL0     C43086  11.685   2.498   4.540 -0.2045  0.7783 -0.2421
  313MOL0     O43087  11.789   2.461   4.460  0.2870  0.4488 -0.3233
  313MOL0     C43088  11.915   2.466   4.511  0.4554 -0.1902  0.6710
  313MOL0     C43089  11.987   2.578   4.504  0.1768 -0.9189 -0.0802
  313MOL0     C43090  12.121   2.585   4.556  0.2234  0.2568  0.3358
  313MOL0     C43091  12.173   2.468   4.615 -0.3395 -0.6689 -0.0030
  313MOL0     O43092  12.306   2.484   4.668  0.0735  0.4021  1.1142
  313MOL0     C43093  12.297   2.482   4.811 -0.2059 -0.2866  0.5161
  313MOL0     C43094  12.417   2.560   4.872  0.1575  0.1365 -0.6008
  313MOL0     C43095  12.447   2.521   5.009  0.1682 -0.5092  0.9620
  313MOL0     C43096  12.534   2.625   5.086  0.3953 -0.2210  0.7678
  313MOL0     C43097  12.542   2.605   5.234  0.2098 -0.1076  0.2551
  313MOL0     C43098  12.693   2.647   5.283  0.3442 -0.7437  0.0272
  313MOL0     C43099  12.708   2.621   5.435  1.0670 -0.3667  0.7664
  313MOL0     C43100  12.846   2.656   5.487  0.3873  0.3692  0.2313
  313MOL0    Cl43101  12.839   2.654   5.665 -0.0209  0.2728  0.1852
  313MOL0     C43102  12.088   2.348   4.628 -0.0307 -0.1460  0.3307
  313MOL0     C43103  11.960   2.349   4.570 -0.1032 -0.8236  0.3029
  313MOL0     O43104  11.691   2.516   4.658 -0.4698 -0.0378  0.1133
  313MOL0     C43105  11.557   2.494   4.329 -0.1519  0.6042  0.5082
  313MOL0     C43106  11.442   2.486   4.258 -0.5872  0.3253 -0.3944
  313MOL0     N43107  10.871   2.069   4.442 -0.1169 -0.2921  0.5911
  313MOL0     N43108  10.805   1.985   4.371  0.5701  0.1688 -0.2848
  313MOL0     C43109   9.607   2.118   4.204  1.0084 -0.3081 -0.0231
  313MOL0     C43110   9.475   2.128   4.145  0.3338  0.2046 -0.1638
  313MOL0     C43111   9.116   2.055   3.889  0.4656  0.0906  0.0355
  313MOL0     C43112   9.012   2.001   3.965 -0.2615  0.4290 -0.1809
  313MOL0     C43113   8.886   1.985   3.907  0.2012  0.4024  0.2053
  313MOL0     C43114   8.857   2.027   3.779  0.1619  0.8622  0.3817
  313MOL0     O43115   8.743   2.009   3.709 -0.4349 -0.0783  0.1631
  313MOL0     C43116   8.633   1.932   3.763  0.1521  1.2101  0.4034
  313MOL0     C43117   8.512   1.952   3.672 -0.4160  0.5655  0.4772
  313MOL0     C43118   8.385   1.867   3.699  0.1666 -0.2320 -0.0893
  313MOL0     C43119   8.261   1.916   3.622 -0.5195  0.0636  0.5212
  313MOL0     C43120   8.231   2.054   3.655  0.1965 -0.4241 -0.2269
  313MOL0     C43121   8.201   2.176   3.674  0.5770  0.3788  0.4351
  313MOL0     C43122   8.950   2.096   3.716 -0.6577 -0.4016  0.0299
  313MOL0     C43123   9.078   2.117   3.773 -0.3512  0.9127  0.8016
  313MOL0     C43124   9.162   2.205   3.692  0.0485  0.3850 -0.7055
  313MOL0     H43125   9.390   1.806   4.167 -0.1065 -0.8158  0.7628
  313MOL0     H43126   9.604   1.788   4.273  0.5480 -0.6774 -2.3862
  313MOL0     H43127   9.838   1.811   4.191 -1.0420  0.0970  0.6127
  313MOL0     H43128   9.800   1.801   4.370 -1.5869 -0.3860 -0.9907
  313MOL0     H43129  10.003   1.936   4.428  0.0859  1.5860 -0.5514
  313MOL0     H43130  10.040   1.784   4.349 -0.6534  0.4639  1.4831
  313MOL0     H43131  10.024   1.928   4.135 -3.3039  0.7866  1.3579
  313MOL0     H43132  10.024   2.070   4.236  1.8853 -0.0362  1.5771
  313MOL0     H43133  10.236   2.008   4.336 -0.1753  2.0764 -0.2445
  313MOL0     H43134  10.238   1.865   4.239 -2.0480 -0.1002  1.3750
  313MOL0     H43135  10.257   2.147   4.147 -0.2146  0.2611  3.1701
  313MOL0     H43136  10.205   2.026   4.031 -0.2759 -0.3453  0.5216
  313MOL0     H43137  10.424   1.906   4.063 -1.3167  0.7247 -0.9939
  313MOL0     H43138  10.449   2.078   4.020  0.9437 -0.5991  0.8179
  313MOL0     H43139  10.484   1.974   4.300  4.7084 -1.2163 -0.2713
  313MOL0     H43140  10.500   2.140   4.232  0.8586  0.0872  0.5680
  313MOL0     H43141  10.681   1.910   4.142  3.2005  0.7922  0.7193
  313MOL0     H43142  10.659   2.089   4.082 -0.1330  2.7312  1.8959
  313MOL0     H43143  10.726   2.275   4.240 -1.1271  0.5386  1.1773
  313MOL0     H43144  10.924   2.282   4.592 -0.5550 -0.6969  0.8562
  313MOL0     H43145  10.802   2.376   4.514 -0.7010 -2.5508  1.1900
  313MOL0     H43146  11.031   2.464   4.513 -2.0478  1.2184 -0.6660
  313MOL0     H43147  11.096   2.326   4.431  0.9812  1.9599  0.7611
  313MOL0     H43148  10.964   2.392   4.240 -0.6174 -1.4610  1.9004
  313MOL0     H43149  10.878   2.525   4.329 -0.6621 -1.3719 -0.7528
  313MOL0     H43150  11.053   2.616   4.174  1.7441  0.6686  0.3212
  313MOL0     H43151  11.096   2.648   4.345  2.8986 -0.1938  0.9612
  313MOL0     H43152  11.213   2.552   4.490 -0.1423  2.0097 -2.8983
  313MOL0     H43153  11.306   2.579   4.705 -1.3788  0.8795 -3.0303
  313MOL0     H43154  11.456   2.659   4.706  1.2127  0.0925 -0.6179
  313MOL0     H43155  11.455   2.484   4.737  1.7745  0.3012 -0.6250
  313MOL0     H43156  11.943   2.662   4.452 -1.6912 -1.4350  0.5917
  313MOL0     H43157  12.185   2.671   4.540 -0.7658  0.5451 -2.6066
  313MOL0     H43158  12.201   2.525   4.842 -1.0999 -1.1581 -0.8954
  313MOL0     H43159  12.307   2.378   4.842  1.2976 -0.5133 -0.6363
  313MOL0     H43160  12.509   2.550   4.814 -0.0304 -0.7359 -0.7650
  313MOL0     H43161  12.393   2.666   4.863 -0.4762 -0.0114 -0.7206
  313MOL0     H43162  12.474   2.416   5.024  1.1575 -0.0157  3.1481
  313MOL0     H43163  12.350   2.512   5.059 -0.1180 -1.7364  0.2232
  313MOL0     H43164  12.508   2.728   5.060 -0.2215 -0.8201 -1.1337
  313MOL0     H43165  12.635   2.602   5.052  0.2596 -2.4717  1.6863
  313MOL0     H43166  12.468   2.669   5.282  0.0776  1.2873 -1.6978
  313MOL0     H43167  12.521   2.499   5.254 -1.3861 -0.0925 -1.0653
  313MOL0     H43168  12.710   2.754   5.272  1.1099 -0.4701  2.9451
  313MOL0     H43169  12.772   2.595   5.227  0.8945 -0.2782  0.3549
  313MOL0     H43170  12.676   2.519   5.459  1.3130 -0.1208  2.2172
  313MOL0     H43171  12.643   2.687   5.492 -0.5559 -2.7466  1.8400
  313MOL0     H43172  12.857   2.760   5.458 -1.6302  0.8365  0.9592
  313MOL0     H43173  12.924   2.602   5.432 -0.4531  1.5321 -2.2084
  313MOL0     H43174  12.116   2.255   4.676  2.3781 -0.3472 -1.2884
  313MOL0     H43175  11.896   2.262   4.566 -1.6104  0.2018  1.0543
  313MOL0     H43176  11.654   2.484   4.282  0.0604 -0.0169  1.0850
  313MOL0     H43177  11.455   2.477   4.150 -1.3267  1.8213 -0.6366
  313MOL0     H43178   9.668   2.208   4.203 -1.8007  1.7846  1.4507
  313MOL0     H43179   9.450   2.223   4.099  1.4224  1.0281  0.8941
  313MOL0     H43180   9.033   1.967   4.066  1.8500  1.8179 -0.0891
  313MOL0     H43181   8.805   1.939   3.962 -1.0313  1.8134 -0.3310
  313MOL0     H43182   8.657   1.826   3.771  0.8128  1.4002  1.0940
  313MOL0     H43183   8.612   1.960   3.867  0.0589  0.2928  0.6364
  313MOL0     H43184   8.545   1.916   3.574 -2.7099  2.2703 -1.0239
  313MOL0     H43185   8.496   2.060   3.673  0.0687  0.8754 -3.8829
  313MOL0     H43186   8.413   1.765   3.669 -2.0912 -0.4210 -1.8400
  313MOL0     H43187   8.371   1.871   3.808  0.2307  0.6807 -0.1069
  313MOL0     H43188   8.184   1.839   3.636  1.0801 -1.5184  1.0864
  313MOL0     H43189   8.284   1.918   3.516 -0.2197 -1.7881  0.5181
  313MOL0     H43190   8.163   2.273   3.701  0.8515  0.2223  1.4309
  313MOL0     H43191   8.927   2.140   3.620  0.6003  4.2194  1.5548
  313MOL0     H43192   9.183   2.292   3.756  0.9268 -0.3062 -0.0447
  313MOL0     H43193   9.247   2.152   3.650 -1.1305 -1.6629 -0.6200
  313MOL0     H43194   9.103   2.247   3.609 -0.5628 -1.2219 -1.1130
  314MOL0     O43195   3.464   8.940   7.310  0.2493  0.0549  0.2686
  314MOL0     C43196   3.400   8.981   7.407  0.6395  0.2265  0.5402
  314MOL0     O43197   3.452   9.027   7.520  0.5186 -0.1692 -0.3493
  314MOL0     C43198   3.584   9.006   7.551  0.2378 -0.1147 -0.8710
  314MOL0     C43199   3.635   8.875   7.577 -0.0318  0.3025 -0.0764
  314MOL0     C43200   3.773   8.857   7.600  0.6332  0.1484  0.2722
  314MOL0     C43201   3.863   8.968   7.592  0.7093  0.8270 -0.2708
  314MOL0     O43202   3.998   8.969   7.611 -0.9097  0.4176  0.5503
  314MOL0     C43203   4.049   9.051   7.716 -0.0726  0.4722 -0.0071
  314MOL0     C43204   4.156   9.155   7.675 -0.5049  0.1973  0.6372
  314MOL0     C43205   4.290   9.090   7.645 -0.5722 -0.2820  0.2508
  314MOL0     C43206   4.361   9.020   7.757  0.1428  0.3901  0.1489
  314MOL0     C43207   4.505   8.978   7.732 -0.0704 -0.9802  0.0629
  314MOL0     C43208   4.565   8.911   7.861  0.1426  0.5863  0.3514
  314MOL0     C43209   4.706   8.867   7.851  0.4762  0.1565 -0.2722
  314MOL0     C43210   4.716   8.747   7.756  0.5221 -0.0654 -0.0630
  314MOL0     N43211   4.846   8.721   7.715  0.1723 -0.3353 -0.3947
  314MOL0     C43212   4.921   8.801   7.630  0.0252 -0.0701 -0.9925
  314MOL0     C43213   5.038   8.743   7.615 -0.0640  0.5116  0.0045
  314MOL0     C43214   5.159   8.781   7.543  0.2482  0.3774 -0.0645
  314MOL0     C43215   5.196   8.929   7.578  0.0439 -0.2599 -0.2237
  314MOL0     C43216   5.342   8.953   7.546 -0.0714 -0.0881  0.2408
  314MOL0     C43217   5.395   9.079   7.619  0.0320  0.8671 -0.1164
  314MOL0     O43218   5.425   9.044   7.756  0.4795 -0.4609  0.6767
  314MOL0     C43219   5.498   9.119   7.837 -0.2339  0.1120 -1.2437
  314MOL0     C43220   5.512   9.081   7.973 -0.4224  0.8373 -0.0310
  314MOL0     C43221   5.578   9.155   8.067 -0.5473  0.6264  0.5624
  314MOL0     C43222   5.582   9.097   8.212  0.5696 -0.0901  0.0244
  314MOL0     C43223   5.639   9.278   8.023  0.0476 -0.8562 -0.3199
  314MOL0     C43224   5.737   9.352   8.111 -0.6546  0.5251  0.2030
  314MOL0     O43225   5.746   9.492   8.105  0.2347  0.3967 -0.1342
  314MOL0     C43226   5.837   9.543   8.192 -0.3471 -0.2431  0.0207
  314MOL0     C43227   5.797   9.570   8.322  0.7392  0.1696 -0.7227
  314MOL0     C43228   5.882   9.650   8.402 -0.3715 -0.1921 -0.5167
  314MOL0     C43229   6.014   9.684   8.360  0.4425  0.3383  0.1726
  314MOL0     O43230   6.096   9.758   8.441  0.1356  0.5594 -0.6745
  314MOL0     C43231   6.039   9.878   8.501 -0.2807  0.5076  0.4000
  314MOL0     C43232   6.000   9.986   8.400  0.4092  0.1861  0.9665
  314MOL0     C43233   6.022  10.132   8.428  1.3649  1.0527 -0.6611
  314MOL0     C43234   6.167  10.168   8.433 -0.1126  0.8029  0.4251
  314MOL0     C43235   6.171  10.315   8.478  0.5164  0.4604 -0.4627
  314MOL0     C43236   6.311  10.346   8.502 -0.2052  0.2852 -0.3872
  314MOL0     C43237   6.330  10.496   8.511  0.8866  0.2655 -0.1600
  314MOL0     C43238   6.476  10.534   8.520 -0.1465  0.3944  0.1823
  314MOL0    Cl43239   6.559  10.464   8.654 -0.0119 -0.0299 -0.1888
  314MOL0     C43240   6.052   9.634   8.236  0.5507  0.0461  0.2000
  314MOL0     C43241   5.963   9.570   8.154  0.1292 -0.2489  0.5751
  314MOL0     O43242   5.809   9.276   8.179 -0.9370 -0.4365 -0.3612
  314MOL0     C43243   5.616   9.326   7.896 -0.3154  0.3256  1.3602
  314MOL0     C43244   5.559   9.243   7.794  0.0558 -0.0600 -0.4458
  314MOL0     N43245   5.035   8.617   7.677  0.2584  0.1160 -0.4458
  314MOL0     N43246   4.919   8.603   7.737  0.5259 -0.5144  0.8458
  314MOL0     C43247   3.801   9.096   7.581 -0.3797 -0.1450  0.1919
  314MOL0     C43248   3.670   9.112   7.550  1.4458 -0.2063  0.4053
  314MOL0     C43249   3.258   9.010   7.379 -1.0459  0.2702  0.1104
  314MOL0     C43250   3.202   9.132   7.423 -0.1355  0.7026  0.9237
  314MOL0     C43251   3.073   9.175   7.390  0.1293  0.4453 -0.1370
  314MOL0     C43252   2.986   9.086   7.332 -0.0241 -0.4312 -0.0601
  314MOL0     O43253   2.861   9.124   7.294 -0.0337  0.5974 -0.3557
  314MOL0     C43254   2.787   9.035   7.209  0.4508 -0.3630  0.0126
  314MOL0     C43255   2.658   9.105   7.169 -0.0505 -0.6716  0.7189
  314MOL0     C43256   2.572   9.015   7.079  0.6039  0.5643 -0.4815
  314MOL0     C43257   2.451   9.093   7.023 -0.2647 -0.9522  0.8709
  314MOL0     C43258   2.380   9.174   7.122  0.9928  0.2446  0.4725
  314MOL0     C43259   2.306   9.234   7.198 -0.6697  0.5327  0.4854
  314MOL0     C43260   3.028   8.957   7.307  0.4535  0.1893 -0.4282
  314MOL0     C43261   3.161   8.926   7.309  0.3206  0.3750  0.4213
  314MOL0     C43262   3.212   8.790   7.259 -0.5975  0.3820  0.2102
  314MOL0     H43263   3.567   8.791   7.578  2.5693 -2.0566  3.5403
  314MOL0     H43264   3.819   8.759   7.598  2.4661  0.9455 -2.5907
  314MOL0     H43265   4.086   8.982   7.792 -1.4306 -0.3367 -0.0582
  314MOL0     H43266   3.969   9.108   7.763 -2.9389  0.6517 -4.4930
  314MOL0     H43267   4.123   9.211   7.587  1.1268 -0.1179 -0.2133
  314MOL0     H43268   4.167   9.234   7.749 -0.4372  0.0736  0.7603
  314MOL0     H43269   4.273   9.016   7.566  0.6597  0.2418 -0.5303
  314MOL0     H43270   4.356   9.169   7.607 -2.1934  1.3218  0.6403
  314MOL0     H43271   4.373   9.096   7.833  1.2631  0.1544  0.2242
  314MOL0     H43272   4.296   8.939   7.791  1.1079 -0.9105 -0.9679
  314MOL0     H43273   4.562   9.071   7.720 -1.2540 -0.2491  0.0061
  314MOL0     H43274   4.510   8.919   7.640  2.9305  0.1090 -0.5972
  314MOL0     H43275   4.560   8.986   7.940 -3.6841 -0.5119  1.3396
  314MOL0     H43276   4.498   8.826   7.876  0.5937  0.3343  0.9845
  314MOL0     H43277   4.732   8.835   7.952 -0.6596  1.8653  0.6028
  314MOL0     H43278   4.770   8.949   7.819  1.5121 -0.6801 -0.4314
  314MOL0     H43279   4.669   8.663   7.808  0.2943 -0.1823 -0.4513
  314MOL0     H43280   4.664   8.779   7.665  1.1019 -0.3765 -0.5123
  314MOL0     H43281   4.888   8.895   7.588 -0.6954 -0.3549 -1.0871
  314MOL0     H43282   5.149   8.772   7.434 -1.6661 -1.3998  0.1880
  314MOL0     H43283   5.241   8.722   7.584 -1.1046 -0.4670  1.5612
  314MOL0     H43284   5.128   9.005   7.537  0.7253 -0.0367 -0.9802
  314MOL0     H43285   5.194   8.945   7.686 -1.1690 -0.3951 -0.2188
  314MOL0     H43286   5.404   8.869   7.579  1.1027  0.7758  0.2981
  314MOL0     H43287   5.357   8.956   7.438  0.2760 -0.9046  0.2608
  314MOL0     H43288   5.483   9.112   7.563  0.3041 -0.3428 -0.4311
  314MOL0     H43289   5.328   9.164   7.600  0.4083  1.3025  0.4578
  314MOL0     H43290   5.464   8.995   8.018 -0.4830  1.7258  1.6724
  314MOL0     H43291   5.679   9.050   8.232  1.1130  0.8819 -0.2489
  314MOL0     H43292   5.502   9.023   8.220  0.4959 -0.1009 -0.7252
  314MOL0     H43293   5.570   9.174   8.289  1.9153  1.8899 -1.6180
  314MOL0     H43294   5.695   9.550   8.355  0.9710 -2.6241 -1.5047
  314MOL0     H43295   5.848   9.680   8.500 -0.1627  0.3467 -0.6087
  314MOL0     H43296   5.959   9.852   8.571 -1.2607 -2.9937 -1.7955
  314MOL0     H43297   6.126   9.923   8.551 -1.2812  1.0678  1.6851
  314MOL0     H43298   6.051   9.960   8.306 -0.6140 -1.2604  0.7757
  314MOL0     H43299   5.894   9.973   8.375  1.1679  0.8452 -3.4473
  314MOL0     H43300   5.982  10.146   8.529 -0.1070  1.1131 -1.2329
  314MOL0     H43301   5.958  10.196   8.367 -1.8215 -0.3773  0.9442
  314MOL0     H43302   6.224  10.152   8.341  1.7867 -1.2156  1.8573
  314MOL0     H43303   6.223  10.109   8.506  2.5113  2.2737 -0.2606
  314MOL0     H43304   6.130  10.385   8.405  0.0800  0.4118 -0.2654
  314MOL0     H43305   6.112  10.336   8.567  0.5048 -0.6044 -0.2083
  314MOL0     H43306   6.375  10.314   8.420 -0.8444 -1.5314 -0.2057
  314MOL0     H43307   6.342  10.307   8.599  0.9538 -3.0235 -1.9602
  314MOL0     H43308   6.282  10.529   8.604  1.1375  0.4421 -0.0904
  314MOL0     H43309   6.290  10.542   8.420 -0.3287 -1.2373 -0.4334
  314MOL0     H43310   6.479  10.643   8.527 -2.8677  0.5221  0.5365
  314MOL0     H43311   6.523  10.499   8.428  2.0264 -0.8192  1.6410
  314MOL0     H43312   6.150   9.660   8.197  0.7044 -1.7389 -0.7075
  314MOL0     H43313   5.999   9.525   8.062  0.9511  0.2235  0.6539
  314MOL0     H43314   5.651   9.425   7.867  1.4628 -0.7373 -0.3652
  314MOL0     H43315   5.556   9.280   7.692 -0.6435 -1.5726 -1.0128
  314MOL0     H43316   3.862   9.185   7.585  0.3021 -0.5222 -1.1790
  314MOL0     H43317   3.626   9.208   7.526  1.0258 -0.6297 -0.5810
  314MOL0     H43318   3.264   9.206   7.473 -0.2866  1.4947 -0.0310
  314MOL0     H43319   3.032   9.273   7.411 -1.5564 -0.5839  1.7578
  314MOL0     H43320   2.838   9.005   7.118  2.5012  1.6087  0.4285
  314MOL0     H43321   2.764   8.943   7.264  0.0442 -0.4088 -0.2332
  314MOL0     H43322   2.684   9.197   7.117 -1.6248 -1.0567 -0.8762
  314MOL0     H43323   2.601   9.137   7.257 -1.6406 -0.6637 -0.2785
  314MOL0     H43324   2.625   8.977   6.991  1.2328  3.2878 -1.3972
  314MOL0     H43325   2.521   8.938   7.138  0.5528  0.9876  0.0332
  314MOL0     H43326   2.391   9.012   6.981  0.5659 -1.0188 -0.2170
  314MOL0     H43327   2.485   9.147   6.935 -2.0629 -2.6367 -0.9505
  314MOL0     H43328   2.250   9.296   7.265  1.6321  1.0303  2.0557
  314MOL0     H43329   2.971   8.890   7.243  1.1913 -0.2848 -0.5942
  314MOL0     H43330   3.132   8.734   7.210 -0.5787 -1.2120  1.9073
  314MOL0     H43331   3.297   8.797   7.189 -0.2856 -1.3705  0.3717
  314MOL0     H43332   3.244   8.732   7.346  0.9006  3.3874  1.8196
  315MOL0     O43333   4.596   3.769   4.818 -0.4076  0.0522  0.1907
  315MOL0     C43334   4.536   3.738   4.921  0.1084  0.0619 -0.0566
  315MOL0     O43335   4.571   3.764   5.046  0.3268  0.0760 -0.0652
  315MOL0     C43336   4.666   3.858   5.074  0.6236  0.0610 -0.0853
  315MOL0     C43337   4.630   3.994   5.070  0.3373 -0.0517  0.0353
  315MOL0     C43338   4.730   4.084   5.112 -0.7279 -0.4012  0.6830
  315MOL0     C43339   4.855   4.046   5.147  0.1474  0.4952 -0.2108
  315MOL0     O43340   4.947   4.135   5.191 -0.2229  0.8488 -0.7421
  315MOL0     C43341   5.091   4.127   5.172  0.2323 -0.0117  0.1690
  315MOL0     C43342   5.157   4.241   5.236  0.5057  0.3136  0.2443
  315MOL0     C43343   5.302   4.238   5.201  0.0867  0.6674 -1.1585
  315MOL0     C43344   5.381   4.343   5.270  0.3164  0.2379  0.8375
  315MOL0     C43345   5.538   4.339   5.260  0.0276  0.5539 -0.7326
  315MOL0     C43346   5.606   4.251   5.380  0.3271 -0.6792 -0.4575
  315MOL0     C43347   5.746   4.207   5.351 -0.1365  0.2507  0.0393
  315MOL0     C43348   5.861   4.305   5.383 -0.4689  0.5189 -0.5020
  315MOL0     N43349   5.987   4.244   5.334  0.7975 -0.2006 -0.1356
  315MOL0     C43350   6.019   4.205   5.205  0.6227 -0.1026  0.6902
  315MOL0     C43351   6.144   4.165   5.210 -0.3531  0.4805 -0.5228
  315MOL0     C43352   6.203   4.080   5.101 -0.0557 -0.2165 -0.2942
  315MOL0     C43353   6.349   4.106   5.083 -0.5658 -0.1965 -0.0533
  315MOL0     C43354   6.415   4.024   4.970  0.1365 -0.1802 -0.7372
  315MOL0     C43355   6.558   4.067   4.958 -0.1339  0.0583  0.3925
  315MOL0     O43356   6.573   4.207   4.916 -0.1757  0.0521  0.4316
  315MOL0     C43357   6.700   4.252   4.942 -0.4233  0.3581 -0.4761
  315MOL0     C43358   6.801   4.248   4.842 -0.7188 -0.0972 -0.2730
  315MOL0     C43359   6.940   4.269   4.871 -0.5067 -0.3538  0.1337
  315MOL0     C43360   7.050   4.240   4.772 -0.6567 -0.0385  0.4006
  315MOL0     C43361   6.970   4.307   5.004 -0.1712  0.3494  0.6600
  315MOL0     C43362   7.107   4.341   5.049  0.0786 -0.8544 -0.0787
  315MOL0     O43363   7.157   4.290   5.163 -0.2783 -0.0175 -0.2214
  315MOL0     C43364   7.274   4.343   5.199  0.0830  0.3998 -0.6185
  315MOL0     C43365   7.277   4.426   5.311  0.2228 -1.2261  0.0289
  315MOL0     C43366   7.400   4.466   5.370  0.1509 -0.7265 -0.7907
  315MOL0     C43367   7.523   4.410   5.324  0.7584 -0.9932 -0.1791
  315MOL0     O43368   7.637   4.464   5.380  0.3044  1.1721 -0.3937
  315MOL0     C43369   7.760   4.391   5.389 -0.9032  0.9802 -1.2519
  315MOL0     C43370   7.768   4.265   5.482 -0.6898  0.3705 -0.1672
  315MOL0     C43371   7.912   4.249   5.533 -0.1822 -0.3952 -0.6629
  315MOL0     C43372   7.940   4.109   5.600 -0.1664  0.2626 -0.2014
  315MOL0     C43373   8.088   4.077   5.631 -0.3610  0.1840  0.5802
  315MOL0     C43374   8.094   3.933   5.669  0.1333  0.1625  0.2691
  315MOL0     C43375   8.226   3.888   5.742  0.9134 -0.7133 -0.0799
  315MOL0     C43376   8.236   3.947   5.883 -0.1541  0.8039  0.4940
  315MOL0    Cl43377   8.394   3.900   5.965 -0.1486 -0.1200 -0.0498
  315MOL0     C43378   7.513   4.321   5.211 -0.4631 -0.2087 -0.1173
  315MOL0     C43379   7.390   4.285   5.159  0.5226 -0.7483  0.2672
  315MOL0     O43380   7.162   4.424   4.984 -0.7719 -0.1085 -0.5836
  315MOL0     C43381   6.874   4.316   5.102 -0.0410 -0.6335  0.1911
  315MOL0     C43382   6.740   4.293   5.067 -0.1770  0.5120 -0.5324
  315MOL0     N43383   6.185   4.181   5.339 -0.8690  0.2923  0.0260
  315MOL0     N43384   6.090   4.215   5.412 -0.7679 -0.7819 -0.2305
  315MOL0     C43385   4.892   3.911   5.146 -0.4101  0.6779  0.5299
  315MOL0     C43386   4.792   3.816   5.105  0.1908 -0.8474  0.0227
  315MOL0     C43387   4.420   3.643   4.892  0.0199 -0.4641  0.0046
  315MOL0     C43388   4.368   3.582   5.007  0.1240 -0.3502  0.2138
  315MOL0     C43389   4.266   3.484   4.999  0.4516 -0.4915  0.1874
  315MOL0     C43390   4.205   3.455   4.876  0.2124  0.7131  0.2936
  315MOL0     O43391   4.103   3.361   4.888 -0.4395 -0.2744  0.5979
  315MOL0     C43392   4.021   3.308   4.778  0.1466 -0.2966 -0.3713
  315MOL0     C43393   3.955   3.183   4.825  0.4220  0.6044 -0.5293
  315MOL0     C43394   3.902   3.116   4.703 -0.5144  0.0011 -0.2266
  315MOL0     C43395   3.796   3.006   4.732 -1.0675 -1.2892  0.9045
  315MOL0     C43396   3.761   2.929   4.608 -0.1721  0.3246  0.2599
  315MOL0     C43397   3.729   2.856   4.512  0.0735  0.0389 -0.1598
  315MOL0     C43398   4.246   3.521   4.761 -0.3610  0.5827  0.6126
  315MOL0     C43399   4.362   3.614   4.762  0.4790  0.4304 -0.2769
  315MOL0     C43400   4.408   3.671   4.634  0.1070 -0.5097 -0.4141
  315MOL0     H43401   4.527   4.024   5.054 -0.0124 -0.7237  0.9338
  315MOL0     H43402   4.699   4.185   5.135  0.4127  0.4275 -1.1772
  315MOL0     H43403   5.101   4.139   5.063 -1.5875  4.3874  0.2899
  315MOL0     H43404   5.136   4.033   5.205 -2.2201 -1.1741  0.4312
  315MOL0     H43405   5.115   4.333   5.195 -3.0419  0.2287  3.2495
  315MOL0     H43406   5.153   4.225   5.344  3.1330 -2.2534  0.1243
  315MOL0     H43407   5.346   4.143   5.232  0.6016  1.5105  0.8326
  315MOL0     H43408   5.312   4.256   5.093  1.3925  3.6606 -0.6429
  315MOL0     H43409   5.344   4.438   5.228 -2.7174 -0.1738  2.2890
  315MOL0     H43410   5.367   4.342   5.379  2.6576 -0.1313  1.1953
  315MOL0     H43411   5.585   4.437   5.254  0.3655  0.4653  0.2112
  315MOL0     H43412   5.562   4.281   5.171 -2.4187 -0.1636 -1.0049
  315MOL0     H43413   5.603   4.310   5.472 -1.0552 -1.5015  0.0626
  315MOL0     H43414   5.551   4.162   5.412  2.6744 -2.3879 -0.9106
  315MOL0     H43415   5.751   4.171   5.247 -2.4014 -0.6773  0.1881
  315MOL0     H43416   5.763   4.129   5.426  2.1381  1.6524  1.0936
  315MOL0     H43417   5.854   4.402   5.333  0.3037  0.0641 -1.5108
  315MOL0     H43418   5.855   4.308   5.493 -2.3933 -0.6417 -0.5431
  315MOL0     H43419   5.951   4.198   5.120 -0.6497  0.5456  1.6316
  315MOL0     H43420   6.146   4.108   5.011  0.1419 -0.2029 -0.4159
  315MOL0     H43421   6.187   3.975   5.125 -0.8395 -0.3261 -1.1990
  315MOL0     H43422   6.366   4.212   5.062  0.8617 -0.9063 -3.1450
  315MOL0     H43423   6.393   4.087   5.181  2.7179  1.2804 -1.0796
  315MOL0     H43424   6.408   3.917   4.988  2.6441 -0.3258 -0.2467
  315MOL0     H43425   6.366   4.053   4.876  2.7581  2.4329 -1.4655
  315MOL0     H43426   6.605   4.059   5.057  0.3076 -3.5040  0.0265
  315MOL0     H43427   6.609   3.991   4.899 -2.6001 -0.1898 -1.6149
  315MOL0     H43428   6.779   4.218   4.740  2.9158  0.9355 -1.5328
  315MOL0     H43429   7.083   4.334   4.728 -2.4894  0.2528 -0.4215
  315MOL0     H43430   7.017   4.174   4.692  1.3180  0.6082 -1.0314
  315MOL0     H43431   7.142   4.194   4.811  1.5313  1.4833 -2.5144
  315MOL0     H43432   7.178   4.456   5.346  0.1333 -1.3446 -0.1208
  315MOL0     H43433   7.409   4.527   5.459 -0.0175 -0.2829 -1.0755
  315MOL0     H43434   7.793   4.361   5.289 -1.0453 -0.0849 -0.9879
  315MOL0     H43435   7.826   4.470   5.427  2.5966 -1.9582 -0.6117
  315MOL0     H43436   7.695   4.280   5.562  1.7751 -3.0538  3.0554
  315MOL0     H43437   7.738   4.174   5.429  0.9634  0.5230 -1.4686
  315MOL0     H43438   7.925   4.327   5.608  2.7247  1.0878 -2.5086
  315MOL0     H43439   7.987   4.280   5.459 -0.5570 -0.8081 -1.2262
  315MOL0     H43440   7.903   4.032   5.531 -2.1997 -0.7066  1.8337
  315MOL0     H43441   7.888   4.088   5.694  2.2934 -1.0530  0.9854
  315MOL0     H43442   8.155   4.095   5.546 -0.0200 -0.1018  0.7831
  315MOL0     H43443   8.120   4.149   5.707  0.3544 -2.0174  2.4859
  315MOL0     H43444   8.085   3.870   5.579 -0.7221 -1.1003  1.2047
  315MOL0     H43445   8.008   3.908   5.731 -0.0884  1.5286  0.5400
  315MOL0     H43446   8.313   3.933   5.694  0.5695  2.0787  1.7542
  315MOL0     H43447   8.241   3.779   5.743  0.5242 -0.8141 -1.6526
  315MOL0     H43448   8.153   3.904   5.940  1.7656  0.8274  3.5854
  315MOL0     H43449   8.229   4.055   5.893 -0.7487  0.6681  1.8313
  315MOL0     H43450   7.603   4.288   5.161  0.7434  6.1325 -3.1314
  315MOL0     H43451   7.378   4.219   5.074 -3.4443 -0.0055  0.0699
  315MOL0     H43452   6.900   4.348   5.202 -0.9234 -1.1161  0.5819
  315MOL0     H43453   6.673   4.298   5.153 -0.1958 -2.8244 -0.2107
  315MOL0     H43454   4.992   3.872   5.163 -0.7502 -0.1599  0.6516
  315MOL0     H43455   4.809   3.709   5.111 -0.5000 -1.0892 -1.6009
  315MOL0     H43456   4.417   3.600   5.102  2.1755 -0.8067 -0.7021
  315MOL0     H43457   4.236   3.438   5.093 -0.5260 -0.5091 -0.1157
  315MOL0     H43458   3.940   3.379   4.756  1.8010  1.6677 -0.4651
  315MOL0     H43459   4.092   3.304   4.695  0.6674  1.0974 -0.0191
  315MOL0     H43460   3.876   3.207   4.897  0.6879  0.5345 -0.2128
  315MOL0     H43461   4.033   3.120   4.867 -0.0122 -0.3855 -1.1729
  315MOL0     H43462   3.858   3.195   4.641 -0.8022 -0.4682 -0.6299
  315MOL0     H43463   3.989   3.078   4.649  1.2317  1.8190  1.1841
  315MOL0     H43464   3.708   3.058   4.771  0.4011  4.2548 -2.0866
  315MOL0     H43465   3.840   2.932   4.800 -0.9483 -1.1046  1.0295
  315MOL0     H43466   3.732   2.794   4.424  0.0779  1.8308 -1.4774
  315MOL0     H43467   4.201   3.500   4.665  0.3036 -0.3309  0.4848
  315MOL0     H43468   4.417   3.778   4.656 -1.6285 -0.8912  2.8257
  315MOL0     H43469   4.496   3.623   4.590 -0.4988 -1.3660 -0.7092
  315MOL0     H43470   4.340   3.667   4.549  0.6565  2.9612 -1.1983
  316MOL0     O43471   2.764   8.798   3.420 -0.1450  0.1360  1.3967
  316MOL0     C43472   2.684   8.784   3.320 -0.1227  0.3683 -0.1495
  316MOL0     O43473   2.717   8.769   3.182 -0.6864 -0.1932  0.1631
  316MOL0     C43474   2.853   8.796   3.143  0.8702  1.1547 -0.1054
  316MOL0     C43475   2.927   8.719   3.055 -0.8065  0.6035 -1.2264
  316MOL0     C43476   3.051   8.763   3.008 -0.9515 -0.0569 -0.4355
  316MOL0     C43477   3.114   8.882   3.057  0.1110 -0.7005 -0.3067
  316MOL0     O43478   3.229   8.915   2.995 -0.3330  0.7473 -0.0797
  316MOL0     C43479   3.330   8.967   3.080 -0.4028 -0.8525 -0.1786
  316MOL0     C43480   3.462   8.955   3.001 -0.6352  0.3730  0.1335
  316MOL0     C43481   3.496   8.803   2.977  0.2813  0.4147  1.2631
  316MOL0     C43482   3.596   8.790   2.859  0.0795  0.5878  0.0672
  316MOL0     C43483   3.593   8.640   2.809 -0.7335  0.0235  0.3491
  316MOL0     C43484   3.699   8.601   2.699 -0.8519  0.8874  0.7591
  316MOL0     C43485   3.837   8.680   2.699 -0.0020 -0.2037  0.4632
  316MOL0     C43486   3.902   8.667   2.563  0.0374 -0.2695  0.6637
  316MOL0     N43487   3.910   8.523   2.528 -0.0906 -0.7264 -0.1396
  316MOL0     C43488   3.992   8.438   2.594  0.2041  0.1173 -1.1759
  316MOL0     C43489   3.961   8.321   2.534 -0.5566 -0.4749 -0.8213
  316MOL0     C43490   3.995   8.177   2.564  0.2487 -0.3974 -0.2006
  316MOL0     C43491   3.972   8.151   2.708  0.4663  0.1966  0.0803
  316MOL0     C43492   3.996   8.005   2.742  0.3706 -0.2607 -0.3248
  316MOL0     C43493   4.127   7.941   2.696  0.0964  0.0620  0.2080
  316MOL0     O43494   4.232   8.019   2.746  0.6026  0.1014 -0.1808
  316MOL0     C43495   4.353   7.978   2.709 -0.7915  0.3355 -0.8779
  316MOL0     C43496   4.442   8.073   2.669 -0.7471 -0.2060 -0.0088
  316MOL0     C43497   4.559   8.040   2.597 -0.4454 -0.6803  0.1191
  316MOL0     C43498   4.632   8.156   2.519 -0.3061  0.5753 -0.0494
  316MOL0     C43499   4.605   7.906   2.585  0.0578  0.2565  0.3234
  316MOL0     C43500   4.729   7.854   2.529 -0.3340  0.2919 -0.3064
  316MOL0     O43501   4.825   7.940   2.500  1.1795  1.0104  0.6653
  316MOL0     C43502   4.935   7.900   2.427 -0.3479 -0.4823  0.0997
  316MOL0     C43503   5.006   7.784   2.443 -0.7125  0.5353  0.6571
  316MOL0     C43504   5.129   7.765   2.386 -0.8572 -0.4956 -0.0810
  316MOL0     C43505   5.184   7.866   2.305  0.0726 -0.3767 -0.7427
  316MOL0     O43506   5.313   7.841   2.260  0.0116  0.4102  0.4911
  316MOL0     C43507   5.416   7.871   2.355 -0.4987 -0.5391 -1.0947
  316MOL0     C43508   5.433   8.025   2.370  0.3411  0.0048 -0.1570
  316MOL0     C43509   5.549   8.042   2.471  0.0137 -0.0745 -0.3091
  316MOL0     C43510   5.592   8.190   2.472  0.8334 -0.4684 -0.2836
  316MOL0     C43511   5.695   8.227   2.583  0.3816  0.3220  0.1574
  316MOL0     C43512   5.635   8.210   2.725 -0.0597  0.1700 -0.4323
  316MOL0     C43513   5.760   8.225   2.818  0.1817 -0.4829  0.2683
  316MOL0     C43514   5.723   8.197   2.961 -0.3262  0.4221  0.7215
  316MOL0    Cl43515   5.864   8.191   3.063 -0.3309  0.1525 -0.2557
  316MOL0     C43516   5.109   7.991   2.283  0.3519  0.0181  0.7574
  316MOL0     C43517   4.985   8.001   2.351 -0.7036  0.8052  0.4447
  316MOL0     O43518   4.732   7.733   2.497  0.3556 -0.1324  0.0236
  316MOL0     C43519   4.523   7.813   2.656  0.3698  0.5299  0.0424
  316MOL0     C43520   4.396   7.846   2.713 -0.1686  0.6759 -0.6470
  316MOL0     N43521   3.883   8.339   2.424 -0.0439 -0.1654  0.0475
  316MOL0     N43522   3.850   8.459   2.421  0.3592 -0.2160  0.3569
  316MOL0     C43523   3.045   8.954   3.154 -0.0667  0.8778 -1.0658
  316MOL0     C43524   2.912   8.917   3.189 -0.8645 -1.2987  0.6016
  316MOL0     C43525   2.542   8.780   3.337  0.2000 -0.2421 -0.7895
  316MOL0     C43526   2.487   8.700   3.446  0.0925 -0.6620  0.1182
  316MOL0     C43527   2.347   8.682   3.452 -0.5534 -0.1629 -0.3873
  316MOL0     C43528   2.265   8.726   3.347 -0.1130 -0.9887 -0.0622
  316MOL0     O43529   2.130   8.699   3.362 -0.3174 -0.1199 -0.5906
  316MOL0     C43530   2.032   8.724   3.262  0.4105  0.1505 -0.5178
  316MOL0     C43531   1.914   8.629   3.276  0.1395 -0.8041 -0.0355
  316MOL0     C43532   1.776   8.709   3.302  0.9881 -0.4585  0.4807
  316MOL0     C43533   1.669   8.606   3.323  0.3310 -0.3091  0.1627
  316MOL0     C43534   1.544   8.676   3.362 -0.0420 -0.4410  0.0340
  316MOL0     C43535   1.441   8.732   3.375 -0.0874  0.9656  0.2217
  316MOL0     C43536   2.319   8.815   3.251  0.3286  0.1347  0.6373
  316MOL0     C43537   2.454   8.845   3.247  0.0842 -0.5982 -0.0508
  316MOL0     C43538   2.492   8.958   3.157 -0.5484  0.0638  0.9653
  316MOL0     H43539   2.885   8.629   3.011  2.0922 -1.4846 -0.0407
  316MOL0     H43540   3.094   8.693   2.937  1.7890  0.6888  0.3601
  316MOL0     H43541   3.334   8.919   3.178 -4.6252 -1.6634 -0.2428
  316MOL0     H43542   3.312   9.074   3.091  0.7338 -0.5149 -1.2549
  316MOL0     H43543   3.450   9.016   2.912  1.9232  2.8317  1.3290
  316MOL0     H43544   3.549   8.997   3.052 -0.3024 -0.2822  0.1135
  316MOL0     H43545   3.530   8.757   3.070  0.7555  2.0234  1.9140
  316MOL0     H43546   3.410   8.749   2.937  1.0868  0.0829 -0.0956
  316MOL0     H43547   3.567   8.851   2.773 -0.2020 -2.4115 -2.1211
  316MOL0     H43548   3.694   8.831   2.887 -0.0810  2.4121 -1.8376
  316MOL0     H43549   3.494   8.612   2.773  0.0336 -0.8226 -1.2084
  316MOL0     H43550   3.603   8.576   2.898 -4.0683  0.0390  0.8633
  316MOL0     H43551   3.719   8.494   2.702  0.3175  1.0892  0.8195
  316MOL0     H43552   3.661   8.620   2.598  2.3267  0.5233 -0.6220
  316MOL0     H43553   3.900   8.651   2.784  0.9395  1.3870  0.3378
  316MOL0     H43554   3.815   8.787   2.705 -3.3428 -0.8251  2.3409
  316MOL0     H43555   3.845   8.715   2.482  2.5721 -1.5609 -2.0913
  316MOL0     H43556   3.995   8.724   2.558  0.1909 -0.5988 -1.1080
  316MOL0     H43557   4.047   8.457   2.686 -0.4011  1.7919 -1.1302
  316MOL0     H43558   4.099   8.156   2.536  1.3409  3.2062  0.6766
  316MOL0     H43559   3.933   8.114   2.500  1.8358 -0.9124 -1.2827
  316MOL0     H43560   4.046   8.208   2.765  1.7816 -0.8272 -0.5233
  316MOL0     H43561   3.873   8.182   2.742  0.5169 -0.5525  0.9484
  316MOL0     H43562   3.976   7.985   2.847 -0.2965 -0.8873 -0.5656
  316MOL0     H43563   3.928   7.942   2.684 -1.1680  2.6018 -1.8817
  316MOL0     H43564   4.127   7.847   2.751  0.6317 -1.1978 -1.8362
  316MOL0     H43565   4.140   7.922   2.589  0.4475  0.9820  0.0734
  316MOL0     H43566   4.416   8.179   2.670  0.7877  0.1903  1.3063
  316MOL0     H43567   4.736   8.166   2.550 -0.6234 -1.1482  1.8266
  316MOL0     H43568   4.577   8.250   2.533 -0.5787  0.5593 -0.9585
  316MOL0     H43569   4.630   8.133   2.412  1.3333  0.2901 -0.0434
  316MOL0     H43570   4.964   7.710   2.510 -1.1652  1.0123  0.9122
  316MOL0     H43571   5.194   7.683   2.414 -1.3759 -0.8626  0.0703
  316MOL0     H43572   5.410   7.813   2.448 -0.3232  1.8365  0.4994
  316MOL0     H43573   5.506   7.841   2.301  2.0389 -0.7299  2.8299
  316MOL0     H43574   5.456   8.071   2.273  0.1586  1.7469  0.5837
  316MOL0     H43575   5.346   8.081   2.406 -0.7732  0.3602 -3.0994
  316MOL0     H43576   5.637   7.986   2.438  2.0989  1.5788  2.0781
  316MOL0     H43577   5.509   8.006   2.566 -1.5228 -0.3933 -1.0371
  316MOL0     H43578   5.502   8.252   2.485 -0.3365 -2.5343  2.5681
  316MOL0     H43579   5.624   8.214   2.370  1.7968 -0.5766 -0.0089
  316MOL0     H43580   5.771   8.150   2.572 -2.7657 -2.9603 -0.6635
  316MOL0     H43581   5.734   8.326   2.558  0.0847  0.8750  1.7539
  316MOL0     H43582   5.586   8.114   2.742 -1.0577  0.2626 -2.4515
  316MOL0     H43583   5.564   8.292   2.739  2.4044  2.4052 -0.2450
  316MOL0     H43584   5.804   8.325   2.813  0.4514 -0.4973  1.8826
  316MOL0     H43585   5.828   8.145   2.787  2.0099  1.8029 -2.0446
  316MOL0     H43586   5.662   8.107   2.972  1.7557 -1.1896 -0.2126
  316MOL0     H43587   5.653   8.275   2.992 -1.1587 -0.6872  1.7057
  316MOL0     H43588   5.149   8.063   2.213 -0.1730 -1.2596 -0.9132
  316MOL0     H43589   4.920   8.087   2.339 -2.0681  0.0217  1.8383
  316MOL0     H43590   4.547   7.708   2.669 -3.8541 -0.5497  0.7508
  316MOL0     H43591   4.330   7.772   2.759 -1.8867  2.1146 -0.7006
  316MOL0     H43592   3.087   9.052   3.175 -2.7892  1.9577 -0.2242
  316MOL0     H43593   2.855   8.980   3.256  0.6257 -1.5631  2.1872
  316MOL0     H43594   2.552   8.664   3.524  0.0215  1.1427  1.0503
  316MOL0     H43595   2.300   8.624   3.530 -2.4708 -0.6499 -1.8389
  316MOL0     H43596   1.999   8.827   3.278 -0.2012 -0.0588 -0.4195
  316MOL0     H43597   2.074   8.702   3.163 -2.2646  0.5308 -1.8386
  316MOL0     H43598   1.929   8.550   3.351  0.9589 -2.2142 -1.6098
  316MOL0     H43599   1.904   8.579   3.178 -0.7625 -3.6483  1.3705
  316MOL0     H43600   1.797   8.775   3.387 -2.1363  0.1100  0.9312
  316MOL0     H43601   1.750   8.772   3.217 -2.0113  0.1038  1.7020
  316MOL0     H43602   1.703   8.531   3.396 -0.1474 -1.0351 -0.3392
  316MOL0     H43603   1.646   8.548   3.233  1.0525 -0.3400 -0.0101
  316MOL0     H43604   1.345   8.775   3.395  1.5338  4.3351  1.4423
  316MOL0     H43605   2.257   8.855   3.171 -0.1588 -0.6580  0.5996
  316MOL0     H43606   2.417   9.038   3.161 -1.0204 -0.3785  1.1723
  316MOL0     H43607   2.589   9.000   3.182  0.5113 -1.5036 -0.3417
  316MOL0     H43608   2.518   8.921   3.058  1.6236  1.4245  0.9719
  317MOL0     O43609   9.129   4.371   4.751 -0.7807  0.2118 -0.1197
  317MOL0     C43610   9.165   4.471   4.688  0.5980 -0.1602  0.0024
  317MOL0     O43611   9.089   4.526   4.592 -0.7182 -0.4919 -0.1895
  317MOL0     C43612   8.955   4.514   4.586  0.2084 -0.4437  0.3603
  317MOL0     C43613   8.883   4.397   4.590 -0.1031 -0.6706  0.6746
  317MOL0     C43614   8.744   4.392   4.549 -0.0168  1.0772  0.1422
  317MOL0     C43615   8.678   4.509   4.519 -0.3128 -0.6797 -0.4339
  317MOL0     O43616   8.547   4.516   4.472 -0.5054 -0.3502  0.7443
  317MOL0     C43617   8.480   4.631   4.425 -0.2686 -0.7741  0.1792
  317MOL0     C43618   8.331   4.606   4.398 -0.3542  0.2186 -0.4037
  317MOL0     C43619   8.304   4.581   4.245 -0.3645  0.0435  0.3855
  317MOL0     C43620   8.166   4.527   4.214 -0.5670 -0.2447 -0.2086
  317MOL0     C43621   8.049   4.629   4.246 -0.2457  1.0735 -0.8324
  317MOL0     C43622   8.058   4.754   4.153  1.2036  0.0703 -0.7995
  317MOL0     C43623   7.936   4.855   4.180  0.1264  0.0159 -0.7450
  317MOL0     C43624   7.946   4.975   4.082  0.4374  0.0539  0.4199
  317MOL0     N43625   8.055   5.062   4.107  0.4966 -0.6147 -0.2385
  317MOL0     C43626   8.160   5.089   4.020  0.3541  0.2186  0.2034
  317MOL0     C43627   8.240   5.164   4.092 -0.4935  0.0442 -0.7212
  317MOL0     C43628   8.365   5.244   4.047 -0.9479  0.0888 -0.1251
  317MOL0     C43629   8.456   5.266   4.171  0.6043 -0.4594  0.1022
  317MOL0     C43630   8.589   5.342   4.155 -0.2250  0.0662 -0.2891
  317MOL0     C43631   8.564   5.484   4.107  0.1793  0.6130  0.3564
  317MOL0     O43632   8.694   5.546   4.088  0.3546 -0.3810  0.2525
  317MOL0     C43633   8.756   5.582   4.200  0.6746  0.4544 -0.7322
  317MOL0     C43634   8.868   5.513   4.218 -0.8039 -0.0132 -0.2834
  317MOL0     C43635   8.947   5.526   4.336  0.0446  0.0209 -1.2774
  317MOL0     C43636   9.065   5.434   4.347 -0.2939  0.4441  0.2457
  317MOL0     C43637   8.893   5.596   4.451  0.5302  0.5275  0.1167
  317MOL0     C43638   8.963   5.611   4.571 -0.2361 -0.4415  0.5475
  317MOL0     O43639   9.059   5.702   4.585  0.3090 -0.2156  0.6998
  317MOL0     C43640   9.119   5.714   4.707 -0.0795 -0.2909 -0.7196
  317MOL0     C43641   9.224   5.625   4.739  0.8578  0.0437 -0.7383
  317MOL0     C43642   9.300   5.647   4.852 -0.2546 -0.2575 -0.9324
  317MOL0     C43643   9.280   5.757   4.939 -0.2191 -0.4319  0.2350
  317MOL0     O43644   9.348   5.776   5.059 -0.3442 -0.1724  0.3491
  317MOL0     C43645   9.458   5.682   5.098  0.0437  0.4331  0.3036
  317MOL0     C43646   9.591   5.711   5.024 -0.4123 -0.5062  0.3279
  317MOL0     C43647   9.645   5.854   5.043 -0.2127  0.1561  0.3995
  317MOL0     C43648   9.711   5.877   5.186  1.1065  0.7435 -0.2180
  317MOL0     C43649   9.767   6.012   5.210  0.2924 -0.0815 -1.0171
  317MOL0     C43650   9.896   6.030   5.131  0.3296 -0.0323  0.0668
  317MOL0     C43651   9.966   6.155   5.188  0.3593  0.5849  0.2109
  317MOL0     C43652  10.084   6.197   5.108  0.0002  0.0043 -0.6990
  317MOL0    Cl43653  10.180   6.313   5.216  0.4318 -0.6695 -0.0456
  317MOL0     C43654   9.178   5.852   4.906 -0.8824 -0.5505 -0.3496
  317MOL0     C43655   9.100   5.826   4.793 -0.6967 -0.3185  1.2674
  317MOL0     O43656   8.930   5.532   4.656 -0.2447 -0.3911 -0.1081
  317MOL0     C43657   8.766   5.654   4.439 -0.1543  0.7468  0.2816
  317MOL0     C43658   8.704   5.655   4.311 -0.0488 -0.3754 -0.2317
  317MOL0     N43659   8.186   5.181   4.220  0.0072 -0.8576  0.3990
  317MOL0     N43660   8.073   5.128   4.230 -0.1316 -0.8101 -0.2635
  317MOL0     C43661   8.753   4.627   4.525  0.4102  0.7943 -0.7388
  317MOL0     C43662   8.890   4.625   4.550 -0.5164  0.4104 -0.2804
  317MOL0     C43663   9.312   4.516   4.684 -0.7570  0.1691  0.6986
  317MOL0     C43664   9.340   4.652   4.716 -0.2010  0.4572 -0.5146
  317MOL0     C43665   9.472   4.689   4.712  0.3285 -0.2299 -0.1799
  317MOL0     C43666   9.576   4.596   4.704 -0.5057  0.2730 -0.2467
  317MOL0     O43667   9.702   4.648   4.741 -0.1537  0.1658 -0.5709
  317MOL0     C43668   9.813   4.560   4.721 -0.6317  0.3543  0.9275
  317MOL0     C43669   9.953   4.636   4.730  0.6179  0.6536  0.7854
  317MOL0     C43670   9.983   4.659   4.877  0.1869 -0.3482 -0.7752
  317MOL0     C43671  10.117   4.732   4.901 -0.4293 -0.4842  0.1982
  317MOL0     C43672  10.227   4.638   4.877 -0.0339  0.9311  0.2650
  317MOL0     C43673  10.320   4.557   4.863  0.8931  0.3320  0.0723
  317MOL0     C43674   9.542   4.457   4.681  0.1947  0.2452  0.4299
  317MOL0     C43675   9.413   4.419   4.656  0.2160  0.1114 -0.0752
  317MOL0     C43676   9.390   4.270   4.626  0.0282 -0.0078  0.7387
  317MOL0     H43677   8.936   4.303   4.602 -1.8097 -1.9375 -1.1060
  317MOL0     H43678   8.704   4.291   4.536  2.3691 -0.0374  0.8145
  317MOL0     H43679   8.534   4.677   4.342  1.7550 -2.4860  0.4547
  317MOL0     H43680   8.476   4.707   4.503 -1.5024 -1.8825  1.2614
  317MOL0     H43681   8.296   4.520   4.455 -1.9545  0.3341 -1.1577
  317MOL0     H43682   8.275   4.691   4.438  0.3658  0.3093  0.4498
  317MOL0     H43683   8.319   4.672   4.186 -1.0370  1.5054  2.3495
  317MOL0     H43684   8.371   4.502   4.209 -2.9343 -1.7022 -0.8336
  317MOL0     H43685   8.166   4.486   4.113  3.8716  0.5886 -0.7568
  317MOL0     H43686   8.137   4.452   4.289 -1.4822 -0.2484 -0.5476
  317MOL0     H43687   8.062   4.666   4.348  0.9947 -0.4833 -0.3896
  317MOL0     H43688   7.955   4.576   4.229 -0.2301  1.1167 -1.0563
  317MOL0     H43689   8.150   4.812   4.162  0.3977  1.7464 -2.6450
  317MOL0     H43690   8.061   4.724   4.048  1.2696  1.0209 -1.0781
  317MOL0     H43691   7.935   4.888   4.284  2.9100  1.1247 -0.9844
  317MOL0     H43692   7.843   4.801   4.161  0.2215  0.3296 -2.2223
  317MOL0     H43693   7.947   4.939   3.978  0.9898  1.5819 -0.1349
  317MOL0     H43694   7.859   5.042   4.087  0.5507  0.2370  0.0380
  317MOL0     H43695   8.164   5.059   3.916 -2.5711 -0.1395  0.1081
  317MOL0     H43696   8.324   5.343   4.022  4.6564  2.1570 -3.2167
  317MOL0     H43697   8.418   5.200   3.961  0.4459 -1.9730  1.6830
  317MOL0     H43698   8.400   5.326   4.243 -2.4931 -1.1149 -1.6006
  317MOL0     H43699   8.487   5.168   4.207  1.1567 -0.6692 -0.9265
  317MOL0     H43700   8.638   5.346   4.253  0.6448 -0.8533 -0.6708
  317MOL0     H43701   8.655   5.290   4.086  0.7322  3.1362 -1.8854
  317MOL0     H43702   8.514   5.482   4.010 -0.6747  0.9818  0.7827
  317MOL0     H43703   8.510   5.542   4.182  2.3540  2.4962  0.5704
  317MOL0     H43704   8.906   5.452   4.137  1.5791  0.4339  0.4044
  317MOL0     H43705   9.040   5.345   4.406  0.4763 -0.8315 -1.2701
  317MOL0     H43706   9.147   5.488   4.397  0.5372 -0.0800 -0.5119
  317MOL0     H43707   9.099   5.402   4.248 -0.2393 -0.2807  0.4899
  317MOL0     H43708   9.241   5.534   4.682  2.5449 -0.9246  1.1786
  317MOL0     H43709   9.376   5.572   4.873 -1.3406 -1.3078 -0.6038
  317MOL0     H43710   9.477   5.704   5.204  2.9340 -0.4584  0.0569
  317MOL0     H43711   9.434   5.576   5.090 -0.2402  0.4333  1.0659
  317MOL0     H43712   9.659   5.632   5.057 -0.5932 -1.0248 -0.5106
  317MOL0     H43713   9.583   5.687   4.917 -1.8629  0.0842  0.2816
  317MOL0     H43714   9.571   5.930   5.018  0.1757  0.2061 -0.6266
  317MOL0     H43715   9.729   5.870   4.975  0.8341  4.4982  2.3707
  317MOL0     H43716   9.786   5.797   5.195  1.4137  1.0189 -0.3034
  317MOL0     H43717   9.637   5.873   5.267  0.4174 -0.5471 -0.8905
  317MOL0     H43718   9.695   6.084   5.171 -2.6790 -1.5087  1.3829
  317MOL0     H43719   9.792   6.021   5.316  2.5074 -0.2765 -1.4642
  317MOL0     H43720   9.866   6.045   5.027 -0.0895  0.4700  0.2555
  317MOL0     H43721   9.961   5.943   5.145 -0.3321 -0.1441  3.2527
  317MOL0     H43722   9.994   6.128   5.290 -2.0165 -0.6173  0.6143
  317MOL0     H43723   9.904   6.245   5.188  0.3373  0.7668 -4.1448
  317MOL0     H43724  10.058   6.256   5.021 -0.7254  1.1230  0.2532
  317MOL0     H43725  10.144   6.106   5.092 -1.6290 -1.0321 -1.1320
  317MOL0     H43726   9.153   5.937   4.970 -2.8611 -1.1680 -0.2344
  317MOL0     H43727   9.033   5.903   4.756 -1.6097 -0.6271  2.2519
  317MOL0     H43728   8.715   5.709   4.517  0.6096 -1.7271  2.6773
  317MOL0     H43729   8.613   5.714   4.312  1.0919  1.6902  3.7240
  317MOL0     H43730   8.720   4.726   4.495 -0.9879  0.1134 -1.5329
  317MOL0     H43731   8.954   4.712   4.551  0.3261 -0.1831 -1.4032
  317MOL0     H43732   9.261   4.722   4.742  2.1105  2.9479  0.1857
  317MOL0     H43733   9.498   4.794   4.723  3.5650 -0.8602 -0.7659
  317MOL0     H43734   9.801   4.471   4.783 -1.1211 -1.3128 -1.4333
  317MOL0     H43735   9.813   4.520   4.619 -1.9129  0.4056  0.8919
  317MOL0     H43736   9.953   4.728   4.671  1.2883  0.3123  0.2317
  317MOL0     H43737  10.027   4.572   4.681 -3.4199 -2.7493 -1.5777
  317MOL0     H43738   9.896   4.710   4.920  0.1353 -0.8013 -0.3334
  317MOL0     H43739  10.004   4.568   4.933  1.5499 -1.7722 -3.3926
  317MOL0     H43740  10.121   4.778   5.000  0.1703  2.2230 -0.9782
  317MOL0     H43741  10.139   4.808   4.826 -0.1850 -0.0248  0.7255
  317MOL0     H43742  10.378   4.467   4.872 -1.3352 -1.0062  3.4259
  317MOL0     H43743   9.622   4.385   4.663 -0.2075  0.2466 -1.6080
  317MOL0     H43744   9.387   4.206   4.715 -2.1296 -2.4533 -0.9308
  317MOL0     H43745   9.296   4.256   4.573 -0.0202  1.9992  0.2179
  317MOL0     H43746   9.461   4.226   4.555  2.2241  2.4297  1.2742
  318MOL0     O43747  10.075   7.051   5.584  0.4966 -0.1755 -0.0498
  318MOL0     C43748  10.028   7.023   5.479  1.1039 -0.3713 -0.2654
  318MOL0     O43749  10.097   7.026   5.362  0.4729 -0.0432  0.0701
  318MOL0     C43750  10.230   7.055   5.356  0.5125  0.2925 -0.7144
  318MOL0     C43751  10.320   6.988   5.272  0.0018  0.7912  0.2823
  318MOL0     C43752  10.453   7.025   5.253 -0.3992 -0.1141 -0.4159
  318MOL0     C43753  10.504   7.130   5.332  0.1185  0.6793 -0.4013
  318MOL0     O43754  10.631   7.175   5.342  0.2633 -0.5078 -0.5077
  318MOL0     C43755  10.749   7.106   5.302 -0.7391  0.2627  0.8364
  318MOL0     C43756  10.764   6.977   5.382 -0.1001 -0.0689 -0.1983
  318MOL0     C43757  10.806   7.017   5.524 -0.5616 -0.1521  0.2502
  318MOL0     C43758  10.770   6.912   5.623 -0.3433 -0.4905 -0.0982
  318MOL0     C43759  10.832   6.941   5.761  0.3700 -0.2245 -0.6443
  318MOL0     C43760  10.816   6.827   5.867 -0.4032  0.4340 -0.5508
  318MOL0     C43761  10.886   6.690   5.842 -0.1892 -0.7081  0.6196
  318MOL0     C43762  11.035   6.715   5.804 -0.3446  0.8592  0.0937
  318MOL0     N43763  11.076   6.726   5.662 -0.3138  0.4956 -0.0458
  318MOL0     C43764  11.031   6.660   5.558  0.2707  0.8178  0.1333
  318MOL0     C43765  11.098   6.711   5.447  0.7158  0.8959 -0.0257
  318MOL0     C43766  11.077   6.666   5.308 -0.4580  0.3605  0.4644
  318MOL0     C43767  11.103   6.515   5.278 -0.6243 -0.5181 -0.9713
  318MOL0     C43768  11.245   6.463   5.305  0.1144 -0.7399 -0.9066
  318MOL0     C43769  11.256   6.316   5.271  0.1061  0.7513 -0.3628
  318MOL0     O43770  11.255   6.294   5.130  0.2220  0.0805 -0.2061
  318MOL0     C43771  11.374   6.303   5.052 -0.2103  0.3916 -0.1133
  318MOL0     C43772  11.361   6.274   4.918 -0.0897  0.1622  0.8316
  318MOL0     C43773  11.477   6.282   4.835  0.1528 -0.0091  0.7620
  318MOL0     C43774  11.457   6.231   4.691  0.2322  0.4478  0.6746
  318MOL0     C43775  11.602   6.339   4.885  1.0921 -0.3679  0.1220
  318MOL0     C43776  11.727   6.364   4.807 -0.6493  0.1192 -0.0576
  318MOL0     O43777  11.836   6.410   4.878 -0.6851  0.2896 -0.2059
  318MOL0     C43778  11.947   6.430   4.801  0.1005  0.2532 -0.4763
  318MOL0     C43779  12.042   6.322   4.782  0.0894 -0.1248  0.3398
  318MOL0     C43780  12.170   6.359   4.720  0.9598 -0.0458 -0.6744
  318MOL0     C43781  12.210   6.488   4.688  0.5398 -0.1716  0.1727
  318MOL0     O43782  12.327   6.513   4.623 -0.0644 -0.7445 -0.3868
  318MOL0     C43783  12.442   6.420   4.637 -0.3758 -0.0745 -0.4717
  318MOL0     C43784  12.553   6.491   4.553 -0.2990 -0.0391  0.5406
  318MOL0     C43785  12.692   6.445   4.611  0.1416  0.3294  0.1403
  318MOL0     C43786  12.799   6.527   4.543 -0.5130  0.1889  0.1614
  318MOL0     C43787  12.937   6.477   4.607  1.7802 -0.1275 -0.5824
  318MOL0     C43788  13.054   6.517   4.524  0.4022  0.6852 -0.1935
  318MOL0     C43789  13.176   6.538   4.601  0.3581 -0.5829  0.6004
  318MOL0     C43790  13.262   6.632   4.504  0.4779  0.1466 -0.1028
  318MOL0    Cl43791  13.432   6.639   4.548  0.0680  0.3116 -0.3345
  318MOL0     C43792  12.114   6.588   4.706 -0.3412  0.2825 -0.6540
  318MOL0     C43793  11.986   6.554   4.760 -0.1678  0.4045  0.0027
  318MOL0     O43794  11.728   6.337   4.692  0.0840 -0.1302 -0.0870
  318MOL0     C43795  11.607   6.383   5.023  0.1919  0.2532  0.2322
  318MOL0     C43796  11.496   6.360   5.099  0.2987 -0.3467 -0.6080
  318MOL0     N43797  11.170   6.817   5.493  0.2241  0.3781  0.5372
  318MOL0     N43798  11.156   6.821   5.617 -0.1728 -0.4317  0.8769
  318MOL0     C43799  10.419   7.195   5.418  0.8931 -0.5672 -0.4948
  318MOL0     C43800  10.287   7.157   5.425 -0.3834  0.4176  0.3742
  318MOL0     C43801   9.882   6.973   5.467  0.1304  0.1707  0.3673
  318MOL0     C43802   9.861   6.893   5.346  0.5931 -0.2969 -0.8287
  318MOL0     C43803   9.740   6.839   5.317  0.1162  0.0810  0.0535
  318MOL0     C43804   9.631   6.865   5.398 -0.1982 -0.6487  0.0502
  318MOL0     O43805   9.509   6.811   5.362  0.2687 -0.9745 -0.6380
  318MOL0     C43806   9.385   6.876   5.385  0.3751 -0.0573  0.2236
  318MOL0     C43807   9.376   7.009   5.316 -0.4216 -0.9664 -0.3144
  318MOL0     C43808   9.406   7.003   5.170  0.3366  0.0748 -0.0925
  318MOL0     C43809   9.406   7.146   5.109 -0.5877 -0.4447 -0.8985
  318MOL0     C43810   9.460   7.145   4.976  0.8882 -0.2596  0.1562
  318MOL0     C43811   9.469   7.165   4.856  0.2277  0.2430 -0.0237
  318MOL0     C43812   9.647   6.945   5.516  0.3369 -0.5535  0.5944
  318MOL0     C43813   9.770   7.002   5.555 -0.1395 -0.2284  0.2544
  318MOL0     C43814   9.780   7.104   5.666 -0.1230  0.6641 -0.6737
  318MOL0     H43815  10.287   6.915   5.199  0.3567 -1.2952  2.1047
  318MOL0     H43816  10.515   6.974   5.180  1.9174  2.5431 -0.4794
  318MOL0     H43817  10.836   7.171   5.308 -1.1477  0.7371  1.6462
  318MOL0     H43818  10.748   7.079   5.196 -0.8749 -1.0038  1.1393
  318MOL0     H43819  10.670   6.921   5.386  0.9544 -1.8792  0.2344
  318MOL0     H43820  10.842   6.914   5.339  0.6050 -2.0115  3.5113
  318MOL0     H43821  10.916   7.024   5.523 -0.5217 -0.3220  1.3984
  318MOL0     H43822  10.777   7.116   5.560  3.6621  0.5210  2.4243
  318MOL0     H43823  10.661   6.908   5.637 -0.3009  1.3390  1.2035
  318MOL0     H43824  10.810   6.818   5.586 -0.9007 -1.3838  1.4674
  318MOL0     H43825  10.780   7.028   5.802  0.0015  0.2037 -1.9801
  318MOL0     H43826  10.940   6.956   5.749  0.4363 -0.9271 -1.0155
  318MOL0     H43827  10.858   6.861   5.962  1.2293  0.0102 -1.0901
  318MOL0     H43828  10.708   6.817   5.883 -0.5020  1.1908 -0.7044
  318MOL0     H43829  10.827   6.642   5.764 -0.3642  2.0560 -1.0908
  318MOL0     H43830  10.877   6.632   5.934 -2.5597 -2.4969 -0.6276
  318MOL0     H43831  11.079   6.801   5.855  1.1573  1.6271 -2.3132
  318MOL0     H43832  11.089   6.630   5.845  2.2929  3.1934  1.7905
  318MOL0     H43833  10.960   6.579   5.546  1.6577 -0.2216 -1.6690
  318MOL0     H43834  11.143   6.719   5.239 -0.5351 -1.3349 -1.0128
  318MOL0     H43835  10.978   6.692   5.270 -1.6883 -0.9411  2.6282
  318MOL0     H43836  11.029   6.460   5.337 -3.1228  3.6433  0.1534
  318MOL0     H43837  11.084   6.490   5.173 -0.0188 -0.5927 -1.0666
  318MOL0     H43838  11.316   6.520   5.245  1.5479  1.1768  2.3481
  318MOL0     H43839  11.273   6.489   5.408 -0.4109 -0.5655 -0.8080
  318MOL0     H43840  11.349   6.281   5.318  0.6808  4.1287  1.3277
  318MOL0     H43841  11.176   6.260   5.320  2.2335 -1.4024  0.9260
  318MOL0     H43842  11.265   6.246   4.875  0.2660 -1.8711  1.2382
  318MOL0     H43843  11.507   6.292   4.615  0.5557  2.3570  2.3341
  318MOL0     H43844  11.350   6.224   4.671  0.2716  0.0374  0.5956
  318MOL0     H43845  11.504   6.132   4.681  1.6427  0.9172  2.1707
  318MOL0     H43846  12.022   6.225   4.825 -0.3781 -1.2208 -2.2035
  318MOL0     H43847  12.245   6.284   4.701 -2.6759 -3.5144 -2.7028
  318MOL0     H43848  12.460   6.406   4.744  0.2128  1.7509 -0.2918
  318MOL0     H43849  12.422   6.324   4.589 -3.8999 -0.3820  1.2376
  318MOL0     H43850  12.547   6.451   4.451  0.3468  0.2707  0.3714
  318MOL0     H43851  12.546   6.600   4.557 -1.4113 -0.1386  1.6895
  318MOL0     H43852  12.717   6.342   4.584  2.9696  0.5360  1.5292
  318MOL0     H43853  12.693   6.445   4.720 -1.4858 -2.4917  0.2225
  318MOL0     H43854  12.796   6.636   4.551 -0.5375  0.2692 -0.8750
  318MOL0     H43855  12.807   6.501   4.438 -1.5817  1.5512 -0.2833
  318MOL0     H43856  12.939   6.524   4.706 -1.0560 -0.0848 -0.4551
  318MOL0     H43857  12.931   6.369   4.624  0.1233  0.3721  3.1994
  318MOL0     H43858  13.014   6.606   4.475 -1.9386 -0.9379 -1.4536
  318MOL0     H43859  13.071   6.432   4.457  1.6877  2.2377 -1.9347
  318MOL0     H43860  13.224   6.443   4.624  0.3877 -0.7998 -0.3434
  318MOL0     H43861  13.150   6.581   4.698 -1.3410  0.4228 -0.2477
  318MOL0     H43862  13.222   6.733   4.512 -0.5027 -0.1678 -0.8446
  318MOL0     H43863  13.267   6.596   4.400  2.0223  0.6983 -0.2504
  318MOL0     H43864  12.142   6.689   4.678  1.8463 -0.1476 -0.2255
  318MOL0     H43865  11.924   6.640   4.784  1.4435  0.8573  3.1203
  318MOL0     H43866  11.684   6.429   5.084 -1.3333 -1.5888  3.8567
  318MOL0     H43867  11.503   6.397   5.200 -0.0317 -2.2192  0.1498
  318MOL0     H43868  10.462   7.279   5.472 -0.3209 -0.2215 -0.0341
  318MOL0     H43869  10.225   7.221   5.486 -1.4016 -0.1171 -0.0641
  318MOL0     H43870   9.935   6.884   5.268 -0.0388  1.0344 -1.6140
  318MOL0     H43871   9.736   6.776   5.229  2.4853 -1.3342  0.8617
  318MOL0     H43872   9.306   6.811   5.345 -2.5911  2.2151  1.9809
  318MOL0     H43873   9.365   6.893   5.491  0.4874  0.2328  0.1981
  318MOL0     H43874   9.447   7.078   5.363 -2.7884  0.3233  1.5590
  318MOL0     H43875   9.277   7.050   5.339  0.9630  1.6904  1.4494
  318MOL0     H43876   9.505   6.959   5.153  1.4947  1.7099  1.8146
  318MOL0     H43877   9.323   6.944   5.132 -2.7831  1.6993  3.5236
  318MOL0     H43878   9.475   7.208   5.167 -0.1787 -1.3251 -0.4075
  318MOL0     H43879   9.309   7.196   5.112  0.3014  1.3457 -0.7108
  318MOL0     H43880   9.495   7.180   4.753 -0.5211  2.0612  0.0143
  318MOL0     H43881   9.567   6.960   5.587 -1.9237 -0.2377 -1.8487
  318MOL0     H43882   9.684   7.108   5.719 -0.7626  0.5843 -1.7766
  318MOL0     H43883   9.853   7.073   5.741 -1.3750  3.0214  1.6880
  318MOL0     H43884   9.807   7.204   5.629 -1.3332  1.6863  1.0572
  319MOL0     O43885   1.862   9.225  10.173  0.1078 -0.1976  0.1451
  319MOL0     C43886   1.852   9.105  10.182  0.6918 -0.2451 -0.3218
  319MOL0     O43887   1.961   9.016  10.197 -0.2440 -0.4535  0.4437
  319MOL0     C43888   2.079   9.062  10.260 -0.1515  0.6312 -0.4785
  319MOL0     C43889   2.199   9.012  10.204  0.1317  0.1830 -0.3689
  319MOL0     C43890   2.322   9.056  10.253  0.6135  0.4985 -0.3347
  319MOL0     C43891   2.324   9.144  10.365  0.3151  0.4562  0.2111
  319MOL0     O43892   2.454   9.167  10.412 -0.3438  0.3039  0.2987
  319MOL0     C43893   2.499   9.295  10.436 -0.8481 -0.2140  0.3925
  319MOL0     C43894   2.639   9.289  10.501  0.2563  0.1130  0.8066
  319MOL0     C43895   2.729   9.193  10.419 -0.8675 -0.1317  0.4031
  319MOL0     C43896   2.874   9.201  10.469  0.7164  0.0501 -0.1531
  319MOL0     C43897   2.965   9.093  10.409  0.2785 -0.4982  0.1353
  319MOL0     C43898   3.117   9.086  10.459 -0.6034  0.0649  0.2396
  319MOL0     C43899   3.174   8.961  10.391  0.1100  0.3853 -0.3345
  319MOL0     C43900   3.321   8.946  10.447 -0.6617 -0.0887 -0.5051
  319MOL0     N43901   3.404   9.060  10.399  1.1165 -0.1124  0.1339
  319MOL0     C43902   3.499   9.130  10.468 -0.0564 -0.1623 -0.5144
  319MOL0     C43903   3.586   9.182  10.381  0.0347 -1.2475  0.3479
  319MOL0     C43904   3.717   9.258  10.397  0.7530  0.2190 -0.0737
  319MOL0     C43905   3.849   9.182  10.398  0.9353  0.1164 -0.7837
  319MOL0     C43906   3.973   9.273  10.421 -0.6528  0.4409 -0.0800
  319MOL0     C43907   3.997   9.376  10.310  0.6602 -0.3991 -0.2153
  319MOL0     O43908   4.042   9.313  10.190 -0.4040  0.0185  0.5226
  319MOL0     C43909   4.171   9.261  10.176 -0.2092 -0.3250  0.0064
  319MOL0     C43910   4.194   9.195  10.058  0.1394 -0.0790  0.6640
  319MOL0     C43911   4.315   9.123  10.034 -0.1776 -0.1851 -0.2250
  319MOL0     C43912   4.333   9.030   9.913 -0.4260  0.0489 -0.8813
  319MOL0     C43913   4.427   9.132  10.127  0.7273 -0.0141  0.5753
  319MOL0     C43914   4.556   9.056  10.121 -0.2793 -0.4667  0.2292
  319MOL0     O43915   4.637   9.088  10.221  0.2810  0.1742  0.1966
  319MOL0     C43916   4.770   9.051  10.203 -0.1271  0.5176  0.0365
  319MOL0     C43917   4.855   9.150  10.155  0.1776  0.0573 -0.2437
  319MOL0     C43918   4.984   9.118  10.110  0.0564 -0.3310 -0.0267
  319MOL0     C43919   5.039   8.988  10.117 -0.2566 -0.9668  0.2260
  319MOL0     O43920   5.175   8.980  10.096  0.3404  0.4715  0.1058
  319MOL0     C43921   5.251   8.859  10.115  0.6799 -0.6733 -0.7615
  319MOL0     C43922   5.369   8.859  10.019  0.7170  0.2863  0.0559
  319MOL0     C43923   5.457   8.983  10.047  0.1577  0.5936 -0.3692
  319MOL0     C43924   5.597   8.971   9.969  1.0040  0.3991 -0.5247
  319MOL0     C43925   5.680   9.091   9.946 -0.2404 -0.2456  0.7502
  319MOL0     C43926   5.794   9.069   9.849  0.0542 -1.0696 -0.9559
  319MOL0     C43927   5.859   9.201   9.801 -0.0382  0.0342  0.7061
  319MOL0     C43928   5.945   9.273   9.898 -0.4326 -0.4827 -0.4321
  319MOL0    Cl43929   6.080   9.172   9.963 -0.2982  0.1400  0.2314
  319MOL0     C43930   4.954   8.882  10.171 -0.5265 -0.0389 -0.1320
  319MOL0     C43931   4.820   8.915  10.210  0.2150 -0.6041  0.0571
  319MOL0     O43932   4.581   8.954  10.050 -0.0634  0.4127  0.7914
  319MOL0     C43933   4.395   9.203  10.247 -0.1978 -0.7697 -0.0443
  319MOL0     C43934   4.270   9.269  10.273 -0.2618  0.6556  0.2832
  319MOL0     N43935   3.541   9.140  10.252 -0.7179  0.2856  0.5723
  319MOL0     N43936   3.436   9.066  10.267  0.0824 -0.6774  0.6409
  319MOL0     C43937   2.206   9.190  10.423  0.1867 -0.4313  0.5994
  319MOL0     C43938   2.082   9.148  10.373  0.2627 -0.0982 -0.0092
  319MOL0     C43939   1.717   9.031  10.176 -0.1410  0.1695 -0.0571
  319MOL0     C43940   1.701   8.909  10.232 -0.4267 -0.0755  0.3860
  319MOL0     C43941   1.593   8.831  10.232  0.2343 -0.7766 -0.2750
  319MOL0     C43942   1.472   8.881  10.181 -0.0039 -0.2774  0.3623
  319MOL0     O43943   1.364   8.796  10.170 -0.1998  0.0871  0.2370
  319MOL0     C43944   1.266   8.824  10.075  0.1205  0.2389  0.5725
  319MOL0     C43945   1.219   8.689  10.028  0.5803  0.1665 -0.5375
  319MOL0     C43946   1.182   8.584  10.140  0.6938  0.0950 -0.3814
  319MOL0     C43947   1.099   8.652  10.252  0.3914  0.0586 -0.2162
  319MOL0     C43948   0.973   8.713  10.202  0.9378  0.0275 -0.5023
  319MOL0     C43949   0.857   8.749  10.179 -0.1136  0.1336 -0.4162
  319MOL0     C43950   1.479   9.010  10.124 -0.4175 -0.0402  0.4800
  319MOL0     C43951   1.593   9.084  10.120  0.4972 -0.5648  0.0415
  319MOL0     C43952   1.595   9.215  10.050  0.3715 -0.0962 -0.4764
  319MOL0     H43953   2.204   8.937  10.125  3.5201  0.5926 -0.6871
  319MOL0     H43954   2.412   9.019  10.206  0.7096 -0.5451  0.6225
  319MOL0     H43955   2.437   9.365  10.493 -0.9470 -0.9821  1.2487
  319MOL0     H43956   2.509   9.329  10.332 -1.2951  0.7832  0.6681
  319MOL0     H43957   2.690   9.385  10.509 -0.2762  0.2323  4.9507
  319MOL0     H43958   2.623   9.253  10.603  1.1656  0.6060  1.1370
  319MOL0     H43959   2.696   9.091  10.443 -1.1948 -0.1873 -0.2559
  319MOL0     H43960   2.726   9.221  10.314  1.9035  0.1099  0.3342
  319MOL0     H43961   2.924   9.295  10.442  0.8314 -0.0158 -0.1723
  319MOL0     H43962   2.880   9.208  10.578  1.0422  1.8181 -0.2551
  319MOL0     H43963   2.958   9.109  10.301 -2.7716 -1.9946  0.0284
  319MOL0     H43964   2.924   8.995  10.434  0.0393 -0.2884  0.5691
  319MOL0     H43965   3.176   9.176  10.438  0.2975 -0.6111 -0.1907
  319MOL0     H43966   3.120   9.085  10.568  3.9087 -0.5547  0.3045
  319MOL0     H43967   3.171   8.965  10.281 -0.1865  0.1247 -0.3378
  319MOL0     H43968   3.111   8.878  10.424  1.1410 -1.1423 -1.9858
  319MOL0     H43969   3.315   8.956  10.556  0.9202  2.8411 -0.5935
  319MOL0     H43970   3.352   8.843  10.426  0.9170  0.3637 -0.4753
  319MOL0     H43971   3.508   9.153  10.573 -0.5395  0.2858 -0.5642
  319MOL0     H43972   3.701   9.312  10.490 -3.3963 -1.3220  0.3377
  319MOL0     H43973   3.717   9.330  10.315  1.2672  4.5415  3.4051
  319MOL0     H43974   3.845   9.114  10.484 -0.1970 -2.2738 -2.6245
  319MOL0     H43975   3.857   9.115  10.312  0.4391 -2.2149  0.8931
  319MOL0     H43976   3.965   9.326  10.516 -1.4520  1.3664 -0.6490
  319MOL0     H43977   4.063   9.210  10.422 -1.6630 -1.0765 -0.3453
  319MOL0     H43978   3.900   9.426  10.299  0.6491 -0.8450 -2.7044
  319MOL0     H43979   4.061   9.462  10.332  1.0286 -0.7253  0.0082
  319MOL0     H43980   4.114   9.198   9.985 -1.8374  2.3741  2.7407
  319MOL0     H43981   4.428   9.057   9.865 -0.5339 -0.6426 -1.5001
  319MOL0     H43982   4.253   9.041   9.839  0.9578  2.2452 -2.1850
  319MOL0     H43983   4.352   8.925   9.936 -2.5925 -0.2526 -0.2660
  319MOL0     H43984   4.823   9.251  10.132  0.1020  0.5533  1.8114
  319MOL0     H43985   5.045   9.201  10.076 -2.3155  1.9178  0.9495
  319MOL0     H43986   5.289   8.853  10.217  0.3758  0.3668 -0.5864
  319MOL0     H43987   5.189   8.776  10.080 -1.1094  0.6742 -0.8878
  319MOL0     H43988   5.418   8.762  10.029 -1.6781 -1.6675 -4.1044
  319MOL0     H43989   5.336   8.858   9.914  4.2422  1.8087 -1.2023
  319MOL0     H43990   5.479   8.994  10.154  2.0358 -1.8151 -0.4064
  319MOL0     H43991   5.402   9.064   9.999  2.1215  1.0422 -1.9792
  319MOL0     H43992   5.576   8.927   9.871 -0.7077 -1.7081  0.7107
  319MOL0     H43993   5.655   8.892  10.018  1.8452  1.5065  0.3199
  319MOL0     H43994   5.631   9.182   9.908 -0.6890 -1.0792 -0.7421
  319MOL0     H43995   5.722   9.119  10.043 -2.1959  4.0545  0.5711
  319MOL0     H43996   5.760   9.022   9.756 -1.2725 -0.2302 -0.9234
  319MOL0     H43997   5.868   9.009   9.902 -1.1995  0.4371  2.8165
  319MOL0     H43998   5.778   9.270   9.774  0.0044 -1.2865 -3.4371
  319MOL0     H43999   5.922   9.189   9.712  1.1285 -0.3738  1.5600
  319MOL0     H44000   5.879   9.299   9.982 -0.6990 -1.2242 -0.4045
  319MOL0     H44001   5.973   9.370   9.858 -0.4199 -0.3263 -0.0537
  319MOL0     H44002   4.981   8.778  10.184 -1.6146 -0.4614 -1.0827
  319MOL0     H44003   4.756   8.829  10.229  3.1265 -2.7315  0.8936
  319MOL0     H44004   4.461   9.197  10.333 -0.3964 -0.5145  0.1230
  319MOL0     H44005   4.236   9.330  10.355 -2.2411  0.1334 -0.0876
  319MOL0     H44006   2.203   9.263  10.504 -2.0014 -0.2977  0.4746
  319MOL0     H44007   1.990   9.182  10.419  1.7675  1.5973  1.9865
  319MOL0     H44008   1.784   8.862  10.283  0.9009  0.4770 -1.1856
  319MOL0     H44009   1.591   8.731  10.273 -1.7861 -1.5607 -2.1674
  319MOL0     H44010   1.186   8.879  10.124 -0.8680 -1.1622  0.5906
  319MOL0     H44011   1.290   8.876   9.982  0.0599 -2.3646 -1.0023
  319MOL0     H44012   1.309   8.647   9.981  0.2382 -2.9338  1.2788
  319MOL0     H44013   1.136   8.702   9.958 -0.1263  2.3207  0.6309
  319MOL0     H44014   1.135   8.503  10.083 -1.1208  1.5377 -1.0472
  319MOL0     H44015   1.272   8.547  10.190  0.9521 -0.0292 -0.9323
  319MOL0     H44016   1.163   8.718  10.312  1.8863 -1.3689 -0.1748
  319MOL0     H44017   1.064   8.572  10.318 -0.6146 -0.3895 -1.2660
  319MOL0     H44018   0.754   8.772  10.160  0.4148  1.8199 -1.4970
  319MOL0     H44019   1.398   9.055  10.067  0.1548 -1.6961 -1.8270
  319MOL0     H44020   1.492   9.236  10.021  0.4754  0.8646 -0.1835
  319MOL0     H44021   1.640   9.295  10.110 -1.6518  0.0887  0.8948
  319MOL0     H44022   1.647   9.204   9.955 -0.2075 -2.5427 -0.5698
  320MOL0     O44023   9.275   0.916   2.649 -0.1374  0.0379  0.1863
  320MOL0     C44024   9.204   0.818   2.630  0.0801  0.2060  0.8506
  320MOL0     O44025   9.246   0.687   2.629  0.2617 -0.4725 -0.6431
  320MOL0     C44026   9.368   0.656   2.683 -0.2226  0.3404 -0.3192
  320MOL0     C44027   9.375   0.640   2.819  0.8078 -0.3995  0.4258
  320MOL0     C44028   9.496   0.593   2.870 -0.0331 -0.1016  0.5105
  320MOL0     C44029   9.596   0.557   2.788 -0.6141 -0.1059 -0.4122
  320MOL0     O44030   9.705   0.506   2.851  0.0365 -0.7166  0.0415
  320MOL0     C44031   9.832   0.519   2.784 -0.2470  0.4860  0.0303
  320MOL0     C44032   9.940   0.491   2.886 -0.1209 -0.3542 -0.5277
  320MOL0     C44033  10.071   0.498   2.807 -0.0398  0.4869  0.2095
  320MOL0     C44034  10.186   0.486   2.902 -0.2788  0.0284  0.0329
  320MOL0     C44035  10.320   0.515   2.835 -0.0267 -0.3213 -0.4973
  320MOL0     C44036  10.331   0.651   2.764  0.1617  0.0331 -0.5031
  320MOL0     C44037  10.476   0.686   2.728 -1.2816  0.1765  0.7480
  320MOL0     C44038  10.545   0.736   2.854  0.9177 -0.2916 -0.3237
  320MOL0     N44039  10.681   0.773   2.815 -0.2516  0.0756  0.5473
  320MOL0     C44040  10.760   0.690   2.738  0.0209 -1.0699 -0.1301
  320MOL0     C44041  10.887   0.740   2.740  0.1317  0.6234  0.7729
  320MOL0     C44042  11.003   0.688   2.663  0.3324  0.0568 -0.0316
  320MOL0     C44043  11.057   0.798   2.568  1.2167 -0.6971  0.6272
  320MOL0     C44044  11.165   0.739   2.459  0.2500  0.1691 -1.1788
  320MOL0     C44045  11.198   0.843   2.350  0.2016  0.6151  0.2523
  320MOL0     O44046  11.300   0.806   2.259 -0.0915  0.0962  0.1162
  320MOL0     C44047  11.425   0.771   2.303  0.4136 -0.1013  0.2401
  320MOL0     C44048  11.499   0.844   2.400  0.5833 -0.9492  0.0111
  320MOL0     C44049  11.633   0.819   2.418 -0.1769 -0.4813 -0.1827
  320MOL0     C44050  11.711   0.889   2.525 -0.2780 -0.1522 -0.7811
  320MOL0     C44051  11.697   0.727   2.335 -0.2004 -0.4976 -0.2823
  320MOL0     C44052  11.848   0.694   2.339  0.0938 -0.4944 -0.5969
  320MOL0     O44053  11.937   0.789   2.385  0.2356 -0.0159 -0.9445
  320MOL0     C44054  12.070   0.754   2.359  0.7629 -0.3921 -0.2882
  320MOL0     C44055  12.129   0.648   2.413 -0.6120  0.2974  0.0183
  320MOL0     C44056  12.259   0.617   2.374  0.7206  0.5076  0.1027
  320MOL0     C44057  12.327   0.693   2.275  1.1624 -0.0333  0.4664
  320MOL0     O44058  12.448   0.648   2.243 -0.1373 -0.7734  0.7770
  320MOL0     C44059  12.536   0.736   2.168 -0.2176 -0.4188 -0.0385
  320MOL0     C44060  12.663   0.652   2.180 -0.6527  0.2969 -0.6624
  320MOL0     C44061  12.769   0.702   2.081  0.1211 -0.1724  0.4271
  320MOL0     C44062  12.906   0.645   2.122  0.6420  0.1468  0.1274
  320MOL0     C44063  13.025   0.673   2.024  0.5480 -0.2985  0.7493
  320MOL0     C44064  13.166   0.651   2.078  0.5140 -0.0556  0.4383
  320MOL0     C44065  13.267   0.732   1.988 -0.1434  0.7744 -0.1332
  320MOL0     C44066  13.409   0.678   1.996  0.2587 -0.1943  0.0603
  320MOL0    Cl44067  13.444   0.534   1.904  0.2225 -0.1998  0.0102
  320MOL0     C44068  12.267   0.804   2.218 -0.1282  0.0980 -0.4165
  320MOL0     C44069  12.136   0.831   2.260 -0.2675 -0.2749 -0.1682
  320MOL0     O44070  11.879   0.582   2.303  0.1699  0.2803 -0.7084
  320MOL0     C44071  11.624   0.657   2.237  0.3859  0.7042  0.0608
  320MOL0     C44072  11.489   0.678   2.216 -0.0340  0.6280 -0.1599
  320MOL0     N44073  10.886   0.855   2.820  0.6416 -0.4998  0.0440
  320MOL0     N44074  10.763   0.877   2.858  0.5847 -0.2310  0.7408
  320MOL0     C44075   9.588   0.575   2.649  0.8222 -0.0038 -0.1663
  320MOL0     C44076   9.471   0.622   2.589 -0.7032 -0.2266  0.2029
  320MOL0     C44077   9.061   0.853   2.600 -0.1771 -0.8736 -0.2000
  320MOL0     C44078   8.974   0.753   2.633  0.8012  0.4102  0.7385
  320MOL0     C44079   8.835   0.760   2.614  0.1429 -0.8643 -0.4867
  320MOL0     C44080   8.774   0.869   2.547 -0.1987  0.2043 -1.0317
  320MOL0     O44081   8.640   0.867   2.531 -0.2212 -1.1366 -0.0142
  320MOL0     C44082   8.576   0.971   2.462  0.1172  0.2995  0.3345
  320MOL0     C44083   8.432   0.936   2.458  0.0218 -0.5582  0.3484
  320MOL0     C44084   8.396   0.841   2.351  0.1763  0.3149  0.0522
  320MOL0     C44085   8.253   0.779   2.385  0.0601  0.3818  0.2400
  320MOL0     C44086   8.152   0.885   2.382  0.2682  0.6824 -0.2265
  320MOL0     C44087   8.066   0.969   2.394 -0.4672  1.0770 -0.0229
  320MOL0     C44088   8.870   0.965   2.513  0.1758  0.2314  0.6179
  320MOL0     C44089   9.011   0.969   2.548  1.0255  0.0549 -1.1552
  320MOL0     C44090   9.079   1.093   2.506 -0.7413  0.2150  0.5555
  320MOL0     H44091   9.294   0.673   2.883  1.0373 -0.0036  0.5154
  320MOL0     H44092   9.504   0.558   2.973 -0.6644 -0.5919  0.3981
  320MOL0     H44093   9.839   0.617   2.737 -0.0508 -0.4290 -1.9412
  320MOL0     H44094   9.832   0.441   2.707 -0.7041  2.4348 -2.0441
  320MOL0     H44095   9.940   0.575   2.956  2.4287 -1.2055  0.5987
  320MOL0     H44096   9.914   0.402   2.943  0.1739  0.9254  1.7323
  320MOL0     H44097  10.065   0.415   2.737 -2.1197  0.7145  0.0340
  320MOL0     H44098  10.074   0.594   2.754  0.2627  0.3248 -0.0636
  320MOL0     H44099  10.174   0.557   2.985 -2.3471  1.5973 -1.4806
  320MOL0     H44100  10.182   0.383   2.938 -1.9421 -0.2438 -0.8359
  320MOL0     H44101  10.350   0.437   2.764  2.2631  1.2500 -1.3667
  320MOL0     H44102  10.394   0.509   2.915 -0.3627 -0.1666 -0.1752
  320MOL0     H44103  10.281   0.624   2.671  0.6937  1.0795 -1.1053
  320MOL0     H44104  10.278   0.723   2.827  1.4174  0.2553  0.3518
  320MOL0     H44105  10.470   0.769   2.658 -0.1150 -1.8814 -1.9618
  320MOL0     H44106  10.519   0.601   2.674  0.3946  2.1939 -1.2681
  320MOL0     H44107  10.492   0.826   2.889  1.4651  0.1078 -0.4995
  320MOL0     H44108  10.554   0.660   2.932 -0.2450  0.3027  0.4144
  320MOL0     H44109  10.719   0.611   2.676 -3.8903 -0.4839  1.4352
  320MOL0     H44110  10.965   0.599   2.612  0.0768 -0.0566  0.3544
  320MOL0     H44111  11.086   0.655   2.725 -0.0452  0.1679  0.5333
  320MOL0     H44112  10.977   0.858   2.524  1.4142  0.3967  1.7072
  320MOL0     H44113  11.116   0.863   2.633  1.0508 -0.2483  0.3330
  320MOL0     H44114  11.259   0.710   2.506 -0.3810  0.5338  0.3744
  320MOL0     H44115  11.110   0.657   2.411 -5.3007  1.7176  1.7079
  320MOL0     H44116  11.104   0.866   2.297  1.5395  0.5896 -2.2916
  320MOL0     H44117  11.230   0.936   2.397  1.6334  0.8669 -1.1561
  320MOL0     H44118  11.441   0.914   2.459  1.1865  0.1348 -0.6476
  320MOL0     H44119  11.779   0.819   2.574  1.1341  1.8182  0.2490
  320MOL0     H44120  11.650   0.937   2.603  2.4543  2.0249  0.1828
  320MOL0     H44121  11.766   0.976   2.487 -0.5508  0.8068  0.8731
  320MOL0     H44122  12.080   0.584   2.486  1.8725 -0.7960  0.8244
  320MOL0     H44123  12.306   0.527   2.411 -0.5362 -1.3757 -2.5615
  320MOL0     H44124  12.512   0.760   2.064 -0.4498  2.6891  0.6202
  320MOL0     H44125  12.559   0.833   2.214  0.7055 -1.3520  1.5452
  320MOL0     H44126  12.695   0.654   2.285 -3.1085 -1.4966  0.2223
  320MOL0     H44127  12.634   0.553   2.145  2.0079  0.0464 -2.4781
  320MOL0     H44128  12.770   0.811   2.077 -3.9567 -0.0024  0.1338
  320MOL0     H44129  12.729   0.678   1.982 -0.4932  0.2578  0.5697
  320MOL0     H44130  12.900   0.539   2.145  4.3616 -0.2339 -0.0174
  320MOL0     H44131  12.923   0.699   2.216 -2.3382 -2.6657  2.4889
  320MOL0     H44132  13.005   0.603   1.942  1.0199 -2.7473  2.6161
  320MOL0     H44133  13.017   0.769   1.972  0.0029 -0.9623 -0.4412
  320MOL0     H44134  13.180   0.543   2.067 -0.7667 -0.2942  0.9507
  320MOL0     H44135  13.166   0.684   2.183  4.1572 -0.4822  0.7276
  320MOL0     H44136  13.262   0.838   2.017  1.7105  1.1063 -0.9028
  320MOL0     H44137  13.237   0.738   1.883 -0.8461  0.3138  0.0347
  320MOL0     H44138  13.430   0.658   2.102 -0.3939  1.1187  0.4596
  320MOL0     H44139  13.472   0.758   1.958  0.2894 -0.3826 -0.2860
  320MOL0     H44140  12.303   0.856   2.129 -2.5189 -0.0735 -1.5854
  320MOL0     H44141  12.084   0.915   2.215 -1.1139 -1.7856 -2.1371
  320MOL0     H44142  11.675   0.592   2.167 -1.0446  0.1682 -0.5205
  320MOL0     H44143  11.440   0.635   2.129  2.1366  2.6076 -2.4744
  320MOL0     H44144   9.668   0.547   2.582  1.2473  2.5211 -0.8002
  320MOL0     H44145   9.463   0.628   2.481  2.9880 -1.2566 -0.2720
  320MOL0     H44146   9.012   0.667   2.687 -0.4534 -0.8155 -0.2462
  320MOL0     H44147   8.778   0.675   2.651 -0.9202  0.3414  0.7781
  320MOL0     H44148   8.584   1.068   2.512 -0.8946  0.5076  0.1061
  320MOL0     H44149   8.619   0.981   2.362  0.8047 -0.9374  0.4841
  320MOL0     H44150   8.379   1.031   2.444 -0.0150 -0.3582  1.7233
  320MOL0     H44151   8.400   0.900   2.556 -1.4348 -0.1904  0.0270
  320MOL0     H44152   8.390   0.903   2.261  2.3522  0.2866 -0.1745
  320MOL0     H44153   8.470   0.760   2.346 -0.6116 -0.6222  2.4757
  320MOL0     H44154   8.259   0.735   2.485  0.5338 -0.6110 -0.2116
  320MOL0     H44155   8.235   0.704   2.307 -2.7243 -1.4919  2.4932
  320MOL0     H44156   7.997   1.045   2.425 -0.7698  0.3953  1.0299
  320MOL0     H44157   8.836   1.056   2.465  2.0446  1.1182  0.8784
  320MOL0     H44158   9.180   1.064   2.477 -0.4396  0.8682  0.9237
  320MOL0     H44159   9.032   1.154   2.429  1.5692  0.8063 -0.4554
  320MOL0     H44160   9.093   1.153   2.596  0.2050  1.9063 -0.6771
  321MOL0     O44161   9.133   6.933   0.279  0.3897  0.2008  0.2593
  321MOL0     C44162   9.062   6.946   0.179 -0.1716  0.7432 -0.3308
  321MOL0     O44163   9.112   6.971   0.048 -0.5591  0.2364  0.8300
  321MOL0     C44164   9.244   6.982   0.026 -0.8068 -0.3507 -0.4868
  321MOL0     C44165   9.315   6.873  -0.019 -0.0021 -0.0843  0.5134
  321MOL0     C44166   9.456   6.879  -0.038 -0.2311  0.8285  0.1444
  321MOL0     C44167   9.531   6.995  -0.021  0.0562  0.1336 -0.2427
  321MOL0     O44168   9.666   6.988  -0.046 -0.6601 -0.2951  0.2334
  321MOL0     C44169   9.742   7.107  -0.014 -0.4612 -0.2332  0.9442
  321MOL0     C44170   9.890   7.062  -0.035  0.0321  0.0924  0.0331
  321MOL0     C44171   9.981   7.192  -0.005 -1.1991 -0.3406 -0.3079
  321MOL0     C44172  10.132   7.161  -0.022  0.5835  0.7515 -0.0607
  321MOL0     C44173  10.230   7.235   0.075  0.7277 -0.1284 -0.2193
  321MOL0     C44174  10.377   7.197   0.043 -0.2001  1.0560  0.1518
  321MOL0     C44175  10.417   7.057   0.095 -0.4577 -0.5321  0.3132
  321MOL0     C44176  10.573   7.055   0.118 -0.4114 -0.2567  0.7264
  321MOL0     N44177  10.661   7.077   0.001 -0.9146  0.2400 -0.0960
  321MOL0     C44178  10.698   7.192  -0.063  0.2060 -0.4527 -0.3688
  321MOL0     C44179  10.780   7.164  -0.166 -0.0975  1.0704 -0.8488
  321MOL0     C44180  10.840   7.261  -0.257  0.0177  0.3693  0.2467
  321MOL0     C44181  10.926   7.209  -0.372 -0.1010  0.0850  1.4692
  321MOL0     C44182  10.965   7.331  -0.457  0.2189 -0.4887  0.5167
  321MOL0     C44183  11.046   7.286  -0.573 -0.6585 -0.1651 -0.0080
  321MOL0     O44184  11.085   7.419  -0.626  0.3153 -0.4234 -0.0673
  321MOL0     C44185  11.193   7.427  -0.708  0.4462 -0.1966 -0.6586
  321MOL0     C44186  11.213   7.552  -0.761 -0.1452 -0.0399 -0.8331
  321MOL0     C44187  11.325   7.579  -0.841  0.6069  0.3358  0.0500
  321MOL0     C44188  11.347   7.720  -0.885 -0.4664 -0.2085  0.7242
  321MOL0     C44189  11.426   7.485  -0.879  0.1944  0.6448  0.0673
  321MOL0     C44190  11.551   7.515  -0.959  0.2420  0.3323  0.4328
  321MOL0     O44191  11.647   7.412  -0.949  0.4104  0.2894  0.0606
  321MOL0     C44192  11.748   7.398  -1.047  0.0506 -0.4264 -1.5016
  321MOL0     C44193  11.711   7.415  -1.179 -0.8210  0.0226  0.1694
  321MOL0     C44194  11.812   7.411  -1.275 -0.5497 -0.3135 -0.0682
  321MOL0     C44195  11.947   7.392  -1.242  0.1940 -0.2154 -0.5306
  321MOL0     O44196  12.056   7.373  -1.320  0.5865 -0.1267 -0.1908
  321MOL0     C44197  12.039   7.423  -1.459 -0.0584  0.3928  1.0135
  321MOL0     C44198  12.178   7.427  -1.531  0.0935  0.1051 -0.9046
  321MOL0     C44199  12.188   7.492  -1.671  0.6567 -0.7675 -0.0572
  321MOL0     C44200  12.106   7.625  -1.686 -0.0273 -0.6189  0.3535
  321MOL0     C44201  12.145   7.718  -1.807  0.6025 -0.3376  0.0960
  321MOL0     C44202  12.292   7.781  -1.801  0.7966  1.0964  0.0967
  321MOL0     C44203  12.307   7.924  -1.858 -0.3234 -0.5888 -0.9174
  321MOL0     C44204  12.310   7.911  -2.011 -0.0870 -0.2226  0.6430
  321MOL0    Cl44205  12.476   7.861  -2.052 -0.0906  0.0745 -0.3813
  321MOL0     C44206  11.984   7.368  -1.107 -0.5580 -0.5653 -0.1873
  321MOL0     C44207  11.882   7.372  -1.011  0.0492 -0.3557 -0.8899
  321MOL0     O44208  11.573   7.623  -1.017  0.0952  0.4333  0.3455
  321MOL0     C44209  11.393   7.350  -0.836  0.5686  0.3689 -0.1942
  321MOL0     C44210  11.280   7.323  -0.750  0.0109 -0.2650  0.2303
  321MOL0     N44211  10.804   7.027  -0.153 -0.6124 -0.3666 -0.7149
  321MOL0     N44212  10.733   6.973  -0.060  0.4654  0.3004 -0.5979
  321MOL0     C44213   9.457   7.101   0.018  0.6216 -0.3318  0.2335
  321MOL0     C44214   9.321   7.095   0.041 -0.3656  0.5279 -0.1220
  321MOL0     C44215   8.912   6.934   0.201  0.0371  0.0095 -0.2498
  321MOL0     C44216   8.868   6.912   0.331 -0.1298  0.4000  0.1513
  321MOL0     C44217   8.734   6.886   0.360  0.3443  0.2027 -0.3971
  321MOL0     C44218   8.635   6.895   0.268  0.3871 -0.2747  0.2547
  321MOL0     O44219   8.509   6.860   0.307 -0.2810 -0.5927 -0.5014
  321MOL0     C44220   8.423   6.817   0.200 -0.5401  0.5182 -0.2987
  321MOL0     C44221   8.304   6.757   0.256  0.1478 -0.4400  0.4262
  321MOL0     C44222   8.223   6.859   0.347  1.0630 -0.0979  0.3243
  321MOL0     C44223   8.096   6.797   0.390 -0.4810  0.0682  0.2308
  321MOL0     C44224   7.992   6.811   0.279 -0.3034 -0.1348  1.1084
  321MOL0     C44225   7.929   6.829   0.176  0.4623 -0.3896  0.0531
  321MOL0     C44226   8.677   6.924   0.139 -0.5537  0.1624  0.5712
  321MOL0     C44227   8.812   6.944   0.106  0.0499 -0.0226 -0.4074
  321MOL0     C44228   8.835   6.992  -0.033 -0.0487 -0.3410 -0.0945
  321MOL0     H44229   9.260   6.781  -0.030 -1.7277  1.1440 -2.0649
  321MOL0     H44230   9.507   6.785  -0.054 -1.0226  0.1661  1.3660
  321MOL0     H44231   9.721   7.141   0.088  0.0893 -0.2881  1.0795
  321MOL0     H44232   9.719   7.184  -0.088  0.4412 -0.4653  0.4069
  321MOL0     H44233   9.914   6.984   0.037 -0.0172  0.6605  0.6780
  321MOL0     H44234   9.908   7.027  -0.137 -2.2831 -1.7310  0.1683
  321MOL0     H44235   9.953   7.269  -0.078  0.5838  0.6522 -0.0078
  321MOL0     H44236   9.962   7.228   0.096 -0.2511  0.5353 -0.4224
  321MOL0     H44237  10.147   7.053  -0.009 -4.0961  0.0828  1.5488
  321MOL0     H44238  10.156   7.179  -0.128  1.3683  1.3771  0.2122
  321MOL0     H44239  10.209   7.210   0.180 -4.2886  0.9380 -0.7298
  321MOL0     H44240  10.215   7.342   0.055 -3.7827 -0.6932 -1.0347
  321MOL0     H44241  10.391   7.196  -0.066 -0.1391  1.1976  0.1574
  321MOL0     H44242  10.443   7.276   0.082  1.0003 -1.4327  3.5904
  321MOL0     H44243  10.397   6.991   0.011  0.7642  0.5449 -0.8710
  321MOL0     H44244  10.361   7.027   0.184 -0.3866 -0.6060  0.3331
  321MOL0     H44245  10.595   7.131   0.193  0.7398  1.8759 -1.6316
  321MOL0     H44246  10.611   6.961   0.160  2.3820  1.0637  1.3990
  321MOL0     H44247  10.656   7.291  -0.045  0.0020 -0.1791 -2.1004
  321MOL0     H44248  10.907   7.309  -0.185 -0.3948  2.2075 -0.5603
  321MOL0     H44249  10.765   7.330  -0.296 -0.7750 -1.0455 -0.8056
  321MOL0     H44250  11.014   7.161  -0.329 -0.5266  0.9280  3.3946
  321MOL0     H44251  10.862   7.143  -0.432 -0.1180  1.9847 -0.7453
  321MOL0     H44252  10.878   7.390  -0.489  1.3213  1.0504  0.2041
  321MOL0     H44253  11.029   7.391  -0.391 -0.2466 -0.7239  1.1843
  321MOL0     H44254  11.132   7.225  -0.543  1.2362  1.9087 -0.8767
  321MOL0     H44255  10.981   7.238  -0.646  2.1072  2.0575 -4.4271
  321MOL0     H44256  11.154   7.642  -0.744  1.7994  1.7579 -2.9523
  321MOL0     H44257  11.449   7.747  -0.856  1.2338 -2.5905 -2.3662
  321MOL0     H44258  11.286   7.795  -0.834  1.2127  3.9893 -2.8535
  321MOL0     H44259  11.340   7.744  -0.991  1.4675  2.0164  1.0293
  321MOL0     H44260  11.614   7.438  -1.222  0.1947  1.4739 -1.4921
  321MOL0     H44261  11.791   7.422  -1.381  1.2176  0.2653 -0.3905
  321MOL0     H44262  11.979   7.345  -1.508  1.2671 -0.3158  0.4698
  321MOL0     H44263  11.998   7.524  -1.465  0.8427  0.6819 -2.1543
  321MOL0     H44264  12.244   7.473  -1.457  1.3101 -1.7930 -0.7320
  321MOL0     H44265  12.213   7.324  -1.534 -0.2117 -0.1106  1.2967
  321MOL0     H44266  12.150   7.426  -1.750 -1.5941 -0.3690  0.5959
  321MOL0     H44267  12.293   7.506  -1.697  0.7037 -1.3621 -0.1893
  321MOL0     H44268  12.113   7.685  -1.595 -2.5238 -0.4873  0.5451
  321MOL0     H44269  12.000   7.600  -1.698  0.3485 -1.2654 -2.3643
  321MOL0     H44270  12.144   7.666  -1.903 -1.9172  0.3523 -0.3089
  321MOL0     H44271  12.072   7.799  -1.808  1.8588  0.8157 -0.4819
  321MOL0     H44272  12.367   7.718  -1.850 -0.6926 -0.1092 -0.7137
  321MOL0     H44273  12.321   7.770  -1.696  0.6998  0.4464  0.0545
  321MOL0     H44274  12.401   7.966  -1.821  0.0857 -0.1784 -2.3348
  321MOL0     H44275  12.225   7.988  -1.824  2.6140  2.2731  1.4157
  321MOL0     H44276  12.293   8.002  -2.069  2.9621 -0.7989 -1.3813
  321MOL0     H44277  12.242   7.831  -2.042  0.0039 -2.3040  5.0470
  321MOL0     H44278  12.087   7.334  -1.099 -0.8171 -2.2539 -2.7672
  321MOL0     H44279  11.911   7.360  -0.907 -0.8293  2.9793 -0.1633
  321MOL0     H44280  11.454   7.262  -0.854  1.2738  0.7069  0.4590
  321MOL0     H44281  11.259   7.220  -0.723 -4.3152  0.3058 -0.2351
  321MOL0     H44282   9.503   7.194   0.047 -0.2997 -0.2820  1.6544
  321MOL0     H44283   9.266   7.181   0.077 -0.4036  0.3633  0.2149
  321MOL0     H44284   8.944   6.904   0.408 -1.2981  1.3765  1.4766
  321MOL0     H44285   8.710   6.884   0.466  0.9853 -0.6667 -0.2606
  321MOL0     H44286   8.384   6.901   0.141 -0.1297  1.2314  0.4193
  321MOL0     H44287   8.474   6.749   0.131  0.4634 -0.2166  1.1081
  321MOL0     H44288   8.337   6.665   0.305 -1.1824 -2.0825 -1.5779
  321MOL0     H44289   8.237   6.726   0.175 -0.7834  1.3547  0.4580
  321MOL0     H44290   8.284   6.888   0.433  0.9034 -0.5869  0.6031
  321MOL0     H44291   8.194   6.949   0.291 -1.0795 -0.2475  1.0811
  321MOL0     H44292   8.054   6.840   0.481  0.1742  3.9877 -1.0758
  321MOL0     H44293   8.113   6.691   0.410  2.0885  0.3540 -0.0937
  321MOL0     H44294   7.865   6.842   0.091  2.3938  1.2955 -1.2517
  321MOL0     H44295   8.606   6.939   0.058  1.8224  1.7497 -1.3439
  321MOL0     H44296   8.881   6.908  -0.085  2.9761 -1.2484  3.6149
  321MOL0     H44297   8.745   7.025  -0.086  1.0597  1.4188 -0.9811
  321MOL0     H44298   8.906   7.076  -0.034  0.3628 -0.6858  0.2317
  322MOL0     O44299   2.279   2.574   0.844  0.0857 -1.1817 -0.2362
  322MOL0     C44300   2.217   2.519   0.755 -0.3654 -0.0166 -0.5386
  322MOL0     O44301   2.241   2.535   0.615  0.1932 -0.1456  0.4239
  322MOL0     C44302   2.313   2.641   0.557 -0.9091 -0.0768 -0.2345
  322MOL0     C44303   2.442   2.667   0.598  0.0149 -0.3797  0.2656
  322MOL0     C44304   2.515   2.771   0.533  0.4811 -1.1056 -0.2835
  322MOL0     C44305   2.460   2.839   0.425 -0.5920 -0.0466  0.5552
  322MOL0     O44306   2.539   2.923   0.349  0.4591  0.0033 -0.1281
  322MOL0     C44307   2.487   3.003   0.248 -0.3605  0.1891  0.5833
  322MOL0     C44308   2.594   3.105   0.196 -0.6065 -1.0015  0.3602
  322MOL0     C44309   2.726   3.040   0.149 -0.2099  0.7263  0.1297
  322MOL0     C44310   2.836   3.051   0.259 -0.6703  0.7605  0.5469
  322MOL0     C44311   2.966   3.016   0.187  0.0356  0.3285  0.1814
  322MOL0     C44312   3.088   3.012   0.289 -0.3241 -0.4623 -0.4010
  322MOL0     C44313   3.221   2.990   0.224  0.3938 -0.2884  1.0216
  322MOL0     C44314   3.229   2.848   0.169  0.2328  0.4192 -0.1228
  322MOL0     N44315   3.365   2.816   0.122 -0.0243  0.1454  0.1284
  322MOL0     C44316   3.437   2.874   0.021 -0.4299 -0.7663 -0.0066
  322MOL0     C44317   3.558   2.814   0.025  0.3369 -0.0670  0.9798
  322MOL0     C44318   3.670   2.823  -0.073 -0.9583 -0.6923  0.4213
  322MOL0     C44319   3.670   2.964  -0.142  0.1744 -0.4597 -0.1423
  322MOL0     C44320   3.787   2.979  -0.243 -0.5691 -0.0615  0.5403
  322MOL0     C44321   3.781   3.117  -0.320  0.1241 -0.1684  0.0436
  322MOL0     O44322   3.822   3.224  -0.230  0.0387  0.5427 -0.1044
  322MOL0     C44323   3.957   3.262  -0.223  0.0716 -0.4180 -0.1214
  322MOL0     C44324   4.060   3.185  -0.283 -0.1120  0.2280  0.4496
  322MOL0     C44325   4.193   3.240  -0.289  0.2525  0.8123  0.1979
  322MOL0     C44326   4.296   3.156  -0.362  0.7301  0.7452  0.5788
  322MOL0     C44327   4.232   3.349  -0.208 -0.0591  0.0805  0.5942
  322MOL0     C44328   4.374   3.392  -0.191  0.0155  0.0414  0.4339
  322MOL0     O44329   4.443   3.411  -0.304 -0.3075  0.2777  0.1223
  322MOL0     C44330   4.574   3.468  -0.313 -0.4763  0.8718  0.2198
  322MOL0     C44331   4.662   3.449  -0.201 -0.6840  1.2185  0.5024
  322MOL0     C44332   4.794   3.500  -0.211 -0.1918 -0.0700  0.0232
  322MOL0     C44333   4.839   3.558  -0.340  0.1332 -0.9214 -0.4736
  322MOL0     O44334   4.950   3.632  -0.357 -0.1642 -0.4603  0.0085
  322MOL0     C44335   5.067   3.572  -0.293 -0.3555  0.1847  0.7571
  322MOL0     C44336   5.197   3.635  -0.352 -0.0069 -0.3335 -0.2937
  322MOL0     C44337   5.317   3.547  -0.321  0.2185  0.0743 -0.4274
  322MOL0     C44338   5.439   3.602  -0.393  0.2685 -1.1915  1.0513
  322MOL0     C44339   5.565   3.518  -0.377  0.0162 -0.1370 -0.1661
  322MOL0     C44340   5.685   3.569  -0.459 -0.0039  0.1024  0.2226
  322MOL0     C44341   5.746   3.696  -0.398 -0.1532  0.0309 -0.5077
  322MOL0     C44342   5.845   3.773  -0.489 -0.3510  0.2020  0.2221
  322MOL0    Cl44343   6.003   3.715  -0.514  0.3468  0.0167  0.1470
  322MOL0     C44344   4.757   3.562  -0.448  0.8447 -0.1932 -1.4089
  322MOL0     C44345   4.627   3.521  -0.434  0.3908  0.5380  0.2623
  322MOL0     O44346   4.394   3.441  -0.088 -0.3367 -0.1657  0.3077
  322MOL0     C44347   4.128   3.420  -0.142  1.1956 -0.6543  0.4334
  322MOL0     C44348   3.993   3.372  -0.152  0.7688 -0.3970 -0.2925
  322MOL0     N44349   3.564   2.733   0.136  0.3438 -0.0772 -0.7349
  322MOL0     N44350   3.447   2.726   0.185  0.1401 -0.8679 -0.5644
  322MOL0     C44351   2.335   2.799   0.376  0.1409  0.4320 -1.0790
  322MOL0     C44352   2.259   2.715   0.453  0.1505  0.1588 -0.0328
  322MOL0     C44353   2.115   2.420   0.793 -0.1940  0.1631 -0.9969
  322MOL0     C44354   2.025   2.434   0.897  0.0652  1.1982 -0.4035
  322MOL0     C44355   1.931   2.354   0.946 -0.8111 -0.3983  1.0006
  322MOL0     C44356   1.898   2.238   0.874  0.8864 -0.1513 -0.0739
  322MOL0     O44357   1.778   2.167   0.904 -0.5559  0.2258  0.5578
  322MOL0     C44358   1.772   2.032   0.857 -0.4964  0.2039  0.3721
  322MOL0     C44359   1.728   1.936   0.962  0.5237 -0.0825 -0.0830
  322MOL0     C44360   1.582   1.957   1.000  0.2723 -0.8941  0.0228
  322MOL0     C44361   1.477   1.896   0.907  0.3932  0.5649 -0.2949
  322MOL0     C44362   1.346   1.888   0.982  0.0729 -0.2458 -0.2607
  322MOL0     C44363   1.237   1.896   1.035  0.6569 -0.0624 -0.3308
  322MOL0     C44364   1.976   2.212   0.766 -0.7763  0.1383  0.6975
  322MOL0     C44365   2.089   2.299   0.725  0.4375  0.6331  0.1507
  322MOL0     C44366   2.157   2.257   0.601  0.4903  0.0494 -0.1348
  322MOL0     H44367   2.484   2.594   0.666  0.2553 -0.5156 -0.0261
  322MOL0     H44368   2.617   2.786   0.568  0.8654 -2.1039 -0.9314
  322MOL0     H44369   2.388   3.042   0.274 -2.6123 -3.9564 -0.8604
  322MOL0     H44370   2.461   2.931   0.170 -1.4598 -0.7415  1.7585
  322MOL0     H44371   2.546   3.160   0.115 -1.0381 -2.9624 -0.7967
  322MOL0     H44372   2.618   3.175   0.276  1.3669 -0.5982 -0.5309
  322MOL0     H44373   2.703   2.939   0.116  0.3700  0.8043 -0.5421
  322MOL0     H44374   2.775   3.101   0.071  0.9970  1.1571  1.1948
  322MOL0     H44375   2.827   3.147   0.312  1.6747  1.6366 -0.4850
  322MOL0     H44376   2.823   2.971   0.332  0.9261 -1.8364 -1.8426
  322MOL0     H44377   2.979   3.086   0.103 -3.1129  0.0944 -0.6433
  322MOL0     H44378   2.955   2.917   0.142 -0.7963  1.0651 -1.3294
  322MOL0     H44379   3.091   3.095   0.361 -1.9472  0.4928 -1.3808
  322MOL0     H44380   3.075   2.921   0.348  0.3526  0.2025  0.8118
  322MOL0     H44381   3.298   3.010   0.299 -2.4566  0.9871  3.8387
  322MOL0     H44382   3.239   3.064   0.145  1.1852  1.2410  2.5661
  322MOL0     H44383   3.197   2.772   0.241 -2.5354  1.6024  0.0308
  322MOL0     H44384   3.169   2.840   0.078  0.6663  2.3623 -0.6334
  322MOL0     H44385   3.404   2.933  -0.064 -2.5883 -2.5633 -0.5026
  322MOL0     H44386   3.656   2.750  -0.153  0.2146 -0.6708  0.1675
  322MOL0     H44387   3.765   2.796  -0.025 -1.0677 -0.2063  0.9165
  322MOL0     H44388   3.574   2.975  -0.195  1.9982 -1.0833 -3.9211
  322MOL0     H44389   3.679   3.047  -0.072  0.2989 -1.0640  0.5689
  322MOL0     H44390   3.884   2.962  -0.194 -1.5226 -1.4854  2.0358
  322MOL0     H44391   3.775   2.899  -0.317 -0.0292  1.6246 -1.4434
  322MOL0     H44392   3.848   3.112  -0.406 -0.3893  0.0621 -0.3750
  322MOL0     H44393   3.682   3.129  -0.365  0.4024 -4.1036 -2.0128
  322MOL0     H44394   4.042   3.088  -0.329 -0.1384  0.6499 -0.4399
  322MOL0     H44395   4.373   3.111  -0.298  0.0761 -0.8104  0.3189
  322MOL0     H44396   4.348   3.211  -0.441  0.5970 -0.8594 -0.6879
  322MOL0     H44397   4.254   3.062  -0.401  2.0095  0.7663 -0.9607
  322MOL0     H44398   4.620   3.410  -0.109 -0.6454 -0.6009 -0.2273
  322MOL0     H44399   4.847   3.500  -0.116 -1.2671 -0.0010  0.6455
  322MOL0     H44400   5.060   3.579  -0.184 -3.3990 -0.9715  0.7153
  322MOL0     H44401   5.057   3.469  -0.328  3.6131 -0.1598  0.1517
  322MOL0     H44402   5.187   3.652  -0.459 -2.1017 -0.2430 -0.1150
  322MOL0     H44403   5.216   3.732  -0.304 -1.7881  0.6329 -1.4437
  322MOL0     H44404   5.287   3.449  -0.360  0.5548 -0.0937 -0.2688
  322MOL0     H44405   5.337   3.547  -0.214 -0.2244  1.1120 -0.3347
  322MOL0     H44406   5.451   3.706  -0.362  2.6780 -1.0008 -0.2800
  322MOL0     H44407   5.428   3.612  -0.502  2.1056  2.3319  1.0491
  322MOL0     H44408   5.596   3.501  -0.273  0.0439  1.0465  0.0346
  322MOL0     H44409   5.537   3.420  -0.417 -3.0456  0.4099  0.3716
  322MOL0     H44410   5.654   3.581  -0.563 -0.8194 -2.4699  0.1032
  322MOL0     H44411   5.753   3.484  -0.461  0.4815  0.4722 -2.2295
  322MOL0     H44412   5.801   3.664  -0.309  0.6887 -0.3465 -1.1484
  322MOL0     H44413   5.665   3.762  -0.365 -0.8834 -1.7328  1.4084
  322MOL0     H44414   5.864   3.869  -0.440 -0.7693  0.3495  0.0961
  322MOL0     H44415   5.795   3.793  -0.584 -2.4887  1.0521  1.4596
  322MOL0     H44416   4.789   3.597  -0.546  2.5862  2.8028  0.0802
  322MOL0     H44417   4.560   3.520  -0.519  1.4092 -0.6712 -0.5625
  322MOL0     H44418   4.144   3.502  -0.073  1.9072 -0.4305  0.0078
  322MOL0     H44419   3.913   3.420  -0.096 -0.1683 -1.6464 -0.5266
  322MOL0     H44420   2.288   2.846   0.290  1.7214  1.0802 -1.6145
  322MOL0     H44421   2.162   2.679   0.419  0.5204 -2.8495  1.7371
  322MOL0     H44422   2.025   2.527   0.952 -3.4515 -0.4593  2.8582
  322MOL0     H44423   1.873   2.381   1.033 -0.3577  0.9374  0.9088
  322MOL0     H44424   1.718   2.022   0.762 -1.3575  0.1575  0.8555
  322MOL0     H44425   1.872   1.990   0.844  0.8277  2.6689  1.8169
  322MOL0     H44426   1.787   1.962   1.051  1.0205 -1.3879 -0.0105
  322MOL0     H44427   1.750   1.830   0.946  2.9912 -0.1361  2.8087
  322MOL0     H44428   1.566   1.929   1.105 -0.6679 -1.0224 -0.1402
  322MOL0     H44429   1.564   2.065   0.992  2.9399 -0.3597  0.2702
  322MOL0     H44430   1.502   1.792   0.887 -3.8900 -1.0204  1.3360
  322MOL0     H44431   1.471   1.944   0.809  0.5469  2.4726  0.5760
  322MOL0     H44432   1.146   1.915   1.089 -0.9202  2.6344 -3.5301
  322MOL0     H44433   1.961   2.132   0.694  0.1808 -0.6427  1.3332
  322MOL0     H44434   2.263   2.282   0.608  0.8705 -1.6277  0.9887
  322MOL0     H44435   2.134   2.153   0.575  1.6300 -1.0151  2.7159
  322MOL0     H44436   2.123   2.320   0.519 -1.1753  1.4977  1.5906
  323MOL0     O44437   6.151  11.145   7.400 -0.4034  0.6040 -0.5255
  323MOL0     C44438   6.100  11.061   7.480  0.1295 -0.2646  0.1252
  323MOL0     O44439   6.157  11.016   7.592  0.6546 -0.2447  0.6289
  323MOL0     C44440   6.270  11.080   7.629 -0.1826  0.0707  0.0505
  323MOL0     C44441   6.285  11.213   7.679  0.6839 -0.1803 -0.1352
  323MOL0     C44442   6.402  11.275   7.707  0.4452 -0.7262  0.8920
  323MOL0     C44443   6.523  11.206   7.673 -0.4065 -0.4340 -0.0837
  323MOL0     O44444   6.653  11.251   7.693  0.2602 -0.4004 -0.7827
  323MOL0     C44445   6.676  11.376   7.744 -0.2692  0.4801 -0.1488
  323MOL0     C44446   6.821  11.408   7.739 -0.7575  0.7755  0.1152
  323MOL0     C44447   6.846  11.548   7.805 -0.6919  0.1483 -0.0277
  323MOL0     C44448   6.997  11.588   7.787 -0.4608  0.0669 -0.0932
  323MOL0     C44449   7.032  11.690   7.879  0.2063 -0.4426 -0.0452
  323MOL0     C44450   7.152  11.777   7.826  0.3697  0.1654  0.3560
  323MOL0     C44451   7.272  11.689   7.776 -0.3111  0.3011  0.0868
  323MOL0     C44452   7.326  11.583   7.871 -0.2368 -0.3273  0.2847
  323MOL0     N44453   7.459  11.541   7.824 -0.5045 -0.3616 -0.1505
  323MOL0     C44454   7.474  11.468   7.714  1.0129  0.1811 -0.4821
  323MOL0     C44455   7.604  11.469   7.682 -0.4198 -0.7851 -0.7654
  323MOL0     C44456   7.661  11.408   7.563 -1.5069  0.6794  0.0839
  323MOL0     C44457   7.814  11.409   7.546  0.5481 -0.4022 -0.0876
  323MOL0     C44458   7.872  11.293   7.632  0.2022 -0.2259  0.1592
  323MOL0     C44459   8.019  11.304   7.659  0.2135  0.6955  0.7835
  323MOL0     O44460   8.095  11.265   7.551 -0.3329 -0.2108 -0.1414
  323MOL0     C44461   8.234  11.272   7.562  0.1330 -0.2935 -0.0182
  323MOL0     C44462   8.312  11.244   7.460 -0.6145 -0.8415 -0.1798
  323MOL0     C44463   8.451  11.228   7.468  0.0653 -0.9790  0.1961
  323MOL0     C44464   8.522  11.187   7.348 -0.1317 -0.2279  0.5350
  323MOL0     C44465   8.518  11.250   7.589 -0.6999 -0.1259 -0.2279
  323MOL0     C44466   8.671  11.245   7.603 -0.4290 -0.6402 -0.2729
  323MOL0     O44467   8.755  11.274   7.489  0.1124  0.2029  0.6899
  323MOL0     C44468   8.880  11.218   7.493 -0.0752 -0.4695  0.4629
  323MOL0     C44469   8.901  11.086   7.477  0.0671 -0.0017 -0.3795
  323MOL0     C44470   9.036  11.046   7.468 -0.1744  0.0706 -0.9715
  323MOL0     C44471   9.143  11.137   7.472  0.6754 -0.5881  0.3608
  323MOL0     O44472   9.274  11.092   7.470 -0.0630  0.8543 -1.1551
  323MOL0     C44473   9.292  10.962   7.412  0.7943 -0.2440  0.0934
  323MOL0     C44474   9.439  10.945   7.389 -0.0150  0.2894  0.4453
  323MOL0     C44475   9.517  10.929   7.519  1.0006  0.8352  0.2239
  323MOL0     C44476   9.673  10.915   7.507 -0.0541  0.2321 -0.5311
  323MOL0     C44477   9.732  10.866   7.641 -0.2966 -0.2601 -0.4430
  323MOL0     C44478   9.886  10.890   7.648 -0.5858 -0.6172 -0.0502
  323MOL0     C44479   9.968  10.793   7.562 -0.4784 -0.3587 -0.1364
  323MOL0     C44480  10.112  10.816   7.569 -1.1158 -0.1888  0.1642
  323MOL0    Cl44481  10.178  10.777   7.746 -0.1720 -0.4124 -0.1444
  323MOL0     C44482   9.112  11.271   7.474  0.1394 -0.1223 -0.5027
  323MOL0     C44483   8.984  11.310   7.497 -0.8464 -1.1019  0.3827
  323MOL0     O44484   8.715  11.212   7.710 -0.0840  0.1756 -0.2639
  323MOL0     C44485   8.436  11.276   7.705 -0.4306  1.0946 -0.7287
  323MOL0     C44486   8.293  11.290   7.691 -0.6006  0.0482 -0.3611
  323MOL0     N44487   7.662  11.554   7.783 -0.0656 -0.2584 -0.1948
  323MOL0     N44488   7.572  11.607   7.853 -0.1652 -0.3587  0.3478
  323MOL0     C44489   6.513  11.070   7.635  0.1472  0.7643 -0.3997
  323MOL0     C44490   6.389  11.009   7.620 -0.5174  0.6537  0.4101
  323MOL0     C44491   5.971  10.998   7.447  0.7376  0.3119  0.5651
  323MOL0     C44492   5.933  10.880   7.514 -0.5095  0.2068  0.5735
  323MOL0     C44493   5.807  10.825   7.493 -0.5280 -0.6044 -0.3492
  323MOL0     C44494   5.707  10.880   7.408  0.0552  0.3014 -0.6705
  323MOL0     O44495   5.584  10.821   7.418 -0.5657  0.5891  0.1058
  323MOL0     C44496   5.471  10.885   7.352 -0.1548 -0.6285  0.0429
  323MOL0     C44497   5.459  10.838   7.210  0.0811 -0.0444 -0.1767
  323MOL0     C44498   5.348  10.904   7.136  0.7531 -0.2352  0.5877
  323MOL0     C44499   5.204  10.898   7.196  0.7069  0.0343  0.3883
  323MOL0     C44500   5.099  10.876   7.094  0.2446 -1.2973 -0.2860
  323MOL0     C44501   5.006  10.870   7.018  0.1250  0.3846 -0.5714
  323MOL0     C44502   5.739  11.001   7.350 -0.2349 -0.2175  0.0296
  323MOL0     C44503   5.866  11.062   7.367 -0.2174 -0.1056 -0.1776
  323MOL0     C44504   5.878  11.201   7.301 -0.4619 -0.4508  0.0007
  323MOL0     H44505   6.194  11.267   7.703  2.2444  1.2328  3.1023
  323MOL0     H44506   6.388  11.371   7.754  0.8813 -0.0077 -0.3866
  323MOL0     H44507   6.627  11.386   7.841 -3.0062 -1.0127 -1.2879
  323MOL0     H44508   6.625  11.445   7.676 -1.4003  0.1895  0.3934
  323MOL0     H44509   6.877  11.334   7.797  1.2969  1.3186 -1.0813
  323MOL0     H44510   6.870  11.405   7.641 -1.3115  0.8644 -0.1661
  323MOL0     H44511   6.785  11.623   7.753  2.7070  3.0380 -0.2522
  323MOL0     H44512   6.833  11.547   7.914  1.8157  0.9609  0.3248
  323MOL0     H44513   7.071  11.512   7.811 -1.4187 -0.6364  0.6910
  323MOL0     H44514   7.010  11.617   7.682  1.8234  0.0647  0.1522
  323MOL0     H44515   7.074  11.644   7.969  2.5613  0.1938 -0.7524
  323MOL0     H44516   6.947  11.749   7.914 -0.3184 -2.1180  1.6481
  323MOL0     H44517   7.108  11.838   7.747 -0.0872 -1.3052 -0.5863
  323MOL0     H44518   7.179  11.831   7.917  1.7218  0.5117 -0.2383
  323MOL0     H44519   7.352  11.761   7.756 -1.9534  1.4082 -3.4397
  323MOL0     H44520   7.242  11.644   7.680  1.8585  0.0549 -0.5276
  323MOL0     H44521   7.324  11.624   7.973 -3.6023 -1.0591  0.6233
  323MOL0     H44522   7.260  11.496   7.879  0.9239 -1.2524  0.0419
  323MOL0     H44523   7.388  11.419   7.669 -2.3254  2.0410  3.1837
  323MOL0     H44524   7.631  11.454   7.468  0.1041 -1.9727 -1.8568
  323MOL0     H44525   7.619  11.308   7.551  0.9726 -0.3098 -0.9082
  323MOL0     H44526   7.833  11.390   7.440 -0.7675  1.8477 -0.7953
  323MOL0     H44527   7.847  11.508   7.580 -3.3632  0.4643  1.8105
  323MOL0     H44528   7.813  11.296   7.724  0.3093  6.6148  0.5699
  323MOL0     H44529   7.851  11.200   7.580  0.1532 -0.6432  0.9165
  323MOL0     H44530   8.039  11.408   7.684 -2.4920  1.1318  1.4540
  323MOL0     H44531   8.045  11.237   7.741  2.7517  1.9517  1.1029
  323MOL0     H44532   8.259  11.225   7.367 -1.4474  1.5582 -0.2850
  323MOL0     H44533   8.576  11.271   7.304  0.3306 -0.4615  0.6487
  323MOL0     H44534   8.454  11.157   7.268  2.1534  2.1157 -2.5160
  323MOL0     H44535   8.597  11.113   7.377  2.8345  2.6267  0.7198
  323MOL0     H44536   8.817  11.017   7.469 -0.1758  0.4427 -1.8640
  323MOL0     H44537   9.061  10.941   7.463  0.0592  0.1345 -1.1840
  323MOL0     H44538   9.265  10.878   7.477 -0.2633  0.5074  0.6271
  323MOL0     H44539   9.236  10.954   7.318 -0.6766 -1.4008  1.0216
  323MOL0     H44540   9.449  10.848   7.340 -1.8152  0.4691 -0.3417
  323MOL0     H44541   9.479  11.024   7.324 -0.4932  0.0248 -0.1846
  323MOL0     H44542   9.474  10.846   7.576 -2.3171  2.0156 -0.3443
  323MOL0     H44543   9.489  11.015   7.581  0.6105  1.7427 -1.1387
  323MOL0     H44544   9.704  11.017   7.482 -0.8045  0.0890 -2.1482
  323MOL0     H44545   9.703  10.851   7.424 -1.4292 -1.3877  0.1646
  323MOL0     H44546   9.682  10.926   7.717  1.1246  1.9179 -1.1418
  323MOL0     H44547   9.712  10.759   7.650 -1.1875 -0.2902 -2.3802
  323MOL0     H44548   9.919  10.884   7.752 -0.0862  0.5781 -0.1255
  323MOL0     H44549   9.916  10.988   7.609  2.2334  0.0498  3.2899
  323MOL0     H44550   9.935  10.812   7.459  2.9801  2.6221 -0.8984
  323MOL0     H44551   9.946  10.691   7.595 -2.2065 -0.6640 -1.9978
  323MOL0     H44552  10.141  10.920   7.555 -1.6477  0.0526  0.7782
  323MOL0     H44553  10.169  10.763   7.493  0.0254  0.7467  0.3407
  323MOL0     H44554   9.205  11.326   7.485  2.7145 -4.1383 -0.4058
  323MOL0     H44555   8.956  11.415   7.505  0.5331 -0.4846 -1.9200
  323MOL0     H44556   8.478  11.288   7.804  1.9301  0.7931 -1.6132
  323MOL0     H44557   8.242  11.322   7.782 -2.4690  1.0366 -1.7003
  323MOL0     H44558   6.603  11.013   7.615  0.0702  0.9147 -1.1942
  323MOL0     H44559   6.392  10.907   7.583 -1.3244  0.8527 -0.2457
  323MOL0     H44560   5.999  10.833   7.586 -0.3757 -0.3512  0.0926
  323MOL0     H44561   5.779  10.738   7.550 -1.9641  0.7346  1.1081
  323MOL0     H44562   5.389  10.833   7.401  0.1142 -2.2667 -1.1513
  323MOL0     H44563   5.475  10.994   7.364  2.0948 -0.3767 -2.0880
  323MOL0     H44564   5.430  10.732   7.206 -5.4239  1.2188 -3.4433
  323MOL0     H44565   5.553  10.863   7.159  0.4909  0.2013  0.6788
  323MOL0     H44566   5.374  11.007   7.108  0.8594 -0.7544 -1.3075
  323MOL0     H44567   5.341  10.846   7.044  0.6858 -0.4887  0.7519
  323MOL0     H44568   5.181  10.992   7.246 -1.5288  0.0324 -0.5389
  323MOL0     H44569   5.197  10.813   7.265 -1.7592  1.0002  1.4418
  323MOL0     H44570   4.917  10.861   6.959 -1.0839  1.6918  0.9517
  323MOL0     H44571   5.669  11.046   7.280  2.0967 -1.0497 -3.1012
  323MOL0     H44572   5.963  11.206   7.232  3.6980  2.2815  4.6647
  323MOL0     H44573   5.782  11.222   7.254 -1.5763 -4.3862  0.1163
  323MOL0     H44574   5.900  11.275   7.379  1.0171 -2.1347  1.2683
  324MOL0     O44575   8.225   2.971   5.954  0.4286 -0.2796  0.1737
  324MOL0     C44576   8.228   2.904   5.856  0.3403 -0.3496  0.8308
  324MOL0     O44577   8.329   2.826   5.825 -0.4912 -0.2017 -0.0146
  324MOL0     C44578   8.428   2.801   5.912  0.3072  0.4906 -0.0767
  324MOL0     C44579   8.402   2.732   6.034 -1.1501 -0.4563 -0.6045
  324MOL0     C44580   8.503   2.705   6.127 -0.2771  1.1916 -0.4573
  324MOL0     C44581   8.633   2.751   6.105 -0.0612  1.0698  1.2258
  324MOL0     O44582   8.745   2.732   6.179  0.0955  0.3163 -0.2299
  324MOL0     C44583   8.744   2.672   6.313 -0.0412  0.4137 -0.0360
  324MOL0     C44584   8.807   2.526   6.308  0.5974  0.0815 -0.5101
  324MOL0     C44585   8.940   2.523   6.216 -0.5432 -0.4762 -0.1512
  324MOL0     C44586   8.991   2.377   6.194  0.4397  0.2876  0.5846
  324MOL0     C44587   9.122   2.371   6.113 -0.0033  0.4284  0.5439
  324MOL0     C44588   9.150   2.229   6.063 -0.0980  0.8836  0.0633
  324MOL0     C44589   9.272   2.232   5.972 -0.1705  0.0636  0.5096
  324MOL0     C44590   9.400   2.281   6.047  0.3310  0.9303  0.5378
  324MOL0     N44591   9.520   2.257   5.958 -0.7601 -0.6875 -0.1655
  324MOL0     C44592   9.570   2.142   5.915  0.3252  1.1544 -1.0260
  324MOL0     C44593   9.660   2.166   5.822 -0.5051  0.7736 -0.7338
  324MOL0     C44594   9.722   2.071   5.725  0.1539 -0.1100  0.0884
  324MOL0     C44595   9.834   2.132   5.636 -0.8107 -0.1023 -0.0664
  324MOL0     C44596   9.905   2.016   5.564  0.3095 -0.0308 -0.2562
  324MOL0     C44597  10.033   2.052   5.509  0.3768  0.1524  0.5550
  324MOL0     O44598  10.140   2.090   5.600 -0.3349 -0.1336  0.5128
  324MOL0     C44599  10.265   2.090   5.550 -0.1779 -0.0590  0.3300
  324MOL0     C44600  10.294   2.125   5.413 -0.0587 -0.5248 -0.4231
  324MOL0     C44601  10.426   2.123   5.360  0.7857  0.4273  0.4764
  324MOL0     C44602  10.435   2.150   5.205 -0.2200 -0.5478  1.0216
  324MOL0     C44603  10.533   2.083   5.445 -0.3631 -0.5869 -0.1372
  324MOL0     C44604  10.669   2.064   5.401 -0.7351 -0.2686 -0.5880
  324MOL0     O44605  10.771   2.072   5.498  0.2664 -0.4522  0.6796
  324MOL0     C44606  10.903   2.093   5.476  0.6042  0.1593  0.1523
  324MOL0     C44607  10.975   2.123   5.592 -0.2945  0.1745 -0.7979
  324MOL0     C44608  11.114   2.140   5.583  0.0848 -0.4833 -0.4351
  324MOL0     C44609  11.175   2.147   5.465 -0.2408  0.3854 -0.4212
  324MOL0     O44610  11.306   2.173   5.463 -0.0092 -0.1456  0.1722
  324MOL0     C44611  11.383   2.127   5.352  0.1921  0.0796  0.4087
  324MOL0     C44612  11.528   2.157   5.379  0.0126 -0.0613 -0.5857
  324MOL0     C44613  11.590   2.081   5.499  0.3010  0.2140  0.0035
  324MOL0     C44614  11.739   2.107   5.502 -0.5059  0.2642  0.0071
  324MOL0     C44615  11.809   2.044   5.623  0.1902  0.1203 -0.6072
  324MOL0     C44616  11.962   2.040   5.609  0.0527  0.8235  0.1478
  324MOL0     C44617  12.022   1.943   5.714  0.3730  0.5607 -0.0075
  324MOL0     C44618  12.166   1.954   5.712 -0.3496 -0.0780  0.1780
  324MOL0    Cl44619  12.232   1.818   5.794  0.0265 -0.5386  0.3863
  324MOL0     C44620  11.104   2.116   5.352  0.1645 -0.3745 -0.8733
  324MOL0     C44621  10.964   2.098   5.354  0.2049 -0.5415  0.4257
  324MOL0     O44622  10.686   2.046   5.281 -1.2508 -0.4917  0.4265
  324MOL0     C44623  10.498   2.056   5.577 -0.6527 -0.1001 -0.5678
  324MOL0     C44624  10.373   2.062   5.634  0.4082  0.9437 -0.1945
  324MOL0     N44625   9.676   2.300   5.810  0.3877  0.2506 -0.1353
  324MOL0     N44626   9.591   2.351   5.893  0.1136 -0.6941 -0.5197
  324MOL0     C44627   8.664   2.812   5.979  0.9087  0.2441 -0.7046
  324MOL0     C44628   8.559   2.844   5.885 -0.9893  0.1290 -1.0026
  324MOL0     C44629   8.106   2.898   5.765 -0.2131  0.3654  0.6483
  324MOL0     C44630   8.010   3.003   5.776 -0.8579  0.9202 -0.3085
  324MOL0     C44631   7.898   3.009   5.696  0.6368  0.0604 -0.5005
  324MOL0     C44632   7.882   2.906   5.599  0.1415 -0.4900 -0.5130
  324MOL0     O44633   7.777   2.917   5.510  0.2706  0.2311  0.1373
  324MOL0     C44634   7.682   2.810   5.508  0.4320 -0.4364  0.2382
  324MOL0     C44635   7.555   2.868   5.460 -0.2958  0.1893  0.3112
  324MOL0     C44636   7.488   2.961   5.555  0.7739 -0.0889 -0.1219
  324MOL0     C44637   7.383   3.050   5.480  0.2740  1.0807  0.0620
  324MOL0     C44638   7.443   3.137   5.383  0.2250  0.4968 -0.9530
  324MOL0     C44639   7.492   3.214   5.306 -0.8568  0.0646 -0.5271
  324MOL0     C44640   7.975   2.804   5.599 -0.8661 -1.0302  0.4318
  324MOL0     C44641   8.087   2.796   5.671  1.0122 -0.0463  0.6392
  324MOL0     C44642   8.193   2.692   5.635 -0.7952 -0.9238  0.2916
  324MOL0     H44643   8.299   2.702   6.052 -1.5764  0.8143 -0.7698
  324MOL0     H44644   8.481   2.629   6.202  1.5131 -0.7847 -1.8333
  324MOL0     H44645   8.644   2.676   6.356 -0.1821  2.2067 -0.4287
  324MOL0     H44646   8.811   2.734   6.373  0.9897 -1.1524  0.4976
  324MOL0     H44647   8.837   2.489   6.406  5.0831 -0.7370 -1.9787
  324MOL0     H44648   8.734   2.452   6.272  0.8385  0.5587 -2.0664
  324MOL0     H44649   8.921   2.565   6.117 -1.0504  0.3669  0.2883
  324MOL0     H44650   9.010   2.589   6.268 -0.1905 -0.4842 -0.6090
  324MOL0     H44651   9.014   2.334   6.292 -0.5396  2.5504  1.8968
  324MOL0     H44652   8.914   2.318   6.144  1.2672  2.1818 -3.3349
  324MOL0     H44653   9.207   2.411   6.170  1.4401 -2.0611  0.2757
  324MOL0     H44654   9.108   2.429   6.021 -0.8235 -0.2114  0.2533
  324MOL0     H44655   9.179   2.160   6.142 -0.9615 -0.8858 -1.1005
  324MOL0     H44656   9.073   2.179   6.003  0.6081 -1.9759  1.4142
  324MOL0     H44657   9.246   2.293   5.885 -1.2645 -0.6126  0.3441
  324MOL0     H44658   9.287   2.132   5.932  1.7546 -0.2980  2.0311
  324MOL0     H44659   9.394   2.387   6.072  0.2832  0.5586  2.1703
  324MOL0     H44660   9.414   2.233   6.144  2.8592  1.6623  0.6088
  324MOL0     H44661   9.541   2.043   5.949  0.6936  0.8803 -1.4860
  324MOL0     H44662   9.640   2.023   5.669  2.4765 -1.2087 -2.6440
  324MOL0     H44663   9.762   1.983   5.777  0.2517 -1.3663 -1.9466
  324MOL0     H44664   9.785   2.204   5.570  0.1339 -0.3895 -1.1075
  324MOL0     H44665   9.908   2.188   5.695  1.3231 -1.1815 -1.5852
  324MOL0     H44666   9.917   1.933   5.634  1.0181 -0.8506 -1.3177
  324MOL0     H44667   9.840   1.979   5.484 -0.9431  0.9027  0.2810
  324MOL0     H44668  10.064   1.974   5.439  1.4876  0.5071  0.6267
  324MOL0     H44669  10.014   2.136   5.441  2.9624  2.4553  2.4656
  324MOL0     H44670  10.211   2.145   5.346  1.6653  1.9722 -1.9547
  324MOL0     H44671  10.453   2.054   5.155 -1.6726 -1.0047  1.3182
  324MOL0     H44672  10.511   2.222   5.174 -0.6698 -1.7399 -3.6588
  324MOL0     H44673  10.343   2.197   5.169  1.1181  0.7797 -0.8786
  324MOL0     H44674  10.940   2.108   5.694  1.0543 -0.4667 -0.3981
  324MOL0     H44675  11.181   2.155   5.667 -3.9753  0.2439  2.9990
  324MOL0     H44676  11.375   2.022   5.323 -1.1876  0.8826 -2.3960
  324MOL0     H44677  11.359   2.179   5.259  2.0253  0.8986  0.3344
  324MOL0     H44678  11.591   2.161   5.290  0.4293  0.2424 -0.2790
  324MOL0     H44679  11.526   2.262   5.411 -3.3748  0.2255 -1.3407
  324MOL0     H44680  11.551   1.980   5.487 -0.8811  0.9160 -2.9895
  324MOL0     H44681  11.538   2.124   5.585  1.5911  1.4725  0.1954
  324MOL0     H44682  11.768   2.212   5.495 -3.4031  1.1097 -0.7730
  324MOL0     H44683  11.791   2.055   5.421  2.2845  3.1270 -0.1875
  324MOL0     H44684  11.773   2.090   5.715 -1.1646 -0.0508 -1.0213
  324MOL0     H44685  11.778   1.940   5.641  1.4677  0.2405  3.1732
  324MOL0     H44686  12.012   2.137   5.612  2.7872 -0.3703 -2.1662
  324MOL0     H44687  11.989   1.998   5.512  2.9358  1.0998  0.7661
  324MOL0     H44688  12.012   1.840   5.679  1.1231  1.0952 -1.8965
  324MOL0     H44689  11.983   1.957   5.815  2.8205  2.1528  0.8146
  324MOL0     H44690  12.194   2.049   5.758 -1.1573 -0.1110  0.7630
  324MOL0     H44691  12.213   1.961   5.614 -0.5795  1.1337  0.1400
  324MOL0     H44692  11.148   2.118   5.253  2.0608  0.7302 -0.0718
  324MOL0     H44693  10.917   2.071   5.260 -1.4501 -0.5984  1.2302
  324MOL0     H44694  10.577   2.037   5.650  0.6690  2.2579 -1.2543
  324MOL0     H44695  10.349   2.061   5.740 -1.9132  0.9472 -0.6661
  324MOL0     H44696   8.769   2.841   5.969  1.4971 -1.4819  0.0712
  324MOL0     H44697   8.597   2.894   5.797  2.3278  1.3075  0.9053
  324MOL0     H44698   8.038   3.083   5.844 -0.7615  0.1690  0.5363
  324MOL0     H44699   7.830   3.092   5.707  1.9973  1.0380  0.9222
  324MOL0     H44700   7.709   2.723   5.447 -0.9480 -2.2465  2.0512
  324MOL0     H44701   7.674   2.767   5.609 -1.6884 -0.2451  0.1950
  324MOL0     H44702   7.489   2.781   5.457  0.7451 -0.5909 -0.6550
  324MOL0     H44703   7.560   2.897   5.355 -1.0880  1.2059  0.5341
  324MOL0     H44704   7.439   2.896   5.629  0.8575 -0.2541 -0.2114
  324MOL0     H44705   7.561   3.023   5.607  0.8738 -0.1746 -0.1596
  324MOL0     H44706   7.331   3.110   5.556 -2.0228 -1.5142  0.7236
  324MOL0     H44707   7.307   2.988   5.430  2.0571 -1.7498  0.6104
  324MOL0     H44708   7.518   3.296   5.244 -0.4448  0.9906  0.8189
  324MOL0     H44709   7.953   2.737   5.517 -0.8086 -0.4458 -0.0642
  324MOL0     H44710   8.169   2.627   5.551 -1.2005  2.7884 -2.7661
  324MOL0     H44711   8.287   2.739   5.601 -0.7627 -0.8913  0.4260
  324MOL0     H44712   8.216   2.636   5.726  1.2227  0.7703  0.9133
  325MOL0     O44713   0.035   6.929   2.960 -0.2243  0.0579 -0.1704
  325MOL0     C44714   0.028   7.028   3.035  0.0161  0.0505 -0.1181
  325MOL0     O44715   0.097   7.145   3.008  0.7729  0.0649  0.1319
  325MOL0     C44716   0.179   7.155   2.898  0.0935  0.7002  0.7108
  325MOL0     C44717   0.153   7.110   2.764  0.0083  0.0237  0.0015
  325MOL0     C44718   0.242   7.130   2.666  0.4617 -0.1742 -0.8956
  325MOL0     C44719   0.373   7.179   2.689 -0.2970 -0.5928  0.5199
  325MOL0     O44720   0.484   7.181   2.600  0.3784 -0.4650 -0.2148
  325MOL0     C44721   0.473   7.133   2.464 -0.1053  0.1081 -0.3514
  325MOL0     C44722   0.602   7.173   2.398 -0.3280 -0.1771  0.1208
  325MOL0     C44723   0.629   7.099   2.257  0.1695 -0.1896 -0.3081
  325MOL0     C44724   0.721   7.190   2.172  0.0063 -0.1442  0.2194
  325MOL0     C44725   0.857   7.215   2.242  0.6843 -0.1302  0.1920
  325MOL0     C44726   0.936   7.086   2.274  1.1077 -0.8756  0.4971
  325MOL0     C44727   1.079   7.121   2.313 -0.1786  0.3734  0.1924
  325MOL0     C44728   1.146   6.989   2.360 -0.4515  0.2639  0.6462
  325MOL0     N44729   1.270   7.010   2.432  0.0391 -0.0133  0.2223
  325MOL0     C44730   1.291   7.006   2.568 -0.3495  0.4409  0.3319
  325MOL0     C44731   1.415   7.067   2.589  0.0220  0.4021 -0.3017
  325MOL0     C44732   1.501   7.094   2.712 -0.2448  0.1170 -0.3195
  325MOL0     C44733   1.496   6.976   2.816  0.1646 -0.1068  0.3131
  325MOL0     C44734   1.507   6.831   2.761  0.6584  0.1148 -0.2618
  325MOL0     C44735   1.647   6.782   2.700 -0.3029 -0.3719  0.0236
  325MOL0     O44736   1.758   6.773   2.803 -0.0079  0.5417  0.1157
  325MOL0     C44737   1.887   6.745   2.761  0.2894 -0.0266 -0.2915
  325MOL0     C44738   1.919   6.676   2.644  0.8531 -0.4966  0.7539
  325MOL0     C44739   2.052   6.638   2.617  0.2108  0.0828 -0.1969
  325MOL0     C44740   2.077   6.556   2.494 -0.8156 -0.1214  0.0947
  325MOL0     C44741   2.160   6.682   2.705 -0.4749 -0.4391  0.2574
  325MOL0     C44742   2.302   6.626   2.696  0.2235 -0.3524  0.1625
  325MOL0     O44743   2.340   6.546   2.588  0.4753  0.2158  0.5891
  325MOL0     C44744   2.468   6.492   2.602  0.2939 -0.3639  0.1338
  325MOL0     C44745   2.494   6.386   2.691 -0.3217 -0.6569  0.1982
  325MOL0     C44746   2.617   6.324   2.701 -0.6619  0.3443  0.0455
  325MOL0     C44747   2.720   6.364   2.618 -0.6948 -0.6806  0.8555
  325MOL0     O44748   2.850   6.308   2.630  0.8370  0.4162  0.7685
  325MOL0     C44749   2.973   6.379   2.590  0.4450 -0.0384  0.0408
  325MOL0     C44750   3.109   6.311   2.630  0.7073  0.0629 -0.1809
  325MOL0     C44751   3.236   6.395   2.585 -0.2564 -0.1639  0.5059
  325MOL0     C44752   3.353   6.367   2.679  0.7308  0.0730 -0.3553
  325MOL0     C44753   3.391   6.225   2.720  0.7521  1.4435 -0.1398
  325MOL0     C44754   3.528   6.223   2.784  0.2987  0.6474  0.1517
  325MOL0     C44755   3.631   6.207   2.667 -0.1242 -0.5130 -1.0624
  325MOL0     C44756   3.773   6.221   2.717  0.6194 -0.9196 -0.6827
  325MOL0    Cl44757   3.843   6.076   2.813  0.4307 -0.6103 -0.1560
  325MOL0     C44758   2.701   6.457   2.517 -0.3015  0.1726 -0.0686
  325MOL0     C44759   2.579   6.525   2.511  0.0429  0.9294 -0.2930
  325MOL0     O44760   2.377   6.673   2.781  0.0914  0.1733  0.6280
  325MOL0     C44761   2.127   6.757   2.812  0.0489 -0.5275 -0.1275
  325MOL0     C44762   1.993   6.788   2.846  0.1180 -0.2691  0.1268
  325MOL0     N44763   1.465   7.085   2.465  0.6583  0.0529  0.2901
  325MOL0     N44764   1.381   7.050   2.380  0.1940  0.5371  0.8712
  325MOL0     C44765   0.400   7.218   2.819 -0.1144 -0.3603 -1.2667
  325MOL0     C44766   0.297   7.214   2.914  0.1908 -0.6751  0.6521
  325MOL0     C44767  -0.058   7.031   3.154  0.9656 -1.3495 -0.2084
  325MOL0     C44768  -0.140   6.921   3.179  0.2573  0.1887 -0.0533
  325MOL0     C44769  -0.232   6.921   3.281  0.1686 -0.7130 -0.4272
  325MOL0     C44770  -0.260   7.031   3.359 -0.5836 -0.0734 -0.6258
  325MOL0     O44771  -0.341   7.008   3.472 -0.0391 -0.2775 -0.8620
  325MOL0     C44772  -0.388   7.120   3.554 -0.0195  0.0001 -0.0311
  325MOL0     C44773  -0.329   7.102   3.698 -0.5646  0.1504  0.2021
  325MOL0     C44774  -0.426   7.152   3.802 -0.1405  0.2716  0.4512
  325MOL0     C44775  -0.392   7.091   3.934 -0.5459  0.2579 -0.1637
  325MOL0     C44776  -0.250   7.093   3.968 -0.5911  0.4480 -0.5180
  325MOL0     C44777  -0.140   7.074   4.003 -0.6003 -0.3455  0.0875
  325MOL0     C44778  -0.182   7.145   3.330  0.3970  0.4216 -0.4240
  325MOL0     C44779  -0.082   7.145   3.237  0.8946  0.4860 -0.0897
  325MOL0     C44780  -0.011   7.275   3.217 -0.3535  0.7403  0.3769
  325MOL0     H44781   0.060   7.059   2.742  0.5222  0.1126 -2.6420
  325MOL0     H44782   0.218   7.085   2.571  0.0291  1.2180 -1.4719
  325MOL0     H44783   0.391   7.181   2.410 -1.6539  1.7899  3.1681
  325MOL0     H44784   0.469   7.025   2.477 -1.8157  0.3809  2.5354
  325MOL0     H44785   0.612   7.282   2.398 -0.7480 -0.1032 -1.6913
  325MOL0     H44786   0.684   7.143   2.463  0.0548 -0.3375 -0.4304
  325MOL0     H44787   0.675   7.000   2.264 -0.1553 -0.3955 -0.9699
  325MOL0     H44788   0.533   7.081   2.207  1.1781 -1.7288 -1.8289
  325MOL0     H44789   0.735   7.127   2.084 -5.0030 -0.6975 -0.4639
  325MOL0     H44790   0.660   7.279   2.151 -2.0291 -0.5705  3.5973
  325MOL0     H44791   0.843   7.263   2.339 -0.1035 -0.8018  0.4189
  325MOL0     H44792   0.919   7.292   2.193 -1.8590  2.0562  0.2108
  325MOL0     H44793   0.887   7.028   2.353 -0.5383  2.6376  2.2900
  325MOL0     H44794   0.933   7.027   2.182 -2.2319  0.4492 -0.3916
  325MOL0     H44795   1.079   7.191   2.397  1.3300 -0.0500  0.5766
  325MOL0     H44796   1.132   7.168   2.230 -0.5795  1.3255  0.4655
  325MOL0     H44797   1.077   6.932   2.422 -0.2171  0.7265  1.3411
  325MOL0     H44798   1.165   6.926   2.273 -1.8186 -1.1015  1.3036
  325MOL0     H44799   1.226   6.959   2.642 -2.8590  1.4093 -1.1155
  325MOL0     H44800   1.459   7.184   2.758  0.1089  0.7379 -1.1845
  325MOL0     H44801   1.603   7.116   2.679 -1.1431  1.7970 -2.2048
  325MOL0     H44802   1.582   7.001   2.878 -0.0929  1.5383  0.0535
  325MOL0     H44803   1.399   6.986   2.865 -0.8678 -1.2013 -1.4003
  325MOL0     H44804   1.494   6.761   2.845  2.0389 -0.5163 -0.5408
  325MOL0     H44805   1.425   6.812   2.691  0.5412 -1.5717  0.2714
  325MOL0     H44806   1.645   6.684   2.650  3.4105 -0.5731  0.0242
  325MOL0     H44807   1.666   6.855   2.620  0.2339  0.7431  1.1396
  325MOL0     H44808   1.832   6.649   2.586  0.3149  1.1107  0.7810
  325MOL0     H44809   1.981   6.533   2.447 -3.2681  3.3256  2.7911
  325MOL0     H44810   2.130   6.469   2.533  1.5251  2.2247  2.5840
  325MOL0     H44811   2.144   6.598   2.419 -0.9950 -3.8908 -2.4348
  325MOL0     H44812   2.412   6.352   2.754  0.6869 -0.7331  1.5016
  325MOL0     H44813   2.640   6.241   2.767 -1.2569  1.5314  1.7983
  325MOL0     H44814   2.966   6.386   2.481 -3.0225 -1.2201  0.0723
  325MOL0     H44815   2.965   6.476   2.639  1.8733 -0.1069  0.4606
  325MOL0     H44816   3.112   6.314   2.739 -1.4359  2.9502 -0.0823
  325MOL0     H44817   3.100   6.207   2.596 -0.2669 -0.9444  2.7965
  325MOL0     H44818   3.209   6.501   2.584 -2.3832 -0.6032 -2.1687
  325MOL0     H44819   3.263   6.360   2.485 -2.9155  0.8287 -0.6359
  325MOL0     H44820   3.335   6.415   2.775 -0.6156  0.4440 -0.7800
  325MOL0     H44821   3.443   6.422   2.650  0.7786  0.2575  0.1385
  325MOL0     H44822   3.312   6.185   2.784  0.9100  0.4318 -0.5518
  325MOL0     H44823   3.400   6.152   2.638 -0.1804  2.9483 -1.6453
  325MOL0     H44824   3.534   6.136   2.852 -1.9402  0.6936  0.4696
  325MOL0     H44825   3.558   6.316   2.832 -0.5896  0.4585  1.1290
  325MOL0     H44826   3.622   6.285   2.592 -0.1968  1.4903  0.9202
  325MOL0     H44827   3.626   6.112   2.612  0.5233 -0.1097 -1.8317
  325MOL0     H44828   3.783   6.308   2.781  0.0905 -1.3132 -0.0547
  325MOL0     H44829   3.840   6.227   2.631  1.5942  0.4597  0.1464
  325MOL0     H44830   2.773   6.475   2.437 -2.2101 -2.2515 -2.4961
  325MOL0     H44831   2.560   6.614   2.453 -1.0966  1.7028  1.1882
  325MOL0     H44832   2.213   6.783   2.873  0.9602 -1.3036 -1.0203
  325MOL0     H44833   1.974   6.838   2.940  2.2514 -0.6074  0.7839
  325MOL0     H44834   0.493   7.268   2.844 -0.3882 -0.5044  0.1069
  325MOL0     H44835   0.322   7.259   3.009  0.8881 -0.3237  0.3115
  325MOL0     H44836  -0.113   6.835   3.119  1.0112  0.9083 -0.7733
  325MOL0     H44837  -0.291   6.834   3.308  1.5010 -1.8505 -1.0544
  325MOL0     H44838  -0.358   7.219   3.518  0.7998 -0.4384 -0.5754
  325MOL0     H44839  -0.497   7.122   3.547 -0.0074 -0.8430 -0.6038
  325MOL0     H44840  -0.232   7.152   3.708 -0.3399 -0.3862  0.7263
  325MOL0     H44841  -0.313   6.996   3.717 -1.2782  0.2030  1.1676
  325MOL0     H44842  -0.432   7.261   3.801 -3.3430  0.2674 -2.9670
  325MOL0     H44843  -0.525   7.115   3.772  0.1849  0.6627 -1.1676
  325MOL0     H44844  -0.431   6.989   3.938 -1.0910  0.3885 -1.5631
  325MOL0     H44845  -0.449   7.133   4.017  1.4958 -0.8509  1.9247
  325MOL0     H44846  -0.037   7.064   4.032 -1.2532 -0.3847  2.6867
  325MOL0     H44847  -0.178   7.214   3.414  3.1903  0.5746 -0.5903
  325MOL0     H44848  -0.034   7.357   3.286  0.2141  1.2593 -0.0432
  325MOL0     H44849   0.097   7.259   3.207 -0.3965 -1.4606  2.4673
  325MOL0     H44850  -0.049   7.320   3.125 -2.4640 -2.1923 -0.3499
  326MOL0     O44851  10.614   5.679   9.008  0.0481 -0.3246  0.4592
  326MOL0     C44852  10.542   5.583   9.018  0.1787 -0.4772  0.4565
  326MOL0     O44853  10.580   5.456   9.010 -0.5070  0.4584 -0.3735
  326MOL0     C44854  10.718   5.440   8.980  0.4419  0.6160  0.3437
  326MOL0     C44855  10.783   5.355   9.058  0.7645  0.2178 -0.3567
  326MOL0     C44856  10.918   5.321   9.033  0.3001 -1.0404  1.3136
  326MOL0     C44857  10.982   5.378   8.918 -0.1809  0.4980 -0.6492
  326MOL0     O44858  11.110   5.367   8.884 -0.4168  0.0705  0.7346
  326MOL0     C44859  11.199   5.322   8.985 -0.6501  0.4408  0.8338
  326MOL0     C44860  11.342   5.360   8.944  0.5316 -0.7048  0.3441
  326MOL0     C44861  11.394   5.295   8.814 -0.0939 -0.9244 -0.3480
  326MOL0     C44862  11.548   5.265   8.837  0.0986  0.2858  0.0757
  326MOL0     C44863  11.611   5.192   8.711 -0.1766  0.3660  0.1038
  326MOL0     C44864  11.757   5.166   8.732  0.0050 -0.0299  1.1079
  326MOL0     C44865  11.806   5.068   8.621 -1.0143  0.2794 -0.0498
  326MOL0     C44866  11.882   5.148   8.512  0.0753  0.2200 -0.5257
  326MOL0     N44867  12.025   5.171   8.529 -0.2267  0.4920  0.0177
  326MOL0     C44868  12.086   5.273   8.596 -0.2070 -0.3160 -0.0786
  326MOL0     C44869  12.217   5.250   8.604 -0.2121 -0.0223 -0.6448
  326MOL0     C44870  12.306   5.348   8.684  0.5239 -0.6384  0.3249
  326MOL0     C44871  12.410   5.422   8.592  0.6862  0.7070 -1.2391
  326MOL0     C44872  12.491   5.507   8.690 -0.2852 -0.7575  0.4237
  326MOL0     C44873  12.597   5.584   8.600 -0.5142 -0.6415 -0.3722
  326MOL0     O44874  12.698   5.626   8.690  0.1565  0.3001 -0.0543
  326MOL0     C44875  12.817   5.685   8.645  0.9558 -0.1587 -0.3591
  326MOL0     C44876  12.829   5.739   8.516  0.1443  0.0689 -0.7348
  326MOL0     C44877  12.942   5.817   8.471  0.3163  0.4612 -0.1834
  326MOL0     C44878  12.939   5.840   8.325 -0.4431 -0.6158  0.3205
  326MOL0     C44879  13.049   5.841   8.555  0.1272  0.1366 -0.3849
  326MOL0     C44880  13.174   5.907   8.518  0.8783 -0.5666  0.5864
  326MOL0     O44881  13.278   5.890   8.601  0.7272 -0.0691 -0.0360
  326MOL0     C44882  13.387   5.964   8.586  0.0414  0.4226 -0.5251
  326MOL0     C44883  13.477   5.963   8.481 -0.7296  0.1889 -0.2105
  326MOL0     C44884  13.606   6.004   8.500  0.2405 -0.1312 -0.2988
  326MOL0     C44885  13.656   6.061   8.620  0.1002  0.1312 -0.3564
  326MOL0     O44886  13.784   6.101   8.617  0.5574  0.7425 -0.2164
  326MOL0     C44887  13.836   6.184   8.721  0.2316  0.4159 -0.1542
  326MOL0     C44888  13.963   6.263   8.697  1.1253  0.4102 -0.2302
  326MOL0     C44889  14.005   6.334   8.825 -0.0372 -0.7156  0.6921
  326MOL0     C44890  14.158   6.359   8.837  0.8088 -0.0140 -0.4491
  326MOL0     C44891  14.192   6.440   8.960 -0.1201  0.1260  0.7135
  326MOL0     C44892  14.346   6.445   8.980 -0.0185  0.3404  0.1493
  326MOL0     C44893  14.418   6.324   9.031 -0.4567  0.0912 -0.7839
  326MOL0     C44894  14.559   6.355   9.078  0.3457 -0.8075  0.0282
  326MOL0    Cl44895  14.652   6.214   9.117 -0.2839  0.4616 -0.7165
  326MOL0     C44896  13.564   6.078   8.730 -0.5944  0.3277  0.2910
  326MOL0     C44897  13.430   6.027   8.711 -0.3913 -0.2261  0.5214
  326MOL0     O44898  13.156   6.001   8.436 -0.1636  0.8259 -0.0276
  326MOL0     C44899  13.038   5.783   8.684  0.6268 -0.0632 -0.3712
  326MOL0     C44900  12.925   5.709   8.725 -0.1217 -0.0272 -0.0287
  326MOL0     N44901  12.229   5.122   8.538 -0.4081 -0.1634 -1.0385
  326MOL0     N44902  12.122   5.077   8.498  1.1523 -0.2977 -0.1939
  326MOL0     C44903  10.910   5.463   8.834 -0.7959 -0.2150  0.4755
  326MOL0     C44904  10.775   5.486   8.866  0.8286 -0.0569  0.0648
  326MOL0     C44905  10.403   5.605   9.059  0.2062  0.6077  0.2568
  326MOL0     C44906  10.315   5.499   9.101 -0.5552  0.0544 -0.5182
  326MOL0     C44907  10.185   5.514   9.141  0.2143  0.0795 -0.3002
  326MOL0     C44908  10.126   5.640   9.130  0.3171  0.6345 -0.3463
  326MOL0     O44909   9.990   5.670   9.149  0.5491  0.8026  0.4430
  326MOL0     C44910   9.929   5.581   9.245  0.5891 -0.2990  0.3911
  326MOL0     C44911   9.791   5.616   9.290  0.5526  0.1075 -0.6775
  326MOL0     C44912   9.688   5.626   9.185  1.2593 -0.6799  0.1757
  326MOL0     C44913   9.688   5.518   9.076 -0.8664 -0.0154  0.1245
  326MOL0     C44914   9.572   5.516   8.986  0.7225 -0.1099  0.1290
  326MOL0     C44915   9.485   5.502   8.903  0.5544  0.3747 -1.2600
  326MOL0     C44916  10.206   5.748   9.087  0.0839  0.7970 -0.7307
  326MOL0     C44917  10.342   5.737   9.056 -0.3088  0.4678  0.4809
  326MOL0     C44918  10.398   5.872   9.015 -0.3609  0.5793 -0.1089
  326MOL0     H44919  10.736   5.299   9.139  0.7372  0.3523 -0.2788
  326MOL0     H44920  10.965   5.250   9.100 -0.9462 -2.0855  1.1104
  326MOL0     H44921  11.194   5.213   8.997 -3.4340  0.6441  2.3782
  326MOL0     H44922  11.180   5.371   9.080 -0.9312 -0.6296  1.3454
  326MOL0     H44923  11.356   5.466   8.924 -0.5834 -0.4570  0.7918
  326MOL0     H44924  11.406   5.338   9.030  1.0963  0.6124  0.2848
  326MOL0     H44925  11.341   5.201   8.796  0.5589 -0.9991 -2.0718
  326MOL0     H44926  11.372   5.353   8.725  1.5823  4.8258  2.4922
  326MOL0     H44927  11.600   5.360   8.854  2.8204 -1.1978  0.4935
  326MOL0     H44928  11.570   5.204   8.925  1.0953  1.2330  0.5030
  326MOL0     H44929  11.600   5.254   8.622  0.1407  3.3731  2.0085
  326MOL0     H44930  11.558   5.097   8.703 -0.8075  0.7731 -0.6153
  326MOL0     H44931  11.800   5.266   8.724 -1.8819  0.7387  0.1027
  326MOL0     H44932  11.762   5.115   8.829  1.9478 -1.1191  0.5183
  326MOL0     H44933  11.717   5.025   8.575 -1.7292  0.5777  1.0208
  326MOL0     H44934  11.869   4.986   8.658 -0.2442  0.4291 -0.9774
  326MOL0     H44935  11.870   5.086   8.423  0.3715  1.2355 -1.2864
  326MOL0     H44936  11.837   5.246   8.494  1.7073  1.2466  0.6687
  326MOL0     H44937  12.034   5.365   8.620  0.1322  0.8956 -3.4691
  326MOL0     H44938  12.358   5.302   8.768  1.6823  0.7235  0.4000
  326MOL0     H44939  12.242   5.428   8.724  0.0727 -2.1113  2.7721
  326MOL0     H44940  12.474   5.347   8.545  0.5727 -0.5565  0.5246
  326MOL0     H44941  12.358   5.483   8.518  0.8960  0.1958 -1.8170
  326MOL0     H44942  12.435   5.578   8.751  1.7814  1.3960 -0.0460
  326MOL0     H44943  12.552   5.440   8.751  1.8841  0.8343  0.1176
  326MOL0     H44944  12.645   5.510   8.534 -0.8058  0.9278 -2.4493
  326MOL0     H44945  12.557   5.671   8.547 -2.2874 -1.5730 -0.6606
  326MOL0     H44946  12.744   5.714   8.454 -2.0020  1.2595  1.5419
  326MOL0     H44947  13.030   5.798   8.281 -0.4948  1.4355 -1.9969
  326MOL0     H44948  12.937   5.947   8.304  1.5165 -0.3716  1.2458
  326MOL0     H44949  12.853   5.801   8.270 -0.3905  1.4398 -1.3638
  326MOL0     H44950  13.452   5.920   8.384  0.6139 -0.1661 -0.4167
  326MOL0     H44951  13.669   6.006   8.411  0.5928 -3.0559 -0.2298
  326MOL0     H44952  13.757   6.254   8.752 -2.8036 -1.2295 -3.3972
  326MOL0     H44953  13.858   6.128   8.812  1.5431  2.9502  1.2183
  326MOL0     H44954  14.026   6.178   8.669  0.7704 -1.2263  3.4085
  326MOL0     H44955  13.929   6.333   8.620 -0.4354 -0.3716 -0.3022
  326MOL0     H44956  13.981   6.272   8.912  1.3051 -0.2892  1.3970
  326MOL0     H44957  13.947   6.427   8.829 -1.5935 -1.5733 -0.5751
  326MOL0     H44958  14.184   6.402   8.740 -2.3795  0.9232 -1.0102
  326MOL0     H44959  14.209   6.263   8.843 -1.2207 -1.1209  0.1974
  326MOL0     H44960  14.148   6.538   8.943  1.3135  0.7460  0.4096
  326MOL0     H44961  14.143   6.404   9.051 -1.9550  1.3069  0.2231
  326MOL0     H44962  14.359   6.526   9.053  1.8202  0.6927 -0.5123
  326MOL0     H44963  14.397   6.473   8.888 -0.0676  0.8788  0.2817
  326MOL0     H44964  14.434   6.260   8.943 -2.0182 -0.5617 -0.6254
  326MOL0     H44965  14.363   6.280   9.114  0.9259  1.4925  0.9418
  326MOL0     H44966  14.546   6.410   9.171 -1.0354 -1.9870  0.5730
  326MOL0     H44967  14.609   6.414   9.001 -0.7869 -0.5726 -0.5597
  326MOL0     H44968  13.585   6.139   8.817  3.2402 -1.5107  0.8706
  326MOL0     H44969  13.355   6.016   8.789 -0.8314 -2.0890 -0.0975
  326MOL0     H44970  13.118   5.803   8.754  0.4102  2.1392 -0.6877
  326MOL0     H44971  12.916   5.689   8.831 -0.5662  3.4171  0.7157
  326MOL0     H44972  10.961   5.498   8.745 -0.9378  3.2955  1.6236
  326MOL0     H44973  10.709   5.533   8.794  1.4354 -1.8495 -1.7520
  326MOL0     H44974  10.363   5.403   9.118  1.2638  1.0254 -0.0161
  326MOL0     H44975  10.136   5.429   9.188  0.4027 -0.1391 -0.4962
  326MOL0     H44976   9.922   5.486   9.192 -3.8273 -0.0339  0.1457
  326MOL0     H44977   9.990   5.579   9.335 -0.5054  1.6370  1.2403
  326MOL0     H44978   9.783   5.719   9.326  0.0755  0.1232 -0.8231
  326MOL0     H44979   9.749   5.553   9.369  1.1357  2.2376  1.4713
  326MOL0     H44980   9.591   5.620   9.235  0.4456  1.2007 -1.0833
  326MOL0     H44981   9.690   5.720   9.130 -4.8201 -1.6491 -2.5676
  326MOL0     H44982   9.694   5.428   9.138 -2.6828  0.2390  0.7549
  326MOL0     H44983   9.774   5.528   9.010 -0.9724 -0.8364 -0.1416
  326MOL0     H44984   9.410   5.505   8.826  0.3964 -0.0201 -1.1241
  326MOL0     H44985  10.144   5.836   9.073 -3.4441 -1.4202 -0.4738
  326MOL0     H44986  10.340   5.950   9.065 -0.2106 -0.0815  1.1223
  326MOL0     H44987  10.503   5.877   9.044 -0.5698  0.1981  0.7451
  326MOL0     H44988  10.393   5.867   8.906 -0.4945 -2.7352 -0.0723
  327MOL0     O44989   4.673   0.916   6.047  0.1153 -0.0288  0.2955
  327MOL0     C44990   4.589   0.982   6.106  0.1841 -0.5062  0.0614
  327MOL0     O44991   4.608   1.088   6.201 -0.3021 -0.1459 -0.3068
  327MOL0     C44992   4.740   1.109   6.242 -0.2384 -0.3030 -0.1209
  327MOL0     C44993   4.774   1.247   6.231  0.6608  0.0007 -0.4351
  327MOL0     C44994   4.903   1.285   6.250  0.1381  0.1825  0.0932
  327MOL0     C44995   5.002   1.190   6.282  0.3303 -0.6089  0.2320
  327MOL0     O44996   5.121   1.246   6.308  0.3401 -0.2623 -0.3665
  327MOL0     C44997   5.250   1.172   6.300  0.3679 -0.0471  0.4482
  327MOL0     C44998   5.358   1.252   6.378  0.1626 -0.4033 -0.5671
  327MOL0     C44999   5.500   1.207   6.329 -0.0234  0.5160 -0.1728
  327MOL0     C45000   5.613   1.253   6.426  0.0210 -0.2600 -0.3606
  327MOL0     C45001   5.735   1.157   6.428 -0.0213 -0.2143 -0.6051
  327MOL0     C45002   5.845   1.197   6.528 -0.5357 -0.3254  0.7816
  327MOL0     C45003   5.984   1.148   6.489  0.1650 -0.2598 -0.1561
  327MOL0     C45004   5.988   0.992   6.457 -0.1352 -0.6052  0.4476
  327MOL0     N45005   6.115   0.933   6.503 -0.2808 -0.0938  0.2213
  327MOL0     C45006   6.223   0.909   6.421 -0.7989  0.6675 -0.1057
  327MOL0     C45007   6.325   0.871   6.506  0.3059  0.9502  0.6204
  327MOL0     C45008   6.461   0.835   6.446 -0.2886 -0.3295  0.2440
  327MOL0     C45009   6.461   0.686   6.404 -0.5014 -0.2509 -0.4617
  327MOL0     C45010   6.463   0.586   6.525  0.0778  0.1261 -0.1542
  327MOL0     C45011   6.597   0.553   6.605  0.0851  0.2014 -0.0820
  327MOL0     O45012   6.708   0.621   6.545 -0.1468  1.0581  0.3386
  327MOL0     C45013   6.800   0.544   6.477 -0.1781  0.0354  0.3000
  327MOL0     C45014   6.759   0.448   6.387 -0.6518 -0.0524 -0.1612
  327MOL0     C45015   6.850   0.361   6.314 -0.6372 -0.5804 -0.8765
  327MOL0     C45016   6.804   0.271   6.205  0.1612  0.3246  0.3082
  327MOL0     C45017   6.987   0.369   6.360 -0.0450  0.0641  0.4871
  327MOL0     C45018   7.109   0.288   6.294  0.3444 -0.3755 -0.4909
  327MOL0     O45019   7.232   0.336   6.304  0.3734 -0.6463  0.1717
  327MOL0     C45020   7.340   0.275   6.233  0.4385 -0.9266 -0.3398
  327MOL0     C45021   7.423   0.357   6.164 -0.7071 -0.1632 -0.1721
  327MOL0     C45022   7.536   0.311   6.092  0.3914 -0.9187 -1.3251
  327MOL0     C45023   7.552   0.178   6.077 -0.4512  0.1044  0.2325
  327MOL0     O45024   7.658   0.143   5.999 -0.5244  0.9161  0.5749
  327MOL0     C45025   7.730   0.029   6.050  0.0448 -0.6103  0.0623
  327MOL0     C45026   7.871   0.016   5.980  0.9755  0.4307 -0.2270
  327MOL0     C45027   7.845  -0.037   5.837  0.0306  0.2542  0.3045
  327MOL0     C45028   7.977  -0.058   5.756  0.1687  0.5668 -1.0246
  327MOL0     C45029   7.943  -0.062   5.615 -0.5069  0.0655 -0.2638
  327MOL0     C45030   8.064  -0.098   5.527  0.2048  0.2910 -0.9096
  327MOL0     C45031   8.035  -0.084   5.378 -0.6407  0.7346  0.3332
  327MOL0     C45032   8.148  -0.136   5.291  0.2916 -0.3794  0.0735
  327MOL0    Cl45033   8.309  -0.049   5.321  0.3191 -0.0032  0.2061
  327MOL0     C45034   7.454   0.093   6.128 -0.2559  0.5683  0.2721
  327MOL0     C45035   7.349   0.133   6.214 -0.3064  1.7914 -0.3564
  327MOL0     O45036   7.078   0.182   6.237 -0.0786  0.4101  0.4299
  327MOL0     C45037   7.029   0.470   6.449 -0.0714 -0.0799  0.5583
  327MOL0     C45038   6.932   0.557   6.507 -1.0551  0.3981  0.0952
  327MOL0     N45039   6.278   0.864   6.638 -0.2549  1.4505 -0.4466
  327MOL0     N45040   6.155   0.908   6.634 -0.0233 -0.3554  0.4817
  327MOL0     C45041   4.972   1.054   6.300 -0.6859  0.2944 -0.2097
  327MOL0     C45042   4.840   1.017   6.283  0.1100 -0.2916  0.5911
  327MOL0     C45043   4.447   0.942   6.080  0.8489  0.0596  0.0456
  327MOL0     C45044   4.357   0.971   6.181  1.0741 -0.5114  0.3539
  327MOL0     C45045   4.222   0.934   6.173  0.0049 -0.0065  0.8062
  327MOL0     C45046   4.176   0.875   6.057  0.8238 -0.6728  0.2774
  327MOL0     O45047   4.045   0.848   6.044 -0.3209 -0.7776  0.5241
  327MOL0     C45048   3.983   0.802   6.166  0.2626 -0.5828 -0.1704
  327MOL0     C45049   3.860   0.719   6.130  0.5930  0.1382 -0.1569
  327MOL0     C45050   3.753   0.787   6.052  0.6376  0.3963 -0.6723
  327MOL0     C45051   3.637   0.697   6.013  0.5626  0.7963 -0.5645
  327MOL0     C45052   3.572   0.737   5.888 -0.5546  0.2815  0.6873
  327MOL0     C45053   3.518   0.756   5.779  0.9619  0.5263  0.9849
  327MOL0     C45054   4.262   0.844   5.950  0.5593 -0.0321 -0.3742
  327MOL0     C45055   4.393   0.868   5.967  0.2800  0.1804  0.4867
  327MOL0     C45056   4.474   0.821   5.847 -0.0478  0.3429  0.5489
  327MOL0     H45057   4.693   1.317   6.211  0.6530 -0.2928 -1.4985
  327MOL0     H45058   4.942   1.383   6.221 -2.6537  1.5558  0.6593
  327MOL0     H45059   5.275   1.165   6.194 -0.7985 -4.4783  0.2700
  327MOL0     H45060   5.244   1.072   6.343 -2.9789 -0.1517 -0.0334
  327MOL0     H45061   5.343   1.356   6.348  1.2295 -0.0275  0.1757
  327MOL0     H45062   5.343   1.248   6.486 -2.4794  3.1670 -0.6371
  327MOL0     H45063   5.507   1.099   6.344  1.6876  0.6785  0.3779
  327MOL0     H45064   5.512   1.226   6.222  1.2528  4.2064  0.4764
  327MOL0     H45065   5.644   1.353   6.395 -2.4589  0.9624  0.7934
  327MOL0     H45066   5.585   1.261   6.531  2.7237 -2.0795  0.5954
  327MOL0     H45067   5.782   1.170   6.330  1.2076 -0.5338 -0.0797
  327MOL0     H45068   5.711   1.052   6.447 -1.9809  0.4238  0.7650
  327MOL0     H45069   5.851   1.303   6.556  2.4793 -0.9329  2.8638
  327MOL0     H45070   5.822   1.133   6.613 -1.7301 -0.8187  0.1152
  327MOL0     H45071   6.056   1.170   6.568 -1.1194  1.7149  0.5481
  327MOL0     H45072   6.014   1.199   6.398  0.1773 -0.9132 -0.5219
  327MOL0     H45073   5.900   0.951   6.507 -1.4846  0.2055 -1.1765
  327MOL0     H45074   5.969   0.971   6.351  0.6862 -0.2534  0.2149
  327MOL0     H45075   6.232   0.905   6.313 -0.5385  0.8620 -0.0905
  327MOL0     H45076   6.543   0.866   6.511  1.9859 -3.3136 -0.9525
  327MOL0     H45077   6.487   0.890   6.355 -0.0243 -2.5468 -1.1259
  327MOL0     H45078   6.373   0.668   6.341 -0.9781  1.9912 -0.5395
  327MOL0     H45079   6.549   0.658   6.346 -0.1854  0.6097 -0.4245
  327MOL0     H45080   6.379   0.614   6.589 -1.1795 -3.0366 -0.2172
  327MOL0     H45081   6.425   0.495   6.478  1.1104 -0.1684 -0.4530
  327MOL0     H45082   6.571   0.592   6.703 -4.3223 -0.9863 -0.5683
  327MOL0     H45083   6.607   0.444   6.603 -0.5872  0.1269 -2.5727
  327MOL0     H45084   6.651   0.440   6.375 -1.5526  2.2092  4.3474
  327MOL0     H45085   6.850   0.173   6.222  3.5954  1.8728  0.6891
  327MOL0     H45086   6.847   0.312   6.114  1.1228  2.0498  1.4910
  327MOL0     H45087   6.695   0.260   6.200  0.3857 -2.6570 -0.0233
  327MOL0     H45088   7.410   0.464   6.174  1.1449 -0.0442  1.7090
  327MOL0     H45089   7.600   0.383   6.041  1.0270 -2.1498 -2.3258
  327MOL0     H45090   7.738   0.034   6.159 -1.8822 -1.2201  0.2745
  327MOL0     H45091   7.672  -0.062   6.032 -1.4498  0.2768  0.1843
  327MOL0     H45092   7.927   0.109   5.986  0.4144  0.6907  1.6234
  327MOL0     H45093   7.924  -0.064   6.033 -2.2218  0.1081  2.9286
  327MOL0     H45094   7.777   0.028   5.782 -0.6739 -1.0954 -0.4702
  327MOL0     H45095   7.795  -0.134   5.840 -1.1724  0.8727  1.9252
  327MOL0     H45096   8.040  -0.140   5.791  1.0676  0.8297 -1.9556
  327MOL0     H45097   8.046   0.024   5.780  0.3999 -0.4075  1.9961
  327MOL0     H45098   7.869  -0.140   5.597  0.8024 -0.6809 -2.7520
  327MOL0     H45099   7.894   0.034   5.596  0.5289  0.5564 -0.5376
  327MOL0     H45100   8.088  -0.202   5.551 -0.0325 -0.2661 -2.9217
  327MOL0     H45101   8.144  -0.030   5.558 -0.4593  0.0567  1.5646
  327MOL0     H45102   8.011   0.016   5.342 -0.0844  0.4761 -0.8121
  327MOL0     H45103   7.950  -0.152   5.368 -0.0667 -0.4113  2.5879
  327MOL0     H45104   8.110  -0.131   5.189  0.8083 -3.7273 -0.3858
  327MOL0     H45105   8.166  -0.242   5.307  2.3905 -0.5078 -2.5667
  327MOL0     H45106   7.459  -0.010   6.095 -2.5191  0.7600 -0.8810
  327MOL0     H45107   7.283   0.052   6.242  1.7118 -0.6623 -2.2153
  327MOL0     H45108   7.133   0.474   6.479  0.6607 -0.1344 -1.7722
  327MOL0     H45109   6.963   0.637   6.573  0.9924 -0.7099  0.5648
  327MOL0     H45110   5.044   0.981   6.336  0.5655  1.8226  0.5653
  327MOL0     H45111   4.810   0.916   6.305 -2.9354  0.0529 -1.3914
  327MOL0     H45112   4.384   1.028   6.269  1.4046  2.1813 -1.3765
  327MOL0     H45113   4.164   0.964   6.260 -1.7929 -1.4322  0.1581
  327MOL0     H45114   4.051   0.735   6.220 -0.4142  0.7752  2.4926
  327MOL0     H45115   3.946   0.875   6.238  2.2331  0.9432 -0.6033
  327MOL0     H45116   3.810   0.686   6.222  0.0539  0.3203 -0.3809
  327MOL0     H45117   3.905   0.637   6.073 -1.1473 -0.9647 -0.0420
  327MOL0     H45118   3.700   0.869   6.101 -0.6686 -0.7331 -0.1289
  327MOL0     H45119   3.795   0.830   5.960 -3.5431  2.0528 -2.0117
  327MOL0     H45120   3.561   0.694   6.092  2.2815  0.1591  1.1462
  327MOL0     H45121   3.694   0.605   5.995  1.0030  0.7729  0.8609
  327MOL0     H45122   3.478   0.772   5.681  2.0388 -4.0294 -0.4169
  327MOL0     H45123   4.218   0.799   5.862 -1.0249 -0.5820  0.6633
  327MOL0     H45124   4.547   0.899   5.822  1.4223 -1.1780 -0.0360
  327MOL0     H45125   4.532   0.734   5.877 -0.5823  0.0140  0.6338
  327MOL0     H45126   4.412   0.798   5.760 -1.1829  1.4342  1.0288
  328MOL0     O45127   9.264   3.459   6.010 -0.4785  0.0073 -0.0420
  328MOL0     C45128   9.254   3.580   5.988 -0.0750 -0.4795  0.1259
  328MOL0     O45129   9.306   3.684   6.059 -0.6560 -0.3255 -0.2011
  328MOL0     C45130   9.360   3.652   6.185 -0.3928  1.2954 -0.3724
  328MOL0     C45131   9.496   3.673   6.196  0.5307  0.3449  0.0417
  328MOL0     C45132   9.552   3.642   6.320  0.1271 -0.1823 -0.3659
  328MOL0     C45133   9.478   3.580   6.424 -1.6895 -0.4230 -0.0061
  328MOL0     O45134   9.546   3.542   6.544  0.3957  0.4968 -0.1199
  328MOL0     C45135   9.466   3.521   6.664 -0.4954  0.8340 -0.3291
  328MOL0     C45136   9.565   3.460   6.769  0.2370  0.1008 -0.2419
  328MOL0     C45137   9.660   3.558   6.836  0.2880 -1.1575  0.5958
  328MOL0     C45138   9.718   3.500   6.960  0.0808 -0.2258  0.4002
  328MOL0     C45139   9.810   3.383   6.934 -0.4446  0.3507 -0.2362
  328MOL0     C45140   9.911   3.348   7.054  0.6302  0.2034 -0.7450
  328MOL0     C45141  10.011   3.463   7.092  0.4431  0.4701 -0.4290
  328MOL0     C45142  10.104   3.429   7.206 -0.2713  0.8330 -0.5484
  328MOL0     N45143  10.217   3.514   7.221 -0.8372 -0.1634 -0.0191
  328MOL0     C45144  10.215   3.646   7.253 -0.3101 -0.0659  0.0411
  328MOL0     C45145  10.354   3.672   7.270  0.3771  0.2465 -0.2073
  328MOL0     C45146  10.403   3.792   7.349  0.6404  0.2800 -0.2809
  328MOL0     C45147  10.428   3.761   7.499  0.4536 -0.0845  0.5553
  328MOL0     C45148  10.538   3.665   7.531 -0.0531 -0.7339 -0.4188
  328MOL0     C45149  10.673   3.720   7.483  0.3720  0.3376 -0.1473
  328MOL0     O45150  10.772   3.647   7.546 -0.0308 -0.2558 -0.3861
  328MOL0     C45151  10.898   3.647   7.496 -0.2429  1.1187 -0.8164
  328MOL0     C45152  10.969   3.516   7.493  0.4517  0.6460 -0.0363
  328MOL0     C45153  11.112   3.522   7.457  0.6854  0.4011 -0.1398
  328MOL0     C45154  11.189   3.396   7.450  0.3218  0.6516 -0.2844
  328MOL0     C45155  11.167   3.647   7.403 -0.4292 -0.0981 -0.0033
  328MOL0     C45156  11.307   3.666   7.342  0.3968  0.1386 -0.5910
  328MOL0     O45157  11.326   3.789   7.271  0.1198 -0.1839  0.0188
  328MOL0     C45158  11.457   3.812   7.226  0.4181 -0.1232  0.0075
  328MOL0     C45159  11.567   3.806   7.315 -0.3696 -0.1999  0.0665
  328MOL0     C45160  11.696   3.844   7.261  0.2014  0.9737  0.7954
  328MOL0     C45161  11.721   3.862   7.123 -0.2795 -0.4002 -0.4692
  328MOL0     O45162  11.852   3.891   7.085  0.3077  0.6808 -0.8220
  328MOL0     C45163  11.880   3.872   6.946  1.1338  0.6140  0.2893
  328MOL0     C45164  12.034   3.890   6.924 -0.8594  0.1642  0.1516
  328MOL0     C45165  12.064   4.018   6.834  0.0005 -0.3285 -0.6769
  328MOL0     C45166  12.216   4.046   6.826 -0.1599 -0.5679 -0.3149
  328MOL0     C45167  12.239   4.165   6.731  0.2894  0.5226  0.3590
  328MOL0     C45168  12.390   4.201   6.696  0.2212  0.6101 -0.3451
  328MOL0     C45169  12.403   4.335   6.630 -0.6165 -0.1348 -0.9194
  328MOL0     C45170  12.548   4.371   6.594 -0.2818 -0.3000  0.4720
  328MOL0    Cl45171  12.630   4.434   6.745  0.2243  0.6980  0.1333
  328MOL0     C45172  11.612   3.859   7.039  0.1382 -0.2435 -0.0442
  328MOL0     C45173  11.482   3.835   7.091 -0.9894 -0.0982  0.3197
  328MOL0     O45174  11.396   3.592   7.379  0.1312  0.5443 -0.7416
  328MOL0     C45175  11.085   3.762   7.397 -0.4190  0.4349 -0.0967
  328MOL0     C45176  10.961   3.764   7.455  0.2680  0.5949 -0.3121
  328MOL0     N45177  10.433   3.558   7.247  0.1066 -0.3971 -0.3369
  328MOL0     N45178  10.347   3.464   7.226 -0.2752  0.2676 -0.4658
  328MOL0     C45179   9.344   3.551   6.395 -0.0182  0.3083 -0.0725
  328MOL0     C45180   9.278   3.595   6.289 -0.4734 -0.0689  1.1325
  328MOL0     C45181   9.162   3.614   5.874 -0.2352  0.3802 -0.2091
  328MOL0     C45182   9.022   3.600   5.877 -0.3585 -0.0144  0.8807
  328MOL0     C45183   8.943   3.616   5.762  0.5729 -0.4376 -0.5959
  328MOL0     C45184   8.992   3.648   5.640 -0.4671 -0.2557 -0.1293
  328MOL0     O45185   8.922   3.652   5.523 -0.3626  0.0487  0.6145
  328MOL0     C45186   8.779   3.652   5.526 -0.0986 -0.8793  0.2030
  328MOL0     C45187   8.725   3.521   5.474 -0.1380 -0.7651  0.2173
  328MOL0     C45188   8.791   3.394   5.543 -0.4086 -0.3328  0.8973
  328MOL0     C45189   8.705   3.272   5.504 -0.2342 -0.3534 -0.5763
  328MOL0     C45190   8.748   3.143   5.572  0.1015 -0.6829  0.2138
  328MOL0     C45191   8.798   3.045   5.616 -0.3832 -0.2597 -0.2105
  328MOL0     C45192   9.131   3.664   5.634 -1.1417 -0.5748  0.6178
  328MOL0     C45193   9.212   3.646   5.746 -0.8845  0.3661  0.0781
  328MOL0     C45194   9.361   3.660   5.726 -1.2267  0.0425  0.2246
  328MOL0     H45195   9.556   3.718   6.118 -3.4906  1.6822 -2.6125
  328MOL0     H45196   9.651   3.677   6.344 -0.3376  0.2903  0.9380
  328MOL0     H45197   9.390   3.444   6.647 -0.2594  0.3530  0.7364
  328MOL0     H45198   9.420   3.610   6.708 -0.0527  0.2197  1.4318
  328MOL0     H45199   9.509   3.410   6.848  0.2908 -1.8727 -1.3711
  328MOL0     H45200   9.632   3.387   6.722  0.1175 -0.5092  0.5254
  328MOL0     H45201   9.741   3.578   6.765 -0.1889  0.3376  0.4363
  328MOL0     H45202   9.608   3.650   6.867  0.8701 -0.0965 -1.3791
  328MOL0     H45203   9.783   3.575   7.004 -0.6210 -0.1661  1.3804
  328MOL0     H45204   9.639   3.477   7.033  0.4116  0.8051  1.1019
  328MOL0     H45205   9.867   3.395   6.841 -0.3051  2.1638  0.0606
  328MOL0     H45206   9.741   3.299   6.923  0.1300 -0.1871  0.1627
  328MOL0     H45207   9.846   3.327   7.139 -0.7738  1.0836 -1.5582
  328MOL0     H45208   9.972   3.259   7.035  0.4426  0.1256 -1.0051
  328MOL0     H45209   9.948   3.541   7.136 -2.4983 -0.1532 -3.1580
  328MOL0     H45210  10.060   3.505   7.003 -0.4278  0.2206 -1.0483
  328MOL0     H45211  10.040   3.437   7.294 -2.1876 -1.6401 -1.5849
  328MOL0     H45212  10.131   3.323   7.196  1.3837  1.2016 -0.2020
  328MOL0     H45213  10.126   3.708   7.263  1.1677  2.1755 -0.1478
  328MOL0     H45214  10.326   3.870   7.339 -0.7460 -1.0085 -0.0277
  328MOL0     H45215  10.497   3.826   7.303  2.6868  0.6040  3.7626
  328MOL0     H45216  10.444   3.853   7.555 -0.2957  0.9040 -0.8223
  328MOL0     H45217  10.345   3.710   7.548  0.5475 -0.3116  0.4836
  328MOL0     H45218  10.536   3.663   7.640 -0.7049  1.8657 -0.3189
  328MOL0     H45219  10.538   3.570   7.475 -2.5674 -0.9477 -0.1461
  328MOL0     H45220  10.681   3.712   7.374  2.7005  0.3858 -0.0151
  328MOL0     H45221  10.689   3.824   7.510 -1.7679  0.4785  0.8431
  328MOL0     H45222  10.914   3.430   7.529  0.1186  0.8711  0.0024
  328MOL0     H45223  11.293   3.410   7.480  0.1943 -1.3783  1.3563
  328MOL0     H45224  11.181   3.354   7.349  2.8546  0.5886 -0.5330
  328MOL0     H45225  11.152   3.325   7.524  2.2651 -1.5854 -1.3318
  328MOL0     H45226  11.559   3.779   7.419  3.4586  0.5458  0.6784
  328MOL0     H45227  11.785   3.853   7.322  1.2803 -0.4492 -0.4851
  328MOL0     H45228  11.852   3.777   6.900  0.2058  1.0229 -0.0112
  328MOL0     H45229  11.822   3.947   6.891  1.0101  1.1530  1.1312
  328MOL0     H45230  12.091   3.912   7.015 -0.4558  3.3963 -0.7542
  328MOL0     H45231  12.080   3.797   6.887 -1.5218  0.1025 -0.5274
  328MOL0     H45232  12.007   4.104   6.870  0.3638 -0.4725  0.2819
  328MOL0     H45233  12.018   3.997   6.737 -0.3478 -0.9683 -0.3850
  328MOL0     H45234  12.271   3.958   6.789  1.7737  0.0948  0.8284
  328MOL0     H45235  12.257   4.072   6.924  1.2845  0.2853 -1.1061
  328MOL0     H45236  12.187   4.152   6.637  0.9840  3.0424 -0.4482
  328MOL0     H45237  12.191   4.252   6.776  2.2867  0.8428  2.0351
  328MOL0     H45238  12.440   4.119   6.643 -0.3779 -0.5199  0.7766
  328MOL0     H45239  12.442   4.206   6.792 -0.0410 -1.5842 -0.0372
  328MOL0     H45240  12.361   4.414   6.691  0.0361 -0.1339 -0.4588
  328MOL0     H45241  12.346   4.329   6.537 -2.5957 -0.9061  0.2881
  328MOL0     H45242  12.543   4.445   6.513  0.4954 -0.9719 -0.1996
  328MOL0     H45243  12.606   4.289   6.551  0.1295  0.4263 -0.3777
  328MOL0     H45244  11.613   3.873   6.932 -1.4907  4.7022  0.3281
  328MOL0     H45245  11.395   3.830   7.026 -1.5053 -0.1607  0.9987
  328MOL0     H45246  11.121   3.860   7.367  2.9211 -0.1301  1.5009
  328MOL0     H45247  10.925   3.865   7.474  1.6485  0.9591  0.4282
  328MOL0     H45248   9.276   3.506   6.467 -2.3662  1.0689 -1.6745
  328MOL0     H45249   9.172   3.576   6.276 -0.4112 -0.5045  1.2190
  328MOL0     H45250   8.971   3.575   5.970  2.4012 -1.3035  2.1891
  328MOL0     H45251   8.836   3.602   5.773  0.4588 -0.5229 -1.7466
  328MOL0     H45252   8.733   3.674   5.622 -0.6707  1.0414 -0.4642
  328MOL0     H45253   8.750   3.733   5.457 -1.7236  0.4992  2.3822
  328MOL0     H45254   8.738   3.518   5.366 -1.5330  3.0128 -0.1861
  328MOL0     H45255   8.616   3.514   5.478 -0.1756  0.0539  0.8737
  328MOL0     H45256   8.893   3.382   5.504 -1.9939 -2.0366 -3.3633
  328MOL0     H45257   8.796   3.411   5.651 -0.7712 -0.5936  0.9576
  328MOL0     H45258   8.704   3.264   5.395  0.2053 -1.4567 -0.5121
  328MOL0     H45259   8.604   3.302   5.535 -0.0645  0.3318 -0.6586
  328MOL0     H45260   8.856   2.961   5.646  1.2803  0.1355 -2.0876
  328MOL0     H45261   9.186   3.684   5.543  0.7991  1.9667  2.1932
  328MOL0     H45262   9.396   3.561   5.698  0.1182  0.6375 -0.2865
  328MOL0     H45263   9.382   3.731   5.645 -1.1421 -0.6317 -0.3558
  328MOL0     H45264   9.419   3.694   5.812  0.8672 -1.9840 -0.2816
  329MOL0     O45265   8.216   4.845   6.016  0.4846 -0.3509 -0.0938
  329MOL0     C45266   8.140   4.830   6.113 -0.0377 -0.0984 -0.1011
  329MOL0     O45267   8.187   4.822   6.246 -0.5215  0.1681  0.3725
  329MOL0     C45268   8.326   4.834   6.270  0.6056 -0.3448 -0.2913
  329MOL0     C45269   8.361   4.935   6.360 -0.4230  0.2923  0.6904
  329MOL0     C45270   8.497   4.955   6.392  0.0831  0.1614 -0.2506
  329MOL0     C45271   8.596   4.861   6.359 -0.5882  0.4249 -0.7228
  329MOL0     O45272   8.715   4.883   6.415  0.2189 -0.2680 -0.5414
  329MOL0     C45273   8.810   4.775   6.395  0.1125 -0.0716 -0.5216
  329MOL0     C45274   8.924   4.796   6.492 -0.2803 -0.2062  0.2941
  329MOL0     C45275   9.050   4.718   6.446  0.4514  0.0280 -0.1158
  329MOL0     C45276   9.187   4.764   6.497  0.1009  0.1876  0.2825
  329MOL0     C45277   9.305   4.681   6.445 -0.0033 -0.0152 -0.0629
  329MOL0     C45278   9.427   4.706   6.532 -0.8159 -0.8660  0.3368
  329MOL0     C45279   9.546   4.611   6.501 -0.3591  0.2993 -0.0538
  329MOL0     C45280   9.516   4.463   6.535  0.7453 -0.4558 -0.5404
  329MOL0     N45281   9.634   4.392   6.514 -0.0285 -0.8128 -1.0195
  329MOL0     C45282   9.707   4.379   6.391  0.2674  0.2290 -0.6173
  329MOL0     C45283   9.820   4.308   6.422 -0.2640  0.5669 -0.0744
  329MOL0     C45284   9.929   4.276   6.319  0.6039  0.0012 -0.0384
  329MOL0     C45285   9.882   4.206   6.194  0.0501  0.4402  0.4338
  329MOL0     C45286   9.933   4.060   6.190 -0.3918  0.5378  0.2292
  329MOL0     C45287   9.883   3.990   6.064 -0.2489  0.0176 -1.1779
  329MOL0     O45288   9.919   4.074   5.953 -0.1955 -0.4548 -0.1691
  329MOL0     C45289  10.052   4.082   5.902  0.7862 -0.2352 -0.1315
  329MOL0     C45290  10.082   4.184   5.814  0.1244 -0.4167 -0.0408
  329MOL0     C45291  10.207   4.189   5.742 -0.1213 -0.1392  0.4691
  329MOL0     C45292  10.232   4.301   5.647  0.1763 -0.6660  0.3311
  329MOL0     C45293  10.301   4.084   5.762 -0.3520 -0.0904 -0.5001
  329MOL0     C45294  10.431   4.086   5.693  1.4829 -0.6121  0.4591
  329MOL0     O45295  10.493   4.211   5.706 -0.2130  0.5141 -0.1155
  329MOL0     C45296  10.609   4.214   5.635  0.4251  0.2252  0.2165
  329MOL0     C45297  10.616   4.240   5.500 -0.6744 -0.5318  1.1321
  329MOL0     C45298  10.751   4.244   5.442  0.3191  0.0460 -0.0680
  329MOL0     C45299  10.866   4.224   5.515 -0.0020 -0.7367  0.1514
  329MOL0     O45300  10.987   4.234   5.448 -0.0525  0.0401 -0.1785
  329MOL0     C45301  11.103   4.187   5.510  1.0491 -0.3078  0.3915
  329MOL0     C45302  11.225   4.177   5.417 -0.0097 -0.7454  0.0052
  329MOL0     C45303  11.257   4.306   5.337  0.5853 -0.3380 -0.1054
  329MOL0     C45304  11.358   4.276   5.228 -0.3843  0.4920  0.1566
  329MOL0     C45305  11.371   4.402   5.140 -0.3544  0.8532 -0.4727
  329MOL0     C45306  11.481   4.387   5.036 -0.0076 -0.0781  0.2652
  329MOL0     C45307  11.504   4.500   4.936  0.0027  0.0257  0.5016
  329MOL0     C45308  11.605   4.452   4.826 -0.1783  0.2067 -0.1144
  329MOL0    Cl45309  11.635   4.574   4.697  0.0572  0.1713  0.1171
  329MOL0     C45310  10.848   4.201   5.655 -0.1445  0.1113  0.7306
  329MOL0     C45311  10.724   4.185   5.707  0.4444 -0.2790  0.7562
  329MOL0     O45312  10.460   3.994   5.617  0.0014 -0.4857  0.1309
  329MOL0     C45313  10.267   3.986   5.860 -0.5315 -0.1868 -0.2268
  329MOL0     C45314  10.147   3.988   5.938 -0.1443  0.9229 -0.0962
  329MOL0     N45315   9.822   4.296   6.563 -0.0655  0.3271 -0.2440
  329MOL0     N45316   9.717   4.349   6.617  0.2532 -0.1439  0.2524
  329MOL0     C45317   8.550   4.752   6.269 -0.3004 -0.6369 -0.8411
  329MOL0     C45318   8.417   4.745   6.221 -0.2494  0.2538  0.2741
  329MOL0     C45319   7.991   4.844   6.096  0.0254  0.4944  0.9523
  329MOL0     C45320   7.917   4.906   6.204 -0.5056 -0.2711  0.1572
  329MOL0     C45321   7.775   4.927   6.186 -0.4206 -0.0553 -0.3686
  329MOL0     C45322   7.711   4.865   6.076  0.2876  0.2221  0.1152
  329MOL0     O45323   7.577   4.879   6.066 -0.3180  0.1321 -0.5511
  329MOL0     C45324   7.517   4.886   5.941  0.9461  0.2470  0.6787
  329MOL0     C45325   7.383   4.963   5.969 -0.8277 -0.2341  0.8245
  329MOL0     C45326   7.294   4.955   5.841  1.2393 -0.1919 -0.0687
  329MOL0     C45327   7.180   5.059   5.860 -0.5921  0.0682  0.0428
  329MOL0     C45328   7.075   5.055   5.763  0.3645  0.0195 -0.3225
  329MOL0     C45329   6.992   5.044   5.673  0.3942 -0.7014  0.3407
  329MOL0     C45330   7.786   4.794   5.980  0.0695  0.0816  0.0354
  329MOL0     C45331   7.929   4.787   5.982 -0.3635  0.5084 -0.1126
  329MOL0     C45332   8.014   4.714   5.875 -0.3075  0.3573 -0.2974
  329MOL0     H45333   8.273   4.994   6.382 -3.9141 -3.7233 -1.1087
  329MOL0     H45334   8.513   5.030   6.470 -0.9652  0.3571 -0.2028
  329MOL0     H45335   8.851   4.776   6.293  1.0928  0.4809 -0.1295
  329MOL0     H45336   8.762   4.679   6.416  0.8886 -0.1301  1.1170
  329MOL0     H45337   8.941   4.904   6.492 -0.1750 -0.1831  2.3017
  329MOL0     H45338   8.890   4.765   6.591 -0.3061  0.0174  0.3535
  329MOL0     H45339   9.036   4.614   6.476  2.3117 -0.5546 -1.0579
  329MOL0     H45340   9.050   4.724   6.337  0.4222  1.9478 -0.0441
  329MOL0     H45341   9.206   4.864   6.458  1.6724  0.1422  0.8530
  329MOL0     H45342   9.186   4.767   6.606  0.9418 -2.6303  0.4410
  329MOL0     H45343   9.334   4.707   6.343 -1.4953 -2.8284 -1.2971
  329MOL0     H45344   9.282   4.574   6.444 -0.2401  0.0305  0.2355
  329MOL0     H45345   9.468   4.806   6.517  2.7561 -2.1345  0.8674
  329MOL0     H45346   9.406   4.698   6.639  2.0650 -0.5174  1.0061
  329MOL0     H45347   9.637   4.644   6.551  0.5157  1.1474 -2.1347
  329MOL0     H45348   9.570   4.615   6.395  0.7085 -2.7414 -0.0276
  329MOL0     H45349   9.488   4.449   6.639  1.1397 -0.4629 -0.4343
  329MOL0     H45350   9.434   4.425   6.472 -2.7623  2.2105  2.0008
  329MOL0     H45351   9.684   4.422   6.294 -0.8622  0.1087 -0.4086
  329MOL0     H45352  10.007   4.222   6.372 -0.5572  0.8123  2.6704
  329MOL0     H45353   9.970   4.376   6.299 -2.3370  1.7765  2.0297
  329MOL0     H45354   9.775   4.212   6.169  0.4882  0.2695 -1.7159
  329MOL0     H45355   9.928   4.262   6.112  0.7328 -0.8764 -0.1141
  329MOL0     H45356  10.042   4.058   6.202 -0.4216 -2.1493  0.7887
  329MOL0     H45357   9.896   4.002   6.275 -0.7409  0.0965 -0.2207
  329MOL0     H45358   9.928   3.890   6.068 -2.7737 -1.1356  0.4339
  329MOL0     H45359   9.776   3.976   6.078  0.0245 -0.3570  0.8880
  329MOL0     H45360  10.005   4.256   5.789  0.0824 -0.9379 -1.5199
  329MOL0     H45361  10.289   4.277   5.557  2.6480  0.7607  1.4345
  329MOL0     H45362  10.283   4.372   5.711  0.4417 -2.5168  2.2974
  329MOL0     H45363  10.131   4.333   5.620  0.1745 -0.8068  0.1657
  329MOL0     H45364  10.539   4.287   5.439 -1.5616 -1.1466  1.7784
  329MOL0     H45365  10.750   4.267   5.336  1.6596 -0.0866 -0.1231
  329MOL0     H45366  11.130   4.247   5.597  1.6523 -1.4178  1.0044
  329MOL0     H45367  11.091   4.084   5.545 -1.5527 -0.0510  0.4380
  329MOL0     H45368  11.315   4.140   5.468  0.3696 -0.5923 -0.5495
  329MOL0     H45369  11.205   4.103   5.339  1.5590  1.2901 -2.4700
  329MOL0     H45370  11.293   4.385   5.404  1.9554  0.1542 -1.3845
  329MOL0     H45371  11.166   4.340   5.287 -0.6603 -1.5509  1.2434
  329MOL0     H45372  11.323   4.194   5.165  1.0192 -0.6092  0.7654
  329MOL0     H45373  11.452   4.243   5.273 -0.2825  1.2798  0.5457
  329MOL0     H45374  11.276   4.414   5.088  0.4997 -1.0999 -2.6746
  329MOL0     H45375  11.395   4.488   5.204  1.4661  0.3804 -0.4651
  329MOL0     H45376  11.464   4.293   4.983  2.2667 -0.3949 -0.0174
  329MOL0     H45377  11.569   4.353   5.092 -0.6972 -2.0909  0.1936
  329MOL0     H45378  11.539   4.593   4.983  0.9862  0.2925 -0.7279
  329MOL0     H45379  11.409   4.536   4.895  0.4713  2.0537  1.0448
  329MOL0     H45380  11.564   4.361   4.781 -0.9077  1.0081 -1.1005
  329MOL0     H45381  11.700   4.422   4.872 -0.9298 -0.7905  0.8729
  329MOL0     H45382  10.940   4.174   5.707  0.2888 -0.7919 -0.4643
  329MOL0     H45383  10.710   4.151   5.809  1.9795 -2.6350  0.2722
  329MOL0     H45384  10.348   3.914   5.868  0.8239  1.4196  1.4222
  329MOL0     H45385  10.118   3.911   6.009 -1.7378  0.8488 -0.7813
  329MOL0     H45386   8.627   4.681   6.243  2.9309  1.2974  2.3798
  329MOL0     H45387   8.384   4.662   6.160  0.1082  0.0594  0.3478
  329MOL0     H45388   7.959   4.932   6.301  2.6434 -0.0085 -1.1748
  329MOL0     H45389   7.720   4.971   6.269  1.0346  1.2883 -0.0650
  329MOL0     H45390   7.572   4.938   5.862  0.3602 -0.8087 -0.4573
  329MOL0     H45391   7.488   4.784   5.915  1.0620  0.7703 -1.6585
  329MOL0     H45392   7.420   5.062   5.997  2.2002 -0.6706 -1.1137
  329MOL0     H45393   7.334   4.924   6.058 -2.7415  0.9394  0.3351
  329MOL0     H45394   7.351   4.974   5.750 -0.4370  0.0971 -1.0959
  329MOL0     H45395   7.261   4.852   5.825  1.9872 -0.3251 -0.8061
  329MOL0     H45396   7.214   5.162   5.868 -2.2321  0.5582  1.4323
  329MOL0     H45397   7.131   5.040   5.956 -1.4518 -1.0841 -0.5854
  329MOL0     H45398   6.911   5.040   5.603  0.1795  2.7797  0.1938
  329MOL0     H45399   7.738   4.746   5.895  0.7317  1.4191 -1.1461
  329MOL0     H45400   7.955   4.657   5.802 -0.5012 -0.4067  0.4348
  329MOL0     H45401   8.062   4.783   5.806  1.8905  0.1269  0.9014
  329MOL0     H45402   8.094   4.649   5.913  0.5549  2.1560  1.1110
  330MOL0     O45403   9.318   6.351   2.213  0.4220  0.3907 -0.1062
  330MOL0     C45404   9.230   6.420   2.169  0.5857 -0.5229 -0.4338
  330MOL0     O45405   9.245   6.555   2.144 -0.3835 -0.7417  0.3558
  330MOL0     C45406   9.369   6.619   2.150 -0.4375 -0.0930  0.1456
  330MOL0     C45407   9.421   6.656   2.027 -0.0031  0.5743  0.3792
  330MOL0     C45408   9.538   6.740   2.036  0.0286  0.5001  0.4869
  330MOL0     C45409   9.599   6.767   2.160  0.2026  0.2075  0.2401
  330MOL0     O45410   9.705   6.852   2.170  0.0972  0.0456 -0.3309
  330MOL0     C45411   9.731   6.940   2.061 -0.4825 -0.0180 -0.2432
  330MOL0     C45412   9.824   7.057   2.093 -0.4847  0.5541  0.1077
  330MOL0     C45413   9.970   7.008   2.123 -0.4232 -0.6063  0.5103
  330MOL0     C45414  10.065   7.128   2.097  1.3204  0.1974  0.0653
  330MOL0     C45415  10.196   7.105   2.149 -0.6693  0.4168 -0.2103
  330MOL0     C45416  10.294   7.226   2.143  0.4873  0.1400 -0.1595
  330MOL0     C45417  10.427   7.210   2.220 -0.1579  0.2050 -0.2983
  330MOL0     C45418  10.536   7.298   2.154 -0.4644  0.2778  0.2759
  330MOL0     N45419  10.512   7.444   2.156  0.8021  0.6065  0.1472
  330MOL0     C45420  10.467   7.512   2.266  0.7871  0.0682 -0.3305
  330MOL0     C45421  10.453   7.640   2.215 -0.4507 -0.1929  0.5011
  330MOL0     C45422  10.414   7.764   2.289  0.6442  0.2449  0.2680
  330MOL0     C45423  10.535   7.828   2.346  0.3389  0.1305  0.3348
  330MOL0     C45424  10.497   7.936   2.448  0.4414  0.3743  0.1586
  330MOL0     C45425  10.624   7.999   2.523  0.0194 -0.0640  0.0546
  330MOL0     O45426  10.701   7.886   2.579 -0.7428  0.5125  0.3241
  330MOL0     C45427  10.822   7.923   2.643 -0.2580  0.8204  0.2800
  330MOL0     C45428  10.912   7.816   2.676  0.3120 -0.1203  0.4765
  330MOL0     C45429  11.021   7.839   2.764 -0.2898  1.1630  0.0936
  330MOL0     C45430  11.103   7.709   2.784 -0.3266  0.4300  0.3045
  330MOL0     C45431  11.053   7.965   2.807  0.4031  0.8239 -0.6347
  330MOL0     C45432  11.172   8.004   2.885  0.0989  0.2443  0.8192
  330MOL0     O45433  11.205   8.137   2.905  0.1238  0.0516 -0.0005
  330MOL0     C45434  11.324   8.174   2.965  0.4083  0.6877  1.2176
  330MOL0     C45435  11.324   8.260   3.065  0.0104 -0.4366 -0.0368
  330MOL0     C45436  11.447   8.304   3.118  0.4354  0.1207  0.2355
  330MOL0     C45437  11.573   8.256   3.083  1.1434  0.1762  0.4090
  330MOL0     O45438  11.692   8.297   3.138  0.1248 -0.9334  0.0848
  330MOL0     C45439  11.692   8.412   3.227  0.1965 -0.0731 -0.2776
  330MOL0     C45440  11.834   8.463   3.252 -0.1348 -0.9993 -0.9092
  330MOL0     C45441  11.902   8.391   3.366  0.0047 -0.1038 -1.1063
  330MOL0     C45442  12.023   8.468   3.416 -0.0720 -0.7718  0.1934
  330MOL0     C45443  12.126   8.382   3.477  0.3352 -0.7499  0.2140
  330MOL0     C45444  12.242   8.475   3.509  0.0127 -0.9165 -0.3286
  330MOL0     C45445  12.373   8.397   3.554  0.0140 -0.0981 -0.1286
  330MOL0     C45446  12.473   8.389   3.445 -0.0854  0.1649  0.7987
  330MOL0    Cl45447  12.519   8.555   3.391  0.0082 -0.3585  0.6148
  330MOL0     C45448  11.561   8.151   2.994 -0.0248  0.0725 -0.1150
  330MOL0     C45449  11.441   8.110   2.925 -0.5008 -0.1272 -0.1857
  330MOL0     O45450  11.235   7.909   2.946 -0.0306  0.4075  0.4171
  330MOL0     C45451  10.971   8.065   2.765  0.7968  0.5018 -0.5270
  330MOL0     C45452  10.849   8.053   2.691 -0.2923 -0.2217 -0.3780
  330MOL0     N45453  10.485   7.632   2.081 -0.4263  0.5402 -0.7974
  330MOL0     N45454  10.521   7.515   2.046 -0.0847  0.2175  0.0776
  330MOL0     C45455   9.550   6.720   2.280 -0.1233 -0.4690 -0.1682
  330MOL0     C45456   9.427   6.650   2.272 -0.9725  0.0194 -0.7090
  330MOL0     C45457   9.101   6.357   2.128 -0.4090  0.3034 -0.0735
  330MOL0     C45458   8.983   6.433   2.148  0.3138  0.0980 -0.0661
  330MOL0     C45459   8.862   6.368   2.126  0.5340 -0.3637  0.0099
  330MOL0     C45460   8.848   6.241   2.086  0.4520  0.4165  0.2381
  330MOL0     O45461   8.725   6.176   2.065 -0.8034  0.5575 -0.2203
  330MOL0     C45462   8.604   6.252   2.082  0.1897  0.0882  0.3300
  330MOL0     C45463   8.586   6.327   1.952 -0.5225  0.2528 -0.1224
  330MOL0     C45464   8.445   6.382   1.946  0.2169 -0.6898 -0.6006
  330MOL0     C45465   8.406   6.443   1.807 -0.2911  0.3880  0.1954
  330MOL0     C45466   8.269   6.503   1.817 -0.3423  0.4675  0.1188
  330MOL0     C45467   8.160   6.548   1.833 -0.3050  0.4534  0.5027
  330MOL0     C45468   8.967   6.168   2.062  0.8482  0.7117 -0.5384
  330MOL0     C45469   9.091   6.224   2.069 -0.1887  0.1240  1.6549
  330MOL0     C45470   9.207   6.146   2.025 -0.7177 -0.0884  0.1088
  330MOL0     H45471   9.379   6.627   1.931  1.6706  1.7091 -0.7512
  330MOL0     H45472   9.577   6.779   1.943 -1.7774 -1.0220 -1.0064
  330MOL0     H45473   9.641   6.990   2.025  0.4357  0.7303 -1.5729
  330MOL0     H45474   9.779   6.876   1.987  1.0113  0.3415  0.3597
  330MOL0     H45475   9.831   7.112   1.999 -0.0311 -0.3432 -0.3968
  330MOL0     H45476   9.789   7.126   2.170  0.2594  0.3198  0.6615
  330MOL0     H45477   9.982   6.981   2.228  0.2662 -0.5573  0.4469
  330MOL0     H45478   9.986   6.917   2.064  0.8176 -0.5141  0.6716
  330MOL0     H45479  10.081   7.139   1.990  0.8722 -0.1922 -0.0443
  330MOL0     H45480  10.016   7.211   2.149  1.6711 -0.3594  1.3198
  330MOL0     H45481  10.245   7.020   2.099 -0.4440  1.5763 -2.0591
  330MOL0     H45482  10.189   7.070   2.252 -1.4159  0.2633 -0.3095
  330MOL0     H45483  10.314   7.246   2.037  2.2499  2.0463  0.4627
  330MOL0     H45484  10.229   7.305   2.181  1.6657  1.5702 -1.0002
  330MOL0     H45485  10.444   7.102   2.220  0.9456  0.2503  3.2957
  330MOL0     H45486  10.414   7.238   2.325 -0.9985  1.0947 -0.6217
  330MOL0     H45487  10.634   7.280   2.199 -0.3123  2.1496  0.8029
  330MOL0     H45488  10.548   7.261   2.052 -0.2933  0.0280  0.3872
  330MOL0     H45489  10.436   7.474   2.363 -1.4509  0.3306 -0.8715
  330MOL0     H45490  10.340   7.742   2.367 -0.0396 -0.6951 -0.6181
  330MOL0     H45491  10.352   7.831   2.229 -0.3656  0.2124  1.2428
  330MOL0     H45492  10.573   7.746   2.407 -4.4022 -1.3313  1.7862
  330MOL0     H45493  10.607   7.870   2.275  0.5100  0.8083  0.8999
  330MOL0     H45494  10.457   8.021   2.392  0.6706  0.8781  0.7405
  330MOL0     H45495  10.421   7.895   2.514  0.9697 -1.9335 -0.5854
  330MOL0     H45496  10.685   8.058   2.454 -0.5322  2.0026  1.2496
  330MOL0     H45497  10.590   8.066   2.602  0.3574  0.7492 -0.4865
  330MOL0     H45498  10.879   7.713   2.664 -2.5025  0.4224  2.6492
  330MOL0     H45499  11.211   7.725   2.778 -0.1383 -1.0913 -1.0937
  330MOL0     H45500  11.077   7.631   2.712 -0.9981 -0.3074  1.3136
  330MOL0     H45501  11.096   7.663   2.883 -0.4963 -2.4394 -0.9369
  330MOL0     H45502  11.240   8.310   3.112  0.5028  0.5487 -0.1607
  330MOL0     H45503  11.434   8.374   3.200 -2.8177 -1.0005  0.8267
  330MOL0     H45504  11.637   8.492   3.176  0.4546  0.3129  0.0391
  330MOL0     H45505  11.639   8.402   3.323  0.0893  2.2129 -0.0295
  330MOL0     H45506  11.886   8.455   3.157  3.5135 -0.2000  0.8417
  330MOL0     H45507  11.818   8.569   3.273 -3.9643 -1.4771 -0.6311
  330MOL0     H45508  11.926   8.286   3.347 -2.4496 -1.3942  1.9856
  330MOL0     H45509  11.833   8.380   3.450  1.4283  1.6542  0.3627
  330MOL0     H45510  11.994   8.539   3.495  3.2378  1.1814 -0.1629
  330MOL0     H45511  12.070   8.530   3.338  0.8041  1.4441  2.3438
  330MOL0     H45512  12.089   8.316   3.557  2.0412 -2.3605 -0.2574
  330MOL0     H45513  12.163   8.306   3.408  2.2258  0.3361 -0.0290
  330MOL0     H45514  12.219   8.548   3.586  0.7821  0.1705 -1.0952
  330MOL0     H45515  12.270   8.524   3.415 -0.5301 -2.3286 -1.2764
  330MOL0     H45516  12.355   8.300   3.602  0.3751  1.2392  2.9823
  330MOL0     H45517  12.420   8.456   3.633 -2.4948  0.3680  1.1052
  330MOL0     H45518  12.440   8.327   3.361  1.7691 -0.2681  0.3435
  330MOL0     H45519  12.570   8.344   3.470  2.0870  1.9557 -3.3673
  330MOL0     H45520  11.656   8.103   2.975  0.5914  0.6101  1.4006
  330MOL0     H45521  11.441   8.030   2.852 -4.5646 -1.9464  1.4974
  330MOL0     H45522  10.988   8.164   2.808 -0.2544  0.3897  0.1849
  330MOL0     H45523  10.787   8.142   2.688 -0.5969 -0.4524 -1.2342
  330MOL0     H45524   9.606   6.748   2.369 -0.6292 -1.1825  0.3829
  330MOL0     H45525   9.379   6.613   2.362 -2.4396 -0.7857 -1.7857
  330MOL0     H45526   8.985   6.531   2.195  0.6377 -0.4132  1.0075
  330MOL0     H45527   8.775   6.428   2.151  0.7723  0.6478 -1.4368
  330MOL0     H45528   8.517   6.188   2.100  1.2040 -1.6795 -0.7967
  330MOL0     H45529   8.606   6.306   2.177  0.3898 -0.2354  0.5083
  330MOL0     H45530   8.593   6.254   1.871 -1.4134 -0.3253  0.2997
  330MOL0     H45531   8.661   6.404   1.933 -0.6521  0.3769 -0.1316
  330MOL0     H45532   8.381   6.295   1.969 -2.0499  0.5126 -1.9837
  330MOL0     H45533   8.430   6.460   2.021  3.2570 -0.6007  0.0171
  330MOL0     H45534   8.407   6.368   1.727  0.7990 -0.0389  0.5918
  330MOL0     H45535   8.471   6.525   1.776  1.1375 -1.4026 -1.9425
  330MOL0     H45536   8.068   6.598   1.854 -1.0119 -0.1653 -1.0398
  330MOL0     H45537   8.952   6.062   2.041  2.4067  0.2681  0.3952
  330MOL0     H45538   9.178   6.065   1.957 -1.6162  1.1725 -1.0654
  330MOL0     H45539   9.278   6.213   1.976  0.5917 -0.9125  0.8237
  330MOL0     H45540   9.253   6.105   2.115 -0.4638  0.4396  0.2197
  331MOL0     O45541   9.787   4.225   4.860  0.2599 -0.1416  0.3363
  331MOL0     C45542   9.862   4.201   4.953 -0.0627  0.3229 -0.7520
  331MOL0     O45543   9.824   4.206   5.089 -0.4096  0.4394 -0.5114
  331MOL0     C45544   9.691   4.238   5.106 -0.1113  0.0849  0.0794
  331MOL0     C45545   9.618   4.145   5.186 -0.3172  1.0625 -0.8056
  331MOL0     C45546   9.484   4.161   5.204  0.6715  0.4753 -0.2966
  331MOL0     C45547   9.415   4.264   5.148  0.0863  0.0742  0.0546
  331MOL0     O45548   9.277   4.243   5.154 -0.2937  0.1438 -0.0372
  331MOL0     C45549   9.192   4.355   5.158 -1.0051  0.0167  0.2645
  331MOL0     C45550   9.046   4.327   5.174  0.0528  0.5827  0.0969
  331MOL0     C45551   8.982   4.275   5.045 -0.5075  0.7493 -0.5899
  331MOL0     C45552   8.827   4.258   5.062 -0.1048 -0.9435  0.2960
  331MOL0     C45553   8.772   4.205   4.932 -0.2828  0.0562 -0.6060
  331MOL0     C45554   8.621   4.190   4.954  0.5431 -0.5695  0.2999
  331MOL0     C45555   8.544   4.174   4.826  0.4643  0.0058 -1.1426
  331MOL0     C45556   8.395   4.187   4.840  0.0639  0.4553  0.1997
  331MOL0     N45557   8.330   4.165   4.710  0.3689 -0.2799 -0.1459
  331MOL0     C45558   8.381   4.211   4.588  1.0459 -0.2933  0.6711
  331MOL0     C45559   8.298   4.178   4.485  0.2804 -0.2826 -0.7955
  331MOL0     C45560   8.323   4.198   4.338 -0.0232  0.2721  0.2874
  331MOL0     C45561   8.447   4.126   4.284  0.6961  0.4968  0.2899
  331MOL0     C45562   8.433   4.132   4.133 -0.6494 -1.0327  0.1006
  331MOL0     C45563   8.486   4.017   4.054  0.4687  0.6015  0.1117
  331MOL0     O45564   8.630   4.005   4.072 -0.1473 -0.3580 -0.7422
  331MOL0     C45565   8.719   4.052   3.978  0.1328 -0.2688 -0.1067
  331MOL0     C45566   8.684   4.150   3.884  0.2546 -0.2280  0.0305
  331MOL0     C45567   8.775   4.193   3.782  0.4109  0.5301  0.7745
  331MOL0     C45568   8.731   4.305   3.690 -0.1296 -0.2615 -0.0988
  331MOL0     C45569   8.905   4.137   3.781  0.0489  0.1857  0.7601
  331MOL0     C45570   9.007   4.170   3.681  1.2424  0.1958  0.5236
  331MOL0     O45571   9.133   4.153   3.715 -0.0354  0.4287 -0.0535
  331MOL0     C45572   9.238   4.199   3.632 -0.5700  1.0900 -0.4217
  331MOL0     C45573   9.346   4.117   3.621  0.1740 -0.3933  0.4129
  331MOL0     C45574   9.462   4.161   3.550 -0.0949  0.3737 -0.1581
  331MOL0     C45575   9.452   4.269   3.466 -0.6524  0.1204 -0.5387
  331MOL0     O45576   9.556   4.304   3.382 -0.0837 -0.3224  0.2630
  331MOL0     C45577   9.635   4.195   3.315  1.0316  0.3042  0.7542
  331MOL0     C45578   9.780   4.184   3.364 -0.3301 -0.9344  0.3258
  331MOL0     C45579   9.890   4.223   3.263  0.5707 -0.4342 -0.0756
  331MOL0     C45580  10.019   4.212   3.336  0.4994 -0.4317 -0.0160
  331MOL0     C45581  10.141   4.264   3.262  0.8219  0.7467  0.1461
  331MOL0     C45582  10.265   4.293   3.348  0.2519  0.4422 -0.0114
  331MOL0     C45583  10.302   4.177   3.443 -0.6170  0.2795 -0.1575
  331MOL0     C45584  10.439   4.205   3.506 -0.4568 -0.2240  0.3028
  331MOL0    Cl45585  10.563   4.197   3.366  0.4035 -0.3702  0.4104
  331MOL0     C45586   9.346   4.359   3.486  0.1202  1.3798 -0.1628
  331MOL0     C45587   9.240   4.323   3.565  0.4875 -0.1170 -0.5183
  331MOL0     O45588   8.969   4.223   3.579  0.3837 -0.5831 -0.3440
  331MOL0     C45589   8.948   4.056   3.889  0.3001  0.4756 -0.0882
  331MOL0     C45590   8.853   4.016   3.993 -1.1417 -0.1159 -0.0640
  331MOL0     N45591   8.199   4.100   4.552 -0.3181  0.4677 -0.2555
  331MOL0     N45592   8.218   4.092   4.679 -0.3209  0.3462  0.0209
  331MOL0     C45593   9.486   4.357   5.076 -0.1743 -1.0106 -0.1209
  331MOL0     C45594   9.622   4.348   5.069 -0.5573 -0.1031  0.2536
  331MOL0     C45595  10.004   4.164   4.914  0.0842 -0.4608 -0.4379
  331MOL0     C45596  10.063   4.247   4.820  0.4100  0.2528  0.0458
  331MOL0     C45597  10.188   4.224   4.760  0.1950  0.4289 -0.7461
  331MOL0     C45598  10.264   4.125   4.818 -0.2881 -0.8394 -0.4607
  331MOL0     O45599  10.389   4.112   4.767  0.9064 -0.4124  0.0175
  331MOL0     C45600  10.429   3.982   4.733  0.3693 -0.0721 -0.4521
  331MOL0     C45601  10.509   3.990   4.607  0.0317  0.3725 -0.4775
  331MOL0     C45602  10.431   4.046   4.490  0.1222 -0.1715 -0.7653
  331MOL0     C45603  10.536   4.087   4.383  0.5087 -0.3949  0.1993
  331MOL0     C45604  10.594   3.969   4.331 -1.2751 -0.3086 -0.1713
  331MOL0     C45605  10.633   3.866   4.274  0.0724 -0.6429 -0.3020
  331MOL0     C45606  10.215   4.048   4.926  0.7479 -0.3625 -0.2187
  331MOL0     C45607  10.082   4.073   4.978  0.8718  0.7908  0.8929
  331MOL0     C45608  10.045   4.002   5.106  0.1403  0.3266  0.1363
  331MOL0     H45609   9.676   4.064   5.229 -1.6649  0.1623 -0.6037
  331MOL0     H45610   9.426   4.087   5.258 -0.6305  2.2833  0.9102
  331MOL0     H45611   9.206   4.404   5.062  3.2098  0.8824  1.1282
  331MOL0     H45612   9.227   4.429   5.231  0.8495 -1.3974  0.8910
  331MOL0     H45613   9.043   4.246   5.247  4.0058 -0.1731 -0.3485
  331MOL0     H45614   9.007   4.425   5.206 -2.7340  1.1685 -4.2234
  331MOL0     H45615   9.008   4.342   4.963 -0.5244  2.4922  0.7727
  331MOL0     H45616   9.034   4.182   5.022  0.9122  1.4569 -0.3197
  331MOL0     H45617   8.801   4.187   5.141 -3.0349 -0.6279 -0.2783
  331MOL0     H45618   8.797   4.359   5.089  0.8451 -1.2285  2.6152
  331MOL0     H45619   8.814   4.107   4.908  0.3186  0.2491 -0.3700
  331MOL0     H45620   8.795   4.285   4.861 -2.4724  2.1633  0.8924
  331MOL0     H45621   8.612   4.096   5.009  2.7211 -0.8595  0.2668
  331MOL0     H45622   8.570   4.267   5.013 -1.8030 -1.7712 -0.0608
  331MOL0     H45623   8.554   4.075   4.779 -1.1020 -0.4062 -0.6651
  331MOL0     H45624   8.584   4.255   4.764 -1.0122  1.9672  0.3423
  331MOL0     H45625   8.362   4.102   4.900  1.1156  0.4340  0.7738
  331MOL0     H45626   8.372   4.281   4.892  1.4265  1.1645 -0.4246
  331MOL0     H45627   8.477   4.262   4.582  0.4377  0.9799  1.3644
  331MOL0     H45628   8.338   4.302   4.307  1.7794 -0.1123 -0.2505
  331MOL0     H45629   8.233   4.155   4.293 -0.7499  1.4616  0.5675
  331MOL0     H45630   8.541   4.174   4.311  1.4167 -1.5169  1.5700
  331MOL0     H45631   8.443   4.023   4.318 -0.5172  0.0389 -1.1374
  331MOL0     H45632   8.331   4.141   4.095 -0.0614 -0.9735 -1.5727
  331MOL0     H45633   8.485   4.221   4.094 -0.7783 -1.6264 -1.4837
  331MOL0     H45634   8.428   3.925   4.070 -3.4678  2.9034  0.2821
  331MOL0     H45635   8.464   4.045   3.951  0.7454  0.9960  0.1581
  331MOL0     H45636   8.581   4.184   3.883  0.1368 -0.5872  0.0888
  331MOL0     H45637   8.806   4.383   3.675 -0.4359 -0.0876 -0.7617
  331MOL0     H45638   8.646   4.363   3.728  0.6772  1.0517 -0.2510
  331MOL0     H45639   8.706   4.270   3.589  2.6759 -1.0127 -0.6057
  331MOL0     H45640   9.346   4.028   3.684 -1.8518 -0.5585  0.2466
  331MOL0     H45641   9.550   4.099   3.568 -0.6739  0.4013  3.9148
  331MOL0     H45642   9.582   4.100   3.324 -1.2367  1.2349 -1.3837
  331MOL0     H45643   9.638   4.228   3.210 -0.0623 -1.9498 -0.0341
  331MOL0     H45644   9.789   4.255   3.447 -3.6636 -0.8305  0.7276
  331MOL0     H45645   9.797   4.082   3.398  0.9687 -1.3442 -1.4169
  331MOL0     H45646   9.883   4.328   3.232  1.8689  0.3050  1.9423
  331MOL0     H45647   9.894   4.156   3.176 -1.1519 -0.2770 -0.3137
  331MOL0     H45648  10.034   4.106   3.361  1.3507 -0.5186 -0.8679
  331MOL0     H45649  10.000   4.270   3.427 -0.5047 -1.0025  0.1581
  331MOL0     H45650  10.163   4.190   3.184  0.4279  1.1804 -0.3802
  331MOL0     H45651  10.119   4.356   3.208  0.8031  0.5754 -0.1365
  331MOL0     H45652  10.251   4.381   3.412  1.1520 -0.5047  1.5715
  331MOL0     H45653  10.342   4.317   3.274 -2.2493  3.7289 -1.8060
  331MOL0     H45654  10.305   4.080   3.392  1.6587  0.7806 -1.0884
  331MOL0     H45655  10.232   4.168   3.527  2.1337 -4.6468  2.0509
  331MOL0     H45656  10.461   4.128   3.581  0.8720 -1.2162 -1.0460
  331MOL0     H45657  10.430   4.299   3.560  0.1552 -0.9655  1.7427
  331MOL0     H45658   9.356   4.455   3.435 -2.7839  1.9288  0.0981
  331MOL0     H45659   9.157   4.390   3.589  1.0127  0.3022  0.1682
  331MOL0     H45660   9.044   4.008   3.901  0.2139  0.2185 -0.3996
  331MOL0     H45661   8.880   3.946   4.071  0.3711  0.1898 -0.2816
  331MOL0     H45662   9.438   4.436   5.020  0.6481  0.2272  0.8474
  331MOL0     H45663   9.673   4.418   5.004  0.7457 -1.0484  0.2204
  331MOL0     H45664  10.014   4.332   4.773  1.6459  1.8915  1.5757
  331MOL0     H45665  10.226   4.291   4.684 -0.9062 -0.2330 -1.9161
  331MOL0     H45666  10.489   3.942   4.815  0.3824  2.0345  0.6183
  331MOL0     H45667  10.344   3.914   4.717  0.9046 -0.7452 -0.4921
  331MOL0     H45668  10.532   3.886   4.582 -1.1903  0.0594 -0.4067
  331MOL0     H45669  10.603   4.042   4.624  1.2505 -1.8029 -0.2448
  331MOL0     H45670  10.356   3.973   4.458  0.0087 -1.1662  1.5942
  331MOL0     H45671  10.385   4.141   4.518  2.1717  0.5648  0.2418
  331MOL0     H45672  10.614   4.155   4.419  3.5248 -3.3508 -0.2548
  331MOL0     H45673  10.478   4.131   4.301  0.9150 -0.3923 -0.0898
  331MOL0     H45674  10.677   3.777   4.236  0.7267 -1.1869  1.6056
  331MOL0     H45675  10.279   3.969   4.964  0.4589  0.2853  1.7029
  331MOL0     H45676   9.942   3.966   5.094  0.3707  0.6283 -4.1017
  331MOL0     H45677  10.119   3.926   5.133  1.7549  1.4279 -1.0216
  331MOL0     H45678  10.053   4.078   5.184 -0.7064 -1.2301  1.8327
  332MOL0     O45679   7.161   9.151   4.860  0.1879  0.4909 -0.4042
  332MOL0     C45680   7.101   9.046   4.864  0.4052 -0.5334  0.0775
  332MOL0     O45681   7.160   8.925   4.899 -0.0323 -0.4255  0.3777
  332MOL0     C45682   7.288   8.931   4.943  0.6236 -0.1018 -0.8258
  332MOL0     C45683   7.388   8.910   4.856  1.1420 -0.4221  0.8861
  332MOL0     C45684   7.522   8.902   4.896  0.5386  0.8115 -0.4835
  332MOL0     C45685   7.548   8.923   5.035  0.4391  0.4100  0.4511
  332MOL0     O45686   7.674   8.908   5.085 -0.1905 -0.9527  0.5547
  332MOL0     C45687   7.778   8.976   5.013  0.7390  0.0548  0.8635
  332MOL0     C45688   7.915   8.941   5.076 -1.1949 -0.1348 -0.1782
  332MOL0     C45689   7.927   8.969   5.234 -0.0996  0.4752 -0.4497
  332MOL0     C45690   8.078   8.963   5.284 -0.5362  0.3143 -1.0402
  332MOL0     C45691   8.140   8.823   5.302  0.1309 -0.4878  0.4598
  332MOL0     C45692   8.290   8.834   5.355  0.3781  0.1016  0.3261
  332MOL0     C45693   8.375   8.698   5.347  0.5935  0.3539  0.0846
  332MOL0     C45694   8.505   8.690   5.433  0.6290  0.2598 -0.0697
  332MOL0     N45695   8.588   8.805   5.410 -0.0608 -0.2255 -0.5367
  332MOL0     C45696   8.692   8.821   5.323 -0.2432 -0.1602  0.3747
  332MOL0     C45697   8.734   8.946   5.349 -0.0936 -0.1814 -0.3769
  332MOL0     C45698   8.844   9.005   5.281 -0.2418 -0.1574  0.7880
  332MOL0     C45699   8.843   9.165   5.285  0.0193  0.7733  0.4585
  332MOL0     C45700   8.719   9.211   5.219  0.6335  0.4468 -0.2832
  332MOL0     C45701   8.726   9.363   5.191  0.1471 -1.1168 -0.0885
  332MOL0     O45702   8.812   9.385   5.073 -0.2370 -0.7374 -0.0205
  332MOL0     C45703   8.945   9.417   5.094  0.2362  0.5429 -0.6911
  332MOL0     C45704   9.037   9.322   5.053  0.2210  0.9467  0.5012
  332MOL0     C45705   9.174   9.347   5.071  0.7379  0.8657  0.1457
  332MOL0     C45706   9.263   9.239   5.012 -0.0789  0.1390 -0.3773
  332MOL0     C45707   9.221   9.469   5.120 -0.1644 -0.1967  0.2547
  332MOL0     C45708   9.368   9.507   5.128  0.4492 -0.4168 -0.6490
  332MOL0     O45709   9.401   9.641   5.101 -0.2860 -0.0241 -1.0945
  332MOL0     C45710   9.534   9.663   5.080 -0.1235 -0.1264  0.2743
  332MOL0     C45711   9.612   9.605   4.976 -0.1337 -0.7610 -0.8163
  332MOL0     C45712   9.749   9.632   4.969  0.3483  0.4529 -0.2453
  332MOL0     C45713   9.812   9.716   5.062  0.0724 -0.0378  0.3390
  332MOL0     O45714   9.942   9.738   5.035 -0.1690  0.4415 -0.6311
  332MOL0     C45715  10.006   9.839   5.115 -0.4221  0.4329 -1.0664
  332MOL0     C45716  10.143   9.882   5.064  0.3308 -0.1192 -0.5531
  332MOL0     C45717  10.245   9.769   5.064  0.0608  0.0269  0.5234
  332MOL0     C45718  10.392   9.809   5.032  0.1022  0.4132 -0.4417
  332MOL0     C45719  10.486   9.687   5.035 -0.7759 -0.1075  0.3466
  332MOL0     C45720  10.625   9.734   4.993 -0.0945 -0.2265  0.2447
  332MOL0     C45721  10.725   9.615   4.996  0.1996  0.0020  0.3049
  332MOL0     C45722  10.785   9.570   5.133  0.0644 -0.0497 -0.3538
  332MOL0    Cl45723  10.921   9.462   5.100  0.0671 -0.3722  0.0727
  332MOL0     C45724   9.737   9.771   5.164  0.6886 -0.1410  0.2109
  332MOL0     C45725   9.597   9.745   5.172 -0.6825  0.2820 -0.2528
  332MOL0     O45726   9.450   9.419   5.160 -0.0125  0.0176  0.2636
  332MOL0     C45727   9.125   9.555   5.162 -0.1588 -1.1128 -0.7876
  332MOL0     C45728   8.990   9.537   5.153 -0.1204 -0.1204 -0.0322
  332MOL0     N45729   8.667   8.997   5.461 -0.1586  0.3268 -0.6024
  332MOL0     N45730   8.572   8.912   5.483 -0.3128  0.1251 -0.0614
  332MOL0     C45731   7.443   8.947   5.124  0.2581  0.1194  0.0385
  332MOL0     C45732   7.307   8.941   5.082 -0.3994 -0.7971  0.6205
  332MOL0     C45733   6.954   9.047   4.840 -0.4695 -0.8948 -0.1329
  332MOL0     C45734   6.892   9.174   4.846 -0.0514 -0.1562  0.0571
  332MOL0     C45735   6.756   9.189   4.825  0.4350  0.1179 -0.1870
  332MOL0     C45736   6.674   9.080   4.810  0.6638 -0.1358  0.6456
  332MOL0     O45737   6.545   9.094   4.789  0.3213 -0.0298  0.0933
  332MOL0     C45738   6.450   9.048   4.890 -0.7901  0.0082  0.3778
  332MOL0     C45739   6.360   9.163   4.941 -0.8394  0.2121 -0.7216
  332MOL0     C45740   6.236   9.117   5.014  0.9485 -0.4385  0.8597
  332MOL0     C45741   6.143   9.244   5.041 -0.4767  0.2856 -0.3017
  332MOL0     C45742   6.045   9.209   5.148  0.6161  0.0684  0.2625
  332MOL0     C45743   5.957   9.174   5.225  0.5420 -0.1183  0.1490
  332MOL0     C45744   6.731   8.951   4.803 -0.0182  0.1534  0.1813
  332MOL0     C45745   6.870   8.934   4.825 -0.6615  0.5803  0.2682
  332MOL0     C45746   6.929   8.793   4.824 -0.3620  0.0104 -0.6097
  332MOL0     H45747   7.352   8.905   4.754  0.8109 -2.9705  1.0654
  332MOL0     H45748   7.593   8.857   4.827  0.9839 -0.0271  0.4937
  332MOL0     H45749   7.768   9.085   5.015 -3.5679 -0.1315 -0.7980
  332MOL0     H45750   7.778   8.949   4.907 -2.1273  2.1133  0.2271
  332MOL0     H45751   7.944   8.838   5.053 -0.9625 -0.1369  0.1197
  332MOL0     H45752   7.981   9.010   5.023  0.1475  1.2240  3.0099
  332MOL0     H45753   7.886   9.070   5.248  0.2846  0.6349 -0.4366
  332MOL0     H45754   7.876   8.901   5.302  1.0747  2.6889  2.9339
  332MOL0     H45755   8.138   9.010   5.206 -0.6259 -2.6221 -3.0491
  332MOL0     H45756   8.098   9.012   5.379  1.4462 -2.4573  0.1020
  332MOL0     H45757   8.143   8.772   5.205 -0.1933 -1.8122  1.1166
  332MOL0     H45758   8.092   8.764   5.380 -0.9783  0.9880  0.9360
  332MOL0     H45759   8.348   8.909   5.299 -0.5003  0.4790 -0.0915
  332MOL0     H45760   8.276   8.864   5.459  0.6140 -0.8019  0.6296
  332MOL0     H45761   8.383   8.675   5.240 -0.4670  1.7637 -0.3360
  332MOL0     H45762   8.304   8.633   5.398  0.8202  1.5846  2.0648
  332MOL0     H45763   8.477   8.684   5.539  0.5991  2.1922  0.0623
  332MOL0     H45764   8.566   8.601   5.415  1.7100  1.1310 -0.8153
  332MOL0     H45765   8.728   8.757   5.243  3.2806  0.2783  1.4431
  332MOL0     H45766   8.839   8.979   5.175 -1.7482  2.2144  0.1848
  332MOL0     H45767   8.944   8.977   5.316  0.6807  0.5532 -1.1166
  332MOL0     H45768   8.844   9.202   5.388  1.8784  0.7500  0.4827
  332MOL0     H45769   8.936   9.188   5.233 -1.3015 -0.7648 -2.8464
  332MOL0     H45770   8.703   9.161   5.123 -0.3366 -0.7486  0.4738
  332MOL0     H45771   8.633   9.187   5.281  1.6614  1.2096  1.5023
  332MOL0     H45772   8.625   9.398   5.170  0.1485 -0.7992  0.4406
  332MOL0     H45773   8.760   9.417   5.279 -1.6468 -2.6188  1.6221
  332MOL0     H45774   8.998   9.234   5.003  0.9703 -0.6650  2.5782
  332MOL0     H45775   9.335   9.212   5.090 -0.7818 -1.0180 -0.0984
  332MOL0     H45776   9.312   9.271   4.920  0.3444  0.5355 -0.0208
  332MOL0     H45777   9.219   9.143   4.983  0.4640 -0.0278 -0.6660
  332MOL0     H45778   9.571   9.535   4.905  0.6637 -0.2799 -1.7870
  332MOL0     H45779   9.803   9.579   4.892 -0.9065 -1.7905  0.3337
  332MOL0     H45780   9.945   9.928   5.135 -0.9106 -0.8012  4.7550
  332MOL0     H45781  10.027   9.794   5.213 -3.4094  0.5682 -0.2464
  332MOL0     H45782  10.126   9.925   4.966 -2.4761  1.4629  0.4910
  332MOL0     H45783  10.181   9.957   5.133 -3.5428  1.3200  0.2926
  332MOL0     H45784  10.203   9.704   4.987 -0.0679 -0.3577  0.9116
  332MOL0     H45785  10.247   9.708   5.155 -0.2756 -1.5782 -0.5046
  332MOL0     H45786  10.428   9.885   5.102 -0.9702  0.0199  0.5741
  332MOL0     H45787  10.390   9.853   4.932  1.5313 -1.3877 -1.3048
  332MOL0     H45788  10.491   9.647   5.137  0.9612  0.8810  0.6950
  332MOL0     H45789  10.455   9.622   4.953 -0.8116  1.4204 -0.9051
  332MOL0     H45790  10.665   9.822   5.044  0.2382  0.7969 -1.6797
  332MOL0     H45791  10.619   9.768   4.889 -2.7353 -1.9701 -0.2688
  332MOL0     H45792  10.817   9.632   4.939 -1.3960 -0.1010 -2.5003
  332MOL0     H45793  10.679   9.530   4.946  0.1147 -0.6139  1.4040
  332MOL0     H45794  10.702   9.528   5.190 -1.7561 -0.7583 -3.2594
  332MOL0     H45795  10.824   9.661   5.178  0.2392 -1.0180  1.5535
  332MOL0     H45796   9.783   9.834   5.239  4.0224 -3.0347  0.8583
  332MOL0     H45797   9.548   9.788   5.259  1.1554  0.0969  0.9422
  332MOL0     H45798   9.146   9.652   5.208  0.7648 -1.3584 -0.6705
  332MOL0     H45799   8.920   9.615   5.180 -0.8838  0.0061 -2.1420
  332MOL0     H45800   7.483   8.964   5.224  2.9175  3.5805 -1.4118
  332MOL0     H45801   7.232   8.956   5.159 -1.9837  2.3253 -1.3314
  332MOL0     H45802   6.960   9.258   4.849 -0.2435 -0.0155  0.5827
  332MOL0     H45803   6.721   9.290   4.806 -0.3268  0.0097  0.5900
  332MOL0     H45804   6.384   8.970   4.852  0.1254 -1.6379  1.9847
  332MOL0     H45805   6.502   9.012   4.979  0.6399  0.9496 -0.0327
  332MOL0     H45806   6.330   9.228   4.858 -1.1472  1.0281  0.0200
  332MOL0     H45807   6.428   9.223   5.003 -0.4365  0.7018 -1.6128
  332MOL0     H45808   6.184   9.039   4.957  1.5872 -0.4936  0.3475
  332MOL0     H45809   6.271   9.072   5.107  3.2835  0.2086  0.3520
  332MOL0     H45810   6.099   9.287   4.951  4.1097  2.0408 -1.9998
  332MOL0     H45811   6.210   9.321   5.080 -1.0185  0.5091  0.1924
  332MOL0     H45812   5.881   9.136   5.290  1.0715  1.2638  1.6536
  332MOL0     H45813   6.672   8.860   4.793 -0.5512  0.6788 -1.7888
  332MOL0     H45814   6.955   8.759   4.924 -2.8849 -0.9761 -0.2212
  332MOL0     H45815   6.861   8.716   4.786 -1.1194  1.1637 -1.6658
  332MOL0     H45816   7.020   8.789   4.762 -0.6135  0.2066 -0.9981
  333MOL0     O45817   6.819   1.229   7.584  0.7133  0.1979 -0.5913
  333MOL0     C45818   6.819   1.307   7.683  0.3288  0.4980 -0.6523
  333MOL0     O45819   6.942   1.352   7.743 -0.6735  0.1714  0.1724
  333MOL0     C45820   7.064   1.332   7.680 -0.1828  0.5559  0.0894
  333MOL0     C45821   7.075   1.352   7.540 -0.6659  0.1677  0.3128
  333MOL0     C45822   7.200   1.329   7.471 -0.5666 -0.1602  0.8307
  333MOL0     C45823   7.317   1.290   7.547 -0.2320 -0.1133 -0.0848
  333MOL0     O45824   7.432   1.286   7.475 -0.5027 -1.1580  1.2024
  333MOL0     C45825   7.533   1.205   7.532  0.0548  0.1481  0.0773
  333MOL0     C45826   7.637   1.189   7.428 -0.5410 -0.1242  0.6074
  333MOL0     C45827   7.764   1.116   7.498  0.4182 -0.7588 -0.6403
  333MOL0     C45828   7.779   0.979   7.440 -0.3670  0.4052 -0.1695
  333MOL0     C45829   7.879   0.887   7.518 -0.2786  0.5877  0.4177
  333MOL0     C45830   7.991   0.956   7.596  0.1258 -1.0575  0.2262
  333MOL0     C45831   8.107   1.002   7.504  0.2938 -0.0437  0.1017
  333MOL0     C45832   8.231   1.048   7.583  0.0975 -0.4419 -1.1685
  333MOL0     N45833   8.303   0.940   7.645  0.4571 -0.3817 -0.3687
  333MOL0     C45834   8.371   0.840   7.576 -0.3980 -0.1203 -0.0270
  333MOL0     C45835   8.415   0.761   7.677 -0.7186  0.4837  0.5578
  333MOL0     C45836   8.505   0.637   7.670  0.1205  0.0134 -0.5373
  333MOL0     C45837   8.452   0.535   7.778 -0.4581  0.0752 -0.2452
  333MOL0     C45838   8.513   0.393   7.770 -0.0442  1.0076  0.1245
  333MOL0     C45839   8.663   0.396   7.802  0.7707 -0.7020  0.2322
  333MOL0     O45840   8.726   0.274   7.772 -0.4488  0.1354  0.0536
  333MOL0     C45841   8.866   0.271   7.788  0.0847 -0.1687  0.2949
  333MOL0     C45842   8.923   0.146   7.782 -0.4599 -1.0110  0.1962
  333MOL0     C45843   9.062   0.124   7.804  0.4726 -0.4534  0.2045
  333MOL0     C45844   9.105  -0.031   7.811 -0.0144 -0.2303 -0.3444
  333MOL0     C45845   9.150   0.236   7.823  0.2735 -0.6321 -0.3933
  333MOL0     C45846   9.292   0.209   7.834 -0.7804 -0.3218 -0.7213
  333MOL0     O45847   9.348   0.120   7.748  0.3781  0.6260 -0.1955
  333MOL0     C45848   9.478   0.086   7.740 -0.0320  0.9723  0.2399
  333MOL0     C45849   9.514  -0.046   7.692  0.0475 -0.5091 -0.1179
  333MOL0     C45850   9.647  -0.090   7.681  0.3734 -0.1045  0.9551
  333MOL0     C45851   9.751  -0.007   7.722 -0.9520  1.1550  0.3680
  333MOL0     O45852   9.886  -0.046   7.720 -0.3096 -0.1944  0.1540
  333MOL0     C45853   9.985   0.048   7.674 -1.0791 -0.1209 -0.6663
  333MOL0     C45854  10.103  -0.022   7.620  0.9767  0.6554 -0.0983
  333MOL0     C45855  10.194  -0.065   7.735 -0.2395 -0.4422 -0.2855
  333MOL0     C45856  10.306  -0.160   7.674 -0.1769  0.0811 -0.2719
  333MOL0     C45857  10.367  -0.255   7.772  0.2362  0.1707  0.0694
  333MOL0     C45858  10.463  -0.189   7.868 -0.5937  0.2935 -0.1550
  333MOL0     C45859  10.536  -0.279   7.970  0.3443 -0.5520  1.1158
  333MOL0     C45860  10.443  -0.378   8.048 -0.3465  0.3696  0.1226
  333MOL0    Cl45861  10.554  -0.470   8.163 -0.0526  0.0003  0.0950
  333MOL0     C45862   9.716   0.118   7.766  0.3459 -0.1800 -0.0546
  333MOL0     C45863   9.583   0.169   7.778 -0.1672 -0.1289  0.0594
  333MOL0     O45864   9.345   0.266   7.928 -0.4444  0.8615 -0.1304
  333MOL0     C45865   9.090   0.362   7.844  0.4798 -0.3843 -0.5078
  333MOL0     C45866   8.951   0.382   7.828  0.7386  0.3265 -0.7909
  333MOL0     N45867   8.364   0.813   7.798  0.6810 -0.0744  0.2536
  333MOL0     N45868   8.302   0.917   7.778  0.1054 -0.2867  1.0694
  333MOL0     C45869   7.301   1.268   7.682  0.7305 -0.2780 -0.2349
  333MOL0     C45870   7.179   1.283   7.752  0.7948  0.1774  0.2657
  333MOL0     C45871   6.692   1.352   7.742  0.2083  0.3850  0.0265
  333MOL0     C45872   6.694   1.476   7.807 -0.3605 -0.3651 -0.2541
  333MOL0     C45873   6.581   1.516   7.880  0.5708  0.3161 -0.0232
  333MOL0     C45874   6.470   1.432   7.895  0.7515  0.3185 -0.5451
  333MOL0     O45875   6.357   1.458   7.975  0.2492 -0.4976  0.1152
  333MOL0     C45876   6.332   1.591   8.024  0.7162  0.4332 -0.2021
  333MOL0     C45877   6.315   1.697   7.917 -0.8112  0.3904  0.3822
  333MOL0     C45878   6.245   1.821   7.985  0.4771 -0.7790 -0.2059
  333MOL0     C45879   6.245   1.950   7.903 -0.5231 -0.1291 -0.4653
  333MOL0     C45880   6.137   1.931   7.809  0.7322 -0.0576  0.3300
  333MOL0     C45881   6.044   1.904   7.736  0.3722  0.1511 -0.0193
  333MOL0     C45882   6.461   1.319   7.807 -0.9571  0.1083 -0.7631
  333MOL0     C45883   6.566   1.283   7.720 -0.1110  0.9180  0.6850
  333MOL0     C45884   6.546   1.161   7.638  0.2300 -0.2692 -0.6248
  333MOL0     H45885   6.994   1.391   7.480 -2.5837 -3.0299  0.5736
  333MOL0     H45886   7.214   1.360   7.367 -0.3018  0.9099  1.1730
  333MOL0     H45887   7.493   1.108   7.563  1.7561 -1.6651 -2.9398
  333MOL0     H45888   7.567   1.255   7.624 -1.7249  1.8029 -0.0981
  333MOL0     H45889   7.594   1.134   7.343 -2.0446 -0.0792  1.3015
  333MOL0     H45890   7.665   1.292   7.400 -0.1341 -0.6586 -1.0942
  333MOL0     H45891   7.854   1.178   7.500  0.1471 -0.3387  1.7694
  333MOL0     H45892   7.741   1.120   7.604 -1.2220  0.4314 -0.9990
  333MOL0     H45893   7.680   0.932   7.440 -0.2161  0.0031 -2.2715
  333MOL0     H45894   7.819   0.995   7.340  0.9916 -1.9109 -0.0678
  333MOL0     H45895   7.922   0.818   7.444  0.4245  3.6386 -2.2509
  333MOL0     H45896   7.820   0.829   7.589  2.5781 -0.3113  2.2183
  333MOL0     H45897   7.949   1.035   7.659  0.0084 -1.7571  1.0460
  333MOL0     H45898   8.025   0.881   7.667 -1.6206 -2.0854  0.0579
  333MOL0     H45899   8.070   1.084   7.441 -2.6328 -1.1954  0.2023
  333MOL0     H45900   8.143   0.918   7.444  2.2445 -0.2185  1.4063
  333MOL0     H45901   8.311   1.085   7.517  1.3183  0.5067  0.7635
  333MOL0     H45902   8.197   1.123   7.654 -0.1520 -2.7067  1.2509
  333MOL0     H45903   8.381   0.833   7.468 -0.6396  0.4842 -0.0908
  333MOL0     H45904   8.606   0.670   7.698 -0.6462  0.4084  2.0214
  333MOL0     H45905   8.510   0.587   7.573  0.9798 -1.9698  0.4521
  333MOL0     H45906   8.481   0.572   7.877  1.5754  1.1545 -1.1748
  333MOL0     H45907   8.344   0.526   7.761 -0.3462  1.2946 -1.8515
  333MOL0     H45908   8.460   0.327   7.839 -1.6194 -0.6368 -2.4845
  333MOL0     H45909   8.506   0.349   7.671  5.5003 -0.1496 -0.0735
  333MOL0     H45910   8.703   0.474   7.736 -0.1130 -0.8561 -0.5085
  333MOL0     H45911   8.664   0.420   7.909  0.8337  0.3284  0.0108
  333MOL0     H45912   8.856   0.061   7.772 -1.7079  0.1904 -2.1496
  333MOL0     H45913   9.158  -0.058   7.902  1.7202 -1.5832 -1.6842
  333MOL0     H45914   9.169  -0.069   7.731  0.4681 -1.5880  0.6651
  333MOL0     H45915   9.013  -0.090   7.813  0.1517 -0.4575  0.7480
  333MOL0     H45916   9.427  -0.099   7.654 -0.5564  0.4979 -0.1874
  333MOL0     H45917   9.663  -0.188   7.639  1.3533  0.4568 -0.0439
  333MOL0     H45918   9.950   0.121   7.600  1.0564 -0.7076 -2.3310
  333MOL0     H45919  10.010   0.116   7.756  0.6860 -1.1239 -0.3383
  333MOL0     H45920  10.070  -0.106   7.559 -3.8632  1.7126  0.6563
  333MOL0     H45921  10.160   0.045   7.556  0.7081  1.5146  0.5324
  333MOL0     H45922  10.129  -0.113   7.810 -0.6877  0.6233  0.0196
  333MOL0     H45923  10.231   0.024   7.786 -2.3369  1.0881 -1.2690
  333MOL0     H45924  10.380  -0.093   7.630  0.6430  0.4267  1.5384
  333MOL0     H45925  10.265  -0.215   7.589 -1.0285  0.0102  0.1708
  333MOL0     H45926  10.286  -0.308   7.824 -0.6782  0.1887 -1.2882
  333MOL0     H45927  10.422  -0.334   7.720  0.0097  0.2561 -0.3049
  333MOL0     H45928  10.400  -0.123   7.928 -0.3980  2.8654 -2.5759
  333MOL0     H45929  10.546  -0.134   7.822 -1.4109 -1.0374 -3.4579
  333MOL0     H45930  10.591  -0.210   8.035  0.2540  1.9660 -1.2902
  333MOL0     H45931  10.602  -0.333   7.901 -0.8401 -0.0118 -0.5232
  333MOL0     H45932  10.396  -0.455   7.986  0.4040 -0.3714  0.4522
  333MOL0     H45933  10.368  -0.321   8.104 -0.5319  0.1770  0.0702
  333MOL0     H45934   9.797   0.186   7.794  1.0369 -1.1695  0.3898
  333MOL0     H45935   9.570   0.272   7.807 -1.3658 -0.2250 -0.0499
  333MOL0     H45936   9.152   0.447   7.874 -0.4847  0.2046 -0.1360
  333MOL0     H45937   8.905   0.479   7.847  0.2934 -0.3248  1.9283
  333MOL0     H45938   7.383   1.226   7.740 -0.3314 -0.1554  1.4501
  333MOL0     H45939   7.174   1.256   7.857 -0.1795 -0.3812  0.0886
  333MOL0     H45940   6.783   1.537   7.817  0.7138 -1.9055  0.0023
  333MOL0     H45941   6.591   1.613   7.928  0.7049  1.5359 -2.3722
  333MOL0     H45942   6.246   1.586   8.091 -0.1059 -2.3661 -1.2986
  333MOL0     H45943   6.419   1.599   8.089  1.2297 -4.1856  0.0451
  333MOL0     H45944   6.248   1.653   7.842 -0.4729  0.3967  0.0744
  333MOL0     H45945   6.417   1.727   7.890 -0.3942 -0.6874  0.7444
  333MOL0     H45946   6.143   1.798   8.019  0.1251  2.1192  0.9560
  333MOL0     H45947   6.305   1.837   8.075  1.5353  1.4183 -1.2367
  333MOL0     H45948   6.344   1.948   7.856  0.1108  0.9766  0.7764
  333MOL0     H45949   6.237   2.042   7.961 -1.0758 -1.5626  1.9085
  333MOL0     H45950   5.971   1.899   7.657 -1.1801 -1.4983  1.4371
  333MOL0     H45951   6.378   1.255   7.835  0.2953 -0.4858  1.9459
  333MOL0     H45952   6.558   1.187   7.532  2.9702 -0.2484 -0.3993
  333MOL0     H45953   6.608   1.077   7.671  0.8829  0.4873  0.1134
  333MOL0     H45954   6.444   1.128   7.658  0.4874  0.8387  3.5439
  334MOL0     O45955  10.194  10.012   9.587 -0.0582  0.4102 -0.1356
  334MOL0     C45956  10.215   9.969   9.475 -0.1924  0.4409 -0.1266
  334MOL0     O45957  10.338   9.960   9.417  0.1196 -0.5362  0.3515
  334MOL0     C45958  10.440  10.027   9.478 -0.4613  0.7205  0.9752
  334MOL0     C45959  10.477  10.155   9.443 -0.2331 -0.8838  0.3806
  334MOL0     C45960  10.574  10.222   9.524 -0.5225 -0.7257  0.4653
  334MOL0     C45961  10.638  10.156   9.626 -0.5175 -1.1296 -0.1697
  334MOL0     O45962  10.723  10.223   9.705  0.4219 -0.6670 -0.8386
  334MOL0     C45963  10.804  10.159   9.816 -0.0497  0.8996  1.0163
  334MOL0     C45964  10.711  10.156   9.936  0.2640  0.2761 -0.6492
  334MOL0     C45965  10.808  10.155  10.061  0.1120  0.1186 -0.9387
  334MOL0     C45966  10.815  10.290  10.130 -0.2186 -0.7886 -0.8163
  334MOL0     C45967  10.929  10.290  10.241  0.2544  0.0831  0.1644
  334MOL0     C45968  11.059  10.345  10.188 -0.8330  0.3608  0.3013
  334MOL0     C45969  11.070  10.488  10.122  0.5377 -0.4502 -0.6266
  334MOL0     C45970  11.149  10.570  10.218 -0.0635  0.3915 -0.2869
  334MOL0     N45971  11.288  10.525  10.204 -0.0072  0.1847  0.2325
  334MOL0     C45972  11.341  10.445  10.302 -0.2705  0.6091  0.5030
  334MOL0     C45973  11.480  10.452  10.275 -0.5222 -0.0798  0.0424
  334MOL0     C45974  11.594  10.391  10.349 -0.5747 -0.1870  0.8463
  334MOL0     C45975  11.732  10.455  10.326  0.3109 -1.2337 -0.5332
  334MOL0     C45976  11.743  10.581  10.418 -0.4201  0.5788 -0.9690
  334MOL0     C45977  11.889  10.622  10.423 -0.7380  0.4586  0.2862
  334MOL0     O45978  11.961  10.557  10.528 -0.8454  0.4018  0.3215
  334MOL0     C45979  12.067  10.629  10.576 -0.1916  0.2003 -0.4661
  334MOL0     C45980  12.054  10.690  10.700  0.5782 -0.0157  0.0058
  334MOL0     C45981  12.150  10.781  10.751 -0.2757 -0.3724 -1.2981
  334MOL0     C45982  12.118  10.836  10.895  0.0292 -0.4184 -0.2466
  334MOL0     C45983  12.275  10.805  10.681 -0.0924 -0.4991  0.3382
  334MOL0     C45984  12.391  10.887  10.725  0.4248 -0.4771 -0.1223
  334MOL0     O45985  12.460  10.951  10.627 -0.8771  0.8620 -0.1076
  334MOL0     C45986  12.573  11.005  10.670  0.3002  0.4390  0.2215
  334MOL0     C45987  12.566  11.124  10.742 -0.3771 -0.6177  0.3707
  334MOL0     C45988  12.688  11.182  10.774 -1.0204 -0.2498 -0.6646
  334MOL0     C45989  12.812  11.128  10.747  0.2320 -0.2987 -0.4074
  334MOL0     O45990  12.926  11.197  10.792 -0.0293  0.3660 -0.5089
  334MOL0     C45991  13.057  11.157  10.732 -0.1300  0.2603  0.7327
  334MOL0     C45992  13.155  11.256  10.781 -0.2124 -0.8231 -0.6579
  334MOL0     C45993  13.296  11.251  10.723  0.4206 -0.6678 -0.4665
  334MOL0     C45994  13.382  11.350  10.796 -0.3268  0.0544  0.0560
  334MOL0     C45995  13.530  11.364  10.741 -0.2963 -0.5975 -0.4075
  334MOL0     C45996  13.620  11.438  10.843  0.0562  0.7028  0.3271
  334MOL0     C45997  13.764  11.410  10.818 -1.0791  0.0372 -0.4257
  334MOL0     C45998  13.828  11.484  10.706  0.1043 -0.0851 -1.0571
  334MOL0    Cl45999  13.997  11.436  10.711 -0.2050 -0.0111 -0.3135
  334MOL0     C46000  12.809  11.001  10.687  0.2891  0.7145  0.1440
  334MOL0     C46001  12.694  10.948  10.648 -0.3325  1.1835  0.8356
  334MOL0     O46002  12.416  10.887  10.842 -0.6606  0.1097 -0.3518
  334MOL0     C46003  12.287  10.730  10.560 -0.3881 -0.4863 -0.0030
  334MOL0     C46004  12.182  10.647  10.509  0.7170 -0.3174 -0.7316
  334MOL0     N46005  11.499  10.531  10.162  0.2263  0.3213 -0.0509
  334MOL0     N46006  11.380  10.567  10.114 -0.5787  0.1168 -0.0694
  334MOL0     C46007  10.608  10.029   9.647 -0.6496  0.5348 -0.2505
  334MOL0     C46008  10.498   9.960   9.584  0.3350 -0.1085  0.2419
  334MOL0     C46009  10.107   9.926   9.386 -0.3243  0.5533  0.1737
  334MOL0     C46010  10.136   9.802   9.315 -0.4078 -0.5939 -0.1454
  334MOL0     C46011  10.037   9.741   9.241  0.7386  0.6128 -0.1611
  334MOL0     C46012   9.899   9.794   9.244  0.3470  0.5520 -0.4178
  334MOL0     O46013   9.808   9.725   9.166 -0.4081  1.0621 -0.5382
  334MOL0     C46014   9.685   9.787   9.123  0.8085 -0.9881  0.4520
  334MOL0     C46015   9.602   9.717   9.021  0.3874 -0.4609 -0.3238
  334MOL0     C46016   9.679   9.683   8.888 -0.4037 -0.3993  0.2706
  334MOL0     C46017   9.711   9.529   8.888  0.1963 -1.3915  0.5324
  334MOL0     C46018   9.756   9.480   8.757  0.3604  0.0024 -0.5151
  334MOL0     C46019   9.793   9.435   8.653 -0.3607 -1.1325  0.5546
  334MOL0     C46020   9.873   9.914   9.315  0.4925  0.8841  0.2307
  334MOL0     C46021   9.976   9.977   9.383  1.1319  0.3465 -0.9036
  334MOL0     C46022   9.935  10.098   9.462  0.0407  0.0469 -0.9249
  334MOL0     H46023  10.424  10.207   9.365  0.2467  0.1462  0.7190
  334MOL0     H46024  10.605  10.325   9.508  1.6785 -1.2001  1.3579
  334MOL0     H46025  10.891  10.217   9.849 -0.7292  0.7958  3.1147
  334MOL0     H46026  10.835  10.065   9.769  0.3024  0.8900  1.2611
  334MOL0     H46027  10.650  10.246   9.931  1.7473  1.3528 -0.1907
  334MOL0     H46028  10.650  10.065   9.936  0.4365  0.1597 -0.4608
  334MOL0     H46029  10.768  10.083  10.133  0.0217 -0.4614 -1.5593
  334MOL0     H46030  10.908  10.118  10.037 -0.3803 -1.8599 -0.1853
  334MOL0     H46031  10.820  10.375  10.062  3.4573  0.1741  0.3728
  334MOL0     H46032  10.720  10.299  10.184  0.4152  1.9924 -0.0308
  334MOL0     H46033  10.941  10.187  10.276 -0.1192  0.7424  2.4633
  334MOL0     H46034  10.907  10.358  10.325  0.2259 -0.6320  0.7505
  334MOL0     H46035  11.129  10.330  10.271 -0.0905 -3.2367 -0.7912
  334MOL0     H46036  11.094  10.280  10.108  0.5084  1.3368  0.0606
  334MOL0     H46037  10.970  10.532  10.119  0.7413 -0.0216 -1.0922
  334MOL0     H46038  11.113  10.476  10.022 -0.3014 -0.5124 -0.9905
  334MOL0     H46039  11.135  10.676  10.197  0.5666  0.4843 -0.2656
  334MOL0     H46040  11.123  10.554  10.323  0.1257 -2.9557 -0.6208
  334MOL0     H46041  11.291  10.389  10.380 -0.1808 -0.1239  0.0491
  334MOL0     H46042  11.597  10.286  10.317  0.3707 -0.4730  1.8102
  334MOL0     H46043  11.573  10.365  10.453  0.2206  2.0500  1.6131
  334MOL0     H46044  11.811  10.382  10.347  3.2788  1.1540 -2.6850
  334MOL0     H46045  11.758  10.496  10.229  1.5660  1.9863  1.0217
  334MOL0     H46046  11.676  10.664  10.394 -1.3107 -0.1994 -1.2347
  334MOL0     H46047  11.716  10.557  10.521  1.0977 -1.5957 -1.0180
  334MOL0     H46048  11.934  10.603  10.325  1.1973 -0.6996  1.3450
  334MOL0     H46049  11.901  10.728  10.444  0.3886  0.2228  0.9065
  334MOL0     H46050  11.957  10.674  10.747  0.7462  0.1969  0.4227
  334MOL0     H46051  12.130  10.757  10.969 -0.5833 -2.5579 -2.3310
  334MOL0     H46052  12.017  10.878  10.898  0.1771 -0.1109  1.6605
  334MOL0     H46053  12.185  10.922  10.907 -0.5127  0.0183 -0.3137
  334MOL0     H46054  12.481  11.189  10.759  0.4700  1.0464 -1.4000
  334MOL0     H46055  12.687  11.276  10.827  2.3410  0.2301 -1.2610
  334MOL0     H46056  13.087  11.055  10.758  0.1266 -0.0952 -0.8439
  334MOL0     H46057  13.053  11.168  10.623  1.5431  3.3028  0.8633
  334MOL0     H46058  13.113  11.353  10.752 -0.0914 -0.5723 -0.0282
  334MOL0     H46059  13.160  11.268  10.890 -0.5587  1.3285 -0.8175
  334MOL0     H46060  13.300  11.285  10.619 -0.7027 -2.1423 -1.0343
  334MOL0     H46061  13.342  11.152  10.724  0.9060 -0.4744 -1.8544
  334MOL0     H46062  13.394  11.332  10.903 -0.7615  0.4732  0.1801
  334MOL0     H46063  13.323  11.442  10.789 -1.8723 -0.6969  2.0775
  334MOL0     H46064  13.565  11.261  10.731  0.7503 -0.8168  3.6545
  334MOL0     H46065  13.537  11.428  10.652  1.7064  0.7765  0.6586
  334MOL0     H46066  13.597  11.406  10.945  2.2516 -1.1094  0.3170
  334MOL0     H46067  13.595  11.545  10.843 -3.3109  0.0840 -2.2457
  334MOL0     H46068  13.785  11.303  10.825  2.9308  0.7672  3.5467
  334MOL0     H46069  13.810  11.440  10.913  1.6295 -2.4659 -0.8038
  334MOL0     H46070  13.812  11.590  10.728 -2.1653 -0.8343  1.4571
  334MOL0     H46071  13.774  11.465  10.613 -1.3473  0.6572 -0.3930
  334MOL0     H46072  12.895  10.937  10.673 -1.0067 -0.8717 -1.0129
  334MOL0     H46073  12.700  10.850  10.604  0.5718  1.8229 -0.5208
  334MOL0     H46074  12.375  10.740  10.497 -0.2831  1.9372  0.4278
  334MOL0     H46075  12.194  10.594  10.415 -0.7272 -1.8932 -0.0985
  334MOL0     H46076  10.652   9.964   9.723  1.2287  1.2946 -0.6438
  334MOL0     H46077  10.459   9.862   9.607 -1.5878  0.5801  0.1204
  334MOL0     H46078  10.237   9.764   9.321 -0.1893 -0.2600 -1.3968
  334MOL0     H46079  10.050   9.656   9.175 -1.7569  1.0344 -1.3044
  334MOL0     H46080   9.629   9.817   9.212  4.8509  1.4969  2.4455
  334MOL0     H46081   9.718   9.885   9.088  2.7597 -0.6709  2.9620
  334MOL0     H46082   9.525   9.784   8.981 -0.5104 -0.0750  1.8892
  334MOL0     H46083   9.557   9.628   9.066 -0.8777  0.9822  1.3652
  334MOL0     H46084   9.614   9.719   8.807  2.1467  1.6219 -1.0447
  334MOL0     H46085   9.767   9.745   8.874  0.4358 -1.6878 -0.2812
  334MOL0     H46086   9.615   9.478   8.891 -0.0399 -1.2116 -2.0887
  334MOL0     H46087   9.780   9.490   8.964 -1.8511 -1.0068  2.7391
  334MOL0     H46088   9.825   9.399   8.557  2.1943  0.4675  0.7010
  334MOL0     H46089   9.776   9.959   9.332  0.4320  0.5676  0.7501
  334MOL0     H46090   9.859  10.156   9.410  0.6193 -0.1529 -2.0046
  334MOL0     H46091   9.903  10.082   9.566  2.0062  2.4690  0.1272
  334MOL0     H46092  10.023  10.161   9.470  0.0809 -0.1364  0.3318
  335MOL0     O46093   9.756   3.490   0.328 -0.2619 -0.5040  0.5695
  335MOL0     C46094   9.649   3.452   0.379  0.3275 -0.7048  0.7060
  335MOL0     O46095   9.637   3.429   0.515  0.2859 -0.0820  0.2099
  335MOL0     C46096   9.734   3.358   0.573 -0.2089  0.8231 -0.3147
  335MOL0     C46097   9.831   3.427   0.650  0.0463 -0.5069  0.5689
  335MOL0     C46098   9.941   3.357   0.697  0.6929 -0.3549 -0.3770
  335MOL0     C46099   9.957   3.218   0.683  0.3357  0.2838 -0.1813
  335MOL0     O46100  10.062   3.138   0.720  0.2404 -0.7677 -0.0565
  335MOL0     C46101  10.136   3.170   0.839 -0.2917 -0.1995  0.3689
  335MOL0     C46102  10.276   3.209   0.810  0.1528 -0.0815 -0.5812
  335MOL0     C46103  10.287   3.346   0.740 -0.0329 -0.2167  0.2586
  335MOL0     C46104  10.424   3.367   0.678  0.7802 -0.5394 -0.1724
  335MOL0     C46105  10.450   3.290   0.554  0.7839  0.9104  0.1123
  335MOL0     C46106  10.591   3.271   0.507 -0.0565  0.4257  0.5119
  335MOL0     C46107  10.650   3.403   0.461  0.2373 -0.8783  0.2233
  335MOL0     C46108  10.780   3.383   0.380  0.1455  0.0276  0.3214
  335MOL0     N46109  10.836   3.506   0.326 -0.5341 -1.0052  0.1399
  335MOL0     C46110  10.947   3.577   0.373 -0.3573 -0.2328  0.4540
  335MOL0     C46111  10.967   3.679   0.287  0.8007  0.5332 -0.0237
  335MOL0     C46112  11.065   3.790   0.296  0.1170  0.5411 -0.2306
  335MOL0     C46113  11.166   3.766   0.184 -0.1708 -0.5249 -0.4756
  335MOL0     C46114  11.270   3.875   0.166  0.4995  0.4426  0.3592
  335MOL0     C46115  11.379   3.822   0.072 -0.7058 -0.1637 -0.7096
  335MOL0     O46116  11.473   3.908   0.023  0.0739 -0.4251 -0.7604
  335MOL0     C46117  11.594   3.921   0.086  0.0883 -0.5761  0.1482
  335MOL0     C46118  11.688   3.981   0.013 -0.4616 -0.6371 -1.0102
  335MOL0     C46119  11.819   4.010   0.071  1.0404  0.1295 -0.5488
  335MOL0     C46120  11.926   4.083  -0.008  0.3680  0.6052  0.2133
  335MOL0     C46121  11.844   3.986   0.207  0.5030  0.0870  0.0824
  335MOL0     C46122  11.970   4.018   0.288 -0.2762  0.0878  0.7138
  335MOL0     O46123  12.081   4.062   0.217  0.1181  0.4428 -0.1514
  335MOL0     C46124  12.207   4.100   0.266 -0.2378 -0.0507  0.4633
  335MOL0     C46125  12.231   4.170   0.383 -0.3777 -0.3725  0.1047
  335MOL0     C46126  12.365   4.191   0.414 -0.3046  0.2027  0.4710
  335MOL0     C46127  12.473   4.185   0.319  0.5715 -0.4813 -0.9684
  335MOL0     O46128  12.598   4.217   0.348  0.5516 -0.1689 -0.3263
  335MOL0     C46129  12.608   4.331   0.427 -0.4435 -0.7638 -0.0511
  335MOL0     C46130  12.755   4.378   0.416  0.3571 -0.5431 -0.1310
  335MOL0     C46131  12.834   4.330   0.529 -0.1215  0.5979  0.5783
  335MOL0     C46132  12.989   4.328   0.523 -0.7081  0.6873  0.4932
  335MOL0     C46133  13.046   4.255   0.645 -0.0471 -0.0077  0.4234
  335MOL0     C46134  13.196   4.246   0.638  0.2329  0.0430  0.9196
  335MOL0     C46135  13.251   4.129   0.707  0.3784  0.1442  0.1006
  335MOL0     C46136  13.260   4.145   0.853 -0.4630 -0.1215  0.3302
  335MOL0    Cl46137  13.106   4.093   0.935 -0.0455  0.0633 -0.1541
  335MOL0     C46138  12.440   4.130   0.196  1.0953  0.9845  1.5048
  335MOL0     C46139  12.305   4.092   0.171 -0.1948 -0.0650  0.0128
  335MOL0     O46140  11.973   3.985   0.406  0.2636  0.0456 -0.0744
  335MOL0     C46141  11.731   3.925   0.277  0.3683  0.1569 -0.1080
  335MOL0     C46142  11.613   3.891   0.219  0.0254 -0.2880 -0.4229
  335MOL0     N46143  10.874   3.666   0.193 -0.2965  0.1557  0.2677
  335MOL0     N46144  10.794   3.565   0.207 -0.3256 -0.4952 -0.6724
  335MOL0     C46145   9.860   3.152   0.609 -0.2109 -0.5994 -0.1610
  335MOL0     C46146   9.750   3.216   0.551 -0.2917  0.0322  0.4954
  335MOL0     C46147   9.520   3.463   0.300  0.5307  0.3113  0.2559
  335MOL0     C46148   9.394   3.475   0.378 -0.2542 -0.4904 -0.6389
  335MOL0     C46149   9.276   3.507   0.315 -0.1828  0.3111 -0.2933
  335MOL0     C46150   9.267   3.495   0.176  0.2005  0.3380 -0.5494
  335MOL0     O46151   9.147   3.518   0.123  0.7291  0.0035 -0.0525
  335MOL0     C46152   9.139   3.617   0.019 -0.4522 -0.2488  0.1275
  335MOL0     C46153   9.093   3.759   0.062  0.2687  0.5675  0.4258
  335MOL0     C46154   8.954   3.768   0.119 -0.0841 -0.2761  0.6855
  335MOL0     C46155   8.857   3.756   0.004 -0.0778  0.6291  0.3379
  335MOL0     C46156   8.712   3.753   0.048  0.4427  0.1853 -1.5813
  335MOL0     C46157   8.590   3.749   0.073 -0.0301 -0.1935 -0.2314
  335MOL0     C46158   9.379   3.464   0.100 -0.1498  0.2009  0.2608
  335MOL0     C46159   9.510   3.452   0.159 -0.4264 -0.1234  0.4481
  335MOL0     C46160   9.626   3.430   0.062 -0.1458  0.2003 -1.3535
  335MOL0     H46161   9.822   3.527   0.692  1.6736 -0.8977  1.9944
  335MOL0     H46162  10.013   3.412   0.757 -0.0985  0.5366 -0.2060
  335MOL0     H46163  10.141   3.082   0.904  1.4627 -1.2426 -1.0862
  335MOL0     H46164  10.090   3.249   0.898  1.3309  0.8463  0.2723
  335MOL0     H46165  10.326   3.205   0.908 -0.6843  3.9715  0.1771
  335MOL0     H46166  10.310   3.134   0.738 -2.6464  1.8264 -4.2158
  335MOL0     H46167  10.219   3.347   0.654  0.8898 -0.5672 -0.4906
  335MOL0     H46168  10.266   3.425   0.812  0.1072 -0.7007  0.8382
  335MOL0     H46169  10.437   3.472   0.652 -0.2033 -0.4208 -0.2529
  335MOL0     H46170  10.498   3.345   0.755  1.5685  0.9422 -0.4861
  335MOL0     H46171  10.398   3.346   0.476 -2.0877  0.3443  1.4621
  335MOL0     H46172  10.409   3.188   0.554  0.1061  1.1724 -0.8745
  335MOL0     H46173  10.642   3.228   0.593 -1.0538 -1.0982  0.3715
  335MOL0     H46174  10.597   3.206   0.419 -0.7391  0.4799  0.4151
  335MOL0     H46175  10.680   3.461   0.549  0.5746 -2.9209  1.5207
  335MOL0     H46176  10.571   3.446   0.399 -0.7694 -2.1781  0.5663
  335MOL0     H46177  10.856   3.329   0.437 -0.7789  0.0788  1.6393
  335MOL0     H46178  10.760   3.329   0.287 -1.6452 -0.7441  1.1060
  335MOL0     H46179  10.993   3.566   0.471  1.1153  0.5139 -0.1149
  335MOL0     H46180  11.126   3.791   0.387  0.7836 -0.6066 -0.6333
  335MOL0     H46181  11.015   3.886   0.282 -4.4890 -1.7053 -1.3092
  335MOL0     H46182  11.227   3.677   0.201 -1.2963 -1.2488 -0.1619
  335MOL0     H46183  11.122   3.751   0.085  1.0990  0.8464 -1.2978
  335MOL0     H46184  11.214   3.952   0.111  0.7855  2.2101  2.3947
  335MOL0     H46185  11.311   3.925   0.255 -1.3445 -0.1392  1.6178
  335MOL0     H46186  11.437   3.742   0.120 -0.8525 -0.0436 -0.3323
  335MOL0     H46187  11.323   3.776  -0.010  1.5250 -2.4200 -1.1320
  335MOL0     H46188  11.665   4.019  -0.086  1.4665  2.5542 -0.3806
  335MOL0     H46189  12.019   4.026  -0.007  0.6995  1.1229  1.6868
  335MOL0     H46190  11.949   4.185   0.024  0.5209  1.1158 -1.4291
  335MOL0     H46191  11.907   4.077  -0.115 -0.2292 -3.2641  0.3749
  335MOL0     H46192  12.167   4.191   0.469 -1.1842 -3.9264  0.5064
  335MOL0     H46193  12.385   4.209   0.519 -2.3085 -1.6151  1.2434
  335MOL0     H46194  12.549   4.416   0.391  2.1241  1.0851 -0.1933
  335MOL0     H46195  12.584   4.311   0.532 -0.8892 -2.3530 -0.4319
  335MOL0     H46196  12.798   4.340   0.323 -2.1995  0.8861 -2.0097
  335MOL0     H46197  12.758   4.486   0.406 -1.9042 -0.5210 -0.9423
  335MOL0     H46198  12.806   4.229   0.562  3.3253 -0.0651  1.9514
  335MOL0     H46199  12.796   4.395   0.608  0.8706  2.0824 -0.1251
  335MOL0     H46200  13.029   4.428   0.507  0.6395 -0.1543 -1.7899
  335MOL0     H46201  13.019   4.275   0.432 -1.9125  1.2256 -0.2390
  335MOL0     H46202  13.012   4.313   0.731 -2.7040 -1.6019  0.5565
  335MOL0     H46203  12.999   4.157   0.659 -2.0498  0.8107 -0.1543
  335MOL0     H46204  13.245   4.338   0.670 -1.0921  0.8279  0.7245
  335MOL0     H46205  13.227   4.230   0.534  0.3699  0.4674  0.8923
  335MOL0     H46206  13.351   4.108   0.670  0.1895  0.2061 -0.4640
  335MOL0     H46207  13.192   4.041   0.680 -1.5363  1.9239 -1.9899
  335MOL0     H46208  13.274   4.252   0.874  1.1248 -0.5567  1.6751
  335MOL0     H46209  13.342   4.088   0.896 -3.1042 -3.0520  1.8955
  335MOL0     H46210  12.515   4.094   0.126  1.5137  3.4503  0.5789
  335MOL0     H46211  12.286   4.033   0.082 -2.1662  0.2640  0.1703
  335MOL0     H46212  11.738   3.876   0.374  0.5937 -2.4074 -1.3244
  335MOL0     H46213  11.537   3.849   0.285  1.3601 -0.9847  0.7180
  335MOL0     H46214   9.866   3.044   0.597 -3.1003 -0.7907 -0.6782
  335MOL0     H46215   9.698   3.158   0.476 -0.4151  2.5230 -1.4818
  335MOL0     H46216   9.389   3.482   0.487 -0.2377  0.9407 -0.7081
  335MOL0     H46217   9.187   3.520   0.375  0.5338 -0.1207  0.8904
  335MOL0     H46218   9.238   3.622  -0.027 -0.0152 -3.7611  0.3739
  335MOL0     H46219   9.070   3.575  -0.056 -1.1561  2.4476 -0.8439
  335MOL0     H46220   9.101   3.825  -0.025 -2.3974  0.8557  0.3294
  335MOL0     H46221   9.153   3.791   0.147  1.8567 -2.3508  0.5349
  335MOL0     H46222   8.934   3.694   0.198  2.5510 -1.2102  0.5805
  335MOL0     H46223   8.937   3.864   0.169 -1.8784  1.0978 -2.3047
  335MOL0     H46224   8.883   3.668  -0.056  1.6907  2.2668 -1.4676
  335MOL0     H46225   8.869   3.846  -0.056 -0.8830  2.1949  2.3965
  335MOL0     H46226   8.486   3.738   0.095  0.4381 -0.5567  2.1616
  335MOL0     H46227   9.368   3.456  -0.007 -2.6425 -2.5361  0.5848
  335MOL0     H46228   9.674   3.522   0.028  3.0832 -0.5853  0.6334
  335MOL0     H46229   9.700   3.372   0.118 -0.3144  0.3240 -0.9979
  335MOL0     H46230   9.585   3.368  -0.018 -1.2968 -2.6463  1.2308
  336MOL0     O46231   5.187   1.485   8.392 -0.0938 -0.4758 -0.9101
  336MOL0     C46232   5.171   1.531   8.286 -0.2805 -0.8026 -0.1584
  336MOL0     O46233   5.267   1.610   8.224  0.1858  0.2439 -0.4244
  336MOL0     C46234   5.382   1.636   8.299  0.2566  1.7181 -0.2305
  336MOL0     C46235   5.470   1.528   8.316  0.0024 -0.9715  1.0780
  336MOL0     C46236   5.588   1.547   8.388  0.4740 -0.4366 -0.4411
  336MOL0     C46237   5.630   1.666   8.446 -0.8246 -0.6520 -0.1446
  336MOL0     O46238   5.751   1.663   8.515  0.0755 -0.3892  0.0279
  336MOL0     C46239   5.821   1.786   8.543 -0.4701  0.7704 -0.6285
  336MOL0     C46240   5.881   1.853   8.416 -0.0735 -0.0429  0.3629
  336MOL0     C46241   5.971   1.969   8.467  0.3208  0.0694 -0.1218
  336MOL0     C46242   6.056   2.034   8.348 -0.0298 -0.7537  0.2736
  336MOL0     C46243   6.155   2.143   8.402 -0.1022 -0.1080  0.5997
  336MOL0     C46244   6.217   2.228   8.297  1.1137  0.0989 -0.1827
  336MOL0     C46245   6.299   2.341   8.361  0.3316 -0.8139 -0.3287
  336MOL0     C46246   6.357   2.455   8.271  0.1068 -0.2652 -1.4523
  336MOL0     N46247   6.477   2.417   8.187  0.0107  0.0422  0.3037
  336MOL0     C46248   6.468   2.347   8.069 -0.1346 -0.7901  0.1958
  336MOL0     C46249   6.600   2.345   8.018  0.1808 -1.1746 -0.4528
  336MOL0     C46250   6.640   2.288   7.890 -0.6908  0.2783  0.0823
  336MOL0     C46251   6.718   2.158   7.910 -0.6089  0.6664 -0.6223
  336MOL0     C46252   6.626   2.056   7.983 -0.5452  0.2199 -0.5896
  336MOL0     C46253   6.726   1.946   8.043 -0.0547  0.2953  0.5239
  336MOL0     O46254   6.809   1.888   7.936  0.3427 -0.1736  0.3386
  336MOL0     C46255   6.910   1.796   7.981 -0.2263  0.1598  0.7846
  336MOL0     C46256   6.937   1.753   8.116 -0.0845  0.3631 -0.3110
  336MOL0     C46257   7.026   1.638   8.144  0.8971 -0.3095 -0.0128
  336MOL0     C46258   7.042   1.615   8.292 -0.5081  0.0661 -0.1353
  336MOL0     C46259   7.089   1.578   8.033 -0.1585  0.0490  0.0186
  336MOL0     C46260   7.178   1.468   8.053 -0.1196  0.2337  0.4998
  336MOL0     O46261   7.287   1.480   7.976 -0.2418  0.9147  0.4480
  336MOL0     C46262   7.399   1.400   7.990 -0.8188 -0.6714 -0.2786
  336MOL0     C46263   7.422   1.289   8.071  0.2269 -0.7756  0.4186
  336MOL0     C46264   7.534   1.210   8.058  0.0430  0.2100  0.1545
  336MOL0     C46265   7.627   1.244   7.957 -0.1107  0.8885  0.0198
  336MOL0     O46266   7.749   1.184   7.931  0.2422 -0.6924  0.6971
  336MOL0     C46267   7.818   1.119   8.042  0.2405  0.2199  0.5303
  336MOL0     C46268   7.949   1.072   8.003  0.3289 -0.4990 -0.3775
  336MOL0     C46269   7.997   0.966   8.095 -0.1237 -0.1883 -1.1696
  336MOL0     C46270   8.125   0.898   8.054  0.0950 -0.1558 -0.3180
  336MOL0     C46271   8.173   0.804   8.164 -0.3382  0.5389 -0.4537
  336MOL0     C46272   8.264   0.695   8.108  0.4410 -0.1909  1.1037
  336MOL0     C46273   8.324   0.606   8.214 -0.1750  0.4608 -0.7144
  336MOL0     C46274   8.410   0.491   8.169 -0.0086  0.7374 -0.5203
  336MOL0    Cl46275   8.441   0.387   8.302  0.4575 -0.2951  0.1036
  336MOL0     C46276   7.611   1.355   7.882  0.7488 -0.2330  0.7718
  336MOL0     C46277   7.500   1.440   7.902 -0.4087 -0.5204 -0.4461
  336MOL0     O46278   7.143   1.372   8.123  0.2629 -0.1330 -0.5090
  336MOL0     C46279   7.064   1.627   7.905 -0.6835 -0.0031  0.3471
  336MOL0     C46280   6.978   1.733   7.876  0.3959  0.6615 -0.4346
  336MOL0     N46281   6.681   2.425   8.105 -0.5355  0.4483  0.1863
  336MOL0     N46282   6.604   2.468   8.203  0.6486 -0.4092 -0.0308
  336MOL0     C46283   5.543   1.779   8.423 -0.7645  0.2320  0.2870
  336MOL0     C46284   5.425   1.754   8.353  0.2916 -0.1754 -0.0493
  336MOL0     C46285   5.065   1.471   8.196 -0.8443 -0.5590 -0.6007
  336MOL0     C46286   5.099   1.404   8.077 -0.1195 -0.6918  0.7099
  336MOL0     C46287   5.002   1.373   7.984 -0.0415  0.1041  0.0664
  336MOL0     C46288   4.868   1.391   8.015  0.6957  0.0425  0.0610
  336MOL0     O46289   4.758   1.342   7.948 -0.2493  0.3600 -0.6655
  336MOL0     C46290   4.791   1.243   7.847  0.4361  0.2427 -0.0846
  336MOL0     C46291   4.665   1.155   7.809  0.6147 -1.0702  0.0820
  336MOL0     C46292   4.570   1.231   7.718 -0.5260  0.1226 -0.1785
  336MOL0     C46293   4.474   1.126   7.658  0.4767  0.4552 -0.2492
  336MOL0     C46294   4.420   1.174   7.534  0.0136 -0.2351  0.7744
  336MOL0     C46295   4.370   1.216   7.426 -0.3764  0.0755 -0.8635
  336MOL0     C46296   4.824   1.447   8.135  0.3237 -0.2624 -0.2192
  336MOL0     C46297   4.926   1.487   8.229  0.8038  0.1662  0.3244
  336MOL0     C46298   4.885   1.551   8.362  0.3699  0.2843  0.5888
  336MOL0     H46299   5.442   1.433   8.273 -1.7048 -0.1943  0.4035
  336MOL0     H46300   5.641   1.452   8.384  0.5508 -0.4192  0.0656
  336MOL0     H46301   5.898   1.753   8.613 -0.2046  1.6583 -0.4822
  336MOL0     H46302   5.754   1.850   8.601  0.0355  1.4003 -0.7275
  336MOL0     H46303   5.929   1.768   8.366  0.4100  0.3626  0.1382
  336MOL0     H46304   5.805   1.895   8.350  0.7032  3.0032  1.2693
  336MOL0     H46305   5.902   2.042   8.511  0.2902  0.3815 -0.6820
  336MOL0     H46306   6.032   1.928   8.548  1.0879  0.0153 -0.7118
  336MOL0     H46307   6.122   1.962   8.298  1.0107  0.8218 -0.7441
  336MOL0     H46308   5.988   2.082   8.277 -0.6525 -1.0057  0.6993
  336MOL0     H46309   6.237   2.097   8.457 -0.2111 -1.8541 -0.6408
  336MOL0     H46310   6.102   2.209   8.471  0.5791  0.3602  0.6914
  336MOL0     H46311   6.287   2.167   8.238 -1.5645 -2.3053 -1.0877
  336MOL0     H46312   6.137   2.262   8.231  1.6889 -1.9173 -2.0449
  336MOL0     H46313   6.389   2.303   8.410 -0.3022  0.0678  1.6293
  336MOL0     H46314   6.234   2.390   8.434 -0.1563  0.5621 -1.6322
  336MOL0     H46315   6.280   2.490   8.202 -0.2906  0.1664 -0.8010
  336MOL0     H46316   6.392   2.539   8.332  1.6750 -2.0198  0.2045
  336MOL0     H46317   6.384   2.304   8.015  0.5296  0.4409 -1.9035
  336MOL0     H46318   6.710   2.349   7.831  0.3568 -3.5058 -2.9956
  336MOL0     H46319   6.566   2.257   7.816  0.4892 -1.3005 -0.4990
  336MOL0     H46320   6.763   2.114   7.821 -0.8271 -2.3180  0.6180
  336MOL0     H46321   6.804   2.189   7.971  0.2698  0.7356 -1.8688
  336MOL0     H46322   6.572   2.094   8.070 -1.7843 -3.1651  0.2798
  336MOL0     H46323   6.556   2.015   7.909 -0.5224  0.0493 -0.5153
  336MOL0     H46324   6.784   1.996   8.120  2.4092 -0.6289 -0.6221
  336MOL0     H46325   6.680   1.861   8.094  0.3996 -0.7100 -0.6616
  336MOL0     H46326   6.885   1.797   8.201  0.9417 -1.5316  1.3941
  336MOL0     H46327   7.057   1.711   8.343  0.6746 -0.6679  0.9490
  336MOL0     H46328   7.131   1.556   8.313  1.0257  2.3618  0.1701
  336MOL0     H46329   6.955   1.560   8.330  1.1247 -2.9262 -0.4444
  336MOL0     H46330   7.351   1.254   8.146  0.5593  0.2742  1.2415
  336MOL0     H46331   7.547   1.118   8.115 -1.6660 -1.2505 -1.6460
  336MOL0     H46332   7.824   1.196   8.119 -1.7638  0.7707  0.1908
  336MOL0     H46333   7.761   1.035   8.083  1.3903 -1.0847 -0.4379
  336MOL0     H46334   7.942   1.028   7.903 -2.8038 -1.5693  0.1970
  336MOL0     H46335   8.028   1.147   7.997  0.8358 -0.6794  2.7623
  336MOL0     H46336   7.923   0.887   8.112  1.1459 -1.2849 -0.4876
  336MOL0     H46337   8.011   1.008   8.195  0.8498 -1.7238 -0.6268
  336MOL0     H46338   8.199   0.977   8.037 -0.0480  0.2554  0.8741
  336MOL0     H46339   8.120   0.835   7.965 -0.7488 -1.5567  0.6718
  336MOL0     H46340   8.236   0.865   8.229  0.7227 -0.0109 -0.9475
  336MOL0     H46341   8.095   0.759   8.227  2.1980 -2.5011  0.7414
  336MOL0     H46342   8.345   0.742   8.052 -0.3616 -0.3711 -0.2546
  336MOL0     H46343   8.202   0.630   8.046 -0.1339 -0.2056  1.6862
  336MOL0     H46344   8.257   0.564   8.290  1.4208 -1.2091 -0.1663
  336MOL0     H46345   8.391   0.676   8.265 -1.7151  1.2845  0.2444
  336MOL0     H46346   8.506   0.520   8.124  1.2991 -0.0157  1.6341
  336MOL0     H46347   8.356   0.436   8.091  0.3179 -1.0508  0.4599
  336MOL0     H46348   7.687   1.389   7.812 -1.0227 -0.3701 -1.3307
  336MOL0     H46349   7.476   1.514   7.826 -1.2879 -0.7833 -0.4384
  336MOL0     H46350   7.120   1.601   7.816 -1.0702  2.5363 -0.7172
  336MOL0     H46351   6.966   1.761   7.771 -0.6848  0.5169 -0.3554
  336MOL0     H46352   5.585   1.875   8.449  2.1170 -0.8002 -0.2727
  336MOL0     H46353   5.369   1.847   8.344  0.8799  0.1803 -0.0726
  336MOL0     H46354   5.204   1.377   8.068  0.4841  1.0715  2.0317
  336MOL0     H46355   5.044   1.326   7.896  1.0244 -1.5348  1.3949
  336MOL0     H46356   4.826   1.297   7.758  0.8701 -0.8183 -0.5760
  336MOL0     H46357   4.872   1.173   7.868 -0.7809 -1.9757 -2.2502
  336MOL0     H46358   4.601   1.132   7.895 -0.9783 -0.8379 -1.0033
  336MOL0     H46359   4.706   1.070   7.753 -0.2568  0.0666 -2.4248
  336MOL0     H46360   4.508   1.307   7.766 -4.6609 -1.6506 -2.2558
  336MOL0     H46361   4.626   1.272   7.634  0.2466 -2.9670 -1.3049
  336MOL0     H46362   4.387   1.107   7.720 -0.5317 -0.9799 -1.9909
  336MOL0     H46363   4.514   1.025   7.641 -0.7273 -0.4358  1.8746
  336MOL0     H46364   4.330   1.260   7.337 -1.2325  3.1418  0.9008
  336MOL0     H46365   4.717   1.450   8.154  0.1728 -2.7378 -0.3963
  336MOL0     H46366   4.776   1.554   8.372  0.5087  1.0113  2.4048
  336MOL0     H46367   4.921   1.492   8.447  1.0736 -0.5918 -0.2944
  336MOL0     H46368   4.919   1.655   8.369  1.7191 -0.1157  0.2199
  337MOL0     O46369   6.160   6.294   3.033 -1.2772  0.4614 -0.5285
  337MOL0     C46370   6.089   6.392   3.034  0.7961  0.2171 -0.8765
  337MOL0     O46371   6.133   6.525   3.028  0.2736  0.2806 -0.0216
  337MOL0     C46372   6.271   6.547   3.007 -0.0871  0.0040  0.0057
  337MOL0     C46373   6.324   6.604   2.889 -0.7853 -0.6354  0.4195
  337MOL0     C46374   6.457   6.620   2.873 -0.6531 -0.7513  0.8860
  337MOL0     C46375   6.544   6.594   2.981  0.5520  0.5592 -0.1981
  337MOL0     O46376   6.676   6.625   2.969 -0.1345  0.0914  0.1675
  337MOL0     C46377   6.730   6.658   2.838 -0.1006 -0.6546 -0.2248
  337MOL0     C46378   6.879   6.699   2.840 -0.1021 -0.2486  0.0866
  337MOL0     C46379   6.974   6.591   2.821  0.3867  0.3385 -0.0589
  337MOL0     C46380   7.117   6.653   2.827  0.3484  0.0183  0.3993
  337MOL0     C46381   7.211   6.533   2.807  0.2232  1.0556 -0.7887
  337MOL0     C46382   7.340   6.558   2.872 -0.3076  0.3998  0.2508
  337MOL0     C46383   7.448   6.441   2.854  0.5770  0.2543  0.2541
  337MOL0     C46384   7.425   6.318   2.941 -0.4725 -0.5132 -0.2476
  337MOL0     N46385   7.532   6.218   2.909 -0.0635  0.8252  0.0808
  337MOL0     C46386   7.504   6.100   2.840 -0.3524 -0.3225  0.1397
  337MOL0     C46387   7.618   6.026   2.842 -0.0945 -0.3420 -0.0775
  337MOL0     C46388   7.639   5.886   2.775 -0.3894  0.0956  0.7506
  337MOL0     C46389   7.772   5.835   2.824 -0.7614 -0.0592 -0.5526
  337MOL0     C46390   7.796   5.697   2.768  0.0195 -0.5472  0.5547
  337MOL0     C46391   7.891   5.613   2.849  0.7825 -0.9273 -0.0186
  337MOL0     O46392   7.917   5.491   2.775  0.0117  0.7642  0.2732
  337MOL0     C46393   8.001   5.399   2.829  0.2589  0.1293  0.0790
  337MOL0     C46394   7.963   5.268   2.830  0.1828  0.0304 -1.0469
  337MOL0     C46395   8.054   5.169   2.876  1.3180  0.6359  0.8481
  337MOL0     C46396   8.000   5.028   2.880  0.6822  0.3229  0.6095
  337MOL0     C46397   8.178   5.203   2.928  0.0957  0.9508 -0.6377
  337MOL0     C46398   8.281   5.101   2.980  0.3201 -0.4037  0.5321
  337MOL0     O46399   8.389   5.153   3.050  0.4267 -0.4832 -0.3340
  337MOL0     C46400   8.494   5.072   3.085 -0.5130 -0.2959  0.2293
  337MOL0     C46401   8.572   5.005   2.982  0.8763 -0.8984 -0.7713
  337MOL0     C46402   8.676   4.918   3.001 -0.0432  0.2820 -0.1853
  337MOL0     C46403   8.708   4.892   3.133 -0.3891 -0.1988  0.2632
  337MOL0     O46404   8.805   4.802   3.179  0.0141  0.3791  0.2612
  337MOL0     C46405   8.892   4.737   3.087  0.2091  0.0547  0.2269
  337MOL0     C46406   9.006   4.836   3.065  0.3806  0.2594  0.3901
  337MOL0     C46407   9.105   4.842   3.185 -0.8017  0.2591  1.0384
  337MOL0     C46408   9.234   4.904   3.144 -0.9656  0.3918  0.1366
  337MOL0     C46409   9.336   4.899   3.258 -0.8906 -0.2682  0.5881
  337MOL0     C46410   9.464   4.978   3.229 -0.8590  0.9704  0.3693
  337MOL0     C46411   9.567   4.967   3.341  0.5149  0.3476 -1.2907
  337MOL0     C46412   9.679   5.066   3.337 -0.5351 -0.1520  0.1971
  337MOL0    Cl46413   9.780   5.031   3.486 -0.3685 -0.3980  0.0239
  337MOL0     C46414   8.633   4.946   3.238 -0.4274 -0.3538 -0.8223
  337MOL0     C46415   8.532   5.040   3.215 -0.0922  1.3866  0.0200
  337MOL0     O46416   8.259   4.985   2.978 -0.4730  0.4831 -0.2047
  337MOL0     C46417   8.207   5.339   2.948  0.0651 -0.0149 -0.4620
  337MOL0     C46418   8.120   5.434   2.901  0.2294  0.1614 -0.7188
  337MOL0     N46419   7.713   6.094   2.918 -0.4675 -0.2756 -0.5366
  337MOL0     N46420   7.656   6.206   2.963 -0.1860 -0.3854  0.1283
  337MOL0     C46421   6.493   6.535   3.091  0.4690  0.2866 -0.7560
  337MOL0     C46422   6.361   6.501   3.099  0.3049 -0.7368  0.0929
  337MOL0     C46423   5.934   6.387   3.039  0.0593 -1.2129  0.2429
  337MOL0     C46424   5.855   6.498   3.000  0.1778 -0.1156  0.4748
  337MOL0     C46425   5.715   6.493   2.990 -0.1872  0.0711 -0.1938
  337MOL0     C46426   5.645   6.381   3.030 -0.5345  0.5474  1.0715
  337MOL0     O46427   5.511   6.370   2.999 -0.1997 -0.0778  0.8896
  337MOL0     C46428   5.434   6.296   3.094 -0.1298  0.0311  0.6697
  337MOL0     C46429   5.315   6.380   3.135  0.0354  0.1095  0.1212
  337MOL0     C46430   5.227   6.303   3.224  0.5390 -0.0393  0.0751
  337MOL0     C46431   5.112   6.384   3.289 -0.3430 -0.1249  0.0031
  337MOL0     C46432   5.015   6.412   3.189 -0.5014 -0.0869 -0.2359
  337MOL0     C46433   4.931   6.424   3.101  0.1314 -0.9822  0.7903
  337MOL0     C46434   5.719   6.272   3.077 -0.2414 -0.0829  1.3863
  337MOL0     C46435   5.860   6.267   3.077  0.1281 -0.7623 -0.8775
  337MOL0     C46436   5.921   6.147   3.131 -0.3545  0.2906  0.2417
  337MOL0     H46437   6.256   6.634   2.810  2.1826 -1.1987 -2.6185
  337MOL0     H46438   6.490   6.663   2.779 -2.2218 -1.5919 -0.0961
  337MOL0     H46439   6.693   6.753   2.801  0.9554 -1.3889 -3.4881
  337MOL0     H46440   6.702   6.578   2.768  0.0477 -0.7659 -0.1592
  337MOL0     H46441   6.901   6.779   2.769 -0.8359 -1.2662 -1.3175
  337MOL0     H46442   6.898   6.744   2.938 -0.5575  0.4835 -0.1537
  337MOL0     H46443   6.962   6.526   2.908  0.5943  0.9728  0.4498
  337MOL0     H46444   6.955   6.529   2.733 -1.4027  0.8285 -0.0390
  337MOL0     H46445   7.137   6.727   2.748 -2.1768 -1.5112 -1.8453
  337MOL0     H46446   7.142   6.697   2.924  0.5177 -0.4900  0.5884
  337MOL0     H46447   7.228   6.517   2.700  0.8260  0.2066 -0.5742
  337MOL0     H46448   7.177   6.440   2.855  1.6711  0.5220 -0.7671
  337MOL0     H46449   7.379   6.646   2.820  1.8064 -1.6529 -1.8813
  337MOL0     H46450   7.322   6.579   2.978 -0.7997 -0.6570  0.3865
  337MOL0     H46451   7.551   6.472   2.875  0.4084  0.9544  0.0556
  337MOL0     H46452   7.448   6.414   2.748 -1.1401 -3.6956  1.0744
  337MOL0     H46453   7.429   6.356   3.043  4.1554  0.2739 -0.5064
  337MOL0     H46454   7.329   6.272   2.914 -0.1014 -2.3436  1.3362
  337MOL0     H46455   7.408   6.088   2.791  0.2048 -0.8353 -0.8579
  337MOL0     H46456   7.652   5.895   2.666  0.3980 -1.1178  0.7233
  337MOL0     H46457   7.557   5.820   2.806 -0.8499  1.2670  2.1164
  337MOL0     H46458   7.852   5.901   2.788  1.2245 -0.8202  2.0880
  337MOL0     H46459   7.776   5.830   2.934 -1.3913 -1.0061 -0.5652
  337MOL0     H46460   7.697   5.649   2.766 -1.2247  1.8923  0.5709
  337MOL0     H46461   7.837   5.710   2.668 -1.0864 -0.2335  0.1255
  337MOL0     H46462   7.979   5.678   2.852  0.4806 -0.3690 -1.7911
  337MOL0     H46463   7.845   5.583   2.943 -0.9305  0.2681 -0.4257
  337MOL0     H46464   7.869   5.241   2.785 -1.4831  0.4258  1.9510
  337MOL0     H46465   8.010   4.974   2.975  0.8595 -1.9240 -0.6128
  337MOL0     H46466   8.043   4.966   2.801 -0.5715 -0.6672  0.6865
  337MOL0     H46467   7.893   5.035   2.860  0.3356  0.8229  2.4889
  337MOL0     H46468   8.541   5.035   2.882 -0.8537 -1.4933 -0.4538
  337MOL0     H46469   8.728   4.869   2.919  1.4582  0.3425  0.7101
  337MOL0     H46470   8.936   4.648   3.132 -0.6949  0.1087  1.2731
  337MOL0     H46471   8.835   4.704   2.999 -3.1390 -1.7030  2.8221
  337MOL0     H46472   9.053   4.787   2.979 -2.1048 -0.9533 -0.3871
  337MOL0     H46473   8.973   4.935   3.031  1.3232  0.2737 -0.5631
  337MOL0     H46474   9.130   4.736   3.195 -1.1568 -0.2552 -2.4043
  337MOL0     H46475   9.058   4.881   3.276  0.6093 -0.1415  1.9743
  337MOL0     H46476   9.220   5.008   3.115  3.1862  0.6823 -1.5482
  337MOL0     H46477   9.277   4.856   3.056  1.2420  2.7154 -0.1796
  337MOL0     H46478   9.285   4.949   3.341 -1.7154 -1.0638  0.5747
  337MOL0     H46479   9.354   4.796   3.289 -2.8474 -0.7927  0.1221
  337MOL0     H46480   9.440   5.083   3.212 -1.3093  0.7231 -0.6016
  337MOL0     H46481   9.518   4.939   3.141  1.8808  1.0573  1.8822
  337MOL0     H46482   9.605   4.865   3.333  1.3850  0.4890  0.4733
  337MOL0     H46483   9.513   4.984   3.434  3.0004  0.3597  0.2605
  337MOL0     H46484   9.641   5.163   3.370 -2.3415 -0.1347 -1.7423
  337MOL0     H46485   9.732   5.076   3.242 -2.3840 -1.2953 -1.0022
  337MOL0     H46486   8.666   4.922   3.339  0.2331  1.8576 -0.4404
  337MOL0     H46487   8.485   5.081   3.304  1.6867 -0.2433  1.8139
  337MOL0     H46488   8.283   5.379   3.014 -0.1427 -0.7788  0.2656
  337MOL0     H46489   8.135   5.535   2.938 -1.0072 -0.6064  2.1517
  337MOL0     H46490   6.557   6.507   3.174 -2.4152  1.6520  2.1082
  337MOL0     H46491   6.321   6.447   3.185 -0.6912 -0.3845 -0.1275
  337MOL0     H46492   5.896   6.594   2.969 -4.4373  2.3620  1.1041
  337MOL0     H46493   5.666   6.580   2.948  0.0691  0.3349  0.0467
  337MOL0     H46494   5.400   6.202   3.050  0.1129  0.5361 -0.6519
  337MOL0     H46495   5.487   6.275   3.187 -1.8369 -3.3876  1.0303
  337MOL0     H46496   5.257   6.405   3.045 -1.0286  1.8161  1.2233
  337MOL0     H46497   5.346   6.473   3.183 -1.1994  0.0655  1.0804
  337MOL0     H46498   5.178   6.221   3.171 -1.4687  3.0525 -3.2989
  337MOL0     H46499   5.284   6.254   3.304 -0.1231 -1.3971 -0.2615
  337MOL0     H46500   5.151   6.480   3.326  0.3668  0.1239 -1.3495
  337MOL0     H46501   5.070   6.331   3.375  1.8346 -0.5980  0.8472
  337MOL0     H46502   4.864   6.444   3.019  3.1443  0.3325 -1.5348
  337MOL0     H46503   5.667   6.179   3.097  1.9635 -1.3278  1.7115
  337MOL0     H46504   5.967   6.107   3.040  0.6317  0.5066  0.6266
  337MOL0     H46505   5.991   6.157   3.215  0.9310 -5.5770  0.2841
  337MOL0     H46506   5.837   6.087   3.166 -2.1568  2.7294  0.3518
  338MOL0     O46507   6.071   9.902   2.565 -0.3541  0.1881 -0.4183
  338MOL0     C46508   6.169   9.834   2.587  0.7406  1.1595  0.3472
  338MOL0     O46509   6.166   9.715   2.661 -0.4943 -0.5925 -0.4379
  338MOL0     C46510   6.055   9.642   2.696 -0.5511 -0.4546  0.0414
  338MOL0     C46511   6.051   9.581   2.829  0.9253 -0.0585  0.6124
  338MOL0     C46512   5.932   9.517   2.870 -0.0072 -0.0917 -0.2526
  338MOL0     C46513   5.822   9.491   2.782 -0.0303 -0.4343 -0.5620
  338MOL0     O46514   5.701   9.430   2.806 -0.5944  0.4024 -0.2675
  338MOL0     C46515   5.699   9.383   2.944  0.5932 -0.1662 -0.5439
  338MOL0     C46516   5.561   9.343   2.985 -0.0968 -0.6469 -0.3166
  338MOL0     C46517   5.540   9.303   3.128  0.4528  0.7673 -0.7560
  338MOL0     C46518   5.630   9.198   3.191 -0.6054  0.3403 -0.4761
  338MOL0     C46519   5.585   9.166   3.332 -0.6335  0.5186 -0.2228
  338MOL0     C46520   5.644   9.031   3.382  0.2072 -0.0435 -0.4214
  338MOL0     C46521   5.801   9.026   3.395  0.2089  0.1221  0.4370
  338MOL0     C46522   5.851   9.150   3.472  0.1806  0.3376  0.2162
  338MOL0     N46523   5.980   9.115   3.538 -0.2190 -0.1438  0.1750
  338MOL0     C46524   5.993   9.080   3.672 -0.0940 -0.5623 -0.0104
  338MOL0     C46525   6.124   9.053   3.681  0.0941  0.3051  0.6819
  338MOL0     C46526   6.189   9.023   3.816 -0.1934 -0.0233  0.4375
  338MOL0     C46527   6.197   9.145   3.902 -0.3565  0.2904 -0.2395
  338MOL0     C46528   6.312   9.239   3.846 -0.1996 -0.6687 -0.5724
  338MOL0     C46529   6.434   9.177   3.794  0.1774  1.1718 -0.3526
  338MOL0     O46530   6.533   9.276   3.796  0.2398  0.0613  0.0101
  338MOL0     C46531   6.649   9.256   3.727 -0.3127  0.3573 -0.5248
  338MOL0     C46532   6.688   9.158   3.626 -0.4264 -0.3355 -0.2543
  338MOL0     C46533   6.820   9.172   3.567 -0.2540  0.4627 -0.2883
  338MOL0     C46534   6.851   9.072   3.460 -0.5830  0.2710  0.1581
  338MOL0     C46535   6.913   9.272   3.610 -0.2002  0.7615  0.2606
  338MOL0     C46536   7.056   9.273   3.563  0.7450 -0.2807 -0.8676
  338MOL0     O46537   7.105   9.400   3.560 -0.6669  0.1306  0.4611
  338MOL0     C46538   7.234   9.421   3.527 -0.7713  0.0955 -0.0055
  338MOL0     C46539   7.328   9.457   3.627  0.0905  0.2831  0.7512
  338MOL0     C46540   7.457   9.493   3.596 -0.1441 -0.6862  0.5823
  338MOL0     C46541   7.505   9.482   3.464  0.1027 -0.1608 -0.1266
  338MOL0     O46542   7.642   9.507   3.446  0.7209  0.5826  0.6860
  338MOL0     C46543   7.695   9.559   3.323  0.2995 -0.2981  0.2954
  338MOL0     C46544   7.838   9.628   3.348 -0.1058 -0.2960 -0.2634
  338MOL0     C46545   7.869   9.729   3.238 -0.9287 -1.1089 -0.0501
  338MOL0     C46546   8.008   9.804   3.251 -0.2219  0.2157 -0.0270
  338MOL0     C46547   8.059   9.884   3.128 -0.7712 -0.9340  0.9149
  338MOL0     C46548   8.180   9.974   3.141 -0.0875 -0.0173 -0.2475
  338MOL0     C46549   8.205  10.041   3.005 -0.4136  0.5183 -0.3631
  338MOL0     C46550   8.321  10.135   3.018  0.0736 -0.2670 -0.6511
  338MOL0    Cl46551   8.472  10.052   3.074  0.2027 -0.6666 -0.2216
  338MOL0     C46552   7.411   9.459   3.357  0.4691 -0.5210 -0.1135
  338MOL0     C46553   7.277   9.419   3.392  0.2046 -0.2837 -0.3436
  338MOL0     O46554   7.113   9.170   3.523 -0.8671 -0.7110 -0.7118
  338MOL0     C46555   6.872   9.359   3.710  0.4231  0.4544 -1.0110
  338MOL0     C46556   6.743   9.355   3.759 -0.0840  0.2777  0.1928
  338MOL0     N46557   6.191   9.061   3.559 -0.0163 -0.0779  0.9007
  338MOL0     N46558   6.102   9.098   3.474 -0.7637  0.0757 -0.2182
  338MOL0     C46559   5.823   9.551   2.654 -0.6947  0.0111 -0.6301
  338MOL0     C46560   5.940   9.625   2.610 -0.5468  0.3826 -0.0266
  338MOL0     C46561   6.294   9.874   2.528 -0.8000 -0.5264  0.5079
  338MOL0     C46562   6.389   9.769   2.506  0.3732  0.0183  0.5435
  338MOL0     C46563   6.511   9.801   2.456  0.4390  0.2947  0.1413
  338MOL0     C46564   6.552   9.934   2.421  0.1758 -0.3719 -0.6919
  338MOL0     O46565   6.669   9.980   2.357 -0.9281 -0.2559 -0.9664
  338MOL0     C46566   6.766   9.878   2.314 -0.3713 -0.1687  0.0214
  338MOL0     C46567   6.887   9.951   2.253 -1.2874 -0.2070 -0.4836
  338MOL0     C46568   6.972  10.042   2.339  0.0764  0.0948  0.1955
  338MOL0     C46569   7.016   9.982   2.470 -0.5739  0.2496  0.3148
  338MOL0     C46570   7.087   9.851   2.450  1.2381 -0.1251 -0.6131
  338MOL0     C46571   7.158   9.753   2.433 -0.3054 -0.2740  0.0555
  338MOL0     C46572   6.460  10.035   2.456 -0.2541 -0.1415 -0.2051
  338MOL0     C46573   6.332  10.010   2.500 -0.1604 -0.3208  0.0998
  338MOL0     C46574   6.244  10.131   2.519  0.6072  0.6118 -0.2331
  338MOL0     H46575   6.130   9.604   2.901  3.0131 -2.2661 -0.8015
  338MOL0     H46576   5.925   9.485   2.974  0.7884 -0.7901 -0.4030
  338MOL0     H46577   5.733   9.463   3.011 -1.0931 -1.7006  2.3404
  338MOL0     H46578   5.765   9.298   2.963 -1.0086 -0.9768  1.7748
  338MOL0     H46579   5.493   9.428   2.971  0.0273 -0.5994 -0.6223
  338MOL0     H46580   5.527   9.263   2.919 -5.0939  1.4447 -0.7286
  338MOL0     H46581   5.549   9.395   3.187  0.2049 -0.3819  1.1725
  338MOL0     H46582   5.438   9.277   3.157  0.9976  0.1465  0.7164
  338MOL0     H46583   5.631   9.110   3.126 -2.2423  1.1375 -1.6664
  338MOL0     H46584   5.732   9.237   3.194 -0.1731 -0.6431  3.9900
  338MOL0     H46585   5.479   9.145   3.346 -0.6132  1.4271  1.6216
  338MOL0     H46586   5.609   9.256   3.389 -1.4439  2.2313 -2.4065
  338MOL0     H46587   5.606   9.021   3.484 -0.0094 -1.0678 -0.5921
  338MOL0     H46588   5.607   8.948   3.321  3.1643 -1.6767 -0.1668
  338MOL0     H46589   5.841   9.008   3.294 -3.2733 -1.6334 -0.7920
  338MOL0     H46590   5.840   8.941   3.451 -0.7281 -1.4111 -1.1310
  338MOL0     H46591   5.853   9.236   3.404 -3.2955  2.0065  1.9711
  338MOL0     H46592   5.782   9.173   3.553 -1.1638  0.5480 -0.9506
  338MOL0     H46593   5.935   9.105   3.761 -2.0821 -2.6906 -0.6076
  338MOL0     H46594   6.282   8.970   3.793  0.3726  1.3913 -0.6507
  338MOL0     H46595   6.124   8.954   3.871 -3.4378  3.7423  1.8128
  338MOL0     H46596   6.098   9.192   3.908 -1.1741 -0.9764 -2.3947
  338MOL0     H46597   6.226   9.123   4.005 -3.5884  0.5849  0.8564
  338MOL0     H46598   6.270   9.299   3.765 -3.3492  1.6068  2.4641
  338MOL0     H46599   6.338   9.312   3.923 -2.4813 -0.6122  0.2193
  338MOL0     H46600   6.467   9.091   3.853 -3.7851 -3.2288 -3.7276
  338MOL0     H46601   6.416   9.134   3.695 -0.7707  1.3605 -0.2690
  338MOL0     H46602   6.619   9.079   3.600 -0.3034 -1.4402  2.4535
  338MOL0     H46603   6.761   9.032   3.411  0.1157  0.4767 -1.3337
  338MOL0     H46604   6.902   8.982   3.498  0.6799  0.7749 -0.2937
  338MOL0     H46605   6.925   9.111   3.390 -0.2627  1.3868  1.0890
  338MOL0     H46606   7.299   9.459   3.731 -0.3279  0.7919  0.6288
  338MOL0     H46607   7.526   9.503   3.679 -0.1513 -3.6499  1.0301
  338MOL0     H46608   7.691   9.487   3.241 -2.0611  1.8795 -1.6603
  338MOL0     H46609   7.628   9.637   3.287 -1.0431 -1.3227  0.4940
  338MOL0     H46610   7.836   9.682   3.443  1.7971 -1.4661  0.5067
  338MOL0     H46611   7.914   9.550   3.363  1.2181  0.4621 -2.5577
  338MOL0     H46612   7.795   9.809   3.250  0.5647  0.1325  1.3708
  338MOL0     H46613   7.865   9.678   3.142 -3.0367 -2.9542  0.9313
  338MOL0     H46614   8.082   9.732   3.287  0.6359  0.5236 -1.0983
  338MOL0     H46615   7.984   9.877   3.329  1.0754 -2.3735  3.0135
  338MOL0     H46616   8.087   9.815   3.048  1.4882  1.6193 -0.6330
  338MOL0     H46617   7.978   9.941   3.083  1.3725 -0.2220 -2.3528
  338MOL0     H46618   8.270   9.932   3.188 -2.9205 -3.9191  2.3402
  338MOL0     H46619   8.155  10.052   3.214  2.5111  2.5878 -1.9127
  338MOL0     H46620   8.111  10.087   2.975  0.2776  1.9110 -0.4830
  338MOL0     H46621   8.220   9.954   2.941  0.7942  0.2175  0.2854
  338MOL0     H46622   8.287  10.212   3.089  0.0534  0.8858 -1.8719
  338MOL0     H46623   8.334  10.185   2.922  0.2572  0.2088 -0.3841
  338MOL0     H46624   7.434   9.458   3.251 -0.1610  0.7292 -0.2722
  338MOL0     H46625   7.202   9.386   3.320 -1.1502 -3.2004  2.1637
  338MOL0     H46626   6.946   9.427   3.751  2.3852 -1.8459 -0.4946
  338MOL0     H46627   6.723   9.422   3.842 -0.4010  0.8157 -0.3072
  338MOL0     H46628   5.743   9.532   2.584  2.0101 -1.2409 -3.6392
  338MOL0     H46629   5.933   9.672   2.512 -2.1214 -2.7872 -1.5854
  338MOL0     H46630   6.380   9.667   2.543  0.1901 -1.0521 -2.2530
  338MOL0     H46631   6.590   9.727   2.449 -0.1663 -0.5333  1.5556
  338MOL0     H46632   6.795   9.816   2.400 -1.1859 -1.3881 -0.5605
  338MOL0     H46633   6.725   9.814   2.235  1.0963  0.0647 -0.9584
  338MOL0     H46634   6.835  10.016   2.182 -3.2810 -0.5441  0.5921
  338MOL0     H46635   6.954   9.878   2.208  1.6224  2.4689 -0.8311
  338MOL0     H46636   7.044  10.097   2.278 -2.1118 -0.2899 -2.9443
  338MOL0     H46637   6.909  10.124   2.376  5.0039  3.7101  1.6983
  338MOL0     H46638   6.931   9.969   2.538  0.9508 -3.6349  1.7912
  338MOL0     H46639   7.079  10.056   2.520 -0.4695 -0.2006  0.8613
  338MOL0     H46640   7.215   9.666   2.404 -2.6717 -1.7076 -0.6409
  338MOL0     H46641   6.484  10.139   2.436 -1.7206  0.5384  1.2986
  338MOL0     H46642   6.150  10.125   2.463  0.7700  0.8023 -0.5256
  338MOL0     H46643   6.211  10.128   2.624  2.0657  0.5040  0.2431
  338MOL0     H46644   6.308  10.217   2.501  4.3560 -1.5552  1.5646
  339MOL0     O46645   6.741   0.056   9.713  0.4739  0.1688  0.3484
  339MOL0     C46646   6.687  -0.025   9.644  0.0466  0.1303  0.1117
  339MOL0     O46647   6.750  -0.111   9.560 -0.0363  0.3199  1.1403
  339MOL0     C46648   6.881  -0.139   9.585  0.3455  0.0525 -0.5920
  339MOL0     C46649   6.923  -0.237   9.679  0.8351 -0.4468  0.0819
  339MOL0     C46650   7.062  -0.251   9.711 -0.1074 -0.1219  0.3317
  339MOL0     C46651   7.157  -0.165   9.647 -0.1781  0.3579 -0.6593
  339MOL0     O46652   7.286  -0.184   9.690  0.0942  0.3421  0.3175
  339MOL0     C46653   7.396  -0.096   9.642 -0.4188 -0.6040 -0.7577
  339MOL0     C46654   7.515  -0.116   9.741  0.7509 -0.1019  0.6119
  339MOL0     C46655   7.639  -0.041   9.691 -0.0621 -0.0421 -0.8720
  339MOL0     C46656   7.647   0.094   9.766 -0.2292 -0.2397  0.4984
  339MOL0     C46657   7.796   0.140   9.745  0.2134 -0.4955  1.5112
  339MOL0     C46658   7.823   0.265   9.824  0.3709 -0.1723  0.3235
  339MOL0     C46659   7.952   0.330   9.776 -0.0231 -0.7384  0.0335
  339MOL0     C46660   8.078   0.263   9.810 -0.8807  0.1357  0.8356
  339MOL0     N46661   8.204   0.336   9.763  0.0116 -0.4101 -0.6387
  339MOL0     C46662   8.207   0.412   9.649 -0.0578 -0.3836  0.4877
  339MOL0     C46663   8.326   0.485   9.662 -1.4639 -0.3689  0.8981
  339MOL0     C46664   8.379   0.590   9.557 -0.0553  0.2228 -0.1516
  339MOL0     C46665   8.539   0.567   9.562 -0.3851 -0.0725  0.5916
  339MOL0     C46666   8.597   0.642   9.436 -0.1693 -0.3908  0.0524
  339MOL0     C46667   8.637   0.779   9.484  0.0703 -0.7940 -0.3316
  339MOL0     O46668   8.684   0.865   9.376  0.2977 -0.1597 -0.3983
  339MOL0     C46669   8.809   0.856   9.338  0.9718  0.6196 -0.1757
  339MOL0     C46670   8.897   0.745   9.345 -0.1460  0.5919 -1.2606
  339MOL0     C46671   9.027   0.739   9.290 -0.2485 -1.0764  0.1139
  339MOL0     C46672   9.114   0.619   9.310  0.2190  0.9857  0.5659
  339MOL0     C46673   9.066   0.854   9.212 -0.2946 -0.7395 -1.4984
  339MOL0     C46674   9.194   0.859   9.147  0.1298 -1.2135  0.0866
  339MOL0     O46675   9.201   0.939   9.028 -0.1505 -0.2656 -0.1674
  339MOL0     C46676   9.324   0.988   8.983  0.3916  0.7684  0.1739
  339MOL0     C46677   9.330   1.121   8.944  0.3008 -0.6549 -0.2545
  339MOL0     C46678   9.445   1.186   8.894  0.3085  0.1023 -0.0037
  339MOL0     C46679   9.563   1.101   8.889  0.3256 -1.3725 -0.4216
  339MOL0     O46680   9.680   1.152   8.843 -0.7578 -0.1009 -1.2686
  339MOL0     C46681   9.731   1.272   8.905  0.6045 -0.2284 -0.6135
  339MOL0     C46682   9.885   1.266   8.919  0.7432  0.5760 -0.0099
  339MOL0     C46683   9.945   1.402   8.949 -0.1439  0.2551  0.2568
  339MOL0     C46684  10.081   1.380   9.015 -0.3055  0.1499 -0.4507
  339MOL0     C46685  10.170   1.505   9.017 -0.6142  0.3757 -0.4389
  339MOL0     C46686  10.121   1.620   9.101 -0.1236  0.3401  0.7644
  339MOL0     C46687  10.227   1.719   9.157 -0.4484  0.0233 -0.0592
  339MOL0     C46688  10.316   1.788   9.052  0.2338 -0.6924 -0.1308
  339MOL0    Cl46689  10.418   1.687   8.948 -0.2325  0.0941 -0.1000
  339MOL0     C46690   9.557   0.965   8.916 -0.1862 -0.0695 -0.1849
  339MOL0     C46691   9.442   0.906   8.966  0.2554 -0.1649  0.0923
  339MOL0     O46692   9.293   0.822   9.209  0.6358  0.3253  1.1133
  339MOL0     C46693   8.980   0.965   9.213  0.5440 -0.1009  0.4799
  339MOL0     C46694   8.855   0.962   9.266  1.0937  0.9101 -0.0140
  339MOL0     N46695   8.390   0.450   9.782  0.6958 -1.0604  0.4097
  339MOL0     N46696   8.315   0.369   9.835 -0.1819 -0.3148  0.3209
  339MOL0     C46697   7.111  -0.069   9.554 -0.1536  0.5338  1.0173
  339MOL0     C46698   6.973  -0.052   9.521  0.4105  0.3853  0.0927
  339MOL0     C46699   6.536  -0.016   9.646  0.1562  0.0835 -0.1264
  339MOL0     C46700   6.479   0.097   9.708  0.5682  0.4635 -0.3497
  339MOL0     C46701   6.339   0.120   9.689 -0.5435  0.8915 -0.6732
  339MOL0     C46702   6.259   0.034   9.616 -0.0286  0.3009 -0.3486
  339MOL0     O46703   6.128   0.069   9.604  1.0143 -0.7330 -0.4901
  339MOL0     C46704   6.054   0.015   9.488 -0.0867  0.3687 -0.1511
  339MOL0     C46705   5.918   0.086   9.487 -0.4774  0.8290  0.3944
  339MOL0     C46706   5.936   0.240   9.480  1.2010  0.8516 -0.6323
  339MOL0     C46707   5.806   0.320   9.497  0.2829 -0.4412 -0.1859
  339MOL0     C46708   5.831   0.464   9.495 -0.6138  0.2488  0.4255
  339MOL0     C46709   5.847   0.583   9.487  0.6978  0.0437 -0.1436
  339MOL0     C46710   6.317  -0.080   9.566 -0.8828  0.6269  0.2151
  339MOL0     C46711   6.451  -0.110   9.576 -0.1217  0.0767 -0.4503
  339MOL0     C46712   6.501  -0.227   9.505  0.6645 -0.7736 -0.3967
  339MOL0     H46713   6.850  -0.306   9.719  0.3263  0.0181 -0.0265
  339MOL0     H46714   7.087  -0.315   9.795 -1.6487  1.6806  2.2566
  339MOL0     H46715   7.375   0.011   9.651 -1.7044 -0.8786 -0.2700
  339MOL0     H46716   7.429  -0.121   9.541  1.8586  0.6864 -0.4057
  339MOL0     H46717   7.494  -0.101   9.848 -2.3898 -1.5946  0.3213
  339MOL0     H46718   7.541  -0.221   9.728  2.5206  0.5512 -1.6748
  339MOL0     H46719   7.724  -0.109   9.703 -1.1047 -1.2547 -0.1799
  339MOL0     H46720   7.635  -0.023   9.583  0.4384  1.6162 -0.6451
  339MOL0     H46721   7.582   0.158   9.705  2.5004  0.8082 -1.5033
  339MOL0     H46722   7.626   0.102   9.873  0.3063 -0.8891  0.6597
  339MOL0     H46723   7.805   0.166   9.639 -1.8279  2.5926  1.9670
  339MOL0     H46724   7.869   0.066   9.778 -0.5951 -1.5317  1.0543
  339MOL0     H46725   7.751   0.346   9.807  1.5691  1.7556  3.5555
  339MOL0     H46726   7.826   0.241   9.931  0.9039 -1.4728  0.0343
  339MOL0     H46727   7.974   0.428   9.818 -0.1615 -0.8778  0.4410
  339MOL0     H46728   7.946   0.342   9.667  1.0338 -2.3486 -0.2321
  339MOL0     H46729   8.086   0.244   9.917  4.2193  1.1671  0.8906
  339MOL0     H46730   8.101   0.170   9.756  2.3210  1.7400 -0.8856
  339MOL0     H46731   8.140   0.426   9.565  0.1844  0.6697  0.4617
  339MOL0     H46732   8.359   0.693   9.589  1.2768  0.0490  1.3506
  339MOL0     H46733   8.335   0.587   9.457  0.5586  0.7587 -0.4499
  339MOL0     H46734   8.584   0.598   9.657 -1.3862 -1.5011  1.5759
  339MOL0     H46735   8.555   0.461   9.541  0.4700 -0.1606  1.5695
  339MOL0     H46736   8.680   0.590   9.388  0.7300  2.8988 -2.3220
  339MOL0     H46737   8.514   0.661   9.367  0.1982  3.0204  0.4142
  339MOL0     H46738   8.552   0.830   9.530 -0.9947 -1.8409 -1.0946
  339MOL0     H46739   8.714   0.772   9.561 -0.7993  0.2891  0.6726
  339MOL0     H46740   8.862   0.659   9.400  1.3067 -0.8355 -2.4836
  339MOL0     H46741   9.121   0.565   9.215 -0.4319  1.2553  0.3603
  339MOL0     H46742   9.053   0.549   9.369  0.4796 -1.2923 -1.7100
  339MOL0     H46743   9.210   0.645   9.356 -0.2800  0.5002  1.9550
  339MOL0     H46744   9.246   1.187   8.964  0.0957 -0.8012 -0.6099
  339MOL0     H46745   9.436   1.289   8.862 -1.9590 -0.2807 -0.8035
  339MOL0     H46746   9.709   1.360   8.844  1.4880  2.3343  2.5212
  339MOL0     H46747   9.688   1.293   9.003  1.8892 -1.3432  0.2300
  339MOL0     H46748   9.916   1.188   8.989 -2.2399 -1.5006 -0.7860
  339MOL0     H46749   9.911   1.233   8.818  0.3336  0.3183 -0.0348
  339MOL0     H46750   9.885   1.451   9.026  0.1793 -0.4620  0.9858
  339MOL0     H46751   9.961   1.457   8.855  0.2979 -1.2978 -0.6182
  339MOL0     H46752  10.137   1.307   8.956  1.4736  0.7095  0.4547
  339MOL0     H46753  10.067   1.336   9.114  0.2691  1.8204  0.4244
  339MOL0     H46754  10.263   1.478   9.068 -1.2016  1.5081  1.3374
  339MOL0     H46755  10.191   1.538   8.915  1.1304  1.3539  0.2033
  339MOL0     H46756  10.065   1.585   9.189 -1.4122 -3.9927 -1.4852
  339MOL0     H46757  10.047   1.677   9.044 -0.9884  0.6663  2.1610
  339MOL0     H46758  10.279   1.676   9.243 -2.1790  0.7425  1.4086
  339MOL0     H46759  10.167   1.800   9.199  0.7960  0.7275  0.4011
  339MOL0     H46760  10.365   1.867   9.109 -1.4493  0.5771 -0.3610
  339MOL0     H46761  10.247   1.829   8.977 -1.3820 -2.3687  0.3570
  339MOL0     H46762   9.649   0.909   8.903  0.3377  0.7564 -0.1063
  339MOL0     H46763   9.432   0.802   8.995 -0.2415  1.0022  4.9045
  339MOL0     H46764   9.004   1.051   9.152  1.7918  1.2034  2.6741
  339MOL0     H46765   8.785   1.044   9.251 -3.7307 -2.8717 -1.0120
  339MOL0     H46766   7.188  -0.004   9.514 -1.0923  1.6567  0.9953
  339MOL0     H46767   6.932   0.025   9.457  1.1244 -0.7009 -1.7528
  339MOL0     H46768   6.531   0.177   9.760 -1.4393  0.3437  2.0456
  339MOL0     H46769   6.301   0.215   9.728 -1.8386  0.2011 -0.1656
  339MOL0     H46770   6.099   0.044   9.393 -0.3684  1.8105  0.1339
  339MOL0     H46771   6.051  -0.094   9.497 -1.1696  0.5270  2.5515
  339MOL0     H46772   5.868   0.051   9.578 -0.6600  0.7270  0.2532
  339MOL0     H46773   5.855   0.054   9.404  0.9260  1.9309 -1.1705
  339MOL0     H46774   6.003   0.278   9.557 -1.9205  2.4640  1.5214
  339MOL0     H46775   5.976   0.263   9.381  0.9002  1.5066 -0.6074
  339MOL0     H46776   5.758   0.281   9.587  0.2921 -1.3138 -0.5556
  339MOL0     H46777   5.737   0.296   9.415  0.3774 -1.1338 -0.0703
  339MOL0     H46778   5.865   0.689   9.482 -2.2981  0.6783  0.2853
  339MOL0     H46779   6.246  -0.156   9.535 -0.1225 -0.3004  0.6987
  339MOL0     H46780   6.530  -0.205   9.402  0.4868 -0.8971 -0.4745
  339MOL0     H46781   6.573  -0.278   9.570  0.5040  0.3758  0.7161
  339MOL0     H46782   6.412  -0.291   9.499 -0.1754  0.0591  1.9864
  340MOL0     O46783   7.800   6.411   6.200 -0.4948 -0.4490 -0.2312
  340MOL0     C46784   7.750   6.498   6.270  0.1627 -0.3186  0.6990
  340MOL0     O46785   7.630   6.557   6.244 -0.1873  0.3700 -0.0939
  340MOL0     C46786   7.545   6.520   6.149 -0.3206 -1.5159 -0.3522
  340MOL0     C46787   7.452   6.618   6.110 -0.5153  0.9511  0.2715
  340MOL0     C46788   7.336   6.577   6.032 -0.6222 -0.1191 -0.0108
  340MOL0     C46789   7.326   6.443   5.982  0.6081  0.2194 -0.8881
  340MOL0     O46790   7.223   6.382   5.918  0.4841 -0.0058 -0.1217
  340MOL0     C46791   7.150   6.463   5.827  0.1421 -0.0339  0.3357
  340MOL0     C46792   7.235   6.498   5.691 -0.2303  0.0598  0.0651
  340MOL0     C46793   7.188   6.631   5.632  1.2393 -0.8469  0.1045
  340MOL0     C46794   7.053   6.633   5.559 -0.4153  0.0781 -0.1084
  340MOL0     C46795   7.012   6.774   5.509  0.1909  0.8693 -0.8759
  340MOL0     C46796   7.118   6.824   5.412 -0.0391  0.2265  0.2812
  340MOL0     C46797   7.051   6.921   5.325  0.4893  0.1666  0.1743
  340MOL0     C46798   7.143   6.970   5.210 -0.0306 -0.0534 -0.1136
  340MOL0     N46799   7.236   7.075   5.266 -0.0331  0.1654 -1.1624
  340MOL0     C46800   7.360   7.038   5.314 -0.5025  0.4622  0.1853
  340MOL0     C46801   7.408   7.161   5.362 -0.0869 -0.6026  0.5373
  340MOL0     C46802   7.544   7.185   5.414 -0.4833 -0.4111  0.0996
  340MOL0     C46803   7.571   7.228   5.560 -0.0819  0.1709  0.1374
  340MOL0     C46804   7.724   7.242   5.573 -0.6649 -0.2699 -0.6759
  340MOL0     C46805   7.754   7.270   5.726 -0.5251  0.4272 -0.4730
  340MOL0     O46806   7.899   7.274   5.743 -0.1632 -0.5302 -0.4850
  340MOL0     C46807   7.943   7.286   5.875 -0.2573 -0.2323  0.0158
  340MOL0     C46808   8.075   7.299   5.906 -0.4471 -0.1196  0.2140
  340MOL0     C46809   8.123   7.319   6.035 -0.2372 -0.0251 -0.0032
  340MOL0     C46810   8.269   7.333   6.044 -0.0088  0.3586  0.1117
  340MOL0     C46811   8.034   7.330   6.139 -1.1707 -0.4634 -0.6896
  340MOL0     C46812   8.081   7.367   6.273  0.3004 -0.3988  0.2305
  340MOL0     O46813   8.173   7.285   6.325  0.1174 -0.4208 -0.4316
  340MOL0     C46814   8.218   7.318   6.445  0.9230  0.8434 -0.6686
  340MOL0     C46815   8.160   7.265   6.564 -0.1336  0.6866  0.0802
  340MOL0     C46816   8.214   7.310   6.690  0.4452 -0.3160  0.1601
  340MOL0     C46817   8.310   7.410   6.698  0.1650 -0.1446  0.4879
  340MOL0     O46818   8.355   7.435   6.830  0.0081 -0.1461 -0.8949
  340MOL0     C46819   8.445   7.536   6.857 -0.0874  0.2070 -0.6916
  340MOL0     C46820   8.426   7.584   7.005 -0.2688  0.2825  0.3859
  340MOL0     C46821   8.516   7.714   7.022  0.2805  1.0500 -0.1048
  340MOL0     C46822   8.523   7.756   7.170 -0.5318 -0.2105  0.2240
  340MOL0     C46823   8.606   7.884   7.188 -0.5567  0.0448 -0.2592
  340MOL0     C46824   8.660   7.914   7.330 -0.3622 -0.4795 -0.6298
  340MOL0     C46825   8.728   8.050   7.324 -0.7727  0.0928  0.3233
  340MOL0     C46826   8.795   8.092   7.456 -0.4184  0.4375  0.5194
  340MOL0    Cl46827   8.926   7.973   7.500 -0.1142 -0.4017 -0.0441
  340MOL0     C46828   8.370   7.454   6.585  0.5378  0.7141 -0.2174
  340MOL0     C46829   8.321   7.422   6.452  0.7131 -1.2437  0.7999
  340MOL0     O46830   8.025   7.463   6.326 -0.3816 -0.0966  0.0847
  340MOL0     C46831   7.902   7.321   6.110 -0.1403  0.2791  0.8482
  340MOL0     C46832   7.851   7.294   5.982  1.5928 -1.2880  0.6214
  340MOL0     N46833   7.321   7.264   5.345  0.8677 -0.0692 -1.0263
  340MOL0     N46834   7.208   7.208   5.301  0.0518 -0.5297 -0.5175
  340MOL0     C46835   7.416   6.353   6.023 -0.5988 -0.2335 -0.0905
  340MOL0     C46836   7.524   6.387   6.109  0.9253  0.3676  0.6130
  340MOL0     C46837   7.825   6.552   6.390 -0.6396  0.1890  0.6849
  340MOL0     C46838   7.786   6.678   6.447  0.5768  0.1232 -0.2424
  340MOL0     C46839   7.842   6.736   6.554 -0.0901  0.1748 -0.7902
  340MOL0     C46840   7.966   6.690   6.602  0.8790  0.5181  0.6732
  340MOL0     O46841   8.022   6.736   6.722 -0.2771 -0.2180  0.0875
  340MOL0     C46842   7.977   6.858   6.775 -0.3093  0.6241  0.1640
  340MOL0     C46843   8.042   6.887   6.916 -0.8253 -1.3297  0.6727
  340MOL0     C46844   7.973   7.013   6.979 -0.1437 -0.2392  0.9022
  340MOL0     C46845   8.033   7.045   7.114  0.2582  0.2438 -0.6619
  340MOL0     C46846   8.157   7.118   7.091  0.5645 -0.4483 -0.4269
  340MOL0     C46847   8.256   7.182   7.057  0.1163  0.6524 -0.0898
  340MOL0     C46848   8.021   6.579   6.532 -0.1279  0.4451  0.0914
  340MOL0     C46849   7.956   6.509   6.428 -0.7733 -0.4088  0.7623
  340MOL0     C46850   8.031   6.387   6.374  0.2891  1.0643  0.9121
  340MOL0     H46851   7.466   6.719   6.147 -1.0301  1.1462 -0.0482
  340MOL0     H46852   7.253   6.646   6.015 -0.4647  1.4831  4.3809
  340MOL0     H46853   7.113   6.555   5.873 -1.8125 -0.5644 -0.0727
  340MOL0     H46854   7.060   6.410   5.795  0.5223 -1.6023  1.7316
  340MOL0     H46855   7.338   6.522   5.716 -0.8164  0.9319  1.8434
  340MOL0     H46856   7.240   6.413   5.622  0.9647 -0.2164  0.4814
  340MOL0     H46857   7.179   6.699   5.717  1.5156  0.7761 -1.1176
  340MOL0     H46858   7.260   6.687   5.573 -0.9236  1.8498 -0.1713
  340MOL0     H46859   7.059   6.564   5.474  1.6477 -0.5122  0.4517
  340MOL0     H46860   6.978   6.598   5.631  2.0185 -1.0334  2.0381
  340MOL0     H46861   6.997   6.843   5.592  1.7216  2.6097 -1.9654
  340MOL0     H46862   6.914   6.758   5.462  0.0482 -0.2715 -0.2295
  340MOL0     H46863   7.205   6.867   5.461  1.5715 -2.6689  0.1979
  340MOL0     H46864   7.162   6.741   5.356  1.4926 -0.1056  1.9055
  340MOL0     H46865   7.015   7.009   5.380 -1.0356  0.7179 -1.6143
  340MOL0     H46866   6.962   6.877   5.281 -0.0307  0.1283  1.2496
  340MOL0     H46867   7.200   6.887   5.167 -2.1291 -0.8050 -1.6517
  340MOL0     H46868   7.083   7.016   5.130 -0.7322  0.5671  0.7506
  340MOL0     H46869   7.418   6.947   5.309 -1.3818 -0.0530 -1.4066
  340MOL0     H46870   7.590   7.261   5.351 -0.6053  1.2502  1.9162
  340MOL0     H46871   7.603   7.097   5.387 -0.2434 -1.0638  2.5432
  340MOL0     H46872   7.523   7.323   5.584 -1.7313 -0.2059 -1.4843
  340MOL0     H46873   7.531   7.158   5.634 -0.4119  1.0312  0.7929
  340MOL0     H46874   7.782   7.153   5.548 -1.6030 -1.1379  0.1222
  340MOL0     H46875   7.770   7.317   5.509  0.2588 -1.9897 -2.1409
  340MOL0     H46876   7.707   7.366   5.749  0.4151  1.1108 -1.3018
  340MOL0     H46877   7.703   7.196   5.789 -1.2900  0.4993 -1.0009
  340MOL0     H46878   8.144   7.295   5.823  0.9942  0.0447  1.3644
  340MOL0     H46879   8.321   7.350   5.950 -1.4886  1.5836 -0.5289
  340MOL0     H46880   8.312   7.248   6.099 -0.7321 -0.3182 -0.3469
  340MOL0     H46881   8.302   7.415   6.109  2.3825  0.1426 -0.7298
  340MOL0     H46882   8.078   7.194   6.563 -3.2478  3.9297  2.2633
  340MOL0     H46883   8.173   7.267   6.780 -1.2557 -0.7556 -0.7731
  340MOL0     H46884   8.549   7.504   6.841 -0.7838 -1.6833 -1.6733
  340MOL0     H46885   8.436   7.628   6.798 -0.6510  1.4143  1.1686
  340MOL0     H46886   8.318   7.601   7.016 -0.9105 -3.6057  1.4135
  340MOL0     H46887   8.459   7.499   7.065  0.5839  1.0196  0.9824
  340MOL0     H46888   8.476   7.796   6.960  1.5833  1.3705 -0.5557
  340MOL0     H46889   8.614   7.701   6.977  0.5148  0.8796  0.4452
  340MOL0     H46890   8.568   7.679   7.232 -2.5591 -0.4030  1.5481
  340MOL0     H46891   8.424   7.774   7.214 -0.4630  0.6785  0.0373
  340MOL0     H46892   8.691   7.889   7.120 -0.6126  1.0843 -0.2620
  340MOL0     H46893   8.533   7.960   7.159  0.6895  0.6110 -2.0725
  340MOL0     H46894   8.729   7.841   7.374  1.7474  0.8099 -1.6444
  340MOL0     H46895   8.576   7.925   7.399  0.6936 -1.9275  0.9552
  340MOL0     H46896   8.662   8.132   7.294  0.9811  1.7628  0.8080
  340MOL0     H46897   8.810   8.053   7.251 -1.4017  0.3367 -0.3919
  340MOL0     H46898   8.710   8.102   7.523 -0.4706 -1.1262  0.7153
  340MOL0     H46899   8.838   8.191   7.437 -1.9590  0.6050 -2.7882
  340MOL0     H46900   8.449   7.529   6.584  0.6356  0.6503  0.8845
  340MOL0     H46901   8.369   7.471   6.368  0.7108  0.1121  1.5616
  340MOL0     H46902   7.843   7.336   6.200 -0.2746  1.1816  0.6262
  340MOL0     H46903   7.743   7.294   5.973  1.6537  1.1932 -1.2147
  340MOL0     H46904   7.401   6.247   6.006 -0.4144 -0.6548  2.0969
  340MOL0     H46905   7.578   6.299   6.143  2.1466  1.1110  0.6605
  340MOL0     H46906   7.694   6.712   6.400 -0.6901 -2.0048  0.5416
  340MOL0     H46907   7.802   6.831   6.585 -0.7227 -0.5407  0.6541
  340MOL0     H46908   8.002   6.933   6.700  1.3185 -0.3962 -0.3723
  340MOL0     H46909   7.868   6.858   6.788 -0.2102  0.6390  1.0837
  340MOL0     H46910   8.148   6.905   6.897 -1.2222 -0.5445 -1.0156
  340MOL0     H46911   8.021   6.796   6.972  1.1596 -0.7334  2.5275
  340MOL0     H46912   7.985   7.099   6.912 -0.0836 -1.4406 -0.6852
  340MOL0     H46913   7.864   7.003   6.992 -0.1760  0.5912  1.3672
  340MOL0     H46914   8.049   6.960   7.180  1.3365  1.3780  0.6186
  340MOL0     H46915   7.967   7.114   7.167 -0.4316 -1.2986  0.5483
  340MOL0     H46916   8.352   7.225   7.036 -0.5558  1.5536 -1.4629
  340MOL0     H46917   8.120   6.541   6.553 -0.6794 -1.4193 -0.4447
  340MOL0     H46918   7.968   6.299   6.365  0.7772  0.8586 -1.0074
  340MOL0     H46919   8.067   6.408   6.272 -0.3339  1.5064  0.7785
  340MOL0     H46920   8.111   6.358   6.443 -0.5555 -0.4898  1.2865
  341MOL0     O46921   5.128   4.179  11.274  0.6188  0.1918  0.2680
  341MOL0     C46922   5.083   4.075  11.227  0.6093  0.3589 -0.5361
  341MOL0     O46923   5.152   3.990  11.143  0.4946  0.3498  0.1178
  341MOL0     C46924   5.276   4.024  11.091 -0.1091  0.4779 -0.5334
  341MOL0     C46925   5.301   4.007  10.955  0.9110  0.0491 -0.1924
  341MOL0     C46926   5.432   4.023  10.900  0.3678  0.0655 -0.2057
  341MOL0     C46927   5.540   4.054  10.988  0.7812 -0.2358  0.6606
  341MOL0     O46928   5.669   4.062  10.933 -0.3704  0.3613  0.0108
  341MOL0     C46929   5.774   4.112  11.016 -0.1669  0.3165 -0.6834
  341MOL0     C46930   5.880   4.173  10.932 -0.4220  0.7695  0.6702
  341MOL0     C46931   5.976   4.255  11.023 -0.6375  0.3964 -0.0226
  341MOL0     C46932   5.918   4.396  11.053 -0.6471  0.9275 -0.0831
  341MOL0     C46933   6.019   4.491  11.095  0.0897  0.0038  0.2313
  341MOL0     C46934   5.960   4.620  11.154  0.5548  0.1006  0.3013
  341MOL0     C46935   6.072   4.713  11.207  0.6167 -0.3579 -0.4887
  341MOL0     C46936   6.154   4.762  11.082 -0.2864 -0.4289 -0.8394
  341MOL0     N46937   6.266   4.848  11.119  0.3700 -0.1070  0.7997
  341MOL0     C46938   6.318   4.952  11.044  1.0561 -0.4188 -0.0094
  341MOL0     C46939   6.430   4.982  11.108 -0.1293  0.4077 -1.0160
  341MOL0     C46940   6.531   5.089  11.078  0.0561 -0.6644 -0.1345
  341MOL0     C46941   6.524   5.195  11.193  0.7791  0.1002  1.2754
  341MOL0     C46942   6.584   5.329  11.156  0.1597  0.0947 -0.4590
  341MOL0     C46943   6.736   5.329  11.135 -0.2396  0.3196  0.1504
  341MOL0     O46944   6.760   5.369  11.002  0.0220  0.3218 -0.2922
  341MOL0     C46945   6.886   5.411  10.958 -0.3431  0.2699 -0.3340
  341MOL0     C46946   6.882   5.474  10.836 -0.1270 -0.9696  0.1632
  341MOL0     C46947   6.998   5.526  10.770  0.1177  1.1042 -0.5291
  341MOL0     C46948   6.987   5.615  10.649  0.3004  0.0874 -0.3147
  341MOL0     C46949   7.124   5.497  10.830 -1.0461  0.2103 -0.2442
  341MOL0     C46950   7.257   5.532  10.773 -0.2770  0.5180 -0.7119
  341MOL0     O46951   7.372   5.496  10.845 -0.5353  0.0860  0.5728
  341MOL0     C46952   7.500   5.515  10.792 -0.0685  0.0755 -1.1418
  341MOL0     C46953   7.549   5.448  10.676 -0.3303  0.2537 -0.0340
  341MOL0     C46954   7.677   5.486  10.623  1.1554  0.6532  0.0594
  341MOL0     C46955   7.766   5.568  10.690  0.9073 -0.1785 -0.2655
  341MOL0     O46956   7.889   5.598  10.637  0.0132  0.3497  0.1785
  341MOL0     C46957   7.962   5.479  10.595 -0.1604 -0.9448  0.3463
  341MOL0     C46958   8.107   5.522  10.569  0.2682 -0.1023  0.0734
  341MOL0     C46959   8.196   5.419  10.519  0.1125  0.7618 -0.5686
  341MOL0     C46960   8.340   5.463  10.525 -0.0540  0.7167 -0.5479
  341MOL0     C46961   8.424   5.345  10.483 -0.5678  0.3808  0.2062
  341MOL0     C46962   8.569   5.376  10.525 -0.3797  0.2821 -0.2131
  341MOL0     C46963   8.635   5.509  10.466  0.1396  0.0203  0.1438
  341MOL0     C46964   8.777   5.523  10.492 -0.1159 -0.1222 -0.8188
  341MOL0    Cl46965   8.877   5.403  10.401 -0.1766 -0.1425 -0.1418
  341MOL0     C46966   7.715   5.628  10.810  0.2806 -0.1629 -0.4787
  341MOL0     C46967   7.584   5.607  10.860  0.7929 -0.8664  0.6635
  341MOL0     O46968   7.264   5.584  10.662 -0.0962 -0.2918  0.7492
  341MOL0     C46969   7.124   5.412  10.948  0.4329 -0.2924 -0.7215
  341MOL0     C46970   7.010   5.377  11.011  1.3792  0.8615  0.1161
  341MOL0     N46971   6.447   4.902  11.223  0.4044  0.2577 -0.1029
  341MOL0     N46972   6.343   4.816  11.226  0.4364 -0.0156 -0.4158
  341MOL0     C46973   5.516   4.069  11.123  0.0634  0.5984  0.1134
  341MOL0     C46974   5.386   4.054  11.178  0.0029  0.1100  0.3946
  341MOL0     C46975   4.944   4.039  11.252 -0.3169  0.2671 -0.3572
  341MOL0     C46976   4.881   3.947  11.166  0.1252  0.2590  0.1123
  341MOL0     C46977   4.749   3.911  11.178  0.4009 -0.0739 -0.8378
  341MOL0     C46978   4.670   3.949  11.292 -0.3861 -0.0497  0.2545
  341MOL0     O46979   4.536   3.928  11.310  0.3536  0.3175 -0.7105
  341MOL0     C46980   4.477   3.807  11.261 -0.2575 -0.2756  0.3597
  341MOL0     C46981   4.403   3.838  11.128 -0.5458  0.5651  0.0791
  341MOL0     C46982   4.259   3.762  11.125  0.1814 -0.4968  0.3901
  341MOL0     C46983   4.161   3.854  11.043 -0.5518 -0.1026 -0.0098
  341MOL0     C46984   4.026   3.803  11.064 -0.4436 -0.2213 -0.2854
  341MOL0     C46985   3.913   3.763  11.080 -0.0658  0.0645 -0.8786
  341MOL0     C46986   4.726   4.047  11.378  0.7169  0.5880 -0.0399
  341MOL0     C46987   4.860   4.086  11.362 -0.1803 -0.3651 -0.3197
  341MOL0     C46988   4.918   4.187  11.464 -0.4169  0.4314 -0.5459
  341MOL0     H46989   5.220   3.977  10.889 -1.0153  1.3424  1.4529
  341MOL0     H46990   5.461   3.997  10.798  2.2837 -1.8985  0.7468
  341MOL0     H46991   5.815   4.029  11.075 -0.7889 -0.6334 -1.5452
  341MOL0     H46992   5.740   4.191  11.083  3.0380  1.7066 -0.5381
  341MOL0     H46993   5.928   4.098  10.869  0.7014  1.2791  0.9004
  341MOL0     H46994   5.831   4.230  10.852 -0.5790 -1.8556 -1.2154
  341MOL0     H46995   5.991   4.202  11.118 -2.6010  0.3613  0.3125
  341MOL0     H46996   6.073   4.257  10.972  1.1057 -2.1236  2.8550
  341MOL0     H46997   5.866   4.431  10.964 -0.5647  0.4863 -0.3095
  341MOL0     H46998   5.841   4.383  11.131 -0.0423 -0.5065  0.3065
  341MOL0     H46999   6.078   4.515  11.006 -1.1040  0.7282 -0.3854
  341MOL0     H47000   6.084   4.454  11.175 -1.2371 -2.0280  0.4247
  341MOL0     H47001   5.889   4.670  11.088 -0.6238 -2.3803 -0.4223
  341MOL0     H47002   5.904   4.586  11.242  3.8912  0.1604  2.6257
  341MOL0     H47003   6.132   4.650  11.273  0.0379 -0.2348  0.1665
  341MOL0     H47004   6.040   4.801  11.264  0.1480  0.9644 -2.7007
  341MOL0     H47005   6.201   4.675  11.036  0.6882 -1.1782  1.4421
  341MOL0     H47006   6.089   4.814  11.011  0.5077 -1.7979 -2.6579
  341MOL0     H47007   6.285   4.995  10.949  1.7417 -0.1682 -0.1375
  341MOL0     H47008   6.510   5.135  10.981  0.7487  0.7391  0.3442
  341MOL0     H47009   6.635   5.056  11.079  0.2178 -0.6858 -4.0315
  341MOL0     H47010   6.418   5.210  11.217  0.4468 -2.1110  1.4025
  341MOL0     H47011   6.574   5.140  11.273  1.9226 -0.6590  0.0936
  341MOL0     H47012   6.526   5.362  11.069  0.1331  2.5869  0.4246
  341MOL0     H47013   6.564   5.397  11.240  0.9521 -1.0284  0.6807
  341MOL0     H47014   6.782   5.414  11.186  0.1384  0.5730 -0.6068
  341MOL0     H47015   6.781   5.231  11.154  1.5781  0.5485 -2.4552
  341MOL0     H47016   6.782   5.487  10.796  0.0003  0.2155  0.1816
  341MOL0     H47017   6.883   5.646  10.642  0.1850 -0.2512 -0.0639
  341MOL0     H47018   7.005   5.562  10.555  0.1116  0.5695 -0.6224
  341MOL0     H47019   7.039   5.709  10.670 -3.3890  2.3878 -0.6163
  341MOL0     H47020   7.485   5.385  10.615  0.7700 -0.7661 -0.1607
  341MOL0     H47021   7.712   5.429  10.537 -2.2819 -2.0566  0.2482
  341MOL0     H47022   7.957   5.407  10.677 -1.4585  0.6199  1.7006
  341MOL0     H47023   7.909   5.439  10.508  1.3520  0.1460 -1.1402
  341MOL0     H47024   8.098   5.609  10.503 -0.8968 -0.6463 -0.5096
  341MOL0     H47025   8.142   5.568  10.661 -1.2772  0.3095  0.4788
  341MOL0     H47026   8.158   5.396  10.419 -1.7587  0.2622  0.2293
  341MOL0     H47027   8.179   5.333  10.584 -3.0144  1.1433 -0.7388
  341MOL0     H47028   8.363   5.492  10.628 -2.1629 -0.5988  0.3720
  341MOL0     H47029   8.348   5.541  10.450 -1.5512 -0.0456 -1.5697
  341MOL0     H47030   8.387   5.251  10.523  1.9849 -0.7256  0.1346
  341MOL0     H47031   8.424   5.336  10.374  1.5601  2.4379 -0.0323
  341MOL0     H47032   8.638   5.293  10.506 -0.1794  0.2373  0.6615
  341MOL0     H47033   8.560   5.378  10.634  0.7067  0.0950 -0.1130
  341MOL0     H47034   8.585   5.600  10.500  0.3633  2.0799 -4.3913
  341MOL0     H47035   8.621   5.515  10.358 -0.2537  2.7371  0.2755
  341MOL0     H47036   8.786   5.526  10.601 -1.2062  1.8373 -0.7492
  341MOL0     H47037   8.806   5.623  10.459  3.3228 -0.6891  0.0111
  341MOL0     H47038   7.788   5.689  10.862  1.0011 -0.7067 -0.8225
  341MOL0     H47039   7.553   5.663  10.948  0.4840  0.4620 -0.2660
  341MOL0     H47040   7.216   5.377  10.993 -1.0093 -2.2218  0.8684
  341MOL0     H47041   7.023   5.322  11.104 -1.7507 -0.1250  0.0977
  341MOL0     H47042   5.593   4.094  11.195  1.0772 -1.0809 -0.3312
  341MOL0     H47043   5.362   4.075  11.281  2.3436  0.1032  1.0112
  341MOL0     H47044   4.939   3.902  11.086  2.4190  2.8815  0.1523
  341MOL0     H47045   4.692   3.848  11.111  1.5998 -0.6686 -1.3273
  341MOL0     H47046   4.559   3.741  11.231 -0.6498  1.0896 -4.5013
  341MOL0     H47047   4.402   3.766  11.328  0.9198  1.1700  2.7288
  341MOL0     H47048   4.476   3.803  11.055  0.6394  0.0046  1.4629
  341MOL0     H47049   4.392   3.946  11.115  1.7483  0.8023 -0.3526
  341MOL0     H47050   4.250   3.661  11.085 -1.4131  0.2245 -1.2020
  341MOL0     H47051   4.231   3.750  11.230  1.8347 -1.4458  0.7589
  341MOL0     H47052   4.183   3.838  10.937 -1.0679 -2.8531  0.2029
  341MOL0     H47053   4.171   3.958  11.076  2.1254 -0.6898  1.3161
  341MOL0     H47054   3.820   3.712  11.100 -1.0369  1.5000 -1.5536
  341MOL0     H47055   4.656   4.086  11.452  0.3755  0.4354 -0.2789
  341MOL0     H47056   5.022   4.161  11.490 -1.3242 -1.0570  2.0108
  341MOL0     H47057   4.915   4.294  11.440  0.3616  1.0108  1.6902
  341MOL0     H47058   4.865   4.169  11.558 -2.7041  0.2288 -1.8048
  342MOL0     O47059   8.500   8.801   9.761  0.8939  0.5988  0.3843
  342MOL0     C47060   8.386   8.786   9.818 -0.2232 -0.3766  0.3511
  342MOL0     O47061   8.373   8.790   9.958  0.0212  0.1191 -0.0080
  342MOL0     C47062   8.485   8.773  10.030  1.0143 -1.0211  0.0049
  342MOL0     C47063   8.548   8.650  10.041 -0.2054 -0.0467 -0.0165
  342MOL0     C47064   8.672   8.646  10.109  0.1645  0.3900 -0.3813
  342MOL0     C47065   8.737   8.758  10.150  0.2055 -0.6017  0.4241
  342MOL0     O47066   8.861   8.742  10.205 -0.7013  0.3020 -0.5737
  342MOL0     C47067   8.960   8.849  10.212 -0.0844  1.1689 -0.6051
  342MOL0     C47068   9.089   8.780  10.163 -0.5337 -0.1602  0.8874
  342MOL0     C47069   9.206   8.871  10.177 -0.1546 -0.3973 -0.3756
  342MOL0     C47070   9.326   8.808  10.108 -0.5224 -0.0907 -0.2506
  342MOL0     C47071   9.440   8.906  10.124  1.0559  0.8910 -0.2101
  342MOL0     C47072   9.566   8.857  10.050  0.3326 -1.4597 -0.2764
  342MOL0     C47073   9.694   8.899  10.133  0.4266  0.8148 -0.0665
  342MOL0     C47074   9.818   8.866  10.055 -0.3065  0.0600  0.1943
  342MOL0     N47075   9.928   8.845  10.150 -0.2107 -0.0166 -0.2569
  342MOL0     C47076  10.005   8.947  10.204 -0.4653  0.1514  0.4568
  342MOL0     C47077  10.110   8.887  10.263  0.1058  0.2257  0.5598
  342MOL0     C47078  10.230   8.948  10.325  0.2048 -0.2974 -0.7100
  342MOL0     C47079  10.210   9.009  10.463 -0.9112  0.3347 -0.7381
  342MOL0     C47080  10.338   9.068  10.533 -1.1360  0.4025  0.3701
  342MOL0     C47081  10.464   8.982  10.496  0.5555 -0.2171 -0.3303
  342MOL0     O47082  10.437   8.845  10.532 -0.1577 -0.0010  1.0152
  342MOL0     C47083  10.456   8.804  10.666  0.7480 -0.5846  0.4164
  342MOL0     C47084  10.386   8.691  10.714 -0.5806 -0.9197  0.0113
  342MOL0     C47085  10.378   8.653  10.857 -0.5348 -0.4961  1.0826
  342MOL0     C47086  10.268   8.552  10.890 -0.2065  0.6402  0.1109
  342MOL0     C47087  10.459   8.722  10.952  0.3969  0.7162  0.9187
  342MOL0     C47088  10.468   8.688  11.098 -0.6732  0.7436  0.5342
  342MOL0     O47089  10.552   8.761  11.178  0.0730  0.4757 -0.0128
  342MOL0     C47090  10.536   8.763  11.315  0.3010  0.2984  0.4597
  342MOL0     C47091  10.410   8.736  11.372 -0.6242  0.2821 -0.1943
  342MOL0     C47092  10.394   8.726  11.510 -0.2255  0.7569  0.6018
  342MOL0     C47093  10.508   8.751  11.594  0.9150  0.1699  0.8215
  342MOL0     O47094  10.472   8.761  11.726 -0.3564  0.0325 -0.1171
  342MOL0     C47095  10.590   8.762  11.806  0.1928  0.8733 -0.7516
  342MOL0     C47096  10.542   8.756  11.956 -0.3466 -0.1245 -0.3130
  342MOL0     C47097  10.496   8.612  12.001 -0.1040  0.5156  0.6539
  342MOL0     C47098  10.566   8.572  12.140 -1.0241 -1.0949  0.3514
  342MOL0     C47099  10.566   8.417  12.161  0.0183 -0.1308 -0.2233
  342MOL0     C47100  10.551   8.393  12.311  0.0369 -0.2740  0.6881
  342MOL0     C47101  10.688   8.421  12.377 -0.5566 -0.0142 -0.4728
  342MOL0     C47102  10.654   8.489  12.506 -0.7132  0.3582  1.1581
  342MOL0    Cl47103  10.820   8.522  12.573 -0.1534  0.6847  0.1836
  342MOL0     C47104  10.625   8.796  11.534 -0.0477  0.0211  0.4655
  342MOL0     C47105  10.642   8.794  11.396 -0.1641  0.5055  0.0418
  342MOL0     O47106  10.419   8.578  11.133  0.2660 -0.0882 -0.3198
  342MOL0     C47107  10.528   8.836  10.907 -0.9790  0.7177  0.4687
  342MOL0     C47108  10.531   8.879  10.771  0.6767  0.4133  0.7209
  342MOL0     N47109  10.088   8.747  10.257  0.3798 -0.9951  0.0702
  342MOL0     N47110   9.976   8.724  10.193  0.2373 -0.1007 -0.3519
  342MOL0     C47111   8.678   8.888  10.126  0.3115  0.0304  0.3246
  342MOL0     C47112   8.555   8.893  10.065  0.2294  0.8864  1.3124
  342MOL0     C47113   8.261   8.756   9.733 -1.4027 -0.0806 -0.4611
  342MOL0     C47114   8.279   8.697   9.602  0.1705 -0.5011 -0.3607
  342MOL0     C47115   8.170   8.676   9.521 -0.2268 -0.0620  0.1165
  342MOL0     C47116   8.044   8.715   9.562  0.1861  0.0347  0.1799
  342MOL0     O47117   7.930   8.708   9.488  0.1693 -0.5621 -1.2767
  342MOL0     C47118   7.911   8.613   9.390  0.1431 -0.0219 -0.2626
  342MOL0     C47119   7.767   8.630   9.339  0.2164 -0.6871  0.4853
  342MOL0     C47120   7.760   8.525   9.230  0.3760  0.6918 -0.4978
  342MOL0     C47121   7.640   8.557   9.140 -0.4895  0.2227 -0.3031
  342MOL0     C47122   7.509   8.524   9.202  0.4810 -0.1669 -0.2974
  342MOL0     C47123   7.405   8.492   9.256  0.8520 -0.2535  0.0345
  342MOL0     C47124   8.022   8.785   9.679 -0.3768  0.3144 -0.7233
  342MOL0     C47125   8.127   8.799   9.773  0.5146 -0.9495  0.1256
  342MOL0     C47126   8.090   8.873   9.895 -0.4964 -0.1292  0.0383
  342MOL0     H47127   8.503   8.556  10.012  2.2256 -2.4498  3.3561
  342MOL0     H47128   8.713   8.550  10.137 -1.4612 -0.5559 -1.1213
  342MOL0     H47129   8.980   8.887  10.313 -1.9894  0.8304 -0.0599
  342MOL0     H47130   8.930   8.936  10.154 -4.1205  0.3242 -0.0724
  342MOL0     H47131   9.101   8.683  10.211 -0.5576 -1.1064 -0.9316
  342MOL0     H47132   9.081   8.751  10.058  1.9314 -0.2363  0.6789
  342MOL0     H47133   9.191   8.969  10.132  0.5973  0.5579  1.3465
  342MOL0     H47134   9.237   8.896  10.279  2.8698 -2.1225 -0.7244
  342MOL0     H47135   9.360   8.716  10.156 -0.0265 -0.9463 -2.1203
  342MOL0     H47136   9.315   8.794  10.000  0.7253  0.3793 -0.4589
  342MOL0     H47137   9.455   8.916  10.232 -0.9708 -2.5499  0.5438
  342MOL0     H47138   9.411   9.004  10.084  0.1577  1.0943  0.8752
  342MOL0     H47139   9.564   8.748  10.036 -1.3285 -1.8750  2.4861
  342MOL0     H47140   9.562   8.903   9.951 -1.2403  0.8062  0.7566
  342MOL0     H47141   9.699   8.861  10.235 -0.8939  1.0375  0.0993
  342MOL0     H47142   9.695   9.008  10.134 -1.1021  0.8630  1.1265
  342MOL0     H47143   9.806   8.766  10.011 -0.2468 -0.3423  1.0612
  342MOL0     H47144   9.840   8.938   9.976  1.4390 -2.1634 -1.5039
  342MOL0     H47145  10.001   9.053  10.183  1.2563  0.4283  1.3800
  342MOL0     H47146  10.267   9.033  10.268  1.1402  1.1252  1.8482
  342MOL0     H47147  10.309   8.873  10.330  1.6814  1.2566  0.3060
  342MOL0     H47148  10.137   9.090  10.450 -1.2561  0.0958 -0.3078
  342MOL0     H47149  10.170   8.934  10.532  1.7158  0.7456  1.3907
  342MOL0     H47150  10.340   9.168  10.490 -2.0548 -0.1261 -0.9651
  342MOL0     H47151  10.331   9.074  10.642  2.3858 -0.4927  0.7660
  342MOL0     H47152  10.497   8.986  10.392  3.7401  0.6816  0.6087
  342MOL0     H47153  10.546   9.028  10.551 -1.4279  3.1642  0.0481
  342MOL0     H47154  10.333   8.625  10.647  0.1113 -2.3060  0.7919
  342MOL0     H47155  10.184   8.529  10.824 -0.4234 -2.4558  1.2704
  342MOL0     H47156  10.221   8.596  10.978  4.7218  2.9291  2.0073
  342MOL0     H47157  10.319   8.458  10.913 -0.1759 -0.1973 -2.8933
  342MOL0     H47158  10.327   8.725  11.303  0.3542  1.6598 -1.6708
  342MOL0     H47159  10.300   8.687  11.546  0.6120 -1.5498  0.4406
  342MOL0     H47160  10.671   8.691  11.792  1.2438  1.6538  0.9879
  342MOL0     H47161  10.628   8.864  11.792 -0.4924  0.9350 -2.3119
  342MOL0     H47162  10.630   8.782  12.017 -0.7737 -1.3485  0.8570
  342MOL0     H47163  10.462   8.827  11.980 -0.0503 -0.5238  2.1225
  342MOL0     H47164  10.521   8.545  11.918 -2.1247  0.0105  0.3962
  342MOL0     H47165  10.386   8.610  12.003 -0.2041 -1.1603 -1.7293
  342MOL0     H47166  10.508   8.619  12.220 -1.6910 -1.3338  0.0108
  342MOL0     H47167  10.665   8.615  12.155 -1.5621  0.0627  0.7198
  342MOL0     H47168  10.477   8.376  12.112  0.7398  0.4422 -2.0944
  342MOL0     H47169  10.653   8.369  12.115 -0.6492 -0.0287 -1.6431
  342MOL0     H47170  10.518   8.293  12.341 -0.0549 -0.4264  0.1034
  342MOL0     H47171  10.464   8.454  12.338  1.4935  0.0904  5.4260
  342MOL0     H47172  10.761   8.472  12.313 -0.5444  1.1325  0.4249
  342MOL0     H47173  10.737   8.327  12.406  0.8820  0.8866  0.1309
  342MOL0     H47174  10.597   8.426  12.575 -1.1613  1.2871  1.6408
  342MOL0     H47175  10.604   8.584  12.488 -0.5712  0.1389 -0.6931
  342MOL0     H47176  10.710   8.838  11.586 -0.3664  0.1665  0.8767
  342MOL0     H47177  10.732   8.812  11.339  0.9163 -2.5457  0.6282
  342MOL0     H47178  10.582   8.897  10.979  0.8758 -0.6217  0.2989
  342MOL0     H47179  10.578   8.971  10.736  0.1149 -0.4653 -2.7664
  342MOL0     H47180   8.724   8.979  10.164  0.2923 -0.1360  0.7493
  342MOL0     H47181   8.505   8.989  10.056  2.0456  1.8514  1.0420
  342MOL0     H47182   8.378   8.662   9.572  1.4849 -0.3040  3.2176
  342MOL0     H47183   8.182   8.641   9.419 -1.2146 -2.1730  0.6593
  342MOL0     H47184   7.984   8.619   9.308 -2.4461 -1.2946 -2.8488
  342MOL0     H47185   7.915   8.510   9.427  0.0122 -1.5750 -4.0757
  342MOL0     H47186   7.756   8.730   9.297  0.5295 -0.8581 -0.0256
  342MOL0     H47187   7.689   8.615   9.414  0.5571 -1.6103  0.6752
  342MOL0     H47188   7.842   8.524   9.157 -0.5250  2.0034 -1.5902
  342MOL0     H47189   7.750   8.427   9.276 -0.9038  1.0842  0.1017
  342MOL0     H47190   7.644   8.501   9.046 -1.0445 -1.4682  0.6484
  342MOL0     H47191   7.647   8.664   9.118  1.4023 -0.0163 -1.0916
  342MOL0     H47192   7.309   8.491   9.303  0.6797 -0.7069 -0.3123
  342MOL0     H47193   7.921   8.822   9.694 -0.1807  1.0848 -1.2199
  342MOL0     H47194   8.057   8.805   9.974  1.0502 -0.6702  0.2488
  342MOL0     H47195   8.177   8.925   9.935 -1.8235 -0.4153  3.7070
  342MOL0     H47196   8.006   8.941   9.875 -0.5105 -0.3481 -0.6871
  343MOL0     O47197   7.851   4.979   0.687 -0.4139 -0.4416  0.6308
  343MOL0     C47198   7.760   4.920   0.643  0.6445 -0.7147  0.4006
  343MOL0     O47199   7.707   4.801   0.697  0.1735  0.0686 -0.0604
  343MOL0     C47200   7.764   4.754   0.809  0.5848  0.1026  0.0973
  343MOL0     C47201   7.904   4.733   0.845  0.4027  0.2551  0.4995
  343MOL0     C47202   7.939   4.676   0.967  0.7551  0.2714  0.0197
  343MOL0     C47203   7.840   4.630   1.065  1.0459 -0.6082  0.8452
  343MOL0     O47204   7.879   4.591   1.190 -0.1195  0.7118  0.3260
  343MOL0     C47205   7.796   4.594   1.296 -0.1156 -0.0523 -0.7020
  343MOL0     C47206   7.879   4.532   1.407  0.2055 -0.2761  0.2370
  343MOL0     C47207   8.032   4.566   1.422 -0.1853 -0.0282 -0.4746
  343MOL0     C47208   8.093   4.474   1.523 -1.2766  0.4480  0.6204
  343MOL0     C47209   8.239   4.531   1.541 -0.3812  0.0720 -0.0319
  343MOL0     C47210   8.340   4.453   1.625 -0.2815 -0.4965  0.4781
  343MOL0     C47211   8.471   4.527   1.621  0.0477  0.3077 -0.2349
  343MOL0     C47212   8.590   4.455   1.688 -0.2277  0.1689 -0.0150
  343MOL0     N47213   8.722   4.518   1.661  0.0058  0.3010  0.5623
  343MOL0     C47214   8.815   4.476   1.569 -0.3135 -0.0466 -1.1712
  343MOL0     C47215   8.921   4.558   1.583  0.1547  0.2807 -0.1519
  343MOL0     C47216   9.041   4.552   1.495 -0.9038  0.2439  0.2750
  343MOL0     C47217   9.159   4.647   1.525 -0.1314  0.2831 -0.1904
  343MOL0     C47218   9.218   4.611   1.665 -0.6952  0.2869 -0.2590
  343MOL0     C47219   9.348   4.699   1.695  0.3061 -0.4120 -0.9699
  343MOL0     O47220   9.425   4.643   1.805  0.5767 -0.1846  0.6575
  343MOL0     C47221   9.554   4.680   1.808 -0.8031 -0.2102 -0.7558
  343MOL0     C47222   9.585   4.822   1.814 -0.4413  0.4293 -0.0604
  343MOL0     C47223   9.714   4.862   1.835 -0.2534 -0.3978  0.1231
  343MOL0     C47224   9.754   5.003   1.844 -0.7921  0.1944 -0.5069
  343MOL0     C47225   9.823   4.760   1.838  0.1756  0.4863  0.3420
  343MOL0     C47226   9.975   4.787   1.866 -0.0509  0.0620 -0.1897
  343MOL0     O47227  10.060   4.684   1.839  0.3409 -0.0656 -0.4946
  343MOL0     C47228  10.194   4.699   1.871  0.9696 -0.7226  0.9228
  343MOL0     C47229  10.283   4.787   1.805  0.8759  0.3503  0.1450
  343MOL0     C47230  10.422   4.775   1.821 -0.1047 -0.4034 -0.4897
  343MOL0     C47231  10.467   4.682   1.914  0.4985  0.2195  0.0833
  343MOL0     O47232  10.602   4.682   1.932 -0.2516  0.1757 -0.0813
  343MOL0     C47233  10.634   4.788   2.026 -0.2922 -0.0072 -0.7384
  343MOL0     C47234  10.789   4.780   2.027 -0.4492  0.6005 -0.2266
  343MOL0     C47235  10.835   4.652   2.103  0.0843 -0.0175  0.1846
  343MOL0     C47236  10.995   4.641   2.113  0.2967  0.6650 -0.4332
  343MOL0     C47237  11.071   4.749   2.191 -0.2533  1.0328  0.3439
  343MOL0     C47238  11.213   4.695   2.203  0.4736  0.1793  0.0187
  343MOL0     C47239  11.297   4.787   2.284  0.8167 -0.4828  0.1754
  343MOL0     C47240  11.438   4.744   2.297  0.8027  0.0045 -0.2664
  343MOL0    Cl47241  11.462   4.599   2.407  0.0694 -0.0224 -0.1642
  343MOL0     C47242  10.386   4.594   1.975  0.1195 -0.6349 -0.2077
  343MOL0     C47243  10.251   4.606   1.958  0.4345  0.4089  0.3203
  343MOL0     O47244  10.007   4.893   1.912 -0.5607 -0.1269  0.4399
  343MOL0     C47245   9.787   4.627   1.825 -0.1170 -0.1757  0.2732
  343MOL0     C47246   9.662   4.584   1.809 -0.4221  0.2550 -0.3002
  343MOL0     N47247   8.874   4.658   1.663  0.6910  0.1629  0.2478
  343MOL0     N47248   8.759   4.637   1.711 -0.3521  0.3779  0.1300
  343MOL0     C47249   7.710   4.658   1.029 -0.7498  0.2611 -0.9100
  343MOL0     C47250   7.671   4.719   0.905  0.5081 -0.5931 -0.1853
  343MOL0     C47251   7.701   4.984   0.527 -0.5068 -0.9399  0.0035
  343MOL0     C47252   7.568   4.956   0.498  0.3261 -0.9936 -0.6749
  343MOL0     C47253   7.508   5.008   0.398 -0.6017 -0.8772  0.8334
  343MOL0     C47254   7.568   5.094   0.305 -0.2342  0.2057 -0.3647
  343MOL0     O47255   7.514   5.150   0.196 -0.3477  0.0077 -0.3363
  343MOL0     C47256   7.378   5.188   0.189  0.2099  0.7594 -0.2724
  343MOL0     C47257   7.322   5.262   0.311 -0.3320  0.3065 -0.3196
  343MOL0     C47258   7.400   5.390   0.317  0.1788  0.4211 -0.4066
  343MOL0     C47259   7.367   5.466   0.448  0.2025  0.6993 -0.1367
  343MOL0     C47260   7.280   5.581   0.417 -1.4673  0.0298 -0.4713
  343MOL0     C47261   7.208   5.675   0.389  0.8924  0.2433 -0.0677
  343MOL0     C47262   7.705   5.117   0.320 -0.7127 -0.1478 -0.0344
  343MOL0     C47263   7.779   5.060   0.427 -0.6481 -0.2569  0.0536
  343MOL0     C47264   7.924   5.087   0.436 -0.1514 -0.0858 -0.0861
  343MOL0     H47265   7.980   4.759   0.772 -1.8323  1.5826 -1.5260
  343MOL0     H47266   8.044   4.676   0.995  1.2820 -1.2222 -1.7429
  343MOL0     H47267   7.695   4.553   1.288 -0.4907  0.8251 -0.6239
  343MOL0     H47268   7.791   4.698   1.329 -0.6295 -0.2927  0.0139
  343MOL0     H47269   7.830   4.546   1.504  0.8181  0.5044  0.4438
  343MOL0     H47270   7.874   4.426   1.383 -2.8879  0.0078 -0.7930
  343MOL0     H47271   8.083   4.568   1.325 -0.2614 -1.6982 -0.5918
  343MOL0     H47272   8.041   4.668   1.460 -1.5665 -0.7661  2.0841
  343MOL0     H47273   8.030   4.456   1.611 -0.9635 -0.9553  0.5888
  343MOL0     H47274   8.089   4.378   1.470 -0.3978 -0.2461  1.7786
  343MOL0     H47275   8.222   4.629   1.586 -0.6905 -0.3168  0.7103
  343MOL0     H47276   8.289   4.553   1.446 -0.0548  1.4927  0.4488
  343MOL0     H47277   8.304   4.429   1.726  1.2045 -1.1124  0.8907
  343MOL0     H47278   8.349   4.350   1.587 -1.0762 -1.0486  1.7119
  343MOL0     H47279   8.460   4.628   1.662 -4.9607  0.3856 -1.1156
  343MOL0     H47280   8.504   4.541   1.517 -2.3774  0.8038 -0.9993
  343MOL0     H47281   8.591   4.444   1.797 -0.9147 -2.9157 -0.2106
  343MOL0     H47282   8.592   4.354   1.645 -4.2095 -0.0492 -0.1200
  343MOL0     H47283   8.810   4.392   1.501 -2.9779 -1.9651  1.1274
  343MOL0     H47284   9.013   4.566   1.390  1.0018 -0.1325 -0.3269
  343MOL0     H47285   9.075   4.448   1.495  1.8101  1.0042 -1.3506
  343MOL0     H47286   9.238   4.620   1.454  1.5233  0.9992  1.3115
  343MOL0     H47287   9.135   4.753   1.510 -0.6836 -0.0348 -1.8339
  343MOL0     H47288   9.145   4.636   1.743  2.0558 -0.0581  2.5935
  343MOL0     H47289   9.241   4.505   1.676  2.8333  0.8238 -1.2198
  343MOL0     H47290   9.416   4.694   1.610  3.9715 -0.6358  1.7169
  343MOL0     H47291   9.311   4.797   1.725 -0.9570 -0.9401 -0.7578
  343MOL0     H47292   9.507   4.893   1.789 -1.7886 -2.0463 -3.9091
  343MOL0     H47293   9.841   5.019   1.779  1.0307 -2.8426  0.9769
  343MOL0     H47294   9.799   5.028   1.940  3.1612 -0.8556 -1.8827
  343MOL0     H47295   9.667   5.068   1.833 -1.1410  0.3576  2.5366
  343MOL0     H47296  10.245   4.859   1.733  1.7212  1.6509  0.9599
  343MOL0     H47297  10.489   4.837   1.763 -1.4169 -0.6750 -2.3954
  343MOL0     H47298  10.606   4.889   1.992  0.3945  0.7642  0.8706
  343MOL0     H47299  10.588   4.768   2.124 -2.4079  1.0979 -1.4286
  343MOL0     H47300  10.824   4.766   1.924 -0.7449 -1.4076 -0.0782
  343MOL0     H47301  10.836   4.872   2.064  0.0532  0.4269 -0.4282
  343MOL0     H47302  10.800   4.559   2.057  3.9324 -0.9502 -1.2183
  343MOL0     H47303  10.795   4.651   2.205 -0.1390 -0.9973  0.0981
  343MOL0     H47304  11.028   4.629   2.009  4.3690 -1.3904  0.8968
  343MOL0     H47305  11.018   4.545   2.161  0.4724  1.3114  0.8293
  343MOL0     H47306  11.070   4.842   2.133  1.4140  0.7168 -0.2527
  343MOL0     H47307  11.016   4.760   2.285  0.1441 -4.6793  1.6105
  343MOL0     H47308  11.257   4.693   2.102 -1.2190  1.8833 -0.8166
  343MOL0     H47309  11.217   4.593   2.242 -0.7953  0.4505  0.9113
  343MOL0     H47310  11.258   4.810   2.383  0.2135 -3.7883  0.8386
  343MOL0     H47311  11.297   4.878   2.223 -3.2663 -1.8360 -2.2380
  343MOL0     H47312  11.495   4.827   2.341  1.0533 -0.3905  0.1654
  343MOL0     H47313  11.479   4.707   2.203 -1.1130 -0.4445 -0.9675
  343MOL0     H47314  10.422   4.523   2.050 -0.9952 -0.9710  0.0341
  343MOL0     H47315  10.181   4.539   2.005 -1.3387  0.4346 -2.0773
  343MOL0     H47316   9.862   4.549   1.837  1.1351  1.0536  0.7572
  343MOL0     H47317   9.641   4.479   1.828  3.0143 -0.2367  1.5875
  343MOL0     H47318   7.637   4.637   1.107  0.9189 -1.3859  0.2665
  343MOL0     H47319   7.568   4.740   0.878  0.0994 -1.3401  0.7403
  343MOL0     H47320   7.509   4.893   0.564 -0.1315 -0.5081 -0.6159
  343MOL0     H47321   7.400   5.000   0.387 -0.6427 -0.0022  0.4945
  343MOL0     H47322   7.368   5.268   0.115  0.4202  3.4355  2.3510
  343MOL0     H47323   7.315   5.102   0.168  0.0709  1.0610 -1.1238
  343MOL0     H47324   7.345   5.204   0.401  1.9489 -1.6274 -2.0159
  343MOL0     H47325   7.215   5.285   0.304  0.0122  3.4526  2.3744
  343MOL0     H47326   7.507   5.366   0.318 -0.1368 -1.3182 -2.0240
  343MOL0     H47327   7.383   5.451   0.228  0.2864  1.6860  0.4149
  343MOL0     H47328   7.458   5.502   0.497  1.0804 -1.1952 -0.2754
  343MOL0     H47329   7.314   5.400   0.517  0.2703  2.1156  1.3323
  343MOL0     H47330   7.148   5.754   0.350  0.2385  1.7521  3.5877
  343MOL0     H47331   7.759   5.185   0.255  0.1419  1.4119  2.1657
  343MOL0     H47332   7.966   4.994   0.475  0.7276 -0.5850 -2.0790
  343MOL0     H47333   7.969   5.098   0.337 -0.0351 -3.2298 -0.5037
  343MOL0     H47334   7.953   5.171   0.499  1.4537 -0.1029 -0.7623
  344MOL0     O47335   5.036   2.144   7.537 -0.3879  0.0328 -0.2969
  344MOL0     C47336   4.993   2.253   7.495  0.7457 -0.5307 -0.3082
  344MOL0     O47337   5.058   2.342   7.418  0.5319 -0.2513 -0.7168
  344MOL0     C47338   5.162   2.297   7.349 -0.0653  0.2650  0.1763
  344MOL0     C47339   5.152   2.204   7.251 -0.3082 -0.0448  0.1730
  344MOL0     C47340   5.264   2.149   7.178  0.0211  0.0122 -0.2823
  344MOL0     C47341   5.389   2.190   7.218  0.1248 -0.5749  0.4813
  344MOL0     O47342   5.495   2.156   7.141  0.1171  0.1905  0.3715
  344MOL0     C47343   5.634   2.183   7.170  0.4400  0.4896  0.3732
  344MOL0     C47344   5.674   2.309   7.102 -0.8703  0.2574 -0.0009
  344MOL0     C47345   5.810   2.360   7.143 -0.3727  0.5772 -0.2065
  344MOL0     C47346   5.841   2.503   7.096  0.4063  1.0278  0.0054
  344MOL0     C47347   5.986   2.551   7.130  0.1501 -0.4968  0.7703
  344MOL0     C47348   6.091   2.455   7.073  0.1948  0.1118 -0.2877
  344MOL0     C47349   6.229   2.524   7.080 -0.0657  0.3467 -0.4866
  344MOL0     C47350   6.299   2.478   7.208  0.4802 -0.5192  0.4614
  344MOL0     N47351   6.451   2.483   7.189  0.2450  0.1665  0.1442
  344MOL0     C47352   6.522   2.596   7.192 -0.1442  0.2681  0.4513
  344MOL0     C47353   6.647   2.548   7.207  0.3735 -0.4100  0.7054
  344MOL0     C47354   6.774   2.624   7.208 -0.2426  0.5675  0.2364
  344MOL0     C47355   6.760   2.742   7.303 -0.2415  0.5102 -0.5451
  344MOL0     C47356   6.885   2.816   7.345 -1.1298  0.8115 -0.3381
  344MOL0     C47357   7.007   2.728   7.386  0.4630  0.2907  0.6180
  344MOL0     O47358   7.111   2.813   7.432 -0.1112 -0.3548  0.1206
  344MOL0     C47359   7.236   2.752   7.443 -0.1790 -0.9048 -0.2239
  344MOL0     C47360   7.267   2.613   7.437 -0.5921 -0.8233  0.5169
  344MOL0     C47361   7.399   2.566   7.444 -0.2986 -0.5727  0.1517
  344MOL0     C47362   7.411   2.411   7.436 -0.0541  0.0284 -0.2484
  344MOL0     C47363   7.503   2.655   7.468 -0.3331  0.3868 -0.1845
  344MOL0     C47364   7.646   2.613   7.508  0.4046 -0.2141 -0.3915
  344MOL0     O47365   7.680   2.475   7.498  0.6295 -0.2869 -0.1954
  344MOL0     C47366   7.792   2.418   7.557  0.2406  0.1519 -0.2929
  344MOL0     C47367   7.905   2.480   7.611 -0.1635 -0.2577 -1.3617
  344MOL0     C47368   8.011   2.403   7.649  0.2259  0.5677  0.3066
  344MOL0     C47369   8.014   2.264   7.644 -0.0873  0.3190 -0.3556
  344MOL0     O47370   8.124   2.208   7.699 -0.0476  0.1943 -0.2742
  344MOL0     C47371   8.157   2.074   7.654 -0.6561  0.2184  0.4555
  344MOL0     C47372   8.295   2.049   7.694 -0.6232 -0.3902  0.5913
  344MOL0     C47373   8.337   1.904   7.671 -0.0071  0.5238 -0.0841
  344MOL0     C47374   8.358   1.879   7.515  0.6042 -0.0185  0.0513
  344MOL0     C47375   8.426   1.750   7.494  0.0574 -0.5385  0.3314
  344MOL0     C47376   8.449   1.735   7.347  0.6614  0.0610  0.1788
  344MOL0     C47377   8.514   1.602   7.325  0.3023  0.7585 -0.3699
  344MOL0     C47378   8.509   1.550   7.177 -0.1950  0.1130  0.8034
  344MOL0    Cl47379   8.597   1.663   7.072 -0.2063  0.1888  0.2964
  344MOL0     C47380   7.898   2.197   7.596  0.1046 -0.0149  0.6200
  344MOL0     C47381   7.791   2.275   7.555  0.1367 -0.1285  0.0161
  344MOL0     O47382   7.716   2.703   7.548 -0.0178  0.0015 -0.0572
  344MOL0     C47383   7.468   2.790   7.468 -0.1682 -0.3776  0.5249
  344MOL0     C47384   7.342   2.841   7.447 -0.2773  0.4166 -0.6075
  344MOL0     N47385   6.643   2.412   7.198 -0.4956 -0.1565 -0.4323
  344MOL0     N47386   6.525   2.368   7.184  0.6740 -0.5442  0.8465
  344MOL0     C47387   5.404   2.288   7.317 -0.2302 -0.3046  0.2611
  344MOL0     C47388   5.289   2.344   7.383  0.0197 -0.5480  0.3374
  344MOL0     C47389   4.861   2.307   7.536  0.1077 -0.1432 -0.3155
  344MOL0     C47390   4.836   2.448   7.535 -0.7543 -0.2341  0.2229
  344MOL0     C47391   4.722   2.500   7.600  1.0661 -0.4010 -0.2461
  344MOL0     C47392   4.626   2.417   7.649 -0.1506  0.3579 -0.3104
  344MOL0     O47393   4.524   2.470   7.732 -0.3155 -0.2679 -0.0599
  344MOL0     C47394   4.560   2.564   7.836 -0.0894 -0.5520  1.1439
  344MOL0     C47395   4.523   2.519   7.976 -0.0931  0.7771  0.5465
  344MOL0     C47396   4.374   2.532   8.000  0.0188  0.6537  0.3994
  344MOL0     C47397   4.331   2.475   8.132 -0.5184 -0.1081  0.4386
  344MOL0     C47398   4.225   2.560   8.189 -0.0470  0.0142 -0.1706
  344MOL0     C47399   4.130   2.621   8.238 -0.4369  0.6475  0.5631
  344MOL0     C47400   4.639   2.276   7.638  0.0481 -0.2129  0.3127
  344MOL0     C47401   4.757   2.220   7.585  0.6033  0.3253 -0.3767
  344MOL0     C47402   4.768   2.068   7.581  0.3815 -0.0984 -0.6061
  344MOL0     H47403   5.048   2.181   7.230  0.0897 -1.0514 -0.7523
  344MOL0     H47404   5.253   2.089   7.088 -1.6530 -1.0314  0.5711
  344MOL0     H47405   5.702   2.108   7.129  1.3441  0.9148  1.0308
  344MOL0     H47406   5.662   2.184   7.276 -0.4406  0.0523  0.6108
  344MOL0     H47407   5.669   2.292   6.994  0.0643  0.4233 -0.0813
  344MOL0     H47408   5.601   2.385   7.130 -3.9483 -3.2497  2.4189
  344MOL0     H47409   5.808   2.359   7.253  1.2502 -1.7738 -0.1117
  344MOL0     H47410   5.877   2.285   7.100  0.2716 -0.4489  2.3484
  344MOL0     H47411   5.832   2.516   6.987  0.7862 -1.0493 -0.3206
  344MOL0     H47412   5.761   2.553   7.151 -1.7523 -2.3671  0.2258
  344MOL0     H47413   5.984   2.547   7.239 -0.3835  0.4455  0.8010
  344MOL0     H47414   6.016   2.649   7.093 -2.0611 -0.5262 -1.3783
  344MOL0     H47415   6.095   2.353   7.111 -0.0114 -0.1411 -0.9326
  344MOL0     H47416   6.064   2.445   6.968  2.2293 -1.4138 -0.7215
  344MOL0     H47417   6.223   2.633   7.079 -1.5472  0.2950 -0.0002
  344MOL0     H47418   6.286   2.483   6.997  1.3386  0.6250  0.3051
  344MOL0     H47419   6.275   2.550   7.287 -0.2303 -0.9542  0.6464
  344MOL0     H47420   6.275   2.379   7.247  0.4190 -0.1428  1.3847
  344MOL0     H47421   6.480   2.696   7.193 -2.1648 -0.5006 -1.5291
  344MOL0     H47422   6.793   2.659   7.107  2.5017 -0.3921  0.3160
  344MOL0     H47423   6.850   2.555   7.246 -1.7277  0.1583  2.7191
  344MOL0     H47424   6.696   2.820   7.260  0.5356 -0.2115 -3.1671
  344MOL0     H47425   6.713   2.713   7.398 -0.9742  1.0685 -0.7296
  344MOL0     H47426   6.907   2.885   7.262 -0.4238 -2.0739 -2.7233
  344MOL0     H47427   6.865   2.881   7.430  2.6953  1.1272  0.5047
  344MOL0     H47428   6.982   2.651   7.460  0.0409  0.7913  1.0129
  344MOL0     H47429   7.049   2.685   7.295  0.7415  0.3613  0.7108
  344MOL0     H47430   7.181   2.547   7.435 -0.5250 -0.9168  0.7823
  344MOL0     H47431   7.317   2.363   7.410  0.5097  0.2385 -3.0279
  344MOL0     H47432   7.451   2.358   7.523 -0.4817 -0.2640 -0.2242
  344MOL0     H47433   7.482   2.387   7.356 -0.5570  3.0546 -1.7233
  344MOL0     H47434   7.912   2.585   7.637  3.6157 -0.7091  0.1490
  344MOL0     H47435   8.098   2.451   7.693 -0.0956  2.4137 -0.9680
  344MOL0     H47436   8.083   2.002   7.689  1.1017 -2.6580 -1.2925
  344MOL0     H47437   8.158   2.069   7.544  0.1280 -1.4069  0.5034
  344MOL0     H47438   8.368   2.117   7.648  0.7224 -1.5980  0.8612
  344MOL0     H47439   8.308   2.065   7.801  1.3393 -2.1703  0.6813
  344MOL0     H47440   8.263   1.829   7.703 -2.3104  2.3133 -0.9123
  344MOL0     H47441   8.428   1.894   7.729  0.6223 -0.7750 -1.2291
  344MOL0     H47442   8.403   1.964   7.463 -2.2528  1.0001 -0.9019
  344MOL0     H47443   8.258   1.859   7.476 -0.4264 -0.2575  2.6314
  344MOL0     H47444   8.524   1.741   7.542 -0.1773 -2.3763  0.5543
  344MOL0     H47445   8.357   1.679   7.541 -2.5011 -0.0138 -2.3505
  344MOL0     H47446   8.521   1.807   7.307  3.0691 -1.8683  0.7921
  344MOL0     H47447   8.350   1.744   7.301  0.8251 -1.8592 -0.6283
  344MOL0     H47448   8.452   1.535   7.385  0.8245  1.3966  0.9347
  344MOL0     H47449   8.616   1.589   7.362 -0.2767 -3.0840  0.2639
  344MOL0     H47450   8.411   1.546   7.127  0.3570 -0.9460 -0.2641
  344MOL0     H47451   8.556   1.452   7.171 -0.8120 -0.3234  2.6085
  344MOL0     H47452   7.900   2.088   7.598  0.0979 -0.0715 -1.0340
  344MOL0     H47453   7.710   2.216   7.513 -2.0179  2.8447 -0.3445
  344MOL0     H47454   7.538   2.870   7.491 -2.5002  1.0452  3.3771
  344MOL0     H47455   7.319   2.947   7.439 -0.0885  0.6350  1.4383
  344MOL0     H47456   5.504   2.324   7.336  0.1448 -1.3926  0.4259
  344MOL0     H47457   5.303   2.427   7.451 -0.3201  1.4584 -1.8902
  344MOL0     H47458   4.920   2.513   7.510  1.2003 -1.4354  3.1061
  344MOL0     H47459   4.713   2.607   7.616  0.3305 -0.7138  1.5918
  344MOL0     H47460   4.667   2.585   7.831 -0.5664  1.8488 -0.6901
  344MOL0     H47461   4.512   2.658   7.806  0.5514 -0.2681  0.9737
  344MOL0     H47462   4.581   2.578   8.047 -2.6624  1.6124  2.0854
  344MOL0     H47463   4.553   2.414   7.986 -0.3561  0.6479  0.0280
  344MOL0     H47464   4.352   2.639   7.994 -1.8888  0.4647  2.5767
  344MOL0     H47465   4.319   2.485   7.917 -1.5767  1.6580  0.8322
  344MOL0     H47466   4.415   2.459   8.201  0.9359 -1.7338 -1.5572
  344MOL0     H47467   4.298   2.372   8.115  1.8012 -0.9166  0.4325
  344MOL0     H47468   4.049   2.669   8.288 -1.0322  0.5125 -0.2540
  344MOL0     H47469   4.546   2.224   7.663 -0.3800  0.9330  1.1981
  344MOL0     H47470   4.812   2.042   7.484  1.8202 -0.0713  0.0163
  344MOL0     H47471   4.829   2.030   7.663 -0.7745 -2.9176 -0.9423
  344MOL0     H47472   4.668   2.027   7.597  0.3031  0.1405 -0.4815
  345MOL0     O47473   6.036   5.985   6.568 -0.0983 -0.4188  0.9169
  345MOL0     C47474   5.939   5.914   6.574  0.2702  0.5169  0.8906
  345MOL0     O47475   5.827   5.939   6.639 -0.3319  0.8152 -0.3809
  345MOL0     C47476   5.810   6.060   6.699 -0.9409  0.4398 -0.4601
  345MOL0     C47477   5.807   6.179   6.621  0.0265 -0.7792 -0.2043
  345MOL0     C47478   5.780   6.312   6.676  0.4959  0.5712  0.0558
  345MOL0     C47479   5.759   6.319   6.817  0.7173  0.6419  0.5249
  345MOL0     O47480   5.734   6.438   6.881 -0.0584 -0.4036  0.0572
  345MOL0     C47481   5.808   6.547   6.835 -1.0532  0.4897 -0.1126
  345MOL0     C47482   5.819   6.660   6.947 -0.3098  0.5744  0.4624
  345MOL0     C47483   5.686   6.672   7.023 -0.5963 -0.5858 -1.1554
  345MOL0     C47484   5.689   6.814   7.086  0.2513  0.2313  0.0492
  345MOL0     C47485   5.545   6.842   7.137 -0.3019  0.1771 -0.2314
  345MOL0     C47486   5.553   6.965   7.224 -0.1511 -0.3349  0.2210
  345MOL0     C47487   5.558   7.077   7.113  0.2345  0.2167 -0.6502
  345MOL0     C47488   5.519   7.216   7.166  0.2195 -0.9377 -0.5773
  345MOL0     N47489   5.622   7.256   7.268  1.0001  0.0894 -0.7313
  345MOL0     C47490   5.751   7.276   7.219  0.4230  0.6327  0.5439
  345MOL0     C47491   5.806   7.360   7.313 -0.1941 -0.1063 -0.5228
  345MOL0     C47492   5.932   7.442   7.307 -0.3340 -0.4657 -0.9625
  345MOL0     C47493   5.914   7.584   7.244  0.4173  0.4594  0.3456
  345MOL0     C47494   6.053   7.655   7.238 -0.3342 -0.1526  0.0891
  345MOL0     C47495   6.067   7.740   7.121 -0.6264  0.3729  0.6058
  345MOL0     O47496   6.144   7.845   7.166  0.1358  0.1219  0.3254
  345MOL0     C47497   6.275   7.855   7.128 -0.7987  0.1291  0.5561
  345MOL0     C47498   6.361   7.911   7.220  0.0635  0.1938  0.4511
  345MOL0     C47499   6.498   7.941   7.191 -0.3177  0.5322  0.1370
  345MOL0     C47500   6.593   7.997   7.303 -0.7546  0.3494  0.0160
  345MOL0     C47501   6.545   7.908   7.063 -0.3224 -0.4586 -0.6911
  345MOL0     C47502   6.677   7.953   7.012  0.4420 -0.9421  0.1099
  345MOL0     O47503   6.721   7.897   6.897 -0.7296 -0.2832 -0.5220
  345MOL0     C47504   6.841   7.920   6.835  0.5312 -0.2012 -0.4298
  345MOL0     C47505   6.909   7.810   6.786 -0.3071  0.5921 -0.5455
  345MOL0     C47506   7.037   7.817   6.726 -1.0237 -0.2603 -0.1650
  345MOL0     C47507   7.100   7.942   6.722 -0.0475  0.0092 -0.3538
  345MOL0     O47508   7.229   7.939   6.667 -0.1230 -1.0582  0.0423
  345MOL0     C47509   7.290   8.055   6.619  0.8735 -0.4094  0.5439
  345MOL0     C47510   7.432   8.008   6.573  0.1212 -0.3746 -0.5291
  345MOL0     C47511   7.510   8.115   6.497  0.1663 -0.4553 -0.4243
  345MOL0     C47512   7.580   8.219   6.588 -0.6587 -0.9671 -0.1720
  345MOL0     C47513   7.667   8.325   6.523  0.3782  0.1875  0.0213
  345MOL0     C47514   7.746   8.399   6.631  0.1471  0.6179  0.4004
  345MOL0     C47515   7.831   8.523   6.588 -0.2354 -0.2392 -0.5696
  345MOL0     C47516   7.917   8.568   6.705 -0.1811 -0.0543  0.4637
  345MOL0    Cl47517   7.815   8.623   6.849 -0.5670  0.0190 -0.2679
  345MOL0     C47518   7.036   8.055   6.780 -0.6720 -0.8030  0.0707
  345MOL0     C47519   6.902   8.044   6.830 -0.9693 -0.4407  0.4456
  345MOL0     O47520   6.735   8.041   7.074 -0.0070 -0.1066 -0.6027
  345MOL0     C47521   6.462   7.842   6.971  0.3901  0.3364  0.2382
  345MOL0     C47522   6.328   7.821   6.999  0.7630 -0.3299  0.1479
  345MOL0     N47523   5.721   7.376   7.426  0.2018  0.5349 -0.2567
  345MOL0     N47524   5.606   7.315   7.397  0.1751 -0.3977 -0.2665
  345MOL0     C47525   5.750   6.203   6.889 -0.1566 -0.2033 -0.8859
  345MOL0     C47526   5.779   6.073   6.835  0.4597  0.1329  0.3787
  345MOL0     C47527   5.945   5.785   6.498  0.3941 -0.2282  0.3039
  345MOL0     C47528   5.837   5.694   6.517  0.1284 -0.2125 -0.0004
  345MOL0     C47529   5.845   5.567   6.447  0.1281  0.3767 -0.1171
  345MOL0     C47530   5.946   5.519   6.370  0.0300  0.0242 -0.4357
  345MOL0     O47531   5.918   5.397   6.303  0.6517  0.7143 -0.0553
  345MOL0     C47532   6.036   5.334   6.254 -0.4878  1.3363  0.2846
  345MOL0     C47533   5.997   5.193   6.205 -0.0971 -0.4660  0.8476
  345MOL0     C47534   5.947   5.106   6.322  0.8838 -0.4657  0.3494
  345MOL0     C47535   6.044   5.062   6.432 -0.0149 -0.7675 -0.0634
  345MOL0     C47536   6.050   5.147   6.562 -0.5146  0.6749 -0.1814
  345MOL0     C47537   6.067   5.218   6.657  0.3479 -0.1196  0.6349
  345MOL0     C47538   6.051   5.609   6.348  1.0536 -0.9185 -0.2751
  345MOL0     C47539   6.054   5.734   6.417 -0.1480  0.0303 -0.0888
  345MOL0     C47540   6.185   5.808   6.414 -0.5336  0.1499  0.3593
  345MOL0     H47541   5.840   6.175   6.518 -0.7164 -0.0782 -0.4756
  345MOL0     H47542   5.790   6.398   6.611  1.9379  1.6066  1.5575
  345MOL0     H47543   5.737   6.584   6.760 -0.9000  1.6804  0.2988
  345MOL0     H47544   5.906   6.517   6.797 -1.8624  0.1013 -2.0472
  345MOL0     H47545   5.909   6.634   7.003  0.7206 -1.0631 -1.8247
  345MOL0     H47546   5.840   6.755   6.897 -0.3249  0.2679 -0.1330
  345MOL0     H47547   5.607   6.658   6.948 -0.7749 -1.2812 -0.8418
  345MOL0     H47548   5.681   6.598   7.103  1.0352  1.2748  0.8170
  345MOL0     H47549   5.767   6.811   7.163  0.2662 -1.8960  0.0040
  345MOL0     H47550   5.709   6.893   7.013  2.0748 -0.4932 -0.2899
  345MOL0     H47551   5.511   6.771   7.214 -0.9356  1.6037  0.8495
  345MOL0     H47552   5.465   6.843   7.062 -0.4296  1.7754 -0.0931
  345MOL0     H47553   5.475   6.978   7.300 -1.7729 -0.2134 -1.3961
  345MOL0     H47554   5.645   6.964   7.283  0.4907 -2.3593 -0.7189
  345MOL0     H47555   5.482   7.057   7.036 -1.0819  0.4739  0.5340
  345MOL0     H47556   5.657   7.085   7.067  0.3969 -1.1681 -0.5939
  345MOL0     H47557   5.507   7.284   7.081  1.7718 -0.3787 -0.3729
  345MOL0     H47558   5.424   7.214   7.219 -0.9007 -2.9048 -2.4752
  345MOL0     H47559   5.795   7.245   7.125 -2.2083 -0.6261 -0.3753
  345MOL0     H47560   6.014   7.385   7.263  0.0526 -1.3940  0.8574
  345MOL0     H47561   5.961   7.452   7.412  0.4330  0.0249 -1.2115
  345MOL0     H47562   5.879   7.578   7.140 -1.2175  0.4584  0.8665
  345MOL0     H47563   5.840   7.648   7.292 -1.9475 -1.7490 -0.1568
  345MOL0     H47564   6.082   7.717   7.323  2.5322 -1.3894  0.1269
  345MOL0     H47565   6.135   7.582   7.241  0.7512  0.9880  3.7820
  345MOL0     H47566   6.119   7.685   7.043 -0.4885  1.2127  0.0957
  345MOL0     H47567   5.971   7.787   7.098 -2.2875 -2.2872  1.6396
  345MOL0     H47568   6.309   7.941   7.310 -2.7312  0.4433 -1.1283
  345MOL0     H47569   6.602   8.103   7.276 -0.3472 -0.1353 -1.8313
  345MOL0     H47570   6.693   7.953   7.300 -0.7034  0.4981 -0.5864
  345MOL0     H47571   6.540   7.986   7.398 -3.1985 -1.5367 -1.4545
  345MOL0     H47572   6.859   7.713   6.790 -1.8378  1.3880  1.9990
  345MOL0     H47573   7.087   7.734   6.677  0.3373  0.0088  0.7052
  345MOL0     H47574   7.232   8.102   6.539  0.7845 -0.5044  0.5530
  345MOL0     H47575   7.302   8.119   6.707  0.0508  0.8157 -0.1959
  345MOL0     H47576   7.486   7.962   6.656  0.8089  0.6182 -0.4047
  345MOL0     H47577   7.427   7.919   6.510  1.1819 -0.3276 -0.7047
  345MOL0     H47578   7.453   8.172   6.424 -0.9076  0.7598  1.2759
  345MOL0     H47579   7.592   8.057   6.453  0.8177 -2.6177  3.2153
  345MOL0     H47580   7.640   8.156   6.655 -1.3463 -3.2617 -1.5647
  345MOL0     H47581   7.505   8.266   6.651  0.1675  1.0741 -0.6549
  345MOL0     H47582   7.734   8.276   6.451  0.0756  0.9663 -0.7981
  345MOL0     H47583   7.597   8.395   6.478  0.0341 -0.1067  0.0954
  345MOL0     H47584   7.812   8.320   6.669  0.8809  0.8035 -0.4389
  345MOL0     H47585   7.674   8.434   6.705 -0.4676  2.0356 -0.8140
  345MOL0     H47586   7.778   8.608   6.545  0.7985  1.3379  1.1052
  345MOL0     H47587   7.892   8.479   6.508 -0.8462 -1.3795 -0.4328
  345MOL0     H47588   7.990   8.644   6.676 -1.8042  0.6703 -2.0268
  345MOL0     H47589   7.979   8.485   6.742  0.8998 -0.9072 -2.9446
  345MOL0     H47590   7.075   8.156   6.787 -3.4981  0.4156 -0.4317
  345MOL0     H47591   6.852   8.135   6.861  0.8365  0.4363  0.9289
  345MOL0     H47592   6.492   7.817   6.870 -0.2846 -2.4880  0.6328
  345MOL0     H47593   6.270   7.778   6.918  0.0108  0.4400  0.2777
  345MOL0     H47594   5.718   6.217   6.992  3.7360 -0.7441  0.5514
  345MOL0     H47595   5.771   5.984   6.897 -1.1834 -0.3464 -0.4489
  345MOL0     H47596   5.747   5.723   6.569 -0.9967 -4.6744  0.9890
  345MOL0     H47597   5.762   5.498   6.450  0.7847 -0.4023  0.5674
  345MOL0     H47598   6.085   5.389   6.174  2.7810 -0.0415  1.1975
  345MOL0     H47599   6.109   5.331   6.335  1.1579 -1.0546 -1.1637
  345MOL0     H47600   6.085   5.140   6.167  0.6516  1.5578 -0.3694
  345MOL0     H47601   5.924   5.200   6.123  2.0253  0.6499 -1.0682
  345MOL0     H47602   5.858   5.150   6.369  1.2759 -0.8570  1.4978
  345MOL0     H47603   5.922   5.020   6.260  1.6749  0.2951 -1.0681
  345MOL0     H47604   6.140   5.047   6.383 -0.0030 -0.9266  0.0062
  345MOL0     H47605   6.008   4.969   6.478  0.7607  0.4467  3.2673
  345MOL0     H47606   6.069   5.297   6.730  1.2386  0.1035  0.3730
  345MOL0     H47607   6.130   5.566   6.287  1.3970 -0.1861 -0.3473
  345MOL0     H47608   6.224   5.819   6.516 -0.1237  1.6973  0.0703
  345MOL0     H47609   6.258   5.750   6.359 -1.3451 -1.2555  0.7177
  345MOL0     H47610   6.165   5.910   6.379 -3.0854 -0.0916  0.9128
  346MOL0     O47611  11.307   3.271   9.659  0.0817  0.2743  0.8693
  346MOL0     C47612  11.268   3.385   9.634  0.2790  0.0907 -0.0153
  346MOL0     O47613  11.346   3.499   9.620  0.1540  0.5936  0.3403
  346MOL0     C47614  11.478   3.505   9.654  0.0297  0.2176 -0.7615
  346MOL0     C47615  11.563   3.592   9.583  0.2866  0.5962  0.3593
  346MOL0     C47616  11.706   3.579   9.609 -0.0501 -1.0095 -0.2682
  346MOL0     C47617  11.758   3.493   9.706 -0.3502  0.1475  0.5205
  346MOL0     O47618  11.892   3.488   9.748 -0.0673  0.3479 -0.3217
  346MOL0     C47619  11.991   3.551   9.673 -0.1344 -0.1290 -0.7181
  346MOL0     C47620  12.019   3.463   9.551 -0.0462  0.4284 -0.1236
  346MOL0     C47621  12.144   3.512   9.465  0.5749 -0.3186  0.2263
  346MOL0     C47622  12.283   3.512   9.536  0.6455  0.0317 -0.4566
  346MOL0     C47623  12.393   3.588   9.458 -0.5507 -0.6193  0.0889
  346MOL0     C47624  12.455   3.712   9.532 -0.5209  0.0816  1.0324
  346MOL0     C47625  12.566   3.783   9.453 -0.8716 -0.7929 -0.4112
  346MOL0     C47626  12.603   3.915   9.522 -0.9186  0.4483 -0.3929
  346MOL0     N47627  12.659   3.896   9.659 -0.1161  0.1657 -0.2769
  346MOL0     C47628  12.610   3.973   9.766  0.4994  0.0912  0.2576
  346MOL0     C47629  12.662   3.916   9.871  1.1062  0.7440 -0.1496
  346MOL0     C47630  12.646   3.962  10.018 -0.6119  1.1710  0.0499
  346MOL0     C47631  12.502   3.989  10.048  0.1074  0.2024 -0.3825
  346MOL0     C47632  12.496   4.010  10.203 -0.4591 -0.3446 -0.4048
  346MOL0     C47633  12.596   4.111  10.259  0.7955 -0.1025 -0.8963
  346MOL0     O47634  12.596   4.223  10.164  0.0952  0.7244 -0.3947
  346MOL0     C47635  12.699   4.314  10.187 -0.0573 -0.1481  0.1491
  346MOL0     C47636  12.724   4.400  10.083  0.6940 -0.3166 -0.1599
  346MOL0     C47637  12.827   4.501  10.102 -0.0708  1.5536  0.5174
  346MOL0     C47638  12.843   4.589   9.974  0.5499 -0.6933  0.2912
  346MOL0     C47639  12.896   4.522  10.226 -0.5817  0.5613  0.7440
  346MOL0     C47640  12.990   4.641  10.259  0.6648 -0.0792  0.1460
  346MOL0     O47641  13.075   4.635  10.364  0.2450 -0.0654 -0.0649
  346MOL0     C47642  13.136   4.752  10.391 -0.4209 -0.2030 -0.5062
  346MOL0     C47643  13.082   4.844  10.485  0.8470  0.3679 -0.5129
  346MOL0     C47644  13.161   4.957  10.522 -0.2565 -0.2731  0.1904
  346MOL0     C47645  13.287   4.973  10.466 -0.9962 -1.0187  0.2479
  346MOL0     O47646  13.378   5.069  10.506  0.3310  0.2423  0.3477
  346MOL0     C47647  13.330   5.182  10.587  0.3864  0.5715 -0.4189
  346MOL0     C47648  13.453   5.281  10.602 -0.1421 -0.1982 -0.9031
  346MOL0     C47649  13.478   5.350  10.473  0.0147 -0.3021  0.1221
  346MOL0     C47650  13.607   5.438  10.485  0.4355 -0.1294  0.1213
  346MOL0     C47651  13.631   5.524  10.361  0.0535  0.9400 -0.0565
  346MOL0     C47652  13.715   5.427  10.265  0.6135 -0.3922 -0.1240
  346MOL0     C47653  13.746   5.499  10.132 -0.8646  0.2981  0.2837
  346MOL0     C47654  13.616   5.516  10.048  0.2665  0.7136 -0.3826
  346MOL0    Cl47655  13.533   5.364  10.010 -0.1116  0.3385 -0.3730
  346MOL0     C47656  13.331   4.883  10.368  0.1264  0.0825  0.2590
  346MOL0     C47657  13.260   4.776  10.331 -0.0886 -0.2455 -0.7064
  346MOL0     O47658  12.949   4.747  10.200 -0.1784 -0.8690  0.2215
  346MOL0     C47659  12.864   4.431  10.326  0.1054  0.3993 -0.3080
  346MOL0     C47660  12.782   4.323  10.302 -0.0753 -0.4444  0.9523
  346MOL0     N47661  12.744   3.808   9.832 -0.2798  0.5596 -0.4842
  346MOL0     N47662  12.758   3.813   9.704  0.8760  0.2882 -0.9677
  346MOL0     C47663  11.669   3.409   9.779  0.4905 -1.2148 -0.2809
  346MOL0     C47664  11.535   3.426   9.752  0.6295  0.7585  0.1939
  346MOL0     C47665  11.124   3.401   9.590  1.4245 -0.7086 -0.2856
  346MOL0     C47666  11.086   3.487   9.488 -0.0376  0.1384 -0.1875
  346MOL0     C47667  10.957   3.501   9.450 -0.0493 -1.0431  0.7142
  346MOL0     C47668  10.849   3.437   9.512 -0.0591  0.0015 -0.1229
  346MOL0     O47669  10.723   3.464   9.458  0.2269  0.2553 -0.2998
  346MOL0     C47670  10.613   3.445   9.545 -0.4264 -0.4760  1.1224
  346MOL0     C47671  10.498   3.540   9.505  0.2849  1.2562  0.1855
  346MOL0     C47672  10.515   3.684   9.558  0.1680 -0.8043  0.7010
  346MOL0     C47673  10.428   3.780   9.484  0.7366 -0.7321 -0.0804
  346MOL0     C47674  10.452   3.922   9.533  0.1160  0.0020 -0.5236
  346MOL0     C47675  10.458   4.034   9.571  0.2691  0.3150  0.1995
  346MOL0     C47676  10.878   3.354   9.620 -0.6333 -1.0570  0.7988
  346MOL0     C47677  11.014   3.326   9.651 -0.7237 -0.1262  0.4360
  346MOL0     C47678  11.045   3.225   9.760  0.5687 -0.5953 -0.3027
  346MOL0     H47679  11.518   3.659   9.510 -0.4125  0.4348  0.6280
  346MOL0     H47680  11.774   3.649   9.561  1.2388 -1.8206  0.3304
  346MOL0     H47681  12.078   3.573   9.736 -0.4949 -1.8921  0.4562
  346MOL0     H47682  11.963   3.653   9.644  1.2671  0.8449  1.1097
  346MOL0     H47683  12.034   3.357   9.571  1.6810  0.3028 -1.7791
  346MOL0     H47684  11.934   3.481   9.485 -0.8995 -0.2497  0.7622
  346MOL0     H47685  12.144   3.451   9.374  1.6862  1.0130 -0.7003
  346MOL0     H47686  12.130   3.617   9.441  3.3416  0.0925  0.0200
  346MOL0     H47687  12.272   3.547   9.639  3.2375 -2.8381  0.9750
  346MOL0     H47688  12.306   3.406   9.545  0.6017  0.0710  0.1741
  346MOL0     H47689  12.364   3.628   9.360  2.6820  2.1372  0.0533
  346MOL0     H47690  12.473   3.523   9.421 -0.2571  0.6242 -1.5981
  346MOL0     H47691  12.370   3.778   9.550 -0.1071 -0.1193  4.3106
  346MOL0     H47692  12.501   3.681   9.626  0.0757  0.7088  0.9556
  346MOL0     H47693  12.525   3.796   9.353  2.0893 -2.2421 -1.9521
  346MOL0     H47694  12.647   3.709   9.442 -1.0101 -1.2588  1.3551
  346MOL0     H47695  12.679   3.964   9.460 -0.5160 -0.5707 -0.7334
  346MOL0     H47696  12.519   3.984   9.518  0.2024  1.8861 -0.0054
  346MOL0     H47697  12.544   4.058   9.771  0.2470 -0.0486 -0.5426
  346MOL0     H47698  12.701   4.056  10.020 -0.5614  1.1422  0.0325
  346MOL0     H47699  12.687   3.884  10.083 -1.2325  0.4184 -0.4316
  346MOL0     H47700  12.470   4.081   9.998  0.5957 -0.2921 -1.6484
  346MOL0     H47701  12.442   3.902  10.019 -0.7076  0.5021  0.3625
  346MOL0     H47702  12.395   4.038  10.235 -0.3994  1.3045 -1.5107
  346MOL0     H47703  12.530   3.915  10.245 -0.8682 -0.2875  0.0731
  346MOL0     H47704  12.580   4.148  10.361  2.3633 -0.3566 -0.5216
  346MOL0     H47705  12.698   4.076  10.281  2.0478  3.2790 -0.7452
  346MOL0     H47706  12.657   4.382  10.001  1.0557  0.9206 -0.7546
  346MOL0     H47707  12.836   4.533   9.880  3.3739  0.4264 -0.6985
  346MOL0     H47708  12.930   4.652   9.955 -1.9828  2.3163 -2.7797
  346MOL0     H47709  12.768   4.668   9.978  2.5588  1.5598 -2.3975
  346MOL0     H47710  12.984   4.821  10.527  0.9871 -0.0534 -0.4102
  346MOL0     H47711  13.128   5.020  10.605 -0.2150 -0.8413  0.6433
  346MOL0     H47712  13.244   5.229  10.539  0.4016  0.9451 -0.0810
  346MOL0     H47713  13.293   5.153  10.685  3.2830  1.9953  1.2290
  346MOL0     H47714  13.431   5.357  10.676 -4.7971 -2.5567  0.5041
  346MOL0     H47715  13.541   5.228  10.642 -1.6089 -1.8292  0.2983
  346MOL0     H47716  13.390   5.404  10.437 -0.4821 -1.2244 -0.0730
  346MOL0     H47717  13.494   5.277  10.392  3.2454 -0.6182  0.9253
  346MOL0     H47718  13.697   5.381  10.510 -0.1534 -0.1269  2.4117
  346MOL0     H47719  13.588   5.506  10.569 -2.2349  0.6706 -1.0160
  346MOL0     H47720  13.533   5.551  10.319 -1.8582 -2.0484  2.0852
  346MOL0     H47721  13.690   5.615  10.374  1.5507  0.6285 -3.4588
  346MOL0     H47722  13.662   5.334  10.245 -1.1154  0.9510 -2.3362
  346MOL0     H47723  13.810   5.410  10.316  1.0779 -1.6996 -1.3619
  346MOL0     H47724  13.826   5.448  10.078 -0.5684 -0.1790  1.1466
  346MOL0     H47725  13.789   5.599  10.147  0.0259  0.5250 -2.9759
  346MOL0     H47726  13.634   5.563   9.951  0.4818 -0.5243 -0.9465
  346MOL0     H47727  13.543   5.580  10.101  0.3331 -0.6287  1.4288
  346MOL0     H47728  13.430   4.909  10.334 -0.3201 -0.6161 -1.7339
  346MOL0     H47729  13.290   4.695  10.265  2.1088 -1.1137  1.2368
  346MOL0     H47730  12.910   4.434  10.424 -1.4796 -1.4314  0.5499
  346MOL0     H47731  12.775   4.250  10.382 -0.8532  0.6902  1.9683
  346MOL0     H47732  11.701   3.340   9.856 -1.4344 -0.7054  1.0586
  346MOL0     H47733  11.469   3.357   9.804  2.5141 -1.3067 -0.0420
  346MOL0     H47734  11.155   3.538   9.423  0.3233 -1.0589 -0.7722
  346MOL0     H47735  10.923   3.570   9.373 -3.7824 -4.3684 -0.9754
  346MOL0     H47736  10.571   3.346   9.525 -0.8584 -0.4445  1.8375
  346MOL0     H47737  10.641   3.446   9.651 -0.6200  1.7266  1.2039
  346MOL0     H47738  10.410   3.504   9.558  1.3366  0.5242  1.4868
  346MOL0     H47739  10.484   3.543   9.396  2.1616 -0.0356 -0.1335
  346MOL0     H47740  10.494   3.690   9.665  1.0922  1.4972  0.7926
  346MOL0     H47741  10.617   3.722   9.547 -0.4678  0.6960 -0.2009
  346MOL0     H47742  10.323   3.750   9.490  1.3626 -3.1246  0.2342
  346MOL0     H47743  10.464   3.787   9.381  1.2919  1.6521  0.2344
  346MOL0     H47744  10.460   4.131   9.615  0.0729 -0.6737  2.5809
  346MOL0     H47745  10.801   3.309   9.682  1.8692 -3.8445  2.1444
  346MOL0     H47746  11.089   3.141   9.706  0.6288  0.8838 -2.7333
  346MOL0     H47747  11.121   3.275   9.822  0.5386  0.7987 -1.3295
  346MOL0     H47748  10.955   3.196   9.815 -0.6907  1.1464 -1.3270
  347MOL0     O47749   5.318   4.443   0.515  0.1333 -0.5220 -0.2681
  347MOL0     C47750   5.265   4.498   0.615 -0.0588 -0.8611  0.1042
  347MOL0     O47751   5.335   4.524   0.736 -0.5580 -0.4355  0.1058
  347MOL0     C47752   5.464   4.478   0.754  0.0375 -0.9385  0.2699
  347MOL0     C47753   5.507   4.399   0.866 -0.5070  0.0639  0.2034
  347MOL0     C47754   5.637   4.351   0.873  0.2450 -0.3467 -0.2289
  347MOL0     C47755   5.737   4.380   0.768 -0.1330 -0.2180 -0.2832
  347MOL0     O47756   5.868   4.342   0.791  0.8980  0.0557  0.2079
  347MOL0     C47757   5.958   4.451   0.751  0.2795  0.4081 -0.2960
  347MOL0     C47758   6.049   4.409   0.638  0.0894  0.6083 -0.3007
  347MOL0     C47759   6.135   4.288   0.668  0.0018  0.0512 -0.2222
  347MOL0     C47760   6.213   4.248   0.545  0.1375  0.1430 -0.6378
  347MOL0     C47761   6.321   4.136   0.579  0.0855  0.1139  0.6158
  347MOL0     C47762   6.447   4.200   0.644  0.1550  0.1619  0.7641
  347MOL0     C47763   6.570   4.104   0.673  0.0207 -0.5933 -0.1642
  347MOL0     C47764   6.569   4.048   0.818 -0.1867 -0.0550 -0.0932
  347MOL0     N47765   6.683   3.956   0.841  0.6333  0.1869 -0.2939
  347MOL0     C47766   6.796   3.995   0.908  0.0925  0.3749  0.0427
  347MOL0     C47767   6.873   3.884   0.888 -0.3062  0.0286  0.7738
  347MOL0     C47768   7.021   3.869   0.921  0.6620  0.1052  0.3131
  347MOL0     C47769   7.109   3.846   0.795  0.4790 -0.4397  0.0633
  347MOL0     C47770   7.254   3.862   0.852 -0.8052 -0.1784  0.0613
  347MOL0     C47771   7.348   3.860   0.734 -1.1200 -0.4155  0.3472
  347MOL0     O47772   7.485   3.892   0.779  0.1603 -0.5083  0.0178
  347MOL0     C47773   7.577   3.795   0.815 -0.1503 -0.5264  0.1440
  347MOL0     C47774   7.548   3.659   0.837 -0.7247  0.1582 -0.3141
  347MOL0     C47775   7.649   3.562   0.867 -0.0950 -0.6739 -0.0678
  347MOL0     C47776   7.609   3.420   0.886  0.7437  0.3871  0.3939
  347MOL0     C47777   7.788   3.610   0.882 -0.2586  0.0055  0.2868
  347MOL0     C47778   7.909   3.524   0.902 -0.0516 -0.3758 -0.5397
  347MOL0     O47779   8.026   3.571   0.855  0.2478  0.6053 -0.3780
  347MOL0     C47780   8.153   3.522   0.890  0.1487 -1.0422  0.0184
  347MOL0     C47781   8.187   3.440   1.001 -0.5228  0.2194 -0.3392
  347MOL0     C47782   8.319   3.400   1.038 -0.1476  0.5383  0.4752
  347MOL0     C47783   8.422   3.429   0.947 -0.8174 -0.8173  0.2269
  347MOL0     O47784   8.552   3.386   0.961 -0.2695  0.1677 -0.2898
  347MOL0     C47785   8.586   3.318   1.085 -0.5181  0.4942  0.4119
  347MOL0     C47786   8.738   3.302   1.106  0.2463 -0.6823  0.6156
  347MOL0     C47787   8.769   3.205   1.225  0.7259 -0.6960  1.0588
  347MOL0     C47788   8.924   3.189   1.236  0.4908  0.5653 -0.4762
  347MOL0     C47789   8.978   3.092   1.134  0.1254 -0.1798  0.2818
  347MOL0     C47790   9.112   3.037   1.174  0.7740 -0.5707 -0.4908
  347MOL0     C47791   9.173   2.975   1.050  0.0979  0.1051 -0.6609
  347MOL0     C47792   9.278   2.868   1.090  0.3603 -0.2447 -0.6445
  347MOL0    Cl47793   9.393   2.922   1.225  0.1482 -0.0556  0.1638
  347MOL0     C47794   8.394   3.502   0.836 -0.1620  0.0452 -0.4642
  347MOL0     C47795   8.266   3.561   0.808 -0.1957 -0.1645  0.5586
  347MOL0     O47796   7.895   3.417   0.954  0.2548  0.1373 -0.2822
  347MOL0     C47797   7.806   3.747   0.865 -0.0532  0.0614 -0.9493
  347MOL0     C47798   7.704   3.832   0.831  0.2093  0.4921  0.3997
  347MOL0     N47799   6.803   3.788   0.825  1.0379 -0.5137  0.0487
  347MOL0     N47800   6.682   3.824   0.806  0.0848  0.4957 -0.2962
  347MOL0     C47801   5.691   4.452   0.654 -0.3610  0.1001  0.2895
  347MOL0     C47802   5.556   4.497   0.652 -0.1364  0.4562 -0.0114
  347MOL0     C47803   5.122   4.538   0.608  0.3272 -0.2242 -0.7708
  347MOL0     C47804   5.077   4.598   0.728 -0.0067 -0.7252 -0.0241
  347MOL0     C47805   4.939   4.623   0.746  0.0024  0.0349  0.3675
  347MOL0     C47806   4.849   4.589   0.642  0.3784 -0.8490  0.0716
  347MOL0     O47807   4.710   4.612   0.633 -0.2768  0.9502 -0.1717
  347MOL0     C47808   4.650   4.648   0.755  0.5113 -0.3153  0.2320
  347MOL0     C47809   4.503   4.613   0.749  0.0679  0.2070 -0.1198
  347MOL0     C47810   4.467   4.465   0.706  0.5999 -0.6429 -0.0583
  347MOL0     C47811   4.557   4.369   0.762 -0.0990 -0.2019 -0.2241
  347MOL0     C47812   4.539   4.368   0.912 -0.5635  0.3494  0.2040
  347MOL0     C47813   4.503   4.393   1.025 -0.5653  0.2710  0.0914
  347MOL0     C47814   4.898   4.538   0.521 -1.3588 -0.7514  0.0411
  347MOL0     C47815   5.030   4.517   0.500 -0.5479  0.7806 -1.1579
  347MOL0     C47816   5.076   4.451   0.373  0.2372  0.4588 -0.5904
  347MOL0     H47817   5.443   4.372   0.950  0.9426 -0.7983  1.0792
  347MOL0     H47818   5.663   4.286   0.956  2.9297 -0.6940 -1.2476
  347MOL0     H47819   6.013   4.468   0.844  0.1986  1.4101 -0.4197
  347MOL0     H47820   5.913   4.548   0.728  1.2647  0.9964  0.1749
  347MOL0     H47821   5.988   4.379   0.553  1.1736  1.2665 -1.3402
  347MOL0     H47822   6.108   4.499   0.621 -2.3255  1.7789 -3.1798
  347MOL0     H47823   6.198   4.325   0.749 -0.7052 -2.6562  1.6864
  347MOL0     H47824   6.083   4.201   0.709  3.2380 -2.1977 -0.4943
  347MOL0     H47825   6.139   4.205   0.476 -0.7239 -0.3851  0.5742
  347MOL0     H47826   6.258   4.334   0.495 -0.0640  0.4004 -0.3824
  347MOL0     H47827   6.343   4.079   0.489  2.2023 -0.5858  1.5094
  347MOL0     H47828   6.275   4.071   0.654 -0.3255 -0.0158  0.2566
  347MOL0     H47829   6.476   4.279   0.575  1.3150 -0.6685  0.2556
  347MOL0     H47830   6.417   4.242   0.741 -1.2221 -0.9224  0.8400
  347MOL0     H47831   6.660   4.167   0.671 -0.7603  0.6245  1.1358
  347MOL0     H47832   6.585   4.031   0.593  1.1857 -2.9151  2.0072
  347MOL0     H47833   6.569   4.118   0.902 -1.0715 -1.9994  1.5995
  347MOL0     H47834   6.478   3.988   0.829  0.8752 -1.5667  0.8088
  347MOL0     H47835   6.827   4.085   0.959  1.7775  0.0156 -0.2808
  347MOL0     H47836   7.038   3.779   0.980 -1.3469 -2.6073 -2.8841
  347MOL0     H47837   7.058   3.953   0.980  0.3862  0.3789  0.1004
  347MOL0     H47838   7.089   3.748   0.752  1.6243 -0.3988 -0.5973
  347MOL0     H47839   7.084   3.925   0.723 -4.0798 -0.4520  1.3386
  347MOL0     H47840   7.255   3.962   0.895  1.8811  0.3818 -1.1599
  347MOL0     H47841   7.273   3.787   0.930 -1.8427  1.5827  2.1270
  347MOL0     H47842   7.370   3.770   0.676  4.0982  0.6419  0.2153
  347MOL0     H47843   7.321   3.936   0.660  2.8299  0.1448 -0.7422
  347MOL0     H47844   7.444   3.630   0.827 -1.4568  2.8035 -1.0633
  347MOL0     H47845   7.685   3.342   0.877 -1.2823 -1.6806 -0.0017
  347MOL0     H47846   7.533   3.405   0.809  0.8537  0.9213  0.1776
  347MOL0     H47847   7.559   3.417   0.984  1.7389 -1.5913  0.9019
  347MOL0     H47848   8.100   3.409   1.058 -0.4533 -1.3271 -1.0024
  347MOL0     H47849   8.345   3.350   1.130 -0.1198 -0.2386  0.0493
  347MOL0     H47850   8.546   3.373   1.171 -1.4352 -0.3961  0.5793
  347MOL0     H47851   8.541   3.218   1.082 -1.4480  0.8720  1.0079
  347MOL0     H47852   8.779   3.250   1.020  1.9521 -0.7002  1.3991
  347MOL0     H47853   8.801   3.392   1.112 -0.5307  0.0963 -1.7702
  347MOL0     H47854   8.722   3.107   1.217 -0.0979 -0.5070  2.9353
  347MOL0     H47855   8.719   3.256   1.308 -1.0729  1.2781 -1.0868
  347MOL0     H47856   8.941   3.155   1.339 -0.3192 -0.6469 -0.7276
  347MOL0     H47857   8.973   3.286   1.220 -1.8903  1.8869 -0.3237
  347MOL0     H47858   8.907   3.009   1.127 -0.6851  0.5265 -0.1096
  347MOL0     H47859   8.992   3.144   1.038 -1.1448  1.4008  0.8981
  347MOL0     H47860   9.088   2.964   1.252 -2.3515 -0.9652 -1.6701
  347MOL0     H47861   9.177   3.118   1.209  1.3495 -0.8503 -0.8953
  347MOL0     H47862   9.210   3.052   0.981 -0.5039 -1.5634 -2.9695
  347MOL0     H47863   9.103   2.918   0.988  0.0284 -0.7459  0.1912
  347MOL0     H47864   9.332   2.829   1.003  0.6818  3.1717 -2.1436
  347MOL0     H47865   9.219   2.785   1.131  2.0338 -0.3400  1.7810
  347MOL0     H47866   8.481   3.525   0.776  0.3151 -1.9224 -0.5988
  347MOL0     H47867   8.263   3.626   0.721 -1.1880  1.9980  2.1325
  347MOL0     H47868   7.909   3.781   0.866  0.4668 -1.3447 -2.2989
  347MOL0     H47869   7.718   3.939   0.816 -0.9234  0.6892  0.6894
  347MOL0     H47870   5.759   4.479   0.574  0.9691 -1.7012  0.7576
  347MOL0     H47871   5.526   4.549   0.562  1.8768 -0.9786 -1.6040
  347MOL0     H47872   5.136   4.629   0.814  2.0784  0.5953 -1.8312
  347MOL0     H47873   4.898   4.659   0.840  2.8489 -0.5751  1.9547
  347MOL0     H47874   4.697   4.590   0.836  0.0413 -1.9947 -0.6519
  347MOL0     H47875   4.666   4.756   0.761 -0.3968 -0.1862  0.5419
  347MOL0     H47876   4.446   4.682   0.686  1.4666  1.3957 -0.1434
  347MOL0     H47877   4.464   4.632   0.850 -0.8891 -1.4382 -0.1550
  347MOL0     H47878   4.361   4.445   0.724  0.1330  1.6925  0.1718
  347MOL0     H47879   4.479   4.462   0.597 -1.3958 -3.9288 -0.3291
  347MOL0     H47880   4.660   4.398   0.741  0.0548  0.7942  1.6986
  347MOL0     H47881   4.537   4.269   0.722 -0.5243 -0.8351  1.4943
  347MOL0     H47882   4.465   4.410   1.124 -0.6439  3.3187 -0.3688
  347MOL0     H47883   4.819   4.510   0.452  1.1692  2.0394 -4.4287
  347MOL0     H47884   4.985   4.449   0.314 -1.2234 -1.6450  1.5682
  347MOL0     H47885   5.149   4.515   0.322  1.6210 -1.0094 -0.5375
  347MOL0     H47886   5.114   4.349   0.366  1.9006  1.0776 -1.2058
  348MOL0     O47887   3.416   1.258   6.072  0.2392 -0.2383  0.6647
  348MOL0     C47888   3.422   1.158   6.141 -1.3206 -0.0345  0.0895
  348MOL0     O47889   3.540   1.115   6.206  0.1632  0.0123  0.3006
  348MOL0     C47890   3.640   1.207   6.223 -0.8923 -0.2025  0.1030
  348MOL0     C47891   3.635   1.307   6.313  0.2568 -0.4255  0.3485
  348MOL0     C47892   3.742   1.399   6.331  0.0253  0.2785  0.5863
  348MOL0     C47893   3.858   1.379   6.251  0.1188 -1.0341 -0.0720
  348MOL0     O47894   3.972   1.468   6.248  0.2123 -0.0059 -0.0768
  348MOL0     C47895   3.964   1.593   6.323 -0.1269  0.3247 -0.5563
  348MOL0     C47896   4.074   1.684   6.287 -0.6305  0.6757 -0.0287
  348MOL0     C47897   4.213   1.628   6.340  0.0076 -0.0164 -0.5206
  348MOL0     C47898   4.329   1.703   6.256  0.6960 -0.0526 -0.6258
  348MOL0     C47899   4.454   1.707   6.339  0.1634 -0.1572  0.1989
  348MOL0     C47900   4.576   1.740   6.256  0.0350  0.5725 -0.5462
  348MOL0     C47901   4.695   1.720   6.343  0.3627 -0.2231 -0.2395
  348MOL0     C47902   4.828   1.716   6.252 -1.0076  0.1022 -0.9903
  348MOL0     N47903   4.941   1.723   6.348 -0.4782  0.2433 -0.8196
  348MOL0     C47904   4.997   1.608   6.401 -0.2718  0.5539 -0.8447
  348MOL0     C47905   5.067   1.640   6.512 -0.9174 -0.8361 -0.1478
  348MOL0     C47906   5.157   1.555   6.608 -0.3725 -0.3369 -0.0031
  348MOL0     C47907   5.298   1.600   6.595 -0.8787 -0.4695  0.6732
  348MOL0     C47908   5.388   1.507   6.681  0.4843  0.3490 -0.4221
  348MOL0     C47909   5.523   1.575   6.705  0.5842  0.3226  0.6464
  348MOL0     O47910   5.603   1.554   6.592 -0.3443  0.6141 -0.2394
  348MOL0     C47911   5.738   1.590   6.609  0.4417 -0.4805 -0.6016
  348MOL0     C47912   5.779   1.674   6.713 -0.0759  0.0851  0.1710
  348MOL0     C47913   5.916   1.706   6.721  1.4874 -0.0602  0.7004
  348MOL0     C47914   5.961   1.781   6.840 -0.2579  0.0181 -0.0194
  348MOL0     C47915   6.004   1.658   6.619 -0.5931  0.1439  0.3445
  348MOL0     C47916   6.152   1.683   6.618  0.0684 -0.1198  0.8149
  348MOL0     O47917   6.226   1.683   6.748  0.2802 -0.1666 -0.0417
  348MOL0     C47918   6.359   1.721   6.739  0.1119  0.2618 -0.2252
  348MOL0     C47919   6.414   1.807   6.645  0.3023  0.5077 -0.0268
  348MOL0     C47920   6.548   1.837   6.641  0.4442 -0.3453  0.0853
  348MOL0     C47921   6.628   1.811   6.748 -0.5016 -0.4389  0.4027
  348MOL0     O47922   6.764   1.848   6.760  0.3358  0.2405 -0.0232
  348MOL0     C47923   6.805   1.958   6.674  0.1523 -0.9929  0.1988
  348MOL0     C47924   6.921   2.036   6.736 -0.1541  0.3674 -0.0161
  348MOL0     C47925   6.971   2.151   6.644 -0.9426  1.0099 -0.2688
  348MOL0     C47926   7.104   2.205   6.699  0.5131  0.4361 -0.1079
  348MOL0     C47927   7.134   2.330   6.617  0.1255  0.2906 -0.4429
  348MOL0     C47928   7.287   2.364   6.637  0.3132  0.8899 -0.2185
  348MOL0     C47929   7.310   2.505   6.590 -0.6532  0.3941  0.2470
  348MOL0     C47930   7.458   2.539   6.613 -0.0564  0.4335 -0.4481
  348MOL0    Cl47931   7.590   2.428   6.562 -0.2389 -0.0245  0.0361
  348MOL0     C47932   6.572   1.730   6.848  0.7989  0.5700 -0.3111
  348MOL0     C47933   6.442   1.679   6.839 -0.2529  0.7011 -0.7694
  348MOL0     O47934   6.195   1.690   6.503  0.7268 -0.2554  0.3142
  348MOL0     C47935   5.953   1.582   6.510  0.2791 -0.2536 -0.1908
  348MOL0     C47936   5.819   1.555   6.503 -0.2008 -0.2444 -0.3430
  348MOL0     N47937   5.058   1.776   6.525  0.6480 -0.0861  0.1845
  348MOL0     N47938   4.969   1.825   6.442  0.0912  0.7140  0.6752
  348MOL0     C47939   3.854   1.280   6.151 -0.1788 -0.3963 -0.8780
  348MOL0     C47940   3.746   1.192   6.135  0.0086  0.7109 -0.5701
  348MOL0     C47941   3.312   1.057   6.157  0.1217 -0.0072 -0.5133
  348MOL0     C47942   3.350   0.921   6.174 -1.0797  0.5918 -0.6066
  348MOL0     C47943   3.255   0.825   6.159  0.1224  0.2967 -0.0152
  348MOL0     C47944   3.122   0.856   6.133 -0.7584 -0.8134 -0.0219
  348MOL0     O47945   3.028   0.761   6.106 -0.5174  0.0485  0.3025
  348MOL0     C47946   2.976   0.768   5.973 -0.0438 -0.2664  0.6068
  348MOL0     C47947   3.086   0.759   5.860 -1.0503  0.2976  0.1315
  348MOL0     C47948   3.027   0.721   5.728  0.5628 -0.0808 -0.0480
  348MOL0     C47949   3.130   0.746   5.618 -0.1557  0.2807 -0.2793
  348MOL0     C47950   3.058   0.712   5.501  0.6037 -0.2156  0.2502
  348MOL0     C47951   2.986   0.673   5.406  0.1818 -0.6374  0.3735
  348MOL0     C47952   3.085   0.988   6.125 -0.7319  0.0671 -0.2353
  348MOL0     C47953   3.174   1.088   6.140  0.3845  0.0645 -0.3277
  348MOL0     C47954   3.119   1.225   6.121  0.0474 -0.1866  0.6617
  348MOL0     H47955   3.542   1.319   6.368  0.0154 -1.0512  0.0753
  348MOL0     H47956   3.718   1.470   6.409 -3.0270 -0.9310  0.8910
  348MOL0     H47957   3.959   1.573   6.430  1.3133  2.0021 -0.1336
  348MOL0     H47958   3.870   1.643   6.297  0.5857  1.0526 -1.8307
  348MOL0     H47959   4.068   1.696   6.178  1.2335 -1.2525 -0.4014
  348MOL0     H47960   4.064   1.783   6.332 -1.4916  0.1786  0.9240
  348MOL0     H47961   4.219   1.641   6.448  2.3334  0.3159 -0.6441
  348MOL0     H47962   4.224   1.521   6.321 -2.0325 -0.3069 -0.3418
  348MOL0     H47963   4.350   1.640   6.169  1.5794  0.2344 -0.6353
  348MOL0     H47964   4.288   1.799   6.222 -1.3637 -0.9197 -0.7051
  348MOL0     H47965   4.459   1.604   6.376  4.1587  0.1607  1.0375
  348MOL0     H47966   4.437   1.777   6.422 -0.1841 -0.1109  0.0882
  348MOL0     H47967   4.589   1.661   6.182  6.0065 -1.0153  1.5956
  348MOL0     H47968   4.569   1.838   6.208 -2.9637  1.1273  0.7861
  348MOL0     H47969   4.683   1.631   6.405 -1.9466 -1.0417 -1.7515
  348MOL0     H47970   4.709   1.802   6.414 -0.0876 -2.2069  2.3082
  348MOL0     H47971   4.841   1.619   6.204  2.6145 -1.8141  3.1954
  348MOL0     H47972   4.833   1.795   6.176  1.6926  1.2578  0.2591
  348MOL0     H47973   4.966   1.507   6.378 -0.3015  0.6212 -1.0972
  348MOL0     H47974   5.145   1.449   6.582 -2.7529  0.3104 -1.9594
  348MOL0     H47975   5.126   1.555   6.713  1.9918 -0.1332  0.7511
  348MOL0     H47976   5.335   1.596   6.492  2.4007  0.9834  1.6534
  348MOL0     H47977   5.313   1.701   6.633  0.6249 -1.2940  2.4705
  348MOL0     H47978   5.351   1.487   6.782  1.8525 -0.7495 -0.1077
  348MOL0     H47979   5.396   1.410   6.631 -1.7923 -0.0813 -0.0701
  348MOL0     H47980   5.508   1.683   6.719 -0.4963  0.6942 -2.5054
  348MOL0     H47981   5.575   1.524   6.787  3.1370  3.3119  1.0830
  348MOL0     H47982   5.719   1.704   6.798  0.4925  2.9359 -0.3203
  348MOL0     H47983   6.027   1.854   6.791 -1.1514 -0.6371 -2.3208
  348MOL0     H47984   6.016   1.713   6.907 -1.8939 -2.3819 -0.9944
  348MOL0     H47985   5.885   1.833   6.899 -0.4848 -1.3257  0.9166
  348MOL0     H47986   6.349   1.845   6.567  1.8018  1.2767 -0.9531
  348MOL0     H47987   6.573   1.902   6.558  0.1455 -1.1214 -0.6294
  348MOL0     H47988   6.846   1.916   6.581 -0.4717  1.2885 -1.1780
  348MOL0     H47989   6.736   2.032   6.634  0.7210 -1.0185 -0.8686
  348MOL0     H47990   6.890   2.081   6.831  1.6337 -2.4086  2.0439
  348MOL0     H47991   6.999   1.962   6.756 -1.0935 -0.7766 -0.4653
  348MOL0     H47992   6.894   2.229   6.634  0.6417  2.4121 -2.8265
  348MOL0     H47993   6.982   2.122   6.539 -0.0520  2.2682 -0.5475
  348MOL0     H47994   7.185   2.134   6.682  0.1575 -0.2494  0.9736
  348MOL0     H47995   7.109   2.227   6.806  1.6796 -1.0609  0.1703
  348MOL0     H47996   7.114   2.319   6.510  0.4133  0.3615 -0.5064
  348MOL0     H47997   7.082   2.414   6.664  2.4568  1.4721  0.2105
  348MOL0     H47998   7.332   2.281   6.582 -4.2288 -1.1310 -1.2940
  348MOL0     H47999   7.297   2.351   6.746  0.1549  0.0182 -0.3050
  348MOL0     H48000   7.246   2.571   6.649  1.0927  1.0319  1.5335
  348MOL0     H48001   7.284   2.508   6.483 -1.2146 -1.8920  0.2605
  348MOL0     H48002   7.471   2.558   6.720 -2.5649  3.0707 -0.4760
  348MOL0     H48003   7.485   2.632   6.561  1.0119  0.5493  0.2504
  348MOL0     H48004   6.632   1.716   6.938  1.1486  4.2524  0.2085
  348MOL0     H48005   6.393   1.623   6.918 -1.1839  2.9796  0.3591
  348MOL0     H48006   6.022   1.558   6.430  1.0102  1.0396  0.0182
  348MOL0     H48007   5.782   1.507   6.413 -0.5536 -0.1985 -0.2246
  348MOL0     H48008   3.937   1.272   6.081 -0.1733  2.1399 -1.2907
  348MOL0     H48009   3.738   1.128   6.048  0.9491  3.1419 -2.5688
  348MOL0     H48010   3.451   0.882   6.183 -0.8665  0.6173 -2.5179
  348MOL0     H48011   3.271   0.718   6.166 -4.1763 -0.5081  0.3205
  348MOL0     H48012   2.897   0.693   5.971 -1.1210  0.8383  0.1834
  348MOL0     H48013   2.929   0.866   5.954  3.0135  1.2772  0.3202
  348MOL0     H48014   3.157   0.683   5.894 -0.0620  1.0810 -0.1452
  348MOL0     H48015   3.147   0.849   5.848 -0.5664 -0.1862 -1.1896
  348MOL0     H48016   2.984   0.620   5.732  2.0243 -0.7264  0.3044
  348MOL0     H48017   2.949   0.797   5.718  0.6602  0.0040 -0.1599
  348MOL0     H48018   3.218   0.681   5.621  0.5634  1.0348 -2.5229
  348MOL0     H48019   3.161   0.851   5.610  1.9111 -0.4313 -4.4959
  348MOL0     H48020   2.913   0.663   5.328 -2.5157  0.8393  2.5252
  348MOL0     H48021   2.982   1.017   6.109 -0.1662  1.4430 -1.7110
  348MOL0     H48022   3.145   1.268   6.023 -1.0278 -1.4064 -0.2001
  348MOL0     H48023   3.011   1.222   6.138  0.1815 -0.4319  1.4715
  348MOL0     H48024   3.146   1.307   6.187  1.7741 -0.3349  0.1707
  349MOL0     O48025   6.175   5.350   9.104  0.5124 -0.1788 -0.6682
  349MOL0     C48026   6.221   5.241   9.130 -0.0277  0.2331 -0.0336
  349MOL0     O48027   6.154   5.139   9.203 -0.0932  0.1576  0.3092
  349MOL0     C48028   6.035   5.151   9.268 -0.9584  0.2479 -0.2391
  349MOL0     C48029   5.984   5.274   9.327 -0.6478  0.3072  0.4457
  349MOL0     C48030   5.866   5.275   9.398  0.1175 -1.0823  0.9834
  349MOL0     C48031   5.797   5.158   9.412 -0.6480 -0.0630  0.0104
  349MOL0     O48032   5.692   5.159   9.502  0.1932 -0.5498 -0.0625
  349MOL0     C48033   5.612   5.044   9.530  0.2428  1.1100 -0.1767
  349MOL0     C48034   5.502   5.106   9.624 -0.1006  0.3749 -0.5522
  349MOL0     C48035   5.376   5.138   9.538 -0.1624 -0.2345 -0.4653
  349MOL0     C48036   5.387   5.261   9.441 -0.0334  0.0583 -0.0386
  349MOL0     C48037   5.283   5.250   9.344 -0.4107 -0.0537  0.2281
  349MOL0     C48038   5.306   5.148   9.235  0.6441  0.7896  0.1138
  349MOL0     C48039   5.438   5.132   9.167 -0.0097 -0.1149  0.4471
  349MOL0     C48040   5.430   5.045   9.039  0.6622  0.4766  0.8737
  349MOL0     N48041   5.562   5.022   8.977  0.6028  0.1527 -0.0452
  349MOL0     C48042   5.693   5.061   9.022 -0.1146 -0.4184  1.0956
  349MOL0     C48043   5.777   5.034   8.917 -0.3244  0.1937 -0.6074
  349MOL0     C48044   5.922   5.073   8.909 -0.4346 -0.5060  0.7376
  349MOL0     C48045   6.010   4.994   8.815 -0.1177 -0.2738  0.3476
  349MOL0     C48046   6.158   5.017   8.850  0.1961 -0.7741  0.9619
  349MOL0     C48047   6.231   5.051   8.714  0.3133 -0.9494 -1.3370
  349MOL0     O48048   6.366   5.092   8.738  0.5168 -0.2160  0.5502
  349MOL0     C48049   6.458   5.059   8.639  0.1789  0.0279 -0.4547
  349MOL0     C48050   6.423   5.016   8.511 -0.6052 -0.6120 -1.4189
  349MOL0     C48051   6.522   4.981   8.419 -0.7426  0.1629 -0.2023
  349MOL0     C48052   6.475   4.937   8.282  0.8401 -0.6119 -0.1512
  349MOL0     C48053   6.661   4.990   8.450  1.1222 -0.1103 -0.8605
  349MOL0     C48054   6.767   4.946   8.362  0.5624  0.0590  0.2413
  349MOL0     O48055   6.872   5.035   8.336 -0.4498 -0.1373 -0.7218
  349MOL0     C48056   6.974   4.983   8.262  0.3411 -0.8512 -0.3315
  349MOL0     C48057   7.016   5.059   8.156  0.2726 -0.4616 -0.4761
  349MOL0     C48058   7.134   5.020   8.089 -0.7379  0.1952 -0.0081
  349MOL0     C48059   7.213   4.911   8.127  0.1177  0.1133 -0.3259
  349MOL0     O48060   7.326   4.880   8.063  0.5492  0.2328  0.1185
  349MOL0     C48061   7.364   4.932   7.943  0.1245 -0.0576  0.2075
  349MOL0     C48062   7.481   4.851   7.886 -0.1006  0.3347  0.0703
  349MOL0     C48063   7.605   4.860   7.980 -0.3467 -0.2391 -0.1270
  349MOL0     C48064   7.722   4.790   7.915 -0.1262 -1.2368  0.4156
  349MOL0     C48065   7.842   4.748   8.005 -0.5018 -0.0401  0.3863
  349MOL0     C48066   7.795   4.635   8.096 -0.6824  0.3296 -0.9272
  349MOL0     C48067   7.920   4.571   8.153 -0.4118 -1.0774  0.2485
  349MOL0     C48068   7.869   4.486   8.274  0.1019  0.6642  0.7705
  349MOL0    Cl48069   8.013   4.416   8.371  0.1554 -0.8155 -0.3036
  349MOL0     C48070   7.171   4.836   8.242 -0.0874 -0.1525  0.4660
  349MOL0     C48071   7.055   4.876   8.308 -0.3689 -0.7973 -0.5491
  349MOL0     O48072   6.768   4.828   8.329 -0.2875  0.3918  0.2263
  349MOL0     C48073   6.695   5.038   8.580 -0.1075  0.2210 -0.3197
  349MOL0     C48074   6.593   5.066   8.670  0.7361  0.8368 -0.5111
  349MOL0     N48075   5.708   4.958   8.822 -0.6595  0.1818 -0.6649
  349MOL0     N48076   5.582   4.963   8.849 -0.1155 -0.4146 -0.9096
  349MOL0     C48077   5.845   5.036   9.359  0.3480  0.3836  0.4728
  349MOL0     C48078   5.958   5.035   9.282  0.2831 -0.3864 -0.0954
  349MOL0     C48079   6.365   5.227   9.080 -0.1072 -0.2508 -0.0783
  349MOL0     C48080   6.423   5.330   9.004  0.3316  1.0029  0.1213
  349MOL0     C48081   6.561   5.327   8.975  0.0279  0.1636 -0.2818
  349MOL0     C48082   6.649   5.227   9.020  0.2357 -0.6633  0.2164
  349MOL0     O48083   6.775   5.239   8.976 -0.0790  0.2342  0.0686
  349MOL0     C48084   6.866   5.132   8.994  1.0610 -0.4894 -0.2989
  349MOL0     C48085   6.987   5.167   8.929  0.0844  0.5875 -0.3683
  349MOL0     C48086   6.968   5.177   8.776 -0.2359  0.5225 -0.7092
  349MOL0     C48087   7.083   5.273   8.726  0.7460  0.0581  0.5720
  349MOL0     C48088   7.223   5.222   8.746  0.0392 -0.5295 -0.6025
  349MOL0     C48089   7.332   5.169   8.759  0.0588 -0.7635 -0.2407
  349MOL0     C48090   6.585   5.121   9.081 -0.4612 -0.4753  0.0754
  349MOL0     C48091   6.447   5.115   9.113 -0.4521  0.2723 -0.8460
  349MOL0     C48092   6.400   4.980   9.170 -0.0511  0.1287 -0.2288
  349MOL0     H48093   6.041   5.367   9.321  0.2840 -0.0111  3.0759
  349MOL0     H48094   5.838   5.366   9.450  4.7431 -0.1454  2.3562
  349MOL0     H48095   5.667   4.979   9.598 -1.6613  2.2020  2.6165
  349MOL0     H48096   5.572   4.985   9.447  0.1472  0.5761  0.2430
  349MOL0     H48097   5.487   5.041   9.711  1.2617  2.6174  1.5178
  349MOL0     H48098   5.541   5.198   9.668  2.0517 -0.9228  0.4476
  349MOL0     H48099   5.369   5.042   9.485 -1.2623  0.2159 -1.1709
  349MOL0     H48100   5.286   5.143   9.600 -0.8613 -2.7283 -1.1356
  349MOL0     H48101   5.361   5.351   9.496 -3.6428 -0.2567 -0.9542
  349MOL0     H48102   5.482   5.252   9.387 -0.5634 -1.1868 -0.8296
  349MOL0     H48103   5.279   5.344   9.288 -2.4378  0.8137  1.6958
  349MOL0     H48104   5.185   5.230   9.388 -0.2745 -1.6355 -0.1198
  349MOL0     H48105   5.289   5.052   9.284 -0.4685  1.2301  0.6332
  349MOL0     H48106   5.230   5.154   9.157  0.0146  0.6096  0.7046
  349MOL0     H48107   5.507   5.080   9.234  1.0669  0.5757 -0.1195
  349MOL0     H48108   5.488   5.224   9.138  4.3281 -1.4171  2.9410
  349MOL0     H48109   5.389   4.948   9.067 -0.6845  0.2867 -1.5691
  349MOL0     H48110   5.365   5.085   8.962  0.2520 -3.3426 -0.9729
  349MOL0     H48111   5.728   5.099   9.117 -0.0233  2.5841 -0.0568
  349MOL0     H48112   5.971   5.053   9.004  2.2097  0.8156 -0.2465
  349MOL0     H48113   5.926   5.177   8.874  5.1083 -0.7595 -0.2957
  349MOL0     H48114   5.991   4.887   8.825  1.6661 -0.7758 -1.3141
  349MOL0     H48115   5.983   5.021   8.713  1.2518  3.6963  0.8469
  349MOL0     H48116   6.175   5.107   8.909 -2.6279  0.1761  0.4892
  349MOL0     H48117   6.212   4.939   8.903  0.1495  0.0334  2.2390
  349MOL0     H48118   6.218   4.960   8.655 -0.9462 -0.6640 -1.5252
  349MOL0     H48119   6.183   5.137   8.666 -0.6402 -1.1999 -0.8525
  349MOL0     H48120   6.317   5.015   8.489 -0.8214  2.6608 -0.9284
  349MOL0     H48121   6.420   4.842   8.289 -1.0491  0.3787 -1.0148
  349MOL0     H48122   6.541   4.924   8.196  0.8448 -1.0914 -0.0798
  349MOL0     H48123   6.407   5.016   8.251  2.0495  0.6589  0.3232
  349MOL0     H48124   6.958   5.148   8.133 -0.0281 -0.1981  1.1501
  349MOL0     H48125   7.158   5.087   8.007  1.0902 -0.2438  0.1322
  349MOL0     H48126   7.282   4.924   7.872 -2.3537  0.7873  2.8062
  349MOL0     H48127   7.378   5.040   7.937  0.9953 -0.1161  0.9487
  349MOL0     H48128   7.449   4.749   7.866  2.0020 -0.9456  2.6082
  349MOL0     H48129   7.500   4.892   7.786 -4.3181 -0.5649 -1.2853
  349MOL0     H48130   7.585   4.818   8.079  4.8696 -1.3764  0.7594
  349MOL0     H48131   7.637   4.964   7.993  1.6311 -0.7923 -0.2165
  349MOL0     H48132   7.759   4.857   7.837  0.6527 -0.7594  1.1822
  349MOL0     H48133   7.687   4.693   7.876  0.3435 -1.0846 -0.4102
  349MOL0     H48134   7.926   4.714   7.945 -1.5745 -5.0599  1.2968
  349MOL0     H48135   7.876   4.836   8.061  0.7361 -0.1170 -0.2318
  349MOL0     H48136   7.732   4.562   8.045  0.6845 -1.8737  0.3929
  349MOL0     H48137   7.740   4.688   8.174 -1.4089 -1.7414  0.0487
  349MOL0     H48138   7.995   4.644   8.186 -0.1672 -1.3717  0.3576
  349MOL0     H48139   7.975   4.499   8.091 -0.7374 -1.8704  0.8556
  349MOL0     H48140   7.805   4.406   8.237  0.3261  0.6066  0.5070
  349MOL0     H48141   7.806   4.552   8.334  0.8769  1.7623  0.4072
  349MOL0     H48142   7.228   4.756   8.286 -0.7573 -0.9169 -0.0278
  349MOL0     H48143   7.031   4.809   8.390 -2.3776 -0.2332 -0.6425
  349MOL0     H48144   6.802   5.037   8.596  0.0434  2.6658 -0.6898
  349MOL0     H48145   6.619   5.113   8.764 -1.7020 -1.1525  1.3000
  349MOL0     H48146   5.794   4.942   9.372 -2.9403  1.8236 -0.8218
  349MOL0     H48147   5.992   4.937   9.251 -0.1265 -1.3526  2.2849
  349MOL0     H48148   6.370   5.410   8.953  1.2320  0.2937 -2.0547
  349MOL0     H48149   6.598   5.410   8.915 -0.2896 -1.0289 -2.1888
  349MOL0     H48150   6.889   5.117   9.100  3.0555 -0.4482 -0.6944
  349MOL0     H48151   6.819   5.040   8.958  0.2640 -0.9078  1.6817
  349MOL0     H48152   7.060   5.088   8.948 -3.0330 -2.4620 -0.1874
  349MOL0     H48153   7.037   5.253   8.974 -0.4585 -0.1139  1.6991
  349MOL0     H48154   6.974   5.073   8.743  0.9063 -1.1348  3.9051
  349MOL0     H48155   6.866   5.203   8.747 -0.3872  0.4241 -0.2800
  349MOL0     H48156   7.079   5.366   8.784 -0.6712 -0.2657  1.0124
  349MOL0     H48157   7.071   5.307   8.623 -1.5723  1.1401  1.1403
  349MOL0     H48158   7.424   5.118   8.779  1.1205  1.5358  1.0767
  349MOL0     H48159   6.645   5.035   9.109  2.4575  1.6975  0.8911
  349MOL0     H48160   6.318   4.936   9.114  1.3561 -1.8059 -0.8795
  349MOL0     H48161   6.477   4.904   9.185  0.1505  0.9103  3.6871
  349MOL0     H48162   6.366   5.011   9.269  1.3695  2.2862 -0.3235
  350MOL0     O48163   1.420   0.538  10.723 -0.3448  0.6189 -0.0017
  350MOL0     C48164   1.310   0.588  10.697 -0.2999 -0.6310  0.1253
  350MOL0     O48165   1.288   0.721  10.694  0.3512  0.5634 -0.3386
  350MOL0     C48166   1.387   0.797  10.750 -0.4735 -0.2013  0.4468
  350MOL0     C48167   1.496   0.838  10.671  0.5891  0.5707  0.1386
  350MOL0     C48168   1.589   0.922  10.733 -0.3553  0.4021  1.0335
  350MOL0     C48169   1.582   0.963  10.869  0.2449  0.1134 -0.9019
  350MOL0     O48170   1.669   1.052  10.928  0.3837 -0.5623  0.6037
  350MOL0     C48171   1.766   1.114  10.836  0.5485 -0.0252 -1.1037
  350MOL0     C48172   1.891   1.032  10.820  0.4617  0.2083 -0.1890
  350MOL0     C48173   1.988   1.052  10.934  0.2050  0.2603  0.3420
  350MOL0     C48174   2.115   0.974  10.909 -0.6605 -0.1042  0.6313
  350MOL0     C48175   2.220   1.009  11.014  0.4991  0.1926  0.3223
  350MOL0     C48176   2.343   0.935  10.969 -0.5358  0.2083  0.0729
  350MOL0     C48177   2.456   0.950  11.080 -0.0569 -0.7743  0.3214
  350MOL0     C48178   2.595   0.929  11.020 -0.0878 -0.2589  0.1786
  350MOL0     N48179   2.618   0.790  10.977  0.3752  0.1812  0.6574
  350MOL0     C48180   2.649   0.690  11.057 -0.3729  0.9262  0.4029
  350MOL0     C48181   2.627   0.583  10.976 -0.0603  0.3844  0.4585
  350MOL0     C48182   2.651   0.438  11.003 -0.6474  0.3557  0.3422
  350MOL0     C48183   2.573   0.381  11.119 -0.3868 -0.4054  0.2247
  350MOL0     C48184   2.425   0.368  11.085 -0.1017 -0.2803  1.2203
  350MOL0     C48185   2.362   0.266  11.174 -0.5632  0.0155 -0.6414
  350MOL0     O48186   2.227   0.254  11.141  1.0870 -0.0776 -0.3321
  350MOL0     C48187   2.152   0.158  11.212 -0.3008  0.6311  0.0619
  350MOL0     C48188   2.200   0.087  11.326 -0.7147 -0.0793  0.7910
  350MOL0     C48189   2.113   0.021  11.412  0.4414  0.4357 -0.7265
  350MOL0     C48190   2.173  -0.055  11.539  0.6551 -0.3203  0.2882
  350MOL0     C48191   1.980  -0.002  11.375 -0.3854 -0.9757 -0.3182
  350MOL0     C48192   1.888  -0.070  11.462  0.2174 -0.1530  0.5091
  350MOL0     O48193   1.764  -0.034  11.429  0.0359  0.3523 -0.2753
  350MOL0     C48194   1.662  -0.083  11.504  1.0016  0.6946 -0.5164
  350MOL0     C48195   1.643  -0.053  11.641  0.1207 -0.2330 -0.1160
  350MOL0     C48196   1.537  -0.096  11.718  0.8516  1.0050 -0.2389
  350MOL0     C48197   1.449  -0.191  11.663  0.3336 -0.8268  0.0403
  350MOL0     O48198   1.353  -0.247  11.745  0.5283  0.1155  0.9479
  350MOL0     C48199   1.266  -0.353  11.688 -0.6991 -0.5257 -0.0747
  350MOL0     C48200   1.161  -0.400  11.786  0.0100  0.9297  0.6708
  350MOL0     C48201   1.052  -0.299  11.815 -0.0976  0.3709  0.4216
  350MOL0     C48202   0.936  -0.385  11.872 -1.1486 -0.0562  0.3169
  350MOL0     C48203   0.822  -0.284  11.895  1.1967  0.2057 -0.1914
  350MOL0     C48204   0.692  -0.355  11.952 -1.2984  0.5039  0.7071
  350MOL0     C48205   0.579  -0.261  11.998 -0.2923 -0.0034 -0.1847
  350MOL0     C48206   0.599  -0.220  12.145  0.5181 -0.9900  0.2111
  350MOL0    Cl48207   0.582  -0.363  12.248 -0.3425  0.0885 -0.6998
  350MOL0     C48208   1.460  -0.207  11.520 -0.1670 -0.9461 -0.3373
  350MOL0     C48209   1.561  -0.159  11.443 -0.8448 -0.5697  0.4647
  350MOL0     O48210   1.919  -0.148  11.552  0.2644  0.8736 -0.3088
  350MOL0     C48211   1.935   0.056  11.253  0.7092 -0.9589  0.1606
  350MOL0     C48212   2.016   0.137  11.172 -0.4776 -0.5023 -0.7971
  350MOL0     N48213   2.573   0.627  10.855 -0.0689  0.0176  0.4999
  350MOL0     N48214   2.581   0.757  10.853  0.1984  0.6103 -0.2871
  350MOL0     C48215   1.474   0.913  10.935 -0.3384 -0.4362 -0.7567
  350MOL0     C48216   1.374   0.835  10.883  0.0306  0.2662  0.4771
  350MOL0     C48217   1.192   0.496  10.700 -0.1130  0.4606  0.0667
  350MOL0     C48218   1.085   0.547  10.776 -0.1301 -0.0414  0.9862
  350MOL0     C48219   0.971   0.472  10.804  0.3476  0.4045 -0.1825
  350MOL0     C48220   0.958   0.340  10.761 -0.1592 -0.3546  0.2850
  350MOL0     O48221   0.841   0.281  10.786  0.2733  0.6710 -0.8562
  350MOL0     C48222   0.840   0.224  10.920  0.5092 -0.4485  0.3145
  350MOL0     C48223   0.749   0.101  10.906 -0.6706  0.6689  0.2314
  350MOL0     C48224   0.827   0.002  10.815 -0.7163  0.2053  0.3333
  350MOL0     C48225   0.799  -0.144  10.867 -0.2474  0.2174 -0.5295
  350MOL0     C48226   0.865  -0.190  10.997  0.5441 -0.1386  1.3982
  350MOL0     C48227   0.906  -0.215  11.106  0.2951 -0.0016 -0.9670
  350MOL0     C48228   1.065   0.284  10.693 -0.4099 -0.1304  0.2389
  350MOL0     C48229   1.185   0.362  10.664  0.1277  1.4388 -0.0461
  350MOL0     C48230   1.292   0.285  10.580  0.5787  0.4634  0.2350
  350MOL0     H48231   1.507   0.821  10.565 -0.1729  1.7808 -0.1576
  350MOL0     H48232   1.677   0.956  10.680 -0.8090 -0.9933 -0.7361
  350MOL0     H48233   1.791   1.211  10.881  2.4887 -0.5861 -0.8576
  350MOL0     H48234   1.717   1.143  10.743  0.2629  0.4394 -0.8119
  350MOL0     H48235   1.862   0.927  10.812  1.0032  0.1037 -0.8398
  350MOL0     H48236   1.941   1.063  10.728 -0.0998 -1.2302 -1.0169
  350MOL0     H48237   2.005   1.155  10.964  2.7211 -0.5142  1.8184
  350MOL0     H48238   1.940   1.007  11.022 -1.7885  0.0103 -0.8017
  350MOL0     H48239   2.090   0.867  10.905 -2.0007  0.1373  1.6687
  350MOL0     H48240   2.147   1.001  10.808  0.3692 -0.6595  0.8025
  350MOL0     H48241   2.193   0.979  11.116 -1.8084  0.0290 -0.2767
  350MOL0     H48242   2.233   1.117  11.016 -2.1025  0.7655 -3.3101
  350MOL0     H48243   2.323   0.829  10.949 -2.6414  0.5310  0.2513
  350MOL0     H48244   2.376   0.979  10.874  0.5661 -1.6530 -0.4559
  350MOL0     H48245   2.436   0.878  11.161 -0.6279 -0.2654  0.6485
  350MOL0     H48246   2.457   1.054  11.113  0.8525  0.2821 -2.7778
  350MOL0     H48247   2.598   0.999  10.937 -2.7840  2.0016  1.8054
  350MOL0     H48248   2.680   0.953  11.084  2.8353 -4.2881 -1.7869
  350MOL0     H48249   2.676   0.687  11.162 -1.8632  0.7052  0.7905
  350MOL0     H48250   2.757   0.418  11.017 -0.8290  0.5252  2.2036
  350MOL0     H48251   2.638   0.378  10.913 -0.8898 -2.0085  1.8521
  350MOL0     H48252   2.613   0.283  11.147  0.4908 -0.5991 -1.5825
  350MOL0     H48253   2.587   0.445  11.207  1.9887 -0.9696  0.3344
  350MOL0     H48254   2.376   0.466  11.087  2.1626  0.9740 -0.0171
  350MOL0     H48255   2.409   0.340  10.981 -2.2555  1.2157  1.0808
  350MOL0     H48256   2.421   0.174  11.178  4.1781  2.6430 -2.1674
  350MOL0     H48257   2.362   0.308  11.276 -0.3045  0.8494 -0.9730
  350MOL0     H48258   2.304   0.100  11.352 -0.9690  1.6057  1.0690
  350MOL0     H48259   2.270  -0.012  11.566 -0.0629  0.1264  2.3611
  350MOL0     H48260   2.178  -0.161  11.514  0.7179 -0.1155 -0.6337
  350MOL0     H48261   2.118  -0.047  11.633  0.8534 -2.8566  0.6758
  350MOL0     H48262   1.722   0.013  11.674 -0.1667  0.0266  0.0565
  350MOL0     H48263   1.527  -0.069  11.823  1.2655 -2.6442  0.8616
  350MOL0     H48264   1.202  -0.317  11.607  0.6757  1.5666 -0.3151
  350MOL0     H48265   1.333  -0.436  11.664 -1.1373 -1.1851  0.9021
  350MOL0     H48266   1.100  -0.480  11.742  1.0114  0.1004  0.7413
  350MOL0     H48267   1.210  -0.422  11.881  1.0070 -0.2653 -0.0895
  350MOL0     H48268   1.018  -0.251  11.723 -2.5228  0.9139  1.5102
  350MOL0     H48269   1.082  -0.224  11.888  1.1557  0.7146 -0.4306
  350MOL0     H48270   0.970  -0.428  11.967 -3.3278 -0.7695  0.8369
  350MOL0     H48271   0.908  -0.462  11.800 -1.3345 -1.1131  1.4657
  350MOL0     H48272   0.848  -0.201  11.962 -0.7381  1.0876 -0.4642
  350MOL0     H48273   0.792  -0.251  11.795  2.0106 -1.8813 -1.1712
  350MOL0     H48274   0.719  -0.422  12.034  0.7594  0.4692  0.0502
  350MOL0     H48275   0.659  -0.427  11.877 -0.5030  0.0620  0.7633
  350MOL0     H48276   0.486  -0.318  11.987 -0.2086  0.1369 -1.9593
  350MOL0     H48277   0.591  -0.175  11.932  1.0625  1.0031  1.3170
  350MOL0     H48278   0.522  -0.149  12.175  1.6431  0.4628 -0.1968
  350MOL0     H48279   0.697  -0.173  12.161  0.1746 -1.1128  3.2420
  350MOL0     H48280   1.385  -0.263  11.465 -0.6389 -1.7601  1.0803
  350MOL0     H48281   1.563  -0.172  11.336  2.0352  0.3445  0.3345
  350MOL0     H48282   1.830   0.063  11.227  0.5609  1.1003  1.1771
  350MOL0     H48283   1.980   0.199  11.091 -1.4625 -0.5228 -0.3889
  350MOL0     H48284   1.458   0.947  11.037 -0.7216  0.8381 -1.2219
  350MOL0     H48285   1.288   0.810  10.944  0.5199 -2.2738  0.2476
  350MOL0     H48286   1.081   0.646  10.821 -0.6993 -0.4285  1.8218
  350MOL0     H48287   0.889   0.508  10.865 -0.1475  1.8384 -1.6126
  350MOL0     H48288   0.937   0.199  10.963  0.2110  1.4671  2.2555
  350MOL0     H48289   0.791   0.300  10.981  1.2951 -1.5442  2.4380
  350MOL0     H48290   0.653   0.126  10.861 -0.6620  0.0117 -0.1558
  350MOL0     H48291   0.726   0.061  11.005 -0.6322  0.5902  0.2079
  350MOL0     H48292   0.780   0.003  10.716  1.9429  1.6403 -1.0175
  350MOL0     H48293   0.936   0.015  10.809 -0.6460  0.6357  2.0549
  350MOL0     H48294   0.816  -0.225  10.796  2.4825 -0.8367  1.1563
  350MOL0     H48295   0.694  -0.153  10.895 -0.5554 -1.8633 -2.0893
  350MOL0     H48296   0.933  -0.240  11.207  0.6580  0.6950 -0.8807
  350MOL0     H48297   1.056   0.184  10.654 -0.7297 -0.9483  2.2600
  350MOL0     H48298   1.355   0.225  10.647 -0.8037 -2.8733 -1.2524
  350MOL0     H48299   1.240   0.210  10.520  1.9641  0.5756 -1.1746
  350MOL0     H48300   1.351   0.344  10.509  0.2970  0.1804 -0.2352
  351MOL0     O48301   7.379   1.376   2.317  0.1359 -0.1437  0.3836
  351MOL0     C48302   7.284   1.438   2.276 -0.8472  0.3675  1.5450
  351MOL0     O48303   7.300   1.530   2.173 -0.1445 -0.2364  0.3076
  351MOL0     C48304   7.427   1.538   2.113  0.0446 -0.6817 -0.1867
  351MOL0     C48305   7.511   1.650   2.145 -0.2393  0.9631  0.2224
  351MOL0     C48306   7.641   1.661   2.082  0.3106  0.5430  0.6859
  351MOL0     C48307   7.690   1.570   1.982  0.2273  0.5029  0.3047
  351MOL0     O48308   7.808   1.594   1.916  0.4688  0.1685 -0.5891
  351MOL0     C48309   7.879   1.480   1.862  0.6541  0.8240  0.4267
  351MOL0     C48310   7.937   1.379   1.960 -1.0253 -0.2842 -0.4414
  351MOL0     C48311   8.060   1.428   2.047  0.2017  0.5470 -0.9108
  351MOL0     C48312   8.133   1.309   2.118 -0.7464 -0.0203 -0.5674
  351MOL0     C48313   8.290   1.312   2.105  0.2085 -0.5907 -0.1988
  351MOL0     C48314   8.353   1.182   2.157  1.0845 -0.1747  0.0244
  351MOL0     C48315   8.507   1.170   2.121  0.5181  0.2725 -0.0458
  351MOL0     C48316   8.594   1.239   2.230 -0.6239 -0.1103  0.2673
  351MOL0     N48317   8.736   1.255   2.184 -0.3021 -0.2563  0.0892
  351MOL0     C48318   8.780   1.351   2.100 -0.6222 -0.4176  0.9717
  351MOL0     C48319   8.913   1.347   2.109 -1.1274 -1.0554 -0.1247
  351MOL0     C48320   9.004   1.444   2.031 -0.5698  0.2596  0.0413
  351MOL0     C48321   9.063   1.367   1.911 -0.8789  0.3156 -0.2112
  351MOL0     C48322   9.142   1.437   1.800 -0.1500 -1.1993 -0.4938
  351MOL0     C48323   9.211   1.573   1.838 -0.1762 -0.4187 -0.2601
  351MOL0     O48324   9.290   1.561   1.956  0.1787  0.2605  0.4381
  351MOL0     C48325   9.347   1.677   2.004  1.1766  0.4307 -0.8267
  351MOL0     C48326   9.335   1.805   1.952 -0.2696 -0.2065 -0.4302
  351MOL0     C48327   9.387   1.916   2.026  1.1905  0.2140 -0.7008
  351MOL0     C48328   9.356   2.052   1.961 -0.2377  0.7094  0.9594
  351MOL0     C48329   9.458   1.896   2.149  1.0959  0.7683 -0.3427
  351MOL0     C48330   9.526   2.007   2.227 -0.1002  0.1031  0.0655
  351MOL0     O48331   9.559   2.129   2.156 -0.4449 -0.4471  0.4810
  351MOL0     C48332   9.619   2.232   2.216 -0.5745 -0.2041  0.0522
  351MOL0     C48333   9.733   2.215   2.307  0.1478  0.3250 -0.5308
  351MOL0     C48334   9.790   2.329   2.361  0.3594 -0.6434  0.5649
  351MOL0     C48335   9.760   2.462   2.316  0.5696  0.7796  0.5484
  351MOL0     O48336   9.819   2.581   2.357  0.2620  0.3713 -0.3692
  351MOL0     C48337   9.951   2.569   2.419 -1.1072  0.4346 -0.2280
  351MOL0     C48338   9.938   2.556   2.572 -1.0584 -0.3690 -0.1977
  351MOL0     C48339  10.074   2.522   2.638  0.3294  0.4722 -0.2288
  351MOL0     C48340  10.171   2.642   2.651 -0.5589 -0.0322 -0.0147
  351MOL0     C48341  10.287   2.602   2.750  0.3445  0.1655 -0.2712
  351MOL0     C48342  10.400   2.688   2.738 -0.0855 -0.9379  0.0035
  351MOL0     C48343  10.361   2.835   2.778 -0.4247 -0.5548 -0.4441
  351MOL0     C48344  10.477   2.932   2.795 -0.2409 -0.0468 -0.1152
  351MOL0    Cl48345  10.405   3.081   2.855 -0.0793 -0.1710  0.1331
  351MOL0     C48346   9.659   2.476   2.220  0.0855 -0.2344 -0.2299
  351MOL0     C48347   9.583   2.365   2.179 -0.1336 -0.1368 -0.7775
  351MOL0     O48348   9.535   1.994   2.342 -0.1008 -0.0620 -0.5695
  351MOL0     C48349   9.466   1.766   2.203  0.5057  0.9001  0.9471
  351MOL0     C48350   9.414   1.661   2.127  0.2666 -0.4509 -0.2810
  351MOL0     N48351   8.950   1.245   2.187 -0.2394 -0.6965  0.3181
  351MOL0     N48352   8.847   1.191   2.238 -0.4008  0.2006  0.3340
  351MOL0     C48353   7.593   1.475   1.943 -0.1347 -1.2490  0.0428
  351MOL0     C48354   7.465   1.458   2.006  0.6760 -0.5632  0.0628
  351MOL0     C48355   7.148   1.419   2.324 -0.5397  0.0463  0.1919
  351MOL0     C48356   7.039   1.480   2.251 -0.7197  0.6064  0.4386
  351MOL0     C48357   6.897   1.467   2.276  0.6022 -0.0780 -0.0199
  351MOL0     C48358   6.862   1.391   2.388  0.1730  0.1000  0.2120
  351MOL0     O48359   6.733   1.376   2.438  0.4554 -0.4492  0.7096
  351MOL0     C48360   6.633   1.458   2.371 -0.1730  0.0323 -0.0877
  351MOL0     C48361   6.511   1.451   2.458 -0.7315 -0.5028 -0.1682
  351MOL0     C48362   6.465   1.309   2.486  0.4012 -0.3942  0.3289
  351MOL0     C48363   6.321   1.285   2.539 -0.5593 -0.1000  0.2681
  351MOL0     C48364   6.215   1.278   2.437 -0.0386  0.2025  0.0838
  351MOL0     C48365   6.132   1.284   2.348  0.4174  0.1946  0.9063
  351MOL0     C48366   6.962   1.321   2.459  1.1596  0.3563  1.4145
  351MOL0     C48367   7.105   1.331   2.430 -0.3708  0.1268 -0.2460
  351MOL0     C48368   7.194   1.248   2.527 -0.1736 -0.3577  0.5693
  351MOL0     H48369   7.476   1.730   2.209 -0.9674  0.7250  0.1371
  351MOL0     H48370   7.695   1.751   2.109  1.4159 -0.0838  0.6277
  351MOL0     H48371   7.952   1.513   1.788 -1.5396  1.8317 -1.3991
  351MOL0     H48372   7.812   1.416   1.804  1.6984 -3.0039  3.0753
  351MOL0     H48373   7.856   1.354   2.028 -1.9541  2.9836 -0.1861
  351MOL0     H48374   7.966   1.289   1.904 -1.9120  0.9905 -3.1302
  351MOL0     H48375   8.129   1.462   1.969  2.4420 -2.6303 -0.5190
  351MOL0     H48376   8.026   1.508   2.113 -1.6045 -1.2242  0.4039
  351MOL0     H48377   8.112   1.304   2.225 -2.6913 -2.6495 -0.9781
  351MOL0     H48378   8.105   1.213   2.074  1.5019  0.0395 -2.3641
  351MOL0     H48379   8.332   1.400   2.153  0.8845  0.1378 -2.0487
  351MOL0     H48380   8.312   1.317   1.998 -1.8960 -1.1391 -0.6992
  351MOL0     H48381   8.335   1.179   2.265  1.0841  0.0106  0.0311
  351MOL0     H48382   8.304   1.094   2.114 -0.1427  0.8838 -0.8257
  351MOL0     H48383   8.528   1.201   2.018  2.1456  1.8632  0.6931
  351MOL0     H48384   8.532   1.064   2.119  0.0891  0.1249 -3.6228
  351MOL0     H48385   8.552   1.339   2.247 -0.7456 -0.2398  0.7756
  351MOL0     H48386   8.588   1.178   2.321 -0.2808 -0.8953 -0.2209
  351MOL0     H48387   8.721   1.418   2.038  1.1109  0.2046 -0.1158
  351MOL0     H48388   9.077   1.483   2.102  2.4295 -1.6008 -1.7881
  351MOL0     H48389   8.933   1.514   1.986  0.2128  0.7161 -0.5168
  351MOL0     H48390   9.139   1.302   1.955  0.4301  0.8339 -1.6380
  351MOL0     H48391   8.986   1.318   1.851  1.0561 -1.3986 -1.4177
  351MOL0     H48392   9.220   1.369   1.764  2.1988 -0.4033  2.7038
  351MOL0     H48393   9.080   1.444   1.710  0.1593  0.5156 -0.6053
  351MOL0     H48394   9.266   1.612   1.751 -0.0882 -1.5610 -0.7307
  351MOL0     H48395   9.127   1.640   1.858 -1.2297 -2.3695  2.4518
  351MOL0     H48396   9.275   1.811   1.861 -1.4242 -0.6480  0.2784
  351MOL0     H48397   9.339   2.136   2.029 -1.3325  2.0408 -0.8441
  351MOL0     H48398   9.268   2.043   1.896  0.2120 -2.1844  0.6628
  351MOL0     H48399   9.442   2.078   1.900 -1.5537  0.2922 -1.1705
  351MOL0     H48400   9.753   2.119   2.353 -2.1046  0.1325  0.2064
  351MOL0     H48401   9.860   2.311   2.442  0.2408  0.1153  0.8347
  351MOL0     H48402  10.003   2.487   2.371  0.6973 -0.1166  2.4321
  351MOL0     H48403  10.021   2.648   2.391 -1.2972 -0.1871 -2.6041
  351MOL0     H48404   9.892   2.649   2.607 -1.2787 -0.8243  0.7271
  351MOL0     H48405   9.862   2.480   2.589 -1.9429  0.3192 -0.9353
  351MOL0     H48406  10.115   2.443   2.574 -0.0397  0.8525 -0.9516
  351MOL0     H48407  10.051   2.475   2.733 -3.0801  3.1649  0.4875
  351MOL0     H48408  10.118   2.723   2.702  1.0099 -1.3672  4.2067
  351MOL0     H48409  10.209   2.677   2.555 -1.2687 -1.4570 -0.8452
  351MOL0     H48410  10.259   2.608   2.856  3.2314 -2.4588  0.7588
  351MOL0     H48411  10.333   2.505   2.733  3.2590  1.1360  1.3740
  351MOL0     H48412  10.418   2.692   2.630 -0.1931  2.4199 -0.0020
  351MOL0     H48413  10.489   2.652   2.790  1.4838  3.6047  0.9072
  351MOL0     H48414  10.305   2.835   2.872 -0.6083  1.9852 -0.4950
  351MOL0     H48415  10.301   2.887   2.702 -0.3780  1.7345  0.9789
  351MOL0     H48416  10.532   2.938   2.701 -0.1752  0.4138 -0.0481
  351MOL0     H48417  10.553   2.898   2.867 -0.8787  1.1591  1.1753
  351MOL0     H48418   9.623   2.576   2.196  0.9117 -0.0383 -0.7119
  351MOL0     H48419   9.501   2.382   2.110  1.6177  0.9676 -2.7078
  351MOL0     H48420   9.532   1.744   2.286  2.4444 -3.4689 -1.4123
  351MOL0     H48421   9.416   1.560   2.168 -2.0440  0.1960  1.6184
  351MOL0     H48422   7.618   1.414   1.857  0.1102 -0.0797 -0.7415
  351MOL0     H48423   7.395   1.380   1.977  0.1668 -0.1278  0.1179
  351MOL0     H48424   7.067   1.547   2.170 -0.2391 -1.5868 -1.2960
  351MOL0     H48425   6.832   1.527   2.213  0.2533  1.2212  1.4836
  351MOL0     H48426   6.662   1.563   2.364  3.0384 -0.8517 -1.5455
  351MOL0     H48427   6.607   1.420   2.272 -1.9304  1.0058 -0.0517
  351MOL0     H48428   6.430   1.517   2.427 -0.6023  1.4504  3.1723
  351MOL0     H48429   6.546   1.486   2.555  0.7113 -0.4087 -0.6867
  351MOL0     H48430   6.477   1.243   2.399  1.7194  1.8593 -1.3023
  351MOL0     H48431   6.534   1.260   2.556 -1.7835 -2.1054  1.4152
  351MOL0     H48432   6.300   1.358   2.617 -1.1700 -0.7788  0.7468
  351MOL0     H48433   6.320   1.193   2.597  0.7790 -1.1441 -1.2547
  351MOL0     H48434   6.076   1.300   2.258  1.4053  0.1095  0.2619
  351MOL0     H48435   6.919   1.255   2.534 -3.5780  1.8888  0.4060
  351MOL0     H48436   7.266   1.310   2.580  0.2860 -2.7452  2.9371
  351MOL0     H48437   7.136   1.199   2.605 -0.1281 -0.1376  0.7407
  351MOL0     H48438   7.244   1.166   2.473  0.6466 -0.4479  1.4406
  352MOL0     O48439   0.480   3.684   3.961 -0.1267  0.8062 -0.2477
  352MOL0     C48440   0.388   3.609   3.918 -0.9220 -0.4816  0.3974
  352MOL0     O48441   0.395   3.519   3.816 -0.5515  0.0103 -0.3182
  352MOL0     C48442   0.513   3.522   3.746  0.0116  0.0586 -0.4996
  352MOL0     C48443   0.611   3.420   3.781  0.0456 -0.2957  0.2724
  352MOL0     C48444   0.729   3.414   3.709  0.6161 -0.5228 -0.2317
  352MOL0     C48445   0.753   3.500   3.606 -0.2453 -0.3483  0.0889
  352MOL0     O48446   0.866   3.505   3.529 -0.1229  0.0224 -0.0605
  352MOL0     C48447   0.989   3.448   3.563 -0.7065  0.4660 -0.3199
  352MOL0     C48448   1.106   3.515   3.497 -1.0723  0.2761 -0.8562
  352MOL0     C48449   1.230   3.444   3.536 -0.3108 -0.0537 -0.0817
  352MOL0     C48450   1.346   3.501   3.456 -0.0340  0.7296 -0.1997
  352MOL0     C48451   1.467   3.405   3.472 -0.0335  0.2246  0.0307
  352MOL0     C48452   1.581   3.442   3.383 -0.2456 -0.6737 -0.3517
  352MOL0     C48453   1.699   3.347   3.395  0.1427 -0.0800 -0.3839
  352MOL0     C48454   1.823   3.388   3.329  0.2248 -0.2428  0.5115
  352MOL0     N48455   1.921   3.282   3.342  0.1452  0.1469  0.1111
  352MOL0     C48456   2.039   3.279   3.414  0.3924  0.0898 -0.1305
  352MOL0     C48457   2.096   3.159   3.384 -0.0123  0.9307 -0.8765
  352MOL0     C48458   2.218   3.093   3.436 -0.5835  0.6108 -0.0218
  352MOL0     C48459   2.335   3.076   3.345  0.7825 -0.5519  0.1241
  352MOL0     C48460   2.451   2.995   3.410  0.4242  0.0761 -0.4070
  352MOL0     C48461   2.568   2.999   3.311 -0.0829 -0.2444  0.2690
  352MOL0     O48462   2.536   2.907   3.207 -0.6933 -0.4465  0.3370
  352MOL0     C48463   2.542   2.959   3.083  0.8368 -0.3773 -0.6741
  352MOL0     C48464   2.647   3.038   3.027 -0.4548 -0.6604 -0.2017
  352MOL0     C48465   2.645   3.070   2.894 -0.2591 -0.5384 -0.8451
  352MOL0     C48466   2.754   3.159   2.847  0.3513  0.3930 -0.1708
  352MOL0     C48467   2.535   3.034   2.812  1.1044  0.7180 -1.0251
  352MOL0     C48468   2.521   3.069   2.671  0.8023 -0.4493  1.0737
  352MOL0     O48469   2.394   3.047   2.615 -0.4414 -0.7763 -0.5778
  352MOL0     C48470   2.385   3.089   2.485  0.0647 -0.1895  0.4165
  352MOL0     C48471   2.343   2.992   2.386 -0.0803 -0.3161 -0.2468
  352MOL0     C48472   2.364   3.017   2.253 -0.2600 -0.1638  1.0023
  352MOL0     C48473   2.410   3.144   2.204  0.2782  0.4558  0.2557
  352MOL0     O48474   2.424   3.168   2.069  0.0620  0.8603  0.9927
  352MOL0     C48475   2.475   3.288   2.024 -0.6246 -0.3646 -0.1227
  352MOL0     C48476   2.519   3.287   1.871  1.0135  0.5521 -0.8332
  352MOL0     C48477   2.638   3.199   1.837 -0.6025 -0.0097 -0.4002
  352MOL0     C48478   2.689   3.213   1.689  0.2317 -0.2579 -0.4650
  352MOL0     C48479   2.815   3.115   1.673  1.1981 -0.0155 -0.2623
  352MOL0     C48480   2.919   3.187   1.590 -0.2244 -0.1830 -0.1590
  352MOL0     C48481   3.030   3.081   1.573  0.2558  0.1518 -0.4841
  352MOL0     C48482   3.176   3.141   1.552  0.7392 -0.8214 -0.2933
  352MOL0    Cl48483   3.175   3.274   1.435  0.2692 -0.3412  0.1223
  352MOL0     C48484   2.428   3.244   2.302 -0.5933  0.5467 -0.5479
  352MOL0     C48485   2.428   3.217   2.441 -0.5474  0.1996  0.1192
  352MOL0     O48486   2.624   3.078   2.606  0.3796  0.4521 -0.0625
  352MOL0     C48487   2.420   2.969   2.876 -0.5238  0.0396  0.3095
  352MOL0     C48488   2.428   2.930   3.011  0.7445 -0.3153 -0.9797
  352MOL0     N48489   2.016   3.099   3.284 -0.1900 -0.2463 -0.2320
  352MOL0     N48490   1.915   3.174   3.258 -0.0725  0.8713 -0.7219
  352MOL0     C48491   0.648   3.589   3.563  0.0226  0.0591  0.7638
  352MOL0     C48492   0.529   3.598   3.629  0.4146 -0.5464 -0.5003
  352MOL0     C48493   0.254   3.622   3.992  0.2946  0.1238 -0.1699
  352MOL0     C48494   0.152   3.547   3.937 -0.6187  0.4810 -0.1455
  352MOL0     C48495   0.024   3.572   3.981 -0.7155  0.3717 -0.1669
  352MOL0     C48496  -0.009   3.635   4.101  0.4392 -0.9887  1.0482
  352MOL0     O48497  -0.133   3.648   4.158 -0.5146  0.5266 -0.0198
  352MOL0     C48498  -0.232   3.582   4.082  0.0836 -0.2053 -0.2631
  352MOL0     C48499  -0.367   3.612   4.141 -0.3075 -0.2100  1.3131
  352MOL0     C48500  -0.381   3.545   4.281  0.0773 -0.1228  0.7423
  352MOL0     C48501  -0.523   3.568   4.331 -0.2695  0.2446  0.2894
  352MOL0     C48502  -0.522   3.490   4.458  0.4663 -0.1357 -0.0992
  352MOL0     C48503  -0.507   3.419   4.555 -0.2272 -0.2983  0.4432
  352MOL0     C48504   0.092   3.700   4.164 -0.0100  0.4880 -0.2323
  352MOL0     C48505   0.220   3.705   4.105 -0.0270  0.6078  0.4646
  352MOL0     C48506   0.323   3.770   4.187  0.5868  0.5156 -0.6155
  352MOL0     H48507   0.588   3.348   3.859  2.4713 -0.9794  0.4393
  352MOL0     H48508   0.799   3.334   3.731  1.8923  1.0898  1.9525
  352MOL0     H48509   0.994   3.344   3.528 -1.8671  0.3488 -0.1733
  352MOL0     H48510   1.002   3.456   3.671  1.3109  0.1966 -0.5125
  352MOL0     H48511   1.101   3.513   3.388 -0.7095  0.9271 -0.8896
  352MOL0     H48512   1.112   3.612   3.548  2.6947 -1.3402  2.4136
  352MOL0     H48513   1.251   3.455   3.643  1.7763  1.5840 -0.6162
  352MOL0     H48514   1.215   3.337   3.521 -0.3935  0.0856 -1.0046
  352MOL0     H48515   1.317   3.498   3.350 -0.5820 -1.0683 -0.0399
  352MOL0     H48516   1.361   3.601   3.499  1.3049 -0.0509  1.2468
  352MOL0     H48517   1.451   3.299   3.452  1.3109  0.1195 -0.5636
  352MOL0     H48518   1.500   3.417   3.576 -0.7387 -1.9046  0.5519
  352MOL0     H48519   1.541   3.458   3.282 -0.6979  1.0616  0.0624
  352MOL0     H48520   1.621   3.540   3.412  0.0061 -1.3475  1.7048
  352MOL0     H48521   1.671   3.246   3.366  2.0282 -0.5518 -0.7151
  352MOL0     H48522   1.721   3.338   3.502  1.7590  3.8041 -0.2170
  352MOL0     H48523   1.802   3.409   3.224 -2.0240  4.0653  1.6022
  352MOL0     H48524   1.861   3.483   3.368 -0.7980  0.4167 -0.0376
  352MOL0     H48525   2.082   3.361   3.470 -1.4155  1.8410 -1.1994
  352MOL0     H48526   2.188   2.992   3.466 -1.6477  0.7775 -0.4849
  352MOL0     H48527   2.246   3.151   3.525 -1.7893  1.7145 -0.3315
  352MOL0     H48528   2.295   3.022   3.259 -2.3640  2.1095 -0.2727
  352MOL0     H48529   2.366   3.178   3.323  2.2182 -1.1585 -0.8075
  352MOL0     H48530   2.475   3.047   3.503 -1.4096  0.7934 -0.3041
  352MOL0     H48531   2.413   2.896   3.437 -1.6519  1.4742  2.3469
  352MOL0     H48532   2.582   3.103   3.280  0.3035 -0.6550 -0.9676
  352MOL0     H48533   2.659   2.952   3.351  2.4821  2.2604 -2.1974
  352MOL0     H48534   2.725   3.079   3.091 -1.0786  0.9205 -0.4037
  352MOL0     H48535   2.701   3.250   2.818  0.0771  0.1419 -0.4796
  352MOL0     H48536   2.801   3.125   2.754 -0.7017 -0.8611 -0.2626
  352MOL0     H48537   2.835   3.170   2.920  1.1446 -1.3233 -0.7310
  352MOL0     H48538   2.290   2.906   2.425  0.6052  1.3124  5.0310
  352MOL0     H48539   2.333   2.943   2.180 -2.3170  2.2157 -0.6936
  352MOL0     H48540   2.403   3.364   2.054  1.3272  0.3202  3.4355
  352MOL0     H48541   2.561   3.313   2.086 -3.1135  4.9160  1.8137
  352MOL0     H48542   2.438   3.271   1.799  0.3461 -1.1347  0.2341
  352MOL0     H48543   2.564   3.387   1.864  3.9280 -0.6111 -0.2608
  352MOL0     H48544   2.621   3.091   1.844 -2.7247  0.1655 -1.8169
  352MOL0     H48545   2.718   3.221   1.909 -0.0506  0.9512 -1.2725
  352MOL0     H48546   2.712   3.318   1.667 -0.2694 -0.1696 -0.5773
  352MOL0     H48547   2.610   3.187   1.618 -0.5572 -1.5837  0.8356
  352MOL0     H48548   2.863   3.075   1.762  2.0255 -1.0212 -1.1237
  352MOL0     H48549   2.788   3.021   1.624  1.1039 -0.3071  0.3463
  352MOL0     H48550   2.954   3.280   1.637 -3.6378  1.8904 -1.3341
  352MOL0     H48551   2.883   3.204   1.488 -1.5522 -2.5006 -0.1345
  352MOL0     H48552   3.019   3.012   1.489  0.6224 -0.4643 -0.0352
  352MOL0     H48553   3.039   3.021   1.664  1.6781  0.8349 -0.1543
  352MOL0     H48554   3.247   3.061   1.530  0.6266 -2.1340  3.4120
  352MOL0     H48555   3.202   3.184   1.650 -1.4451 -0.3379  0.1352
  352MOL0     H48556   2.443   3.347   2.274 -2.8052  0.7563 -1.1136
  352MOL0     H48557   2.472   3.284   2.514 -0.7613 -0.7289  1.1286
  352MOL0     H48558   2.328   2.951   2.822  1.3103 -2.2230 -2.4052
  352MOL0     H48559   2.345   2.879   3.058  0.6927  2.0952  1.8298
  352MOL0     H48560   0.664   3.661   3.484  1.0307  1.3104  2.0533
  352MOL0     H48561   0.457   3.674   3.600  1.4075  1.2310  1.4192
  352MOL0     H48562   0.154   3.480   3.851  0.2749 -0.5492  0.6491
  352MOL0     H48563  -0.042   3.517   3.915  1.1416 -3.6257  0.9930
  352MOL0     H48564  -0.230   3.614   3.977  0.5529  0.9323  0.0767
  352MOL0     H48565  -0.217   3.474   4.093 -2.6956 -0.4910  1.5363
  352MOL0     H48566  -0.443   3.582   4.069  0.4834  2.0410 -0.5559
  352MOL0     H48567  -0.370   3.721   4.150  2.8934 -0.0428  1.7959
  352MOL0     H48568  -0.356   3.439   4.279  0.6049 -0.0552 -2.5495
  352MOL0     H48569  -0.320   3.594   4.357 -1.7647  1.9821  0.9484
  352MOL0     H48570  -0.594   3.522   4.261  1.2310 -0.5722 -0.7774
  352MOL0     H48571  -0.549   3.671   4.355 -3.5794  0.0699 -1.8418
  352MOL0     H48572  -0.481   3.340   4.622 -1.7346 -2.2062 -1.1019
  352MOL0     H48573   0.058   3.748   4.256 -3.0575 -1.2535 -0.3150
  352MOL0     H48574   0.384   3.846   4.138  0.5791  1.1408  0.3220
  352MOL0     H48575   0.269   3.825   4.265 -1.1022  0.4032 -1.6530
  352MOL0     H48576   0.387   3.694   4.233 -0.1111 -0.4883 -1.2422
  353MOL0     O48577   4.785  10.851   2.977  0.3466  0.3758 -0.0615
  353MOL0     C48578   4.754  10.843   2.861 -0.4166 -0.1358  0.2206
  353MOL0     O48579   4.841  10.845   2.749  0.0440 -0.2059 -0.2973
  353MOL0     C48580   4.974  10.877   2.766 -1.1732  0.3384 -0.5844
  353MOL0     C48581   5.038  10.931   2.660  0.5402  0.1599 -0.0161
  353MOL0     C48582   5.176  10.963   2.662  0.8260 -0.1726 -0.1736
  353MOL0     C48583   5.258  10.926   2.776  0.9085 -0.1248  0.5572
  353MOL0     O48584   5.394  10.949   2.781 -0.3897 -0.4619 -0.0978
  353MOL0     C48585   5.448  11.031   2.674  0.0211  0.4568 -0.1081
  353MOL0     C48586   5.595  11.049   2.699 -0.3728  0.7494 -0.5802
  353MOL0     C48587   5.673  11.111   2.583  0.0761  0.3585  0.3832
  353MOL0     C48588   5.649  11.255   2.573 -0.6104  0.3263 -0.4035
  353MOL0     C48589   5.740  11.312   2.469  0.3065 -0.0923  0.2492
  353MOL0     C48590   5.749  11.475   2.468  0.8292 -0.2185  0.3600
  353MOL0     C48591   5.867  11.526   2.388 -0.0839 -0.5682 -0.0220
  353MOL0     C48592   5.863  11.495   2.243 -0.6507 -0.6992 -0.1748
  353MOL0     N48593   5.953  11.582   2.162 -0.6241 -0.1937 -0.3498
  353MOL0     C48594   5.928  11.713   2.125  0.4705  0.0092  0.1378
  353MOL0     C48595   6.036  11.760   2.074 -0.6575 -0.3444  1.1498
  353MOL0     C48596   6.054  11.899   2.026 -0.5639  0.0984  0.7512
  353MOL0     C48597   6.046  11.989   2.148 -0.8586 -0.0937  0.4031
  353MOL0     C48598   6.071  12.133   2.106  0.0489 -0.8441  0.2486
  353MOL0     C48599   6.074  12.230   2.215  0.7504 -0.5800 -0.3646
  353MOL0     O48600   6.029  12.356   2.166  0.2692  0.0629  0.7271
  353MOL0     C48601   6.118  12.415   2.079 -0.3376 -1.1723 -0.3367
  353MOL0     C48602   6.256  12.432   2.093 -0.3374 -0.0991 -0.2178
  353MOL0     C48603   6.335  12.509   2.008 -0.4235  0.7715  0.3563
  353MOL0     C48604   6.480  12.512   2.043  0.0622 -0.5068 -0.6869
  353MOL0     C48605   6.275  12.573   1.891  0.4261  0.1058 -0.4242
  353MOL0     C48606   6.339  12.654   1.783 -0.4782  0.7410  0.2815
  353MOL0     O48607   6.475  12.646   1.773  0.1730 -0.4631 -0.1890
  353MOL0     C48608   6.540  12.732   1.690  0.4910  0.6929  1.4627
  353MOL0     C48609   6.626  12.687   1.586  0.5774  0.1049  0.3144
  353MOL0     C48610   6.695  12.789   1.521 -0.6754 -0.1791  0.0156
  353MOL0     C48611   6.683  12.927   1.540  0.2607 -0.4375  0.5879
  353MOL0     O48612   6.768  13.007   1.470 -0.2179  0.2171 -0.2585
  353MOL0     C48613   6.817  13.138   1.518 -0.0082 -0.0207  0.1123
  353MOL0     C48614   6.966  13.169   1.475 -0.0972 -0.2910 -0.4385
  353MOL0     C48615   7.052  13.065   1.548  0.0709  0.4392  0.1279
  353MOL0     C48616   7.193  13.123   1.517 -0.6218  0.6720 -0.2845
  353MOL0     C48617   7.303  13.035   1.571  0.0525  0.5884 -0.2154
  353MOL0     C48618   7.448  13.077   1.543 -1.0661  0.2290  1.1645
  353MOL0     C48619   7.552  13.052   1.655  0.2013  0.5060 -0.0054
  353MOL0     C48620   7.693  13.058   1.596  0.4194 -0.2496  0.7884
  353MOL0    Cl48621   7.733  12.905   1.508  0.0904  0.0255 -0.0111
  353MOL0     C48622   6.600  12.972   1.636 -0.1230  1.1518 -0.0357
  353MOL0     C48623   6.529  12.876   1.706  0.8496  0.3448 -0.3269
  353MOL0     O48624   6.271  12.721   1.709  0.1025 -0.4666  0.4111
  353MOL0     C48625   6.130  12.565   1.876 -0.4270  0.0881 -0.2950
  353MOL0     C48626   6.059  12.490   1.970 -0.7273  0.5492  0.4545
  353MOL0     N48627   6.126  11.654   2.054  0.2298  0.7481 -0.3471
  353MOL0     N48628   6.072  11.547   2.112  0.2588 -0.2148  0.1137
  353MOL0     C48629   5.190  10.870   2.885  0.2522  0.8757 -0.1322
  353MOL0     C48630   5.053  10.842   2.876  0.5048  0.9056  0.3202
  353MOL0     C48631   4.609  10.829   2.827  0.3328  0.7491 -0.0592
  353MOL0     C48632   4.586  10.805   2.693 -0.2871 -0.1372  0.6634
  353MOL0     C48633   4.454  10.790   2.636  0.5600  0.0993 -1.1879
  353MOL0     C48634   4.346  10.795   2.717  0.1589 -0.2726 -0.4854
  353MOL0     O48635   4.220  10.787   2.662 -0.0615 -0.8929  0.4960
  353MOL0     C48636   4.099  10.811   2.734  0.2533 -0.2685  0.6984
  353MOL0     C48637   3.981  10.812   2.643 -0.0907 -0.5533  0.0635
  353MOL0     C48638   3.860  10.877   2.721 -0.4769  0.3078  0.0818
  353MOL0     C48639   3.743  10.890   2.631 -0.2981 -0.4676  0.3428
  353MOL0     C48640   3.750  10.994   2.530 -0.6276 -0.7544  0.3366
  353MOL0     C48641   3.740  11.078   2.453  0.5615  0.0625  0.0784
  353MOL0     C48642   4.372  10.837   2.852 -0.3264  0.4459 -0.3917
  353MOL0     C48643   4.501  10.845   2.915  0.1260 -0.8609  0.1451
  353MOL0     C48644   4.516  10.890   3.060 -0.3756 -0.2497 -0.4641
  353MOL0     H48645   4.973  10.962   2.578 -0.8547  0.7102  1.2626
  353MOL0     H48646   5.219  11.022   2.582 -2.1410  0.0597 -1.7445
  353MOL0     H48647   5.409  11.132   2.661 -3.2103 -0.8178 -1.2054
  353MOL0     H48648   5.421  10.977   2.584 -2.6532 -1.2894  1.6054
  353MOL0     H48649   5.616  11.107   2.790  0.9746  0.6397 -0.7903
  353MOL0     H48650   5.646  10.955   2.724 -1.2059  0.5580  0.4632
  353MOL0     H48651   5.782  11.098   2.592  0.7094  3.2511 -1.6754
  353MOL0     H48652   5.659  11.056   2.490 -2.3497  0.0804  0.8510
  353MOL0     H48653   5.546  11.280   2.546 -0.8195  0.1567  0.2173
  353MOL0     H48654   5.669  11.310   2.666  0.7216  0.9295 -1.0196
  353MOL0     H48655   5.702  11.276   2.373 -1.1623  3.7251 -0.8069
  353MOL0     H48656   5.842  11.275   2.483  1.0434  1.3170 -1.0699
  353MOL0     H48657   5.655  11.518   2.432  0.4127 -1.5887 -0.2433
  353MOL0     H48658   5.766  11.513   2.570  2.5241 -1.1384  0.4483
  353MOL0     H48659   5.959  11.481   2.425  0.9779  2.9887  2.1601
  353MOL0     H48660   5.877  11.633   2.412 -1.9622 -0.6625  1.4711
  353MOL0     H48661   5.868  11.387   2.229  1.6500 -0.9731  2.0180
  353MOL0     H48662   5.761  11.517   2.210  0.0087 -0.7153 -2.3702
  353MOL0     H48663   5.841  11.772   2.152  1.3993  1.8146 -0.6453
  353MOL0     H48664   5.978  11.922   1.951  0.1270  0.6561  0.2162
  353MOL0     H48665   6.155  11.909   1.986 -0.3041 -0.1465  1.3336
  353MOL0     H48666   5.944  11.990   2.188  0.0547  0.2912  2.9075
  353MOL0     H48667   6.109  11.959   2.233 -0.1871  1.5882  0.5284
  353MOL0     H48668   6.172  12.144   2.064 -1.2090  2.6181 -2.3720
  353MOL0     H48669   5.991  12.161   2.037  0.5144  1.2287  0.4978
  353MOL0     H48670   6.011  12.206   2.301 -0.7294  1.7214 -0.7160
  353MOL0     H48671   6.177  12.235   2.251  0.7355 -2.5535  0.0788
  353MOL0     H48672   6.297  12.376   2.176 -0.5436 -0.7422 -0.5469
  353MOL0     H48673   6.513  12.422   2.096 -2.5288 -0.2994  1.5644
  353MOL0     H48674   6.489  12.599   2.109 -0.0915 -1.0241  0.0381
  353MOL0     H48675   6.548  12.530   1.960  0.8849  2.1546  0.4709
  353MOL0     H48676   6.629  12.580   1.567  2.2321  0.3186 -0.8829
  353MOL0     H48677   6.765  12.759   1.443  0.1858  0.5373  0.4893
  353MOL0     H48678   6.756  13.221   1.483  2.9509  2.6134  0.7718
  353MOL0     H48679   6.816  13.139   1.627  0.1060 -0.3572  0.1208
  353MOL0     H48680   6.991  13.164   1.369  2.4106 -1.7768  0.1213
  353MOL0     H48681   6.995  13.268   1.513 -1.1386 -0.4792  0.9319
  353MOL0     H48682   7.042  12.963   1.510 -0.4807  0.0581  1.2351
  353MOL0     H48683   7.043  13.063   1.657  0.5934 -2.8036  0.2088
  353MOL0     H48684   7.198  13.225   1.556  1.1111  0.1494  1.0145
  353MOL0     H48685   7.214  13.121   1.410  0.2661 -0.8248 -0.1209
  353MOL0     H48686   7.290  13.028   1.679  1.2307 -2.3450 -0.1596
  353MOL0     H48687   7.282  12.931   1.542  0.8530  0.5435 -0.6827
  353MOL0     H48688   7.446  13.185   1.524 -0.9094 -0.2386 -1.8436
  353MOL0     H48689   7.481  13.022   1.455  0.0520  0.8892  1.1565
  353MOL0     H48690   7.530  12.962   1.714 -2.4618 -0.2540 -1.9503
  353MOL0     H48691   7.533  13.135   1.724 -1.8619  0.4441 -0.4382
  353MOL0     H48692   7.770  13.082   1.670 -0.5540 -2.5250  2.6607
  353MOL0     H48693   7.701  13.137   1.520  2.0640 -1.3824 -0.2669
  353MOL0     H48694   6.584  13.079   1.647  0.1762  0.9453  4.4395
  353MOL0     H48695   6.450  12.909   1.773 -2.4499 -0.4229 -3.5268
  353MOL0     H48696   6.080  12.605   1.790 -0.4240  0.9959  0.1165
  353MOL0     H48697   5.952  12.489   1.951 -0.7221 -0.3952  0.4389
  353MOL0     H48698   5.239  10.863   2.982 -1.7192 -1.6524  0.7941
  353MOL0     H48699   5.024  10.784   2.963 -0.7651 -3.2936 -2.5838
  353MOL0     H48700   4.671  10.789   2.627 -0.4519  0.4520  0.3071
  353MOL0     H48701   4.447  10.755   2.534  1.7662 -1.6374 -0.7208
  353MOL0     H48702   4.086  10.738   2.814 -1.0689 -0.4544  0.3448
  353MOL0     H48703   4.107  10.909   2.783  0.3780  0.1122 -0.0606
  353MOL0     H48704   3.952  10.711   2.611 -1.3517  0.1170 -1.0253
  353MOL0     H48705   4.003  10.866   2.550  0.5985 -1.0300 -0.0585
  353MOL0     H48706   3.836  10.816   2.809 -1.9271  1.6287  0.6373
  353MOL0     H48707   3.883  10.971   2.773 -0.1588 -0.2297  0.9471
  353MOL0     H48708   3.650  10.920   2.680 -0.7356 -1.1746 -0.0315
  353MOL0     H48709   3.729  10.794   2.579  1.3890 -0.3032 -0.4710
  353MOL0     H48710   3.743  11.145   2.369  0.1898 -1.6205 -1.3239
  353MOL0     H48711   4.289  10.863   2.916  0.5706  0.3713  0.8350
  353MOL0     H48712   4.581  10.816   3.106  1.1768  0.1194 -1.9693
  353MOL0     H48713   4.561  10.989   3.065 -1.0786  0.0655 -0.2143
  353MOL0     H48714   4.424  10.883   3.119 -0.7077 -1.3319 -1.0681
  354MOL0     O48715   4.865   2.871  10.007 -0.1522 -0.5320 -0.4748
  354MOL0     C48716   4.899   2.984  10.000 -0.2059 -0.1348 -0.2274
  354MOL0     O48717   4.981   3.032   9.898 -0.6944 -0.1040 -0.2712
  354MOL0     C48718   5.039   2.944   9.815 -0.3857  0.3485 -0.5219
  354MOL0     C48719   5.141   2.852   9.857  0.1490 -0.4136 -0.2421
  354MOL0     C48720   5.195   2.767   9.761  0.0915 -0.2121  0.1890
  354MOL0     C48721   5.168   2.774   9.624  0.9968 -0.0234  0.5428
  354MOL0     O48722   5.245   2.686   9.540 -0.5071 -0.1482 -0.4015
  354MOL0     C48723   5.245   2.715   9.402  0.2797  0.4305  0.2854
  354MOL0     C48724   5.340   2.620   9.349 -0.1937 -0.1806  0.6159
  354MOL0     C48725   5.484   2.634   9.406  0.9134  0.1531  0.3536
  354MOL0     C48726   5.570   2.541   9.319  0.8188  0.1030 -0.6956
  354MOL0     C48727   5.719   2.540   9.357 -0.3915  0.4436  0.1253
  354MOL0     C48728   5.742   2.503   9.503  0.4486  0.2741 -0.2980
  354MOL0     C48729   5.889   2.470   9.534  0.1517  0.6339 -0.2269
  354MOL0     C48730   5.972   2.602   9.536  0.2594  0.0358 -0.4217
  354MOL0     N48731   6.108   2.583   9.591 -0.4360  0.7356 -0.1441
  354MOL0     C48732   6.134   2.523   9.711  0.1192  0.6396 -0.0142
  354MOL0     C48733   6.270   2.529   9.732 -0.4702  1.1796 -0.0060
  354MOL0     C48734   6.361   2.492   9.850 -0.2423  0.0844  0.6139
  354MOL0     C48735   6.416   2.623   9.917 -0.0715  0.0966  0.5025
  354MOL0     C48736   6.549   2.673   9.849  0.1341  0.6054  1.4899
  354MOL0     C48737   6.552   2.822   9.841 -0.4065 -1.6761  1.3109
  354MOL0     O48738   6.674   2.871   9.778 -0.3173  0.0477  0.9039
  354MOL0     C48739   6.792   2.884   9.849  0.0319 -0.1024 -0.2708
  354MOL0     C48740   6.798   2.871   9.990 -0.4036  0.2172  0.0422
  354MOL0     C48741   6.911   2.895  10.066  0.7296 -0.6842  0.0972
  354MOL0     C48742   6.894   2.862  10.208  0.0073  0.0613 -0.8030
  354MOL0     C48743   7.028   2.957  10.010  1.8508 -1.0155 -0.5369
  354MOL0     C48744   7.153   2.990  10.074  0.1808 -0.6521 -0.9574
  354MOL0     O48745   7.146   3.021  10.215  0.6930  0.3782  0.1196
  354MOL0     C48746   7.262   3.022  10.287 -0.0051 -0.1265 -0.2266
  354MOL0     C48747   7.343   3.138  10.280 -0.7884  0.6963  0.2899
  354MOL0     C48748   7.463   3.145  10.349  0.2754  0.2149  0.2487
  354MOL0     C48749   7.504   3.047  10.432  0.6281 -0.4443  0.0488
  354MOL0     O48750   7.614   3.062  10.510 -0.3580 -0.3832 -0.7692
  354MOL0     C48751   7.651   2.973  10.621  1.4643  0.6487 -0.1854
  354MOL0     C48752   7.776   3.019  10.690 -0.1212 -0.0106  0.4425
  354MOL0     C48753   7.903   3.019  10.600 -0.0741 -0.7557 -0.0963
  354MOL0     C48754   8.028   3.076  10.680 -0.3354  0.0505  0.5543
  354MOL0     C48755   8.069   2.979  10.796  0.3709  0.5461 -1.2741
  354MOL0     C48756   8.216   3.002  10.823  0.4150  0.1238 -0.4224
  354MOL0     C48757   8.255   2.913  10.950  0.2639 -0.7083 -0.1698
  354MOL0     C48758   8.271   2.762  10.915 -0.6879 -0.7318  1.5008
  354MOL0    Cl48759   8.380   2.755  10.774  0.1518 -0.3239  0.1269
  354MOL0     C48760   7.422   2.929  10.445 -0.2020  0.5187 -0.4477
  354MOL0     C48761   7.306   2.914  10.364  0.0565  0.0963  0.0849
  354MOL0     O48762   7.255   3.005  10.003 -0.3597  0.3399 -0.5417
  354MOL0     C48763   7.017   2.972   9.869 -0.1383 -1.2856  0.0296
  354MOL0     C48764   6.901   2.940   9.791  0.1123 -0.2001 -0.0809
  354MOL0     N48765   6.320   2.591   9.614 -0.3103 -0.4680  0.0955
  354MOL0     N48766   6.224   2.617   9.529  0.2238  0.0388  0.3817
  354MOL0     C48767   5.070   2.862   9.587  0.1767 -0.1998  0.4117
  354MOL0     C48768   4.999   2.942   9.683  0.9010 -0.4905  0.1541
  354MOL0     C48769   4.875   3.087  10.112  0.4846 -0.5262  0.6441
  354MOL0     C48770   4.937   3.221  10.111 -0.1149  0.4924  0.4710
  354MOL0     C48771   4.910   3.313  10.202 -0.0804 -0.1391 -0.2471
  354MOL0     C48772   4.809   3.290  10.292  1.2091 -0.7340 -0.3243
  354MOL0     O48773   4.770   3.400  10.365 -0.1781  0.8125  0.0561
  354MOL0     C48774   4.628   3.421  10.371  0.0308 -0.5121 -0.5697
  354MOL0     C48775   4.586   3.565  10.379  0.0453 -0.4483  0.3491
  354MOL0     C48776   4.636   3.645  10.256  0.3559  1.0999  0.0548
  354MOL0     C48777   4.534   3.752  10.218  1.2254  0.0270  0.1357
  354MOL0     C48778   4.536   3.871  10.304 -0.6967 -0.1195  0.3006
  354MOL0     C48779   4.551   3.965  10.377 -0.0916 -0.2125 -0.5333
  354MOL0     C48780   4.754   3.167  10.308  0.5141  0.2136  0.6720
  354MOL0     C48781   4.786   3.056  10.223 -0.6222 -0.0433 -0.6003
  354MOL0     C48782   4.706   2.928  10.239  0.2447  0.1231 -0.2559
  354MOL0     H48783   5.166   2.847   9.962 -1.5871 -0.8848  0.1832
  354MOL0     H48784   5.284   2.709   9.783  1.6011  1.1803 -1.8532
  354MOL0     H48785   5.283   2.813   9.373  0.0485 -0.1820 -2.3515
  354MOL0     H48786   5.148   2.694   9.357  1.1049 -0.6624 -1.0781
  354MOL0     H48787   5.301   2.519   9.354  3.7827 -1.9601 -0.1042
  354MOL0     H48788   5.346   2.653   9.244 -0.5056  2.2144  1.2770
  354MOL0     H48789   5.514   2.739   9.410  0.9837  0.1289  0.4538
  354MOL0     H48790   5.500   2.597   9.507  1.7636 -1.4043 -0.3310
  354MOL0     H48791   5.535   2.439   9.335  2.9079 -0.8764 -2.0136
  354MOL0     H48792   5.570   2.560   9.211  0.6971  0.0311 -0.7091
  354MOL0     H48793   5.751   2.641   9.328 -0.4446 -0.0489 -1.7643
  354MOL0     H48794   5.766   2.469   9.288 -0.5034 -0.9222  1.4143
  354MOL0     H48795   5.721   2.594   9.560  2.3623  1.0902 -0.7978
  354MOL0     H48796   5.683   2.420   9.543  2.6572  0.2131  3.3010
  354MOL0     H48797   5.932   2.408   9.455 -0.4758 -2.0128  1.3373
  354MOL0     H48798   5.901   2.409   9.624 -0.3419  0.1644 -0.4706
  354MOL0     H48799   5.963   2.651   9.439 -1.3186  2.5962  0.9013
  354MOL0     H48800   5.929   2.676   9.605  1.6282  0.8043 -0.3436
  354MOL0     H48801   6.064   2.481   9.782 -0.0201 -0.7179 -0.9080
  354MOL0     H48802   6.437   2.422   9.815 -0.7994 -0.3527  0.2505
  354MOL0     H48803   6.308   2.424   9.918 -1.1967  0.5547  0.3556
  354MOL0     H48804   6.343   2.702   9.895  0.6369  1.2109  1.9100
  354MOL0     H48805   6.426   2.609  10.025  2.1129 -1.2276  0.1879
  354MOL0     H48806   6.636   2.623   9.893 -0.4523 -3.3308 -1.2788
  354MOL0     H48807   6.549   2.637   9.746  0.1435 -1.7256  2.2438
  354MOL0     H48808   6.475   2.858   9.772 -0.3950 -0.3514  1.9576
  354MOL0     H48809   6.534   2.871   9.937 -1.5155 -0.6236  0.5877
  354MOL0     H48810   6.709   2.842  10.045 -0.7460 -1.0577 -1.1327
  354MOL0     H48811   6.872   2.953  10.264  0.6034 -0.8597  1.0061
  354MOL0     H48812   6.988   2.814  10.237  1.3008  1.4886 -2.4254
  354MOL0     H48813   6.812   2.789  10.216  0.1051 -0.1873 -1.9693
  354MOL0     H48814   7.308   3.220  10.217  0.5795  0.7459 -0.4555
  354MOL0     H48815   7.508   3.242  10.331 -0.4497  0.2707 -1.5365
  354MOL0     H48816   7.566   2.966  10.689  1.5391 -5.5907 -0.1840
  354MOL0     H48817   7.650   2.868  10.590  0.0653 -0.6430  3.6495
  354MOL0     H48818   7.757   3.121  10.725 -0.4324 -0.0950  0.5227
  354MOL0     H48819   7.803   2.947  10.768 -0.2958 -1.8570 -1.1296
  354MOL0     H48820   7.886   3.087  10.516  0.7382  1.8280  1.7227
  354MOL0     H48821   7.927   2.915  10.575  0.5579 -0.6931  0.2352
  354MOL0     H48822   8.009   3.171  10.729  2.5818 -0.5685  3.2322
  354MOL0     H48823   8.114   3.083  10.612 -1.8086 -1.6586 -1.6262
  354MOL0     H48824   7.999   3.000  10.877  0.8993  2.0307 -1.1600
  354MOL0     H48825   8.058   2.873  10.771 -2.1856  0.9369 -2.2062
  354MOL0     H48826   8.232   3.100  10.868 -1.2664  0.0525  0.4047
  354MOL0     H48827   8.277   2.982  10.735 -0.2758  0.5554 -1.0068
  354MOL0     H48828   8.185   2.929  11.033 -2.9333 -1.5637 -2.4977
  354MOL0     H48829   8.352   2.950  10.984 -0.0651 -2.4185  2.9742
  354MOL0     H48830   8.177   2.714  10.886 -0.5071 -0.1927 -0.0661
  354MOL0     H48831   8.311   2.709  11.002  1.4209 -0.0436  0.9920
  354MOL0     H48832   7.453   2.857  10.520 -0.8087  2.0863  1.3724
  354MOL0     H48833   7.239   2.829  10.360  0.7303 -0.4075 -3.6399
  354MOL0     H48834   7.102   3.009   9.812 -2.1055 -0.9355 -2.8656
  354MOL0     H48835   6.900   2.966   9.686 -3.0021 -0.3621 -0.1885
  354MOL0     H48836   5.042   2.869   9.482  3.3225 -0.7653 -0.5657
  354MOL0     H48837   4.922   3.012   9.650  0.4074 -0.6519  0.9434
  354MOL0     H48838   5.006   3.252  10.033  1.2583  1.5254  2.0293
  354MOL0     H48839   4.944   3.416  10.195 -3.4774  1.1502  0.0489
  354MOL0     H48840   4.580   3.378  10.283  1.0942  0.0701 -1.4676
  354MOL0     H48841   4.583   3.372  10.458  0.8905  0.3660  0.4092
  354MOL0     H48842   4.618   3.622  10.467 -0.3891  0.7450 -0.2326
  354MOL0     H48843   4.478   3.567  10.394  0.0229 -0.9255  0.2518
  354MOL0     H48844   4.736   3.681  10.281  2.6961 -3.6509 -1.2790
  354MOL0     H48845   4.638   3.583  10.166 -1.7440  2.2754 -0.8829
  354MOL0     H48846   4.437   3.703  10.215  1.5287 -0.6259  0.8193
  354MOL0     H48847   4.555   3.794  10.119 -0.2800  1.0626  0.2159
  354MOL0     H48848   4.575   4.043  10.446 -1.6312 -1.4420  1.5238
  354MOL0     H48849   4.668   3.156  10.373 -1.5548  0.4900 -1.8605
  354MOL0     H48850   4.654   2.894  10.149 -1.1688 -0.3514  0.7076
  354MOL0     H48851   4.779   2.854  10.273 -0.0187  1.1102  2.7837
  354MOL0     H48852   4.643   2.933  10.328 -0.1473  0.8123 -0.5598
  355MOL0     O48853   9.347   9.729   9.851 -1.1009  0.3883 -0.6519
  355MOL0     C48854   9.331   9.704   9.734  0.3694  0.3357  0.5328
  355MOL0     O48855   9.432   9.689   9.644 -0.2915 -0.6046  0.2050
  355MOL0     C48856   9.562   9.674   9.683 -0.2440  0.2606 -0.2784
  355MOL0     C48857   9.656   9.697   9.580  0.3697 -0.4826 -0.9088
  355MOL0     C48858   9.790   9.697   9.594  0.3956  0.1394 -0.6513
  355MOL0     C48859   9.846   9.677   9.721  0.0868  1.0838 -0.4731
  355MOL0     O48860   9.981   9.677   9.726 -0.4790  0.1492 -0.0827
  355MOL0     C48861  10.040   9.700   9.856 -0.4526  0.1105 -0.6958
  355MOL0     C48862  10.167   9.785   9.838 -0.4619  0.0308 -0.5046
  355MOL0     C48863  10.244   9.823   9.961 -0.8891  0.4879  0.3138
  355MOL0     C48864  10.199   9.955  10.031  0.0312 -0.2478  0.1125
  355MOL0     C48865  10.295   9.968  10.146  0.4913 -0.4806 -0.0869
  355MOL0     C48866  10.262  10.087  10.245 -1.0510  0.0971  0.3624
  355MOL0     C48867  10.357  10.110  10.362 -0.1344  0.3796 -0.5276
  355MOL0     C48868  10.482  10.188  10.316  0.3901  0.4608 -0.3517
  355MOL0     N48869  10.586  10.177  10.418 -0.6259 -0.1613  0.1816
  355MOL0     C48870  10.586  10.244  10.539  0.4068  0.3488  0.5700
  355MOL0     C48871  10.704  10.207  10.585 -0.4855  0.3301 -0.1677
  355MOL0     C48872  10.780  10.255  10.705  0.4352  1.0198 -0.5118
  355MOL0     C48873  10.768  10.397  10.729  0.4740 -0.4458 -0.4465
  355MOL0     C48874  10.818  10.441  10.862  0.8464 -0.8976  0.0728
  355MOL0     C48875  10.967  10.434  10.859  0.4152  0.4510 -0.2373
  355MOL0     O48876  11.011  10.491  10.982 -0.0787 -0.1283  0.0363
  355MOL0     C48877  11.150  10.490  11.004 -0.5310  0.3441  0.4330
  355MOL0     C48878  11.245  10.457  10.898  0.7492  0.7899  0.4747
  355MOL0     C48879  11.387  10.459  10.927  0.0731 -0.7325 -0.0555
  355MOL0     C48880  11.486  10.425  10.824 -0.0352  1.0018  0.3770
  355MOL0     C48881  11.432  10.509  11.055 -0.2805 -0.2381  0.4153
  355MOL0     C48882  11.575  10.530  11.089  0.2794 -0.5659  0.2712
  355MOL0     O48883  11.667  10.433  11.062 -0.6430 -0.0268 -0.0072
  355MOL0     C48884  11.799  10.445  11.105  0.0154  0.0078  0.1766
  355MOL0     C48885  11.894  10.481  11.007  0.5998 -0.5458  0.0092
  355MOL0     C48886  12.037  10.471  11.040  0.3400  0.0310 -0.5305
  355MOL0     C48887  12.073  10.455  11.176  0.7562  1.1791 -0.0728
  355MOL0     O48888  12.200  10.458  11.217 -0.4229  1.1991 -0.2892
  355MOL0     C48889  12.284  10.571  11.213  0.4490  0.2969 -0.1879
  355MOL0     C48890  12.388  10.568  11.100 -0.1707  0.2500 -0.0159
  355MOL0     C48891  12.517  10.485  11.136 -0.1782  0.3874  0.1758
  355MOL0     C48892  12.603  10.480  11.009 -0.7219  0.8913  0.8229
  355MOL0     C48893  12.755  10.440  11.039  0.2346  0.8312  0.1190
  355MOL0     C48894  12.836  10.449  10.906 -0.7139  0.6282 -0.6982
  355MOL0     C48895  12.980  10.397  10.930  0.7317 -0.9674  0.0269
  355MOL0     C48896  13.056  10.432  10.804  0.4037  0.4375 -0.4202
  355MOL0    Cl48897  13.052  10.604  10.764 -0.2319  0.0441  0.1506
  355MOL0     C48898  11.970  10.419  11.267  0.0585 -0.1238  0.4249
  355MOL0     C48899  11.834  10.416  11.230  0.0263  0.4432  0.1164
  355MOL0     O48900  11.601  10.637  11.135 -0.0185  0.1072  0.0220
  355MOL0     C48901  11.340  10.549  11.154 -1.0786  0.1311  0.1266
  355MOL0     C48902  11.202  10.539  11.125  0.1485  0.8000  0.7437
  355MOL0     N48903  10.769  10.112  10.503  0.4028 -0.1830 -0.1787
  355MOL0     N48904  10.692  10.100  10.403  0.1973  0.3293 -0.5482
  355MOL0     C48905   9.763   9.645   9.830  0.0290  0.0285 -0.2612
  355MOL0     C48906   9.620   9.646   9.811  0.0908 -0.0393  0.1394
  355MOL0     C48907   9.194   9.721   9.686 -0.0991 -0.1743  0.1987
  355MOL0     C48908   9.137   9.842   9.726 -1.0115 -0.0893  0.7202
  355MOL0     C48909   9.000   9.872   9.696 -0.0428  0.5602 -0.2802
  355MOL0     C48910   8.919   9.775   9.637  0.2954 -0.1344 -0.4789
  355MOL0     O48911   8.787   9.802   9.606  0.5463  1.0820 -0.0472
  355MOL0     C48912   8.707   9.695   9.546  0.6873 -0.3492 -0.1458
  355MOL0     C48913   8.564   9.763   9.529 -0.2038  0.0314  0.0757
  355MOL0     C48914   8.461   9.670   9.457  0.1964 -0.4798  0.3043
  355MOL0     C48915   8.417   9.541   9.528 -0.3300  0.0753 -0.4451
  355MOL0     C48916   8.518   9.430   9.515 -0.2216  0.2202  0.0308
  355MOL0     C48917   8.570   9.324   9.492 -0.0265  0.0529  0.1387
  355MOL0     C48918   8.978   9.649   9.605 -0.2382  0.0730 -0.4634
  355MOL0     C48919   9.113   9.620   9.635  0.0715 -0.0513  0.2249
  355MOL0     C48920   9.169   9.485   9.591  0.5227  0.1276 -0.1651
  355MOL0     H48921   9.623   9.739   9.486 -1.9956 -1.3756 -0.5485
  355MOL0     H48922   9.853   9.703   9.506  1.3602  2.1527  0.1201
  355MOL0     H48923  10.069   9.606   9.904  1.5690  0.2933 -1.4263
  355MOL0     H48924   9.974   9.760   9.918  1.2778 -0.3565  1.7679
  355MOL0     H48925  10.235   9.722   9.781 -2.1672 -1.8584 -0.5644
  355MOL0     H48926  10.141   9.871   9.776  2.1019  0.0709 -1.6598
  355MOL0     H48927  10.234   9.742  10.034 -0.3872  1.0612  1.0326
  355MOL0     H48928  10.350   9.830   9.938 -1.4194  0.2084 -2.5537
  355MOL0     H48929  10.222  10.035   9.960  1.9476  0.3488  1.3144
  355MOL0     H48930  10.095   9.948  10.062 -1.1766 -2.0395 -3.7432
  355MOL0     H48931  10.400   9.977  10.115 -0.2613  1.8421 -2.2648
  355MOL0     H48932  10.282   9.877  10.205 -2.5658 -0.6201 -0.8424
  355MOL0     H48933  10.246  10.176  10.185 -0.1521  0.9740  1.3804
  355MOL0     H48934  10.170  10.060  10.297 -0.2655  0.8086  2.2145
  355MOL0     H48935  10.381  10.011  10.402 -1.5354  1.0048  2.1371
  355MOL0     H48936  10.313  10.176  10.437  2.1027  0.7815  0.5183
  355MOL0     H48937  10.524  10.142  10.226  2.3489 -1.8320  1.5680
  355MOL0     H48938  10.458  10.292  10.294  1.8194  0.6006 -1.4054
  355MOL0     H48939  10.516  10.315  10.583 -0.9057 -0.9338  0.6307
  355MOL0     H48940  10.887  10.243  10.691  0.5828 -2.6727  2.2868
  355MOL0     H48941  10.747  10.203  10.796  0.2706  1.9038 -0.0482
  355MOL0     H48942  10.798  10.456  10.642 -0.4820  2.2408  0.9178
  355MOL0     H48943  10.661  10.419  10.742  0.4135  0.0082 -1.5240
  355MOL0     H48944  10.793  10.545  10.883  2.7204 -0.7185  1.7187
  355MOL0     H48945  10.785  10.380  10.946  1.0101 -0.0787  0.7432
  355MOL0     H48946  10.992  10.328  10.848 -2.9048 -0.4081 -0.6197
  355MOL0     H48947  11.010  10.482  10.771  0.1023  1.8426  0.3465
  355MOL0     H48948  11.209  10.426  10.801 -0.6502 -0.6675  1.4006
  355MOL0     H48949  11.561  10.504  10.813 -0.4503  1.1705 -1.5887
  355MOL0     H48950  11.442  10.402  10.727 -1.9649  1.5017  1.0840
  355MOL0     H48951  11.543  10.336  10.853  1.5715  0.8952 -2.7549
  355MOL0     H48952  11.872  10.484  10.901  1.0475 -4.0444 -0.3231
  355MOL0     H48953  12.106  10.491  10.958 -1.2491  2.1150 -1.4513
  355MOL0     H48954  12.224  10.663  11.215  2.5684  1.7421  0.3461
  355MOL0     H48955  12.347  10.575  11.302  0.7755 -0.0253 -0.4024
  355MOL0     H48956  12.345  10.511  11.017  0.1093 -1.5545  1.0279
  355MOL0     H48957  12.412  10.669  11.065 -1.9761  2.8128  5.0733
  355MOL0     H48958  12.482  10.383  11.155  0.3730  0.1927  0.1645
  355MOL0     H48959  12.572  10.515  11.225  0.9300 -3.0900  0.8199
  355MOL0     H48960  12.609  10.582  10.970 -2.7904  2.5873  4.4069
  355MOL0     H48961  12.572  10.413  10.929  2.1024  0.1990  0.2124
  355MOL0     H48962  12.792  10.517  11.108 -0.2634  0.2904  1.0039
  355MOL0     H48963  12.753  10.340  11.083  2.5438 -1.3582 -4.1434
  355MOL0     H48964  12.848  10.555  10.883  0.1328  0.6018 -0.4123
  355MOL0     H48965  12.793  10.394  10.822  0.4055  1.2238 -1.6958
  355MOL0     H48966  12.974  10.288  10.928 -0.3136 -0.9032 -1.6182
  355MOL0     H48967  13.030  10.435  11.020 -1.5102  0.2496  0.8450
  355MOL0     H48968  13.016  10.380  10.716 -1.9155  0.5521  0.5141
  355MOL0     H48969  13.155  10.391  10.827 -1.2245 -1.9531  3.3033
  355MOL0     H48970  11.997  10.396  11.369 -1.0864 -1.1685  0.5240
  355MOL0     H48971  11.759  10.385  11.301  1.9824 -1.8372  1.3328
  355MOL0     H48972  11.355  10.591  11.253 -0.1236  1.5930 -0.6024
  355MOL0     H48973  11.123  10.566  11.195  0.8632 -2.0777  2.8544
  355MOL0     H48974   9.790   9.626   9.933 -2.0102 -0.9514  0.1377
  355MOL0     H48975   9.559   9.625   9.898 -1.1879 -0.6731 -0.8823
  355MOL0     H48976   9.203   9.918   9.764 -3.2967  1.5627  1.6389
  355MOL0     H48977   8.949   9.966   9.717 -3.2255 -1.0880 -0.0877
  355MOL0     H48978   8.737   9.676   9.442 -2.7385  3.3688 -2.1079
  355MOL0     H48979   8.703   9.600   9.598  0.5666 -0.6365 -0.6713
  355MOL0     H48980   8.572   9.853   9.466 -1.0901 -0.3706 -0.6396
  355MOL0     H48981   8.528   9.796   9.626 -0.8979  1.4968 -0.6413
  355MOL0     H48982   8.371   9.729   9.440 -0.6622 -1.9412 -0.4057
  355MOL0     H48983   8.495   9.641   9.357 -0.1789  0.1347 -0.0113
  355MOL0     H48984   8.320   9.499   9.499 -0.8815  0.1628  1.1883
  355MOL0     H48985   8.400   9.561   9.634 -1.8018  0.7959 -0.7967
  355MOL0     H48986   8.628   9.236   9.476 -0.1123 -0.0124  0.1874
  355MOL0     H48987   8.909   9.570   9.576 -2.2609  1.1112  1.2667
  355MOL0     H48988   9.238   9.461   9.672  1.9578  2.1052 -0.7152
  355MOL0     H48989   9.085   9.414   9.589  1.0610 -0.5273 -0.0638
  355MOL0     H48990   9.216   9.472   9.493  0.5369  0.0587 -0.1490
  356MOL0     O48991   8.816   9.132   6.944  0.1947  0.5351 -0.4552
  356MOL0     C48992   8.808   9.254   6.970  0.2362  0.5004  0.9328
  356MOL0     O48993   8.898   9.330   7.033  0.1151  0.3302  0.3880
  356MOL0     C48994   9.021   9.280   7.062 -0.3272  0.3721  0.2158
  356MOL0     C48995   9.062   9.159   7.112  0.6124 -0.4021 -0.7467
  356MOL0     C48996   9.195   9.125   7.146 -0.0490  0.6319  0.0187
  356MOL0     C48997   9.302   9.215   7.130 -0.3493 -0.6153  0.5745
  356MOL0     O48998   9.422   9.166   7.168 -0.2913  0.2171 -0.4068
  356MOL0     C48999   9.536   9.235   7.115  0.6557  0.3954 -0.7743
  356MOL0     C49000   9.663   9.199   7.188  0.6837  0.4512  0.2453
  356MOL0     C49001   9.776   9.293   7.145 -0.2539 -0.2399 -0.0332
  356MOL0     C49002   9.887   9.269   7.240 -0.3844  1.2502 -0.3807
  356MOL0     C49003  10.022   9.342   7.222 -0.6193 -0.6643 -0.5271
  356MOL0     C49004  10.143   9.277   7.284 -0.3113  0.5238  0.5952
  356MOL0     C49005  10.158   9.307   7.431  0.1505 -0.4161 -0.1096
  356MOL0     C49006  10.195   9.452   7.468  1.1083 -0.2623 -0.9398
  356MOL0     N49007  10.313   9.484   7.388 -0.5174 -0.2229 -0.1461
  356MOL0     C49008  10.437   9.442   7.424 -0.0693  0.6143  0.1281
  356MOL0     C49009  10.519   9.482   7.319 -0.1389  1.3011 -0.1321
  356MOL0     C49010  10.659   9.427   7.301  0.1444  0.0570  0.2051
  356MOL0     C49011  10.646   9.309   7.200 -0.2399 -0.2253 -0.6959
  356MOL0     C49012  10.783   9.268   7.149  0.2299  0.4732 -0.2232
  356MOL0     C49013  10.888   9.209   7.250 -0.2043 -0.1026  0.4441
  356MOL0     O49014  10.987   9.138   7.173 -0.1017 -0.4771  0.1213
  356MOL0     C49015  11.073   9.224   7.101 -0.1295 -0.2151  0.1041
  356MOL0     C49016  11.121   9.182   6.975  0.5096  0.2355 -0.7269
  356MOL0     C49017  11.220   9.246   6.909  1.0133 -0.9450 -0.0816
  356MOL0     C49018  11.253   9.184   6.777  0.5237 -0.1462  0.1284
  356MOL0     C49019  11.260   9.368   6.945 -0.1313  0.2806 -0.4824
  356MOL0     C49020  11.338   9.461   6.861 -0.0896  0.6689 -0.5015
  356MOL0     O49021  11.464   9.499   6.892  0.0325 -0.7317  0.1033
  356MOL0     C49022  11.541   9.429   6.987  0.3571  0.2301  0.7382
  356MOL0     C49023  11.601   9.512   7.075  0.5800 -0.8254 -0.2022
  356MOL0     C49024  11.673   9.452   7.183 -0.7792  0.9035 -0.0052
  356MOL0     C49025  11.692   9.313   7.194 -1.0353  0.0804 -0.1158
  356MOL0     O49026  11.777   9.275   7.295 -0.9136 -0.3717  0.4517
  356MOL0     C49027  11.852   9.150   7.276 -0.3343 -0.2815 -0.2028
  356MOL0     C49028  11.966   9.138   7.377 -0.4035  1.3899 -0.8992
  356MOL0     C49029  12.041   9.006   7.353 -1.1310 -0.5976  0.5649
  356MOL0     C49030  12.169   9.016   7.441 -0.3570 -0.2102 -0.5974
  356MOL0     C49031  12.278   8.912   7.405  0.5950 -0.4186 -0.4793
  356MOL0     C49032  12.371   8.940   7.287 -0.2484  1.1930  0.0791
  356MOL0     C49033  12.484   9.028   7.342 -1.2708 -0.4170 -0.5413
  356MOL0     C49034  12.596   9.043   7.241  0.1327  0.0963 -0.0689
  356MOL0    Cl49035  12.677   8.888   7.227  0.3215 -0.3892 -0.4992
  356MOL0     C49036  11.631   9.229   7.099 -0.2210 -0.6203 -0.4941
  356MOL0     C49037  11.558   9.292   6.999  0.8666 -0.5790  0.2177
  356MOL0     O49038  11.281   9.517   6.772  0.2671 -0.3694 -0.0595
  356MOL0     C49039  11.210   9.416   7.073 -0.4777  0.3381 -0.1823
  356MOL0     C49040  11.122   9.346   7.149 -0.0798 -0.7887  0.2965
  356MOL0     N49041  10.439   9.552   7.227  0.6006  0.3828  0.1052
  356MOL0     N49042  10.317   9.555   7.275 -0.5077 -0.1095 -0.6849
  356MOL0     C49043   9.266   9.340   7.069 -0.7121  0.0589 -0.0126
  356MOL0     C49044   9.128   9.367   7.044  0.4556  0.2003 -0.8087
  356MOL0     C49045   8.672   9.315   6.941  0.7137 -0.2041 -0.4946
  356MOL0     C49046   8.669   9.457   6.968  0.0667  0.0471 -0.9032
  356MOL0     C49047   8.543   9.522   6.961  0.2210 -0.3200 -0.6604
  356MOL0     C49048   8.429   9.468   6.920 -0.2278 -0.2581 -0.1248
  356MOL0     O49049   8.327   9.553   6.906 -0.0147  0.2047 -0.0504
  356MOL0     C49050   8.199   9.500   6.873 -0.5990  0.7126  0.0300
  356MOL0     C49051   8.104   9.610   6.847 -0.6724 -0.1064 -0.5009
  356MOL0     C49052   7.961   9.571   6.803 -0.0592  1.3047 -0.5500
  356MOL0     C49053   7.962   9.454   6.695 -0.7659  0.6356  0.4771
  356MOL0     C49054   8.021   9.499   6.567  0.5477 -0.1016 -0.1148
  356MOL0     C49055   8.058   9.538   6.459  0.5708 -0.0458  0.1374
  356MOL0     C49056   8.435   9.330   6.890  0.3058  0.6825 -0.2767
  356MOL0     C49057   8.550   9.254   6.900  0.0860  0.3418 -0.2081
  356MOL0     C49058   8.539   9.106   6.876  0.4742 -0.1487  0.1667
  356MOL0     H49059   8.987   9.083   7.130 -2.2439  2.4066  0.2477
  356MOL0     H49060   9.223   9.025   7.177 -1.1185 -0.2236 -1.6329
  356MOL0     H49061   9.527   9.344   7.116 -3.2968  0.2249 -0.0554
  356MOL0     H49062   9.538   9.203   7.010  0.4656  0.2502 -0.7337
  356MOL0     H49063   9.648   9.224   7.293 -0.0222  1.5346 -0.1002
  356MOL0     H49064   9.691   9.093   7.181 -0.4071  0.1994 -0.7316
  356MOL0     H49065   9.802   9.262   7.043 -3.0482 -2.2129 -0.2802
  356MOL0     H49066   9.751   9.399   7.139  0.1327 -0.1221  0.3731
  356MOL0     H49067   9.861   9.285   7.345  0.9838  3.9146 -0.3456
  356MOL0     H49068   9.901   9.161   7.235 -1.7442  1.0207  0.3593
  356MOL0     H49069  10.017   9.445   7.260  1.5476 -0.4319 -0.7413
  356MOL0     H49070  10.038   9.348   7.114  1.5569 -0.2210 -0.2177
  356MOL0     H49071  10.129   9.171   7.262  1.1904  0.1470  1.3434
  356MOL0     H49072  10.237   9.301   7.232  0.7788 -2.4804  1.0030
  356MOL0     H49073  10.225   9.231   7.474  2.0230  0.4623 -1.3178
  356MOL0     H49074  10.061   9.292   7.478 -0.4560 -1.8706 -1.7097
  356MOL0     H49075  10.109   9.514   7.439 -0.4100 -1.5176  0.7094
  356MOL0     H49076  10.216   9.461   7.575 -2.6442  0.8382 -0.1387
  356MOL0     H49077  10.456   9.384   7.514  0.4694  0.1243 -0.2912
  356MOL0     H49078  10.698   9.397   7.399  0.6520 -1.1489 -0.3557
  356MOL0     H49079  10.718   9.512   7.265  0.1582 -0.2871 -0.6019
  356MOL0     H49080  10.604   9.223   7.252  0.8050  0.2364  0.9986
  356MOL0     H49081  10.575   9.335   7.121 -2.7186 -0.9213  1.1878
  356MOL0     H49082  10.764   9.199   7.066  0.5333 -0.0243  0.1133
  356MOL0     H49083  10.820   9.360   7.104 -1.2621  1.4222  0.4069
  356MOL0     H49084  10.918   9.286   7.322 -0.0286 -2.1449  2.6972
  356MOL0     H49085  10.826   9.140   7.308 -0.7196  0.3738  0.4798
  356MOL0     H49086  11.085   9.087   6.935  0.6757  0.6497 -1.9041
  356MOL0     H49087  11.311   9.252   6.712 -0.4564 -2.1962 -3.1451
  356MOL0     H49088  11.160   9.166   6.723 -1.4460  0.5532  3.0600
  356MOL0     H49089  11.315   9.095   6.789  3.7705  1.7640 -0.9361
  356MOL0     H49090  11.592   9.620   7.074  1.3589 -0.7254  0.9262
  356MOL0     H49091  11.715   9.516   7.260  0.8805 -2.1282  1.8168
  356MOL0     H49092  11.778   9.073   7.298 -2.1624  1.2111 -0.9042
  356MOL0     H49093  11.887   9.138   7.173 -0.1747 -0.1935 -0.1596
  356MOL0     H49094  12.039   9.218   7.366  2.0692 -0.9655 -3.4670
  356MOL0     H49095  11.929   9.137   7.480 -0.3980 -0.3405 -0.8787
  356MOL0     H49096  12.068   8.984   7.250 -3.0648  1.1773 -0.3951
  356MOL0     H49097  11.985   8.919   7.389 -3.2833  0.9356  1.1468
  356MOL0     H49098  12.137   9.005   7.545 -0.4644 -1.2330 -0.7297
  356MOL0     H49099  12.206   9.119   7.433  2.5377 -1.1524 -0.6723
  356MOL0     H49100  12.327   8.890   7.500 -1.1375 -0.3946  0.4725
  356MOL0     H49101  12.219   8.822   7.385 -0.4227  0.3479 -1.0228
  356MOL0     H49102  12.314   8.991   7.210  1.8982  0.4125 -2.1603
  356MOL0     H49103  12.414   8.850   7.242 -1.0205  0.6095  0.4901
  356MOL0     H49104  12.528   9.001   7.439 -1.3685  3.8756  0.9172
  356MOL0     H49105  12.443   9.129   7.352 -1.9091 -0.8349  1.7588
  356MOL0     H49106  12.669   9.118   7.274  3.5214 -2.4240 -1.3145
  356MOL0     H49107  12.550   9.078   7.148  1.6278  1.7170 -0.2544
  356MOL0     H49108  11.635   9.121   7.106 -0.3337 -0.6869 -1.3367
  356MOL0     H49109  11.514   9.227   6.924 -0.7566  1.4495 -0.7121
  356MOL0     H49110  11.235   9.517   7.105  1.3888 -0.0673 -0.2261
  356MOL0     H49111  11.089   9.386   7.244  0.1712 -1.3355  0.6207
  356MOL0     H49112   9.339   9.418   7.049 -0.9988  0.2499 -0.3151
  356MOL0     H49113   9.095   9.465   7.008 -2.1695 -0.8891 -1.5920
  356MOL0     H49114   8.754   9.514   7.005  0.5470  0.1273 -2.1179
  356MOL0     H49115   8.554   9.626   6.992  4.0561 -0.2042 -1.8731
  356MOL0     H49116   8.212   9.429   6.791  1.9300  0.6293  0.4244
  356MOL0     H49117   8.165   9.440   6.958  0.3503 -0.9391 -0.6980
  356MOL0     H49118   8.150   9.671   6.769  0.1380 -1.3054 -0.9903
  356MOL0     H49119   8.094   9.662   6.943  0.5645  0.9988 -0.9482
  356MOL0     H49120   7.900   9.526   6.882 -1.4760 -1.6374 -3.0874
  356MOL0     H49121   7.910   9.661   6.769 -1.3979  1.9334  2.7069
  356MOL0     H49122   7.861   9.419   6.670 -0.8339 -0.3717  1.9735
  356MOL0     H49123   8.013   9.370   6.744  0.4926  1.6821  1.0175
  356MOL0     H49124   8.103   9.563   6.365  0.5582 -1.8421 -0.3723
  356MOL0     H49125   8.341   9.283   6.862 -0.0279 -0.0974  1.9185
  356MOL0     H49126   8.533   9.062   6.975 -0.0184 -1.3446 -0.3744
  356MOL0     H49127   8.443   9.081   6.829  1.1279  0.8580 -1.8348
  356MOL0     H49128   8.611   9.059   6.808  0.5113  0.7861 -0.4635
  357MOL0     O49129   4.048   3.869   3.780  0.2602 -0.1872  0.2000
  357MOL0     C49130   4.031   3.922   3.888  0.4907  0.3998  0.2285
  357MOL0     O49131   4.137   3.971   3.966 -0.4060  0.5013  0.0952
  357MOL0     C49132   4.265   3.915   3.942  0.0752 -0.1355 -0.4344
  357MOL0     C49133   4.341   3.953   3.830  0.5829 -0.2702  0.0830
  357MOL0     C49134   4.468   3.893   3.803  0.4069  0.6302 -0.7540
  357MOL0     C49135   4.510   3.790   3.889 -0.0257  0.0286 -0.7166
  357MOL0     O49136   4.623   3.718   3.867 -0.0922 -0.2766  0.3665
  357MOL0     C49137   4.743   3.771   3.834 -0.4121  0.2396 -0.2552
  357MOL0     C49138   4.832   3.790   3.955 -0.3435 -0.5843  0.0925
  357MOL0     C49139   4.980   3.796   3.904 -0.3047 -0.1113  0.4805
  357MOL0     C49140   5.090   3.804   4.013  0.0491  0.3600  0.3758
  357MOL0     C49141   5.227   3.802   3.942 -0.8702  0.5448 -0.1157
  357MOL0     C49142   5.355   3.805   4.027  0.0528  0.0632 -0.8280
  357MOL0     C49143   5.479   3.841   3.945  0.6281 -0.1966  0.2839
  357MOL0     C49144   5.603   3.837   4.033  0.1220 -0.3196 -0.6440
  357MOL0     N49145   5.727   3.900   3.980  0.5979 -0.0275  0.1153
  357MOL0     C49146   5.837   3.822   3.943  0.3607 -0.2979  1.0668
  357MOL0     C49147   5.930   3.913   3.897  0.6652  0.0023  0.6220
  357MOL0     C49148   6.059   3.882   3.834 -0.3463  0.1232  0.0590
  357MOL0     C49149   6.043   3.759   3.738  0.2119  0.2648  0.2322
  357MOL0     C49150   6.175   3.738   3.660 -0.0819 -0.2891 -0.6477
  357MOL0     C49151   6.192   3.847   3.551  0.6913  0.3571 -0.1652
  357MOL0     O49152   6.296   3.809   3.469 -0.4221 -0.1638 -0.3151
  357MOL0     C49153   6.365   3.909   3.401  0.3992  0.2740  0.3296
  357MOL0     C49154   6.305   4.037   3.369 -0.2437 -1.2527  0.5858
  357MOL0     C49155   6.384   4.136   3.293  0.1433 -0.4715 -0.0813
  357MOL0     C49156   6.317   4.258   3.235  0.1383 -0.6500 -0.1743
  357MOL0     C49157   6.522   4.115   3.270  0.3995  0.0298  0.7245
  357MOL0     C49158   6.620   4.208   3.204 -0.4041 -0.6089  0.7182
  357MOL0     O49159   6.753   4.187   3.258 -0.0571  0.1028  0.8482
  357MOL0     C49160   6.854   4.275   3.232  0.2141 -0.3299  0.2770
  357MOL0     C49161   6.935   4.262   3.119  0.3635 -0.6187  0.8250
  357MOL0     C49162   7.041   4.355   3.098  0.2031  0.3868  0.2052
  357MOL0     C49163   7.057   4.461   3.181 -0.2689 -0.6474  0.6509
  357MOL0     O49164   7.156   4.545   3.132 -0.1267  0.2895  0.2894
  357MOL0     C49165   7.162   4.675   3.183  0.1173  0.6460 -0.0491
  357MOL0     C49166   7.281   4.755   3.123  0.1023  0.1819 -0.8734
  357MOL0     C49167   7.269   4.758   2.966 -0.6113 -0.3279 -0.6031
  357MOL0     C49168   7.386   4.821   2.888 -0.0587  0.3908  0.4639
  357MOL0     C49169   7.381   4.783   2.740 -0.1455 -0.2576  0.0412
  357MOL0     C49170   7.490   4.860   2.658  0.0888  0.4876 -0.6328
  357MOL0     C49171   7.627   4.796   2.687 -0.8707 -0.7039  0.0058
  357MOL0     C49172   7.727   4.873   2.597  0.2494  0.1570 -0.1524
  357MOL0    Cl49173   7.727   5.046   2.631  0.0020 -0.0893 -0.0562
  357MOL0     C49174   6.981   4.480   3.290  1.1309 -0.1107 -0.2169
  357MOL0     C49175   6.881   4.390   3.316  0.2562  0.2396 -1.0157
  357MOL0     O49176   6.600   4.286   3.110 -0.2230 -0.1872 -0.1366
  357MOL0     C49177   6.571   3.989   3.309 -0.2074  0.2171  0.0489
  357MOL0     C49178   6.498   3.885   3.368  0.2102  0.1189 -0.9547
  357MOL0     N49179   5.880   4.040   3.933 -0.3168  0.1810  0.3858
  357MOL0     N49180   5.761   4.029   3.975  0.7276 -0.3676  0.0943
  357MOL0     C49181   4.434   3.751   3.996  0.0241  0.2498  0.6869
  357MOL0     C49182   4.316   3.818   4.024  0.4056  0.1105  0.2267
  357MOL0     C49183   3.888   3.923   3.942  0.2490  0.6133 -1.1768
  357MOL0     C49184   3.784   3.932   3.848  0.2300 -0.6664 -0.1805
  357MOL0     C49185   3.650   3.938   3.891 -0.9489 -0.7261  0.1773
  357MOL0     C49186   3.618   3.943   4.024 -0.6532 -0.2425 -1.0480
  357MOL0     O49187   3.478   3.953   4.053  0.7155  0.3208  0.8266
  357MOL0     C49188   3.453   3.983   4.189 -0.4993  0.0072 -0.1601
  357MOL0     C49189   3.310   4.012   4.217 -0.3069  0.0582  0.3424
  357MOL0     C49190   3.231   3.881   4.217  1.1501  0.0556 -0.3329
  357MOL0     C49191   3.082   3.901   4.209  0.0207 -0.4300 -0.3617
  357MOL0     C49192   3.026   3.997   4.309  0.3890 -0.1107 -0.3845
  357MOL0     C49193   2.978   4.069   4.392 -0.7758  0.0304  0.8374
  357MOL0     C49194   3.724   3.943   4.117 -0.0023 -0.6722 -0.4650
  357MOL0     C49195   3.862   3.914   4.081  0.4019  0.0996 -0.9667
  357MOL0     C49196   3.955   3.880   4.192 -0.0702 -0.4342  0.4439
  357MOL0     H49197   4.299   4.034   3.773 -0.4019 -0.3707  0.6437
  357MOL0     H49198   4.529   3.921   3.718  2.6743 -1.2415  0.1584
  357MOL0     H49199   4.730   3.868   3.784  2.9250  0.2050 -1.4576
  357MOL0     H49200   4.798   3.709   3.762  0.7645  2.2080 -1.1368
  357MOL0     H49201   4.810   3.874   4.022 -0.3916  1.5644 -2.4374
  357MOL0     H49202   4.826   3.702   4.020  0.2749 -0.5321  0.2214
  357MOL0     H49203   5.005   3.706   3.847 -3.4903 -1.0710  0.4149
  357MOL0     H49204   4.990   3.879   3.834 -0.9669 -3.5594 -4.1328
  357MOL0     H49205   5.081   3.900   4.065  0.6682  0.0574  1.0634
  357MOL0     H49206   5.085   3.722   4.086  1.9440  0.9561  1.2241
  357MOL0     H49207   5.240   3.896   3.888 -0.5877  0.4533 -0.2059
  357MOL0     H49208   5.245   3.716   3.878 -1.6523 -0.3865  0.8771
  357MOL0     H49209   5.345   3.878   4.107 -1.2139 -2.3549  1.3920
  357MOL0     H49210   5.370   3.706   4.071 -1.5971  0.0065 -0.3100
  357MOL0     H49211   5.472   3.938   3.895 -1.6098 -1.4230 -2.0345
  357MOL0     H49212   5.476   3.776   3.856  1.2746 -0.2459  0.2933
  357MOL0     H49213   5.592   3.890   4.128  1.4274 -0.5328 -0.3481
  357MOL0     H49214   5.618   3.732   4.062 -0.7872  0.0763  1.4577
  357MOL0     H49215   5.849   3.714   3.934  0.7506 -0.1825  0.1409
  357MOL0     H49216   6.138   3.869   3.909  0.8368  1.7435 -0.8304
  357MOL0     H49217   6.088   3.969   3.775 -1.7393  0.5796  0.0157
  357MOL0     H49218   6.033   3.667   3.796  2.3818 -0.2344 -0.0760
  357MOL0     H49219   5.959   3.773   3.669  0.7209  2.7370 -0.0125
  357MOL0     H49220   6.260   3.736   3.729  0.5048 -0.0320 -1.3543
  357MOL0     H49221   6.169   3.643   3.605  0.1257 -1.3267  1.0286
  357MOL0     H49222   6.098   3.858   3.498  1.0053 -3.2631 -1.7388
  357MOL0     H49223   6.224   3.935   3.608  2.0505 -0.7916  0.9468
  357MOL0     H49224   6.199   4.055   3.384 -0.0494  0.8819 -0.2883
  357MOL0     H49225   6.380   4.348   3.237  0.3813 -0.8318  1.1366
  357MOL0     H49226   6.226   4.280   3.292  0.5501  0.2309  0.1561
  357MOL0     H49227   6.292   4.245   3.129 -1.4471 -4.0199  0.4630
  357MOL0     H49228   6.912   4.183   3.049 -0.7241  0.7078 -0.3575
  357MOL0     H49229   7.111   4.342   3.016  0.6222 -1.7478  0.8277
  357MOL0     H49230   7.070   4.732   3.170 -0.3572 -0.3027 -0.9876
  357MOL0     H49231   7.190   4.663   3.288  1.7701 -2.6339 -0.7223
  357MOL0     H49232   7.270   4.857   3.163 -0.0936 -0.2267  0.1384
  357MOL0     H49233   7.372   4.709   3.162 -0.0143  1.2162  0.6948
  357MOL0     H49234   7.180   4.817   2.942 -0.1031 -0.0274 -1.8269
  357MOL0     H49235   7.263   4.658   2.924  1.0351 -0.6054 -0.2419
  357MOL0     H49236   7.484   4.787   2.923 -0.2009 -2.5278 -1.5814
  357MOL0     H49237   7.386   4.929   2.905 -0.8508  0.5274 -0.3527
  357MOL0     H49238   7.389   4.676   2.719 -0.1118  0.1863 -2.5506
  357MOL0     H49239   7.288   4.821   2.697  0.1435  1.6544  0.9879
  357MOL0     H49240   7.490   4.967   2.681 -2.1178  0.1348  1.4544
  357MOL0     H49241   7.460   4.848   2.554 -4.1931  1.8336  0.2306
  357MOL0     H49242   7.619   4.692   2.655 -1.1973 -0.1888 -1.6756
  357MOL0     H49243   7.653   4.812   2.792 -2.8119  1.7374  0.1927
  357MOL0     H49244   7.690   4.863   2.494 -1.1189  2.1871  0.0849
  357MOL0     H49245   7.831   4.837   2.592  0.8722  1.8633 -0.2389
  357MOL0     H49246   6.991   4.572   3.347 -0.6911  0.3353 -0.5628
  357MOL0     H49247   6.817   4.415   3.400 -1.6243  1.5607 -2.7668
  357MOL0     H49248   6.679   3.978   3.297 -0.0757  0.5194  0.9232
  357MOL0     H49249   6.544   3.795   3.406 -0.8321 -0.1744 -0.3384
  357MOL0     H49250   4.475   3.666   4.049  0.5128  0.2974  0.3869
  357MOL0     H49251   4.262   3.783   4.111 -0.2588  0.6104  0.0173
  357MOL0     H49252   3.809   3.903   3.746 -0.1637  0.4261 -0.6033
  357MOL0     H49253   3.567   3.955   3.824 -1.2589 -0.4752  0.6186
  357MOL0     H49254   3.482   3.902   4.255 -0.7885  1.3701  1.7110
  357MOL0     H49255   3.513   4.067   4.224 -0.9358 -0.5729  2.1047
  357MOL0     H49256   3.273   4.073   4.134 -0.4756  0.0127  0.3832
  357MOL0     H49257   3.305   4.079   4.303 -1.1073  0.3920  0.0399
  357MOL0     H49258   3.266   3.805   4.146  1.3000 -1.7490  1.5464
  357MOL0     H49259   3.249   3.830   4.312 -0.4674 -2.8341 -1.4321
  357MOL0     H49260   3.034   3.806   4.229 -2.4432  0.9987  0.9541
  357MOL0     H49261   3.050   3.948   4.116  0.2100  1.2008  0.3468
  357MOL0     H49262   2.940   4.133   4.469  1.0706 -2.1569  3.7886
  357MOL0     H49263   3.701   3.917   4.220 -2.1069 -0.9616 -0.9770
  357MOL0     H49264   4.058   3.858   4.163 -0.1868  0.1230 -0.4412
  357MOL0     H49265   3.978   3.967   4.254 -1.8701 -0.2995  0.9690
  357MOL0     H49266   3.905   3.803   4.250 -0.5837 -0.5059 -0.0815
  358MOL0     O49267   4.403   4.992   9.390  0.9322 -0.1155  0.1765
  358MOL0     C49268   4.335   5.088   9.367  0.1792 -0.2569  0.2193
  358MOL0     O49269   4.382   5.220   9.350  0.8437  0.1357 -0.0773
  358MOL0     C49270   4.512   5.244   9.316 -0.5789  0.0605  1.1291
  358MOL0     C49271   4.628   5.221   9.398 -0.2410 -0.2321 -0.1536
  358MOL0     C49272   4.751   5.253   9.341 -0.4792  0.4884 -1.0651
  358MOL0     C49273   4.763   5.289   9.215 -0.6659 -0.3917  0.1162
  358MOL0     O49274   4.893   5.304   9.174  0.4182  0.6246 -0.4994
  358MOL0     C49275   4.929   5.387   9.063  0.0705  0.1792  0.1861
  358MOL0     C49276   5.075   5.413   9.066  0.7511 -0.4264 -0.2333
  358MOL0     C49277   5.125   5.486   8.942  0.2733  0.6447 -0.1750
  358MOL0     C49278   5.273   5.476   8.918  0.1765 -0.2253 -0.1506
  358MOL0     C49279   5.306   5.389   8.803  0.3495 -0.3358 -0.8942
  358MOL0     C49280   5.455   5.399   8.782  0.3586  0.6857  0.1152
  358MOL0     C49281   5.495   5.317   8.648  0.0470 -0.0546  0.1675
  358MOL0     C49282   5.646   5.319   8.638  0.4133 -0.0886  0.2883
  358MOL0     N49283   5.682   5.270   8.506 -0.5859 -0.0144  0.1904
  358MOL0     C49284   5.649   5.333   8.389  0.1805  0.4471  0.4132
  358MOL0     C49285   5.731   5.285   8.296  0.3819 -0.0938 -0.1840
  358MOL0     C49286   5.761   5.357   8.160  0.0661 -0.7751 -0.2187
  358MOL0     C49287   5.903   5.340   8.131 -0.1601 -0.4356 -0.5999
  358MOL0     C49288   5.945   5.437   8.013 -0.1296 -0.1583 -0.8908
  358MOL0     C49289   6.074   5.401   7.947 -0.1319  0.4705 -0.0024
  358MOL0     O49290   6.185   5.430   8.031  0.0744  0.0442 -0.6054
  358MOL0     C49291   6.314   5.396   7.989  0.7886 -0.3914  0.0944
  358MOL0     C49292   6.422   5.396   8.078  0.3199 -0.9266  0.1942
  358MOL0     C49293   6.548   5.354   8.034  0.1395 -0.8187  0.0833
  358MOL0     C49294   6.650   5.360   8.140  0.0488 -0.2166  0.8833
  358MOL0     C49295   6.579   5.319   7.899 -0.6612  1.1904 -0.3384
  358MOL0     C49296   6.707   5.266   7.850 -0.4012  0.4314  0.4757
  358MOL0     O49297   6.728   5.249   7.716  0.3132 -0.5940  0.4148
  358MOL0     C49298   6.811   5.170   7.655 -0.1375  0.6398  0.3086
  358MOL0     C49299   6.857   5.208   7.532 -0.2016 -0.2334 -0.4228
  358MOL0     C49300   6.961   5.137   7.473 -0.3686 -0.3439  0.1720
  358MOL0     C49301   7.007   5.012   7.525 -0.4218 -0.1941  0.3554
  358MOL0     O49302   7.098   4.943   7.446 -0.4332 -0.6533 -0.1309
  358MOL0     C49303   7.173   4.834   7.508  0.6011 -0.2873 -0.4355
  358MOL0     C49304   7.306   4.802   7.450  0.4061 -0.4736  0.3334
  358MOL0     C49305   7.391   4.711   7.535 -0.2348  0.0923  0.2129
  358MOL0     C49306   7.526   4.689   7.457 -0.0804  0.4599  0.6118
  358MOL0     C49307   7.635   4.652   7.548  0.0474  0.0270  0.1850
  358MOL0     C49308   7.609   4.523   7.621 -0.5223 -1.0815 -0.3412
  358MOL0     C49309   7.603   4.395   7.523 -0.2348 -0.7825 -0.1358
  358MOL0     C49310   7.527   4.288   7.604  0.6410 -0.6304  0.3393
  358MOL0    Cl49311   7.357   4.322   7.577 -0.1099  0.0010  0.0138
  358MOL0     C49312   6.959   4.969   7.645 -0.2002 -0.1760 -0.2488
  358MOL0     C49313   6.873   5.053   7.715  0.4082 -0.6172 -0.1055
  358MOL0     O49314   6.796   5.242   7.933 -0.1061  0.2528  0.7594
  358MOL0     C49315   6.476   5.323   7.811  0.6774  0.4057 -0.1730
  358MOL0     C49316   6.342   5.358   7.856  0.4265  0.2514  0.3343
  358MOL0     N49317   5.797   5.182   8.359 -0.2226 -0.0674 -0.0590
  358MOL0     N49318   5.757   5.172   8.479 -0.6586 -0.3657  0.1985
  358MOL0     C49319   4.650   5.310   9.134  0.5274  0.0549  0.6318
  358MOL0     C49320   4.522   5.294   9.188  0.3070  0.2656 -0.5519
  358MOL0     C49321   4.186   5.076   9.386 -0.3958  0.0954  0.5521
  358MOL0     C49322   4.096   5.162   9.318 -0.1552  0.8492  0.0966
  358MOL0     C49323   3.955   5.161   9.341 -1.0019  0.2570  0.6722
  358MOL0     C49324   3.901   5.070   9.426 -0.0475 -0.2475 -0.9019
  358MOL0     O49325   3.768   5.049   9.442  0.0977  0.7443  0.6483
  358MOL0     C49326   3.684   5.150   9.379  0.1002  0.8174  0.2217
  358MOL0     C49327   3.537   5.139   9.432 -0.5350  0.7530 -0.1908
  358MOL0     C49328   3.536   5.182   9.586  0.1905  0.1837  0.1476
  358MOL0     C49329   3.394   5.196   9.634  0.0260 -0.9213 -0.0493
  358MOL0     C49330   3.385   5.211   9.777 -0.0783  0.1467  0.3150
  358MOL0     C49331   3.380   5.231   9.897  0.3830 -0.6770  0.4664
  358MOL0     C49332   3.990   4.993   9.500  0.9106 -0.7340  0.1929
  358MOL0     C49333   4.129   4.992   9.490  0.0290 -0.4627  0.2013
  358MOL0     C49334   4.203   4.907   9.591 -0.9077 -0.7900 -0.4015
  358MOL0     H49335   4.626   5.176   9.496  2.3028 -0.2265 -0.0303
  358MOL0     H49336   4.840   5.226   9.398  0.2995 -1.0870 -2.8880
  358MOL0     H49337   4.880   5.485   9.063  1.8097  1.1035  1.0497
  358MOL0     H49338   4.900   5.328   8.976 -0.9206 -0.1779  0.7460
  358MOL0     H49339   5.092   5.482   9.149  0.1340 -0.1798 -0.3054
  358MOL0     H49340   5.129   5.320   9.079 -1.4729 -1.7715 -0.0230
  358MOL0     H49341   5.069   5.445   8.858 -0.5589 -0.4077  0.8567
  358MOL0     H49342   5.090   5.590   8.943 -1.0108  0.2248 -0.1174
  358MOL0     H49343   5.302   5.580   8.904 -0.8599  0.3012  1.3546
  358MOL0     H49344   5.321   5.452   9.013  0.0441  2.4144  0.6728
  358MOL0     H49345   5.257   5.429   8.714 -2.0167  0.4532  0.6586
  358MOL0     H49346   5.276   5.286   8.824 -2.8106  0.5984 -0.4278
  358MOL0     H49347   5.479   5.505   8.768  1.0277  0.2677 -2.3786
  358MOL0     H49348   5.514   5.365   8.868 -0.8855 -1.9790  0.0214
  358MOL0     H49349   5.449   5.366   8.562  3.5629  0.7428 -1.4506
  358MOL0     H49350   5.473   5.210   8.657 -0.1711 -0.1358 -1.1752
  358MOL0     H49351   5.676   5.424   8.648  0.0562  0.0935 -0.4900
  358MOL0     H49352   5.688   5.255   8.716  1.0217 -1.3549 -1.0134
  358MOL0     H49353   5.584   5.419   8.379 -0.0974  0.5621  2.7420
  358MOL0     H49354   5.739   5.464   8.165  0.6324 -0.7038  2.7240
  358MOL0     H49355   5.701   5.317   8.077 -0.6511 -0.6154  0.2126
  358MOL0     H49356   5.957   5.357   8.225 -1.7060 -3.0315  0.8602
  358MOL0     H49357   5.918   5.235   8.104  2.7807 -0.7282  1.7134
  358MOL0     H49358   5.878   5.435   7.927  1.2499 -3.4317 -2.0545
  358MOL0     H49359   5.951   5.537   8.058  1.0237 -0.8458  0.5947
  358MOL0     H49360   6.075   5.295   7.921 -0.0096  0.3358  0.5502
  358MOL0     H49361   6.076   5.458   7.854 -1.5472 -0.7519 -0.8183
  358MOL0     H49362   6.401   5.421   8.182 -0.1499 -0.0346 -0.0968
  358MOL0     H49363   6.617   5.446   8.199 -3.8259  0.4346 -1.8394
  358MOL0     H49364   6.747   5.394   8.103 -2.0623  3.5849 -2.0477
  358MOL0     H49365   6.655   5.263   8.189 -1.1725  1.1182  3.8770
  358MOL0     H49366   6.828   5.300   7.483 -0.5355 -0.5138 -0.7592
  358MOL0     H49367   7.012   5.175   7.385 -1.3677  0.7685  0.0611
  358MOL0     H49368   7.196   4.867   7.610 -0.0836 -0.6395 -0.1600
  358MOL0     H49369   7.114   4.745   7.531  0.9855 -0.4445 -0.0606
  358MOL0     H49370   7.273   4.763   7.353 -2.6306 -0.8241  1.3948
  358MOL0     H49371   7.362   4.895   7.440  2.9298 -2.0553 -1.8175
  358MOL0     H49372   7.333   4.619   7.537 -1.3305  0.7498  2.4691
  358MOL0     H49373   7.406   4.741   7.640 -2.0060 -2.9408  1.4574
  358MOL0     H49374   7.558   4.784   7.413  1.1374 -0.1528  0.1094
  358MOL0     H49375   7.513   4.623   7.370  1.3276  1.7162 -0.6115
  358MOL0     H49376   7.728   4.648   7.490 -1.2159  2.2151 -2.2248
  358MOL0     H49377   7.652   4.727   7.625 -0.5686 -1.7443  2.1213
  358MOL0     H49378   7.513   4.543   7.669 -0.7593  0.8774 -1.5271
  358MOL0     H49379   7.693   4.522   7.692 -2.0689 -0.3873  1.5874
  358MOL0     H49380   7.708   4.369   7.502 -0.0235 -0.7887  0.8806
  358MOL0     H49381   7.555   4.413   7.426 -1.3729 -4.2451 -0.3371
  358MOL0     H49382   7.552   4.298   7.710  3.6673  1.3629 -0.4489
  358MOL0     H49383   7.551   4.187   7.570 -1.9042 -1.6136  1.2170
  358MOL0     H49384   6.997   4.876   7.687 -0.5200 -0.5516 -0.7673
  358MOL0     H49385   6.849   5.017   7.814 -1.1745 -3.5150 -1.4332
  358MOL0     H49386   6.500   5.304   7.707 -2.8074 -1.0990 -0.8736
  358MOL0     H49387   6.267   5.380   7.780 -0.3054  1.2009  1.2927
  358MOL0     H49388   4.648   5.338   9.029 -0.0306  0.6905  0.8038
  358MOL0     H49389   4.434   5.309   9.127  0.2039 -0.5864 -0.6284
  358MOL0     H49390   4.132   5.240   9.252  1.1319 -0.1001 -0.3642
  358MOL0     H49391   3.896   5.208   9.263  0.8035  2.0031  0.2834
  358MOL0     H49392   3.726   5.251   9.391  0.3200  0.9481 -1.3576
  358MOL0     H49393   3.668   5.128   9.273  0.6389  0.2650  0.2528
  358MOL0     H49394   3.496   5.039   9.418  0.8247 -0.0090  1.1037
  358MOL0     H49395   3.475   5.216   9.384 -0.6780  0.4606 -0.4748
  358MOL0     H49396   3.579   5.102   9.648  0.5581 -0.5030 -0.9700
  358MOL0     H49397   3.596   5.271   9.605  1.7669 -1.0511  1.2985
  358MOL0     H49398   3.341   5.108   9.598 -0.6547  0.3421 -2.3975
  358MOL0     H49399   3.336   5.279   9.590  0.3294 -0.2222  0.8338
  358MOL0     H49400   3.356   5.247  10.000  1.1379 -1.4882  0.7713
  358MOL0     H49401   3.943   4.933   9.578  1.0325  1.8922  2.4517
  358MOL0     H49402   4.156   4.892   9.689 -0.6829 -0.8796 -0.3082
  358MOL0     H49403   4.212   4.806   9.550  2.7153 -1.8110  2.3547
  358MOL0     H49404   4.306   4.942   9.603 -1.0389 -0.5820  0.1421
  359MOL0     O49405  11.187   4.399  10.039 -0.2816  0.2702  0.7668
  359MOL0     C49406  11.149   4.368  10.149  0.8586 -0.0605  0.2565
  359MOL0     O49407  11.234   4.359  10.248  0.3427  0.0843  0.1151
  359MOL0     C49408  11.366   4.366  10.228  0.0120 -0.9381  0.4823
  359MOL0     C49409  11.431   4.491  10.259  1.1234  0.9952  0.0052
  359MOL0     C49410  11.573   4.490  10.261  0.0468 -0.3907 -0.9979
  359MOL0     C49411  11.644   4.378  10.227  0.4933  1.0393 -0.0745
  359MOL0     O49412  11.777   4.358  10.233 -0.4652 -0.3621 -0.5365
  359MOL0     C49413  11.859   4.482  10.222 -0.3962  0.0724 -0.3424
  359MOL0     C49414  12.006   4.432  10.221  0.0409  0.3056 -1.0050
  359MOL0     C49415  12.055   4.389  10.363 -0.4446 -0.0484  0.4791
  359MOL0     C49416  12.210   4.371  10.366  0.2600 -0.2939  0.3332
  359MOL0     C49417  12.257   4.379  10.512 -0.4833  0.0196 -0.5916
  359MOL0     C49418  12.410   4.358  10.518 -0.8937  0.4437  0.0831
  359MOL0     C49419  12.465   4.436  10.642 -0.0616 -0.0471  0.5691
  359MOL0     C49420  12.599   4.381  10.691 -0.3728  0.2432  1.1766
  359MOL0     N49421  12.607   4.240  10.708 -0.4007  0.3006  0.5254
  359MOL0     C49422  12.515   4.162  10.770 -0.2662 -0.1540 -0.1586
  359MOL0     C49423  12.551   4.036  10.723 -0.1224  0.2941 -0.2457
  359MOL0     C49424  12.483   3.921  10.773 -0.4431 -0.8485  0.9294
  359MOL0     C49425  12.334   3.928  10.730 -0.5326  0.1411 -0.2909
  359MOL0     C49426  12.318   3.898  10.586  0.0428 -0.6541 -0.5577
  359MOL0     C49427  12.178   3.928  10.532 -0.8371  0.0902 -0.4920
  359MOL0     O49428  12.167   3.879  10.394  0.5667 -0.9586  0.2535
  359MOL0     C49429  12.050   3.882  10.324 -0.2591 -0.7575  0.3449
  359MOL0     C49430  12.041   3.825  10.198 -0.2400 -0.4558  0.1953
  359MOL0     C49431  11.927   3.826  10.120 -0.1142  0.0126 -0.0567
  359MOL0     C49432  11.936   3.769   9.980  0.3671 -0.7592  0.0351
  359MOL0     C49433  11.808   3.881  10.171 -0.3838 -0.0035  0.0642
  359MOL0     C49434  11.673   3.892  10.107 -0.6963 -0.4518  0.4968
  359MOL0     O49435  11.663   3.898   9.975 -0.6021  0.0399  0.0949
  359MOL0     C49436  11.536   3.895   9.934 -0.4036 -0.2601  0.2259
  359MOL0     C49437  11.455   4.017   9.940 -0.9505 -0.1790  0.8208
  359MOL0     C49438  11.320   4.006   9.919  0.7424 -0.2988  0.6137
  359MOL0     C49439  11.262   3.885   9.882 -0.6173 -0.3545 -0.2728
  359MOL0     O49440  11.130   3.893   9.850  0.4698 -0.1044  0.2725
  359MOL0     C49441  11.068   3.765   9.819  1.1960 -0.0163 -0.9306
  359MOL0     C49442  10.992   3.709   9.946  0.1727 -0.7633  0.6691
  359MOL0     C49443  10.885   3.802   9.995 -0.0996 -0.1474 -0.0891
  359MOL0     C49444  10.793   3.845   9.878  0.1712  0.2005  0.2960
  359MOL0     C49445  10.676   3.935   9.916  0.4991  0.5677 -0.2608
  359MOL0     C49446  10.590   3.851   9.999  0.9346  0.1786  0.6332
  359MOL0     C49447  10.453   3.920  10.023 -0.0430 -0.6496  0.3629
  359MOL0     C49448  10.459   4.040  10.119  0.3894  0.4233  0.1042
  359MOL0    Cl49449  10.290   4.080  10.153  0.5962 -0.2394  0.2857
  359MOL0     C49450  11.338   3.767   9.893  0.5305 -0.2245  0.6497
  359MOL0     C49451  11.476   3.771   9.915  0.2326 -0.2249 -0.4793
  359MOL0     O49452  11.578   3.897  10.180  0.1307 -0.4072 -0.3455
  359MOL0     C49453  11.815   3.946  10.296  0.4250  0.4030 -0.0898
  359MOL0     C49454  11.931   3.940  10.372 -0.1642  0.4353 -0.2567
  359MOL0     N49455  12.658   4.045  10.637 -0.3716  0.9119 -0.1206
  359MOL0     N49456  12.693   4.159  10.633  0.2117 -0.6325 -1.0291
  359MOL0     C49457  11.572   4.254  10.201 -1.0369 -0.4370 -0.5493
  359MOL0     C49458  11.439   4.256  10.195  0.6500  0.4538  0.5587
  359MOL0     C49459  11.011   4.339  10.179  0.4819  0.9462 -0.6693
  359MOL0     C49460  10.975   4.336  10.310 -0.5428 -0.4921 -0.0433
  359MOL0     C49461  10.839   4.315  10.346  0.3165 -0.8944  0.1080
  359MOL0     C49462  10.736   4.302  10.249 -0.1796 -0.0725 -0.4075
  359MOL0     O49463  10.607   4.268  10.276 -0.2918 -0.1113  0.1917
  359MOL0     C49464  10.573   4.211  10.403  0.3208 -1.2811  0.2484
  359MOL0     C49465  10.531   4.305  10.513  0.6101  0.0461  0.0414
  359MOL0     C49466  10.386   4.352  10.477  0.9100 -0.6805 -0.2623
  359MOL0     C49467  10.349   4.455  10.586 -0.1447  0.8574 -0.8140
  359MOL0     C49468  10.248   4.540  10.539  0.1212 -0.9793 -0.6279
  359MOL0     C49469  10.161   4.618  10.489 -0.1190  0.0450  0.6248
  359MOL0     C49470  10.779   4.301  10.116  0.2272 -0.3879  1.5189
  359MOL0     C49471  10.914   4.312  10.077 -0.4845  0.0218  0.1380
  359MOL0     C49472  10.946   4.296   9.929  0.7321 -0.2479  0.4243
  359MOL0     H49473  11.363   4.573  10.278  0.1883  0.0122  1.0919
  359MOL0     H49474  11.625   4.584  10.271 -1.4264  0.5242 -1.5204
  359MOL0     H49475  11.847   4.553  10.305  2.3855  2.7820 -2.0867
  359MOL0     H49476  11.838   4.534  10.128 -0.3231 -0.0893 -0.4487
  359MOL0     H49477  12.031   4.361  10.142  1.3098  1.1592 -1.4019
  359MOL0     H49478  12.070   4.516  10.194  0.5593 -0.6935 -3.1279
  359MOL0     H49479  12.025   4.461  10.440  0.7246  2.3221 -1.1559
  359MOL0     H49480  12.002   4.302  10.401  0.3376  0.2339  2.3216
  359MOL0     H49481  12.237   4.274  10.322  1.1273  1.6186 -3.7928
  359MOL0     H49482  12.255   4.454  10.311 -0.4638  0.1996  0.4725
  359MOL0     H49483  12.215   4.303  10.578  1.4821 -0.2009  0.4699
  359MOL0     H49484  12.240   4.477  10.558  0.7557 -0.7103  1.5758
  359MOL0     H49485  12.425   4.250  10.525 -0.3201  0.5811  1.1454
  359MOL0     H49486  12.458   4.398  10.428 -1.9112 -0.6331 -0.9634
  359MOL0     H49487  12.390   4.438  10.721 -2.4418  0.4649 -1.5670
  359MOL0     H49488  12.488   4.539  10.612 -0.5052 -0.5010 -1.5273
  359MOL0     H49489  12.674   4.409  10.617 -1.7510  1.1479  0.0748
  359MOL0     H49490  12.625   4.429  10.786 -1.1091  0.7866  1.1124
  359MOL0     H49491  12.434   4.198  10.832  0.3543  1.1310 -0.0816
  359MOL0     H49492  12.501   3.914  10.881  2.0806  0.9210  0.7224
  359MOL0     H49493  12.534   3.834  10.732  0.0281 -0.0847 -0.1545
  359MOL0     H49494  12.285   3.851  10.791 -2.7908  0.9895 -0.9456
  359MOL0     H49495  12.294   4.023  10.768 -0.8752 -0.5053  1.0055
  359MOL0     H49496  12.392   3.950  10.525  0.7903 -2.6480 -1.4268
  359MOL0     H49497  12.344   3.792  10.583 -1.0210 -0.9764  0.7518
  359MOL0     H49498  12.108   3.887  10.605  2.1588  1.2040  3.3614
  359MOL0     H49499  12.167   4.037  10.533  0.3318  0.2614 -2.0576
  359MOL0     H49500  12.137   3.794  10.157  1.9347 -0.3010  4.5699
  359MOL0     H49501  12.031   3.719   9.958  1.2836  0.3117  1.3697
  359MOL0     H49502  11.925   3.847   9.905  1.2306 -1.4306 -0.8186
  359MOL0     H49503  11.871   3.685   9.954 -0.5578 -0.1706  0.3988
  359MOL0     H49504  11.496   4.116   9.960  1.3020 -1.2217  1.7966
  359MOL0     H49505  11.268   4.101   9.916  0.6212 -0.3426 -3.4283
  359MOL0     H49506  10.993   3.772   9.738 -0.9153 -0.9926  0.8314
  359MOL0     H49507  11.139   3.697   9.770  0.1630 -0.0602 -2.4587
  359MOL0     H49508  10.940   3.622   9.905 -0.5065 -0.7395  1.4658
  359MOL0     H49509  11.069   3.686  10.021 -1.1206 -3.1246  1.3669
  359MOL0     H49510  10.932   3.886  10.046  3.1683 -1.2131 -1.0872
  359MOL0     H49511  10.822   3.751  10.070 -2.2803  0.4410 -1.4220
  359MOL0     H49512  10.751   3.763   9.819  1.2705 -0.3015  0.1896
  359MOL0     H49513  10.855   3.895   9.803  0.2963  0.3854  0.5193
  359MOL0     H49514  10.710   4.030   9.957 -0.3380  0.1353  1.5184
  359MOL0     H49515  10.626   3.958   9.822  0.5717 -3.1696 -1.3832
  359MOL0     H49516  10.628   3.828  10.099 -1.3547  0.8754  1.7274
  359MOL0     H49517  10.569   3.763   9.937  0.3391  1.4553 -1.0236
  359MOL0     H49518  10.386   3.839  10.052  0.5082 -2.6917 -3.4148
  359MOL0     H49519  10.430   3.958   9.923  0.6508  0.3763  0.5739
  359MOL0     H49520  10.512   4.121  10.068  0.5540 -0.1147 -0.5927
  359MOL0     H49521  10.504   4.002  10.211 -0.7356  1.1075  0.9692
  359MOL0     H49522  11.305   3.666   9.869  2.0213 -0.7729  0.8282
  359MOL0     H49523  11.550   3.693   9.932  0.5118 -0.0206 -0.7413
  359MOL0     H49524  11.732   4.003  10.335  1.7998  1.2543  1.7221
  359MOL0     H49525  11.942   3.989  10.469  0.4487  2.7186 -1.4078
  359MOL0     H49526  11.625   4.160  10.188  1.4401  0.4269  2.3988
  359MOL0     H49527  11.402   4.160  10.162 -3.6918  0.8467  3.4531
  359MOL0     H49528  11.055   4.342  10.383  1.0583  1.5005 -1.8754
  359MOL0     H49529  10.815   4.332  10.451 -0.4329  0.6671 -0.2786
  359MOL0     H49530  10.494   4.137  10.386  2.5880 -3.8434  0.1720
  359MOL0     H49531  10.654   4.149  10.442  0.5494 -0.1168  1.7538
  359MOL0     H49532  10.590   4.397  10.510 -1.6840  1.5955 -1.9246
  359MOL0     H49533  10.535   4.252  10.608 -3.4069  0.6252  0.7302
  359MOL0     H49534  10.390   4.399  10.378 -0.1649 -0.5818 -0.2688
  359MOL0     H49535  10.313   4.270  10.477  2.0357 -1.7180 -0.7641
  359MOL0     H49536  10.439   4.509  10.617 -1.0492  2.9212 -1.6308
  359MOL0     H49537  10.305   4.392  10.664  1.1084 -0.2191 -0.9545
  359MOL0     H49538  10.085   4.673  10.439  0.0355 -1.5087 -1.4386
  359MOL0     H49539  10.711   4.287  10.033 -0.1141  4.2452  0.7789
  359MOL0     H49540  10.948   4.398   9.889  0.6007 -0.7290 -0.8556
  359MOL0     H49541  11.038   4.240   9.908 -0.5014 -1.7447 -1.2985
  359MOL0     H49542  10.861   4.243   9.885 -0.6524  1.3645  1.0517
  360MOL0     O49543   2.329  10.569   0.798 -0.2406 -0.4473 -0.8053
  360MOL0     C49544   2.215  10.523   0.819  0.4119  1.0565  0.0083
  360MOL0     O49545   2.153  10.526   0.938  0.2648  0.7724 -0.6588
  360MOL0     C49546   2.042  10.449   0.959  0.1818  0.2101  0.1900
  360MOL0     C49547   1.915  10.501   0.941 -0.2316 -0.2055  0.6024
  360MOL0     C49548   1.803  10.440   0.991 -0.5071 -0.1858 -0.0207
  360MOL0     C49549   1.810  10.314   1.056 -0.7149 -0.0480  0.6507
  360MOL0     O49550   1.698  10.245   1.096 -0.0589 -0.2141  0.3141
  360MOL0     C49551   1.655  10.312   1.214  0.1056 -0.1112  0.0211
  360MOL0     C49552   1.637  10.219   1.324  0.1791 -0.0903 -0.2260
  360MOL0     C49553   1.515  10.121   1.306  0.2148 -0.0136  0.2290
  360MOL0     C49554   1.384  10.181   1.339 -0.2812 -0.3203 -0.8820
  360MOL0     C49555   1.263  10.088   1.335 -0.3003  1.0825  0.5321
  360MOL0     C49556   1.231  10.048   1.196  0.0306 -1.2858  0.3972
  360MOL0     C49557   1.097   9.971   1.199 -0.9604 -0.6465  0.6351
  360MOL0     C49558   1.102   9.828   1.250 -0.3184  0.0524 -0.0659
  360MOL0     N49559   1.184   9.744   1.164 -0.9130  0.3198  0.3462
  360MOL0     C49560   1.323   9.718   1.186  0.9363  0.7392 -0.6803
  360MOL0     C49561   1.354   9.622   1.093 -0.3681 -0.2539  0.3368
  360MOL0     C49562   1.479   9.548   1.078  0.3606 -0.4216  0.7178
  360MOL0     C49563   1.512   9.461   1.192 -0.3180  0.4908  0.2883
  360MOL0     C49564   1.650   9.396   1.177 -0.5380  0.1563  0.1876
  360MOL0     C49565   1.766   9.485   1.136 -0.6835 -0.4298  0.6361
  360MOL0     O49566   1.771   9.608   1.215  0.0352 -0.9131 -0.4064
  360MOL0     C49567   1.875   9.698   1.202  0.2414  0.4213 -0.6666
  360MOL0     C49568   1.894   9.781   1.309  0.6148  0.4496 -0.0174
  360MOL0     C49569   1.991   9.876   1.308  0.7324 -0.2156  0.3477
  360MOL0     C49570   1.997   9.967   1.430  0.2267  0.0113  0.5582
  360MOL0     C49571   2.076   9.885   1.193 -0.5579  1.1888 -0.8305
  360MOL0     C49572   2.185   9.979   1.190 -0.1297  1.0142  0.3210
  360MOL0     O49573   2.239   9.998   1.073  0.2078  0.0614 -0.3286
  360MOL0     C49574   2.362  10.063   1.058 -0.0329 -0.2724 -0.1124
  360MOL0     C49575   2.395  10.185   1.122  0.0035 -0.6369 -0.2974
  360MOL0     C49576   2.519  10.240   1.092 -0.4092  0.3394 -0.3944
  360MOL0     C49577   2.592  10.193   0.988  0.2437  0.1992 -0.1076
  360MOL0     O49578   2.701  10.252   0.947  0.2088 -0.2331  0.5678
  360MOL0     C49579   2.696  10.391   0.922  0.0574 -1.0451  0.0992
  360MOL0     C49580   2.833  10.450   0.956  0.4332  0.4870 -0.5865
  360MOL0     C49581   2.934  10.398   0.852 -1.1532  0.1960  0.3630
  360MOL0     C49582   3.074  10.462   0.867  0.0024  0.4733  0.0718
  360MOL0     C49583   3.174  10.384   0.785 -0.7004 -0.0893 -0.1819
  360MOL0     C49584   3.319  10.414   0.815 -0.6151 -0.0125 -0.6386
  360MOL0     C49585   3.364  10.556   0.759 -0.4135  0.5538  0.1000
  360MOL0     C49586   3.500  10.582   0.817  0.0331 -0.5020 -0.7305
  360MOL0    Cl49587   3.642  10.498   0.746 -0.0418 -0.3347  0.0916
  360MOL0     C49588   2.561  10.072   0.928 -0.6669  0.5901  0.2922
  360MOL0     C49589   2.443  10.003   0.964 -0.6192  0.1248 -0.3868
  360MOL0     O49590   2.235  10.010   1.295  0.4401 -1.2693  0.2141
  360MOL0     C49591   2.060   9.798   1.083  1.1827  0.5552  0.7335
  360MOL0     C49592   1.960   9.699   1.095  0.6922 -0.7413 -0.5920
  360MOL0     N49593   1.231   9.589   1.027 -0.3258  0.2698 -0.0456
  360MOL0     N49594   1.131   9.667   1.062 -0.4011 -0.4489 -0.2301
  360MOL0     C49595   1.942  10.260   1.078  0.6112  0.7586 -0.0467
  360MOL0     C49596   2.055  10.327   1.026 -1.1435  0.2039 -0.6194
  360MOL0     C49597   2.137  10.499   0.693 -1.1599  0.7151  0.5686
  360MOL0     C49598   2.080  10.378   0.679  0.2088 -0.2450 -0.7280
  360MOL0     C49599   2.017  10.338   0.561 -0.3739  0.8162  0.2121
  360MOL0     C49600   2.010  10.420   0.453  0.1362 -0.0491  1.7046
  360MOL0     O49601   1.963  10.378   0.333 -0.1652  0.4853  0.1582
  360MOL0     C49602   1.939  10.470   0.228 -0.8678  0.4066  0.6669
  360MOL0     C49603   1.828  10.406   0.137  1.2143  0.4736 -0.1557
  360MOL0     C49604   1.872  10.277   0.073 -0.1588 -0.0374 -0.0607
  360MOL0     C49605   1.795  10.233  -0.052 -0.3728 -0.0301 -0.1241
  360MOL0     C49606   1.869  10.127  -0.120  0.2881  0.0402 -0.4910
  360MOL0     C49607   1.914  10.028  -0.173  0.2615  0.5019  0.1370
  360MOL0     C49608   2.061  10.549   0.470  0.6949 -0.0372 -0.8559
  360MOL0     C49609   2.120  10.594   0.586 -0.6836  0.4353 -0.4588
  360MOL0     C49610   2.163  10.733   0.610 -0.1690 -0.0422  0.3551
  360MOL0     H49611   1.913  10.602   0.904  1.5858  0.1204  1.2791
  360MOL0     H49612   1.709  10.493   0.977 -0.0263  0.7556  0.2613
  360MOL0     H49613   1.559  10.360   1.194  0.2270  0.2052  0.1736
  360MOL0     H49614   1.728  10.384   1.253  0.8245 -0.9343  0.2093
  360MOL0     H49615   1.728  10.160   1.333 -0.7704 -1.6126 -0.1092
  360MOL0     H49616   1.626  10.269   1.421 -0.2828 -0.5695 -0.0234
  360MOL0     H49617   1.526  10.087   1.203 -0.5278  1.0894 -0.2308
  360MOL0     H49618   1.522  10.030   1.367  1.3002  0.5431  0.9666
  360MOL0     H49619   1.383  10.226   1.439 -1.4741 -0.3613 -0.8693
  360MOL0     H49620   1.374  10.268   1.274  2.1101  1.6946  1.2315
  360MOL0     H49621   1.176  10.133   1.383 -2.0208  0.2411 -1.6064
  360MOL0     H49622   1.292  10.005   1.400 -0.9159 -1.9938 -2.7737
  360MOL0     H49623   1.220  10.141   1.141  2.3704 -0.5103  1.1172
  360MOL0     H49624   1.308   9.987   1.147  0.3467 -2.0114  1.7220
  360MOL0     H49625   1.051   9.952   1.102 -0.4668  1.1698  0.0011
  360MOL0     H49626   1.020  10.029   1.250 -0.6846  0.6596 -0.3677
  360MOL0     H49627   1.139   9.809   1.351  0.7820 -0.5592 -0.5645
  360MOL0     H49628   1.001   9.784   1.247 -0.0776 -0.4802 -0.5822
  360MOL0     H49629   1.392   9.768   1.253 -0.9337 -0.3546  2.2484
  360MOL0     H49630   1.560   9.614   1.045 -1.1293  0.4416 -1.4922
  360MOL0     H49631   1.480   9.468   1.002  1.8357 -2.6611  2.9358
  360MOL0     H49632   1.511   9.515   1.287 -2.1690 -1.5503  1.5255
  360MOL0     H49633   1.441   9.379   1.204 -0.5529  1.0642  3.8149
  360MOL0     H49634   1.678   9.349   1.272 -4.2508 -0.6681  1.0374
  360MOL0     H49635   1.640   9.319   1.100 -1.5615  0.0369  0.4237
  360MOL0     H49636   1.861   9.431   1.136 -0.3412  0.0866 -1.6178
  360MOL0     H49637   1.754   9.521   1.034  2.3686  0.5509  0.5061
  360MOL0     H49638   1.832   9.772   1.397  1.2301  2.5185  0.6975
  360MOL0     H49639   1.984  10.069   1.394 -2.5173 -0.6882 -0.6959
  360MOL0     H49640   2.086   9.970   1.494  0.3347  2.2883  0.3678
  360MOL0     H49641   1.914   9.942   1.497 -3.3861 -1.8559 -4.0156
  360MOL0     H49642   2.326  10.240   1.185 -1.7729 -2.9064 -0.1376
  360MOL0     H49643   2.553  10.326   1.150  0.2637  0.9441 -1.6489
  360MOL0     H49644   2.667  10.405   0.818  0.6553  1.3297  0.2102
  360MOL0     H49645   2.619  10.439   0.984 -0.1033  0.4970 -1.2482
  360MOL0     H49646   2.821  10.559   0.960 -3.3197  0.2212 -1.1578
  360MOL0     H49647   2.867  10.436   1.059  2.3219  3.2870 -0.7122
  360MOL0     H49648   2.894  10.432   0.756 -0.6973  0.3201  0.2156
  360MOL0     H49649   2.938  10.289   0.856 -1.4795 -0.0058 -2.7791
  360MOL0     H49650   3.099  10.473   0.973  0.7510 -1.5039  0.1428
  360MOL0     H49651   3.066  10.562   0.822  0.1083 -0.3858 -1.9427
  360MOL0     H49652   3.163  10.279   0.812  0.2018 -0.3169 -0.6650
  360MOL0     H49653   3.155  10.404   0.679  0.5611 -2.6730 -0.9651
  360MOL0     H49654   3.391  10.345   0.770  0.4003  0.8091 -0.3206
  360MOL0     H49655   3.323  10.424   0.924  2.5354  1.6370 -0.7671
  360MOL0     H49656   3.295  10.635   0.789 -0.5310  0.3388  0.3944
  360MOL0     H49657   3.373  10.550   0.650 -2.1599  2.4298 -0.2152
  360MOL0     H49658   3.510  10.562   0.924  4.2701  0.1916 -0.8287
  360MOL0     H49659   3.513  10.688   0.794  0.5160 -0.8645 -2.2117
  360MOL0     H49660   2.626  10.037   0.850  0.9430  0.6648  1.5472
  360MOL0     H49661   2.407   9.910   0.922  1.2615  0.7305 -3.7080
  360MOL0     H49662   2.116   9.804   0.990  0.2042  0.9807  0.1636
  360MOL0     H49663   1.949   9.622   1.019  0.6765 -0.5796 -0.7542
  360MOL0     H49664   1.948  10.168   1.137  0.4422 -0.0694 -1.2761
  360MOL0     H49665   2.155  10.288   1.041  0.4730  4.6247  1.7600
  360MOL0     H49666   2.092  10.302   0.755  0.1648 -0.4314 -0.9086
  360MOL0     H49667   1.975  10.237   0.558  0.8613  0.3015 -0.2596
  360MOL0     H49668   1.901  10.568   0.258  0.0378  0.7437  0.7376
  360MOL0     H49669   2.030  10.478   0.169 -1.1957  0.2096  0.1242
  360MOL0     H49670   1.798  10.483   0.064  0.0178  0.0200 -0.1726
  360MOL0     H49671   1.734  10.381   0.186 -1.0586  1.2717 -3.6875
  360MOL0     H49672   1.979  10.288   0.050  0.4114 -3.0023  0.7172
  360MOL0     H49673   1.859  10.194   0.143  1.6926  0.5470  1.0514
  360MOL0     H49674   1.764  10.309  -0.123  3.6310  0.8676 -1.1801
  360MOL0     H49675   1.702  10.188  -0.015 -0.7375  1.9886  1.6130
  360MOL0     H49676   1.953   9.942  -0.224  0.6762 -1.5224  3.5848
  360MOL0     H49677   2.051  10.621   0.389 -0.9017  0.5859 -0.1647
  360MOL0     H49678   2.272  10.734   0.601 -0.2985  1.2667 -1.5104
  360MOL0     H49679   2.109  10.802   0.545  0.6532  0.5372  0.2774
  360MOL0     H49680   2.143  10.769   0.712  1.4685  1.2507  0.2637
  361MOL0     O49681   3.582   3.056   8.176  0.0501 -0.1578 -0.1791
  361MOL0     C49682   3.536   3.124   8.081  1.0973 -1.4619  0.4580
  361MOL0     O49683   3.585   3.239   8.034 -0.2606  0.7585  0.0580
  361MOL0     C49684   3.709   3.270   8.082 -0.1320  1.1913  0.3522
  361MOL0     C49685   3.727   3.342   8.205 -0.1880  0.6462  0.0105
  361MOL0     C49686   3.857   3.388   8.231 -0.0891  0.4771 -0.1111
  361MOL0     C49687   3.960   3.361   8.131  0.4824 -0.0821  0.5124
  361MOL0     O49688   4.088   3.397   8.153  0.1381  0.2133 -0.3864
  361MOL0     C49689   4.121   3.511   8.228  0.2722 -0.0753 -0.1336
  361MOL0     C49690   4.270   3.519   8.211  0.4281 -0.1707  0.7268
  361MOL0     C49691   4.352   3.406   8.277 -0.1255  1.2802 -0.1715
  361MOL0     C49692   4.500   3.436   8.255  0.0387 -0.1403 -0.2722
  361MOL0     C49693   4.588   3.328   8.328 -0.1134  0.4074  0.2634
  361MOL0     C49694   4.717   3.314   8.248  0.1233  0.1687  0.5533
  361MOL0     C49695   4.794   3.185   8.297  0.5491  0.2965 -0.2604
  361MOL0     C49696   4.920   3.163   8.216  0.0655 -0.4734 -0.3751
  361MOL0     N49697   5.026   3.088   8.302 -0.0436 -0.1791 -0.3204
  361MOL0     C49698   5.146   3.133   8.312 -0.8556  0.3188  0.5715
  361MOL0     C49699   5.222   3.045   8.373  0.1182 -0.5772 -1.5790
  361MOL0     C49700   5.372   3.074   8.388 -0.2341 -0.6355 -0.2177
  361MOL0     C49701   5.448   2.973   8.478  0.2900 -0.2436 -0.6898
  361MOL0     C49702   5.601   3.006   8.470  1.3296  0.9338  0.9268
  361MOL0     C49703   5.670   2.952   8.597  0.3475  0.3957 -0.1072
  361MOL0     O49704   5.783   3.027   8.654 -0.1383  1.2294  0.0858
  361MOL0     C49705   5.833   2.986   8.776  0.7354 -0.3493 -0.5228
  361MOL0     C49706   5.800   2.861   8.842 -0.3060 -0.9203  0.1943
  361MOL0     C49707   5.846   2.831   8.968  0.1648 -0.3187  0.3596
  361MOL0     C49708   5.819   2.690   9.020  0.1602  0.0298 -0.3809
  361MOL0     C49709   5.916   2.925   9.043 -0.8540  0.2204  0.3460
  361MOL0     C49710   5.963   2.904   9.176 -0.5944  0.0790 -0.7836
  361MOL0     O49711   6.059   2.988   9.223 -0.2532 -0.0965 -0.4196
  361MOL0     C49712   6.085   2.988   9.353  0.0381  0.1458 -0.0383
  361MOL0     C49713   6.028   3.088   9.430  0.1684  0.6406  0.6988
  361MOL0     C49714   6.075   3.117   9.559  0.0848 -0.2792  0.7709
  361MOL0     C49715   6.183   3.049   9.612  0.2581 -0.6918 -0.4195
  361MOL0     O49716   6.237   3.085   9.739 -0.5898  0.0799  0.7559
  361MOL0     C49717   6.159   3.164   9.834  0.1936 -0.4819  0.7970
  361MOL0     C49718   6.228   3.146   9.978 -0.4047  0.0603 -0.1577
  361MOL0     C49719   6.380   3.186   9.976  0.0839 -0.2418 -0.8387
  361MOL0     C49720   6.432   3.229  10.112  0.2131 -0.2335 -0.3934
  361MOL0     C49721   6.571   3.295  10.108 -0.0219 -0.3728 -0.4532
  361MOL0     C49722   6.679   3.192  10.074  0.0702 -0.8854  0.2611
  361MOL0     C49723   6.798   3.264  10.010 -0.5769  0.2305 -0.4375
  361MOL0     C49724   6.908   3.287  10.117 -0.0270 -0.4796  0.7607
  361MOL0    Cl49725   7.046   3.383  10.053 -0.2161  0.1430 -0.3254
  361MOL0     C49726   6.245   2.948   9.538 -0.5340  0.3949  0.7342
  361MOL0     C49727   6.194   2.913   9.406 -0.2259  0.0603 -1.0981
  361MOL0     O49728   5.913   2.814   9.242 -0.4419  0.1066  0.1890
  361MOL0     C49729   5.950   3.047   8.984  0.0087 -0.4253  0.2466
  361MOL0     C49730   5.906   3.073   8.855  0.0365 -0.2038 -0.1401
  361MOL0     N49731   5.140   2.948   8.422  0.1389  0.3380  0.1085
  361MOL0     N49732   5.024   2.975   8.382  0.0511 -0.7437 -0.3497
  361MOL0     C49733   3.944   3.296   8.008  0.1480 -0.1609 -0.0540
  361MOL0     C49734   3.808   3.253   7.987  0.0255  0.2636  0.0927
  361MOL0     C49735   3.404   3.075   8.023  0.0278 -0.3386  0.4587
  361MOL0     C49736   3.351   2.951   8.065  0.1080 -0.0717  0.4264
  361MOL0     C49737   3.227   2.903   8.025  0.7393 -0.3189 -0.3160
  361MOL0     C49738   3.158   2.974   7.929 -0.6873  0.4164 -0.4005
  361MOL0     O49739   3.033   2.938   7.892  0.1182  0.6352 -0.4790
  361MOL0     C49740   2.960   2.847   7.971 -0.0703  1.2190 -0.3154
  361MOL0     C49741   2.842   2.803   7.884  0.3973  0.5214  0.7241
  361MOL0     C49742   2.740   2.752   7.983  0.0226 -0.1033  0.1188
  361MOL0     C49743   2.605   2.753   7.908 -0.3622 -0.3881 -0.7151
  361MOL0     C49744   2.505   2.704   8.006 -0.3445 -0.0142  0.0931
  361MOL0     C49745   2.412   2.668   8.074  0.2384  0.3743 -0.2125
  361MOL0     C49746   3.202   3.098   7.895  0.0237 -0.9242  0.4345
  361MOL0     C49747   3.318   3.151   7.939 -0.1257 -1.2642  0.1797
  361MOL0     C49748   3.351   3.290   7.893  0.4784 -0.9516  0.1635
  361MOL0     H49749   3.651   3.355   8.281  0.8632  1.4690  0.9478
  361MOL0     H49750   3.870   3.438   8.326 -0.8109 -1.7808  1.2661
  361MOL0     H49751   4.100   3.506   8.335 -0.4114  0.2383 -0.2505
  361MOL0     H49752   4.073   3.601   8.188  0.1581  1.2915  2.8310
  361MOL0     H49753   4.296   3.510   8.105 -0.3644  2.0506  0.2870
  361MOL0     H49754   4.305   3.619   8.240 -0.7382  0.6788 -0.6743
  361MOL0     H49755   4.326   3.399   8.383  2.7247  0.8261  0.5794
  361MOL0     H49756   4.335   3.305   8.239  1.2282 -0.0716  2.5675
  361MOL0     H49757   4.523   3.430   8.148  1.3505 -1.0967  0.0333
  361MOL0     H49758   4.531   3.533   8.294 -2.1437 -0.1282  1.6725
  361MOL0     H49759   4.536   3.231   8.323 -0.3365  0.5193  0.3795
  361MOL0     H49760   4.602   3.357   8.432  0.1673 -0.9392  0.6282
  361MOL0     H49761   4.692   3.300   8.142 -3.0431 -0.0588  1.2368
  361MOL0     H49762   4.776   3.405   8.265  2.0484 -0.5858 -1.5925
  361MOL0     H49763   4.731   3.096   8.290 -2.6306  2.3565  0.1016
  361MOL0     H49764   4.835   3.193   8.399  0.4689  0.9946 -0.2810
  361MOL0     H49765   4.887   3.121   8.120  0.4105  1.1484 -1.2315
  361MOL0     H49766   4.960   3.259   8.183 -1.1867  0.8077  1.6347
  361MOL0     H49767   5.187   3.222   8.265  3.9449 -1.7555  0.2549
  361MOL0     H49768   5.396   3.177   8.415 -1.7017 -0.2176 -0.4264
  361MOL0     H49769   5.414   3.063   8.287  0.6630  0.3225  0.0342
  361MOL0     H49770   5.419   2.978   8.583  1.5563 -0.7209 -0.3001
  361MOL0     H49771   5.441   2.866   8.456  1.0729 -1.4487  3.9387
  361MOL0     H49772   5.638   2.966   8.375 -3.7997  0.1742 -1.1174
  361MOL0     H49773   5.613   3.114   8.482 -1.2418  1.1662  2.1400
  361MOL0     H49774   5.604   2.943   8.683 -0.6397  0.5221 -0.8245
  361MOL0     H49775   5.707   2.850   8.581 -1.6045 -0.4060  0.1954
  361MOL0     H49776   5.746   2.782   8.792  0.8636 -2.3516  1.1121
  361MOL0     H49777   5.763   2.625   8.952  2.2420 -0.3042 -1.8881
  361MOL0     H49778   5.758   2.703   9.109 -0.2411 -0.2129 -0.6180
  361MOL0     H49779   5.913   2.648   9.057  0.5780  2.1766  1.1863
  361MOL0     H49780   5.945   3.147   9.394 -2.6466 -3.0227  0.5829
  361MOL0     H49781   6.022   3.196   9.611 -0.9034 -0.9400  0.7858
  361MOL0     H49782   6.159   3.268   9.802 -1.2689 -1.1284 -1.5480
  361MOL0     H49783   6.057   3.125   9.841 -0.8242  2.0557  1.0476
  361MOL0     H49784   6.168   3.212  10.042 -1.1220 -0.3268 -0.4246
  361MOL0     H49785   6.210   3.046  10.017 -2.8248 -0.8273 -3.1806
  361MOL0     H49786   6.401   3.272   9.911 -0.0151  1.1617  0.8966
  361MOL0     H49787   6.441   3.102   9.940 -0.0124 -0.3816 -0.6762
  361MOL0     H49788   6.444   3.145  10.182  1.8320  0.8641  0.6998
  361MOL0     H49789   6.359   3.297  10.157 -0.5879 -0.9610 -0.5571
  361MOL0     H49790   6.565   3.386  10.047  1.3722  0.5411  0.7000
  361MOL0     H49791   6.605   3.336  10.204  1.7949  1.4518 -1.7919
  361MOL0     H49792   6.647   3.130   9.990  0.0652  0.1473 -0.5128
  361MOL0     H49793   6.706   3.139  10.166 -3.3233 -1.9406  0.7966
  361MOL0     H49794   6.766   3.360   9.967 -2.5386  0.4651  1.3636
  361MOL0     H49795   6.856   3.207   9.937  0.8343 -0.2915  1.0449
  361MOL0     H49796   6.939   3.186  10.146  0.5304 -0.7870 -0.8309
  361MOL0     H49797   6.868   3.334  10.207  1.6125  1.7472  0.4053
  361MOL0     H49798   6.323   2.894   9.590 -1.1632 -1.5963 -0.2848
  361MOL0     H49799   6.240   2.827   9.360  0.6842  0.1674 -0.4172
  361MOL0     H49800   5.992   3.132   9.037  0.8386  1.5738 -3.2795
  361MOL0     H49801   5.919   3.175   8.821 -3.7991  0.4267 -0.0689
  361MOL0     H49802   4.030   3.288   7.943 -0.0634  1.4953 -0.5907
  361MOL0     H49803   3.790   3.208   7.889  0.2485 -1.1766  0.6877
  361MOL0     H49804   3.402   2.894   8.142  2.0785 -0.2661 -0.9530
  361MOL0     H49805   3.203   2.804   8.062 -1.9360  0.0174 -0.9666
  361MOL0     H49806   3.021   2.758   7.991 -0.0853  1.4612  0.8604
  361MOL0     H49807   2.931   2.887   8.068 -1.4918  2.0000 -1.0274
  361MOL0     H49808   2.873   2.730   7.809 -0.7565  3.5215 -3.0116
  361MOL0     H49809   2.798   2.890   7.833 -2.9322 -0.9796  0.7776
  361MOL0     H49810   2.763   2.648   8.008  0.3838 -0.5248 -1.8126
  361MOL0     H49811   2.727   2.814   8.072  0.0463  1.0204 -0.6460
  361MOL0     H49812   2.616   2.677   7.830 -1.3026 -2.9111  1.4817
  361MOL0     H49813   2.590   2.858   7.880  2.0854  0.5156  1.0127
  361MOL0     H49814   2.323   2.622   8.113  0.5698  1.4304  1.8968
  361MOL0     H49815   3.136   3.157   7.832 -0.0698  0.2156  1.5487
  361MOL0     H49816   3.276   3.334   7.827 -0.6256 -3.1775 -0.1668
  361MOL0     H49817   3.354   3.344   7.988 -2.6966 -2.8568  1.4838
  361MOL0     H49818   3.451   3.295   7.848  0.8353 -1.6716  0.8543
  362MOL0     O49819   0.907   3.197   0.197 -0.2641  0.2255  0.4716
  362MOL0     C49820   0.844   3.156   0.294 -0.8431  0.1621  0.0148
  362MOL0     O49821   0.890   3.168   0.420 -0.2025  0.1449 -0.3034
  362MOL0     C49822   1.024   3.189   0.431  0.7742  0.7490  0.6571
  362MOL0     C49823   1.114   3.088   0.449  0.0479  0.0010 -0.1726
  362MOL0     C49824   1.242   3.127   0.485  0.6610 -0.4090  0.0351
  362MOL0     C49825   1.284   3.260   0.485 -0.0994  0.5553  0.9552
  362MOL0     O49826   1.417   3.290   0.504 -0.6698 -0.0427  0.0169
  362MOL0     C49827   1.462   3.426   0.480  0.0413 -0.3223  0.4962
  362MOL0     C49828   1.615   3.435   0.499 -0.0806 -0.0885  0.1939
  362MOL0     C49829   1.647   3.442   0.649  0.3342 -0.9060 -1.0530
  362MOL0     C49830   1.781   3.382   0.682  0.1412  0.0425  0.8013
  362MOL0     C49831   1.904   3.456   0.632  0.0152  0.0904  0.4355
  362MOL0     C49832   1.929   3.590   0.703  0.7447 -0.2772 -0.4357
  362MOL0     C49833   2.056   3.655   0.653  1.3233  0.2240  0.8076
  362MOL0     C49834   2.048   3.795   0.689 -0.6287 -0.2653 -0.0020
  362MOL0     N49835   2.161   3.860   0.639  0.2289  0.6219  0.3510
  362MOL0     C49836   2.292   3.844   0.681 -0.4005  0.1754  0.0476
  362MOL0     C49837   2.366   3.910   0.594 -0.0833  0.1365  0.4687
  362MOL0     C49838   2.514   3.914   0.594 -0.6856 -0.2331 -0.1729
  362MOL0     C49839   2.563   3.933   0.459  0.0285 -0.3004  0.7716
  362MOL0     C49840   2.712   3.905   0.455  0.3829 -0.0542 -0.2413
  362MOL0     C49841   2.784   3.939   0.327  0.4520 -0.3511 -0.2430
  362MOL0     O49842   2.915   3.874   0.326 -0.3378 -0.8850 -1.1221
  362MOL0     C49843   2.992   3.853   0.208 -0.8603 -0.1050  0.2507
  362MOL0     C49844   2.941   3.883   0.077 -0.3674  0.3041 -0.4591
  362MOL0     C49845   3.018   3.845  -0.041 -0.0017 -0.3383 -0.5511
  362MOL0     C49846   2.957   3.886  -0.171 -0.2415  0.2688 -0.5994
  362MOL0     C49847   3.142   3.779  -0.019  0.0819 -0.0130 -0.0711
  362MOL0     C49848   3.222   3.728  -0.132 -0.9904  0.7036  0.4232
  362MOL0     O49849   3.358   3.716  -0.112 -0.1073  0.4921 -0.2193
  362MOL0     C49850   3.437   3.651  -0.206  0.0221  0.6087  0.2324
  362MOL0     C49851   3.530   3.558  -0.168  0.2776 -0.1951  0.5212
  362MOL0     C49852   3.621   3.506  -0.251  0.3166  0.0551 -0.1040
  362MOL0     C49853   3.630   3.556  -0.383  0.4022  0.5524  0.6789
  362MOL0     O49854   3.723   3.494  -0.467  0.5807  0.8395 -0.2027
  362MOL0     C49855   3.792   3.569  -0.568  0.0299  0.4332 -0.5077
  362MOL0     C49856   3.931   3.496  -0.561 -0.2900 -0.1853 -0.8377
  362MOL0     C49857   4.040   3.542  -0.662 -0.0652  0.6035 -0.6201
  362MOL0     C49858   4.176   3.472  -0.642 -0.1521 -0.0905  0.0910
  362MOL0     C49859   4.252   3.451  -0.765  1.3394 -0.0262 -0.0354
  362MOL0     C49860   4.205   3.318  -0.842 -0.0456 -0.1525 -0.5040
  362MOL0     C49861   4.313   3.271  -0.936 -0.9913  0.3877 -0.0473
  362MOL0     C49862   4.267   3.148  -1.010 -0.4416  0.4160  0.1824
  362MOL0    Cl49863   4.422   3.061  -1.073  0.2671 -0.1729 -0.6372
  362MOL0     C49864   3.539   3.653  -0.426 -0.4429  0.6317 -0.6639
  362MOL0     C49865   3.439   3.692  -0.336 -0.8304 -0.1762  0.1120
  362MOL0     O49866   3.162   3.691  -0.234 -0.5366 -0.3304  0.1892
  362MOL0     C49867   3.196   3.755   0.109 -0.1268 -0.1587  0.8111
  362MOL0     C49868   3.121   3.800   0.216  0.5518  0.2272 -0.5548
  362MOL0     N49869   2.285   3.966   0.508  0.5727 -0.3738  0.3537
  362MOL0     N49870   2.158   3.930   0.526  0.0258 -1.0305 -0.1826
  362MOL0     C49871   1.187   3.358   0.461 -0.3904  0.2967  0.5636
  362MOL0     C49872   1.058   3.316   0.434  0.1278  0.1127 -0.4083
  362MOL0     C49873   0.707   3.113   0.275 -0.3045 -0.4431 -0.7701
  362MOL0     C49874   0.637   3.163   0.161 -0.2042  0.3921 -0.2948
  362MOL0     C49875   0.500   3.140   0.154  0.3694 -0.0544 -1.1320
  362MOL0     C49876   0.425   3.077   0.257  0.0985 -0.3484 -0.2756
  362MOL0     O49877   0.298   3.042   0.221  0.8045  0.2297 -0.7228
  362MOL0     C49878   0.224   2.968   0.321 -0.4658  0.0766  0.1739
  362MOL0     C49879   0.080   2.944   0.264 -0.5996 -0.0901  0.2761
  362MOL0     C49880  -0.005   2.852   0.351 -0.9441 -0.1784  0.2619
  362MOL0     C49881  -0.137   2.827   0.277  0.9154  0.8392  0.5134
  362MOL0     C49882  -0.256   2.792   0.360 -0.2792 -0.5291  0.3682
  362MOL0     C49883  -0.340   2.764   0.434  0.4177 -0.3939  0.2188
  362MOL0     C49884   0.499   3.028   0.365 -0.1143  0.5542  0.6119
  362MOL0     C49885   0.636   3.045   0.386  0.8461  0.1024  1.3320
  362MOL0     C49886   0.703   2.969   0.505 -0.7323  0.3491 -0.1896
  362MOL0     H49887   1.085   2.984   0.453  1.9424 -0.5808 -0.5587
  362MOL0     H49888   1.315   3.053   0.517  0.9168  0.6828  2.1645
  362MOL0     H49889   1.414   3.500   0.545 -0.2166  1.6978 -1.8491
  362MOL0     H49890   1.440   3.455   0.377  2.3038 -1.3869 -0.3569
  362MOL0     H49891   1.663   3.354   0.444  2.6821  1.2822  0.4682
  362MOL0     H49892   1.647   3.522   0.442 -0.0147 -1.3891 -1.8624
  362MOL0     H49893   1.638   3.546   0.681  1.3856 -1.5292  1.4978
  362MOL0     H49894   1.576   3.376   0.700  0.3177  0.9743  1.5657
  362MOL0     H49895   1.782   3.364   0.790 -1.4172 -1.4018  0.6134
  362MOL0     H49896   1.792   3.294   0.619  1.5116  2.2639 -2.3078
  362MOL0     H49897   1.894   3.478   0.525  1.1149  2.2845  0.7200
  362MOL0     H49898   1.989   3.387   0.628 -0.5923 -0.8457  2.5999
  362MOL0     H49899   1.843   3.648   0.667  1.0134 -0.0751 -0.7523
  362MOL0     H49900   1.928   3.581   0.812 -0.4857  2.9048 -0.0731
  362MOL0     H49901   2.053   3.639   0.545  1.8994  0.4637  0.7518
  362MOL0     H49902   2.143   3.605   0.696  1.3632  0.6765  1.2578
  362MOL0     H49903   1.957   3.845   0.654 -0.1743  0.2461 -0.4788
  362MOL0     H49904   2.061   3.797   0.797  0.3952 -0.6009 -0.1013
  362MOL0     H49905   2.321   3.767   0.752  2.7713  1.4359  0.2909
  362MOL0     H49906   2.551   3.820   0.636 -1.6809 -0.2810  0.6364
  362MOL0     H49907   2.550   3.990   0.663 -2.1280  1.4903 -1.2171
  362MOL0     H49908   2.511   3.862   0.394  2.0835 -1.2959  0.1371
  362MOL0     H49909   2.552   4.039   0.434  2.7254  0.0676  0.8262
  362MOL0     H49910   2.765   3.954   0.537  0.9628  0.6428 -1.0196
  362MOL0     H49911   2.729   3.797   0.466  0.1555 -0.2209 -1.4163
  362MOL0     H49912   2.723   3.916   0.239 -2.6338  0.5386  1.5155
  362MOL0     H49913   2.809   4.045   0.331  0.4544 -0.3567 -0.1003
  362MOL0     H49914   2.841   3.924   0.063 -0.9335 -1.6510 -3.0482
  362MOL0     H49915   2.901   3.979  -0.157  1.2830  0.9167  1.6775
  362MOL0     H49916   2.885   3.815  -0.214 -1.4687  0.8388  0.4724
  362MOL0     H49917   3.037   3.912  -0.241  1.2774 -1.1274  0.5216
  362MOL0     H49918   3.533   3.530  -0.063 -3.2261 -0.0879  0.7733
  362MOL0     H49919   3.682   3.424  -0.216  0.9953  1.3829  1.9776
  362MOL0     H49920   3.752   3.564  -0.669 -1.9026  0.0355  0.2369
  362MOL0     H49921   3.801   3.675  -0.542  0.3278  0.6080 -1.3036
  362MOL0     H49922   3.973   3.516  -0.462 -1.5452 -0.1744 -0.2935
  362MOL0     H49923   3.913   3.390  -0.584  0.4915 -0.8178  1.2289
  362MOL0     H49924   4.059   3.648  -0.646 -0.2063  0.5166  0.1620
  362MOL0     H49925   4.005   3.549  -0.765  0.7735  3.2474 -0.7892
  362MOL0     H49926   4.152   3.377  -0.591  0.1966  0.0146  0.4649
  362MOL0     H49927   4.237   3.526  -0.568  1.7481 -0.4623 -1.1264
  362MOL0     H49928   4.231   3.539  -0.826 -1.5679  0.7475  1.8736
  362MOL0     H49929   4.356   3.430  -0.737  2.0737  3.4591  0.2816
  362MOL0     H49930   4.113   3.340  -0.896 -1.3046 -1.0752  1.1515
  362MOL0     H49931   4.187   3.247  -0.761 -0.5843  0.2190 -0.2978
  362MOL0     H49932   4.407   3.247  -0.885 -2.2013 -3.7989  0.5349
  362MOL0     H49933   4.319   3.350  -1.013 -3.6943  1.2410  0.5146
  362MOL0     H49934   4.184   3.163  -1.079 -1.0846 -0.9057  0.6276
  362MOL0     H49935   4.222   3.085  -0.933  0.4367  0.7749  1.0069
  362MOL0     H49936   3.547   3.692  -0.527  0.3787  1.4655 -0.2881
  362MOL0     H49937   3.375   3.778  -0.351 -0.6938  0.4748  2.7246
  362MOL0     H49938   3.288   3.700   0.130 -0.9712 -1.3660  1.4678
  362MOL0     H49939   3.164   3.790   0.315  0.0500  0.4919 -0.3037
  362MOL0     H49940   1.208   3.464   0.457  0.2032  0.1662  0.0809
  362MOL0     H49941   0.981   3.391   0.417 -1.4202 -1.2536  0.3265
  362MOL0     H49942   0.677   3.212   0.072  0.4343 -0.3526 -0.4279
  362MOL0     H49943   0.451   3.174   0.063 -0.1590  0.4009 -0.6821
  362MOL0     H49944   0.267   2.871   0.347 -3.0766 -0.3601  3.6733
  362MOL0     H49945   0.217   3.017   0.419 -0.2180  0.5789 -0.0525
  362MOL0     H49946   0.087   2.907   0.161  1.4051 -2.5154  1.1662
  362MOL0     H49947   0.030   3.041   0.250  2.8834  1.6302 -1.8116
  362MOL0     H49948   0.046   2.757   0.366 -2.0931 -1.1363 -1.5810
  362MOL0     H49949  -0.019   2.904   0.447 -0.6692  3.1013 -1.3372
  362MOL0     H49950  -0.120   2.744   0.208 -0.5117 -0.0563  1.1823
  362MOL0     H49951  -0.164   2.917   0.221  1.4884  0.0272 -1.1386
  362MOL0     H49952  -0.419   2.734   0.500  0.9886 -1.5129  0.4231
  362MOL0     H49953   0.450   2.974   0.445  1.6420  2.2057  2.9232
  362MOL0     H49954   0.805   2.944   0.474 -1.3674 -2.3581 -0.3447
  362MOL0     H49955   0.704   3.029   0.596  0.4280 -0.3454  0.2688
  362MOL0     H49956   0.649   2.874   0.518  1.8807 -1.4182 -1.4532
  363MOL0     O49957   2.468   0.154   6.603  0.5376 -0.0235 -0.6771
  363MOL0     C49958   2.431   0.043   6.638 -0.4829 -0.4445  0.0950
  363MOL0     O49959   2.476  -0.069   6.583 -0.2451 -0.4501 -0.2112
  363MOL0     C49960   2.561  -0.048   6.475 -0.0213 -0.1588 -0.2895
  363MOL0     C49961   2.696  -0.067   6.488  0.0022 -0.6732 -0.5237
  363MOL0     C49962   2.783  -0.039   6.384 -0.3969  0.3372 -0.4286
  363MOL0     C49963   2.737  -0.018   6.260  0.5903  0.3944 -0.1002
  363MOL0     O49964   2.829  -0.004   6.161 -0.1840  0.2796 -0.0616
  363MOL0     C49965   2.794   0.075   6.044  0.4677 -0.2273 -0.1740
  363MOL0     C49966   2.913   0.084   5.943  0.9914 -1.0906  1.0988
  363MOL0     C49967   2.864   0.107   5.801 -0.0126  0.3779 -0.7883
  363MOL0     C49968   2.930   0.017   5.691  0.0372  0.5551 -0.4742
  363MOL0     C49969   3.058   0.089   5.634 -0.0135 -0.0518 -0.2649
  363MOL0     C49970   3.102   0.020   5.502  0.6626  0.5423  0.1387
  363MOL0     C49971   3.234   0.080   5.447  0.2082 -1.0016  0.1464
  363MOL0     C49972   3.367   0.055   5.526  0.1870  0.4192 -0.3392
  363MOL0     N49973   3.365  -0.091   5.550 -0.3691 -0.0933  0.2123
  363MOL0     C49974   3.361  -0.195   5.463 -0.4554  0.3149 -0.5658
  363MOL0     C49975   3.383  -0.304   5.536 -0.3147  0.1145 -0.3438
  363MOL0     C49976   3.413  -0.439   5.469 -0.7732  0.2729  0.9028
  363MOL0     C49977   3.287  -0.529   5.438 -1.1632 -0.3990 -0.5684
  363MOL0     C49978   3.199  -0.470   5.330  0.5419 -0.2053 -0.0249
  363MOL0     C49979   3.097  -0.568   5.287 -0.0619  0.1986  0.1363
  363MOL0     O49980   3.029  -0.646   5.379  0.7943 -0.1626  0.1203
  363MOL0     C49981   2.922  -0.578   5.437 -0.7685 -0.3322 -0.0525
  363MOL0     C49982   2.839  -0.645   5.517 -0.2892 -0.8033 -0.1613
  363MOL0     C49983   2.726  -0.585   5.581 -0.4578 -0.0511  0.5704
  363MOL0     C49984   2.649  -0.673   5.682 -0.7956  0.7224 -0.5445
  363MOL0     C49985   2.701  -0.446   5.564  0.5783 -0.2025  0.4856
  363MOL0     C49986   2.603  -0.360   5.639 -0.4452  0.3823 -0.2165
  363MOL0     O49987   2.607  -0.220   5.626 -0.1343  0.0429 -0.3432
  363MOL0     C49988   2.514  -0.147   5.697  0.4374  0.1537  1.1144
  363MOL0     C49989   2.497  -0.148   5.837 -0.2282  0.0670 -1.0778
  363MOL0     C49990   2.381  -0.111   5.891 -0.4763 -0.2069 -0.7988
  363MOL0     C49991   2.294  -0.028   5.818 -0.6253  0.7314  0.4337
  363MOL0     O49992   2.174   0.018   5.880  0.0926  0.4504  0.4171
  363MOL0     C49993   2.121  -0.034   5.995  0.0682 -0.3084  0.1166
  363MOL0     C49994   1.967  -0.016   6.019 -0.0415  0.2037  0.0008
  363MOL0     C49995   1.909  -0.097   6.132 -0.8376 -0.1093 -0.1665
  363MOL0     C49996   1.755  -0.073   6.140  0.2748  0.2870 -0.4215
  363MOL0     C49997   1.688  -0.137   6.258  0.5205  0.3974  0.2635
  363MOL0     C49998   1.538  -0.104   6.260  0.3182  0.3455  0.2805
  363MOL0     C49999   1.499   0.041   6.254 -0.2341  0.7959 -0.1538
  363MOL0     C50000   1.353   0.053   6.309  0.4167 -0.2482  0.2324
  363MOL0    Cl50001   1.289   0.218   6.274  0.0771  0.0028 -0.3476
  363MOL0     C50002   2.318  -0.007   5.683  0.0180 -0.5154  0.3655
  363MOL0     C50003   2.431  -0.063   5.628  0.3736  0.0275  0.2616
  363MOL0     O50004   2.518  -0.425   5.709 -0.0191  0.1936 -0.2682
  363MOL0     C50005   2.783  -0.375   5.471  0.1336  0.8501 -0.5801
  363MOL0     C50006   2.897  -0.446   5.416 -0.6311 -0.2912  0.2339
  363MOL0     N50007   3.378  -0.275   5.666  0.5034 -0.2152 -0.6372
  363MOL0     N50008   3.378  -0.148   5.679  0.4580 -0.3942  0.4324
  363MOL0     C50009   2.592  -0.016   6.234 -0.1536  0.2176  0.3638
  363MOL0     C50010   2.510  -0.020   6.348  0.0539  0.1850 -0.1053
  363MOL0     C50011   2.322   0.030   6.739 -0.0596  1.0339  0.2745
  363MOL0     C50012   2.294  -0.096   6.787  0.4065  0.1867  0.5735
  363MOL0     C50013   2.196  -0.132   6.885  0.2450  0.5305 -0.0965
  363MOL0     C50014   2.119  -0.029   6.929 -1.0427  0.0854  0.7383
  363MOL0     O50015   2.026  -0.058   7.021  0.5525 -0.3266 -0.2461
  363MOL0     C50016   1.892  -0.098   6.986 -0.1754  0.2290  0.4982
  363MOL0     C50017   1.833  -0.181   7.097 -0.7598  0.6317  0.0218
  363MOL0     C50018   1.898  -0.321   7.109  0.3379  1.0679 -0.6899
  363MOL0     C50019   1.840  -0.399   7.229  0.1948  0.3599 -0.1351
  363MOL0     C50020   1.907  -0.528   7.257  0.6131 -0.4428  0.6517
  363MOL0     C50021   1.959  -0.637   7.264 -1.0025  0.7084  0.0231
  363MOL0     C50022   2.145   0.105   6.891 -0.3352  0.8794  0.4463
  363MOL0     C50023   2.244   0.136   6.795  0.3310  0.0350  0.1949
  363MOL0     C50024   2.259   0.285   6.764  0.0454 -1.1554 -0.4941
  363MOL0     H50025   2.721  -0.103   6.587  1.0456  2.0970  0.3023
  363MOL0     H50026   2.888  -0.054   6.405 -0.7467 -0.0442  1.2797
  363MOL0     H50027   2.764   0.176   6.075  0.9827 -0.3523  0.7444
  363MOL0     H50028   2.713   0.021   5.994  0.3722  1.0488 -1.4905
  363MOL0     H50029   2.991   0.151   5.978  0.9930 -0.1187 -0.6716
  363MOL0     H50030   2.956  -0.017   5.945 -0.7037 -1.8615  3.2149
  363MOL0     H50031   2.756   0.087   5.799  0.4257 -2.7061  0.7530
  363MOL0     H50032   2.881   0.209   5.767  4.0441  0.2205  0.2562
  363MOL0     H50033   2.955  -0.078   5.738 -1.0214  0.4773 -0.0466
  363MOL0     H50034   2.853   0.000   5.615 -0.5350  0.1884  0.1751
  363MOL0     H50035   3.144   0.066   5.699  0.6758  0.3701 -1.0082
  363MOL0     H50036   3.043   0.197   5.626  0.2700 -0.0752 -1.1511
  363MOL0     H50037   3.108  -0.088   5.515  0.0365  0.4380 -0.3582
  363MOL0     H50038   3.025   0.036   5.425  0.6325  2.6986  0.5516
  363MOL0     H50039   3.224   0.189   5.439 -2.2354 -0.9540  2.3723
  363MOL0     H50040   3.252   0.052   5.344  0.4689  1.9024 -0.6897
  363MOL0     H50041   3.453   0.080   5.464 -0.0291  4.2612  0.6117
  363MOL0     H50042   3.369   0.122   5.613 -0.9115 -0.7858  0.6645
  363MOL0     H50043   3.354  -0.172   5.357 -3.0316 -1.2520 -0.8379
  363MOL0     H50044   3.478  -0.500   5.533  1.1887  0.3474 -0.9379
  363MOL0     H50045   3.468  -0.412   5.379  0.8026  0.3075  1.8317
  363MOL0     H50046   3.329  -0.625   5.408 -0.1590 -0.2714  0.3519
  363MOL0     H50047   3.235  -0.541   5.533  1.8029  1.1615  1.4019
  363MOL0     H50048   3.154  -0.376   5.365 -0.0186  0.2342 -1.7901
  363MOL0     H50049   3.261  -0.437   5.246 -0.8560  0.4470 -0.8315
  363MOL0     H50050   3.031  -0.523   5.213 -2.7641 -0.2402  2.1408
  363MOL0     H50051   3.155  -0.645   5.234 -2.9944 -3.5865  1.9343
  363MOL0     H50052   2.853  -0.752   5.531 -3.8360 -1.6863 -2.2552
  363MOL0     H50053   2.548  -0.688   5.642 -1.8079  1.6166  1.5326
  363MOL0     H50054   2.623  -0.623   5.775  2.7725  2.8197 -0.4851
  363MOL0     H50055   2.706  -0.765   5.699  0.0021  0.9300 -1.9062
  363MOL0     H50056   2.578  -0.198   5.888  1.5076  0.2234 -3.5159
  363MOL0     H50057   2.367  -0.145   5.993  0.9884 -3.9632 -1.6943
  363MOL0     H50058   2.136  -0.142   6.004 -4.7986 -1.1373  1.4741
  363MOL0     H50059   2.176   0.013   6.077 -2.7063  3.3493  0.1129
  363MOL0     H50060   1.945   0.090   6.030  0.5923  0.5265 -1.4883
  363MOL0     H50061   1.913  -0.052   5.930  0.2582 -1.4979  0.4736
  363MOL0     H50062   1.955  -0.059   6.224  0.0256  3.1308 -1.7511
  363MOL0     H50063   1.945  -0.198   6.112  1.3560  0.8770 -1.8223
  363MOL0     H50064   1.707  -0.112   6.050 -0.5432 -0.3774  0.2905
  363MOL0     H50065   1.737   0.034   6.149  3.2434  1.1463 -2.9170
  363MOL0     H50066   1.700  -0.246   6.253 -0.6081  0.2757 -0.1889
  363MOL0     H50067   1.722  -0.097   6.353  0.5055  1.4400 -0.1598
  363MOL0     H50068   1.502  -0.160   6.347  0.9552 -1.3249 -0.4763
  363MOL0     H50069   1.492  -0.150   6.172 -0.7196  1.0967  0.4171
  363MOL0     H50070   1.516   0.082   6.154  0.5105  0.1167 -0.3131
  363MOL0     H50071   1.571   0.094   6.317 -0.1215  0.0073  0.3824
  363MOL0     H50072   1.346   0.033   6.416  0.9312  0.4400  0.3978
  363MOL0     H50073   1.293  -0.018   6.251  1.2988 -2.0154  1.3998
  363MOL0     H50074   2.242   0.035   5.617  1.5031  1.5061 -0.1409
  363MOL0     H50075   2.448  -0.051   5.522 -0.8007 -0.3223  0.0205
  363MOL0     H50076   2.755  -0.272   5.454 -0.7548  0.4581 -1.5792
  363MOL0     H50077   2.959  -0.387   5.349  1.2197 -3.5291 -1.1419
  363MOL0     H50078   2.543  -0.010   6.137 -1.1101 -0.4532  0.7878
  363MOL0     H50079   2.402  -0.018   6.346  0.0462  0.9195  0.4373
  363MOL0     H50080   2.339  -0.182   6.737  0.0188  1.5951 -2.4066
  363MOL0     H50081   2.170  -0.230   6.926 -2.1210  0.1606 -2.2125
  363MOL0     H50082   1.841  -0.006   6.955 -1.1309 -0.7046 -0.7951
  363MOL0     H50083   1.884  -0.160   6.896  0.8096  0.9782 -0.1279
  363MOL0     H50084   1.727  -0.190   7.072 -0.8953  4.6875 -1.8103
  363MOL0     H50085   1.844  -0.128   7.192  1.7775 -1.4909  1.0244
  363MOL0     H50086   1.883  -0.381   7.018  0.8819 -2.6847  1.4816
  363MOL0     H50087   2.006  -0.305   7.120  0.3125  1.0797 -0.4516
  363MOL0     H50088   1.738  -0.422   7.198 -0.4499  2.5136  0.1928
  363MOL0     H50089   1.833  -0.339   7.320 -2.3966  0.6323 -0.4284
  363MOL0     H50090   2.017  -0.727   7.258 -1.3410  0.4386  0.7310
  363MOL0     H50091   2.072   0.176   6.931 -3.1389 -2.3933  1.6335
  363MOL0     H50092   2.342   0.335   6.816 -0.2655 -2.3616  1.2762
  363MOL0     H50093   2.281   0.302   6.658 -1.0845 -0.3463 -0.6061
  363MOL0     H50094   2.163   0.335   6.780  1.7698  2.8358 -1.3735
  364MOL0     O50095   8.789   4.517   8.176 -0.1611 -0.1261 -0.4637
  364MOL0     C50096   8.699   4.599   8.201 -0.8523 -0.0479  1.2381
  364MOL0     O50097   8.703   4.696   8.294  0.4662  0.2558  0.0157
  364MOL0     C50098   8.829   4.729   8.346 -0.6266 -1.2048  0.2941
  364MOL0     C50099   8.955   4.724   8.281 -0.7916  0.2367  0.2192
  364MOL0     C50100   9.076   4.779   8.346  0.4717  0.1800  0.2387
  364MOL0     C50101   9.065   4.849   8.476  0.1993 -0.5444 -0.9849
  364MOL0     O50102   9.161   4.902   8.558  0.8452  0.0247  0.4715
  364MOL0     C50103   9.302   4.898   8.519 -0.3612 -0.2703 -0.1663
  364MOL0     C50104   9.373   4.771   8.563  0.1250 -0.2596  0.1573
  364MOL0     C50105   9.339   4.652   8.484  0.1109  0.8900 -0.1873
  364MOL0     C50106   9.406   4.527   8.545 -0.2875  0.3284  0.0173
  364MOL0     C50107   9.397   4.404   8.457  0.4357  0.1549  0.0720
  364MOL0     C50108   9.251   4.373   8.403  0.1364 -0.7085 -0.1442
  364MOL0     C50109   9.248   4.236   8.332  0.6195 -0.5286  0.0081
  364MOL0     C50110   9.108   4.198   8.268  0.2820 -0.2871  0.3699
  364MOL0     N50111   9.002   4.180   8.365 -0.2345  0.2012  0.7182
  364MOL0     C50112   8.916   4.283   8.379  0.1917  0.0763  0.4665
  364MOL0     C50113   8.810   4.225   8.418  0.3875  0.9265 -0.1052
  364MOL0     C50114   8.670   4.287   8.446  0.0770  0.5620 -0.3713
  364MOL0     C50115   8.578   4.234   8.336  0.1895  0.0938  0.0256
  364MOL0     C50116   8.422   4.259   8.354 -0.3229 -0.2136  0.0085
  364MOL0     C50117   8.340   4.179   8.258 -1.8091 -0.2607  0.3381
  364MOL0     O50118   8.382   4.214   8.118  0.5891 -0.3278  0.2847
  364MOL0     C50119   8.302   4.171   8.012  0.3956  0.1782 -0.3606
  364MOL0     C50120   8.360   4.177   7.881  0.0518  1.2752 -1.0369
  364MOL0     C50121   8.299   4.115   7.772  0.6702  0.7440 -0.5073
  364MOL0     C50122   8.357   4.138   7.635 -0.1063 -0.7017  0.2481
  364MOL0     C50123   8.175   4.043   7.789 -0.3734 -0.5644  0.3334
  364MOL0     C50124   8.110   3.972   7.676  0.2071 -0.5069 -0.1737
  364MOL0     O50125   8.103   4.030   7.551 -0.3434  0.0391  0.1044
  364MOL0     C50126   8.005   3.991   7.463  0.3151  0.1872 -0.1406
  364MOL0     C50127   8.033   3.940   7.342 -0.1525 -0.3266  0.2908
  364MOL0     C50128   7.933   3.902   7.249  0.3962  0.2080 -0.0904
  364MOL0     C50129   7.798   3.901   7.287 -0.9345  0.2773 -1.5164
  364MOL0     O50130   7.723   3.824   7.207  0.1720  0.3683  0.5448
  364MOL0     C50131   7.598   3.777   7.256  0.3200  0.8765  0.3867
  364MOL0     C50132   7.540   3.663   7.168  0.2516 -0.1451  0.1045
  364MOL0     C50133   7.386   3.645   7.200  0.8307 -0.2145  0.2129
  364MOL0     C50134   7.321   3.539   7.107  0.3694 -0.2063  0.7713
  364MOL0     C50135   7.189   3.480   7.143 -0.6663 -1.0915 -1.0086
  364MOL0     C50136   7.191   3.357   7.222 -0.3442  0.3834 -0.4750
  364MOL0     C50137   7.052   3.321   7.270  0.4643 -1.3151 -0.0044
  364MOL0     C50138   7.045   3.177   7.319  0.5573  0.3520 -0.3465
  364MOL0    Cl50139   7.151   3.155   7.467  0.4605  0.1937  0.3717
  364MOL0     C50140   7.766   3.965   7.413  0.0829  0.0564  0.4046
  364MOL0     C50141   7.870   4.016   7.493 -0.2007 -0.3217 -0.1682
  364MOL0     O50142   8.055   3.867   7.706 -0.2841  0.4780  0.1006
  364MOL0     C50143   8.112   4.052   7.912 -0.2414  0.4421 -0.1655
  364MOL0     C50144   8.174   4.118   8.021 -0.6761  0.2829  0.4776
  364MOL0     N50145   8.836   4.089   8.447  0.5485 -0.2970 -0.4314
  364MOL0     N50146   8.956   4.063   8.412 -0.0454 -0.1642  0.1585
  364MOL0     C50147   8.936   4.867   8.524  0.8201 -0.2979 -0.0453
  364MOL0     C50148   8.825   4.799   8.464 -0.2668  0.4459 -0.2033
  364MOL0     C50149   8.580   4.591   8.117  0.0034 -0.4572 -0.2588
  364MOL0     C50150   8.452   4.642   8.175  0.3025  0.0150 -0.8414
  364MOL0     C50151   8.327   4.613   8.108 -0.0978 -0.0041  0.3894
  364MOL0     C50152   8.329   4.571   7.977 -0.0666 -1.2781  0.0146
  364MOL0     O50153   8.216   4.574   7.910  0.3369 -0.6408  0.0406
  364MOL0     C50154   8.206   4.529   7.773  0.4105  1.1502 -0.4244
  364MOL0     C50155   8.066   4.572   7.717  0.1297  0.1824  0.2847
  364MOL0     C50156   8.025   4.498   7.585 -0.6717 -0.0580 -0.7982
  364MOL0     C50157   7.995   4.348   7.592  0.2766  1.0085 -0.4461
  364MOL0     C50158   7.898   4.320   7.699 -0.3795 -0.6427  0.1356
  364MOL0     C50159   7.827   4.307   7.796 -0.2282  0.3583 -0.0652
  364MOL0     C50160   8.455   4.536   7.919  1.1606  0.2991 -0.2703
  364MOL0     C50161   8.576   4.544   7.985  0.2740 -0.1758 -0.7649
  364MOL0     C50162   8.691   4.491   7.905 -0.0037 -0.4612 -0.2158
  364MOL0     H50163   8.962   4.672   8.185 -1.5087 -1.8279  1.2120
  364MOL0     H50164   9.167   4.778   8.288  0.7247  3.2735  0.4516
  364MOL0     H50165   9.358   4.977   8.570  1.8069 -1.5992 -0.3730
  364MOL0     H50166   9.310   4.914   8.412  0.1983 -0.6060 -0.1750
  364MOL0     H50167   9.479   4.796   8.567 -0.5512  2.8340  2.2513
  364MOL0     H50168   9.330   4.758   8.663 -3.6027  0.8732 -1.0933
  364MOL0     H50169   9.233   4.625   8.488  0.7893 -2.1323 -0.4120
  364MOL0     H50170   9.371   4.665   8.380  0.2321 -2.9287 -0.7839
  364MOL0     H50171   9.509   4.542   8.580 -0.1124 -0.6060 -0.0835
  364MOL0     H50172   9.338   4.506   8.628  0.4596 -0.8817  0.3430
  364MOL0     H50173   9.427   4.319   8.519  2.7375 -0.5145 -1.7701
  364MOL0     H50174   9.472   4.407   8.377 -0.0479  2.3178 -0.3715
  364MOL0     H50175   9.180   4.369   8.486 -1.0594  1.8532 -0.9305
  364MOL0     H50176   9.219   4.449   8.331 -1.2346  0.1135  1.2712
  364MOL0     H50177   9.271   4.158   8.406  0.2834  0.8970  1.6948
  364MOL0     H50178   9.326   4.235   8.255 -0.4022 -0.9771 -1.0577
  364MOL0     H50179   9.075   4.282   8.206 -1.6981  1.1038  3.0536
  364MOL0     H50180   9.127   4.107   8.211 -1.2911  0.2925 -1.1611
  364MOL0     H50181   8.933   4.388   8.357  1.9432 -0.4682 -1.0614
  364MOL0     H50182   8.679   4.396   8.445  0.7312  0.6071  2.6563
  364MOL0     H50183   8.636   4.266   8.548 -0.2005  0.1941 -0.5403
  364MOL0     H50184   8.615   4.266   8.238  0.2528 -0.5911 -0.1817
  364MOL0     H50185   8.598   4.127   8.341 -1.8893 -0.3043  1.2827
  364MOL0     H50186   8.387   4.239   8.456  0.1145  1.8998  0.6191
  364MOL0     H50187   8.409   4.366   8.338  0.2282  0.3236  2.6791
  364MOL0     H50188   8.359   4.075   8.285 -2.6104 -0.4555  0.1653
  364MOL0     H50189   8.232   4.194   8.265 -1.8808  0.9190 -2.3466
  364MOL0     H50190   8.458   4.223   7.878  0.3562  0.7057 -0.2762
  364MOL0     H50191   8.455   4.186   7.644  0.4322 -1.7938  0.5035
  364MOL0     H50192   8.290   4.184   7.562 -1.4590 -4.0071 -0.8055
  364MOL0     H50193   8.379   4.041   7.588 -0.5928 -0.4792 -0.4515
  364MOL0     H50194   8.140   3.927   7.327  0.0292 -0.7404  1.8232
  364MOL0     H50195   7.956   3.863   7.151 -0.9584  0.0571 -0.3586
  364MOL0     H50196   7.607   3.736   7.358  0.5928  1.5580  0.6430
  364MOL0     H50197   7.534   3.865   7.260 -0.6242  0.2371 -0.2968
  364MOL0     H50198   7.553   3.691   7.063 -1.1457  2.8089  0.6011
  364MOL0     H50199   7.594   3.572   7.196 -0.1275 -1.3783 -2.7437
  364MOL0     H50200   7.333   3.740   7.197  2.0343  0.4991  0.8026
  364MOL0     H50201   7.377   3.605   7.302 -0.0238 -1.7946 -0.4411
  364MOL0     H50202   7.397   3.462   7.089  0.9536  0.7957 -1.4056
  364MOL0     H50203   7.300   3.596   7.016 -1.6809  0.8166  1.8311
  364MOL0     H50204   7.123   3.551   7.193 -1.0927 -2.4418  0.4011
  364MOL0     H50205   7.138   3.457   7.049 -1.0616 -1.9968 -0.5760
  364MOL0     H50206   7.245   3.372   7.316 -2.2972  3.1913  0.3140
  364MOL0     H50207   7.235   3.273   7.168 -0.0011 -0.4073  0.9761
  364MOL0     H50208   6.984   3.337   7.187  0.4794 -1.0631  0.0336
  364MOL0     H50209   7.025   3.391   7.349  1.2975 -2.0479  0.9791
  364MOL0     H50210   7.068   3.096   7.248  1.6395 -2.4600  2.9554
  364MOL0     H50211   6.945   3.154   7.357  1.3831 -5.7348 -0.7771
  364MOL0     H50212   7.664   3.962   7.451 -1.0439 -0.9571 -2.4527
  364MOL0     H50213   7.856   4.067   7.588 -3.3408  0.8645 -1.1592
  364MOL0     H50214   8.010   4.017   7.922  0.0618 -0.2094  0.7346
  364MOL0     H50215   8.122   4.117   8.116 -2.2703  0.7791 -0.3631
  364MOL0     H50216   8.920   4.937   8.605 -1.5410 -0.3238 -0.4144
  364MOL0     H50217   8.731   4.831   8.508  1.1667  1.7586  2.1060
  364MOL0     H50218   8.447   4.675   8.278  0.7273  2.3705 -1.5305
  364MOL0     H50219   8.233   4.636   8.155 -1.2667 -2.6862 -0.4423
  364MOL0     H50220   8.289   4.557   7.706  4.2234 -0.7235  3.0899
  364MOL0     H50221   8.209   4.420   7.773 -0.7799  1.1088  0.3802
  364MOL0     H50222   8.083   4.679   7.697 -0.3142 -0.1288 -2.0237
  364MOL0     H50223   7.989   4.567   7.795  2.0364  0.6222  2.2784
  364MOL0     H50224   7.940   4.537   7.528  0.8894 -0.4214 -3.5609
  364MOL0     H50225   8.107   4.529   7.520  1.2589  1.1506  1.9917
  364MOL0     H50226   8.093   4.303   7.610 -0.1743 -0.5722 -1.7928
  364MOL0     H50227   7.965   4.316   7.492 -0.9009  0.1400  0.1624
  364MOL0     H50228   7.767   4.298   7.884  0.4142 -2.0231  0.1801
  364MOL0     H50229   8.457   4.516   7.813  2.2074  3.5405 -0.9523
  364MOL0     H50230   8.693   4.382   7.918  0.8650 -0.5111 -0.6962
  364MOL0     H50231   8.683   4.521   7.800 -1.5638  0.2691  0.0907
  364MOL0     H50232   8.778   4.541   7.949 -0.4799 -0.4460  0.7189
  365MOL0     O50233   8.015  11.103  10.472 -0.7033  0.2439 -0.4381
  365MOL0     C50234   8.040  11.210  10.534 -0.3939  0.6367 -1.0293
  365MOL0     O50235   8.168  11.255  10.561  0.0451 -0.4285  0.1255
  365MOL0     C50236   8.266  11.163  10.547  0.2019  0.3715  0.1490
  365MOL0     C50237   8.264  11.034  10.598 -0.3505 -0.3327  0.5480
  365MOL0     C50238   8.366  10.951  10.571 -0.6785 -0.5088 -1.0722
  365MOL0     C50239   8.472  10.988  10.494 -0.0937  0.7134  0.5524
  365MOL0     O50240   8.567  10.898  10.457  0.2360 -0.1089  0.5679
  365MOL0     C50241   8.624  10.812  10.557  0.1269 -0.6829 -0.6141
  365MOL0     C50242   8.777  10.799  10.555 -0.0165 -0.5299  0.0090
  365MOL0     C50243   8.857  10.935  10.570 -0.8535  0.3732 -0.6840
  365MOL0     C50244   9.007  10.902  10.548  0.4208  0.2568  0.5809
  365MOL0     C50245   9.096  11.021  10.597  0.3749 -0.2342 -0.0734
  365MOL0     C50246   9.240  10.974  10.613  1.0735  0.0182  0.3110
  365MOL0     C50247   9.307  10.939  10.479  0.1884  0.5465  0.8147
  365MOL0     C50248   9.466  10.913  10.485  0.0375 -0.6154  0.2511
  365MOL0     N50249   9.535  11.043  10.502 -0.9294 -0.2214 -0.5698
  365MOL0     C50250   9.568  11.131  10.402 -0.5592 -0.0159 -0.9412
  365MOL0     C50251   9.640  11.228  10.466 -0.1797 -0.3952  0.4164
  365MOL0     C50252   9.695  11.353  10.397 -0.4465  0.2852 -0.1621
  365MOL0     C50253   9.850  11.356  10.406 -0.3758 -0.2433 -0.1178
  365MOL0     C50254   9.910  11.460  10.310  0.1732 -0.5357  0.9865
  365MOL0     C50255  10.060  11.432  10.294  1.0979 -0.1615 -0.7036
  365MOL0     O50256  10.119  11.431  10.417 -0.4562  0.1470 -0.5176
  365MOL0     C50257  10.259  11.414  10.413  0.7380 -0.0265 -0.3524
  365MOL0     C50258  10.336  11.408  10.299  1.1763 -0.4922 -0.1914
  365MOL0     C50259  10.477  11.394  10.301  0.4545  0.9745  0.1272
  365MOL0     C50260  10.560  11.417  10.171 -0.4371 -0.8352  0.0640
  365MOL0     C50261  10.536  11.372  10.425 -0.0735  0.2536 -0.1259
  365MOL0     C50262  10.687  11.355  10.445 -0.7158  0.9496  0.2133
  365MOL0     O50263  10.733  11.356  10.569 -0.2437 -0.2046 -0.0305
  365MOL0     C50264  10.865  11.372  10.596  0.1690 -0.1235 -0.2048
  365MOL0     C50265  10.903  11.483  10.669 -0.3524 -0.3747  0.9013
  365MOL0     C50266  11.039  11.511  10.687 -0.6152  0.1253  0.2775
  365MOL0     C50267  11.139  11.408  10.664 -0.4912 -0.3038 -0.0204
  365MOL0     O50268  11.257  11.435  10.719 -0.7771 -0.7556 -0.2567
  365MOL0     C50269  11.315  11.326  10.787 -0.0592 -0.4972 -0.5552
  365MOL0     C50270  11.405  11.391  10.884 -0.0500  0.6351  0.6433
  365MOL0     C50271  11.524  11.305  10.922  0.6258 -0.6098 -0.0907
  365MOL0     C50272  11.598  11.340  11.046 -0.5358 -0.1376  0.0211
  365MOL0     C50273  11.724  11.245  11.060  0.4423  0.0460 -0.0593
  365MOL0     C50274  11.709  11.108  11.107 -0.2943  0.4125  0.6341
  365MOL0     C50275  11.842  11.050  11.138 -0.1382  0.6181 -0.0580
  365MOL0     C50276  11.838  10.900  11.176 -0.0790  0.6985  0.6044
  365MOL0    Cl50277  12.004  10.834  11.218  0.2812 -0.3094  0.0779
  365MOL0     C50278  11.094  11.285  10.600 -0.0891 -0.4285 -0.3123
  365MOL0     C50279  10.957  11.271  10.567 -0.4929  0.1741  0.2064
  365MOL0     O50280  10.758  11.328  10.347  0.3121  0.1925 -0.1199
  365MOL0     C50281  10.454  11.377  10.545 -0.7341  0.2291  0.4238
  365MOL0     C50282  10.322  11.409  10.537  0.6932 -0.4592  1.0224
  365MOL0     N50283   9.644  11.199  10.599 -0.4011 -0.4164 -0.7421
  365MOL0     N50284   9.582  11.089  10.624  0.4108  0.7484  0.3732
  365MOL0     C50285   8.476  11.116  10.439 -0.2677 -0.7865  0.4483
  365MOL0     C50286   8.374  11.202  10.456  1.1864  0.1714  0.5497
  365MOL0     C50287   7.931  11.305  10.560  0.1987  0.3276 -0.1310
  365MOL0     C50288   7.964  11.437  10.576 -0.3644 -0.9486  0.3786
  365MOL0     C50289   7.868  11.535  10.594  0.2979 -0.7231  0.4533
  365MOL0     C50290   7.735  11.500  10.626 -0.2199 -0.7476  0.5585
  365MOL0     O50291   7.639  11.584  10.676 -0.6909 -0.5313 -0.3213
  365MOL0     C50292   7.684  11.712  10.721 -0.6097 -0.2711  0.5550
  365MOL0     C50293   7.747  11.702  10.858  0.4470 -0.3357 -0.6306
  365MOL0     C50294   7.645  11.678  10.975  0.3289 -0.8299 -0.0337
  365MOL0     C50295   7.567  11.807  11.012 -0.1022 -0.7914  0.3144
  365MOL0     C50296   7.471  11.801  11.120 -0.2508  0.1089  1.5568
  365MOL0     C50297   7.394  11.805  11.214 -0.3153 -0.1862 -0.2275
  365MOL0     C50298   7.702  11.363  10.621  0.0017 -0.2934  0.1369
  365MOL0     C50299   7.795  11.262  10.572 -0.4273 -0.0095 -0.1894
  365MOL0     C50300   7.741  11.120  10.547 -0.4804  0.3085 -0.6017
  365MOL0     H50301   8.180  10.995  10.654 -1.0801  1.3343  0.6831
  365MOL0     H50302   8.367  10.852  10.616  1.4375 -0.0464  0.0333
  365MOL0     H50303   8.590  10.709  10.555  1.8751 -1.3073  0.1811
  365MOL0     H50304   8.591  10.855  10.652 -2.0396 -0.9348 -1.1918
  365MOL0     H50305   8.797  10.741  10.645  2.6364  0.1669 -0.0543
  365MOL0     H50306   8.815  10.749  10.466  0.4985 -0.1833  0.0306
  365MOL0     H50307   8.819  10.998  10.488 -1.2521 -1.7010 -2.1883
  365MOL0     H50308   8.834  10.991  10.661  1.8135  2.3954 -1.1473
  365MOL0     H50309   9.041  10.814  10.602  1.0366  0.1812  0.0883
  365MOL0     H50310   9.021  10.870  10.444 -1.4527 -0.8794  0.6484
  365MOL0     H50311   9.071  11.066  10.694  2.0446  1.1518 -0.2259
  365MOL0     H50312   9.095  11.102  10.522 -0.6182  0.3720  0.5741
  365MOL0     H50313   9.288  11.066  10.646  2.9830 -0.3763 -1.2061
  365MOL0     H50314   9.242  10.896  10.689 -0.4563 -0.0097  0.3644
  365MOL0     H50315   9.281  11.019  10.410  0.7292  0.8281  0.9338
  365MOL0     H50316   9.264  10.845  10.443 -0.0388  1.4984 -1.5973
  365MOL0     H50317   9.478  10.854  10.576 -0.8497 -1.9561 -0.4732
  365MOL0     H50318   9.502  10.852  10.401 -0.0215 -0.5171  0.1537
  365MOL0     H50319   9.550  11.134  10.295  1.6056 -2.5557 -1.4722
  365MOL0     H50320   9.657  11.438  10.455  0.8882 -2.2025  4.9615
  365MOL0     H50321   9.667  11.361  10.292 -0.5211 -0.0639 -0.1694
  365MOL0     H50322   9.864  11.393  10.508  0.3223 -0.8891  0.0268
  365MOL0     H50323   9.898  11.259  10.399  0.6395  0.1154  1.5334
  365MOL0     H50324   9.857  11.454  10.215 -2.6818  0.2297  2.4247
  365MOL0     H50325   9.905  11.561  10.351  2.3874  0.4512 -0.8990
  365MOL0     H50326  10.076  11.338  10.240 -2.5691  0.1256 -2.6203
  365MOL0     H50327  10.092  11.510  10.225 -0.1289  0.4544 -0.5944
  365MOL0     H50328  10.292  11.414  10.201  0.7401 -0.8125 -0.0203
  365MOL0     H50329  10.633  11.498  10.186  1.9752 -2.5167 -1.6893
  365MOL0     H50330  10.507  11.449  10.081  0.5462  0.2209 -0.1589
  365MOL0     H50331  10.615  11.328  10.138  2.7921  0.3826  1.7653
  365MOL0     H50332  10.827  11.548  10.710  0.8218 -0.0087  2.6457
  365MOL0     H50333  11.071  11.589  10.756 -2.1298  1.3273 -0.3216
  365MOL0     H50334  11.243  11.256  10.831  0.8909  0.3243  2.6215
  365MOL0     H50335  11.371  11.259  10.722  0.2016 -2.3734  1.4542
  365MOL0     H50336  11.438  11.491  10.853 -1.1228  1.8716  3.1273
  365MOL0     H50337  11.346  11.405  10.975 -1.1054  0.1037  0.0501
  365MOL0     H50338  11.599  11.307  10.842  1.7882 -0.9060  0.9656
  365MOL0     H50339  11.488  11.202  10.931 -1.9059 -0.3950 -4.6358
  365MOL0     H50340  11.531  11.329  11.132 -2.0585 -1.1868 -1.2235
  365MOL0     H50341  11.636  11.443  11.048 -0.5810 -0.1113  2.0541
  365MOL0     H50342  11.779  11.253  10.965  1.7291  3.9125  0.8274
  365MOL0     H50343  11.789  11.303  11.127 -1.1183  0.4689  1.1208
  365MOL0     H50344  11.661  11.036  11.039  1.3604  0.2297 -0.3885
  365MOL0     H50345  11.656  11.111  11.203 -0.5136 -3.9751  0.8767
  365MOL0     H50346  11.899  11.106  11.214 -1.8327  0.6269  1.2706
  365MOL0     H50347  11.907  11.064  11.052  0.2105  1.5877  0.3403
  365MOL0     H50348  11.803  10.842  11.091  1.0191  0.2136  0.4551
  365MOL0     H50349  11.771  10.882  11.261  1.2856 -0.2353  1.5466
  365MOL0     H50350  11.152  11.197  10.574 -2.2292 -1.4022 -2.2123
  365MOL0     H50351  10.917  11.183  10.518 -1.5912  1.7818 -1.9035
  365MOL0     H50352  10.492  11.360  10.645  0.3973  2.2594  0.3925
  365MOL0     H50353  10.275  11.416  10.635  1.9545  3.5690  1.5362
  365MOL0     H50354   8.555  11.144  10.370  0.8094 -0.2316  1.8608
  365MOL0     H50355   8.364  11.304  10.420 -1.2940 -0.2586 -0.1387
  365MOL0     H50356   8.062  11.478  10.556 -1.1074 -0.2794 -2.3762
  365MOL0     H50357   7.903  11.636  10.615 -0.7508 -0.2706  0.1087
  365MOL0     H50358   7.760  11.760  10.660 -0.5899  1.3101  1.7545
  365MOL0     H50359   7.601  11.784  10.709  1.6477  2.1758 -1.7433
  365MOL0     H50360   7.803  11.794  10.880 -1.1068  0.2153  1.3002
  365MOL0     H50361   7.819  11.620  10.858  1.2666  0.3558 -1.8247
  365MOL0     H50362   7.579  11.599  10.937 -1.7569  1.0073 -0.4665
  365MOL0     H50363   7.698  11.633  11.059  2.0944  0.3089 -0.4828
  365MOL0     H50364   7.519  11.858  10.927  1.5468  1.7799  0.8039
  365MOL0     H50365   7.637  11.882  11.050 -1.9232  1.0430  0.2413
  365MOL0     H50366   7.334  11.806  11.302 -0.9534  2.9735 -0.5742
  365MOL0     H50367   7.596  11.348  10.639 -0.4557  1.0440 -1.2306
  365MOL0     H50368   7.748  11.059  10.638 -0.2618  1.6738  0.3245
  365MOL0     H50369   7.637  11.142  10.525 -0.2123 -1.1107 -3.7762
  365MOL0     H50370   7.774  11.074  10.454  0.9017 -1.2369  0.5790
  366MOL0     O50371   3.763   9.582   8.629 -0.2388 -0.3631  0.8921
  366MOL0     C50372   3.746   9.660   8.724 -0.0367 -0.0197 -0.5384
  366MOL0     O50373   3.803   9.654   8.848 -0.5833 -0.4297  0.2831
  366MOL0     C50374   3.921   9.584   8.871  0.3200 -0.1879  1.2549
  366MOL0     C50375   3.939   9.527   9.000 -0.4940 -0.0025  0.3837
  366MOL0     C50376   4.052   9.449   9.022  0.3941  0.1713 -0.1506
  366MOL0     C50377   4.154   9.436   8.924 -0.0009 -0.3031 -0.3907
  366MOL0     O50378   4.265   9.359   8.950  0.9104  0.4454 -0.5128
  366MOL0     C50379   4.315   9.364   9.084  0.0248 -0.3578 -0.0285
  366MOL0     C50380   4.436   9.280   9.078  0.2524  0.2018 -0.6056
  366MOL0     C50381   4.548   9.332   8.981 -1.0658 -0.3862 -0.5983
  366MOL0     C50382   4.658   9.229   8.990 -0.8262  0.3146 -0.5863
  366MOL0     C50383   4.783   9.265   8.906 -0.0565  0.7082  0.0106
  366MOL0     C50384   4.908   9.171   8.926 -0.3706 -0.8446 -0.2800
  366MOL0     C50385   5.015   9.219   8.831 -0.7764 -0.9218 -0.7943
  366MOL0     C50386   5.118   9.311   8.897 -0.2774 -0.8870  0.1826
  366MOL0     N50387   5.207   9.359   8.787  0.7254  0.5512  0.4606
  366MOL0     C50388   5.296   9.276   8.727  0.3191  0.2895  1.2114
  366MOL0     C50389   5.345   9.358   8.626 -0.2566  0.4031 -0.0555
  366MOL0     C50390   5.443   9.316   8.525 -0.5208  0.8656  0.6690
  366MOL0     C50391   5.587   9.370   8.557 -0.1090  0.7912 -0.1368
  366MOL0     C50392   5.666   9.298   8.668 -0.4892 -0.2335 -0.3021
  366MOL0     C50393   5.810   9.351   8.668  0.9613  0.1559  0.1560
  366MOL0     O50394   5.808   9.483   8.724 -0.2758 -0.5378  0.0683
  366MOL0     C50395   5.935   9.541   8.753  0.5822  0.8204  0.2241
  366MOL0     C50396   5.934   9.662   8.819 -0.2809 -0.6598 -0.0473
  366MOL0     C50397   6.051   9.726   8.856  0.7177  0.1601  0.1466
  366MOL0     C50398   6.032   9.854   8.926 -0.2147 -0.2556 -0.3644
  366MOL0     C50399   6.169   9.661   8.835 -0.5084 -0.3528  0.2350
  366MOL0     C50400   6.307   9.718   8.868  0.1427 -0.1465  0.1416
  366MOL0     O50401   6.412   9.636   8.873 -0.0322 -0.0935 -0.2920
  366MOL0     C50402   6.536   9.670   8.930  0.1645  0.5469 -0.5063
  366MOL0     C50403   6.637   9.569   8.915  0.2541 -0.3912 -0.4582
  366MOL0     C50404   6.770   9.594   8.957 -0.0738  0.1767 -0.4463
  366MOL0     C50405   6.807   9.720   9.019  0.1792 -0.1979  0.1685
  366MOL0     O50406   6.942   9.724   9.046  0.0441 -0.6047 -0.7252
  366MOL0     C50407   6.990   9.842   9.102 -0.1200 -1.5044 -0.3683
  366MOL0     C50408   7.137   9.832   9.117 -1.0262 -0.1144  0.1274
  366MOL0     C50409   7.213   9.837   8.983 -0.4928  1.3774  0.8370
  366MOL0     C50410   7.370   9.828   8.996 -0.2006  0.5482  1.1844
  366MOL0     C50411   7.437   9.860   8.857 -0.0880  0.2515 -0.1160
  366MOL0     C50412   7.584   9.883   8.884  0.8039 -0.1957 -0.1795
  366MOL0     C50413   7.668   9.751   8.871 -0.2994  0.1373 -0.3726
  366MOL0     C50414   7.804   9.769   8.928 -0.0884  0.5527 -0.7067
  366MOL0    Cl50415   7.898   9.875   8.808 -0.1550 -0.3545 -0.4341
  366MOL0     C50416   6.715   9.821   9.029 -0.0235  0.9180  0.8600
  366MOL0     C50417   6.581   9.792   8.985 -0.2003 -0.2145  0.0118
  366MOL0     O50418   6.321   9.844   8.867 -0.4094  0.5943  0.1923
  366MOL0     C50419   6.174   9.538   8.780 -0.8041  0.7215 -0.1896
  366MOL0     C50420   6.060   9.477   8.740  0.2765 -0.0146  0.9229
  366MOL0     N50421   5.282   9.480   8.630 -0.3314 -0.2780  0.2191
  366MOL0     N50422   5.206   9.488   8.735  0.5783  0.0943 -0.1798
  366MOL0     C50423   4.143   9.500   8.799  0.7146  0.2786  0.1315
  366MOL0     C50424   4.024   9.573   8.766  0.2053  0.2951  0.3173
  366MOL0     C50425   3.643   9.757   8.695  0.4852  0.1927  1.2655
  366MOL0     C50426   3.546   9.742   8.594  0.2657 -0.9730 -0.2774
  366MOL0     C50427   3.447   9.840   8.569  0.5643 -0.5468  0.6133
  366MOL0     C50428   3.447   9.967   8.631 -0.3492 -0.2486  0.5189
  366MOL0     O50429   3.362  10.072   8.615  0.6357 -0.2411  0.5416
  366MOL0     C50430   3.279  10.058   8.501  0.4556  0.5405 -0.5920
  366MOL0     C50431   3.202  10.183   8.450  0.8426  0.2018  0.0952
  366MOL0     C50432   3.290  10.288   8.377 -0.0475  0.6788 -0.5105
  366MOL0     C50433   3.214  10.430   8.367 -0.2661 -0.0112  0.2321
  366MOL0     C50434   3.261  10.503   8.243 -0.0404  0.2521 -0.1212
  366MOL0     C50435   3.292  10.574   8.153 -0.7771 -0.3356 -0.0862
  366MOL0     C50436   3.543   9.983   8.727 -0.2741 -0.8059 -0.1935
  366MOL0     C50437   3.632   9.882   8.764  0.4794  0.5025  0.6482
  366MOL0     C50438   3.715   9.917   8.891 -0.0689  0.1384 -0.3130
  366MOL0     H50439   3.848   9.534   9.059 -2.8728  0.4812 -3.0522
  366MOL0     H50440   4.061   9.411   9.124 -2.8549  0.9907  0.5716
  366MOL0     H50441   4.241   9.329   9.156 -0.5028  0.2281 -0.2789
  366MOL0     H50442   4.343   9.467   9.106  2.4791 -1.1848  1.0055
  366MOL0     H50443   4.481   9.283   9.178 -2.5038  0.2778  0.7135
  366MOL0     H50444   4.409   9.177   9.055  1.9901  0.0123 -2.1225
  366MOL0     H50445   4.510   9.342   8.878 -1.6474  1.6068 -0.2467
  366MOL0     H50446   4.578   9.435   9.003 -0.4715 -0.1441 -2.3324
  366MOL0     H50447   4.710   9.242   9.085  0.0375  1.0818 -1.1443
  366MOL0     H50448   4.625   9.125   8.975 -0.6339  0.3699 -1.4066
  366MOL0     H50449   4.814   9.365   8.937  1.2477 -0.0096  1.1009
  366MOL0     H50450   4.757   9.268   8.800 -0.5051 -0.7543  0.0464
  366MOL0     H50451   4.929   9.168   9.033 -0.5045 -3.6114 -0.2739
  366MOL0     H50452   4.885   9.065   8.911  2.7663 -1.2162 -4.0573
  366MOL0     H50453   4.967   9.269   8.747  0.8512 -3.9119 -3.7497
  366MOL0     H50454   5.064   9.128   8.795 -2.1494 -1.7670 -0.6366
  366MOL0     H50455   5.073   9.400   8.943  0.3569 -0.7542  0.5536
  366MOL0     H50456   5.178   9.253   8.967 -1.1238 -1.4404  0.4639
  366MOL0     H50457   5.312   9.170   8.740 -0.2496  0.5228  4.8138
  366MOL0     H50458   5.418   9.347   8.423  4.9297 -0.5069 -1.4786
  366MOL0     H50459   5.457   9.207   8.526 -1.6781  0.4835 -3.5202
  366MOL0     H50460   5.631   9.354   8.458  0.1579 -1.3575  0.2810
  366MOL0     H50461   5.584   9.472   8.596  0.3293  0.3801  1.0077
  366MOL0     H50462   5.625   9.322   8.767 -0.0184  0.5493 -0.2861
  366MOL0     H50463   5.665   9.190   8.650  1.1662 -0.0598 -1.7825
  366MOL0     H50464   5.873   9.283   8.726  0.4225 -2.1743 -1.8553
  366MOL0     H50465   5.843   9.366   8.564  0.6670 -3.4433 -0.5958
  366MOL0     H50466   5.840   9.717   8.830  0.5393  1.1212 -1.4022
  366MOL0     H50467   6.047   9.936   8.856  1.9797  1.2797  1.7737
  366MOL0     H50468   6.109   9.868   9.002  1.4264  0.6301 -2.0971
  366MOL0     H50469   5.933   9.869   8.971 -0.7760 -1.0424 -1.3002
  366MOL0     H50470   6.624   9.471   8.870 -0.6276 -0.4434 -0.1218
  366MOL0     H50471   6.847   9.524   8.926 -1.0447 -0.7907 -0.7564
  366MOL0     H50472   6.971   9.935   9.049  2.2587 -1.6133 -1.5343
  366MOL0     H50473   6.948   9.861   9.201  0.4201  1.3814 -0.5940
  366MOL0     H50474   7.171   9.925   9.164 -1.0033 -0.5420  0.9720
  366MOL0     H50475   7.164   9.747   9.181 -0.5353  0.1494  0.2765
  366MOL0     H50476   7.177   9.927   8.933 -3.3122 -0.5995 -0.9383
  366MOL0     H50477   7.195   9.749   8.921  4.4460  0.3485  0.4159
  366MOL0     H50478   7.393   9.725   9.024 -1.4862 -0.5749 -1.5076
  366MOL0     H50479   7.407   9.890   9.078  2.4173  0.4300  0.2143
  366MOL0     H50480   7.421   9.780   8.784 -0.6961  1.2122 -1.0646
  366MOL0     H50481   7.396   9.952   8.814  1.3665  0.4507 -1.1362
  366MOL0     H50482   7.592   9.929   8.983  0.7951  1.6263 -0.9813
  366MOL0     H50483   7.613   9.952   8.804 -0.7476  0.5876 -0.1181
  366MOL0     H50484   7.678   9.715   8.768  1.6362 -0.2457 -0.0851
  366MOL0     H50485   7.612   9.677   8.929 -2.2417  1.6280 -0.2240
  366MOL0     H50486   7.863   9.680   8.949 -3.3947 -1.3998  1.1014
  366MOL0     H50487   7.788   9.818   9.024 -1.5603 -0.9227 -0.1547
  366MOL0     H50488   6.734   9.916   9.079  0.7688  0.0005  2.3877
  366MOL0     H50489   6.507   9.869   9.006  1.9489  1.3355  2.3163
  366MOL0     H50490   6.266   9.482   8.766  0.0332  1.7919  0.8894
  366MOL0     H50491   6.060   9.376   8.699  2.3151 -0.2179  1.3133
  366MOL0     H50492   4.227   9.489   8.731 -0.3374 -0.5579 -1.0707
  366MOL0     H50493   4.009   9.627   8.673 -2.9326 -0.0109  0.5334
  366MOL0     H50494   3.537   9.653   8.531 -1.5537  0.5571 -2.3465
  366MOL0     H50495   3.375   9.811   8.493  1.3222 -3.1229  0.8064
  366MOL0     H50496   3.339  10.024   8.417 -1.9961 -2.6718 -1.2465
  366MOL0     H50497   3.214   9.976   8.532  0.3807  1.7833  3.1690
  366MOL0     H50498   3.156  10.226   8.539  0.4780 -1.0053  0.5043
  366MOL0     H50499   3.120  10.149   8.385 -1.1044  2.9323  0.9247
  366MOL0     H50500   3.378  10.307   8.439 -1.3112 -1.4960  2.1443
  366MOL0     H50501   3.328  10.250   8.282 -0.1088  4.8444 -2.4416
  366MOL0     H50502   3.219  10.490   8.459  0.4511 -0.1280  0.2752
  366MOL0     H50503   3.106  10.417   8.356 -0.0652 -0.7579 -1.0243
  366MOL0     H50504   3.319  10.626   8.063 -1.9119 -2.1236 -1.5306
  366MOL0     H50505   3.532  10.074   8.786 -1.5198 -0.9146 -0.2453
  366MOL0     H50506   3.719   9.843   8.971  2.5610  2.4028  1.8294
  366MOL0     H50507   3.817   9.925   8.854  0.6218 -2.6707  0.7240
  366MOL0     H50508   3.678  10.003   8.948 -3.4189 -0.1689 -1.8022
  367MOL0     O50509   2.173   3.895   9.816  0.6507 -0.1099  0.6376
  367MOL0     C50510   2.097   3.800   9.805  0.8951  0.4276 -0.2164
  367MOL0     O50511   2.088   3.719   9.693  0.1914 -0.1679  0.5175
  367MOL0     C50512   2.167   3.747   9.585 -0.1176  0.4286  0.1369
  367MOL0     C50513   2.229   3.645   9.511  0.1941 -0.0930 -0.1461
  367MOL0     C50514   2.292   3.660   9.391 -0.2402  0.1485 -0.6267
  367MOL0     C50515   2.288   3.782   9.329 -0.4546  0.5805  0.1423
  367MOL0     O50516   2.349   3.785   9.212  0.1255 -0.2361  0.2384
  367MOL0     C50517   2.465   3.871   9.211 -0.1005  1.3995 -0.0614
  367MOL0     C50518   2.594   3.801   9.268  0.4433  0.5801  0.3363
  367MOL0     C50519   2.694   3.881   9.344  0.1191 -0.0714  0.5155
  367MOL0     C50520   2.766   3.984   9.259  0.2670  0.3705  0.0889
  367MOL0     C50521   2.876   4.060   9.332  0.1805 -0.6537 -0.6056
  367MOL0     C50522   2.998   3.972   9.380  0.0702 -0.1377  0.3900
  367MOL0     C50523   3.127   4.055   9.404  0.3752  0.0891  0.1601
  367MOL0     C50524   3.243   3.970   9.448  1.0578 -0.0647  0.5355
  367MOL0     N50525   3.370   4.047   9.455  0.0816 -0.8262  0.1011
  367MOL0     C50526   3.441   4.102   9.346  0.0092  1.3016 -0.1651
  367MOL0     C50527   3.539   4.165   9.405 -0.0927 -0.5112 -0.6550
  367MOL0     C50528   3.644   4.234   9.316  0.3934  0.4059  0.4059
  367MOL0     C50529   3.753   4.139   9.284 -0.1972 -0.4411  0.0541
  367MOL0     C50530   3.895   4.195   9.313 -0.2515 -0.6516  0.4361
  367MOL0     C50531   3.934   4.201   9.464 -0.3395  0.2715 -0.2440
  367MOL0     O50532   4.056   4.257   9.504  0.3589 -0.2728  0.1233
  367MOL0     C50533   4.152   4.199   9.425 -0.4569  0.0608  0.8363
  367MOL0     C50534   4.183   4.064   9.430  0.2709  0.6327  0.7413
  367MOL0     C50535   4.286   4.008   9.351 -0.4693 -0.0773 -1.0707
  367MOL0     C50536   4.329   3.870   9.376 -0.6973 -0.8590 -0.0195
  367MOL0     C50537   4.359   4.095   9.267 -0.2863 -0.1540  0.3808
  367MOL0     C50538   4.471   4.047   9.188 -0.1349  0.1411  0.6760
  367MOL0     O50539   4.537   4.147   9.134  0.0922 -0.2533 -0.0854
  367MOL0     C50540   4.665   4.134   9.117 -0.6130  0.0875 -0.3765
  367MOL0     C50541   4.716   4.185   9.001  0.2600 -0.3455 -0.0034
  367MOL0     C50542   4.855   4.199   8.976  1.1486 -1.2580 -0.3777
  367MOL0     C50543   4.948   4.167   9.075 -0.2156  0.0781  0.0979
  367MOL0     O50544   5.086   4.176   9.073  0.4514  0.0543  0.1063
  367MOL0     C50545   5.141   4.193   8.940  0.6025 -0.2822  0.2211
  367MOL0     C50546   5.276   4.123   8.936  0.1345 -0.1298  0.1215
  367MOL0     C50547   5.262   3.972   8.966  0.3849 -0.7633  0.1006
  367MOL0     C50548   5.401   3.915   8.990 -0.0139  0.4791 -0.2486
  367MOL0     C50549   5.383   3.769   9.023 -0.0454 -0.0692 -0.0535
  367MOL0     C50550   5.502   3.676   9.023  0.0175  0.2604 -0.3479
  367MOL0     C50551   5.447   3.530   9.013  0.2378 -0.1834  0.1542
  367MOL0     C50552   5.340   3.499   9.124  0.9272  0.5262  0.1671
  367MOL0    Cl50553   5.403   3.533   9.292 -0.2855  0.3159 -0.1206
  367MOL0     C50554   4.895   4.107   9.194  1.0016 -0.0634  0.0532
  367MOL0     C50555   4.749   4.092   9.221 -0.3355  0.2874  0.4742
  367MOL0     O50556   4.510   3.929   9.171 -0.7766  0.4318 -0.4846
  367MOL0     C50557   4.321   4.237   9.262  0.0605  0.2207  0.0816
  367MOL0     C50558   4.219   4.285   9.339 -0.1428 -0.4287 -0.0048
  367MOL0     N50559   3.531   4.154   9.544 -0.6372  0.1559  0.0005
  367MOL0     N50560   3.437   4.068   9.575 -0.4772  0.5057  0.4456
  367MOL0     C50561   2.233   3.894   9.393  0.5968 -0.4088  0.0772
  367MOL0     C50562   2.173   3.874   9.519  0.0311 -0.0604  0.1285
  367MOL0     C50563   2.014   3.774   9.920  0.1899 -0.1357  0.3697
  367MOL0     C50564   1.952   3.643   9.925  0.8169 -0.2228  0.3294
  367MOL0     C50565   1.868   3.607  10.023 -0.4108 -0.4574  0.2639
  367MOL0     C50566   1.842   3.686  10.138  0.1803  0.2040 -0.6006
  367MOL0     O50567   1.758   3.653  10.253 -0.5752 -0.1311  0.2367
  367MOL0     C50568   1.680   3.533  10.257  0.1153  0.7584  0.3288
  367MOL0     C50569   1.537   3.556  10.215 -0.0740  0.4585  0.2442
  367MOL0     C50570   1.451   3.435  10.232 -0.4836  0.3244 -0.3413
  367MOL0     C50571   1.302   3.473  10.229 -0.7074  0.2950  0.3047
  367MOL0     C50572   1.245   3.563  10.325  0.2823 -0.1385  1.3558
  367MOL0     C50573   1.237   3.671  10.378  0.7752 -0.5639  1.1267
  367MOL0     C50574   1.905   3.810  10.136  0.3450 -0.9426  0.3731
  367MOL0     C50575   1.986   3.861  10.031 -0.2347  0.7238 -0.1930
  367MOL0     C50576   2.039   4.000  10.046 -0.0178  0.5864 -0.1345
  367MOL0     H50577   2.229   3.551   9.565  0.3539 -0.1476 -0.2395
  367MOL0     H50578   2.337   3.573   9.345 -1.8100 -0.6622 -0.7276
  367MOL0     H50579   2.452   3.961   9.272 -2.1557  0.9449  0.2385
  367MOL0     H50580   2.494   3.901   9.109 -0.2756  0.1251 -0.4934
  367MOL0     H50581   2.563   3.731   9.346 -0.4090  2.0824  1.4020
  367MOL0     H50582   2.640   3.739   9.190  0.8699  1.0995  0.1662
  367MOL0     H50583   2.640   3.931   9.425 -0.8165 -0.4511  0.1421
  367MOL0     H50584   2.768   3.815   9.390 -1.6697 -1.8373  0.9644
  367MOL0     H50585   2.805   3.932   9.171 -0.9141 -0.7811  0.2232
  367MOL0     H50586   2.693   4.049   9.209 -1.1451 -0.0073  1.6023
  367MOL0     H50587   2.843   4.108   9.425  1.9488 -1.2355  0.3595
  367MOL0     H50588   2.898   4.142   9.263 -3.4102 -0.3575 -1.6275
  367MOL0     H50589   2.978   3.916   9.472 -1.7676  1.6818  1.1904
  367MOL0     H50590   3.031   3.893   9.312 -0.0263  0.0730  0.0975
  367MOL0     H50591   3.104   4.135   9.474  1.3310  2.0350 -1.6535
  367MOL0     H50592   3.151   4.108   9.311 -2.2278  0.6672 -0.2465
  367MOL0     H50593   3.225   3.936   9.551  0.8925  1.8452  1.1814
  367MOL0     H50594   3.263   3.886   9.381  1.3014  0.3197  0.1211
  367MOL0     H50595   3.425   4.103   9.239  1.8061  2.7760 -0.4782
  367MOL0     H50596   3.677   4.320   9.375 -1.0153 -1.3350  4.0419
  367MOL0     H50597   3.598   4.265   9.222  0.8487  0.9471  0.3591
  367MOL0     H50598   3.732   4.053   9.348 -1.2056 -0.3694 -0.1692
  367MOL0     H50599   3.742   4.115   9.178 -0.2653  0.1285 -0.0661
  367MOL0     H50600   3.971   4.142   9.255  0.7891  0.7342  0.4848
  367MOL0     H50601   3.907   4.294   9.270  0.1271  0.0792  2.1260
  367MOL0     H50602   3.851   4.249   9.517 -1.2875  2.9538 -3.7742
  367MOL0     H50603   3.930   4.097   9.497  1.3010 -0.8415 -3.1999
  367MOL0     H50604   4.134   3.997   9.500 -0.1481  0.5032  0.3294
  367MOL0     H50605   4.288   3.818   9.464  0.8917 -0.0061  1.2764
  367MOL0     H50606   4.435   3.875   9.400 -0.6110 -1.5062 -0.2479
  367MOL0     H50607   4.312   3.820   9.280  2.2646 -2.7851  0.3538
  367MOL0     H50608   4.639   4.216   8.931 -1.9659  1.0096  2.8306
  367MOL0     H50609   4.894   4.251   8.889  1.2199 -0.8386 -0.0982
  367MOL0     H50610   5.081   4.154   8.858  0.5723  0.9013 -0.3427
  367MOL0     H50611   5.153   4.298   8.913 -1.6744 -0.5496 -2.1559
  367MOL0     H50612   5.311   4.139   8.833 -0.6422  3.2148  0.2627
  367MOL0     H50613   5.348   4.162   9.008 -1.8190  1.3637  1.3610
  367MOL0     H50614   5.208   3.916   8.889  2.8425 -1.7893 -0.9993
  367MOL0     H50615   5.199   3.965   9.055 -1.2905 -0.0839 -0.9922
  367MOL0     H50616   5.450   3.965   9.074  1.7176 -0.7522 -0.4696
  367MOL0     H50617   5.461   3.927   8.900  0.6372 -1.2243 -0.0739
  367MOL0     H50618   5.338   3.772   9.123  0.0869 -0.6930  0.0328
  367MOL0     H50619   5.308   3.721   8.960 -0.2170 -0.9085  0.7608
  367MOL0     H50620   5.557   3.704   9.114 -0.5651  2.4612 -0.6073
  367MOL0     H50621   5.575   3.700   8.945  1.0155  1.4009  0.8853
  367MOL0     H50622   5.523   3.455   9.034 -1.2536 -1.4547  1.3050
  367MOL0     H50623   5.407   3.514   8.912 -1.8240  0.6534  0.7668
  367MOL0     H50624   5.306   3.396   9.116 -1.4315  1.1859  0.9288
  367MOL0     H50625   5.246   3.553   9.108 -2.2815 -4.6999 -0.8543
  367MOL0     H50626   4.963   4.086   9.275 -0.0488  3.6254  2.0992
  367MOL0     H50627   4.699   4.075   9.315  1.2341 -0.9748  1.1264
  367MOL0     H50628   4.382   4.303   9.202  1.2780 -2.9147 -2.4297
  367MOL0     H50629   4.182   4.388   9.345  0.7324 -0.1312  0.3629
  367MOL0     H50630   2.215   3.984   9.336 -0.6989 -2.2942 -2.7431
  367MOL0     H50631   2.128   3.958   9.571  2.4517  0.6709  1.1709
  367MOL0     H50632   1.958   3.564   9.851 -0.3367  0.8635 -0.9716
  367MOL0     H50633   1.830   3.505  10.021  0.1177 -0.6430 -1.1966
  367MOL0     H50634   1.732   3.446  10.215 -1.0741  0.6725 -1.0260
  367MOL0     H50635   1.663   3.508  10.363  0.3810  2.2592  0.7406
  367MOL0     H50636   1.539   3.578  10.107  5.6155  1.5672  0.2465
  367MOL0     H50637   1.504   3.641  10.275  0.8648  1.3833 -0.5176
  367MOL0     H50638   1.464   3.360  10.153 -0.4139 -0.5310  0.4609
  367MOL0     H50639   1.487   3.370  10.313  1.1367 -1.1152 -2.1048
  367MOL0     H50640   1.240   3.384  10.226  0.9240 -0.8770 -0.2591
  367MOL0     H50641   1.288   3.526  10.134  0.6980 -0.9956 -0.6640
  367MOL0     H50642   1.242   3.759  10.439 -1.3184 -0.8783  1.8543
  367MOL0     H50643   1.882   3.872  10.222 -1.6801 -2.2105  0.7888
  367MOL0     H50644   2.142   3.987  10.079  0.5285  0.3198 -1.8319
  367MOL0     H50645   2.031   4.054   9.951 -1.6801 -0.7428 -0.7987
  367MOL0     H50646   1.971   4.061  10.107 -4.9158 -1.6194 -2.8019
  368MOL0     O50647  10.697   2.374   0.042 -0.2000  0.1894 -0.1623
  368MOL0     C50648  10.633   2.455   0.102 -0.0196 -0.1027 -0.5865
  368MOL0     O50649  10.665   2.521   0.211  0.1241 -0.4420  0.0102
  368MOL0     C50650  10.772   2.471   0.287  0.2203  0.3231 -0.2804
  368MOL0     C50651  10.903   2.460   0.232  0.1358 -0.0068 -0.3836
  368MOL0     C50652  11.009   2.407   0.299  0.6965 -0.5880 -0.3048
  368MOL0     C50653  10.991   2.369   0.430  0.6011  0.8334 -0.1611
  368MOL0     O50654  11.088   2.306   0.510 -0.5768  0.4196 -0.2254
  368MOL0     C50655  11.216   2.333   0.458  0.4037 -0.1470 -0.5322
  368MOL0     C50656  11.301   2.316   0.584  0.3165  0.0279  0.3103
  368MOL0     C50657  11.440   2.352   0.547  0.1876  0.2379  0.2251
  368MOL0     C50658  11.504   2.237   0.461 -0.2927 -0.3401 -0.6131
  368MOL0     C50659  11.665   2.247   0.466 -0.2146 -0.1618 -0.3090
  368MOL0     C50660  11.724   2.378   0.416 -0.2539  0.1083 -0.1205
  368MOL0     C50661  11.878   2.361   0.403  0.1614 -0.8871 -0.0236
  368MOL0     C50662  11.958   2.333   0.533 -0.1805  0.7678  0.1687
  368MOL0     N50663  12.104   2.362   0.509  0.6145  0.7376  0.0830
  368MOL0     C50664  12.162   2.478   0.458  0.1631  0.7817  0.3608
  368MOL0     C50665  12.294   2.447   0.452 -0.7084 -0.2282  0.5642
  368MOL0     C50666  12.407   2.538   0.413 -0.5195  1.0437  0.4758
  368MOL0     C50667  12.523   2.537   0.509 -0.7686 -0.1332  0.5366
  368MOL0     C50668  12.588   2.679   0.521 -0.0959 -0.0387 -0.1548
  368MOL0     C50669  12.637   2.742   0.395  0.5248  0.4003  0.6560
  368MOL0     O50670  12.753   2.672   0.357  0.6381  0.0759 -0.0828
  368MOL0     C50671  12.875   2.744   0.372  1.0879 -0.4149  1.2654
  368MOL0     C50672  12.903   2.844   0.458  0.8087  1.0233 -0.8226
  368MOL0     C50673  13.023   2.915   0.472  0.5257  0.2801  0.9568
  368MOL0     C50674  13.026   3.015   0.589  0.1655  0.4830  0.5152
  368MOL0     C50675  13.132   2.883   0.378 -0.2309 -0.2536  0.2468
  368MOL0     C50676  13.258   2.953   0.368 -0.3062  0.3355 -0.8523
  368MOL0     O50677  13.292   3.039   0.476 -0.2793 -0.1519  0.5137
  368MOL0     C50678  13.398   3.122   0.459  0.5095 -0.0493  0.6723
  368MOL0     C50679  13.384   3.250   0.408  0.4472 -0.8127 -0.5755
  368MOL0     C50680  13.497   3.337   0.401  0.4482  0.0068 -0.5738
  368MOL0     C50681  13.624   3.292   0.434  0.0904 -0.3779  0.3430
  368MOL0     O50682  13.740   3.353   0.405  0.2030 -0.1107  0.0903
  368MOL0     C50683  13.728   3.492   0.371  0.1766  0.5440  0.5600
  368MOL0     C50684  13.868   3.555   0.351  0.1369 -0.5110 -0.9069
  368MOL0     C50685  13.971   3.466   0.269 -0.5321  0.0577  0.2635
  368MOL0     C50686  14.067   3.562   0.194  0.6430  0.7407 -1.0524
  368MOL0     C50687  14.175   3.501   0.117 -0.2838  0.2919  0.9076
  368MOL0     C50688  14.296   3.458   0.204  0.3017 -0.5462  0.0974
  368MOL0     C50689  14.421   3.426   0.124 -0.3964  0.1388 -0.1553
  368MOL0     C50690  14.540   3.383   0.211 -0.2089  0.8798  0.0048
  368MOL0    Cl50691  14.678   3.307   0.110 -0.2423 -0.1370  0.3113
  368MOL0     C50692  13.632   3.161   0.486 -0.7225 -0.4167 -0.6918
  368MOL0     C50693  13.521   3.077   0.498 -0.3415  0.6154 -0.3550
  368MOL0     O50694  13.338   2.912   0.279  0.2503  0.2393  0.1739
  368MOL0     C50695  13.105   2.792   0.276  0.6143  1.0602  0.1580
  368MOL0     C50696  12.976   2.724   0.275 -0.6320  0.3710  1.1547
  368MOL0     N50697  12.311   2.315   0.508  0.1027  0.4930 -0.2939
  368MOL0     N50698  12.196   2.265   0.529  0.6520 -0.1735  0.2360
  368MOL0     C50699  10.872   2.378   0.494 -0.2712 -0.2004 -0.2924
  368MOL0     C50700  10.762   2.436   0.423  0.0664 -0.6669  0.0732
  368MOL0     C50701  10.500   2.505   0.047  0.3939 -0.9474 -0.3410
  368MOL0     C50702  10.391   2.533   0.141 -0.8059 -0.7432 -0.1572
  368MOL0     C50703  10.268   2.564   0.101  0.6407  1.2664 -0.2982
  368MOL0     C50704  10.232   2.568  -0.028 -0.3011 -0.4540  0.7771
  368MOL0     O50705  10.099   2.600  -0.066 -0.2434 -0.0442  0.1722
  368MOL0     C50706  10.062   2.609  -0.202 -0.9763  0.5595 -0.4434
  368MOL0     C50707   9.927   2.673  -0.214  0.9566 -0.7447  0.1782
  368MOL0     C50708   9.949   2.822  -0.203  0.4574 -0.3392 -0.0992
  368MOL0     C50709   9.825   2.905  -0.241 -0.8366  0.0653 -0.4369
  368MOL0     C50710   9.850   3.005  -0.343 -0.0445  0.0074 -0.2123
  368MOL0     C50711   9.890   3.087  -0.422  0.9863  0.6409  0.3803
  368MOL0     C50712  10.338   2.550  -0.118 -0.0324  0.2259 -0.6981
  368MOL0     C50713  10.469   2.520  -0.087  0.0394  0.4916  0.9979
  368MOL0     C50714  10.570   2.511  -0.194 -0.4859  0.0684  0.1027
  368MOL0     H50715  10.911   2.481   0.126  1.9870  0.3293 -0.2074
  368MOL0     H50716  11.105   2.409   0.248  0.8300  0.3880 -0.0180
  368MOL0     H50717  11.217   2.439   0.431 -0.2136  0.9737  3.1536
  368MOL0     H50718  11.238   2.274   0.369  1.0998  1.7330 -1.6588
  368MOL0     H50719  11.261   2.383   0.660 -1.5543 -0.5878 -0.0537
  368MOL0     H50720  11.300   2.211   0.616  0.3959 -0.6511 -1.7714
  368MOL0     H50721  11.435   2.443   0.485  2.8205 -1.0875 -2.1564
  368MOL0     H50722  11.496   2.368   0.639  0.1928  0.0871  0.2476
  368MOL0     H50723  11.489   2.138   0.505  1.1864 -0.2452  0.1611
  368MOL0     H50724  11.469   2.239   0.358 -3.8900  2.3452  0.4234
  368MOL0     H50725  11.691   2.150   0.423 -2.0106 -1.5439  1.5041
  368MOL0     H50726  11.708   2.223   0.564  1.4392 -0.6216 -1.1178
  368MOL0     H50727  11.694   2.396   0.312 -2.2324 -0.8815  0.2388
  368MOL0     H50728  11.685   2.462   0.474 -0.1937 -1.1998  1.9114
  368MOL0     H50729  11.896   2.459   0.357 -2.3969 -0.1739  0.3580
  368MOL0     H50730  11.901   2.293   0.321 -1.8563 -0.1280 -1.2988
  368MOL0     H50731  11.921   2.387   0.621  0.6487 -3.9789  3.8873
  368MOL0     H50732  11.933   2.228   0.548  1.6950  0.3946  0.9189
  368MOL0     H50733  12.122   2.578   0.447 -2.8643 -0.1679  1.5956
  368MOL0     H50734  12.372   2.641   0.400  2.0503  1.6346 -4.2687
  368MOL0     H50735  12.438   2.504   0.314 -1.5234  3.4889 -0.7720
  368MOL0     H50736  12.475   2.520   0.606 -3.4156  0.1616 -0.6363
  368MOL0     H50737  12.597   2.466   0.472  0.2589  0.6259  1.0707
  368MOL0     H50738  12.511   2.750   0.554  0.4494  2.7868 -4.1346
  368MOL0     H50739  12.670   2.662   0.590  0.6463  3.1081 -0.1003
  368MOL0     H50740  12.566   2.728   0.312  0.5293 -2.0622  0.9910
  368MOL0     H50741  12.649   2.850   0.406  1.2637  0.1985  2.0963
  368MOL0     H50742  12.819   2.866   0.523  1.5864  1.4063  0.0745
  368MOL0     H50743  13.102   2.996   0.665 -1.8943 -0.6466  2.3874
  368MOL0     H50744  12.931   3.025   0.641  0.3841  0.9937  0.8300
  368MOL0     H50745  13.039   3.118   0.552  0.8568 -0.1604 -1.1150
  368MOL0     H50746  13.288   3.291   0.376  0.1494 -0.7143  0.4172
  368MOL0     H50747  13.477   3.433   0.355  0.7463  0.5535  0.3917
  368MOL0     H50748  13.677   3.497   0.274 -0.1971  1.3981  0.7925
  368MOL0     H50749  13.664   3.551   0.437 -0.0143 -0.7443  1.5673
  368MOL0     H50750  13.839   3.642   0.292 -0.3495  0.7103  1.0637
  368MOL0     H50751  13.898   3.586   0.451  2.7523 -2.5058 -0.9528
  368MOL0     H50752  13.914   3.406   0.199  0.0515  0.1652 -0.3145
  368MOL0     H50753  14.032   3.400   0.332  2.1541  1.2545 -0.9370
  368MOL0     H50754  14.106   3.637   0.262  0.1217  1.0183 -1.0513
  368MOL0     H50755  14.006   3.606   0.114 -0.1344 -1.9255 -2.0500
  368MOL0     H50756  14.139   3.421   0.052  3.5522 -0.6322 -0.3069
  368MOL0     H50757  14.203   3.580   0.047 -0.1884 -2.2129 -2.0546
  368MOL0     H50758  14.263   3.369   0.258 -0.4451 -1.9709 -2.5414
  368MOL0     H50759  14.318   3.544   0.269 -0.6385  0.2330 -0.5809
  368MOL0     H50760  14.449   3.509   0.059 -0.4500 -0.0176 -0.3807
  368MOL0     H50761  14.393   3.339   0.064 -0.7854 -0.1214  0.3910
  368MOL0     H50762  14.506   3.308   0.284  2.9919  0.9349  1.7145
  368MOL0     H50763  14.582   3.471   0.258 -0.5165  1.3355 -0.5609
  368MOL0     H50764  13.733   3.120   0.495 -0.0603  1.1800 -0.4506
  368MOL0     H50765  13.528   2.975   0.536 -2.4244  0.2342 -0.8607
  368MOL0     H50766  13.172   2.773   0.192  0.5815  0.3952  0.2780
  368MOL0     H50767  12.952   2.641   0.210 -0.2217  1.1563 -0.0448
  368MOL0     H50768  10.863   2.346   0.597  3.2095 -1.0865 -0.1460
  368MOL0     H50769  10.670   2.430   0.480 -0.9573 -2.2258 -1.6181
  368MOL0     H50770  10.403   2.522   0.248 -4.0433 -0.5644  0.3322
  368MOL0     H50771  10.191   2.575   0.176 -1.7493 -1.7081 -2.1159
  368MOL0     H50772  10.146   2.654  -0.256  1.2538 -1.2538  1.2826
  368MOL0     H50773  10.059   2.511  -0.252 -0.1932  1.1379 -1.6872
  368MOL0     H50774   9.854   2.634  -0.141 -0.2508  0.4209 -0.3625
  368MOL0     H50775   9.886   2.640  -0.310 -0.4147  1.8644 -0.2140
  368MOL0     H50776   9.966   2.852  -0.099  0.3669  3.9023 -1.1309
  368MOL0     H50777  10.034   2.853  -0.264  0.1571 -0.2927 -0.5039
  368MOL0     H50778   9.796   2.956  -0.149 -0.1717  1.9633 -1.2362
  368MOL0     H50779   9.742   2.845  -0.279 -0.1184  1.0869 -4.0097
  368MOL0     H50780   9.918   3.168  -0.485  1.4270  1.7575  1.9393
  368MOL0     H50781  10.325   2.559  -0.226  0.6636  1.0527 -0.7266
  368MOL0     H50782  10.674   2.507  -0.162 -0.7475 -0.1997  0.9458
  368MOL0     H50783  10.565   2.425  -0.261  3.3532  0.2999 -0.6831
  368MOL0     H50784  10.564   2.597  -0.261  0.2059  0.5403  0.6347
  369MOL0     O50785   7.561   7.561   6.135  0.4594  0.1216 -0.0773
  369MOL0     C50786   7.551   7.575   6.015 -0.8702  0.3141  0.4644
  369MOL0     O50787   7.644   7.637   5.926 -0.4393  0.3772 -0.6302
  369MOL0     C50788   7.740   7.712   5.988  0.2083 -0.1401  0.2872
  369MOL0     C50789   7.870   7.663   5.990 -0.1499  0.2958 -0.1033
  369MOL0     C50790   7.977   7.733   6.047 -0.4762  0.3201  0.8542
  369MOL0     C50791   7.954   7.844   6.118 -0.6860 -0.5136  0.4746
  369MOL0     O50792   8.045   7.912   6.192  0.2627  1.1328 -0.1762
  369MOL0     C50793   8.153   7.837   6.249  0.1269  0.5937 -0.2310
  369MOL0     C50794   8.280   7.831   6.166 -0.3324  0.5842 -0.1778
  369MOL0     C50795   8.394   7.758   6.244 -0.1710 -0.8733 -0.1315
  369MOL0     C50796   8.475   7.846   6.343  0.3906 -0.1910  0.1935
  369MOL0     C50797   8.619   7.786   6.348 -0.2579 -0.0002  1.1380
  369MOL0     C50798   8.712   7.845   6.452 -0.0985 -0.2720 -0.1490
  369MOL0     C50799   8.661   7.820   6.588 -1.0759 -0.6598  0.2004
  369MOL0     C50800   8.768   7.827   6.703  0.2944 -0.7519 -0.0000
  369MOL0     N50801   8.859   7.712   6.695  0.7214  0.2327  0.0419
  369MOL0     C50802   8.988   7.727   6.655 -0.2634 -0.0344 -0.3446
  369MOL0     C50803   9.029   7.599   6.644  0.3242 -0.6405  0.2920
  369MOL0     C50804   9.154   7.547   6.585 -0.9624  0.1325 -0.6482
  369MOL0     C50805   9.277   7.562   6.676  0.2354  0.1098  0.4056
  369MOL0     C50806   9.410   7.505   6.615 -0.8830 -0.3343 -0.3889
  369MOL0     C50807   9.535   7.551   6.689  0.1344  0.1337  0.0776
  369MOL0     O50808   9.646   7.469   6.646  0.0295  0.3310 -0.5158
  369MOL0     C50809   9.707   7.471   6.522 -0.1544 -0.3411 -0.8316
  369MOL0     C50810   9.824   7.391   6.501  0.0849 -1.0533  0.1402
  369MOL0     C50811   9.881   7.380   6.373 -0.8475 -0.7086  0.8351
  369MOL0     C50812   9.997   7.288   6.359  0.3003  0.4687 -0.2260
  369MOL0     C50813   9.830   7.452   6.257  0.5024  0.5797  0.1923
  369MOL0     C50814   9.874   7.438   6.112  0.3469 -0.6180 -0.5792
  369MOL0     O50815  10.004   7.397   6.087 -0.4047  0.3615 -0.2324
  369MOL0     C50816  10.061   7.440   5.969 -0.0368  0.6057 -0.0061
  369MOL0     C50817  10.017   7.392   5.847  0.5735 -0.5569  0.9108
  369MOL0     C50818  10.095   7.420   5.726 -0.0914 -0.1702 -0.0189
  369MOL0     C50819  10.211   7.497   5.730 -0.2188 -0.4735 -0.7006
  369MOL0     O50820  10.278   7.512   5.612 -0.1629 -0.0320  0.7402
  369MOL0     C50821  10.322   7.649   5.588  0.3506  0.4245 -0.7451
  369MOL0     C50822  10.376   7.684   5.453  0.8670 -0.1164 -1.0811
  369MOL0     C50823  10.477   7.578   5.416 -0.5692 -0.4470 -0.0022
  369MOL0     C50824  10.556   7.626   5.288  0.8469 -0.4667  0.4695
  369MOL0     C50825  10.676   7.529   5.283 -0.6186  0.2613  0.0015
  369MOL0     C50826  10.787   7.536   5.393 -0.2210 -0.1618  0.4049
  369MOL0     C50827  10.925   7.477   5.347  0.6459  0.1611  0.0874
  369MOL0     C50828  11.031   7.512   5.460 -0.9164 -0.7635  0.0346
  369MOL0    Cl50829  11.061   7.681   5.481  0.0372  0.0847 -0.2865
  369MOL0     C50830  10.246   7.562   5.858  0.4490  1.0376 -1.0762
  369MOL0     C50831  10.169   7.526   5.977 -0.5833  0.1258  0.2282
  369MOL0     O50832   9.799   7.480   6.022 -0.0631  0.7301 -0.0856
  369MOL0     C50833   9.724   7.546   6.293  0.3714  1.0128  0.0172
  369MOL0     C50834   9.672   7.554   6.418 -0.3204  0.4205 -0.7397
  369MOL0     N50835   8.932   7.512   6.693  0.5456 -0.1632 -0.8858
  369MOL0     N50836   8.824   7.582   6.728 -0.3064  0.0483 -0.0027
  369MOL0     C50837   7.824   7.891   6.133 -0.4026  1.2492 -0.7667
  369MOL0     C50838   7.715   7.824   6.069  0.3377 -0.1023 -0.7611
  369MOL0     C50839   7.432   7.508   5.951 -0.4509  0.2886  0.0328
  369MOL0     C50840   7.433   7.512   5.802  0.2807  0.7680 -0.3623
  369MOL0     C50841   7.335   7.444   5.732  0.6835 -0.1451 -0.0126
  369MOL0     C50842   7.230   7.390   5.806 -0.2165 -0.1814 -0.4526
  369MOL0     O50843   7.130   7.344   5.722  0.9467 -0.0488 -0.4264
  369MOL0     C50844   7.004   7.294   5.781  0.1468 -0.6282  0.3524
  369MOL0     C50845   6.883   7.302   5.683  0.3207 -0.4350  1.1840
  369MOL0     C50846   6.926   7.258   5.541 -0.8987 -0.4245  0.4059
  369MOL0     C50847   6.807   7.247   5.454  1.0354 -1.3048  0.2748
  369MOL0     C50848   6.758   7.110   5.469  0.4132  0.3468  1.0376
  369MOL0     C50849   6.710   6.998   5.485 -0.7249 -0.7268 -0.1782
  369MOL0     C50850   7.217   7.395   5.949 -0.4605  0.0141 -0.1271
  369MOL0     C50851   7.326   7.443   6.017 -0.6148 -1.0726 -0.3734
  369MOL0     C50852   7.315   7.435   6.160 -0.2153  0.0197 -1.1120
  369MOL0     H50853   7.891   7.566   5.945 -0.6419  0.6288 -1.0788
  369MOL0     H50854   8.074   7.686   6.032 -0.5284  0.6705 -0.8055
  369MOL0     H50855   8.128   7.737   6.285  1.3020 -0.1738 -1.4734
  369MOL0     H50856   8.175   7.889   6.343  0.1858  1.5027 -0.7313
  369MOL0     H50857   8.255   7.768   6.080 -0.6221  0.4286  0.0184
  369MOL0     H50858   8.307   7.932   6.132 -1.5977  1.1262  0.3762
  369MOL0     H50859   8.367   7.662   6.289 -1.9643  0.0206  0.8098
  369MOL0     H50860   8.464   7.732   6.164  1.6625 -0.2864  1.2306
  369MOL0     H50861   8.488   7.951   6.316 -0.4924  0.0092  0.5088
  369MOL0     H50862   8.420   7.850   6.438 -0.5999  2.6175 -0.3941
  369MOL0     H50863   8.662   7.792   6.248 -0.8031 -2.0957  0.7333
  369MOL0     H50864   8.599   7.681   6.369 -1.7467 -0.1845 -0.8633
  369MOL0     H50865   8.813   7.811   6.428 -0.8108 -0.1231 -4.1619
  369MOL0     H50866   8.710   7.953   6.436 -0.0673 -0.1774  0.4599
  369MOL0     H50867   8.621   7.718   6.584 -1.8194 -0.3849  0.5515
  369MOL0     H50868   8.583   7.895   6.599 -0.3658  0.3925 -1.6232
  369MOL0     H50869   8.829   7.917   6.690  0.0549 -0.7557 -1.2356
  369MOL0     H50870   8.717   7.827   6.800 -0.6839  0.9793 -0.4830
  369MOL0     H50871   9.045   7.818   6.637  0.5967 -0.0650  1.9082
  369MOL0     H50872   9.174   7.603   6.494 -0.9647 -1.1316 -1.4505
  369MOL0     H50873   9.144   7.441   6.559 -0.8374  0.5698 -2.6199
  369MOL0     H50874   9.289   7.667   6.705  1.6253  0.3068 -0.8175
  369MOL0     H50875   9.257   7.516   6.774 -3.1724  0.2978 -0.0781
  369MOL0     H50876   9.409   7.396   6.622  1.5155 -0.3345  1.2807
  369MOL0     H50877   9.404   7.532   6.509 -1.5957 -2.1150 -0.8412
  369MOL0     H50878   9.550   7.658   6.675  0.5542  0.3281  1.7266
  369MOL0     H50879   9.521   7.544   6.797  2.1856 -0.1483  0.3749
  369MOL0     H50880   9.864   7.336   6.585  2.2465  3.1974  2.2160
  369MOL0     H50881  10.092   7.340   6.345  2.2756 -2.6562  0.6234
  369MOL0     H50882   9.972   7.211   6.285  0.7232 -1.3774  1.4528
  369MOL0     H50883  10.005   7.236   6.455 -0.4230  0.0512 -0.3809
  369MOL0     H50884   9.925   7.337   5.833  0.3577 -0.3296  1.4034
  369MOL0     H50885  10.071   7.387   5.626  2.3901  1.5040 -1.2787
  369MOL0     H50886  10.245   7.721   5.617  0.5173 -0.1749  1.3358
  369MOL0     H50887  10.406   7.660   5.657 -0.9805  0.7509  0.8937
  369MOL0     H50888  10.293   7.699   5.383 -0.5595  2.7018  1.0092
  369MOL0     H50889  10.426   7.779   5.475 -0.6505  0.2785  0.9064
  369MOL0     H50890  10.435   7.479   5.398  0.8251 -1.5022  2.1752
  369MOL0     H50891  10.539   7.559   5.503 -2.1239 -1.9514  0.8410
  369MOL0     H50892  10.588   7.730   5.280  0.5281 -0.5344 -2.4422
  369MOL0     H50893  10.489   7.608   5.204  0.0713  0.0560  0.9666
  369MOL0     H50894  10.618   7.436   5.280  0.1394 -0.1962 -0.8295
  369MOL0     H50895  10.730   7.536   5.188  1.3948 -4.6221  0.4514
  369MOL0     H50896  10.760   7.481   5.483 -1.8508 -2.2563 -1.2681
  369MOL0     H50897  10.792   7.645   5.403 -0.4804  0.0111 -1.2009
  369MOL0     H50898  10.953   7.531   5.256 -0.3854  2.5641  1.1158
  369MOL0     H50899  10.913   7.371   5.325  1.0373  0.2835 -0.7799
  369MOL0     H50900  11.125   7.471   5.423 -1.2486  2.1528 -4.9471
  369MOL0     H50901  10.994   7.463   5.550  0.2177 -1.8825 -0.0844
  369MOL0     H50902  10.337   7.619   5.867  1.4591 -0.1890 -2.8405
  369MOL0     H50903  10.203   7.563   6.073  0.2707 -1.5380  0.6036
  369MOL0     H50904   9.687   7.616   6.218 -0.6481  1.5725  1.0077
  369MOL0     H50905   9.591   7.625   6.423  0.4080  1.3226 -1.3278
  369MOL0     H50906   7.801   7.980   6.190  0.7001  1.3509 -0.4689
  369MOL0     H50907   7.618   7.873   6.070 -1.2100 -2.9348  1.4545
  369MOL0     H50908   7.508   7.569   5.747 -2.0698  3.2357 -1.2603
  369MOL0     H50909   7.328   7.434   5.624 -0.6853 -0.8272  0.1219
  369MOL0     H50910   7.025   7.188   5.798 -1.4287 -0.9095  0.7147
  369MOL0     H50911   6.984   7.349   5.874  1.4915  0.2984  0.1245
  369MOL0     H50912   6.848   7.405   5.672 -0.0746 -0.7422 -0.8660
  369MOL0     H50913   6.796   7.250   5.725 -1.9457 -0.1726 -2.6695
  369MOL0     H50914   6.993   7.331   5.496 -0.5239 -0.6850  0.5441
  369MOL0     H50915   6.980   7.164   5.549  2.5849  1.4924  1.7826
  369MOL0     H50916   6.825   7.268   5.348  1.5108 -0.6589  0.4803
  369MOL0     H50917   6.738   7.328   5.478  0.4417 -1.5003 -0.7279
  369MOL0     H50918   6.660   6.907   5.510  2.1961 -1.9652  1.7049
  369MOL0     H50919   7.132   7.344   5.994  0.2539  0.8799  2.3833
  369MOL0     H50920   7.309   7.537   6.199 -1.5426 -0.2922 -0.4350
  369MOL0     H50921   7.228   7.378   6.194 -3.6650  5.0632 -0.3751
  369MOL0     H50922   7.406   7.398   6.209  0.5204  1.5258 -1.2842
  370MOL0     O50923   2.150   8.586  10.194  0.0096 -0.4709 -0.7256
  370MOL0     C50924   2.156   8.649  10.302  0.1584  0.1825 -0.3398
  370MOL0     O50925   2.271   8.703  10.356 -0.2471 -0.2224 -0.5096
  370MOL0     C50926   2.395   8.695  10.293 -0.2691 -0.1173  0.0488
  370MOL0     C50927   2.437   8.635  10.170  0.0012 -0.4394  0.0733
  370MOL0     C50928   2.574   8.648  10.125  0.2570 -0.7688  0.3526
  370MOL0     C50929   2.669   8.723  10.196 -0.3581  0.1940  0.0369
  370MOL0     O50930   2.793   8.722  10.146 -0.1661 -0.5062 -0.0486
  370MOL0     C50931   2.906   8.697  10.235  0.4661 -1.2299 -0.4243
  370MOL0     C50932   3.027   8.695  10.158  0.3724  0.2189  0.1026
  370MOL0     C50933   3.022   8.806  10.049 -1.0304  0.6108 -0.4594
  370MOL0     C50934   3.167   8.832  10.002  0.3522 -0.6596 -0.2493
  370MOL0     C50935   3.164   8.947   9.904  1.2514 -0.4127  0.0184
  370MOL0     C50936   3.291   8.955   9.821  0.3854 -0.9496 -0.2161
  370MOL0     C50937   3.429   8.958   9.897  0.2449 -0.1591  0.3209
  370MOL0     C50938   3.545   8.948   9.801 -0.3668  0.0205  0.6840
  370MOL0     N50939   3.574   8.816   9.743 -0.5055 -0.4531 -0.2030
  370MOL0     C50940   3.574   8.700   9.816  1.0770  0.1297 -0.0314
  370MOL0     C50941   3.588   8.596   9.730  0.2280  1.1633 -0.1595
  370MOL0     C50942   3.604   8.456   9.775 -0.6111  0.0362 -0.0785
  370MOL0     C50943   3.764   8.448   9.776  0.5618  0.4091  0.4555
  370MOL0     C50944   3.828   8.529   9.890 -0.3162  0.1216  0.1466
  370MOL0     C50945   3.958   8.476   9.946  1.2151 -0.8804  0.4812
  370MOL0     O50946   4.003   8.579  10.030  0.0237 -0.4336  0.4118
  370MOL0     C50947   4.132   8.560  10.080 -0.1561  0.5898  0.0779
  370MOL0     C50948   4.192   8.431  10.091 -0.0470  0.3807  0.3043
  370MOL0     C50949   4.317   8.407  10.155 -0.2530 -0.0139  0.9266
  370MOL0     C50950   4.351   8.263  10.201 -0.4198 -0.5941  0.3320
  370MOL0     C50951   4.397   8.516  10.171  0.2547  0.7461 -0.7376
  370MOL0     C50952   4.537   8.517  10.221  0.5206 -0.4815 -0.3729
  370MOL0     O50953   4.611   8.403  10.207 -0.6494 -0.2120 -0.3470
  370MOL0     C50954   4.740   8.410  10.270 -0.2892 -0.1540  0.1882
  370MOL0     C50955   4.747   8.385  10.400  0.2977 -0.1685 -0.7862
  370MOL0     C50956   4.874   8.379  10.465  0.5757  0.7256  0.1338
  370MOL0     C50957   4.992   8.411  10.392  0.2677  0.1026 -0.1906
  370MOL0     O50958   5.112   8.408  10.463  0.0550 -0.2604 -0.1772
  370MOL0     C50959   5.238   8.431  10.404  0.0508 -0.3964 -0.5351
  370MOL0     C50960   5.309   8.541  10.489 -0.5693  0.5971  0.1821
  370MOL0     C50961   5.446   8.545  10.425 -0.8588  0.6413  0.5129
  370MOL0     C50962   5.550   8.610  10.521 -0.9921 -0.3384 -1.0467
  370MOL0     C50963   5.700   8.614  10.465  0.6499 -0.0350 -0.2647
  370MOL0     C50964   5.801   8.681  10.555 -0.4735  0.6884  0.1249
  370MOL0     C50965   5.944   8.678  10.509 -0.1543 -0.2248  0.2855
  370MOL0     C50966   6.029   8.740  10.623  0.2999 -0.2163  0.0234
  370MOL0    Cl50967   6.208   8.722  10.584  0.0965 -0.1297  0.2723
  370MOL0     C50968   4.978   8.438  10.255  0.1746 -0.7010 -0.1015
  370MOL0     C50969   4.852   8.442  10.196  0.0951  0.6998  0.6143
  370MOL0     O50970   4.588   8.625  10.253 -0.2088  0.1374 -0.2486
  370MOL0     C50971   4.340   8.647  10.150  0.0649  0.1555 -0.8744
  370MOL0     C50972   4.205   8.662  10.112  0.4583  0.3446 -0.1462
  370MOL0     N50973   3.604   8.650   9.602 -0.4383  0.1158 -0.2102
  370MOL0     N50974   3.597   8.776   9.611  0.7387 -0.0597  1.2387
  370MOL0     C50975   2.632   8.782  10.317 -0.4024  0.4514 -0.3621
  370MOL0     C50976   2.500   8.765  10.361 -0.2243  0.6158 -0.3166
  370MOL0     C50977   2.030   8.666  10.386 -0.3497  1.3383  0.3124
  370MOL0     C50978   1.924   8.589  10.339  0.5999  0.5241  0.7038
  370MOL0     C50979   1.793   8.600  10.405 -0.0850  0.1755  0.0301
  370MOL0     C50980   1.770   8.699  10.496  0.0825 -0.8747  0.4005
  370MOL0     O50981   1.647   8.696  10.560 -0.0164  0.0304 -0.0095
  370MOL0     C50982   1.604   8.807  10.641  0.0432  0.4979 -0.2168
  370MOL0     C50983   1.459   8.779  10.706  0.3992  0.7448 -0.0161
  370MOL0     C50984   1.358   8.756  10.595  0.1588 -0.1908  1.2332
  370MOL0     C50985   1.206   8.723  10.627  0.1673  0.1764 -0.2850
  370MOL0     C50986   1.140   8.839  10.682 -0.1846  0.7171  0.3851
  370MOL0     C50987   1.071   8.928  10.735 -0.2760 -0.0728  0.3741
  370MOL0     C50988   1.876   8.775  10.539 -0.0509  0.3775 -0.3803
  370MOL0     C50989   2.008   8.754  10.489 -0.3622 -0.9218 -0.4776
  370MOL0     C50990   2.106   8.861  10.554  0.7334 -0.5141  0.5962
  370MOL0     H50991   2.366   8.598  10.096  0.8908  1.6399 -1.9661
  370MOL0     H50992   2.621   8.588  10.048  4.9239  0.9372  1.5109
  370MOL0     H50993   2.877   8.609  10.292  0.2959 -0.1702  1.1934
  370MOL0     H50994   2.913   8.782  10.304  0.8198 -2.7424  1.4567
  370MOL0     H50995   3.115   8.705  10.222 -0.2239 -0.5364  1.0725
  370MOL0     H50996   3.034   8.593  10.119 -1.8861  0.4017 -0.9142
  370MOL0     H50997   2.966   8.769   9.963  2.4679 -2.8818 -1.5245
  370MOL0     H50998   2.983   8.902  10.085 -1.3271  0.3400 -0.0558
  370MOL0     H50999   3.225   8.858  10.091  2.8448  2.4423 -2.5172
  370MOL0     H51000   3.219   8.746   9.959 -0.6436 -0.5461 -1.7606
  370MOL0     H51001   3.153   9.042   9.958  3.0567 -1.3258  2.0788
  370MOL0     H51002   3.073   8.943   9.842  0.3396  0.9986  1.1721
  370MOL0     H51003   3.291   8.886   9.737  0.7023  0.8128 -1.7410
  370MOL0     H51004   3.303   9.051   9.769  0.1287 -0.3836  0.7392
  370MOL0     H51005   3.426   8.875   9.967 -2.3084  0.1103  0.6373
  370MOL0     H51006   3.444   9.056   9.944 -0.9089  1.0192 -1.5840
  370MOL0     H51007   3.529   9.017   9.717  1.7738 -1.8503 -1.3950
  370MOL0     H51008   3.638   8.987   9.844  1.0180 -0.7775 -1.3935
  370MOL0     H51009   3.561   8.686   9.923 -0.8822  1.0012 -0.1110
  370MOL0     H51010   3.562   8.389   9.699  0.9212 -1.2107  0.1089
  370MOL0     H51011   3.558   8.434   9.871 -0.1389  1.5891  0.5318
  370MOL0     H51012   3.786   8.341   9.765 -1.1813 -0.1015  1.4882
  370MOL0     H51013   3.806   8.488   9.683  0.1090  0.3953  0.2409
  370MOL0     H51014   3.848   8.624   9.840 -0.4136 -0.4954 -1.1211
  370MOL0     H51015   3.762   8.538   9.976  0.3900  0.3857  0.6624
  370MOL0     H51016   3.940   8.387  10.007 -0.4436  0.0795  1.4418
  370MOL0     H51017   4.022   8.457   9.859  1.1926 -2.4702  0.7905
  370MOL0     H51018   4.136   8.340  10.073  0.1995  0.1503  0.6849
  370MOL0     H51019   4.385   8.273  10.305 -0.7226  1.7253  0.2800
  370MOL0     H51020   4.415   8.210  10.130 -0.5798 -0.1212 -0.1791
  370MOL0     H51021   4.256   8.209  10.198 -2.3412  2.4709 -3.1167
  370MOL0     H51022   4.656   8.350  10.447  0.8553  2.8263  3.1363
  370MOL0     H51023   4.879   8.359  10.572  3.2948 -0.2079 -0.0962
  370MOL0     H51024   5.302   8.342  10.399  0.7980  0.1885 -2.2028
  370MOL0     H51025   5.238   8.467  10.301 -0.7524  1.6137  0.1199
  370MOL0     H51026   5.260   8.635  10.462 -2.4782 -0.7848 -1.4718
  370MOL0     H51027   5.302   8.511  10.594  1.4939 -2.2839 -0.3874
  370MOL0     H51028   5.443   8.603  10.332 -1.0809  1.6263  1.1210
  370MOL0     H51029   5.490   8.450  10.394  0.1539  0.0584  3.4187
  370MOL0     H51030   5.543   8.560  10.618  4.7202  1.5800  0.7766
  370MOL0     H51031   5.522   8.714  10.534 -1.6965 -0.7408  0.9212
  370MOL0     H51032   5.720   8.507  10.457 -0.7788 -0.4070  0.6994
  370MOL0     H51033   5.701   8.665  10.369 -2.1684  1.6040  0.4662
  370MOL0     H51034   5.798   8.625  10.649 -1.0458 -0.8071 -0.7410
  370MOL0     H51035   5.757   8.778  10.579 -0.4065  0.1386  2.7701
  370MOL0     H51036   5.966   8.734  10.418  1.2852 -1.1527  0.0316
  370MOL0     H51037   5.978   8.576  10.490  0.5477  0.2999 -1.4738
  370MOL0     H51038   6.014   8.675  10.710 -1.5323 -0.8294 -0.7070
  370MOL0     H51039   5.996   8.844  10.637  3.2958  0.5599  2.2230
  370MOL0     H51040   5.059   8.459  10.186  0.4463  1.9274  0.8583
  370MOL0     H51041   4.844   8.482  10.095  1.2084 -0.6366 -0.0251
  370MOL0     H51042   4.400   8.737  10.161  1.5090 -0.9344  0.8394
  370MOL0     H51043   4.160   8.760  10.099 -1.6771 -0.7469 -1.5416
  370MOL0     H51044   2.702   8.843  10.373  2.5642 -2.3753 -0.6911
  370MOL0     H51045   2.459   8.796  10.456  0.4753 -1.9633  0.9199
  370MOL0     H51046   1.931   8.511  10.264  0.4711  0.0950  1.1332
  370MOL0     H51047   1.700   8.552  10.378 -1.8867  2.3572  1.9519
  370MOL0     H51048   1.678   8.821  10.721 -0.5991 -1.6947  0.8331
  370MOL0     H51049   1.604   8.901  10.585 -0.7615  1.0315  0.6316
  370MOL0     H51050   1.426   8.865  10.766  1.5779  1.5883 -0.5185
  370MOL0     H51051   1.455   8.689  10.768  1.2736  0.3315 -0.5509
  370MOL0     H51052   1.350   8.850  10.539 -1.2286 -1.4735 -0.8685
  370MOL0     H51053   1.400   8.683  10.526 -0.6323  0.8976 -0.4734
  370MOL0     H51054   1.196   8.639  10.697  0.7599 -0.9130 -1.4516
  370MOL0     H51055   1.151   8.700  10.535 -2.2705  2.1952  0.5556
  370MOL0     H51056   1.023   9.011  10.782  0.0514  1.2573 -1.5113
  370MOL0     H51057   1.851   8.831  10.629 -1.0211 -1.8251  0.8262
  370MOL0     H51058   2.180   8.897  10.482 -3.0632 -1.6140 -4.4098
  370MOL0     H51059   2.047   8.946  10.588  0.4829  0.6632 -2.4332
  370MOL0     H51060   2.153   8.822  10.644 -0.9691 -1.1355  1.2568
  371MOL0     O51061   4.646   2.694   4.066  0.3518 -0.3118 -0.1951
  371MOL0     C51062   4.590   2.629   4.154 -0.2869 -0.2171  0.5960
  371MOL0     O51063   4.660   2.571   4.252 -0.4984  0.6614 -0.4482
  371MOL0     C51064   4.793   2.563   4.226 -1.0923  0.0384 -0.2278
  371MOL0     C51065   4.884   2.622   4.317  0.5084 -0.1276  0.8470
  371MOL0     C51066   5.028   2.606   4.300 -0.2524  0.1066  1.0212
  371MOL0     C51067   5.081   2.528   4.187 -0.9877  0.1619  0.1992
  371MOL0     O51068   5.221   2.516   4.189  0.3754 -0.8684  0.1906
  371MOL0     C51069   5.297   2.452   4.088 -0.2717  0.2875 -0.3986
  371MOL0     C51070   5.360   2.556   3.991  0.5020 -0.3286 -0.1155
  371MOL0     C51071   5.482   2.502   3.923  0.6581  0.7591 -0.1743
  371MOL0     C51072   5.524   2.598   3.799  0.9034  0.0385  0.3111
  371MOL0     C51073   5.641   2.539   3.726 -0.4385  0.7125 -0.5362
  371MOL0     C51074   5.674   2.630   3.606 -0.5150  0.5793  0.1125
  371MOL0     C51075   5.780   2.563   3.515 -1.0017 -0.5867  0.3860
  371MOL0     C51076   5.925   2.548   3.565  0.4720 -0.4913  1.1439
  371MOL0     N51077   6.012   2.488   3.465 -0.4393  0.3796 -0.2525
  371MOL0     C51078   6.118   2.543   3.400 -0.1386 -0.2594 -0.3339
  371MOL0     C51079   6.161   2.442   3.322 -0.7014  0.0751  0.3291
  371MOL0     C51080   6.282   2.456   3.232  0.4671  0.2001  0.8670
  371MOL0     C51081   6.245   2.503   3.093  0.3668  0.4922 -0.2599
  371MOL0     C51082   6.143   2.612   3.078  0.0654 -0.0120  0.6169
  371MOL0     C51083   6.083   2.618   2.939  0.1362  0.0305  0.4528
  371MOL0     O51084   6.174   2.588   2.829  0.4470  0.3456 -0.7834
  371MOL0     C51085   6.255   2.686   2.796 -0.5197 -0.4616  0.2056
  371MOL0     C51086   6.281   2.817   2.843 -0.8874  1.0035  0.6866
  371MOL0     C51087   6.357   2.919   2.778  0.4276 -0.3491  0.2981
  371MOL0     C51088   6.374   3.055   2.849  0.3412 -0.0312 -0.0781
  371MOL0     C51089   6.428   2.881   2.661 -0.4440 -0.7981 -0.5632
  371MOL0     C51090   6.515   2.970   2.581 -0.9106  0.3058 -0.4855
  371MOL0     O51091   6.582   2.914   2.479  0.6691 -0.5112 -0.1328
  371MOL0     C51092   6.680   2.983   2.407  0.1044 -0.1212  1.0464
  371MOL0     C51093   6.788   2.901   2.362  0.1434 -0.0289  0.1812
  371MOL0     C51094   6.901   2.968   2.307 -0.0015  1.2141  0.0945
  371MOL0     C51095   6.901   3.104   2.282  0.2590  0.5827  0.0501
  371MOL0     O51096   7.003   3.175   2.226 -0.0742 -0.3607  0.2307
  371MOL0     C51097   7.102   3.091   2.162  0.2329 -0.0940 -0.5327
  371MOL0     C51098   7.207   3.185   2.106 -0.9513 -0.1188  0.2531
  371MOL0     C51099   7.323   3.105   2.041  0.0139  0.2119  0.4718
  371MOL0     C51100   7.430   3.053   2.141 -0.2210 -0.4764 -0.2488
  371MOL0     C51101   7.551   2.988   2.072 -0.2278  0.4779  0.4799
  371MOL0     C51102   7.669   2.972   2.170 -0.7758  0.0534 -0.4950
  371MOL0     C51103   7.794   2.905   2.111  0.6027 -0.2325  0.1837
  371MOL0     C51104   7.889   2.873   2.216 -0.1243 -0.1272 -0.2802
  371MOL0    Cl51105   8.047   2.827   2.142 -0.1501 -0.3839 -0.1790
  371MOL0     C51106   6.782   3.178   2.311  0.3294  0.2951  0.2233
  371MOL0     C51107   6.672   3.115   2.365  0.3970 -0.1518 -0.1591
  371MOL0     O51108   6.534   3.085   2.620 -0.5400 -0.2641  0.2160
  371MOL0     C51109   6.402   2.753   2.613  0.4753 -0.2841 -0.3877
  371MOL0     C51110   6.324   2.659   2.678  0.3867 -0.2366  0.5410
  371MOL0     N51111   6.085   2.329   3.347 -0.5674  0.3863  0.2231
  371MOL0     N51112   5.989   2.361   3.423  0.4499  0.9779  0.1479
  371MOL0     C51113   4.985   2.472   4.095  0.1920 -0.0202  0.2799
  371MOL0     C51114   4.846   2.481   4.126 -0.5413  0.1166 -0.6213
  371MOL0     C51115   4.446   2.608   4.125 -0.4045 -0.6123 -0.0064
  371MOL0     C51116   4.375   2.702   4.049  0.5255 -0.3988  0.6736
  371MOL0     C51117   4.248   2.684   3.997 -0.4557 -0.1720 -0.3999
  371MOL0     C51118   4.179   2.566   4.042  0.5156 -1.0901  0.9100
  371MOL0     O51119   4.052   2.544   3.984 -0.5514  0.2972 -0.3903
  371MOL0     C51120   3.985   2.415   4.006  0.7190  0.2484 -0.2175
  371MOL0     C51121   3.841   2.397   3.953  0.3441  0.4605  0.2677
  371MOL0     C51122   3.830   2.347   3.803  0.5843  0.3569 -0.2220
  371MOL0     C51123   3.928   2.412   3.696  0.0841 -0.2253 -0.3756
  371MOL0     C51124   3.885   2.391   3.557  0.0630 -0.4136  0.5319
  371MOL0     C51125   3.848   2.374   3.445  0.8717 -0.1726  0.7970
  371MOL0     C51126   4.240   2.469   4.114 -0.5101 -0.3207 -0.4750
  371MOL0     C51127   4.374   2.492   4.159  0.8347  0.5648  1.0527
  371MOL0     C51128   4.438   2.376   4.238  0.2325  0.1376 -0.6803
  371MOL0     H51129   4.859   2.693   4.396  0.9903  0.5429  0.4148
  371MOL0     H51130   5.098   2.637   4.378  0.5112 -0.2591  0.4930
  371MOL0     H51131   5.232   2.378   4.040  0.3806 -0.7804  0.3172
  371MOL0     H51132   5.372   2.389   4.137 -1.9080  0.5337  2.7150
  371MOL0     H51133   5.281   2.579   3.918 -0.6794 -0.5538  1.0502
  371MOL0     H51134   5.383   2.645   4.050 -0.8120 -1.7730  2.7697
  371MOL0     H51135   5.559   2.494   4.000 -0.6415 -2.6602  0.9682
  371MOL0     H51136   5.464   2.399   3.891 -1.0458  0.9279  0.1117
  371MOL0     H51137   5.439   2.597   3.730  1.8268 -0.6453 -0.8543
  371MOL0     H51138   5.531   2.702   3.831  2.0594 -0.0339  0.3164
  371MOL0     H51139   5.616   2.435   3.704  0.5734  0.4596 -0.5304
  371MOL0     H51140   5.721   2.532   3.800 -1.0624 -0.7059  0.0516
  371MOL0     H51141   5.583   2.648   3.548  0.3264 -1.6741 -2.0556
  371MOL0     H51142   5.712   2.724   3.647  0.9087 -0.2706  0.8093
  371MOL0     H51143   5.795   2.636   3.435  3.5769  0.3143  1.7756
  371MOL0     H51144   5.738   2.465   3.494 -1.5313 -0.6556  1.6755
  371MOL0     H51145   5.951   2.653   3.585 -1.7668  0.0428  1.5157
  371MOL0     H51146   5.924   2.495   3.661 -0.5736 -0.3626  1.2128
  371MOL0     H51147   6.159   2.642   3.416  0.6523 -0.0535 -3.0952
  371MOL0     H51148   6.354   2.374   3.235  0.9658  0.5717 -0.3743
  371MOL0     H51149   6.332   2.544   3.273 -0.2473  0.2437  1.6525
  371MOL0     H51150   6.336   2.542   3.046  0.5352  1.9797  1.2169
  371MOL0     H51151   6.196   2.426   3.032 -2.2675  1.8304 -0.0138
  371MOL0     H51152   6.053   2.609   3.140 -0.0980  0.3893  0.4053
  371MOL0     H51153   6.194   2.708   3.094 -3.1296  2.0038 -0.4361
  371MOL0     H51154   6.009   2.538   2.935  0.1980  0.0239 -1.5514
  371MOL0     H51155   6.034   2.715   2.927  2.1335  1.3184  2.0005
  371MOL0     H51156   6.242   2.856   2.936 -3.3122  1.2579 -0.3673
  371MOL0     H51157   6.330   3.144   2.802 -3.1376 -1.8356 -0.5396
  371MOL0     H51158   6.478   3.062   2.880 -0.0810  1.5840  1.1194
  371MOL0     H51159   6.311   3.055   2.938 -0.2778 -1.8907 -0.4823
  371MOL0     H51160   6.798   2.796   2.388  1.7424  0.4093  1.5370
  371MOL0     H51161   6.995   2.915   2.297 -0.1223  1.2223 -1.2876
  371MOL0     H51162   7.146   3.031   2.242  1.0320  1.4181  0.2215
  371MOL0     H51163   7.051   3.031   2.086  1.1777 -0.9113 -0.5420
  371MOL0     H51164   7.161   3.247   2.029  0.5085  0.3222 -0.2917
  371MOL0     H51165   7.241   3.257   2.180 -0.6713  1.8730 -1.7136
  371MOL0     H51166   7.371   3.161   1.960  1.5681 -1.5787  0.0750
  371MOL0     H51167   7.276   3.013   2.006  1.1582 -0.6122  1.0024
  371MOL0     H51168   7.392   2.988   2.220 -2.8685  2.6478  1.2910
  371MOL0     H51169   7.452   3.146   2.195  0.9432 -0.2378 -1.0975
  371MOL0     H51170   7.521   2.891   2.031 -1.6534  0.7102  0.9343
  371MOL0     H51171   7.591   3.055   1.995 -0.3929  2.9851  2.4616
  371MOL0     H51172   7.642   2.916   2.260  0.1094  1.3887  0.6428
  371MOL0     H51173   7.693   3.072   2.207  0.5958  0.0452 -1.3142
  371MOL0     H51174   7.833   2.983   2.044 -0.4688  0.2171  0.0681
  371MOL0     H51175   7.768   2.819   2.049 -0.6267  2.2825 -3.1234
  371MOL0     H51176   7.857   2.781   2.265 -0.1675  0.7440  1.4131
  371MOL0     H51177   7.906   2.950   2.292  1.6213 -0.3297 -0.4370
  371MOL0     H51178   6.773   3.280   2.277 -0.3540 -0.6261 -2.5858
  371MOL0     H51179   6.586   3.179   2.384  1.4985  1.6287 -0.9104
  371MOL0     H51180   6.443   2.728   2.516  1.0592  4.2210 -1.5148
  371MOL0     H51181   6.327   2.557   2.642  0.4244 -1.4648  3.7012
  371MOL0     H51182   5.015   2.421   4.004 -3.1113 -0.0945 -0.9225
  371MOL0     H51183   4.779   2.424   4.064 -0.2360 -0.9177 -0.0197
  371MOL0     H51184   4.429   2.794   4.029  0.2744 -0.3408  0.2493
  371MOL0     H51185   4.201   2.763   3.939 -0.2960  0.4101  0.2433
  371MOL0     H51186   4.049   2.343   3.954  0.9769  1.5478 -1.7843
  371MOL0     H51187   3.977   2.387   4.111  0.6832 -2.1477 -0.7990
  371MOL0     H51188   3.782   2.488   3.948 -1.4376 -0.6933 -1.1139
  371MOL0     H51189   3.795   2.322   4.018  1.4206  0.0670  0.5926
  371MOL0     H51190   3.854   2.240   3.801  2.0840  0.6770 -0.3873
  371MOL0     H51191   3.725   2.366   3.778  0.8857  1.5533 -0.6444
  371MOL0     H51192   4.028   2.368   3.708 -0.1510 -0.7120 -0.1863
  371MOL0     H51193   3.923   2.517   3.724  0.7786 -0.2714 -0.0588
  371MOL0     H51194   3.822   2.345   3.345  1.1571 -0.5782  0.8410
  371MOL0     H51195   4.193   2.372   4.126 -2.1717  0.5660  0.4925
  371MOL0     H51196   4.366   2.297   4.263  0.3935  0.1129 -0.2979
  371MOL0     H51197   4.517   2.328   4.181  1.7949  3.0239 -1.1499
  371MOL0     H51198   4.475   2.428   4.327 -1.7524 -2.6736  1.9703
  372MOL0     O51199   9.170   0.981   1.294 -0.0661 -0.2930  0.3633
  372MOL0     C51200   9.197   0.865   1.250  0.5118  0.7506  0.1866
  372MOL0     O51201   9.325   0.818   1.223 -0.2770 -0.2635  0.4138
  372MOL0     C51202   9.422   0.904   1.265 -0.1147  0.3271 -1.1368
  372MOL0     C51203   9.481   0.896   1.390 -0.4194  0.6216 -0.0973
  372MOL0     C51204   9.589   0.977   1.413  0.5243 -0.0834  0.8192
  372MOL0     C51205   9.635   1.071   1.325  0.1300  0.2388 -0.2556
  372MOL0     O51206   9.752   1.135   1.371  0.4121  0.2335 -0.1401
  372MOL0     C51207   9.811   1.219   1.281 -0.5982 -0.5194 -0.3440
  372MOL0     C51208   9.914   1.283   1.365 -0.5874  0.1716  0.4781
  372MOL0     C51209   9.972   1.402   1.287  0.4053 -0.2515  0.6124
  372MOL0     C51210  10.094   1.454   1.356 -0.3672 -1.2607 -0.6432
  372MOL0     C51211  10.153   1.584   1.297 -0.4496  0.3662  0.0513
  372MOL0     C51212  10.220   1.673   1.413  0.4372 -0.5080 -0.1083
  372MOL0     C51213  10.362   1.637   1.447  0.4022  0.4479  0.3562
  372MOL0     C51214  10.458   1.691   1.333 -0.3579  0.4819  0.2959
  372MOL0     N51215  10.596   1.652   1.358  0.0022 -0.3260 -0.6138
  372MOL0     C51216  10.675   1.679   1.471  0.5231  0.7684  0.0771
  372MOL0     C51217  10.778   1.601   1.456 -0.7017 -0.2907 -0.1169
  372MOL0     C51218  10.881   1.591   1.563 -0.1927  0.9361 -0.5712
  372MOL0     C51219  11.010   1.664   1.538  0.0054  0.2454  0.1868
  372MOL0     C51220  11.120   1.625   1.635  0.0175  0.1525  1.1319
  372MOL0     C51221  11.259   1.666   1.569 -0.4867  0.1399 -0.6134
  372MOL0     O51222  11.357   1.592   1.643 -0.1104  0.1739 -0.0472
  372MOL0     C51223  11.490   1.606   1.600 -0.6220 -0.2405  0.4273
  372MOL0     C51224  11.589   1.535   1.665  0.5122 -0.0967 -0.6713
  372MOL0     C51225  11.727   1.543   1.638 -0.5831  0.0553  0.5438
  372MOL0     C51226  11.821   1.454   1.724 -0.4715  0.2564 -0.0733
  372MOL0     C51227  11.771   1.633   1.539  0.0741 -0.1073 -1.4567
  372MOL0     C51228  11.917   1.657   1.510 -0.8614  0.0287  0.3073
  372MOL0     O51229  11.931   1.749   1.409 -0.3569  0.1436 -0.2785
  372MOL0     C51230  12.054   1.803   1.384 -1.1754 -0.2074 -0.1457
  372MOL0     C51231  12.139   1.838   1.490 -0.5164 -0.6120  0.0333
  372MOL0     C51232  12.257   1.916   1.461 -0.2674  0.3516  0.0392
  372MOL0     C51233  12.292   1.954   1.328 -0.8452 -0.1847  0.0732
  372MOL0     O51234  12.409   2.022   1.291  0.7944 -0.1007 -0.4457
  372MOL0     C51235  12.416   2.150   1.352  0.5069 -1.0085  0.2529
  372MOL0     C51236  12.558   2.197   1.317  0.7127 -0.5948 -0.0683
  372MOL0     C51237  12.580   2.337   1.382 -0.2754  0.3299  0.5549
  372MOL0     C51238  12.718   2.385   1.336 -0.1762  0.0292  0.6656
  372MOL0     C51239  12.740   2.526   1.375  0.3393  0.1946 -0.3946
  372MOL0     C51240  12.877   2.579   1.339  0.6439 -0.4893  0.2596
  372MOL0     C51241  12.884   2.733   1.348 -0.9843 -0.0132 -0.3248
  372MOL0     C51242  13.026   2.781   1.313  0.2000  0.4620 -0.2428
  372MOL0    Cl51243  13.080   2.745   1.153  0.1471 -0.0539  0.2123
  372MOL0     C51244  12.217   1.894   1.229  0.6068  0.4090 -0.0052
  372MOL0     C51245  12.102   1.824   1.255  0.4288 -0.3020 -1.0754
  372MOL0     O51246  12.007   1.599   1.567  0.2651 -0.5869 -0.0354
  372MOL0     C51247  11.671   1.702   1.475  0.1382 -0.1685  0.1602
  372MOL0     C51248  11.535   1.696   1.501 -0.3765 -0.1951 -0.1489
  372MOL0     N51249  10.775   1.534   1.338  0.0199 -0.0089 -0.2522
  372MOL0     N51250  10.659   1.563   1.290  0.1710  0.5286  0.2780
  372MOL0     C51251   9.569   1.089   1.202 -0.4074  0.0105  0.2894
  372MOL0     C51252   9.467   1.007   1.172  0.0430 -0.3065 -0.2942
  372MOL0     C51253   9.076   0.770   1.249  0.3698  0.5838 -0.2989
  372MOL0     C51254   8.945   0.815   1.231 -0.0323 -0.0148  0.1808
  372MOL0     C51255   8.835   0.736   1.221 -0.5136  0.1057 -0.1508
  372MOL0     C51256   8.853   0.597   1.211  0.5151 -0.6981  0.7149
  372MOL0     O51257   8.758   0.507   1.182 -0.3592  0.4635 -0.5774
  372MOL0     C51258   8.618   0.556   1.168 -0.4252 -0.1533  0.2057
  372MOL0     C51259   8.554   0.556   1.306 -0.0117 -0.0908 -0.0788
  372MOL0     C51260   8.412   0.623   1.291  0.7908 -0.4334  0.6892
  372MOL0     C51261   8.325   0.661   1.417 -0.6599 -0.2014 -0.1860
  372MOL0     C51262   8.410   0.746   1.509  1.0652 -0.3952  0.1970
  372MOL0     C51263   8.463   0.820   1.588 -0.4174 -0.1365 -0.3150
  372MOL0     C51264   8.980   0.544   1.238 -0.0890  1.0139  0.2192
  372MOL0     C51265   9.094   0.628   1.261 -0.4731  0.1257  0.3447
  372MOL0     C51266   9.225   0.560   1.283 -0.0076  0.0014  0.1911
  372MOL0     H51267   9.450   0.825   1.466 -1.6184  0.2634 -0.8963
  372MOL0     H51268   9.625   0.958   1.514 -0.3934 -2.2201  0.7992
  372MOL0     H51269   9.751   1.302   1.242 -0.5685  1.9692  4.1452
  372MOL0     H51270   9.860   1.164   1.200 -0.2342 -0.4125 -0.2014
  372MOL0     H51271   9.886   1.314   1.467  1.7460 -1.1304  1.5944
  372MOL0     H51272   9.997   1.213   1.379  0.9555  2.3480  3.2955
  372MOL0     H51273   9.994   1.367   1.186 -0.6328 -0.3643  0.4136
  372MOL0     H51274   9.906   1.485   1.261  0.5108 -0.6114 -0.9133
  372MOL0     H51275  10.065   1.478   1.458  1.3648 -1.0984 -0.1571
  372MOL0     H51276  10.178   1.385   1.367  0.1005 -0.2937  3.3193
  372MOL0     H51277  10.079   1.650   1.250  0.9453  2.8127  1.1169
  372MOL0     H51278  10.225   1.554   1.220 -0.5095 -0.2469  0.2291
  372MOL0     H51279  10.223   1.776   1.378  0.1947  1.0967  4.0702
  372MOL0     H51280  10.155   1.669   1.501 -0.8067  1.2904 -0.8830
  372MOL0     H51281  10.372   1.529   1.453 -0.0780  0.1987 -2.3040
  372MOL0     H51282  10.382   1.680   1.546 -0.3486  0.6272  0.4385
  372MOL0     H51283  10.418   1.647   1.241 -1.3749 -2.3019  1.9594
  372MOL0     H51284  10.449   1.800   1.331 -1.0280  0.4376  0.4825
  372MOL0     H51285  10.646   1.743   1.554 -1.8647  1.2142 -1.0287
  372MOL0     H51286  10.898   1.483   1.563 -1.2815  0.6740  2.1338
  372MOL0     H51287  10.844   1.633   1.657  1.1754  1.3505 -0.2019
  372MOL0     H51288  11.040   1.643   1.435 -2.6993  0.2909 -0.7041
  372MOL0     H51289  11.003   1.773   1.545  1.5443  0.2674  1.9578
  372MOL0     H51290  11.106   1.679   1.728  1.5806  1.3576  0.7044
  372MOL0     H51291  11.117   1.516   1.641 -0.0222  0.1472  1.0291
  372MOL0     H51292  11.267   1.647   1.462 -0.8872 -0.2865 -0.5714
  372MOL0     H51293  11.273   1.771   1.598  0.8481 -1.1288  4.3915
  372MOL0     H51294  11.570   1.463   1.744 -0.6352 -1.3280 -2.0044
  372MOL0     H51295  11.868   1.372   1.669  0.7614  1.2907 -0.6274
  372MOL0     H51296  11.763   1.409   1.805 -1.8990 -1.8651 -2.1581
  372MOL0     H51297  11.893   1.518   1.776 -0.3289  0.4100 -0.4520
  372MOL0     H51298  12.113   1.822   1.594 -1.1350  0.9224  0.1373
  372MOL0     H51299  12.329   1.943   1.537 -2.6060  1.0085  2.1322
  372MOL0     H51300  12.336   2.213   1.312 -0.6705 -1.4518  1.8580
  372MOL0     H51301  12.407   2.150   1.461  0.2845  3.8874  0.4461
  372MOL0     H51302  12.631   2.125   1.354  1.1948 -1.6529 -2.8440
  372MOL0     H51303  12.577   2.202   1.209  1.6475  0.3977  0.1376
  372MOL0     H51304  12.576   2.315   1.489 -0.6073 -0.9677  0.2920
  372MOL0     H51305  12.495   2.399   1.353  0.2932  0.9627  0.2130
  372MOL0     H51306  12.728   2.374   1.228 -1.1050  0.0015  0.5744
  372MOL0     H51307  12.791   2.319   1.384  0.5461 -2.3883 -3.2528
  372MOL0     H51308  12.663   2.593   1.335 -0.9417 -1.3843 -0.6882
  372MOL0     H51309  12.727   2.537   1.483 -1.1849  0.2223 -0.5653
  372MOL0     H51310  12.901   2.546   1.238 -0.4195  0.4343 -0.3143
  372MOL0     H51311  12.950   2.531   1.405  0.3172 -0.6200  0.5271
  372MOL0     H51312  12.863   2.757   1.453 -1.0387 -2.0809  0.1712
  372MOL0     H51313  12.816   2.800   1.294  0.7795  4.2467  2.2093
  372MOL0     H51314  13.093   2.742   1.391 -2.0395 -2.0121  0.6170
  372MOL0     H51315  13.040   2.889   1.323  2.6526  0.2393 -0.6476
  372MOL0     H51316  12.236   1.916   1.125 -5.3522  1.7408 -1.1815
  372MOL0     H51317  12.057   1.777   1.169 -1.1160 -1.3565  0.2453
  372MOL0     H51318  11.699   1.772   1.396 -0.0967 -0.5748 -0.2903
  372MOL0     H51319  11.467   1.757   1.441  1.0701  0.3556 -1.2961
  372MOL0     H51320   9.602   1.168   1.134  2.1865 -0.4041  0.9649
  372MOL0     H51321   9.419   1.009   1.075 -0.4451 -2.7173 -0.1569
  372MOL0     H51322   8.926   0.922   1.239  1.4171  0.3166 -0.4049
  372MOL0     H51323   8.736   0.781   1.212 -0.2397  0.9599  0.9427
  372MOL0     H51324   8.613   0.652   1.115 -0.7380  0.0850  0.6610
  372MOL0     H51325   8.574   0.488   1.095  0.6815 -0.5369 -0.1114
  372MOL0     H51326   8.611   0.625   1.371 -0.9697  1.3275 -0.7061
  372MOL0     H51327   8.552   0.463   1.364  1.5189  0.5038  1.0217
  372MOL0     H51328   8.433   0.715   1.234  1.3041 -1.5472 -1.0013
  372MOL0     H51329   8.344   0.565   1.227 -1.3013  0.8242  1.6569
  372MOL0     H51330   8.306   0.563   1.463  0.6508  0.3257  1.6149
  372MOL0     H51331   8.228   0.701   1.388 -1.8267 -2.4008  0.4089
  372MOL0     H51332   8.518   0.869   1.665  2.0611 -0.1106 -1.9811
  372MOL0     H51333   8.989   0.437   1.250 -0.1009  0.5842 -2.9095
  372MOL0     H51334   9.209   0.455   1.309  0.1282 -0.0814 -0.0501
  372MOL0     H51335   9.282   0.549   1.191 -0.7642 -2.0161 -0.0826
  372MOL0     H51336   9.280   0.616   1.359  1.1478  0.1264 -0.7146
  373MOL0     O51337   2.398   2.431   1.566 -0.3428  0.1488 -0.4226
  373MOL0     C51338   2.312   2.408   1.481 -0.8625 -0.5817  0.4163
  373MOL0     O51339   2.334   2.320   1.382 -0.0620  0.0516  0.2379
  373MOL0     C51340   2.452   2.298   1.317  0.0299  0.5401  0.9618
  373MOL0     C51341   2.460   2.167   1.257  0.2686 -0.0128 -0.3769
  373MOL0     C51342   2.578   2.135   1.189  0.2124  0.1628  0.9264
  373MOL0     C51343   2.685   2.217   1.174 -0.1480  0.3179 -0.3663
  373MOL0     O51344   2.796   2.168   1.109  0.1328 -0.7287 -0.0694
  373MOL0     C51345   2.894   2.254   1.042 -0.5277 -0.8028 -0.3646
  373MOL0     C51346   2.989   2.178   0.947  0.4394 -0.2552 -1.7201
  373MOL0     C51347   3.123   2.257   0.930  0.5194 -0.8696 -0.7499
  373MOL0     C51348   3.238   2.163   0.889 -0.1222 -0.2688 -0.7173
  373MOL0     C51349   3.361   2.235   0.837  0.0863 -0.9005  0.1472
  373MOL0     C51350   3.486   2.140   0.805  0.6380 -0.0684  0.0466
  373MOL0     C51351   3.583   2.216   0.717  0.3941  0.0251  0.0458
  373MOL0     C51352   3.719   2.140   0.709 -0.3787  0.2186 -0.1515
  373MOL0     N51353   3.821   2.229   0.651 -0.2637  0.4869  0.4995
  373MOL0     C51354   3.849   2.222   0.515  0.3037 -0.2149 -0.7006
  373MOL0     C51355   3.929   2.323   0.493  0.0847  0.1837 -0.0207
  373MOL0     C51356   4.003   2.367   0.371  0.5018 -0.0064 -0.5944
  373MOL0     C51357   4.067   2.247   0.293 -0.2956 -0.5146 -0.1917
  373MOL0     C51358   4.128   2.284   0.151 -0.7024 -0.5307 -0.2722
  373MOL0     C51359   4.150   2.167   0.059 -0.7590 -0.3677 -0.6606
  373MOL0     O51360   4.235   2.072   0.134  0.4767  0.0759 -0.9067
  373MOL0     C51361   4.374   2.102   0.123  0.6090  0.2027  0.0440
  373MOL0     C51362   4.440   2.128   0.003 -0.2782 -0.2926  0.7794
  373MOL0     C51363   4.574   2.161  -0.004  0.1385  0.3468  0.4218
  373MOL0     C51364   4.624   2.180  -0.143  0.7962  0.0219 -0.6138
  373MOL0     C51365   4.646   2.174   0.115 -0.1191  0.0784  0.2409
  373MOL0     C51366   4.790   2.224   0.115 -0.0963  1.2526  0.2169
  373MOL0     O51367   4.830   2.283   0.229  0.0019 -0.2009 -0.6227
  373MOL0     C51368   4.954   2.338   0.234  0.8523 -0.4369 -1.0056
  373MOL0     C51369   5.045   2.304   0.340  0.1113 -0.1028 -0.3548
  373MOL0     C51370   5.168   2.364   0.347 -0.1289 -0.2009  1.2166
  373MOL0     C51371   5.201   2.472   0.269 -0.1979  0.9859  1.2115
  373MOL0     O51372   5.330   2.519   0.296 -0.4016 -0.5862  0.3500
  373MOL0     C51373   5.377   2.632   0.224 -0.4255  1.2833  0.2160
  373MOL0     C51374   5.502   2.698   0.289 -0.0365 -0.2810 -0.2988
  373MOL0     C51375   5.615   2.596   0.301 -0.1527  0.1389 -0.3482
  373MOL0     C51376   5.737   2.660   0.361 -0.7677  0.4113 -0.1634
  373MOL0     C51377   5.849   2.561   0.410  0.2497  0.0285  0.0299
  373MOL0     C51378   5.923   2.514   0.284 -0.6187 -0.2459  0.5033
  373MOL0     C51379   6.074   2.517   0.309  0.2012  0.6845 -0.5152
  373MOL0     C51380   6.124   2.420   0.418  0.2403 -0.3600  0.0549
  373MOL0    Cl51381   6.091   2.244   0.382 -0.2812 -0.2089 -0.1267
  373MOL0     C51382   5.114   2.514   0.166 -0.1094  0.4317 -0.0243
  373MOL0     C51383   4.992   2.447   0.156 -0.1326  0.3283 -0.3965
  373MOL0     O51384   4.859   2.204   0.017 -0.2444  0.4728 -0.2773
  373MOL0     C51385   4.583   2.153   0.232 -0.0537  1.1041 -0.7683
  373MOL0     C51386   4.447   2.110   0.233 -0.2098 -0.0102 -0.2287
  373MOL0     N51387   3.939   2.394   0.611  0.2053 -0.0760 -0.5664
  373MOL0     N51388   3.870   2.341   0.702  0.5543  0.3917 -0.6690
  373MOL0     C51389   2.675   2.347   1.226  0.8218 -0.3998  0.4284
  373MOL0     C51390   2.558   2.384   1.297  0.9044 -0.0533 -0.3271
  373MOL0     C51391   2.176   2.457   1.505 -0.6361  0.4945 -0.1846
  373MOL0     C51392   2.160   2.516   1.635 -0.3947 -0.3262 -0.8951
  373MOL0     C51393   2.037   2.571   1.664 -0.2360  0.1516  0.3688
  373MOL0     C51394   1.935   2.567   1.570 -0.1728 -0.2233  0.1798
  373MOL0     O51395   1.808   2.610   1.593 -0.1838  0.2727  0.5097
  373MOL0     C51396   1.746   2.579   1.716  0.0447 -0.3006 -0.4443
  373MOL0     C51397   1.595   2.615   1.705  0.5067 -0.0141  0.6830
  373MOL0     C51398   1.514   2.553   1.825 -0.3156  0.5805  0.2876
  373MOL0     C51399   1.472   2.398   1.806 -0.6787 -0.4727 -0.3845
  373MOL0     C51400   1.381   2.368   1.920 -1.1278 -0.0744  0.3368
  373MOL0     C51401   1.315   2.345   2.019 -0.6274 -0.0035  0.6571
  373MOL0     C51402   1.963   2.529   1.441 -0.4444 -0.1487 -0.0609
  373MOL0     C51403   2.083   2.476   1.408  0.1982 -0.6902 -0.4473
  373MOL0     C51404   2.113   2.445   1.262 -0.6420 -0.7212 -0.3274
  373MOL0     H51405   2.379   2.095   1.262  1.9484 -1.9422  0.6177
  373MOL0     H51406   2.586   2.046   1.128 -0.5048 -0.9140  2.3481
  373MOL0     H51407   2.957   2.313   1.109  0.7302  1.2256 -3.1263
  373MOL0     H51408   2.842   2.330   0.984 -1.1313 -0.7730  0.2065
  373MOL0     H51409   3.005   2.075   0.983 -1.0182  0.2420  0.6080
  373MOL0     H51410   2.945   2.169   0.848  0.4990 -1.8882 -1.6351
  373MOL0     H51411   3.103   2.321   0.843 -0.9336 -2.9697 -2.0476
  373MOL0     H51412   3.148   2.324   1.013 -0.6667 -1.1948 -0.1205
  373MOL0     H51413   3.278   2.115   0.979  0.6574  0.5421 -0.6158
  373MOL0     H51414   3.215   2.086   0.814  1.3217 -0.4568 -1.0020
  373MOL0     H51415   3.396   2.315   0.903  0.2069  1.4939 -2.5905
  373MOL0     H51416   3.323   2.272   0.741  0.6590  1.3011  0.7061
  373MOL0     H51417   3.527   2.099   0.898  0.2537  0.2040  0.3468
  373MOL0     H51418   3.433   2.052   0.767 -1.1862  0.8290  0.3899
  373MOL0     H51419   3.609   2.308   0.770  1.9644  0.3482 -1.2195
  373MOL0     H51420   3.534   2.229   0.620  0.6963  0.0192 -0.1101
  373MOL0     H51421   3.758   2.117   0.809  1.7345 -1.5496 -1.2963
  373MOL0     H51422   3.716   2.045   0.654  2.3513  0.1904 -0.3812
  373MOL0     H51423   3.822   2.157   0.433  3.7312  0.5880 -2.6605
  373MOL0     H51424   4.085   2.435   0.392  1.5773  0.0376 -4.1731
  373MOL0     H51425   3.926   2.412   0.308  0.8170  0.4861 -0.6257
  373MOL0     H51426   4.143   2.197   0.353 -1.4253 -2.8180 -0.5444
  373MOL0     H51427   3.988   2.171   0.287 -0.5241 -0.3917  0.9882
  373MOL0     H51428   4.073   2.368   0.107  1.8400  2.3180  1.5497
  373MOL0     H51429   4.231   2.321   0.164 -1.0915  0.2807  0.5610
  373MOL0     H51430   4.057   2.117   0.032 -0.7151 -1.2006  0.6586
  373MOL0     H51431   4.201   2.196  -0.034 -0.9531 -1.4727 -1.1368
  373MOL0     H51432   4.393   2.108  -0.093 -2.2871  0.9061  1.4509
  373MOL0     H51433   4.691   2.264  -0.160  0.4576 -0.0561 -2.5460
  373MOL0     H51434   4.542   2.196  -0.214 -0.0246 -1.3328 -0.0206
  373MOL0     H51435   4.681   2.092  -0.176  1.2319 -0.0273  0.2689
  373MOL0     H51436   5.022   2.224   0.410  1.5978  0.2213  0.5515
  373MOL0     H51437   5.240   2.311   0.409  3.8845  2.4236 -0.7353
  373MOL0     H51438   5.411   2.601   0.125  2.6176  1.5776  1.0810
  373MOL0     H51439   5.303   2.709   0.200 -1.9411 -0.7687 -2.1576
  373MOL0     H51440   5.539   2.784   0.231  2.6045 -0.8848  0.3689
  373MOL0     H51441   5.474   2.736   0.387 -2.7982 -1.6999 -0.4353
  373MOL0     H51442   5.629   2.553   0.201  0.0142 -0.3775 -0.1089
  373MOL0     H51443   5.577   2.520   0.370  0.5139  2.9011  3.3948
  373MOL0     H51444   5.713   2.715   0.452  0.4421  1.1021 -0.2340
  373MOL0     H51445   5.764   2.733   0.285 -2.8813  0.5798 -0.7987
  373MOL0     H51446   5.912   2.612   0.483 -1.0216 -0.7312  1.7316
  373MOL0     H51447   5.800   2.478   0.460  0.4400  0.6798  1.3327
  373MOL0     H51448   5.923   2.597   0.212  3.5335 -0.6576 -0.2490
  373MOL0     H51449   5.891   2.418   0.243 -3.3277 -0.0917  1.9970
  373MOL0     H51450   6.102   2.620   0.331 -0.0484  1.2591 -2.6213
  373MOL0     H51451   6.119   2.487   0.214 -1.1489 -0.3228 -0.8676
  373MOL0     H51452   6.068   2.445   0.508  3.2560  1.2371  1.6394
  373MOL0     H51453   6.230   2.440   0.439  0.7725 -2.0006 -0.8566
  373MOL0     H51454   5.130   2.600   0.103 -0.0686 -0.1715 -0.8569
  373MOL0     H51455   4.925   2.487   0.081 -1.5253 -1.9469 -0.4408
  373MOL0     H51456   4.639   2.173   0.323  1.7064  0.3036 -1.6264
  373MOL0     H51457   4.399   2.104   0.330  0.0135  1.0349 -0.0341
  373MOL0     H51458   2.746   2.427   1.209 -0.6480  0.4296 -2.3857
  373MOL0     H51459   2.547   2.481   1.345 -0.1090 -1.0135  1.5073
  373MOL0     H51460   2.228   2.528   1.719 -1.8893 -1.9996  0.6553
  373MOL0     H51461   2.017   2.625   1.756  0.5250 -1.7470  1.7145
  373MOL0     H51462   1.766   2.475   1.745  1.1842  0.0145 -0.0230
  373MOL0     H51463   1.791   2.651   1.786  0.7018 -2.0508  1.0293
  373MOL0     H51464   1.543   2.574   1.617  2.7207  1.6615 -1.5383
  373MOL0     H51465   1.574   2.722   1.699 -2.8934 -0.3535  3.4259
  373MOL0     H51466   1.577   2.547   1.915 -0.3350 -1.0805  0.2240
  373MOL0     H51467   1.435   2.621   1.857 -0.7634  0.5062 -0.6423
  373MOL0     H51468   1.564   2.339   1.813 -0.5819 -0.4142 -1.1184
  373MOL0     H51469   1.424   2.387   1.708  0.1333 -1.0304 -0.7265
  373MOL0     H51470   1.248   2.342   2.103 -2.2291  1.2891 -0.5050
  373MOL0     H51471   1.881   2.535   1.370 -2.1735 -0.5399  1.8338
  373MOL0     H51472   2.082   2.340   1.249  0.5989 -1.1519  0.0815
  373MOL0     H51473   2.043   2.504   1.202  0.3550  0.5802 -0.2350
  373MOL0     H51474   2.217   2.471   1.241 -0.0723 -0.0648  2.8041
  374MOL0     O51475   4.400   3.891   2.664 -0.2313 -0.2241 -0.3764
  374MOL0     C51476   4.408   4.002   2.613 -0.6686  0.0967  0.3037
  374MOL0     O51477   4.531   4.054   2.571  0.3998 -0.1322 -0.0575
  374MOL0     C51478   4.644   3.990   2.606  0.3476 -0.2732 -0.5897
  374MOL0     C51479   4.697   3.888   2.532 -0.5299 -0.0185 -1.1734
  374MOL0     C51480   4.826   3.840   2.560  0.1767  0.1349  0.8220
  374MOL0     C51481   4.903   3.891   2.669  0.4471  0.2960 -0.3232
  374MOL0     O51482   5.032   3.835   2.689  0.0851 -0.4983 -0.4074
  374MOL0     C51483   5.133   3.944   2.697  0.5418  0.3698  0.3501
  374MOL0     C51484   5.277   3.893   2.686 -0.9988  0.2480 -0.1267
  374MOL0     C51485   5.322   3.769   2.774 -1.0255  0.3916  0.6677
  374MOL0     C51486   5.477   3.743   2.784  0.2882 -0.0538  0.0275
  374MOL0     C51487   5.501   3.596   2.811 -0.5714  0.9316  0.0456
  374MOL0     C51488   5.632   3.582   2.879 -0.8361 -0.0883 -0.6853
  374MOL0     C51489   5.747   3.677   2.836  0.1886  0.4589  0.5858
  374MOL0     C51490   5.876   3.643   2.907  0.4365 -0.0524 -0.2209
  374MOL0     N51491   5.863   3.638   3.053 -0.2412  0.1092  0.3179
  374MOL0     C51492   5.853   3.526   3.139 -0.4772  0.5548 -0.5359
  374MOL0     C51493   5.868   3.576   3.263  0.1377  0.3937 -0.0658
  374MOL0     C51494   5.870   3.490   3.388 -0.2288  0.1012 -1.0149
  374MOL0     C51495   6.010   3.420   3.390 -0.1307 -1.3647  0.5420
  374MOL0     C51496   6.041   3.352   3.518 -0.7316 -0.2388 -0.3942
  374MOL0     C51497   6.185   3.294   3.534  0.7037 -0.2871  0.3624
  374MOL0     O51498   6.278   3.406   3.516 -0.0002 -1.1767  0.1016
  374MOL0     C51499   6.411   3.373   3.512  0.7613 -0.5666 -0.4770
  374MOL0     C51500   6.457   3.240   3.543  0.6002  0.3649  0.0571
  374MOL0     C51501   6.597   3.208   3.531  0.7338 -0.2275 -0.2340
  374MOL0     C51502   6.641   3.064   3.553 -0.7617 -0.9860  0.7071
  374MOL0     C51503   6.687   3.310   3.487 -0.4509 -0.1572 -0.3558
  374MOL0     C51504   6.830   3.275   3.452  0.3000 -0.0850 -0.2777
  374MOL0     O51505   6.881   3.366   3.358 -0.1959  0.3801 -0.2975
  374MOL0     C51506   7.008   3.348   3.302  0.6904  0.5853  0.0999
  374MOL0     C51507   7.026   3.387   3.167 -0.8052 -0.2283  0.1038
  374MOL0     C51508   7.143   3.370   3.091  0.2830  0.0103 -0.0701
  374MOL0     C51509   7.257   3.330   3.155 -0.0189  0.5512  0.0106
  374MOL0     O51510   7.368   3.323   3.074  0.9727 -0.3986 -0.7594
  374MOL0     C51511   7.489   3.275   3.141 -0.1494  0.2892  0.3242
  374MOL0     C51512   7.582   3.255   3.023  0.5148 -0.8366  0.5365
  374MOL0     C51513   7.735   3.236   3.061 -0.5381 -0.1715 -0.8117
  374MOL0     C51514   7.825   3.202   2.946  0.3829  0.2187  0.1690
  374MOL0     C51515   7.969   3.241   2.971  0.7372 -0.2491 -0.2835
  374MOL0     C51516   8.068   3.232   2.852 -0.1691 -0.5390 -0.4367
  374MOL0     C51517   8.213   3.254   2.904 -0.3417 -0.8361  0.4529
  374MOL0     C51518   8.314   3.186   2.810 -0.1496  0.3630  0.4996
  374MOL0    Cl51519   8.492   3.240   2.853 -0.0386  0.5181  0.2435
  374MOL0     C51520   7.247   3.293   3.297 -0.0979 -0.3496 -0.1572
  374MOL0     C51521   7.125   3.303   3.362  0.5282  0.8404 -0.1604
  374MOL0     O51522   6.895   3.195   3.512  0.1883  0.2065  0.0400
  374MOL0     C51523   6.633   3.438   3.464 -0.7526  0.1809 -0.3365
  374MOL0     C51524   6.497   3.468   3.471  0.2337 -0.5793  0.4616
  374MOL0     N51525   5.871   3.719   3.255 -0.2370  0.2161  0.4930
  374MOL0     N51526   5.869   3.748   3.130  0.1908  0.8503 -0.2607
  374MOL0     C51527   4.846   3.989   2.749 -0.1920 -1.0090  0.7943
  374MOL0     C51528   4.716   4.035   2.713 -0.4625 -0.6740  0.6659
  374MOL0     C51529   4.292   4.094   2.587  0.2458  0.8408  0.0524
  374MOL0     C51530   4.319   4.231   2.577  0.3017  0.0598 -0.7612
  374MOL0     C51531   4.216   4.326   2.555  0.0095 -0.1395 -0.0398
  374MOL0     C51532   4.086   4.280   2.558 -0.2387 -0.2312 -0.4743
  374MOL0     O51533   3.989   4.381   2.536  0.2649  0.0936  0.6040
  374MOL0     C51534   3.873   4.340   2.448  0.4243  0.4331  0.1111
  374MOL0     C51535   3.747   4.288   2.534  0.7979  0.3535  0.6539
  374MOL0     C51536   3.629   4.231   2.448 -0.2680 -0.3393  0.6878
  374MOL0     C51537   3.520   4.166   2.533  0.3575  0.0731 -0.1058
  374MOL0     C51538   3.390   4.185   2.480 -0.1290  0.7262 -0.1866
  374MOL0     C51539   3.274   4.193   2.448  0.1624 -0.0374  0.2823
  374MOL0     C51540   4.055   4.143   2.581  0.2575 -0.0662  0.2853
  374MOL0     C51541   4.157   4.053   2.593 -0.7578  0.6489  0.5841
  374MOL0     C51542   4.117   3.909   2.620 -0.0057 -0.2837  0.5069
  374MOL0     H51543   4.649   3.852   2.442  0.8060  0.9462 -2.3255
  374MOL0     H51544   4.870   3.764   2.497 -1.0372  0.4802 -0.4961
  374MOL0     H51545   5.138   3.996   2.793  1.5533 -2.1711  1.7618
  374MOL0     H51546   5.123   4.026   2.625  1.1509  0.4200  0.3217
  374MOL0     H51547   5.306   3.864   2.585  0.0974  1.7202 -0.2701
  374MOL0     H51548   5.341   3.973   2.725 -1.5810 -0.2138  1.8728
  374MOL0     H51549   5.278   3.771   2.874 -2.8698  0.3610 -0.0895
  374MOL0     H51550   5.276   3.679   2.734 -0.8453 -0.6317  2.6616
  374MOL0     H51551   5.525   3.776   2.691 -2.8573  1.2084 -1.2729
  374MOL0     H51552   5.507   3.795   2.876 -2.9279 -0.8518  1.6478
  374MOL0     H51553   5.507   3.545   2.714  3.2488 -1.2975  1.2688
  374MOL0     H51554   5.422   3.552   2.872 -0.2962  0.9838  0.4442
  374MOL0     H51555   5.596   3.599   2.981 -1.2104  1.2256 -1.0259
  374MOL0     H51556   5.665   3.481   2.851 -1.6613 -0.5828  0.0671
  374MOL0     H51557   5.718   3.780   2.860  0.2243  0.9000 -1.1171
  374MOL0     H51558   5.761   3.673   2.728 -3.3432  0.9191 -0.0071
  374MOL0     H51559   5.920   3.548   2.876  2.0654  0.5678  0.0780
  374MOL0     H51560   5.957   3.714   2.887 -0.4554  0.7237 -1.1717
  374MOL0     H51561   5.837   3.420   3.123  0.8372  0.1843  0.4378
  374MOL0     H51562   5.787   3.421   3.405 -0.5244  0.8728  1.0401
  374MOL0     H51563   5.874   3.553   3.478  2.5851 -2.0957  0.5891
  374MOL0     H51564   6.022   3.351   3.306  1.0318  0.6210 -1.0228
  374MOL0     H51565   6.082   3.496   3.357 -2.3326 -1.0895 -4.6738
  374MOL0     H51566   6.026   3.425   3.598  2.4406 -2.5721  2.6262
  374MOL0     H51567   5.970   3.270   3.531 -1.6500  0.7360  0.9805
  374MOL0     H51568   6.202   3.239   3.627 -0.0460  1.0922  1.3523
  374MOL0     H51569   6.192   3.230   3.446 -1.2810  1.0735 -0.8578
  374MOL0     H51570   6.387   3.160   3.566  0.4288  1.0344  2.1306
  374MOL0     H51571   6.692   3.029   3.462 -2.5649 -2.3738  0.1705
  374MOL0     H51572   6.558   2.994   3.565 -0.7004 -1.0200  0.9327
  374MOL0     H51573   6.710   3.061   3.638 -0.5961 -0.6753  0.5876
  374MOL0     H51574   6.940   3.422   3.111  0.0958  0.7998 -0.6649
  374MOL0     H51575   7.138   3.393   2.985 -1.8077  0.8675  0.1645
  374MOL0     H51576   7.538   3.360   3.189  0.0247  1.6838 -2.1389
  374MOL0     H51577   7.478   3.185   3.202  1.8019 -0.7356 -0.7310
  374MOL0     H51578   7.540   3.169   2.968  0.6006 -0.4669 -0.1158
  374MOL0     H51579   7.579   3.340   2.954  0.1022 -1.3116 -0.0452
  374MOL0     H51580   7.738   3.157   3.136 -1.1307  1.5846  1.1851
  374MOL0     H51581   7.770   3.326   3.114 -1.2663 -0.5432  0.3546
  374MOL0     H51582   7.798   3.259   2.856 -0.0357 -0.5443 -0.1963
  374MOL0     H51583   7.824   3.096   2.918 -0.6871  0.3408 -0.2965
  374MOL0     H51584   7.962   3.344   3.007 -1.3011 -0.5333  0.2604
  374MOL0     H51585   8.012   3.178   3.050  0.4422 -0.1896 -0.0771
  374MOL0     H51586   8.043   3.311   2.781  0.7604  1.6976  1.6020
  374MOL0     H51587   8.053   3.134   2.806 -1.7715  0.0293 -1.2014
  374MOL0     H51588   8.223   3.223   3.009 -0.3429 -1.8655  0.1581
  374MOL0     H51589   8.217   3.363   2.889 -0.4453 -0.9902 -0.7791
  374MOL0     H51590   8.309   3.206   2.703 -0.0253 -1.9308  0.0176
  374MOL0     H51591   8.305   3.078   2.821 -2.4284  0.2173 -1.9357
  374MOL0     H51592   7.329   3.251   3.355  1.7666 -1.7843 -3.5369
  374MOL0     H51593   7.118   3.285   3.469 -1.2636  3.4633  0.2469
  374MOL0     H51594   6.706   3.508   3.426  2.2690  0.0137  4.3189
  374MOL0     H51595   6.459   3.566   3.444  0.6062 -0.3516  0.7520
  374MOL0     H51596   4.909   4.028   2.828  1.2578 -1.7993  0.0572
  374MOL0     H51597   4.672   4.115   2.772  0.2107  0.8339 -0.7912
  374MOL0     H51598   4.421   4.269   2.582 -0.5352  2.3984 -0.1778
  374MOL0     H51599   4.238   4.431   2.540  0.4283 -0.4049 -1.4920
  374MOL0     H51600   3.839   4.419   2.381  0.3358 -2.4452 -3.5386
  374MOL0     H51601   3.898   4.264   2.373 -1.9480  0.3566 -0.6689
  374MOL0     H51602   3.704   4.372   2.589 -0.8435  0.5949 -0.9059
  374MOL0     H51603   3.780   4.219   2.613 -0.0201 -0.0746  0.6344
  374MOL0     H51604   3.594   4.295   2.367 -0.8501  0.8494  1.8502
  374MOL0     H51605   3.668   4.151   2.384 -2.5204  0.0501 -1.2982
  374MOL0     H51606   3.522   4.217   2.629 -0.7624  0.9955 -0.5545
  374MOL0     H51607   3.533   4.057   2.540 -0.1686  0.0779  1.1722
  374MOL0     H51608   3.172   4.199   2.414  0.4361 -1.3784 -0.8550
  374MOL0     H51609   3.953   4.107   2.568 -1.0303  2.4523  2.4223
  374MOL0     H51610   4.013   3.893   2.589  0.7288 -0.3431 -2.2058
  374MOL0     H51611   4.180   3.838   2.565  1.4370  0.9125  0.5371
  374MOL0     H51612   4.125   3.892   2.728  2.7660 -0.0952  0.4017
  375MOL0     O51613   5.598   8.876   0.213  0.6546 -0.2528  0.2648
  375MOL0     C51614   5.578   8.826   0.099 -0.1324 -0.2334  0.3047
  375MOL0     O51615   5.682   8.783   0.023  0.2589  0.1056  0.1299
  375MOL0     C51616   5.802   8.772   0.090 -1.0083 -0.1236  0.6223
  375MOL0     C51617   5.833   8.666   0.175 -0.2713 -0.1175  0.0866
  375MOL0     C51618   5.962   8.655   0.237  0.8370 -0.4078  0.5786
  375MOL0     C51619   6.053   8.760   0.213  0.6271 -0.8065  0.7101
  375MOL0     O51620   6.183   8.764   0.258  0.0110  0.8929  0.2495
  375MOL0     C51621   6.265   8.640   0.227 -0.5680  0.2911  0.2748
  375MOL0     C51622   6.369   8.687   0.130  0.5346  0.4209  0.9100
  375MOL0     C51623   6.444   8.563   0.077  0.3047  0.0654  0.6374
  375MOL0     C51624   6.512   8.480   0.185 -0.5251 -0.3361  0.1898
  375MOL0     C51625   6.627   8.400   0.130  0.0783 -0.0854  1.0027
  375MOL0     C51626   6.676   8.285   0.218  0.2405 -0.0149  0.4227
  375MOL0     C51627   6.802   8.212   0.168 -0.1920 -0.5737 -0.3237
  375MOL0     C51628   6.821   8.074   0.237 -0.8269  0.1610  0.4272
  375MOL0     N51629   6.827   8.086   0.383 -0.4634  0.0909  0.9359
  375MOL0     C51630   6.938   8.039   0.447 -0.3491  0.3141 -0.8689
  375MOL0     C51631   6.902   8.039   0.572 -0.6455  1.0356  1.2472
  375MOL0     C51632   6.990   7.993   0.680 -0.5140  0.2954  0.0050
  375MOL0     C51633   6.981   8.086   0.811  0.0788  0.5074  0.5174
  375MOL0     C51634   7.034   8.222   0.802  0.8271 -0.3500 -0.3932
  375MOL0     C51635   6.987   8.317   0.916  0.8063  0.0918 -0.3217
  375MOL0     O51636   7.054   8.292   1.034  0.2527  0.1567 -0.5053
  375MOL0     C51637   7.188   8.310   1.034 -0.2604  0.2597  0.1138
  375MOL0     C51638   7.261   8.404   0.954 -0.1461  0.3977  0.3594
  375MOL0     C51639   7.402   8.421   0.943  0.4955 -0.6482  0.5324
  375MOL0     C51640   7.460   8.517   0.845  0.3659 -0.2031 -0.2794
  375MOL0     C51641   7.483   8.333   1.028  0.0887 -0.1485 -0.5233
  375MOL0     C51642   7.631   8.339   1.037 -0.4826 -0.2078  0.9736
  375MOL0     O51643   7.690   8.212   1.052 -0.4558  0.1971  0.1880
  375MOL0     C51644   7.826   8.218   1.075 -0.5364 -0.3490 -0.3002
  375MOL0     C51645   7.872   8.237   1.206  0.0947  0.0432 -0.3776
  375MOL0     C51646   8.019   8.245   1.235  0.5037 -0.0265 -0.5017
  375MOL0     C51647   8.112   8.226   1.135  0.6559  0.9043 -0.0254
  375MOL0     O51648   8.247   8.204   1.150  0.2524  0.7573 -0.5332
  375MOL0     C51649   8.311   8.203   1.280 -0.5611 -0.0821 -0.0347
  375MOL0     C51650   8.443   8.131   1.285  0.3542  0.1135 -0.7763
  375MOL0     C51651   8.509   8.157   1.420 -0.3155 -0.3670 -0.0034
  375MOL0     C51652   8.631   8.066   1.439  0.3513  0.0606 -0.3794
  375MOL0     C51653   8.686   8.076   1.584 -0.7071 -0.5137  0.1768
  375MOL0     C51654   8.812   7.993   1.612 -0.3913  0.0010 -0.5471
  375MOL0     C51655   8.831   8.008   1.763  0.3001  0.2937 -0.4618
  375MOL0     C51656   8.948   7.925   1.804 -0.5417  0.1825 -0.3969
  375MOL0    Cl51657   8.922   7.867   1.973  0.0167  0.1179  0.2597
  375MOL0     C51658   8.067   8.221   1.007  0.8928  0.3198  0.1410
  375MOL0     C51659   7.925   8.212   0.977  0.2640  0.4450  0.0059
  375MOL0     O51660   7.687   8.451   1.021 -0.5523 -0.3987 -0.2455
  375MOL0     C51661   7.415   8.233   1.100  0.1411  0.1897  0.0553
  375MOL0     C51662   7.272   8.217   1.102 -0.3941  0.7493 -0.0358
  375MOL0     N51663   6.770   8.083   0.592 -0.4392 -0.0355 -0.0070
  375MOL0     N51664   6.724   8.100   0.473  0.4242  0.0920  0.8067
  375MOL0     C51665   6.022   8.873   0.132 -0.7444  0.7557  0.1715
  375MOL0     C51666   5.899   8.871   0.058 -0.5013 -0.0447 -0.1103
  375MOL0     C51667   5.441   8.807   0.043  0.0481  0.1520 -0.0154
  375MOL0     C51668   5.428   8.782  -0.094 -0.1500 -0.6777 -0.0006
  375MOL0     C51669   5.302   8.754  -0.151 -0.4692  0.0942  0.4749
  375MOL0     C51670   5.188   8.737  -0.076  0.2073  0.5669  0.3201
  375MOL0     O51671   5.070   8.708  -0.140 -0.2961  0.4291  0.9587
  375MOL0     C51672   4.962   8.794  -0.120  0.5360 -0.1910 -0.1675
  375MOL0     C51673   4.834   8.741  -0.190 -0.9801  0.0150  0.2946
  375MOL0     C51674   4.712   8.829  -0.164 -1.1668  0.7323 -0.2275
  375MOL0     C51675   4.581   8.757  -0.160 -0.0863  0.0447  0.2948
  375MOL0     C51676   4.582   8.690  -0.027  0.4573 -0.2177  0.2777
  375MOL0     C51677   4.576   8.617   0.067  0.1218  0.1986 -0.9210
  375MOL0     C51678   5.199   8.774   0.059 -0.4660  0.3039  0.1214
  375MOL0     C51679   5.317   8.816   0.119  0.7911  0.8434 -0.2301
  375MOL0     C51680   5.311   8.859   0.261  0.6489  0.7258  0.8772
  375MOL0     H51681   5.758   8.588   0.182 -1.1089  0.6255 -0.4044
  375MOL0     H51682   5.981   8.558   0.284  0.0997 -1.2676 -0.8247
  375MOL0     H51683   6.200   8.565   0.181  1.6307 -1.8865  0.5035
  375MOL0     H51684   6.307   8.596   0.318 -1.1039  1.0846  0.9160
  375MOL0     H51685   6.313   8.736   0.049 -1.0836  1.0245  2.3094
  375MOL0     H51686   6.433   8.757   0.184 -0.0485  0.4406  1.5989
  375MOL0     H51687   6.369   8.505   0.022  0.9823 -1.3901  1.1811
  375MOL0     H51688   6.527   8.599   0.016  0.3125 -3.9381 -2.1430
  375MOL0     H51689   6.564   8.531   0.267 -0.2205 -0.0764 -0.1604
  375MOL0     H51690   6.435   8.410   0.218 -1.1556 -0.9541 -2.3941
  375MOL0     H51691   6.708   8.469   0.104 -2.5012  1.9681 -2.5119
  375MOL0     H51692   6.583   8.371   0.035 -0.8562  0.6167  1.2062
  375MOL0     H51693   6.686   8.323   0.320 -1.5082 -0.7342  0.8984
  375MOL0     H51694   6.596   8.211   0.211  0.6799 -0.5579  0.9853
  375MOL0     H51695   6.880   8.276   0.209 -2.8144  0.6046  3.3757
  375MOL0     H51696   6.804   8.219   0.059  1.6586 -0.2321 -0.2871
  375MOL0     H51697   6.732   8.015   0.209  0.1196  0.0286 -2.6375
  375MOL0     H51698   6.908   8.031   0.187 -1.8566 -1.7291  0.1515
  375MOL0     H51699   7.026   7.993   0.403 -0.2138 -2.7849  2.2050
  375MOL0     H51700   7.090   8.015   0.642 -1.2649  0.0779 -2.2405
  375MOL0     H51701   6.975   7.886   0.697 -0.4843  0.2738 -0.1028
  375MOL0     H51702   6.877   8.091   0.846 -0.0926 -1.9335  0.5591
  375MOL0     H51703   7.028   8.026   0.890 -2.6071 -0.9900  1.1225
  375MOL0     H51704   7.143   8.216   0.803  0.8791 -0.3046  2.6662
  375MOL0     H51705   7.007   8.271   0.708  1.8641  0.0053 -0.5176
  375MOL0     H51706   7.005   8.422   0.890  1.4343 -0.0869 -0.6322
  375MOL0     H51707   6.884   8.296   0.944  1.3801  0.6670  2.5624
  375MOL0     H51708   7.192   8.468   0.899 -1.4465 -1.5703 -0.4173
  375MOL0     H51709   7.389   8.586   0.798  1.5320  0.2867 -1.4070
  375MOL0     H51710   7.511   8.465   0.763  0.0099  1.3017 -1.5054
  375MOL0     H51711   7.532   8.584   0.894  1.4861 -0.2290 -1.8049
  375MOL0     H51712   7.801   8.239   1.288  0.1516  0.6165 -0.3387
  375MOL0     H51713   8.055   8.250   1.337 -0.7896 -1.8678  0.0978
  375MOL0     H51714   8.327   8.309   1.301 -0.8505  0.6158 -2.8560
  375MOL0     H51715   8.260   8.146   1.358  1.0296 -0.4994  0.7388
  375MOL0     H51716   8.441   8.026   1.254 -0.3885  0.5362 -2.2743
  375MOL0     H51717   8.509   8.186   1.218  0.8143  0.7773  0.2062
  375MOL0     H51718   8.436   8.150   1.501  0.5039  0.6389  0.8404
  375MOL0     H51719   8.548   8.259   1.413 -2.5766  0.5501  0.0038
  375MOL0     H51720   8.716   8.098   1.378  0.9145  0.4484  0.5926
  375MOL0     H51721   8.593   7.965   1.420 -3.6580  1.1329  0.9515
  375MOL0     H51722   8.729   8.176   1.573 -0.7274 -0.5036  0.1886
  375MOL0     H51723   8.609   8.072   1.661 -2.0975 -0.0131 -1.1426
  375MOL0     H51724   8.894   8.037   1.555 -0.8075  0.6720 -0.6324
  375MOL0     H51725   8.792   7.890   1.580 -1.2737 -0.1925  0.5740
  375MOL0     H51726   8.743   7.979   1.821 -0.5351  4.1182  0.4882
  375MOL0     H51727   8.861   8.113   1.772  2.7119 -0.2284 -1.5460
  375MOL0     H51728   9.039   7.984   1.794  0.5091 -1.6695 -2.5940
  375MOL0     H51729   8.967   7.835   1.745  3.3683 -0.6586  1.7947
  375MOL0     H51730   8.131   8.217   0.920 -0.3925  1.0066 -0.8828
  375MOL0     H51731   7.896   8.209   0.872 -0.9600 -2.2061  0.3362
  375MOL0     H51732   7.472   8.157   1.153  2.7870  1.0724 -1.2986
  375MOL0     H51733   7.223   8.145   1.168 -0.1435  0.4424 -0.1796
  375MOL0     H51734   6.094   8.954   0.123 -2.1740  2.1176  0.4832
  375MOL0     H51735   5.875   8.944  -0.019 -1.8086  0.1404  0.4554
  375MOL0     H51736   5.511   8.802  -0.160  1.2847  1.3992  2.2573
  375MOL0     H51737   5.296   8.740  -0.259 -1.2028  1.6058  0.2990
  375MOL0     H51738   4.931   8.791  -0.014  0.2460  5.1502  0.1722
  375MOL0     H51739   4.977   8.897  -0.152  1.6159 -0.4748 -0.5882
  375MOL0     H51740   4.822   8.636  -0.162  1.9237 -0.8481 -1.3395
  375MOL0     H51741   4.853   8.741  -0.297 -0.8953  2.6462  0.2489
  375MOL0     H51742   4.741   8.890  -0.077  3.2489 -0.7232 -0.4305
  375MOL0     H51743   4.707   8.899  -0.248 -1.7231 -0.5449 -1.2952
  375MOL0     H51744   4.585   8.682  -0.239  0.0543 -0.9461  1.2265
  375MOL0     H51745   4.493   8.820  -0.178  0.7883  0.8867 -1.2771
  375MOL0     H51746   4.556   8.544   0.143  0.3934  1.3858  0.3238
  375MOL0     H51747   5.117   8.775   0.130  0.1109  0.4588  0.8024
  375MOL0     H51748   5.213   8.836   0.303  0.3500 -2.7859 -1.3862
  375MOL0     H51749   5.391   8.808   0.316  1.6296 -0.8219 -1.8063
  375MOL0     H51750   5.342   8.964   0.258  1.5051  0.4661  0.3065
  376MOL0     O51751  10.158   0.043   1.291 -0.2206 -0.0512  0.0103
  376MOL0     C51752  10.128  -0.072   1.265 -0.4008  0.8840 -0.4460
  376MOL0     O51753  10.165  -0.175   1.344 -0.6684  0.1076 -0.0055
  376MOL0     C51754  10.238  -0.138   1.455 -0.5943  0.5018 -0.3916
  376MOL0     C51755  10.194  -0.045   1.554 -0.0743 -0.0861  0.0164
  376MOL0     C51756  10.267  -0.021   1.673 -0.1433 -0.1778 -0.1560
  376MOL0     C51757  10.392  -0.084   1.698 -0.1697  0.0999  0.1962
  376MOL0     O51758  10.466  -0.057   1.809  0.0532 -0.3116 -0.0479
  376MOL0     C51759  10.415   0.056   1.891 -0.6040 -0.9528 -0.2184
  376MOL0     C51760  10.510   0.091   2.004  0.2704 -0.0361  0.7128
  376MOL0     C51761  10.545  -0.039   2.088 -0.0160  0.7341  0.4911
  376MOL0     C51762  10.424  -0.106   2.154 -0.8822  0.2826 -0.5070
  376MOL0     C51763  10.467  -0.240   2.234 -0.5180 -0.3454  0.0302
  376MOL0     C51764  10.529  -0.352   2.145  0.2497 -0.6259  1.1182
  376MOL0     C51765  10.552  -0.481   2.207 -0.0015  0.1141  0.1619
  376MOL0     C51766  10.643  -0.477   2.328 -0.4917  0.8389  0.0203
  376MOL0     N51767  10.779  -0.435   2.284 -0.2371 -0.2409 -1.2088
  376MOL0     C51768  10.866  -0.511   2.209  0.1541 -0.0363 -0.5826
  376MOL0     C51769  10.987  -0.443   2.212  0.6341 -0.4981  0.0785
  376MOL0     C51770  11.111  -0.489   2.138  0.2466 -0.4175  0.4874
  376MOL0     C51771  11.104  -0.629   2.072  0.1532  0.0233  0.3231
  376MOL0     C51772  11.212  -0.636   1.962  0.3403 -0.2139  0.7064
  376MOL0     C51773  11.359  -0.600   2.001 -0.3146 -1.2807 -0.4072
  376MOL0     O51774  11.442  -0.609   1.887 -0.2217  0.0186 -0.2281
  376MOL0     C51775  11.574  -0.576   1.895 -1.2404 -0.2596  0.5407
  376MOL0     C51776  11.648  -0.589   1.775  0.0315 -0.3966  0.0138
  376MOL0     C51777  11.789  -0.563   1.771 -0.0003  0.7707  0.2113
  376MOL0     C51778  11.852  -0.579   1.636 -0.0272  0.2845  0.3021
  376MOL0     C51779  11.850  -0.504   1.889 -0.0060  0.2933  0.1099
  376MOL0     C51780  11.993  -0.462   1.900  0.7087  0.1002  0.2134
  376MOL0     O51781  12.018  -0.396   2.011 -0.1318  0.3905 -0.1913
  376MOL0     C51782  12.146  -0.369   2.033 -0.3855 -0.2449 -0.7280
  376MOL0     C51783  12.240  -0.467   2.037 -0.1599 -0.3624  0.5963
  376MOL0     C51784  12.374  -0.438   2.075 -0.5037  0.3041  0.2628
  376MOL0     C51785  12.416  -0.308   2.107 -0.4796  0.2934  0.3686
  376MOL0     O51786  12.554  -0.292   2.136 -0.2310 -0.3507  0.6120
  376MOL0     C51787  12.628  -0.171   2.117  1.0082  0.0750  0.7223
  376MOL0     C51788  12.641  -0.134   1.973  0.1911 -0.4661 -0.2960
  376MOL0     C51789  12.739  -0.216   1.894 -0.0593  0.3227  0.9054
  376MOL0     C51790  12.889  -0.207   1.944 -1.2174  0.1768 -0.1600
  376MOL0     C51791  12.989  -0.296   1.859 -0.8442 -0.1487 -0.9964
  376MOL0     C51792  13.024  -0.230   1.722 -0.4184 -0.4173 -0.4280
  376MOL0     C51793  13.100  -0.326   1.630  0.6969 -0.1884  0.7943
  376MOL0     C51794  13.250  -0.341   1.657  0.3735  0.1597  0.1117
  376MOL0    Cl51795  13.315  -0.399   1.497  0.1968  0.0064  0.3363
  376MOL0     C51796  12.312  -0.203   2.105 -0.1296 -0.7375 -0.1482
  376MOL0     C51797  12.183  -0.237   2.058 -1.1281 -0.7947 -0.5000
  376MOL0     O51798  12.070  -0.466   1.804 -0.0715  0.4547 -0.4969
  376MOL0     C51799  11.761  -0.479   1.997  0.3122  0.5296  0.0890
  376MOL0     C51800  11.639  -0.529   2.004  0.6080 -0.1487  0.7801
  376MOL0     N51801  10.970  -0.327   2.289  0.4932  1.0460 -0.6079
  376MOL0     N51802  10.842  -0.325   2.335 -0.5159  0.1804 -0.3488
  376MOL0     C51803  10.443  -0.174   1.597 -1.1524 -0.4219  0.5582
  376MOL0     C51804  10.366  -0.198   1.483 -0.3601  0.3786  0.5214
  376MOL0     C51805  10.045  -0.103   1.150 -0.6559 -0.3530  0.0587
  376MOL0     C51806  10.080  -0.211   1.072 -1.0302 -0.0179 -0.2861
  376MOL0     C51807  10.001  -0.255   0.963  0.2507  0.1569  0.2142
  376MOL0     C51808   9.891  -0.178   0.923  0.2931 -0.9081 -0.2646
  376MOL0     O51809   9.803  -0.220   0.828  0.3821  0.8337  0.2239
  376MOL0     C51810   9.806  -0.351   0.778 -1.0845  0.3182 -0.1060
  376MOL0     C51811   9.699  -0.365   0.671  0.4856 -0.9062 -0.2023
  376MOL0     C51812   9.573  -0.288   0.693  0.6532 -0.8139  0.4072
  376MOL0     C51813   9.464  -0.317   0.586 -0.4251  0.5818  0.3761
  376MOL0     C51814   9.403  -0.449   0.605  0.2269 -0.3967 -0.1207
  376MOL0     C51815   9.341  -0.548   0.616  0.2652 -0.0997 -0.1531
  376MOL0     C51816   9.867  -0.059   0.991  0.1144  0.1513 -0.1372
  376MOL0     C51817   9.935  -0.021   1.108 -0.5707  0.0834 -0.0324
  376MOL0     C51818   9.883   0.102   1.183 -0.1812 -0.6338  0.2364
  376MOL0     H51819  10.103   0.011   1.540  0.1650  0.2483 -0.2279
  376MOL0     H51820  10.227   0.057   1.737 -1.6698  0.1455 -1.4256
  376MOL0     H51821  10.315   0.039   1.932 -1.6723  2.7300 -0.8915
  376MOL0     H51822  10.414   0.153   1.841  2.8093  0.8136  2.6767
  376MOL0     H51823  10.608   0.127   1.970  0.1340  1.2008  1.5524
  376MOL0     H51824  10.470   0.167   2.071 -0.7438 -1.0868  1.3301
  376MOL0     H51825  10.596  -0.108   2.020  2.5159  1.0684  1.8956
  376MOL0     H51826  10.620  -0.002   2.159  0.9044 -0.8926  0.4136
  376MOL0     H51827  10.385  -0.037   2.229  0.4792  1.6164 -0.9725
  376MOL0     H51828  10.345  -0.127   2.080 -0.2012 -0.7485 -0.9646
  376MOL0     H51829  10.377  -0.276   2.285  0.1819 -1.1653  0.7214
  376MOL0     H51830  10.538  -0.214   2.313  0.8443 -0.7008 -1.0259
  376MOL0     H51831  10.461  -0.361   2.060  0.7198  3.7405  0.0456
  376MOL0     H51832  10.623  -0.309   2.109  0.6469 -1.5846  0.9823
  376MOL0     H51833  10.602  -0.552   2.140 -2.0787  0.5235 -1.9767
  376MOL0     H51834  10.452  -0.513   2.238 -0.0766  1.2074  1.1344
  376MOL0     H51835  10.599  -0.407   2.399  1.4506  0.3660  1.7911
  376MOL0     H51836  10.662  -0.567   2.388 -1.2948  2.6910  3.2687
  376MOL0     H51837  10.846  -0.609   2.167 -0.9686 -0.0036 -0.1433
  376MOL0     H51838  11.192  -0.498   2.211  0.4275  1.1499  0.5254
  376MOL0     H51839  11.147  -0.413   2.067  0.7944  0.5076  1.7118
  376MOL0     H51840  11.117  -0.711   2.143 -1.2608 -0.6828 -0.1858
  376MOL0     H51841  11.009  -0.639   2.019  0.8269  1.0166 -1.1593
  376MOL0     H51842  11.210  -0.734   1.913 -0.8595 -0.1881  0.6705
  376MOL0     H51843  11.192  -0.565   1.881  2.5418  0.9814  1.1423
  376MOL0     H51844  11.361  -0.499   2.045  0.9068 -1.3278 -0.3262
  376MOL0     H51845  11.394  -0.670   2.078 -1.9661  0.7676  2.4451
  376MOL0     H51846  11.590  -0.623   1.690 -0.4778  0.9354 -0.2036
  376MOL0     H51847  11.785  -0.615   1.557  1.8256  0.6100 -1.5188
  376MOL0     H51848  11.935  -0.649   1.652 -1.0251 -2.3884 -4.3752
  376MOL0     H51849  11.890  -0.487   1.592 -2.7613  0.0978 -2.9095
  376MOL0     H51850  12.204  -0.567   2.016 -2.0252  0.4775 -0.5409
  376MOL0     H51851  12.451  -0.513   2.067  0.9550  1.9238 -1.7192
  376MOL0     H51852  12.579  -0.089   2.170  0.7726  0.2155  0.2954
  376MOL0     H51853  12.726  -0.173   2.165  1.8272 -0.0493 -0.8700
  376MOL0     H51854  12.543  -0.143   1.925 -0.3277  0.1922  0.6277
  376MOL0     H51855  12.664  -0.028   1.960 -0.6553 -0.4231 -1.7670
  376MOL0     H51856  12.738  -0.168   1.795  0.3651  5.5064  3.0845
  376MOL0     H51857  12.703  -0.319   1.887 -2.3050  1.1019  0.0206
  376MOL0     H51858  12.888  -0.238   2.049  0.9477  0.9435  0.1300
  376MOL0     H51859  12.912  -0.100   1.938 -2.8240  0.7378  2.1866
  376MOL0     H51860  13.084  -0.322   1.907  0.1016 -2.3277 -3.7515
  376MOL0     H51861  12.936  -0.391   1.854 -0.8935 -0.5538  3.3146
  376MOL0     H51862  13.090  -0.144   1.734 -1.4979  0.5052 -0.9038
  376MOL0     H51863  12.932  -0.205   1.668  1.2788  1.4533 -2.6499
  376MOL0     H51864  13.093  -0.283   1.529 -0.5929 -2.0701  0.0244
  376MOL0     H51865  13.042  -0.418   1.622 -1.4984  0.9717  2.1258
  376MOL0     H51866  13.260  -0.407   1.744  2.9694 -0.4781 -0.5750
  376MOL0     H51867  13.305  -0.247   1.667 -0.4133  0.4435  2.2782
  376MOL0     H51868  12.347  -0.106   2.138 -1.9673 -0.6044  1.5883
  376MOL0     H51869  12.099  -0.168   2.049 -0.3371  0.0981 -1.2266
  376MOL0     H51870  11.801  -0.439   2.090 -0.9752 -1.5223  1.5930
  376MOL0     H51871  11.579  -0.517   2.094 -0.3324 -0.5981  0.2247
  376MOL0     H51872  10.531  -0.235   1.614 -1.8083 -1.8696 -0.9414
  376MOL0     H51873  10.414  -0.267   1.414 -0.5319 -0.0423  0.8131
  376MOL0     H51874  10.162  -0.274   1.106 -2.6699 -0.9073  2.3149
  376MOL0     H51875  10.019  -0.353   0.919  1.1565 -0.1060  1.1136
  376MOL0     H51876   9.901  -0.372   0.729 -1.6861  0.6763 -1.4529
  376MOL0     H51877   9.787  -0.422   0.859  0.1428  3.1391  2.8958
  376MOL0     H51878   9.668  -0.470   0.667  0.2484 -0.8407 -0.1374
  376MOL0     H51879   9.742  -0.338   0.575  0.2426 -0.5180 -0.2043
  376MOL0     H51880   9.531  -0.305   0.793 -1.2418  0.0547 -0.1954
  376MOL0     H51881   9.605  -0.183   0.696  0.7757 -0.7272 -2.2318
  376MOL0     H51882   9.524  -0.340   0.497 -0.5249  2.0227 -0.0876
  376MOL0     H51883   9.389  -0.238   0.575 -1.3531 -0.3490 -0.1007
  376MOL0     H51884   9.283  -0.637   0.626 -0.5737  0.4782  0.1982
  376MOL0     H51885   9.777  -0.005   0.963 -1.1006 -1.7940 -0.2574
  376MOL0     H51886   9.961   0.178   1.193  1.1776 -1.9380 -0.1168
  376MOL0     H51887   9.802   0.150   1.128  2.3727 -0.2151 -3.5381
  376MOL0     H51888   9.851   0.081   1.285 -0.0866  1.7177  0.7897
  377MOL0     O51889   4.919   6.168  10.646  0.3217  0.5730 -0.5860
  377MOL0     C51890   4.877   6.206  10.539 -0.0390 -0.6076  0.0257
  377MOL0     O51891   4.934   6.302  10.465 -1.1115  0.4689 -0.1863
  377MOL0     C51892   5.054   6.351  10.506  0.9486  1.1296 -0.3335
  377MOL0     C51893   5.179   6.303  10.456  0.0549 -0.6835  0.4492
  377MOL0     C51894   5.304   6.365  10.497 -0.0208  0.7936 -0.1343
  377MOL0     C51895   5.298   6.480  10.581 -0.3279  0.6972 -0.0470
  377MOL0     O51896   5.399   6.555  10.632  0.0594  0.3569 -0.3151
  377MOL0     C51897   5.533   6.506  10.613  0.4162  0.0559  0.0189
  377MOL0     C51898   5.629   6.584  10.699  0.0449  0.7791  0.1098
  377MOL0     C51899   5.769   6.539  10.669 -0.0038  0.8237 -0.2383
  377MOL0     C51900   5.871   6.612  10.758  0.6469  0.1597  0.3743
  377MOL0     C51901   6.011   6.580  10.719 -0.4870  0.4774  0.3666
  377MOL0     C51902   6.104   6.655  10.810  0.3874  0.3714  0.8687
  377MOL0     C51903   6.253   6.618  10.772  0.1490 -0.2100 -1.1154
  377MOL0     C51904   6.357   6.704  10.828 -0.3576 -0.7031  0.0899
  377MOL0     N51905   6.493   6.680  10.779 -0.0655 -0.3940 -0.2463
  377MOL0     C51906   6.545   6.556  10.780  0.2515  0.0185  0.3523
  377MOL0     C51907   6.673   6.584  10.759  0.0514 -1.4835 -0.7193
  377MOL0     C51908   6.763   6.471  10.747  0.7678  0.2721 -0.1088
  377MOL0     C51909   6.912   6.514  10.735  0.9407 -1.1235 -0.2182
  377MOL0     C51910   6.982   6.386  10.695 -1.0189 -0.0186  0.1394
  377MOL0     C51911   7.127   6.408  10.650 -0.1858  0.4335  0.4760
  377MOL0     O51912   7.158   6.284  10.584  1.3889  0.9031  0.6347
  377MOL0     C51913   7.279   6.277  10.516 -0.8392  0.4375 -0.5505
  377MOL0     C51914   7.318   6.147  10.478  0.6531 -0.1397  0.5225
  377MOL0     C51915   7.437   6.123  10.410  0.5760  0.5016 -0.2479
  377MOL0     C51916   7.462   5.976  10.356 -0.3884 -0.2424  0.5699
  377MOL0     C51917   7.525   6.224  10.386  0.9327 -0.6270  0.5630
  377MOL0     C51918   7.650   6.206  10.311 -0.3368  0.3347  0.1207
  377MOL0     O51919   7.668   6.290  10.206  0.5659  0.3046  0.4848
  377MOL0     C51920   7.781   6.292  10.133 -0.1097  0.4533  0.4576
  377MOL0     C51921   7.907   6.314  10.191  0.0902 -0.1063 -0.1991
  377MOL0     C51922   8.028   6.317  10.120 -0.1700 -0.0871 -0.0355
  377MOL0     C51923   8.018   6.300   9.979  0.1613 -0.2087 -0.2976
  377MOL0     O51924   8.127   6.305   9.888 -0.2628  0.0938 -1.3683
  377MOL0     C51925   8.249   6.322   9.948 -0.6471  0.5671 -0.2098
  377MOL0     C51926   8.364   6.311   9.839 -1.3758 -1.1595  0.7831
  377MOL0     C51927   8.508   6.351   9.888 -0.5298  0.7553  0.2683
  377MOL0     C51928   8.576   6.218   9.928 -0.7700 -0.0987 -0.3281
  377MOL0     C51929   8.729   6.234   9.965  0.3147  0.0238 -0.5104
  377MOL0     C51930   8.729   6.287  10.110 -0.0832  0.0992 -0.6324
  377MOL0     C51931   8.863   6.319  10.181 -0.3179 -0.9438  0.4376
  377MOL0     C51932   8.931   6.446  10.128  0.6823 -0.0312  0.4012
  377MOL0    Cl51933   8.814   6.585  10.134 -0.1728  0.0812  0.3853
  377MOL0     C51934   7.895   6.276   9.920  0.1602  0.1971 -0.6845
  377MOL0     C51935   7.775   6.278   9.992 -0.7835 -0.9565 -0.2560
  377MOL0     O51936   7.733   6.125  10.351 -0.2026 -0.0335 -0.0669
  377MOL0     C51937   7.487   6.353  10.419 -0.0624 -0.5001 -0.1839
  377MOL0     C51938   7.373   6.375  10.481 -0.0355  0.3632  0.1145
  377MOL0     N51939   6.693   6.723  10.744 -0.4215  0.2670 -0.1008
  377MOL0     N51940   6.585   6.779  10.771 -0.7282  0.2859  0.4172
  377MOL0     C51941   5.174   6.525  10.632 -0.5738  0.7092 -0.5751
  377MOL0     C51942   5.058   6.464  10.592  0.0068  0.1941  0.5697
  377MOL0     C51943   4.744   6.158  10.491  0.0152  0.1176  1.0269
  377MOL0     C51944   4.669   6.228  10.392  0.2776 -0.1776  0.2653
  377MOL0     C51945   4.537   6.196  10.342  0.6514  0.3396 -0.0507
  377MOL0     C51946   4.477   6.083  10.400 -0.9260  0.1855  0.6977
  377MOL0     O51947   4.364   6.030  10.353  0.2147  0.0329  0.9177
  377MOL0     C51948   4.257   6.033  10.448  0.5802  0.2693  0.8878
  377MOL0     C51949   4.122   6.004  10.379 -0.3220 -0.0027 -0.0409
  377MOL0     C51950   4.073   6.137  10.319  0.0661  0.2164  0.0524
  377MOL0     C51951   4.026   6.262  10.408  0.3935  0.2125 -0.2376
  377MOL0     C51952   4.141   6.349  10.452 -0.2912  0.2477 -0.2638
  377MOL0     C51953   4.233   6.426  10.472 -0.3305  1.0399 -0.4221
  377MOL0     C51954   4.541   6.022  10.504 -0.9623 -0.4304  0.8308
  377MOL0     C51955   4.669   6.051  10.547 -0.4714 -0.7266  0.2163
  377MOL0     C51956   4.737   5.962  10.657 -0.3890 -0.3562  0.5718
  377MOL0     H51957   5.186   6.219  10.388  1.4237 -0.5818  0.4327
  377MOL0     H51958   5.396   6.318  10.463  0.5026  2.8777 -1.8248
  377MOL0     H51959   5.572   6.526  10.513  1.7435 -0.5605  0.3898
  377MOL0     H51960   5.540   6.402  10.646  2.2284  0.2069  0.2253
  377MOL0     H51961   5.607   6.691  10.691 -1.0459  0.6255  0.8089
  377MOL0     H51962   5.619   6.558  10.805  1.2319 -1.1320 -0.1999
  377MOL0     H51963   5.779   6.430  10.673  0.8492  0.9399  2.4318
  377MOL0     H51964   5.788   6.577  10.568  0.2277 -0.1302 -0.5677
  377MOL0     H51965   5.854   6.720  10.760 -0.0201  0.0611  0.2660
  377MOL0     H51966   5.852   6.585  10.862 -0.0602  1.0466  0.4909
  377MOL0     H51967   6.022   6.614  10.616  0.5424 -2.0365 -0.4486
  377MOL0     H51968   6.031   6.472  10.713  1.4759  0.8600 -0.8989
  377MOL0     H51969   6.087   6.763  10.810 -2.0918  0.0954 -1.6231
  377MOL0     H51970   6.086   6.627  10.915  0.3978  2.8587  1.6034
  377MOL0     H51971   6.265   6.630  10.663  0.8571  0.8975 -0.9284
  377MOL0     H51972   6.266   6.512  10.797 -0.9786 -0.8431 -2.9561
  377MOL0     H51973   6.329   6.806  10.803  1.1009  0.3760  2.5423
  377MOL0     H51974   6.358   6.702  10.937  0.0478  1.5003  0.1532
  377MOL0     H51975   6.507   6.456  10.800 -2.0271  1.2995  3.1486
  377MOL0     H51976   6.733   6.410  10.662  1.4120 -1.4666  0.8596
  377MOL0     H51977   6.753   6.413  10.839  3.2097 -0.3739 -0.1891
  377MOL0     H51978   6.930   6.584  10.652  0.6186  0.4313  0.9733
  377MOL0     H51979   6.936   6.559  10.831 -1.6822  0.7204 -0.3237
  377MOL0     H51980   6.971   6.315  10.777 -1.8171 -0.9887 -0.7902
  377MOL0     H51981   6.937   6.338  10.608 -0.5890  0.9041 -0.6144
  377MOL0     H51982   7.118   6.491  10.580 -3.3962 -0.5353 -0.4332
  377MOL0     H51983   7.200   6.419  10.730  1.1147 -2.7328 -0.1112
  377MOL0     H51984   7.246   6.066  10.490 -1.1175  1.0371 -1.3435
  377MOL0     H51985   7.567   5.949  10.376 -0.4308 -0.9225 -0.0968
  377MOL0     H51986   7.462   5.979  10.247 -0.1523 -0.5408  0.5610
  377MOL0     H51987   7.397   5.894  10.387 -0.3920 -0.5770 -0.2836
  377MOL0     H51988   7.912   6.329  10.299  0.9818  0.7005 -0.3323
  377MOL0     H51989   8.115   6.345  10.178 -0.7351 -0.9009  1.2564
  377MOL0     H51990   8.255   6.423   9.991  2.5672  1.0030 -1.3280
  377MOL0     H51991   8.285   6.253  10.025  4.2785  0.4520 -2.1884
  377MOL0     H51992   8.369   6.213   9.792  0.3565 -0.2538 -1.0493
  377MOL0     H51993   8.342   6.370   9.750  2.1086 -3.4890 -1.8685
  377MOL0     H51994   8.506   6.431   9.963  0.4881 -0.4155  1.6174
  377MOL0     H51995   8.568   6.383   9.802 -2.8804  1.0018 -1.3565
  377MOL0     H51996   8.573   6.158   9.836 -3.7358  0.9457 -1.0126
  377MOL0     H51997   8.524   6.155  10.000  1.0670 -1.6335 -0.2707
  377MOL0     H51998   8.783   6.140   9.949  0.3477 -0.0601  0.0625
  377MOL0     H51999   8.786   6.301   9.901  0.0573 -0.7575 -1.5816
  377MOL0     H52000   8.682   6.205  10.165 -0.5098 -0.5617 -1.9363
  377MOL0     H52001   8.664   6.375  10.117  3.0087  2.4678  1.2398
  377MOL0     H52002   8.938   6.244  10.156  2.7521  2.5372 -1.8908
  377MOL0     H52003   8.863   6.318  10.290 -0.7185  1.8897  0.5597
  377MOL0     H52004   8.961   6.426  10.024  1.3401 -0.6296  0.7000
  377MOL0     H52005   9.023   6.468  10.183 -1.2276  0.6090  3.6007
  377MOL0     H52006   7.889   6.265   9.812 -0.3797 -2.3734 -0.4556
  377MOL0     H52007   7.682   6.273   9.937 -1.8740 -1.7287  1.5583
  377MOL0     H52008   7.556   6.433  10.394 -1.1087  0.2869 -0.6015
  377MOL0     H52009   7.351   6.479  10.502  0.2801  0.4319  0.1196
  377MOL0     H52010   5.164   6.589  10.719 -2.4385 -0.0630 -0.1705
  377MOL0     H52011   4.977   6.516  10.641  1.8156  1.5140  2.3597
  377MOL0     H52012   4.725   6.309  10.346  0.9325 -1.1233 -0.6348
  377MOL0     H52013   4.495   6.245  10.255  1.6549 -2.0268 -1.9963
  377MOL0     H52014   4.271   5.945  10.512  0.8619 -0.2768  0.0861
  377MOL0     H52015   4.263   6.124  10.509  2.5207 -0.8576  2.5060
  377MOL0     H52016   4.054   5.972  10.458 -0.5571  0.9919  0.1698
  377MOL0     H52017   4.126   5.931  10.298  2.8669  1.8243 -1.7329
  377MOL0     H52018   4.139   6.168  10.238  1.6372 -0.2785  1.0898
  377MOL0     H52019   3.980   6.110  10.269  0.2743 -0.5588  0.0775
  377MOL0     H52020   3.977   6.229  10.500  1.4267 -1.2840 -0.1885
  377MOL0     H52021   3.959   6.330  10.355  0.1311 -0.8870 -1.3652
  377MOL0     H52022   4.328   6.474  10.483  0.0167  0.4331 -0.7416
  377MOL0     H52023   4.490   5.929  10.526 -0.5207 -1.3724 -1.7297
  377MOL0     H52024   4.684   5.873  10.692 -0.6959  0.2593  1.7391
  377MOL0     H52025   4.826   5.914  10.615 -1.1762 -0.9008 -0.5118
  377MOL0     H52026   4.753   6.024  10.746 -2.9547 -1.0068  1.5907
  378MOL0     O52027   8.157   6.537   4.442  0.6767 -0.3979 -0.1581
  378MOL0     C52028   8.178   6.430   4.396  0.6264  0.4550  0.7964
  378MOL0     O52029   8.298   6.359   4.410 -0.1011  0.0301  0.0355
  378MOL0     C52030   8.394   6.413   4.499 -0.0406  0.1000 -0.1319
  378MOL0     C52031   8.359   6.464   4.628  0.4436 -0.2740 -1.2524
  378MOL0     C52032   8.458   6.508   4.717 -0.2659 -0.3707 -0.3515
  378MOL0     C52033   8.593   6.503   4.692  0.4158 -0.2779  0.2427
  378MOL0     O52034   8.682   6.534   4.790  0.0325  0.5214  0.0507
  378MOL0     C52035   8.821   6.530   4.764  0.3741 -0.4020 -0.1461
  378MOL0     C52036   8.881   6.489   4.901 -0.3603  0.3455 -0.2612
  378MOL0     C52037   8.817   6.373   4.987  0.5112 -0.0617  0.4401
  378MOL0     C52038   8.928   6.302   5.073  0.1380 -0.0029  0.4179
  378MOL0     C52039   8.958   6.154   5.046  1.1890  0.7625 -0.1219
  378MOL0     C52040   8.876   6.059   5.138 -0.3932  0.1612  0.6095
  378MOL0     C52041   8.937   5.923   5.119 -0.1645 -1.1049 -0.3577
  378MOL0     C52042   8.849   5.817   5.183 -0.3563 -0.8983  0.0408
  378MOL0     N52043   8.916   5.686   5.202  0.3833 -0.0794  1.1218
  378MOL0     C52044   8.975   5.618   5.093  0.7691  0.4634  0.6062
  378MOL0     C52045   9.035   5.508   5.155  0.5971 -0.3803 -0.2161
  378MOL0     C52046   9.111   5.397   5.078  0.1703  0.3757  0.1912
  378MOL0     C52047   9.016   5.281   5.035  0.1435  0.6968 -0.4886
  378MOL0     C52048   8.931   5.318   4.914 -0.0502  0.4106  1.2293
  378MOL0     C52049   8.805   5.228   4.923  0.3496 -0.3079 -0.1964
  378MOL0     O52050   8.828   5.099   4.887 -0.1982  0.8014 -0.2368
  378MOL0     C52051   8.732   5.005   4.869  0.0226 -0.7004 -0.7350
  378MOL0     C52052   8.766   4.874   4.876 -0.1968 -0.3743 -0.0113
  378MOL0     C52053   8.679   4.770   4.852 -0.0944  0.2165  0.4413
  378MOL0     C52054   8.739   4.629   4.859 -0.4159 -0.3129  0.4334
  378MOL0     C52055   8.543   4.793   4.830 -0.7362 -0.4403 -0.4327
  378MOL0     C52056   8.440   4.682   4.802 -0.2638  0.1224  0.1105
  378MOL0     O52057   8.323   4.730   4.747 -0.1802  0.4706  0.4296
  378MOL0     C52058   8.206   4.665   4.728  0.4170  1.4793  0.3582
  378MOL0     C52059   8.089   4.747   4.694 -0.6376 -0.2939  0.0373
  378MOL0     C52060   7.967   4.685   4.681  0.1223  0.1741  0.1755
  378MOL0     C52061   7.959   4.547   4.691 -0.2997  0.0662  0.6906
  378MOL0     O52062   7.839   4.487   4.669  0.0394 -0.6128 -0.8166
  378MOL0     C52063   7.780   4.508   4.546  1.1117 -0.3225  0.5387
  378MOL0     C52064   7.738   4.374   4.486 -0.2131  0.3741  0.3078
  378MOL0     C52065   7.863   4.297   4.438 -0.1043  0.5218 -0.1646
  378MOL0     C52066   7.831   4.155   4.381 -0.4178 -0.1320  0.5581
  378MOL0     C52067   7.763   4.070   4.489 -0.4045 -0.6184  0.4231
  378MOL0     C52068   7.746   3.925   4.445  0.4111 -0.1461 -0.3422
  378MOL0     C52069   7.879   3.850   4.405  0.1626 -0.3519  0.1905
  378MOL0     C52070   7.879   3.711   4.461 -0.1163  0.7740  0.7166
  378MOL0    Cl52071   7.737   3.616   4.373  0.3113 -0.0510 -0.3552
  378MOL0     C52072   8.066   4.466   4.721 -0.0337  0.1032  0.1834
  378MOL0     C52073   8.191   4.529   4.731 -0.2021  1.2117  0.1223
  378MOL0     O52074   8.456   4.573   4.854  0.7637  0.5320 -0.4676
  378MOL0     C52075   8.508   4.928   4.824  0.1897 -0.0912 -0.1515
  378MOL0     C52076   8.596   5.037   4.850  0.9670  0.0660  0.3094
  378MOL0     N52077   9.015   5.516   5.288  0.2670  0.1147 -0.1092
  378MOL0     N52078   8.930   5.619   5.318 -0.2042 -0.3345  0.0382
  378MOL0     C52079   8.625   6.452   4.558 -0.4554  0.4486  0.9321
  378MOL0     C52080   8.527   6.415   4.462 -0.5979  0.2031  0.3197
  378MOL0     C52081   8.070   6.364   4.317 -0.6781 -0.2281 -0.3325
  378MOL0     C52082   8.089   6.227   4.276  0.1376  0.0358 -0.4792
  378MOL0     C52083   7.987   6.154   4.219  0.6646 -0.5653 -0.6807
  378MOL0     C52084   7.862   6.210   4.186  0.2823  0.4438  0.6787
  378MOL0     O52085   7.769   6.133   4.124 -0.3948 -0.0051 -0.0048
  378MOL0     C52086   7.630   6.165   4.113 -0.6875  0.2858 -0.1175
  378MOL0     C52087   7.550   6.051   4.060 -0.0865  0.0098 -0.0715
  378MOL0     C52088   7.544   6.053   3.909 -0.7816  0.1712  0.3345
  378MOL0     C52089   7.446   5.943   3.867  0.0827 -0.4472  0.1211
  378MOL0     C52090   7.301   5.974   3.860  0.1501  0.5228  0.7175
  378MOL0     C52091   7.183   5.990   3.862 -0.0748  0.2111  0.6610
  378MOL0     C52092   7.839   6.343   4.224  0.0417 -0.7587 -0.8516
  378MOL0     C52093   7.937   6.421   4.296 -0.9327 -0.1068 -0.4307
  378MOL0     C52094   7.894   6.554   4.339  0.3073  0.4193 -0.8577
  378MOL0     H52095   8.257   6.482   4.659  0.8130 -1.3823  0.8048
  378MOL0     H52096   8.442   6.554   4.814  0.2026  1.7594 -1.2279
  378MOL0     H52097   8.880   6.614   4.726  1.9477 -0.8312  1.2612
  378MOL0     H52098   8.843   6.443   4.701  1.0048 -0.2667 -0.1163
  378MOL0     H52099   8.980   6.451   4.874 -0.5285 -0.6148  0.4240
  378MOL0     H52100   8.887   6.578   4.964  0.9205 -0.0694  0.2402
  378MOL0     H52101   8.734   6.405   5.051 -0.7281 -2.7015  0.2980
  378MOL0     H52102   8.783   6.297   4.916  0.3543  1.3600 -1.0732
  378MOL0     H52103   9.020   6.358   5.055 -0.3632  0.4179 -0.9749
  378MOL0     H52104   8.915   6.324   5.180  2.2206 -1.0944  0.9541
  378MOL0     H52105   9.064   6.138   5.069  0.6731  1.0130  2.8065
  378MOL0     H52106   8.940   6.133   4.940 -1.0478  2.7443 -0.2324
  378MOL0     H52107   8.888   6.090   5.243 -0.0346  0.0077  0.6135
  378MOL0     H52108   8.769   6.062   5.112 -1.0523 -1.4259  2.8113
  378MOL0     H52109   9.036   5.905   5.161 -0.0157 -1.5549 -0.8921
  378MOL0     H52110   8.942   5.900   5.012  0.7581 -1.7567 -0.1839
  378MOL0     H52111   8.838   5.854   5.286  1.4612  0.4638 -0.1957
  378MOL0     H52112   8.751   5.800   5.137 -1.0319  0.7016  0.7675
  378MOL0     H52113   8.967   5.646   4.989 -2.9894 -0.4321  0.4911
  378MOL0     H52114   9.187   5.352   5.143 -0.3698  0.0189  0.5897
  378MOL0     H52115   9.164   5.433   4.989  0.7350 -6.7178 -3.0539
  378MOL0     H52116   9.077   5.192   5.019 -0.9167 -0.6722  2.3835
  378MOL0     H52117   8.956   5.262   5.125 -1.6079  0.1450 -1.6967
  378MOL0     H52118   8.907   5.424   4.922  0.2371  0.6129 -0.2626
  378MOL0     H52119   8.986   5.310   4.820 -0.6301 -0.0801  0.9235
  378MOL0     H52120   8.754   5.229   5.020 -2.0101  1.7808 -1.3268
  378MOL0     H52121   8.729   5.264   4.853 -1.5616 -1.6527  1.0973
  378MOL0     H52122   8.871   4.848   4.880 -0.6955 -3.7203 -3.1774
  378MOL0     H52123   8.726   4.599   4.963  1.3057  0.7948  1.0046
  378MOL0     H52124   8.846   4.623   4.838 -0.8301 -0.2625 -2.0231
  378MOL0     H52125   8.690   4.554   4.796  2.3944 -0.4000 -1.8833
  378MOL0     H52126   8.104   4.855   4.701  0.8617 -0.4443 -0.3827
  378MOL0     H52127   7.876   4.744   4.669 -0.9860 -0.8724  2.6737
  378MOL0     H52128   7.689   4.567   4.557  1.1755  0.0683 -0.8730
  378MOL0     H52129   7.850   4.562   4.482 -0.6549  1.7022  0.2105
  378MOL0     H52130   7.685   4.317   4.563  0.9971 -2.1009 -0.5512
  378MOL0     H52131   7.670   4.394   4.403 -0.6252  0.6898  0.7202
  378MOL0     H52132   7.953   4.302   4.500  0.4742 -0.0138 -0.9423
  378MOL0     H52133   7.905   4.350   4.353  0.0181  0.9336  0.1518
  378MOL0     H52134   7.918   4.098   4.348 -1.4844 -2.1542  1.0896
  378MOL0     H52135   7.758   4.166   4.300  2.8029 -0.4167 -2.6023
  378MOL0     H52136   7.824   4.076   4.579  0.6199  0.6638 -0.3228
  378MOL0     H52137   7.660   4.103   4.508 -1.3380 -2.5158 -0.8679
  378MOL0     H52138   7.668   3.917   4.368  0.5878 -3.4321 -0.3275
  378MOL0     H52139   7.700   3.879   4.533 -2.0895  0.9752 -0.9790
  378MOL0     H52140   7.969   3.895   4.449 -0.4106  0.0148  1.0101
  378MOL0     H52141   7.892   3.835   4.297 -0.4098 -0.8487  0.1880
  378MOL0     H52142   7.873   3.705   4.570  3.0751 -3.2905  0.9095
  378MOL0     H52143   7.977   3.673   4.431  0.1454  2.7657 -1.2227
  378MOL0     H52144   8.053   4.359   4.731  4.6421 -0.8645 -1.7542
  378MOL0     H52145   8.272   4.462   4.756 -0.4355  1.3878  1.4175
  378MOL0     H52146   8.407   4.961   4.805  1.1921  2.2563 -1.8875
  378MOL0     H52147   8.556   5.137   4.862 -0.2334 -0.4088  0.3677
  378MOL0     H52148   8.729   6.436   4.530 -0.3942  0.3823  1.1927
  378MOL0     H52149   8.551   6.354   4.376 -0.9720  0.7670 -0.1936
  378MOL0     H52150   8.191   6.194   4.295  0.8504  1.3595 -1.7794
  378MOL0     H52151   8.001   6.053   4.183 -2.4185 -0.9238 -1.1640
  378MOL0     H52152   7.598   6.171   4.218  0.2534 -4.9198  0.7163
  378MOL0     H52153   7.617   6.254   4.051 -0.7535  1.1754  1.1341
  378MOL0     H52154   7.452   6.073   4.103  1.3855  1.4886  2.8685
  378MOL0     H52155   7.592   5.956   4.092  3.6175  1.0669 -1.2595
  378MOL0     H52156   7.509   6.151   3.875  0.7914  0.6168 -0.0955
  378MOL0     H52157   7.643   6.036   3.865  0.0551  0.9425  1.8235
  378MOL0     H52158   7.462   5.854   3.928 -0.2941 -2.1716 -2.1455
  378MOL0     H52159   7.469   5.908   3.766  0.7285 -0.5359  0.2968
  378MOL0     H52160   7.077   5.983   3.878 -0.1246  1.3728  0.8844
  378MOL0     H52161   7.746   6.389   4.192 -0.1755 -0.9718 -0.5279
  378MOL0     H52162   7.789   6.583   4.334  0.6468  2.2957  1.2832
  378MOL0     H52163   7.907   6.558   4.448 -1.5433 -0.8630 -0.5454
  378MOL0     H52164   7.951   6.636   4.293 -0.0900  1.9846  1.2908
  379MOL0     O52165   9.068   9.036   0.658 -0.2188 -0.1606 -0.0369
  379MOL0     C52166   8.997   8.996   0.754  0.3708 -0.5288  0.4210
  379MOL0     O52167   9.044   8.988   0.886  0.0376 -0.0162 -0.4016
  379MOL0     C52168   9.176   8.967   0.908  0.3217  0.0853  0.4042
  379MOL0     C52169   9.235   8.859   0.853 -0.8083 -0.5000  0.8483
  379MOL0     C52170   9.367   8.828   0.887 -0.3273  0.1563  0.7882
  379MOL0     C52171   9.445   8.916   0.965  0.6383  0.0225  0.0164
  379MOL0     O52172   9.577   8.891   0.988 -0.2803  0.0997 -0.2425
  379MOL0     C52173   9.673   8.981   0.927 -0.4365  0.7594 -0.0498
  379MOL0     C52174   9.715   9.096   1.019  0.9574 -0.0531 -0.1260
  379MOL0     C52175   9.844   9.177   0.976 -0.1987  1.1446  0.6023
  379MOL0     C52176   9.879   9.289   1.057 -0.3570 -0.2510 -0.4566
  379MOL0     C52177   9.983   9.384   1.000  0.4848 -0.0445 -0.3758
  379MOL0     C52178   9.917   9.469   0.888  0.1871 -0.6723 -0.3215
  379MOL0     C52179  10.026   9.581   0.844  0.4159  0.3098 -0.3127
  379MOL0     C52180  10.151   9.522   0.785  0.0368 -0.9496 -0.1206
  379MOL0     N52181  10.243   9.611   0.714  0.7134 -0.3819  0.2534
  379MOL0     C52182  10.286   9.734   0.751 -0.0065  0.6753  0.9068
  379MOL0     C52183  10.387   9.768   0.669  0.7460 -0.4769 -0.7861
  379MOL0     C52184  10.486   9.882   0.696  0.4152 -0.2925 -0.3940
  379MOL0     C52185  10.625   9.827   0.714  0.1653  0.0127 -0.4332
  379MOL0     C52186  10.718   9.950   0.744  0.1389 -0.1280 -0.2047
  379MOL0     C52187  10.780  10.012   0.618 -0.4189 -0.1092 -0.7332
  379MOL0     O52188  10.851   9.919   0.531  0.3650 -0.6256  0.3596
  379MOL0     C52189  10.988   9.935   0.525 -0.3897 -0.1663  0.1883
  379MOL0     C52190  11.066   9.906   0.639 -0.2300 -0.2087  0.7932
  379MOL0     C52191  11.207   9.914   0.629  0.7205  0.6848 -0.0549
  379MOL0     C52192  11.273   9.885   0.762 -0.0205  0.5536 -0.6407
  379MOL0     C52193  11.266   9.968   0.510  0.1441 -0.5093  0.2440
  379MOL0     C52194  11.406   9.989   0.481  0.0060 -0.3098 -0.6679
  379MOL0     O52195  11.440  10.060   0.369  0.2627 -1.3141  0.5085
  379MOL0     C52196  11.578  10.064   0.340  0.4354  0.4744  0.4463
  379MOL0     C52197  11.646  10.163   0.408 -0.5068 -0.2843 -0.4771
  379MOL0     C52198  11.780  10.192   0.374  0.3443  0.0339 -0.0596
  379MOL0     C52199  11.848  10.116   0.272 -0.7675  0.6650 -0.1236
  379MOL0     O52200  11.980  10.135   0.238 -0.2939  0.0372 -0.4993
  379MOL0     C52201  12.074  10.198   0.329 -0.9344  0.0524 -0.0683
  379MOL0     C52202  12.206  10.128   0.308 -0.5391  0.1884  0.1225
  379MOL0     C52203  12.260  10.142   0.168  0.4654  0.5588  0.4632
  379MOL0     C52204  12.412  10.128   0.173  0.8403  0.0205 -0.8745
  379MOL0     C52205  12.474  10.156   0.035 -0.3201 -0.7243 -0.0768
  379MOL0     C52206  12.619  10.111   0.024  0.5854  0.1910 -0.1801
  379MOL0     C52207  12.657  10.066  -0.117  0.4172  0.0475  0.4987
  379MOL0     C52208  12.806  10.080  -0.143 -0.2115  0.5975  0.6874
  379MOL0    Cl52209  12.896   9.987  -0.022  0.6050 -0.0543 -0.1482
  379MOL0     C52210  11.771  10.022   0.199  0.2490  0.2700 -0.4539
  379MOL0     C52211  11.633   9.995   0.237 -0.2190 -0.0461 -0.7196
  379MOL0     O52212  11.488   9.933   0.552 -0.7609 -0.8833 -0.7365
  379MOL0     C52213  11.178   9.995   0.395  0.7964  0.2664 -0.2819
  379MOL0     C52214  11.035   9.973   0.399 -1.1087  0.2466 -0.1713
  379MOL0     N52215  10.393   9.675   0.569 -0.3941 -0.1836 -0.7075
  379MOL0     N52216  10.309   9.577   0.600  0.1753 -0.0531  0.7463
  379MOL0     C52217   9.379   9.029   1.017  0.3576  0.4469 -0.2499
  379MOL0     C52218   9.248   9.057   0.983 -0.2941  0.5781  0.0156
  379MOL0     C52219   8.855   8.966   0.723  0.8323 -0.1141  0.7467
  379MOL0     C52220   8.780   8.909   0.831  0.3830 -0.0360 -0.2431
  379MOL0     C52221   8.651   8.869   0.807 -0.5590  0.3701 -0.2246
  379MOL0     C52222   8.576   8.890   0.699 -0.4361 -0.9821  1.4563
  379MOL0     O52223   8.442   8.854   0.677  0.7375  0.2679  0.0097
  379MOL0     C52224   8.356   8.864   0.795  1.0703  0.3807  0.4177
  379MOL0     C52225   8.224   8.793   0.769 -0.5552 -0.1799 -0.5547
  379MOL0     C52226   8.159   8.841   0.644 -0.8008  0.5648  0.1972
  379MOL0     C52227   8.027   8.743   0.628 -0.8057 -0.1664 -0.5850
  379MOL0     C52228   7.977   8.771   0.492  0.5691 -0.3023  0.6477
  379MOL0     C52229   7.947   8.786   0.371  0.5716  0.6431 -0.5374
  379MOL0     C52230   8.649   8.951   0.592  0.1948  0.7518 -0.1968
  379MOL0     C52231   8.787   8.990   0.600  0.5306 -0.2588 -0.2113
  379MOL0     C52232   8.850   9.062   0.478  0.3140 -0.1017  0.1124
  379MOL0     H52233   9.181   8.798   0.782  1.2787 -2.5223  0.8544
  379MOL0     H52234   9.426   8.749   0.841  1.4681  3.4339 -3.2606
  379MOL0     H52235   9.646   9.017   0.827 -3.1798 -0.9812 -0.0628
  379MOL0     H52236   9.760   8.917   0.907  0.2619  1.3267  1.0464
  379MOL0     H52237   9.636   9.172   1.020 -0.9666 -1.9277  2.2802
  379MOL0     H52238   9.722   9.055   1.120 -0.5159 -2.1407 -0.8079
  379MOL0     H52239   9.924   9.103   0.978 -2.1264 -1.1773 -1.2287
  379MOL0     H52240   9.839   9.204   0.871  3.8366 -1.5928 -0.5585
  379MOL0     H52241   9.785   9.344   1.067 -2.2901 -2.9970 -2.2193
  379MOL0     H52242   9.920   9.253   1.152  0.7117  1.7142 -0.1132
  379MOL0     H52243  10.064   9.319   0.964  0.5025 -0.1063 -0.2254
  379MOL0     H52244  10.035   9.450   1.070  0.8849  0.1651 -0.8637
  379MOL0     H52245   9.896   9.410   0.799  2.6829  0.7430 -1.9615
  379MOL0     H52246   9.825   9.519   0.922  1.8254  1.1766  1.6592
  379MOL0     H52247  10.048   9.649   0.926  0.7312  3.1470 -2.5735
  379MOL0     H52248  10.000   9.643   0.757  0.3811 -0.5690 -0.9442
  379MOL0     H52249  10.212   9.494   0.872 -0.8506  0.1345  0.8887
  379MOL0     H52250  10.126   9.441   0.715  1.3084 -1.3590 -0.1160
  379MOL0     H52251  10.264   9.785   0.845 -2.6354  1.9827 -0.3249
  379MOL0     H52252  10.459   9.931   0.790 -0.7740  1.6273 -1.6816
  379MOL0     H52253  10.485   9.960   0.620 -1.1100  0.1776  0.0582
  379MOL0     H52254  10.631   9.763   0.803  3.2089 -0.6727 -1.0281
  379MOL0     H52255  10.643   9.755   0.635 -1.1571 -2.2357  1.1857
  379MOL0     H52256  10.662  10.029   0.795 -1.9562 -1.5431 -0.1981
  379MOL0     H52257  10.795   9.920   0.816  0.1121 -0.3255 -0.2572
  379MOL0     H52258  10.700  10.045   0.551 -0.8863  0.6205  0.1620
  379MOL0     H52259  10.833  10.104   0.646  1.6866 -1.6637  0.6883
  379MOL0     H52260  11.017   9.877   0.731 -0.9238  2.0735  1.2066
  379MOL0     H52261  11.258   9.969   0.832 -0.6500 -0.4353  0.4554
  379MOL0     H52262  11.380   9.864   0.756  0.0398  0.8480 -0.6498
  379MOL0     H52263  11.229   9.799   0.814  2.3831 -1.4398 -1.7125
  379MOL0     H52264  11.601  10.225   0.485 -2.5968  1.9429 -3.2819
  379MOL0     H52265  11.821  10.283   0.417 -1.0674 -0.0531  1.5701
  379MOL0     H52266  12.085  10.303   0.303  2.7558 -0.1802  0.0671
  379MOL0     H52267  12.043  10.191   0.434  0.8851 -0.6971  0.4621
  379MOL0     H52268  12.277  10.164   0.383 -0.8313 -0.1766  0.5803
  379MOL0     H52269  12.182  10.022   0.321 -2.7877  0.3658 -1.8718
  379MOL0     H52270  12.223  10.233   0.120 -0.1739  0.4412  0.7217
  379MOL0     H52271  12.213  10.065   0.105 -0.8553  0.5149  1.4530
  379MOL0     H52272  12.441  10.026   0.200  1.7340  0.4843 -0.0199
  379MOL0     H52273  12.452  10.198   0.247 -1.8656  1.4844 -0.6328
  379MOL0     H52274  12.405  10.099  -0.029 -1.9372  0.5557  0.4574
  379MOL0     H52275  12.452  10.257  -0.002 -0.6056 -0.9231 -0.4689
  379MOL0     H52276  12.639  10.027   0.090  1.3151 -1.2560 -2.1590
  379MOL0     H52277  12.683  10.199   0.041  0.6962  0.3601 -1.4294
  379MOL0     H52278  12.601  10.131  -0.185  0.2801  0.1996  0.7522
  379MOL0     H52279  12.629   9.963  -0.139 -0.0665  0.3244 -0.2270
  379MOL0     H52280  12.836  10.185  -0.133 -2.0269  1.5824 -2.6413
  379MOL0     H52281  12.831  10.045  -0.244 -2.1184 -0.1072  0.4305
  379MOL0     H52282  11.814   9.958   0.122  0.4862 -1.3730  0.9685
  379MOL0     H52283  11.583   9.909   0.193 -2.4997  0.5718  0.5216
  379MOL0     H52284  11.214  10.036   0.301  3.4596 -0.8149  0.1870
  379MOL0     H52285  10.975   9.978   0.308  0.6725  1.9355 -1.3526
  379MOL0     H52286   9.430   9.096   1.086 -0.2490  1.8007 -1.0670
  379MOL0     H52287   9.203   9.151   1.013 -4.7108 -0.5128 -2.2426
  379MOL0     H52288   8.833   8.896   0.924 -0.0517  0.8433  0.1363
  379MOL0     H52289   8.599   8.813   0.884 -0.4934  1.7980  0.8833
  379MOL0     H52290   8.402   8.813   0.881 -0.7879 -1.8781  0.1897
  379MOL0     H52291   8.334   8.969   0.817 -0.4394  0.2697 -0.4165
  379MOL0     H52292   8.157   8.812   0.853  1.3790  2.7422  0.4795
  379MOL0     H52293   8.241   8.685   0.767  0.4477 -0.0852  1.1969
  379MOL0     H52294   8.123   8.944   0.650  0.9668  1.4320 -2.5385
  379MOL0     H52295   8.225   8.836   0.557 -0.7365 -0.4540  0.2899
  379MOL0     H52296   7.955   8.768   0.705  1.7633  3.3524  0.9734
  379MOL0     H52297   8.050   8.636   0.629  0.3818  0.0685  1.0300
  379MOL0     H52298   7.934   8.810   0.268 -0.5536 -1.9358 -1.0841
  379MOL0     H52299   8.589   8.974   0.504 -0.5578  2.0977  0.6402
  379MOL0     H52300   8.928   8.996   0.439 -0.1238 -0.1101 -0.7788
  379MOL0     H52301   8.774   9.079   0.401  0.5593  1.8391  0.2469
  379MOL0     H52302   8.894   9.160   0.501 -2.6490  0.9474  1.9277
  380MOL0     O52303   3.020   5.491   6.323 -0.3585  0.3066 -0.4647
  380MOL0     C52304   2.973   5.600   6.364  0.3789 -0.5287 -0.5577
  380MOL0     O52305   3.046   5.703   6.402 -0.2211  0.2669  0.0477
  380MOL0     C52306   3.183   5.697   6.376  0.3172  0.3323  0.2313
  380MOL0     C52307   3.237   5.751   6.258  0.4192 -1.4261 -0.3134
  380MOL0     C52308   3.374   5.739   6.239  0.5369  0.4733 -0.0469
  380MOL0     C52309   3.464   5.687   6.331  0.1694  0.2121 -0.1304
  380MOL0     O52310   3.598   5.663   6.311 -0.6012 -0.1567  0.4408
  380MOL0     C52311   3.664   5.700   6.182 -0.3476  0.7424  0.1177
  380MOL0     C52312   3.816   5.690   6.191  1.1067  0.7901  0.0436
  380MOL0     C52313   3.869   5.832   6.225  0.3240 -0.0700 -0.0532
  380MOL0     C52314   4.020   5.835   6.239 -0.8664  0.2606  0.4997
  380MOL0     C52315   4.070   5.974   6.227  0.2843  0.2351 -0.2482
  380MOL0     C52316   4.225   5.966   6.234  0.0969  0.7176 -0.2467
  380MOL0     C52317   4.283   6.099   6.255  0.1928 -0.6081  0.6311
  380MOL0     C52318   4.434   6.088   6.270 -0.1483 -0.0102  0.2003
  380MOL0     N52319   4.515   6.208   6.282  0.3841 -0.2553 -0.4561
  380MOL0     C52320   4.595   6.250   6.386  0.0357  0.2360  0.6722
  380MOL0     C52321   4.644   6.369   6.330 -0.1657 -0.8549  0.9454
  380MOL0     C52322   4.746   6.453   6.399  0.4129  0.1664 -0.0529
  380MOL0     C52323   4.881   6.420   6.331 -0.6503 -0.1967  0.7717
  380MOL0     C52324   5.004   6.505   6.387 -0.3077 -0.8891  0.0953
  380MOL0     C52325   4.971   6.653   6.399 -0.3867  0.6419  0.1808
  380MOL0     O52326   4.934   6.704   6.271  0.0973  0.6235  0.2346
  380MOL0     C52327   5.035   6.702   6.170  0.2318 -0.0715  0.0500
  380MOL0     C52328   5.009   6.638   6.043 -0.8725 -0.4477 -0.0978
  380MOL0     C52329   5.102   6.648   5.944  0.3065 -0.2094 -0.1805
  380MOL0     C52330   5.062   6.589   5.815 -0.2202  0.4152  0.0250
  380MOL0     C52331   5.229   6.706   5.974  0.3178 -0.4439 -0.0360
  380MOL0     C52332   5.332   6.722   5.872 -0.0264  0.7342  0.4733
  380MOL0     O52333   5.458   6.748   5.913 -0.9383  0.1980  0.3017
  380MOL0     C52334   5.558   6.731   5.819 -0.2120 -0.4131 -0.8423
  380MOL0     C52335   5.578   6.816   5.707  0.2828  0.3989  0.1580
  380MOL0     C52336   5.686   6.797   5.620  0.9820 -0.0762 -0.2820
  380MOL0     C52337   5.774   6.693   5.644 -0.1607 -0.3749 -0.2071
  380MOL0     O52338   5.883   6.673   5.569 -0.1216 -0.3065  0.6404
  380MOL0     C52339   5.975   6.777   5.550 -0.0475 -0.8028 -0.3212
  380MOL0     C52340   6.058   6.720   5.430 -0.6233  0.4224  0.2209
  380MOL0     C52341   6.170   6.824   5.387  0.5468  0.6308 -0.0534
  380MOL0     C52342   6.237   6.781   5.259  0.2517  0.3645 -0.0474
  380MOL0     C52343   6.361   6.868   5.234 -0.4496  0.6558 -0.1681
  380MOL0     C52344   6.442   6.829   5.101 -0.3398  0.6719 -0.3189
  380MOL0     C52345   6.579   6.891   5.078  0.4967 -0.8089 -0.6972
  380MOL0     C52346   6.568   7.031   4.994 -0.7539  0.4113  0.4908
  380MOL0    Cl52347   6.733   7.084   4.981  0.2249 -0.4116  0.0602
  380MOL0     C52348   5.748   6.601   5.743 -0.1598 -0.0483 -0.8397
  380MOL0     C52349   5.646   6.617   5.836 -0.1256  0.0976 -0.3232
  380MOL0     O52350   5.297   6.725   5.759  1.0840  0.3997  0.3501
  380MOL0     C52351   5.263   6.760   6.097 -0.5081  0.3048  0.7839
  380MOL0     C52352   5.165   6.753   6.194 -0.1756 -0.6385 -0.4608
  380MOL0     N52353   4.601   6.392   6.197 -0.3407  0.5907 -0.3424
  380MOL0     N52354   4.524   6.290   6.171  0.4616 -0.4813  0.7138
  380MOL0     C52355   3.405   5.654   6.458  0.6899  0.7865  0.4486
  380MOL0     C52356   3.264   5.651   6.470 -0.5291  0.3358  0.2688
  380MOL0     C52357   2.827   5.619   6.355 -0.6558 -0.4870 -0.1061
  380MOL0     C52358   2.782   5.739   6.290  0.0975 -0.2017  0.8606
  380MOL0     C52359   2.640   5.759   6.279 -0.2771  0.3572  0.6860
  380MOL0     C52360   2.545   5.677   6.344 -0.1989  0.8046  0.6723
  380MOL0     O52361   2.415   5.703   6.317  0.3351 -0.2859  0.1318
  380MOL0     C52362   2.357   5.611   6.224  0.2715  0.0940 -0.0542
  380MOL0     C52363   2.215   5.585   6.259  0.1412  0.5801  0.1159
  380MOL0     C52364   2.125   5.710   6.249 -0.8413  0.5248 -0.2094
  380MOL0     C52365   1.981   5.679   6.303 -0.0303  0.0606 -0.4606
  380MOL0     C52366   1.942   5.540   6.285 -0.2930  0.9818 -1.4561
  380MOL0     C52367   1.899   5.424   6.282 -0.2789 -0.3013 -0.7328
  380MOL0     C52368   2.589   5.566   6.416  0.4154  0.1922 -0.2378
  380MOL0     C52369   2.726   5.531   6.410 -0.2801  0.0495 -0.2186
  380MOL0     C52370   2.753   5.398   6.483  0.9742 -0.2324  0.0657
  380MOL0     H52371   3.185   5.785   6.169  1.2334  1.6436  0.2568
  380MOL0     H52372   3.423   5.773   6.148 -0.0315 -0.0498 -0.5591
  380MOL0     H52373   3.631   5.796   6.142 -2.4431 -0.0290 -0.1413
  380MOL0     H52374   3.625   5.624   6.114  0.3316  1.9214 -1.6544
  380MOL0     H52375   3.830   5.620   6.273  0.5145  0.6767  0.0465
  380MOL0     H52376   3.859   5.648   6.100 -0.8591 -1.9055  0.2482
  380MOL0     H52377   3.841   5.901   6.144 -1.3209  0.5984  1.0363
  380MOL0     H52378   3.821   5.878   6.311 -2.1262 -0.4227 -1.1453
  380MOL0     H52379   4.029   5.796   6.341  4.5170 -0.6929 -0.0390
  380MOL0     H52380   4.067   5.771   6.164  0.7255 -0.2856  1.9182
  380MOL0     H52381   4.027   6.025   6.313 -0.2263 -4.2245  2.4527
  380MOL0     H52382   4.043   6.014   6.129  0.6730 -0.2687 -0.5672
  380MOL0     H52383   4.263   5.898   6.311  0.5437  0.3112 -0.8183
  380MOL0     H52384   4.266   5.925   6.142 -0.8755 -3.3918  0.9388
  380MOL0     H52385   4.239   6.135   6.348  0.6545  0.3732  0.4887
  380MOL0     H52386   4.255   6.170   6.176 -2.4169 -1.1712  0.9677
  380MOL0     H52387   4.447   6.038   6.366  0.2197 -1.2260 -0.4602
  380MOL0     H52388   4.477   6.026   6.191  1.0974  1.1418 -0.0694
  380MOL0     H52389   4.614   6.210   6.485  0.1697  0.4337  0.7273
  380MOL0     H52390   4.754   6.426   6.504  2.3443  2.0026  0.3265
  380MOL0     H52391   4.718   6.557   6.380  0.6330 -0.1176 -2.2585
  380MOL0     H52392   4.908   6.317   6.358  1.7424  0.2487  0.2702
  380MOL0     H52393   4.879   6.446   6.224 -1.0425  0.6346  0.9771
  380MOL0     H52394   5.035   6.464   6.483  0.2106 -2.3283 -0.6599
  380MOL0     H52395   5.098   6.496   6.332  0.7408 -1.4217  1.8951
  380MOL0     H52396   4.890   6.671   6.470 -1.1880  1.5530 -0.9264
  380MOL0     H52397   5.060   6.707   6.433 -0.9265  0.5563  1.7896
  380MOL0     H52398   4.907   6.606   6.023 -0.9394  0.4942 -1.3663
  380MOL0     H52399   5.049   6.666   5.738  1.7889 -0.1081 -0.8820
  380MOL0     H52400   4.970   6.531   5.827 -0.7565  1.7125  3.0341
  380MOL0     H52401   5.149   6.529   5.788  0.1991  0.7588  0.5816
  380MOL0     H52402   5.510   6.900   5.695 -0.1749 -0.1567 -1.3558
  380MOL0     H52403   5.712   6.862   5.537 -2.2835  2.9617  0.8367
  380MOL0     H52404   5.927   6.874   5.533  0.0808 -0.9410 -1.6234
  380MOL0     H52405   6.020   6.798   5.647 -3.8692 -0.1478  1.4734
  380MOL0     H52406   6.108   6.627   5.454  1.6492  1.2145 -1.1459
  380MOL0     H52407   5.990   6.689   5.350 -0.4728 -0.2748  0.3648
  380MOL0     H52408   6.243   6.813   5.469  0.9736 -1.2925 -0.6446
  380MOL0     H52409   6.141   6.930   5.383 -1.4866  0.1109  0.3684
  380MOL0     H52410   6.174   6.797   5.171 -2.5979  0.4846  1.8907
  380MOL0     H52411   6.253   6.672   5.259 -1.9874 -0.0218  1.0685
  380MOL0     H52412   6.329   6.972   5.240  0.2976  0.9064 -0.3562
  380MOL0     H52413   6.431   6.852   5.317 -0.0507 -1.6034 -0.8780
  380MOL0     H52414   6.376   6.832   5.014  0.0317 -0.7790 -0.6798
  380MOL0     H52415   6.471   6.723   5.109  2.3902  1.4101  0.7419
  380MOL0     H52416   6.641   6.821   5.022 -0.3899 -0.0559 -2.7268
  380MOL0     H52417   6.627   6.910   5.174 -0.1461 -0.0835 -0.5129
  380MOL0     H52418   6.515   7.106   5.054  0.0480  2.3155 -1.0651
  380MOL0     H52419   6.522   7.024   4.895  0.2279 -0.8880  0.0941
  380MOL0     H52420   5.815   6.515   5.738 -1.0914 -0.8015 -0.6968
  380MOL0     H52421   5.634   6.554   5.923 -3.7319  0.4043 -0.4077
  380MOL0     H52422   5.359   6.799   6.127 -0.3029 -0.6944  1.4936
  380MOL0     H52423   5.184   6.809   6.286  0.7393 -2.2323  0.3519
  380MOL0     H52424   3.473   5.616   6.533  2.0825  3.0383  0.4195
  380MOL0     H52425   3.230   5.608   6.564 -0.3315 -2.0282 -0.6749
  380MOL0     H52426   2.855   5.814   6.263 -0.0723  0.3204  1.7842
  380MOL0     H52427   2.609   5.845   6.220  0.9210  0.2680 -0.1086
  380MOL0     H52428   2.362   5.651   6.123 -2.0499  0.7744  0.0372
  380MOL0     H52429   2.413   5.518   6.235 -1.7797 -1.0161  1.7019
  380MOL0     H52430   2.214   5.531   6.354  1.3424 -1.7783 -1.1264
  380MOL0     H52431   2.173   5.516   6.186  1.1085  0.4171 -0.2901
  380MOL0     H52432   2.171   5.796   6.298  2.1719  0.1395 -2.0921
  380MOL0     H52433   2.121   5.746   6.145 -5.2100 -0.1900 -0.4719
  380MOL0     H52434   1.910   5.750   6.257  2.2912  2.6998 -0.2469
  380MOL0     H52435   1.977   5.702   6.410  0.8721 -0.6915 -0.2559
  380MOL0     H52436   1.854   5.327   6.287 -3.2193  1.0273  0.9765
  380MOL0     H52437   2.513   5.503   6.460  1.6512 -0.7930  0.5649
  380MOL0     H52438   2.850   5.360   6.448  1.1912  1.1278 -0.9068
  380MOL0     H52439   2.761   5.416   6.591 -0.3287 -0.8783  0.2777
  380MOL0     H52440   2.673   5.327   6.463  0.2082 -0.0318  2.2043
  381MOL0     O52441   2.199   0.231   3.341 -0.3377  0.1563  0.5926
  381MOL0     C52442   2.233   0.171   3.236 -0.9418 -0.0142  0.3709
  381MOL0     O52443   2.356   0.171   3.178  0.1791 -0.4852 -0.1448
  381MOL0     C52444   2.457   0.255   3.232 -0.3082 -0.6220  0.9105
  381MOL0     C52445   2.522   0.339   3.131  0.1911 -0.1699  0.7422
  381MOL0     C52446   2.622   0.432   3.175  0.4518  0.5234 -0.5712
  381MOL0     C52447   2.664   0.432   3.305 -0.3426 -0.2209  0.2478
  381MOL0     O52448   2.774   0.505   3.361  0.9991  0.7283 -0.3061
  381MOL0     C52449   2.864   0.568   3.263 -0.0713  0.0894  0.3949
  381MOL0     C52450   2.993   0.613   3.335  0.1531 -0.3261  0.3499
  381MOL0     C52451   3.089   0.498   3.334  0.4564 -0.9771  0.5925
  381MOL0     C52452   3.208   0.521   3.425  0.0067 -0.4638  0.1504
  381MOL0     C52453   3.310   0.401   3.416  0.3973  0.1012 -1.0185
  381MOL0     C52454   3.445   0.427   3.485  0.0961  0.1610 -0.3840
  381MOL0     C52455   3.549   0.324   3.445  0.5288 -0.0133 -0.6442
  381MOL0     C52456   3.678   0.337   3.524 -0.3998 -0.1724  0.5371
  381MOL0     N52457   3.686   0.269   3.660  0.4622 -0.9003 -0.4665
  381MOL0     C52458   3.694   0.137   3.679  0.2475 -0.0097  0.5373
  381MOL0     C52459   3.704   0.115   3.809 -0.8700 -0.0054  0.9345
  381MOL0     C52460   3.713  -0.024   3.868 -0.2051 -0.2054 -0.5922
  381MOL0     C52461   3.862  -0.049   3.898  0.6555  0.0843  0.3150
  381MOL0     C52462   3.877  -0.167   3.994 -0.2654  0.6682 -0.0937
  381MOL0     C52463   4.026  -0.172   4.044 -1.2249 -0.0102  0.3166
  381MOL0     O52464   4.061  -0.066   4.138 -0.6593  0.2918  0.4763
  381MOL0     C52465   4.191  -0.054   4.186  0.5278  0.2265  0.2657
  381MOL0     C52466   4.202   0.038   4.285  0.3938  0.4722  0.2340
  381MOL0     C52467   4.325   0.064   4.347  0.1151  0.0158  0.4596
  381MOL0     C52468   4.317   0.182   4.443  0.2087 -0.7525  0.4088
  381MOL0     C52469   4.435  -0.015   4.311  0.6597 -0.2739 -0.3290
  381MOL0     C52470   4.563   0.003   4.390 -0.3166  0.2946 -0.1415
  381MOL0     O52471   4.682   0.011   4.324 -0.1875 -0.3178 -0.0020
  381MOL0     C52472   4.805   0.048   4.384  0.0726 -0.1124  0.1044
  381MOL0     C52473   4.921   0.001   4.319 -0.2530  0.3529  1.3997
  381MOL0     C52474   5.044   0.049   4.361  0.1498  0.2767  0.5196
  381MOL0     C52475   5.056   0.134   4.473 -0.1861  0.0190  0.2870
  381MOL0     O52476   5.174   0.179   4.513  0.8117 -0.1464 -0.3139
  381MOL0     C52477   5.275   0.201   4.419  0.1826 -0.1286 -0.2289
  381MOL0     C52478   5.369   0.320   4.469  0.2558  0.2717  1.3930
  381MOL0     C52479   5.486   0.351   4.370 -0.3450  0.0214 -0.6719
  381MOL0     C52480   5.577   0.238   4.340 -1.2207 -0.2458  0.0960
  381MOL0     C52481   5.707   0.293   4.286 -0.0603  0.2541  0.0576
  381MOL0     C52482   5.809   0.319   4.388 -0.6162 -0.4452  0.5102
  381MOL0     C52483   5.948   0.354   4.321  0.6463  0.2609  0.4205
  381MOL0     C52484   6.046   0.416   4.421  0.9000  0.2441  0.2078
  381MOL0    Cl52485   6.199   0.462   4.344 -0.2910 -0.0312  0.0257
  381MOL0     C52486   4.943   0.167   4.545  0.2266 -0.2073  0.3262
  381MOL0     C52487   4.819   0.134   4.499  0.7596 -0.2908 -0.2263
  381MOL0     O52488   4.548  -0.011   4.513  0.3184 -0.1904  0.4639
  381MOL0     C52489   4.416  -0.115   4.217 -0.3143  0.5146  0.2551
  381MOL0     C52490   4.296  -0.137   4.151  0.0266  0.0269  0.0566
  381MOL0     N52491   3.691   0.241   3.864  0.4194 -0.1356  0.1244
  381MOL0     N52492   3.685   0.334   3.778 -0.1711  0.2003  0.0779
  381MOL0     C52493   2.597   0.355   3.400 -0.4098 -0.0511  0.4363
  381MOL0     C52494   2.493   0.267   3.362 -0.4454 -1.0467 -0.4881
  381MOL0     C52495   2.139   0.067   3.192 -0.9844  0.2815 -1.1165
  381MOL0     C52496   2.019   0.109   3.143 -0.5759  0.5090  0.6420
  381MOL0     C52497   1.933   0.014   3.087  0.5852  0.0401 -0.2366
  381MOL0     C52498   1.964  -0.119   3.097 -0.2386 -0.3785 -0.8021
  381MOL0     O52499   1.880  -0.208   3.030 -0.1811 -0.1566  0.0881
  381MOL0     C52500   1.854  -0.331   3.101 -0.4863 -0.5559  0.2388
  381MOL0     C52501   1.740  -0.401   3.030  0.9819 -0.1579 -0.0280
  381MOL0     C52502   1.610  -0.318   3.041  0.6305 -0.0110 -0.5348
  381MOL0     C52503   1.507  -0.390   3.128  0.7448  0.4243  0.2407
  381MOL0     C52504   1.546  -0.400   3.276  0.3157 -0.6796  0.1774
  381MOL0     C52505   1.577  -0.393   3.389  0.2233 -0.1710  1.2580
  381MOL0     C52506   2.086  -0.167   3.153  0.2594 -0.2289  0.2683
  381MOL0     C52507   2.171  -0.066   3.204 -0.4592  0.4347  0.6188
  381MOL0     C52508   2.309  -0.118   3.242  0.8399 -0.7159 -0.0066
  381MOL0     H52509   2.498   0.323   3.027 -2.2862 -2.7777  1.5639
  381MOL0     H52510   2.673   0.495   3.104 -1.2383  0.7563 -1.6212
  381MOL0     H52511   2.813   0.649   3.211  0.0373 -0.1549 -0.1055
  381MOL0     H52512   2.898   0.487   3.197 -0.1416 -1.4042  2.0951
  381MOL0     H52513   3.031   0.703   3.286 -1.2322 -0.1391 -0.4153
  381MOL0     H52514   2.966   0.639   3.438  0.0309  0.3536  0.1498
  381MOL0     H52515   3.037   0.405   3.359  0.2188 -1.0435 -0.1291
  381MOL0     H52516   3.122   0.500   3.230 -0.0128  2.6719  0.3819
  381MOL0     H52517   3.257   0.618   3.406 -0.0401  0.0076  2.1992
  381MOL0     H52518   3.185   0.528   3.532 -1.4413  1.1026 -0.2256
  381MOL0     H52519   3.319   0.370   3.312  2.6421  0.7948 -1.0778
  381MOL0     H52520   3.265   0.314   3.466  1.1443  0.9777  1.3423
  381MOL0     H52521   3.491   0.521   3.455 -3.4133  1.6765 -1.4125
  381MOL0     H52522   3.417   0.428   3.591 -0.9268 -0.5724 -0.6348
  381MOL0     H52523   3.569   0.345   3.340  2.1033  2.3477  0.0464
  381MOL0     H52524   3.520   0.221   3.468 -0.1756 -0.3234 -2.7651
  381MOL0     H52525   3.761   0.299   3.465  0.1010  2.4281 -0.5992
  381MOL0     H52526   3.699   0.444   3.532  1.7085 -0.5812  1.0327
  381MOL0     H52527   3.692   0.060   3.602  0.0385  0.7874 -0.2687
  381MOL0     H52528   3.669  -0.105   3.808 -3.5202  1.6618 -0.9354
  381MOL0     H52529   3.661  -0.017   3.964  0.4406  0.6665 -0.2969
  381MOL0     H52530   3.914  -0.076   3.805 -0.4238  0.4311 -0.4086
  381MOL0     H52531   3.909   0.039   3.942 -1.2203  0.4882  1.5918
  381MOL0     H52532   3.811  -0.147   4.079 -0.1659 -0.8482  0.3650
  381MOL0     H52533   3.838  -0.258   3.947 -1.5577  0.2709  1.6399
  381MOL0     H52534   4.045  -0.265   4.098 -0.8616  0.5618  1.1950
  381MOL0     H52535   4.100  -0.183   3.964  0.1477  0.1224  1.5261
  381MOL0     H52536   4.123   0.104   4.321 -0.9589 -1.0299  0.1527
  381MOL0     H52537   4.262   0.142   4.528 -2.7162  1.0696 -0.4578
  381MOL0     H52538   4.257   0.261   4.396  2.1465 -0.2496 -1.4235
  381MOL0     H52539   4.411   0.230   4.473  0.2004 -1.8122  2.1992
  381MOL0     H52540   4.905  -0.065   4.234  0.9676  3.0296 -1.0890
  381MOL0     H52541   5.136   0.006   4.323 -0.9770 -1.0318 -0.8551
  381MOL0     H52542   5.339   0.112   4.419 -0.2594 -0.4610  0.7446
  381MOL0     H52543   5.233   0.214   4.319  0.3233 -2.6349 -0.6897
  381MOL0     H52544   5.315   0.414   4.476 -1.0505 -0.2502 -0.6880
  381MOL0     H52545   5.416   0.289   4.563  0.7315 -2.3816  0.3953
  381MOL0     H52546   5.542   0.437   4.409  0.7875 -1.8337  2.0909
  381MOL0     H52547   5.443   0.379   4.273  0.1360  0.9715 -0.6220
  381MOL0     H52548   5.537   0.163   4.272 -1.3723 -0.2555  0.1946
  381MOL0     H52549   5.599   0.179   4.429  0.5668 -0.5666 -0.5129
  381MOL0     H52550   5.750   0.232   4.206  0.7501  2.0058 -0.9012
  381MOL0     H52551   5.681   0.392   4.245 -2.4251 -0.0507  0.6956
  381MOL0     H52552   5.812   0.237   4.460 -1.0847 -1.0315 -0.1284
  381MOL0     H52553   5.772   0.405   4.444 -3.8862 -2.1518  1.2327
  381MOL0     H52554   5.934   0.420   4.235  1.9106  0.9091  0.6794
  381MOL0     H52555   5.994   0.266   4.275  3.4597  0.9913  1.6197
  381MOL0     H52556   6.059   0.331   4.489 -1.2878 -0.5904 -0.3081
  381MOL0     H52557   5.998   0.504   4.464  0.1094 -0.2594  0.3690
  381MOL0     H52558   4.944   0.226   4.636 -1.5929  0.7159 -0.2063
  381MOL0     H52559   4.725   0.174   4.537 -1.0344 -0.7313 -3.7903
  381MOL0     H52560   4.503  -0.169   4.182 -0.2583 -1.1149  2.6701
  381MOL0     H52561   4.290  -0.214   4.075  1.6601 -1.7516  1.6030
  381MOL0     H52562   2.637   0.341   3.500 -0.1260 -2.3765  0.0527
  381MOL0     H52563   2.449   0.220   3.449  2.5720  3.2662  3.8391
  381MOL0     H52564   1.986   0.212   3.145 -3.0287 -0.2052  1.0929
  381MOL0     H52565   1.836   0.045   3.047 -1.4659 -1.0697  3.4204
  381MOL0     H52566   1.943  -0.393   3.088  1.3023  1.9007  0.0404
  381MOL0     H52567   1.839  -0.311   3.207  0.6510  2.6302 -0.1128
  381MOL0     H52568   1.732  -0.498   3.079  1.5777  1.5139  3.6470
  381MOL0     H52569   1.773  -0.409   2.926  2.6770  0.6817  0.4147
  381MOL0     H52570   1.630  -0.216   3.076 -1.2316 -0.6108  2.7006
  381MOL0     H52571   1.568  -0.313   2.940 -1.8415 -2.4314  0.2531
  381MOL0     H52572   1.487  -0.488   3.084 -3.9673  0.2727  2.1173
  381MOL0     H52573   1.407  -0.347   3.116  1.5711  1.5201 -6.0492
  381MOL0     H52574   1.594  -0.402   3.495 -2.5451 -1.2018  1.7067
  381MOL0     H52575   2.115  -0.271   3.148 -1.0692 -0.6431  0.6956
  381MOL0     H52576   2.312  -0.227   3.236  3.3578 -0.6775 -0.4881
  381MOL0     H52577   2.391  -0.090   3.176  1.6794 -1.4044  0.7179
  381MOL0     H52578   2.327  -0.075   3.341  0.9889 -1.3466  0.2497
  382MOL0     O52579   9.285   5.075   1.634  0.0677  0.1011 -0.6436
  382MOL0     C52580   9.263   5.190   1.657  0.5944 -0.8602 -0.1627
  382MOL0     O52581   9.359   5.289   1.672 -0.2103 -0.2781  0.3552
  382MOL0     C52582   9.488   5.262   1.636  0.1183 -0.1715 -0.3269
  382MOL0     C52583   9.594   5.304   1.719 -1.3252 -0.6158 -0.1144
  382MOL0     C52584   9.725   5.284   1.683 -0.1356  0.8778  0.3497
  382MOL0     C52585   9.758   5.209   1.572  0.1889 -0.7188  0.0734
  382MOL0     O52586   9.892   5.191   1.548  0.3226  0.2212 -0.3592
  382MOL0     C52587   9.932   5.106   1.435 -0.2616  0.7971 -0.5163
  382MOL0     C52588  10.084   5.085   1.461  0.0482 -0.5971 -0.4917
  382MOL0     C52589  10.152   4.968   1.382 -0.2253  0.0507  0.2392
  382MOL0     C52590  10.125   4.838   1.454  0.9056  0.5625  0.4687
  382MOL0     C52591  10.223   4.728   1.411  0.3013  0.0962  0.2878
  382MOL0     C52592  10.370   4.743   1.444  0.2655 -0.8651  0.5456
  382MOL0     C52593  10.439   4.618   1.427 -0.0937  0.7465  0.2717
  382MOL0     C52594  10.581   4.635   1.486 -0.3763  0.6395  0.1897
  382MOL0     N52595  10.658   4.519   1.435 -0.4978 -0.2383 -0.4664
  382MOL0     C52596  10.765   4.528   1.343 -0.6572  0.6811  0.2934
  382MOL0     C52597  10.821   4.407   1.344 -0.0326 -0.5789 -0.3587
  382MOL0     C52598  10.947   4.379   1.275 -0.2418  0.1157  1.1576
  382MOL0     C52599  10.962   4.223   1.253  0.4192  0.4915 -0.1983
  382MOL0     C52600  11.098   4.176   1.200 -0.1429  0.2705 -0.5173
  382MOL0     C52601  11.132   4.228   1.067  0.6074 -0.3765  0.2944
  382MOL0     O52602  11.270   4.191   1.033  0.2011 -0.2307 -0.1359
  382MOL0     C52603  11.385   4.253   1.081 -0.3429  1.0467 -0.2467
  382MOL0     C52604  11.378   4.362   1.169  1.1811 -0.2584  0.4586
  382MOL0     C52605  11.497   4.422   1.222 -0.3571  0.2453  0.5109
  382MOL0     C52606  11.470   4.549   1.299 -0.3684  0.1060  0.9560
  382MOL0     C52607  11.620   4.354   1.200  0.4002  0.6202 -0.2105
  382MOL0     C52608  11.746   4.386   1.266  0.5213  0.0437  1.2251
  382MOL0     O52609  11.851   4.299   1.241  0.6764  0.0840 -0.5237
  382MOL0     C52610  11.971   4.311   1.301 -1.0543 -0.2295 -0.5404
  382MOL0     C52611  12.052   4.198   1.279 -0.4312  0.4567 -0.5696
  382MOL0     C52612  12.182   4.191   1.331 -0.5645  0.1074  0.2440
  382MOL0     C52613  12.255   4.299   1.389  0.3983 -0.3615 -0.2082
  382MOL0     O52614  12.391   4.289   1.431 -0.1943 -0.2642 -0.3682
  382MOL0     C52615  12.446   4.394   1.507 -0.6276  1.1102  0.0664
  382MOL0     C52616  12.574   4.349   1.586 -0.4180 -0.1326  0.9833
  382MOL0     C52617  12.702   4.365   1.496 -0.1160  0.0014  0.1727
  382MOL0     C52618  12.822   4.348   1.576 -0.7373 -1.1825  0.3556
  382MOL0     C52619  12.845   4.209   1.637  1.0281  0.3177  0.6509
  382MOL0     C52620  12.814   4.094   1.524 -0.2059 -0.6223 -1.1241
  382MOL0     C52621  12.849   3.955   1.572 -0.0360 -0.3375 -0.3298
  382MOL0     C52622  12.834   3.849   1.474 -0.2336 -0.9336  0.5223
  382MOL0    Cl52623  12.921   3.898   1.332  0.2068  0.0935  0.0405
  382MOL0     C52624  12.178   4.421   1.385 -0.0286 -0.0042  0.2714
  382MOL0     C52625  12.044   4.426   1.343  0.8056  0.1432 -0.0901
  382MOL0     O52626  11.749   4.481   1.342 -0.0243 -0.0189 -0.0352
  382MOL0     C52627  11.628   4.241   1.112 -0.1346 -0.2950 -0.3050
  382MOL0     C52628  11.513   4.196   1.050  0.3372 -0.1278 -0.2521
  382MOL0     N52629  10.753   4.329   1.430  0.4551 -0.2589 -0.5654
  382MOL0     N52630  10.652   4.394   1.490 -0.4329  0.5053 -0.0335
  382MOL0     C52631   9.658   5.163   1.484  0.7431  0.1831  0.7125
  382MOL0     C52632   9.523   5.197   1.511 -0.0308  0.7114 -1.0937
  382MOL0     C52633   9.116   5.231   1.680 -0.1719  0.8854 -0.4229
  382MOL0     C52634   9.092   5.358   1.709 -0.4169 -0.3705  0.5649
  382MOL0     C52635   8.960   5.409   1.711 -1.2501  0.3579 -0.3458
  382MOL0     C52636   8.849   5.332   1.685 -1.2701 -0.3308  0.0544
  382MOL0     O52637   8.727   5.394   1.683 -0.3213  0.7708 -0.1799
  382MOL0     C52638   8.702   5.490   1.790  0.5044  0.0868  0.5354
  382MOL0     C52639   8.553   5.490   1.823  0.5364  0.0607 -0.0510
  382MOL0     C52640   8.479   5.533   1.699 -0.0043  0.1076  0.9439
  382MOL0     C52641   8.332   5.554   1.720 -0.5034 -0.1091 -0.2420
  382MOL0     C52642   8.274   5.597   1.590 -0.0171  0.0183 -0.3023
  382MOL0     C52643   8.230   5.637   1.483  0.4037 -0.4179 -0.2940
  382MOL0     C52644   8.867   5.198   1.665 -1.0549  0.0456 -0.0159
  382MOL0     C52645   9.000   5.143   1.663  0.2004  0.3884  0.3691
  382MOL0     C52646   9.020   4.997   1.635 -0.1488  1.0969  0.6120
  382MOL0     H52647   9.561   5.365   1.803 -0.9853  2.2238 -1.9068
  382MOL0     H52648   9.802   5.333   1.742  1.0321 -0.4193 -0.0599
  382MOL0     H52649   9.905   5.151   1.339 -1.8285 -1.3835 -1.2046
  382MOL0     H52650   9.879   5.010   1.439 -0.1705  0.7467 -0.5314
  382MOL0     H52651  10.127   5.182   1.433 -0.5008 -0.0263  0.5820
  382MOL0     H52652  10.098   5.066   1.568 -1.1706  2.8729  0.3879
  382MOL0     H52653  10.129   4.980   1.276  1.7958 -2.4146 -0.5711
  382MOL0     H52654  10.258   4.986   1.399 -0.4203  3.3602 -1.3464
  382MOL0     H52655  10.111   4.865   1.559 -0.5146 -0.0564  0.4726
  382MOL0     H52656  10.027   4.793   1.435  1.0689  1.2056 -2.1772
  382MOL0     H52657  10.220   4.715   1.302 -1.9914 -1.6939  0.4876
  382MOL0     H52658  10.194   4.626   1.437  1.6828 -1.7430 -4.3196
  382MOL0     H52659  10.426   4.814   1.382  0.2328  0.4220  1.9435
  382MOL0     H52660  10.381   4.771   1.549 -2.1275 -1.0353  0.8927
  382MOL0     H52661  10.453   4.594   1.321 -0.2868  0.9390  0.2021
  382MOL0     H52662  10.380   4.534   1.466 -0.6114  0.6173 -0.7528
  382MOL0     H52663  10.627   4.729   1.454  2.4506 -0.9117 -0.6531
  382MOL0     H52664  10.573   4.630   1.595 -0.9147 -3.4238  0.1098
  382MOL0     H52665  10.799   4.616   1.289  3.0801  0.2933  1.7175
  382MOL0     H52666  11.030   4.414   1.337 -0.1012  2.2752 -0.1438
  382MOL0     H52667  10.953   4.448   1.190  0.9566 -1.4938 -0.1188
  382MOL0     H52668  10.939   4.175   1.349  0.8514  0.9335  0.1343
  382MOL0     H52669  10.886   4.187   1.183  0.0146  0.3287  0.3112
  382MOL0     H52670  11.169   4.221   1.270  1.6883  0.4166 -2.3719
  382MOL0     H52671  11.113   4.067   1.203 -2.5294 -0.0919 -0.4429
  382MOL0     H52672  11.066   4.179   0.994  1.3563  0.0350 -0.6762
  382MOL0     H52673  11.110   4.335   1.064  0.6072 -0.2691  2.4334
  382MOL0     H52674  11.280   4.405   1.184  1.4962  0.1679  1.3661
  382MOL0     H52675  11.479   4.523   1.405 -0.7018 -0.1165  0.9298
  382MOL0     H52676  11.371   4.590   1.278  0.9788  3.1239 -0.0270
  382MOL0     H52677  11.536   4.635   1.286 -0.0428 -0.4931 -1.8353
  382MOL0     H52678  12.010   4.113   1.227 -1.6620  0.6881  0.0274
  382MOL0     H52679  12.224   4.091   1.327  0.1455  0.3093  1.7110
  382MOL0     H52680  12.463   4.473   1.433 -2.0169 -0.0555 -1.5896
  382MOL0     H52681  12.376   4.437   1.579  0.1790  0.0126  1.5401
  382MOL0     H52682  12.579   4.409   1.677 -2.2382 -0.5862  1.4152
  382MOL0     H52683  12.571   4.247   1.626  2.7500 -0.1023  1.5403
  382MOL0     H52684  12.695   4.465   1.454 -0.3244 -0.4079 -0.8017
  382MOL0     H52685  12.694   4.288   1.418  2.5118 -0.7915  0.6039
  382MOL0     H52686  12.823   4.423   1.656  3.1598 -0.3966 -0.2187
  382MOL0     H52687  12.911   4.384   1.523 -1.2504  2.2333  1.5514
  382MOL0     H52688  12.953   4.199   1.649  1.6182  0.0636 -3.3619
  382MOL0     H52689  12.789   4.190   1.729  0.2581  2.3632  0.6498
  382MOL0     H52690  12.883   4.109   1.440 -1.4144  1.4762 -1.8275
  382MOL0     H52691  12.715   4.096   1.476  0.0373 -2.2966 -1.7514
  382MOL0     H52692  12.791   3.917   1.656  0.2917  1.2776  0.6636
  382MOL0     H52693  12.950   3.951   1.613 -1.0060  0.3909  2.3027
  382MOL0     H52694  12.727   3.846   1.450 -0.6606  1.7534  1.6772
  382MOL0     H52695  12.867   3.750   1.506  1.3360  0.0417  2.0319
  382MOL0     H52696  12.224   4.513   1.420 -1.8875  0.6824  1.0275
  382MOL0     H52697  11.991   4.520   1.349  0.1160 -0.3432  3.4392
  382MOL0     H52698  11.721   4.190   1.089  0.0606 -0.5316  0.9291
  382MOL0     H52699  11.524   4.107   0.988  0.9843 -0.0625 -0.2333
  382MOL0     H52700   9.673   5.097   1.398  0.7415  1.0913  0.0001
  382MOL0     H52701   9.453   5.169   1.433  0.7204  3.7781 -3.0704
  382MOL0     H52702   9.174   5.428   1.721 -0.9074  0.0242  1.7239
  382MOL0     H52703   8.944   5.516   1.722  1.2387  0.6122  1.4798
  382MOL0     H52704   8.771   5.467   1.871  1.2420 -0.8421 -0.3214
  382MOL0     H52705   8.730   5.592   1.762  2.3950  0.0907  2.1990
  382MOL0     H52706   8.532   5.561   1.903  1.8172  0.4673 -0.0489
  382MOL0     H52707   8.519   5.390   1.854 -0.4054  0.2111 -0.5682
  382MOL0     H52708   8.522   5.631   1.673  1.4219 -0.1794  2.1166
  382MOL0     H52709   8.497   5.458   1.621  2.5896  0.5081  1.0590
  382MOL0     H52710   8.309   5.625   1.799  2.2191 -2.1804  2.6340
  382MOL0     H52711   8.282   5.465   1.759 -3.6019  1.4530 -0.2740
  382MOL0     H52712   8.191   5.657   1.385  0.3540 -1.8025 -0.5913
  382MOL0     H52713   8.776   5.140   1.652 -1.5277  0.7322  0.1294
  382MOL0     H52714   9.098   4.972   1.562 -0.6169 -4.3220  1.5312
  382MOL0     H52715   9.039   4.942   1.728 -1.3238  1.7500  1.2604
  382MOL0     H52716   8.936   4.942   1.592  0.5087 -0.1152  0.8227
  383MOL0     O52717   4.088   5.343   5.265 -0.0530 -0.1213 -0.0150
  383MOL0     C52718   3.980   5.399   5.233 -0.0075  0.7599 -0.4669
  383MOL0     O52719   3.955   5.539   5.254 -0.9363  0.0122 -0.6218
  383MOL0     C52720   4.029   5.605   5.349  0.1380  0.3204 -0.2534
  383MOL0     C52721   4.171   5.623   5.336  0.3784  0.1573  0.6272
  383MOL0     C52722   4.244   5.688   5.434 -0.1581  0.0412  0.0956
  383MOL0     C52723   4.174   5.760   5.533  0.0250  0.3555  0.3955
  383MOL0     O52724   4.253   5.812   5.631  0.2004 -0.0936 -0.3667
  383MOL0     C52725   4.203   5.811   5.760 -0.6023 -0.4614  0.0948
  383MOL0     C52726   4.332   5.795   5.850  0.7416 -0.0318 -0.9431
  383MOL0     C52727   4.435   5.914   5.854  0.0272  0.0803 -0.6437
  383MOL0     C52728   4.557   5.891   5.940 -0.5804 -0.1454  0.0863
  383MOL0     C52729   4.669   5.808   5.866  0.1011  0.9763  0.1835
  383MOL0     C52730   4.773   5.767   5.956 -0.3796  0.3717 -0.2803
  383MOL0     C52731   4.874   5.680   5.890  1.3501  0.3497 -0.7198
  383MOL0     C52732   4.983   5.639   5.994  0.2956 -0.3467  0.4872
  383MOL0     N52733   5.106   5.709   5.981 -0.4485 -0.3202  0.0270
  383MOL0     C52734   5.203   5.686   5.886 -0.5575  0.3119 -0.2984
  383MOL0     C52735   5.309   5.762   5.924 -0.4623 -0.0752  0.3308
  383MOL0     C52736   5.435   5.736   5.854 -0.8171 -0.4547 -0.4554
  383MOL0     C52737   5.531   5.860   5.840 -0.6651  0.6868  0.7591
  383MOL0     C52738   5.666   5.808   5.804 -0.4199  0.5187 -0.2182
  383MOL0     C52739   5.750   5.924   5.748 -0.5006 -0.0196  0.0903
  383MOL0     O52740   5.862   5.873   5.671 -0.1006  0.4842 -0.3407
  383MOL0     C52741   5.981   5.939   5.651  0.2731  0.2781 -0.0225
  383MOL0     C52742   5.974   6.082   5.653  0.5066 -0.1241 -0.5688
  383MOL0     C52743   6.077   6.163   5.605  0.0116  0.8242  1.3862
  383MOL0     C52744   6.047   6.312   5.570  0.0393  0.2905 -0.1913
  383MOL0     C52745   6.204   6.098   5.573  0.8243 -0.3322  0.2124
  383MOL0     C52746   6.314   6.164   5.499  0.5518 -0.6437 -0.0520
  383MOL0     O52747   6.391   6.081   5.417 -0.0072 -0.3095 -0.4854
  383MOL0     C52748   6.523   6.106   5.391 -0.0545 -0.4422  0.4134
  383MOL0     C52749   6.597   6.224   5.402  0.9381  0.8120 -0.3530
  383MOL0     C52750   6.722   6.229   5.358 -0.7877 -0.5344  0.1718
  383MOL0     C52751   6.779   6.115   5.303 -0.4635 -0.2202 -0.2026
  383MOL0     O52752   6.913   6.132   5.274 -0.5876  0.2685  0.0576
  383MOL0     C52753   7.000   6.032   5.214 -0.2954  0.2318 -0.6540
  383MOL0     C52754   7.136   6.104   5.183 -0.3237  0.3357 -0.5963
  383MOL0     C52755   7.192   6.180   5.307 -0.3769  0.1862 -0.7151
  383MOL0     C52756   7.325   6.239   5.272 -0.4076 -0.0250  0.4229
  383MOL0     C52757   7.347   6.345   5.376 -0.0935 -0.5951 -1.0199
  383MOL0     C52758   7.479   6.427   5.347  0.0866  0.0948 -0.1322
  383MOL0     C52759   7.492   6.550   5.437 -0.4021 -0.7198 -0.0960
  383MOL0     C52760   7.626   6.619   5.400 -0.1662  0.2398 -0.5298
  383MOL0    Cl52761   7.648   6.755   5.519 -0.1185 -0.7034  0.0983
  383MOL0     C52762   6.707   5.992   5.290 -0.1813  0.3540 -0.3943
  383MOL0     C52763   6.584   5.993   5.337  0.5109  0.1934 -0.7261
  383MOL0     O52764   6.324   6.283   5.509 -0.6443 -1.1357 -0.0320
  383MOL0     C52765   6.217   5.957   5.588  0.4877  0.1859  0.5389
  383MOL0     C52766   6.102   5.880   5.616  1.0433 -0.6592  0.2047
  383MOL0     N52767   5.277   5.825   6.038 -0.1543  0.2201  0.2016
  383MOL0     N52768   5.157   5.786   6.076 -0.0149 -0.1002  0.2263
  383MOL0     C52769   4.032   5.747   5.545  0.1089  0.3221  0.4988
  383MOL0     C52770   3.962   5.667   5.453  0.1508  1.1605 -0.5970
  383MOL0     C52771   3.864   5.313   5.171 -0.5551 -0.5352  0.3087
  383MOL0     C52772   3.754   5.392   5.121 -1.1361  0.6888 -0.3056
  383MOL0     C52773   3.648   5.321   5.067 -0.8695  0.6566 -0.7112
  383MOL0     C52774   3.649   5.180   5.068  0.2202 -0.2993  0.0541
  383MOL0     O52775   3.527   5.131   5.027 -0.2640 -0.2007  0.2728
  383MOL0     C52776   3.502   4.997   5.063 -0.0510  0.3616  0.5264
  383MOL0     C52777   3.361   4.979   5.006 -0.5600  0.5842  0.0219
  383MOL0     C52778   3.290   4.849   5.051  0.6615  0.4866 -0.7649
  383MOL0     C52779   3.141   4.828   5.026  0.0261  0.6582 -0.5127
  383MOL0     C52780   3.102   4.848   4.891 -0.6187  0.4397  0.3664
  383MOL0     C52781   3.081   4.880   4.777  0.2548  0.4589  0.0775
  383MOL0     C52782   3.760   5.112   5.123  0.1431 -0.1281 -0.0785
  383MOL0     C52783   3.868   5.174   5.166 -0.5261  0.0858  0.2063
  383MOL0     C52784   3.977   5.094   5.233  0.0942  0.5268 -0.1716
  383MOL0     H52785   4.222   5.588   5.247  1.1291 -0.4029  1.2666
  383MOL0     H52786   4.351   5.708   5.428 -0.2277  0.2875 -0.3834
  383MOL0     H52787   4.135   5.727   5.779  0.2814 -1.5584 -1.3757
  383MOL0     H52788   4.150   5.901   5.791 -0.5870 -0.4299  0.0310
  383MOL0     H52789   4.289   5.773   5.949 -2.6994  0.8745 -2.1232
  383MOL0     H52790   4.382   5.703   5.816  0.5595 -0.6350  0.3477
  383MOL0     H52791   4.443   5.936   5.747 -5.5950  0.5489 -1.2970
  383MOL0     H52792   4.387   6.004   5.893  0.3488  0.2383 -0.6050
  383MOL0     H52793   4.614   5.982   5.964  0.8308 -0.4436 -1.8338
  383MOL0     H52794   4.535   5.839   6.034 -0.4504  1.2474  0.9102
  383MOL0     H52795   4.720   5.864   5.787  0.2996 -1.1525 -1.2998
  383MOL0     H52796   4.613   5.724   5.823  1.7942 -1.2508  2.0556
  383MOL0     H52797   4.829   5.851   5.997 -0.6049  0.4145 -0.0640
  383MOL0     H52798   4.725   5.706   6.032 -0.3016 -0.1655 -0.6549
  383MOL0     H52799   4.909   5.727   5.797 -1.7137  3.0825 -0.6887
  383MOL0     H52800   4.831   5.582   5.867  2.3450 -0.6033  1.2216
  383MOL0     H52801   4.943   5.632   6.095  0.6781 -1.4774  0.5754
  383MOL0     H52802   5.008   5.535   5.968  0.8391  0.3429 -2.0927
  383MOL0     H52803   5.203   5.635   5.790  1.7807 -1.6786  0.6650
  383MOL0     H52804   5.423   5.673   5.765  0.6247 -0.2049 -0.8597
  383MOL0     H52805   5.482   5.671   5.929 -2.2269  0.9296  1.7370
  383MOL0     H52806   5.495   5.935   5.768  0.8167  0.0418 -0.7275
  383MOL0     H52807   5.544   5.898   5.941  1.9494 -0.1468  0.8087
  383MOL0     H52808   5.722   5.769   5.889  2.2984  0.5402 -1.8525
  383MOL0     H52809   5.659   5.739   5.719 -0.8830 -2.3058  1.9723
  383MOL0     H52810   5.688   5.978   5.676 -0.9489  0.2643  0.6791
  383MOL0     H52811   5.796   5.979   5.831  1.4096 -0.1883 -0.8018
  383MOL0     H52812   5.881   6.135   5.668  1.1143  0.3076  2.1840
  383MOL0     H52813   5.943   6.336   5.592  0.2690  0.5002  0.7107
  383MOL0     H52814   6.068   6.340   5.467  2.1793 -0.4705 -0.0194
  383MOL0     H52815   6.096   6.376   5.644 -2.0650 -0.6526  2.1998
  383MOL0     H52816   6.561   6.322   5.434 -1.3391  0.8508 -2.6630
  383MOL0     H52817   6.770   6.326   5.362 -2.0094  0.1108 -0.5027
  383MOL0     H52818   7.026   5.956   5.288 -0.1225 -1.2192 -2.1494
  383MOL0     H52819   6.970   5.991   5.117  1.0854 -1.6846 -0.3219
  383MOL0     H52820   7.212   6.030   5.154 -0.4905 -1.1830  2.4020
  383MOL0     H52821   7.105   6.172   5.103  0.6634  0.1240 -1.1732
  383MOL0     H52822   7.198   6.116   5.395 -2.3255  0.9035 -0.0008
  383MOL0     H52823   7.125   6.262   5.336  0.4254 -0.1495  2.4853
  383MOL0     H52824   7.321   6.276   5.169  0.5196 -0.7655  0.1097
  383MOL0     H52825   7.405   6.166   5.280 -0.2932  0.3283  3.8171
  383MOL0     H52826   7.266   6.418   5.370 -0.7763 -1.2343  0.1268
  383MOL0     H52827   7.358   6.296   5.473 -0.0908  1.3746  0.0049
  383MOL0     H52828   7.468   6.452   5.241 -0.5048  0.8344  0.0973
  383MOL0     H52829   7.562   6.358   5.362 -1.6747 -1.7617  1.7165
  383MOL0     H52830   7.497   6.547   5.546 -0.0576  0.1549 -0.0744
  383MOL0     H52831   7.410   6.618   5.412  1.4895  0.9817 -2.0811
  383MOL0     H52832   7.645   6.654   5.298  1.2027  0.5247 -0.1975
  383MOL0     H52833   7.711   6.550   5.408 -1.2462 -1.2203 -1.2411
  383MOL0     H52834   6.749   5.909   5.234  0.2219  0.1254  0.2345
  383MOL0     H52835   6.532   5.898   5.340  0.2387  0.3659  1.4570
  383MOL0     H52836   6.304   5.897   5.562 -1.2260 -2.2751  0.0642
  383MOL0     H52837   6.114   5.773   5.606  0.7845 -0.6142 -0.7893
  383MOL0     H52838   3.977   5.796   5.625  1.3488  0.1110  1.5275
  383MOL0     H52839   3.854   5.662   5.468  0.6080 -1.1668  3.0492
  383MOL0     H52840   3.771   5.499   5.109  4.2646  0.3429  1.7440
  383MOL0     H52841   3.566   5.376   5.022  1.0269  3.1121 -1.3986
  383MOL0     H52842   3.566   4.927   5.009 -0.1812 -1.3011  2.3952
  383MOL0     H52843   3.509   4.976   5.170 -0.4876  0.3742  0.5580
  383MOL0     H52844   3.365   4.980   4.897  0.0895 -0.4684  0.0134
  383MOL0     H52845   3.297   5.064   5.029  0.2714  0.8919  1.3264
  383MOL0     H52846   3.348   4.771   5.000  0.2364  1.7936 -3.4310
  383MOL0     H52847   3.296   4.848   5.160  1.4575 -3.1955 -0.7215
  383MOL0     H52848   3.077   4.894   5.084  2.8559  1.2273  2.2877
  383MOL0     H52849   3.119   4.723   5.051  0.4392  0.1100 -2.3413
  383MOL0     H52850   3.056   4.899   4.675  1.4589  0.1318 -0.2929
  383MOL0     H52851   3.749   5.005   5.138  2.1885 -0.5427 -1.2030
  383MOL0     H52852   3.954   4.988   5.221  0.4682  0.1929  1.7859
  383MOL0     H52853   4.077   5.109   5.193  0.9220  3.2210  2.5509
  383MOL0     H52854   3.991   5.114   5.339  0.7422  3.8338 -0.7802
  384MOL0     O52855   4.744   1.650   3.930  1.2029  0.0548 -0.6330
  384MOL0     C52856   4.722   1.776   3.933 -1.4270  0.2413 -0.6726
  384MOL0     O52857   4.752   1.864   4.033  0.5746  0.5053 -0.0665
  384MOL0     C52858   4.823   1.810   4.139 -0.3139 -0.5972 -0.2071
  384MOL0     C52859   4.751   1.815   4.260 -0.4841  0.5426 -0.0906
  384MOL0     C52860   4.809   1.771   4.378 -0.4656  0.3059  0.3221
  384MOL0     C52861   4.942   1.720   4.378 -0.4643  0.1202 -0.0245
  384MOL0     O52862   4.993   1.669   4.502 -0.4444 -0.3282 -0.1428
  384MOL0     C52863   5.122   1.707   4.541  0.4494 -0.0759 -0.7910
  384MOL0     C52864   5.194   1.588   4.590  0.7362 -0.6297 -0.2389
  384MOL0     C52865   5.344   1.619   4.619 -0.6737 -0.0758  0.6542
  384MOL0     C52866   5.423   1.634   4.496 -0.5609 -0.4294  0.0821
  384MOL0     C52867   5.576   1.638   4.519 -0.0459 -0.1213 -0.5340
  384MOL0     C52868   5.628   1.728   4.633  0.2915 -0.3993 -0.2109
  384MOL0     C52869   5.780   1.716   4.653 -0.1966 -0.6145  0.2653
  384MOL0     C52870   5.822   1.578   4.704  0.6678 -0.5598 -0.2603
  384MOL0     N52871   5.971   1.547   4.689  0.6013 -1.0228  0.1536
  384MOL0     C52872   6.023   1.518   4.564  0.0615 -0.0972 -0.5214
  384MOL0     C52873   6.157   1.517   4.588  0.3023 -0.5529 -0.3840
  384MOL0     C52874   6.254   1.483   4.484 -0.7483  0.6737 -0.3950
  384MOL0     C52875   6.401   1.492   4.536  0.1524  0.4229 -0.8504
  384MOL0     C52876   6.497   1.428   4.433 -0.4966 -0.0735 -0.3222
  384MOL0     C52877   6.493   1.474   4.284 -0.3173  0.3911 -0.4675
  384MOL0     O52878   6.588   1.387   4.222  0.3816  0.8538 -0.5987
  384MOL0     C52879   6.619   1.418   4.095 -0.1545 -0.6061  0.5535
  384MOL0     C52880   6.538   1.500   4.016  0.1148  0.5992 -0.2852
  384MOL0     C52881   6.559   1.511   3.875 -0.0104 -1.1326 -0.1365
  384MOL0     C52882   6.455   1.578   3.799 -0.3625 -0.1568  0.1684
  384MOL0     C52883   6.675   1.463   3.813 -1.0099 -0.4206  0.1663
  384MOL0     C52884   6.718   1.493   3.673  0.0652  0.0810 -0.2071
  384MOL0     O52885   6.773   1.400   3.592  0.1249  0.0748  0.0668
  384MOL0     C52886   6.822   1.446   3.472  0.3414  0.2408  0.2986
  384MOL0     C52887   6.952   1.486   3.477 -0.9598 -1.0711  0.2006
  384MOL0     C52888   7.034   1.529   3.368  1.0155  0.4560 -0.8529
  384MOL0     C52889   6.986   1.515   3.235  0.5163  0.0814 -0.2115
  384MOL0     O52890   7.058   1.513   3.119 -0.1627 -0.2947 -0.3160
  384MOL0     C52891   7.191   1.477   3.119 -0.7649  0.1481 -0.3708
  384MOL0     C52892   7.241   1.466   2.975  0.6878 -0.2231 -0.2129
  384MOL0     C52893   7.366   1.398   2.977 -0.6714  0.4252  0.6113
  384MOL0     C52894   7.426   1.403   2.836 -0.4216 -0.7126 -1.6278
  384MOL0     C52895   7.576   1.346   2.828  0.6147 -0.4561  0.2067
  384MOL0     C52896   7.565   1.196   2.860 -0.3049  0.3137 -0.0369
  384MOL0     C52897   7.661   1.115   2.772  0.0608  0.4932  0.3731
  384MOL0     C52898   7.594   1.066   2.644 -0.6553 -0.1196 -0.6160
  384MOL0    Cl52899   7.467   0.935   2.664  0.1289  0.1744 -0.0750
  384MOL0     C52900   6.858   1.458   3.225  0.0151 -0.2076  0.0213
  384MOL0     C52901   6.782   1.427   3.337 -0.4586  0.7848 -0.2240
  384MOL0     O52902   6.721   1.613   3.649 -0.3097 -0.3394 -0.4798
  384MOL0     C52903   6.757   1.382   3.893 -0.1875  0.5364 -0.4135
  384MOL0     C52904   6.729   1.361   4.029  0.5520 -0.3524  1.1084
  384MOL0     N52905   6.179   1.546   4.725  0.2784  0.8196  0.2083
  384MOL0     N52906   6.066   1.562   4.787  0.2240 -0.9122  0.0962
  384MOL0     C52907   5.011   1.713   4.257  0.4090 -0.4294 -0.3227
  384MOL0     C52908   4.956   1.759   4.141 -1.0242  0.1165  0.7228
  384MOL0     C52909   4.634   1.821   3.828 -0.1336  0.2226  0.0407
  384MOL0     C52910   4.573   1.946   3.854  0.6302 -0.0162  0.9744
  384MOL0     C52911   4.486   1.994   3.756  0.7919 -0.4493  0.3107
  384MOL0     C52912   4.464   1.936   3.633 -0.7706  0.2207  0.4842
  384MOL0     O52913   4.373   1.973   3.534 -0.9250  0.7814 -0.0346
  384MOL0     C52914   4.237   1.958   3.584  0.2018  0.4813  0.5014
  384MOL0     C52915   4.146   1.986   3.467 -0.7169 -0.2026  0.2460
  384MOL0     C52916   4.004   1.972   3.491 -0.0584  0.6458  0.2742
  384MOL0     C52917   3.919   2.005   3.371  0.0245 -0.1623 -0.0364
  384MOL0     C52918   3.777   2.013   3.407 -0.3344 -0.5559 -0.0334
  384MOL0     C52919   3.660   2.016   3.427 -0.2351  0.1257 -0.7854
  384MOL0     C52920   4.529   1.811   3.608 -0.6492 -0.0811 -0.6149
  384MOL0     C52921   4.608   1.752   3.704 -0.7554 -0.0165  0.5588
  384MOL0     C52922   4.673   1.622   3.662 -0.0211  0.2517 -0.1493
  384MOL0     H52923   4.649   1.850   4.263 -1.1439 -0.8735 -2.6008
  384MOL0     H52924   4.765   1.777   4.477 -0.1265  1.0110  0.4330
  384MOL0     H52925   5.106   1.774   4.625 -1.4305 -1.7332  0.2753
  384MOL0     H52926   5.172   1.763   4.462  0.9612  0.2080 -0.2669
  384MOL0     H52927   5.139   1.554   4.679 -1.3258  2.2891 -0.2632
  384MOL0     H52928   5.185   1.505   4.520 -1.0098 -0.6665 -0.0293
  384MOL0     H52929   5.351   1.697   4.696 -0.0640 -0.1931  0.7190
  384MOL0     H52930   5.388   1.543   4.684  0.4357  0.8740  1.0647
  384MOL0     H52931   5.402   1.547   4.434 -3.9962  0.3114  0.0440
  384MOL0     H52932   5.391   1.722   4.440 -0.6640 -1.0268 -0.8200
  384MOL0     H52933   5.631   1.660   4.427  1.7524 -0.3961  0.4252
  384MOL0     H52934   5.593   1.532   4.539 -0.1007 -0.0164  0.0769
  384MOL0     H52935   5.605   1.833   4.613  3.2414  0.2883 -0.4457
  384MOL0     H52936   5.579   1.701   4.727 -0.2985 -0.3524 -0.4948
  384MOL0     H52937   5.813   1.798   4.716 -1.9604 -1.0978  1.9278
  384MOL0     H52938   5.822   1.730   4.553 -3.1516  1.0962 -0.8757
  384MOL0     H52939   5.790   1.569   4.809 -0.3945 -0.3503 -0.5563
  384MOL0     H52940   5.765   1.503   4.649  0.5700  0.1698 -1.1764
  384MOL0     H52941   5.966   1.497   4.475  0.6920  1.2560 -1.2669
  384MOL0     H52942   6.245   1.546   4.395  0.2116  0.5823 -0.5701
  384MOL0     H52943   6.234   1.378   4.459 -0.5327 -0.9862  5.0844
  384MOL0     H52944   6.439   1.594   4.550  4.0238 -0.9054 -0.5773
  384MOL0     H52945   6.413   1.436   4.629  0.3453  0.1118 -1.0640
  384MOL0     H52946   6.601   1.447   4.462 -0.1936  0.4070 -1.6695
  384MOL0     H52947   6.480   1.320   4.433 -3.4352  0.2720 -2.5599
  384MOL0     H52948   6.394   1.461   4.240 -0.9698  2.6046  0.2021
  384MOL0     H52949   6.519   1.580   4.281 -1.0138  0.5407 -1.6323
  384MOL0     H52950   6.444   1.535   4.057  0.0857 -0.9810  1.0965
  384MOL0     H52951   6.371   1.509   3.812 -0.9109  0.3470 -0.5699
  384MOL0     H52952   6.478   1.582   3.692 -1.5314 -2.0189 -0.2035
  384MOL0     H52953   6.432   1.677   3.839  0.7161  0.2691 -0.2362
  384MOL0     H52954   6.996   1.495   3.576 -0.9171  0.1595  0.0825
  384MOL0     H52955   7.136   1.563   3.379  1.6772 -1.3816 -0.9563
  384MOL0     H52956   7.251   1.555   3.168  0.0351  0.2027 -1.3866
  384MOL0     H52957   7.199   1.386   3.177 -3.1770 -1.3803 -2.2499
  384MOL0     H52958   7.164   1.411   2.919 -0.0636  0.9136 -0.3160
  384MOL0     H52959   7.242   1.567   2.935  0.2549 -0.6049 -1.2359
  384MOL0     H52960   7.347   1.298   3.016 -1.0105  1.2093  2.5360
  384MOL0     H52961   7.441   1.448   3.039  0.6941 -1.2316  0.3650
  384MOL0     H52962   7.430   1.506   2.801 -1.0550 -0.6222 -1.4498
  384MOL0     H52963   7.365   1.340   2.769  2.1645 -4.2200 -0.9399
  384MOL0     H52964   7.604   1.353   2.723 -0.6015 -1.6191 -0.2232
  384MOL0     H52965   7.639   1.404   2.896 -0.4815  0.4642  0.4613
  384MOL0     H52966   7.461   1.164   2.854 -0.5464  0.6089  1.9653
  384MOL0     H52967   7.606   1.186   2.961 -0.8178  2.3894  0.4302
  384MOL0     H52968   7.693   1.024   2.823  0.7255  0.9460  0.7734
  384MOL0     H52969   7.755   1.165   2.746  0.0359 -0.4168 -1.6654
  384MOL0     H52970   7.673   1.016   2.587  3.3734 -1.2635  5.1545
  384MOL0     H52971   7.559   1.156   2.592 -0.3967  0.4102  0.1088
  384MOL0     H52972   6.817   1.438   3.127  0.1567  1.6313 -0.4460
  384MOL0     H52973   6.689   1.373   3.318  1.1717 -2.6614  0.7386
  384MOL0     H52974   6.844   1.328   3.856  0.8756 -1.7284  4.5231
  384MOL0     H52975   6.793   1.288   4.077 -2.6034 -5.0501 -0.9605
  384MOL0     H52976   5.103   1.656   4.259 -0.5446 -2.0157  0.1333
  384MOL0     H52977   5.005   1.760   4.044  1.5685  3.3106  1.8738
  384MOL0     H52978   4.580   2.012   3.940  2.3005  0.7461  0.3057
  384MOL0     H52979   4.451   2.095   3.774  0.0037 -0.5134 -0.7482
  384MOL0     H52980   4.222   1.858   3.624  1.0183  0.2540  0.2428
  384MOL0     H52981   4.222   2.022   3.671 -2.4829 -0.8855  1.1611
  384MOL0     H52982   4.176   1.915   3.389 -0.2572 -1.8576  1.8469
  384MOL0     H52983   4.169   2.081   3.417 -0.7205 -0.9461 -1.2350
  384MOL0     H52984   3.988   1.869   3.525 -2.4523  0.9337  0.2367
  384MOL0     H52985   3.982   2.046   3.569  0.1521  0.5608  0.4131
  384MOL0     H52986   3.935   1.918   3.306  1.9982 -0.2404  0.4907
  384MOL0     H52987   3.954   2.097   3.323  1.2810  0.6052  2.2193
  384MOL0     H52988   3.560   2.031   3.462  0.3644  1.4639  0.4887
  384MOL0     H52989   4.517   1.773   3.507 -2.8622  1.7011 -1.1011
  384MOL0     H52990   4.778   1.617   3.692  1.3956  1.9386 -4.1723
  384MOL0     H52991   4.625   1.532   3.704  1.8106 -0.1762  1.1826
  384MOL0     H52992   4.684   1.613   3.554  2.1251 -3.3444  0.2029
  385MOL0     O52993   3.682  10.777   8.014 -0.4225  0.2136 -0.0492
  385MOL0     C52994   3.597  10.846   8.077 -0.1913 -0.5236  0.9142
  385MOL0     O52995   3.617  10.889   8.208 -0.7292 -0.0668  0.4110
  385MOL0     C52996   3.728  10.834   8.275  1.0069  0.1031  0.1725
  385MOL0     C52997   3.745  10.695   8.285  0.5338  1.0619  0.7496
  385MOL0     C52998   3.858  10.643   8.355  0.5763  0.3645 -0.6225
  385MOL0     C52999   3.951  10.732   8.408  0.3612 -0.9027 -0.1406
  385MOL0     O53000   4.057  10.680   8.477 -0.4010 -0.3471  0.0214
  385MOL0     C53001   4.180  10.741   8.427  0.2653  0.3605 -1.2639
  385MOL0     C53002   4.295  10.688   8.511  0.0814 -1.0017 -0.0514
  385MOL0     C53003   4.298  10.764   8.643 -1.2361 -1.1543  0.4479
  385MOL0     C53004   4.406  10.877   8.625  0.4344  0.1865  0.5515
  385MOL0     C53005   4.380  10.980   8.736  0.2444 -0.7685  0.0229
  385MOL0     C53006   4.470  11.105   8.725  0.6026  0.0845  0.2880
  385MOL0     C53007   4.441  11.217   8.826  0.4209  0.1321 -0.5218
  385MOL0     C53008   4.550  11.326   8.825  0.4127  0.0359  0.3899
  385MOL0     N53009   4.685  11.279   8.873 -0.2972  0.3779  0.2902
  385MOL0     C53010   4.783  11.233   8.787  0.2498  0.4025 -0.6456
  385MOL0     C53011   4.888  11.204   8.865  0.5335  0.4391 -0.1411
  385MOL0     C53012   5.022  11.162   8.810 -0.4295  0.0091  0.0719
  385MOL0     C53013   5.116  11.272   8.788 -0.9346  0.0789  0.0501
  385MOL0     C53014   5.155  11.349   8.916 -0.0892 -0.2462  0.4579
  385MOL0     C53015   5.270  11.446   8.888 -0.2182  0.7303 -0.2809
  385MOL0     O53016   5.222  11.565   8.822  0.1888  0.2426  0.1907
  385MOL0     C53017   5.312  11.663   8.793 -0.4172  1.0531  0.2562
  385MOL0     C53018   5.262  11.785   8.740  1.0018  1.0542 -0.2502
  385MOL0     C53019   5.340  11.895   8.732 -0.1466  0.0744  0.1183
  385MOL0     C53020   5.269  12.026   8.718  0.1406 -0.7143 -0.5294
  385MOL0     C53021   5.483  11.886   8.745  0.0827  0.3682 -0.1988
  385MOL0     C53022   5.580  12.000   8.740 -0.6676 -0.0667 -0.7564
  385MOL0     O53023   5.550  12.108   8.661 -0.0986  0.4982  0.4431
  385MOL0     C53024   5.627  12.226   8.679  0.0472 -0.1010  0.1007
  385MOL0     C53025   5.691  12.269   8.799  0.6391 -0.5914  0.7439
  385MOL0     C53026   5.750  12.400   8.806 -1.2128 -0.2791  0.2947
  385MOL0     C53027   5.766  12.481   8.687 -0.8375  0.8534  0.8316
  385MOL0     O53028   5.861  12.580   8.689  0.2392 -0.6486 -0.0604
  385MOL0     C53029   5.892  12.644   8.563 -1.3435 -0.4420  0.3758
  385MOL0     C53030   5.988  12.763   8.593 -0.6073  0.2693  0.5948
  385MOL0     C53031   6.030  12.840   8.466 -0.5558  0.9240  0.0221
  385MOL0     C53032   6.151  12.909   8.517  0.0500  0.5973  0.1492
  385MOL0     C53033   6.217  12.990   8.404 -0.2562  0.2259 -0.3717
  385MOL0     C53034   6.323  13.091   8.467  0.4120  0.1154 -0.1577
  385MOL0     C53035   6.440  13.030   8.548 -0.7886  0.0223  0.8711
  385MOL0     C53036   6.547  12.939   8.485  0.0935 -0.5812 -0.8215
  385MOL0    Cl53037   6.569  12.976   8.317  0.7391  0.2613 -0.1483
  385MOL0     C53038   5.701  12.435   8.570  0.2915  0.1341  0.5255
  385MOL0     C53039   5.632  12.311   8.569  0.1337  0.0772  0.9311
  385MOL0     O53040   5.682  11.988   8.800  0.2970  1.0515 -0.1180
  385MOL0     C53041   5.538  11.765   8.790 -0.2978  0.2833  0.3565
  385MOL0     C53042   5.455  11.649   8.810 -0.7231 -0.2802  0.6680
  385MOL0     N53043   4.859  11.244   8.998  0.5539 -0.0608  0.3310
  385MOL0     N53044   4.741  11.296   8.996 -0.0127 -0.0161  0.0946
  385MOL0     C53045   3.932  10.873   8.400 -0.7082  0.3814 -0.1734
  385MOL0     C53046   3.826  10.922   8.323  0.4069  0.7548 -1.1011
  385MOL0     C53047   3.476  10.900   8.005 -0.2941  0.4102 -0.2552
  385MOL0     C53048   3.377  10.970   8.080 -0.4607  0.1442 -0.0370
  385MOL0     C53049   3.266  11.030   8.031  0.5549  0.2787  0.1532
  385MOL0     C53050   3.248  11.023   7.898  0.3516  0.0711  0.2509
  385MOL0     O53051   3.138  11.089   7.845  0.5532  0.3658  0.3908
  385MOL0     C53052   3.065  11.018   7.745 -0.4018 -0.5652 -1.0249
  385MOL0     C53053   2.912  11.065   7.739  0.0045  0.5226 -0.0277
  385MOL0     C53054   2.836  10.947   7.670 -0.1217  0.1039 -0.3057
  385MOL0     C53055   2.706  10.993   7.605  0.2244  0.5078  1.2126
  385MOL0     C53056   2.608  11.043   7.701  0.4757  0.1890  0.2047
  385MOL0     C53057   2.508  11.073   7.766  0.2252 -0.0439 -0.1131
  385MOL0     C53058   3.336  10.949   7.816  0.3972  0.4725  0.0942
  385MOL0     C53059   3.447  10.887   7.868 -1.1145  0.7488 -0.0499
  385MOL0     C53060   3.527  10.805   7.772  0.2421 -0.6914  0.0100
  385MOL0     H53061   3.667  10.624   8.261  0.7613  0.0385  2.8069
  385MOL0     H53062   3.859  10.536   8.371 -0.0147  0.3871 -0.4214
  385MOL0     H53063   4.185  10.849   8.445 -0.8225  0.0006  1.5999
  385MOL0     H53064   4.201  10.722   8.321 -1.8936  2.4392 -2.1834
  385MOL0     H53065   4.283  10.581   8.529 -2.2881 -0.4434  2.4543
  385MOL0     H53066   4.388  10.706   8.457 -0.9654 -0.3701 -1.7302
  385MOL0     H53067   4.202  10.798   8.682 -2.8084 -0.1516 -3.8304
  385MOL0     H53068   4.331  10.699   8.725 -0.2122 -1.2923 -0.0479
  385MOL0     H53069   4.504  10.831   8.639  1.1416  1.2509 -0.7035
  385MOL0     H53070   4.406  10.932   8.530  0.7820  1.6474  1.3627
  385MOL0     H53071   4.379  10.939   8.838 -0.2519 -1.6432 -0.3208
  385MOL0     H53072   4.278  11.013   8.714  0.8256  0.1824 -1.3076
  385MOL0     H53073   4.573  11.069   8.729  0.0602 -1.5728  0.1173
  385MOL0     H53074   4.455  11.149   8.626 -1.5668 -0.2429  0.4123
  385MOL0     H53075   4.425  11.183   8.929  1.9234 -0.4964 -0.4672
  385MOL0     H53076   4.350  11.268   8.793 -0.0048  1.9599  2.9758
  385MOL0     H53077   4.552  11.370   8.724 -0.5020  0.6031  0.6087
  385MOL0     H53078   4.525  11.405   8.896  3.0354  1.3668 -0.0445
  385MOL0     H53079   4.764  11.226   8.680 -0.9894 -0.8949 -0.3682
  385MOL0     H53080   4.997  11.103   8.721  0.0863  0.3021 -0.2737
  385MOL0     H53081   5.063  11.088   8.879  0.3109 -0.9504 -1.3605
  385MOL0     H53082   5.211  11.236   8.746 -0.3285  1.4533  0.1739
  385MOL0     H53083   5.079  11.340   8.711  3.4484  1.5561 -1.0517
  385MOL0     H53084   5.080  11.404   8.973  0.5307  1.5208 -0.3304
  385MOL0     H53085   5.190  11.270   8.983  1.3691 -0.9852 -1.0823
  385MOL0     H53086   5.308  11.467   8.989 -3.4208  2.1809  0.7695
  385MOL0     H53087   5.349  11.391   8.838 -0.3822 -0.9815  1.2435
  385MOL0     H53088   5.154  11.787   8.726  1.0599 -1.3999 -1.7143
  385MOL0     H53089   5.315  12.104   8.778 -1.6211 -0.0628  0.0389
  385MOL0     H53090   5.163  12.024   8.747  0.3438  1.0937  0.4472
  385MOL0     H53091   5.266  12.073   8.619 -0.4659  0.4933  0.0431
  385MOL0     H53092   5.694  12.213   8.892 -2.6840 -0.7040  0.9002
  385MOL0     H53093   5.797  12.437   8.897 -0.0109  0.4400 -0.5943
  385MOL0     H53094   5.944  12.580   8.492  0.9297  1.4711  0.2252
  385MOL0     H53095   5.801  12.673   8.510 -0.7686  0.4543 -0.1392
  385MOL0     H53096   5.924  12.823   8.658 -0.6278 -0.7609  1.5593
  385MOL0     H53097   6.072  12.718   8.647 -1.1746 -2.3371 -0.4897
  385MOL0     H53098   5.952  12.910   8.435 -1.6384  0.5889  1.8773
  385MOL0     H53099   6.056  12.767   8.389  0.4246  0.0520  1.1252
  385MOL0     H53100   6.227  12.844   8.561  0.4550  0.4742 -0.7066
  385MOL0     H53101   6.111  12.974   8.595 -2.7917  0.3675 -1.0135
  385MOL0     H53102   6.280  12.934   8.334  1.9280  1.9016  0.1331
  385MOL0     H53103   6.147  13.053   8.348 -0.4479 -1.0245 -1.5851
  385MOL0     H53104   6.272  13.153   8.541 -0.0171  0.4571 -0.7379
  385MOL0     H53105   6.366  13.162   8.396 -0.4072  2.1328  1.2737
  385MOL0     H53106   6.398  12.972   8.631 -1.1422 -2.4404 -0.9248
  385MOL0     H53107   6.496  13.114   8.589  0.6136 -0.3308 -0.2751
  385MOL0     H53108   6.509  12.837   8.494  0.4307 -0.5436  1.8951
  385MOL0     H53109   6.647  12.950   8.528  0.6224 -2.7825 -1.3639
  385MOL0     H53110   5.696  12.493   8.478 -0.3963  0.6974  0.9130
  385MOL0     H53111   5.585  12.285   8.474  0.4624  2.0902  0.1706
  385MOL0     H53112   5.643  11.762   8.815 -0.8282  0.5298  2.8910
  385MOL0     H53113   5.503  11.557   8.840 -0.4707 -0.8575 -1.3752
  385MOL0     H53114   3.993  10.949   8.447  0.1558 -1.1074  1.1610
  385MOL0     H53115   3.793  11.026   8.323 -0.5919  0.4993  1.2613
  385MOL0     H53116   3.376  10.967   8.189 -0.0512 -2.3233 -0.0367
  385MOL0     H53117   3.197  11.075   8.101 -0.3449 -0.4303 -0.2525
  385MOL0     H53118   3.109  11.040   7.648  3.1449  0.4116  0.6708
  385MOL0     H53119   3.067  10.909   7.752 -0.7029 -0.6647 -2.2686
  385MOL0     H53120   2.898  11.154   7.677 -0.3482  0.2496 -0.3439
  385MOL0     H53121   2.869  11.084   7.838 -0.8465 -1.7173  0.0875
  385MOL0     H53122   2.901  10.891   7.602 -0.6182  1.0443 -1.6043
  385MOL0     H53123   2.819  10.880   7.754 -3.6057 -0.7332 -1.5229
  385MOL0     H53124   2.657  10.912   7.549 -1.2374  2.4940 -0.5265
  385MOL0     H53125   2.735  11.073   7.536 -1.1949  0.0857  0.0630
  385MOL0     H53126   2.437  11.114   7.834  0.4798  3.3922 -1.7165
  385MOL0     H53127   3.336  10.954   7.707  1.4252 -0.0052  0.0596
  385MOL0     H53128   3.510  10.700   7.799 -1.4598 -0.2407  0.8500
  385MOL0     H53129   3.486  10.822   7.672 -0.0785 -0.9807  0.0899
  385MOL0     H53130   3.634  10.829   7.769  0.2836 -0.7247  0.9505
  386MOL0     O53131   5.453   5.477   8.166  0.4196  0.9934 -0.2202
  386MOL0     C53132   5.355   5.520   8.095 -0.6122 -0.2542 -0.1927
  386MOL0     O53133   5.362   5.616   7.995  0.1890 -0.9702 -0.3155
  386MOL0     C53134   5.485   5.669   7.966  0.0710 -0.2687  0.0818
  386MOL0     C53135   5.549   5.755   8.054  1.1767  0.2607  0.3359
  386MOL0     C53136   5.691   5.779   8.034  0.4560  0.1132 -0.0290
  386MOL0     C53137   5.754   5.745   7.917 -0.6493 -0.6398 -0.3248
  386MOL0     O53138   5.886   5.777   7.897  0.2261 -0.1506 -0.6779
  386MOL0     C53139   5.950   5.756   7.772  0.2319 -0.1082 -0.3941
  386MOL0     C53140   6.094   5.776   7.782  0.3666 -0.0797  0.4196
  386MOL0     C53141   6.185   5.701   7.673  0.2150 -0.4496 -0.0437
  386MOL0     C53142   6.333   5.731   7.699  0.0317  0.2168  0.2120
  386MOL0     C53143   6.435   5.646   7.610 -0.1982  0.0123 -0.4771
  386MOL0     C53144   6.584   5.643   7.659 -0.8456 -0.3864  0.0554
  386MOL0     C53145   6.649   5.785   7.645 -0.1777  0.7360  0.2846
  386MOL0     C53146   6.762   5.809   7.747  0.1649  0.0803  0.8475
  386MOL0     N53147   6.885   5.730   7.715 -0.5166 -0.3921 -0.3170
  386MOL0     C53148   6.890   5.594   7.746  0.0702  0.1984  0.1517
  386MOL0     C53149   7.019   5.562   7.741 -0.4345 -0.2861 -0.0044
  386MOL0     C53150   7.084   5.433   7.770  0.1071 -0.3950  0.2044
  386MOL0     C53151   7.151   5.386   7.637  0.8478 -0.3574  0.0845
  386MOL0     C53152   7.218   5.249   7.654  1.1982 -0.2509 -0.3024
  386MOL0     C53153   7.295   5.209   7.533 -0.1491  0.4860 -0.2463
  386MOL0     O53154   7.409   5.293   7.514 -0.2742  0.2555 -0.4855
  386MOL0     C53155   7.529   5.264   7.575  0.0665  0.1098 -0.1725
  386MOL0     C53156   7.599   5.369   7.633  0.6722 -0.4679  0.1089
  386MOL0     C53157   7.726   5.357   7.696 -0.3804  0.0215  0.2170
  386MOL0     C53158   7.797   5.479   7.747 -0.4535 -1.0816  0.1242
  386MOL0     C53159   7.785   5.227   7.692 -0.2021 -0.6545  0.1145
  386MOL0     C53160   7.924   5.193   7.743  0.2050  0.0517 -0.5221
  386MOL0     O53161   7.956   5.059   7.742  0.0632 -0.1196  0.5342
  386MOL0     C53162   8.087   5.017   7.750  0.1762 -0.1296 -0.0775
  386MOL0     C53163   8.134   4.952   7.868 -0.4254  0.6507  1.2950
  386MOL0     C53164   8.273   4.933   7.881 -0.4900  1.1897  0.4180
  386MOL0     C53165   8.359   4.970   7.781  0.4642  0.3782 -0.1502
  386MOL0     O53166   8.494   4.955   7.789  0.3347 -0.8807 -0.4745
  386MOL0     C53167   8.558   4.910   7.910 -0.1336 -0.9285  0.1543
  386MOL0     C53168   8.713   4.887   7.879  0.4560  0.0601 -1.2210
  386MOL0     C53169   8.750   4.847   7.736  0.0110  0.5004 -0.8057
  386MOL0     C53170   8.899   4.807   7.727  0.1495  0.3014 -0.1971
  386MOL0     C53171   8.948   4.813   7.588 -1.0383  0.0680  0.0602
  386MOL0     C53172   9.089   4.764   7.575  0.2638  0.3980 -0.4385
  386MOL0     C53173   9.140   4.819   7.450  0.6921  0.3387 -0.1770
  386MOL0     C53174   9.289   4.779   7.438  0.2899  0.4590  0.9070
  386MOL0    Cl53175   9.392   4.847   7.574  0.0022 -0.4759 -0.0583
  386MOL0     C53176   8.318   5.019   7.669  0.1715  0.6367  0.3640
  386MOL0     C53177   8.180   5.045   7.643  0.0788 -0.0635  0.4892
  386MOL0     O53178   8.002   5.281   7.774 -0.2557  0.3343  0.3483
  386MOL0     C53179   7.718   5.118   7.631 -0.5853  0.2722 -0.6197
  386MOL0     C53180   7.584   5.133   7.581 -1.2083 -0.2020 -0.1331
  386MOL0     N53181   7.091   5.680   7.717 -0.0537  0.4552  0.8247
  386MOL0     N53182   7.008   5.783   7.697 -0.4317  0.0457  0.5591
  386MOL0     C53183   5.670   5.695   7.815  0.1610  0.1325 -1.0329
  386MOL0     C53184   5.542   5.657   7.844  0.3888 -0.1066  0.1853
  386MOL0     C53185   5.228   5.478   8.165 -0.0103  0.0752  0.4623
  386MOL0     C53186   5.230   5.382   8.271 -0.4540 -0.0716 -1.0097
  386MOL0     C53187   5.114   5.355   8.350  0.0358  0.3240  0.3798
  386MOL0     C53188   4.992   5.414   8.316 -0.1002 -0.4894  0.0132
  386MOL0     O53189   4.890   5.370   8.393  0.3449  0.4156 -1.0226
  386MOL0     C53190   4.754   5.427   8.376 -0.1544  0.4411 -0.1120
  386MOL0     C53191   4.689   5.436   8.509  0.2946 -0.0923 -0.3679
  386MOL0     C53192   4.757   5.530   8.607 -0.2085 -0.2026  0.5796
  386MOL0     C53193   4.705   5.530   8.754  0.3706 -0.0789 -1.0836
  386MOL0     C53194   4.559   5.513   8.762 -1.1141 -0.3373  0.3043
  386MOL0     C53195   4.442   5.493   8.762  0.0649 -0.2705 -0.9735
  386MOL0     C53196   4.987   5.497   8.208 -0.1318 -0.3345  0.0093
  386MOL0     C53197   5.099   5.526   8.126 -1.1688  0.5352 -0.4187
  386MOL0     C53198   5.082   5.609   8.006  0.0499 -0.5785 -0.5246
  386MOL0     H53199   5.504   5.797   8.143  1.2509  1.0658  0.0059
  386MOL0     H53200   5.757   5.832   8.102 -0.2549 -1.0607  1.6555
  386MOL0     H53201   5.914   5.824   7.694  5.2847  0.9025 -2.2437
  386MOL0     H53202   5.934   5.652   7.743 -2.9583  0.0183  0.5612
  386MOL0     H53203   6.114   5.884   7.787  0.2232 -0.0990  1.6230
  386MOL0     H53204   6.136   5.737   7.875  2.0752 -1.4150 -0.8506
  386MOL0     H53205   6.170   5.593   7.679  2.6361 -0.7703  4.0886
  386MOL0     H53206   6.159   5.734   7.572 -2.2392 -2.9646 -0.3513
  386MOL0     H53207   6.335   5.835   7.666  1.3435  0.4979  1.0768
  386MOL0     H53208   6.365   5.720   7.803  1.5169 -2.1392 -0.3954
  386MOL0     H53209   6.432   5.688   7.509 -0.6133  2.6085  0.5445
  386MOL0     H53210   6.399   5.543   7.614 -0.2552  0.0708  2.2530
  386MOL0     H53211   6.587   5.615   7.765  4.7331 -2.0401 -0.2433
  386MOL0     H53212   6.641   5.572   7.600  0.3982 -0.8347  1.7178
  386MOL0     H53213   6.576   5.866   7.663  0.2447  0.9563  1.0292
  386MOL0     H53214   6.688   5.801   7.544  0.2234  3.3685  0.7766
  386MOL0     H53215   6.787   5.916   7.753  0.9546  0.0414 -1.2219
  386MOL0     H53216   6.722   5.782   7.846  0.3562  2.8685  1.7761
  386MOL0     H53217   6.814   5.531   7.792  1.5009 -2.8754 -1.3589
  386MOL0     H53218   7.006   5.363   7.803 -0.5735  0.6472  0.8457
  386MOL0     H53219   7.157   5.441   7.852  1.5720 -0.1753 -1.0690
  386MOL0     H53220   7.074   5.381   7.560  1.3144 -0.5164 -0.3803
  386MOL0     H53221   7.230   5.458   7.612  0.3140  0.2490  0.1293
  386MOL0     H53222   7.284   5.243   7.741 -0.9934 -0.8183  1.4220
  386MOL0     H53223   7.144   5.172   7.676  0.2513 -0.3359 -3.2858
  386MOL0     H53224   7.332   5.106   7.539 -1.1265  0.1588  0.5276
  386MOL0     H53225   7.234   5.218   7.443  0.6424  0.3414 -0.8038
  386MOL0     H53226   7.531   5.453   7.629 -0.0622 -1.0937 -2.0118
  386MOL0     H53227   7.716   5.549   7.771 -2.4411 -3.0959 -0.4510
  386MOL0     H53228   7.846   5.540   7.670 -2.2145 -0.6553 -0.7006
  386MOL0     H53229   7.859   5.460   7.835  3.3357  1.0178 -1.8151
  386MOL0     H53230   8.071   4.907   7.944 -1.5704 -0.9257 -0.4728
  386MOL0     H53231   8.304   4.878   7.969  0.1049 -0.1437 -0.5851
  386MOL0     H53232   8.556   4.979   7.995  1.8838 -1.3863  0.6324
  386MOL0     H53233   8.519   4.810   7.931  1.8542 -1.6121  0.8439
  386MOL0     H53234   8.767   4.980   7.897  1.2439 -0.3734 -1.3173
  386MOL0     H53235   8.744   4.815   7.955 -0.3855  1.4575  0.5347
  386MOL0     H53236   8.733   4.940   7.681 -1.6984  0.3429 -0.5860
  386MOL0     H53237   8.685   4.768   7.699  1.2688 -1.3569  0.7621
  386MOL0     H53238   8.916   4.711   7.777  1.9398  0.3362 -0.6662
  386MOL0     H53239   8.955   4.878   7.788 -0.8995  1.4840 -0.5773
  386MOL0     H53240   8.884   4.743   7.533  0.7625 -1.3970 -0.2855
  386MOL0     H53241   8.937   4.913   7.547 -1.2335  0.6283  1.4391
  386MOL0     H53242   9.105   4.656   7.567  0.3187  0.3247  0.5304
  386MOL0     H53243   9.132   4.798   7.670 -3.5095 -0.4084  1.7899
  386MOL0     H53244   9.128   4.927   7.443 -0.8136  0.2560  0.7698
  386MOL0     H53245   9.084   4.774   7.367  1.0664  3.5074 -2.3136
  386MOL0     H53246   9.323   4.805   7.337 -1.2095 -0.3607  0.1648
  386MOL0     H53247   9.293   4.671   7.426  0.7191  0.4256  1.3071
  386MOL0     H53248   8.388   5.048   7.592 -1.7962 -0.8487 -2.1313
  386MOL0     H53249   8.150   5.098   7.553  1.0090  2.3959  1.5321
  386MOL0     H53250   7.753   5.019   7.603 -0.3957  0.5649 -1.4305
  386MOL0     H53251   7.540   5.042   7.540  3.2839 -2.3016 -0.9568
  386MOL0     H53252   5.702   5.676   7.713  0.1594 -2.4724 -0.6127
  386MOL0     H53253   5.481   5.612   7.766  0.5275  1.1982 -0.7048
  386MOL0     H53254   5.325   5.341   8.304  0.8661  2.4626 -1.4440
  386MOL0     H53255   5.119   5.302   8.444 -3.5046 -2.3103 -0.6675
  386MOL0     H53256   4.751   5.525   8.328  0.6224  0.8341  0.6441
  386MOL0     H53257   4.710   5.354   8.307  1.7919  1.3201 -2.4439
  386MOL0     H53258   4.686   5.337   8.555  2.2978  0.4430  1.0551
  386MOL0     H53259   4.586   5.472   8.495 -0.6478 -1.5814  2.0277
  386MOL0     H53260   4.865   5.515   8.596 -0.2777  0.3987 -1.1843
  386MOL0     H53261   4.744   5.635   8.581 -1.0156  0.2917  2.7679
  386MOL0     H53262   4.726   5.627   8.801  1.8887 -1.2582  0.8357
  386MOL0     H53263   4.767   5.459   8.810 -0.6916 -0.1040  0.0938
  386MOL0     H53264   4.340   5.472   8.735 -0.2603  1.5114 -1.2481
  386MOL0     H53265   4.892   5.542   8.183 -0.0430 -0.2704 -0.2175
  386MOL0     H53266   5.136   5.569   7.920 -1.9581 -0.6257 -1.8427
  386MOL0     H53267   4.976   5.625   7.982  0.0356  3.7395  1.4450
  386MOL0     H53268   5.138   5.703   8.014  1.5078 -0.8734 -4.7881
  387MOL0     O53269   2.362   8.306   5.243  0.6202  0.0731 -0.2819
  387MOL0     C53270   2.283   8.371   5.304 -0.8736 -0.4952  0.7697
  387MOL0     O53271   2.304   8.441   5.421 -0.2448 -0.4137 -0.4193
  387MOL0     C53272   2.434   8.425   5.471 -0.3063  0.4748  0.5130
  387MOL0     C53273   2.449   8.368   5.592 -0.2073  0.0325 -0.2212
  387MOL0     C53274   2.577   8.375   5.656 -0.4350 -0.4471 -0.2114
  387MOL0     C53275   2.687   8.430   5.593  0.9523  0.6683 -0.3083
  387MOL0     O53276   2.812   8.426   5.647  0.7270 -0.2265  0.4176
  387MOL0     C53277   2.877   8.294   5.658 -1.0719  0.0155  0.5254
  387MOL0     C53278   3.014   8.307   5.728 -0.2059  0.3001  0.1099
  387MOL0     C53279   3.100   8.417   5.666  0.3354  0.2149  0.0623
  387MOL0     C53280   3.239   8.411   5.717  0.3379 -0.1406  0.4258
  387MOL0     C53281   3.319   8.539   5.716  0.6751  0.5589 -0.1525
  387MOL0     C53282   3.461   8.525   5.746 -0.1038  0.1653 -0.4334
  387MOL0     C53283   3.539   8.653   5.715 -1.0758  0.2278  0.3472
  387MOL0     C53284   3.689   8.634   5.756 -0.2218  0.5230 -0.2616
  387MOL0     N53285   3.763   8.763   5.731 -0.8244 -0.3257  0.3679
  387MOL0     C53286   3.809   8.846   5.833  0.2925 -0.2273  0.1734
  387MOL0     C53287   3.895   8.926   5.778 -0.7850  0.0159 -0.1238
  387MOL0     C53288   3.971   9.041   5.846  0.4957  0.0029  0.8138
  387MOL0     C53289   3.920   9.173   5.775  0.0427 -0.6044  0.1586
  387MOL0     C53290   3.968   9.299   5.849  0.3728  0.0032  0.5352
  387MOL0     C53291   4.117   9.333   5.862 -0.3017 -0.4661  0.6788
  387MOL0     O53292   4.176   9.355   5.727 -0.5184  0.0501  0.4575
  387MOL0     C53293   4.314   9.396   5.727  0.5070  0.0722 -0.2623
  387MOL0     C53294   4.403   9.401   5.827 -0.6401  1.3805 -0.9992
  387MOL0     C53295   4.532   9.445   5.819 -0.0058  0.0164 -0.1685
  387MOL0     C53296   4.620   9.468   5.947  0.3314 -0.4639  0.8292
  387MOL0     C53297   4.582   9.477   5.689 -0.1276 -0.0425  0.7351
  387MOL0     C53298   4.714   9.540   5.664  0.1629 -0.0317 -0.8084
  387MOL0     O53299   4.776   9.618   5.757  0.5114  0.7755  0.2800
  387MOL0     C53300   4.884   9.691   5.723  0.5885  0.0214 -0.8120
  387MOL0     C53301   4.881   9.765   5.607 -0.6190 -0.1668 -0.6906
  387MOL0     C53302   4.987   9.861   5.582  0.0726 -0.3920  0.3834
  387MOL0     C53303   5.093   9.870   5.674  0.2851 -0.5506  0.3288
  387MOL0     O53304   5.195   9.971   5.663  0.1979 -0.7370  0.2361
  387MOL0     C53305   5.217  10.029   5.531 -0.3814 -0.3148  0.2075
  387MOL0     C53306   5.333  10.135   5.520 -0.1489  0.1570  0.3549
  387MOL0     C53307   5.466  10.074   5.546 -0.3103  0.5135  0.3538
  387MOL0     C53308   5.581  10.167   5.506  0.1232  0.1663  0.3598
  387MOL0     C53309   5.716  10.094   5.537 -0.6290 -0.7932 -0.1403
  387MOL0     C53310   5.817  10.212   5.505 -0.1334  0.1127 -0.6991
  387MOL0     C53311   5.966  10.176   5.520 -0.4196  0.4015  0.2051
  387MOL0     C53312   6.050  10.295   5.480 -0.3724 -0.8385  0.1535
  387MOL0    Cl53313   6.035  10.426   5.598  0.3891  0.2882  0.1069
  387MOL0     C53314   5.081   9.803   5.797 -0.6585  0.3379 -0.7349
  387MOL0     C53315   4.984   9.710   5.824 -0.0214  0.5457  0.2065
  387MOL0     O53316   4.763   9.502   5.562 -0.3070  0.3453  0.5408
  387MOL0     C53317   4.494   9.458   5.576 -0.1853 -0.6410  0.1591
  387MOL0     C53318   4.362   9.423   5.597  0.0009  0.7745  0.1083
  387MOL0     N53319   3.899   8.901   5.640  0.0286  0.4049  1.2318
  387MOL0     N53320   3.821   8.798   5.610  0.0607 -0.1978  0.3281
  387MOL0     C53321   2.665   8.500   5.466  1.6261 -0.4917 -0.6680
  387MOL0     C53322   2.538   8.502   5.413  0.1615 -0.6155  0.0419
  387MOL0     C53323   2.146   8.366   5.251 -0.6504  0.4493  0.0899
  387MOL0     C53324   2.057   8.461   5.313  0.5931 -0.6836  0.4986
  387MOL0     C53325   1.922   8.467   5.262  0.0331  0.1793 -0.7315
  387MOL0     C53326   1.878   8.375   5.167 -0.0244  0.5796 -0.4436
  387MOL0     O53327   1.752   8.387   5.102  0.7007  0.3285  0.1183
  387MOL0     C53328   1.633   8.367   5.183  0.5163  0.7141 -0.0917
  387MOL0     C53329   1.509   8.432   5.127  0.1972 -0.5812 -0.3359
  387MOL0     C53330   1.383   8.405   5.210  0.5127  0.0812 -0.4957
  387MOL0     C53331   1.270   8.493   5.162 -0.0567 -0.1835  0.2898
  387MOL0     C53332   1.234   8.491   5.020  0.3554  0.5059  0.0383
  387MOL0     C53333   1.226   8.480   4.902 -0.0454 -0.1956  1.1925
  387MOL0     C53334   1.963   8.274   5.113  0.0770  0.5254  0.3787
  387MOL0     C53335   2.102   8.273   5.146 -0.2064 -0.5771  0.8541
  387MOL0     C53336   2.194   8.175   5.069 -0.4944  0.4077  0.4953
  387MOL0     H53337   2.365   8.325   5.645 -1.7898  0.4708 -2.2439
  387MOL0     H53338   2.599   8.341   5.756 -2.9456  1.1355  0.9870
  387MOL0     H53339   2.894   8.245   5.562  0.7670  1.5187  0.0030
  387MOL0     H53340   2.822   8.224   5.720 -1.5206  1.5126  1.8949
  387MOL0     H53341   2.995   8.325   5.834 -1.5213 -2.1335  0.3770
  387MOL0     H53342   3.065   8.210   5.721 -3.6327 -1.7222  0.5211
  387MOL0     H53343   3.100   8.414   5.556  2.8509  0.8270 -0.0123
  387MOL0     H53344   3.052   8.510   5.695 -1.2796  0.0499 -1.8370
  387MOL0     H53345   3.225   8.378   5.820 -1.1105 -0.0242  0.2833
  387MOL0     H53346   3.298   8.339   5.659  0.4757  0.5632 -0.3201
  387MOL0     H53347   3.271   8.608   5.786 -1.3045 -0.6603 -0.2224
  387MOL0     H53348   3.314   8.584   5.617  0.3127  0.5726 -0.1296
  387MOL0     H53349   3.472   8.501   5.852  1.9113  3.6123  0.2993
  387MOL0     H53350   3.500   8.450   5.675  0.7563  1.7322 -1.6813
  387MOL0     H53351   3.497   8.744   5.760  1.5472  1.3914  0.6517
  387MOL0     H53352   3.530   8.665   5.607 -0.3485 -2.5397 -0.0879
  387MOL0     H53353   3.680   8.603   5.861  1.1434  0.9240  0.0062
  387MOL0     H53354   3.740   8.560   5.694 -1.0723 -1.1302  0.9338
  387MOL0     H53355   3.785   8.842   5.939 -2.7989 -1.0171 -0.4359
  387MOL0     H53356   4.081   9.039   5.838  0.3687  0.7246 -2.3530
  387MOL0     H53357   3.949   9.044   5.953  0.8516  0.1436  0.8845
  387MOL0     H53358   3.954   9.190   5.672  2.6997 -0.6766  0.9305
  387MOL0     H53359   3.811   9.174   5.776  0.0413  0.7550  0.2777
  387MOL0     H53360   3.924   9.381   5.791 -2.3404  0.2676  2.7451
  387MOL0     H53361   3.922   9.303   5.948  0.5304  1.4430  0.5703
  387MOL0     H53362   4.135   9.417   5.929  2.5143 -0.8516  0.5562
  387MOL0     H53363   4.163   9.242   5.901 -0.3275 -1.6385 -1.7896
  387MOL0     H53364   4.378   9.384   5.931  2.4787  3.8756  0.3038
  387MOL0     H53365   4.718   9.422   5.931 -0.5962 -1.9078 -1.0753
  387MOL0     H53366   4.575   9.418   6.034 -2.3146 -0.0075 -0.1801
  387MOL0     H53367   4.620   9.575   5.968 -2.1436 -0.2151 -0.0756
  387MOL0     H53368   4.793   9.767   5.545  1.2734 -2.1660 -3.7007
  387MOL0     H53369   4.978   9.922   5.493  0.4501 -1.6774 -0.5659
  387MOL0     H53370   5.247   9.960   5.451  0.3146  2.9441 -2.5319
  387MOL0     H53371   5.122  10.066   5.493 -0.9584 -2.0036 -0.1157
  387MOL0     H53372   5.337  10.190   5.426 -0.1951  0.0202  0.2725
  387MOL0     H53373   5.321  10.205   5.603  1.1133 -0.4955  1.1246
  387MOL0     H53374   5.474   9.987   5.480 -0.5746 -0.8679  2.0762
  387MOL0     H53375   5.475  10.042   5.650  0.1406  1.6536  0.6804
  387MOL0     H53376   5.575  10.262   5.559  1.6785  1.3827 -1.5219
  387MOL0     H53377   5.572  10.188   5.399 -1.6589  0.4196  0.5213
  387MOL0     H53378   5.723  10.062   5.642  1.6827  2.0725  0.7358
  387MOL0     H53379   5.731  10.019   5.459  0.0203 -0.3594 -0.4385
  387MOL0     H53380   5.788  10.290   5.575  0.2468 -1.7943  1.7104
  387MOL0     H53381   5.799  10.244   5.402 -2.9119  2.1893  0.2976
  387MOL0     H53382   5.988  10.088   5.459  0.3331 -0.4742  1.6630
  387MOL0     H53383   5.995  10.132   5.616 -0.7170  0.7805  0.4721
  387MOL0     H53384   6.029  10.321   5.376 -0.6855  1.2268  0.6915
  387MOL0     H53385   6.158  10.277   5.488 -0.1537 -0.0961 -0.8575
  387MOL0     H53386   5.160   9.819   5.869 -1.6147 -1.5315  0.8304
  387MOL0     H53387   4.973   9.650   5.914  0.0095 -1.8410 -1.2977
  387MOL0     H53388   4.527   9.482   5.476  0.1257 -0.7843  0.2276
  387MOL0     H53389   4.293   9.420   5.513 -1.5557  2.7840  1.2289
  387MOL0     H53390   2.751   8.548   5.420  0.8351  1.9363  0.2257
  387MOL0     H53391   2.518   8.563   5.325 -2.6451 -2.1529 -0.5166
  387MOL0     H53392   2.082   8.523   5.399 -1.2243  0.9864 -0.0960
  387MOL0     H53393   1.851   8.540   5.300 -0.5230 -0.5282 -0.3826
  387MOL0     H53394   1.622   8.260   5.198 -1.3673  0.7421 -0.9718
  387MOL0     H53395   1.636   8.414   5.282 -2.6556  1.9000 -0.4339
  387MOL0     H53396   1.500   8.395   5.024  2.8372  2.2063 -1.7052
  387MOL0     H53397   1.517   8.541   5.130 -1.8153 -0.3805 -0.6787
  387MOL0     H53398   1.343   8.304   5.195 -1.3984  1.0995 -2.7727
  387MOL0     H53399   1.398   8.410   5.319  0.1784  3.5644 -0.5017
  387MOL0     H53400   1.303   8.596   5.181  3.1917 -1.3640  1.5258
  387MOL0     H53401   1.174   8.476   5.212 -0.4119  2.4227  0.6713
  387MOL0     H53402   1.213   8.466   4.797 -2.2739  3.2797  0.8377
  387MOL0     H53403   1.919   8.205   5.042  1.9839  0.5170 -0.8773
  387MOL0     H53404   2.140   8.114   4.996 -0.0103 -0.2303  0.6587
  387MOL0     H53405   2.266   8.227   5.004  0.6875  0.6059  1.9196
  387MOL0     H53406   2.240   8.106   5.140  1.3542  0.3650 -0.6542
  388MOL0     O53407   3.330   6.876   0.871 -0.4035 -0.4503  0.1256
  388MOL0     C53408   3.250   6.846   0.958  0.5367  0.4878  0.0790
  388MOL0     O53409   3.273   6.830   1.089 -1.2727 -0.9395 -0.1320
  388MOL0     C53410   3.406   6.835   1.137  0.5701  0.2308 -0.5434
  388MOL0     C53411   3.484   6.943   1.117 -0.1067 -0.1635 -0.3565
  388MOL0     C53412   3.617   6.950   1.170  0.0098 -0.4535  0.2601
  388MOL0     C53413   3.658   6.839   1.242 -0.4666 -0.1889  0.6240
  388MOL0     O53414   3.786   6.828   1.289  0.6920  0.2280 -0.0336
  388MOL0     C53415   3.873   6.939   1.291  0.1702 -0.6892  1.2365
  388MOL0     C53416   4.014   6.901   1.334  0.5412  0.2340 -1.0081
  388MOL0     C53417   4.116   7.008   1.353  0.6266  0.1681 -0.2986
  388MOL0     C53418   4.228   6.966   1.443  0.6704  0.0626  0.1192
  388MOL0     C53419   4.338   7.073   1.430  0.1753 -0.3935 -0.5310
  388MOL0     C53420   4.466   7.020   1.496  0.1554  0.7394 -0.4025
  388MOL0     C53421   4.587   7.110   1.464 -0.6192  0.2952  1.0410
  388MOL0     C53422   4.645   7.094   1.319 -0.6786  0.0378 -0.2392
  388MOL0     N53423   4.760   7.184   1.299  0.1384 -0.8509  0.1317
  388MOL0     C53424   4.785   7.308   1.356 -0.1305 -0.3437 -0.9160
  388MOL0     C53425   4.914   7.340   1.322 -0.3098  0.2100 -0.5756
  388MOL0     C53426   5.001   7.449   1.351 -0.9240 -0.0622 -0.6224
  388MOL0     C53427   5.081   7.424   1.479 -0.4239 -0.0261 -0.5078
  388MOL0     C53428   5.168   7.546   1.521 -0.4876  0.0308  0.0652
  388MOL0     C53429   5.082   7.658   1.587  0.1690 -0.6412  1.4502
  388MOL0     O53430   5.167   7.772   1.609  0.3254  0.3637  0.0764
  388MOL0     C53431   5.116   7.869   1.690  0.0674  0.9394 -0.0231
  388MOL0     C53432   5.208   7.940   1.761  0.1411 -0.2396 -0.0490
  388MOL0     C53433   5.175   8.043   1.849  0.1581 -0.8940 -0.7879
  388MOL0     C53434   5.290   8.092   1.931  0.2261 -0.7530  0.6502
  388MOL0     C53435   5.034   8.077   1.859 -0.2471 -0.6288  0.7680
  388MOL0     C53436   4.987   8.178   1.953 -0.2297 -0.2503  0.7662
  388MOL0     O53437   4.859   8.163   1.991  0.1899  0.0783 -0.2796
  388MOL0     C53438   4.788   8.243   2.083 -0.7673 -0.2466  0.3120
  388MOL0     C53439   4.843   8.318   2.189  0.1139 -0.1622  0.9207
  388MOL0     C53440   4.754   8.390   2.276  0.1518  0.2771 -0.0995
  388MOL0     C53441   4.617   8.378   2.268  0.6694  0.8299 -0.0429
  388MOL0     O53442   4.533   8.422   2.369  0.1102  0.6820 -0.0433
  388MOL0     C53443   4.395   8.444   2.332  0.8316  0.1751 -1.0027
  388MOL0     C53444   4.350   8.561   2.415 -0.9250  0.3145  0.5002
  388MOL0     C53445   4.359   8.544   2.564  0.6462  0.0657  0.9103
  388MOL0     C53446   4.339   8.678   2.636  0.0617 -0.1261  0.4096
  388MOL0     C53447   4.311   8.680   2.787  0.4352 -0.1503  0.0837
  388MOL0     C53448   4.231   8.810   2.820  0.1270 -1.2793 -0.3487
  388MOL0     C53449   4.202   8.820   2.963  0.6753 -0.4489  0.3453
  388MOL0     C53450   4.113   8.933   2.998  0.0481 -0.4051  0.3881
  388MOL0    Cl53451   3.962   8.955   2.890 -0.2099 -0.0297  0.3031
  388MOL0     C53452   4.566   8.299   2.162 -0.1689 -0.2304  0.2382
  388MOL0     C53453   4.646   8.235   2.063  0.7022  0.0403  0.2796
  388MOL0     O53454   5.062   8.266   1.990  0.2955  0.3934 -0.8025
  388MOL0     C53455   4.936   7.997   1.792 -0.2153  0.1084 -0.5250
  388MOL0     C53456   4.973   7.895   1.708 -0.8447  0.0673  0.4909
  388MOL0     N53457   4.955   7.238   1.241 -0.0057 -0.1559 -0.1212
  388MOL0     N53458   4.870   7.144   1.232 -0.5183  0.4381  0.1110
  388MOL0     C53459   3.582   6.726   1.256  0.2347  0.7476 -0.8528
  388MOL0     C53460   3.448   6.725   1.215  0.2512 -0.1681 -0.7094
  388MOL0     C53461   3.103   6.843   0.922  0.9329 -0.5002 -0.2890
  388MOL0     C53462   3.010   6.818   1.032 -0.2474  1.0155  0.2803
  388MOL0     C53463   2.877   6.833   1.011 -0.1849  0.4922  0.3237
  388MOL0     C53464   2.816   6.860   0.894 -0.2968 -0.3477  0.7073
  388MOL0     O53465   2.680   6.871   0.870  0.8182  0.5662  0.1383
  388MOL0     C53466   2.585   6.849   0.983 -0.1888 -1.0785  0.0055
  388MOL0     C53467   2.437   6.895   0.952  0.1793 -0.3215  0.4043
  388MOL0     C53468   2.366   6.784   0.873  0.1759  0.9901 -0.4477
  388MOL0     C53469   2.221   6.811   0.830 -0.4588  0.4043 -0.6027
  388MOL0     C53470   2.128   6.829   0.944  0.0037 -0.9287  0.4952
  388MOL0     C53471   2.051   6.865   1.029 -0.1688  0.1637 -0.1540
  388MOL0     C53472   2.906   6.878   0.783 -0.1837  0.4386 -1.5942
  388MOL0     C53473   3.044   6.870   0.794 -0.2514  0.7370  0.3775
  388MOL0     C53474   3.127   6.887   0.669  0.5180 -0.0839  0.4403
  388MOL0     H53475   3.449   7.031   1.063  0.9020  0.9055  0.6676
  388MOL0     H53476   3.682   7.035   1.151  1.2476 -1.6596 -1.1439
  388MOL0     H53477   3.833   7.007   1.366  0.8792 -0.8116  1.7288
  388MOL0     H53478   3.875   6.983   1.191  0.2395  0.8103  1.8670
  388MOL0     H53479   3.995   6.845   1.426 -1.4402 -1.6074 -2.4554
  388MOL0     H53480   4.062   6.829   1.267  1.3524 -0.0572 -0.1375
  388MOL0     H53481   4.156   7.027   1.253  2.8941  0.6611  0.6337
  388MOL0     H53482   4.067   7.099   1.388 -0.0965 -0.6553  0.8839
  388MOL0     H53483   4.198   6.953   1.547 -0.0513 -0.1519 -0.1113
  388MOL0     H53484   4.260   6.866   1.410  1.1727 -0.0739  0.9833
  388MOL0     H53485   4.317   7.172   1.472 -0.9409 -0.7079 -0.3374
  388MOL0     H53486   4.350   7.088   1.322  0.6054  0.7833 -0.3438
  388MOL0     H53487   4.449   7.017   1.604 -0.1516  0.9734 -0.4437
  388MOL0     H53488   4.485   6.916   1.469 -0.8104 -0.7343  3.8949
  388MOL0     H53489   4.657   7.065   1.534 -2.3578 -3.1228  0.7697
  388MOL0     H53490   4.569   7.212   1.499  1.5222  1.3708 -0.7195
  388MOL0     H53491   4.662   6.986   1.307 -0.7207 -0.2002  1.5120
  388MOL0     H53492   4.564   7.127   1.254 -3.8642 -0.7982  2.9366
  388MOL0     H53493   4.709   7.360   1.413  0.9815  0.9973 -0.6134
  388MOL0     H53494   4.939   7.539   1.356 -0.4379  0.2827 -0.6521
  388MOL0     H53495   5.068   7.480   1.270  0.9424  4.6571  2.2658
  388MOL0     H53496   5.018   7.398   1.565  0.7483 -1.5406 -0.0640
  388MOL0     H53497   5.150   7.339   1.473  0.2734  0.5214 -0.4519
  388MOL0     H53498   5.238   7.511   1.597  0.7675  0.3777 -0.9062
  388MOL0     H53499   5.222   7.576   1.431 -0.2420 -0.6497 -0.0239
  388MOL0     H53500   5.003   7.688   1.517  0.7303 -1.1341  0.5938
  388MOL0     H53501   5.037   7.621   1.680 -1.2818 -1.9519  0.2943
  388MOL0     H53502   5.309   7.917   1.732 -0.4971 -0.5468 -2.1847
  388MOL0     H53503   5.336   8.183   1.892 -0.4907 -0.7491 -0.2279
  388MOL0     H53504   5.370   8.018   1.941  0.0608 -0.6900  3.0721
  388MOL0     H53505   5.248   8.127   2.026  1.6364  2.2115  0.3057
  388MOL0     H53506   4.947   8.326   2.218  0.6773 -2.7247 -0.1505
  388MOL0     H53507   4.788   8.439   2.366 -1.4797  0.6780  0.3374
  388MOL0     H53508   4.379   8.468   2.227  0.2135 -1.9658 -1.4389
  388MOL0     H53509   4.331   8.362   2.364  1.5009  0.0303  0.0329
  388MOL0     H53510   4.411   8.647   2.388 -0.5119  0.2251  1.1379
  388MOL0     H53511   4.246   8.584   2.389 -1.3443 -0.3197  1.5231
  388MOL0     H53512   4.455   8.506   2.599  3.0581  2.8249 -2.0771
  388MOL0     H53513   4.285   8.468   2.592 -0.0103 -0.1346 -1.2092
  388MOL0     H53514   4.256   8.733   2.592  1.3077 -0.5651 -2.8389
  388MOL0     H53515   4.426   8.741   2.611 -1.7234  2.8497  1.2164
  388MOL0     H53516   4.262   8.585   2.810  3.8588 -2.5095 -1.5408
  388MOL0     H53517   4.406   8.670   2.839  3.0244  1.1778 -3.9266
  388MOL0     H53518   4.145   8.826   2.755 -0.2285 -2.1550 -0.1010
  388MOL0     H53519   4.303   8.891   2.808  1.9558 -2.4105  2.0143
  388MOL0     H53520   4.295   8.825   3.020  1.6869 -0.8967 -1.2162
  388MOL0     H53521   4.158   8.723   2.992  0.1286 -2.0207 -4.7362
  388MOL0     H53522   4.186   9.014   2.987 -0.3022 -0.3818 -2.9901
  388MOL0     H53523   4.071   8.935   3.098 -1.0606 -2.8470  0.0279
  388MOL0     H53524   4.461   8.272   2.163 -0.1306 -0.3730  1.7597
  388MOL0     H53525   4.618   8.165   1.984  1.9054  0.4065 -0.4985
  388MOL0     H53526   4.832   8.020   1.816  0.6600  3.8439  0.3364
  388MOL0     H53527   4.893   7.844   1.655 -0.8670  1.5343 -0.9828
  388MOL0     H53528   3.631   6.647   1.312  0.7678  1.7943  0.2108
  388MOL0     H53529   3.386   6.646   1.257  2.5276 -0.7003  2.0297
  388MOL0     H53530   3.043   6.796   1.133 -0.4195 -2.3539 -0.2765
  388MOL0     H53531   2.818   6.822   1.101 -3.3382 -0.2314 -1.6974
  388MOL0     H53532   2.584   6.745   1.015  0.1429 -0.2872  2.8276
  388MOL0     H53533   2.610   6.915   1.067  2.5921  0.5910 -1.9614
  388MOL0     H53534   2.437   6.993   0.904  3.1957  0.7083  2.2637
  388MOL0     H53535   2.388   6.895   1.050  0.8643 -2.9982  0.8304
  388MOL0     H53536   2.430   6.747   0.792  2.0132  1.1023  0.8947
  388MOL0     H53537   2.358   6.700   0.943 -0.2950  2.8051  1.7847
  388MOL0     H53538   2.186   6.732   0.763 -0.1926  0.2532 -0.5654
  388MOL0     H53539   2.227   6.910   0.783  0.0961  0.3587 -0.6304
  388MOL0     H53540   1.983   6.911   1.098  0.3367  1.8247 -0.7146
  388MOL0     H53541   2.856   6.892   0.688  0.2173 -0.0503 -1.8762
  388MOL0     H53542   3.068   6.903   0.578  1.2197 -0.6666 -0.1268
  388MOL0     H53543   3.182   6.981   0.678  0.9011 -0.5165  4.0385
  388MOL0     H53544   3.192   6.804   0.642  2.0662  1.3516 -0.3882
  389MOL0     O53545  11.100   0.453   3.160  0.1950 -0.1623  0.3173
  389MOL0     C53546  11.049   0.557   3.133 -0.0572  0.2593 -0.4515
  389MOL0     O53547  11.111   0.656   3.065 -0.0672 -0.2092 -0.5637
  389MOL0     C53548  11.238   0.629   3.019  0.6387 -0.1474 -0.9993
  389MOL0     C53549  11.351   0.702   3.056  0.9847 -1.0920  0.4003
  389MOL0     C53550  11.472   0.655   3.011 -0.1316 -0.7709 -1.3437
  389MOL0     C53551  11.482   0.543   2.924 -0.2397 -0.5318 -0.3948
  389MOL0     O53552  11.607   0.498   2.883  0.4866  0.1924 -0.4765
  389MOL0     C53553  11.637   0.458   2.748 -0.5569 -0.1763  0.4138
  389MOL0     C53554  11.789   0.490   2.725 -0.6478  0.5904  0.8610
  389MOL0     C53555  11.877   0.403   2.810  0.1443  0.3612 -0.4465
  389MOL0     C53556  12.028   0.422   2.780 -0.0764 -0.1017  0.1151
  389MOL0     C53557  12.129   0.322   2.833  0.4784 -0.3968 -0.3902
  389MOL0     C53558  12.264   0.370   2.782  0.4219 -0.4292  0.4545
  389MOL0     C53559  12.361   0.289   2.858 -0.2493 -0.1062  0.0815
  389MOL0     C53560  12.506   0.316   2.811 -0.0949 -0.7812  0.0537
  389MOL0     N53561  12.550   0.455   2.806  0.5139  0.4382  0.1345
  389MOL0     C53562  12.578   0.526   2.694 -0.3020  0.2479  0.1690
  389MOL0     C53563  12.621   0.642   2.738 -0.7425 -0.9012 -0.0430
  389MOL0     C53564  12.654   0.761   2.656 -0.1592  0.0104 -0.4921
  389MOL0     C53565  12.535   0.816   2.585  0.0110  0.2616 -0.2795
  389MOL0     C53566  12.469   0.917   2.678  0.0409 -0.7653 -0.4528
  389MOL0     C53567  12.342   0.978   2.613  0.5923  0.6277  0.3079
  389MOL0     O53568  12.291   1.078   2.702 -0.2094  0.1311  0.3164
  389MOL0     C53569  12.162   1.131   2.698 -1.0209  0.4058  0.4337
  389MOL0     C53570  12.118   1.196   2.807  0.3451  0.2733 -0.2957
  389MOL0     C53571  11.991   1.262   2.798  0.1620  0.0726 -0.1687
  389MOL0     C53572  11.935   1.333   2.929  0.0716 -0.3583 -0.2409
  389MOL0     C53573  11.914   1.255   2.679 -0.1001 -0.6373  0.7434
  389MOL0     C53574  11.783   1.306   2.657  0.1423  0.7050 -0.1044
  389MOL0     O53575  11.702   1.232   2.566 -0.4654  0.0112 -0.0108
  389MOL0     C53576  11.564   1.238   2.575  0.0671 -0.0498 -0.4518
  389MOL0     C53577  11.490   1.301   2.678 -0.6459  0.1806  1.0520
  389MOL0     C53578  11.348   1.306   2.667 -0.1090 -0.0909  0.1140
  389MOL0     C53579  11.281   1.245   2.560 -0.6136  0.6652  0.2544
  389MOL0     O53580  11.142   1.266   2.540 -0.0307  0.0414 -0.3436
  389MOL0     C53581  11.061   1.267   2.658  1.0016  0.1183 -0.8604
  389MOL0     C53582  10.911   1.276   2.612 -0.3714  0.9049 -0.1754
  389MOL0     C53583  10.881   1.147   2.546  0.2125  0.2754  0.3537
  389MOL0     C53584  10.735   1.126   2.511 -0.6544  0.7783 -0.7709
  389MOL0     C53585  10.695   0.976   2.486  0.2416 -1.6075 -0.4967
  389MOL0     C53586  10.735   0.944   2.342 -0.4953 -0.0580 -0.2752
  389MOL0     C53587  10.721   0.798   2.304 -1.2349 -0.7947  0.5385
  389MOL0     C53588  10.731   0.781   2.151  0.4157 -0.7855 -0.6656
  389MOL0    Cl53589  10.895   0.849   2.093 -0.3898 -0.0776  0.0912
  389MOL0     C53590  11.349   1.163   2.466 -0.6856 -0.5349 -0.2756
  389MOL0     C53591  11.489   1.173   2.470 -0.1870  0.3365  0.0613
  389MOL0     O53592  11.751   1.405   2.716  0.0890  0.1527 -0.0549
  389MOL0     C53593  11.974   1.192   2.575 -0.5702  0.0267  0.8882
  389MOL0     C53594  12.093   1.125   2.582 -0.0601  0.5534  0.4000
  389MOL0     N53595  12.636   0.633   2.873  0.1890  0.0131 -0.8857
  389MOL0     N53596  12.586   0.528   2.913  0.4904  0.4741  0.8941
  389MOL0     C53597  11.372   0.470   2.880  0.4560 -0.0491 -0.4490
  389MOL0     C53598  11.254   0.524   2.925  0.3874  0.5038 -0.8038
  389MOL0     C53599  10.913   0.590   3.192 -0.0413  0.0507  0.5637
  389MOL0     C53600  10.848   0.702   3.132  0.0810  0.2891 -0.5867
  389MOL0     C53601  10.715   0.733   3.169 -0.0891 -0.4196 -0.0720
  389MOL0     C53602  10.648   0.670   3.266  0.0452 -0.1419  0.1166
  389MOL0     O53603  10.511   0.699   3.282  0.0292 -0.0009  0.0750
  389MOL0     C53604  10.452   0.657   3.409  0.8255  0.0648  0.6868
  389MOL0     C53605  10.333   0.746   3.441  0.2545  0.7017  0.2390
  389MOL0     C53606  10.196   0.702   3.364 -0.6952 -0.3537  0.8309
  389MOL0     C53607  10.070   0.749   3.429  0.8572  0.0264 -0.4629
  389MOL0     C53608  10.072   0.894   3.451 -1.0486  0.1006  0.2926
  389MOL0     C53609  10.075   1.004   3.492  0.2619 -0.4768  0.0246
  389MOL0     C53610  10.715   0.563   3.336  0.5466  0.6084 -0.5627
  389MOL0     C53611  10.840   0.522   3.298  0.2291 -0.5069 -0.1367
  389MOL0     C53612  10.899   0.412   3.375 -0.7709 -0.2347 -0.5833
  389MOL0     H53613  11.352   0.788   3.123 -1.3599 -2.0855  1.8093
  389MOL0     H53614  11.562   0.711   3.037  0.1465 -1.3757 -0.9944
  389MOL0     H53615  11.572   0.506   2.674  1.3788  1.1724 -0.5241
  389MOL0     H53616  11.622   0.350   2.741  0.2165 -0.3373  1.1419
  389MOL0     H53617  11.811   0.471   2.619 -2.1510  0.9337  0.4634
  389MOL0     H53618  11.813   0.594   2.751 -1.8356  1.3501 -0.8282
  389MOL0     H53619  11.865   0.426   2.916  0.8090  1.7946 -0.6570
  389MOL0     H53620  11.856   0.297   2.793 -2.5595  0.8098 -0.3257
  389MOL0     H53621  12.034   0.424   2.671 -3.8704  5.2121 -0.3921
  389MOL0     H53622  12.052   0.519   2.825 -1.4988  0.4435 -0.2474
  389MOL0     H53623  12.103   0.220   2.806  0.3509 -0.7003  0.7963
  389MOL0     H53624  12.136   0.309   2.942  3.1283 -1.3424 -0.6100
  389MOL0     H53625  12.279   0.343   2.677 -2.4991 -2.7948  0.5223
  389MOL0     H53626  12.286   0.476   2.795 -1.7554  0.1938 -0.5278
  389MOL0     H53627  12.345   0.185   2.827  2.5045 -0.2417 -1.1949
  389MOL0     H53628  12.354   0.300   2.966 -3.6199 -2.0580  0.2260
  389MOL0     H53629  12.570   0.269   2.886 -2.3244 -1.3613  1.6849
  389MOL0     H53630  12.529   0.269   2.715  0.7647 -1.5195  0.5970
  389MOL0     H53631  12.566   0.488   2.594  1.2958  2.1759 -0.8469
  389MOL0     H53632  12.719   0.722   2.577 -0.1211  2.1352 -1.5931
  389MOL0     H53633  12.717   0.834   2.707  2.2369 -1.4856 -1.1581
  389MOL0     H53634  12.577   0.871   2.500  3.0056  0.9666  1.4991
  389MOL0     H53635  12.466   0.739   2.549  0.9720 -0.5610 -0.3869
  389MOL0     H53636  12.445   0.876   2.776  2.3718 -0.3332  0.3557
  389MOL0     H53637  12.542   0.997   2.695  0.1489 -0.9392 -0.1022
  389MOL0     H53638  12.365   1.025   2.517  0.2009  0.6235  0.2102
  389MOL0     H53639  12.265   0.904   2.590  1.6401 -1.3780  2.8217
  389MOL0     H53640  12.178   1.205   2.897 -0.1220  1.1793 -0.0601
  389MOL0     H53641  11.951   1.286   3.026  4.5325 -0.9748 -1.0675
  389MOL0     H53642  11.827   1.342   2.917  0.3286  0.2143 -2.7839
  389MOL0     H53643  11.987   1.429   2.938 -0.8869  0.1185  0.3569
  389MOL0     H53644  11.538   1.346   2.765  3.0419  1.8108 -1.5890
  389MOL0     H53645  11.300   1.363   2.745 -3.0247 -3.4770  1.0996
  389MOL0     H53646  11.069   1.178   2.721  0.1155  0.8762  0.3630
  389MOL0     H53647  11.088   1.350   2.723  2.4451 -1.1073  0.1544
  389MOL0     H53648  10.840   1.286   2.695  0.8099 -0.2539  1.0215
  389MOL0     H53649  10.906   1.355   2.536 -0.2261  0.6315 -0.4712
  389MOL0     H53650  10.899   1.063   2.614  2.8992 -0.4942 -1.1349
  389MOL0     H53651  10.944   1.132   2.458  2.3791 -3.8911  2.2923
  389MOL0     H53652  10.705   1.185   2.425  0.5122  0.6298 -1.3034
  389MOL0     H53653  10.680   1.160   2.599 -2.4393  0.8821 -1.8753
  389MOL0     H53654  10.744   0.914   2.562 -1.8389 -0.6367  1.7512
  389MOL0     H53655  10.587   0.975   2.503  0.6643  1.6793  4.1993
  389MOL0     H53656  10.830   0.988   2.310 -0.2825  0.5503  1.1162
  389MOL0     H53657  10.663   1.002   2.283 -0.2073  0.7975  0.1964
  389MOL0     H53658  10.627   0.753   2.337 -2.4347  0.9261 -0.4282
  389MOL0     H53659  10.807   0.747   2.349  0.2013 -0.4593 -1.6728
  389MOL0     H53660  10.648   0.843   2.117 -0.0390 -0.4869  0.9287
  389MOL0     H53661  10.708   0.676   2.129  0.8378 -1.3401  1.3097
  389MOL0     H53662  11.315   1.124   2.371  1.6535 -4.0035  0.1330
  389MOL0     H53663  11.535   1.130   2.382  1.1782  2.1509 -0.1559
  389MOL0     H53664  11.949   1.177   2.470 -2.2007  1.2119  1.0662
  389MOL0     H53665  12.127   1.087   2.486 -0.9639 -0.4370  0.4488
  389MOL0     H53666  11.380   0.380   2.820  0.9314 -1.1642  1.2192
  389MOL0     H53667  11.169   0.469   2.887  1.5675 -0.4179 -2.2335
  389MOL0     H53668  10.887   0.752   3.044 -2.7246 -0.2702 -2.2896
  389MOL0     H53669  10.668   0.814   3.114 -0.7083 -2.6502 -3.0862
  389MOL0     H53670  10.434   0.550   3.399 -0.2178  0.3670 -1.1593
  389MOL0     H53671  10.520   0.672   3.492  0.5514  0.6887  0.8026
  389MOL0     H53672  10.354   0.852   3.423 -0.8868  1.0366  0.7583
  389MOL0     H53673  10.315   0.723   3.547  0.3859 -2.1361 -0.2837
  389MOL0     H53674  10.194   0.740   3.261  0.7653 -0.2464  0.8158
  389MOL0     H53675  10.201   0.593   3.359  1.3829 -0.3048  1.1810
  389MOL0     H53676  10.061   0.700   3.526  0.7358 -1.7373 -1.3205
  389MOL0     H53677   9.982   0.723   3.369  2.0799 -0.3016 -2.1724
  389MOL0     H53678  10.066   1.105   3.527  0.1612  0.2200 -1.8897
  389MOL0     H53679  10.659   0.506   3.409  1.1030  0.9540  0.1475
  389MOL0     H53680  11.001   0.435   3.408 -1.4880 -1.3936  2.9439
  389MOL0     H53681  10.840   0.384   3.463  1.9231 -2.6619  0.6084
  389MOL0     H53682  10.917   0.328   3.307  0.3945 -0.9262  0.5443
  390MOL0     O53683   8.009   4.909   9.584  0.0836 -0.8372  0.5876
  390MOL0     C53684   7.978   4.999   9.503  0.4616  0.0657  0.5927
  390MOL0     O53685   8.070   5.090   9.443  0.1329 -0.4724  0.4286
  390MOL0     C53686   8.192   5.093   9.502 -1.0010 -0.1698 -0.0001
  390MOL0     C53687   8.304   5.010   9.453  0.0726 -0.2661  0.5263
  390MOL0     C53688   8.423   5.008   9.512  0.5717  0.1098 -0.3860
  390MOL0     C53689   8.464   5.103   9.610 -0.7942 -0.2323  0.0439
  390MOL0     O53690   8.591   5.124   9.654 -0.4554  0.5751 -0.1758
  390MOL0     C53691   8.693   5.067   9.585 -0.6529  0.1716  0.1192
  390MOL0     C53692   8.726   5.126   9.435  0.9018 -0.9254 -0.6914
  390MOL0     C53693   8.866   5.092   9.381  0.0239 -0.7809  0.1797
  390MOL0     C53694   8.866   4.949   9.322  0.6493 -0.0220  0.5874
  390MOL0     C53695   8.995   4.918   9.243  1.0390 -0.5855 -1.4512
  390MOL0     C53696   8.993   4.966   9.092 -0.3468 -0.2711  0.0964
  390MOL0     C53697   9.126   5.027   9.051 -0.0335  0.8926 -0.1150
  390MOL0     C53698   9.225   4.918   9.007  0.2912 -0.8673 -0.1341
  390MOL0     N53699   9.354   4.963   8.952  0.4948  0.5929 -0.6252
  390MOL0     C53700   9.385   5.084   8.893 -0.2728 -0.0322 -0.5295
  390MOL0     C53701   9.514   5.074   8.863 -0.6952  0.0898 -0.8233
  390MOL0     C53702   9.607   5.175   8.800  0.1331  0.2217 -0.7870
  390MOL0     C53703   9.747   5.116   8.790 -0.6288  0.2687 -0.4793
  390MOL0     C53704   9.828   5.210   8.707 -0.5653 -0.2864 -0.8693
  390MOL0     C53705   9.973   5.155   8.703 -0.1705 -0.5599 -0.5173
  390MOL0     O53706  10.040   5.183   8.825  0.0162  0.0892  0.0006
  390MOL0     C53707  10.134   5.105   8.881  0.4016  1.0047 -0.1960
  390MOL0     C53708  10.258   5.156   8.916  0.4898  0.2792 -0.8867
  390MOL0     C53709  10.358   5.079   8.979  0.6491 -0.1209  0.7458
  390MOL0     C53710  10.500   5.148   8.990 -0.2597 -0.3222 -0.5280
  390MOL0     C53711  10.329   4.948   9.014 -1.1520 -0.3200 -0.2570
  390MOL0     C53712  10.438   4.868   9.086  0.5953  0.1679  0.0107
  390MOL0     O53713  10.536   4.921   9.162  0.0033 -0.7713  0.0771
  390MOL0     C53714  10.614   4.838   9.223  0.9421  0.1596  0.3961
  390MOL0     C53715  10.716   4.770   9.155 -0.0968 -0.3788  1.0653
  390MOL0     C53716  10.800   4.688   9.230 -0.4325  0.8257  0.3891
  390MOL0     C53717  10.775   4.651   9.362 -0.6092 -0.4623  0.1752
  390MOL0     O53718  10.851   4.571   9.443 -0.8694  0.1889 -0.2750
  390MOL0     C53719  10.965   4.499   9.395  0.2482 -0.4695  0.2608
  390MOL0     C53720  11.019   4.425   9.516 -0.4151  1.4308 -1.0781
  390MOL0     C53721  10.952   4.290   9.557 -0.1578 -0.1356 -0.5000
  390MOL0     C53722  10.970   4.182   9.443 -0.6421 -0.7916 -0.5850
  390MOL0     C53723  10.903   4.056   9.491  0.4435 -0.0419 -0.2439
  390MOL0     C53724  10.934   3.947   9.387 -1.4005 -0.0732  0.1405
  390MOL0     C53725  11.083   3.908   9.368  0.0798 -0.7668  1.1210
  390MOL0     C53726  11.151   3.869   9.501  0.6100 -0.6327  0.0378
  390MOL0    Cl53727  11.331   3.857   9.472  0.0937  0.6433 -0.2102
  390MOL0     C53728  10.668   4.710   9.426  0.0174  0.5689  0.0220
  390MOL0     C53729  10.586   4.801   9.361 -0.4912 -1.1566  0.4535
  390MOL0     O53730  10.435   4.747   9.053 -0.5822  0.4526 -0.5654
  390MOL0     C53731  10.201   4.891   8.986  0.8365 -0.5156  1.2297
  390MOL0     C53732  10.106   4.973   8.930 -0.1075 -1.1354  0.1297
  390MOL0     N53733   9.558   4.953   8.910 -0.2401 -0.2014 -0.3293
  390MOL0     N53734   9.463   4.888   8.963 -0.1881 -0.1540 -0.0152
  390MOL0     C53735   8.360   5.178   9.656 -0.1121 -0.6345  0.4723
  390MOL0     C53736   8.229   5.181   9.603 -0.0538  0.4738 -0.2018
  390MOL0     C53737   7.831   5.004   9.456 -0.7530  0.1561 -0.3020
  390MOL0     C53738   7.741   4.928   9.537 -0.1278  0.0825  0.4286
  390MOL0     C53739   7.599   4.922   9.495  0.0928 -0.7580 -0.4736
  390MOL0     C53740   7.554   5.004   9.393  0.6916 -0.3410 -0.0467
  390MOL0     O53741   7.417   5.028   9.395 -0.2572  0.3375 -0.6243
  390MOL0     C53742   7.362   5.123   9.306  0.1739  0.2680 -0.2947
  390MOL0     C53743   7.210   5.142   9.349 -0.6494 -1.0507 -0.5707
  390MOL0     C53744   7.199   5.221   9.484 -0.6929  0.8008  0.2022
  390MOL0     C53745   7.060   5.198   9.553 -0.3931  0.4721 -0.5771
  390MOL0     C53746   6.943   5.212   9.459  0.0399  0.4724  0.5467
  390MOL0     C53747   6.854   5.207   9.379 -0.5500  0.2977  0.9116
  390MOL0     C53748   7.647   5.060   9.309  0.3890 -0.9846 -0.2451
  390MOL0     C53749   7.783   5.061   9.339  0.0800  0.2531  0.0200
  390MOL0     C53750   7.874   5.137   9.247  0.4495 -0.3840  0.1476
  390MOL0     H53751   8.283   4.945   9.369 -2.0501 -0.8998  1.4788
  390MOL0     H53752   8.487   4.922   9.497 -0.3509 -0.9190  1.2178
  390MOL0     H53753   8.686   4.959   9.569  1.3305 -0.4534  2.7651
  390MOL0     H53754   8.781   5.077   9.650 -0.8723 -0.6207  0.5443
  390MOL0     H53755   8.646   5.105   9.364 -1.5904 -0.3620  1.7946
  390MOL0     H53756   8.711   5.234   9.442 -0.0855 -1.0397 -0.9117
  390MOL0     H53757   8.880   5.169   9.306  1.8203 -0.1799  1.0755
  390MOL0     H53758   8.945   5.112   9.454 -0.1368  0.2118  0.0943
  390MOL0     H53759   8.867   4.882   9.408  0.5073  0.0387  0.6377
  390MOL0     H53760   8.778   4.940   9.257 -0.0059  2.8051  0.9555
  390MOL0     H53761   9.025   4.813   9.238 -0.2121 -0.9560 -1.6023
  390MOL0     H53762   9.080   4.967   9.291  1.1581 -2.9378  0.9344
  390MOL0     H53763   8.960   4.888   9.022  0.2728 -0.1839 -0.3015
  390MOL0     H53764   8.920   5.047   9.078  1.1529  0.8577 -1.9213
  390MOL0     H53765   9.170   5.072   9.140  1.7336 -0.7300 -0.0992
  390MOL0     H53766   9.122   5.106   8.975 -3.6718  0.6999 -0.2995
  390MOL0     H53767   9.242   4.853   9.094 -0.0541  0.1213  0.6962
  390MOL0     H53768   9.174   4.857   8.931  0.2421 -0.1574 -0.6796
  390MOL0     H53769   9.322   5.170   8.869 -1.6063 -0.5409  0.9475
  390MOL0     H53770   9.605   5.261   8.868 -1.8870  0.0943 -0.6389
  390MOL0     H53771   9.577   5.209   8.700 -0.4877  1.0148 -0.3464
  390MOL0     H53772   9.780   5.110   8.895  1.5555 -1.2051 -1.1684
  390MOL0     H53773   9.744   5.012   8.754  0.3439  0.5039 -1.2671
  390MOL0     H53774   9.796   5.214   8.602 -1.7213 -3.7962 -0.7703
  390MOL0     H53775   9.833   5.309   8.754  1.2822 -0.7745  0.0391
  390MOL0     H53776   9.972   5.049   8.677  0.4800 -0.7997  0.3646
  390MOL0     H53777  10.021   5.216   8.626  1.3355 -1.8862 -0.6758
  390MOL0     H53778  10.291   5.255   8.887  0.7695  0.2291 -0.7388
  390MOL0     H53779  10.517   5.231   8.922 -2.7840  0.4023 -0.3902
  390MOL0     H53780  10.565   5.066   8.959  3.3219  1.6839  1.0436
  390MOL0     H53781  10.507   5.171   9.097 -2.9302 -2.0812  0.1494
  390MOL0     H53782  10.726   4.785   9.048  0.5952  2.2725  1.4190
  390MOL0     H53783  10.884   4.653   9.172  0.5099  1.1438  1.5334
  390MOL0     H53784  10.938   4.424   9.320  3.2379 -1.4293  0.0394
  390MOL0     H53785  11.039   4.566   9.351 -2.9456  0.5599 -4.3108
  390MOL0     H53786  11.127   4.415   9.499 -0.5199  0.6650 -1.3410
  390MOL0     H53787  11.014   4.484   9.608  1.7199  0.2978 -0.1493
  390MOL0     H53788  10.846   4.307   9.575  0.3273  1.2788  1.3567
  390MOL0     H53789  11.000   4.261   9.651  1.7178 -0.2045 -1.4100
  390MOL0     H53790  11.077   4.161   9.428 -1.0211 -1.4167 -2.8166
  390MOL0     H53791  10.925   4.211   9.348  1.3076  1.3598 -0.9586
  390MOL0     H53792  10.919   4.034   9.598 -1.4226  3.5318  0.9187
  390MOL0     H53793  10.795   4.074   9.487  0.2124  0.0213  3.0593
  390MOL0     H53794  10.882   3.970   9.293 -1.2259  1.5242  0.4119
  390MOL0     H53795  10.881   3.860   9.426 -1.9805  0.1073 -0.2336
  390MOL0     H53796  11.136   3.994   9.328  1.7586 -1.8044  0.9998
  390MOL0     H53797  11.082   3.834   9.287 -2.2216  1.5472 -1.1365
  390MOL0     H53798  11.121   3.770   9.534  0.9011  0.1367  2.8770
  390MOL0     H53799  11.130   3.946   9.576 -3.7066  1.5978 -3.0540
  390MOL0     H53800  10.652   4.678   9.528 -1.8662 -0.0524 -0.4213
  390MOL0     H53801  10.514   4.870   9.404  1.8296  1.0184  1.0688
  390MOL0     H53802  10.176   4.789   9.014  0.2218 -0.5446  0.6047
  390MOL0     H53803  10.007   4.929   8.941 -0.0455 -1.2322  0.3065
  390MOL0     H53804   8.396   5.255   9.723  0.9715  1.0977 -1.9735
  390MOL0     H53805   8.162   5.258   9.641 -0.2194  0.6763 -0.8937
  390MOL0     H53806   7.761   4.874   9.629  1.0080  2.0440  1.3925
  390MOL0     H53807   7.534   4.886   9.574  0.3964 -1.9881 -0.7553
  390MOL0     H53808   7.417   5.216   9.290  1.2133 -0.3056 -0.1077
  390MOL0     H53809   7.366   5.071   9.209  1.1817  3.5253 -2.1590
  390MOL0     H53810   7.165   5.044   9.368 -0.7286 -0.4676  3.0328
  390MOL0     H53811   7.160   5.195   9.268 -0.2508 -0.0889 -0.2000
  390MOL0     H53812   7.281   5.194   9.550 -1.1303 -0.5611  0.2183
  390MOL0     H53813   7.208   5.328   9.463 -1.2008  0.4443 -2.1952
  390MOL0     H53814   7.040   5.262   9.639  0.0096 -1.4762  1.0577
  390MOL0     H53815   7.056   5.095   9.589  1.3267 -0.3497 -2.5135
  390MOL0     H53816   6.770   5.217   9.313  0.9416  0.6128 -1.0149
  390MOL0     H53817   7.609   5.109   9.220  1.3396 -0.0956 -0.1779
  390MOL0     H53818   7.963   5.074   9.234  2.6952  2.4054  0.9796
  390MOL0     H53819   7.816   5.150   9.155  0.0414 -3.1380 -0.0561
  390MOL0     H53820   7.890   5.238   9.287 -2.0900 -0.0183  0.3853
  391MOL0     O53821   5.961   3.465   1.764 -0.0759  0.8638 -0.2820
  391MOL0     C53822   5.873   3.513   1.842 -0.2644  0.5014  0.0171
  391MOL0     O53823   5.882   3.633   1.916 -0.3278 -0.2975  0.3783
  391MOL0     C53824   6.002   3.687   1.908 -0.1838  0.4348 -0.6012
  391MOL0     C53825   6.096   3.655   2.010  0.0303  0.2295 -0.2789
  391MOL0     C53826   6.232   3.687   2.004  0.3466  0.3814 -0.4349
  391MOL0     C53827   6.273   3.760   1.893 -0.3101  0.2597 -0.3006
  391MOL0     O53828   6.406   3.793   1.908 -0.7746  0.2332  0.1973
  391MOL0     C53829   6.434   3.925   1.845  0.8152  0.3174  0.4406
  391MOL0     C53830   6.493   3.909   1.700  0.2335 -0.7550 -1.2477
  391MOL0     C53831   6.626   3.840   1.703 -0.4514 -0.7433  0.5902
  391MOL0     C53832   6.736   3.939   1.751 -0.4881 -0.0896  0.1829
  391MOL0     C53833   6.870   3.869   1.753  0.5261  0.7864 -0.7743
  391MOL0     C53834   6.981   3.959   1.806 -0.0995  0.2891  0.4273
  391MOL0     C53835   7.107   3.876   1.806  0.3524  0.7501  0.0782
  391MOL0     C53836   7.220   3.961   1.849 -0.5320  0.3234 -0.4681
  391MOL0     N53837   7.290   4.026   1.742 -0.2071  0.4143  0.1693
  391MOL0     C53838   7.427   4.031   1.726 -0.2033 -0.0700  0.4331
  391MOL0     C53839   7.438   4.129   1.633  0.0194  0.4076  0.3888
  391MOL0     C53840   7.556   4.184   1.577 -0.0579 -1.0393 -0.4980
  391MOL0     C53841   7.689   4.112   1.605  0.1622 -0.6108 -0.6400
  391MOL0     C53842   7.815   4.166   1.539 -0.4498  0.6179  0.1301
  391MOL0     C53843   7.945   4.118   1.608  0.1465 -0.2493  0.7696
  391MOL0     O53844   8.042   4.130   1.504 -0.2041  0.0515  0.4855
  391MOL0     C53845   8.174   4.116   1.548 -0.0044 -0.4367  0.5409
  391MOL0     C53846   8.272   4.136   1.459  0.4538  0.0925  0.0333
  391MOL0     C53847   8.408   4.108   1.486 -1.0704 -0.2020  0.5896
  391MOL0     C53848   8.510   4.138   1.380  0.5268  1.1846  0.5921
  391MOL0     C53849   8.445   4.075   1.622  0.2366  0.4791 -0.0995
  391MOL0     C53850   8.584   4.059   1.668  0.5239 -0.0369  0.0072
  391MOL0     O53851   8.686   4.095   1.592  0.2297 -0.0622  0.6676
  391MOL0     C53852   8.816   4.086   1.635  0.8608  0.2080 -0.8729
  391MOL0     C53853   8.917   4.041   1.553 -0.3839 -0.3805  0.3550
  391MOL0     C53854   9.052   4.043   1.589  1.0498 -1.2148  0.2024
  391MOL0     C53855   9.092   4.089   1.714  0.7554 -0.4256  0.7412
  391MOL0     O53856   9.227   4.098   1.753  0.5506 -0.6121  0.2477
  391MOL0     C53857   9.321   4.008   1.694  0.1726  0.0103 -0.2796
  391MOL0     C53858   9.454   4.045   1.764  0.0340  0.2803  0.7637
  391MOL0     C53859   9.580   3.979   1.693 -0.1821  0.0456  0.0916
  391MOL0     C53860   9.580   3.830   1.721  0.0314  0.7756 -0.5772
  391MOL0     C53861   9.684   3.748   1.634 -0.4534 -0.0680  0.1831
  391MOL0     C53862   9.822   3.744   1.698  0.4432  0.2327  0.1633
  391MOL0     C53863   9.930   3.663   1.618  0.1762  0.3469  0.2803
  391MOL0     C53864  10.051   3.632   1.697  0.1466  0.3349 -0.0900
  391MOL0    Cl53865  10.149   3.526   1.589 -0.3688  0.3396  0.0379
  391MOL0     C53866   8.990   4.149   1.796 -0.4963  0.0058  0.4830
  391MOL0     C53867   8.855   4.150   1.758 -0.1473 -0.0327  0.1185
  391MOL0     O53868   8.605   4.013   1.780  0.4700 -0.2992  0.5926
  391MOL0     C53869   8.340   4.051   1.710 -0.8203  0.9592 -0.2217
  391MOL0     C53870   8.209   4.070   1.673  0.7859 -0.7835 -0.3046
  391MOL0     N53871   7.314   4.167   1.587 -0.0867 -0.1100  0.2800
  391MOL0     N53872   7.225   4.116   1.665 -0.0335 -0.0078  0.2715
  391MOL0     C53873   6.186   3.791   1.790 -0.7254  0.0855 -0.3144
  391MOL0     C53874   6.049   3.756   1.795 -0.1411  0.0471 -0.5332
  391MOL0     C53875   5.750   3.439   1.862  0.0645 -0.0804 -0.0364
  391MOL0     C53876   5.713   3.351   1.762  0.7916 -0.2133 -0.8795
  391MOL0     C53877   5.583   3.290   1.766  0.3768 -0.0510 -0.8513
  391MOL0     C53878   5.499   3.295   1.874  0.2309 -0.8371  0.2322
  391MOL0     O53879   5.374   3.238   1.880  0.2358 -0.1421 -0.0883
  391MOL0     C53880   5.307   3.184   1.765 -0.2854  0.9199  0.1849
  391MOL0     C53881   5.159   3.179   1.784  0.0932  0.6867  0.3141
  391MOL0     C53882   5.111   3.293   1.872  0.1113 -0.7151  0.6970
  391MOL0     C53883   5.129   3.420   1.788 -0.4911  0.7198  0.6533
  391MOL0     C53884   5.052   3.532   1.858  0.6514  0.4148  0.1116
  391MOL0     C53885   4.976   3.612   1.906 -0.1198 -0.5528  0.3021
  391MOL0     C53886   5.551   3.372   1.982 -0.4843  0.7557  0.0614
  391MOL0     C53887   5.665   3.451   1.982 -0.1303  0.2588 -0.2221
  391MOL0     C53888   5.690   3.531   2.104 -0.2548  0.2854 -0.6202
  391MOL0     H53889   6.061   3.591   2.090  1.9766 -0.0638  0.4002
  391MOL0     H53890   6.304   3.666   2.082 -0.2091 -0.6461 -0.1771
  391MOL0     H53891   6.512   3.976   1.902 -0.8167  2.0106  1.2511
  391MOL0     H53892   6.349   3.994   1.844  0.6673  0.1641 -1.7286
  391MOL0     H53893   6.417   3.857   1.640 -0.1652  0.2538 -1.6435
  391MOL0     H53894   6.494   4.012   1.664 -0.7158  0.0403  0.8115
  391MOL0     H53895   6.626   3.746   1.759  1.0973 -0.9098  0.3601
  391MOL0     H53896   6.651   3.807   1.602 -4.0092  0.2011 -0.7369
  391MOL0     H53897   6.739   4.029   1.688  2.6013 -0.8404 -0.9608
  391MOL0     H53898   6.725   3.971   1.855  1.3169  0.6929  0.1828
  391MOL0     H53899   6.898   3.837   1.653 -1.2928 -0.0888 -1.0454
  391MOL0     H53900   6.868   3.782   1.820  0.9990  1.1161 -0.3228
  391MOL0     H53901   6.998   4.051   1.749  0.0174  0.9479  1.4863
  391MOL0     H53902   6.963   3.997   1.907 -0.0041 -0.5078  0.7467
  391MOL0     H53903   7.125   3.826   1.710 -1.3022 -1.1659  0.7085
  391MOL0     H53904   7.102   3.793   1.877 -0.0818  0.5297 -0.2061
  391MOL0     H53905   7.180   4.025   1.929  0.7559 -1.1400  1.4619
  391MOL0     H53906   7.294   3.898   1.899 -2.3427 -2.5277 -1.1450
  391MOL0     H53907   7.495   3.976   1.791 -1.8991 -1.2623  1.2923
  391MOL0     H53908   7.564   4.282   1.627  1.4668 -1.2862 -0.2266
  391MOL0     H53909   7.547   4.215   1.472 -0.8753  0.4135 -0.0436
  391MOL0     H53910   7.698   4.112   1.714 -0.4568 -0.6322 -0.5851
  391MOL0     H53911   7.677   4.010   1.568  0.7032 -0.7521 -0.4399
  391MOL0     H53912   7.815   4.131   1.435 -2.5555 -2.8422  1.1346
  391MOL0     H53913   7.813   4.275   1.530  0.6514  0.4761 -3.6056
  391MOL0     H53914   7.965   4.175   1.699 -2.2012  0.8538  0.6688
  391MOL0     H53915   7.940   4.011   1.632  1.6357 -0.1147  1.8236
  391MOL0     H53916   8.237   4.186   1.369 -2.1254 -0.5858  0.5736
  391MOL0     H53917   8.591   4.066   1.391  1.0360  1.5016 -0.8136
  391MOL0     H53918   8.548   4.241   1.388 -1.5172  2.0604 -0.2148
  391MOL0     H53919   8.469   4.121   1.280  0.5564  1.0597  0.6016
  391MOL0     H53920   8.894   4.012   1.451  0.3451  0.9972 -0.2418
  391MOL0     H53921   9.120   3.995   1.520  0.9039 -1.1423  0.0076
  391MOL0     H53922   9.287   3.906   1.714  1.7776 -1.4411 -4.0485
  391MOL0     H53923   9.336   4.025   1.587  1.1038  2.7270  0.1930
  391MOL0     H53924   9.460   4.155   1.767 -2.2263  0.4244  1.5216
  391MOL0     H53925   9.442   4.016   1.869  2.0813  0.8701  1.2144
  391MOL0     H53926   9.669   4.011   1.747 -0.9356 -1.7311  2.5869
  391MOL0     H53927   9.581   4.007   1.588  4.5437  2.2158  0.4908
  391MOL0     H53928   9.483   3.790   1.691 -0.6566  1.9832  0.0063
  391MOL0     H53929   9.608   3.807   1.824 -0.2581 -1.6047 -0.9628
  391MOL0     H53930   9.658   3.642   1.628  0.9767 -0.5109  1.1118
  391MOL0     H53931   9.700   3.798   1.538  2.5411  1.0969  1.1791
  391MOL0     H53932   9.805   3.707   1.799 -0.5337  0.1016 -0.0438
  391MOL0     H53933   9.866   3.844   1.708  0.8646  0.0469  0.1722
  391MOL0     H53934   9.959   3.714   1.527  0.5479 -1.1250 -0.4612
  391MOL0     H53935   9.881   3.571   1.585 -1.8070  0.8009  1.7105
  391MOL0     H53936  10.025   3.582   1.791  0.3585  2.1623  1.0002
  391MOL0     H53937  10.106   3.726   1.708  1.8325 -0.7670  1.5323
  391MOL0     H53938   9.014   4.186   1.895 -1.0473  0.2979  0.5177
  391MOL0     H53939   8.781   4.173   1.834  0.1693  1.9200 -0.0972
  391MOL0     H53940   8.349   4.023   1.814 -0.1677  1.5257 -0.1179
  391MOL0     H53941   8.138   4.047   1.752 -1.6731 -0.4636 -2.3051
  391MOL0     H53942   6.221   3.838   1.699  0.3938 -0.0758  0.0175
  391MOL0     H53943   5.979   3.763   1.713  0.1482  0.0643 -0.7793
  391MOL0     H53944   5.776   3.329   1.676  0.0286 -1.6116 -1.1152
  391MOL0     H53945   5.548   3.224   1.688 -0.2443 -0.5135 -0.1917
  391MOL0     H53946   5.329   3.251   1.682 -1.8901  0.5652 -0.5577
  391MOL0     H53947   5.339   3.081   1.746 -1.5541  0.3479  0.9896
  391MOL0     H53948   5.135   3.081   1.826  0.1681  0.9685  1.0382
  391MOL0     H53949   5.106   3.185   1.689  0.7288 -0.1619 -0.1017
  391MOL0     H53950   5.004   3.286   1.892 -1.0784 -0.9598 -4.5138
  391MOL0     H53951   5.168   3.309   1.965  3.4914 -2.0424 -0.9669
  391MOL0     H53952   5.092   3.412   1.685  1.4566  3.3058 -0.3570
  391MOL0     H53953   5.234   3.449   1.782  0.1004 -1.3393 -0.0376
  391MOL0     H53954   4.910   3.677   1.960  2.1603  1.4761  0.8696
  391MOL0     H53955   5.496   3.362   2.075 -2.0728  0.8210 -0.8291
  391MOL0     H53956   5.669   3.636   2.083 -0.7353 -0.1652 -2.5583
  391MOL0     H53957   5.635   3.495   2.191  1.2006 -1.4027 -0.3506
  391MOL0     H53958   5.797   3.529   2.124 -0.0932  3.5328 -0.5368
  392MOL0     O53959   4.459   0.999   7.064  0.4530 -0.9189  0.5627
  392MOL0     C53960   4.547   0.926   7.010  0.7726 -0.7265 -0.3948
  392MOL0     O53961   4.529   0.799   6.986  0.6057  0.2108  0.1869
  392MOL0     C53962   4.403   0.754   7.007  1.1629 -0.4556 -0.1887
  392MOL0     C53963   4.376   0.667   7.114  0.1311 -0.0308  0.1676
  392MOL0     C53964   4.248   0.621   7.138  0.2760 -0.7163 -0.8143
  392MOL0     C53965   4.142   0.672   7.065  0.1142 -0.2895  0.1683
  392MOL0     O53966   4.019   0.626   7.099 -0.1179 -0.9100  0.1146
  392MOL0     C53967   3.898   0.653   7.026 -0.5413  0.0775 -0.9770
  392MOL0     C53968   3.783   0.569   7.085 -0.1712  0.1855 -0.2590
  392MOL0     C53969   3.639   0.600   7.040 -1.5914 -0.8462 -0.2294
  392MOL0     C53970   3.523   0.536   7.121 -0.2993 -0.2548  0.1002
  392MOL0     C53971   3.405   0.529   7.034 -0.2816 -0.2684 -0.0426
  392MOL0     C53972   3.285   0.475   7.123 -0.0177 -0.4170 -0.3014
  392MOL0     C53973   3.160   0.424   7.044 -0.1894 -0.5391  0.8304
  392MOL0     C53974   3.046   0.373   7.131  0.3785 -0.2663 -0.2449
  392MOL0     N53975   2.938   0.318   7.051  0.7903  0.5717 -0.0729
  392MOL0     C53976   2.898   0.357   6.925  0.0968  0.3760  0.8864
  392MOL0     C53977   2.814   0.252   6.888  0.5777 -0.5514 -0.2479
  392MOL0     C53978   2.748   0.253   6.756  0.4966  0.0169  0.6431
  392MOL0     C53979   2.842   0.191   6.653  0.0860  0.4767 -0.6465
  392MOL0     C53980   2.947   0.281   6.594 -0.3439  0.1669 -0.8007
  392MOL0     C53981   3.043   0.204   6.513  0.0936 -0.7050  0.4468
  392MOL0     O53982   3.118   0.112   6.592 -0.0578 -0.2827 -0.1009
  392MOL0     C53983   3.252   0.148   6.610  1.4742  0.6852 -0.0032
  392MOL0     C53984   3.344   0.154   6.504  0.5993  0.1226  0.0055
  392MOL0     C53985   3.480   0.179   6.537 -0.0026  0.0299  0.8956
  392MOL0     C53986   3.583   0.174   6.423  0.3292  0.5323 -0.4667
  392MOL0     C53987   3.523   0.214   6.667  0.4798 -0.2075 -0.5951
  392MOL0     C53988   3.664   0.246   6.702 -0.0237 -0.1431 -0.1385
  392MOL0     O53989   3.723   0.214   6.823 -0.0691  0.1229 -0.5350
  392MOL0     C53990   3.857   0.229   6.849 -0.3031 -0.4052  0.8576
  392MOL0     C53991   3.918   0.352   6.827 -0.3591 -0.8347  0.1822
  392MOL0     C53992   4.047   0.372   6.876 -0.4711 -0.2867  0.8130
  392MOL0     C53993   4.124   0.266   6.926 -1.0120 -0.6051 -0.0869
  392MOL0     O53994   4.255   0.273   6.977  0.1291 -0.0908  0.5746
  392MOL0     C53995   4.352   0.326   6.882 -0.0848  0.4021  0.1180
  392MOL0     C53996   4.478   0.337   6.961  0.0940 -0.0126  0.1240
  392MOL0     C53997   4.585   0.421   6.897 -0.2377 -0.6667  0.6985
  392MOL0     C53998   4.685   0.463   7.009 -0.3847  0.0693 -0.1901
  392MOL0     C53999   4.803   0.544   6.958 -0.5533 -0.4881 -0.1484
  392MOL0     C54000   4.908   0.562   7.062 -0.5416  0.2234 -0.4065
  392MOL0     C54001   5.035   0.623   7.014 -0.2434 -1.6327  1.0821
  392MOL0     C54002   5.127   0.690   7.120 -0.2719  0.2006  0.4639
  392MOL0    Cl54003   5.259   0.770   7.043 -0.0622 -0.0952  0.1261
  392MOL0     C54004   4.064   0.146   6.938  0.0689  0.7549  0.1379
  392MOL0     C54005   3.936   0.129   6.901 -0.2722 -0.1449  0.3757
  392MOL0     O54006   3.716   0.328   6.621 -0.4062  0.3728  0.0962
  392MOL0     C54007   3.422   0.217   6.766  1.0323  0.0902 -0.6153
  392MOL0     C54008   3.295   0.176   6.734 -0.5013  0.2710  0.1631
  392MOL0     N54009   2.799   0.158   6.985 -0.3714 -0.1236 -0.1996
  392MOL0     N54010   2.884   0.194   7.078  0.0507 -0.5530 -0.3336
  392MOL0     C54011   4.173   0.753   6.955 -0.4190 -0.0533 -0.8336
  392MOL0     C54012   4.304   0.794   6.923  0.4406 -0.9847  0.6475
  392MOL0     C54013   4.685   0.978   6.979 -0.4069  0.2446  0.6927
  392MOL0     C54014   4.762   0.910   6.885 -0.2780 -0.2892 -0.4056
  392MOL0     C54015   4.901   0.943   6.867  0.8292 -0.0816  0.0256
  392MOL0     C54016   4.949   1.046   6.939 -1.5691  0.4021  0.7281
  392MOL0     O54017   5.082   1.087   6.922  0.1314  0.4543 -0.1198
  392MOL0     C54018   5.164   1.029   6.814  0.0088  0.4140 -0.1209
  392MOL0     C54019   5.300   1.104   6.784 -0.0754  0.8693 -0.6636
  392MOL0     C54020   5.384   1.094   6.906 -0.0169 -0.0222 -0.6021
  392MOL0     C54021   5.512   1.177   6.886 -0.3381  0.0329 -0.3011
  392MOL0     C54022   5.534   1.268   6.997 -0.6464  0.5408 -0.4200
  392MOL0     C54023   5.550   1.348   7.087 -0.7820 -0.2270 -0.1410
  392MOL0     C54024   4.871   1.120   7.027 -0.4551 -0.0301  0.1494
  392MOL0     C54025   4.738   1.090   7.055 -0.0186  0.6366  0.0693
  392MOL0     C54026   4.659   1.170   7.156  0.6460 -0.4312 -0.7026
  392MOL0     H54027   4.453   0.624   7.178 -1.3457 -1.1137  1.2859
  392MOL0     H54028   4.234   0.559   7.226 -3.1097  1.7115  0.5530
  392MOL0     H54029   3.913   0.617   6.923 -0.9444  0.0044 -1.0093
  392MOL0     H54030   3.873   0.759   7.028 -2.5929 -0.3565 -1.1614
  392MOL0     H54031   3.814   0.465   7.075  2.0284  0.7154  0.4543
  392MOL0     H54032   3.782   0.594   7.192 -1.9213 -2.7364  0.5220
  392MOL0     H54033   3.624   0.708   7.037  1.0668 -0.4405 -1.2738
  392MOL0     H54034   3.640   0.567   6.935 -1.6268 -2.4292  0.2411
  392MOL0     H54035   3.547   0.433   7.148 -0.2766  0.1464  1.6747
  392MOL0     H54036   3.502   0.591   7.213 -1.4201 -1.7811  0.7992
  392MOL0     H54037   3.434   0.465   6.950 -0.5622 -0.5849  0.1019
  392MOL0     H54038   3.375   0.624   6.990 -0.7991 -0.8279 -0.9245
  392MOL0     H54039   3.330   0.393   7.181 -0.4129 -0.4175  0.0052
  392MOL0     H54040   3.249   0.553   7.190 -1.9372 -0.4632 -1.2200
  392MOL0     H54041   3.194   0.353   6.969 -2.5632  0.2386 -1.1233
  392MOL0     H54042   3.116   0.516   7.004  1.5794  0.0114  0.0435
  392MOL0     H54043   3.086   0.298   7.199 -1.2028 -0.8474  0.0602
  392MOL0     H54044   3.013   0.455   7.196  3.6463 -0.0243  1.3166
  392MOL0     H54045   2.923   0.441   6.860 -1.7184 -0.8357 -1.5183
  392MOL0     H54046   2.711   0.353   6.736 -2.5070 -1.6017 -3.1387
  392MOL0     H54047   2.659   0.190   6.766  0.6602 -0.2188  0.6321
  392MOL0     H54048   2.890   0.104   6.699  1.0886  2.3111  2.0930
  392MOL0     H54049   2.786   0.168   6.563  1.4376  2.4923 -2.0723
  392MOL0     H54050   2.891   0.361   6.544 -0.5720  0.2703 -0.3871
  392MOL0     H54051   2.994   0.320   6.685  0.0594 -2.0584  0.0057
  392MOL0     H54052   2.983   0.142   6.446  1.8529 -1.5436 -0.3922
  392MOL0     H54053   3.107   0.277   6.464 -0.1885 -1.3480 -0.9197
  392MOL0     H54054   3.320   0.116   6.405 -1.3639 -0.8846  0.7993
  392MOL0     H54055   3.605   0.276   6.390 -1.6540  0.3956 -2.4224
  392MOL0     H54056   3.537   0.125   6.337  1.8027 -2.3201  0.2590
  392MOL0     H54057   3.674   0.120   6.452  0.0413  0.6754  0.7471
  392MOL0     H54058   3.871   0.444   6.796  0.6470  0.0753  1.2626
  392MOL0     H54059   4.095   0.468   6.862 -0.0045 -0.5882  0.2778
  392MOL0     H54060   4.358   0.245   6.809 -1.6371 -1.7938  2.3009
  392MOL0     H54061   4.322   0.425   6.845 -0.0752  1.2797  2.3264
  392MOL0     H54062   4.444   0.392   7.049  1.2570  2.7720 -1.0478
  392MOL0     H54063   4.517   0.238   6.989  0.5911  0.2393  0.3442
  392MOL0     H54064   4.541   0.512   6.855  2.3452  0.1230 -0.5508
  392MOL0     H54065   4.630   0.358   6.820 -1.5052 -0.0876 -0.5479
  392MOL0     H54066   4.722   0.370   7.051  0.1063  0.4500  0.2374
  392MOL0     H54067   4.642   0.526   7.087  2.2890  2.6642 -0.5957
  392MOL0     H54068   4.851   0.493   6.874  3.2885 -1.5177  2.4460
  392MOL0     H54069   4.766   0.643   6.929  0.6188  0.3576  1.1195
  392MOL0     H54070   4.929   0.463   7.102  0.6623 -0.6959 -3.1323
  392MOL0     H54071   4.865   0.623   7.142  3.0608  0.3283  1.6633
  392MOL0     H54072   5.016   0.704   6.944  0.4053 -1.0356  1.5800
  392MOL0     H54073   5.092   0.549   6.957 -0.9589 -0.4013 -1.3722
  392MOL0     H54074   5.159   0.616   7.193 -1.0243  0.1314  0.7400
  392MOL0     H54075   5.076   0.770   7.176 -0.5201  1.5921 -1.6353
  392MOL0     H54076   4.116   0.066   6.988 -2.1898 -1.1813 -0.4271
  392MOL0     H54077   3.882   0.038   6.925 -0.8955 -0.2477 -1.2892
  392MOL0     H54078   3.438   0.243   6.871 -2.0152  0.3618 -0.1245
  392MOL0     H54079   3.227   0.162   6.817 -0.5443 -0.5771 -0.0113
  392MOL0     H54080   4.088   0.778   6.892 -1.5196 -1.0933  0.1769
  392MOL0     H54081   4.321   0.845   6.829 -0.8432 -2.5120 -0.4681
  392MOL0     H54082   4.707   0.835   6.829 -0.1094 -0.4447 -0.3631
  392MOL0     H54083   4.944   0.889   6.784 -1.3068  1.6399 -2.3586
  392MOL0     H54084   5.180   0.923   6.834 -0.1725 -0.0977 -2.4049
  392MOL0     H54085   5.103   1.027   6.724 -3.4329  0.3676  2.0117
  392MOL0     H54086   5.284   1.204   6.744  1.8757  1.4336 -0.1783
  392MOL0     H54087   5.347   1.051   6.700  1.0370 -0.5562  0.7809
  392MOL0     H54088   5.338   1.146   6.991  4.3080  2.0383  0.7385
  392MOL0     H54089   5.399   0.989   6.933  0.9926  0.1949 -0.2597
  392MOL0     H54090   5.507   1.244   6.799 -1.4633 -0.7422 -0.8543
  392MOL0     H54091   5.599   1.112   6.873  0.9024  1.1027  1.9873
  392MOL0     H54092   5.561   1.403   7.179 -3.7472 -1.3842  1.0337
  392MOL0     H54093   4.916   1.202   7.082  0.3957  0.2109 -0.8777
  392MOL0     H54094   4.715   1.253   7.201 -0.7511 -0.6116  1.5425
  392MOL0     H54095   4.572   1.218   7.110  1.6752  1.7702 -0.4797
  392MOL0     H54096   4.625   1.105   7.237 -2.6119 -0.7950 -2.2085
  393MOL0     O54097   8.380   5.576   2.611 -0.4742 -0.0236 -0.2175
  393MOL0     C54098   8.395   5.658   2.698  0.2993  0.4677 -0.1840
  393MOL0     O54099   8.500   5.665   2.780 -0.5095  0.3411  0.3959
  393MOL0     C54100   8.602   5.569   2.798  0.4153  0.2118  0.7137
  393MOL0     C54101   8.581   5.457   2.870 -0.2136 -0.4608  0.4125
  393MOL0     C54102   8.689   5.369   2.902  0.5366 -0.8097  0.5988
  393MOL0     C54103   8.816   5.397   2.861  0.1595 -0.0258  0.6398
  393MOL0     O54104   8.923   5.314   2.876 -0.0923 -0.0392 -0.3720
  393MOL0     C54105   8.918   5.201   2.784  0.6049 -0.5276  0.2258
  393MOL0     C54106   9.041   5.116   2.761 -0.0000  0.6333  0.3885
  393MOL0     C54107   9.160   5.185   2.715 -0.4721 -0.3443  0.8048
  393MOL0     C54108   9.263   5.194   2.827 -0.7429  0.0796 -0.2654
  393MOL0     C54109   9.407   5.246   2.793 -0.4142  0.5724  0.3706
  393MOL0     C54110   9.420   5.375   2.723  0.2143 -0.5351 -0.2212
  393MOL0     C54111   9.433   5.357   2.577 -0.3108 -0.2434  0.9031
  393MOL0     C54112   9.420   5.484   2.493  0.4197  0.2504  0.4577
  393MOL0     N54113   9.512   5.593   2.529  0.2976 -0.0594  0.0883
  393MOL0     C54114   9.471   5.708   2.601 -0.5663  0.1611 -0.6479
  393MOL0     C54115   9.582   5.784   2.603  0.0593 -0.7223  0.0064
  393MOL0     C54116   9.595   5.895   2.701 -0.2090  0.1459 -0.4293
  393MOL0     C54117   9.659   5.868   2.831 -0.1235 -0.6630 -0.4363
  393MOL0     C54118   9.570   5.792   2.937  0.2047 -0.8506  0.4446
  393MOL0     C54119   9.450   5.873   2.994 -0.6194  0.3122  0.0065
  393MOL0     O54120   9.335   5.815   2.930  0.6284 -0.4849  0.1278
  393MOL0     C54121   9.208   5.873   2.935  0.6397  0.4803  0.3736
  393MOL0     C54122   9.166   5.979   3.017  0.2414 -0.1184 -0.6066
  393MOL0     C54123   9.046   6.043   3.004 -0.1982  0.7046 -0.0115
  393MOL0     C54124   9.016   6.159   3.089 -0.9426 -0.3020 -0.4169
  393MOL0     C54125   8.952   5.996   2.900 -1.0976 -1.0456 -0.0377
  393MOL0     C54126   8.816   6.057   2.866  0.1705 -0.1008  0.3901
  393MOL0     O54127   8.788   6.166   2.935  0.2931 -0.0039 -0.3348
  393MOL0     C54128   8.682   6.251   2.908  0.2906  0.1816  0.5001
  393MOL0     C54129   8.581   6.237   2.817  0.2999 -0.2128 -0.1439
  393MOL0     C54130   8.471   6.327   2.811  0.7620  0.1971 -0.0966
  393MOL0     C54131   8.464   6.437   2.896 -0.4491  0.1993 -0.1287
  393MOL0     O54132   8.359   6.525   2.904 -0.0549  0.3623 -0.8760
  393MOL0     C54133   8.270   6.528   2.793 -0.7382  0.4234 -0.3412
  393MOL0     C54134   8.216   6.668   2.779  0.2063 -0.3852 -0.5092
  393MOL0     C54135   8.099   6.696   2.878  0.3224  0.6958  0.1235
  393MOL0     C54136   8.109   6.837   2.938 -0.3588 -0.4683  0.5100
  393MOL0     C54137   7.992   6.853   3.038 -0.0770 -0.1068  0.3729
  393MOL0     C54138   7.968   6.998   3.089  0.3061 -0.3486  1.0104
  393MOL0     C54139   7.872   6.990   3.209 -0.0056  0.1912  0.3149
  393MOL0     C54140   7.945   6.955   3.337 -0.2921 -0.5648 -0.2578
  393MOL0    Cl54141   7.829   6.977   3.471 -0.3085 -0.5535  0.5239
  393MOL0     C54142   8.573   6.461   2.976  0.5829 -0.2483  0.1495
  393MOL0     C54143   8.671   6.364   2.988  0.1557  0.2600 -0.3863
  393MOL0     O54144   8.751   6.007   2.773 -0.1873 -0.0871  0.1806
  393MOL0     C54145   9.004   5.890   2.818 -0.6110  0.0446 -0.1544
  393MOL0     C54146   9.121   5.829   2.832 -0.0774 -0.6282  0.3131
  393MOL0     N54147   9.679   5.726   2.531  0.3350 -0.2931  0.4704
  393MOL0     N54148   9.639   5.610   2.488 -0.8271  0.3783  0.0312
  393MOL0     C54149   8.834   5.512   2.782 -0.4116  0.4830  0.0728
  393MOL0     C54150   8.722   5.595   2.747 -0.0588 -1.5336 -0.6306
  393MOL0     C54151   8.289   5.760   2.708 -0.8360 -0.7467 -0.0393
  393MOL0     C54152   8.328   5.870   2.778  0.2027 -0.3266 -1.2391
  393MOL0     C54153   8.271   5.997   2.765 -0.8270  0.0936 -0.8814
  393MOL0     C54154   8.156   6.009   2.693  0.3335  1.1577  0.2535
  393MOL0     O54155   8.091   6.127   2.696 -0.7065  0.6902  0.2583
  393MOL0     C54156   7.976   6.149   2.618 -0.2869  0.5064 -0.1201
  393MOL0     C54157   7.954   6.300   2.620  0.4309 -0.6934 -0.0183
  393MOL0     C54158   7.836   6.348   2.528  0.0027  0.8022 -0.3932
  393MOL0     C54159   7.700   6.323   2.586  0.8526  0.0470 -0.3038
  393MOL0     C54160   7.601   6.401   2.506 -0.2964  0.4019 -0.8648
  393MOL0     C54161   7.525   6.457   2.425  0.1502 -0.3425 -0.3210
  393MOL0     C54162   8.102   5.893   2.628  0.4940 -0.1466 -0.6274
  393MOL0     C54163   8.171   5.775   2.632 -0.2770  0.9349 -0.0404
  393MOL0     C54164   8.115   5.670   2.536 -0.3384 -0.5300  0.0956
  393MOL0     H54165   8.483   5.429   2.908 -1.2901 -0.2436 -2.0386
  393MOL0     H54166   8.672   5.276   2.957  0.4945 -0.1179  1.7909
  393MOL0     H54167   8.894   5.241   2.685  1.0787 -1.8728 -0.4590
  393MOL0     H54168   8.830   5.144   2.815 -0.4796  0.2852 -1.1970
  393MOL0     H54169   9.073   5.072   2.856  1.7242 -1.4369 -1.0189
  393MOL0     H54170   9.012   5.031   2.698  2.0621 -0.0810  0.3176
  393MOL0     H54171   9.195   5.140   2.621 -1.0691 -0.3916  0.5994
  393MOL0     H54172   9.139   5.288   2.684  1.8515 -0.0931 -0.1876
  393MOL0     H54173   9.224   5.268   2.898  0.5104  0.7386 -0.2267
  393MOL0     H54174   9.266   5.094   2.871  1.2858 -0.1689 -0.8629
  393MOL0     H54175   9.454   5.160   2.745 -0.7434 -0.7111  2.2290
  393MOL0     H54176   9.461   5.261   2.888  1.3162  2.9728 -0.8859
  393MOL0     H54177   9.327   5.427   2.749  1.1683  1.7805 -1.1454
  393MOL0     H54178   9.505   5.435   2.756 -0.3707 -0.1892  0.7350
  393MOL0     H54179   9.366   5.284   2.530  2.0424 -2.5622  0.8752
  393MOL0     H54180   9.535   5.318   2.573  0.1587  0.9092  1.3701
  393MOL0     H54181   9.448   5.453   2.392  1.6928  2.8805 -0.0898
  393MOL0     H54182   9.319   5.522   2.479 -0.5188 -2.7893 -2.6200
  393MOL0     H54183   9.378   5.723   2.654  0.9133  2.1105  1.6216
  393MOL0     H54184   9.494   5.936   2.710 -1.3770 -2.4230 -0.6714
  393MOL0     H54185   9.658   5.970   2.654  0.6541  0.1560  0.6935
  393MOL0     H54186   9.749   5.809   2.816  0.8076  0.8922 -1.1768
  393MOL0     H54187   9.690   5.962   2.875  0.4781 -0.9555 -0.2356
  393MOL0     H54188   9.527   5.700   2.894 -0.1496 -0.3414 -0.3115
  393MOL0     H54189   9.636   5.769   3.021  0.3748 -0.9617  0.2814
  393MOL0     H54190   9.450   5.854   3.102 -3.4940 -1.2105 -0.1596
  393MOL0     H54191   9.463   5.973   2.954  1.3127  0.0276 -0.1537
  393MOL0     H54192   9.230   6.013   3.097 -0.8507  1.0519 -0.2034
  393MOL0     H54193   9.002   6.243   3.021  0.3511 -1.5201 -2.2859
  393MOL0     H54194   9.086   6.190   3.167 -2.9204  0.1023  1.2708
  393MOL0     H54195   8.921   6.145   3.142 -1.2901 -1.1047 -1.2178
  393MOL0     H54196   8.572   6.152   2.750 -3.3588  0.6557 -0.9486
  393MOL0     H54197   8.391   6.295   2.744 -0.8562  0.7041  1.5243
  393MOL0     H54198   8.330   6.501   2.705  1.0637 -2.2128  1.5303
  393MOL0     H54199   8.190   6.455   2.783 -0.1508 -0.0184 -2.3211
  393MOL0     H54200   8.295   6.741   2.801 -0.2270 -0.1085  0.1438
  393MOL0     H54201   8.185   6.680   2.675 -1.6809 -0.3738  0.0178
  393MOL0     H54202   8.096   6.624   2.961  1.5847  0.6879  0.1791
  393MOL0     H54203   8.007   6.681   2.822 -2.1308  2.8630  3.1927
  393MOL0     H54204   8.110   6.913   2.860  0.9821 -0.7100  0.2606
  393MOL0     H54205   8.205   6.844   2.991 -0.0438  0.0279 -0.1143
  393MOL0     H54206   7.901   6.812   2.992 -1.6022 -0.9015  3.7639
  393MOL0     H54207   8.034   6.794   3.120  2.3694  1.8470  0.6531
  393MOL0     H54208   7.918   7.055   3.011 -0.8741 -1.6541  0.7935
  393MOL0     H54209   8.062   7.052   3.106  0.2386  1.3900 -2.9929
  393MOL0     H54210   7.798   6.914   3.184 -1.1856  1.2683  0.3890
  393MOL0     H54211   7.815   7.081   3.231  2.2749  1.5151  1.0544
  393MOL0     H54212   8.029   7.024   3.348  1.0035 -2.1354  0.1340
  393MOL0     H54213   7.995   6.858   3.331  1.5479  0.3184  0.1120
  393MOL0     H54214   8.575   6.558   3.023  0.4769  0.4487 -1.2367
  393MOL0     H54215   8.752   6.380   3.059 -1.5861 -1.6237  2.1971
  393MOL0     H54216   8.943   5.846   2.739 -1.8991  1.7309 -0.1601
  393MOL0     H54217   9.152   5.742   2.775  0.2518 -2.5328  3.1391
  393MOL0     H54218   8.938   5.535   2.761 -0.6781  1.9117  0.1811
  393MOL0     H54219   8.744   5.692   2.703 -1.7825 -0.0816  1.5361
  393MOL0     H54220   8.412   5.861   2.846  1.5637 -0.5661 -2.8811
  393MOL0     H54221   8.297   6.090   2.816 -1.8453 -0.3402  0.4852
  393MOL0     H54222   7.987   6.112   2.516 -0.1919 -0.2827  0.1644
  393MOL0     H54223   7.892   6.095   2.663 -1.1172  2.5644  0.9322
  393MOL0     H54224   8.038   6.337   2.562  0.4957 -3.2890 -1.7168
  393MOL0     H54225   7.931   6.336   2.721 -0.8060 -0.6093 -0.3128
  393MOL0     H54226   7.853   6.454   2.507  1.3244  0.2340 -2.5814
  393MOL0     H54227   7.863   6.303   2.431 -0.1927 -0.8894  0.3028
  393MOL0     H54228   7.712   6.359   2.689 -0.6072  2.1709 -0.8095
  393MOL0     H54229   7.662   6.220   2.588 -2.2882  1.0844 -1.1955
  393MOL0     H54230   7.461   6.509   2.356 -0.0309 -0.0293  0.0820
  393MOL0     H54231   8.008   5.898   2.574  0.2560  0.9566 -0.1237
  393MOL0     H54232   8.038   5.710   2.469  0.0938 -0.6120 -0.4480
  393MOL0     H54233   8.196   5.635   2.472 -0.0841 -0.5669  0.4310
  393MOL0     H54234   8.066   5.590   2.592 -1.7644  0.2833  0.0552
  394MOL0     O54235  11.272  10.061   5.837 -0.3476 -0.2796  0.1132
  394MOL0     C54236  11.204   9.990   5.912 -0.0391  0.3559  0.1940
  394MOL0     O54237  11.257   9.917   6.017  0.1823 -0.2873  0.6600
  394MOL0     C54238  11.392   9.926   6.037  0.2126 -0.4171  0.6542
  394MOL0     C54239  11.440   9.966   6.165  0.4970 -0.2282  0.0591
  394MOL0     C54240  11.581   9.979   6.181 -0.4200  0.1229  0.3510
  394MOL0     C54241  11.678   9.935   6.088  0.6137 -0.4811  0.3287
  394MOL0     O54242  11.811   9.935   6.115  0.0287 -0.2946  0.5515
  394MOL0     C54243  11.854   9.939   6.251 -0.4922  0.1934  0.1678
  394MOL0     C54244  12.003   9.891   6.257  0.2530  0.0433  0.0854
  394MOL0     C54245  12.079   9.930   6.389 -0.4973  0.4105 -0.0802
  394MOL0     C54246  12.225   9.881   6.369  1.1807  0.2029 -0.2949
  394MOL0     C54247  12.302   9.942   6.488 -0.1641 -0.0747  0.3779
  394MOL0     C54248  12.425   9.855   6.509 -0.1430 -0.0498 -0.3680
  394MOL0     C54249  12.534   9.918   6.598  1.2693 -0.2655 -0.8944
  394MOL0     C54250  12.584  10.064   6.556  0.5197  0.6811 -0.2422
  394MOL0     N54251  12.659  10.052   6.434 -0.4681  0.2340 -0.5866
  394MOL0     C54252  12.767   9.970   6.413 -0.6957 -1.3063 -0.6144
  394MOL0     C54253  12.827  10.000   6.296  0.5794  0.0672  0.1301
  394MOL0     C54254  12.947   9.935   6.239 -0.2619  0.8327  0.1567
  394MOL0     C54255  13.068   9.921   6.338  0.8893  0.7770  0.4546
  394MOL0     C54256  13.183   9.852   6.267  0.5062 -0.0856  0.3488
  394MOL0     C54257  13.263   9.937   6.168 -0.0960  0.0923  0.0490
  394MOL0     O54258  13.334  10.054   6.215 -0.5336  1.0505 -0.3466
  394MOL0     C54259  13.448  10.088   6.149  0.1422  0.5460  0.1592
  394MOL0     C54260  13.451  10.105   6.013  0.3909  0.0821 -0.2647
  394MOL0     C54261  13.552  10.168   5.936  0.3372  0.9732 -0.2468
  394MOL0     C54262  13.538  10.172   5.779  0.3275  0.3979 -0.5519
  394MOL0     C54263  13.666  10.207   6.007 -0.4222 -0.7946  0.4677
  394MOL0     C54264  13.774  10.284   5.940  0.6536  0.0752  0.3425
  394MOL0     O54265  13.895  10.273   6.007  0.2487  0.2449 -0.0741
  394MOL0     C54266  14.006  10.325   5.948  0.1446  0.1904  0.3827
  394MOL0     C54267  14.091  10.259   5.855  0.9734  0.7578 -0.1605
  394MOL0     C54268  14.215  10.299   5.816 -0.4957  0.0427 -1.1159
  394MOL0     C54269  14.253  10.430   5.852  0.4185  0.8588 -0.5264
  394MOL0     O54270  14.380  10.476   5.819 -0.1955  0.8940 -0.3513
  394MOL0     C54271  14.427  10.454   5.688 -0.1317 -0.3580  0.5585
  394MOL0     C54272  14.571  10.501   5.683  0.2796  0.1094 -1.5031
  394MOL0     C54273  14.624  10.485   5.546 -0.2401 -0.2336  0.3242
  394MOL0     C54274  14.773  10.502   5.543 -0.1785 -0.2786  0.1783
  394MOL0     C54275  14.838  10.474   5.401  0.1194  0.1767 -0.5884
  394MOL0     C54276  14.991  10.496   5.400  0.3178 -0.3001 -0.3829
  394MOL0     C54277  15.023  10.641   5.387 -0.3323  0.4502  0.2198
  394MOL0     C54278  15.172  10.670   5.417  0.8773  0.7162  0.2555
  394MOL0    Cl54279  15.266  10.592   5.278  0.0252  0.0232  0.2572
  394MOL0     C54280  14.165  10.517   5.925  0.5169  0.2677 -0.3645
  394MOL0     C54281  14.038  10.463   5.978 -0.2499 -0.2455  0.6089
  394MOL0     O54282  13.751  10.345   5.835 -0.6638  0.3802  0.2542
  394MOL0     C54283  13.665  10.187   6.147 -0.9480 -0.0370 -0.3672
  394MOL0     C54284  13.556  10.128   6.217  0.7094 -0.5445 -0.4533
  394MOL0     N54285  12.756  10.113   6.251  0.9737  0.7169 -0.1383
  394MOL0     N54286  12.661  10.148   6.333  0.3128  0.4384  0.1407
  394MOL0     C54287  11.628   9.893   5.962 -0.6590 -1.2067 -0.3755
  394MOL0     C54288  11.486   9.888   5.941  0.0133  0.3863 -0.6102
  394MOL0     C54289  11.056   9.990   5.885  0.3034 -0.1279  0.2002
  394MOL0     C54290  11.006  10.104   5.812 -1.0474  0.3172 -0.2538
  394MOL0     C54291  10.875  10.125   5.783 -0.0323 -0.3476 -0.4674
  394MOL0     C54292  10.777  10.030   5.823 -0.4677  0.2825 -1.3677
  394MOL0     O54293  10.643  10.029   5.801  0.3273 -0.2804  0.4542
  394MOL0     C54294  10.594  10.119   5.702 -0.1467  0.0762 -0.2026
  394MOL0     C54295  10.453  10.145   5.734  0.2252 -0.9551  1.4896
  394MOL0     C54296  10.362  10.026   5.740 -0.3751 -0.2044 -0.3465
  394MOL0     C54297  10.225  10.064   5.801 -0.9446  1.1483  0.6766
  394MOL0     C54298  10.134   9.951   5.793  0.3620  0.1349 -0.5879
  394MOL0     C54299  10.068   9.852   5.792  0.1759 -1.0904  0.0142
  394MOL0     C54300  10.823   9.915   5.896 -0.8842  0.1884 -0.5033
  394MOL0     C54301  10.960   9.902   5.928  0.3983  0.3842  0.2669
  394MOL0     C54302  10.991   9.777   5.999  0.0819  0.2275 -0.1949
  394MOL0     H54303  11.366  10.004   6.234 -0.6792 -0.9643 -0.7684
  394MOL0     H54304  11.614  10.025   6.274 -0.1117 -0.7633  0.6836
  394MOL0     H54305  11.787   9.881   6.315  0.3849  0.0704  0.9865
  394MOL0     H54306  11.853  10.044   6.280  2.4500  0.8206 -1.5915
  394MOL0     H54307  12.002   9.783   6.239  2.2840  0.1796 -1.1484
  394MOL0     H54308  12.068   9.937   6.182  0.3072 -3.2682 -2.1510
  394MOL0     H54309  12.075  10.039   6.400  1.0417  0.7660 -2.2959
  394MOL0     H54310  12.042   9.885   6.482  0.5598  0.3042  0.3047
  394MOL0     H54311  12.229   9.772   6.371  0.2358  0.1355 -1.3227
  394MOL0     H54312  12.264   9.919   6.274  0.6131 -0.0390 -0.6256
  394MOL0     H54313  12.236   9.938   6.576  1.2618  1.7016  1.6026
  394MOL0     H54314  12.327  10.046   6.464 -1.7220 -0.2667 -2.4742
  394MOL0     H54315  12.379   9.761   6.542 -1.1477 -0.4507 -2.7431
  394MOL0     H54316  12.467   9.842   6.409 -2.8184 -0.9854 -1.4632
  394MOL0     H54317  12.616   9.845   6.598  0.4653 -1.2175  1.2026
  394MOL0     H54318  12.500   9.935   6.700 -0.7900 -1.3021 -1.3736
  394MOL0     H54319  12.507  10.141   6.546  3.4756  3.8701 -0.4129
  394MOL0     H54320  12.656  10.093   6.634 -0.5575 -2.0648  1.9710
  394MOL0     H54321  12.796   9.895   6.485  0.5598 -1.5919 -1.3793
  394MOL0     H54322  12.981   9.980   6.145  0.7385 -1.3838 -0.6295
  394MOL0     H54323  12.918   9.832   6.217  0.6680  0.4271  0.7880
  394MOL0     H54324  13.100  10.021   6.367 -0.4688  2.2452 -2.6354
  394MOL0     H54325  13.026   9.876   6.428 -1.1955 -0.0996 -0.8509
  394MOL0     H54326  13.253   9.813   6.341  0.0167 -1.7784 -0.0237
  394MOL0     H54327  13.157   9.761   6.211  2.4837 -0.5560  0.1307
  394MOL0     H54328  13.329   9.866   6.118  0.9208  0.8106  0.3436
  394MOL0     H54329  13.186   9.969   6.096  0.2223  1.5850  0.3364
  394MOL0     H54330  13.360  10.071   5.965 -2.2751  2.3195  2.7514
  394MOL0     H54331  13.472  10.092   5.745  1.7895 -1.1310  0.0608
  394MOL0     H54332  13.634  10.137   5.740  0.2721 -0.7035  0.2369
  394MOL0     H54333  13.497  10.259   5.728  0.7604 -0.4110 -2.3481
  394MOL0     H54334  14.082  10.152   5.836  3.1352  0.4520  0.2717
  394MOL0     H54335  14.274  10.236   5.750  0.9068 -0.5437  0.5981
  394MOL0     H54336  14.438  10.352   5.649 -0.7921 -0.2207 -0.0252
  394MOL0     H54337  14.367  10.509   5.615 -2.8580 -2.5010  1.0399
  394MOL0     H54338  14.589  10.603   5.717 -0.9739  0.5259 -2.0337
  394MOL0     H54339  14.621  10.431   5.750 -2.2302  0.2796  0.7285
  394MOL0     H54340  14.579  10.546   5.467 -3.3080 -2.1779  0.3969
  394MOL0     H54341  14.608  10.380   5.522 -4.5764 -0.2014  2.1197
  394MOL0     H54342  14.805  10.421   5.608  0.5165 -0.1934 -0.0572
  394MOL0     H54343  14.817  10.592   5.586 -2.1337  1.1047 -0.5562
  394MOL0     H54344  14.815  10.372   5.369 -1.8673 -0.4721  2.5484
  394MOL0     H54345  14.805  10.548   5.327  0.2247  1.3652  0.5203
  394MOL0     H54346  15.034  10.444   5.314  0.5951 -1.0562  0.2055
  394MOL0     H54347  15.037  10.455   5.490 -2.4078 -0.7531  0.8729
  394MOL0     H54348  14.966  10.699   5.461  0.9545  1.7065  0.2894
  394MOL0     H54349  14.997  10.690   5.293  1.2401 -0.0606 -0.5157
  394MOL0     H54350  15.205  10.630   5.513  0.7539  3.1062  1.3630
  394MOL0     H54351  15.182  10.779   5.418  0.7599  0.7550  2.6562
  394MOL0     H54352  14.211  10.614   5.940  1.5508  0.5711 -4.3266
  394MOL0     H54353  13.969  10.508   6.048 -3.1480 -5.3422  1.4960
  394MOL0     H54354  13.749  10.223   6.205  0.5161 -0.2650 -2.2520
  394MOL0     H54355  13.551  10.123   6.325 -1.9403  2.2078 -0.2993
  394MOL0     H54356  11.699   9.860   5.887  2.3863  2.5443  0.5315
  394MOL0     H54357  11.450   9.842   5.849  3.5250  0.3600 -2.1422
  394MOL0     H54358  11.079  10.173   5.772 -0.2004 -1.3557 -1.7263
  394MOL0     H54359  10.842  10.212   5.727 -1.8696 -1.3041 -0.9814
  394MOL0     H54360  10.648  10.214   5.695 -2.1347  1.5250  2.4266
  394MOL0     H54361  10.596  10.077   5.601 -1.8202  0.5963 -0.4772
  394MOL0     H54362  10.412  10.210   5.656  2.4407 -1.5036 -0.2389
  394MOL0     H54363  10.449  10.189   5.834 -2.6374  0.1904  0.9689
  394MOL0     H54364  10.350   9.997   5.635  4.1432 -0.3716 -1.0049
  394MOL0     H54365  10.414   9.944   5.791 -2.6380 -2.1278 -0.9323
  394MOL0     H54366  10.192  10.154   5.749  0.7890  0.1814 -2.3575
  394MOL0     H54367  10.246  10.086   5.906  0.5198  0.6441  0.5095
  394MOL0     H54368  10.004   9.766   5.795 -0.0908 -0.8765  0.7665
  394MOL0     H54369  10.749   9.839   5.913 -0.0768 -1.1520 -2.6294
  394MOL0     H54370  11.042   9.791   6.095 -0.1467  0.2183 -0.0715
  394MOL0     H54371  10.899   9.725   6.029  0.5254 -1.3194 -1.3859
  394MOL0     H54372  11.047   9.705   5.938  1.0153 -0.7650  1.7374
  395MOL0     O54373   9.617   0.848   9.836 -0.0494 -0.1576  0.3892
  395MOL0     C54374   9.637   0.730   9.803 -0.1697 -0.3878  0.8783
  395MOL0     O54375   9.757   0.668   9.781 -0.4064 -0.1368 -0.7283
  395MOL0     C54376   9.876   0.728   9.825  0.1580  0.6603 -0.2021
  395MOL0     C54377   9.910   0.867   9.833  0.5856  0.6105  0.0322
  395MOL0     C54378  10.029   0.907   9.887  0.7655 -0.3776  0.5278
  395MOL0     C54379  10.123   0.812   9.941  0.5564  0.4300  0.0953
  395MOL0     O54380  10.243   0.872   9.976  0.4344  0.6852 -0.0325
  395MOL0     C54381  10.368   0.801  10.002  0.0793 -1.0483 -0.1957
  395MOL0     C54382  10.481   0.908  10.031 -0.1177  0.4965 -0.3610
  395MOL0     C54383  10.606   0.825  10.068 -0.0389  0.3431 -0.1185
  395MOL0     C54384  10.724   0.911  10.092 -0.1978  0.1349  0.2309
  395MOL0     C54385  10.794   0.940   9.957 -0.2470  0.2151  0.6209
  395MOL0     C54386  10.931   1.012   9.996 -0.0790 -0.5509  0.3669
  395MOL0     C54387  11.007   1.041   9.859 -0.5301 -0.5853 -0.0360
  395MOL0     C54388  11.156   1.061   9.885 -0.8699  1.0441 -0.2478
  395MOL0     N54389  11.174   1.187   9.952 -1.0752  0.4372 -1.0821
  395MOL0     C54390  11.207   1.302   9.899 -0.3054 -0.6290  0.3504
  395MOL0     C54391  11.231   1.388   9.999 -0.0950  0.2067  0.2467
  395MOL0     C54392  11.297   1.530   9.977 -0.2859 -0.7999 -0.8507
  395MOL0     C54393  11.443   1.551  10.026  0.8697  0.3710 -0.1362
  395MOL0     C54394  11.496   1.676   9.960 -0.7281 -0.5718  0.4039
  395MOL0     C54395  11.645   1.698   9.978 -0.5344 -0.0584  0.3035
  395MOL0     O54396  11.711   1.582   9.935 -0.3076  0.3422  1.2050
  395MOL0     C54397  11.851   1.588   9.935  0.4779  0.6111  0.3436
  395MOL0     C54398  11.928   1.682   9.998 -0.5464  0.2686 -0.6369
  395MOL0     C54399  12.065   1.688   9.997 -0.1701  0.1105  0.0717
  395MOL0     C54400  12.127   1.782  10.094 -0.7049 -0.5877 -0.6283
  395MOL0     C54401  12.135   1.601   9.913  0.6031 -0.4109 -0.3094
  395MOL0     C54402  12.282   1.590   9.894  0.6846  0.0943 -0.2720
  395MOL0     O54403  12.348   1.706   9.860  0.1312 -0.4045 -0.0895
  395MOL0     C54404  12.479   1.732   9.897  0.9854  0.5415 -0.6976
  395MOL0     C54405  12.533   1.700  10.023 -0.7250  0.0679 -0.8117
  395MOL0     C54406  12.675   1.728  10.046  0.0608  0.1612 -0.4567
  395MOL0     C54407  12.751   1.787   9.946 -1.4026 -0.6548  0.1372
  395MOL0     O54408  12.889   1.812   9.955  0.0546  0.4549  0.1343
  395MOL0     C54409  12.958   1.742  10.053 -0.6509 -0.1190  0.5799
  395MOL0     C54410  13.109   1.745  10.022  0.8445 -0.7160 -0.6199
  395MOL0     C54411  13.187   1.678  10.143 -0.0389 -0.0353 -0.3824
  395MOL0     C54412  13.335   1.712  10.134  0.5672 -0.1801 -0.9484
  395MOL0     C54413  13.415   1.642  10.245  0.4474  0.0009  0.4373
  395MOL0     C54414  13.552   1.700  10.266  0.2810  0.8151 -0.3765
  395MOL0     C54415  13.624   1.718  10.126 -0.3263  0.3425 -0.6454
  395MOL0     C54416  13.775   1.738  10.137  0.8498 -0.1415  0.6768
  395MOL0    Cl54417  13.834   1.574  10.152 -0.0509  0.1881  0.3668
  395MOL0     C54418  12.690   1.829   9.827 -0.2579  0.0554  0.2498
  395MOL0     C54419  12.559   1.798   9.803 -0.0083 -0.5520 -0.8232
  395MOL0     O54420  12.337   1.478   9.906  0.6081  0.3625  0.7086
  395MOL0     C54421  12.059   1.501   9.845  0.2571 -0.6396  0.1093
  395MOL0     C54422  11.922   1.499   9.855 -0.6587  0.5505  0.2668
  395MOL0     N54423  11.211   1.318  10.115 -0.4232 -0.1632  0.4544
  395MOL0     N54424  11.174   1.194  10.086 -0.0006  0.4610  0.2522
  395MOL0     C54425  10.095   0.673   9.933 -0.0212  0.2738 -0.1310
  395MOL0     C54426   9.971   0.635   9.873 -0.3173  0.0360 -0.2404
  395MOL0     C54427   9.519   0.649   9.766  0.2027  0.0237 -0.3386
  395MOL0     C54428   9.414   0.643   9.853 -0.6925 -0.1528  0.2314
  395MOL0     C54429   9.303   0.563   9.833  0.6677 -0.0674  0.3937
  395MOL0     C54430   9.296   0.488   9.717  0.7921  0.2560 -1.0258
  395MOL0     O54431   9.184   0.402   9.699  0.6129 -0.3244 -0.0427
  395MOL0     C54432   9.054   0.442   9.737  0.4380  0.1367  0.9349
  395MOL0     C54433   9.013   0.367   9.860  0.2913 -0.0363 -0.1182
  395MOL0     C54434   8.865   0.386   9.891  0.6446 -0.5031 -0.8929
  395MOL0     C54435   8.817   0.267   9.976 -0.1078 -0.3940 -0.1984
  395MOL0     C54436   8.867   0.276  10.114 -0.0880 -0.0162 -0.2368
  395MOL0     C54437   8.918   0.276  10.224 -0.5002  0.8368 -0.6504
  395MOL0     C54438   9.405   0.490   9.622 -0.5419  0.7290 -1.4027
  395MOL0     C54439   9.521   0.575   9.645  0.2262  0.0568 -0.2081
  395MOL0     C54440   9.651   0.536   9.571  0.7314 -0.3133 -0.4193
  395MOL0     H54441   9.840   0.939   9.792 -0.8365 -0.5887  0.2451
  395MOL0     H54442  10.051   1.013   9.894 -2.2315  0.4684 -0.7962
  395MOL0     H54443  10.395   0.746   9.911  1.4610 -1.4643  0.4385
  395MOL0     H54444  10.345   0.740  10.090 -2.0876  2.4238  1.9316
  395MOL0     H54445  10.496   0.983   9.952 -1.5756  1.3202  0.1111
  395MOL0     H54446  10.457   0.969  10.119  0.4379 -0.9359  0.8247
  395MOL0     H54447  10.598   0.759  10.155  2.2987  1.1484  0.7874
  395MOL0     H54448  10.627   0.763   9.980  0.6088 -0.6132  0.6818
  395MOL0     H54449  10.679   0.998  10.141 -1.8917  0.7405 -2.2587
  395MOL0     H54450  10.798   0.865  10.158  2.6013  3.9479  0.0826
  395MOL0     H54451  10.729   0.996   9.890  0.5274  3.7402  2.5704
  395MOL0     H54452  10.808   0.839   9.916  2.1479  0.6423  0.2559
  395MOL0     H54453  10.921   1.105  10.053 -1.5535 -0.9264  0.7622
  395MOL0     H54454  10.982   0.934  10.054 -0.2915 -1.0889 -0.1699
  395MOL0     H54455  10.968   1.128   9.805 -0.2778 -0.6113 -0.2606
  395MOL0     H54456  10.986   0.946   9.810 -1.7645 -1.2610  1.7116
  395MOL0     H54457  11.192   0.981   9.950 -0.3995  2.0484  0.7656
  395MOL0     H54458  11.212   1.072   9.791 -0.9509  0.3253 -0.3832
  395MOL0     H54459  11.227   1.319   9.793 -3.9146 -0.6328 -0.4616
  395MOL0     H54460  11.239   1.607  10.028 -2.4664 -1.4079 -2.2777
  395MOL0     H54461  11.294   1.543   9.868 -0.8878  2.4451 -0.5266
  395MOL0     H54462  11.437   1.563  10.135  1.6542  0.7152 -0.1231
  395MOL0     H54463  11.513   1.474   9.993  0.7474 -0.6387  1.7804
  395MOL0     H54464  11.480   1.671   9.852 -1.0132 -0.3191  0.4298
  395MOL0     H54465  11.444   1.769   9.987  0.5066  1.8366 -4.3557
  395MOL0     H54466  11.670   1.791   9.927  0.1488  0.2463  1.1856
  395MOL0     H54467  11.665   1.711  10.084 -0.7932 -0.0090  0.3476
  395MOL0     H54468  11.869   1.758  10.049  0.6206  2.8041 -2.7554
  395MOL0     H54469  12.229   1.745  10.109  0.3124  1.6088 -1.6282
  395MOL0     H54470  12.063   1.791  10.183 -2.1499 -0.5536 -1.6411
  395MOL0     H54471  12.143   1.880  10.048  2.2958 -0.4453  0.5075
  395MOL0     H54472  12.472   1.638  10.089 -1.4118 -0.5606 -2.0026
  395MOL0     H54473  12.708   1.708  10.147 -0.0032 -1.2795 -0.6930
  395MOL0     H54474  12.937   1.790  10.148 -2.3445  1.5282 -0.5500
  395MOL0     H54475  12.934   1.635  10.055 -0.7609 -0.1245 -0.4117
  395MOL0     H54476  13.131   1.717   9.919 -0.9573  0.5249 -1.4007
  395MOL0     H54477  13.142   1.849  10.012 -0.3969 -0.5891 -6.3470
  395MOL0     H54478  13.180   1.569  10.149  0.8250 -0.0126  1.7939
  395MOL0     H54479  13.148   1.719  10.237 -0.1982  0.5871 -0.7122
  395MOL0     H54480  13.351   1.816  10.163 -0.6763 -0.5095  1.0873
  395MOL0     H54481  13.384   1.697  10.037  2.6568  1.3673 -0.2238
  395MOL0     H54482  13.361   1.657  10.339  0.5943 -0.6142  0.6279
  395MOL0     H54483  13.431   1.536  10.221  2.8788  0.1355  1.1332
  395MOL0     H54484  13.617   1.637  10.328  0.1749  0.5351 -0.5495
  395MOL0     H54485  13.551   1.802  10.306  2.5752  0.8989 -0.3744
  395MOL0     H54486  13.578   1.813  10.097 -2.2990  0.2199  1.7891
  395MOL0     H54487  13.593   1.646  10.049  0.0709  0.4190 -0.8843
  395MOL0     H54488  13.799   1.794  10.228 -0.5287  0.0990  0.9207
  395MOL0     H54489  13.813   1.782  10.044  1.1118 -0.9523  0.3947
  395MOL0     H54490  12.741   1.875   9.743 -2.1465 -0.0811 -1.0281
  395MOL0     H54491  12.506   1.834   9.716  1.4062 -0.0023 -1.4745
  395MOL0     H54492  12.111   1.434   9.777  0.7617  1.2676 -1.4606
  395MOL0     H54493  11.865   1.436   9.786 -1.5765  1.5782  0.0498
  395MOL0     H54494  10.163   0.595   9.967  0.1617  0.4032 -0.1997
  395MOL0     H54495   9.947   0.531   9.894 -1.8325  0.6260  1.1772
  395MOL0     H54496   9.427   0.699   9.945  0.8413 -1.1070  0.6281
  395MOL0     H54497   9.224   0.550   9.906  1.3634 -1.4508  0.9224
  395MOL0     H54498   9.055   0.548   9.765  2.6713  1.1348 -2.3868
  395MOL0     H54499   8.986   0.424   9.654  0.0739  0.6050  1.1275
  395MOL0     H54500   9.067   0.401   9.949  1.1849 -2.2662  0.2610
  395MOL0     H54501   9.036   0.261   9.845  0.1072  0.2366 -2.6772
  395MOL0     H54502   8.846   0.480   9.943  2.0165 -0.0604 -1.1441
  395MOL0     H54503   8.807   0.392   9.799  0.7026 -1.7870 -1.0454
  395MOL0     H54504   8.854   0.173   9.935  1.9427  0.3332 -0.1769
  395MOL0     H54505   8.708   0.271   9.975 -0.1710  2.7833  2.1696
  395MOL0     H54506   8.961   0.276  10.322 -2.8080  0.8297  0.4156
  395MOL0     H54507   9.402   0.409   9.549 -2.2513 -4.1251  3.3402
  395MOL0     H54508   9.714   0.622   9.546  1.2322 -0.7509 -0.6860
  395MOL0     H54509   9.714   0.472   9.633 -0.6247  1.6391  3.3031
  395MOL0     H54510   9.629   0.484   9.478 -3.1043  0.2386  0.0307
  396MOL0     O54511  10.951   0.210   0.170 -0.7585 -0.4070  0.3492
  396MOL0     C54512  10.994   0.161   0.068 -0.0348  0.7522  0.8302
  396MOL0     O54513  11.075   0.051   0.063  0.0132 -0.5087  0.0739
  396MOL0     C54514  11.109  -0.014   0.173 -0.0132  0.0158 -0.2722
  396MOL0     C54515  11.010  -0.108   0.228 -0.0746  0.0112 -0.6497
  396MOL0     C54516  11.037  -0.199   0.333  0.2831  0.6325  0.1612
  396MOL0     C54517  11.155  -0.181   0.397 -0.4111 -0.2576  0.1996
  396MOL0     O54518  11.203  -0.261   0.495 -0.0168 -0.2125 -0.2536
  396MOL0     C54519  11.134  -0.385   0.515  0.7359  0.1279 -0.8485
  396MOL0     C54520  11.199  -0.462   0.629 -0.5001 -1.3015  0.2497
  396MOL0     C54521  11.156  -0.607   0.644  0.0966 -0.3107 -0.1233
  396MOL0     C54522  11.196  -0.663   0.786  0.8148 -0.5162 -0.1574
  396MOL0     C54523  11.169  -0.815   0.806 -0.8683 -0.3631  0.1312
  396MOL0     C54524  11.135  -0.852   0.947 -0.1919  0.2805 -0.6110
  396MOL0     C54525  11.081  -0.989   0.944  0.0161 -0.0735 -0.2741
  396MOL0     C54526  11.170  -1.095   0.877 -0.6545  0.3878 -0.5989
  396MOL0     N54527  11.285  -1.124   0.967 -0.3661 -0.0614  0.3681
  396MOL0     C54528  11.410  -1.069   0.933  0.3286 -0.0382 -0.2837
  396MOL0     C54529  11.486  -1.119   1.035 -0.8929 -0.3287  0.2900
  396MOL0     C54530  11.630  -1.105   1.039 -0.2927 -0.1673  0.2775
  396MOL0     C54531  11.690  -1.171   0.920 -0.0443  0.3676  0.6514
  396MOL0     C54532  11.650  -1.320   0.906 -0.4076  0.7620 -0.3906
  396MOL0     C54533  11.710  -1.371   0.768  0.4727 -0.9917  0.1891
  396MOL0     O54534  11.847  -1.368   0.776  0.4559  0.1542  0.2911
  396MOL0     C54535  11.918  -1.428   0.673  0.5260 -1.5262  0.3522
  396MOL0     C54536  12.046  -1.463   0.706 -0.1504 -0.7686 -1.0222
  396MOL0     C54537  12.143  -1.510   0.618 -0.0252  1.0601 -0.6397
  396MOL0     C54538  12.279  -1.532   0.680  0.0155  0.6108 -1.2182
  396MOL0     C54539  12.103  -1.542   0.484  0.4211 -0.1733 -1.0369
  396MOL0     C54540  12.194  -1.602   0.386 -0.0248 -0.2619  0.0879
  396MOL0     O54541  12.149  -1.600   0.263  1.2942 -0.2338  0.2698
  396MOL0     C54542  12.227  -1.618   0.146  0.4516  0.5327 -0.6031
  396MOL0     C54543  12.151  -1.645   0.031 -0.2359  0.9722 -0.5187
  396MOL0     C54544  12.222  -1.672  -0.090  0.1219  0.0626 -0.2167
  396MOL0     C54545  12.366  -1.650  -0.097  0.4246 -0.5727 -0.2717
  396MOL0     O54546  12.444  -1.674  -0.210  0.1313  0.1401  0.7019
  396MOL0     C54547  12.380  -1.748  -0.323 -0.5050 -1.4193  0.7054
  396MOL0     C54548  12.485  -1.762  -0.437  0.7802 -0.7000  0.1125
  396MOL0     C54549  12.619  -1.829  -0.396  0.0285 -0.4464  0.4084
  396MOL0     C54550  12.722  -1.822  -0.503 -0.0161 -1.4567 -0.1818
  396MOL0     C54551  12.794  -1.680  -0.499  0.4739  0.2192  0.1031
  396MOL0     C54552  12.888  -1.673  -0.622 -0.6656  0.3814 -0.4951
  396MOL0     C54553  12.972  -1.549  -0.619 -0.0476  0.5949  0.3214
  396MOL0     C54554  13.039  -1.528  -0.752  0.1070  0.3078  0.5946
  396MOL0    Cl54555  13.130  -1.376  -0.743 -0.0330  0.3627  0.1609
  396MOL0     C54556  12.433  -1.612   0.014  0.0981  0.0459 -0.2231
  396MOL0     C54557  12.362  -1.594   0.136  0.2961  0.2178  0.3069
  396MOL0     O54558  12.307  -1.641   0.416 -0.7449  1.2736 -0.3627
  396MOL0     C54559  11.967  -1.512   0.449  0.3198  0.0583  0.0343
  396MOL0     C54560  11.881  -1.441   0.534  0.0483  0.1214 -0.0919
  396MOL0     N54561  11.407  -1.194   1.123  0.0654  0.8070 -0.2602
  396MOL0     N54562  11.290  -1.188   1.082  0.6677  0.0961 -0.0077
  396MOL0     C54563  11.250  -0.084   0.354 -0.4287 -0.7300  0.2974
  396MOL0     C54564  11.229  -0.004   0.241  0.7456  0.1005  1.0837
  396MOL0     C54565  10.959   0.222  -0.057  1.3476 -0.6535  0.2281
  396MOL0     C54566  11.014   0.164  -0.174 -0.0238  1.1590 -0.0311
  396MOL0     C54567  10.970   0.201  -0.301 -0.5034  0.0247  0.1061
  396MOL0     C54568  10.868   0.301  -0.313  0.4090  0.4163  0.5801
  396MOL0     O54569  10.836   0.340  -0.446 -0.4755 -1.4364 -0.3042
  396MOL0     C54570  10.752   0.460  -0.477 -0.5875  0.2207 -0.3553
  396MOL0     C54571  10.837   0.582  -0.490  0.1653 -0.0792 -0.8009
  396MOL0     C54572  10.755   0.700  -0.543  0.0685 -0.4244  0.0336
  396MOL0     C54573  10.834   0.829  -0.557 -0.6834  0.1422  0.5808
  396MOL0     C54574  10.749   0.936  -0.622 -0.4419  0.7280 -0.5848
  396MOL0     C54575  10.677   1.015  -0.678 -0.4512  0.2836  1.2041
  396MOL0     C54576  10.815   0.365  -0.199 -0.4920 -0.7254  0.1761
  396MOL0     C54577  10.861   0.331  -0.071 -0.3544 -0.0043 -0.6540
  396MOL0     C54578  10.800   0.410   0.042  0.1595 -0.7541  0.1793
  396MOL0     H54579  10.911  -0.108   0.183 -0.9920  1.1174  1.2065
  396MOL0     H54580  10.973  -0.283   0.357  0.0484  0.6624 -0.3476
  396MOL0     H54581  11.143  -0.450   0.428  1.4998 -1.6729  0.5194
  396MOL0     H54582  11.030  -0.371   0.547  0.9581 -0.7173  0.3143
  396MOL0     H54583  11.308  -0.454   0.620 -0.4923 -0.2419  1.0839
  396MOL0     H54584  11.179  -0.406   0.721  2.6224  0.4412  0.0125
  396MOL0     H54585  11.047  -0.593   0.638  0.0837 -0.3405  0.0272
  396MOL0     H54586  11.199  -0.663   0.561 -0.7786 -0.8480 -0.2357
  396MOL0     H54587  11.302  -0.653   0.809  0.0940  1.1100  3.0504
  396MOL0     H54588  11.132  -0.606   0.854 -2.9883 -0.6807 -3.1948
  396MOL0     H54589  11.260  -0.863   0.770 -0.0434  0.1068  1.4974
  396MOL0     H54590  11.088  -0.828   0.734  0.4036  1.9489 -1.8775
  396MOL0     H54591  11.222  -0.839   1.013 -2.6651  4.2555  2.3030
  396MOL0     H54592  11.058  -0.784   0.983 -0.9613 -1.4831  1.2281
  396MOL0     H54593  10.988  -0.980   0.887  0.9674 -2.0462 -2.2970
  396MOL0     H54594  11.050  -1.023   1.043  0.5702 -0.0946 -0.1069
  396MOL0     H54595  11.124  -1.192   0.857  2.8518 -1.4076 -0.7366
  396MOL0     H54596  11.209  -1.063   0.780  1.9931  0.8344  0.5317
  396MOL0     H54597  11.439  -1.018   0.842  0.4529  1.8431  0.7549
  396MOL0     H54598  11.678  -1.138   1.132  1.3119  2.1583  0.3566
  396MOL0     H54599  11.650  -0.998   1.038  2.0750 -0.5372  0.7854
  396MOL0     H54600  11.657  -1.112   0.834 -2.2886 -4.7033 -2.4341
  396MOL0     H54601  11.799  -1.166   0.930 -0.0276 -1.2777  1.8149
  396MOL0     H54602  11.680  -1.383   0.991  1.3567  0.5234 -1.1464
  396MOL0     H54603  11.543  -1.335   0.889 -0.4936  0.1790  0.5866
  396MOL0     H54604  11.669  -1.471   0.752  2.6150 -1.6570 -1.6613
  396MOL0     H54605  11.671  -1.296   0.699 -0.1269  1.7659  3.2909
  396MOL0     H54606  12.061  -1.456   0.813  1.4271 -0.9936 -1.2020
  396MOL0     H54607  12.337  -1.454   0.630 -1.2070  1.7551 -0.9206
  396MOL0     H54608  12.317  -1.634   0.670 -2.1982 -0.3856 -0.2270
  396MOL0     H54609  12.270  -1.502   0.785 -2.9051  0.7287 -1.4094
  396MOL0     H54610  12.045  -1.666   0.046 -0.3848  2.8552  1.6708
  396MOL0     H54611  12.159  -1.693  -0.176 -0.4385  0.4705  0.0846
  396MOL0     H54612  12.339  -1.843  -0.287 -0.1157 -0.9293  2.5698
  396MOL0     H54613  12.296  -1.699  -0.373  1.7754  0.6152 -1.4196
  396MOL0     H54614  12.435  -1.811  -0.522  0.3678 -0.2930  0.1143
  396MOL0     H54615  12.492  -1.662  -0.482  0.2131  1.5082  4.3846
  396MOL0     H54616  12.589  -1.933  -0.381 -0.7098 -0.3038  0.0075
  396MOL0     H54617  12.653  -1.784  -0.303 -1.1077 -1.7180  1.4804
  396MOL0     H54618  12.677  -1.846  -0.600  1.7004 -1.7563 -0.9526
  396MOL0     H54619  12.797  -1.900  -0.485  2.7522  1.3730  1.8126
  396MOL0     H54620  12.714  -1.605  -0.502 -0.2717 -0.5775 -1.3103
  396MOL0     H54621  12.849  -1.671  -0.405  1.3284  0.7480 -0.4400
  396MOL0     H54622  12.825  -1.686  -0.710 -1.0214 -0.1744 -0.1671
  396MOL0     H54623  12.959  -1.756  -0.617 -0.3443  0.7026  0.4121
  396MOL0     H54624  13.048  -1.558  -0.542  2.3779  2.1577 -1.7356
  396MOL0     H54625  12.904  -1.467  -0.594  0.6281  1.6456 -1.1402
  396MOL0     H54626  12.975  -1.518  -0.840  1.3102  1.8620 -0.1429
  396MOL0     H54627  13.104  -1.613  -0.778 -0.7422  0.0487 -0.7806
  396MOL0     H54628  12.539  -1.591   0.012  0.6084 -2.2478  0.0712
  396MOL0     H54629  12.420  -1.567   0.224 -2.7936  0.5010  2.4001
  396MOL0     H54630  11.928  -1.517   0.348 -3.1800  4.7666  0.7829
  396MOL0     H54631  11.783  -1.407   0.501  0.3563  2.4964  1.2281
  396MOL0     H54632  11.338  -0.077   0.417 -0.7863 -2.2089  0.9970
  396MOL0     H54633  11.294   0.074   0.204  0.1300 -0.2999 -0.9602
  396MOL0     H54634  11.078   0.077  -0.175  1.1354  1.9492 -2.4885
  396MOL0     H54635  11.007   0.150  -0.390 -1.6790  0.4873 -0.6648
  396MOL0     H54636  10.703   0.435  -0.572  0.2996 -1.4147 -0.4060
  396MOL0     H54637  10.676   0.469  -0.398 -1.0451 -0.0061 -0.7608
  396MOL0     H54638  10.918   0.563  -0.561  0.8844 -1.4102  0.3339
  396MOL0     H54639  10.879   0.613  -0.394 -3.1164  0.5065  0.5764
  396MOL0     H54640  10.703   0.669  -0.634 -1.2866 -5.2531  2.1391
  396MOL0     H54641  10.672   0.720  -0.474  0.9862 -2.0009  1.6886
  396MOL0     H54642  10.926   0.813  -0.614  1.1710  2.8640  2.5768
  396MOL0     H54643  10.861   0.869  -0.459  1.0390 -0.8802  0.5645
  396MOL0     H54644  10.611   1.077  -0.736 -1.6700 -0.2605  1.9779
  396MOL0     H54645  10.738   0.440  -0.214 -0.0261 -0.4628 -0.9570
  396MOL0     H54646  10.733   0.348   0.101 -1.1346  0.8048  0.4301
  396MOL0     H54647  10.874   0.450   0.111  0.3649 -2.3172  0.8866
  396MOL0     H54648  10.757   0.505   0.009  0.3302 -0.6467  0.2645
  397MOL0     O54649   4.601   5.418   5.843  0.5059 -0.1337  0.3573
  397MOL0     C54650   4.507   5.434   5.920 -0.6543  0.1296  0.1732
  397MOL0     O54651   4.520   5.427   6.050  0.4557  0.8899 -0.1543
  397MOL0     C54652   4.640   5.414   6.105 -0.8437 -0.0590 -0.5775
  397MOL0     C54653   4.731   5.314   6.057 -0.1791  0.4111  0.0273
  397MOL0     C54654   4.858   5.299   6.111 -1.2210  0.0629 -0.1765
  397MOL0     C54655   4.900   5.378   6.217  0.0281  0.3060 -0.1699
  397MOL0     O54656   5.026   5.360   6.271  0.1805 -0.1616  1.0336
  397MOL0     C54657   5.070   5.461   6.355 -0.3484 -1.0242  0.0252
  397MOL0     C54658   5.220   5.454   6.382 -1.1340  0.0371 -0.2649
  397MOL0     C54659   5.286   5.523   6.258  0.0712  0.6188  0.4319
  397MOL0     C54660   5.439   5.548   6.261  0.7643  1.2204 -0.2269
  397MOL0     C54661   5.541   5.431   6.243 -1.0834 -0.7276  0.0505
  397MOL0     C54662   5.500   5.308   6.168 -0.5020 -0.3656  0.5217
  397MOL0     C54663   5.605   5.199   6.173  0.1579  0.5160  0.1792
  397MOL0     C54664   5.552   5.077   6.099  0.3140  0.5004 -0.4413
  397MOL0     N54665   5.641   4.961   6.103 -0.5042 -0.4319  0.1910
  397MOL0     C54666   5.607   4.850   6.176  0.3281 -0.3173  0.0975
  397MOL0     C54667   5.692   4.753   6.144  0.3277 -0.2127  0.2225
  397MOL0     C54668   5.660   4.609   6.164  0.2309 -0.2060 -0.2938
  397MOL0     C54669   5.539   4.558   6.093  0.5720 -0.3763 -0.1501
  397MOL0     C54670   5.485   4.427   6.143  0.8685  0.5956 -0.1036
  397MOL0     C54671   5.359   4.382   6.069 -0.6206  0.1569 -0.4748
  397MOL0     O54672   5.254   4.475   6.089  0.1719  0.1833  0.0556
  397MOL0     C54673   5.137   4.449   6.018  0.4801 -0.0056 -0.5916
  397MOL0     C54674   5.052   4.555   5.998  0.1716 -0.4096 -0.1809
  397MOL0     C54675   4.929   4.548   5.930 -0.3774 -0.3353  0.2850
  397MOL0     C54676   4.841   4.667   5.955 -0.0886 -0.1303  0.2466
  397MOL0     C54677   4.897   4.429   5.867  0.3807  1.0799  0.3494
  397MOL0     C54678   4.780   4.420   5.779 -0.4320  0.0444 -0.0585
  397MOL0     O54679   4.781   4.323   5.678 -0.3560  0.4403 -0.7518
  397MOL0     C54680   4.663   4.285   5.610  0.0963 -0.5530  0.0646
  397MOL0     C54681   4.589   4.179   5.660  0.6519 -0.2947  0.0116
  397MOL0     C54682   4.482   4.133   5.593 -0.0280  0.8394  1.6467
  397MOL0     C54683   4.458   4.177   5.458 -0.4340 -0.2415 -0.8454
  397MOL0     O54684   4.354   4.128   5.385 -0.1058 -0.2307 -0.4683
  397MOL0     C54685   4.333   3.986   5.390 -0.6932 -0.0065 -0.5726
  397MOL0     C54686   4.210   3.953   5.298 -0.5342 -0.4047  0.1451
  397MOL0     C54687   4.229   3.979   5.147 -0.6877  0.4662  0.3143
  397MOL0     C54688   4.089   3.989   5.081  0.0388 -0.5001 -0.0657
  397MOL0     C54689   4.094   3.983   4.931 -0.0924 -0.9818 -0.7780
  397MOL0     C54690   4.170   4.104   4.874 -0.1562  0.7860  0.4756
  397MOL0     C54691   4.220   4.090   4.731 -0.1258 -0.6391  0.5432
  397MOL0     C54692   4.323   4.203   4.710 -0.2171  0.0804 -1.4398
  397MOL0    Cl54693   4.479   4.149   4.779 -0.4919  0.0550  0.0771
  397MOL0     C54694   4.544   4.271   5.400  0.1386  0.3276 -0.1682
  397MOL0     C54695   4.646   4.330   5.478  0.2444 -0.6180  0.3422
  397MOL0     O54696   4.677   4.476   5.810 -0.1857 -0.1629  0.2014
  397MOL0     C54697   4.991   4.323   5.876  0.0690 -0.2470  0.1020
  397MOL0     C54698   5.099   4.334   5.960 -0.8008  0.9570  1.1351
  397MOL0     N54699   5.792   4.822   6.069  0.2773  0.3103 -0.4218
  397MOL0     N54700   5.755   4.934   6.033 -0.1196 -1.2048 -0.7740
  397MOL0     C54701   4.802   5.466   6.275 -0.1453 -0.0876 -0.3269
  397MOL0     C54702   4.677   5.492   6.216 -0.6488 -0.3621  1.0086
  397MOL0     C54703   4.372   5.443   5.856  0.2874 -0.2071  0.1691
  397MOL0     C54704   4.264   5.453   5.942 -0.8818 -0.3439 -0.2587
  397MOL0     C54705   4.124   5.457   5.909 -0.2830  0.3252  0.5873
  397MOL0     C54706   4.094   5.458   5.769 -0.7188  0.8611 -1.1100
  397MOL0     O54707   3.960   5.462   5.735  0.3610 -0.0508 -0.0851
  397MOL0     C54708   3.921   5.349   5.646  1.0460  0.1561 -0.1306
  397MOL0     C54709   3.777   5.359   5.596  0.4041  0.0502  0.4619
  397MOL0     C54710   3.727   5.221   5.567 -0.7995 -0.6565  0.8717
  397MOL0     C54711   3.590   5.223   5.494 -0.0635 -0.7723 -1.0658
  397MOL0     C54712   3.557   5.088   5.461 -0.0321  0.3370 -0.1690
  397MOL0     C54713   3.508   4.981   5.438  0.3453 -0.6538 -0.4683
  397MOL0     C54714   4.201   5.449   5.687 -0.2917 -0.2883 -0.1274
  397MOL0     C54715   4.340   5.451   5.714  0.2885 -0.3990 -0.1548
  397MOL0     C54716   4.428   5.433   5.603 -0.3595 -0.3144  0.6452
  397MOL0     H54717   4.707   5.236   5.986 -0.4303 -2.0132  2.6041
  397MOL0     H54718   4.922   5.221   6.074  1.6337  3.1903 -2.4403
  397MOL0     H54719   5.021   5.451   6.452  0.5265  3.1278  1.1013
  397MOL0     H54720   5.041   5.561   6.319  0.4938  0.0822  2.2445
  397MOL0     H54721   5.242   5.497   6.481  0.0989 -0.2339 -0.4051
  397MOL0     H54722   5.252   5.349   6.387  1.7168  0.8430  0.4445
  397MOL0     H54723   5.268   5.467   6.166 -0.0128 -0.8846  1.3254
  397MOL0     H54724   5.257   5.628   6.246 -1.2267 -0.0298 -3.6534
  397MOL0     H54725   5.455   5.615   6.176  0.4755  1.3306 -0.1961
  397MOL0     H54726   5.469   5.604   6.351  1.3647  0.3659  0.1200
  397MOL0     H54727   5.585   5.396   6.337 -0.1590 -0.5299 -0.2918
  397MOL0     H54728   5.628   5.479   6.196 -0.6847 -0.3280  1.1630
  397MOL0     H54729   5.413   5.272   6.224 -1.8670 -1.3697 -2.0834
  397MOL0     H54730   5.470   5.339   6.068  1.6362  1.4988  0.3787
  397MOL0     H54731   5.627   5.169   6.276  0.0394  2.2726  0.7412
  397MOL0     H54732   5.702   5.220   6.129  1.0564  0.3418  1.9799
  397MOL0     H54733   5.453   5.056   6.139  0.0973  2.3705  0.1384
  397MOL0     H54734   5.545   5.103   5.993 -3.7420  0.2821 -0.3869
  397MOL0     H54735   5.513   4.842   6.228 -0.4170 -0.4257 -1.2231
  397MOL0     H54736   5.635   4.609   6.271 -2.7538 -1.1154 -0.8898
  397MOL0     H54737   5.738   4.538   6.135 -1.0601 -2.7538  1.9862
  397MOL0     H54738   5.457   4.630   6.105  2.3263  1.5069  1.4085
  397MOL0     H54739   5.561   4.546   5.986  0.5828 -2.0787  0.0177
  397MOL0     H54740   5.564   4.352   6.130  1.2391  0.9652 -0.0320
  397MOL0     H54741   5.457   4.420   6.249  3.0707 -2.8598  0.4079
  397MOL0     H54742   5.386   4.375   5.963 -1.5832  2.4505 -0.9252
  397MOL0     H54743   5.328   4.281   6.099  0.2079  0.0137 -0.0599
  397MOL0     H54744   5.081   4.647   6.047 -2.3405 -0.5300  1.7355
  397MOL0     H54745   4.742   4.641   5.991 -0.3998  0.5571 -0.0831
  397MOL0     H54746   4.839   4.718   5.858 -0.8834 -1.2614 -0.3442
  397MOL0     H54747   4.880   4.737   6.029 -0.8857  0.7083 -0.1054
  397MOL0     H54748   4.615   4.138   5.757 -1.3585 -1.3438  0.1613
  397MOL0     H54749   4.428   4.052   5.642 -0.9507  1.6549  1.9966
  397MOL0     H54750   4.423   3.937   5.352 -1.2201  0.1318 -2.1064
  397MOL0     H54751   4.314   3.951   5.491  2.0720  0.6843  0.2568
  397MOL0     H54752   4.192   3.848   5.322  2.2119 -1.5051 -2.0739
  397MOL0     H54753   4.129   4.019   5.331  0.4466  1.0061 -0.1523
  397MOL0     H54754   4.289   3.900   5.101  0.5797  0.4487  1.9071
  397MOL0     H54755   4.271   4.080   5.137 -0.1659  0.2639  0.4158
  397MOL0     H54756   4.058   4.091   5.105  2.0763  0.6006 -1.6901
  397MOL0     H54757   4.018   3.921   5.128 -0.8608  0.5989  0.2074
  397MOL0     H54758   4.135   3.887   4.899  2.2895 -0.9209  1.7819
  397MOL0     H54759   3.990   3.991   4.898 -0.4295 -1.2579  0.2011
  397MOL0     H54760   4.252   4.133   4.941  0.2028  1.1455 -0.1080
  397MOL0     H54761   4.105   4.191   4.890  0.2440  1.8519 -3.0289
  397MOL0     H54762   4.136   4.098   4.662  0.5332 -1.0580 -0.3257
  397MOL0     H54763   4.270   3.996   4.707  1.6457  0.2252  0.6824
  397MOL0     H54764   4.280   4.290   4.762  1.5722 -0.1805  0.6202
  397MOL0     H54765   4.332   4.217   4.602 -1.0116 -1.3451 -1.7174
  397MOL0     H54766   4.514   4.307   5.302  0.5636 -0.5654 -0.6421
  397MOL0     H54767   4.708   4.408   5.436  0.1129 -0.1972  0.9267
  397MOL0     H54768   4.975   4.230   5.823  2.4676  0.4013 -1.9307
  397MOL0     H54769   5.162   4.246   5.963 -0.6139  1.0784  0.7694
  397MOL0     H54770   4.826   5.517   6.368 -0.4696  0.1155 -0.3522
  397MOL0     H54771   4.605   5.565   6.251  1.2420  2.6692 -0.9873
  397MOL0     H54772   4.266   5.438   6.050 -1.3876 -0.9619 -0.3235
  397MOL0     H54773   4.044   5.457   5.983 -2.7908  0.8244 -1.9182
  397MOL0     H54774   3.992   5.338   5.564  0.3990  3.9351 -1.3868
  397MOL0     H54775   3.925   5.264   5.715  0.0260 -1.6828 -2.2031
  397MOL0     H54776   3.782   5.421   5.506  2.1297 -0.2416  0.3214
  397MOL0     H54777   3.711   5.404   5.671  1.3173 -1.7518  2.4544
  397MOL0     H54778   3.802   5.175   5.502 -1.5555  1.0345 -1.3205
  397MOL0     H54779   3.724   5.177   5.667 -2.5695  0.6072  1.4296
  397MOL0     H54780   3.617   5.279   5.404  1.3406  1.6948  0.7551
  397MOL0     H54781   3.512   5.284   5.542  2.1751  0.1599  1.6812
  397MOL0     H54782   3.458   4.888   5.421 -0.4159  0.2237 -3.6182
  397MOL0     H54783   4.174   5.436   5.583  0.0615 -0.2688 -0.2242
  397MOL0     H54784   4.377   5.451   5.509  0.5537 -0.6070  0.0764
  397MOL0     H54785   4.512   5.503   5.611  0.2188 -1.1179  2.2864
  397MOL0     H54786   4.467   5.330   5.609 -1.3475 -0.7839 -0.5933
  398MOL0     O54787   2.512   2.004   0.877 -0.2522  0.1065  0.7580
  398MOL0     C54788   2.414   2.077   0.913  0.1297 -0.4136 -0.4052
  398MOL0     O54789   2.390   2.209   0.885  0.0484  0.2955 -0.6046
  398MOL0     C54790   2.493   2.289   0.830 -0.3226  0.8490 -0.5098
  398MOL0     C54791   2.554   2.385   0.909 -0.1018 -0.5545 -0.1154
  398MOL0     C54792   2.650   2.476   0.859  1.1977  0.0351 -0.4068
  398MOL0     C54793   2.704   2.461   0.738 -0.7118 -0.1907 -0.1976
  398MOL0     O54794   2.811   2.526   0.678  0.2243  0.0667  0.3084
  398MOL0     C54795   2.835   2.653   0.724  0.3007 -0.9670  0.5266
  398MOL0     C54796   2.912   2.739   0.618  0.4608  0.2912 -0.6832
  398MOL0     C54797   3.054   2.694   0.599  0.2801 -0.5676  0.1917
  398MOL0     C54798   3.061   2.567   0.518  0.6226 -0.0461 -0.3879
  398MOL0     C54799   3.210   2.528   0.482  0.1796 -0.4369 -0.4273
  398MOL0     C54800   3.227   2.410   0.390 -1.0253  0.9836 -0.3099
  398MOL0     C54801   3.375   2.400   0.346  0.3339 -0.6998 -1.0727
  398MOL0     C54802   3.401   2.289   0.249  0.6172 -0.2892  0.1652
  398MOL0     N54803   3.540   2.293   0.198  0.2713 -0.4757 -0.1220
  398MOL0     C54804   3.586   2.362   0.091 -0.5435  0.0430 -0.5416
  398MOL0     C54805   3.711   2.320   0.068  0.4343  0.2027  0.0838
  398MOL0     C54806   3.805   2.348  -0.052  0.5448  0.3006 -0.0890
  398MOL0     C54807   3.801   2.483  -0.112  0.1033 -0.5671  0.2401
  398MOL0     C54808   3.920   2.513  -0.199  0.6251 -0.4931 -0.0107
  398MOL0     C54809   4.048   2.541  -0.132 -0.1026  0.0552 -0.6354
  398MOL0     O54810   4.154   2.455  -0.175 -0.2557 -0.0501  0.1818
  398MOL0     C54811   4.278   2.492  -0.128 -0.5287 -0.1397  0.8983
  398MOL0     C54812   4.318   2.538   0.001  0.3236  0.2745  0.1805
  398MOL0     C54813   4.452   2.560   0.032 -0.5789 -0.3193  0.4906
  398MOL0     C54814   4.475   2.580   0.183 -0.2912  1.1868  0.4375
  398MOL0     C54815   4.556   2.545  -0.064 -0.3771 -0.0193  0.0844
  398MOL0     C54816   4.698   2.583  -0.036 -0.2725 -0.0105 -0.2128
  398MOL0     O54817   4.778   2.536  -0.139  0.1660  0.1429  1.1180
  398MOL0     C54818   4.907   2.580  -0.165  0.2323 -0.2921 -0.1437
  398MOL0     C54819   4.974   2.692  -0.100  0.3726  0.7949 -0.4965
  398MOL0     C54820   5.107   2.727  -0.138 -0.2064 -0.6859  0.0851
  398MOL0     C54821   5.168   2.645  -0.239 -0.6029  0.5496  0.4808
  398MOL0     O54822   5.301   2.672  -0.271 -0.0931 -1.2482 -0.4671
  398MOL0     C54823   5.379   2.558  -0.313  0.7828  0.3918  0.1377
  398MOL0     C54824   5.522   2.598  -0.330  0.1163 -0.6478  0.0309
  398MOL0     C54825   5.612   2.576  -0.200 -0.1105  0.0856 -0.6755
  398MOL0     C54826   5.754   2.622  -0.243 -0.7902 -0.0788 -0.7311
  398MOL0     C54827   5.837   2.635  -0.110 -0.6253  0.5027 -0.2390
  398MOL0     C54828   5.954   2.741  -0.134 -0.1614  0.5989  0.2305
  398MOL0     C54829   6.051   2.746  -0.017  0.2071 -0.4213  0.7129
  398MOL0     C54830   6.036   2.862   0.078 -0.1407 -0.1493 -0.4676
  398MOL0    Cl54831   6.149   2.879   0.222 -0.2335 -0.0452  0.0389
  398MOL0     C54832   5.105   2.528  -0.299  0.1579  0.2315 -0.4307
  398MOL0     C54833   4.974   2.500  -0.259 -0.2595  0.6312 -0.6544
  398MOL0     O54834   4.734   2.649   0.057 -0.6037  0.3584 -0.5664
  398MOL0     C54835   4.515   2.493  -0.197  0.1178 -0.1859 -0.5561
  398MOL0     C54836   4.378   2.466  -0.220 -0.0907  0.3227  0.2232
  398MOL0     N54837   3.738   2.215   0.160  0.3505  0.6444  0.0337
  398MOL0     N54838   3.625   2.194   0.222  0.6960  0.5825 -0.1096
  398MOL0     C54839   2.646   2.359   0.662 -0.2647 -0.2649 -0.2631
  398MOL0     C54840   2.548   2.268   0.709 -0.7207 -1.0897  0.6185
  398MOL0     C54841   2.307   1.999   0.988 -0.7498 -0.2500 -0.2578
  398MOL0     C54842   2.198   2.075   1.031 -0.1100  0.1379  0.2290
  398MOL0     C54843   2.087   2.020   1.096 -0.7042  0.6336 -0.5133
  398MOL0     C54844   2.084   1.880   1.110 -0.0488  0.4157  0.4157
  398MOL0     O54845   1.968   1.833   1.172  0.5847  0.1955  0.0356
  398MOL0     C54846   1.978   1.693   1.209  0.5317 -1.5108 -0.0502
  398MOL0     C54847   1.861   1.655   1.292 -1.0830 -0.4205 -0.4382
  398MOL0     C54848   1.729   1.692   1.225 -0.5023 -0.0100 -0.0508
  398MOL0     C54849   1.605   1.617   1.282 -0.5914 -0.1108  0.2102
  398MOL0     C54850   1.612   1.472   1.261 -0.7732  1.1187  0.8560
  398MOL0     C54851   1.615   1.346   1.264 -0.2501 -0.2211 -1.3966
  398MOL0     C54852   2.193   1.805   1.076 -0.1899  0.5094  0.4465
  398MOL0     C54853   2.305   1.860   1.014 -0.1414  0.8736  0.3294
  398MOL0     C54854   2.405   1.763   0.967  0.3132  0.7436  0.0183
  398MOL0     H54855   2.515   2.403   1.009 -1.2552 -1.6165 -0.3443
  398MOL0     H54856   2.683   2.564   0.914 -0.5660  0.8469 -0.5726
  398MOL0     H54857   2.895   2.649   0.816  3.3301  2.1650 -1.0726
  398MOL0     H54858   2.743   2.707   0.746  0.3323 -1.2362  1.3677
  398MOL0     H54859   2.854   2.742   0.526  1.2647 -0.1502 -1.2162
  398MOL0     H54860   2.919   2.845   0.645  0.6646 -0.4715  2.7897
  398MOL0     H54861   3.099   2.771   0.535 -2.3041 -0.1283 -1.2816
  398MOL0     H54862   3.114   2.674   0.688 -1.1108  0.7054  1.4712
  398MOL0     H54863   3.019   2.487   0.579  2.8110  0.4931  1.9889
  398MOL0     H54864   3.000   2.576   0.428 -0.1562 -2.7863 -0.2047
  398MOL0     H54865   3.268   2.498   0.569  1.5589  1.3282 -0.6749
  398MOL0     H54866   3.254   2.620   0.441 -0.0647 -0.6552 -1.2035
  398MOL0     H54867   3.193   2.318   0.437  1.9944 -0.5287 -0.8493
  398MOL0     H54868   3.170   2.425   0.297 -1.0045 -0.8253 -0.6410
  398MOL0     H54869   3.435   2.384   0.436 -1.0132 -0.8239 -0.1570
  398MOL0     H54870   3.400   2.492   0.293  1.0872 -0.0117  0.4072
  398MOL0     H54871   3.393   2.188   0.289  1.9847 -0.9924 -1.2344
  398MOL0     H54872   3.335   2.294   0.162 -0.3115 -2.3928  0.6875
  398MOL0     H54873   3.546   2.449   0.040 -0.0762  0.6595  0.1166
  398MOL0     H54874   3.781   2.273  -0.129  0.0453  1.5176 -1.1551
  398MOL0     H54875   3.910   2.342  -0.024  0.3757  2.6583  1.2906
  398MOL0     H54876   3.711   2.497  -0.172  0.3727 -0.4479 -0.1371
  398MOL0     H54877   3.805   2.550  -0.025  2.9515  1.4938 -1.3356
  398MOL0     H54878   3.925   2.441  -0.281 -0.4665 -0.9948  0.3413
  398MOL0     H54879   3.897   2.601  -0.259 -1.8856 -1.3901 -0.5091
  398MOL0     H54880   4.076   2.646  -0.136  0.3601  0.1754  2.8926
  398MOL0     H54881   4.033   2.524  -0.025  3.0314  0.3428 -0.0544
  398MOL0     H54882   4.244   2.556   0.079 -0.4668 -1.0164 -0.2354
  398MOL0     H54883   4.392   2.533   0.236  1.1559 -1.1411  0.7705
  398MOL0     H54884   4.470   2.686   0.210 -0.6019  1.1538  0.5132
  398MOL0     H54885   4.568   2.532   0.212  0.1883  1.3243 -0.8040
  398MOL0     H54886   4.927   2.759  -0.029 -1.4252 -0.9930  0.1133
  398MOL0     H54887   5.157   2.818  -0.105 -2.4522  0.3971  0.6734
  398MOL0     H54888   5.373   2.473  -0.245 -2.4024  2.6269  3.0025
  398MOL0     H54889   5.356   2.530  -0.417  1.6743  5.3948 -1.7011
  398MOL0     H54890   5.564   2.538  -0.412 -0.2834 -0.8539 -0.0282
  398MOL0     H54891   5.524   2.704  -0.355 -1.5626 -1.4281 -4.1543
  398MOL0     H54892   5.618   2.468  -0.182  0.1336  0.5625  2.8529
  398MOL0     H54893   5.578   2.642  -0.119 -0.4882  0.0106 -0.7736
  398MOL0     H54894   5.735   2.715  -0.296 -0.9105  0.3142 -0.0164
  398MOL0     H54895   5.786   2.548  -0.317 -2.7594  0.4137 -2.1591
  398MOL0     H54896   5.782   2.661  -0.019  0.1493 -0.2622  0.4789
  398MOL0     H54897   5.885   2.538  -0.090 -1.2611 -0.3620 -2.5382
  398MOL0     H54898   5.910   2.839  -0.157 -1.6386 -0.7232 -3.3078
  398MOL0     H54899   6.000   2.693  -0.220 -1.1274 -1.6523  0.8958
  398MOL0     H54900   6.153   2.748  -0.056 -0.5917  0.5386 -1.4846
  398MOL0     H54901   6.034   2.653   0.038 -0.1305 -0.3236  0.7775
  398MOL0     H54902   5.942   2.831   0.125  1.1810 -1.7312  1.3093
  398MOL0     H54903   6.027   2.960   0.029  1.4797 -0.4869 -1.5165
  398MOL0     H54904   5.157   2.470  -0.375  0.1470  1.9207 -1.7882
  398MOL0     H54905   4.917   2.422  -0.309  1.5444 -0.9545 -0.3639
  398MOL0     H54906   4.594   2.488  -0.271  1.3237  3.5396  0.2655
  398MOL0     H54907   4.348   2.430  -0.318  1.1963  1.8051 -0.7770
  398MOL0     H54908   2.692   2.343   0.565 -0.9978  2.1990 -1.1059
  398MOL0     H54909   2.515   2.189   0.642 -1.4847  0.4416 -0.8801
  398MOL0     H54910   2.211   2.182   1.018  2.4611 -0.1273  0.2077
  398MOL0     H54911   2.011   2.082   1.142  1.5341  2.0574  1.4888
  398MOL0     H54912   1.979   1.644   1.111 -1.0109  1.5710 -1.7701
  398MOL0     H54913   2.070   1.659   1.258  1.1864  1.3039  0.8688
  398MOL0     H54914   1.875   1.700   1.391  2.7287  3.0806 -2.2579
  398MOL0     H54915   1.856   1.546   1.288 -1.7916 -0.3453 -3.1119
  398MOL0     H54916   1.714   1.799   1.244 -1.3916 -0.3966  1.5762
  398MOL0     H54917   1.750   1.667   1.120  1.5347  0.2225  0.2607
  398MOL0     H54918   1.511   1.647   1.234 -0.4573  0.6893  0.4319
  398MOL0     H54919   1.606   1.639   1.389  0.2030  4.3324 -0.4801
  398MOL0     H54920   1.612   1.239   1.268 -4.2289 -0.3199 -2.2311
  398MOL0     H54921   2.184   1.697   1.089 -0.6219  0.7714  2.8968
  398MOL0     H54922   2.386   1.741   0.862 -0.4397 -4.6148  0.9732
  398MOL0     H54923   2.509   1.785   0.990  0.3206 -0.9321  1.9568
  398MOL0     H54924   2.382   1.667   1.016 -2.3242  0.8629 -0.8205
  399MOL0     O54925  11.234   4.790  10.158 -0.3177  0.1296  0.0484
  399MOL0     C54926  11.175   4.766  10.053 -0.9626  0.9159 -0.1136
  399MOL0     O54927  11.223   4.778   9.929 -0.2811 -0.6005  0.6382
  399MOL0     C54928  11.364   4.783   9.920  0.4619 -0.2193  0.4359
  399MOL0     C54929  11.436   4.891   9.860 -0.6769  0.5799  0.1642
  399MOL0     C54930  11.575   4.891   9.842 -0.4911 -0.0450  0.5507
  399MOL0     C54931  11.647   4.784   9.880 -0.0480  0.4537  0.1109
  399MOL0     O54932  11.782   4.788   9.859  0.1461  0.4289  0.3525
  399MOL0     C54933  11.854   4.671   9.826  0.4942 -0.2353  0.3578
  399MOL0     C54934  11.999   4.694   9.781  0.6504 -0.9468 -0.2595
  399MOL0     C54935  11.998   4.785   9.653 -0.1442 -0.2371  0.4041
  399MOL0     C54936  12.139   4.789   9.600 -1.2130 -0.1643  0.2223
  399MOL0     C54937  12.162   4.855   9.462  0.1501 -0.2538  0.3941
  399MOL0     C54938  12.315   4.874   9.445  0.2199 -0.1205 -0.0313
  399MOL0     C54939  12.353   4.903   9.297 -0.6663  0.6041 -0.2184
  399MOL0     C54940  12.497   4.935   9.269  1.4651  0.5870  0.6711
  399MOL0     N54941  12.522   5.004   9.139 -0.2304  0.0191  0.0098
  399MOL0     C54942  12.560   4.939   9.021 -0.4730 -0.0551 -0.5732
  399MOL0     C54943  12.529   5.035   8.931 -0.0436 -0.6717  0.2596
  399MOL0     C54944  12.558   5.022   8.783 -0.1471 -0.7790 -0.5176
  399MOL0     C54945  12.637   5.142   8.729  0.5868 -0.7437  0.1746
  399MOL0     C54946  12.782   5.119   8.756  0.1432 -0.2858 -0.1278
  399MOL0     C54947  12.856   5.240   8.685 -0.4344  0.1334 -0.7558
  399MOL0     O54948  12.912   5.186   8.563 -0.2258 -0.0567  0.0362
  399MOL0     C54949  12.996   5.267   8.486  0.0261  0.3534 -0.3817
  399MOL0     C54950  13.049   5.208   8.370  0.3121  0.7475  0.1671
  399MOL0     C54951  13.130   5.278   8.280 -0.8133 -0.0865  0.0338
  399MOL0     C54952  13.185   5.197   8.162 -0.1567  0.3845  0.1045
  399MOL0     C54953  13.157   5.413   8.307  0.0518 -0.7918 -0.1115
  399MOL0     C54954  13.233   5.505   8.211 -1.2377 -0.0711 -0.4216
  399MOL0     O54955  13.275   5.628   8.267  0.2923 -0.2457  0.4285
  399MOL0     C54956  13.377   5.690   8.203 -0.1631 -0.0316  0.8920
  399MOL0     C54957  13.342   5.806   8.138  0.0776 -0.2438 -0.3166
  399MOL0     C54958  13.423   5.869   8.044 -0.1675  0.2599  0.3203
  399MOL0     C54959  13.554   5.822   8.020  0.7025 -0.1401  0.2527
  399MOL0     O54960  13.641   5.874   7.932  0.5221 -0.1036 -0.2021
  399MOL0     C54961  13.589   5.975   7.843  0.0951 -0.2827 -0.3299
  399MOL0     C54962  13.685   6.009   7.742 -0.4982  0.2368  0.0186
  399MOL0     C54963  13.801   6.086   7.804  0.2967  0.3035  0.1187
  399MOL0     C54964  13.899   6.130   7.698 -0.4652 -0.2454  0.0507
  399MOL0     C54965  13.997   6.233   7.753  0.6891 -0.5437  0.3091
  399MOL0     C54966  14.099   6.172   7.849 -0.1770 -0.6460  1.1956
  399MOL0     C54967  14.195   6.275   7.912 -0.5099 -0.1281  0.9089
  399MOL0     C54968  14.310   6.209   7.974 -0.3130 -0.3973  0.8649
  399MOL0    Cl54969  14.449   6.179   7.865  0.5724 -0.1446 -0.1198
  399MOL0     C54970  13.591   5.708   8.092  1.0517 -0.4550 -0.1635
  399MOL0     C54971  13.510   5.644   8.180  0.3979  1.4396  0.5300
  399MOL0     O54972  13.270   5.461   8.103 -0.3327 -0.3181  0.1860
  399MOL0     C54973  13.103   5.469   8.420  0.6198  0.7014 -0.4932
  399MOL0     C54974  13.027   5.400   8.512  0.1034 -0.3678 -0.6588
  399MOL0     N54975  12.481   5.149   8.990  0.0283  0.1196 -0.0038
  399MOL0     N54976  12.489   5.126   9.114  0.4625  0.4535  0.3004
  399MOL0     C54977  11.575   4.671   9.934  0.7650 -0.3783  0.1719
  399MOL0     C54978  11.430   4.667   9.950 -0.9428 -0.0476 -0.2478
  399MOL0     C54979  11.030   4.729  10.063 -0.3938 -0.5745 -0.1241
  399MOL0     C54980  10.951   4.741   9.949 -0.3481  0.1372  0.5526
  399MOL0     C54981  10.820   4.689   9.933  0.3599  0.9838  0.2038
  399MOL0     C54982  10.761   4.634  10.041 -0.1284 -1.0679 -0.3982
  399MOL0     O54983  10.632   4.591  10.022  1.1098 -0.5623 -0.0889
  399MOL0     C54984  10.543   4.596  10.133 -0.3069 -0.1924  0.8318
  399MOL0     C54985  10.526   4.744  10.185 -0.9587 -0.4191 -0.0187
  399MOL0     C54986  10.432   4.738  10.302 -0.4164  0.2336  0.4360
  399MOL0     C54987  10.419   4.884  10.365 -0.2048 -0.1300  0.5462
  399MOL0     C54988  10.526   4.900  10.461 -0.2063 -0.9086 -0.6871
  399MOL0     C54989  10.623   4.896  10.536 -1.0702 -0.6047  0.1686
  399MOL0     C54990  10.827   4.634  10.167  0.3160  0.1208  0.0657
  399MOL0     C54991  10.960   4.680  10.178  0.8092 -0.0677  1.0339
  399MOL0     C54992  11.027   4.665  10.319  0.4016 -0.6996 -0.5144
  399MOL0     H54993  11.372   4.973   9.826 -0.5730 -0.1020 -1.7992
  399MOL0     H54994  11.623   4.972   9.788  0.9269 -0.4339  1.1860
  399MOL0     H54995  11.804   4.634   9.736  1.8133  2.7292 -1.7471
  399MOL0     H54996  11.858   4.599   9.908  1.9848 -3.1103 -2.0437
  399MOL0     H54997  12.057   4.750   9.855  1.6983  0.8370 -2.3184
  399MOL0     H54998  12.049   4.597   9.771  0.4317 -1.3612  2.1111
  399MOL0     H54999  11.918   4.755   9.585  0.7937 -0.5155 -0.6000
  399MOL0     H55000  11.976   4.887   9.687 -1.5866  0.6929 -2.8827
  399MOL0     H55001  12.197   4.852   9.669  2.0120 -0.9302 -1.5890
  399MOL0     H55002  12.182   4.689   9.607  3.1716  1.5829  2.2872
  399MOL0     H55003  12.116   4.953   9.451 -1.3786 -1.1580 -2.4294
  399MOL0     H55004  12.131   4.783   9.385  0.7115 -1.4348  1.2399
  399MOL0     H55005  12.353   4.961   9.500  3.8952  0.5882 -3.2205
  399MOL0     H55006  12.360   4.780   9.482 -0.3096 -1.3709 -2.3899
  399MOL0     H55007  12.296   4.992   9.268 -0.2201  1.2964  0.9138
  399MOL0     H55008  12.329   4.820   9.231 -1.6754  1.2273 -0.6573
  399MOL0     H55009  12.539   4.993   9.351  1.5530  0.5395  0.6593
  399MOL0     H55010  12.548   4.838   9.269 -1.4086 -1.0788 -1.3486
  399MOL0     H55011  12.585   4.835   9.004 -2.2961 -0.8855  1.4293
  399MOL0     H55012  12.460   5.007   8.736 -0.3062 -2.3319  0.2468
  399MOL0     H55013  12.614   4.928   8.784 -0.1494 -0.8576  2.5112
  399MOL0     H55014  12.610   5.144   8.623 -0.2234  1.2600  0.3700
  399MOL0     H55015  12.599   5.238   8.767 -1.0392 -1.0365 -0.6301
  399MOL0     H55016  12.785   5.115   8.865  1.0410  1.7826 -0.0445
  399MOL0     H55017  12.823   5.024   8.718  2.7880  0.2953  1.0650
  399MOL0     H55018  12.795   5.325   8.654 -1.6064  0.8113  2.8442
  399MOL0     H55019  12.937   5.269   8.753 -0.9398  1.6066 -0.7408
  399MOL0     H55020  13.038   5.102   8.354  4.1110 -0.0955  2.0247
  399MOL0     H55021  13.290   5.176   8.185 -0.3386  0.7435  1.3288
  399MOL0     H55022  13.180   5.248   8.065 -0.2666 -1.7014 -1.0428
  399MOL0     H55023  13.134   5.101   8.152  0.0643  0.4439 -1.9233
  399MOL0     H55024  13.237   5.829   8.125  0.2836  1.0160  0.1901
  399MOL0     H55025  13.380   5.949   7.985  0.9196 -1.5233 -3.1494
  399MOL0     H55026  13.510   5.921   7.789  1.4816 -1.4672 -1.2407
  399MOL0     H55027  13.547   6.062   7.895 -1.5583  0.7778 -3.1926
  399MOL0     H55028  13.714   5.915   7.694  1.2261  0.6239  0.2104
  399MOL0     H55029  13.635   6.074   7.670 -2.3465 -3.2292 -2.0705
  399MOL0     H55030  13.855   6.020   7.872 -0.7290 -0.5444  0.1348
  399MOL0     H55031  13.756   6.173   7.854  0.1037 -0.0034  0.4879
  399MOL0     H55032  13.857   6.182   7.611 -1.4290  1.5595  1.5192
  399MOL0     H55033  13.966   6.055   7.654  0.7007  1.3622 -1.0694
  399MOL0     H55034  14.048   6.280   7.669  0.1542  0.1244  0.3498
  399MOL0     H55035  13.946   6.313   7.808  1.7469  0.3026  0.0969
  399MOL0     H55036  14.154   6.104   7.783 -3.7686 -2.5134 -0.1146
  399MOL0     H55037  14.052   6.119   7.932 -0.5542 -0.9186  0.8103
  399MOL0     H55038  14.143   6.321   7.996  0.1567  1.6011  0.4211
  399MOL0     H55039  14.227   6.348   7.837 -0.5913 -0.3376  0.6692
  399MOL0     H55040  14.279   6.110   8.008  0.1682 -1.3199 -1.2511
  399MOL0     H55041  14.358   6.269   8.052  1.2480  2.0372 -1.7834
  399MOL0     H55042  13.694   5.680   8.075  1.4860  1.2027 -0.3944
  399MOL0     H55043  13.537   5.564   8.247 -2.9251  0.5919  1.0519
  399MOL0     H55044  13.131   5.571   8.443 -0.2941  1.5643 -2.9579
  399MOL0     H55045  12.995   5.457   8.598  2.1677  0.5732 -0.4427
  399MOL0     H55046  11.632   4.585   9.966  2.5947  0.8396  0.3779
  399MOL0     H55047  11.378   4.586  10.000 -0.6040 -2.2618 -3.2236
  399MOL0     H55048  10.991   4.785   9.858 -1.3169  1.2193  0.6244
  399MOL0     H55049  10.756   4.685   9.846 -0.9729 -0.5126  1.2071
  399MOL0     H55050  10.445   4.556  10.103  0.7611 -2.3748  0.0861
  399MOL0     H55051  10.578   4.539  10.219 -0.5857  0.6611  1.5214
  399MOL0     H55052  10.491   4.817  10.111  1.8171 -1.3910 -2.4862
  399MOL0     H55053  10.622   4.784  10.216 -0.3200 -1.6524 -0.3411
  399MOL0     H55054  10.336   4.702  10.263  0.4074  1.8635 -3.6162
  399MOL0     H55055  10.477   4.673  10.378  1.3074  0.2676 -0.5024
  399MOL0     H55056  10.325   4.888  10.420 -0.3154  1.4233  0.2892
  399MOL0     H55057  10.419   4.965  10.291 -2.2081  2.6579  3.3530
  399MOL0     H55058  10.715   4.896  10.591 -1.3619  1.0261  0.7186
  399MOL0     H55059  10.766   4.589  10.245 -1.4946  0.7503 -0.9074
  399MOL0     H55060  11.123   4.613  10.321  1.4929  1.2554  1.2742
  399MOL0     H55061  11.042   4.766  10.359  3.2113 -0.1567 -2.6508
  399MOL0     H55062  10.955   4.620  10.388 -0.6444 -0.3747 -1.3583
  400MOL0     O55063   5.988   6.530   6.506  0.1007  0.1310 -0.2237
  400MOL0     C55064   6.047   6.625   6.564 -0.2090 -0.7733 -0.3340
  400MOL0     O55065   6.148   6.612   6.655  0.3692 -0.4559  0.0593
  400MOL0     C55066   6.211   6.495   6.651 -0.0802 -0.1354  0.5805
  400MOL0     C55067   6.155   6.365   6.676 -0.4526  0.0463 -0.4288
  400MOL0     C55068   6.248   6.255   6.662  0.0122  0.2343  0.4880
  400MOL0     C55069   6.375   6.266   6.603 -0.1930  0.3251 -1.0841
  400MOL0     O55070   6.457   6.156   6.585  0.3695  0.2016 -0.4009
  400MOL0     C55071   6.401   6.028   6.565  0.2166  0.1797  0.5967
  400MOL0     C55072   6.508   5.920   6.544  0.1431 -0.3355  1.1200
  400MOL0     C55073   6.584   5.941   6.409 -0.7494 -0.2922 -0.2692
  400MOL0     C55074   6.711   5.859   6.373  0.7017 -0.1341 -1.3739
  400MOL0     C55075   6.701   5.714   6.430 -0.0602 -0.7188 -0.4725
  400MOL0     C55076   6.821   5.622   6.403  0.7749  0.8394 -0.6489
  400MOL0     C55077   6.842   5.500   6.494  0.1007  0.4722 -1.5277
  400MOL0     C55078   6.949   5.402   6.445 -0.0381 -0.0149  0.1590
  400MOL0     N55079   7.073   5.476   6.424 -0.3066 -0.3387 -0.1218
  400MOL0     C55080   7.109   5.565   6.330  0.6704 -0.1223  1.0124
  400MOL0     C55081   7.228   5.617   6.362  0.3173  0.1500  0.2834
  400MOL0     C55082   7.296   5.737   6.303  0.1956  0.7725 -0.3120
  400MOL0     C55083   7.364   5.693   6.175  0.2642  0.2889  0.9096
  400MOL0     C55084   7.483   5.781   6.135 -0.3142 -0.2902  0.0120
  400MOL0     C55085   7.429   5.916   6.082 -0.3367 -0.4974  0.0935
  400MOL0     O55086   7.378   5.993   6.187 -0.1744 -0.5405 -0.4232
  400MOL0     C55087   7.461   6.040   6.278 -0.7452 -0.0789 -0.6982
  400MOL0     C55088   7.400   6.088   6.393 -0.5136  0.0323  0.3705
  400MOL0     C55089   7.470   6.162   6.489 -1.5537  0.7163 -0.2186
  400MOL0     C55090   7.389   6.243   6.582  0.2476 -0.3462 -0.3128
  400MOL0     C55091   7.613   6.155   6.486 -0.6432 -0.6348 -0.5837
  400MOL0     C55092   7.698   6.208   6.595 -0.4763  0.7541 -0.6368
  400MOL0     O55093   7.825   6.216   6.560 -0.3690 -0.1440 -0.0275
  400MOL0     C55094   7.922   6.244   6.655 -0.6428 -0.0181 -0.2151
  400MOL0     C55095   8.043   6.170   6.659 -0.3157  0.0227 -0.4888
  400MOL0     C55096   8.140   6.187   6.764  0.1589  0.2855 -0.0808
  400MOL0     C55097   8.132   6.290   6.854  1.3015  0.1763  0.4393
  400MOL0     O55098   8.209   6.305   6.968  0.4259  0.8260 -0.2579
  400MOL0     C55099   8.348   6.305   6.945  0.3740  0.3735 -0.6520
  400MOL0     C55100   8.410   6.406   7.043 -0.2934  0.1239 -0.2412
  400MOL0     C55101   8.553   6.441   7.009 -0.2411 -0.7779 -0.4196
  400MOL0     C55102   8.566   6.547   6.902 -0.0783 -0.2365 -0.8785
  400MOL0     C55103   8.710   6.592   6.876  1.1158  0.3304  0.0089
  400MOL0     C55104   8.791   6.633   7.002 -0.1232  0.1261 -0.3084
  400MOL0     C55105   8.917   6.695   6.969 -0.1927 -1.1110 -0.4830
  400MOL0     C55106   8.999   6.744   7.089  0.4966 -0.1530  0.8037
  400MOL0    Cl55107   9.081   6.620   7.198  0.0013 -0.0595  0.2471
  400MOL0     C55108   8.019   6.384   6.837 -0.8982  0.2674  0.5881
  400MOL0     C55109   7.918   6.363   6.739 -0.1098 -0.4044 -0.7657
  400MOL0     O55110   7.650   6.219   6.709  0.0945 -0.8194 -0.7379
  400MOL0     C55111   7.675   6.113   6.362  0.6750  1.0499 -1.3762
  400MOL0     C55112   7.601   6.049   6.262 -0.3326  0.3410 -0.4839
  400MOL0     N55113   7.263   5.572   6.485 -0.3960  0.1353  0.2509
  400MOL0     N55114   7.180   5.483   6.515  0.2389  0.2249  0.4214
  400MOL0     C55115   6.425   6.387   6.579  0.1373 -1.0709  0.1949
  400MOL0     C55116   6.347   6.504   6.601  0.0190  0.1971 -0.2707
  400MOL0     C55117   6.012   6.772   6.543  0.2995 -0.6279  0.0919
  400MOL0     C55118   5.899   6.791   6.456 -0.5056  0.9009  0.3300
  400MOL0     C55119   5.844   6.922   6.421 -0.6105  0.4199 -0.3756
  400MOL0     C55120   5.905   7.030   6.472 -0.4739 -0.1667  0.3286
  400MOL0     O55121   5.860   7.161   6.454  0.7240 -0.3673 -0.3130
  400MOL0     C55122   5.732   7.180   6.394 -0.3715 -0.4300 -1.1032
  400MOL0     C55123   5.699   7.326   6.395 -0.0398 -0.4976  0.7275
  400MOL0     C55124   5.785   7.394   6.291 -0.0570 -0.6627 -0.2115
  400MOL0     C55125   5.759   7.544   6.282  0.8440  0.3267  0.5719
  400MOL0     C55126   5.852   7.615   6.197 -0.1707 -0.1784  0.9223
  400MOL0     C55127   5.933   7.681   6.131 -0.3723 -0.0772  0.0019
  400MOL0     C55128   6.019   7.016   6.548 -0.7198 -0.3482 -0.0138
  400MOL0     C55129   6.071   6.893   6.587 -0.4021  0.0560 -0.5324
  400MOL0     C55130   6.208   6.893   6.667 -0.0528 -0.9727  0.4686
  400MOL0     H55131   6.049   6.352   6.695 -0.7388  0.2082 -1.8157
  400MOL0     H55132   6.209   6.154   6.669  1.1818 -0.3440 -0.8025
  400MOL0     H55133   6.324   6.031   6.487  0.8469  1.0973 -0.0239
  400MOL0     H55134   6.342   5.996   6.651  1.0653 -1.1943  0.7072
  400MOL0     H55135   6.578   5.927   6.629 -0.4049  0.5118  1.5079
  400MOL0     H55136   6.465   5.820   6.553  1.1915 -0.7967  1.2044
  400MOL0     H55137   6.513   5.910   6.332 -0.6613  0.8687 -0.8361
  400MOL0     H55138   6.614   6.046   6.402 -0.3245 -0.1451  2.6757
  400MOL0     H55139   6.716   5.858   6.264  0.2851  0.1842 -1.4003
  400MOL0     H55140   6.794   5.915   6.418 -1.6021  1.6693  0.9578
  400MOL0     H55141   6.616   5.659   6.389  0.0835 -0.6271 -0.9032
  400MOL0     H55142   6.692   5.722   6.539 -1.6896 -0.4624 -0.6076
  400MOL0     H55143   6.799   5.585   6.302  0.7234  0.3120 -0.4451
  400MOL0     H55144   6.915   5.678   6.393  1.5240  0.3468  2.5759
  400MOL0     H55145   6.755   5.435   6.500  1.9403 -2.0726 -0.2842
  400MOL0     H55146   6.864   5.537   6.595  0.0132  1.5027 -1.8749
  400MOL0     H55147   6.971   5.335   6.528  2.0396  1.9190  1.2721
  400MOL0     H55148   6.920   5.346   6.355  3.2940  0.5293 -1.4104
  400MOL0     H55149   7.049   5.585   6.243  0.2452 -1.2261  1.0342
  400MOL0     H55150   7.371   5.763   6.378 -1.6368 -0.4678  2.0968
  400MOL0     H55151   7.222   5.814   6.281 -0.2487  0.2749 -0.5723
  400MOL0     H55152   7.409   5.599   6.209  0.4845 -0.3548 -1.0482
  400MOL0     H55153   7.296   5.676   6.091  1.3242 -0.3849  0.1739
  400MOL0     H55154   7.547   5.792   6.223  2.3596  2.7625 -2.0626
  400MOL0     H55155   7.554   5.730   6.069 -1.4127 -0.5199 -1.0306
  400MOL0     H55156   7.515   5.960   6.031 -1.5569  1.1345 -0.6438
  400MOL0     H55157   7.360   5.900   5.999 -0.5697 -0.1504  0.2177
  400MOL0     H55158   7.292   6.084   6.406 -0.2243 -2.3148  2.7706
  400MOL0     H55159   7.427   6.345   6.591 -3.1446  1.1572 -1.4472
  400MOL0     H55160   7.373   6.183   6.673 -0.8007 -2.2472 -1.6740
  400MOL0     H55161   7.292   6.259   6.534 -0.2369  3.0515  1.4792
  400MOL0     H55162   8.057   6.097   6.580 -2.9375 -1.1380 -0.0115
  400MOL0     H55163   8.227   6.122   6.775 -1.2709 -1.7863 -0.3797
  400MOL0     H55164   8.399   6.210   6.964  1.7626  1.5577  2.0737
  400MOL0     H55165   8.371   6.344   6.846 -0.0750  1.0354 -0.5027
  400MOL0     H55166   8.346   6.494   7.044  0.1354  0.4345  0.1239
  400MOL0     H55167   8.416   6.365   7.145  2.8406 -1.8475 -1.0664
  400MOL0     H55168   8.615   6.357   6.979 -1.1053 -1.9527  0.9649
  400MOL0     H55169   8.597   6.469   7.105 -1.0608 -1.1361  0.0765
  400MOL0     H55170   8.510   6.627   6.950  2.3125 -0.5004  2.7746
  400MOL0     H55171   8.512   6.505   6.817  0.5610 -3.3761  0.1263
  400MOL0     H55172   8.755   6.504   6.829  1.0661 -0.7078  1.7995
  400MOL0     H55173   8.704   6.682   6.814 -0.1657 -0.1085 -0.5468
  400MOL0     H55174   8.820   6.542   7.054 -1.7053 -2.2079 -3.1938
  400MOL0     H55175   8.733   6.702   7.064  0.4738 -1.1672  1.7799
  400MOL0     H55176   8.901   6.775   6.896 -1.0923 -1.2617 -0.4628
  400MOL0     H55177   8.981   6.619   6.921  0.4399  0.2390 -1.8630
  400MOL0     H55178   8.933   6.803   7.153  0.0342 -0.3993  0.5641
  400MOL0     H55179   9.084   6.796   7.045  3.1359 -4.9707 -0.5436
  400MOL0     H55180   8.017   6.472   6.901  2.1843  0.8228  0.1251
  400MOL0     H55181   7.834   6.430   6.722 -0.8296 -1.8030 -3.1034
  400MOL0     H55182   7.783   6.111   6.358  0.8493 -1.5704  1.3022
  400MOL0     H55183   7.654   6.011   6.176  2.3567  1.1084  0.7523
  400MOL0     H55184   6.528   6.404   6.551  0.4840  4.2367  3.3247
  400MOL0     H55185   6.391   6.602   6.582 -0.0185 -0.3244 -3.8706
  400MOL0     H55186   5.842   6.707   6.417  3.2139 -0.7005 -2.3150
  400MOL0     H55187   5.749   6.929   6.368 -0.5132  0.3842 -0.5572
  400MOL0     H55188   5.736   7.139   6.293 -2.6508 -1.3443 -0.8813
  400MOL0     H55189   5.651   7.137   6.453  0.8507 -0.3768  0.7083
  400MOL0     H55190   5.709   7.368   6.495  0.9200  1.9085 -0.3055
  400MOL0     H55191   5.594   7.341   6.369 -0.2979 -0.7618  1.6098
  400MOL0     H55192   5.888   7.378   6.325  0.1595 -1.3302 -1.1364
  400MOL0     H55193   5.771   7.344   6.195  0.3357 -0.0389 -0.6034
  400MOL0     H55194   5.767   7.585   6.383 -1.4038  2.2157  0.0622
  400MOL0     H55195   5.656   7.563   6.248  0.5396 -0.6881  0.8649
  400MOL0     H55196   6.001   7.743   6.076  0.0029 -0.5766 -0.1093
  400MOL0     H55197   6.083   7.101   6.571 -0.4214 -1.0249  1.7798
  400MOL0     H55198   6.249   6.993   6.652 -3.1469  0.5132  1.2226
  400MOL0     H55199   6.185   6.883   6.774  0.5601 -0.9312  0.6091
  400MOL0     H55200   6.290   6.826   6.638 -0.0416 -0.9014  0.3320
  401MOL0     O55201   9.216   0.402   1.768 -0.0018  0.6591  0.1250
  401MOL0     C55202   9.152   0.488   1.703  0.2126  0.7759  0.2269
  401MOL0     O55203   9.207   0.586   1.623  0.6557 -0.0949 -0.0684
  401MOL0     C55204   9.337   0.617   1.649  0.4255 -1.0580 -0.0150
  401MOL0     C55205   9.443   0.534   1.609  0.2185  0.0872 -0.6160
  401MOL0     C55206   9.577   0.570   1.640 -0.0661 -0.2055 -0.1195
  401MOL0     C55207   9.602   0.691   1.710  0.2291 -0.0539  0.1672
  401MOL0     O55208   9.738   0.720   1.735  0.2325 -0.4917  0.3053
  401MOL0     C55209   9.771   0.814   1.839 -0.1960 -0.0113  0.4504
  401MOL0     C55210   9.925   0.841   1.828 -0.9905  0.3683  0.0694
  401MOL0     C55211   9.970   0.932   1.705  0.1987 -0.3818 -0.8205
  401MOL0     C55212   9.974   0.860   1.572 -0.0843  0.1479  0.2233
  401MOL0     C55213  10.085   0.921   1.485  0.9981  0.4472  0.7489
  401MOL0     C55214  10.216   0.847   1.525  0.6109  0.4232 -1.0268
  401MOL0     C55215  10.320   0.891   1.436  0.0763 -0.0716  0.7557
  401MOL0     C55216  10.444   0.807   1.452 -0.4758  0.1033  0.6687
  401MOL0     N55217  10.439   0.672   1.513 -0.4401 -0.1290  0.9559
  401MOL0     C55218  10.392   0.566   1.443 -1.0177  0.3361  0.1425
  401MOL0     C55219  10.358   0.475   1.537 -0.4230  0.0791 -0.3518
  401MOL0     C55220  10.276   0.356   1.522 -1.2007 -0.0501 -0.3407
  401MOL0     C55221  10.134   0.377   1.574  0.0212  0.3944  0.6002
  401MOL0     C55222  10.022   0.327   1.482 -0.1937 -0.2869  0.0200
  401MOL0     C55223   9.891   0.320   1.553  0.5172  1.0776 -0.2798
  401MOL0     O55224   9.792   0.293   1.452  0.4700  0.3290  0.1130
  401MOL0     C55225   9.670   0.244   1.479 -0.4917  0.1473  0.4107
  401MOL0     C55226   9.630   0.190   1.601  0.2071  0.6090 -0.0600
  401MOL0     C55227   9.500   0.137   1.631 -0.5632 -0.0360  1.1627
  401MOL0     C55228   9.480   0.067   1.758 -0.1038  0.9227 -0.4335
  401MOL0     C55229   9.406   0.142   1.525 -0.6433  0.0597 -1.0925
  401MOL0     C55230   9.256   0.112   1.540 -0.5398 -0.4488  0.8359
  401MOL0     O55231   9.177   0.125   1.426  1.0414 -0.0460 -0.0914
  401MOL0     C55232   9.043   0.101   1.442  0.4386  0.4719 -0.8020
  401MOL0     C55233   8.964   0.149   1.551 -1.0494  0.0005 -0.1001
  401MOL0     C55234   8.824   0.142   1.550 -0.5588  0.0034  0.4829
  401MOL0     C55235   8.762   0.094   1.435 -0.3955 -0.3180 -0.6258
  401MOL0     O55236   8.623   0.088   1.440 -0.2094 -0.0785  0.7388
  401MOL0     C55237   8.569   0.102   1.305  0.0999 -0.7484  0.2517
  401MOL0     C55238   8.428   0.158   1.293  0.0071  0.3430  0.9322
  401MOL0     C55239   8.375   0.167   1.151  0.1906  0.1721 -0.7203
  401MOL0     C55240   8.232   0.219   1.156  0.5269  0.0219  0.1584
  401MOL0     C55241   8.160   0.170   1.031  0.2936 -0.1505  0.1176
  401MOL0     C55242   8.032   0.248   1.017  0.3248 -0.2724  0.2083
  401MOL0     C55243   7.950   0.180   0.901  0.3313 -0.8893 -0.2041
  401MOL0     C55244   7.810   0.246   0.888 -0.1431  0.0089  0.4852
  401MOL0    Cl55245   7.722   0.161   0.763 -0.2831  0.0701 -0.3090
  401MOL0     C55246   8.835   0.042   1.333 -0.7263  0.2627 -0.2804
  401MOL0     C55247   8.971   0.065   1.323  0.9334  0.3631 -0.9888
  401MOL0     O55248   9.221   0.051   1.643  0.1551 -0.0596  0.3815
  401MOL0     C55249   9.447   0.190   1.398  0.8660 -1.2080 -0.3601
  401MOL0     C55250   9.577   0.246   1.378  0.1761  0.1002 -0.3124
  401MOL0     N55251  10.402   0.521   1.662 -0.0061  0.1163 -0.4336
  401MOL0     N55252  10.445   0.641   1.647 -0.1051  0.8258 -0.4338
  401MOL0     C55253   9.487   0.769   1.751 -0.1136  0.1917 -0.2135
  401MOL0     C55254   9.360   0.732   1.718  0.1237 -0.0371  0.7293
  401MOL0     C55255   9.006   0.483   1.705  0.6002 -0.0654  0.0127
  401MOL0     C55256   8.939   0.537   1.599 -0.7924  0.5520  0.1823
  401MOL0     C55257   8.802   0.535   1.583  0.2752  0.6430 -0.4454
  401MOL0     C55258   8.716   0.460   1.675  0.0562 -0.5462 -0.7226
  401MOL0     O55259   8.588   0.446   1.628 -0.2101  0.2777  0.0277
  401MOL0     C55260   8.498   0.384   1.720 -0.9385 -0.1508  0.4643
  401MOL0     C55261   8.438   0.265   1.653  0.1238  0.4016  0.4843
  401MOL0     C55262   8.324   0.215   1.740  0.0539  0.0674  0.1033
  401MOL0     C55263   8.228   0.112   1.663  0.5447 -0.2759  0.5499
  401MOL0     C55264   8.291  -0.019   1.630  0.4770 -0.3266 -0.3039
  401MOL0     C55265   8.328  -0.128   1.594  0.0854  0.0522 -0.1845
  401MOL0     C55266   8.787   0.401   1.783  0.2295  0.0464  0.0462
  401MOL0     C55267   8.923   0.420   1.803 -0.0813 -0.4126  0.5277
  401MOL0     C55268   8.987   0.358   1.926 -0.0368  0.7713  0.5503
  401MOL0     H55269   9.424   0.441   1.556 -2.0716  2.5766 -4.5783
  401MOL0     H55270   9.669   0.513   1.627  0.8633  1.3099 -0.3620
  401MOL0     H55271   9.758   0.766   1.936 -1.1649 -0.2546  0.2096
  401MOL0     H55272   9.722   0.911   1.840 -0.7021 -0.2469 -0.5191
  401MOL0     H55273   9.968   0.883   1.920  3.0087  1.1127 -1.8948
  401MOL0     H55274   9.965   0.739   1.829  0.4069  0.7467 -3.5353
  401MOL0     H55275   9.907   1.020   1.684 -0.8050 -1.6909 -3.9721
  401MOL0     H55276  10.066   0.980   1.723 -0.6358  0.7015  0.9849
  401MOL0     H55277   9.983   0.751   1.576 -0.8557  0.0652 -0.1464
  401MOL0     H55278   9.877   0.871   1.523  0.6992 -2.2683 -2.1207
  401MOL0     H55279  10.090   1.031   1.486 -1.1223  0.6423 -1.2763
  401MOL0     H55280  10.062   0.891   1.383 -0.3555  0.4445  1.0345
  401MOL0     H55281  10.247   0.864   1.629 -0.5964 -0.7552 -0.4295
  401MOL0     H55282  10.197   0.739   1.527  3.4293 -0.1562  1.4880
  401MOL0     H55283  10.346   0.997   1.443  0.6120 -0.1785  0.4246
  401MOL0     H55284  10.289   0.859   1.336  2.6721 -1.2060  0.2361
  401MOL0     H55285  10.483   0.797   1.351 -0.6560 -2.2040  0.7718
  401MOL0     H55286  10.512   0.874   1.506 -1.1753  2.5638 -1.3679
  401MOL0     H55287  10.356   0.549   1.342 -1.6451  1.1395  0.2143
  401MOL0     H55288  10.310   0.268   1.577 -1.2897  0.9313  1.3459
  401MOL0     H55289  10.277   0.323   1.418 -1.2502 -0.2130 -0.2897
  401MOL0     H55290  10.123   0.325   1.670 -2.2311 -1.5719 -0.6158
  401MOL0     H55291  10.111   0.483   1.588  1.1833  0.5886  1.1223
  401MOL0     H55292  10.007   0.397   1.400  0.4637  0.4076  0.4669
  401MOL0     H55293  10.048   0.226   1.449  1.7838  0.0648  0.3725
  401MOL0     H55294   9.909   0.240   1.625  0.7918  1.6626  0.3086
  401MOL0     H55295   9.868   0.412   1.607  0.0446 -1.4613  4.3287
  401MOL0     H55296   9.702   0.167   1.679  0.5775 -1.4982 -0.9444
  401MOL0     H55297   9.406   0.113   1.825  0.2232  1.2222 -0.2754
  401MOL0     H55298   9.573   0.055   1.813 -1.6793  1.3705  2.5188
  401MOL0     H55299   9.443  -0.035   1.746  1.6292 -0.3576  3.5235
  401MOL0     H55300   9.013   0.191   1.638 -1.8877  0.1201  0.3223
  401MOL0     H55301   8.759   0.168   1.633 -1.1229 -1.5667  0.5544
  401MOL0     H55302   8.618   0.180   1.246 -0.7288 -0.4750 -0.0893
  401MOL0     H55303   8.561   0.012   1.243 -1.9114  1.1306 -2.4450
  401MOL0     H55304   8.371   0.090   1.357  0.6666  0.1495  1.3287
  401MOL0     H55305   8.424   0.261   1.327 -0.2686  0.9851 -0.9437
  401MOL0     H55306   8.393   0.074   1.096  0.5920  0.6901 -1.4778
  401MOL0     H55307   8.430   0.243   1.096  2.1467 -0.2767  0.5184
  401MOL0     H55308   8.224   0.328   1.159  2.3893  0.1573  2.2394
  401MOL0     H55309   8.176   0.184   1.243  0.1514 -1.7055 -0.7321
  401MOL0     H55310   8.222   0.182   0.942  1.6279 -0.8018  0.9305
  401MOL0     H55311   8.137   0.065   1.050  0.7408 -0.6280 -1.7688
  401MOL0     H55312   8.057   0.350   0.986 -1.1428 -0.7131 -2.8434
  401MOL0     H55313   7.975   0.244   1.110 -1.9308 -2.2768 -1.1520
  401MOL0     H55314   7.931   0.076   0.931  0.7746 -0.9090  0.0183
  401MOL0     H55315   8.011   0.184   0.810  0.5977  3.6541 -0.0213
  401MOL0     H55316   7.831   0.351   0.865  3.1437 -0.6518 -0.0469
  401MOL0     H55317   7.763   0.235   0.986  1.1501 -1.9785  0.9235
  401MOL0     H55318   8.784  -0.008   1.251  0.0216  0.5031 -0.9124
  401MOL0     H55319   9.013   0.049   1.224 -0.1684 -0.2207 -1.3712
  401MOL0     H55320   9.375   0.199   1.318  0.4879 -1.8942 -0.1002
  401MOL0     H55321   9.611   0.295   1.287 -1.4464  0.0268 -0.9821
  401MOL0     H55322   9.503   0.855   1.815 -0.5724  1.8324 -2.1884
  401MOL0     H55323   9.277   0.789   1.760  0.0999 -2.5555  4.6748
  401MOL0     H55324   9.002   0.595   1.533 -0.6652  0.5797  0.3263
  401MOL0     H55325   8.777   0.574   1.485 -0.3618 -0.8555 -0.8928
  401MOL0     H55326   8.544   0.352   1.814  0.4355  0.4836  0.0450
  401MOL0     H55327   8.425   0.463   1.743 -0.8026  0.4287 -0.9618
  401MOL0     H55328   8.511   0.184   1.639  1.7167  1.9909 -1.0553
  401MOL0     H55329   8.396   0.287   1.554  1.2665  0.5648  0.0167
  401MOL0     H55330   8.355   0.173   1.836 -1.6009 -1.6849 -0.0575
  401MOL0     H55331   8.269   0.306   1.766  1.1116  0.4722  1.0010
  401MOL0     H55332   8.191   0.163   1.574  0.5465  0.7753  1.1317
  401MOL0     H55333   8.137   0.087   1.719 -0.7578  2.7999 -0.0169
  401MOL0     H55334   8.355  -0.221   1.549  1.5142 -0.0532  0.7912
  401MOL0     H55335   8.738   0.338   1.857  0.3944 -0.5178 -0.3241
  401MOL0     H55336   9.061   0.429   1.966  0.9839  0.2436 -0.3534
  401MOL0     H55337   8.908   0.345   2.000 -1.3575 -1.8532 -1.1851
  401MOL0     H55338   9.037   0.263   1.904 -0.5869  0.0010  2.4250
  402MOL0     O55339   8.238   3.949   2.728 -0.3438 -0.0166  0.4895
  402MOL0     C55340   8.253   3.982   2.604 -0.5974  0.4462  0.1660
  402MOL0     O55341   8.368   4.006   2.535 -0.3679 -0.0189 -0.2478
  402MOL0     C55342   8.487   3.982   2.598 -0.4123  0.0591 -1.0349
  402MOL0     C55343   8.585   3.899   2.543  0.0085 -0.0806 -0.7613
  402MOL0     C55344   8.719   3.891   2.594 -0.1758  0.1970 -0.6081
  402MOL0     C55345   8.747   3.950   2.720  0.3378 -0.2466  0.8094
  402MOL0     O55346   8.868   3.938   2.774  0.7137 -0.3461 -0.0595
  402MOL0     C55347   8.896   3.803   2.818 -0.7694 -0.2289 -0.8508
  402MOL0     C55348   9.035   3.800   2.892 -0.6532  0.1863  0.2692
  402MOL0     C55349   9.149   3.829   2.791  0.6644  0.3501  0.1049
  402MOL0     C55350   9.278   3.796   2.859 -0.1309  0.1389  0.0186
  402MOL0     C55351   9.406   3.812   2.771 -0.0713  0.0420  0.3448
  402MOL0     C55352   9.420   3.709   2.663 -0.0069  0.5836 -0.4712
  402MOL0     C55353   9.541   3.732   2.571  0.6082  0.2412  0.5152
  402MOL0     C55354   9.672   3.695   2.651 -0.6146  0.3402  0.6668
  402MOL0     N55355   9.792   3.716   2.566  0.6829 -0.4851  0.5624
  402MOL0     C55356   9.823   3.843   2.520 -0.9101  0.3675 -0.3421
  402MOL0     C55357   9.954   3.835   2.490 -0.9930 -0.8375 -0.4900
  402MOL0     C55358  10.046   3.948   2.447  0.6912  0.7929  0.8647
  402MOL0     C55359  10.195   3.928   2.471  0.3458 -0.1350 -0.1202
  402MOL0     C55360  10.272   4.054   2.423 -0.2542 -0.0793  0.0403
  402MOL0     C55361  10.406   4.018   2.362 -0.8985  0.0977 -0.3695
  402MOL0     O55362  10.484   3.938   2.443  0.6046  0.0672 -0.8537
  402MOL0     C55363  10.616   3.914   2.417  0.4866  1.0057 -0.1336
  402MOL0     C55364  10.683   3.948   2.297 -0.6439  0.1624  1.4434
  402MOL0     C55365  10.819   3.949   2.281  0.2811  0.0155 -0.7200
  402MOL0     C55366  10.868   4.001   2.150  1.0577 -0.7484  0.6074
  402MOL0     C55367  10.899   3.904   2.388 -0.1728 -0.2087 -0.1905
  402MOL0     C55368  11.046   3.894   2.380 -0.2295 -0.4658  0.4113
  402MOL0     O55369  11.119   3.925   2.487  0.1863  0.2871  0.0202
  402MOL0     C55370  11.253   3.939   2.490  0.0494 -0.3224 -0.6359
  402MOL0     C55371  11.339   3.977   2.384 -0.6108 -0.3232 -0.1271
  402MOL0     C55372  11.480   3.995   2.405 -0.4657 -0.2475 -0.9805
  402MOL0     C55373  11.534   3.973   2.535 -0.0384 -0.3576  0.1739
  402MOL0     O55374  11.672   3.977   2.553  0.2515 -0.2165  0.4038
  402MOL0     C55375  11.746   3.876   2.629  0.1363  0.7808  0.3673
  402MOL0     C55376  11.879   3.857   2.571  0.0023 -0.2335  0.9370
  402MOL0     C55377  11.972   3.986   2.585  0.3606  0.1856 -0.2667
  402MOL0     C55378  12.068   4.001   2.470 -0.7533 -0.4927 -0.2664
  402MOL0     C55379  12.162   4.120   2.499  0.5657  0.6601  0.8187
  402MOL0     C55380  12.253   4.152   2.373  0.5698  0.1864  0.0948
  402MOL0     C55381  12.352   4.035   2.348  0.2094 -0.7737  0.1446
  402MOL0     C55382  12.452   4.082   2.234  0.0580  0.6042 -0.5948
  402MOL0    Cl55383  12.591   4.171   2.298 -0.1024  0.0684  0.3163
  402MOL0     C55384  11.449   3.941   2.641 -0.1255  0.3741 -0.0080
  402MOL0     C55385  11.311   3.925   2.620  0.0021 -0.1183  0.0052
  402MOL0     O55386  11.089   3.864   2.270 -0.5575 -0.5823  0.7413
  402MOL0     C55387  10.834   3.880   2.509  0.5383 -0.0784 -0.3432
  402MOL0     C55388  10.697   3.885   2.526 -0.4394  0.0970  0.6330
  402MOL0     N55389  10.000   3.709   2.531  0.8064 -0.5363  0.0468
  402MOL0     N55390   9.893   3.625   2.554 -0.3234  0.0038  0.1668
  402MOL0     C55391   8.646   4.027   2.782 -0.6769 -0.1264  0.7286
  402MOL0     C55392   8.521   4.046   2.721  0.0207  0.9278 -1.0752
  402MOL0     C55393   8.126   4.025   2.531 -0.8944  0.2153  0.0592
  402MOL0     C55394   8.029   4.091   2.604  1.0770 -0.8958  0.2538
  402MOL0     C55395   7.918   4.143   2.538  0.8093  0.0355 -0.6144
  402MOL0     C55396   7.889   4.121   2.401 -0.3853 -0.8578 -0.8094
  402MOL0     O55397   7.777   4.161   2.325  0.1582  0.1400 -0.9011
  402MOL0     C55398   7.704   4.276   2.369 -0.9131  0.1104 -0.6916
  402MOL0     C55399   7.783   4.410   2.334  0.6161 -0.6265  0.5528
  402MOL0     C55400   7.674   4.525   2.322 -0.0250  0.4872 -0.7508
  402MOL0     C55401   7.714   4.649   2.245 -0.1251 -0.0069  0.0453
  402MOL0     C55402   7.838   4.721   2.289 -0.6257  0.1355 -0.0918
  402MOL0     C55403   7.938   4.779   2.313  0.8585 -1.0214  0.2553
  402MOL0     C55404   7.982   4.040   2.334 -0.1269 -0.9211  0.4057
  402MOL0     C55405   8.097   3.993   2.397  0.3410  0.0858 -0.1549
  402MOL0     C55406   8.185   3.895   2.330 -0.2364  0.5323  0.2579
  402MOL0     H55407   8.561   3.851   2.449 -0.7707 -0.2541 -0.4879
  402MOL0     H55408   8.801   3.843   2.542  0.6552 -0.1355  0.9574
  402MOL0     H55409   8.894   3.723   2.743 -2.6757  0.4480 -1.5797
  402MOL0     H55410   8.820   3.772   2.890  2.3925 -1.4775  2.2309
  402MOL0     H55411   9.032   3.871   2.975 -2.1290  0.7347 -0.2320
  402MOL0     H55412   9.048   3.702   2.938  2.1684 -0.5292 -1.7252
  402MOL0     H55413   9.133   3.757   2.710 -0.3350 -0.2721  0.8287
  402MOL0     H55414   9.142   3.930   2.748  1.7755 -0.5032 -2.2405
  402MOL0     H55415   9.294   3.862   2.945  1.1471 -2.3112  1.7924
  402MOL0     H55416   9.282   3.693   2.898 -0.9416  0.0363 -0.1463
  402MOL0     H55417   9.486   3.804   2.845 -0.6287  0.8217  1.0584
  402MOL0     H55418   9.405   3.906   2.716 -2.7373  1.0209  1.8617
  402MOL0     H55419   9.426   3.610   2.710 -0.0413  0.4582 -0.7319
  402MOL0     H55420   9.330   3.712   2.602 -0.8277 -2.2514  0.4460
  402MOL0     H55421   9.538   3.837   2.542 -0.6343  0.4238  1.2346
  402MOL0     H55422   9.522   3.673   2.480 -0.3228  2.9936 -1.1974
  402MOL0     H55423   9.678   3.754   2.743  2.5598 -0.5789  1.1772
  402MOL0     H55424   9.672   3.590   2.683  3.2628  0.1017  0.3495
  402MOL0     H55425   9.763   3.933   2.510 -0.4625  1.2767  3.6422
  402MOL0     H55426  10.011   4.038   2.498 -0.8592 -0.4111  2.0323
  402MOL0     H55427  10.034   3.956   2.338 -0.6516 -1.3468  0.8073
  402MOL0     H55428  10.207   3.910   2.578 -0.2979  0.4790  0.0642
  402MOL0     H55429  10.229   3.834   2.425  0.6352 -0.6595  1.1340
  402MOL0     H55430  10.214   4.121   2.359  1.4393  1.2191 -0.2077
  402MOL0     H55431  10.286   4.116   2.512  1.7515  0.9125 -0.9004
  402MOL0     H55432  10.380   3.957   2.276 -0.3617 -1.5711  0.6052
  402MOL0     H55433  10.467   4.105   2.336 -0.5912  0.0106  0.0459
  402MOL0     H55434  10.612   3.971   2.219  1.0266  1.2205  0.1535
  402MOL0     H55435  10.785   4.008   2.079 -0.4792 -1.8086  2.2001
  402MOL0     H55436  10.942   3.938   2.101  0.3200  1.2509 -3.4373
  402MOL0     H55437  10.906   4.101   2.171 -0.9253  0.1221  0.2902
  402MOL0     H55438  11.293   4.001   2.289 -0.0711 -4.1711 -1.5278
  402MOL0     H55439  11.541   4.027   2.321  0.2889 -0.4813 -0.5343
  402MOL0     H55440  11.772   3.921   2.725 -2.9167  1.3555  1.0553
  402MOL0     H55441  11.695   3.779   2.634  3.8524 -1.4242 -0.9180
  402MOL0     H55442  11.931   3.770   2.612  0.7361 -2.1689 -3.5489
  402MOL0     H55443  11.867   3.826   2.467 -4.0734  0.5067  1.0014
  402MOL0     H55444  12.028   3.985   2.679 -0.7461  0.4024  0.4154
  402MOL0     H55445  11.897   4.065   2.591  2.6072  2.6388 -2.2365
  402MOL0     H55446  12.018   4.027   2.377 -3.1496 -0.0736  1.0581
  402MOL0     H55447  12.124   3.910   2.446 -0.2616 -0.0162 -0.9746
  402MOL0     H55448  12.105   4.209   2.525  1.5262  1.3216  0.7309
  402MOL0     H55449  12.230   4.094   2.582  2.5580 -1.3623 -1.2918
  402MOL0     H55450  12.313   4.241   2.395  1.8045 -0.9032  1.2892
  402MOL0     H55451  12.191   4.167   2.283  1.2477  0.0249 -0.4012
  402MOL0     H55452  12.297   3.950   2.305 -1.1183 -0.1581  0.5911
  402MOL0     H55453  12.401   3.999   2.439  0.6203  0.0267  0.2431
  402MOL0     H55454  12.395   4.147   2.167 -1.0844  1.2467  0.9333
  402MOL0     H55455  12.494   3.996   2.182  0.4231 -0.4605  1.3602
  402MOL0     H55456  11.485   3.922   2.741 -1.9426  1.0140  0.7990
  402MOL0     H55457  11.253   3.896   2.706 -2.0893 -1.9158 -1.8944
  402MOL0     H55458  10.891   3.838   2.591 -1.6425 -1.6752  0.4650
  402MOL0     H55459  10.654   3.868   2.624 -1.6322  0.8072  0.2540
  402MOL0     H55460   8.677   4.070   2.877  1.4733 -1.2519  0.6140
  402MOL0     H55461   8.451   4.107   2.777  2.0735  1.2348  1.3637
  402MOL0     H55462   8.029   4.093   2.712  0.9416 -1.3304  0.2603
  402MOL0     H55463   7.837   4.199   2.585  1.9294 -0.0800  1.5939
  402MOL0     H55464   7.605   4.264   2.323 -1.8447 -3.4300  1.8162
  402MOL0     H55465   7.690   4.267   2.478  1.3429  2.0383 -0.1661
  402MOL0     H55466   7.836   4.408   2.238 -0.4517  0.6885 -0.0949
  402MOL0     H55467   7.864   4.429   2.405  2.6523 -2.8358 -1.0002
  402MOL0     H55468   7.601   4.479   2.255  1.1151 -0.3618 -1.4408
  402MOL0     H55469   7.635   4.554   2.420  3.6295  2.1209  0.4109
  402MOL0     H55470   7.627   4.712   2.264 -0.8486 -0.1247 -2.5320
  402MOL0     H55471   7.716   4.638   2.136 -4.3153 -4.0981  0.0535
  402MOL0     H55472   8.027   4.834   2.335 -0.5728  1.0057  1.3118
  402MOL0     H55473   7.957   4.010   2.233  0.7986 -0.3478 -0.0064
  402MOL0     H55474   8.174   3.907   2.222  1.9859  1.0159  0.0455
  402MOL0     H55475   8.292   3.898   2.352 -0.3773 -0.4616  1.1251
  402MOL0     H55476   8.162   3.795   2.367 -0.5776  1.6380  3.3734
  403MOL0     O55477   7.452   3.738  10.479 -0.7456  0.0258  0.1700
  403MOL0     C55478   7.366   3.800  10.544 -0.5125 -0.6058 -0.5800
  403MOL0     O55479   7.392   3.908  10.621  0.0820  0.2131  0.7569
  403MOL0     C55480   7.523   3.909  10.664  0.4477 -1.5144 -0.3081
  403MOL0     C55481   7.608   3.984  10.582 -0.6720 -0.0127  0.2754
  403MOL0     C55482   7.747   3.988  10.612  0.5000 -0.4416  0.3277
  403MOL0     C55483   7.797   3.917  10.723  0.4436 -0.6789  1.0228
  403MOL0     O55484   7.920   3.934  10.782  0.7245 -0.3853 -0.1812
  403MOL0     C55485   8.027   3.998  10.717  0.3740  0.0443 -0.3396
  403MOL0     C55486   8.156   3.979  10.796  0.2035 -1.1275 -0.9053
  403MOL0     C55487   8.212   3.845  10.762 -0.0137 -0.1873 -0.1721
  403MOL0     C55488   8.318   3.825  10.864 -0.4019  0.4868 -0.2115
  403MOL0     C55489   8.400   3.695  10.841  1.1273  0.2301 -0.1288
  403MOL0     C55490   8.484   3.674  10.967  0.1931  0.4418  1.0191
  403MOL0     C55491   8.553   3.532  10.951 -0.1070  0.3327  0.3092
  403MOL0     C55492   8.629   3.486  11.074  0.4009  0.6456 -0.7694
  403MOL0     N55493   8.678   3.344  11.056  0.9582 -0.1942  0.8075
  403MOL0     C55494   8.599   3.230  11.037 -0.0141 -0.4380  0.6473
  403MOL0     C55495   8.683   3.125  11.003 -0.9020  0.6289 -0.7752
  403MOL0     C55496   8.637   2.990  10.971  0.6509  0.6725 -1.1736
  403MOL0     C55497   8.749   2.884  10.964 -0.3895  0.2200  0.6581
  403MOL0     C55498   8.712   2.740  10.948 -0.5496  0.4363 -0.1256
  403MOL0     C55499   8.833   2.658  10.987  0.4399 -0.2743 -0.5731
  403MOL0     O55500   8.936   2.677  10.885  0.4923  0.1164 -0.2578
  403MOL0     C55501   9.047   2.602  10.893 -0.4243  0.1475 -0.1811
  403MOL0     C55502   9.060   2.504  10.993  1.0195  0.0500 -0.2823
  403MOL0     C55503   9.160   2.408  10.993 -1.0009  0.0197  0.3129
  403MOL0     C55504   9.149   2.292  11.090 -0.3916  0.5150  0.3562
  403MOL0     C55505   9.273   2.432  10.902  0.7344 -0.6018 -0.8190
  403MOL0     C55506   9.398   2.347  10.901  0.5273 -0.1867 -0.5307
  403MOL0     O55507   9.446   2.300  11.028  0.0998 -1.0139  0.2208
  403MOL0     C55508   9.562   2.231  11.005 -0.2914 -0.1751 -0.5232
  403MOL0     C55509   9.554   2.101  10.958  0.4382  0.3594 -0.2279
  403MOL0     C55510   9.672   2.024  10.930  0.3276 -0.7579  0.4160
  403MOL0     C55511   9.794   2.081  10.946  0.0818 -0.6033 -0.0082
  403MOL0     O55512   9.910   2.028  10.908 -0.0330  0.5423  0.3558
  403MOL0     C55513   9.916   1.891  10.870 -0.7519  0.4654 -0.3867
  403MOL0     C55514  10.060   1.868  10.808 -0.0721 -0.7717 -0.5365
  403MOL0     C55515  10.071   1.938  10.667  0.5857 -0.3281 -0.4159
  403MOL0     C55516  10.192   1.889  10.590 -0.1046 -0.2935 -0.7437
  403MOL0     C55517  10.182   1.927  10.444 -0.2257  0.0000 -0.1306
  403MOL0     C55518  10.180   2.085  10.420  0.1326  0.6320 -0.0945
  403MOL0     C55519  10.234   2.101  10.270  0.2237 -0.0908 -0.4786
  403MOL0     C55520  10.244   2.249  10.228 -0.1488 -0.1035 -0.1552
  403MOL0    Cl55521  10.080   2.320  10.210  0.6738 -0.2217  0.1650
  403MOL0     C55522   9.806   2.214  10.987 -0.1049 -0.3429 -0.6470
  403MOL0     C55523   9.697   2.295  11.011  0.6715  0.3102  0.4437
  403MOL0     O55524   9.456   2.325  10.795 -0.1844  0.2465 -0.1265
  403MOL0     C55525   9.256   2.532  10.799  0.7409  0.3837 -0.0208
  403MOL0     C55526   9.141   2.611  10.787 -1.2119 -0.2425  0.0314
  403MOL0     N55527   8.816   3.182  11.015  0.0122 -0.0602 -0.4032
  403MOL0     N55528   8.808   3.314  11.026 -0.4818  0.1313  0.3967
  403MOL0     C55529   7.713   3.842  10.801  0.0410  1.0864  0.4012
  403MOL0     C55530   7.572   3.833  10.769  0.7660  0.0485 -0.3255
  403MOL0     C55531   7.224   3.771  10.510  0.7477  0.1538 -0.0259
  403MOL0     C55532   7.192   3.690  10.398  0.3870 -0.4669 -0.0713
  403MOL0     C55533   7.059   3.663  10.366 -0.1055 -0.1938  0.2433
  403MOL0     C55534   6.951   3.713  10.445  0.2382  0.2257  0.4554
  403MOL0     O55535   6.816   3.691  10.427 -0.4624 -0.9138 -0.5399
  403MOL0     C55536   6.757   3.616  10.318 -0.0493  0.5574 -0.0142
  403MOL0     C55537   6.610   3.645  10.307 -0.4624  0.2661 -0.8236
  403MOL0     C55538   6.530   3.596  10.435 -0.3295 -0.0497  0.1333
  403MOL0     C55539   6.386   3.651  10.423  0.5429  0.0839  1.0954
  403MOL0     C55540   6.309   3.585  10.316 -0.9645  0.2306  0.8216
  403MOL0     C55541   6.239   3.524  10.231  0.0960 -0.2115 -0.4759
  403MOL0     C55542   6.983   3.796  10.549  0.3120  0.2981  0.6504
  403MOL0     C55543   7.113   3.816  10.587  0.3202  0.0715  0.4166
  403MOL0     C55544   7.116   3.895  10.719 -1.2325  0.5285 -0.1884
  403MOL0     H55545   7.572   4.024  10.488 -2.0267 -3.6782 -0.9433
  403MOL0     H55546   7.807   4.047  10.544  4.2583 -2.7436  1.3384
  403MOL0     H55547   8.007   4.105  10.708 -0.6559 -0.2449 -1.8479
  403MOL0     H55548   8.039   3.964  10.614 -1.9601  0.1341 -0.6810
  403MOL0     H55549   8.236   4.049  10.768 -0.0796 -1.8456 -3.7986
  403MOL0     H55550   8.131   3.994  10.902 -1.2585  2.7263 -1.6111
  403MOL0     H55551   8.130   3.773  10.769 -1.4976  1.4718  0.2622
  403MOL0     H55552   8.252   3.836  10.660  0.8266 -0.4396  0.1731
  403MOL0     H55553   8.385   3.912  10.863  0.7802 -0.1348  4.0680
  403MOL0     H55554   8.273   3.821  10.964 -3.0989  1.6314 -1.2983
  403MOL0     H55555   8.473   3.709  10.761  2.2683  2.3200  1.1883
  403MOL0     H55556   8.336   3.606  10.833 -1.2352  1.6889  1.1741
  403MOL0     H55557   8.563   3.749  10.968 -0.0512  0.8896 -2.2227
  403MOL0     H55558   8.427   3.676  11.060  1.6724  0.6013  1.9489
  403MOL0     H55559   8.622   3.532  10.866  1.2333 -2.2376  1.2876
  403MOL0     H55560   8.475   3.458  10.930  0.9768  0.0231 -3.2708
  403MOL0     H55561   8.716   3.545  11.101  1.5992  0.1432 -3.2746
  403MOL0     H55562   8.556   3.497  11.155 -2.1339 -0.2525 -2.7876
  403MOL0     H55563   8.492   3.220  11.054 -0.1863  0.9022  0.4413
  403MOL0     H55564   8.586   2.991  10.874 -3.0592 -1.1261  0.5958
  403MOL0     H55565   8.568   2.972  11.053  1.6350  3.6658  0.4802
  403MOL0     H55566   8.809   2.898  10.873 -2.6023 -0.0883 -0.9320
  403MOL0     H55567   8.807   2.900  11.055 -0.0499 -2.2625  0.9522
  403MOL0     H55568   8.629   2.724  11.018 -1.8377  1.7954 -1.2760
  403MOL0     H55569   8.674   2.711  10.850  1.0511 -2.3665 -0.0001
  403MOL0     H55570   8.879   2.694  11.079  0.4251 -3.5166  0.8230
  403MOL0     H55571   8.801   2.554  10.997 -1.0774  0.2063 -0.2759
  403MOL0     H55572   8.994   2.490  11.079  0.0359  0.3115 -0.9782
  403MOL0     H55573   9.215   2.311  11.176 -0.1586  2.8858 -0.2724
  403MOL0     H55574   9.177   2.199  11.040  1.8627  1.1034  0.3900
  403MOL0     H55575   9.052   2.281  11.140  1.2485  1.2958  4.1031
  403MOL0     H55576   9.455   2.065  10.931  0.8909 -0.1745 -1.2240
  403MOL0     H55577   9.664   1.926  10.883 -2.3962 -1.5735  2.3674
  403MOL0     H55578   9.906   1.824  10.956  1.8619 -1.7405 -1.6520
  403MOL0     H55579   9.838   1.855  10.803 -2.2419  0.0848  1.4788
  403MOL0     H55580  10.146   1.891  10.872 -0.3846 -0.7704 -0.1063
  403MOL0     H55581  10.060   1.759  10.798  0.4789 -0.8621  0.3535
  403MOL0     H55582  10.079   2.046  10.682  0.7525 -0.5421  1.2431
  403MOL0     H55583   9.985   1.913  10.606  2.7314 -4.7791 -2.0200
  403MOL0     H55584  10.201   1.780  10.595 -1.2773 -0.3871 -0.5488
  403MOL0     H55585  10.288   1.925  10.630  0.1328 -1.9424  0.2747
  403MOL0     H55586  10.268   1.882  10.395  0.7455  0.7335  0.8592
  403MOL0     H55587  10.090   1.898  10.393  0.4556  2.3740 -3.0152
  403MOL0     H55588  10.257   2.125  10.487  0.1640 -0.5830  0.6334
  403MOL0     H55589  10.084   2.135  10.439 -0.5708 -0.3467 -0.9808
  403MOL0     H55590  10.166   2.048  10.203 -0.1753  1.7659 -1.5986
  403MOL0     H55591  10.335   2.061  10.265 -0.2596 -1.7813  1.5067
  403MOL0     H55592  10.302   2.261  10.136 -0.9680 -1.1039 -0.8294
  403MOL0     H55593  10.291   2.306  10.308  0.0556 -1.0397  0.4058
  403MOL0     H55594   9.903   2.261  11.001 -0.7847  0.5921  1.2307
  403MOL0     H55595   9.709   2.398  11.041  1.4625 -0.1029  1.6048
  403MOL0     H55596   9.340   2.544  10.731  2.9246 -1.4233  2.1539
  403MOL0     H55597   9.131   2.683  10.707 -1.2178  0.7948  0.9507
  403MOL0     H55598   7.757   3.777  10.876 -0.0622 -0.6967 -1.0160
  403MOL0     H55599   7.505   3.777  10.833  0.1607 -1.2630 -2.0180
  403MOL0     H55600   7.277   3.653  10.341  0.3455 -1.2160  0.3333
  403MOL0     H55601   7.039   3.597  10.282 -2.2858  0.3261  0.2896
  403MOL0     H55602   6.817   3.633  10.228  3.3607 -2.9522  1.3155
  403MOL0     H55603   6.765   3.510  10.342 -0.0685  0.1498 -1.6944
  403MOL0     H55604   6.580   3.589  10.218 -0.1247 -2.4840  0.6947
  403MOL0     H55605   6.592   3.751  10.284 -0.9575  0.8946  2.1188
  403MOL0     H55606   6.541   3.487  10.435  2.3164  0.1241 -1.3255
  403MOL0     H55607   6.577   3.634  10.527  0.0693  1.4413 -0.6731
  403MOL0     H55608   6.392   3.756  10.393  2.3641 -0.7646 -1.8370
  403MOL0     H55609   6.328   3.638  10.515 -0.7336  1.3907  0.5261
  403MOL0     H55610   6.180   3.479  10.153  0.3487  1.8173 -1.9288
  403MOL0     H55611   6.899   3.832  10.607 -0.5507  0.0787 -0.4317
  403MOL0     H55612   7.171   3.844  10.799 -1.6841 -0.0765 -0.2596
  403MOL0     H55613   7.176   3.984  10.697 -0.3564 -0.7459 -3.4995
  403MOL0     H55614   7.020   3.919  10.766 -0.6395  0.7843  0.9219
  404MOL0     O55615   5.093   2.606   2.538 -0.3437  0.1627 -1.1837
  404MOL0     C55616   4.978   2.603   2.572  0.5635 -0.5980 -0.0446
  404MOL0     O55617   4.922   2.666   2.680  0.1700 -0.8982 -0.5453
  404MOL0     C55618   4.985   2.692   2.796  0.7662  0.1030 -0.0642
  404MOL0     C55619   5.082   2.602   2.848  1.1037  0.6779 -0.1832
  404MOL0     C55620   5.142   2.625   2.969  0.8425 -0.2153 -1.4085
  404MOL0     C55621   5.096   2.742   3.041 -0.6914  0.1403  0.4103
  404MOL0     O55622   5.155   2.793   3.155  0.5074 -0.4488  1.2124
  404MOL0     C55623   5.072   2.832   3.272 -0.1981 -0.2360  0.5081
  404MOL0     C55624   5.138   2.956   3.341  0.2438  0.7357  0.2735
  404MOL0     C55625   5.275   2.915   3.385 -0.7022  0.1262  0.1532
  404MOL0     C55626   5.351   3.034   3.442 -0.0210  0.4640 -0.6934
  404MOL0     C55627   5.487   2.995   3.511  0.2020  0.1536  0.2075
  404MOL0     C55628   5.586   3.114   3.529  0.7976  0.3079  0.2068
  404MOL0     C55629   5.728   3.085   3.574 -0.5916 -0.0470 -0.7495
  404MOL0     C55630   5.740   3.082   3.726 -0.2423  0.0565 -0.5015
  404MOL0     N55631   5.874   3.033   3.761 -0.1604  0.4156 -0.4450
  404MOL0     C55632   5.903   2.906   3.811 -0.5982  0.4936 -0.0833
  404MOL0     C55633   6.032   2.902   3.842  0.4752 -0.2290  0.1521
  404MOL0     C55634   6.109   2.784   3.897  0.0710 -0.1068  0.4948
  404MOL0     C55635   6.224   2.741   3.804 -0.4875 -0.4590  0.3521
  404MOL0     C55636   6.301   2.626   3.865  0.1323  0.2684  0.1181
  404MOL0     C55637   6.402   2.583   3.772 -0.1970 -0.1832 -0.1938
  404MOL0     O55638   6.495   2.692   3.761 -0.2706 -1.1847 -0.0534
  404MOL0     C55639   6.591   2.692   3.658 -0.3793  0.0567  0.8202
  404MOL0     C55640   6.705   2.770   3.676  0.1948  0.2180 -0.6383
  404MOL0     C55641   6.818   2.779   3.593  0.7348  0.1142  0.0132
  404MOL0     C55642   6.923   2.880   3.617 -0.0283 -0.2176 -0.5895
  404MOL0     C55643   6.826   2.681   3.483 -0.7505 -0.4884  0.0900
  404MOL0     C55644   6.941   2.662   3.398 -1.1746  0.4465  0.2631
  404MOL0     O55645   6.922   2.565   3.310  0.3949  1.0710 -0.5925
  404MOL0     C55646   7.014   2.504   3.228  0.2478 -0.2853  0.9149
  404MOL0     C55647   7.099   2.571   3.146 -0.7363  0.0895 -0.2772
  404MOL0     C55648   7.207   2.497   3.079 -0.4552 -0.8875 -0.0176
  404MOL0     C55649   7.238   2.367   3.108 -0.4257 -0.1217 -1.0360
  404MOL0     O55650   7.351   2.309   3.047  0.7653 -0.0992  0.0104
  404MOL0     C55651   7.378   2.167   3.071  0.8364  0.4803  0.1259
  404MOL0     C55652   7.481   2.133   2.963 -0.1607 -0.0021  0.7153
  404MOL0     C55653   7.615   2.193   3.004 -0.3875 -0.1728  0.3694
  404MOL0     C55654   7.722   2.143   2.914  0.6967  0.2925  0.0771
  404MOL0     C55655   7.859   2.196   2.944 -0.0750  0.1741 -0.2271
  404MOL0     C55656   7.923   2.143   3.080 -1.2881 -0.0023 -0.3671
  404MOL0     C55657   8.077   2.178   3.085 -0.1795  0.5235 -0.1087
  404MOL0     C55658   8.131   2.118   3.219 -0.0321 -0.0707 -0.1204
  404MOL0    Cl55659   8.069   2.202   3.366  0.2653  0.2542 -0.1226
  404MOL0     C55660   7.145   2.300   3.191  0.0190  0.5615 -0.2172
  404MOL0     C55661   7.031   2.367   3.243 -0.1403 -0.0814  0.3203
  404MOL0     O55662   7.044   2.731   3.406  0.2938 -0.3526  0.0733
  404MOL0     C55663   6.707   2.601   3.464 -0.5598 -0.4884  0.1053
  404MOL0     C55664   6.595   2.601   3.548  0.5198  0.0361  0.5221
  404MOL0     N55665   6.085   3.022   3.809  0.1345 -0.0428 -0.5485
  404MOL0     N55666   5.987   3.101   3.776 -0.4925 -0.4379 -0.1534
  404MOL0     C55667   5.011   2.833   2.981  0.1229 -1.2323  0.3224
  404MOL0     C55668   4.948   2.806   2.863 -0.6486  0.3622  0.4529
  404MOL0     C55669   4.880   2.570   2.469 -0.1232  0.0525 -0.1665
  404MOL0     C55670   4.762   2.648   2.458  0.3876 -0.2527  0.3367
  404MOL0     C55671   4.677   2.624   2.349  0.2018  0.2691 -0.2701
  404MOL0     C55672   4.692   2.518   2.253  0.3059  0.6592  0.2543
  404MOL0     O55673   4.594   2.516   2.158 -0.0883  0.3724 -0.5685
  404MOL0     C55674   4.606   2.462   2.026  0.0448 -0.5227  0.3374
  404MOL0     C55675   4.687   2.564   1.953 -1.4297 -0.7933  0.1870
  404MOL0     C55676   4.707   2.513   1.813  0.0114 -0.4946 -0.1879
  404MOL0     C55677   4.848   2.541   1.758 -0.3475 -1.2061 -1.2995
  404MOL0     C55678   4.950   2.491   1.839 -0.4486 -0.3064  1.0790
  404MOL0     C55679   5.059   2.475   1.897  0.4399  0.0485 -0.4980
  404MOL0     C55680   4.809   2.437   2.273 -0.5418 -0.0088  0.3604
  404MOL0     C55681   4.902   2.468   2.380  1.3399  0.1450  0.3009
  404MOL0     C55682   5.019   2.379   2.385  0.2655 -0.3546  0.0930
  404MOL0     H55683   5.122   2.523   2.785 -0.0522  0.2245 -0.3714
  404MOL0     H55684   5.217   2.558   3.009 -1.4272 -1.9227  0.2548
  404MOL0     H55685   5.069   2.749   3.343  1.0458  0.1026  0.9828
  404MOL0     H55686   4.974   2.856   3.231  0.6365  1.6692 -0.4856
  404MOL0     H55687   5.138   3.046   3.279  1.0384 -1.5553 -3.3800
  404MOL0     H55688   5.079   2.981   3.430  2.2257  3.2908  0.9664
  404MOL0     H55689   5.278   2.838   3.463 -1.8588  2.2498  2.4383
  404MOL0     H55690   5.331   2.876   3.300 -3.9886 -2.4373 -1.0582
  404MOL0     H55691   5.368   3.103   3.359 -1.3872  1.5513 -0.0996
  404MOL0     H55692   5.290   3.079   3.521 -2.1596 -1.3527 -1.2064
  404MOL0     H55693   5.529   2.912   3.454 -0.6231  0.5746 -1.0391
  404MOL0     H55694   5.466   2.958   3.612 -0.8141  1.0681  0.3453
  404MOL0     H55695   5.592   3.169   3.435 -0.0263  0.0431 -0.0045
  404MOL0     H55696   5.542   3.176   3.608 -2.6990 -2.9260  1.1258
  404MOL0     H55697   5.788   3.166   3.532 -4.1557  2.3116 -1.7394
  404MOL0     H55698   5.772   2.994   3.532  2.3433  0.2877  1.2977
  404MOL0     H55699   5.728   3.181   3.770 -0.7944 -1.2100  2.4003
  404MOL0     H55700   5.668   3.021   3.780  0.3662  2.3089  3.2206
  404MOL0     H55701   5.835   2.822   3.823 -2.2976  2.0714  2.2735
  404MOL0     H55702   6.032   2.708   3.913 -0.2651 -0.3638 -1.9872
  404MOL0     H55703   6.129   2.823   3.998 -1.0851 -1.0156  1.1016
  404MOL0     H55704   6.170   2.726   3.710 -1.5602  3.3536  0.2140
  404MOL0     H55705   6.294   2.820   3.774  1.1386 -1.8472  0.2928
  404MOL0     H55706   6.351   2.658   3.957 -1.1151  0.8833  0.6025
  404MOL0     H55707   6.237   2.542   3.891 -2.1616  1.1846 -2.2303
  404MOL0     H55708   6.454   2.497   3.813 -1.5243 -0.6397  0.5771
  404MOL0     H55709   6.363   2.550   3.675  0.7730 -1.3554 -0.2105
  404MOL0     H55710   6.695   2.839   3.759 -2.6226 -1.4279  0.5150
  404MOL0     H55711   7.024   2.838   3.613  0.8638  1.8670 -1.7182
  404MOL0     H55712   6.907   2.936   3.709  2.2084  2.4132 -1.6412
  404MOL0     H55713   6.926   2.960   3.542  4.5647  0.5872  0.1759
  404MOL0     H55714   7.086   2.677   3.129  0.0196 -0.0030 -1.5606
  404MOL0     H55715   7.283   2.557   3.030  0.1783 -0.3664  1.5482
  404MOL0     H55716   7.412   2.147   3.174  2.4659 -1.4491 -0.7078
  404MOL0     H55717   7.286   2.111   3.054  0.4538  0.8349  0.9615
  404MOL0     H55718   7.489   2.024   2.956  1.6305  0.1122  0.6550
  404MOL0     H55719   7.462   2.170   2.862  2.0533 -0.0840  0.2256
  404MOL0     H55720   7.636   2.154   3.104  2.1490 -0.7917 -0.3342
  404MOL0     H55721   7.607   2.302   2.998 -1.1989 -0.1957  0.9071
  404MOL0     H55722   7.700   2.164   2.809  0.0284 -1.6925 -0.2237
  404MOL0     H55723   7.729   2.035   2.925  0.4286  0.3128  0.4580
  404MOL0     H55724   7.923   2.164   2.861  1.2845  0.7721  0.5562
  404MOL0     H55725   7.858   2.306   2.949 -2.2247  0.2134 -0.7097
  404MOL0     H55726   7.902   2.037   3.099  0.1320  0.1232  2.4454
  404MOL0     H55727   7.867   2.207   3.149 -1.5196 -0.4733 -0.1066
  404MOL0     H55728   8.092   2.286   3.090 -1.3624  0.7183 -0.4923
  404MOL0     H55729   8.138   2.139   3.003  3.0724  4.8506 -0.1584
  404MOL0     H55730   8.240   2.120   3.221  0.0939 -2.6997 -0.4258
  404MOL0     H55731   8.103   2.012   3.219 -0.4589  0.0079 -1.7749
  404MOL0     H55732   7.161   2.197   3.221  3.0084  0.9156 -0.2375
  404MOL0     H55733   6.963   2.304   3.300 -0.7031  0.0765 -0.1604
  404MOL0     H55734   6.698   2.530   3.383  3.0400 -1.5174  0.4199
  404MOL0     H55735   6.515   2.528   3.547  1.0373 -0.5357 -0.5620
  404MOL0     H55736   4.983   2.932   3.014 -1.3050 -1.6650  0.4694
  404MOL0     H55737   4.881   2.881   2.821 -1.7705 -0.6373  0.4204
  404MOL0     H55738   4.736   2.740   2.509  1.0889  0.7139 -0.9716
  404MOL0     H55739   4.591   2.690   2.341  1.4873  2.0308 -0.1812
  404MOL0     H55740   4.650   2.362   2.028  1.0194 -0.1372 -0.6644
  404MOL0     H55741   4.513   2.463   1.969 -0.0358 -1.8114  0.4067
  404MOL0     H55742   4.782   2.590   2.002 -0.3283 -1.6106 -1.4039
  404MOL0     H55743   4.638   2.660   1.939  2.2800  1.5189  1.6082
  404MOL0     H55744   4.687   2.407   1.797 -2.1066 -0.3780  1.3161
  404MOL0     H55745   4.635   2.567   1.751 -1.8109 -1.2641  1.1649
  404MOL0     H55746   4.859   2.650   1.751 -2.2744 -0.9740 -1.3160
  404MOL0     H55747   4.866   2.511   1.655 -2.9320 -1.9478 -1.6192
  404MOL0     H55748   5.163   2.472   1.925  0.4892  2.9807  0.0538
  404MOL0     H55749   4.836   2.348   2.218  1.0197  0.7999 -0.2524
  404MOL0     H55750   5.005   2.281   2.338 -1.1143  0.3174 -0.9737
  404MOL0     H55751   5.108   2.433   2.351  0.2535 -0.2859  0.1707
  404MOL0     H55752   5.033   2.368   2.493 -0.1921  1.1139  0.3228
  405MOL0     O55753   2.511   7.524   9.025 -0.0616  0.6882 -0.4451
  405MOL0     C55754   2.435   7.508   9.120  0.3386 -0.2220 -0.4722
  405MOL0     O55755   2.466   7.508   9.249 -0.1451 -0.4198  0.1897
  405MOL0     C55756   2.595   7.507   9.296  0.5638  0.4849 -0.8099
  405MOL0     C55757   2.712   7.465   9.234 -0.6887 -0.1812 -0.0536
  405MOL0     C55758   2.837   7.488   9.290 -0.0419 -0.6254  0.3005
  405MOL0     C55759   2.848   7.543   9.419 -0.3449  0.5253  0.2814
  405MOL0     O55760   2.978   7.556   9.466 -0.3404  0.1485 -0.0643
  405MOL0     C55761   3.011   7.679   9.523  1.0717  0.2823  0.0472
  405MOL0     C55762   3.146   7.676   9.592 -0.3046  0.6942 -0.2552
  405MOL0     C55763   3.264   7.710   9.502  1.1143  0.0621  0.6090
  405MOL0     C55764   3.390   7.738   9.581  0.0343 -0.6514 -0.0108
  405MOL0     C55765   3.494   7.791   9.488 -0.3818  0.2166  0.2204
  405MOL0     C55766   3.641   7.761   9.523 -0.3586 -0.1917 -0.2717
  405MOL0     C55767   3.734   7.800   9.406  0.4815 -0.1064 -0.3372
  405MOL0     C55768   3.777   7.948   9.412 -0.6517  0.2816  0.1642
  405MOL0     N55769   3.868   7.982   9.516 -0.0692 -0.1510  0.0256
  405MOL0     C55770   3.986   7.931   9.544 -1.2411  0.3913  0.4643
  405MOL0     C55771   4.024   7.986   9.661  0.1307  0.2451  0.6181
  405MOL0     C55772   4.151   7.962   9.720 -0.6443  0.2941 -0.4095
  405MOL0     C55773   4.266   8.026   9.632  0.1393 -0.8082 -0.5101
  405MOL0     C55774   4.402   8.040   9.710  0.0339 -0.0887  0.2478
  405MOL0     C55775   4.412   8.186   9.763  0.7848  0.1555  0.6749
  405MOL0     O55776   4.528   8.187   9.849  0.0383  0.6611 -0.8013
  405MOL0     C55777   4.656   8.213   9.813 -0.0718  0.1499  0.3167
  405MOL0     C55778   4.703   8.196   9.681 -0.7310  0.9636 -0.8910
  405MOL0     C55779   4.839   8.209   9.654 -0.1492 -0.3404 -0.5321
  405MOL0     C55780   4.866   8.178   9.505 -0.1051  0.4165  0.0885
  405MOL0     C55781   4.928   8.248   9.757 -0.5527 -0.1273 -0.1137
  405MOL0     C55782   5.073   8.252   9.742  1.2663  0.4827  0.1784
  405MOL0     O55783   5.132   8.266   9.861 -0.7406  0.0731  0.3450
  405MOL0     C55784   5.262   8.312   9.855  0.1949 -0.3244  0.2274
  405MOL0     C55785   5.370   8.224   9.875 -0.3986 -0.0200 -0.0485
  405MOL0     C55786   5.500   8.273   9.874 -0.7368 -0.0053 -0.8498
  405MOL0     C55787   5.527   8.409   9.845 -0.5061  0.0889  1.2339
  405MOL0     O55788   5.649   8.474   9.835 -0.5966  0.5888  0.7508
  405MOL0     C55789   5.752   8.408   9.913  0.2239 -0.0919  1.1634
  405MOL0     C55790   5.867   8.513   9.930 -0.5481 -0.0351 -0.1116
  405MOL0     C55791   5.818   8.639  10.003 -0.0265 -0.1147 -0.0289
  405MOL0     C55792   5.932   8.702  10.079 -0.1428 -0.6487  0.8172
  405MOL0     C55793   6.038   8.755   9.978 -0.4202  0.2979  0.1836
  405MOL0     C55794   6.138   8.828  10.069 -0.2105 -0.2385 -0.3414
  405MOL0     C55795   6.269   8.885  10.004 -0.3561 -0.7595 -0.0349
  405MOL0     C55796   6.357   8.969  10.100  0.0440 -0.0000  0.2789
  405MOL0    Cl55797   6.524   8.966  10.056 -0.1188  0.3835  0.0843
  405MOL0     C55798   5.421   8.488   9.813  0.8146 -0.5024 -0.9265
  405MOL0     C55799   5.292   8.444   9.831 -0.5215  0.2148  0.1868
  405MOL0     O55800   5.126   8.251   9.633  1.0249 -0.7067  0.1497
  405MOL0     C55801   4.881   8.251   9.889 -0.3440  0.2266  0.0045
  405MOL0     C55802   4.744   8.237   9.911  0.8741 -0.1917  0.7911
  405MOL0     N55803   3.914   8.061   9.709 -0.3028  0.2882  0.1412
  405MOL0     N55804   3.821   8.061   9.619 -0.3381  0.7272  0.4382
  405MOL0     C55805   2.733   7.578   9.489  0.3224  0.4745  0.0655
  405MOL0     C55806   2.605   7.562   9.423 -0.9416 -0.0588  0.9981
  405MOL0     C55807   2.286   7.496   9.089  0.1753 -0.1432  1.1325
  405MOL0     C55808   2.259   7.484   8.949 -0.2478 -0.1420  0.0364
  405MOL0     C55809   2.124   7.472   8.902 -0.3725 -0.5913 -1.0978
  405MOL0     C55810   2.013   7.479   8.984  0.0698  0.0509 -0.3793
  405MOL0     O55811   1.885   7.478   8.923  0.2798  0.2663  0.3226
  405MOL0     C55812   1.766   7.521   8.996 -0.5169 -0.6959 -0.6794
  405MOL0     C55813   1.760   7.674   9.001 -0.8021  0.6602  0.0985
  405MOL0     C55814   1.789   7.745   8.875  0.5869 -0.1019 -0.4740
  405MOL0     C55815   1.706   7.733   8.746 -0.4109  0.6870 -0.6457
  405MOL0     C55816   1.733   7.608   8.671  0.1341 -0.8598  0.5248
  405MOL0     C55817   1.767   7.513   8.599  0.3803 -0.5944  0.4121
  405MOL0     C55818   2.044   7.493   9.122  0.8730 -0.6718  0.4964
  405MOL0     C55819   2.173   7.500   9.180  0.5248 -0.1972  0.0427
  405MOL0     C55820   2.179   7.508   9.338 -0.9498  0.1310 -0.2103
  405MOL0     H55821   2.721   7.421   9.135 -1.2586  2.9975 -1.6432
  405MOL0     H55822   2.928   7.452   9.243 -1.1309 -1.0300 -1.6095
  405MOL0     H55823   2.936   7.700   9.600 -0.7138  0.3724 -1.6644
  405MOL0     H55824   3.005   7.755   9.445 -1.1978  0.0726 -0.0344
  405MOL0     H55825   3.151   7.743   9.678  2.0003  1.6675 -1.0645
  405MOL0     H55826   3.167   7.577   9.635 -4.7781 -0.2417  0.2750
  405MOL0     H55827   3.277   7.630   9.428  1.3257  0.2744  0.4142
  405MOL0     H55828   3.246   7.804   9.449  0.4340 -0.0082  0.6978
  405MOL0     H55829   3.382   7.817   9.657  0.3681 -1.8225  1.2881
  405MOL0     H55830   3.422   7.646   9.631  1.9996 -0.5916 -1.0590
  405MOL0     H55831   3.483   7.899   9.474 -1.9827 -0.2657 -3.5632
  405MOL0     H55832   3.476   7.743   9.391 -1.4154 -0.9128  0.9471
  405MOL0     H55833   3.664   7.799   9.623  0.1091 -0.4188 -0.2923
  405MOL0     H55834   3.659   7.653   9.529  0.2476 -0.0242  1.1467
  405MOL0     H55835   3.707   7.759   9.308  1.1847 -1.8301  0.1400
  405MOL0     H55836   3.821   7.735   9.416 -2.0597 -3.6108  1.2957
  405MOL0     H55837   3.827   7.979   9.320  0.1952  2.7106  1.3490
  405MOL0     H55838   3.684   8.003   9.427 -1.1775 -1.4737  4.9099
  405MOL0     H55839   4.043   7.862   9.483  0.9077 -0.1129  2.8587
  405MOL0     H55840   4.173   7.857   9.738  1.0879  0.8255  0.8661
  405MOL0     H55841   4.139   8.013   9.817  0.9176 -3.5694  2.0535
  405MOL0     H55842   4.286   7.973   9.539 -2.0677 -0.2723 -1.3354
  405MOL0     H55843   4.232   8.127   9.608  0.3771  0.4271  3.4792
  405MOL0     H55844   4.415   7.969   9.792  2.2023  2.1601  2.0068
  405MOL0     H55845   4.477   8.015   9.634 -0.4143 -0.0291 -0.2198
  405MOL0     H55846   4.413   8.264   9.686 -1.0052  2.2731  2.6579
  405MOL0     H55847   4.323   8.209   9.822  1.3113 -3.1017  2.9718
  405MOL0     H55848   4.637   8.157   9.604 -0.5915 -2.3901  0.5060
  405MOL0     H55849   4.850   8.272   9.451 -1.7426 -0.2572 -0.6853
  405MOL0     H55850   4.788   8.111   9.468  0.3848 -0.3104  0.3493
  405MOL0     H55851   4.965   8.141   9.476  0.5851 -0.4587  3.1983
  405MOL0     H55852   5.361   8.117   9.892  1.2789 -0.4549 -1.5249
  405MOL0     H55853   5.585   8.210   9.896 -0.2403  1.0672  0.3705
  405MOL0     H55854   5.722   8.382  10.015 -0.9911 -0.3940  0.7440
  405MOL0     H55855   5.780   8.323   9.850  0.6860 -0.5536  1.9778
  405MOL0     H55856   5.942   8.459   9.989 -1.2374  1.2046  1.9981
  405MOL0     H55857   5.917   8.528   9.834 -0.1314 -1.9898 -0.2618
  405MOL0     H55858   5.741   8.617  10.078  0.7572  1.4071  1.2886
  405MOL0     H55859   5.782   8.717   9.936  1.7058 -0.8739 -1.9423
  405MOL0     H55860   5.977   8.630  10.148  1.5661 -1.6207 -1.1669
  405MOL0     H55861   5.891   8.789  10.130  1.5939 -0.4831  2.0378
  405MOL0     H55862   6.092   8.681   9.918  0.3339  0.2612  0.8858
  405MOL0     H55863   5.991   8.822   9.905  0.1298 -1.2828 -1.7095
  405MOL0     H55864   6.164   8.755  10.147 -0.1187  0.7179  0.5451
  405MOL0     H55865   6.081   8.912  10.111 -0.3454 -0.3338 -0.3296
  405MOL0     H55866   6.260   8.936   9.908  1.3421  0.0386  0.1866
  405MOL0     H55867   6.330   8.798   9.979  2.3790  1.0742 -0.1603
  405MOL0     H55868   6.344   8.934  10.203  0.1878 -0.2097  0.2250
  405MOL0     H55869   6.322   9.073  10.091  1.6653  0.6333  0.9156
  405MOL0     H55870   5.436   8.595   9.800  1.7159 -0.5879 -0.6321
  405MOL0     H55871   5.208   8.511   9.818 -0.3818  0.3159 -0.1843
  405MOL0     H55872   4.943   8.264   9.977 -1.1209  0.7152  0.4884
  405MOL0     H55873   4.716   8.232  10.016 -1.1786 -4.5012  0.2753
  405MOL0     H55874   2.741   7.625   9.586 -3.4415 -0.9460  1.2783
  405MOL0     H55875   2.518   7.605   9.472 -0.5414  2.1315 -0.0985
  405MOL0     H55876   2.339   7.499   8.877  1.6880  1.8720  2.4044
  405MOL0     H55877   2.114   7.468   8.794  3.0554  0.6814 -1.5654
  405MOL0     H55878   1.681   7.481   8.940 -0.9530 -1.8262  0.7139
  405MOL0     H55879   1.755   7.472   9.094 -3.4463  0.6743 -0.2107
  405MOL0     H55880   1.832   7.710   9.074 -1.4728  1.3105  0.4442
  405MOL0     H55881   1.667   7.704   9.050 -1.2342 -0.0854 -0.2374
  405MOL0     H55882   1.783   7.848   8.909  0.1748 -1.1004  2.7818
  405MOL0     H55883   1.893   7.726   8.845  0.2354  0.2320 -2.0075
  405MOL0     H55884   1.733   7.815   8.678  0.5156 -0.3605 -1.5690
  405MOL0     H55885   1.598   7.735   8.758 -0.3226 -2.2690  1.9447
  405MOL0     H55886   1.800   7.440   8.529  0.7110 -4.7167  4.4140
  405MOL0     H55887   1.959   7.497   9.189  0.1636 -2.0568 -0.2762
  405MOL0     H55888   2.077   7.511   9.375 -0.7161  0.7940  0.4168
  405MOL0     H55889   2.225   7.418   9.381 -0.7635  0.2051 -0.2515
  405MOL0     H55890   2.231   7.599   9.371 -1.9225  1.1475 -1.3915
  406MOL0     O55891   5.191   9.664   1.873 -0.4295  0.2815  0.0493
  406MOL0     C55892   5.112   9.660   1.776  0.0872 -0.7377 -0.9395
  406MOL0     O55893   5.093   9.760   1.688  0.2143  0.6234  0.7019
  406MOL0     C55894   5.198   9.846   1.643  0.1206 -0.3795 -0.0989
  406MOL0     C55895   5.167   9.974   1.590 -0.3116 -0.2665  0.6712
  406MOL0     C55896   5.268  10.056   1.540 -1.0237 -0.2595 -0.0535
  406MOL0     C55897   5.402  10.022   1.564 -0.3603  0.5514  0.9985
  406MOL0     O55898   5.507  10.105   1.522  0.1002  0.3532 -0.4655
  406MOL0     C55899   5.481  10.224   1.443 -0.4233  0.0509  0.1720
  406MOL0     C55900   5.617  10.294   1.413 -0.2149 -0.4191  0.1774
  406MOL0     C55901   5.659  10.393   1.529  0.2653  0.5417 -0.5693
  406MOL0     C55902   5.796  10.449   1.512 -0.4589  0.2137  0.3627
  406MOL0     C55903   5.829  10.557   1.614 -0.2274  0.3370  0.4275
  406MOL0     C55904   5.830  10.509   1.757  0.3509  0.1223 -0.3079
  406MOL0     C55905   5.912  10.378   1.779 -0.5080  0.1028 -0.0587
  406MOL0     C55906   6.053  10.381   1.730 -0.3594 -0.4858  0.0830
  406MOL0     N55907   6.125  10.494   1.788 -0.1734  0.3258  0.8644
  406MOL0     C55908   6.135  10.527   1.920  0.5175 -0.2140  0.4515
  406MOL0     C55909   6.224  10.623   1.927 -0.4164  0.5728 -0.8696
  406MOL0     C55910   6.259  10.687   2.056  0.1977 -0.5136  0.2921
  406MOL0     C55911   6.416  10.694   2.068  0.3638 -0.0898 -0.2935
  406MOL0     C55912   6.438  10.786   2.192 -0.3201 -0.0409 -0.3144
  406MOL0     C55913   6.580  10.809   2.234 -0.4126 -0.4563  0.2950
  406MOL0     O55914   6.665  10.848   2.127  0.2611  0.5112  0.1766
  406MOL0     C55915   6.797  10.820   2.140 -0.2807 -0.2022  0.3482
  406MOL0     C55916   6.866  10.855   2.260 -0.5146  0.1046  0.4442
  406MOL0     C55917   7.001  10.822   2.271  0.6737 -0.4059 -0.1870
  406MOL0     C55918   7.073  10.864   2.398 -0.2169 -0.0764  0.5095
  406MOL0     C55919   7.063  10.740   2.170 -0.6568  0.3991 -0.6390
  406MOL0     C55920   7.195  10.677   2.180  0.1785  0.5030 -0.6206
  406MOL0     O55921   7.213  10.578   2.088  0.2240 -0.1117  0.7422
  406MOL0     C55922   7.324  10.497   2.077  0.6233  0.5288  1.1667
  406MOL0     C55923   7.300  10.389   1.993 -0.2503  0.5496 -0.1568
  406MOL0     C55924   7.408  10.307   1.961  0.4178  0.0536  0.0659
  406MOL0     C55925   7.535  10.331   2.005 -0.4935 -0.5101 -0.3263
  406MOL0     O55926   7.631  10.244   1.960 -0.5320  0.1564 -0.4233
  406MOL0     C55927   7.764  10.238   2.020 -0.7462 -0.7666 -1.2070
  406MOL0     C55928   7.868  10.355   1.990  0.1259  0.6271  0.5374
  406MOL0     C55929   7.907  10.347   1.846 -0.2344 -0.3350 -0.5356
  406MOL0     C55930   8.031  10.435   1.824 -0.0776 -0.3179  0.0666
  406MOL0     C55931   8.101  10.390   1.697  0.1533 -0.0901  0.2541
  406MOL0     C55932   8.243  10.440   1.695  0.4047 -0.6965  0.5727
  406MOL0     C55933   8.306  10.410   1.553  0.1480  1.0404 -0.4490
  406MOL0     C55934   8.446  10.460   1.555  0.6174 -0.3208  0.4677
  406MOL0    Cl55935   8.566  10.379   1.656  0.1918  0.2022  0.3404
  406MOL0     C55936   7.562  10.434   2.097  0.3573  0.1734  0.4959
  406MOL0     C55937   7.447  10.511   2.145 -1.0707  0.0848 -0.1716
  406MOL0     O55938   7.268  10.705   2.278 -0.1006 -0.3310  0.2941
  406MOL0     C55939   6.982  10.698   2.057 -0.7186 -0.1232  0.5085
  406MOL0     C55940   6.855  10.747   2.038 -0.3680  0.5778  0.5192
  406MOL0     N55941   6.279  10.653   1.806  0.3033  0.7488  0.8125
  406MOL0     N55942   6.216  10.576   1.725 -0.3862 -0.7925 -0.2641
  406MOL0     C55943   5.433   9.897   1.618 -0.7412 -0.1016  0.0872
  406MOL0     C55944   5.335   9.811   1.653 -0.8640 -0.4254 -0.5020
  406MOL0     C55945   5.009   9.551   1.765 -0.5745  0.4889 -0.1143
  406MOL0     C55946   5.048   9.423   1.807 -0.1966  0.8475  0.5798
  406MOL0     C55947   4.956   9.314   1.793 -0.9858 -0.1678 -0.1837
  406MOL0     C55948   4.829   9.335   1.741  0.7386 -0.2676  0.1672
  406MOL0     O55949   4.756   9.222   1.750 -0.3310 -0.9267 -0.6853
  406MOL0     C55950   4.622   9.213   1.684 -0.5144 -0.4925 -0.2050
  406MOL0     C55951   4.634   9.169   1.538  0.1937 -0.4829 -0.8001
  406MOL0     C55952   4.694   9.036   1.517  0.7765 -0.3667 -0.7208
  406MOL0     C55953   4.597   8.927   1.551  0.6215  0.6689 -0.5829
  406MOL0     C55954   4.663   8.801   1.526  0.6873  1.4792  0.6646
  406MOL0     C55955   4.725   8.695   1.513 -0.0200 -0.9312  0.5102
  406MOL0     C55956   4.793   9.463   1.694 -0.5105 -0.4890 -0.3773
  406MOL0     C55957   4.881   9.569   1.701  0.6667  0.0784 -0.3019
  406MOL0     C55958   4.834   9.695   1.632  0.9150  0.6336  0.3940
  406MOL0     H55959   5.063  10.002   1.580 -0.3061 -0.5845 -0.2957
  406MOL0     H55960   5.249  10.142   1.477  1.9122 -1.1364 -2.3458
  406MOL0     H55961   5.411  10.290   1.496 -0.8168 -0.0523 -0.2177
  406MOL0     H55962   5.430  10.193   1.352  0.4791 -2.0194  0.3015
  406MOL0     H55963   5.693  10.217   1.398  0.2520 -0.2658  1.5978
  406MOL0     H55964   5.613  10.350   1.320 -0.4890  0.6125  0.7956
  406MOL0     H55965   5.589  10.476   1.534 -2.4209 -1.6141 -0.2853
  406MOL0     H55966   5.638  10.345   1.625 -2.7231  2.0517 -0.3537
  406MOL0     H55967   5.868  10.367   1.507 -1.5877 -0.7532 -1.9914
  406MOL0     H55968   5.806  10.490   1.411  2.1702 -1.5537 -0.2076
  406MOL0     H55969   5.758  10.639   1.602  0.1014  0.8708  1.9638
  406MOL0     H55970   5.926  10.601   1.585 -0.8558  0.3649 -1.8142
  406MOL0     H55971   5.858  10.587   1.828 -3.5107  0.5340  1.0302
  406MOL0     H55972   5.729  10.480   1.789  0.2636  0.0880 -0.6044
  406MOL0     H55973   5.854  10.292   1.743  0.2086  0.1012 -1.2678
  406MOL0     H55974   5.921  10.369   1.887 -0.4930 -0.3271 -0.0935
  406MOL0     H55975   6.109  10.292   1.761  1.5324  1.4254  2.4895
  406MOL0     H55976   6.052  10.391   1.621  0.9571  1.8843  0.2500
  406MOL0     H55977   6.074  10.486   2.000  1.3595  1.0445  1.7933
  406MOL0     H55978   6.218  10.626   2.137  0.1544  1.2027  1.6264
  406MOL0     H55979   6.211  10.785   2.048  0.5505 -0.4024 -0.6298
  406MOL0     H55980   6.451  10.595   2.098 -1.3515  0.3355  3.8410
  406MOL0     H55981   6.456  10.737   1.975  1.3562  1.3707  0.7616
  406MOL0     H55982   6.412  10.890   2.168  0.3631  1.0700  3.1714
  406MOL0     H55983   6.378  10.756   2.278  0.7397 -0.8845  0.1641
  406MOL0     H55984   6.579  10.883   2.315  1.5237  0.5853 -0.5703
  406MOL0     H55985   6.619  10.718   2.279  0.3660  0.2706  1.1509
  406MOL0     H55986   6.823  10.913   2.341 -3.3807 -0.0132 -0.8932
  406MOL0     H55987   7.153  10.931   2.363 -1.6104  1.7976  0.7426
  406MOL0     H55988   7.112  10.783   2.460  0.1179 -1.1186 -1.0195
  406MOL0     H55989   7.010  10.925   2.464  0.0130 -0.9366  1.5337
  406MOL0     H55990   7.207  10.367   1.942 -0.8169  1.0801  0.6284
  406MOL0     H55991   7.389  10.221   1.898  1.2117 -1.2224  1.5084
  406MOL0     H55992   7.744  10.253   2.127 -4.4782 -3.0020 -1.4281
  406MOL0     H55993   7.813  10.142   2.002  1.1513  0.1062 -0.9234
  406MOL0     H55994   7.816  10.450   2.003 -0.3022  0.6531 -1.1127
  406MOL0     H55995   7.954  10.344   2.056 -0.2517  2.0998  1.3028
  406MOL0     H55996   7.818  10.373   1.788 -0.6447 -1.9384 -0.6878
  406MOL0     H55997   7.935  10.244   1.820 -0.5840 -0.2330 -1.3574
  406MOL0     H55998   8.104  10.423   1.905  3.3219 -0.1423 -2.7240
  406MOL0     H55999   7.999  10.540   1.829  0.9131 -0.0223  0.6873
  406MOL0     H56000   8.108  10.281   1.689 -0.1783 -0.0426 -1.0194
  406MOL0     H56001   8.050  10.429   1.608  1.9882  3.3624  0.5333
  406MOL0     H56002   8.304  10.393   1.773  1.5105 -1.5846 -0.7828
  406MOL0     H56003   8.252  10.548   1.706  0.7414 -0.9116  2.7283
  406MOL0     H56004   8.244  10.455   1.475  2.5659  0.4432 -2.8944
  406MOL0     H56005   8.312  10.302   1.536  1.0793  0.9765  0.2058
  406MOL0     H56006   8.434  10.566   1.579 -2.8018 -0.1238 -1.4010
  406MOL0     H56007   8.484  10.449   1.453  0.2819 -0.4603  0.3553
  406MOL0     H56008   7.663  10.460   2.126  0.3777  0.9502 -0.2180
  406MOL0     H56009   7.464  10.589   2.218  1.2997 -1.8295  1.4806
  406MOL0     H56010   7.033  10.642   1.980 -1.1529 -0.4902  0.4868
  406MOL0     H56011   6.804  10.717   1.947  0.5469  0.6625 -0.0351
  406MOL0     H56012   5.535   9.862   1.632 -0.7206 -0.2738 -0.4836
  406MOL0     H56013   5.351   9.710   1.689  0.9198  0.5978  1.8259
  406MOL0     H56014   5.142   9.403   1.857 -0.9836 -0.7215  1.5008
  406MOL0     H56015   4.985   9.216   1.829  0.7633 -0.4610 -2.2323
  406MOL0     H56016   4.580   9.127   1.738  2.4253 -2.2233 -0.4428
  406MOL0     H56017   4.562   9.302   1.702 -0.1703  0.3096 -2.6510
  406MOL0     H56018   4.703   9.246   1.502 -0.9323  2.2808  2.4177
  406MOL0     H56019   4.539   9.194   1.488  0.2900 -0.2700 -0.8798
  406MOL0     H56020   4.716   9.024   1.410 -2.1454 -1.5019 -1.2927
  406MOL0     H56021   4.785   9.028   1.575  0.3196  1.0486  0.2547
  406MOL0     H56022   4.503   8.927   1.496  0.9196 -0.0501 -1.1057
  406MOL0     H56023   4.562   8.943   1.654  1.4769 -1.5193  0.1122
  406MOL0     H56024   4.778   8.603   1.524  0.6875 -0.6229 -0.2501
  406MOL0     H56025   4.693   9.473   1.653 -0.9612 -0.5585  0.6735
  406MOL0     H56026   4.730   9.682   1.598  1.2812 -1.3659 -0.1265
  406MOL0     H56027   4.832   9.777   1.704 -2.0516  3.3909 -2.4955
  406MOL0     H56028   4.890   9.729   1.545  0.4373  1.3052  0.3411
  407MOL0     O56029   6.243   9.086   0.774  0.1645 -0.2783  0.5311
  407MOL0     C56030   6.176   9.140   0.687  0.0246  0.3024 -0.3597
  407MOL0     O56031   6.223   9.203   0.576 -0.1622  0.3348 -0.4114
  407MOL0     C56032   6.358   9.239   0.567 -0.4196 -0.0126 -0.3268
  407MOL0     C56033   6.430   9.335   0.648  0.2773  0.3816  0.2044
  407MOL0     C56034   6.556   9.375   0.613 -0.5311  0.5114  0.0717
  407MOL0     C56035   6.620   9.314   0.503  0.6030  0.2206  0.0190
  407MOL0     O56036   6.748   9.357   0.469  0.4498  0.7597 -0.0276
  407MOL0     C56037   6.806   9.326   0.337  0.0878  1.1672 -0.1495
  407MOL0     C56038   6.937   9.411   0.318 -0.3219 -0.4840 -0.1885
  407MOL0     C56039   6.999   9.398   0.181  0.6009 -0.5935 -0.0619
  407MOL0     C56040   7.073   9.268   0.159 -0.4624  0.7433  0.2313
  407MOL0     C56041   7.229   9.290   0.141 -0.2819 -0.0473 -0.0220
  407MOL0     C56042   7.307   9.163   0.118  0.0224 -0.2455 -0.3017
  407MOL0     C56043   7.360   9.117   0.260 -0.1910 -0.0858  0.6565
  407MOL0     C56044   7.404   8.975   0.237  0.5219 -0.0280 -0.4767
  407MOL0     N56045   7.457   8.904   0.357 -0.7448 -0.2551 -0.2446
  407MOL0     C56046   7.573   8.929   0.418  0.4549 -0.0711  0.0181
  407MOL0     C56047   7.577   8.849   0.522  0.4515  0.4584  0.4451
  407MOL0     C56048   7.677   8.829   0.627  0.1395 -0.2116  0.2377
  407MOL0     C56049   7.620   8.850   0.769 -0.1458 -0.0842 -0.4888
  407MOL0     C56050   7.610   9.000   0.803  0.9298 -0.0299  0.5131
  407MOL0     C56051   7.735   9.089   0.807  0.8498  0.6849  0.3754
  407MOL0     O56052   7.847   9.023   0.869 -0.4151 -0.3812 -0.0008
  407MOL0     C56053   7.957   9.103   0.875  0.6109  0.2271 -1.7816
  407MOL0     C56054   7.982   9.234   0.829  0.9948  1.2607 -0.0514
  407MOL0     C56055   8.102   9.296   0.824  0.3741 -0.2542 -0.2850
  407MOL0     C56056   8.100   9.432   0.765 -0.9318  0.2890 -0.1792
  407MOL0     C56057   8.210   9.236   0.886 -0.1787  0.1677  0.4847
  407MOL0     C56058   8.342   9.305   0.897 -0.0358  0.3368 -0.1835
  407MOL0     O56059   8.443   9.219   0.909 -0.1072  0.0763 -0.1741
  407MOL0     C56060   8.569   9.272   0.899  0.4049  0.5029  0.4997
  407MOL0     C56061   8.648   9.231   0.788  0.2239 -0.6930 -0.3445
  407MOL0     C56062   8.781   9.283   0.777 -0.2426 -0.8002  0.0941
  407MOL0     C56063   8.834   9.373   0.870 -0.5294  0.2268 -0.5720
  407MOL0     O56064   8.962   9.433   0.858  0.0286 -0.4112  0.4172
  407MOL0     C56065   9.056   9.377   0.774 -0.6662 -0.6041 -0.5961
  407MOL0     C56066   9.192   9.441   0.805 -0.1533 -0.1250  0.1960
  407MOL0     C56067   9.298   9.373   0.714 -0.1536  0.9168 -0.3867
  407MOL0     C56068   9.429   9.350   0.794 -0.3524 -0.4656 -0.5997
  407MOL0     C56069   9.536   9.259   0.734 -0.4095  0.0077  0.2995
  407MOL0     C56070   9.594   9.314   0.604 -0.7118  0.0992 -0.4251
  407MOL0     C56071   9.741   9.268   0.576 -0.0858  0.3766  0.0034
  407MOL0     C56072   9.789   9.318   0.442 -0.3478  0.1205 -0.2782
  407MOL0    Cl56073   9.740   9.218   0.302 -0.0319  0.2369  0.0583
  407MOL0     C56074   8.757   9.397   0.987  0.6961  0.0729  0.7473
  407MOL0     C56075   8.621   9.349   1.001  0.4313  0.8093 -0.0385
  407MOL0     O56076   8.356   9.430   0.887  0.5281 -0.3805 -0.1357
  407MOL0     C56077   8.179   9.121   0.972  0.2411 -0.7539 -0.1786
  407MOL0     C56078   8.059   9.055   0.960  0.1641  0.6356  0.0770
  407MOL0     N56079   7.461   8.785   0.526  0.0710 -0.0436  0.9111
  407MOL0     N56080   7.388   8.808   0.422 -0.2890 -0.9750  0.1171
  407MOL0     C56081   6.539   9.225   0.423 -0.4741 -0.3312 -0.0993
  407MOL0     C56082   6.416   9.193   0.459 -0.1015 -0.4957 -0.7778
  407MOL0     C56083   6.029   9.111   0.687 -0.1316  0.1787  0.3462
  407MOL0     C56084   5.963   9.094   0.563  0.1789 -0.4042  0.3044
  407MOL0     C56085   5.833   9.049   0.562 -0.1022  0.2429  0.3315
  407MOL0     C56086   5.753   9.035   0.671 -0.1549  0.1654 -0.2114
  407MOL0     O56087   5.621   8.998   0.679 -0.2691  0.1681  0.0360
  407MOL0     C56088   5.541   9.008   0.556 -0.5202  0.4945  0.0114
  407MOL0     C56089   5.404   9.086   0.572 -0.6212  0.0849  0.2110
  407MOL0     C56090   5.322   9.029   0.689 -0.7177 -0.1490 -0.1364
  407MOL0     C56091   5.188   9.116   0.704 -0.8083  0.1123 -0.0013
  407MOL0     C56092   5.070   9.047   0.753 -0.4441  0.2671 -0.4517
  407MOL0     C56093   4.972   8.989   0.793 -0.2390 -0.9400  0.0622
  407MOL0     C56094   5.810   9.061   0.798 -0.5448 -0.2368  0.4517
  407MOL0     C56095   5.950   9.090   0.806 -0.0943 -0.8335 -0.1700
  407MOL0     C56096   6.010   9.099   0.943  0.1138  0.2148 -0.1511
  407MOL0     H56097   6.385   9.371   0.741  2.3142  2.3088  0.5104
  407MOL0     H56098   6.614   9.443   0.675  2.4548 -2.4491  0.8356
  407MOL0     H56099   6.738   9.342   0.253 -0.7229  0.0001  0.2611
  407MOL0     H56100   6.843   9.223   0.335 -0.6870  0.8977 -1.1746
  407MOL0     H56101   6.915   9.517   0.334  0.1551 -0.6549  1.9266
  407MOL0     H56102   7.007   9.383   0.398 -1.7342  0.2414  1.3697
  407MOL0     H56103   6.927   9.414   0.101  2.1223  1.6290 -1.0836
  407MOL0     H56104   7.064   9.484   0.161 -0.0665  0.4408  1.9237
  407MOL0     H56105   7.048   9.197   0.239  1.4036 -0.2368  0.0160
  407MOL0     H56106   7.039   9.213   0.070  0.7093  1.2021 -0.5318
  407MOL0     H56107   7.249   9.323   0.243 -1.8827 -0.2772  0.4011
  407MOL0     H56108   7.259   9.363   0.064  2.7210 -1.5910 -0.4530
  407MOL0     H56109   7.243   9.084   0.079 -0.8976  0.1859  0.3173
  407MOL0     H56110   7.390   9.175   0.047  0.8301  1.5289  0.8681
  407MOL0     H56111   7.282   9.116   0.335 -1.6170 -1.6522 -0.7728
  407MOL0     H56112   7.441   9.185   0.290 -2.0957  2.1408  1.0602
  407MOL0     H56113   7.324   8.911   0.198  1.5192 -1.0644 -0.8638
  407MOL0     H56114   7.473   8.965   0.153 -0.1173  1.1388 -1.1676
  407MOL0     H56115   7.650   8.996   0.380 -0.3701  0.8088 -0.1472
  407MOL0     H56116   7.754   8.906   0.618  0.8180 -0.8298  0.6840
  407MOL0     H56117   7.718   8.729   0.611 -0.9386 -0.4295 -1.5058
  407MOL0     H56118   7.522   8.803   0.777  0.5409 -1.5449 -0.2260
  407MOL0     H56119   7.681   8.793   0.841  0.8278  0.2374 -1.0389
  407MOL0     H56120   7.528   9.041   0.743 -0.1381  1.3784  2.7885
  407MOL0     H56121   7.575   9.002   0.907  2.1821 -1.2218  0.9883
  407MOL0     H56122   7.758   9.116   0.703 -0.4386 -0.5219 -0.2630
  407MOL0     H56123   7.710   9.187   0.849  1.4474  0.5455  1.0725
  407MOL0     H56124   7.893   9.280   0.787  0.0615 -0.2799  0.1662
  407MOL0     H56125   8.004   9.455   0.717 -1.2979 -0.0227  0.3794
  407MOL0     H56126   8.186   9.435   0.698 -0.7003  2.0269  0.1501
  407MOL0     H56127   8.110   9.510   0.841 -0.2352 -0.0632  0.0938
  407MOL0     H56128   8.592   9.172   0.717  0.6346  0.8437 -2.0180
  407MOL0     H56129   8.826   9.260   0.681 -2.2237  0.8631 -1.3237
  407MOL0     H56130   9.060   9.268   0.784 -0.5928 -0.6515 -1.1189
  407MOL0     H56131   9.017   9.396   0.673 -1.4297 -0.8097 -0.3482
  407MOL0     H56132   9.190   9.549   0.790 -2.3109 -0.1183  0.2213
  407MOL0     H56133   9.211   9.427   0.912  1.0071  0.6546  0.1022
  407MOL0     H56134   9.323   9.434   0.627 -1.0994  1.2666 -0.4308
  407MOL0     H56135   9.255   9.280   0.675 -0.2942  0.9220 -0.2475
  407MOL0     H56136   9.410   9.315   0.896 -0.7202  1.4771  0.0319
  407MOL0     H56137   9.472   9.450   0.804  0.6427 -0.7783 -1.5680
  407MOL0     H56138   9.620   9.247   0.803 -0.6748 -1.1470  0.4388
  407MOL0     H56139   9.493   9.161   0.711  0.9329 -0.3742 -0.7097
  407MOL0     H56140   9.591   9.423   0.616 -1.0129 -0.1165  2.0174
  407MOL0     H56141   9.532   9.286   0.519 -0.3279  0.2106 -0.7481
  407MOL0     H56142   9.744   9.158   0.576  2.4788  0.3880 -0.7602
  407MOL0     H56143   9.794   9.310   0.661 -0.6305  1.7043 -0.2890
  407MOL0     H56144   9.898   9.322   0.450 -0.3478 -0.0993 -0.1748
  407MOL0     H56145   9.749   9.420   0.437  0.6725  0.6690  1.7157
  407MOL0     H56146   8.793   9.454   1.072  1.8527 -1.8494  1.6138
  407MOL0     H56147   8.568   9.360   1.095  1.6935 -1.5049  1.0087
  407MOL0     H56148   8.253   9.061   1.023 -1.2822 -3.4564 -0.9384
  407MOL0     H56149   8.052   8.962   1.016  2.6069  1.9957  2.9439
  407MOL0     H56150   6.582   9.179   0.335  0.8275 -0.3841  0.5469
  407MOL0     H56151   6.352   9.132   0.396 -1.5310 -0.0517  0.2103
  407MOL0     H56152   6.007   9.113   0.466 -1.7064 -0.1592 -0.5580
  407MOL0     H56153   5.803   9.024   0.460  1.3879 -0.6005  0.0636
  407MOL0     H56154   5.591   9.069   0.480  2.3129 -0.0511  1.3085
  407MOL0     H56155   5.516   8.909   0.517 -2.3109  1.4115 -1.3154
  407MOL0     H56156   5.347   9.090   0.478 -1.3395  0.0075  0.6389
  407MOL0     H56157   5.439   9.186   0.596 -2.2431  0.8397 -0.4188
  407MOL0     H56158   5.299   8.922   0.676  0.7233 -0.5808  0.7131
  407MOL0     H56159   5.385   9.047   0.776  1.4272  1.7245 -1.9532
  407MOL0     H56160   5.168   9.152   0.602  2.3171 -0.8147 -1.0439
  407MOL0     H56161   5.219   9.198   0.770 -1.4719  1.4278 -1.2517
  407MOL0     H56162   4.881   8.947   0.828 -0.7941  0.5709  0.5272
  407MOL0     H56163   5.755   9.055   0.892  1.0250 -1.4541  1.3342
  407MOL0     H56164   5.943   9.055   1.018 -0.2286 -0.9043 -1.0832
  407MOL0     H56165   6.105   9.047   0.957 -1.6745 -2.7623  2.3353
  407MOL0     H56166   6.025   9.203   0.975 -0.4079  0.2617 -0.0448
  408MOL0     O56167   5.831   9.502   4.389  0.2245 -0.5493  0.0504
  408MOL0     C56168   5.789   9.435   4.293 -0.1522 -0.0724  0.2834
  408MOL0     O56169   5.858   9.396   4.182  0.2150  0.5149  0.4590
  408MOL0     C56170   5.982   9.447   4.170  0.3210 -0.1781  0.0785
  408MOL0     C56171   6.004   9.549   4.074  0.4104 -0.1944  0.3725
  408MOL0     C56172   6.127   9.603   4.050 -0.4097  0.9534 -0.1792
  408MOL0     C56173   6.230   9.577   4.137  0.0311  0.1137 -0.1899
  408MOL0     O56174   6.346   9.651   4.110 -0.1696 -0.1003  0.4896
  408MOL0     C56175   6.473   9.596   4.136 -0.1728  0.4156 -0.8368
  408MOL0     C56176   6.568   9.625   4.023  0.4547 -1.1333 -0.4326
  408MOL0     C56177   6.699   9.562   4.072  0.0984  0.4710 -0.7698
  408MOL0     C56178   6.824   9.615   3.993  0.6210  0.4456  0.8023
  408MOL0     C56179   6.956   9.555   4.030 -0.5374  0.4220  0.2738
  408MOL0     C56180   6.950   9.403   4.057 -0.5708 -0.3584 -0.7526
  408MOL0     C56181   7.078   9.337   4.041  0.6431  0.2368 -0.9424
  408MOL0     C56182   7.176   9.377   4.155 -0.1055 -0.0873 -0.1616
  408MOL0     N56183   7.300   9.309   4.122  0.4412 -0.5373 -0.0269
  408MOL0     C56184   7.403   9.359   4.041 -0.0260 -0.3483 -0.2346
  408MOL0     C56185   7.510   9.278   4.060 -0.7199 -0.2431  0.2312
  408MOL0     C56186   7.636   9.293   3.983 -0.5068  0.1683 -0.1001
  408MOL0     C56187   7.621   9.241   3.836  0.0060 -0.5968  0.0808
  408MOL0     C56188   7.574   9.091   3.836  0.0356  1.2595 -0.5362
  408MOL0     C56189   7.562   9.019   3.699  0.2458 -0.2334  0.8324
  408MOL0     O56190   7.700   9.005   3.650  0.6853  0.1185  0.1591
  408MOL0     C56191   7.760   8.880   3.651  0.1406 -0.2546 -0.2705
  408MOL0     C56192   7.716   8.760   3.703 -0.4573  0.4185 -0.3659
  408MOL0     C56193   7.776   8.633   3.680  0.3028 -0.1602 -0.9357
  408MOL0     C56194   7.717   8.515   3.757  0.5158 -0.5767  0.5559
  408MOL0     C56195   7.894   8.624   3.606  0.1457  0.3617  0.4668
  408MOL0     C56196   7.966   8.505   3.580  0.5252  1.3488 -0.4284
  408MOL0     O56197   8.104   8.497   3.576 -0.2452 -0.7779 -0.0717
  408MOL0     C56198   8.188   8.570   3.656 -0.3802  0.4416  0.2038
  408MOL0     C56199   8.151   8.614   3.784  0.4856  1.3157 -0.7763
  408MOL0     C56200   8.239   8.691   3.856 -0.2272 -0.6591 -0.7734
  408MOL0     C56201   8.361   8.738   3.800  0.8611  0.2587 -0.0857
  408MOL0     O56202   8.457   8.811   3.870 -0.0432 -0.2845  0.4095
  408MOL0     C56203   8.425   8.871   3.994 -0.6265 -0.1324  0.0406
  408MOL0     C56204   8.543   8.959   4.056  0.0722 -0.0517  1.2939
  408MOL0     C56205   8.672   8.876   4.085  0.1818  0.3382  0.2851
  408MOL0     C56206   8.769   8.845   3.965  0.4448  0.3232  0.4382
  408MOL0     C56207   8.905   8.781   4.005  0.9208 -0.5480  0.3773
  408MOL0     C56208   8.962   8.849   4.126  1.0102  0.4498  0.1766
  408MOL0     C56209   8.976   9.001   4.094  0.1923  0.2474 -0.5711
  408MOL0     C56210   9.015   9.083   4.214 -0.0205  0.1866 -0.3013
  408MOL0    Cl56211   9.191   9.066   4.218 -0.1351  0.3627  0.1353
  408MOL0     C56212   8.385   8.703   3.668 -0.0177  1.1897 -0.0651
  408MOL0     C56213   8.302   8.616   3.603 -0.8650  0.2860  0.3838
  408MOL0     O56214   7.895   8.403   3.559  0.7927  0.5942 -0.3763
  408MOL0     C56215   7.951   8.744   3.559 -0.2245  0.2753  0.8231
  408MOL0     C56216   7.884   8.873   3.589 -0.9693  0.6955  0.3660
  408MOL0     N56217   7.472   9.177   4.160  0.5792 -0.0546  0.0848
  408MOL0     N56218   7.347   9.205   4.185  0.5550  0.3688 -0.8991
  408MOL0     C56219   6.209   9.479   4.237 -0.0787 -0.1380  0.2242
  408MOL0     C56220   6.086   9.413   4.250 -0.6446 -0.1560 -0.1433
  408MOL0     C56221   5.647   9.383   4.307 -0.0418  0.0526 -0.8293
  408MOL0     C56222   5.613   9.259   4.260 -0.5956  0.5310  0.2820
  408MOL0     C56223   5.479   9.212   4.255 -0.0871  0.0759  0.2062
  408MOL0     C56224   5.375   9.299   4.292  0.1140 -0.2616  0.1524
  408MOL0     O56225   5.239   9.273   4.278 -0.4194  0.1536 -0.4701
  408MOL0     C56226   5.187   9.138   4.257  0.3767  0.1350  0.7023
  408MOL0     C56227   5.036   9.122   4.283 -0.3179  0.2525  0.5003
  408MOL0     C56228   5.016   9.158   4.427 -0.4155  0.6909  0.2978
  408MOL0     C56229   4.879   9.137   4.479 -0.4790  1.1391 -0.0027
  408MOL0     C56230   4.867   9.203   4.607  0.2923 -0.0250  0.0444
  408MOL0     C56231   4.858   9.250   4.717  0.1133 -0.4809  0.1609
  408MOL0     C56232   5.411   9.425   4.340 -0.3603  0.5633 -0.9992
  408MOL0     C56233   5.541   9.467   4.347  0.1480 -0.7468 -0.0735
  408MOL0     C56234   5.569   9.604   4.397  0.3622  0.1476  0.5408
  408MOL0     H56235   5.934   9.575   3.996  0.7013 -1.4910 -0.3587
  408MOL0     H56236   6.132   9.673   3.967 -1.6093  1.1773 -0.0890
  408MOL0     H56237   6.467   9.490   4.163 -1.1729  1.1570  2.4008
  408MOL0     H56238   6.505   9.643   4.230 -0.7104  2.0083 -1.4143
  408MOL0     H56239   6.533   9.567   3.937  2.6417 -1.7552 -0.9655
  408MOL0     H56240   6.576   9.733   4.006 -1.7882 -1.1064 -1.7330
  408MOL0     H56241   6.719   9.576   4.178  0.3297  1.6798 -0.9578
  408MOL0     H56242   6.684   9.455   4.060  0.5007  0.5458 -2.0476
  408MOL0     H56243   6.794   9.603   3.888  0.3711 -0.6935  0.9922
  408MOL0     H56244   6.834   9.723   4.012 -2.6344  0.6411  2.0910
  408MOL0     H56245   6.986   9.600   4.125 -0.8973  2.1582 -0.3842
  408MOL0     H56246   7.041   9.581   3.965  0.3660  0.4555  1.4443
  408MOL0     H56247   6.921   9.395   4.162 -0.2366  1.4214 -0.4824
  408MOL0     H56248   6.879   9.346   3.997  0.6881 -3.0684  0.1863
  408MOL0     H56249   7.134   9.346   3.947  0.2896  3.3897 -0.9370
  408MOL0     H56250   7.071   9.228   4.051 -1.4030  0.5171  1.5354
  408MOL0     H56251   7.198   9.484   4.162  0.2546 -0.1082 -0.8616
  408MOL0     H56252   7.126   9.337   4.244  0.2219 -1.3921 -0.5446
  408MOL0     H56253   7.406   9.438   3.967  0.0808 -0.3284 -0.2097
  408MOL0     H56254   7.717   9.238   4.031 -0.5469  1.3601  1.4411
  408MOL0     H56255   7.675   9.396   3.983  1.2182 -0.4650 -0.3344
  408MOL0     H56256   7.547   9.297   3.779  0.5334 -0.0841 -0.1056
  408MOL0     H56257   7.714   9.249   3.778  0.6387 -1.0990  1.0002
  408MOL0     H56258   7.639   9.035   3.904  0.5654  1.3246 -0.9808
  408MOL0     H56259   7.474   9.083   3.881  1.2823 -0.2334  2.1930
  408MOL0     H56260   7.504   8.926   3.702  0.7398 -0.5583  0.4029
  408MOL0     H56261   7.496   9.080   3.636 -0.2191 -1.3886  0.1541
  408MOL0     H56262   7.625   8.771   3.760  0.3583  1.0350  0.8710
  408MOL0     H56263   7.669   8.440   3.693 -1.0132 -0.1151  1.1261
  408MOL0     H56264   7.642   8.552   3.828  1.0656  0.0892  0.7947
  408MOL0     H56265   7.795   8.459   3.808  1.6182 -1.7904 -2.2382
  408MOL0     H56266   8.056   8.579   3.825  1.0243 -0.7806 -1.2201
  408MOL0     H56267   8.218   8.715   3.960 -2.9840 -0.4214 -1.3149
  408MOL0     H56268   8.348   8.948   3.984  0.6543  1.3568  1.1478
  408MOL0     H56269   8.394   8.790   4.061  1.1873 -0.5509  0.4119
  408MOL0     H56270   8.570   9.031   3.978 -0.0678  0.3929  1.6512
  408MOL0     H56271   8.514   9.007   4.150  1.3596 -2.3778  2.9781
  408MOL0     H56272   8.647   8.777   4.125  3.1726 -1.3632 -1.6162
  408MOL0     H56273   8.717   8.918   4.175 -1.2577  3.0536 -0.1734
  408MOL0     H56274   8.778   8.937   3.908 -0.3252  0.0538 -0.1384
  408MOL0     H56275   8.714   8.776   3.900 -1.6334  1.7563  0.6066
  408MOL0     H56276   8.893   8.680   4.044 -1.1500  0.4030  2.4130
  408MOL0     H56277   8.974   8.776   3.919  0.1022  1.9674 -0.5305
  408MOL0     H56278   9.063   8.811   4.144  0.7378 -0.2674  0.2250
  408MOL0     H56279   8.896   8.818   4.207 -2.5569  0.2083 -2.5443
  408MOL0     H56280   8.877   9.040   4.068 -0.6617 -0.8121  0.9542
  408MOL0     H56281   9.041   9.015   4.007  2.8141  0.5829  1.3318
  408MOL0     H56282   8.965   9.044   4.303 -2.8060  1.2423 -1.2906
  408MOL0     H56283   8.986   9.188   4.205 -1.9498 -0.2436  0.4405
  408MOL0     H56284   8.474   8.737   3.617  1.1306  0.1778  1.1582
  408MOL0     H56285   8.328   8.592   3.501 -0.0977 -1.1408  0.8918
  408MOL0     H56286   8.043   8.753   3.502 -0.5766 -0.7784  0.0531
  408MOL0     H56287   7.932   8.965   3.557  2.3867 -0.9254  0.2147
  408MOL0     H56288   6.288   9.452   4.307  2.5205  0.3791 -2.3127
  408MOL0     H56289   6.061   9.345   4.331 -1.4433 -0.2763 -0.4839
  408MOL0     H56290   5.691   9.191   4.227  1.6939  3.0199  0.2284
  408MOL0     H56291   5.451   9.116   4.213 -0.7418  0.2963  0.1234
  408MOL0     H56292   5.194   9.109   4.152 -3.1799 -0.6138  0.5426
  408MOL0     H56293   5.227   9.060   4.322 -1.3303 -1.7424 -0.3411
  408MOL0     H56294   5.001   9.022   4.255 -3.9748  2.0665 -2.2307
  408MOL0     H56295   4.976   9.184   4.216 -0.0686  0.8108  0.7854
  408MOL0     H56296   5.091   9.102   4.486  1.6741  1.7192 -1.2416
  408MOL0     H56297   5.021   9.266   4.439 -2.6132  0.6603  2.1460
  408MOL0     H56298   4.874   9.029   4.498  1.6150  0.4218 -2.7725
  408MOL0     H56299   4.801   9.161   4.406  0.2955 -0.3374 -1.3771
  408MOL0     H56300   4.848   9.304   4.809 -2.2981  0.6956 -0.7176
  408MOL0     H56301   5.329   9.486   4.376 -0.2085  1.0233 -1.4155
  408MOL0     H56302   5.637   9.612   4.482  0.7658  0.3813  0.2020
  408MOL0     H56303   5.621   9.659   4.318  2.4958 -2.2222  0.1567
  408MOL0     H56304   5.483   9.661   4.432  2.1578  2.9095  0.8223
  409MOL0     O56305   5.925  11.275   7.749  0.0208 -0.3260 -0.1226
  409MOL0     C56306   5.835  11.311   7.672 -0.2275 -0.1721 -0.6444
  409MOL0     O56307   5.845  11.427   7.599 -0.5435 -0.0324 -0.5349
  409MOL0     C56308   5.953  11.513   7.609  0.8270  0.0829 -0.3137
  409MOL0     C56309   6.074  11.480   7.539  0.3075  0.4392 -0.5488
  409MOL0     C56310   6.183  11.565   7.540 -0.6784  1.0757  0.1841
  409MOL0     C56311   6.178  11.676   7.621  0.2809 -1.1199  0.0236
  409MOL0     O56312   6.292  11.759   7.635 -0.1049 -0.1963 -0.4589
  409MOL0     C56313   6.424  11.716   7.595 -0.2375 -0.1913 -0.1943
  409MOL0     C56314   6.518  11.835   7.580 -0.5816 -1.1219 -0.5401
  409MOL0     C56315   6.598  11.884   7.699 -0.4744 -0.0738  0.5652
  409MOL0     C56316   6.691  12.000   7.651 -0.3668 -0.5733 -0.2372
  409MOL0     C56317   6.764  12.064   7.772 -0.8876 -1.2822 -0.5039
  409MOL0     C56318   6.849  12.199   7.746 -0.0710 -0.4806  0.3423
  409MOL0     C56319   6.972  12.186   7.674  0.4440 -0.0630 -0.5035
  409MOL0     C56320   7.074  12.293   7.716 -0.5243  0.0083 -0.8202
  409MOL0     N56321   7.196  12.251   7.652 -0.9609 -0.1153  0.0134
  409MOL0     C56322   7.265  12.146   7.695 -0.4795  0.7104 -0.0253
  409MOL0     C56323   7.378  12.145   7.611  0.5153  0.3846  0.2926
  409MOL0     C56324   7.495  12.062   7.608 -0.5234 -0.0592  0.6798
  409MOL0     C56325   7.482  11.956   7.497  0.6153 -0.5373  0.8788
  409MOL0     C56326   7.604  11.859   7.495  0.0561  0.3388  0.0356
  409MOL0     C56327   7.606  11.771   7.373 -0.0036 -0.5979  0.6596
  409MOL0     O56328   7.711  11.675   7.365 -0.3177  0.6311 -0.2543
  409MOL0     C56329   7.827  11.703   7.295  0.1939 -0.2130  0.6238
  409MOL0     C56330   7.923  11.601   7.261 -0.2273  0.0649  0.0915
  409MOL0     C56331   8.034  11.627   7.176 -0.4423  0.2707  0.5098
  409MOL0     C56332   8.125  11.515   7.149  0.0047  0.0769  0.0992
  409MOL0     C56333   8.055  11.753   7.125  0.0347 -0.0343 -0.1475
  409MOL0     C56334   8.168  11.785   7.044  0.2772  0.1120 -0.6604
  409MOL0     O56335   8.255  11.884   7.076 -0.0305 -0.5153  0.3963
  409MOL0     C56336   8.353  11.917   6.984  0.0676  0.6090 -0.1482
  409MOL0     C56337   8.332  12.025   6.900 -0.0569 -0.0128  0.9597
  409MOL0     C56338   8.429  12.078   6.812 -0.1006  0.8190 -0.0672
  409MOL0     C56339   8.542  11.999   6.791 -0.1560  0.1963  0.2656
  409MOL0     O56340   8.637  12.042   6.704  0.3985 -0.6005 -0.1222
  409MOL0     C56341   8.690  11.939   6.616  0.3999  0.0727 -0.0138
  409MOL0     C56342   8.684  11.996   6.470  0.7056  0.2417  0.0695
  409MOL0     C56343   8.794  11.938   6.379 -0.2822  0.1439  0.1891
  409MOL0     C56344   8.784  12.000   6.239 -0.2696  0.3371 -0.4713
  409MOL0     C56345   8.915  11.980   6.161 -0.1838  0.6937 -0.7249
  409MOL0     C56346   8.917  12.056   6.030 -0.5337  0.2557  0.8637
  409MOL0     C56347   9.031  12.015   5.934 -0.6228  0.2002  0.2288
  409MOL0     C56348   9.012  11.869   5.875  0.3167  0.1244 -0.3087
  409MOL0    Cl56349   9.110  11.847   5.734  0.1390 -0.2495  0.3193
  409MOL0     C56350   8.562  11.890   6.867  0.3553  0.1178  0.0593
  409MOL0     C56351   8.470  11.844   6.960 -0.8972 -0.6824  0.2343
  409MOL0     O56352   8.166  11.715   6.940 -0.1412 -0.4084  0.0536
  409MOL0     C56353   7.976  11.855   7.175  0.0454  0.4365 -0.1345
  409MOL0     C56354   7.864  11.835   7.257  0.8665  0.9638 -0.0656
  409MOL0     N56355   7.369  12.253   7.522  0.2807  0.2422 -0.0067
  409MOL0     N56356   7.261  12.317   7.553  0.2290 -0.4370 -0.5225
  409MOL0     C56357   6.065  11.714   7.695 -0.2694  0.0161 -0.6761
  409MOL0     C56358   5.952  11.626   7.688  0.2898  0.0835 -0.3693
  409MOL0     C56359   5.699  11.243   7.663 -0.0396  0.3961  0.8057
  409MOL0     C56360   5.602  11.307   7.594  0.5477  0.3373 -0.0163
  409MOL0     C56361   5.470  11.256   7.591 -0.0372  0.4669  0.5662
  409MOL0     C56362   5.443  11.126   7.637 -0.5964 -1.3030 -0.0501
  409MOL0     O56363   5.317  11.083   7.620  0.1073 -0.8423  0.5405
  409MOL0     C56364   5.281  10.954   7.673  0.1026 -0.1807  0.5505
  409MOL0     C56365   5.132  10.921   7.653  0.2336 -0.6456  0.1870
  409MOL0     C56366   5.097  10.786   7.715  0.5732  0.1847  0.6819
  409MOL0     C56367   5.177  10.662   7.687 -0.0687  0.8337 -0.1971
  409MOL0     C56368   5.147  10.619   7.547 -0.9248 -0.0141  0.3851
  409MOL0     C56369   5.100  10.586   7.441 -1.1102  0.0488 -0.9613
  409MOL0     C56370   5.549  11.058   7.697  0.4487 -0.0190  0.0651
  409MOL0     C56371   5.673  11.113   7.713 -0.1768 -0.2949  0.8072
  409MOL0     C56372   5.766  11.010   7.795 -0.1566 -0.2922 -0.1171
  409MOL0     H56373   6.083  11.390   7.479  2.5681 -1.4729  2.3588
  409MOL0     H56374   6.273  11.535   7.486  0.0523  3.2939  0.0462
  409MOL0     H56375   6.411  11.688   7.490  1.6658  0.4173 -0.6326
  409MOL0     H56376   6.465  11.644   7.665  0.8288  0.1261 -0.4782
  409MOL0     H56377   6.594  11.816   7.504 -0.2820 -0.2954 -0.4685
  409MOL0     H56378   6.451  11.916   7.548 -0.5001 -1.2836 -1.1232
  409MOL0     H56379   6.528  11.917   7.777 -0.0575  0.2861  0.7919
  409MOL0     H56380   6.657  11.800   7.738 -2.1735 -1.9831 -0.7768
  409MOL0     H56381   6.771  11.948   7.598  1.0537 -2.6206  3.5112
  409MOL0     H56382   6.641  12.079   7.595 -0.6564 -1.5767 -1.4472
  409MOL0     H56383   6.824  11.990   7.825  0.7112  1.7657  2.3682
  409MOL0     H56384   6.674  12.094   7.826 -1.2197  0.9987 -2.1238
  409MOL0     H56385   6.791  12.268   7.685  0.6885  0.8316  1.0593
  409MOL0     H56386   6.861  12.252   7.841 -0.0597  0.0981  0.0213
  409MOL0     H56387   6.949  12.192   7.567  2.7385 -1.5577 -1.1453
  409MOL0     H56388   7.010  12.084   7.685 -0.7464 -0.5465 -0.6465
  409MOL0     H56389   7.052  12.397   7.688  1.2596  0.8547  0.7254
  409MOL0     H56390   7.086  12.284   7.824 -0.0158 -1.9182 -1.0085
  409MOL0     H56391   7.243  12.073   7.772 -3.1618 -0.4535 -1.7949
  409MOL0     H56392   7.503  12.021   7.709 -1.9515  1.2450  1.3585
  409MOL0     H56393   7.578  12.129   7.585  1.6118 -1.5108  3.5505
  409MOL0     H56394   7.394  11.893   7.511 -0.1757 -0.2198 -2.0374
  409MOL0     H56395   7.470  11.997   7.396  2.3603  0.6460  1.1078
  409MOL0     H56396   7.683  11.933   7.505 -1.2512  1.6450  1.2038
  409MOL0     H56397   7.605  11.804   7.589 -0.2223 -1.4760 -0.9686
  409MOL0     H56398   7.519  11.706   7.379  0.3928 -1.6391 -2.6669
  409MOL0     H56399   7.601  11.826   7.279 -2.0731 -1.1714  0.3872
  409MOL0     H56400   7.910  11.496   7.284 -0.5180 -0.1035 -0.8309
  409MOL0     H56401   8.115  11.435   7.223  1.3172  0.3814  0.6249
  409MOL0     H56402   8.227  11.553   7.145 -0.1105  0.3556 -0.4670
  409MOL0     H56403   8.095  11.473   7.052 -0.9336 -1.3066  0.9557
  409MOL0     H56404   8.241  12.083   6.911 -0.0061  0.1769  0.4065
  409MOL0     H56405   8.425  12.167   6.750  2.3514 -1.2919 -3.6688
  409MOL0     H56406   8.792  11.923   6.651 -0.3936 -0.0989  2.4337
  409MOL0     H56407   8.624  11.851   6.613 -1.9170  1.6597  1.0651
  409MOL0     H56408   8.585  11.972   6.431  0.3577 -0.9235  1.5472
  409MOL0     H56409   8.696  12.104   6.483  1.1479  0.1716  0.2490
  409MOL0     H56410   8.778  11.830   6.375  0.9149 -0.0199 -0.6811
  409MOL0     H56411   8.893  11.948   6.424 -0.7887 -1.8700  1.9230
  409MOL0     H56412   8.767  12.103   6.271 -3.0514  0.1066 -1.0116
  409MOL0     H56413   8.696  11.964   6.185 -2.1309  1.9376  1.3600
  409MOL0     H56414   9.000  12.013   6.222 -0.4806  0.0833  0.0449
  409MOL0     H56415   8.936  11.874   6.146 -0.7782  0.0920  2.0474
  409MOL0     H56416   8.926  12.164   6.045  0.8929  0.1248  1.1061
  409MOL0     H56417   8.823  12.042   5.976 -0.1513  0.3792  0.1530
  409MOL0     H56418   9.119  12.023   5.998 -0.7754  0.8152  0.3695
  409MOL0     H56419   9.029  12.093   5.857 -1.6779  1.1804  1.2239
  409MOL0     H56420   8.905  11.858   5.852 -0.0593  0.6129  1.0708
  409MOL0     H56421   9.041  11.792   5.947 -1.7662 -1.6070 -1.1838
  409MOL0     H56422   8.657  11.838   6.855  0.1490 -0.0294 -1.0797
  409MOL0     H56423   8.503  11.753   7.010  0.0454 -1.8433 -2.2939
  409MOL0     H56424   8.007  11.954   7.144  1.7099 -0.3721 -1.2027
  409MOL0     H56425   7.800  11.914   7.293  1.4468  1.4015  0.0292
  409MOL0     H56426   6.069  11.799   7.762  1.1589  0.0317 -0.7535
  409MOL0     H56427   5.861  11.656   7.738  1.5264 -0.5795  2.4512
  409MOL0     H56428   5.617  11.406   7.552  1.3685 -0.2782 -1.2263
  409MOL0     H56429   5.387  11.303   7.540  0.4737 -0.8929 -1.6688
  409MOL0     H56430   5.345  10.874   7.632 -0.2367 -0.2616  0.1723
  409MOL0     H56431   5.289  10.934   7.780 -0.9924 -1.7371  0.3770
  409MOL0     H56432   5.110  10.915   7.546  2.5736  2.5974 -0.6329
  409MOL0     H56433   5.071  11.002   7.692 -1.0468 -2.2370  1.6247
  409MOL0     H56434   5.094  10.795   7.824  2.0489 -1.6727  0.9322
  409MOL0     H56435   4.994  10.765   7.687  0.9904 -0.7747 -0.2047
  409MOL0     H56436   5.156  10.581   7.757  2.2024  1.2176  1.0322
  409MOL0     H56437   5.284  10.679   7.704  0.4383 -0.6447 -1.6850
  409MOL0     H56438   5.063  10.559   7.344 -1.4795  0.0606 -0.8243
  409MOL0     H56439   5.526  10.958   7.733 -0.9510  0.1348 -0.3709
  409MOL0     H56440   5.726  10.916   7.757  0.4680 -0.9702  0.8635
  409MOL0     H56441   5.872  11.023   7.770  0.9056 -1.3354  3.2571
  409MOL0     H56442   5.762  11.009   7.904  0.3872  0.9910 -0.0652
  410MOL0     O56443   0.159   0.837   5.305 -0.0905  1.0573 -0.0061
  410MOL0     C56444   0.272   0.879   5.316 -0.3763 -0.0796 -0.4597
  410MOL0     O56445   0.326   0.930   5.428 -0.4674 -0.5031  0.6297
  410MOL0     C56446   0.269   0.932   5.553  0.0012 -0.0490  0.6152
  410MOL0     C56447   0.211   0.814   5.603 -0.3169  0.1225 -0.1004
  410MOL0     C56448   0.157   0.819   5.728 -0.3820  0.5266 -0.2694
  410MOL0     C56449   0.158   0.927   5.813  0.1719 -0.8896  0.3616
  410MOL0     O56450   0.080   0.940   5.918 -0.7647  0.6239 -0.2104
  410MOL0     C56451  -0.042   0.877   5.896 -0.6206 -0.6153  0.0114
  410MOL0     C56452  -0.141   0.936   6.012 -0.4340  0.9669 -0.6995
  410MOL0     C56453  -0.186   1.078   5.994 -0.6988 -0.9289  0.3007
  410MOL0     C56454  -0.283   1.131   6.094  0.5721  0.1481 -0.3613
  410MOL0     C56455  -0.344   1.268   6.070  0.3831 -0.3235  0.0159
  410MOL0     C56456  -0.239   1.389   6.096  0.0466  0.1964  0.2686
  410MOL0     C56457  -0.157   1.436   5.963 -0.5296  0.1093 -0.3098
  410MOL0     C56458  -0.065   1.557   5.988  0.3832  0.0488  0.4509
  410MOL0     N56459   0.038   1.543   6.097 -0.9541  0.6503  0.0879
  410MOL0     C56460   0.092   1.418   6.133 -0.4480 -0.1199  0.2437
  410MOL0     C56461   0.190   1.449   6.220 -0.2955 -0.3488  0.5539
  410MOL0     C56462   0.279   1.345   6.291  0.2206  0.0697  0.5055
  410MOL0     C56463   0.390   1.273   6.198  0.5232 -0.0160 -0.3891
  410MOL0     C56464   0.317   1.176   6.106 -0.7572  0.3049  0.5070
  410MOL0     C56465   0.411   1.075   6.041  0.3110 -0.0083 -0.5499
  410MOL0     O56466   0.481   1.148   5.938 -0.3958  0.8122  0.3869
  410MOL0     C56467   0.551   1.078   5.844  0.4020 -0.0675 -0.7398
  410MOL0     C56468   0.538   0.944   5.816 -0.8180  0.1072  0.2031
  410MOL0     C56469   0.595   0.889   5.696  0.8806 -0.9206  0.2727
  410MOL0     C56470   0.566   0.748   5.671 -1.3060  0.9251 -0.4921
  410MOL0     C56471   0.673   0.969   5.611 -0.8124  0.7699  0.2374
  410MOL0     C56472   0.753   0.917   5.492  0.1752  0.2784  0.4265
  410MOL0     O56473   0.818   1.016   5.419  0.3759 -0.4424 -0.7429
  410MOL0     C56474   0.917   0.994   5.333  0.5041 -0.2707 -0.0984
  410MOL0     C56475   0.926   0.885   5.245  0.3427 -0.2213 -0.3429
  410MOL0     C56476   1.018   0.884   5.141 -0.2095 -0.2528 -0.5014
  410MOL0     C56477   1.115   0.990   5.137 -0.3790  0.9762  0.1784
  410MOL0     O56478   1.199   0.991   5.024  0.3604  0.3524  0.2818
  410MOL0     C56479   1.234   1.122   4.968  0.6874  0.6658  0.0994
  410MOL0     C56480   1.317   1.097   4.831 -0.0876  0.2644  0.2490
  410MOL0     C56481   1.471   1.098   4.847  0.1045  0.3867  0.0181
  410MOL0     C56482   1.528   1.242   4.844 -0.3332  0.1288  0.4612
  410MOL0     C56483   1.682   1.252   4.837 -0.1143  0.3224 -0.1722
  410MOL0     C56484   1.738   1.395   4.804  0.4461  0.0191  0.1280
  410MOL0     C56485   1.887   1.396   4.817  0.2604 -0.0498  0.1641
  410MOL0     C56486   1.948   1.543   4.810  0.4733  0.4915 -0.0686
  410MOL0    Cl56487   1.895   1.616   4.951 -0.2018 -0.4253 -0.0029
  410MOL0     C56488   1.104   1.098   5.225 -0.5445  1.0113 -0.7075
  410MOL0     C56489   1.011   1.097   5.322  0.4802  0.1401 -0.4028
  410MOL0     O56490   0.761   0.793   5.477 -0.4160  0.1543  0.5246
  410MOL0     C56491   0.681   1.096   5.639  0.3616 -0.7774  0.3546
  410MOL0     C56492   0.627   1.155   5.756  0.6209 -0.8368  0.2333
  410MOL0     N56493   0.193   1.585   6.244  0.4041  0.6888  0.0564
  410MOL0     N56494   0.103   1.643   6.168 -0.4754 -0.2956 -0.1277
  410MOL0     C56495   0.225   1.040   5.766 -0.6081  0.3428 -0.0191
  410MOL0     C56496   0.272   1.047   5.633 -1.2694 -0.1255  0.0742
  410MOL0     C56497   0.369   0.880   5.201 -0.2659 -1.0615 -0.3291
  410MOL0     C56498   0.504   0.871   5.236  1.4094 -0.2305 -0.0957
  410MOL0     C56499   0.597   0.868   5.141 -0.2419  0.6195  0.0164
  410MOL0     C56500   0.571   0.875   5.006 -0.1733 -0.4385  1.3502
  410MOL0     O56501   0.671   0.880   4.918 -0.3371  0.0371  0.0773
  410MOL0     C56502   0.654   0.812   4.794  0.0409 -0.1462  0.1767
  410MOL0     C56503   0.797   0.758   4.755 -0.1170  0.9724  0.5067
  410MOL0     C56504   0.903   0.871   4.755  0.2486  0.2196  0.7540
  410MOL0     C56505   1.027   0.825   4.679  1.0556  0.1541 -0.6195
  410MOL0     C56506   1.134   0.758   4.760  0.3536 -0.0525  0.8440
  410MOL0     C56507   1.229   0.720   4.818  0.8188 -0.8546 -0.4282
  410MOL0     C56508   0.433   0.893   4.970 -0.4905  0.7887 -0.2336
  410MOL0     C56509   0.329   0.894   5.064  0.5389  0.0203  0.2610
  410MOL0     C56510   0.187   0.910   5.012  0.6223 -0.5380  0.6096
  410MOL0     H56511   0.205   0.726   5.540 -0.9411  0.0467  0.0575
  410MOL0     H56512   0.112   0.726   5.763 -1.0671  1.4147  1.2818
  410MOL0     H56513  -0.033   0.769   5.905 -2.3124 -0.8334 -0.6738
  410MOL0     H56514  -0.082   0.905   5.798 -0.0870 -0.9842 -0.3161
  410MOL0     H56515  -0.234   0.878   6.004 -0.5313  1.1719 -1.0675
  410MOL0     H56516  -0.100   0.936   6.113 -0.5643  0.6110 -0.6435
  410MOL0     H56517  -0.095   1.137   5.979 -0.6092 -0.3957  2.6263
  410MOL0     H56518  -0.220   1.095   5.891  0.2853  0.7120  0.2221
  410MOL0     H56519  -0.368   1.063   6.099 -0.4263  1.4219  0.6855
  410MOL0     H56520  -0.232   1.134   6.190  0.3971  1.2906 -0.2905
  410MOL0     H56521  -0.428   1.293   6.135  2.5943  0.5585  2.7605
  410MOL0     H56522  -0.370   1.284   5.965 -0.4902  2.2756  0.5501
  410MOL0     H56523  -0.299   1.476   6.125  1.1135 -0.2914  4.5659
  410MOL0     H56524  -0.180   1.363   6.185  1.2130 -0.7025 -0.7231
  410MOL0     H56525  -0.225   1.454   5.879 -0.1470  1.1197 -0.4133
  410MOL0     H56526  -0.097   1.353   5.925 -5.4296 -5.3036  2.1708
  410MOL0     H56527  -0.008   1.560   5.895 -0.4938  1.3589 -0.0669
  410MOL0     H56528  -0.122   1.650   5.996  2.6166  1.4175  1.3695
  410MOL0     H56529   0.062   1.323   6.092 -1.4959  0.0158  0.6727
  410MOL0     H56530   0.218   1.268   6.339  3.1685 -1.0211  2.7349
  410MOL0     H56531   0.338   1.386   6.373  1.5556 -0.2609 -0.2534
  410MOL0     H56532   0.435   1.348   6.133  0.1012 -0.3369 -1.0593
  410MOL0     H56533   0.466   1.213   6.248  1.1277  0.0504 -1.2180
  410MOL0     H56534   0.241   1.122   6.162 -2.4094  1.1654 -0.8188
  410MOL0     H56535   0.266   1.232   6.027 -1.9779  0.0625  1.1047
  410MOL0     H56536   0.475   1.037   6.121 -1.5125  0.8115  1.3983
  410MOL0     H56537   0.346   0.995   6.004 -0.5244  0.2520  0.3197
  410MOL0     H56538   0.473   0.882   5.877 -1.2470 -2.2721 -2.4862
  410MOL0     H56539   0.658   0.689   5.672 -1.0855  1.2591  0.7587
  410MOL0     H56540   0.512   0.733   5.577 -0.4736  0.0728 -0.8585
  410MOL0     H56541   0.500   0.713   5.751 -3.0470  2.9310 -0.9653
  410MOL0     H56542   0.854   0.805   5.261 -0.1154 -0.3491 -2.6617
  410MOL0     H56543   1.024   0.803   5.069  0.5629  0.3187 -1.0950
  410MOL0     H56544   1.142   1.175   4.942  1.3302  2.2173  0.8444
  410MOL0     H56545   1.300   1.179   5.034  0.5834 -0.7231  1.4834
  410MOL0     H56546   1.291   1.003   4.782  0.4350  0.4879 -0.4719
  410MOL0     H56547   1.284   1.179   4.768  0.2200 -3.0646 -4.8349
  410MOL0     H56548   1.517   1.044   4.764 -2.7616  1.7513 -2.6667
  410MOL0     H56549   1.494   1.044   4.940 -1.8616 -0.1163  0.2628
  410MOL0     H56550   1.502   1.292   4.938  0.3515 -0.3626  0.9161
  410MOL0     H56551   1.483   1.298   4.761  0.1734 -1.2206 -0.7592
  410MOL0     H56552   1.729   1.223   4.931  0.2070  2.3589  0.3572
  410MOL0     H56553   1.718   1.197   4.750  0.7536  3.1579 -1.7351
  410MOL0     H56554   1.691   1.469   4.870  0.9542  0.2676  0.2153
  410MOL0     H56555   1.703   1.424   4.705  0.3575  1.4655  0.5528
  410MOL0     H56556   1.930   1.329   4.741  0.5962  0.9652 -0.5625
  410MOL0     H56557   1.911   1.357   4.916  2.7129  3.4365  1.1368
  410MOL0     H56558   1.907   1.596   4.723 -0.1060  0.2872  0.0738
  410MOL0     H56559   2.057   1.548   4.814  0.6547  0.4563 -3.0051
  410MOL0     H56560   1.176   1.179   5.218 -1.5620  2.4075  2.7959
  410MOL0     H56561   1.006   1.182   5.390  0.4807 -2.1664  2.6729
  410MOL0     H56562   0.749   1.154   5.578 -1.0236  3.0533  2.1008
  410MOL0     H56563   0.620   1.261   5.778 -2.1259 -0.5871 -1.3922
  410MOL0     H56564   0.229   1.126   5.832  1.1559 -1.4556  2.3862
  410MOL0     H56565   0.330   1.137   5.615  2.9377 -1.7335  3.4951
  410MOL0     H56566   0.534   0.870   5.340 -2.1496 -0.7540  1.0678
  410MOL0     H56567   0.703   0.878   5.164  0.3008  0.1077 -2.0690
  410MOL0     H56568   0.577   0.734   4.791  1.5160 -2.0995  4.4683
  410MOL0     H56569   0.626   0.895   4.729 -0.3538 -0.1423  0.3546
  410MOL0     H56570   0.796   0.712   4.655  0.0736 -1.4350  1.5407
  410MOL0     H56571   0.828   0.680   4.825 -1.0462  0.2303  0.1193
  410MOL0     H56572   0.865   0.966   4.715  0.7461  0.4026  0.7153
  410MOL0     H56573   0.923   0.899   4.859  1.2459 -0.0287  0.6362
  410MOL0     H56574   1.079   0.912   4.638  0.7829  0.6996  0.1768
  410MOL0     H56575   0.996   0.768   4.591  0.4063 -0.2247 -0.1617
  410MOL0     H56576   1.319   0.690   4.867  0.4269 -2.1115 -0.4315
  410MOL0     H56577   0.417   0.918   4.866  0.6320 -1.2654 -0.9557
  410MOL0     H56578   0.144   1.003   5.051  1.1369 -0.0377  0.0119
  410MOL0     H56579   0.174   0.923   4.904 -1.5171  2.8874  1.1228
  410MOL0     H56580   0.129   0.825   5.047  0.0773 -0.7893 -0.8392
  411MOL0     O56581  11.094   7.877   1.840 -0.0359  1.1401 -0.2000
  411MOL0     C56582  11.054   7.857   1.727  0.3545  0.0859  0.2757
  411MOL0     O56583  11.129   7.895   1.615  0.9198  0.3884  0.3655
  411MOL0     C56584  11.261   7.917   1.648  0.7256 -0.3567  0.3649
  411MOL0     C56585  11.346   7.817   1.656 -0.9572  1.3452 -0.2440
  411MOL0     C56586  11.487   7.840   1.664  0.6825  0.2628 -0.2147
  411MOL0     C56587  11.536   7.970   1.679 -0.8556 -0.4916  0.1835
  411MOL0     O56588  11.675   7.984   1.707  0.0129  0.2518  0.2031
  411MOL0     C56589  11.721   8.117   1.734 -0.2367 -0.4874  0.1097
  411MOL0     C56590  11.851   8.109   1.810  0.1198 -0.3554  0.1194
  411MOL0     C56591  11.818   8.051   1.948 -0.0109 -0.1122 -0.1486
  411MOL0     C56592  11.906   8.097   2.064  0.0072 -0.0322  0.0058
  411MOL0     C56593  11.876   8.019   2.192 -0.2433  0.4152  0.0260
  411MOL0     C56594  11.946   8.079   2.319  0.1799 -1.0658 -0.3228
  411MOL0     C56595  11.910   7.989   2.440 -0.5585 -0.1099  0.4237
  411MOL0     C56596  11.779   8.030   2.500 -0.2508 -0.7105  0.3292
  411MOL0     N56597  11.760   7.939   2.616  1.0682 -0.0026 -0.2049
  411MOL0     C56598  11.703   7.816   2.614  0.2318 -0.8092 -0.4933
  411MOL0     C56599  11.717   7.767   2.745  0.0047  0.2624  0.5850
  411MOL0     C56600  11.635   7.650   2.799  0.2874 -0.3188  0.1899
  411MOL0     C56601  11.642   7.636   2.949  0.2801 -0.5145  0.5778
  411MOL0     C56602  11.506   7.618   3.011  0.6268  0.6550  0.1254
  411MOL0     C56603  11.510   7.579   3.160 -0.5188  1.2714  0.1499
  411MOL0     O56604  11.598   7.464   3.182  0.5578  0.0047  0.1237
  411MOL0     C56605  11.683   7.466   3.287  0.9122  0.2320 -0.1988
  411MOL0     C56606  11.650   7.521   3.406 -0.2117 -0.3474 -0.4218
  411MOL0     C56607  11.742   7.527   3.512  0.3928  0.3543  0.1897
  411MOL0     C56608  11.691   7.567   3.644 -0.4722 -0.1550 -0.3295
  411MOL0     C56609  11.878   7.487   3.484 -0.4997 -0.0316 -0.3550
  411MOL0     C56610  12.001   7.503   3.574  0.2977 -0.4011 -0.3460
  411MOL0     O56611  12.117   7.433   3.546 -0.0651  0.1030 -0.4131
  411MOL0     C56612  12.213   7.447   3.647 -0.3305  0.6246  0.0983
  411MOL0     C56613  12.245   7.337   3.722  0.2926 -0.4007 -0.0574
  411MOL0     C56614  12.348   7.337   3.816 -0.3253 -0.3297 -0.6109
  411MOL0     C56615  12.428   7.453   3.838  0.1041 -0.3366 -0.2613
  411MOL0     O56616  12.539   7.455   3.913 -0.2176  0.7268 -0.3487
  411MOL0     C56617  12.548   7.359   4.015 -0.0288  0.5279 -0.2494
  411MOL0     C56618  12.678   7.375   4.099 -0.2008  0.9065 -0.8591
  411MOL0     C56619  12.800   7.318   4.031 -0.8441  0.8667 -0.5587
  411MOL0     C56620  12.932   7.357   4.094 -0.2350  0.4658 -0.0867
  411MOL0     C56621  13.038   7.287   4.017  0.4404  0.2842  0.5636
  411MOL0     C56622  13.177   7.325   4.062 -0.1245 -0.0597 -0.1545
  411MOL0     C56623  13.276   7.270   3.961 -0.2208  0.2087 -0.2820
  411MOL0     C56624  13.409   7.345   3.981  0.8849 -0.1195  0.6003
  411MOL0    Cl56625  13.507   7.305   3.840 -0.1078  0.2241  0.3030
  411MOL0     C56626  12.392   7.571   3.774 -0.1824  0.5086 -0.0674
  411MOL0     C56627  12.296   7.564   3.668  0.4151  0.0550 -1.0259
  411MOL0     O56628  11.977   7.563   3.677 -0.8515  0.0597 -0.6089
  411MOL0     C56629  11.905   7.420   3.361 -0.2324 -0.5801 -0.2024
  411MOL0     C56630  11.810   7.415   3.264  0.4179 -0.8962 -0.1283
  411MOL0     N56631  11.784   7.868   2.812 -0.2588  0.4976  0.2065
  411MOL0     N56632  11.797   7.979   2.737 -0.3696  0.5422  0.2891
  411MOL0     C56633  11.451   8.078   1.663  1.3552 -0.1120  0.4117
  411MOL0     C56634  11.319   8.045   1.639  0.6071  0.1738  0.2699
  411MOL0     C56635  10.913   7.831   1.706  0.1893  0.0283  0.0137
  411MOL0     C56636  10.850   7.866   1.586  0.5838  0.5515 -0.3055
  411MOL0     C56637  10.714   7.848   1.569 -0.0578 -0.4621  0.2762
  411MOL0     C56638  10.636   7.795   1.670 -0.1580  0.3596  0.0649
  411MOL0     O56639  10.499   7.795   1.662  0.6963  0.1417 -0.2309
  411MOL0     C56640  10.428   7.800   1.537  0.8277  0.7524  0.1455
  411MOL0     C56641  10.277   7.788   1.572 -0.3037  0.1883  0.3963
  411MOL0     C56642  10.191   7.771   1.447 -0.3230  1.5737  0.3211
  411MOL0     C56643  10.042   7.759   1.476 -0.0953  0.0274  0.2020
  411MOL0     C56644   9.976   7.769   1.347  0.4681  0.1238 -0.9774
  411MOL0     C56645   9.911   7.765   1.245  0.0728 -0.0119  0.6558
  411MOL0     C56646  10.701   7.749   1.786  0.1984  0.3669  0.2976
  411MOL0     C56647  10.833   7.769   1.803 -0.2414  0.2812 -0.3014
  411MOL0     C56648  10.885   7.711   1.930 -0.6304 -0.6108 -0.7584
  411MOL0     H56649  11.315   7.713   1.653  2.0582  0.3346  0.0534
  411MOL0     H56650  11.566   7.768   1.686  0.5325 -0.3479 -1.6115
  411MOL0     H56651  11.654   8.156   1.811  0.8384 -5.2332  4.0145
  411MOL0     H56652  11.725   8.176   1.642 -5.0891 -0.3914 -0.2961
  411MOL0     H56653  11.931   8.057   1.757 -0.1344 -2.4497  1.6462
  411MOL0     H56654  11.892   8.208   1.830  2.5335 -0.9838 -1.2858
  411MOL0     H56655  11.716   8.081   1.975  0.7522  0.9893  1.7387
  411MOL0     H56656  11.817   7.943   1.930 -1.9230 -0.2742  0.7310
  411MOL0     H56657  12.014   8.094   2.046 -0.1715 -3.0152 -1.3124
  411MOL0     H56658  11.880   8.202   2.078  0.4626  0.3743 -1.8779
  411MOL0     H56659  11.916   7.919   2.172  0.0743  0.8208 -1.5253
  411MOL0     H56660  11.769   8.020   2.214 -1.1412 -0.5327 -3.5950
  411MOL0     H56661  12.056   8.081   2.311  0.2637 -0.7588  0.7748
  411MOL0     H56662  11.925   8.184   2.338 -4.1485 -2.0014  1.2814
  411MOL0     H56663  11.991   8.008   2.511  0.8178 -2.3787 -0.4325
  411MOL0     H56664  11.916   7.886   2.405  0.5383  0.3973 -1.0404
  411MOL0     H56665  11.772   8.132   2.540 -0.5123 -0.2660 -0.8143
  411MOL0     H56666  11.700   8.027   2.424 -0.7297  0.1548  0.7732
  411MOL0     H56667  11.647   7.756   2.542  0.4738  0.0714 -1.4426
  411MOL0     H56668  11.664   7.551   2.761  0.7518  0.4860 -1.6628
  411MOL0     H56669  11.532   7.670   2.770  0.4343  1.3462  0.7340
  411MOL0     H56670  11.715   7.556   2.966 -1.3868 -2.3977 -0.6233
  411MOL0     H56671  11.686   7.727   2.990 -0.4685  0.3656 -0.5011
  411MOL0     H56672  11.437   7.701   2.998 -0.5494 -0.5616 -1.9686
  411MOL0     H56673  11.455   7.537   2.958  3.2141 -1.3199  0.4453
  411MOL0     H56674  11.554   7.666   3.210  2.9482  0.3560 -0.9934
  411MOL0     H56675  11.414   7.549   3.203 -0.8063  2.5419  0.4365
  411MOL0     H56676  11.548   7.556   3.419  0.9278  3.3887 -0.1916
  411MOL0     H56677  11.764   7.630   3.696  0.1171 -1.1682  0.0870
  411MOL0     H56678  11.678   7.474   3.700  2.3431  0.0253  0.7511
  411MOL0     H56679  11.598   7.625   3.638 -0.8586 -0.6192  0.8559
  411MOL0     H56680  12.183   7.249   3.704 -0.0305  0.1104 -1.5881
  411MOL0     H56681  12.366   7.235   3.847  0.9952  0.2824  0.8131
  411MOL0     H56682  12.470   7.386   4.087 -0.5645 -1.1217 -0.1671
  411MOL0     H56683  12.534   7.255   3.985 -0.1682  1.3278 -3.3021
  411MOL0     H56684  12.699   7.479   4.123  2.0038  0.9768 -2.6551
  411MOL0     H56685  12.665   7.310   4.186 -1.3675  0.6846 -1.1813
  411MOL0     H56686  12.793   7.342   3.925  1.0260  0.7845 -0.7397
  411MOL0     H56687  12.788   7.209   4.036  0.0628  0.7532 -0.6081
  411MOL0     H56688  12.937   7.330   4.200 -2.7265  1.6123  0.4078
  411MOL0     H56689  12.946   7.465   4.088 -0.6430  0.6504  1.7083
  411MOL0     H56690  13.026   7.181   4.038  1.9906 -0.5718 -2.3417
  411MOL0     H56691  13.026   7.315   3.912 -0.0912  1.4875  0.9290
  411MOL0     H56692  13.198   7.284   4.161 -2.2935 -1.4168 -0.1929
  411MOL0     H56693  13.184   7.434   4.069 -0.5461  0.0169 -0.8549
  411MOL0     H56694  13.238   7.282   3.859  1.7950  1.4588 -0.9404
  411MOL0     H56695  13.296   7.164   3.980 -2.1274  0.1436  1.7109
  411MOL0     H56696  13.462   7.303   4.067  1.4171 -2.4087 -0.7289
  411MOL0     H56697  13.405   7.454   3.986  2.6718 -0.0131  0.4673
  411MOL0     H56698  12.458   7.652   3.804  0.2146  1.8038 -3.8270
  411MOL0     H56699  12.282   7.639   3.592 -1.4483 -0.8298 -1.6142
  411MOL0     H56700  11.996   7.371   3.328 -0.1257  0.5582 -1.6899
  411MOL0     H56701  11.823   7.362   3.170 -4.3143 -3.3816  0.2700
  411MOL0     H56702  11.484   8.181   1.666  1.1873  0.0495 -1.7554
  411MOL0     H56703  11.252   8.129   1.619  0.3279 -0.1088  0.0047
  411MOL0     H56704  10.904   7.902   1.499  0.2921 -3.2890 -2.2806
  411MOL0     H56705  10.672   7.886   1.476  1.7047  1.0209  0.0273
  411MOL0     H56706  10.444   7.893   1.481 -0.4527  2.1220  1.9303
  411MOL0     H56707  10.454   7.718   1.470 -0.8705 -0.2652  0.6631
  411MOL0     H56708  10.259   7.887   1.614 -2.8636  2.0911 -4.4454
  411MOL0     H56709  10.250   7.713   1.647 -1.8238  0.7834  0.4868
  411MOL0     H56710  10.216   7.859   1.386  1.4900  1.6075  1.0381
  411MOL0     H56711  10.217   7.680   1.392  1.1957  3.9627 -3.2986
  411MOL0     H56712  10.019   7.851   1.530 -1.8843  1.1010 -2.1935
  411MOL0     H56713  10.014   7.672   1.535 -1.4411 -0.3845 -0.9691
  411MOL0     H56714   9.858   7.746   1.154  0.4578  0.3070  0.3594
  411MOL0     H56715  10.640   7.713   1.868 -2.1068 -0.7643 -1.7491
  411MOL0     H56716  10.882   7.782   2.013  0.0367 -0.1152 -1.1538
  411MOL0     H56717  10.811   7.635   1.956  0.5807 -1.5350  0.0758
  411MOL0     H56718  10.986   7.676   1.907 -0.9416 -1.4362 -0.8989
  412MOL0     O56719   8.841   2.327   9.151  0.5632  0.0091 -0.0261
  412MOL0     C56720   8.816   2.386   9.049 -0.8485 -0.5213 -0.5628
  412MOL0     O56721   8.909   2.439   8.963  0.0766  0.2053 -0.1933
  412MOL0     C56722   9.047   2.420   8.974 -0.1085  0.3537 -0.4462
  412MOL0     C56723   9.117   2.317   9.038  0.1576 -0.4653  0.2761
  412MOL0     C56724   9.253   2.318   9.033 -0.5357  0.6376  0.1900
  412MOL0     C56725   9.331   2.415   8.956  1.1109 -0.6157 -0.6087
  412MOL0     O56726   9.466   2.429   8.947  0.1456 -0.2930 -0.4126
  412MOL0     C56727   9.541   2.351   9.045 -0.0446  0.4231  0.1755
  412MOL0     C56728   9.555   2.207   8.985  1.1338 -0.1149  0.0064
  412MOL0     C56729   9.622   2.117   9.081  0.1169  1.2004 -0.0078
  412MOL0     C56730   9.658   1.987   9.007  0.0575  0.0795  0.5235
  412MOL0     C56731   9.791   1.932   9.063  0.2981  0.0702  0.4938
  412MOL0     C56732   9.779   1.902   9.215  0.1580 -0.6837 -0.2980
  412MOL0     C56733   9.910   1.891   9.280 -1.8837 -0.5719  0.2884
  412MOL0     C56734   9.904   1.844   9.422 -0.9115  0.7083  0.1383
  412MOL0     N56735  10.029   1.778   9.460  0.0080 -0.1931  0.4567
  412MOL0     C56736  10.049   1.639   9.467  0.0543  1.2926  0.8102
  412MOL0     C56737  10.174   1.625   9.512  0.7438  1.2600 -0.1107
  412MOL0     C56738  10.237   1.493   9.545  0.2916 -0.4841  0.5783
  412MOL0     C56739  10.386   1.493   9.521  0.3318  0.0452 -0.0561
  412MOL0     C56740  10.473   1.576   9.620 -0.0238  0.2839  0.2459
  412MOL0     C56741  10.620   1.536   9.608 -1.3999 -0.4836 -0.3776
  412MOL0     O56742  10.638   1.393   9.633 -0.0440 -0.1343  0.7719
  412MOL0     C56743  10.748   1.322   9.588  0.4515  0.5060 -0.5325
  412MOL0     C56744  10.740   1.185   9.596 -0.2509  0.0213 -0.2398
  412MOL0     C56745  10.847   1.101   9.556  0.2155  0.6370  1.1094
  412MOL0     C56746  10.817   0.952   9.580 -0.4660 -0.0456 -0.7378
  412MOL0     C56747  10.963   1.155   9.498 -0.8348  0.6816  0.7841
  412MOL0     C56748  11.080   1.077   9.445 -0.5213 -0.7794  0.7848
  412MOL0     O56749  11.067   0.948   9.415  0.0228 -0.0894 -0.4024
  412MOL0     C56750  11.172   0.879   9.359  0.9844 -0.6681  0.9077
  412MOL0     C56751  11.154   0.794   9.246  1.0338 -0.5605 -0.0436
  412MOL0     C56752  11.245   0.695   9.214  0.2224 -0.2525 -0.2786
  412MOL0     C56753  11.355   0.679   9.290  0.0120  0.5321 -0.5312
  412MOL0     O56754  11.451   0.581   9.268  0.2036  0.3789  0.2481
  412MOL0     C56755  11.473   0.521   9.142 -0.7545 -0.8083  0.5903
  412MOL0     C56756  11.609   0.453   9.128  0.1807  0.2005 -0.5828
  412MOL0     C56757  11.610   0.358   8.999 -0.5977 -0.1957 -0.5434
  412MOL0     C56758  11.744   0.299   8.982  0.5863  0.6509 -0.4351
  412MOL0     C56759  11.752   0.158   8.908 -0.1748  0.2433 -0.1561
  412MOL0     C56760  11.659   0.038   8.963  0.5778  0.5618  0.5238
  412MOL0     C56761  11.723  -0.036   9.076  0.8251  0.2969 -0.4029
  412MOL0     C56762  11.641  -0.167   9.098 -0.5438 -0.4205  0.2552
  412MOL0    Cl56763  11.688  -0.276   8.956 -0.2246  0.2652  0.0890
  412MOL0     C56764  11.384   0.766   9.397 -0.2500 -0.5378  0.0856
  412MOL0     C56765  11.293   0.865   9.430 -0.7809 -0.6225  0.3013
  412MOL0     O56766  11.192   1.137   9.437 -0.2924  0.0859 -0.7272
  412MOL0     C56767  10.967   1.298   9.484 -0.2041  0.6135  0.2987
  412MOL0     C56768  10.868   1.375   9.540 -0.0639 -0.0990 -0.4391
  412MOL0     N56769  10.227   1.753   9.526 -0.2133 -0.2910  0.5864
  412MOL0     N56770  10.145   1.840   9.490  0.3104 -0.2729 -0.2275
  412MOL0     C56771   9.253   2.509   8.878  0.9938 -0.3856 -0.3445
  412MOL0     C56772   9.115   2.513   8.896 -0.0603  0.8804 -0.0373
  412MOL0     C56773   8.664   2.404   9.015 -1.3229 -0.7634 -0.1516
  412MOL0     C56774   8.570   2.338   9.094 -0.6806  0.0458 -0.5178
  412MOL0     C56775   8.434   2.342   9.066 -0.4128 -0.0926 -0.0004
  412MOL0     C56776   8.391   2.425   8.958 -0.1197  0.3753  0.0510
  412MOL0     O56777   8.261   2.424   8.915  0.7085  0.7828  0.2599
  412MOL0     C56778   8.153   2.423   9.008  0.5585 -0.6910 -1.0391
  412MOL0     C56779   8.170   2.542   9.105 -0.2826 -0.6580  0.8701
  412MOL0     C56780   8.172   2.680   9.035  0.1127 -0.0815  0.1047
  412MOL0     C56781   8.045   2.700   8.944 -0.4065  0.3331 -0.1826
  412MOL0     C56782   7.920   2.686   9.018 -0.5874 -0.3735  0.6892
  412MOL0     C56783   7.805   2.678   9.051 -0.2095  0.3478 -0.6487
  412MOL0     C56784   8.488   2.497   8.883  0.4395 -0.6078 -0.7569
  412MOL0     C56785   8.625   2.498   8.912  0.5885  0.2639  0.8159
  412MOL0     C56786   8.714   2.600   8.838 -0.1707  0.6539 -0.5668
  412MOL0     H56787   9.079   2.240   9.105  2.0490 -2.5055 -0.8637
  412MOL0     H56788   9.301   2.234   9.081  0.2608  0.2162 -1.2754
  412MOL0     H56789   9.489   2.348   9.141  2.5642  0.7894  1.7102
  412MOL0     H56790   9.636   2.400   9.069 -0.6376  1.1023  1.2437
  412MOL0     H56791   9.460   2.168   8.948  1.7778  0.6249 -2.6054
  412MOL0     H56792   9.624   2.224   8.902  2.1037  1.7874  1.1062
  412MOL0     H56793   9.707   2.169   9.125  0.7796  0.1887 -0.0553
  412MOL0     H56794   9.552   2.095   9.162 -0.2195 -0.4126 -0.7004
  412MOL0     H56795   9.578   1.913   9.019 -0.1052  0.2515  0.5031
  412MOL0     H56796   9.657   2.000   8.899 -1.2570  0.4083  0.5609
  412MOL0     H56797   9.867   2.011   9.064  0.9064 -0.5009  0.2306
  412MOL0     H56798   9.836   1.847   9.012  0.2432  0.0159  0.5372
  412MOL0     H56799   9.727   1.984   9.265 -0.1810 -1.2359  0.2574
  412MOL0     H56800   9.719   1.814   9.239  0.2109 -0.1501  1.9858
  412MOL0     H56801   9.976   1.978   9.272 -3.1015  0.5098  1.5507
  412MOL0     H56802   9.964   1.813   9.225  1.3039  1.2293  0.6291
  412MOL0     H56803   9.881   1.924   9.493 -0.1427  1.0296  0.0270
  412MOL0     H56804   9.816   1.779   9.427  0.7501 -1.6711 -0.2994
  412MOL0     H56805   9.983   1.553   9.461  2.4059 -0.5414 -1.3416
  412MOL0     H56806  10.186   1.411   9.493 -1.8794  1.8345 -1.2416
  412MOL0     H56807  10.218   1.483   9.652 -0.5855 -0.2664  0.4524
  412MOL0     H56808  10.419   1.389   9.526 -1.6012 -0.7943 -2.7470
  412MOL0     H56809  10.400   1.533   9.420 -1.3925  0.9470  0.0146
  412MOL0     H56810  10.463   1.683   9.600 -0.2998  0.2494  0.2001
  412MOL0     H56811  10.435   1.554   9.720 -2.2769 -1.9324 -1.0077
  412MOL0     H56812  10.646   1.561   9.505  0.1535 -2.3257 -0.4791
  412MOL0     H56813  10.681   1.598   9.674 -1.7534 -0.0401 -0.4566
  412MOL0     H56814  10.650   1.144   9.640 -1.0676  0.2449 -1.6304
  412MOL0     H56815  10.752   0.937   9.667 -0.0771 -1.2498 -0.6264
  412MOL0     H56816  10.912   0.899   9.597 -0.3403  0.2277 -0.5848
  412MOL0     H56817  10.775   0.900   9.493 -1.7076  0.6244 -0.5512
  412MOL0     H56818  11.059   0.792   9.194  1.4544 -1.1816 -0.8223
  412MOL0     H56819  11.219   0.638   9.125 -2.9069  1.5671 -0.6974
  412MOL0     H56820  11.388   0.454   9.131 -0.1673 -1.4603 -0.1018
  412MOL0     H56821  11.471   0.598   9.063  4.7359 -1.6407 -0.8265
  412MOL0     H56822  11.696   0.518   9.134  1.5798 -1.6934  2.4272
  412MOL0     H56823  11.617   0.390   9.218 -0.6035 -1.0506 -1.3601
  412MOL0     H56824  11.601   0.420   8.910 -0.0613 -0.6377 -0.9090
  412MOL0     H56825  11.531   0.282   8.997  1.2820 -2.3991  1.7015
  412MOL0     H56826  11.776   0.285   9.086  2.3766 -1.7775 -1.2283
  412MOL0     H56827  11.811   0.368   8.931  1.6311  0.0380  0.0761
  412MOL0     H56828  11.724   0.178   8.804 -0.1168 -0.3075 -0.2763
  412MOL0     H56829  11.854   0.118   8.903  0.7498  2.3422  0.6913
  412MOL0     H56830  11.617  -0.031   8.890  3.7658  1.0376 -1.9254
  412MOL0     H56831  11.573   0.087   9.011  0.0115 -0.0872  0.1990
  412MOL0     H56832  11.724   0.031   9.163 -0.8012 -1.7662  1.3288
  412MOL0     H56833  11.823  -0.063   9.042  1.0776 -0.8654  1.1719
  412MOL0     H56834  11.532  -0.151   9.100 -0.8092 -2.1640  1.5365
  412MOL0     H56835  11.672  -0.216   9.191 -0.4422 -0.5335  0.1615
  412MOL0     H56836  11.474   0.758   9.458  0.7608  1.4034 -1.0611
  412MOL0     H56837  11.307   0.931   9.514 -1.7666  1.8646 -1.3532
  412MOL0     H56838  11.050   1.346   9.434  1.4481 -0.5380  1.8092
  412MOL0     H56839  10.878   1.483   9.535  1.2444 -0.1978 -0.3101
  412MOL0     H56840   9.312   2.582   8.823 -0.2734  1.3554  0.5149
  412MOL0     H56841   9.058   2.588   8.842 -0.3388 -0.1611 -1.2652
  412MOL0     H56842   8.599   2.276   9.179 -3.7423  1.0980  1.4448
  412MOL0     H56843   8.371   2.274   9.122  0.1421 -0.3809  0.2830
  412MOL0     H56844   8.055   2.421   8.960  0.2946 -2.8101 -0.5201
  412MOL0     H56845   8.158   2.335   9.073  1.6058  1.3101  1.8142
  412MOL0     H56846   8.264   2.537   9.162  2.0718 -1.5674 -2.7345
  412MOL0     H56847   8.086   2.521   9.171  0.6392 -2.7265  1.4698
  412MOL0     H56848   8.178   2.759   9.110 -2.1936 -0.8581  1.2294
  412MOL0     H56849   8.252   2.692   8.962  0.0665  0.9067  0.2080
  412MOL0     H56850   8.052   2.634   8.857 -0.6490 -0.5395  0.4559
  412MOL0     H56851   8.053   2.800   8.900 -0.3554 -0.1224 -1.2395
  412MOL0     H56852   7.699   2.679   9.067 -0.2700  0.9686 -1.0274
  412MOL0     H56853   8.451   2.563   8.805  1.9112  0.9802 -0.1577
  412MOL0     H56854   8.767   2.542   8.762  3.4968 -0.6618  2.6274
  412MOL0     H56855   8.649   2.679   8.799  0.8873  0.9597 -1.7776
  412MOL0     H56856   8.792   2.644   8.901 -1.7279  5.2798 -1.5429
  413MOL0     O56857   9.920   7.669   5.321 -0.4108  0.1527  0.1679
  413MOL0     C56858   9.932   7.629   5.432  0.2470  0.2263 -0.0077
  413MOL0     O56859   9.913   7.490   5.467  0.0358 -0.2222  0.6428
  413MOL0     C56860   9.922   7.391   5.367 -0.6599 -0.4620  0.0456
  413MOL0     C56861   9.817   7.304   5.346  0.6270 -0.4397 -1.2294
  413MOL0     C56862   9.818   7.224   5.233  0.2394  0.3754 -0.2040
  413MOL0     C56863   9.924   7.226   5.142 -0.1954 -0.0502 -0.1959
  413MOL0     O56864   9.928   7.152   5.029  1.1075 -0.4597 -0.7431
  413MOL0     C56865  10.034   7.061   5.008  0.2855  0.8653  0.2310
  413MOL0     C56866  10.059   7.064   4.857 -0.4249 -0.3737  0.1158
  413MOL0     C56867  10.175   6.973   4.819  0.6504 -0.3741 -0.7812
  413MOL0     C56868  10.151   6.903   4.684  0.0927 -0.3958 -0.8324
  413MOL0     C56869  10.270   6.838   4.625  0.5480 -0.7343  0.0833
  413MOL0     C56870  10.225   6.768   4.494  0.5977  0.5648  0.4056
  413MOL0     C56871  10.349   6.718   4.422  1.3619 -0.0596  0.2956
  413MOL0     C56872  10.303   6.635   4.299 -0.0246  0.5549  0.1375
  413MOL0     N56873  10.234   6.501   4.312  0.2501  0.3628 -0.3501
  413MOL0     C56874  10.170   6.433   4.213  0.4304  0.0734 -0.1486
  413MOL0     C56875  10.121   6.323   4.268 -0.6558 -1.1959 -0.1507
  413MOL0     C56876  10.039   6.218   4.203 -0.1014 -0.1485 -0.2423
  413MOL0     C56877  10.084   6.075   4.217 -0.1839 -0.6122 -0.3269
  413MOL0     C56878  10.172   6.031   4.101  0.3740  0.2612  0.7644
  413MOL0     C56879  10.324   6.063   4.112  0.7673 -0.0889 -0.9819
  413MOL0     O56880  10.370   6.014   4.244 -0.0858 -0.7479  0.3118
  413MOL0     C56881  10.478   6.084   4.294 -0.9351  0.2049  0.8566
  413MOL0     C56882  10.469   6.179   4.398  0.3625  0.8419 -0.6865
  413MOL0     C56883  10.569   6.267   4.438 -0.6525 -0.6524  0.4992
  413MOL0     C56884  10.545   6.354   4.559 -0.0078  0.5156  0.0649
  413MOL0     C56885  10.696   6.262   4.363  0.6549 -0.7628  0.1055
  413MOL0     C56886  10.807   6.359   4.383 -1.0751  0.1371  0.6053
  413MOL0     O56887  10.871   6.379   4.269 -0.0791 -0.6345  0.0634
  413MOL0     C56888  11.007   6.408   4.273 -0.5613 -0.0377  0.9165
  413MOL0     C56889  11.069   6.511   4.342  0.0043 -0.0680  0.0766
  413MOL0     C56890  11.213   6.510   4.355  0.0292  0.1252  0.0354
  413MOL0     C56891  11.295   6.421   4.285 -0.4114  0.2121 -0.3932
  413MOL0     O56892  11.431   6.435   4.289 -0.1852 -0.4986 -0.0712
  413MOL0     C56893  11.510   6.324   4.269  0.0575 -0.3105 -0.1233
  413MOL0     C56894  11.656   6.374   4.298  0.1425  0.2761  0.1638
  413MOL0     C56895  11.762   6.276   4.256 -0.1302 -0.3635 -0.6095
  413MOL0     C56896  11.892   6.326   4.316 -0.8772  0.1662  0.1486
  413MOL0     C56897  12.017   6.252   4.255 -0.4662  1.3306 -0.1620
  413MOL0     C56898  12.152   6.274   4.329 -0.4964  0.1953 -0.1164
  413MOL0     C56899  12.249   6.192   4.251 -0.5122 -0.1173  0.2474
  413MOL0     C56900  12.395   6.235   4.268  0.3827  0.0932  0.0680
  413MOL0    Cl56901  12.400   6.407   4.209 -0.1943 -0.0180 -0.5004
  413MOL0     C56902  11.227   6.319   4.208  0.0992 -0.0378  0.5920
  413MOL0     C56903  11.085   6.316   4.204 -0.3060 -0.2396  0.7829
  413MOL0     O56904  10.840   6.403   4.493  0.5388  0.0381 -0.1405
  413MOL0     C56905  10.705   6.175   4.260  0.5857  0.9623 -1.0663
  413MOL0     C56906  10.601   6.084   4.233  0.0763  0.9893 -0.4411
  413MOL0     N56907  10.152   6.334   4.404 -0.7585  0.0602 -0.1795
  413MOL0     N56908  10.210   6.442   4.431 -0.1522  0.6660  0.4897
  413MOL0     C56909  10.026   7.322   5.166  0.5915 -0.7401  0.6464
  413MOL0     C56910  10.030   7.405   5.280  0.0396  0.3579  0.5122
  413MOL0     C56911   9.935   7.727   5.548 -0.5322  0.6693 -0.4907
  413MOL0     C56912   9.880   7.686   5.666 -0.7297 -0.6496  0.2014
  413MOL0     C56913   9.872   7.772   5.780 -0.1864  0.9488  1.0645
  413MOL0     C56914   9.934   7.896   5.774 -0.6570 -0.3159  0.0181
  413MOL0     O56915   9.955   7.969   5.891 -0.2062 -0.2768 -0.2637
  413MOL0     C56916   9.913   7.926   6.020  0.2636  0.5292 -0.3948
  413MOL0     C56917   9.961   8.016   6.137  0.4149 -0.3460  0.0862
  413MOL0     C56918  10.116   7.991   6.143 -0.0372 -0.6738  0.1666
  413MOL0     C56919  10.161   8.050   6.271 -0.4323  0.0761 -0.3414
  413MOL0     C56920  10.304   8.030   6.274 -1.4632 -0.1285  0.3533
  413MOL0     C56921  10.428   8.038   6.291 -0.1560  0.0691  0.2373
  413MOL0     C56922   9.991   7.935   5.642  0.1698  0.7926 -0.0469
  413MOL0     C56923   9.995   7.858   5.527 -0.3494 -0.2057 -0.3208
  413MOL0     C56924  10.045   7.924   5.407  0.1468 -0.5337  0.7289
  413MOL0     H56925   9.738   7.311   5.420  1.3243  3.6133 -0.6290
  413MOL0     H56926   9.736   7.161   5.201 -0.0019 -0.0841  1.2398
  413MOL0     H56927  10.011   6.963   5.052 -0.7876  2.5620  3.8491
  413MOL0     H56928  10.118   7.101   5.066 -0.5535  0.8658  1.4797
  413MOL0     H56929   9.969   7.042   4.800 -1.0123 -2.6687  1.7951
  413MOL0     H56930  10.085   7.163   4.819  2.5411 -0.2081  2.2255
  413MOL0     H56931  10.267   7.033   4.815 -1.0154  2.2600 -3.8739
  413MOL0     H56932  10.185   6.895   4.895  0.7626 -1.6482 -2.0815
  413MOL0     H56933  10.087   6.821   4.717  1.1237  0.4599  4.0211
  413MOL0     H56934  10.111   6.973   4.609  1.7553  1.7357  0.1718
  413MOL0     H56935  10.302   6.763   4.698  1.3976 -0.0728  0.4080
  413MOL0     H56936  10.345   6.915   4.604  0.8890 -1.0123  0.2603
  413MOL0     H56937  10.148   6.691   4.509  1.5986 -0.5465 -0.0029
  413MOL0     H56938  10.175   6.845   4.435  0.8871 -0.4142 -1.1740
  413MOL0     H56939  10.403   6.646   4.484  0.4465 -0.2248  0.9173
  413MOL0     H56940  10.423   6.789   4.384  1.9833 -0.6927  0.3076
  413MOL0     H56941  10.242   6.704   4.240 -1.6183 -0.6224  0.3492
  413MOL0     H56942  10.397   6.620   4.245 -1.0356 -0.6746 -1.3681
  413MOL0     H56943  10.163   6.467   4.110  0.5324 -1.1461 -0.5667
  413MOL0     H56944  10.044   6.227   4.094  3.8318  2.1878 -0.0426
  413MOL0     H56945   9.935   6.227   4.238 -0.5976  0.6734 -1.8152
  413MOL0     H56946  10.143   6.059   4.308  0.1128  2.3716  0.1158
  413MOL0     H56947   9.997   6.011   4.236 -0.0390 -1.2563 -1.6890
  413MOL0     H56948  10.169   5.922   4.102 -0.1969  0.2718  1.4874
  413MOL0     H56949  10.123   6.060   4.007 -2.1137 -0.2056  1.8312
  413MOL0     H56950  10.370   6.005   4.031 -0.8372 -2.8022 -0.1031
  413MOL0     H56951  10.350   6.168   4.099  1.6908 -0.4024 -1.7657
  413MOL0     H56952  10.377   6.189   4.454 -0.3518 -0.3788 -1.6008
  413MOL0     H56953  10.438   6.353   4.581 -0.6228  0.1298 -2.6099
  413MOL0     H56954  10.572   6.460   4.558 -0.5758  0.6636 -1.1176
  413MOL0     H56955  10.610   6.306   4.633  0.7478  2.1969  0.5431
  413MOL0     H56956  11.004   6.579   4.396 -0.5844  0.4490 -1.2476
  413MOL0     H56957  11.257   6.589   4.416 -1.1933  1.7953 -1.1563
  413MOL0     H56958  11.488   6.241   4.337  1.7702  0.7308  1.8141
  413MOL0     H56959  11.499   6.294   4.164 -0.4447 -0.1241 -0.1260
  413MOL0     H56960  11.673   6.463   4.238  1.4626  0.2552  0.4755
  413MOL0     H56961  11.651   6.405   4.403 -2.7956  1.0671 -0.1393
  413MOL0     H56962  11.770   6.270   4.147 -2.0140 -0.4320 -0.7737
  413MOL0     H56963  11.740   6.174   4.291  1.5791 -0.0780  1.4405
  413MOL0     H56964  11.898   6.300   4.422 -0.8032  0.1663  0.1447
  413MOL0     H56965  11.898   6.435   4.305 -3.7787  0.3998  0.1409
  413MOL0     H56966  11.994   6.146   4.262  3.1402  0.4304  0.2967
  413MOL0     H56967  12.028   6.267   4.147  1.2604  0.9282 -0.0684
  413MOL0     H56968  12.144   6.235   4.431  0.4137 -1.1154 -0.5155
  413MOL0     H56969  12.186   6.377   4.341  1.8851 -0.7178  1.8498
  413MOL0     H56970  12.215   6.185   4.147 -2.5919 -1.3476  0.9405
  413MOL0     H56971  12.237   6.087   4.280 -0.8513 -0.0630  0.3119
  413MOL0     H56972  12.443   6.163   4.201 -1.0167 -0.7667 -0.0530
  413MOL0     H56973  12.430   6.225   4.370  0.5537  0.2217  0.0228
  413MOL0     H56974  11.289   6.254   4.148 -2.7041 -1.2536 -1.2189
  413MOL0     H56975  11.039   6.239   4.144  1.6750  0.1737 -1.4231
  413MOL0     H56976  10.795   6.174   4.199  2.5295  2.0534  1.6037
  413MOL0     H56977  10.625   5.997   4.172 -0.0520  1.0669 -0.6022
  413MOL0     H56978  10.108   7.340   5.097 -0.2011 -0.3951 -0.2178
  413MOL0     H56979  10.111   7.477   5.288  0.6122 -0.1621 -0.3620
  413MOL0     H56980   9.843   7.584   5.668 -1.4458 -0.4342 -1.1791
  413MOL0     H56981   9.821   7.732   5.867  0.1150  1.5063  1.5048
  413MOL0     H56982   9.806   7.910   6.030 -0.0975  2.4869 -0.7085
  413MOL0     H56983   9.965   7.830   6.035  0.3944  0.8618  1.5323
  413MOL0     H56984   9.916   7.980   6.230 -2.7880  1.6024 -0.5504
  413MOL0     H56985   9.927   8.120   6.127 -0.9645 -0.8073 -0.2323
  413MOL0     H56986  10.136   7.884   6.138  5.1645 -0.0094  0.5915
  413MOL0     H56987  10.163   8.032   6.053  0.5282 -2.7396 -0.5436
  413MOL0     H56988  10.129   7.992   6.359 -0.0263  0.2474 -0.0756
  413MOL0     H56989  10.140   8.155   6.295 -0.5879 -0.0238 -0.0198
  413MOL0     H56990  10.534   8.038   6.305 -0.0021 -0.0952 -0.8351
  413MOL0     H56991  10.027   8.038   5.644  1.2505  0.4176  0.6464
  413MOL0     H56992   9.969   7.941   5.330 -0.3309 -0.2039  1.2771
  413MOL0     H56993  10.096   8.018   5.428  2.2924 -1.1693 -1.0748
  413MOL0     H56994  10.120   7.867   5.351  1.8638  1.6390  0.6749
  414MOL0     O56995   0.557   8.604   9.071 -0.4185  0.0220 -0.3040
  414MOL0     C56996   0.534   8.619   8.954  1.1745 -0.6198  0.0678
  414MOL0     O56997   0.632   8.640   8.860 -0.3568  0.4414 -0.2123
  414MOL0     C56998   0.753   8.681   8.904  0.3496  0.1666 -0.3617
  414MOL0     C56999   0.769   8.820   8.917  0.4352 -0.2547  0.6121
  414MOL0     C57000   0.882   8.878   8.960  0.1475 -0.0109 -0.0401
  414MOL0     C57001   0.990   8.795   8.975  0.3472  0.5034  0.0153
  414MOL0     O57002   1.105   8.864   9.002 -0.1415 -0.6368 -0.6553
  414MOL0     C57003   1.226   8.816   8.941  0.3925 -0.7145 -0.4152
  414MOL0     C57004   1.314   8.931   8.917 -0.1805  0.0792 -0.9221
  414MOL0     C57005   1.453   8.874   8.889 -0.2250 -0.4529  0.3103
  414MOL0     C57006   1.547   8.983   8.829  0.2356 -0.0348  0.8727
  414MOL0     C57007   1.689   8.954   8.860 -0.3363 -0.2627 -0.8356
  414MOL0     C57008   1.776   9.062   8.804 -0.5232 -0.4046  0.3090
  414MOL0     C57009   1.800   9.071   8.651  0.0403  0.3080 -0.0412
  414MOL0     C57010   1.875   8.947   8.588 -0.3801 -0.0701  0.4061
  414MOL0     N57011   2.022   8.952   8.596 -0.5026  0.6003  0.7631
  414MOL0     C57012   2.093   8.947   8.717  0.3030  0.7957 -0.5559
  414MOL0     C57013   2.222   8.935   8.670 -0.0264 -0.1384  0.2630
  414MOL0     C57014   2.338   8.937   8.760  0.1896 -0.6180  0.2116
  414MOL0     C57015   2.429   8.808   8.729 -0.3959 -0.5937  0.4119
  414MOL0     C57016   2.516   8.824   8.599  0.2615 -0.1710 -0.2840
  414MOL0     C57017   2.603   8.953   8.601  0.2709  0.3078  0.7090
  414MOL0     O57018   2.687   8.943   8.485 -0.0276 -0.2106  0.4286
  414MOL0     C57019   2.810   8.892   8.495  0.3361  0.8618  0.5741
  414MOL0     C57020   2.853   8.819   8.609  0.2763  0.7827  0.4145
  414MOL0     C57021   2.981   8.754   8.614  0.0807  0.0103 -1.1014
  414MOL0     C57022   3.003   8.675   8.737  0.5471  0.2929  0.5425
  414MOL0     C57023   3.067   8.759   8.494 -0.0471 -0.0671 -0.1154
  414MOL0     C57024   3.198   8.687   8.478  0.2974 -0.1053 -0.5469
  414MOL0     O57025   3.281   8.719   8.364  0.8700 -0.2722 -0.3386
  414MOL0     C57026   3.403   8.656   8.373  0.5512  0.1842  0.1250
  414MOL0     C57027   3.504   8.689   8.466  0.0209  0.0305 -0.6514
  414MOL0     C57028   3.627   8.619   8.449  0.0879  0.5301 -0.0194
  414MOL0     C57029   3.652   8.516   8.352  0.7751 -0.1058 -0.1945
  414MOL0     O57030   3.773   8.454   8.332  0.7530  0.5756 -0.6796
  414MOL0     C57031   3.880   8.497   8.416 -0.0237  0.2730 -0.1995
  414MOL0     C57032   4.001   8.409   8.396  0.3218 -0.4039  0.1979
  414MOL0     C57033   3.960   8.265   8.414 -0.8872 -0.4470 -1.0191
  414MOL0     C57034   4.081   8.189   8.464  0.3789  0.0863 -0.2486
  414MOL0     C57035   4.061   8.047   8.524 -1.1831  0.2219 -0.7320
  414MOL0     C57036   3.982   7.969   8.416  0.6631 -0.5208 -0.1028
  414MOL0     C57037   3.965   7.823   8.426  0.0174  0.5938  0.1905
  414MOL0     C57038   4.100   7.738   8.418  0.0638 -0.7894 -0.9025
  414MOL0    Cl57039   4.160   7.720   8.243 -0.0594 -0.6078 -0.2755
  414MOL0     C57040   3.546   8.486   8.275  0.7739  0.2603 -0.5468
  414MOL0     C57041   3.422   8.556   8.276  0.5739  0.0212 -0.2120
  414MOL0     O57042   3.227   8.608   8.566 -0.5237 -0.1324 -0.5349
  414MOL0     C57043   3.019   8.828   8.383 -0.5739 -0.1750  0.2981
  414MOL0     C57044   2.893   8.893   8.385  0.0825  0.0435 -0.9002
  414MOL0     N57045   2.229   8.918   8.532  0.4723 -0.5564 -0.7616
  414MOL0     N57046   2.106   8.928   8.492 -0.3559 -1.1661  0.5177
  414MOL0     C57047   0.981   8.654   8.956 -0.5806 -0.6640 -0.3115
  414MOL0     C57048   0.859   8.598   8.927  0.2547  0.4820  0.2676
  414MOL0     C57049   0.404   8.605   8.900  0.7790  0.3216  0.0845
  414MOL0     C57050   0.355   8.704   8.814 -0.2092 -0.0704 -0.0621
  414MOL0     C57051   0.220   8.694   8.756  0.3049  0.1939 -0.3165
  414MOL0     C57052   0.143   8.577   8.767 -0.4043 -0.2426  0.6166
  414MOL0     O57053   0.020   8.558   8.708 -0.8382  0.7072  0.0836
  414MOL0     C57054  -0.022   8.640   8.596 -0.4003 -0.3530  0.6306
  414MOL0     C57055  -0.162   8.621   8.538 -0.2945  0.4230 -0.1353
  414MOL0     C57056  -0.182   8.466   8.513 -0.7583 -0.0526 -0.4449
  414MOL0     C57057  -0.323   8.438   8.485  0.5641  0.3511 -0.3794
  414MOL0     C57058  -0.356   8.480   8.352  0.6685  0.2180 -0.3570
  414MOL0     C57059  -0.379   8.517   8.244  0.0896  0.1343  0.0757
  414MOL0     C57060   0.202   8.468   8.834 -1.3050  0.8834 -0.1216
  414MOL0     C57061   0.333   8.481   8.893 -0.3266  0.7608  0.3502
  414MOL0     C57062   0.386   8.353   8.956  0.0374  0.8262  0.4594
  414MOL0     H57063   0.686   8.886   8.893  1.4768  0.5522 -0.9072
  414MOL0     H57064   0.896   8.983   8.981 -0.2120 -0.4155  2.5497
  414MOL0     H57065   1.210   8.755   8.851 -2.9108 -4.3548  2.2880
  414MOL0     H57066   1.257   8.751   9.023 -1.9738  0.5327  1.5834
  414MOL0     H57067   1.273   8.994   8.838 -2.1069 -0.2008 -0.1916
  414MOL0     H57068   1.319   8.978   9.016  2.1303 -0.9400 -0.4826
  414MOL0     H57069   1.496   8.843   8.985  3.0017  0.2486 -0.7881
  414MOL0     H57070   1.449   8.781   8.830 -0.3930 -1.6359  2.1182
  414MOL0     H57071   1.533   8.994   8.722  1.0122 -0.9350  0.6619
  414MOL0     H57072   1.516   9.079   8.872 -0.5513 -0.2062  0.7051
  414MOL0     H57073   1.722   8.860   8.816  2.9155  0.8347 -1.0330
  414MOL0     H57074   1.691   8.954   8.970  0.4296 -0.1741 -0.8419
  414MOL0     H57075   1.739   9.160   8.835  0.5675  1.2542 -3.0915
  414MOL0     H57076   1.875   9.058   8.850  0.1836 -1.8578 -1.2201
  414MOL0     H57077   1.846   9.168   8.635 -2.8894  1.5439 -1.7415
  414MOL0     H57078   1.700   9.075   8.607 -0.4003 -1.5793  0.6744
  414MOL0     H57079   1.832   8.856   8.631 -2.4633  0.6698 -0.0116
  414MOL0     H57080   1.844   8.935   8.484  0.0675 -2.4713  0.4754
  414MOL0     H57081   2.049   8.953   8.817 -1.1718  0.4403 -1.1477
  414MOL0     H57082   2.303   8.926   8.864 -1.2472 -1.9593 -0.3723
  414MOL0     H57083   2.391   9.031   8.744 -1.0818 -0.0950 -1.2169
  414MOL0     H57084   2.504   8.800   8.808  0.5783 -1.0670 -0.5346
  414MOL0     H57085   2.366   8.719   8.725 -1.2589  0.0413 -1.0442
  414MOL0     H57086   2.576   8.735   8.580  0.0223 -0.5806  0.8509
  414MOL0     H57087   2.447   8.839   8.515 -1.8851 -0.4477  1.3448
  414MOL0     H57088   2.542   9.044   8.597 -0.4858 -0.2182 -0.1702
  414MOL0     H57089   2.665   8.960   8.691  0.6447  0.0611  0.4723
  414MOL0     H57090   2.789   8.792   8.692  0.5225 -0.6964  0.1553
  414MOL0     H57091   2.925   8.699   8.810  0.9880 -1.5589  1.6841
  414MOL0     H57092   3.095   8.694   8.793  1.0000 -0.8434  0.2083
  414MOL0     H57093   2.996   8.569   8.714 -2.5098  0.3463  0.8650
  414MOL0     H57094   3.485   8.757   8.548 -1.0225 -2.1260  0.9731
  414MOL0     H57095   3.711   8.648   8.511  1.0628 -0.6729 -0.7244
  414MOL0     H57096   3.898   8.601   8.389  4.5619 -0.0060  0.9994
  414MOL0     H57097   3.844   8.492   8.520  2.0723 -0.6690  0.5373
  414MOL0     H57098   4.041   8.436   8.298  0.1599  1.1691  0.5283
  414MOL0     H57099   4.066   8.431   8.482 -0.6381 -0.1733  0.8719
  414MOL0     H57100   3.929   8.227   8.316 -0.6755  1.3452 -1.8303
  414MOL0     H57101   3.878   8.254   8.485  0.8736 -0.1962  1.1408
  414MOL0     H57102   4.117   8.245   8.551 -3.4350 -0.7952  2.0861
  414MOL0     H57103   4.157   8.199   8.385 -0.6673  1.5735 -1.1301
  414MOL0     H57104   4.156   8.001   8.551 -1.5751  1.4280  3.3089
  414MOL0     H57105   3.998   8.044   8.613 -1.1962 -1.8076 -0.7698
  414MOL0     H57106   4.021   7.999   8.318  1.5362 -2.3851 -0.3755
  414MOL0     H57107   3.879   8.006   8.416 -0.7843 -3.9623 -2.4159
  414MOL0     H57108   3.899   7.785   8.346 -1.1431 -0.0582  1.4139
  414MOL0     H57109   3.915   7.796   8.520 -0.1935  2.1889  0.5632
  414MOL0     H57110   4.099   7.647   8.479 -1.2297 -0.5289 -0.5044
  414MOL0     H57111   4.181   7.797   8.462 -2.1128  1.5081  0.2280
  414MOL0     H57112   3.555   8.400   8.209  3.6732  0.4903 -0.5515
  414MOL0     H57113   3.347   8.532   8.201  0.6853  2.4298 -1.1980
  414MOL0     H57114   3.060   8.833   8.283 -1.2917 -0.6666 -0.0285
  414MOL0     H57115   2.851   8.939   8.296 -1.2187 -0.8342 -0.7759
  414MOL0     H57116   1.075   8.600   8.965  0.0998  0.3880 -0.9639
  414MOL0     H57117   0.849   8.491   8.912  0.1978  0.4624  0.4466
  414MOL0     H57118   0.431   8.778   8.793 -1.0378  0.6068 -0.7216
  414MOL0     H57119   0.189   8.786   8.707  0.1752  0.2109 -0.2043
  414MOL0     H57120  -0.012   8.741   8.638 -2.0655 -0.9591  2.6243
  414MOL0     H57121   0.057   8.638   8.520  1.5345 -1.8552  2.5571
  414MOL0     H57122  -0.172   8.677   8.445 -0.9320  1.5241  0.5857
  414MOL0     H57123  -0.241   8.663   8.600 -0.5236  0.2900 -0.3373
  414MOL0     H57124  -0.122   8.412   8.439 -0.9005 -1.4317  0.4062
  414MOL0     H57125  -0.162   8.414   8.607 -1.4605 -1.1425 -0.8784
  414MOL0     H57126  -0.393   8.478   8.559  0.6233 -1.9592  1.0270
  414MOL0     H57127  -0.336   8.330   8.494 -1.0499  0.6298  1.2643
  414MOL0     H57128  -0.388   8.538   8.139 -0.8517  2.0544  0.5002
  414MOL0     H57129   0.156   8.370   8.833  1.2371 -0.3970 -0.9728
  414MOL0     H57130   0.493   8.333   8.941  0.2219 -1.6453  3.9398
  414MOL0     H57131   0.376   8.351   9.065 -1.3623 -0.4950  0.3526
  414MOL0     H57132   0.341   8.267   8.905  0.3854  1.9596 -1.9025
  415MOL0     O57133   3.921   5.771  10.100  0.3477 -0.4907 -0.0495
  415MOL0     C57134   3.888   5.667  10.155  0.6636 -0.3038  0.0783
  415MOL0     O57135   3.970   5.553  10.152  0.1946 -0.0917 -0.1302
  415MOL0     C57136   4.097   5.559  10.099  0.1128 -0.3085  0.5328
  415MOL0     C57137   4.146   5.444  10.031 -0.9077  0.5358  0.0188
  415MOL0     C57138   4.285   5.436  10.002 -0.0452 -0.0359  0.0317
  415MOL0     C57139   4.372   5.538  10.040 -1.0563 -0.0508 -0.0331
  415MOL0     O57140   4.506   5.520  10.002  0.0246  0.1570 -0.1312
  415MOL0     C57141   4.603   5.617  10.040 -0.4087 -0.3244 -0.2776
  415MOL0     C57142   4.731   5.570   9.992  0.2841  0.1530  0.2191
  415MOL0     C57143   4.845   5.660  10.042  0.4141 -0.0638  1.3213
  415MOL0     C57144   4.877   5.618  10.187  0.5840  0.2963 -0.0215
  415MOL0     C57145   4.985   5.701  10.249  0.3062 -0.0160  0.1353
  415MOL0     C57146   4.989   5.700  10.398  0.6364  0.0355  1.0175
  415MOL0     C57147   5.121   5.740  10.465  0.3775  0.4133  0.6992
  415MOL0     C57148   5.122   5.897  10.474  0.3278  0.7212 -1.1884
  415MOL0     N57149   5.236   5.951  10.551 -0.1526 -0.9986 -0.7056
  415MOL0     C57150   5.227   6.024  10.675 -0.3643  0.6919  0.2839
  415MOL0     C57151   5.350   6.076  10.687  0.2251  0.3598 -0.3725
  415MOL0     C57152   5.395   6.179  10.795  0.1914  1.3894 -0.1178
  415MOL0     C57153   5.430   6.101  10.920 -0.5513  0.3747  0.3178
  415MOL0     C57154   5.475   6.184  11.038 -0.5641 -0.1905 -0.5309
  415MOL0     C57155   5.600   6.271  11.002 -0.0576  0.7564 -0.0258
  415MOL0     O57156   5.701   6.209  10.924 -0.5310 -0.1235  0.2406
  415MOL0     C57157   5.833   6.244  10.940 -0.0230  0.6925  0.5806
  415MOL0     C57158   5.883   6.332  11.036 -0.0353  0.5674 -0.4741
  415MOL0     C57159   6.017   6.357  11.061 -0.6339  0.5410 -0.0930
  415MOL0     C57160   6.052   6.450  11.180 -0.3940 -0.6884 -0.6030
  415MOL0     C57161   6.114   6.299  10.972 -0.0938 -0.2996  0.0158
  415MOL0     C57162   6.257   6.306  10.996  0.2074 -0.7315  0.6433
  415MOL0     O57163   6.322   6.364  11.106  0.4822 -0.0921 -0.2067
  415MOL0     C57164   6.459   6.348  11.131 -0.0026  0.7094 -0.0259
  415MOL0     C57165   6.496   6.232  11.202 -0.0770  0.1980  0.1653
  415MOL0     C57166   6.631   6.225  11.231  0.4216  0.1279  0.1272
  415MOL0     C57167   6.725   6.324  11.200  0.8623 -0.0565  0.2669
  415MOL0     O57168   6.853   6.295  11.237 -0.7140 -0.1047  0.1407
  415MOL0     C57169   6.953   6.339  11.140  0.3725 -1.0604  0.1379
  415MOL0     C57170   7.089   6.288  11.173 -0.1845  0.2821  0.7538
  415MOL0     C57171   7.181   6.300  11.048  0.4585  0.4617 -0.3563
  415MOL0     C57172   7.328   6.264  11.085  0.3215 -0.0330 -0.6283
  415MOL0     C57173   7.401   6.368  11.176  0.5601  0.3275  0.2797
  415MOL0     C57174   7.555   6.341  11.196  0.8492 -0.0046 -0.3610
  415MOL0     C57175   7.614   6.454  11.269 -0.2147 -0.3070 -0.5346
  415MOL0     C57176   7.616   6.456  11.419 -0.4119 -0.3100 -0.4984
  415MOL0    Cl57177   7.682   6.614  11.452 -0.2159  0.3615 -0.4924
  415MOL0     C57178   6.683   6.431  11.127 -0.3683  0.0240 -0.3466
  415MOL0     C57179   6.551   6.446  11.090 -0.0239  0.6565 -0.2224
  415MOL0     O57180   6.319   6.258  10.900  0.6634 -0.3418 -0.5092
  415MOL0     C57181   6.062   6.220  10.874  0.3525  0.2376  0.1301
  415MOL0     C57182   5.921   6.192  10.856  0.0351 -0.2834  0.5876
  415MOL0     N57183   5.439   6.020  10.593 -0.5029  0.5505  0.9689
  415MOL0     N57184   5.367   5.954  10.513  0.0048 -0.0202  0.3682
  415MOL0     C57185   4.322   5.658  10.102 -0.0167 -0.2255 -0.6331
  415MOL0     C57186   4.187   5.662  10.132 -0.5087 -0.5902 -0.0381
  415MOL0     C57187   3.741   5.654  10.202  1.3332 -0.1080 -0.0873
  415MOL0     C57188   3.691   5.521  10.230  0.1582  0.0445  0.4129
  415MOL0     C57189   3.551   5.496  10.243 -0.3088  0.3284 -0.7362
  415MOL0     C57190   3.456   5.595  10.237  0.2046 -0.1277  0.0334
  415MOL0     O57191   3.325   5.554  10.237  0.0971  0.2275 -0.2601
  415MOL0     C57192   3.230   5.657  10.243  0.3500  0.7995 -1.1077
  415MOL0     C57193   3.101   5.605  10.294 -0.0108 -0.0768 -0.5288
  415MOL0     C57194   3.105   5.542  10.437  0.9293 -0.0059 -0.7197
  415MOL0     C57195   3.035   5.619  10.560  0.7833  0.2081  0.8352
  415MOL0     C57196   2.887   5.639  10.533 -0.5129  0.3353  0.0958
  415MOL0     C57197   2.773   5.654  10.496 -0.5953  1.2464  0.0835
  415MOL0     C57198   3.508   5.728  10.227  0.0160 -0.0318 -0.1121
  415MOL0     C57199   3.646   5.760  10.206 -0.2231  0.3522  0.1289
  415MOL0     C57200   3.705   5.905  10.188 -0.3222 -0.2231 -0.8999
  415MOL0     H57201   4.068   5.376   9.999  0.6063  0.0988 -3.0265
  415MOL0     H57202   4.329   5.348   9.955  1.4609  1.2014 -0.9601
  415MOL0     H57203   4.599   5.654  10.143  0.0553  2.9192 -1.2835
  415MOL0     H57204   4.590   5.710   9.983 -0.5139  1.6341  2.7221
  415MOL0     H57205   4.749   5.467  10.024 -3.1311 -0.6548 -0.1514
  415MOL0     H57206   4.727   5.564   9.883 -2.1626  0.9563  0.2187
  415MOL0     H57207   4.928   5.663   9.971 -1.7751 -1.1706 -1.4718
  415MOL0     H57208   4.816   5.766  10.037  1.4760  0.1931 -0.1317
  415MOL0     H57209   4.788   5.638  10.247 -0.3324 -2.0498 -0.4939
  415MOL0     H57210   4.897   5.511  10.200 -1.5325 -0.1332  0.0892
  415MOL0     H57211   4.971   5.807  10.224 -0.9702 -0.2056 -0.0314
  415MOL0     H57212   5.082   5.667  10.211 -0.3521 -1.7743 -0.0659
  415MOL0     H57213   4.909   5.765  10.433 -1.0767 -0.8481 -1.0286
  415MOL0     H57214   4.960   5.599  10.429  0.7041 -0.8862 -1.6630
  415MOL0     H57215   5.204   5.706  10.402 -3.5157 -0.8658 -4.4234
  415MOL0     H57216   5.130   5.695  10.565 -1.5040  0.7447  1.0524
  415MOL0     H57217   5.150   5.942  10.378  0.2756 -0.6275 -1.8727
  415MOL0     H57218   5.028   5.931  10.519  1.6965  0.5702  2.0287
  415MOL0     H57219   5.142   6.039  10.742 -0.1920 -0.5554  0.8092
  415MOL0     H57220   5.320   6.255  10.821 -1.2086 -0.7279  2.5202
  415MOL0     H57221   5.486   6.221  10.752 -1.0244  1.3612 -2.9327
  415MOL0     H57222   5.349   6.038  10.960  0.1409  0.6614  2.2567
  415MOL0     H57223   5.511   6.031  10.898  1.4660  1.6901  2.9717
  415MOL0     H57224   5.394   6.257  11.054  0.9759  1.4782  0.0223
  415MOL0     H57225   5.491   6.129  11.131  0.5319  0.5655 -0.2608
  415MOL0     H57226   5.560   6.358  10.949 -1.1563 -0.0775 -0.6292
  415MOL0     H57227   5.647   6.308  11.093  1.2926 -1.0280  0.0585
  415MOL0     H57228   5.826   6.387  11.110  1.4932  1.2684  0.2193
  415MOL0     H57229   5.965   6.490  11.232  0.6687  0.5759  0.2557
  415MOL0     H57230   6.120   6.530  11.150  1.8352 -0.5842  3.9497
  415MOL0     H57231   6.109   6.393  11.254  0.2887  2.0613  1.1167
  415MOL0     H57232   6.429   6.150  11.225 -0.2095  0.6066  1.2918
  415MOL0     H57233   6.671   6.137  11.281 -0.3840 -0.6066 -0.4782
  415MOL0     H57234   6.913   6.301  11.046 -2.7974 -0.1397  0.9918
  415MOL0     H57235   6.958   6.448  11.133  3.0211 -0.9617  1.9690
  415MOL0     H57236   7.121   6.353  11.254 -1.4514  1.4460  0.3621
  415MOL0     H57237   7.077   6.182  11.201 -1.9129  0.2262 -0.0229
  415MOL0     H57238   7.174   6.402  11.011 -0.4689  0.1819 -0.9992
  415MOL0     H57239   7.145   6.238  10.965  0.5502  2.2760 -1.8289
  415MOL0     H57240   7.380   6.261  10.989  3.1045  1.3328  0.6916
  415MOL0     H57241   7.331   6.165  11.130 -0.9629  0.3344  0.3450
  415MOL0     H57242   7.384   6.462  11.123  1.3101 -0.1197 -0.7856
  415MOL0     H57243   7.342   6.385  11.266  0.0700 -0.3505  0.0978
  415MOL0     H57244   7.596   6.334  11.095 -0.2828  0.6195 -0.8969
  415MOL0     H57245   7.574   6.252  11.256  1.0526 -0.1350 -0.6189
  415MOL0     H57246   7.558   6.544  11.242 -0.3069 -0.1666  0.1205
  415MOL0     H57247   7.717   6.463  11.234  0.4266 -1.8548  0.8213
  415MOL0     H57248   7.682   6.377  11.458 -0.3650 -0.4165 -0.7921
  415MOL0     H57249   7.516   6.438  11.459 -0.0544 -4.8940 -1.1182
  415MOL0     H57250   6.760   6.501  11.097 -0.3298  1.4586  2.7359
  415MOL0     H57251   6.522   6.529  11.027 -1.4058  0.5178  0.1880
  415MOL0     H57252   6.123   6.167  10.801 -1.7157 -1.1451 -0.6945
  415MOL0     H57253   5.877   6.119  10.789 -2.0322  3.4644 -2.5495
  415MOL0     H57254   4.397   5.731  10.131 -0.1840 -0.4035  0.2680
  415MOL0     H57255   4.151   5.750  10.184  1.5055  1.1089 -1.3641
  415MOL0     H57256   3.763   5.440  10.238  2.5526  1.7673 -2.0538
  415MOL0     H57257   3.505   5.397  10.246 -2.4960  1.2878  1.8427
  415MOL0     H57258   3.270   5.728  10.316 -0.1510 -0.5041  0.5113
  415MOL0     H57259   3.222   5.715  10.151 -0.8580  1.3784 -0.6573
  415MOL0     H57260   3.070   5.524  10.227  2.4060 -0.9853 -0.6656
  415MOL0     H57261   3.026   5.685  10.289 -0.9054 -0.7747  1.0994
  415MOL0     H57262   3.054   5.445  10.438  0.2197  0.3617  0.7212
  415MOL0     H57263   3.209   5.523  10.464 -0.3748 -2.3071  3.6937
  415MOL0     H57264   3.094   5.711  10.570  2.0151 -0.6127  1.2298
  415MOL0     H57265   3.041   5.565  10.655 -1.0210 -2.2555 -0.3342
  415MOL0     H57266   2.670   5.682  10.484 -0.7179  1.1737  0.8935
  415MOL0     H57267   3.448   5.818  10.222 -1.7759 -0.9714  2.5866
  415MOL0     H57268   3.748   5.917  10.088  3.3198  0.2601  0.5586
  415MOL0     H57269   3.629   5.982  10.204 -0.4384 -0.2385 -1.3618
  415MOL0     H57270   3.789   5.922  10.255 -2.5251 -1.0754  2.2726
  416MOL0     O57271  10.421   6.025   8.731 -0.0822 -0.0005 -0.0386
  416MOL0     C57272  10.430   6.031   8.611  0.0554  0.2650  0.9468
  416MOL0     O57273  10.541   5.987   8.537 -0.2822  0.1252  0.3876
  416MOL0     C57274  10.651   5.934   8.591 -0.4484  0.6968  0.6827
  416MOL0     C57275  10.675   5.859   8.713  0.4539  0.3803 -0.0512
  416MOL0     C57276  10.805   5.799   8.742 -0.2422 -0.3491 -0.1870
  416MOL0     C57277  10.911   5.804   8.653  0.4597 -0.4847 -0.8442
  416MOL0     O57278  11.023   5.749   8.702 -0.4951 -0.4828  0.2265
  416MOL0     C57279  11.146   5.763   8.620  0.9853  0.0710 -0.2881
  416MOL0     C57280  11.254   5.710   8.711  0.2829 -0.3017 -0.2767
  416MOL0     C57281  11.393   5.721   8.647 -0.2970  0.7239  0.0848
  416MOL0     C57282  11.504   5.693   8.755 -0.6338 -0.8672  0.0701
  416MOL0     C57283  11.643   5.681   8.704 -0.0785 -0.4814 -0.7695
  416MOL0     C57284  11.699   5.820   8.666  0.2782  0.5187 -0.2015
  416MOL0     C57285  11.854   5.831   8.653  0.3943 -0.2453 -0.2594
  416MOL0     C57286  11.898   5.727   8.538 -0.2407 -0.7399 -0.3585
  416MOL0     N57287  12.039   5.759   8.508 -0.3035 -0.5073 -0.5142
  416MOL0     C57288  12.081   5.830   8.406 -0.3285 -0.1540 -0.2210
  416MOL0     C57289  12.221   5.825   8.416 -0.6361  0.1563  0.7466
  416MOL0     C57290  12.328   5.890   8.334  0.2627 -0.2538 -0.7398
  416MOL0     C57291  12.385   6.017   8.398  0.0089 -0.0168  0.3980
  416MOL0     C57292  12.483   6.078   8.301  0.3195 -0.3911 -0.0407
  416MOL0     C57293  12.558   6.183   8.384  0.2404 -1.4925  0.1517
  416MOL0     O57294  12.640   6.126   8.489 -0.4922 -0.2437 -0.3666
  416MOL0     C57295  12.740   6.206   8.544  0.4172  0.3619  0.6655
  416MOL0     C57296  12.739   6.343   8.542  0.1081  0.3296  1.0816
  416MOL0     C57297  12.850   6.413   8.581  0.5183 -0.4176 -0.4525
  416MOL0     C57298  12.852   6.565   8.571  0.3714  0.4771 -0.1588
  416MOL0     C57299  12.969   6.347   8.625 -0.4038  0.4553  0.2038
  416MOL0     C57300  13.096   6.412   8.673  0.3924 -0.6749  0.2989
  416MOL0     O57301  13.187   6.321   8.712  0.4828  0.1008 -0.2323
  416MOL0     C57302  13.298   6.369   8.767 -0.7981 -0.0079 -0.0519
  416MOL0     C57303  13.405   6.403   8.685  0.0485 -0.1598 -0.2896
  416MOL0     C57304  13.523   6.447   8.741 -0.1204  0.1491  0.1635
  416MOL0     C57305  13.537   6.450   8.879  0.0667  0.1738 -0.1691
  416MOL0     O57306  13.655   6.497   8.915  0.1181  0.5704 -0.5518
  416MOL0     C57307  13.682   6.513   9.057  0.8593 -0.1073  0.3769
  416MOL0     C57308  13.797   6.604   9.071 -0.5290 -0.2297 -0.7916
  416MOL0     C57309  13.816   6.645   9.221 -0.3342  0.3869 -0.3379
  416MOL0     C57310  13.899   6.535   9.292 -0.0087 -0.3598 -0.6861
  416MOL0     C57311  14.046   6.582   9.306 -1.4533  0.3200 -0.4675
  416MOL0     C57312  14.128   6.479   9.386  0.0760  0.5574 -0.2185
  416MOL0     C57313  14.262   6.529   9.439 -0.0291  0.8786 -0.4810
  416MOL0     C57314  14.319   6.435   9.542 -0.1916  0.6880 -0.5082
  416MOL0    Cl57315  14.309   6.503   9.709 -0.1027 -0.1503  0.1125
  416MOL0     C57316  13.430   6.411   8.962 -0.5022 -0.8887  0.1511
  416MOL0     C57317  13.317   6.366   8.907 -0.3199 -0.6592 -0.6326
  416MOL0     O57318  13.117   6.531   8.671  0.7372  0.5814  0.3751
  416MOL0     C57319  12.962   6.206   8.624  0.3293 -0.5058 -0.6878
  416MOL0     C57320  12.847   6.136   8.592  0.4755  0.6802 -0.8302
  416MOL0     N57321  12.256   5.746   8.526  0.2113  0.2466  0.1890
  416MOL0     N57322  12.144   5.710   8.582  0.0252  0.2505  0.2878
  416MOL0     C57323  10.893   5.875   8.536  0.1395  0.2778  0.0472
  416MOL0     C57324  10.767   5.934   8.503 -1.4351 -0.0606  0.0392
  416MOL0     C57325  10.322   6.106   8.532 -0.5202  0.9593 -0.7880
  416MOL0     C57326  10.363   6.163   8.411  0.1199  0.7734  0.3023
  416MOL0     C57327  10.271   6.231   8.327 -0.0409 -0.4098  0.0242
  416MOL0     C57328  10.141   6.242   8.366 -0.3371  0.2664 -0.2336
  416MOL0     O57329  10.039   6.314   8.312 -0.4799 -0.3241  0.2391
  416MOL0     C57330  10.063   6.385   8.191 -0.1197 -0.1142  0.0527
  416MOL0     C57331   9.935   6.458   8.158 -0.3453  0.0825 -0.6311
  416MOL0     C57332   9.819   6.356   8.131 -0.2961 -0.6813 -0.6781
  416MOL0     C57333   9.729   6.326   8.246 -0.5301  0.3479 -0.0964
  416MOL0     C57334   9.643   6.439   8.288  0.5902 -0.9278  0.4439
  416MOL0     C57335   9.596   6.529   8.342 -0.7540 -0.6255 -0.1883
  416MOL0     C57336  10.098   6.174   8.485 -0.1112  0.2089 -0.9126
  416MOL0     C57337  10.185   6.116   8.568 -1.4765  0.2351 -1.2386
  416MOL0     C57338  10.128   6.060   8.698 -0.1419  0.8380 -0.3149
  416MOL0     H57339  10.606   5.842   8.795 -1.2803 -0.8765 -1.6945
  416MOL0     H57340  10.818   5.746   8.836 -0.0032  1.7435  1.0101
  416MOL0     H57341  11.163   5.866   8.586  1.9467 -0.3610 -1.1806
  416MOL0     H57342  11.131   5.698   8.533  2.8394  0.3740 -0.8681
  416MOL0     H57343  11.251   5.763   8.806 -2.2216  2.1905 -1.5720
  416MOL0     H57344  11.226   5.606   8.728 -0.6244  0.0777  0.6587
  416MOL0     H57345  11.391   5.637   8.577  2.9128 -0.1200  0.8242
  416MOL0     H57346  11.416   5.810   8.588 -0.8806 -0.8679 -2.6928
  416MOL0     H57347  11.491   5.773   8.829  0.6040 -0.1072 -0.4983
  416MOL0     H57348  11.482   5.599   8.807 -1.5007 -1.3069 -1.0547
  416MOL0     H57349  11.641   5.623   8.611 -2.2433 -0.5154 -0.7443
  416MOL0     H57350  11.693   5.647   8.796 -1.0859  4.0291  1.7360
  416MOL0     H57351  11.653   5.850   8.572 -2.9933  1.0162  1.4353
  416MOL0     H57352  11.671   5.893   8.743  2.0994  1.2725 -0.1978
  416MOL0     H57353  11.897   5.817   8.753  0.4241  0.9990 -0.0812
  416MOL0     H57354  11.887   5.928   8.615  1.1613 -0.1987  0.5003
  416MOL0     H57355  11.881   5.630   8.586 -0.9325 -0.2397  0.4444
  416MOL0     H57356  11.836   5.739   8.449 -0.3858  2.4857  0.0622
  416MOL0     H57357  12.022   5.884   8.332  0.4538  1.5418  0.3263
  416MOL0     H57358  12.287   5.918   8.236 -0.7205 -1.8907 -0.8279
  416MOL0     H57359  12.413   5.826   8.308  0.7280  0.4414 -0.9709
  416MOL0     H57360  12.307   6.090   8.420  0.3497  0.0483  1.4465
  416MOL0     H57361  12.426   5.984   8.494 -1.2425  1.0066  1.3081
  416MOL0     H57362  12.557   6.005   8.268  3.4818  1.0320  3.1988
  416MOL0     H57363  12.434   6.136   8.222  3.8846  1.1487 -1.3467
  416MOL0     H57364  12.621   6.234   8.310 -2.1898  0.0487 -1.0189
  416MOL0     H57365  12.499   6.260   8.435  2.1907  0.7834 -0.8335
  416MOL0     H57366  12.655   6.407   8.517 -0.3667 -0.6090  0.2192
  416MOL0     H57367  12.930   6.604   8.505  1.3619 -0.2927  0.5370
  416MOL0     H57368  12.852   6.615   8.668 -0.7362 -3.2946  1.9986
  416MOL0     H57369  12.769   6.599   8.507  2.0862  1.0872 -2.1935
  416MOL0     H57370  13.389   6.395   8.578  0.6602  0.6252 -0.4465
  416MOL0     H57371  13.611   6.466   8.680 -0.1115  0.6129  0.3209
  416MOL0     H57372  13.597   6.562   9.107 -0.2834 -1.3840 -0.2433
  416MOL0     H57373  13.715   6.417   9.097 -0.6260 -0.7225  0.2043
  416MOL0     H57374  13.886   6.569   9.017 -2.0876 -1.4619 -2.7125
  416MOL0     H57375  13.767   6.698   9.023  0.4232  0.4288 -0.1363
  416MOL0     H57376  13.717   6.652   9.267 -0.9788 -0.7772 -1.4814
  416MOL0     H57377  13.866   6.742   9.223  0.2003  0.1364 -1.0602
  416MOL0     H57378  13.897   6.444   9.232 -2.4765  0.4712 -2.0411
  416MOL0     H57379  13.856   6.518   9.391  0.6522  3.0747  0.3425
  416MOL0     H57380  14.086   6.592   9.205 -2.1576  0.9194 -0.6938
  416MOL0     H57381  14.051   6.672   9.368 -1.5268 -2.0888  3.3251
  416MOL0     H57382  14.142   6.392   9.320  1.0677  1.3951 -1.1547
  416MOL0     H57383  14.076   6.448   9.477  2.7217  3.0850  2.3857
  416MOL0     H57384  14.259   6.635   9.465 -1.0975  0.5666  0.7877
  416MOL0     H57385  14.334   6.521   9.357 -1.7937  1.5655 -2.1517
  416MOL0     H57386  14.427   6.433   9.525 -0.0763  0.1752  0.2189
  416MOL0     H57387  14.288   6.330   9.538 -2.6780  1.1635  2.2547
  416MOL0     H57388  13.452   6.422   9.068 -1.1848 -0.0777  0.2208
  416MOL0     H57389  13.228   6.355   8.968 -1.7237 -0.2551 -2.5234
  416MOL0     H57390  13.048   6.144   8.646 -0.4152 -0.9821  1.0850
  416MOL0     H57391  12.837   6.028   8.600  1.1011  0.7631  1.6367
  416MOL0     H57392  10.970   5.869   8.460  0.9246 -2.0073  0.9216
  416MOL0     H57393  10.753   5.976   8.404 -0.4702 -1.7833 -0.8624
  416MOL0     H57394  10.468   6.152   8.385 -0.2305  0.6473 -1.1141
  416MOL0     H57395  10.316   6.284   8.244 -0.8063  0.0604 -0.0963
  416MOL0     H57396  10.137   6.462   8.216 -0.3353  0.3014 -0.5695
  416MOL0     H57397  10.101   6.319   8.114 -1.5594 -0.3019 -0.5343
  416MOL0     H57398   9.960   6.525   8.075 -0.0844 -0.5269 -1.0502
  416MOL0     H57399   9.911   6.520   8.245  2.7662  0.2079  0.2554
  416MOL0     H57400   9.749   6.408   8.066 -2.0383 -0.2958  1.4071
  416MOL0     H57401   9.854   6.258   8.095 -2.4597 -0.9082 -2.3933
  416MOL0     H57402   9.784   6.287   8.332 -2.5468 -0.3347  0.9249
  416MOL0     H57403   9.661   6.244   8.223  1.2480 -1.2689  0.1138
  416MOL0     H57404   9.535   6.607   8.383  0.0898  0.5254 -1.0643
  416MOL0     H57405   9.993   6.176   8.511  0.2703 -0.3960  0.7972
  416MOL0     H57406  10.186   6.079   8.789 -1.5361 -0.2792  0.8579
  416MOL0     H57407  10.032   6.100   8.730  0.5035  1.5673  0.7760
  416MOL0     H57408  10.120   5.951   8.688  0.3170  0.6435  1.2781
  417MOL0     O57409   7.350   2.735   1.834 -0.1083  0.5029 -0.6971
  417MOL0     C57410   7.295   2.623   1.839 -0.0958 -0.5875  0.8169
  417MOL0     O57411   7.363   2.500   1.851  0.3113 -0.5374  0.2546
  417MOL0     C57412   7.487   2.511   1.903  0.6094  0.6611 -0.0939
  417MOL0     C57413   7.594   2.570   1.836  0.0298 -0.2725 -0.1619
  417MOL0     C57414   7.720   2.565   1.894  0.0180  0.1818 -1.0570
  417MOL0     C57415   7.734   2.526   2.027  1.3069  0.1552 -0.4817
  417MOL0     O57416   7.851   2.515   2.097 -0.2859 -0.1134  1.2653
  417MOL0     C57417   7.977   2.517   2.029 -0.0808  0.4039 -0.5341
  417MOL0     C57418   8.074   2.485   2.129 -0.0793  0.5060  0.0556
  417MOL0     C57419   8.221   2.499   2.075 -0.1129 -0.0668 -0.0919
  417MOL0     C57420   8.308   2.382   2.128  0.0314 -0.5003  0.5957
  417MOL0     C57421   8.453   2.399   2.077  0.2155  0.7522  0.0769
  417MOL0     C57422   8.553   2.309   2.149 -0.9227 -0.1317  0.3038
  417MOL0     C57423   8.607   2.374   2.276  0.3479  0.2125 -0.2432
  417MOL0     C57424   8.600   2.266   2.391  0.8988  0.1891 -0.7525
  417MOL0     N57425   8.606   2.346   2.522  0.7375  0.6141 -0.3594
  417MOL0     C57426   8.497   2.381   2.595  0.0669  0.2304 -1.1527
  417MOL0     C57427   8.554   2.431   2.710  0.5492  0.5498  0.0337
  417MOL0     C57428   8.474   2.462   2.833 -0.6037  0.0920 -1.4761
  417MOL0     C57429   8.439   2.350   2.926  1.6744 -0.3943 -0.3281
  417MOL0     C57430   8.566   2.295   2.998  0.5708 -0.0965 -0.2502
  417MOL0     C57431   8.526   2.191   3.101 -0.7161  0.7997 -0.4490
  417MOL0     O57432   8.645   2.108   3.117 -0.4172  0.7763  0.0903
  417MOL0     C57433   8.757   2.162   3.165  0.0778  0.5138 -0.2890
  417MOL0     C57434   8.877   2.088   3.150 -0.4310 -0.0738 -0.3927
  417MOL0     C57435   9.004   2.128   3.198 -0.0505 -0.4150  0.0609
  417MOL0     C57436   9.114   2.026   3.182 -0.1893 -0.0638 -0.7517
  417MOL0     C57437   9.012   2.247   3.272 -0.0748 -0.2346  0.0828
  417MOL0     C57438   9.142   2.310   3.318  0.0610 -0.8130 -0.0544
  417MOL0     O57439   9.138   2.439   3.360 -0.4949  0.9796 -0.1638
  417MOL0     C57440   9.251   2.510   3.397 -0.6244  0.1545 -0.6748
  417MOL0     C57441   9.361   2.512   3.309  0.3914  0.5751  0.5168
  417MOL0     C57442   9.484   2.553   3.362 -0.6067 -0.5410  0.2072
  417MOL0     C57443   9.502   2.604   3.488  0.2788  0.1962 -0.2717
  417MOL0     O57444   9.623   2.645   3.541 -0.6991  0.2511  0.7879
  417MOL0     C57445   9.743   2.581   3.478 -0.0820 -0.0538 -0.3369
  417MOL0     C57446   9.864   2.585   3.573  0.4374 -0.3837 -0.4608
  417MOL0     C57447   9.894   2.731   3.613  0.5287 -0.3186 -0.1525
  417MOL0     C57448  10.007   2.734   3.710  0.4656 -0.7380  0.5347
  417MOL0     C57449  10.054   2.880   3.729  0.3609  0.1046 -0.7661
  417MOL0     C57450  10.116   2.917   3.867  0.0851  0.2615  0.1992
  417MOL0     C57451  10.020   2.931   3.983  0.3424  0.0111  0.6493
  417MOL0     C57452  10.073   2.938   4.119 -0.4697 -0.1581  0.4135
  417MOL0    Cl57453  10.227   2.834   4.149 -0.2392  0.2056  0.0178
  417MOL0     C57454   9.391   2.610   3.572 -0.9274  0.6293 -0.9343
  417MOL0     C57455   9.268   2.562   3.530 -0.0681  0.6099  0.7934
  417MOL0     O57456   9.248   2.249   3.325  0.2341 -0.6566  0.1696
  417MOL0     C57457   8.899   2.327   3.283  1.0279 -0.2721 -0.9202
  417MOL0     C57458   8.770   2.284   3.235 -0.2264  0.0449 -0.7996
  417MOL0     N57459   8.691   2.428   2.703 -0.4744 -0.2531  0.2557
  417MOL0     N57460   8.725   2.382   2.587  0.4653  0.3981  0.8071
  417MOL0     C57461   7.625   2.479   2.101  0.8088 -0.1142  0.3325
  417MOL0     C57462   7.504   2.464   2.035  0.1992 -1.2940  0.1463
  417MOL0     C57463   7.139   2.617   1.834  0.1258  0.2644 -0.0680
  417MOL0     C57464   7.064   2.727   1.881 -0.2310 -0.3684  0.2081
  417MOL0     C57465   6.922   2.729   1.892 -0.3855  0.7564 -0.7976
  417MOL0     C57466   6.856   2.607   1.886 -0.3068  0.3917  0.5928
  417MOL0     O57467   6.719   2.590   1.909 -0.6547 -0.3915 -0.2062
  417MOL0     C57468   6.636   2.703   1.886 -0.2314 -0.2522 -0.3202
  417MOL0     C57469   6.581   2.766   2.005  0.0983 -0.1732 -0.2826
  417MOL0     C57470   6.466   2.677   2.068  0.1930 -0.2678  0.1472
  417MOL0     C57471   6.396   2.744   2.182  1.1493  0.0784 -0.3348
  417MOL0     C57472   6.302   2.644   2.247 -0.3538 -0.0503  1.8762
  417MOL0     C57473   6.227   2.563   2.300 -0.2218  0.3564  0.3565
  417MOL0     C57474   6.929   2.498   1.827 -0.8551  0.4243 -0.2085
  417MOL0     C57475   7.067   2.505   1.798  0.2923  0.3585 -0.3856
  417MOL0     C57476   7.129   2.391   1.747  0.1207  0.3324  0.4527
  417MOL0     H57477   7.585   2.612   1.736  0.6959  3.2754  1.1064
  417MOL0     H57478   7.813   2.583   1.841  0.1043  0.2594 -0.8812
  417MOL0     H57479   8.003   2.614   1.985  3.2599 -0.7890 -1.5044
  417MOL0     H57480   7.978   2.444   1.947  2.1256  0.8128 -0.9419
  417MOL0     H57481   8.053   2.562   2.203 -0.1678 -0.8859  1.5117
  417MOL0     H57482   8.056   2.386   2.171 -2.1904  0.0232 -1.7797
  417MOL0     H57483   8.214   2.490   1.966 -0.9079  0.3953 -0.0867
  417MOL0     H57484   8.265   2.598   2.094  0.4578 -0.9817  4.3384
  417MOL0     H57485   8.306   2.379   2.238 -2.6265 -4.9594  0.6603
  417MOL0     H57486   8.262   2.294   2.083 -1.1891  0.6168 -0.4249
  417MOL0     H57487   8.485   2.501   2.097 -1.5650  1.2058  0.8117
  417MOL0     H57488   8.454   2.384   1.968  0.7514 -1.2481  0.3007
  417MOL0     H57489   8.505   2.212   2.161 -0.9727 -0.4459 -1.9107
  417MOL0     H57490   8.645   2.294   2.090 -0.4708  1.4877  0.5508
  417MOL0     H57491   8.542   2.457   2.304 -0.0819 -0.2567  0.1741
  417MOL0     H57492   8.703   2.423   2.259  0.1827  0.6009 -0.0616
  417MOL0     H57493   8.506   2.212   2.381 -0.0486  2.1006 -3.5543
  417MOL0     H57494   8.691   2.207   2.376 -0.5449 -1.6366 -2.8798
  417MOL0     H57495   8.393   2.370   2.564  0.2639 -0.9611 -1.4416
  417MOL0     H57496   8.383   2.510   2.798  0.1265 -0.0267 -3.6935
  417MOL0     H57497   8.535   2.534   2.888 -2.4551 -1.1361  2.5351
  417MOL0     H57498   8.391   2.406   3.007  1.2189 -0.0884 -0.8057
  417MOL0     H57499   8.373   2.281   2.872  2.1451 -1.9745  1.0255
  417MOL0     H57500   8.633   2.254   2.922  1.4408  0.8853 -0.0296
  417MOL0     H57501   8.627   2.368   3.052  1.5673 -1.7705  0.9584
  417MOL0     H57502   8.489   2.242   3.190 -2.3932  0.5388 -0.9649
  417MOL0     H57503   8.446   2.127   3.063  0.7110 -0.3761 -1.6622
  417MOL0     H57504   8.870   1.995   3.095  2.4728 -0.0668 -0.9114
  417MOL0     H57505   9.164   2.019   3.279 -1.7909  0.3617  0.1471
  417MOL0     H57506   9.176   2.045   3.094 -0.7236 -2.1822 -1.6655
  417MOL0     H57507   9.076   1.926   3.161  2.9845 -1.6332  0.2941
  417MOL0     H57508   9.356   2.467   3.210  1.8073 -0.1666  0.7517
  417MOL0     H57509   9.565   2.550   3.290 -0.4039 -0.8550  0.4418
  417MOL0     H57510   9.716   2.482   3.442 -0.1332 -0.8551  1.7435
  417MOL0     H57511   9.772   2.641   3.391 -0.3671 -1.7584 -1.6372
  417MOL0     H57512   9.845   2.518   3.657 -2.7353  0.5981 -0.2469
  417MOL0     H57513   9.950   2.543   3.519  1.8085 -0.4047  1.6361
  417MOL0     H57514   9.813   2.782   3.665  1.2871 -1.0349  1.8403
  417MOL0     H57515   9.933   2.788   3.528 -0.0387  1.4834  0.7361
  417MOL0     H57516  10.093   2.671   3.682  0.0548  0.1324 -3.3055
  417MOL0     H57517   9.962   2.687   3.798  0.0244 -0.7982  0.2817
  417MOL0     H57518  10.141   2.895   3.664  2.8818  0.7278  2.4482
  417MOL0     H57519   9.971   2.945   3.700 -0.3762  0.4937  1.9868
  417MOL0     H57520  10.162   3.014   3.849 -1.0710  0.5980 -1.0947
  417MOL0     H57521  10.188   2.836   3.887  0.9941  0.7765 -0.9209
  417MOL0     H57522   9.961   2.839   3.989 -0.6216  0.6813  2.8943
  417MOL0     H57523   9.952   3.015   3.963 -0.5024 -0.7236  0.4009
  417MOL0     H57524   9.993   2.920   4.191 -0.8616  1.5547  0.4539
  417MOL0     H57525  10.095   3.045   4.128 -1.7233  0.4014 -2.3254
  417MOL0     H57526   9.398   2.657   3.670 -0.0696 -0.5283 -0.4172
  417MOL0     H57527   9.187   2.541   3.599 -1.4020 -0.6772 -1.0345
  417MOL0     H57528   8.898   2.422   3.336 -2.1880 -0.1756 -0.9694
  417MOL0     H57529   8.687   2.351   3.254 -2.1719 -2.7293  1.4811
  417MOL0     H57530   7.645   2.439   2.200  2.4504  0.7885  0.4044
  417MOL0     H57531   7.419   2.422   2.087  1.4532 -2.5897  1.2400
  417MOL0     H57532   7.114   2.819   1.907  0.8004 -0.5692 -0.9848
  417MOL0     H57533   6.879   2.822   1.927 -1.2131  0.1819 -0.2710
  417MOL0     H57534   6.687   2.783   1.830 -1.3923  0.6914 -0.0640
  417MOL0     H57535   6.563   2.670   1.811 -0.9324  2.5415 -1.0061
  417MOL0     H57536   6.552   2.871   1.998  0.6464 -0.0688 -1.0652
  417MOL0     H57537   6.658   2.772   2.084 -0.2016 -0.0094  0.0017
  417MOL0     H57538   6.387   2.649   1.998 -1.5672  1.5902  1.3075
  417MOL0     H57539   6.508   2.589   2.117 -0.4561 -0.2856  0.6831
  417MOL0     H57540   6.334   2.827   2.144 -2.5041 -2.7063 -1.0739
  417MOL0     H57541   6.461   2.781   2.261  1.8281  0.5942 -1.1203
  417MOL0     H57542   6.162   2.494   2.351  0.1210  0.9522  1.6260
  417MOL0     H57543   6.871   2.407   1.818 -2.8640  1.3002  2.5583
  417MOL0     H57544   7.211   2.404   1.676  1.4801  3.6426  2.3941
  417MOL0     H57545   7.153   2.335   1.837 -3.0115 -1.0203  0.5726
  417MOL0     H57546   7.050   2.334   1.697  2.3728 -2.3898 -0.2354
  418MOL0     O57547   3.541   0.153   5.848  0.0978  0.0140 -0.5691
  418MOL0     C57548   3.594   0.045   5.878  0.1702  0.6859 -0.2250
  418MOL0     O57549   3.700  -0.007   5.803 -0.7208  0.5380 -0.1854
  418MOL0     C57550   3.718   0.038   5.678  0.0885  0.6287  0.3148
  418MOL0     C57551   3.700  -0.059   5.575  0.1215  0.4718  0.4571
  418MOL0     C57552   3.723  -0.021   5.441 -0.4218 -0.0495 -0.2814
  418MOL0     C57553   3.766   0.109   5.407 -0.3594  0.0097 -0.2948
  418MOL0     O57554   3.813   0.137   5.284  0.8198 -0.4960  0.2285
  418MOL0     C57555   3.739   0.240   5.218 -0.5504 -0.0886  0.9229
  418MOL0     C57556   3.589   0.208   5.206  0.2516  0.4696  0.8980
  418MOL0     C57557   3.526   0.295   5.098 -0.6184 -0.6195  0.5590
  418MOL0     C57558   3.377   0.280   5.076 -1.4073  0.1724  0.2465
  418MOL0     C57559   3.323   0.373   4.957  0.3400  0.0871  0.4393
  418MOL0     C57560   3.170   0.351   4.932  0.0795 -0.3422  0.4451
  418MOL0     C57561   3.080   0.344   5.052 -0.5613 -0.5311 -0.7586
  418MOL0     C57562   3.093   0.461   5.148 -0.0834 -0.5851  0.2227
  418MOL0     N57563   3.055   0.587   5.073 -0.1739  0.3959  0.6103
  418MOL0     C57564   2.930   0.623   5.020 -0.0383  0.0058  0.1351
  418MOL0     C57565   2.952   0.739   4.963  0.0363  0.1129 -0.1993
  418MOL0     C57566   2.852   0.816   4.876  0.8534 -0.0524  0.0936
  418MOL0     C57567   2.808   0.739   4.759  0.2217 -0.4173  0.3387
  418MOL0     C57568   2.909   0.700   4.645  0.4484  0.0626  0.9380
  418MOL0     C57569   2.950   0.825   4.568 -1.0878  0.1752 -0.4811
  418MOL0     O57570   3.064   0.817   4.478  0.8401 -0.3626  0.5458
  418MOL0     C57571   3.193   0.820   4.510  0.0301 -0.1878 -0.1019
  418MOL0     C57572   3.249   0.812   4.641 -0.1891  0.2327  0.2370
  418MOL0     C57573   3.388   0.793   4.660 -0.8756  0.8062  0.0157
  418MOL0     C57574   3.427   0.754   4.799 -0.1011  0.4359  0.3894
  418MOL0     C57575   3.480   0.810   4.552  0.5647 -0.0774 -0.1923
  418MOL0     C57576   3.629   0.796   4.560  0.1180  0.7569 -0.0976
  418MOL0     O57577   3.696   0.820   4.447  0.2359 -0.0734  0.8593
  418MOL0     C57578   3.829   0.791   4.447 -0.8179 -0.4530 -0.6372
  418MOL0     C57579   3.876   0.672   4.393  0.1402  0.3657 -1.2163
  418MOL0     C57580   4.012   0.632   4.407 -0.6798 -0.5837 -0.0856
  418MOL0     C57581   4.115   0.717   4.470  0.4845 -0.4667  0.3218
  418MOL0     O57582   4.245   0.694   4.482 -0.1652 -0.4130 -0.1489
  418MOL0     C57583   4.294   0.573   4.423  0.0465 -0.4054 -0.3395
  418MOL0     C57584   4.451   0.569   4.435 -0.2547 -0.7294 -0.5411
  418MOL0     C57585   4.511   0.523   4.572  0.1276  0.6199  0.0034
  418MOL0     C57586   4.650   0.557   4.612  0.0519 -0.7995 -0.0800
  418MOL0     C57587   4.743   0.502   4.509  0.9176  0.1111 -0.4006
  418MOL0     C57588   4.880   0.559   4.535  0.5673  0.2842  0.2117
  418MOL0     C57589   4.977   0.513   4.422  0.2013 -0.2952 -0.1224
  418MOL0     C57590   5.084   0.613   4.396  0.3489 -0.1002  0.1539
  418MOL0    Cl57591   5.150   0.676   4.549  0.3293  0.0602 -0.1097
  418MOL0     C57592   4.068   0.841   4.510  0.6123 -0.6532  0.0571
  418MOL0     C57593   3.925   0.874   4.503 -0.3479 -0.3531 -0.7844
  418MOL0     O57594   3.674   0.750   4.666  0.1548  0.4079  0.4986
  418MOL0     C57595   3.423   0.836   4.422 -0.0879  0.1832 -0.9110
  418MOL0     C57596   3.285   0.829   4.403 -1.2674  0.1289  0.7465
  418MOL0     N57597   3.081   0.778   4.985 -0.1588  0.5651 -0.3335
  418MOL0     N57598   3.142   0.684   5.048 -0.0558  0.4383  0.6697
  418MOL0     C57599   3.787   0.197   5.509 -0.0722 -0.0566 -0.9098
  418MOL0     C57600   3.763   0.168   5.645 -0.4093 -0.1415  0.6826
  418MOL0     C57601   3.540  -0.022   5.998 -0.2234 -0.0086  0.1504
  418MOL0     C57602   3.636  -0.084   6.087 -0.2434 -0.6316  0.0668
  418MOL0     C57603   3.597  -0.130   6.216 -0.0878  0.0188 -0.2739
  418MOL0     C57604   3.465  -0.119   6.252  1.0121 -0.2667  0.5495
  418MOL0     O57605   3.443  -0.159   6.384  0.1554 -0.1219 -0.1921
  418MOL0     C57606   3.317  -0.210   6.416  0.6952  0.2274  0.0889
  418MOL0     C57607   3.329  -0.266   6.558  0.2076 -0.3011  0.5788
  418MOL0     C57608   3.210  -0.223   6.642 -0.6299  0.1532  0.1552
  418MOL0     C57609   3.073  -0.261   6.587 -0.2602  0.6572 -0.5461
  418MOL0     C57610   3.038  -0.408   6.585 -0.3466 -0.0704  0.2064
  418MOL0     C57611   3.025  -0.531   6.592  0.1960 -0.5830  0.1457
  418MOL0     C57612   3.366  -0.070   6.164  0.1175  0.1726  0.1204
  418MOL0     C57613   3.396  -0.023   6.037  0.3911  0.2605 -0.2624
  418MOL0     C57614   3.285   0.040   5.958 -0.9537  0.1804  0.8689
  418MOL0     H57615   3.669  -0.161   5.596  0.0757  0.6270  1.1824
  418MOL0     H57616   3.707  -0.094   5.362  5.3589 -1.6472 -0.4255
  418MOL0     H57617   3.772   0.251   5.114 -1.3601  0.2045  0.6889
  418MOL0     H57618   3.753   0.338   5.265  1.3376 -0.9335  2.2692
  418MOL0     H57619   3.580   0.102   5.181  0.3111  0.6876 -0.0923
  418MOL0     H57620   3.533   0.220   5.299  1.0791 -2.6434  1.9136
  418MOL0     H57621   3.544   0.397   5.133  0.5910 -1.2305  1.8236
  418MOL0     H57622   3.571   0.279   4.999 -1.0493  1.8639 -0.1015
  418MOL0     H57623   3.365   0.173   5.058 -0.3291 -0.2487  1.8089
  418MOL0     H57624   3.322   0.302   5.168  1.0783  1.0419  1.6141
  418MOL0     H57625   3.379   0.364   4.863 -0.4108  5.5051 -0.8772
  418MOL0     H57626   3.349   0.473   4.993  2.6160 -0.9170  1.7743
  418MOL0     H57627   3.130   0.427   4.864  1.2094 -0.9155 -0.9166
  418MOL0     H57628   3.155   0.254   4.883  0.2958 -0.0319 -0.2474
  418MOL0     H57629   3.102   0.250   5.104  1.9609  0.5473  0.3168
  418MOL0     H57630   2.974   0.343   5.028 -1.1762 -0.3885  1.7296
  418MOL0     H57631   3.034   0.436   5.237  1.0403 -1.8726  0.6438
  418MOL0     H57632   3.193   0.474   5.189  0.7000  0.8916 -1.9706
  418MOL0     H57633   2.841   0.561   5.020 -0.1528  0.1479 -1.1086
  418MOL0     H57634   2.891   0.912   4.842 -3.5380  1.0931 -2.4173
  418MOL0     H57635   2.773   0.853   4.942 -0.1944  0.4259 -1.3718
  418MOL0     H57636   2.757   0.651   4.798  1.6711 -1.0323  0.8874
  418MOL0     H57637   2.730   0.797   4.709 -0.5878 -0.2423  1.7520
  418MOL0     H57638   2.999   0.653   4.686  1.5278  0.3195 -1.0482
  418MOL0     H57639   2.856   0.631   4.579 -0.2637 -0.2847  1.8371
  418MOL0     H57640   2.868   0.847   4.499 -1.2290 -1.0958 -0.7242
  418MOL0     H57641   2.966   0.911   4.635 -2.7817  1.4375 -1.6027
  418MOL0     H57642   3.174   0.810   4.720  1.3211 -1.1635  1.7420
  418MOL0     H57643   3.345   0.760   4.871  1.6358  2.9626  2.3216
  418MOL0     H57644   3.503   0.810   4.853 -1.2908  0.2909  2.2951
  418MOL0     H57645   3.469   0.653   4.798 -0.6163  0.1910 -1.8255
  418MOL0     H57646   3.801   0.600   4.360  0.3373  0.7583 -2.5898
  418MOL0     H57647   4.026   0.535   4.359 -1.2836 -0.2140 -1.0378
  418MOL0     H57648   4.253   0.484   4.471  2.1638 -0.0860  2.3093
  418MOL0     H57649   4.264   0.574   4.318 -2.1343  2.8018  0.1639
  418MOL0     H57650   4.490   0.488   4.373  0.5980 -0.2235 -0.6739
  418MOL0     H57651   4.499   0.660   4.398  2.3768 -0.6314  2.6274
  418MOL0     H57652   4.510   0.415   4.593  3.8589  0.4707  0.0604
  418MOL0     H57653   4.457   0.579   4.649  0.0976 -0.1606  0.5635
  418MOL0     H57654   4.671   0.539   4.718  0.5381  1.5531  0.2850
  418MOL0     H57655   4.655   0.666   4.599  0.7828 -0.8804 -0.5636
  418MOL0     H57656   4.738   0.393   4.520  0.1834  0.0290 -1.3948
  418MOL0     H57657   4.708   0.515   4.406 -0.6707 -3.8339 -0.5532
  418MOL0     H57658   4.915   0.534   4.635  2.6609  1.8435 -0.0514
  418MOL0     H57659   4.866   0.668   4.534 -1.4451  0.0465  0.0376
  418MOL0     H57660   4.927   0.493   4.327 -1.2077  2.8288 -0.1715
  418MOL0     H57661   5.024   0.421   4.458 -0.0653 -0.0353  0.9340
  418MOL0     H57662   5.025   0.694   4.352 -0.6703  0.4474  2.3563
  418MOL0     H57663   5.156   0.562   4.332 -1.9300 -2.8243 -0.4333
  418MOL0     H57664   4.129   0.920   4.554 -2.6603  3.1130 -1.5250
  418MOL0     H57665   3.895   0.965   4.553  0.0226  0.8139 -2.5970
  418MOL0     H57666   3.475   0.833   4.327  0.9538 -0.6772 -0.3270
  418MOL0     H57667   3.245   0.825   4.302  2.3363  1.1372 -0.8890
  418MOL0     H57668   3.827   0.297   5.495 -3.6616  2.1162  2.2946
  418MOL0     H57669   3.786   0.236   5.726 -2.3302  2.5933 -0.8865
  418MOL0     H57670   3.737  -0.095   6.050  0.5851  1.9657  1.3551
  418MOL0     H57671   3.668  -0.174   6.285  0.0182  0.9691  0.2463
  418MOL0     H57672   3.242  -0.131   6.417 -0.1068 -0.5187  1.5158
  418MOL0     H57673   3.297  -0.286   6.340 -0.6638  0.8064 -0.1680
  418MOL0     H57674   3.415  -0.229   6.617 -1.1609 -0.6315  2.9125
  418MOL0     H57675   3.328  -0.375   6.547  0.4135 -0.2980  0.5075
  418MOL0     H57676   3.220  -0.255   6.746 -1.4236  1.3451  0.6203
  418MOL0     H57677   3.224  -0.115   6.648  0.0803  0.0104  1.8432
  418MOL0     H57678   3.044  -0.216   6.492  0.1605  2.2188  0.0388
  418MOL0     H57679   2.998  -0.238   6.663  0.4095 -1.9610  1.0401
  418MOL0     H57680   3.015  -0.638   6.595 -1.8545 -0.5348 -1.7988
  418MOL0     H57681   3.263  -0.077   6.198 -1.4454 -3.4031 -4.2547
  418MOL0     H57682   3.316   0.030   5.853  1.4112 -2.4224  1.6714
  418MOL0     H57683   3.195  -0.020   5.975  0.4283 -2.4800 -0.4929
  418MOL0     H57684   3.283   0.147   5.977  3.0114  0.6293 -0.2746
  419MOL0     O57685   8.858   9.502   7.572  0.8477 -0.8164  0.4856
  419MOL0     C57686   8.742   9.506   7.620 -0.5562  0.1099  0.4872
  419MOL0     O57687   8.710   9.560   7.744  0.6493 -0.1872 -0.3648
  419MOL0     C57688   8.815   9.600   7.821 -0.0585  0.2279  0.1382
  419MOL0     C57689   8.848   9.737   7.828  0.4700  0.8846 -0.7739
  419MOL0     C57690   8.951   9.775   7.909  0.4167 -0.1764 -0.0669
  419MOL0     C57691   9.023   9.683   7.985  0.5088  0.0387  0.2589
  419MOL0     O57692   9.121   9.715   8.082  0.0319 -0.1861  0.1402
  419MOL0     C57693   9.190   9.841   8.053  0.8456  0.0244  0.3537
  419MOL0     C57694   9.259   9.883   8.183 -0.2447  0.0791 -0.3909
  419MOL0     C57695   9.364  10.002   8.167 -0.2334  0.6728  0.5024
  419MOL0     C57696   9.460   9.995   8.285 -0.1854  0.0915  1.0038
  419MOL0     C57697   9.568  10.105   8.271 -0.3231 -0.1722  0.2643
  419MOL0     C57698   9.661  10.109   8.396 -0.1023  0.3221  0.4694
  419MOL0     C57699   9.757  10.230   8.401  0.0781  0.0156  1.4309
  419MOL0     C57700   9.880  10.221   8.495  0.1744 -0.1294  0.1287
  419MOL0     N57701   9.978  10.128   8.452 -0.1666  0.5473 -0.9424
  419MOL0     C57702  10.039  10.128   8.332  0.2592  0.3503  1.5343
  419MOL0     C57703  10.110  10.011   8.318  0.3703  1.0412  0.3400
  419MOL0     C57704  10.183   9.961   8.192 -0.0795 -0.0055  0.1275
  419MOL0     C57705  10.322   9.918   8.223  0.5401  0.8367  0.1189
  419MOL0     C57706  10.430  10.022   8.237 -0.5344 -0.2610 -0.7938
  419MOL0     C57707  10.562   9.961   8.281  0.0678 -0.2356 -0.6690
  419MOL0     O57708  10.633   9.888   8.189  0.1828  0.3528  0.1386
  419MOL0     C57709  10.734   9.803   8.220  0.7258 -0.3550  0.2922
  419MOL0     C57710  10.787   9.727   8.113 -0.9722 -0.2373 -0.7525
  419MOL0     C57711  10.894   9.634   8.129 -0.6553 -0.6906 -0.0028
  419MOL0     C57712  10.935   9.547   8.006  0.0176  0.8678  0.2854
  419MOL0     C57713  10.963   9.635   8.253 -0.9915 -0.4588 -0.4471
  419MOL0     C57714  11.090   9.559   8.276  0.7494 -0.3576  0.3605
  419MOL0     O57715  11.177   9.565   8.182 -0.3774  0.8225  0.2068
  419MOL0     C57716  11.296   9.499   8.198  0.7849 -0.2129 -0.3403
  419MOL0     C57717  11.376   9.536   8.306 -0.9733  0.0140  0.2272
  419MOL0     C57718  11.496   9.472   8.326  0.8656  0.3215 -0.4139
  419MOL0     C57719  11.544   9.367   8.237  0.4106 -0.2053 -0.3233
  419MOL0     O57720  11.669   9.316   8.252  0.2358  0.7404 -0.6609
  419MOL0     C57721  11.695   9.187   8.184 -0.5203 -0.3643  0.0572
  419MOL0     C57722  11.827   9.123   8.225 -0.8423 -1.0622 -0.4860
  419MOL0     C57723  11.954   9.208   8.178 -0.1739 -1.0632 -0.2316
  419MOL0     C57724  12.076   9.147   8.247 -0.1632  0.0417  0.7877
  419MOL0     C57725  12.207   9.203   8.192  0.9093 -0.1399  0.3499
  419MOL0     C57726  12.336   9.147   8.260 -0.9565 -0.2540 -0.1846
  419MOL0     C57727  12.463   9.188   8.171 -0.0741  1.3269 -0.1382
  419MOL0     C57728  12.509   9.328   8.177 -0.6569 -0.4711  0.0476
  419MOL0    Cl57729  12.642   9.356   8.054 -0.0915  0.1722 -0.1314
  419MOL0     C57730  11.458   9.331   8.132 -0.2208 -0.4080 -0.1181
  419MOL0     C57731  11.335   9.388   8.118 -0.4720 -1.0700  0.2952
  419MOL0     O57732  11.108   9.516   8.387  0.6756  0.4274 -0.3015
  419MOL0     C57733  10.906   9.709   8.359 -0.3085  0.3547  0.4571
  419MOL0     C57734  10.790   9.789   8.345  0.3952 -0.3551  0.4852
  419MOL0     N57735  10.094   9.947   8.438  1.2484 -0.5008 -0.1751
  419MOL0     N57736  10.012  10.014   8.513 -0.0751  0.3350  0.1966
  419MOL0     C57737   8.988   9.553   7.975  0.3217 -0.9213 -0.7595
  419MOL0     C57738   8.891   9.498   7.887  0.7224 -0.3361 -0.5429
  419MOL0     C57739   8.625   9.449   7.539 -0.4425 -0.3203 -0.9356
  419MOL0     C57740   8.498   9.441   7.605 -0.2346  0.2365 -0.1507
  419MOL0     C57741   8.381   9.387   7.545 -0.0552 -0.6257 -0.2649
  419MOL0     C57742   8.389   9.354   7.410  0.4113 -0.5835  1.2334
  419MOL0     O57743   8.269   9.307   7.357  0.3147  0.5881  0.2186
  419MOL0     C57744   8.217   9.372   7.243 -0.0735  1.2868  0.2745
  419MOL0     C57745   8.103   9.286   7.192  0.0563  0.0863  0.3766
  419MOL0     C57746   8.159   9.165   7.108  0.2235  0.0528 -0.7851
  419MOL0     C57747   8.038   9.099   7.022 -0.4790  0.3629 -0.1555
  419MOL0     C57748   8.067   8.959   6.996 -0.9753 -1.1702  0.2520
  419MOL0     C57749   8.082   8.839   6.972  0.4769  0.1816  0.1095
  419MOL0     C57750   8.511   9.359   7.343  0.1996  1.0167  0.3823
  419MOL0     C57751   8.629   9.400   7.407 -0.1020  0.7211 -1.1517
  419MOL0     C57752   8.756   9.415   7.327 -0.6100  0.6633 -0.6965
  419MOL0     H57753   8.784   9.811   7.782  0.2316  1.2153  0.0587
  419MOL0     H57754   8.967   9.883   7.909  0.9224 -0.2482 -0.8476
  419MOL0     H57755   9.116   9.919   8.033  0.8193  0.3590  1.6579
  419MOL0     H57756   9.253   9.830   7.964 -2.7918  1.5728 -2.6891
  419MOL0     H57757   9.183   9.911   8.257  0.0914  0.3181 -0.1310
  419MOL0     H57758   9.318   9.796   8.214  0.8944  1.1956  0.7130
  419MOL0     H57759   9.419   9.987   8.073 -0.3313 -2.5242  0.8320
  419MOL0     H57760   9.318  10.100   8.160 -0.7372  0.4201  0.2182
  419MOL0     H57761   9.405  10.007   8.379 -0.5353 -1.4714  1.0334
  419MOL0     H57762   9.509   9.897   8.278  1.0247  0.7254  0.3512
  419MOL0     H57763   9.509  10.197   8.268 -2.6998 -1.6004  0.1952
  419MOL0     H57764   9.628  10.093   8.180  0.5072  1.1761  0.6042
  419MOL0     H57765   9.609  10.097   8.492 -0.4156 -1.7135  0.0856
  419MOL0     H57766   9.721  10.018   8.388 -1.5647 -0.6196 -0.2267
  419MOL0     H57767   9.699  10.321   8.419 -1.9700 -1.0042  0.2399
  419MOL0     H57768   9.798  10.234   8.300  2.1359  0.5824  2.2372
  419MOL0     H57769   9.931  10.318   8.496 -0.5073  0.2495  1.6833
  419MOL0     H57770   9.840  10.192   8.593 -0.3848  0.8936  0.2188
  419MOL0     H57771  10.023  10.199   8.252 -1.0049 -2.7042 -1.1316
  419MOL0     H57772  10.189  10.043   8.119 -0.6015 -0.1106 -0.0359
  419MOL0     H57773  10.113   9.897   8.138 -1.6603  1.0353  0.8761
  419MOL0     H57774  10.309   9.872   8.322 -1.1633 -1.7040 -1.1875
  419MOL0     H57775  10.351   9.835   8.158  0.3268  0.7336  0.1557
  419MOL0     H57776  10.454  10.066   8.140  3.8728 -2.0633 -0.7577
  419MOL0     H57777  10.400  10.096   8.311  1.4915  0.5454 -0.7148
  419MOL0     H57778  10.628  10.044   8.305 -3.4641  2.5616  0.2890
  419MOL0     H57779  10.529   9.904   8.369 -2.0669 -1.0352 -1.8941
  419MOL0     H57780  10.743   9.721   8.014  0.7416 -0.4209 -1.5258
  419MOL0     H57781  11.037   9.574   7.980  0.5271 -2.6776 -1.9997
  419MOL0     H57782  10.876   9.566   7.916 -3.0227  1.6580  2.2978
  419MOL0     H57783  10.943   9.440   8.024 -2.1839  0.4883 -0.6644
  419MOL0     H57784  11.340   9.613   8.374 -1.8022  0.1402 -0.3472
  419MOL0     H57785  11.541   9.503   8.420 -0.6647  1.6898 -0.0977
  419MOL0     H57786  11.620   9.109   8.201 -1.2866  0.2991 -0.2583
  419MOL0     H57787  11.706   9.206   8.077  0.8519 -0.4840  0.1508
  419MOL0     H57788  11.833   9.125   8.334 -0.0368  0.3595 -0.5265
  419MOL0     H57789  11.816   9.024   8.181 -2.3487 -1.4671  0.7403
  419MOL0     H57790  11.957   9.315   8.203  2.4174 -1.2182  0.4445
  419MOL0     H57791  11.971   9.195   8.071  1.1379  1.1897 -0.3672
  419MOL0     H57792  12.076   9.041   8.220  2.2732  0.3621 -0.7523
  419MOL0     H57793  12.083   9.163   8.355 -0.1215  2.1720  0.5105
  419MOL0     H57794  12.211   9.175   8.086  3.8295 -2.3435  0.9136
  419MOL0     H57795  12.198   9.311   8.203  1.0001  0.0325 -1.1172
  419MOL0     H57796  12.331   9.038   8.271 -0.7713 -0.1284  1.2790
  419MOL0     H57797  12.352   9.185   8.361  0.9860  2.6690 -1.4649
  419MOL0     H57798  12.441   9.152   8.070  1.3698 -1.7281  0.5100
  419MOL0     H57799  12.541   9.119   8.204 -1.1121 -0.5610 -1.4241
  419MOL0     H57800  12.540   9.354   8.279  1.9023 -1.2652 -0.4656
  419MOL0     H57801  12.423   9.392   8.154  0.1505  0.0742 -1.5476
  419MOL0     H57802  11.480   9.251   8.062 -0.0768 -1.3786  1.0083
  419MOL0     H57803  11.261   9.371   8.040 -0.1082 -0.0993 -0.2787
  419MOL0     H57804  10.969   9.705   8.447  0.2418 -1.8376  0.0142
  419MOL0     H57805  10.746   9.844   8.427 -0.5886 -0.5475  0.1026
  419MOL0     H57806   9.047   9.478   8.026  0.8727  0.9659  1.5368
  419MOL0     H57807   8.881   9.391   7.873  1.2795 -0.4829  0.0961
  419MOL0     H57808   8.491   9.476   7.707  0.9648  1.6686 -0.5128
  419MOL0     H57809   8.279   9.376   7.582  0.0491 -2.3252 -0.4080
  419MOL0     H57810   8.178   9.467   7.282 -0.4291  1.2995 -0.1100
  419MOL0     H57811   8.289   9.399   7.165 -1.1843  0.4435 -1.0798
  419MOL0     H57812   8.041   9.344   7.123 -0.6619  1.6650  2.2678
  419MOL0     H57813   8.043   9.268   7.281  0.1422  1.9366  0.8547
  419MOL0     H57814   8.237   9.207   7.044  1.4431 -1.0472 -0.0736
  419MOL0     H57815   8.205   9.093   7.176  2.0797  1.8745  0.0271
  419MOL0     H57816   8.031   9.158   6.930  0.0240 -0.1838 -0.5476
  419MOL0     H57817   7.947   9.108   7.081  1.0123  0.3041  2.3102
  419MOL0     H57818   8.082   8.736   6.942 -1.4956  0.6272 -1.6637
  419MOL0     H57819   8.515   9.332   7.238 -1.2508 -0.7326  0.7269
  419MOL0     H57820   8.784   9.521   7.327 -1.3434  0.8630 -0.7923
  419MOL0     H57821   8.834   9.357   7.376  0.3986  2.1409 -0.4780
  419MOL0     H57822   8.738   9.391   7.222 -1.3144  1.5457 -0.7985
  420MOL0     O57823   5.023   0.306  11.223 -0.2207  0.1187 -0.3106
  420MOL0     C57824   4.965   0.409  11.246 -0.0662  0.3667  0.6194
  420MOL0     O57825   5.007   0.530  11.214 -0.5702 -0.0214  0.3425
  420MOL0     C57826   5.134   0.544  11.163  0.4315  0.3039  0.0368
  420MOL0     C57827   5.142   0.596  11.034 -1.6564 -0.0113  0.0912
  420MOL0     C57828   5.267   0.606  10.973 -0.6318  0.7166 -0.7013
  420MOL0     C57829   5.383   0.574  11.039  0.0033 -0.7783  0.0612
  420MOL0     O57830   5.505   0.577  10.979 -0.0603  0.5791  0.1898
  420MOL0     C57831   5.538   0.611  10.843  0.3722 -0.0402 -0.1548
  420MOL0     C57832   5.684   0.600  10.816  0.2099 -0.1224 -0.1870
  420MOL0     C57833   5.738   0.459  10.796  0.4387  0.0979 -0.2852
  420MOL0     C57834   5.891   0.458  10.757  0.4742 -0.8493 -0.0723
  420MOL0     C57835   5.927   0.327  10.701 -0.2091 -0.0138  0.0433
  420MOL0     C57836   6.072   0.315  10.665 -0.2899 -0.4251 -0.1865
  420MOL0     C57837   6.107   0.180  10.609  0.4678 -0.6167 -0.1246
  420MOL0     C57838   6.132   0.077  10.722  0.0335 -0.4647 -0.6076
  420MOL0     N57839   6.268   0.064  10.763  0.4076  0.7242 -0.2490
  420MOL0     C57840   6.377   0.065  10.677  0.0359 -0.6019 -0.0184
  420MOL0     C57841   6.473   0.033  10.763  0.1865 -0.5910  0.7978
  420MOL0     C57842   6.619   0.020  10.731  0.6623  0.1916 -0.0061
  420MOL0     C57843   6.680   0.167  10.745  0.0235 -0.1937 -0.5689
  420MOL0     C57844   6.818   0.175  10.683  0.0665 -0.0830 -0.2762
  420MOL0     C57845   6.917   0.060  10.731 -0.1247 -0.0259 -0.6058
  420MOL0     O57846   6.945   0.079  10.871  0.1942 -0.4696  0.0931
  420MOL0     C57847   7.063   0.046  10.919 -0.0273  0.0178 -0.5865
  420MOL0     C57848   7.144  -0.056  10.864 -0.6795 -0.8983  0.1843
  420MOL0     C57849   7.275  -0.084  10.917  0.1517 -0.5082 -0.1376
  420MOL0     C57850   7.349  -0.187  10.842  0.0017 -0.5372 -0.4843
  420MOL0     C57851   7.320  -0.007  11.022 -0.4012 -1.0495 -0.4886
  420MOL0     C57852   7.463  -0.004  11.080 -0.4229 -0.8809 -0.1405
  420MOL0     O57853   7.492   0.076  11.187  0.0687 -0.0988 -0.2708
  420MOL0     C57854   7.611   0.071  11.255 -0.8347 -0.2663 -0.2816
  420MOL0     C57855   7.670   0.178  11.321 -0.0160 -0.8323  0.0280
  420MOL0     C57856   7.778   0.173  11.415  0.1397 -1.1409  0.6681
  420MOL0     C57857   7.832   0.049  11.446 -0.6314  1.1278  0.0296
  420MOL0     O57858   7.924   0.025  11.547 -0.6376 -0.0471  0.3399
  420MOL0     C57859   8.030   0.129  11.566 -0.5843  0.0614  0.1503
  420MOL0     C57860   8.110   0.143  11.436 -0.0864 -0.2475  0.0261
  420MOL0     C57861   8.216   0.033  11.416 -0.1843  0.3486 -0.5051
  420MOL0     C57862   8.164  -0.114  11.417 -0.1478 -1.3236 -0.5411
  420MOL0     C57863   8.249  -0.223  11.345  0.4886  0.1327 -0.2046
  420MOL0     C57864   8.382  -0.249  11.407  0.7273  0.4872  0.4996
  420MOL0     C57865   8.476  -0.332  11.308  0.6646  0.1980  0.3967
  420MOL0     C57866   8.429  -0.486  11.322 -0.2591  0.0504  0.0386
  420MOL0    Cl57867   8.535  -0.560  11.200 -0.2976 -0.0014  0.0588
  420MOL0     C57868   7.780  -0.062  11.376  0.9115 -0.4334  0.2580
  420MOL0     C57869   7.673  -0.051  11.281  0.1563 -0.4123 -0.1363
  420MOL0     O57870   7.548  -0.062  11.014  0.6937 -0.4542  0.3288
  420MOL0     C57871   7.232   0.079  11.083  0.7590 -0.3216  0.4918
  420MOL0     C57872   7.103   0.108  11.036 -0.3793 -0.1484  0.3576
  420MOL0     N57873   6.431   0.012  10.891  0.2723 -0.3185  0.9745
  420MOL0     N57874   6.309   0.033  10.892  0.1559 -0.3884  0.0949
  420MOL0     C57875   5.378   0.532  11.169 -0.0008 -0.6502  0.4626
  420MOL0     C57876   5.252   0.505  11.230  0.2878  1.0248  1.2278
  420MOL0     C57877   4.837   0.393  11.315 -0.2290 -0.7411  0.7756
  420MOL0     C57878   4.808   0.291  11.402  0.7496 -0.2164 -0.9582
  420MOL0     C57879   4.684   0.278  11.456 -0.0536 -0.0605 -0.0679
  420MOL0     C57880   4.589   0.381  11.436 -0.8203  0.0948 -0.7132
  420MOL0     O57881   4.461   0.368  11.486  0.1497 -0.3849  0.2119
  420MOL0     C57882   4.352   0.364  11.392  1.0036 -0.0630 -0.7422
  420MOL0     C57883   4.336   0.210  11.336  0.0521 -0.0940  0.1028
  420MOL0     C57884   4.242   0.208  11.211 -0.8966 -0.0940 -0.7744
  420MOL0     C57885   4.234   0.069  11.159 -0.2639 -0.4279 -0.0984
  420MOL0     C57886   4.130   0.058  11.056  0.4748 -0.6459 -0.2133
  420MOL0     C57887   4.045   0.055  10.973  0.1827  0.1644 -0.9648
  420MOL0     C57888   4.625   0.481  11.350 -0.2975 -0.5440 -0.7190
  420MOL0     C57889   4.742   0.490  11.291 -0.1275 -0.2125  0.6727
  420MOL0     C57890   4.742   0.594  11.171  0.2279  0.5037 -0.1555
  420MOL0     H57891   5.052   0.633  10.986 -0.7361  0.7569 -1.0960
  420MOL0     H57892   5.280   0.637  10.870  2.8899  0.1368 -0.5782
  420MOL0     H57893   5.498   0.711  10.823 -0.7108 -1.0650 -3.9321
  420MOL0     H57894   5.477   0.554  10.773 -1.2614  3.4458 -1.8455
  420MOL0     H57895   5.707   0.651  10.721  0.1477  0.0899 -0.0890
  420MOL0     H57896   5.736   0.653  10.896  2.3900 -0.9608 -0.9740
  420MOL0     H57897   5.721   0.404  10.889  1.0324  0.1424 -0.1487
  420MOL0     H57898   5.682   0.400  10.722  1.3220  0.1114 -0.9786
  420MOL0     H57899   5.912   0.536  10.684 -0.6775 -0.2272  0.2257
  420MOL0     H57900   5.940   0.490  10.850 -1.3119 -0.3915  0.7552
  420MOL0     H57901   5.870   0.307  10.610 -1.1343  1.1231  0.3554
  420MOL0     H57902   5.906   0.254  10.781  0.6942 -0.5934 -0.2318
  420MOL0     H57903   6.097   0.396  10.595 -1.8842  0.3766  0.1332
  420MOL0     H57904   6.135   0.339  10.751 -3.1616 -0.7950  2.1766
  420MOL0     H57905   6.194   0.195  10.545  0.7550  1.1334  0.6066
  420MOL0     H57906   6.036   0.139  10.537  0.2940  0.8642 -0.8449
  420MOL0     H57907   6.076   0.098  10.813  1.2443  1.3553 -0.2208
  420MOL0     H57908   6.106  -0.017  10.673 -0.6311 -0.0111 -1.1426
  420MOL0     H57909   6.386   0.079  10.569  0.2349 -0.4234  0.0216
  420MOL0     H57910   6.615  -0.011  10.626 -1.6897 -3.4081  0.9862
  420MOL0     H57911   6.670  -0.055  10.792 -0.1542  0.6736  1.3208
  420MOL0     H57912   6.614   0.239  10.696 -0.3183 -0.6525 -0.7960
  420MOL0     H57913   6.688   0.189  10.852 -1.2703  1.7572 -0.8220
  420MOL0     H57914   6.811   0.160  10.575  1.9979 -2.3949 -0.1638
  420MOL0     H57915   6.867   0.270  10.703 -2.7255  1.4704 -0.3976
  420MOL0     H57916   6.878  -0.041  10.713  0.2645  0.0648 -2.1569
  420MOL0     H57917   7.012   0.065  10.676 -0.5149 -2.7240 -1.6490
  420MOL0     H57918   7.105  -0.118  10.784 -0.5494  1.2070 -1.6167
  420MOL0     H57919   7.285  -0.250  10.781 -0.1792 -0.7531 -0.0703
  420MOL0     H57920   7.407  -0.256  10.904  3.0647 -0.6305 -3.1924
  420MOL0     H57921   7.427  -0.137  10.783 -1.1269  3.2086  0.8508
  420MOL0     H57922   7.627   0.270  11.284 -1.6427 -2.1475 -1.5088
  420MOL0     H57923   7.811   0.266  11.461  3.7503 -0.7945 -2.1508
  420MOL0     H57924   7.990   0.226  11.598  2.0883  1.5003 -0.5840
  420MOL0     H57925   8.095   0.095  11.647  0.1501  1.4414  0.1750
  420MOL0     H57926   8.037   0.151  11.355 -2.0435 -4.1504  1.1216
  420MOL0     H57927   8.174   0.230  11.452  0.2391 -0.5737  0.5425
  420MOL0     H57928   8.297   0.043  11.489 -0.6780 -1.9838  0.4754
  420MOL0     H57929   8.274   0.055  11.327  0.3839 -0.1156 -0.2609
  420MOL0     H57930   8.071  -0.116  11.359  0.9804 -1.4198 -2.4355
  420MOL0     H57931   8.134  -0.131  11.521  3.1629  1.7026  1.1119
  420MOL0     H57932   8.188  -0.313  11.336 -0.8989  1.1400 -1.3495
  420MOL0     H57933   8.273  -0.191  11.243  0.0445 -3.2660 -1.5138
  420MOL0     H57934   8.366  -0.292  11.506 -1.5477  1.8451  0.8150
  420MOL0     H57935   8.429  -0.152  11.427  1.0391  1.0792 -2.5289
  420MOL0     H57936   8.578  -0.325  11.347  0.9810  0.4795 -0.4772
  420MOL0     H57937   8.463  -0.290  11.208 -0.7842  0.2286  0.5712
  420MOL0     H57938   8.324  -0.502  11.295 -0.8051  2.7120  0.2787
  420MOL0     H57939   8.440  -0.528  11.422  1.2874  1.0419  0.3250
  420MOL0     H57940   7.839  -0.153  11.378  1.8313  0.1261 -0.1998
  420MOL0     H57941   7.638  -0.143  11.234  2.3254 -1.0350 -0.6519
  420MOL0     H57942   7.261   0.128  11.175 -2.8899 -2.2913  2.9368
  420MOL0     H57943   7.045   0.179  11.094  0.6716 -0.5471  1.9451
  420MOL0     H57944   5.471   0.510  11.220  1.3417  1.3997 -0.9717
  420MOL0     H57945   5.234   0.465  11.329 -1.9918 -0.3377  0.3437
  420MOL0     H57946   4.873   0.213  11.443 -1.4098 -2.0700 -0.8379
  420MOL0     H57947   4.656   0.194  11.519 -2.2549  2.1062  2.1292
  420MOL0     H57948   4.265   0.384  11.454  1.7036 -1.0775  0.6308
  420MOL0     H57949   4.372   0.436  11.312  1.1632  2.0802  1.1242
  420MOL0     H57950   4.306   0.147  11.421 -1.1122 -2.7946 -2.1251
  420MOL0     H57951   4.434   0.173  11.304 -0.3234  0.6913 -2.1247
  420MOL0     H57952   4.147   0.260  11.229 -0.4578  0.3844  0.2655
  420MOL0     H57953   4.298   0.269  11.140  1.2520 -1.3276 -0.2247
  420MOL0     H57954   4.216  -0.005  11.237  0.3989 -0.6002 -0.0989
  420MOL0     H57955   4.331   0.041  11.115  0.6595 -1.9263  2.6578
  420MOL0     H57956   3.969   0.065  10.898  0.6604  2.3638 -1.2282
  420MOL0     H57957   4.547   0.553  11.329  0.5749  0.2450 -1.3305
  420MOL0     H57958   4.644   0.641  11.164 -0.1914 -0.5391 -1.9856
  420MOL0     H57959   4.816   0.674  11.180  0.1712  0.8681 -2.4178
  420MOL0     H57960   4.762   0.539  11.078 -0.6517  2.4372 -1.5663
  421MOL0     O57961   8.348   4.941   8.332  0.0475  0.2022 -0.3848
  421MOL0     C57962   8.253   4.940   8.407  0.2077 -0.0786 -0.6329
  421MOL0     O57963   8.243   4.917   8.545  0.7514  0.0696 -0.0252
  421MOL0     C57964   8.351   4.861   8.605 -0.2220 -0.2501  0.4719
  421MOL0     C57965   8.463   4.939   8.640  0.8762  0.6057  0.4701
  421MOL0     C57966   8.560   4.883   8.716 -0.0364  0.5607  0.0652
  421MOL0     C57967   8.567   4.742   8.740 -0.2219 -0.3254  0.1303
  421MOL0     O57968   8.688   4.688   8.793 -0.8643  0.0668  0.3249
  421MOL0     C57969   8.731   4.572   8.711 -0.6181 -0.1476  0.8733
  421MOL0     C57970   8.880   4.562   8.714  0.8608  0.1804 -0.1581
  421MOL0     C57971   8.952   4.550   8.845 -0.3302 -0.3986  0.0238
  421MOL0     C57972   9.097   4.511   8.827  0.3001 -0.6324 -0.0268
  421MOL0     C57973   9.158   4.505   8.974  0.2214 -0.2442  0.6024
  421MOL0     C57974   9.306   4.475   8.977 -0.7226 -0.0579  0.1160
  421MOL0     C57975   9.381   4.508   9.103 -1.0982  0.0137  0.5761
  421MOL0     C57976   9.513   4.421   9.123  0.3093 -0.1411 -0.1410
  421MOL0     N57977   9.607   4.430   9.012 -0.0025  0.3777 -0.1176
  421MOL0     C57978   9.667   4.544   8.954 -0.4070  0.0532 -0.2900
  421MOL0     C57979   9.735   4.494   8.846 -0.1886 -0.3243 -0.2962
  421MOL0     C57980   9.810   4.579   8.739  0.2748  0.0283  0.1360
  421MOL0     C57981   9.962   4.596   8.754 -0.1140 -0.0417  0.4697
  421MOL0     C57982  10.039   4.462   8.748 -0.5075  0.1836 -0.0628
  421MOL0     C57983  10.186   4.492   8.717 -1.2182  0.0828  0.1562
  421MOL0     O57984  10.195   4.542   8.584 -0.2449  0.5496 -0.0959
  421MOL0     C57985  10.315   4.572   8.521 -0.0046  0.9058  0.0188
  421MOL0     C57986  10.307   4.588   8.385  0.0736 -0.3406  0.8348
  421MOL0     C57987  10.416   4.635   8.310 -0.3239  0.1390 -0.8364
  421MOL0     C57988  10.398   4.671   8.169  0.3330  0.0736  1.3341
  421MOL0     C57989  10.539   4.651   8.372 -0.5099 -0.2875 -0.8728
  421MOL0     C57990  10.657   4.684   8.295 -0.9248  0.4351 -0.3946
  421MOL0     O57991  10.773   4.606   8.323  0.3702 -0.1435 -0.0183
  421MOL0     C57992  10.884   4.665   8.278 -1.0930  0.5003 -0.5339
  421MOL0     C57993  10.993   4.690   8.363  0.6976 -0.4611  0.2184
  421MOL0     C57994  11.113   4.746   8.315  0.5102  0.2136 -0.2697
  421MOL0     C57995  11.131   4.764   8.177  1.0939 -0.4303  0.5484
  421MOL0     O57996  11.260   4.812   8.140 -0.0885  0.6741  0.3468
  421MOL0     C57997  11.299   4.784   8.003  1.1616  0.3363 -0.4519
  421MOL0     C57998  11.447   4.783   7.989 -0.4844  0.6794  0.0396
  421MOL0     C57999  11.511   4.650   8.042  0.0902  0.1297  0.1089
  421MOL0     C58000  11.654   4.623   7.982  0.4220 -0.2839 -0.4808
  421MOL0     C58001  11.716   4.495   8.040 -0.3225 -0.6182  0.6307
  421MOL0     C58002  11.846   4.460   7.975  0.5280 -0.2990  0.3140
  421MOL0     C58003  11.827   4.435   7.823 -0.2759  0.0823  0.3832
  421MOL0     C58004  11.947   4.369   7.760 -0.8581 -0.6858  0.3454
  421MOL0    Cl58005  11.970   4.210   7.825 -0.1058 -0.0396  0.1464
  421MOL0     C58006  11.026   4.733   8.082  0.1197 -0.4750 -0.4429
  421MOL0     C58007  10.905   4.679   8.138  1.1209 -0.0501 -0.2549
  421MOL0     O58008  10.653   4.792   8.230 -0.0467 -0.4831  0.0250
  421MOL0     C58009  10.552   4.633   8.513 -0.0518  0.0904 -0.0095
  421MOL0     C58010  10.434   4.597   8.586 -0.2005  0.5325  0.4940
  421MOL0     N58011   9.720   4.357   8.841  0.3185 -0.1509 -0.2946
  421MOL0     N58012   9.652   4.320   8.940 -0.0969  0.1785 -0.7045
  421MOL0     C58013   8.457   4.666   8.704 -0.1791 -0.3921 -0.7036
  421MOL0     C58014   8.351   4.722   8.634  0.2655  0.2997  0.4132
  421MOL0     C58015   8.124   4.971   8.338  0.6517  0.5641  0.6429
  421MOL0     C58016   8.136   5.070   8.235  0.9221  0.6851 -0.4803
  421MOL0     C58017   8.016   5.113   8.167  0.4448  0.8534 -0.8789
  421MOL0     C58018   7.891   5.060   8.202  0.3359  0.0401  0.0868
  421MOL0     O58019   7.771   5.091   8.143 -0.6404  0.1780 -0.6633
  421MOL0     C58020   7.757   5.224   8.095 -0.5552 -0.2380 -0.2842
  421MOL0     C58021   7.621   5.236   8.034  0.2464 -0.9007 -0.8642
  421MOL0     C58022   7.570   5.384   8.018  0.7236  0.0545  0.0246
  421MOL0     C58023   7.428   5.395   7.961  0.5467 -0.1798 -0.0351
  421MOL0     C58024   7.389   5.538   7.966  0.5051  0.0529  0.3734
  421MOL0     C58025   7.348   5.652   7.968  0.0174 -0.1482  0.2083
  421MOL0     C58026   7.884   4.959   8.297  0.9496  0.6005 -0.3174
  421MOL0     C58027   7.997   4.912   8.371  0.0108 -0.1972 -0.0507
  421MOL0     C58028   7.977   4.799   8.465  0.6325  0.1028  0.7247
  421MOL0     H58029   8.450   5.045   8.619 -4.0541  0.2600  0.6307
  421MOL0     H58030   8.636   4.946   8.761 -0.1408 -0.3436  1.5555
  421MOL0     H58031   8.691   4.573   8.609  1.1700  0.6876  0.1405
  421MOL0     H58032   8.695   4.475   8.747  0.3425 -0.9156 -0.1451
  421MOL0     H58033   8.902   4.474   8.652  3.8109  2.6877 -3.0779
  421MOL0     H58034   8.915   4.648   8.657 -1.7226  0.5882 -1.2308
  421MOL0     H58035   8.936   4.640   8.906 -2.1842  0.7008 -1.9220
  421MOL0     H58036   8.902   4.468   8.897  0.1919 -0.7862 -0.0788
  421MOL0     H58037   9.109   4.411   8.785  2.5415 -0.0802 -0.8290
  421MOL0     H58038   9.149   4.582   8.763 -1.7598 -0.1801 -1.2953
  421MOL0     H58039   9.106   4.420   9.019  0.2707 -1.2185 -1.1112
  421MOL0     H58040   9.135   4.603   9.017 -1.0784 -0.2033 -0.1147
  421MOL0     H58041   9.308   4.366   8.968  0.0608 -0.0282 -0.2328
  421MOL0     H58042   9.355   4.518   8.889  2.1090  1.2160  2.1718
  421MOL0     H58043   9.327   4.506   9.198  2.9953  1.9413  3.2426
  421MOL0     H58044   9.408   4.613   9.097 -2.3129  0.4158  1.8492
  421MOL0     H58045   9.570   4.463   9.206 -1.3955  4.2908 -0.9448
  421MOL0     H58046   9.500   4.313   9.137 -1.0892  0.3387  3.2214
  421MOL0     H58047   9.641   4.648   8.966  0.1433  0.0830  0.7248
  421MOL0     H58048   9.772   4.681   8.735  2.2021  0.7422 -1.5426
  421MOL0     H58049   9.796   4.538   8.639  1.9601 -1.5265  0.4794
  421MOL0     H58050   9.991   4.662   8.672  1.8651  0.3572  1.4346
  421MOL0     H58051   9.998   4.643   8.846  1.5082 -0.6674  0.2012
  421MOL0     H58052  10.032   4.427   8.851  0.9080 -0.7270 -0.2423
  421MOL0     H58053  10.001   4.386   8.680 -2.3757  0.2732  0.8192
  421MOL0     H58054  10.227   4.568   8.784 -0.7701  0.0272 -0.0466
  421MOL0     H58055  10.255   4.407   8.725 -1.0566 -0.0988 -2.3225
  421MOL0     H58056  10.211   4.574   8.337 -1.1373  1.7780  2.4399
  421MOL0     H58057  10.482   4.624   8.116  0.6685 -1.4910  3.1485
  421MOL0     H58058  10.397   4.778   8.147  1.6556 -0.3069 -1.0227
  421MOL0     H58059  10.308   4.627   8.126  1.5820 -1.3884  0.0677
  421MOL0     H58060  10.971   4.655   8.464  1.3455 -1.9163 -0.1052
  421MOL0     H58061  11.200   4.761   8.378  1.7852 -2.0350 -1.3438
  421MOL0     H58062  11.257   4.690   7.966  0.5580  0.6980 -0.7041
  421MOL0     H58063  11.263   4.861   7.934  1.1806  0.6966 -0.0644
  421MOL0     H58064  11.473   4.780   7.883 -0.8897 -0.0281 -0.0480
  421MOL0     H58065  11.487   4.871   8.039 -2.2664  1.3255  0.4041
  421MOL0     H58066  11.451   4.561   8.022 -0.9118  0.9775 -0.7660
  421MOL0     H58067  11.536   4.662   8.148  0.3855 -1.8693  0.3042
  421MOL0     H58068  11.720   4.706   8.010  0.0167  0.2493 -1.0730
  421MOL0     H58069  11.658   4.625   7.873  1.2158 -0.1545 -0.4559
  421MOL0     H58070  11.730   4.528   8.144 -3.5425  2.6278  0.2131
  421MOL0     H58071  11.645   4.412   8.036 -2.1776  0.9760 -1.9767
  421MOL0     H58072  11.880   4.370   8.028 -2.1263 -1.4018  0.3224
  421MOL0     H58073  11.916   4.543   7.990 -0.3958  0.7128 -0.7825
  421MOL0     H58074  11.814   4.535   7.780  1.6054  1.3915  2.5745
  421MOL0     H58075  11.737   4.376   7.805  0.7016 -1.3124 -0.0943
  421MOL0     H58076  12.030   4.437   7.776 -2.0713  1.2345 -1.0585
  421MOL0     H58077  11.932   4.360   7.652 -0.1799  2.6504 -0.1388
  421MOL0     H58078  11.028   4.737   7.974  1.6038  0.9509 -0.3992
  421MOL0     H58079  10.825   4.641   8.075  0.8905  0.6236 -0.3780
  421MOL0     H58080  10.645   4.654   8.564 -0.4600  1.2601  0.2821
  421MOL0     H58081  10.439   4.591   8.694 -2.0279  0.9534  0.6373
  421MOL0     H58082   8.463   4.559   8.714 -0.0668 -0.1994  1.7559
  421MOL0     H58083   8.268   4.663   8.598 -0.4151  1.4535  0.0284
  421MOL0     H58084   8.228   5.115   8.198  1.3356 -0.5815 -1.0608
  421MOL0     H58085   8.021   5.171   8.075  0.3955 -1.0312 -2.1098
  421MOL0     H58086   7.780   5.297   8.173  2.1134 -0.3598 -0.8807
  421MOL0     H58087   7.833   5.242   8.019 -0.9375 -0.2597 -0.6736
  421MOL0     H58088   7.551   5.183   8.100  0.6718 -0.8726 -0.3765
  421MOL0     H58089   7.615   5.186   7.937  1.0007 -3.3471  0.2524
  421MOL0     H58090   7.572   5.431   8.116  4.6367  3.6753 -1.4786
  421MOL0     H58091   7.633   5.445   7.952  0.1140 -1.1661 -1.7929
  421MOL0     H58092   7.360   5.336   8.023 -2.6613  2.0762 -1.1668
  421MOL0     H58093   7.417   5.360   7.858 -1.7925 -3.4566  1.1381
  421MOL0     H58094   7.309   5.749   7.994 -2.6440 -0.6110 -1.6500
  421MOL0     H58095   7.789   4.919   8.329  1.3206  0.2415  0.3603
  421MOL0     H58096   7.879   4.752   8.461  0.4406  0.1804  3.0111
  421MOL0     H58097   8.052   4.722   8.445  0.6021  0.5048 -1.0367
  421MOL0     H58098   7.993   4.836   8.567  2.9247 -1.1274  0.8748
  422MOL0     O58099   2.152   3.366   3.762  1.0604  0.1610  0.1453
  422MOL0     C58100   2.147   3.455   3.851  0.4531  0.5774 -0.8390
  422MOL0     O58101   2.254   3.520   3.904 -0.6862 -0.0370 -0.5305
  422MOL0     C58102   2.372   3.543   3.826 -0.3164 -0.3499  0.2445
  422MOL0     C58103   2.476   3.597   3.899 -0.6518  0.0371 -0.2153
  422MOL0     C58104   2.599   3.612   3.837  0.3944 -0.1977 -0.0050
  422MOL0     C58105   2.628   3.565   3.707  0.4415 -0.2542 -0.4501
  422MOL0     O58106   2.751   3.582   3.645  1.1546  0.0978  0.3875
  422MOL0     C58107   2.844   3.683   3.695  0.5578 -0.2727  0.4120
  422MOL0     C58108   2.964   3.676   3.611  0.7982  0.5223  0.6304
  422MOL0     C58109   3.021   3.534   3.601  0.9945 -0.3071  0.3101
  422MOL0     C58110   3.155   3.532   3.529  0.7003  0.6648  0.4886
  422MOL0     C58111   3.226   3.395   3.508  0.8174  0.9448 -0.1538
  422MOL0     C58112   3.127   3.278   3.473 -0.2748 -0.2919 -0.2332
  422MOL0     C58113   3.207   3.148   3.479 -0.7600 -0.1170 -0.4337
  422MOL0     C58114   3.113   3.029   3.501 -0.3350  0.4015 -0.2353
  422MOL0     N58115   3.039   2.993   3.381 -0.7901 -0.3639  0.3096
  422MOL0     C58116   3.086   2.899   3.288 -0.0006 -0.2724 -0.3414
  422MOL0     C58117   2.973   2.874   3.218  0.7792  0.1515  0.3849
  422MOL0     C58118   2.942   2.760   3.120 -0.4636 -0.3691 -0.0809
  422MOL0     C58119   3.011   2.777   2.978 -0.2409  1.1210  0.5039
  422MOL0     C58120   2.948   2.887   2.888 -0.6381  0.5430  0.2069
  422MOL0     C58121   3.018   2.885   2.745 -0.4458 -0.2911 -0.4000
  422MOL0     O58122   3.053   2.762   2.680 -0.3773  1.0545  0.3072
  422MOL0     C58123   3.107   2.768   2.546 -0.0052 -0.1669  0.4792
  422MOL0     C58124   3.143   2.646   2.490 -1.0939 -0.3239  0.3089
  422MOL0     C58125   3.199   2.646   2.364 -0.4026  0.5328  0.1393
  422MOL0     C58126   3.239   2.518   2.299  0.0104  1.4348 -0.1757
  422MOL0     C58127   3.230   2.774   2.296  0.7390 -0.9457 -0.4811
  422MOL0     C58128   3.290   2.789   2.168  0.5429 -0.2878  0.2095
  422MOL0     O58129   3.396   2.873   2.155 -0.2729  0.9872  0.2685
  422MOL0     C58130   3.509   2.825   2.095 -0.2412 -0.6958 -0.6032
  422MOL0     C58131   3.610   2.925   2.063 -0.0451 -0.2095 -0.1673
  422MOL0     C58132   3.739   2.882   2.032 -1.0829 -0.4497  0.4723
  422MOL0     C58133   3.770   2.743   2.012  0.6584 -0.0374 -0.7109
  422MOL0     O58134   3.896   2.699   1.967 -0.2071 -0.8792 -0.2561
  422MOL0     C58135   4.006   2.736   2.057 -0.3717  0.4483  0.0065
  422MOL0     C58136   4.125   2.647   2.031 -0.6729  0.5189 -0.3039
  422MOL0     C58137   4.113   2.516   2.105 -0.3074 -0.2979 -0.5164
  422MOL0     C58138   4.247   2.443   2.108 -0.2799 -0.2806 -0.1125
  422MOL0     C58139   4.247   2.304   2.162 -0.0161 -0.0443 -0.0455
  422MOL0     C58140   4.168   2.285   2.287 -0.6661  0.1936 -0.0616
  422MOL0     C58141   4.188   2.140   2.334  0.1553 -0.4464 -0.0380
  422MOL0     C58142   4.087   2.102   2.443  0.0915 -0.2667  0.1453
  422MOL0    Cl58143   4.127   1.939   2.508 -0.1591 -0.3975 -0.0847
  422MOL0     C58144   3.670   2.648   2.027  0.1861  0.7746  0.3666
  422MOL0     C58145   3.541   2.688   2.068 -1.2486 -0.0831 -0.3051
  422MOL0     O58146   3.241   2.721   2.083 -0.8956 -0.1208 -0.2742
  422MOL0     C58147   3.188   2.895   2.354  0.2661  0.8750 -0.3037
  422MOL0     C58148   3.128   2.889   2.471 -0.4389  0.8512 -0.8829
  422MOL0     N58149   2.879   2.969   3.259  0.7958 -0.9848  0.8721
  422MOL0     N58150   2.917   3.044   3.357  0.3771 -0.1383 -0.5950
  422MOL0     C58151   2.514   3.526   3.631 -0.7541 -0.9383 -0.2635
  422MOL0     C58152   2.385   3.526   3.688 -0.3821 -0.2492 -0.4988
  422MOL0     C58153   2.009   3.510   3.897 -0.1195  0.6837  1.3185
  422MOL0     C58154   1.896   3.460   3.825  0.0251 -0.7428  0.2046
  422MOL0     C58155   1.767   3.505   3.849 -0.1163  0.4185  0.1857
  422MOL0     C58156   1.742   3.599   3.953 -1.1558  0.3640  0.5160
  422MOL0     O58157   1.623   3.656   3.975 -0.1852 -0.6570  0.1909
  422MOL0     C58158   1.501   3.579   3.955 -0.5648  0.4544  0.3066
  422MOL0     C58159   1.432   3.626   3.827  0.3704 -0.9337  0.3096
  422MOL0     C58160   1.395   3.783   3.831  0.5171  0.1982 -0.1433
  422MOL0     C58161   1.261   3.814   3.762 -1.0268 -0.4895 -0.0161
  422MOL0     C58162   1.268   3.836   3.614 -0.3846  0.5212 -1.2645
  422MOL0     C58163   1.264   3.850   3.493 -0.2679  0.0280  0.2584
  422MOL0     C58164   1.852   3.648   4.023  0.1746  0.5867 -0.2928
  422MOL0     C58165   1.988   3.601   4.002 -0.7185  0.0218  0.3440
  422MOL0     C58166   2.093   3.676   4.088 -0.9076  0.8491 -0.4280
  422MOL0     H58167   2.472   3.612   4.007  2.5396  1.3547 -0.1635
  422MOL0     H58168   2.681   3.647   3.898  2.1864  0.5366 -2.6689
  422MOL0     H58169   2.870   3.681   3.801 -0.3226 -0.9540  0.6294
  422MOL0     H58170   2.797   3.780   3.679  0.5911 -0.4923 -1.1272
  422MOL0     H58171   2.941   3.699   3.506  3.1356 -1.1505 -0.3597
  422MOL0     H58172   3.044   3.736   3.655  0.5187  0.7933  0.7647
  422MOL0     H58173   3.045   3.499   3.702  0.3072 -3.3004 -0.4688
  422MOL0     H58174   2.947   3.463   3.563  0.9592  0.0117 -0.2296
  422MOL0     H58175   3.137   3.571   3.429  0.6502 -0.7679 -0.0837
  422MOL0     H58176   3.230   3.596   3.577  0.0743  0.8467  1.2359
  422MOL0     H58177   3.256   3.379   3.612 -2.0226 -2.9189  0.2621
  422MOL0     H58178   3.306   3.405   3.434  2.2406  1.4957  1.3967
  422MOL0     H58179   3.046   3.272   3.546 -1.7030 -1.8356 -1.8730
  422MOL0     H58180   3.078   3.281   3.375  1.1134 -0.1937 -0.9494
  422MOL0     H58181   3.273   3.159   3.565  1.4055 -1.2104 -1.8613
  422MOL0     H58182   3.286   3.131   3.405  0.1600 -4.2938  1.2245
  422MOL0     H58183   3.169   2.946   3.545 -0.5874  1.0137  1.2926
  422MOL0     H58184   3.045   3.061   3.580 -1.3108 -0.0969 -0.8578
  422MOL0     H58185   3.179   2.845   3.293 -0.2029 -0.5743  0.3004
  422MOL0     H58186   2.833   2.749   3.113 -0.5133 -0.2529  0.4951
  422MOL0     H58187   2.980   2.667   3.164  3.4354  1.3094  0.5211
  422MOL0     H58188   3.117   2.800   2.993 -0.0681  0.0162  1.1157
  422MOL0     H58189   3.013   2.688   2.914  3.7544  1.7585 -0.5668
  422MOL0     H58190   2.841   2.868   2.875  0.0986 -2.9308 -2.5869
  422MOL0     H58191   2.981   2.982   2.929  1.3299 -0.9243  2.2948
  422MOL0     H58192   2.962   2.940   2.669 -0.0245 -0.9194 -1.1867
  422MOL0     H58193   3.115   2.933   2.759 -0.8145  0.5650 -0.6747
  422MOL0     H58194   3.116   2.553   2.539 -0.0852 -0.5329  0.4898
  422MOL0     H58195   3.225   2.505   2.191 -0.6678 -1.9572  0.2214
  422MOL0     H58196   3.172   2.440   2.338 -0.7717  1.8960 -0.5686
  422MOL0     H58197   3.344   2.501   2.322  0.2255  0.7582 -1.5891
  422MOL0     H58198   3.589   3.029   2.088  0.1268 -0.4378  0.9947
  422MOL0     H58199   3.817   2.953   2.007 -0.9361 -1.2095 -1.4124
  422MOL0     H58200   4.032   2.836   2.022  0.4779  0.1856 -0.1184
  422MOL0     H58201   3.982   2.740   2.164 -0.6758  3.3795 -0.0916
  422MOL0     H58202   4.148   2.626   1.926 -2.8702 -2.6725 -0.2580
  422MOL0     H58203   4.212   2.703   2.069 -0.8097  0.5077  0.0322
  422MOL0     H58204   4.036   2.460   2.052 -0.3265  0.2578 -1.0866
  422MOL0     H58205   4.078   2.526   2.208  2.6848 -0.0992  0.5918
  422MOL0     H58206   4.310   2.510   2.168 -1.0426  0.1026  0.2775
  422MOL0     H58207   4.293   2.442   2.009  0.5647 -0.5496  0.2747
  422MOL0     H58208   4.200   2.243   2.083 -2.2691  0.1930  1.0419
  422MOL0     H58209   4.349   2.268   2.177 -0.5389 -1.1292  1.1019
  422MOL0     H58210   4.063   2.309   2.267 -0.5603 -1.1300 -2.6498
  422MOL0     H58211   4.203   2.357   2.362  1.7909  1.4822 -2.2808
  422MOL0     H58212   4.290   2.132   2.373  1.4001  1.4124 -2.5612
  422MOL0     H58213   4.187   2.070   2.250  0.3633 -0.0237 -0.3965
  422MOL0     H58214   3.984   2.086   2.412  0.0889 -0.8641  0.4535
  422MOL0     H58215   4.094   2.173   2.526 -2.0443 -1.5046  1.4911
  422MOL0     H58216   3.689   2.544   2.003  0.1911  0.4257  1.7883
  422MOL0     H58217   3.488   2.595   2.085 -0.7338 -0.2250  0.5914
  422MOL0     H58218   3.222   2.984   2.303 -0.1355  1.0802 -0.2196
  422MOL0     H58219   3.117   2.987   2.516  2.0991  0.8736 -0.1608
  422MOL0     H58220   2.531   3.500   3.527 -0.2645 -1.4406 -0.0639
  422MOL0     H58221   2.302   3.485   3.631 -1.3610 -1.0124  1.4044
  422MOL0     H58222   1.919   3.392   3.744 -1.2806  1.3323 -2.0549
  422MOL0     H58223   1.678   3.472   3.797 -0.6395  2.1119 -0.0571
  422MOL0     H58224   1.515   3.470   3.954  0.9097  0.6121  0.4936
  422MOL0     H58225   1.424   3.588   4.031 -0.9840 -3.2308  0.4868
  422MOL0     H58226   1.340   3.570   3.804 -1.0862  2.0402 -1.7341
  422MOL0     H58227   1.503   3.600   3.748  0.4546 -1.5968  0.5992
  422MOL0     H58228   1.376   3.813   3.935 -0.5004  0.1892 -0.3249
  422MOL0     H58229   1.482   3.832   3.787  0.3992 -1.7166 -2.7440
  422MOL0     H58230   1.213   3.906   3.798  1.1702  1.2023 -1.2154
  422MOL0     H58231   1.186   3.734   3.770 -1.8479  0.2551 -0.0523
  422MOL0     H58232   1.254   3.863   3.387 -0.1195 -1.9409 -0.0309
  422MOL0     H58233   1.831   3.727   4.094  1.0456  2.9044 -2.4494
  422MOL0     H58234   2.052   3.707   4.184 -1.7098  0.8633 -0.7656
  422MOL0     H58235   2.172   3.603   4.108  0.2070  1.5031 -2.1480
  422MOL0     H58236   2.135   3.763   4.037  1.4612  0.4531  0.6967
  423MOL0     O58237   5.250   0.124   6.788  0.1743  0.0820 -0.2499
  423MOL0     C58238   5.169   0.214   6.796  0.3867 -0.6991  0.2706
  423MOL0     O58239   5.181   0.328   6.873 -0.5732 -0.2225  0.1085
  423MOL0     C58240   5.302   0.353   6.929 -0.4405 -0.0444 -0.1928
  423MOL0     C58241   5.413   0.386   6.849 -0.2093  0.4113  0.0329
  423MOL0     C58242   5.536   0.413   6.918  0.5052 -0.7598  1.0639
  423MOL0     C58243   5.532   0.433   7.053  0.7051 -0.8123 -0.6390
  423MOL0     O58244   5.649   0.480   7.111  0.1272 -0.2890 -0.1079
  423MOL0     C58245   5.641   0.503   7.250 -0.4403 -0.1376  0.4338
  423MOL0     C58246   5.753   0.603   7.307  0.1826  0.8829  0.1863
  423MOL0     C58247   5.890   0.552   7.304  0.7127  0.7456  0.1553
  423MOL0     C58248   5.977   0.640   7.387  0.7719 -0.3620 -0.3291
  423MOL0     C58249   6.118   0.604   7.382  0.1392  0.1401 -0.1753
  423MOL0     C58250   6.211   0.716   7.437 -0.2681 -0.7787  0.1035
  423MOL0     C58251   6.190   0.745   7.583  0.2982  1.1707  0.0315
  423MOL0     C58252   6.297   0.861   7.621  0.3624  0.0722 -0.2950
  423MOL0     N58253   6.271   0.899   7.763  0.4087  0.3289 -0.1069
  423MOL0     C58254   6.271   0.814   7.879 -0.4165  0.4987  0.1836
  423MOL0     C58255   6.237   0.892   7.981 -0.1473 -0.0734 -0.0528
  423MOL0     C58256   6.221   0.865   8.131  0.4048  0.0183 -0.2486
  423MOL0     C58257   6.145   0.738   8.149 -0.1531  0.1978 -0.1115
  423MOL0     C58258   6.137   0.693   8.296 -0.8041  1.0092  0.1131
  423MOL0     C58259   6.252   0.618   8.359 -0.8165  0.0672 -0.6183
  423MOL0     O58260   6.351   0.714   8.388 -0.1084  0.5318  0.0751
  423MOL0     C58261   6.484   0.674   8.405  0.3496  0.9118 -0.2535
  423MOL0     C58262   6.525   0.553   8.476  0.4846 -0.2458  0.6427
  423MOL0     C58263   6.664   0.517   8.491 -0.4195  0.3191 -0.3422
  423MOL0     C58264   6.693   0.379   8.547 -0.2374 -0.1712 -0.3833
  423MOL0     C58265   6.754   0.620   8.456  0.2644  0.5346 -0.0225
  423MOL0     C58266   6.905   0.614   8.475  0.6631  1.3284  0.0131
  423MOL0     O58267   6.980   0.719   8.465 -0.6063  1.0093 -0.6165
  423MOL0     C58268   7.112   0.718   8.511 -0.1651  0.2487  0.3279
  423MOL0     C58269   7.203   0.798   8.437  0.4705 -0.2481  0.1370
  423MOL0     C58270   7.328   0.815   8.480  0.5705 -0.5878  0.0721
  423MOL0     C58271   7.372   0.758   8.597 -0.2489  0.2529 -0.3784
  423MOL0     O58272   7.506   0.764   8.631 -0.2227 -0.4532  0.9459
  423MOL0     C58273   7.577   0.651   8.671 -0.0291  0.6211  0.3067
  423MOL0     C58274   7.733   0.684   8.666  0.4310  0.0367  0.0509
  423MOL0     C58275   7.770   0.832   8.704 -0.1186  0.6532 -0.5366
  423MOL0     C58276   7.924   0.860   8.683 -0.3553 -0.2621  0.2425
  423MOL0     C58277   7.968   1.002   8.708  0.6545  0.7207 -0.7076
  423MOL0     C58278   7.959   1.038   8.858  0.0463 -0.6559  0.6636
  423MOL0     C58279   8.064   1.145   8.884  0.5314 -0.3848  0.0611
  423MOL0     C58280   8.041   1.217   9.023  0.2395  0.7203 -0.4719
  423MOL0    Cl58281   8.136   1.133   9.154  0.4076 -0.1329 -0.0764
  423MOL0     C58282   7.292   0.672   8.670 -0.0196  0.0804  0.3361
  423MOL0     C58283   7.156   0.654   8.623 -0.0123 -0.6223  0.0839
  423MOL0     O58284   6.945   0.506   8.510  0.6382 -0.0871  0.9636
  423MOL0     C58285   6.715   0.746   8.398  0.5472  0.2967 -0.5994
  423MOL0     C58286   6.584   0.768   8.372  0.3729  0.0338  0.0569
  423MOL0     N58287   6.224   1.021   7.934 -0.1698  0.2947  0.2731
  423MOL0     N58288   6.234   1.025   7.803 -0.0786 -0.3858 -0.3007
  423MOL0     C58289   5.425   0.395   7.128 -0.3651  0.1179  0.2469
  423MOL0     C58290   5.304   0.367   7.066  0.7403 -0.6229 -0.2062
  423MOL0     C58291   5.034   0.186   6.740 -0.1949 -0.5521 -0.2925
  423MOL0     C58292   4.928   0.182   6.829  0.8154 -0.8957  0.4794
  423MOL0     C58293   4.801   0.144   6.778 -0.7616  0.0822 -0.0163
  423MOL0     C58294   4.780   0.111   6.641  0.3784  0.3323 -0.7064
  423MOL0     O58295   4.645   0.080   6.616 -0.5360 -0.2046 -0.3336
  423MOL0     C58296   4.613  -0.003   6.493  0.0433  0.3074 -0.9250
  423MOL0     C58297   4.504   0.078   6.413  0.4156 -0.8897 -0.0708
  423MOL0     C58298   4.488   0.027   6.264 -0.0353  0.1929  1.1067
  423MOL0     C58299   4.349   0.074   6.223  0.6715  0.4016 -0.2355
  423MOL0     C58300   4.308   0.037   6.089 -0.1503  0.4826  0.6633
  423MOL0     C58301   4.269   0.022   5.972  0.2493 -0.3873 -0.8327
  423MOL0     C58302   4.887   0.123   6.561 -0.3074  0.6968  0.9079
  423MOL0     C58303   5.011   0.164   6.603  0.8344 -0.0842  0.9704
  423MOL0     C58304   5.113   0.184   6.498  0.2836  1.4653  0.7469
  423MOL0     H58305   5.399   0.377   6.742 -1.9161 -1.7292  0.3681
  423MOL0     H58306   5.625   0.429   6.857  0.7007  1.3756  1.8260
  423MOL0     H58307   5.647   0.404   7.297  0.3675  0.0332  0.7084
  423MOL0     H58308   5.544   0.538   7.286 -0.1589 -0.7731  1.9081
  423MOL0     H58309   5.740   0.700   7.259 -4.2403  1.0153  1.2793
  423MOL0     H58310   5.719   0.625   7.409 -1.2792 -2.3115  0.5201
  423MOL0     H58311   5.898   0.451   7.348  1.9650  1.0046  0.5532
  423MOL0     H58312   5.924   0.553   7.200  0.6287  2.5477  0.1145
  423MOL0     H58313   5.956   0.742   7.355  0.4246 -0.3696 -0.1353
  423MOL0     H58314   5.942   0.644   7.491  0.3036 -0.7693 -0.4656
  423MOL0     H58315   6.145   0.576   7.280 -0.4634 -0.1832 -0.2473
  423MOL0     H58316   6.123   0.517   7.448  0.6550 -0.1350 -0.5663
  423MOL0     H58317   6.313   0.679   7.422  0.2130  1.1386 -1.6946
  423MOL0     H58318   6.196   0.800   7.369  2.4155 -2.0043 -2.2206
  423MOL0     H58319   6.198   0.657   7.647  1.7538  1.1551 -0.1460
  423MOL0     H58320   6.092   0.793   7.584  0.0414  0.7679 -1.6430
  423MOL0     H58321   6.400   0.825   7.625 -0.4044 -2.2497  0.1564
  423MOL0     H58322   6.289   0.949   7.556 -1.8765  0.8498  0.9209
  423MOL0     H58323   6.292   0.708   7.883 -3.5139 -0.1884  1.0593
  423MOL0     H58324   6.164   0.946   8.178 -1.2722 -0.2220 -1.7279
  423MOL0     H58325   6.313   0.858   8.188  0.6616 -0.3918 -0.7028
  423MOL0     H58326   6.043   0.759   8.118 -0.1965 -0.2469 -0.2857
  423MOL0     H58327   6.190   0.661   8.084 -0.3406 -0.5188  0.5948
  423MOL0     H58328   6.114   0.778   8.362 -2.4424  0.4815  0.2552
  423MOL0     H58329   6.048   0.630   8.296  0.4191 -0.7997 -0.6572
  423MOL0     H58330   6.218   0.571   8.452  2.5699  0.5654  1.0503
  423MOL0     H58331   6.299   0.548   8.288 -1.6205 -0.9052 -0.2161
  423MOL0     H58332   6.451   0.481   8.507 -0.3028 -0.1435 -0.8862
  423MOL0     H58333   6.596   0.332   8.565  0.0683 -0.0663  1.7674
  423MOL0     H58334   6.746   0.379   8.643 -2.8143  3.6221  1.2530
  423MOL0     H58335   6.761   0.324   8.480 -0.2445 -3.1377  1.8290
  423MOL0     H58336   7.174   0.854   8.349  0.0940 -0.6434  0.0033
  423MOL0     H58337   7.393   0.881   8.423 -2.2210  1.0837 -1.3968
  423MOL0     H58338   7.562   0.612   8.772 -1.4164 -2.3192 -0.9039
  423MOL0     H58339   7.557   0.580   8.591 -0.8386  0.4730  0.6278
  423MOL0     H58340   7.780   0.603   8.723  3.5149 -0.2918 -2.6675
  423MOL0     H58341   7.768   0.665   8.564  0.8702  1.1698 -0.0165
  423MOL0     H58342   7.744   0.843   8.809 -2.2633 -0.8524 -0.8344
  423MOL0     H58343   7.697   0.894   8.652 -1.6451 -0.1431  0.5618
  423MOL0     H58344   7.944   0.843   8.576  0.8842 -1.0801  0.5773
  423MOL0     H58345   7.993   0.789   8.731  0.3151 -0.9512 -1.6302
  423MOL0     H58346   8.073   1.006   8.676  0.3678 -1.3047 -2.0822
  423MOL0     H58347   7.908   1.073   8.649 -0.4142 -0.6852 -1.3751
  423MOL0     H58348   7.984   0.954   8.923  0.2297 -2.2297 -1.3184
  423MOL0     H58349   7.862   1.078   8.889  0.7814  2.3386 -0.4802
  423MOL0     H58350   8.059   1.205   8.792 -2.7812 -3.4566 -2.0187
  423MOL0     H58351   8.163   1.098   8.878  0.5785 -0.2115 -0.6044
  423MOL0     H58352   7.935   1.209   9.047  0.4697 -0.8982  0.1144
  423MOL0     H58353   8.081   1.318   9.014  2.2878 -0.1683 -2.4013
  423MOL0     H58354   7.326   0.627   8.763 -0.6137 -1.2408 -0.0576
  423MOL0     H58355   7.088   0.598   8.686  2.6296 -3.3980  0.7504
  423MOL0     H58356   6.786   0.819   8.360  0.5283  0.4345 -0.3698
  423MOL0     H58357   6.552   0.859   8.322 -3.9723 -0.9755  0.5708
  423MOL0     H58358   5.421   0.388   7.236 -0.8267 -0.6037  0.1878
  423MOL0     H58359   5.218   0.353   7.131 -0.8254  1.9577 -1.5857
  423MOL0     H58360   4.937   0.208   6.933  2.0284  0.5553  0.0353
  423MOL0     H58361   4.717   0.134   6.846 -0.5482 -3.0307 -0.0837
  423MOL0     H58362   4.699  -0.041   6.437 -1.0307 -2.4294 -0.8509
  423MOL0     H58363   4.567  -0.097   6.523  0.4832  0.1647 -0.6831
  423MOL0     H58364   4.545   0.179   6.408  0.3505 -0.8664 -0.1384
  423MOL0     H58365   4.411   0.078   6.471 -0.6904 -1.8718 -1.7676
  423MOL0     H58366   4.558   0.060   6.187 -1.6709  1.2597  0.0104
  423MOL0     H58367   4.494  -0.082   6.255 -2.3202  0.0950 -0.1039
  423MOL0     H58368   4.359   0.182   6.214  2.7667  0.5346  2.3983
  423MOL0     H58369   4.268   0.051   6.293  0.9554 -1.7777 -0.5253
  423MOL0     H58370   4.224   0.002   5.877  0.3560  2.0490 -1.4628
  423MOL0     H58371   4.861   0.095   6.459 -0.0722  0.5206  0.8943
  423MOL0     H58372   5.138   0.291   6.502  1.1546  1.3051 -0.2296
  423MOL0     H58373   5.198   0.122   6.525 -2.4169 -1.6940  2.8319
  423MOL0     H58374   5.075   0.161   6.398  1.0498 -3.4351  1.3241
  424MOL0     O58375   5.834   5.433   1.358  1.2094  0.3173  0.3847
  424MOL0     C58376   5.758   5.337   1.384  0.0429 -0.5472 -0.3770
  424MOL0     O58377   5.785   5.243   1.478 -0.0393  0.4907 -0.3781
  424MOL0     C58378   5.914   5.222   1.505 -0.6742  0.5022 -1.0960
  424MOL0     C58379   5.965   5.260   1.628 -1.3373 -0.4504 -0.3545
  424MOL0     C58380   6.089   5.221   1.668 -0.4692 -0.5616  0.0786
  424MOL0     C58381   6.176   5.155   1.585 -0.4394  0.9005 -0.3745
  424MOL0     O58382   6.304   5.131   1.618 -0.1424  0.2957  0.1329
  424MOL0     C58383   6.371   5.013   1.580 -0.3256 -0.3461  0.1937
  424MOL0     C58384   6.469   5.009   1.705  0.5937 -1.1221 -0.0963
  424MOL0     C58385   6.566   4.903   1.695 -0.2102 -0.0746  0.4876
  424MOL0     C58386   6.622   4.897   1.847  0.0636 -0.1415 -0.2753
  424MOL0     C58387   6.742   4.808   1.862  0.2043  0.0112  0.2212
  424MOL0     C58388   6.869   4.873   1.809 -0.2158 -0.2378 -0.3238
  424MOL0     C58389   6.929   4.988   1.890 -0.5527 -0.0920 -0.3405
  424MOL0     C58390   7.034   4.958   1.991  0.4228 -0.5898 -0.5199
  424MOL0     N58391   7.009   4.852   2.092  0.3874  0.8895  0.0393
  424MOL0     C58392   6.909   4.868   2.191  0.5321 -0.0620  0.8503
  424MOL0     C58393   6.885   4.743   2.234  0.1041 -0.4713  0.2823
  424MOL0     C58394   6.792   4.697   2.344  0.1179 -0.1431  0.8986
  424MOL0     C58395   6.657   4.678   2.270 -0.6708 -0.0864  0.1427
  424MOL0     C58396   6.552   4.629   2.370  0.6293 -0.0842 -0.3005
  424MOL0     C58397   6.414   4.603   2.296 -0.0170  0.0995 -0.7648
  424MOL0     O58398   6.381   4.725   2.239  0.0802 -1.2081 -0.4961
  424MOL0     C58399   6.259   4.745   2.182  1.0518 -0.1332 -1.1297
  424MOL0     C58400   6.233   4.850   2.092  0.1485 -0.0629 -0.3566
  424MOL0     C58401   6.112   4.893   2.048 -0.0084 -0.7565 -0.9522
  424MOL0     C58402   6.119   5.013   1.949 -0.3150  0.0716 -0.4431
  424MOL0     C58403   6.001   4.821   2.089  0.1320  0.2281 -0.7179
  424MOL0     C58404   5.870   4.853   2.037  0.6173  0.6271  0.9962
  424MOL0     O58405   5.828   4.979   2.016  0.0599 -0.1670 -0.6263
  424MOL0     C58406   5.706   5.010   1.956 -0.2760 -0.4604  0.3334
  424MOL0     C58407   5.583   4.977   2.018  0.0073 -0.0931 -0.0713
  424MOL0     C58408   5.463   5.028   1.964  0.3354  0.0727  0.6600
  424MOL0     C58409   5.461   5.115   1.847  0.4193  0.2437  0.1144
  424MOL0     O58410   5.350   5.186   1.824 -0.3032 -0.0851  0.4702
  424MOL0     C58411   5.284   5.131   1.714 -0.5680  0.0361 -0.0383
  424MOL0     C58412   5.156   5.208   1.684 -0.0757 -0.7450  0.1548
  424MOL0     C58413   5.053   5.189   1.788 -0.1770  0.0335  0.1745
  424MOL0     C58414   4.928   5.263   1.769 -0.3817 -0.3653 -0.1566
  424MOL0     C58415   4.839   5.224   1.885 -0.3296 -0.7398 -0.2815
  424MOL0     C58416   4.721   5.331   1.893  0.8496  0.2222 -0.0607
  424MOL0     C58417   4.615   5.336   1.783  0.0995 -0.5955 -0.4027
  424MOL0     C58418   4.486   5.406   1.819 -0.0748 -0.2403 -0.2312
  424MOL0    Cl58419   4.367   5.353   1.695 -0.1417 -0.1843  0.0173
  424MOL0     C58420   5.584   5.138   1.788 -0.7408  0.6009  0.5534
  424MOL0     C58421   5.702   5.089   1.839 -0.7045  1.0360 -0.6471
  424MOL0     O58422   5.807   4.755   1.995  0.2590 -0.5654  0.8637
  424MOL0     C58423   6.015   4.714   2.177 -0.1007  0.3079 -0.0976
  424MOL0     C58424   6.146   4.672   2.217 -0.2082 -0.2824 -0.3177
  424MOL0     N58425   6.961   4.650   2.152  0.2622 -0.0068 -0.2121
  424MOL0     N58426   7.042   4.717   2.081  0.5505 -0.2243 -0.2514
  424MOL0     C58427   6.133   5.112   1.463 -0.5634 -0.5769  0.2530
  424MOL0     C58428   6.000   5.135   1.423 -0.1138  0.3587 -0.6499
  424MOL0     C58429   5.633   5.325   1.311 -0.5783 -0.2759  0.0502
  424MOL0     C58430   5.575   5.193   1.293  0.1225  0.5035 -0.2081
  424MOL0     C58431   5.443   5.179   1.247  0.0554  0.3409  0.1596
  424MOL0     C58432   5.382   5.289   1.185  0.5421 -1.0988 -0.0303
  424MOL0     O58433   5.264   5.271   1.117  0.3335  0.4371 -0.4207
  424MOL0     C58434   5.286   5.237   0.982  0.2612  0.6453 -0.2320
  424MOL0     C58435   5.157   5.250   0.908  0.9675 -0.2677 -0.5177
  424MOL0     C58436   5.117   5.395   0.874 -0.0689 -0.0461 -1.0218
  424MOL0     C58437   5.150   5.443   0.736  0.4325 -0.1276  0.0844
  424MOL0     C58438   5.279   5.399   0.689 -0.0824  0.7179 -0.2839
  424MOL0     C58439   5.392   5.376   0.650  0.1079  0.6103  0.5091
  424MOL0     C58440   5.441   5.413   1.188  0.5940  0.8345  0.4527
  424MOL0     C58441   5.558   5.433   1.262 -0.1727  0.1089 -0.9690
  424MOL0     C58442   5.603   5.577   1.279  0.3836 -0.1496 -0.1241
  424MOL0     H58443   5.908   5.320   1.699  0.4656 -2.2556  2.8465
  424MOL0     H58444   6.132   5.262   1.760  0.3558  1.1354 -1.0182
  424MOL0     H58445   6.432   5.027   1.490  0.5525 -2.7308  0.3481
  424MOL0     H58446   6.306   4.925   1.576 -3.0134  1.4898  0.8688
  424MOL0     H58447   6.512   5.108   1.725 -0.5686 -0.1665 -2.0237
  424MOL0     H58448   6.409   4.986   1.793  0.3320 -3.4206 -0.7995
  424MOL0     H58449   6.514   4.811   1.666  1.2455  0.5457 -5.1540
  424MOL0     H58450   6.647   4.916   1.623 -3.3198  3.7069 -2.7624
  424MOL0     H58451   6.638   4.999   1.882  1.2296 -1.1237  2.3373
  424MOL0     H58452   6.554   4.847   1.917  1.8930 -0.1746  1.5991
  424MOL0     H58453   6.719   4.723   1.796 -0.6795  1.2065 -1.0756
  424MOL0     H58454   6.755   4.764   1.961 -1.1055 -0.9482  0.0017
  424MOL0     H58455   6.935   4.787   1.795 -2.6691 -2.4778  0.9015
  424MOL0     H58456   6.841   4.906   1.709 -2.3021  0.9758  0.5971
  424MOL0     H58457   6.851   5.048   1.938  0.1822  0.1800  0.5567
  424MOL0     H58458   6.977   5.058   1.822 -1.5858  0.4025 -0.5738
  424MOL0     H58459   7.133   4.936   1.950  1.4283 -0.1216  1.5283
  424MOL0     H58460   7.043   5.050   2.049 -1.6829  0.0675 -1.1727
  424MOL0     H58461   6.861   4.962   2.214 -0.6831  0.1841 -2.1671
  424MOL0     H58462   6.791   4.767   2.428  1.8778  0.0245  0.8205
  424MOL0     H58463   6.828   4.603   2.385  0.8284  1.4906  4.4293
  424MOL0     H58464   6.627   4.768   2.217 -0.5046  0.2620  0.6329
  424MOL0     H58465   6.671   4.601   2.194 -1.4228 -2.0822  1.9281
  424MOL0     H58466   6.588   4.536   2.416  2.1983  0.8923  0.5482
  424MOL0     H58467   6.539   4.703   2.449  0.8403 -1.6858  1.3120
  424MOL0     H58468   6.413   4.526   2.219  0.5972  1.0111 -1.7269
  424MOL0     H58469   6.345   4.568   2.373  4.0717 -4.2976  1.4475
  424MOL0     H58470   6.315   4.917   2.070 -1.0370  0.5950 -3.2049
  424MOL0     H58471   6.189   5.093   1.977  0.9446  0.0212 -3.1520
  424MOL0     H58472   6.020   5.060   1.939 -0.3030 -0.0502 -1.1561
  424MOL0     H58473   6.147   4.968   1.854  1.5903 -4.2083  1.8671
  424MOL0     H58474   5.589   4.922   2.112  0.8874 -0.4178 -0.3100
  424MOL0     H58475   5.371   4.999   2.014  1.8792 -0.1305  3.6033
  424MOL0     H58476   5.351   5.135   1.628 -1.6372  0.8017 -0.8585
  424MOL0     H58477   5.264   5.027   1.741  1.5976 -0.6674 -0.9799
  424MOL0     H58478   5.181   5.313   1.672 -0.2904 -0.7091  0.0172
  424MOL0     H58479   5.117   5.176   1.587 -0.8204 -0.9634  0.5153
  424MOL0     H58480   5.098   5.201   1.888  3.4710 -0.7974 -1.1923
  424MOL0     H58481   5.032   5.082   1.779  2.1128 -0.4547 -0.0845
  424MOL0     H58482   4.877   5.224   1.681  0.1366  0.1397 -0.6900
  424MOL0     H58483   4.945   5.371   1.758  0.0503 -0.2644  1.2421
  424MOL0     H58484   4.798   5.125   1.864  0.2557 -0.7235 -1.6483
  424MOL0     H58485   4.891   5.236   1.980  0.6585  0.5873 -0.9565
  424MOL0     H58486   4.765   5.431   1.903  0.4054  0.2304  2.7154
  424MOL0     H58487   4.669   5.322   1.989 -0.0944  2.9933 -0.2340
  424MOL0     H58488   4.585   5.237   1.747 -2.9114 -0.0339  0.2474
  424MOL0     H58489   4.660   5.376   1.691 -3.7011  1.4337 -1.6248
  424MOL0     H58490   4.514   5.508   1.790  3.6828 -1.3041 -0.8701
  424MOL0     H58491   4.471   5.386   1.926  2.1367 -2.2675 -0.2210
  424MOL0     H58492   5.587   5.203   1.701 -1.7424 -0.0561  0.0192
  424MOL0     H58493   5.797   5.104   1.790 -0.5912 -0.2265 -0.8374
  424MOL0     H58494   5.921   4.664   2.202 -0.0400 -1.7193 -3.3910
  424MOL0     H58495   6.142   4.602   2.300 -0.6598 -0.7652 -0.7402
  424MOL0     H58496   6.209   5.084   1.391  1.1333  0.4496  1.5456
  424MOL0     H58497   5.956   5.103   1.330  1.3908 -3.3362 -0.2534
  424MOL0     H58498   5.628   5.105   1.328 -3.0513 -0.7405  1.9654
  424MOL0     H58499   5.395   5.083   1.232 -0.7605  0.6394  0.7835
  424MOL0     H58500   5.358   5.309   0.943  1.7447 -0.9276 -0.4912
  424MOL0     H58501   5.329   5.138   0.966  2.3256  0.7496  3.4692
  424MOL0     H58502   5.076   5.216   0.973  0.2263  0.9865 -0.7579
  424MOL0     H58503   5.156   5.199   0.811  0.3437 -1.1873 -0.0472
  424MOL0     H58504   5.008   5.400   0.871 -0.0296  1.6051 -0.6212
  424MOL0     H58505   5.163   5.462   0.947 -0.5951 -0.3630 -0.3883
  424MOL0     H58506   5.143   5.552   0.745 -1.7987 -0.1228 -0.9806
  424MOL0     H58507   5.076   5.394   0.672  1.3109 -3.8305  1.6381
  424MOL0     H58508   5.481   5.330   0.612 -0.4673 -0.5469  0.5130
  424MOL0     H58509   5.392   5.501   1.147 -0.9433  0.9389  2.3803
  424MOL0     H58510   5.651   5.596   1.375 -1.2829  2.4723  0.2991
  424MOL0     H58511   5.677   5.607   1.204  0.8460  1.5364  0.9543
  424MOL0     H58512   5.513   5.639   1.268  1.4804  1.4052 -0.6838
  425MOL0     O58513  10.980   9.734   0.019 -0.3100  0.1879 -0.1519
  425MOL0     C58514  10.931   9.675   0.110  0.4282  1.8765 -0.0737
  425MOL0     O58515  10.997   9.631   0.217  1.0184  0.4106  0.1814
  425MOL0     C58516  11.133   9.633   0.225 -0.0412  0.5501 -0.6118
  425MOL0     C58517  11.222   9.615   0.115 -0.1686  0.5985 -0.2972
  425MOL0     C58518  11.356   9.619   0.140 -0.0042  0.7011 -0.2168
  425MOL0     C58519  11.410   9.632   0.270 -0.0938 -0.4407  0.5682
  425MOL0     O58520  11.550   9.643   0.276  0.4425 -0.3697 -0.2303
  425MOL0     C58521  11.610   9.600   0.405 -0.0524  0.1532  0.0012
  425MOL0     C58522  11.751   9.560   0.372 -0.1483 -0.1871 -1.1063
  425MOL0     C58523  11.824   9.534   0.510  0.0554  0.3188 -0.7287
  425MOL0     C58524  11.959   9.478   0.505  1.0271 -0.2232  0.6336
  425MOL0     C58525  12.038   9.479   0.637  0.5564 -0.6257 -0.1513
  425MOL0     C58526  12.174   9.421   0.614 -0.0704 -0.1694  0.1243
  425MOL0     C58527  12.246   9.408   0.747  0.5375 -0.0064 -0.4069
  425MOL0     C58528  12.397   9.383   0.747  1.0761  0.0396  0.0869
  425MOL0     N58529  12.433   9.257   0.679  0.6424  0.5444  0.8948
  425MOL0     C58530  12.474   9.238   0.544 -0.0126 -0.3682  0.3839
  425MOL0     C58531  12.486   9.105   0.529 -0.6922  0.0296  0.0336
  425MOL0     C58532  12.536   9.039   0.402 -0.4309 -0.1202 -0.4182
  425MOL0     C58533  12.689   9.007   0.408  0.4117 -0.4198 -0.3432
  425MOL0     C58534  12.772   9.128   0.429  0.7720 -0.4539  0.7849
  425MOL0     C58535  12.926   9.099   0.416  0.5136 -0.0398  0.1123
  425MOL0     O58536  12.952   9.026   0.291  0.3166  0.1806 -0.3720
  425MOL0     C58537  13.078   8.967   0.276  0.1224 -0.4093  0.2239
  425MOL0     C58538  13.182   8.964   0.368 -0.2025  0.7082  1.3841
  425MOL0     C58539  13.302   8.887   0.355 -0.3103 -0.5895 -0.1452
  425MOL0     C58540  13.409   8.894   0.464 -0.6088 -0.1412  0.2723
  425MOL0     C58541  13.326   8.821   0.229  0.3964  0.6511  0.0625
  425MOL0     C58542  13.459   8.774   0.184  0.1712 -0.3247  0.8063
  425MOL0     O58543  13.467   8.663   0.107  0.4017 -0.0318  0.0907
  425MOL0     C58544  13.585   8.634   0.046 -0.1043 -0.3857 -0.7092
  425MOL0     C58545  13.574   8.610  -0.089 -0.6808  0.7524 -0.2281
  425MOL0     C58546  13.690   8.562  -0.150 -0.6718 -0.0330 -0.2555
  425MOL0     C58547  13.817   8.539  -0.087  1.3533 -0.1515  1.1650
  425MOL0     O58548  13.926   8.495  -0.163  1.0161  0.6844 -0.1557
  425MOL0     C58549  14.044   8.465  -0.094 -0.8962  0.8221  0.6964
  425MOL0     C58550  14.144   8.427  -0.202 -0.4920 -0.2021 -0.2733
  425MOL0     C58551  14.267   8.371  -0.136 -0.3844 -0.2214 -0.0434
  425MOL0     C58552  14.373   8.321  -0.240 -0.6382 -0.3557  0.3415
  425MOL0     C58553  14.434   8.429  -0.329 -0.0893 -0.2579 -0.3075
  425MOL0     C58554  14.544   8.401  -0.440 -0.8971 -0.0102 -0.2259
  425MOL0     C58555  14.668   8.345  -0.369  0.0798  0.0996  0.6241
  425MOL0     C58556  14.764   8.287  -0.468 -0.4751 -0.4935 -0.2667
  425MOL0    Cl58557  14.915   8.234  -0.396  0.2204 -0.1910  0.1208
  425MOL0     C58558  13.818   8.564   0.050 -0.0603  0.1253  0.6601
  425MOL0     C58559  13.711   8.615   0.126  0.2820  0.9152  0.2274
  425MOL0     O58560  13.548   8.853   0.201 -0.0447 -0.6031 -0.1315
  425MOL0     C58561  13.226   8.832   0.134  0.2008  0.0036 -0.1305
  425MOL0     C58562  13.102   8.898   0.158 -0.1049  0.0496 -0.2369
  425MOL0     N58563  12.460   9.046   0.652 -0.3280  0.0360 -0.1674
  425MOL0     N58564  12.429   9.140   0.740 -0.4230  0.0070  0.5872
  425MOL0     C58565  11.323   9.646   0.382 -0.0069  0.0596 -0.2714
  425MOL0     C58566  11.190   9.641   0.357  0.3690 -0.5744  0.4514
  425MOL0     C58567  10.794   9.636   0.094  0.5828  0.6648 -0.0815
  425MOL0     C58568  10.741   9.612  -0.033  0.1545  0.4010  0.2546
  425MOL0     C58569  10.604   9.583  -0.050 -0.5877  0.0244 -0.1847
  425MOL0     C58570  10.519   9.565   0.056 -0.1624  0.0574 -0.6434
  425MOL0     O58571  10.390   9.540   0.026 -0.0090 -0.2380  0.7549
  425MOL0     C58572  10.303   9.507   0.124 -0.5072  0.1773  0.0660
  425MOL0     C58573  10.165   9.484   0.059  0.4218  0.8278 -0.6154
  425MOL0     C58574  10.074   9.407   0.145 -0.2081 -0.1754  0.7600
  425MOL0     C58575   9.935   9.401   0.088  0.7570 -0.0906  0.4766
  425MOL0     C58576   9.910   9.287  -0.005 -1.2929 -0.3808  0.5209
  425MOL0     C58577   9.877   9.210  -0.092 -0.2836  1.0605 -0.0415
  425MOL0     C58578  10.574   9.576   0.189  0.2734 -0.2601 -0.5027
  425MOL0     C58579  10.707   9.624   0.204 -0.5047 -0.0516  0.4233
  425MOL0     C58580  10.746   9.659   0.338 -0.4670 -0.4709  0.3549
  425MOL0     H58581  11.188   9.606   0.013  1.8013 -3.6509 -0.7657
  425MOL0     H58582  11.412   9.615   0.046  0.8858  0.4838  0.3130
  425MOL0     H58583  11.551   9.519   0.449  0.8500  0.4178  1.7717
  425MOL0     H58584  11.594   9.687   0.469 -3.3691  0.8263 -1.5463
  425MOL0     H58585  11.745   9.464   0.321  0.2072 -2.1297  2.2199
  425MOL0     H58586  11.792   9.640   0.309  0.5395 -0.0891 -0.5470
  425MOL0     H58587  11.826   9.631   0.561 -1.2148  0.4440 -0.8803
  425MOL0     H58588  11.760   9.466   0.568  1.4206 -0.1940  0.2446
  425MOL0     H58589  11.947   9.378   0.463 -1.4488  0.3533 -0.2350
  425MOL0     H58590  12.023   9.536   0.437  0.9791 -0.0895  0.7004
  425MOL0     H58591  11.991   9.426   0.720  2.7209  0.5384  1.9253
  425MOL0     H58592  12.060   9.580   0.671  0.0606 -0.9104  1.0382
  425MOL0     H58593  12.168   9.319   0.575  0.3056  0.1330 -0.7365
  425MOL0     H58594  12.233   9.490   0.553 -0.5125 -0.1087 -0.2434
  425MOL0     H58595  12.195   9.332   0.807  4.4827 -1.5579  1.2849
  425MOL0     H58596  12.246   9.507   0.794  3.3700 -0.6674  1.1700
  425MOL0     H58597  12.451   9.458   0.689  2.2521 -0.7614  0.1186
  425MOL0     H58598  12.430   9.385   0.851 -1.7491  1.3077  1.0603
  425MOL0     H58599  12.503   9.316   0.474 -0.1177  0.5981  1.3912
  425MOL0     H58600  12.521   9.116   0.327 -2.2370  0.7734  0.7671
  425MOL0     H58601  12.482   8.946   0.382  0.4819 -1.3413  2.2228
  425MOL0     H58602  12.694   8.933   0.488 -1.4339  1.8137  2.0263
  425MOL0     H58603  12.720   8.962   0.313  1.9807 -2.4050  1.0386
  425MOL0     H58604  12.745   9.197   0.349  0.1560 -1.5757  0.0116
  425MOL0     H58605  12.752   9.177   0.525 -0.3790 -2.7080  1.7669
  425MOL0     H58606  12.983   9.191   0.425 -0.9889  0.8232  1.2405
  425MOL0     H58607  12.951   9.034   0.500  1.2640 -0.0098 -0.0801
  425MOL0     H58608  13.159   9.018   0.459 -1.0187 -0.3967  1.8608
  425MOL0     H58609  13.390   8.814   0.537  1.7664 -0.8812  0.1573
  425MOL0     H58610  13.412   8.994   0.508 -0.0763 -0.8790  2.0380
  425MOL0     H58611  13.508   8.874   0.424 -0.4065  0.8002  0.3026
  425MOL0     H58612  13.477   8.614  -0.138 -0.9839  0.3083  0.3150
  425MOL0     H58613  13.690   8.528  -0.253 -0.0262 -0.6355 -0.0629
  425MOL0     H58614  14.077   8.551  -0.034 -1.7557  0.7667  1.2696
  425MOL0     H58615  14.036   8.382  -0.023  2.8687  0.0734  0.4670
  425MOL0     H58616  14.102   8.362  -0.279 -0.5536  1.8699 -2.1004
  425MOL0     H58617  14.163   8.517  -0.261 -0.2058 -1.5910 -2.3980
  425MOL0     H58618  14.244   8.278  -0.083  3.0803 -0.7026  0.8866
  425MOL0     H58619  14.318   8.443  -0.072  0.4411 -1.3765  0.6311
  425MOL0     H58620  14.331   8.243  -0.305  1.6504  0.5342 -2.4168
  425MOL0     H58621  14.457   8.262  -0.203 -0.9877 -1.6900 -0.8889
  425MOL0     H58622  14.344   8.465  -0.379 -1.3101  0.5047  2.2906
  425MOL0     H58623  14.469   8.508  -0.262 -0.0086 -1.8827  1.6538
  425MOL0     H58624  14.570   8.495  -0.490  0.3878  1.4392  2.9278
  425MOL0     H58625  14.507   8.329  -0.513  2.1770 -2.4661  0.4556
  425MOL0     H58626  14.640   8.278  -0.287 -2.9521  0.4437 -0.0138
  425MOL0     H58627  14.716   8.430  -0.321 -0.3348 -0.1207  1.4425
  425MOL0     H58628  14.799   8.356  -0.545  0.8406  1.6787  2.1173
  425MOL0     H58629  14.726   8.202  -0.524  3.9165 -2.3285 -0.8780
  425MOL0     H58630  13.907   8.540   0.108  0.2153 -0.0256  0.1822
  425MOL0     H58631  13.714   8.654   0.227  1.2865  0.6950  0.2990
  425MOL0     H58632  13.237   8.777   0.041  0.5234 -0.7657  0.3446
  425MOL0     H58633  13.027   8.895   0.079 -0.8416  0.8416  0.4129
  425MOL0     H58634  11.363   9.668   0.481 -3.8856 -0.6586  1.6703
  425MOL0     H58635  11.127   9.635   0.445 -2.7778  1.2721 -1.4815
  425MOL0     H58636  10.809   9.617  -0.117 -1.0404 -1.7453 -0.9319
  425MOL0     H58637  10.561   9.565  -0.148 -2.5487  3.4884 -0.1018
  425MOL0     H58638  10.341   9.425   0.185  0.5813 -0.6859 -1.6941
  425MOL0     H58639  10.292   9.589   0.195 -4.4736  0.6145 -0.8101
  425MOL0     H58640  10.175   9.438  -0.039 -0.0663  0.9999 -0.7474
  425MOL0     H58641  10.120   9.582   0.042 -2.7615 -0.8461 -2.7032
  425MOL0     H58642  10.106   9.304   0.164  0.8513 -0.4781 -2.1497
  425MOL0     H58643  10.071   9.461   0.239 -2.8270 -0.9041  1.1692
  425MOL0     H58644   9.912   9.490   0.027  2.0698 -1.2020 -1.7709
  425MOL0     H58645   9.865   9.398   0.172  0.8779 -1.0174  0.5486
  425MOL0     H58646   9.849   9.129  -0.156 -0.6796  1.5703 -0.5172
  425MOL0     H58647  10.515   9.573   0.280  1.4133  2.2061  0.4117
  425MOL0     H58648  10.803   9.576   0.381 -0.4703 -0.9653 -0.5739
  425MOL0     H58649  10.797   9.756   0.335 -0.4290 -0.4980  0.0120
  425MOL0     H58650  10.660   9.674   0.402 -2.1449 -1.5176 -1.5367
  426MOL0     O58651  11.194   6.220   5.596  0.1689  0.6678  0.4715
  426MOL0     C58652  11.230   6.283   5.692  0.4146 -0.6226 -0.1441
  426MOL0     O58653  11.356   6.338   5.706 -0.0051 -0.1860  0.3086
  426MOL0     C58654  11.449   6.289   5.617 -0.6073  0.1546  0.2109
  426MOL0     C58655  11.459   6.158   5.566  0.5844  0.9898  0.9166
  426MOL0     C58656  11.558   6.120   5.468  0.9379  0.3969 -0.1469
  426MOL0     C58657  11.656   6.221   5.429  0.3686 -0.6796  0.3008
  426MOL0     O58658  11.751   6.180   5.329  1.3714  0.5346 -0.6443
  426MOL0     C58659  11.864   6.259   5.286  0.1500  0.1250 -0.1323
  426MOL0     C58660  11.955   6.172   5.209  0.1308  0.4016 -0.3163
  426MOL0     C58661  12.077   6.243   5.154  0.6146 -0.5442  0.8780
  426MOL0     C58662  12.185   6.143   5.106 -0.6311 -0.4426 -0.5449
  426MOL0     C58663  12.331   6.196   5.098 -0.3243  0.1899  0.6324
  426MOL0     C58664  12.423   6.122   4.996 -1.1089 -0.5432  0.1299
  426MOL0     C58665  12.556   6.186   4.966  0.3532  0.0075  1.0692
  426MOL0     C58666  12.662   6.145   5.076 -0.9762 -0.2745  0.5946
  426MOL0     N58667  12.783   6.221   5.045 -0.0645 -0.0860  0.9620
  426MOL0     C58668  12.822   6.345   5.103  0.3965  0.3627 -0.0757
  426MOL0     C58669  12.921   6.396   5.026  0.3943  0.3212 -0.0531
  426MOL0     C58670  12.981   6.528   5.057 -0.1857  0.3580 -0.4954
  426MOL0     C58671  13.108   6.511   5.147 -0.5803 -0.0342  0.8331
  426MOL0     C58672  13.198   6.635   5.122 -0.3908 -0.5311 -0.1345
  426MOL0     C58673  13.320   6.649   5.217  0.3582  0.9332 -0.9906
  426MOL0     O58674  13.402   6.756   5.179 -0.0450 -0.1928 -0.1477
  426MOL0     C58675  13.502   6.797   5.267  1.2345 -0.0205 -0.4757
  426MOL0     C58676  13.591   6.887   5.212  0.3296  0.1011  0.1033
  426MOL0     C58677  13.694   6.939   5.290 -0.3446  0.2136  0.3224
  426MOL0     C58678  13.779   7.044   5.224  0.6291  0.2751  0.1264
  426MOL0     C58679  13.723   6.891   5.424 -0.1223 -0.2951  0.0534
  426MOL0     C58680  13.836   6.936   5.507  0.0542 -0.1804  0.3019
  426MOL0     O58681  13.935   7.000   5.447  0.2001 -0.2876 -0.1549
  426MOL0     C58682  14.047   7.045   5.502 -0.0939  0.1954  0.1684
  426MOL0     C58683  14.163   7.008   5.448 -1.6367  0.5737 -0.1672
  426MOL0     C58684  14.286   7.063   5.496  0.3258 -0.0112 -0.4103
  426MOL0     C58685  14.282   7.146   5.608  0.9440  0.0607  0.3510
  426MOL0     O58686  14.399   7.190   5.661 -0.4351 -0.1180  0.0027
  426MOL0     C58687  14.427   7.327   5.685 -0.4525 -0.7835  0.2519
  426MOL0     C58688  14.521   7.343   5.810 -0.1668 -0.5327  0.3619
  426MOL0     C58689  14.641   7.252   5.807 -0.1908 -0.4538 -0.2598
  426MOL0     C58690  14.723   7.262   5.939  0.3205 -0.7777 -0.3851
  426MOL0     C58691  14.847   7.175   5.954 -0.1199  0.9087  0.1328
  426MOL0     C58692  14.897   7.187   6.103 -0.7266  0.8459 -0.8123
  426MOL0     C58693  15.008   7.087   6.145 -0.1800  0.6539  0.2851
  426MOL0     C58694  14.970   6.945   6.126  0.2611 -0.0712 -0.4372
  426MOL0    Cl58695  15.015   6.879   5.965  0.0211 -0.4285  0.0141
  426MOL0     C58696  14.163   7.173   5.669  1.3807  0.0283  0.3245
  426MOL0     C58697  14.044   7.132   5.608  0.0312  0.1418  0.1373
  426MOL0     O58698  13.837   6.906   5.620 -0.1502  0.5541 -0.2789
  426MOL0     C58699  13.640   6.782   5.468 -0.3994  0.2224  0.1628
  426MOL0     C58700  13.532   6.744   5.393  1.0598 -0.0588 -0.1880
  426MOL0     N58701  12.947   6.302   4.930 -0.3703  0.2662 -0.5264
  426MOL0     N58702  12.869   6.198   4.939  1.0850 -0.4917  0.4652
  426MOL0     C58703  11.645   6.353   5.489 -0.3797  0.9324 -1.0213
  426MOL0     C58704  11.549   6.377   5.585 -0.6553  0.1171  0.3398
  426MOL0     C58705  11.127   6.326   5.794  0.2992  0.1268  0.4844
  426MOL0     C58706  11.163   6.357   5.921  0.1778  0.1858 -0.1457
  426MOL0     C58707  11.068   6.384   6.023 -0.6736  0.7812  0.2113
  426MOL0     C58708  10.934   6.378   5.993 -1.2285  0.5474  0.4790
  426MOL0     O58709  10.830   6.401   6.078  0.3275  0.3173 -0.1644
  426MOL0     C58710  10.860   6.442   6.216  0.1780 -0.6003  0.3174
  426MOL0     C58711  10.736   6.506   6.273  0.7697 -0.2745  0.7666
  426MOL0     C58712  10.693   6.636   6.194  0.5149 -0.0868 -0.2129
  426MOL0     C58713  10.602   6.725   6.276 -0.1197  0.0955  0.5766
  426MOL0     C58714  10.485   6.657   6.337  0.0866  0.0334  0.3205
  426MOL0     C58715  10.384   6.607   6.388 -0.8020  0.2351  0.5660
  426MOL0     C58716  10.891   6.354   5.867 -0.9120  0.2599 -1.3248
  426MOL0     C58717  10.984   6.322   5.767 -0.0801  0.0894 -0.2778
  426MOL0     C58718  10.922   6.317   5.627  0.2836 -0.2471 -0.3610
  426MOL0     H58719  11.381   6.086   5.589  2.4193 -1.9852 -1.5711
  426MOL0     H58720  11.565   6.024   5.418  2.0620  0.6726 -0.5492
  426MOL0     H58721  11.924   6.302   5.367  2.3192  1.7015 -2.4184
  426MOL0     H58722  11.826   6.342   5.226 -1.6603  0.4019  1.2826
  426MOL0     H58723  11.978   6.095   5.283 -0.6368  2.5107  2.2803
  426MOL0     H58724  11.911   6.125   5.120  3.4124 -0.8958 -1.3976
  426MOL0     H58725  12.052   6.304   5.066  2.0703 -1.7402 -0.4339
  426MOL0     H58726  12.116   6.303   5.236  0.3787 -1.7195  1.8714
  426MOL0     H58727  12.177   6.070   5.188  0.4640  2.7832  2.6677
  426MOL0     H58728  12.157   6.106   5.007 -0.0921 -0.6422 -0.6224
  426MOL0     H58729  12.365   6.190   5.202 -1.0573 -3.3525  0.7902
  426MOL0     H58730  12.333   6.301   5.068  1.2619  0.1726  0.5514
  426MOL0     H58731  12.432   6.022   5.038 -1.2099 -0.6964 -0.2130
  426MOL0     H58732  12.385   6.115   4.894 -0.3013  0.7598 -0.2883
  426MOL0     H58733  12.552   6.295   4.960  2.9384  0.0789 -2.2790
  426MOL0     H58734  12.593   6.160   4.867  2.5095  1.6954  1.3682
  426MOL0     H58735  12.634   6.184   5.175  1.2092  0.8166  0.8448
  426MOL0     H58736  12.667   6.038   5.094 -1.5204 -0.4153 -0.0645
  426MOL0     H58737  12.783   6.393   5.193 -1.8472 -0.4027 -0.5763
  426MOL0     H58738  12.904   6.592   5.100 -0.8840 -0.4496 -0.5100
  426MOL0     H58739  13.005   6.566   4.957  0.7600  0.6341 -0.1749
  426MOL0     H58740  13.079   6.518   5.252  0.7471 -0.5453  1.2585
  426MOL0     H58741  13.155   6.415   5.128 -0.6372  0.1370 -0.2244
  426MOL0     H58742  13.230   6.621   5.019  0.9502  1.5642 -0.0671
  426MOL0     H58743  13.155   6.736   5.132  2.1655  0.8924 -2.3395
  426MOL0     H58744  13.282   6.660   5.319  0.9380 -0.7256 -0.5547
  426MOL0     H58745  13.381   6.558   5.213  0.9314  0.6796  4.8586
  426MOL0     H58746  13.568   6.914   5.109 -1.2103  1.1355  0.6938
  426MOL0     H58747  13.726   7.095   5.142  1.9757 -0.0239 -0.9712
  426MOL0     H58748  13.874   7.010   5.181 -0.4979 -0.9272 -1.5852
  426MOL0     H58749  13.803   7.123   5.295 -0.3496  0.1967  0.5642
  426MOL0     H58750  14.166   6.950   5.356 -1.1531  1.0820 -0.4792
  426MOL0     H58751  14.381   7.037   5.450  0.3660 -0.3150 -0.1633
  426MOL0     H58752  14.474   7.367   5.595 -2.6263 -1.9806 -1.5034
  426MOL0     H58753  14.340   7.391   5.699  2.1667  3.5794 -1.6454
  426MOL0     H58754  14.540   7.448   5.833  0.3572 -0.8711  1.5772
  426MOL0     H58755  14.463   7.305   5.895  0.0826 -1.3566  0.1786
  426MOL0     H58756  14.702   7.287   5.724  0.3277 -2.4504 -0.7932
  426MOL0     H58757  14.622   7.147   5.783  0.8869 -1.0180  1.1928
  426MOL0     H58758  14.658   7.238   6.024 -0.5925  0.2903 -0.7632
  426MOL0     H58759  14.767   7.361   5.954  3.9616 -2.1497 -0.9174
  426MOL0     H58760  14.822   7.071   5.933 -0.4831  0.8218  0.9744
  426MOL0     H58761  14.921   7.214   5.884 -0.0909  0.5007 -0.0687
  426MOL0     H58762  14.815   7.179   6.175  1.3779 -1.2016  1.5522
  426MOL0     H58763  14.943   7.286   6.115  1.0428  0.3318 -2.7967
  426MOL0     H58764  15.025   7.106   6.252  0.0530  2.8050 -0.0831
  426MOL0     H58765  15.105   7.106   6.097 -1.0782  3.2446 -0.6700
  426MOL0     H58766  14.862   6.935   6.140 -0.0563  1.8070 -1.3477
  426MOL0     H58767  15.020   6.881   6.200  0.5181  2.5742  1.8380
  426MOL0     H58768  14.147   7.242   5.752  0.1266  1.2961 -0.8973
  426MOL0     H58769  13.946   7.157   5.646  1.1874 -0.2941  3.7515
  426MOL0     H58770  13.650   6.744   5.569  0.1841  3.0279  1.2447
  426MOL0     H58771  13.464   6.666   5.426 -1.6499  2.5426  0.8028
  426MOL0     H58772  11.723   6.426   5.468  1.0869  0.8400  3.2366
  426MOL0     H58773  11.532   6.475   5.630 -2.5446  0.3858 -0.8486
  426MOL0     H58774  11.268   6.376   5.943 -0.0458 -0.2716  1.4935
  426MOL0     H58775  11.110   6.421   6.117 -0.1538 -2.4090  1.3555
  426MOL0     H58776  10.895   6.366   6.287  1.5891  0.3033  0.6309
  426MOL0     H58777  10.939   6.518   6.211  0.0997 -0.6131 -2.0261
  426MOL0     H58778  10.756   6.531   6.378 -1.0759 -3.6832  2.0844
  426MOL0     H58779  10.651   6.437   6.275 -0.7815  1.5067 -0.0258
  426MOL0     H58780  10.777   6.700   6.165 -0.3656  0.5951 -1.3229
  426MOL0     H58781  10.651   6.611   6.097  1.7326  0.7883 -0.9970
  426MOL0     H58782  10.574   6.802   6.203  2.0583 -0.4883 -0.9743
  426MOL0     H58783  10.661   6.768   6.358 -2.7503 -0.3239  2.8065
  426MOL0     H58784  10.299   6.568   6.441 -0.8299 -0.8065 -0.2166
  426MOL0     H58785  10.786   6.350   5.841 -1.5962 -0.9108  1.3047
  426MOL0     H58786  10.841   6.389   5.621  1.5586  1.1781 -1.1385
  426MOL0     H58787  10.990   6.353   5.549  0.3126  0.7545  0.1127
  426MOL0     H58788  10.890   6.215   5.604  3.0086 -0.6770 -2.7929
  427MOL0     O58789   3.653   6.356  10.327  0.4220 -0.5350  0.1873
  427MOL0     C58790   3.602   6.343  10.216 -0.6141  0.3116 -0.5982
  427MOL0     O58791   3.655   6.387  10.096  0.4303 -0.3147  0.0817
  427MOL0     C58792   3.765   6.466  10.108  0.2608 -0.3490  0.3601
  427MOL0     C58793   3.897   6.422  10.109  0.5787  0.1919 -0.1977
  427MOL0     C58794   3.998   6.519  10.126  0.2258 -0.1175 -0.1866
  427MOL0     C58795   3.975   6.655  10.136 -0.7464  0.2484 -0.4339
  427MOL0     O58796   4.082   6.741  10.145 -0.3255 -0.2996 -0.1654
  427MOL0     C58797   4.181   6.710  10.243  0.2054 -0.7700  0.0520
  427MOL0     C58798   4.225   6.837  10.306  0.2915  0.2288  0.4704
  427MOL0     C58799   4.307   6.938  10.222  1.0476  0.2299 -0.1189
  427MOL0     C58800   4.425   6.870  10.163 -0.3854  0.6210 -0.0443
  427MOL0     C58801   4.519   6.953  10.083  0.0477 -0.0440 -0.6616
  427MOL0     C58802   4.656   6.881  10.065 -0.5658  0.2785  0.2884
  427MOL0     C58803   4.745   6.960   9.968  0.2851  0.4733  0.2158
  427MOL0     C58804   4.875   6.880   9.964 -0.1844 -0.4696  0.2215
  427MOL0     N58805   4.965   6.966   9.894  0.2429 -0.4573 -0.1698
  427MOL0     C58806   4.967   6.970   9.750  0.3480  1.1122 -1.2771
  427MOL0     C58807   5.079   7.041   9.719 -0.0326 -0.9901 -0.0384
  427MOL0     C58808   5.135   7.084   9.583  0.7008 -0.0521 -1.3159
  427MOL0     C58809   5.123   6.972   9.485  0.3039 -0.1801  0.2024
  427MOL0     C58810   5.136   7.040   9.339  0.0615  0.2700  0.2465
  427MOL0     C58811   5.112   6.933   9.241  0.2042  1.0439  0.0246
  427MOL0     O58812   5.209   6.823   9.231 -0.1515  0.0739  0.0068
  427MOL0     C58813   5.330   6.849   9.181 -0.3302 -0.3274  0.4759
  427MOL0     C58814   5.367   6.958   9.111  0.3134 -0.9042 -0.6227
  427MOL0     C58815   5.482   6.964   9.036 -0.0073 -0.0157  0.3567
  427MOL0     C58816   5.524   7.087   8.955  0.8573 -0.2942 -0.3154
  427MOL0     C58817   5.573   6.855   9.035  0.3560  0.2623 -0.0446
  427MOL0     C58818   5.694   6.868   8.958 -1.0108  0.2599  0.2625
  427MOL0     O58819   5.809   6.874   9.036  0.7449  1.1481 -0.3381
  427MOL0     C58820   5.934   6.913   9.000  0.3991  0.3698  0.7322
  427MOL0     C58821   5.973   7.043   8.972  0.6370  1.1888 -0.3193
  427MOL0     C58822   6.103   7.076   8.935  0.5557  0.8722  0.7489
  427MOL0     C58823   6.195   6.973   8.920 -0.4441  0.6560 -0.9224
  427MOL0     O58824   6.319   7.003   8.881 -0.0803 -0.9359  0.3405
  427MOL0     C58825   6.431   6.908   8.903  0.8126 -0.5826  0.8582
  427MOL0     C58826   6.562   6.992   8.900  0.5066 -0.6884 -0.1031
  427MOL0     C58827   6.691   6.900   8.904  0.0098  0.9284 -0.2359
  427MOL0     C58828   6.823   6.978   8.896 -0.4467 -0.2060  0.6332
  427MOL0     C58829   6.853   7.056   9.022  0.1834 -0.8480 -0.1516
  427MOL0     C58830   6.987   7.124   9.018  0.0960 -0.3443 -0.4822
  427MOL0     C58831   6.992   7.231   8.903  0.9664 -0.2867 -0.2387
  427MOL0     C58832   7.115   7.316   8.920  0.0799  0.3429 -0.0545
  427MOL0    Cl58833   7.128   7.415   8.767 -0.2915  0.2192  0.5339
  427MOL0     C58834   6.162   6.839   8.941  0.2250  0.0658  0.8521
  427MOL0     C58835   6.030   6.808   8.978 -0.6808 -0.4191 -1.2327
  427MOL0     O58836   5.694   6.866   8.833  0.3647 -0.5841  0.1223
  427MOL0     C58837   5.547   6.750   9.118  0.5535 -0.5155  0.2984
  427MOL0     C58838   5.421   6.750   9.188  0.0716 -0.0903 -0.0457
  427MOL0     N58839   5.149   7.067   9.839 -0.6859 -0.5805  0.5503
  427MOL0     N58840   5.084   7.010   9.938  0.4825  0.0878 -0.7742
  427MOL0     C58841   3.843   6.692  10.139 -0.2924 -0.4450  0.0517
  427MOL0     C58842   3.740   6.603  10.125 -0.4269 -0.4782  0.6775
  427MOL0     C58843   3.461   6.282  10.196 -0.7691  0.0881 -0.9250
  427MOL0     C58844   3.430   6.180  10.288  0.6755  0.2032 -0.2199
  427MOL0     C58845   3.317   6.098  10.267  0.0230 -0.7720 -0.0264
  427MOL0     C58846   3.236   6.115  10.151 -0.9465  0.4256 -0.5124
  427MOL0     O58847   3.133   6.026  10.132  0.4138 -0.0899 -0.2960
  427MOL0     C58848   3.037   6.045  10.023 -0.4762 -0.4262 -0.3174
  427MOL0     C58849   2.934   5.937  10.021 -0.1243 -0.6189  0.2957
  427MOL0     C58850   2.867   5.922  10.150  0.6419 -0.6773 -0.8294
  427MOL0     C58851   2.745   5.812  10.131 -1.0187 -0.0941 -0.5210
  427MOL0     C58852   2.789   5.680  10.099 -0.1533 -0.2588 -0.4440
  427MOL0     C58853   2.833   5.571  10.082 -0.5262  0.7646 -0.7924
  427MOL0     C58854   3.265   6.219  10.073 -0.6120 -0.4567  0.1880
  427MOL0     C58855   3.379   6.310  10.091  0.3220  0.2287 -0.3613
  427MOL0     C58856   3.389   6.421   9.989  0.7926  0.0526  0.7670
  427MOL0     H58857   3.913   6.317  10.085 -0.8214 -0.2402  0.6267
  427MOL0     H58858   4.101   6.483  10.126  0.1491 -0.3784  1.1741
  427MOL0     H58859   4.266   6.653  10.204  0.4505 -0.8270  0.6628
  427MOL0     H58860   4.126   6.652  10.317 -1.7562  1.8557  0.8069
  427MOL0     H58861   4.132   6.881  10.344  0.0018  0.3772 -0.3896
  427MOL0     H58862   4.284   6.801  10.391  0.8299 -0.9615 -0.3722
  427MOL0     H58863   4.240   6.988  10.151  1.1422  2.5409  1.3258
  427MOL0     H58864   4.340   7.021  10.284  1.0472 -1.0005  1.6046
  427MOL0     H58865   4.485   6.810  10.232  0.3997 -1.4533 -2.3737
  427MOL0     H58866   4.392   6.794  10.091 -2.7513  1.4947  0.0277
  427MOL0     H58867   4.525   7.049  10.136 -1.7436 -0.7020  0.8422
  427MOL0     H58868   4.483   6.979   9.983  4.3888  2.8034 -1.7822
  427MOL0     H58869   4.708   6.879  10.161 -0.0228 -1.3157 -0.0136
  427MOL0     H58870   4.653   6.777  10.032  1.9548  0.5926 -1.2319
  427MOL0     H58871   4.762   7.061  10.006 -1.1251  1.1731 -0.9019
  427MOL0     H58872   4.701   6.961   9.868  0.4845 -1.3816  0.0693
  427MOL0     H58873   4.916   6.870  10.065  0.0385  2.0833  0.4458
  427MOL0     H58874   4.859   6.784   9.914  1.4764  0.7086 -2.8733
  427MOL0     H58875   4.889   6.936   9.684 -1.3916  0.5935  0.9299
  427MOL0     H58876   5.240   7.116   9.588  0.5648  0.3468 -1.0125
  427MOL0     H58877   5.077   7.172   9.552 -2.1947 -0.7602  1.5828
  427MOL0     H58878   5.191   6.889   9.507 -1.1901 -1.9380 -1.5485
  427MOL0     H58879   5.024   6.926   9.496  0.1636  0.1652  0.4108
  427MOL0     H58880   5.054   7.112   9.330  0.9328  1.4756  1.6366
  427MOL0     H58881   5.232   7.091   9.330 -0.6665  2.1999  2.3883
  427MOL0     H58882   5.016   6.881   9.254  0.4536  1.0080  1.9552
  427MOL0     H58883   5.108   6.978   9.142 -2.5968  1.6837  0.3553
  427MOL0     H58884   5.305   7.046   9.115  1.6020 -0.0099  0.7630
  427MOL0     H58885   5.459   7.174   8.966  2.2733  0.6084  1.3358
  427MOL0     H58886   5.526   7.058   8.850 -1.1302  0.7773 -0.6878
  427MOL0     H58887   5.618   7.133   8.987  1.1761  0.8867 -2.7485
  427MOL0     H58888   5.905   7.128   8.976 -0.7893  0.1391 -1.1777
  427MOL0     H58889   6.138   7.178   8.918 -1.1634  1.2711 -0.6144
  427MOL0     H58890   6.429   6.862   9.002  0.9837 -0.0998  1.0905
  427MOL0     H58891   6.438   6.829   8.828 -0.0608  1.3847 -1.4196
  427MOL0     H58892   6.563   7.050   8.807 -2.9763 -1.1873 -0.5943
  427MOL0     H58893   6.548   7.065   8.980 -2.9361  0.1368 -1.2728
  427MOL0     H58894   6.685   6.827   8.823  1.2712  1.1184 -0.5331
  427MOL0     H58895   6.694   6.846   8.999  0.1347  2.7084  0.8267
  427MOL0     H58896   6.834   7.047   8.811  1.6651 -0.9851  0.1993
  427MOL0     H58897   6.906   6.908   8.884 -0.4159  0.1422 -1.5245
  427MOL0     H58898   6.773   7.130   9.028 -0.0010 -1.0245 -0.4045
  427MOL0     H58899   6.835   6.995   9.110 -0.0281 -1.3751 -0.5554
  427MOL0     H58900   7.066   7.048   9.012 -1.0220 -1.8744  2.3171
  427MOL0     H58901   6.993   7.182   9.111  0.4773 -1.8574  0.4750
  427MOL0     H58902   6.901   7.292   8.909  1.8557  1.2503 -1.7061
  427MOL0     H58903   7.001   7.184   8.805 -2.3225 -3.6361  0.7913
  427MOL0     H58904   7.198   7.249   8.940 -1.7952 -2.9231 -2.2921
  427MOL0     H58905   7.109   7.385   9.005 -0.3680 -1.5972  1.5516
  427MOL0     H58906   6.232   6.759   8.917  2.2479  1.2928  2.3033
  427MOL0     H58907   5.991   6.707   8.985  0.6272 -1.1244 -3.0669
  427MOL0     H58908   5.615   6.668   9.135 -0.8902 -1.5450  1.3398
  427MOL0     H58909   5.397   6.656   9.237 -0.1884 -0.6903 -1.2684
  427MOL0     H58910   3.819   6.798  10.131 -1.6896 -0.6125  1.5234
  427MOL0     H58911   3.648   6.660  10.134 -0.2929  0.0063 -0.6915
  427MOL0     H58912   3.500   6.157  10.367  0.8773 -0.8954 -0.7007
  427MOL0     H58913   3.303   6.009  10.327 -1.2752 -0.3030  0.3930
  427MOL0     H58914   2.988   6.142  10.033  2.5376  1.4004 -1.8404
  427MOL0     H58915   3.082   6.048   9.923 -0.4443 -1.5461 -0.3551
  427MOL0     H58916   2.987   5.847   9.989 -1.6592 -0.8973 -1.6680
  427MOL0     H58917   2.863   5.950   9.939 -0.9142  2.7426  1.3628
  427MOL0     H58918   2.945   5.889  10.220 -0.4172  1.3660  1.4535
  427MOL0     H58919   2.831   6.008  10.207 -1.1982 -1.4701 -0.7257
  427MOL0     H58920   2.672   5.838  10.053 -2.7358 -0.7144  0.8295
  427MOL0     H58921   2.688   5.809  10.224 -0.7422 -1.2447 -0.3821
  427MOL0     H58922   2.864   5.469  10.096 -2.4919  0.2814  0.4348
  427MOL0     H58923   3.196   6.240   9.992  0.6185  0.3324 -0.7021
  427MOL0     H58924   3.299   6.423   9.928  2.3603  1.0029 -1.6780
  427MOL0     H58925   3.414   6.515  10.040  3.1959 -0.6945  1.0962
  427MOL0     H58926   3.477   6.409   9.925  2.4321  2.6735  2.3141
  428MOL0     O58927   6.609   3.173   3.203 -0.4634 -0.0292  0.8824
  428MOL0     C58928   6.618   3.255   3.111 -0.2188 -0.6045 -0.1620
  428MOL0     O58929   6.701   3.241   3.002  0.3948  0.4202  0.6858
  428MOL0     C58930   6.787   3.139   2.984 -0.2873 -0.2511  0.4753
  428MOL0     C58931   6.851   3.078   3.096  0.7170 -0.0922  0.4113
  428MOL0     C58932   6.951   2.991   3.075 -0.2966 -0.5455 -0.2529
  428MOL0     C58933   6.997   2.958   2.951  0.9617 -0.4097  0.0742
  428MOL0     O58934   7.099   2.863   2.946 -0.6042  0.3270 -0.1459
  428MOL0     C58935   7.225   2.938   2.938 -0.4300  0.2516  0.6112
  428MOL0     C58936   7.275   2.899   2.796 -0.2421 -0.5998 -0.7363
  428MOL0     C58937   7.397   2.981   2.748 -0.8792  0.5155 -0.2427
  428MOL0     C58938   7.383   3.023   2.597  0.2723  0.1554 -0.1543
  428MOL0     C58939   7.498   3.110   2.543  0.1858 -0.4603 -0.1681
  428MOL0     C58940   7.639   3.065   2.584 -1.1130  0.9503 -0.6834
  428MOL0     C58941   7.746   3.147   2.504 -0.5905  0.4033 -0.5287
  428MOL0     C58942   7.877   3.119   2.574  0.4182  0.3180  0.9768
  428MOL0     N58943   7.989   3.196   2.521 -0.3603  0.8604 -0.0314
  428MOL0     C58944   8.000   3.329   2.488 -0.0700 -0.8129  0.1165
  428MOL0     C58945   8.129   3.351   2.457  0.0827  0.3267 -0.1639
  428MOL0     C58946   8.189   3.484   2.423  0.3077  0.1661  0.5020
  428MOL0     C58947   8.336   3.513   2.450  0.6365  0.7795  0.2620
  428MOL0     C58948   8.373   3.530   2.599 -0.0553 -0.3309  0.6016
  428MOL0     C58949   8.528   3.517   2.624 -0.0308  0.4958 -0.2715
  428MOL0     O58950   8.612   3.575   2.520  0.5286  0.4327 -0.2198
  428MOL0     C58951   8.745   3.538   2.517 -0.3013 -0.7527 -0.6623
  428MOL0     C58952   8.811   3.462   2.615 -0.5935  0.4071  0.9402
  428MOL0     C58953   8.947   3.446   2.599 -0.5551  1.0395  0.6244
  428MOL0     C58954   9.024   3.397   2.723  0.5115 -0.6946 -0.0859
  428MOL0     C58955   9.013   3.487   2.476  0.8815 -0.4517 -0.5059
  428MOL0     C58956   9.163   3.466   2.445 -0.1591  0.0730 -1.0607
  428MOL0     O58957   9.226   3.370   2.521 -0.3819  0.2459 -0.4655
  428MOL0     C58958   9.353   3.338   2.474  0.3361 -0.6742  0.3194
  428MOL0     C58959   9.368   3.289   2.345 -0.0621  0.2812 -0.8362
  428MOL0     C58960   9.493   3.249   2.302  1.1255  0.7403 -0.0902
  428MOL0     C58961   9.608   3.273   2.380 -0.3290  0.3060 -0.1357
  428MOL0     O58962   9.731   3.261   2.312  0.1583  0.4858  0.0240
  428MOL0     C58963   9.843   3.320   2.377  0.0955 -0.0242  0.5480
  428MOL0     C58964   9.970   3.332   2.290 -0.0740  0.1876 -0.2962
  428MOL0     C58965  10.087   3.403   2.366  0.0603  0.4699 -0.7028
  428MOL0     C58966  10.212   3.399   2.269 -0.0563 -0.6020 -0.3908
  428MOL0     C58967  10.315   3.483   2.336  0.5834 -0.8125 -0.2378
  428MOL0     C58968  10.450   3.460   2.280 -0.1716 -0.2572 -0.5977
  428MOL0     C58969  10.538   3.571   2.338 -1.0056 -0.7410  0.0241
  428MOL0     C58970  10.679   3.579   2.286 -0.5040 -0.6733  0.8396
  428MOL0    Cl58971  10.765   3.443   2.362 -0.2818 -0.0142 -0.0677
  428MOL0     C58972   9.591   3.323   2.510  0.1069  0.1293  0.4233
  428MOL0     C58973   9.463   3.355   2.554  1.1084  0.6700  0.0380
  428MOL0     O58974   9.214   3.539   2.367 -0.4867 -0.5973 -0.2716
  428MOL0     C58975   8.942   3.562   2.389 -0.0882 -0.2568  0.7690
  428MOL0     C58976   8.808   3.581   2.402  0.3385  0.5123  0.3320
  428MOL0     N58977   8.197   3.229   2.468 -0.4700  0.0178  0.1078
  428MOL0     N58978   8.115   3.133   2.506  0.0637 -0.2089  0.2767
  428MOL0     C58979   6.936   3.021   2.840 -1.9022 -0.4933  0.2153
  428MOL0     C58980   6.836   3.121   2.851 -0.0170 -0.0787  0.2517
  428MOL0     C58981   6.545   3.386   3.124  0.0163 -1.0924 -0.1281
  428MOL0     C58982   6.613   3.501   3.081  0.3397 -0.4756 -0.2962
  428MOL0     C58983   6.554   3.625   3.073 -0.5058  0.3962  0.1488
  428MOL0     C58984   6.418   3.634   3.103 -0.2314 -0.4042 -0.0610
  428MOL0     O58985   6.364   3.761   3.105  0.1336 -0.0600 -1.0190
  428MOL0     C58986   6.227   3.777   3.067 -0.2099  0.7442  0.4203
  428MOL0     C58987   6.189   3.928   3.044 -1.5059  0.2197 -0.5008
  428MOL0     C58988   6.287   4.001   2.952  0.4542  0.9335 -0.2465
  428MOL0     C58989   6.292   3.949   2.804  0.7999  0.4564  0.0979
  428MOL0     C58990   6.163   3.965   2.737  1.1988  0.4588 -0.4829
  428MOL0     C58991   6.054   3.967   2.676 -0.1112  0.2793 -0.4892
  428MOL0     C58992   6.345   3.522   3.137  0.0147  0.5797 -0.2320
  428MOL0     C58993   6.405   3.396   3.140 -0.7195 -0.5379  0.3125
  428MOL0     C58994   6.320   3.281   3.180  0.1137  0.3696  0.9054
  428MOL0     H58995   6.823   3.081   3.200 -0.5235 -1.4323  0.1398
  428MOL0     H58996   6.996   2.936   3.156 -0.0111 -0.5010 -0.3778
  428MOL0     H58997   7.294   2.917   3.020 -0.7807  2.0123  1.3982
  428MOL0     H58998   7.204   3.045   2.941  0.5976  0.6608 -2.9063
  428MOL0     H58999   7.301   2.793   2.787 -0.8144 -0.8728  0.5697
  428MOL0     H59000   7.192   2.912   2.726  0.1071 -2.0132 -1.4498
  428MOL0     H59001   7.405   3.074   2.805 -1.2744  0.6369 -0.3831
  428MOL0     H59002   7.482   2.918   2.775 -1.7384 -0.1581  0.9654
  428MOL0     H59003   7.382   2.930   2.539  0.5410  1.0110 -1.5654
  428MOL0     H59004   7.291   3.077   2.575  0.0965  0.2086  0.6899
  428MOL0     H59005   7.468   3.213   2.564 -0.8095  0.0309 -3.5085
  428MOL0     H59006   7.492   3.099   2.435 -0.1103 -3.3947  0.0617
  428MOL0     H59007   7.658   3.064   2.691  2.4175 -0.5966 -1.1852
  428MOL0     H59008   7.642   2.960   2.552  0.8763  0.5135  0.7643
  428MOL0     H59009   7.719   3.253   2.512 -2.6986 -0.1373  0.0656
  428MOL0     H59010   7.748   3.111   2.401 -0.5562 -1.3488  0.0455
  428MOL0     H59011   7.872   3.132   2.683 -1.3123  0.6304  0.8820
  428MOL0     H59012   7.897   3.013   2.555  0.4968  0.4280  0.4225
  428MOL0     H59013   7.924   3.402   2.512  2.2983  1.1930  2.0856
  428MOL0     H59014   8.139   3.560   2.484  0.7880  0.0481  1.0448
  428MOL0     H59015   8.185   3.494   2.314  1.8941 -1.2042  0.2716
  428MOL0     H59016   8.392   3.431   2.403 -0.7308 -1.0638  1.6728
  428MOL0     H59017   8.366   3.605   2.400  1.1366  0.0278 -0.8680
  428MOL0     H59018   8.334   3.629   2.626 -4.1467 -1.4483 -0.5035
  428MOL0     H59019   8.323   3.456   2.664  0.5353  0.7014  2.3074
  428MOL0     H59020   8.562   3.555   2.721  2.2995 -2.9262  0.4230
  428MOL0     H59021   8.546   3.409   2.619 -1.5863  0.2720 -2.8787
  428MOL0     H59022   8.764   3.426   2.707  0.3264 -0.4194  1.1010
  428MOL0     H59023   9.126   3.437   2.720  0.6998 -0.9897  1.4590
  428MOL0     H59024   9.044   3.289   2.729 -1.3871 -1.0181  1.3250
  428MOL0     H59025   8.968   3.430   2.811 -1.6031  0.9643 -1.9654
  428MOL0     H59026   9.291   3.256   2.276  0.2055 -2.2463 -0.0415
  428MOL0     H59027   9.494   3.203   2.204 -0.1119  1.6634 -0.5680
  428MOL0     H59028   9.818   3.421   2.410  1.2158  0.1112  1.0020
  428MOL0     H59029   9.862   3.269   2.472  0.0236 -1.5454 -0.2248
  428MOL0     H59030   9.999   3.232   2.255 -1.0327 -0.9927  2.0827
  428MOL0     H59031   9.938   3.403   2.213 -1.9188 -2.5850 -2.3082
  428MOL0     H59032  10.118   3.354   2.458  1.3786  0.0842 -1.3286
  428MOL0     H59033  10.048   3.503   2.387  0.2191  0.7117 -1.4987
  428MOL0     H59034  10.170   3.425   2.171 -1.2801  0.0933  0.2954
  428MOL0     H59035  10.257   3.302   2.249 -0.1493 -0.7371  0.0438
  428MOL0     H59036  10.285   3.584   2.307  0.9690 -0.6560 -0.0973
  428MOL0     H59037  10.323   3.468   2.444  1.8056  0.1414 -0.1727
  428MOL0     H59038  10.451   3.449   2.171 -1.3975  1.8182 -0.8612
  428MOL0     H59039  10.481   3.362   2.317  0.0027 -0.9962 -2.5916
  428MOL0     H59040  10.536   3.569   2.448 -3.2190  0.7770  0.0562
  428MOL0     H59041  10.495   3.666   2.306  0.1820 -1.1524 -3.1013
  428MOL0     H59042  10.732   3.672   2.306 -0.1061 -1.2302  2.6293
  428MOL0     H59043  10.686   3.570   2.178 -2.1736  2.5199  0.3652
  428MOL0     H59044   9.670   3.349   2.579  1.4580 -0.2903 -0.9125
  428MOL0     H59045   9.443   3.400   2.651 -1.8553  1.4600 -0.8350
  428MOL0     H59046   8.996   3.592   2.300  2.1915 -0.0844  2.1343
  428MOL0     H59047   8.746   3.632   2.329  0.5150 -0.6597 -0.6764
  428MOL0     H59048   6.971   2.988   2.743  0.9452 -0.6094  1.2029
  428MOL0     H59049   6.794   3.167   2.762 -1.3525 -0.5256  0.6324
  428MOL0     H59050   6.721   3.497   3.067  0.9384 -0.1580  3.3285
  428MOL0     H59051   6.613   3.713   3.049  0.8498  0.4136  3.1104
  428MOL0     H59052   6.203   3.718   2.978 -2.0574  2.2075 -0.1380
  428MOL0     H59053   6.164   3.735   3.145  0.5826 -2.0544 -0.3227
  428MOL0     H59054   6.185   3.973   3.143  1.0640  1.6452 -0.9437
  428MOL0     H59055   6.087   3.922   3.004 -1.4174 -0.6566 -0.6272
  428MOL0     H59056   6.248   4.104   2.955 -1.9538  0.0592  0.9117
  428MOL0     H59057   6.386   3.999   2.998  0.6246  0.4503 -0.6226
  428MOL0     H59058   6.301   3.840   2.797  2.7403  0.0992  4.5204
  428MOL0     H59059   6.372   3.994   2.745  0.2570 -0.0985 -1.0997
  428MOL0     H59060   5.973   3.984   2.607  0.9094 -2.4430 -2.5325
  428MOL0     H59061   6.240   3.533   3.160  0.1689 -1.8083  2.0563
  428MOL0     H59062   6.368   3.226   3.261 -1.7609 -1.4153  0.8755
  428MOL0     H59063   6.220   3.312   3.212 -0.6721 -0.9022 -0.2177
  428MOL0     H59064   6.304   3.210   3.099  2.0328  0.5452  0.3290
  429MOL0     O59065   2.456   5.020  11.092  0.4268 -0.4846  0.7541
  429MOL0     C59066   2.390   5.124  11.107  0.5587  1.1236 -0.5741
  429MOL0     O59067   2.433   5.242  11.073  0.4185 -0.0668 -0.1004
  429MOL0     C59068   2.565   5.284  11.055  0.6673  0.7743  0.0151
  429MOL0     C59069   2.602   5.386  10.965  0.4573  0.5556  0.2812
  429MOL0     C59070   2.743   5.426  10.967 -0.1349  0.3249 -0.0556
  429MOL0     C59071   2.837   5.366  11.056 -0.1510 -0.1315 -0.0278
  429MOL0     O59072   2.975   5.399  11.075  0.4108 -0.2940 -0.1637
  429MOL0     C59073   3.006   5.531  11.028 -0.8360 -0.1367 -0.0041
  429MOL0     C59074   3.140   5.577  11.089  0.3587 -0.2225 -0.1939
  429MOL0     C59075   3.259   5.501  11.033 -0.1164 -0.5870  0.0099
  429MOL0     C59076   3.393   5.528  11.100  0.1772  0.0388  0.1401
  429MOL0     C59077   3.509   5.434  11.053 -0.5075 -0.2944 -0.0099
  429MOL0     C59078   3.555   5.477  10.913 -0.5401  0.2662  0.1366
  429MOL0     C59079   3.682   5.389  10.874 -0.0529 -0.4518 -0.4836
  429MOL0     C59080   3.766   5.475  10.770 -0.7295  0.2047 -0.2455
  429MOL0     N59081   3.862   5.393  10.689 -0.6930  0.6444 -0.1303
  429MOL0     C59082   3.848   5.328  10.570 -1.1329 -0.3642 -0.0572
  429MOL0     C59083   3.976   5.302  10.534 -0.8335  0.2720  0.0574
  429MOL0     C59084   4.027   5.234  10.404 -0.2861  0.5968  1.0294
  429MOL0     C59085   4.182   5.224  10.398 -0.4403  0.1075  0.3859
  429MOL0     C59086   4.218   5.097  10.475 -0.0554  0.3294  0.3468
  429MOL0     C59087   4.372   5.091  10.492  0.2049 -0.1214 -0.5609
  429MOL0     O59088   4.431   5.118  10.371 -0.5139 -0.0537  1.1930
  429MOL0     C59089   4.568   5.146  10.375 -0.0290  0.8316 -0.2898
  429MOL0     C59090   4.651   5.100  10.480 -0.4510 -0.1493 -0.2365
  429MOL0     C59091   4.792   5.122  10.469  1.0660  0.0869 -0.7747
  429MOL0     C59092   4.867   5.056  10.578 -0.0982  0.4666  0.7632
  429MOL0     C59093   4.846   5.187  10.357  0.0850  0.3513  0.4132
  429MOL0     C59094   4.992   5.203  10.335 -0.8872 -0.0282  0.3053
  429MOL0     O59095   5.057   5.293  10.415 -0.1834  0.3316  0.6133
  429MOL0     C59096   5.197   5.324  10.413  0.4669 -0.2122 -0.2499
  429MOL0     C59097   5.243   5.375  10.533 -0.3924  0.1158  0.9099
  429MOL0     C59098   5.371   5.442  10.533 -0.0459 -0.5468  0.7737
  429MOL0     C59099   5.454   5.439  10.422 -0.6356  0.1148  0.3465
  429MOL0     O59100   5.571   5.508  10.436  0.9306 -0.1461  0.1318
  429MOL0     C59101   5.675   5.466  10.347 -0.0433 -0.2072  0.2859
  429MOL0     C59102   5.803   5.531  10.382 -0.2448 -0.1393 -0.5317
  429MOL0     C59103   5.809   5.569  10.533  0.6231 -0.6347  0.5404
  429MOL0     C59104   5.815   5.447  10.632 -0.2919 -0.3230  0.7919
  429MOL0     C59105   5.901   5.489  10.748 -0.0743 -0.1935 -0.6531
  429MOL0     C59106   5.927   5.364  10.837  0.7185  0.0749 -0.2617
  429MOL0     C59107   6.037   5.387  10.939 -0.4463  0.3307  0.1093
  429MOL0     C59108   6.145   5.278  10.943 -0.1764 -0.3718  0.7724
  429MOL0    Cl59109   6.238   5.268  10.788 -0.1663 -0.4366 -0.0360
  429MOL0     C59110   5.403   5.379  10.311  0.2653 -0.0622 -0.0115
  429MOL0     C59111   5.277   5.326  10.297 -0.1170 -0.1916 -0.1530
  429MOL0     O59112   5.052   5.120  10.267  0.5915 -0.1624 -0.1296
  429MOL0     C59113   4.760   5.236  10.255 -0.6113  0.0254 -0.3255
  429MOL0     C59114   4.620   5.212  10.263 -0.0841 -0.5709  0.3966
  429MOL0     N59115   4.061   5.351  10.628 -0.4423  0.5972  0.1823
  429MOL0     N59116   3.997   5.397  10.717 -0.1628  0.6971 -0.4782
  429MOL0     C59117   2.790   5.264  11.134  0.2508 -0.3141 -0.3058
  429MOL0     C59118   2.664   5.221  11.132 -0.5536  0.5255 -1.2154
  429MOL0     C59119   2.275   5.109  11.188 -0.4638  0.4631  0.1237
  429MOL0     C59120   2.284   5.136  11.327 -0.3494  0.5916 -0.6300
  429MOL0     C59121   2.175   5.120  11.406  1.2358  0.0633 -0.2123
  429MOL0     C59122   2.054   5.073  11.361 -0.1763  0.4075  0.0234
  429MOL0     O59123   1.951   5.035  11.452 -0.6344 -0.7439  0.1721
  429MOL0     C59124   1.821   5.034  11.403  0.2006 -0.5404  0.7667
  429MOL0     C59125   1.734   5.000  11.518 -0.6977 -0.3274 -0.7693
  429MOL0     C59126   1.588   4.985  11.467 -1.2210 -0.0847 -0.6124
  429MOL0     C59127   1.492   4.935  11.574 -0.1055  0.4228 -0.6847
  429MOL0     C59128   1.471   5.045  11.677  0.5116 -0.4374  0.2465
  429MOL0     C59129   1.452   5.125  11.766  0.3452 -0.2691 -0.1450
  429MOL0     C59130   2.041   5.053  11.229  0.2331  0.1048  0.4368
  429MOL0     C59131   2.148   5.075  11.135  0.1323 -1.2602 -0.1560
  429MOL0     C59132   2.126   5.073  10.985  0.7647 -0.1427  0.6991
  429MOL0     H59133   2.529   5.432  10.899 -2.9732 -1.5018  2.3473
  429MOL0     H59134   2.766   5.511  10.903 -0.5564  1.4745  1.2746
  429MOL0     H59135   2.929   5.607  11.046 -1.4434 -0.8098  0.3177
  429MOL0     H59136   3.029   5.526  10.921  5.0524 -2.5928  1.0212
  429MOL0     H59137   3.157   5.684  11.072  1.0910 -0.2955  0.0492
  429MOL0     H59138   3.135   5.557  11.196 -0.8802 -1.5798 -0.4742
  429MOL0     H59139   3.236   5.395  11.038 -0.1407 -0.6631 -1.2894
  429MOL0     H59140   3.278   5.516  10.926  1.6869  0.3344  0.4126
  429MOL0     H59141   3.411   5.634  11.083 -0.0715 -0.2065 -1.9838
  429MOL0     H59142   3.393   5.510  11.208  0.8770  0.3576  0.2000
  429MOL0     H59143   3.479   5.329  11.059  0.7579 -0.6250  1.0208
  429MOL0     H59144   3.604   5.438  11.107  1.3011  1.2872 -3.0197
  429MOL0     H59145   3.476   5.463  10.839 -0.6227  0.8239  0.1200
  429MOL0     H59146   3.576   5.584  10.910 -0.7181  0.2872 -0.7370
  429MOL0     H59147   3.648   5.292  10.834  0.4661 -1.7190  1.9374
  429MOL0     H59148   3.752   5.375  10.957  1.1469  0.6742 -1.2828
  429MOL0     H59149   3.691   5.523  10.706  0.3480 -0.1697 -1.8510
  429MOL0     H59150   3.824   5.548  10.827 -1.3705  2.5993 -2.4432
  429MOL0     H59151   3.761   5.305  10.509 -1.3176  1.0827 -0.3753
  429MOL0     H59152   3.990   5.289  10.317 -1.5573 -0.4082  0.9005
  429MOL0     H59153   3.989   5.134  10.381  3.4537  0.0338 -4.7011
  429MOL0     H59154   4.217   5.220  10.294 -2.5273  2.0500 -0.4775
  429MOL0     H59155   4.216   5.320  10.438 -1.5928  1.6225 -2.0511
  429MOL0     H59156   4.176   5.084  10.575 -0.2776  0.1136  0.2262
  429MOL0     H59157   4.180   5.023  10.405  1.0548  1.4651 -1.5225
  429MOL0     H59158   4.401   5.166  10.566 -0.0618  2.4464 -2.8970
  429MOL0     H59159   4.397   4.992  10.533 -2.1077 -0.0229  1.3229
  429MOL0     H59160   4.605   5.043  10.560 -1.2032  0.2719 -0.3670
  429MOL0     H59161   4.975   5.051  10.561  0.0932  0.1555  1.9819
  429MOL0     H59162   4.827   4.954  10.575 -2.5916  1.4235 -1.3164
  429MOL0     H59163   4.845   5.093  10.679 -0.4501  0.3125  0.7435
  429MOL0     H59164   5.182   5.367  10.622 -0.2719 -2.0932  0.8671
  429MOL0     H59165   5.407   5.500  10.618 -1.0894  2.8947 -0.9636
  429MOL0     H59166   5.686   5.357  10.346 -0.6780 -0.2783  0.7477
  429MOL0     H59167   5.653   5.488  10.242  2.1631  0.0850 -0.1676
  429MOL0     H59168   5.890   5.473  10.350  0.4333  0.0535  0.9122
  429MOL0     H59169   5.807   5.624  10.324  3.1480  0.4250  0.3755
  429MOL0     H59170   5.725   5.637  10.552  1.4662  1.0137 -1.3092
  429MOL0     H59171   5.899   5.629  10.545 -0.6251  1.6469 -0.7474
  429MOL0     H59172   5.852   5.359  10.580 -0.9418  0.3523 -0.8749
  429MOL0     H59173   5.708   5.432  10.648 -1.1734  2.4583 -1.5820
  429MOL0     H59174   5.998   5.530  10.719  0.4624 -0.5739  0.5345
  429MOL0     H59175   5.843   5.557  10.811 -0.9585 -0.6800 -0.9210
  429MOL0     H59176   5.948   5.267  10.790  1.0584 -1.6274  3.0611
  429MOL0     H59177   5.835   5.328  10.884  2.4577 -4.2475  0.2931
  429MOL0     H59178   5.991   5.392  11.038 -0.9038 -0.2039 -0.0706
  429MOL0     H59179   6.085   5.484  10.921 -1.8298  1.3681  1.7083
  429MOL0     H59180   6.099   5.181  10.964  1.5758 -1.3583  0.2509
  429MOL0     H59181   6.221   5.299  11.019  0.3623 -0.4010  0.2513
  429MOL0     H59182   5.466   5.382  10.222  0.0658 -0.6735 -0.1807
  429MOL0     H59183   5.242   5.291  10.201  0.4316  0.8344 -0.7418
  429MOL0     H59184   4.802   5.305  10.182  2.5323  0.1918  1.4488
  429MOL0     H59185   4.562   5.240  10.176 -0.2340 -0.2761  0.5922
  429MOL0     H59186   2.866   5.212  11.193  0.0820 -0.0392  0.1583
  429MOL0     H59187   2.636   5.145  11.204  3.3488  0.1794  0.2199
  429MOL0     H59188   2.372   5.178  11.375 -0.8946  0.4084  0.5883
  429MOL0     H59189   2.188   5.136  11.513  0.9555 -0.3133 -0.1202
  429MOL0     H59190   1.785   5.131  11.366 -0.5319 -1.1434 -0.1516
  429MOL0     H59191   1.800   4.960  11.325  0.9346  0.8918 -0.8420
  429MOL0     H59192   1.734   5.074  11.599 -1.1752  1.5615 -2.4132
  429MOL0     H59193   1.765   4.905  11.562  1.6215  1.5879  2.1514
  429MOL0     H59194   1.551   5.081  11.431 -0.0191  1.8453  2.8363
  429MOL0     H59195   1.592   4.922  11.378  0.0936 -2.3592  0.9411
  429MOL0     H59196   1.525   4.848  11.632 -3.2829 -1.0342 -0.8915
  429MOL0     H59197   1.401   4.904  11.522 -0.5763 -2.2454  1.5096
  429MOL0     H59198   1.422   5.190  11.845 -1.9683  0.8179 -1.8226
  429MOL0     H59199   1.949   5.022  11.179  0.5124  0.5158 -0.3359
  429MOL0     H59200   2.023   5.060  10.952  1.3914  0.6538 -1.7033
  429MOL0     H59201   2.173   5.164  10.948 -0.9072  0.1715 -0.7440
  429MOL0     H59202   2.178   4.986  10.945 -0.2126 -1.7074  2.6278
  430MOL0     O59203   2.528   7.005   4.724  0.1454 -0.4879  0.2181
  430MOL0     C59204   2.545   6.937   4.827 -1.1960 -0.1567 -0.3060
  430MOL0     O59205   2.633   6.969   4.923 -0.3122 -0.2269  0.3785
  430MOL0     C59206   2.676   7.100   4.930 -0.0256 -0.2137 -1.1632
  430MOL0     C59207   2.593   7.205   4.969 -0.3838 -0.2858  0.1849
  430MOL0     C59208   2.638   7.333   4.978 -0.7239 -0.4970 -0.1357
  430MOL0     C59209   2.772   7.365   4.946  0.4983 -0.2572  0.0253
  430MOL0     O59210   2.813   7.494   4.954 -0.7191 -0.6106 -0.3193
  430MOL0     C59211   2.948   7.532   4.915 -0.2065  0.0888 -0.0620
  430MOL0     C59212   2.987   7.655   5.001 -0.2927 -0.2647  0.2131
  430MOL0     C59213   3.123   7.694   4.985  0.5295 -0.6260 -0.0603
  430MOL0     C59214   3.164   7.801   5.083  0.3113  0.3534 -0.9125
  430MOL0     C59215   3.304   7.864   5.059  0.1525 -0.7539 -0.5851
  430MOL0     C59216   3.318   7.968   4.941 -0.0258  0.0152 -0.1200
  430MOL0     C59217   3.471   7.996   4.934 -0.5371  0.1596  0.7061
  430MOL0     C59218   3.493   8.092   4.810 -0.6677  0.4257  0.4840
  430MOL0     N59219   3.635   8.098   4.772 -0.6253  0.1446 -0.2688
  430MOL0     C59220   3.710   8.001   4.713 -0.0315  0.9667  0.2451
  430MOL0     C59221   3.841   8.043   4.718  0.1525 -0.8947  0.8252
  430MOL0     C59222   3.962   7.964   4.665 -0.1113  0.2135  0.3569
  430MOL0     C59223   4.090   8.025   4.720  0.1192 -0.0812 -0.1005
  430MOL0     C59224   4.214   8.012   4.624 -0.2767 -0.2692 -0.0627
  430MOL0     C59225   4.279   7.875   4.616  0.6062 -0.2420 -0.5926
  430MOL0     O59226   4.361   7.853   4.739 -0.5120 -0.7961  0.3103
  430MOL0     C59227   4.494   7.886   4.722 -0.3511 -0.7641  0.0196
  430MOL0     C59228   4.546   7.975   4.627  0.1607 -0.0062 -0.3901
  430MOL0     C59229   4.686   8.016   4.634 -0.1378 -0.8402  0.0219
  430MOL0     C59230   4.736   8.079   4.504 -0.1288 -0.1778 -0.3260
  430MOL0     C59231   4.769   7.960   4.737 -0.0464  0.3595  0.1468
  430MOL0     C59232   4.909   7.995   4.754 -1.1649 -0.0780  1.3127
  430MOL0     O59233   4.953   8.107   4.691  0.2082  0.8952 -0.1590
  430MOL0     C59234   5.082   8.115   4.652 -0.5963 -0.4915  0.0645
  430MOL0     C59235   5.195   8.087   4.733 -0.3933  0.0099 -0.5505
  430MOL0     C59236   5.327   8.098   4.684  0.6723 -0.5672  0.2440
  430MOL0     C59237   5.349   8.128   4.551  0.0642  0.6414  0.1540
  430MOL0     O59238   5.479   8.132   4.515  0.0986 -0.1049 -0.5649
  430MOL0     C59239   5.517   8.220   4.405 -0.3282  0.5593  0.9971
  430MOL0     C59240   5.654   8.177   4.370  0.2871 -0.0580 -1.0803
  430MOL0     C59241   5.725   8.260   4.254  0.1955  0.8141  0.6264
  430MOL0     C59242   5.877   8.251   4.279 -0.0676  0.2308 -1.1153
  430MOL0     C59243   5.937   8.386   4.229 -0.4164 -0.1318 -1.6175
  430MOL0     C59244   6.091   8.402   4.259 -0.2061 -0.5207  0.4888
  430MOL0     C59245   6.189   8.277   4.252 -0.5443 -0.3380  0.8701
  430MOL0     C59246   6.331   8.325   4.270 -0.6402  1.0159 -0.4019
  430MOL0    Cl59247   6.433   8.180   4.256  0.5808  0.5290 -0.1662
  430MOL0     C59248   5.238   8.161   4.472 -0.8295 -0.9352  0.1148
  430MOL0     C59249   5.109   8.156   4.519  1.2444 -0.8035 -0.9068
  430MOL0     O59250   4.976   7.912   4.816  0.3406  0.0146  0.0929
  430MOL0     C59251   4.708   7.873   4.827 -0.2737 -0.8002 -0.7663
  430MOL0     C59252   4.578   7.832   4.815  0.0633  0.1525 -0.1875
  430MOL0     N59253   3.844   8.165   4.784  0.4202 -0.2537 -0.4136
  430MOL0     N59254   3.718   8.197   4.809 -0.2112  0.2580 -0.3736
  430MOL0     C59255   2.861   7.258   4.909 -0.0043 -0.4460  0.6073
  430MOL0     C59256   2.812   7.124   4.901  0.0530  0.6832  0.2453
  430MOL0     C59257   2.469   6.811   4.845 -0.1336 -0.0310  0.2472
  430MOL0     C59258   2.449   6.761   4.981 -0.0988  0.4519  0.2569
  430MOL0     C59259   2.372   6.648   5.003 -0.1857 -0.3079 -0.7837
  430MOL0     C59260   2.322   6.576   4.897 -0.4401 -0.9578 -0.1922
  430MOL0     O59261   2.242   6.467   4.927 -0.6163 -0.2379 -0.4396
  430MOL0     C59262   2.181   6.403   4.816 -0.7881  0.4197  0.5115
  430MOL0     C59263   2.108   6.274   4.845 -0.1378 -0.1167 -0.3327
  430MOL0     C59264   1.983   6.295   4.919  0.4253  0.0166 -0.2750
  430MOL0     C59265   1.913   6.157   4.961  0.2694 -1.2746  0.2127
  430MOL0     C59266   2.008   6.096   5.053  0.1097  0.2326 -0.6661
  430MOL0     C59267   2.083   6.044   5.134 -0.0013  0.1845 -0.1310
  430MOL0     C59268   2.360   6.613   4.765 -0.1254  0.2694 -0.0033
  430MOL0     C59269   2.421   6.731   4.736 -0.8926 -0.6404 -0.0497
  430MOL0     C59270   2.411   6.791   4.595 -0.6939  0.0432 -0.2978
  430MOL0     H59271   2.490   7.186   4.999  0.1118  0.5578  2.6014
  430MOL0     H59272   2.566   7.409   5.006  0.3166  1.2102 -1.8639
  430MOL0     H59273   2.954   7.552   4.808  1.0963 -1.0519 -0.2334
  430MOL0     H59274   3.026   7.456   4.928 -0.3245 -0.4228 -1.9745
  430MOL0     H59275   2.929   7.746   4.982  1.3914  0.9688  0.6781
  430MOL0     H59276   2.972   7.626   5.105 -1.0209  0.0191  0.1886
  430MOL0     H59277   3.184   7.605   5.007 -0.5038 -1.2345  0.4478
  430MOL0     H59278   3.132   7.730   4.882  2.4971  4.5115  1.6147
  430MOL0     H59279   3.087   7.879   5.093 -0.7601 -0.8176  0.5460
  430MOL0     H59280   3.167   7.745   5.177  1.6685  0.0250 -1.1373
  430MOL0     H59281   3.372   7.783   5.035 -1.1638 -1.9088 -0.5779
  430MOL0     H59282   3.336   7.918   5.149 -0.5715 -0.7399 -0.3213
  430MOL0     H59283   3.271   7.942   4.845 -1.3902  2.6888 -0.2791
  430MOL0     H59284   3.268   8.061   4.971 -1.4056 -0.8106  0.2116
  430MOL0     H59285   3.536   7.909   4.926 -2.8995 -1.5183 -3.2228
  430MOL0     H59286   3.491   8.058   5.021  0.6207  1.7208 -0.6083
  430MOL0     H59287   3.429   8.069   4.725  1.8889  0.1109 -1.4533
  430MOL0     H59288   3.449   8.189   4.838  0.6560  0.8957  1.0407
  430MOL0     H59289   3.683   7.907   4.666  2.3597 -0.2956  1.2349
  430MOL0     H59290   3.968   7.975   4.556 -1.9956  1.4886  0.3171
  430MOL0     H59291   3.949   7.856   4.675 -0.2420  0.2208  0.2791
  430MOL0     H59292   4.087   8.131   4.747  1.8768 -0.0301  0.0376
  430MOL0     H59293   4.117   7.976   4.814  2.6594  0.7646 -0.2919
  430MOL0     H59294   4.183   8.025   4.519 -2.4565 -0.3066  0.5202
  430MOL0     H59295   4.290   8.082   4.658  0.5284  0.3706 -2.8764
  430MOL0     H59296   4.191   7.811   4.623  0.2391  0.4273  2.7817
  430MOL0     H59297   4.326   7.851   4.520 -0.0049  0.1748 -1.0048
  430MOL0     H59298   4.485   8.021   4.549  0.4836  1.1497  0.0108
  430MOL0     H59299   4.672   8.063   4.417  0.6547  0.0296 -0.9483
  430MOL0     H59300   4.834   8.042   4.476 -1.7496 -4.9631 -0.4681
  430MOL0     H59301   4.736   8.188   4.518  1.3809 -0.0749 -0.9663
  430MOL0     H59302   5.191   8.061   4.839 -0.1753  2.3483  0.0896
  430MOL0     H59303   5.412   8.079   4.749 -1.0707 -2.1597  2.2379
  430MOL0     H59304   5.456   8.201   4.316  0.2065 -2.5229  1.1968
  430MOL0     H59305   5.512   8.327   4.430 -0.4969  0.4233  1.5550
  430MOL0     H59306   5.717   8.200   4.456 -0.0373  0.1147 -0.8874
  430MOL0     H59307   5.647   8.070   4.347 -0.4786 -0.5954  1.3369
  430MOL0     H59308   5.674   8.356   4.240 -2.2069 -0.5526 -0.8025
  430MOL0     H59309   5.711   8.206   4.160 -0.3947  0.1531  1.0776
  430MOL0     H59310   5.903   8.155   4.233  1.6491 -2.1535  4.1198
  430MOL0     H59311   5.907   8.246   4.384 -3.0699 -0.6877 -0.1942
  430MOL0     H59312   5.923   8.397   4.121  0.1512  0.1420 -1.6688
  430MOL0     H59313   5.888   8.459   4.293 -0.8743 -0.1752 -1.9177
  430MOL0     H59314   6.094   8.458   4.353 -1.1556  2.5309 -1.1643
  430MOL0     H59315   6.130   8.467   4.180  2.9443 -1.1509  1.3830
  430MOL0     H59316   6.183   8.219   4.160 -2.4624  1.4084 -0.2029
  430MOL0     H59317   6.168   8.212   4.338  1.5289 -1.7546  0.3918
  430MOL0     H59318   6.344   8.373   4.367 -3.0868  0.3900  0.3231
  430MOL0     H59319   6.347   8.395   4.187 -1.1906  0.0848 -1.3295
  430MOL0     H59320   5.250   8.190   4.368 -1.1797 -0.5112  0.1903
  430MOL0     H59321   5.020   8.183   4.463  0.9097 -0.3112 -0.1507
  430MOL0     H59322   4.763   7.841   4.915 -1.1438  0.0878  0.1219
  430MOL0     H59323   4.551   7.760   4.892  1.6260  0.1002  0.3466
  430MOL0     H59324   2.965   7.277   4.887  0.0471  1.4378  2.1641
  430MOL0     H59325   2.882   7.047   4.870  0.2669  0.5662  0.9992
  430MOL0     H59326   2.464   6.829   5.064 -1.9847  0.7308  0.4168
  430MOL0     H59327   2.348   6.630   5.108  2.6604  3.2725  0.7205
  430MOL0     H59328   2.119   6.475   4.762 -1.1480 -0.9244 -0.9466
  430MOL0     H59329   2.270   6.374   4.759 -0.8332 -1.8512  1.4823
  430MOL0     H59330   2.181   6.220   4.906  3.5059  0.7897 -3.5018
  430MOL0     H59331   2.089   6.217   4.755 -0.6608 -1.9272  0.8716
  430MOL0     H59332   1.992   6.357   5.008  0.7647 -0.2453 -0.1269
  430MOL0     H59333   1.908   6.345   4.856  1.6066  0.7292 -1.1581
  430MOL0     H59334   1.893   6.085   4.881 -0.7576 -4.1253  2.8426
  430MOL0     H59335   1.814   6.184   4.998 -0.5727  0.9211 -3.1779
  430MOL0     H59336   2.141   6.000   5.213  0.0710 -0.1521 -0.3681
  430MOL0     H59337   2.322   6.554   4.682  1.5380 -0.7536 -0.0729
  430MOL0     H59338   2.515   6.792   4.562 -0.5006 -2.2639  0.0252
  430MOL0     H59339   2.358   6.728   4.523 -0.6090  0.7399 -0.9716
  430MOL0     H59340   2.368   6.891   4.588  0.1204  0.6863  2.4763
  431MOL0     O59341   4.173   0.238   1.958 -0.7016 -0.2709 -0.6701
  431MOL0     C59342   4.121   0.297   2.053  0.4630 -1.0594  0.8300
  431MOL0     O59343   4.189   0.351   2.158 -0.1970  0.0452  0.1641
  431MOL0     C59344   4.321   0.329   2.185 -0.4716 -0.0467 -0.1422
  431MOL0     C59345   4.368   0.392   2.300  0.5351  0.9781  0.1830
  431MOL0     C59346   4.505   0.385   2.339  0.2755  0.0494 -0.0544
  431MOL0     C59347   4.597   0.317   2.265 -0.1626  0.0070  0.2997
  431MOL0     O59348   4.729   0.316   2.313 -0.1229  0.6804  0.3649
  431MOL0     C59349   4.832   0.262   2.222 -0.2752 -0.9041  0.2274
  431MOL0     C59350   4.960   0.265   2.287 -0.2955 -0.0457 -0.1527
  431MOL0     C59351   5.076   0.233   2.185 -0.3038  0.3672  0.4694
  431MOL0     C59352   5.209   0.255   2.256 -0.1958  0.5615  0.5503
  431MOL0     C59353   5.330   0.214   2.167  0.8035 -0.1910  0.4145
  431MOL0     C59354   5.337   0.318   2.051  0.0011  0.0938 -0.1038
  431MOL0     C59355   5.474   0.318   1.983 -0.1125 -0.4967  0.1209
  431MOL0     C59356   5.481   0.423   1.867  0.6151  0.6572  0.8505
  431MOL0     N59357   5.626   0.442   1.822  1.0892  0.7618 -0.1686
  431MOL0     C59358   5.705   0.347   1.758  0.2349  0.3436  0.1357
  431MOL0     C59359   5.807   0.426   1.727 -0.3748 -0.2414 -0.5767
  431MOL0     C59360   5.918   0.392   1.640 -0.5302 -0.6770  0.0440
  431MOL0     C59361   6.040   0.316   1.713 -0.3925  0.1690 -0.2937
  431MOL0     C59362   6.150   0.285   1.607 -0.2064  0.4849 -0.1025
  431MOL0     C59363   6.251   0.174   1.642 -0.3631 -0.2117 -0.4518
  431MOL0     O59364   6.343   0.158   1.528  0.1220  0.1184  0.5012
  431MOL0     C59365   6.471   0.109   1.533 -0.8875  0.0269 -0.0867
  431MOL0     C59366   6.501  -0.019   1.571 -0.2166 -0.6214 -0.6721
  431MOL0     C59367   6.636  -0.067   1.583 -0.6454 -0.1280  0.7906
  431MOL0     C59368   6.677  -0.202   1.639  0.8452 -0.8039 -0.4730
  431MOL0     C59369   6.737   0.026   1.537  0.1625  0.5188  0.7782
  431MOL0     C59370   6.876  -0.027   1.521 -0.3010  0.2016  0.4676
  431MOL0     O59371   6.907  -0.162   1.513 -0.3993 -0.1735 -0.0810
  431MOL0     C59372   7.042  -0.196   1.514  0.2601 -0.4648 -0.1248
  431MOL0     C59373   7.085  -0.299   1.426  0.2744 -0.0805 -0.2551
  431MOL0     C59374   7.212  -0.336   1.409 -0.2598  0.3310  0.0696
  431MOL0     C59375   7.313  -0.274   1.481  0.5832  0.2404  0.6570
  431MOL0     O59376   7.445  -0.313   1.476  0.3812  0.0267  0.1255
  431MOL0     C59377   7.487  -0.409   1.373 -0.9251 -0.2121 -0.1203
  431MOL0     C59378   7.640  -0.432   1.378  0.4962  0.9878 -0.5213
  431MOL0     C59379   7.693  -0.508   1.495 -0.1828 -0.0999 -0.5346
  431MOL0     C59380   7.845  -0.484   1.513  0.2186  0.1735  0.4356
  431MOL0     C59381   7.908  -0.602   1.588 -0.4903 -0.0828 -0.3372
  431MOL0     C59382   8.061  -0.576   1.593  0.5690  0.1729  0.4982
  431MOL0     C59383   8.099  -0.457   1.682  0.1311 -0.3018 -0.7049
  431MOL0     C59384   8.243  -0.447   1.733  0.2233  0.6379  0.9681
  431MOL0    Cl59385   8.381  -0.469   1.605  0.2439  0.0378  0.0059
  431MOL0     C59386   7.271  -0.173   1.577 -0.7479 -0.2285  0.7813
  431MOL0     C59387   7.136  -0.137   1.593 -0.5812  0.0002  0.6369
  431MOL0     O59388   6.963   0.059   1.496  0.4911  0.1270 -0.7950
  431MOL0     C59389   6.703   0.151   1.483 -0.1792  0.1680 -0.2325
  431MOL0     C59390   6.576   0.193   1.490 -0.8105  0.5825 -0.3633
  431MOL0     N59391   5.796   0.558   1.764  0.2232 -0.4780 -0.1913
  431MOL0     N59392   5.684   0.566   1.823 -0.2205  0.0779  0.1255
  431MOL0     C59393   4.555   0.243   2.152 -0.1159  0.2971 -0.2111
  431MOL0     C59394   4.421   0.247   2.114 -0.6472 -0.9331 -1.0155
  431MOL0     C59395   3.971   0.318   2.049  0.5209  0.3747 -0.9439
  431MOL0     C59396   3.911   0.343   2.175 -1.0342  0.0908  0.6739
  431MOL0     C59397   3.773   0.344   2.195  0.4925 -1.1216  0.2405
  431MOL0     C59398   3.694   0.336   2.084  1.2801 -0.2489  0.6352
  431MOL0     O59399   3.561   0.359   2.109 -0.0581 -0.3053 -0.4374
  431MOL0     C59400   3.461   0.334   2.008 -0.0304 -0.0209 -0.1080
  431MOL0     C59401   3.330   0.345   2.082 -0.1898  1.0343  0.0145
  431MOL0     C59402   3.200   0.326   1.992  0.2226  0.3915  0.6752
  431MOL0     C59403   3.162   0.185   1.954  0.4089  0.4899 -0.0425
  431MOL0     C59404   3.046   0.198   1.875  0.8135 -0.3738  0.0823
  431MOL0     C59405   2.941   0.213   1.823  0.0162 -0.5007  0.3790
  431MOL0     C59406   3.747   0.324   1.959 -0.4093 -0.4615  0.3745
  431MOL0     C59407   3.886   0.307   1.933  0.4497 -0.1681  0.1266
  431MOL0     C59408   3.935   0.312   1.793  1.0511  0.1681 -0.1277
  431MOL0     H59409   4.310   0.455   2.366  0.1516 -2.3772  3.3681
  431MOL0     H59410   4.544   0.448   2.418  1.2618  0.4280 -0.8230
  431MOL0     H59411   4.844   0.331   2.138  2.5250  0.2588  1.4633
  431MOL0     H59412   4.820   0.160   2.185  2.7125 -1.5016  0.6654
  431MOL0     H59413   4.984   0.362   2.332 -0.8861 -1.0658  2.5566
  431MOL0     H59414   4.943   0.200   2.372 -3.0998  2.8233  1.7135
  431MOL0     H59415   5.056   0.134   2.145  1.7726 -1.1588  2.8916
  431MOL0     H59416   5.067   0.300   2.099 -2.4507 -0.2001  0.1790
  431MOL0     H59417   5.217   0.363   2.274 -0.2563  0.7956 -0.7034
  431MOL0     H59418   5.216   0.196   2.348  1.7356  1.9418  1.3653
  431MOL0     H59419   5.326   0.107   2.142  0.6254 -0.7731  2.7328
  431MOL0     H59420   5.428   0.231   2.211  0.6455  0.8437  0.3777
  431MOL0     H59421   5.254   0.304   1.981 -0.6007  3.0788 -0.1289
  431MOL0     H59422   5.313   0.415   2.096 -1.5631  0.0057 -0.6727
  431MOL0     H59423   5.504   0.223   1.937 -0.2971 -0.9316  0.8802
  431MOL0     H59424   5.550   0.346   2.056  0.1655  0.5649 -0.5575
  431MOL0     H59425   5.431   0.389   1.777  0.3759 -0.1816  1.2870
  431MOL0     H59426   5.431   0.517   1.891  1.7876  2.1868 -2.1917
  431MOL0     H59427   5.680   0.245   1.729 -3.2604  1.1084  0.0214
  431MOL0     H59428   5.957   0.490   1.613  3.6532 -1.3167  2.6140
  431MOL0     H59429   5.878   0.333   1.558  1.8174 -0.5097 -1.3129
  431MOL0     H59430   6.083   0.372   1.797 -0.5692 -0.0224 -0.0736
  431MOL0     H59431   6.016   0.217   1.753 -0.1547  0.1761 -0.1334
  431MOL0     H59432   6.098   0.247   1.519 -0.9236 -0.2056  0.6028
  431MOL0     H59433   6.217   0.368   1.583 -1.9794  2.2634  0.8271
  431MOL0     H59434   6.300   0.199   1.737 -2.2807  1.9742  0.0426
  431MOL0     H59435   6.190   0.085   1.657 -1.1616  0.7533  2.8264
  431MOL0     H59436   6.413  -0.070   1.610 -0.4685  0.3956  0.1186
  431MOL0     H59437   6.589  -0.239   1.692 -1.5333 -0.7790 -4.0036
  431MOL0     H59438   6.756  -0.196   1.714  0.1300 -2.9338  0.5024
  431MOL0     H59439   6.702  -0.268   1.556  0.3315 -0.5347 -0.8497
  431MOL0     H59440   7.010  -0.356   1.372  1.0677 -0.9073 -0.5135
  431MOL0     H59441   7.226  -0.420   1.341 -1.0194 -0.8802  1.3569
  431MOL0     H59442   7.433  -0.504   1.377  1.0917 -1.3780  1.8965
  431MOL0     H59443   7.462  -0.365   1.276  0.4235 -0.0523 -0.4208
  431MOL0     H59444   7.654  -0.493   1.288 -1.5918 -0.8856  0.3623
  431MOL0     H59445   7.697  -0.340   1.360  0.8652  0.8299 -0.1794
  431MOL0     H59446   7.690  -0.613   1.465  0.0918  0.0704 -1.1649
  431MOL0     H59447   7.639  -0.483   1.587 -0.7251  3.1768 -1.6159
  431MOL0     H59448   7.863  -0.388   1.561 -0.9409  0.3582  0.5456
  431MOL0     H59449   7.892  -0.476   1.415 -1.9935 -0.7522 -0.7931
  431MOL0     H59450   7.860  -0.602   1.686 -1.0108 -1.5220 -0.5651
  431MOL0     H59451   7.888  -0.692   1.529 -2.1947 -0.0413  0.1461
  431MOL0     H59452   8.100  -0.557   1.493  1.0435 -3.7430 -0.2527
  431MOL0     H59453   8.113  -0.661   1.640  0.7008  0.1077  0.2375
  431MOL0     H59454   8.040  -0.461   1.774 -0.2237  0.7623 -0.8705
  431MOL0     H59455   8.073  -0.369   1.624 -0.8131 -1.3769 -1.9737
  431MOL0     H59456   8.260  -0.517   1.816 -1.0876  0.5983  1.2263
  431MOL0     H59457   8.260  -0.351   1.782  2.1799  0.5346  0.5978
  431MOL0     H59458   7.356  -0.138   1.634  0.1890  1.8140 -1.7077
  431MOL0     H59459   7.109  -0.061   1.666 -0.6436  1.3705 -0.7634
  431MOL0     H59460   6.782   0.215   1.445  0.5104 -0.9656 -0.7614
  431MOL0     H59461   6.542   0.292   1.458  0.1705  0.5385 -1.6287
  431MOL0     H59462   4.619   0.185   2.087  1.7572  0.2068  1.6117
  431MOL0     H59463   4.397   0.185   2.029  3.1163 -2.5616 -1.1075
  431MOL0     H59464   3.970   0.339   2.266 -2.2003 -0.5571  1.4318
  431MOL0     H59465   3.724   0.346   2.292  0.8110 -0.6892  0.3975
  431MOL0     H59466   3.466   0.402   1.923 -0.6491  2.7379  1.9180
  431MOL0     H59467   3.463   0.230   1.974  1.6550  0.5770 -2.0015
  431MOL0     H59468   3.321   0.445   2.124  0.6577  0.8380  0.6953
  431MOL0     H59469   3.322   0.279   2.169 -1.0747  1.0780 -0.0233
  431MOL0     H59470   3.121   0.369   2.053  0.2348 -1.2844  1.9522
  431MOL0     H59471   3.215   0.391   1.905 -3.2376  1.3775  0.6641
  431MOL0     H59472   3.127   0.136   2.046 -0.2627  3.4243  1.3920
  431MOL0     H59473   3.236   0.129   1.896 -0.0724  0.8364 -1.0245
  431MOL0     H59474   2.842   0.217   1.782 -0.1375  0.1651  0.8052
  431MOL0     H59475   3.684   0.338   1.872 -1.4491 -2.0974  0.8095
  431MOL0     H59476   3.954   0.215   1.746 -2.3847 -0.3823 -0.6243
  431MOL0     H59477   3.854   0.350   1.730 -0.8258 -2.2499  0.6668
  431MOL0     H59478   4.030   0.364   1.778  2.1175 -2.0494 -1.7693
  432MOL0     O59479   3.204   1.634   1.623 -0.5196  0.5561 -0.1325
  432MOL0     C59480   3.184   1.511   1.602 -0.2856 -0.6936 -0.1295
  432MOL0     O59481   3.279   1.414   1.626  1.0076 -0.2596  0.2111
  432MOL0     C59482   3.402   1.448   1.679 -0.8322  0.2538  0.0120
  432MOL0     C59483   3.504   1.365   1.635  0.9176  0.7469 -0.0660
  432MOL0     C59484   3.631   1.385   1.688  0.8632 -0.2541  0.1901
  432MOL0     C59485   3.655   1.470   1.799  0.0759 -0.6030 -0.7720
  432MOL0     O59486   3.767   1.500   1.865 -0.1397  0.4016 -0.6636
  432MOL0     C59487   3.867   1.396   1.877 -0.2554 -0.2457  0.8735
  432MOL0     C59488   4.000   1.457   1.929 -0.4835  0.5862  0.3656
  432MOL0     C59489   4.076   1.541   1.819 -0.0812  0.4135  0.0386
  432MOL0     C59490   4.195   1.616   1.882 -0.4656  0.2816  0.1049
  432MOL0     C59491   4.270   1.721   1.795  0.1977  0.1405 -0.2212
  432MOL0     C59492   4.311   1.663   1.660  0.0284 -0.5163 -0.2305
  432MOL0     C59493   4.409   1.546   1.673  0.4115 -0.7978  0.0353
  432MOL0     C59494   4.546   1.585   1.730 -0.0417 -0.0895 -0.1975
  432MOL0     N59495   4.638   1.639   1.622  0.2266 -0.4152 -0.2004
  432MOL0     C59496   4.703   1.556   1.532  0.0183  0.6243 -0.4309
  432MOL0     C59497   4.777   1.643   1.453 -0.1493  0.8291  0.0057
  432MOL0     C59498   4.860   1.599   1.335 -0.4839 -0.7605 -0.7382
  432MOL0     C59499   4.992   1.541   1.392 -0.0179  0.5941  0.1169
  432MOL0     C59500   5.056   1.617   1.513  0.8619  0.3235  0.2878
  432MOL0     C59501   5.197   1.561   1.549 -0.1164 -0.6078 -0.2665
  432MOL0     O59502   5.209   1.415   1.535  0.2059 -0.3158 -0.5749
  432MOL0     C59503   5.336   1.373   1.556  0.3759 -0.2365  0.2085
  432MOL0     C59504   5.353   1.235   1.548  0.3233  0.5108  0.0226
  432MOL0     C59505   5.480   1.176   1.566 -0.0495 -0.2381  0.2998
  432MOL0     C59506   5.495   1.032   1.571 -0.4183  0.6399  0.0878
  432MOL0     C59507   5.594   1.262   1.588  0.0071  0.2104  0.2885
  432MOL0     C59508   5.732   1.215   1.593  0.0440  0.4436  0.2848
  432MOL0     O59509   5.762   1.106   1.517 -0.9613  0.0736 -0.2933
  432MOL0     C59510   5.872   1.025   1.547 -0.4025  0.1066 -0.5633
  432MOL0     C59511   5.860   0.897   1.596  0.2516 -0.1444 -1.3302
  432MOL0     C59512   5.974   0.819   1.630  0.0031  0.0461 -0.5884
  432MOL0     C59513   6.103   0.874   1.626  0.8165 -0.1134  1.2177
  432MOL0     O59514   6.207   0.794   1.686 -0.5755 -0.8483  0.2830
  432MOL0     C59515   6.333   0.868   1.717 -0.0667 -0.2537 -0.1423
  432MOL0     C59516   6.447   0.761   1.725  0.5280  0.2602  0.7779
  432MOL0     C59517   6.594   0.810   1.765  0.2846  0.3433 -0.3094
  432MOL0     C59518   6.626   0.916   1.661 -0.6104 -0.1567  0.0685
  432MOL0     C59519   6.772   0.953   1.663  0.0465 -0.6891  0.0451
  432MOL0     C59520   6.812   1.039   1.776 -0.4839  1.0253  0.9997
  432MOL0     C59521   6.957   1.089   1.753 -0.2504  1.4149  0.3495
  432MOL0     C59522   7.012   1.151   1.879 -0.4138 -0.7203  0.2281
  432MOL0    Cl59523   7.149   1.251   1.849  0.3563  0.1149 -0.3592
  432MOL0     C59524   6.117   0.998   1.565  0.7455  0.0168 -0.0161
  432MOL0     C59525   6.003   1.066   1.525 -0.0803 -0.8833  0.8236
  432MOL0     O59526   5.808   1.264   1.674  0.2906 -0.0109 -0.5520
  432MOL0     C59527   5.571   1.401   1.602  0.0628 -0.0756 -0.7201
  432MOL0     C59528   5.446   1.453   1.589 -0.0695 -0.4170 -0.4072
  432MOL0     N59529   4.762   1.777   1.498  0.1551  0.3790 -0.7009
  432MOL0     N59530   4.680   1.773   1.594 -0.5181  0.1609 -0.1835
  432MOL0     C59531   3.547   1.549   1.842  0.0432  0.0097  0.1066
  432MOL0     C59532   3.418   1.548   1.778  0.3725  0.3666 -1.0424
  432MOL0     C59533   3.050   1.466   1.551 -0.3172  0.7124 -0.2868
  432MOL0     C59534   3.035   1.338   1.490 -0.1829  0.6307  0.0537
  432MOL0     C59535   2.915   1.303   1.424  0.2467 -0.4356  0.1505
  432MOL0     C59536   2.805   1.375   1.421  1.0873 -0.2067 -1.1212
  432MOL0     O59537   2.694   1.328   1.344  0.4818 -0.7250  0.7989
  432MOL0     C59538   2.569   1.399   1.327 -0.2281  0.1328 -0.0461
  432MOL0     C59539   2.478   1.305   1.257  0.0127  0.3515  0.2504
  432MOL0     C59540   2.334   1.369   1.235  0.0154  0.1139 -0.0063
  432MOL0     C59541   2.232   1.258   1.214 -0.5667 -0.2010 -0.8655
  432MOL0     C59542   2.105   1.314   1.177 -0.1982  0.6318 -0.0534
  432MOL0     C59543   1.996   1.345   1.123 -0.0053  0.3268 -0.0164
  432MOL0     C59544   2.820   1.499   1.490 -0.0296 -0.1968 -0.0180
  432MOL0     C59545   2.933   1.545   1.559  0.1822  0.1577 -0.1235
  432MOL0     C59546   2.916   1.679   1.628  0.4179  0.2653  0.3486
  432MOL0     H59547   3.482   1.299   1.551 -0.9634  1.1432  0.0639
  432MOL0     H59548   3.711   1.327   1.643 -1.2320 -2.5134 -0.8686
  432MOL0     H59549   3.880   1.341   1.783 -3.2204 -1.8256  1.2745
  432MOL0     H59550   3.825   1.326   1.949  0.5311 -1.2994  0.3429
  432MOL0     H59551   3.981   1.523   2.014 -0.2042 -0.0856  0.9618
  432MOL0     H59552   4.077   1.388   1.962  2.6401  3.8790  0.5580
  432MOL0     H59553   4.105   1.482   1.731  0.9105  2.7224 -1.2737
  432MOL0     H59554   3.994   1.604   1.783 -0.8566 -0.3950  0.3504
  432MOL0     H59555   4.161   1.666   1.973 -0.7151 -3.2518  2.1341
  432MOL0     H59556   4.265   1.546   1.929 -0.1956  1.2105  1.1293
  432MOL0     H59557   4.357   1.748   1.855 -1.0538  1.0476  1.2803
  432MOL0     H59558   4.209   1.812   1.793  2.7393  1.9745  0.7151
  432MOL0     H59559   4.222   1.639   1.601 -0.5961  0.4458  0.2974
  432MOL0     H59560   4.364   1.746   1.613 -1.3580  0.6538  0.1859
  432MOL0     H59561   4.436   1.501   1.578 -0.1069 -0.1653 -0.4267
  432MOL0     H59562   4.375   1.475   1.749  3.6580 -2.0683  0.4460
  432MOL0     H59563   4.538   1.666   1.803 -0.9839  3.0049 -3.4045
  432MOL0     H59564   4.590   1.495   1.772  3.5029 -0.0384 -3.2071
  432MOL0     H59565   4.690   1.448   1.527 -0.5298  0.4966  2.3497
  432MOL0     H59566   4.885   1.680   1.266  3.0989 -2.0509 -1.1987
  432MOL0     H59567   4.813   1.528   1.267 -0.1806 -0.7116 -1.0023
  432MOL0     H59568   4.973   1.437   1.420 -0.5831 -0.0164 -2.2578
  432MOL0     H59569   5.064   1.539   1.310  0.8565 -2.0928  0.8467
  432MOL0     H59570   5.066   1.721   1.481 -2.4384  0.3854 -0.9936
  432MOL0     H59571   5.006   1.603   1.610  1.9463 -3.6160  0.4364
  432MOL0     H59572   5.267   1.608   1.479  1.0652 -0.0107  1.2638
  432MOL0     H59573   5.213   1.590   1.653 -1.6854 -2.5066  0.5707
  432MOL0     H59574   5.266   1.171   1.532  0.8796  0.1301 -1.7352
  432MOL0     H59575   5.403   0.973   1.562  0.1797 -0.3908  0.5332
  432MOL0     H59576   5.540   1.000   1.665 -3.2014  0.5665  1.5028
  432MOL0     H59577   5.556   0.994   1.488  1.6505  0.0639  1.8012
  432MOL0     H59578   5.765   0.855   1.628  1.5752 -2.2191  0.0998
  432MOL0     H59579   5.960   0.717   1.663 -0.9037 -0.8665 -3.4496
  432MOL0     H59580   6.349   0.931   1.628 -0.8654 -1.4712 -1.1856
  432MOL0     H59581   6.342   0.927   1.809 -0.3352  1.7488 -1.3383
  432MOL0     H59582   6.404   0.686   1.792 -0.9002  0.0012 -0.3779
  432MOL0     H59583   6.449   0.703   1.632 -2.9346 -0.7099  1.1696
  432MOL0     H59584   6.650   0.718   1.748 -3.1542 -1.4209 -3.6851
  432MOL0     H59585   6.611   0.847   1.867  0.8460 -0.9284  0.0822
  432MOL0     H59586   6.572   1.008   1.685  2.6560  1.7839  0.7510
  432MOL0     H59587   6.605   0.892   1.557  3.3011  0.8516 -1.1400
  432MOL0     H59588   6.835   0.864   1.667  1.1449  0.1061  1.9639
  432MOL0     H59589   6.797   1.014   1.576 -0.8771  0.4204  0.5369
  432MOL0     H59590   6.814   0.987   1.872  0.6375 -1.8055 -0.4288
  432MOL0     H59591   6.746   1.125   1.776 -2.7343 -0.6044  0.4825
  432MOL0     H59592   6.961   1.171   1.680  1.5017  2.8541  1.9476
  432MOL0     H59593   7.024   1.010   1.719  1.9625  3.1275  0.5246
  432MOL0     H59594   7.046   1.071   1.944 -0.7609 -0.7966  0.3182
  432MOL0     H59595   6.934   1.207   1.931 -1.8411 -1.0175 -1.5083
  432MOL0     H59596   6.207   1.058   1.568  0.6407  0.1501  0.5291
  432MOL0     H59597   6.011   1.167   1.485  3.9511 -0.7923  1.4513
  432MOL0     H59598   5.659   1.462   1.619 -0.0856 -0.0567  0.0081
  432MOL0     H59599   5.444   1.561   1.596  2.5162 -0.1811 -2.0962
  432MOL0     H59600   3.577   1.614   1.924  0.5166  2.7513 -2.1074
  432MOL0     H59601   3.340   1.615   1.814 -0.0687  1.0527 -3.1270
  432MOL0     H59602   3.119   1.270   1.484 -0.7505 -0.0019 -1.0472
  432MOL0     H59603   2.921   1.205   1.379  0.6781 -0.8015  0.9768
  432MOL0     H59604   2.518   1.414   1.423 -2.3609  1.4087 -1.2849
  432MOL0     H59605   2.586   1.493   1.275 -1.2112 -0.0096 -0.6533
  432MOL0     H59606   2.461   1.214   1.315 -2.2842  0.6298  0.0922
  432MOL0     H59607   2.528   1.283   1.162 -2.1147 -1.8435 -0.4462
  432MOL0     H59608   2.311   1.433   1.321 -0.4113  4.7738 -3.2454
  432MOL0     H59609   2.348   1.434   1.149  2.1518 -1.3723 -0.8816
  432MOL0     H59610   2.217   1.211   1.312 -1.5707 -1.4960 -1.6170
  432MOL0     H59611   2.260   1.189   1.134  0.9370 -1.8390  0.9535
  432MOL0     H59612   1.902   1.389   1.100 -0.1421  0.8126  1.3633
  432MOL0     H59613   2.730   1.560   1.487 -1.9742 -2.9107 -2.1875
  432MOL0     H59614   2.817   1.719   1.604  1.0036  0.8426 -1.2231
  432MOL0     H59615   2.936   1.650   1.731  0.0741 -2.9025 -0.3559
  432MOL0     H59616   2.986   1.753   1.589  0.8696  0.1073  0.8514
  433MOL0     O59617   6.951   4.676  10.256 -0.2284 -0.6274 -0.7728
  433MOL0     C59618   7.010   4.675  10.366  0.6422  0.2043  0.1287
  433MOL0     O59619   7.143   4.690  10.390  0.3112 -0.5662  0.3410
  433MOL0     C59620   7.235   4.708  10.289  0.1008 -0.4296  0.1514
  433MOL0     C59621   7.354   4.765  10.338  0.3508  0.0652 -0.4667
  433MOL0     C59622   7.459   4.794  10.247 -1.2623 -0.1110 -0.3153
  433MOL0     C59623   7.454   4.744  10.118 -0.4445 -0.2524  0.0606
  433MOL0     O59624   7.555   4.761  10.027  0.7424  0.9209  0.3403
  433MOL0     C59625   7.680   4.814  10.059  0.4981 -0.3995 -0.0032
  433MOL0     C59626   7.760   4.837   9.934 -0.5870  0.2293  0.0137
  433MOL0     C59627   7.902   4.913   9.951 -0.6373 -0.8757  0.1226
  433MOL0     C59628   8.013   4.821   9.998  0.0518 -0.3985 -0.3670
  433MOL0     C59629   8.147   4.902  10.028  0.4472 -0.2062 -0.5217
  433MOL0     C59630   8.221   4.923   9.895 -0.1193  0.2037 -0.4898
  433MOL0     C59631   8.330   4.811   9.874  0.1656  0.9267  0.6413
  433MOL0     C59632   8.470   4.839   9.946  0.0331 -0.5181 -0.4892
  433MOL0     N59633   8.564   4.739   9.889  0.2561 -0.3126 -0.7976
  433MOL0     C59634   8.573   4.611   9.938  1.6552  1.2505 -0.0879
  433MOL0     C59635   8.643   4.544   9.849 -0.2882  0.8302 -0.9438
  433MOL0     C59636   8.663   4.393   9.823  0.3423 -0.1335 -0.4518
  433MOL0     C59637   8.795   4.354   9.893 -0.4634  0.5987  0.2944
  433MOL0     C59638   8.844   4.208   9.858  0.1158 -0.3513  0.3006
  433MOL0     C59639   8.986   4.184   9.923 -0.8129 -0.2486 -0.1801
  433MOL0     O59640   9.059   4.090   9.843 -0.0066  0.6767 -0.5921
  433MOL0     C59641   9.177   4.044   9.892 -0.5896  0.5245  0.4678
  433MOL0     C59642   9.257   3.972   9.799 -0.0135  0.0616  0.2657
  433MOL0     C59643   9.391   3.936   9.824 -0.5304  0.4883 -1.0497
  433MOL0     C59644   9.476   3.877   9.717  1.1516  0.3414 -0.1473
  433MOL0     C59645   9.443   3.958   9.952  0.1293  0.3542  0.0053
  433MOL0     C59646   9.572   3.899  10.004 -0.8144 -0.3225  0.1274
  433MOL0     O59647   9.645   3.966  10.096 -0.4412  0.6551 -0.3261
  433MOL0     C59648   9.751   3.899  10.145 -0.4409 -0.1028  0.1916
  433MOL0     C59649   9.881   3.943  10.121  0.6209  0.2088 -0.2600
  433MOL0     C59650   9.988   3.875  10.175 -0.1121  0.1639  0.7145
  433MOL0     C59651   9.970   3.768  10.268  0.4131 -0.0240 -0.0486
  433MOL0     O59652  10.067   3.693  10.339  0.0412  0.1695  0.5991
  433MOL0     C59653  10.196   3.691  10.271  0.8308  0.6331  0.1942
  433MOL0     C59654  10.293   3.615  10.355  0.4383 -0.1845  0.0469
  433MOL0     C59655  10.434   3.636  10.299 -0.3580 -0.6154  0.8137
  433MOL0     C59656  10.523   3.541  10.381  0.2093  0.4459  0.1471
  433MOL0     C59657  10.663   3.571  10.320 -0.2346  0.4764  0.6855
  433MOL0     C59658  10.764   3.489  10.390 -0.4618  0.1923 -0.1835
  433MOL0     C59659  10.905   3.498  10.349  0.1520  0.5046  0.9905
  433MOL0     C59660  10.917   3.447  10.199  0.9074 -0.4799 -0.1648
  433MOL0    Cl59661  11.086   3.415  10.139 -0.3351 -0.6394 -0.4160
  433MOL0     C59662   9.839   3.733  10.299 -0.0582 -0.1974  0.0900
  433MOL0     C59663   9.736   3.798  10.240 -0.1781 -0.0892  0.5568
  433MOL0     O59664   9.609   3.793   9.948  0.8249 -0.1094  0.3660
  433MOL0     C59665   9.364   4.021  10.054 -0.1077 -0.3616 -0.3712
  433MOL0     C59666   9.233   4.068  10.017 -0.5431 -0.7130 -0.7471
  433MOL0     N59667   8.685   4.637   9.751 -0.8684  0.2702  0.0109
  433MOL0     N59668   8.636   4.755   9.776  0.2749 -0.6836 -0.4627
  433MOL0     C59669   7.332   4.701  10.065 -0.2304 -0.9221 -0.3979
  433MOL0     C59670   7.220   4.685  10.148 -0.1851 -0.3417  0.9565
  433MOL0     C59671   6.930   4.647  10.490 -0.2573 -0.4827 -0.2991
  433MOL0     C59672   7.008   4.621  10.608 -0.2599  0.1016 -0.0685
  433MOL0     C59673   6.945   4.580  10.730 -0.6768 -0.4560  0.6582
  433MOL0     C59674   6.807   4.566  10.731  0.0384 -0.6449 -0.7616
  433MOL0     O59675   6.741   4.506  10.835 -0.0659 -0.1225 -0.0233
  433MOL0     C59676   6.744   4.364  10.830  0.5136  0.7980  0.1700
  433MOL0     C59677   6.635   4.316  10.921  0.9104  0.3220  0.0364
  433MOL0     C59678   6.494   4.347  10.868  0.0886 -0.1691  0.7284
  433MOL0     C59679   6.390   4.297  10.972  0.4562 -0.2350 -0.2183
  433MOL0     C59680   6.393   4.393  11.082  0.0368  0.1880 -0.8996
  433MOL0     C59681   6.405   4.493  11.152 -0.2172  0.7120  0.2673
  433MOL0     C59682   6.735   4.600  10.623 -0.3458  0.3038  0.5725
  433MOL0     C59683   6.791   4.639  10.498  0.5832  0.8905  0.0554
  433MOL0     C59684   6.696   4.654  10.374  0.2297  0.4678 -0.4790
  433MOL0     H59685   7.357   4.790  10.444 -4.3179  0.3189 -0.1875
  433MOL0     H59686   7.562   4.805  10.282 -1.8114 -0.6240  1.5997
  433MOL0     H59687   7.736   4.743  10.121  0.8375  1.2436  1.6636
  433MOL0     H59688   7.679   4.909  10.113  2.7657 -0.0221 -0.5165
  433MOL0     H59689   7.775   4.740   9.887 -1.2406 -0.6232  1.5228
  433MOL0     H59690   7.694   4.893   9.866  1.1486  1.8126 -0.4667
  433MOL0     H59691   7.927   4.957   9.854  2.1632 -2.8069 -0.1302
  433MOL0     H59692   7.894   5.001  10.015  2.5204  2.4714 -3.5844
  433MOL0     H59693   7.989   4.772  10.093 -1.3934 -0.3792 -0.7009
  433MOL0     H59694   8.040   4.736   9.935  1.6003 -1.1808  1.2737
  433MOL0     H59695   8.210   4.855  10.103  1.4339 -0.3977 -1.4398
  433MOL0     H59696   8.112   5.000  10.064 -0.5271  0.1438 -2.2751
  433MOL0     H59697   8.152   4.918   9.810 -0.4922 -2.9435 -0.1490
  433MOL0     H59698   8.272   5.019   9.897 -0.6762  0.5688 -2.4789
  433MOL0     H59699   8.351   4.798   9.768 -2.3492 -0.6733  0.2809
  433MOL0     H59700   8.279   4.724   9.917 -0.3691  1.0203  0.2034
  433MOL0     H59701   8.504   4.940   9.920 -2.8795  0.9503  0.9379
  433MOL0     H59702   8.472   4.834  10.056  6.3212  1.0187 -0.1160
  433MOL0     H59703   8.510   4.574  10.018  2.0207 -0.5790 -0.6035
  433MOL0     H59704   8.667   4.377   9.715 -2.3408 -1.3772 -0.4582
  433MOL0     H59705   8.575   4.338   9.859 -0.3920 -0.3300 -2.4103
  433MOL0     H59706   8.859   4.436   9.858 -0.2577  0.8480  1.2150
  433MOL0     H59707   8.799   4.375  10.001 -0.6647  1.1245  0.2037
  433MOL0     H59708   8.771   4.138   9.897 -3.5077  1.3346 -2.8001
  433MOL0     H59709   8.863   4.192   9.752 -2.1029  3.2760 -0.8277
  433MOL0     H59710   9.052   4.271   9.934 -0.9213 -0.1572 -0.2469
  433MOL0     H59711   8.955   4.150  10.022 -0.7489 -0.7507 -0.3294
  433MOL0     H59712   9.220   3.949   9.699 -0.6981  1.0613  0.2799
  433MOL0     H59713   9.466   3.769   9.711 -1.7285  0.5641 -0.8010
  433MOL0     H59714   9.582   3.899   9.731  1.1576  0.2312 -0.0173
  433MOL0     H59715   9.442   3.919   9.622 -3.7457 -1.3666  0.5732
  433MOL0     H59716   9.897   4.026  10.053  2.2291  0.8128  0.8039
  433MOL0     H59717  10.089   3.905  10.148 -0.9922  0.6078 -2.5656
  433MOL0     H59718  10.193   3.649  10.170  0.9925 -0.3425  0.5857
  433MOL0     H59719  10.228   3.795  10.264  0.2391  0.7553 -0.8351
  433MOL0     H59720  10.284   3.654  10.456 -3.2466  0.7224 -0.5036
  433MOL0     H59721  10.268   3.508  10.354  0.6114 -0.2273  0.3519
  433MOL0     H59722  10.471   3.739  10.307  0.8701 -0.7329 -2.1867
  433MOL0     H59723  10.448   3.616  10.192  4.0498  0.3214  1.0235
  433MOL0     H59724  10.487   3.441  10.357  1.6865 -0.1231  0.1913
  433MOL0     H59725  10.518   3.560  10.488 -0.0461 -2.2150  0.6732
  433MOL0     H59726  10.655   3.543  10.214 -0.6595 -1.1083  1.1091
  433MOL0     H59727  10.689   3.676  10.333 -0.1959  0.3751  1.4689
  433MOL0     H59728  10.741   3.382  10.390 -0.6020  0.1978 -1.8862
  433MOL0     H59729  10.765   3.523  10.494  3.4160  0.5229 -0.1725
  433MOL0     H59730  10.962   3.451  10.429  2.8230  2.6990  0.5273
  433MOL0     H59731  10.935   3.603  10.353  0.2292  0.7261 -2.2247
  433MOL0     H59732  10.853   3.507  10.132 -0.5040 -0.3057  1.2726
  433MOL0     H59733  10.884   3.344  10.207 -0.1394 -0.0408  1.8044
  433MOL0     H59734   9.818   3.655  10.371 -1.1958 -0.3520 -0.3857
  433MOL0     H59735   9.633   3.770  10.263 -1.5476  3.2764 -0.9546
  433MOL0     H59736   9.399   4.026  10.156 -1.3279  0.3519  0.0358
  433MOL0     H59737   9.173   4.114  10.095  2.6633 -1.2856  2.3196
  433MOL0     H59738   7.335   4.677   9.959 -0.2037 -1.9252 -0.1806
  433MOL0     H59739   7.136   4.638  10.098 -0.7385  1.7853 -0.2380
  433MOL0     H59740   7.116   4.627  10.610 -0.0677 -1.6549  3.6886
  433MOL0     H59741   7.010   4.547  10.811  0.7141 -1.9343 -0.9780
  433MOL0     H59742   6.726   4.324  10.730 -0.7414 -1.0610  1.0708
  433MOL0     H59743   6.841   4.330  10.870  0.7934  0.5973 -0.6589
  433MOL0     H59744   6.650   4.363  11.018 -1.1400 -2.6947  1.9650
  433MOL0     H59745   6.649   4.208  10.920  0.4816  0.2646 -0.4257
  433MOL0     H59746   6.492   4.456  10.854  0.8458  0.0702  2.2794
  433MOL0     H59747   6.486   4.302  10.769  0.5604 -1.4689  1.2592
  433MOL0     H59748   6.405   4.192  11.000 -2.0965 -0.8330 -0.8275
  433MOL0     H59749   6.291   4.309  10.927 -0.1608 -1.4767  0.7213
  433MOL0     H59750   6.429   4.579  11.212 -0.4818 -1.0464  3.0543
  433MOL0     H59751   6.626   4.596  10.625 -0.3271 -2.6682  0.6880
  433MOL0     H59752   6.716   4.756  10.340  0.4405 -0.2998 -2.8642
  433MOL0     H59753   6.721   4.589  10.289 -0.1961  0.5676 -0.6814
  433MOL0     H59754   6.591   4.637  10.398  0.6586 -0.7726  0.6923
  434MOL0     O59755   7.306   6.712  10.529 -0.1488  0.3335 -0.1983
  434MOL0     C59756   7.280   6.746  10.415  0.0563 -0.7408 -0.7174
  434MOL0     O59757   7.367   6.762  10.312 -0.1475 -0.3317  0.0612
  434MOL0     C59758   7.502   6.759  10.338  0.1060  0.3984 -0.3160
  434MOL0     C59759   7.567   6.823  10.443  0.6860  0.4112  0.1447
  434MOL0     C59760   7.706   6.816  10.456 -0.1703 -0.2910 -0.3387
  434MOL0     C59761   7.790   6.746  10.367 -0.2102  0.4840 -0.0132
  434MOL0     O59762   7.923   6.740  10.390  0.1887 -0.2395  1.0664
  434MOL0     C59763   8.000   6.711  10.274 -0.3182  0.6395  0.4277
  434MOL0     C59764   8.144   6.741  10.309  0.2041 -0.5130  0.1967
  434MOL0     C59765   8.236   6.681  10.206 -0.5362 -1.2312 -0.0732
  434MOL0     C59766   8.377   6.657  10.256  0.1277  0.0298  0.6265
  434MOL0     C59767   8.401   6.548  10.360 -0.1908  0.5365  0.4065
  434MOL0     C59768   8.547   6.516  10.374  0.1717  0.1787 -0.2678
  434MOL0     C59769   8.566   6.377  10.439  0.1759  0.2727  0.3398
  434MOL0     C59770   8.690   6.357  10.520 -1.0671 -0.2534 -0.4125
  434MOL0     N59771   8.702   6.220  10.576  0.2207  0.5001 -0.1440
  434MOL0     C59772   8.788   6.125  10.516 -0.0024  0.2002 -0.1628
  434MOL0     C59773   8.801   6.026  10.604 -0.0031 -0.3770 -0.7514
  434MOL0     C59774   8.885   5.908  10.592 -0.5890 -0.7646  1.2524
  434MOL0     C59775   8.998   5.909  10.685 -0.5799  1.3247  0.2638
  434MOL0     C59776   9.075   5.780  10.670 -0.6177  0.2258  0.3748
  434MOL0     C59777   9.188   5.758  10.781 -0.3440 -0.4766 -0.2601
  434MOL0     O59778   9.296   5.674  10.730 -0.1196  0.0192 -0.0740
  434MOL0     C59779   9.413   5.664  10.790 -0.0311  0.1152  0.9562
  434MOL0     C59780   9.502   5.579  10.724  0.2172 -0.2101  0.5053
  434MOL0     C59781   9.629   5.549  10.767 -0.7978  0.1377  0.5144
  434MOL0     C59782   9.710   5.445  10.688  0.1308 -0.3664  0.8236
  434MOL0     C59783   9.673   5.622  10.879 -0.2428  0.0883 -0.7585
  434MOL0     C59784   9.794   5.600  10.957 -0.2478  0.0018  0.1937
  434MOL0     O59785   9.840   5.471  10.955 -0.2947 -1.0256  0.3095
  434MOL0     C59786   9.966   5.438  10.991 -0.4271  0.3160  0.0013
  434MOL0     C59787  10.073   5.445  10.901  0.4609 -0.0942 -0.2207
  434MOL0     C59788  10.200   5.413  10.946  0.2882 -0.0359 -0.1708
  434MOL0     C59789  10.223   5.390  11.083 -0.1302 -1.3198 -0.8432
  434MOL0     O59790  10.356   5.374  11.122 -0.2189 -0.8949  0.4690
  434MOL0     C59791  10.386   5.386  11.263 -0.1518  0.4401  0.4115
  434MOL0     C59792  10.538   5.371  11.280 -0.1453 -0.7189 -0.0603
  434MOL0     C59793  10.599   5.227  11.260  0.0977 -0.1685 -0.1359
  434MOL0     C59794  10.570   5.132  11.381 -0.7883 -0.6803 -0.5413
  434MOL0     C59795  10.642   4.997  11.367 -0.6047  0.1757 -0.4336
  434MOL0     C59796  10.787   4.992  11.418  0.2634 -0.3195  0.2404
  434MOL0     C59797  10.870   4.894  11.340  0.4752  0.5711  0.1374
  434MOL0     C59798  10.992   4.829  11.420 -0.1976  0.3401 -0.2885
  434MOL0    Cl59799  11.096   4.732  11.307  0.0150 -0.2094  0.0908
  434MOL0     C59800  10.111   5.373  11.167 -0.0576  0.4584  0.3217
  434MOL0     C59801   9.985   5.397  11.121  0.1140  0.6000 -0.0486
  434MOL0     O59802   9.848   5.693  11.015  0.4122  0.0008 -0.1273
  434MOL0     C59803   9.589   5.700  10.953 -0.6285  0.5534 -0.0167
  434MOL0     C59804   9.458   5.727  10.903 -0.2765 -0.2161  0.0753
  434MOL0     N59805   8.721   6.052  10.714 -0.1967  0.3568  0.1795
  434MOL0     N59806   8.660   6.168  10.696  0.9852  0.2105  0.0235
  434MOL0     C59807   7.725   6.685  10.260 -0.3826  0.7809  0.4777
  434MOL0     C59808   7.584   6.690  10.253 -0.4080  0.1503  0.7735
  434MOL0     C59809   7.140   6.777  10.386 -0.6697  0.5062  0.6942
  434MOL0     C59810   7.048   6.783  10.488  0.6388 -0.2856  0.1463
  434MOL0     C59811   6.911   6.822  10.468 -0.2760 -0.5116  0.1298
  434MOL0     C59812   6.865   6.843  10.338 -0.0243  0.4454 -0.4251
  434MOL0     O59813   6.737   6.882  10.306 -0.0395  0.6017  0.1118
  434MOL0     C59814   6.647   6.908  10.417  0.5857  0.4931  1.1071
  434MOL0     C59815   6.515   6.957  10.353  0.1803  0.7367  0.1058
  434MOL0     C59816   6.397   6.945  10.456  0.3596  0.7061 -0.7142
  434MOL0     C59817   6.375   7.070  10.536  0.5272  0.3638  0.1087
  434MOL0     C59818   6.483   7.108  10.632  0.2442 -0.8186 -0.0417
  434MOL0     C59819   6.565   7.123  10.725 -0.3216  0.7709 -1.0206
  434MOL0     C59820   6.954   6.827  10.236  0.6297 -0.9377 -0.0058
  434MOL0     C59821   7.092   6.807  10.248  0.5194 -0.0962 -0.1812
  434MOL0     C59822   7.179   6.801  10.126 -0.0664  0.4640 -0.6052
  434MOL0     H59823   7.508   6.879  10.515 -0.3059 -0.1301 -0.2237
  434MOL0     H59824   7.743   6.866  10.545  0.2916  0.2456 -0.8281
  434MOL0     H59825   7.967   6.769  10.188 -2.1001 -0.4213  0.3537
  434MOL0     H59826   7.990   6.606  10.246 -0.7130  1.0060 -0.8738
  434MOL0     H59827   8.164   6.849  10.319 -1.3473 -0.2794  1.1546
  434MOL0     H59828   8.175   6.692  10.401  0.5744 -3.0176 -1.1829
  434MOL0     H59829   8.188   6.590  10.168 -3.5131 -0.7524  2.2123
  434MOL0     H59830   8.239   6.754  10.124  0.0170 -0.2369  0.8119
  434MOL0     H59831   8.433   6.624  10.168 -1.1443  3.5843 -1.7361
  434MOL0     H59832   8.430   6.745  10.292  0.0710 -1.0268  3.5039
  434MOL0     H59833   8.342   6.459  10.337  2.1183 -0.8747 -0.4310
  434MOL0     H59834   8.362   6.574  10.459  0.2400 -0.1839  0.7730
  434MOL0     H59835   8.608   6.512  10.283  0.2259 -0.5206 -0.2041
  434MOL0     H59836   8.591   6.592  10.439  1.4644 -0.9774  0.2608
  434MOL0     H59837   8.555   6.305  10.358 -3.1568 -1.1576  1.8341
  434MOL0     H59838   8.483   6.345  10.504 -1.4788  0.4727 -1.5690
  434MOL0     H59839   8.777   6.391  10.462  0.5432 -1.1996  1.3427
  434MOL0     H59840   8.684   6.416  10.612 -0.5249 -1.7397  0.6143
  434MOL0     H59841   8.824   6.126  10.413  1.2900 -1.4274  0.2381
  434MOL0     H59842   8.920   5.896  10.489  0.8411  1.0949  1.4700
  434MOL0     H59843   8.820   5.822  10.610  0.0541 -0.9366  2.8871
  434MOL0     H59844   9.051   6.003  10.666 -0.3840  1.6798  2.3515
  434MOL0     H59845   8.971   5.913  10.791 -0.0469  0.1568  0.4682
  434MOL0     H59846   9.009   5.694  10.684 -0.0751 -0.1651  0.5861
  434MOL0     H59847   9.119   5.778  10.570 -0.1560 -2.9804  0.5454
  434MOL0     H59848   9.224   5.857  10.810 -1.4426 -0.9522  3.1959
  434MOL0     H59849   9.139   5.697  10.858 -0.6817 -1.9139 -1.5697
  434MOL0     H59850   9.465   5.525  10.638  0.3324  1.7289 -0.8309
  434MOL0     H59851   9.710   5.345  10.733 -1.4639 -0.4947  0.5995
  434MOL0     H59852   9.811   5.486  10.684  0.8997 -2.1436  0.9314
  434MOL0     H59853   9.662   5.442  10.590 -1.1799  3.2317  1.2215
  434MOL0     H59854  10.053   5.467  10.797 -3.0449  0.8531  0.5224
  434MOL0     H59855  10.288   5.426  10.885  1.4526 -2.1751  0.9352
  434MOL0     H59856  10.357   5.486  11.295  1.1229  0.8555  0.3086
  434MOL0     H59857  10.337   5.310  11.324  1.7600  0.1206  1.6218
  434MOL0     H59858  10.582   5.440  11.207 -0.6501 -1.8298 -1.4576
  434MOL0     H59859  10.564   5.406  11.380  0.8810 -0.0851 -0.5341
  434MOL0     H59860  10.705   5.235  11.235 -0.4769 -1.4955 -3.4393
  434MOL0     H59861  10.556   5.185  11.169  0.1587  1.5619 -0.9994
  434MOL0     H59862  10.464   5.102  11.377 -0.6431 -1.0804 -2.9401
  434MOL0     H59863  10.591   5.177  11.479  0.9934 -0.7535 -0.8583
  434MOL0     H59864  10.581   4.935  11.433  1.5888 -0.5025  1.0690
  434MOL0     H59865  10.641   4.953  11.267  0.9332 -3.6526  1.0395
  434MOL0     H59866  10.795   4.975  11.526  2.2582  0.2858  0.2282
  434MOL0     H59867  10.839   5.084  11.392  2.1036 -1.9003 -2.0055
  434MOL0     H59868  10.898   4.937  11.244 -0.0464  2.5643  0.8402
  434MOL0     H59869  10.813   4.806  11.307  2.0681 -0.0572 -1.1016
  434MOL0     H59870  10.955   4.768  11.503  0.9222  0.7138  0.5033
  434MOL0     H59871  11.058   4.898  11.473 -0.4080 -2.3341  3.8669
  434MOL0     H59872  10.120   5.342  11.270  0.5132  2.2195  0.8394
  434MOL0     H59873   9.902   5.371  11.185  0.7801 -1.0962  0.1635
  434MOL0     H59874   9.622   5.744  11.047 -0.7492 -0.7468  0.6481
  434MOL0     H59875   9.393   5.795  10.957 -0.0792  1.2661 -1.4729
  434MOL0     H59876   7.784   6.619  10.197 -0.9056  0.1535  0.6371
  434MOL0     H59877   7.536   6.630  10.176 -0.2295  0.8367  0.1155
  434MOL0     H59878   7.069   6.773  10.594 -0.4674 -0.1269  0.3863
  434MOL0     H59879   6.853   6.845  10.557 -1.9410  0.4383 -1.1330
  434MOL0     H59880   6.636   6.818  10.478 -0.3128 -0.1233  0.0794
  434MOL0     H59881   6.688   6.990  10.477  0.2978 -0.4678  2.6587
  434MOL0     H59882   6.494   6.886  10.273  0.8804  1.2669 -0.5687
  434MOL0     H59883   6.517   7.059  10.313  1.2615  1.3903  1.7378
  434MOL0     H59884   6.307   6.927  10.396  0.7016  0.3743 -1.1376
  434MOL0     H59885   6.402   6.856  10.520 -0.7267  1.3847  0.3458
  434MOL0     H59886   6.280   7.063  10.590  0.5928  0.6820  0.2699
  434MOL0     H59887   6.361   7.150  10.463 -0.2321  1.3206  1.2519
  434MOL0     H59888   6.626   7.147  10.810 -2.3666  1.1582  0.4257
  434MOL0     H59889   6.905   6.835  10.139  2.0210  3.4802 -0.5946
  434MOL0     H59890   7.110   6.800  10.041 -2.4097  1.6613  1.1647
  434MOL0     H59891   7.253   6.881  10.125  0.7259 -0.2451  0.1218
  434MOL0     H59892   7.236   6.709  10.115 -2.6292 -1.1370 -1.5670
  435MOL0     O59893   0.970  10.459   9.209 -0.0138  0.0849 -0.0245
  435MOL0     C59894   0.911  10.355   9.171 -0.0574  0.3404  0.1579
  435MOL0     O59895   0.945  10.282   9.055 -0.4840  0.0152 -0.3568
  435MOL0     C59896   1.057  10.318   8.978 -0.2704  0.8474  0.7396
  435MOL0     C59897   1.181  10.282   9.024 -0.6693 -1.1822  0.1390
  435MOL0     C59898   1.295  10.333   8.963  0.0867  0.0854 -0.0451
  435MOL0     C59899   1.282  10.386   8.834 -0.3036  0.0633 -0.0912
  435MOL0     O59900   1.397  10.414   8.773 -0.4347  0.2521  0.5179
  435MOL0     C59901   1.436  10.541   8.729  1.1317 -0.7231  0.9465
  435MOL0     C59902   1.512  10.522   8.603  0.3562 -0.6852 -0.6558
  435MOL0     C59903   1.651  10.475   8.628  0.3535 -0.1202  0.0258
  435MOL0     C59904   1.719  10.446   8.499 -0.1692  0.4752  0.2003
  435MOL0     C59905   1.852  10.373   8.546 -0.1766  0.0843 -0.7483
  435MOL0     C59906   1.944  10.361   8.430 -0.2390  0.5048  0.6189
  435MOL0     C59907   2.089  10.371   8.461 -0.1021  0.1297  0.0109
  435MOL0     C59908   2.135  10.241   8.522  0.3139  0.3214 -0.5223
  435MOL0     N59909   2.284  10.229   8.513 -0.8640 -0.8912 -1.1279
  435MOL0     C59910   2.369  10.320   8.586 -0.6419  0.1011  0.3112
  435MOL0     C59911   2.478  10.317   8.521  0.1940 -0.3654 -0.0685
  435MOL0     C59912   2.595  10.409   8.554 -0.4944  0.4476  0.2506
  435MOL0     C59913   2.695  10.350   8.650  0.6968  0.0279 -0.0784
  435MOL0     C59914   2.756  10.230   8.594 -0.4736 -0.5173  0.4443
  435MOL0     C59915   2.866  10.174   8.690 -0.2850 -0.4772  0.0662
  435MOL0     O59916   2.952  10.272   8.742  0.7898  0.1397 -0.2215
  435MOL0     C59917   3.071  10.222   8.804  1.4392 -0.0703 -0.3536
  435MOL0     C59918   3.093  10.089   8.850  0.4626 -0.4092  0.2751
  435MOL0     C59919   3.205  10.053   8.923 -0.3230 -0.4945  0.5816
  435MOL0     C59920   3.223   9.904   8.946 -0.4898 -0.0756  0.0959
  435MOL0     C59921   3.295  10.149   8.961 -0.3536 -0.0790  0.1015
  435MOL0     C59922   3.405  10.136   9.061 -1.1581  0.0258  0.8155
  435MOL0     O59923   3.480  10.252   9.083 -0.1369  0.1265  0.6561
  435MOL0     C59924   3.580  10.262   9.182 -0.0669  0.4087 -0.3408
  435MOL0     C59925   3.574  10.184   9.298 -0.1864  0.1287 -0.2074
  435MOL0     C59926   3.690  10.183   9.382  0.8345 -0.5522 -0.3921
  435MOL0     C59927   3.800  10.254   9.346  0.3347 -0.2062 -0.2220
  435MOL0     O59928   3.905  10.269   9.436 -0.6635 -0.3548  0.1694
  435MOL0     C59929   3.967  10.143   9.479 -0.1535  0.1796 -0.4023
  435MOL0     C59930   4.114  10.158   9.466 -0.1769 -0.4358 -1.0469
  435MOL0     C59931   4.181  10.044   9.528 -0.0192 -0.6367 -0.9020
  435MOL0     C59932   4.333  10.058   9.539  0.2778  0.0420  0.1743
  435MOL0     C59933   4.400   9.959   9.641  1.2791  0.1064  0.4017
  435MOL0     C59934   4.551   9.968   9.637 -0.1920 -0.8008  0.7129
  435MOL0     C59935   4.627   9.875   9.737 -0.0401 -0.0880  0.6677
  435MOL0     C59936   4.785   9.890   9.733  0.1888  0.3829  0.7176
  435MOL0    Cl59937   4.860   9.771   9.844 -0.2184 -0.7767  0.0655
  435MOL0     C59938   3.804  10.334   9.233  1.3838 -0.1380 -1.0983
  435MOL0     C59939   3.692  10.325   9.147 -0.1798 -0.0893  0.2598
  435MOL0     O59940   3.427  10.023   9.114 -0.6018 -0.8399 -0.6956
  435MOL0     C59941   3.272  10.277   8.902 -0.0689 -0.0764 -0.1568
  435MOL0     C59942   3.171  10.310   8.821  0.2140 -0.2241 -0.3207
  435MOL0     N59943   2.469  10.224   8.409  0.4430  0.1036 -0.3682
  435MOL0     N59944   2.358  10.172   8.417  0.0048  0.1088 -0.1525
  435MOL0     C59945   1.154  10.396   8.774  0.0189 -0.2614  0.6094
  435MOL0     C59946   1.039  10.363   8.847 -0.4835  0.3409  0.0945
  435MOL0     C59947   0.790  10.312   9.238 -0.6309  0.6560 -0.4103
  435MOL0     C59948   0.752  10.172   9.220 -0.6063 -0.6480  0.3540
  435MOL0     C59949   0.630  10.122   9.271  0.2470 -0.3428  0.6948
  435MOL0     C59950   0.556  10.206   9.349 -0.6422 -0.4693  0.0164
  435MOL0     O59951   0.443  10.156   9.405  0.4496 -0.0150 -0.3458
  435MOL0     C59952   0.324  10.171   9.327 -0.2185 -0.1933 -0.2097
  435MOL0     C59953   0.197  10.177   9.415 -1.1250  0.5771  0.0616
  435MOL0     C59954   0.221  10.288   9.514 -0.0655  0.7872 -0.1389
  435MOL0     C59955   0.095  10.336   9.576  0.5205  0.1296  0.4100
  435MOL0     C59956   0.012  10.223   9.634  0.4815 -0.0238  1.1355
  435MOL0     C59957  -0.061  10.144   9.676  0.8625 -0.6052 -0.2741
  435MOL0     C59958   0.594  10.335   9.377 -0.0840  0.0692 -0.1932
  435MOL0     C59959   0.706  10.391   9.315 -0.6365  0.8061 -0.6279
  435MOL0     C59960   0.747  10.532   9.349  0.6107 -0.1015 -0.0787
  435MOL0     H59961   1.196  10.232   9.120 -2.1778 -0.4239  0.7959
  435MOL0     H59962   1.389  10.329   9.017  0.9531  1.0727 -1.4118
  435MOL0     H59963   1.496  10.588   8.808 -2.9654  0.5900  3.6607
  435MOL0     H59964   1.354  10.613   8.719  1.6635  0.0541  1.8630
  435MOL0     H59965   1.457  10.454   8.538 -3.2562  0.5485  0.8668
  435MOL0     H59966   1.512  10.614   8.543  1.2919  0.0509  0.4264
  435MOL0     H59967   1.709  10.554   8.675  0.5201 -0.5308  0.5128
  435MOL0     H59968   1.645  10.386   8.691 -1.7510 -0.8218 -1.0325
  435MOL0     H59969   1.666  10.391   8.421  0.6875 -0.7210  0.4313
  435MOL0     H59970   1.743  10.542   8.452  1.2563 -1.0163 -2.3350
  435MOL0     H59971   1.833  10.282   8.605  1.1230  1.4277  1.9434
  435MOL0     H59972   1.903  10.437   8.619  1.9780 -0.7299 -1.4732
  435MOL0     H59973   1.921  10.266   8.382 -0.4925  1.1317 -0.5558
  435MOL0     H59974   1.924  10.431   8.348  3.0330 -0.1050 -0.8826
  435MOL0     H59975   2.102  10.456   8.528  1.7388 -0.6477  0.7164
  435MOL0     H59976   2.133  10.400   8.365 -4.9551  2.7891 -1.7598
  435MOL0     H59977   2.109  10.225   8.627 -1.2465  2.4610 -0.5289
  435MOL0     H59978   2.092  10.159   8.463  2.2793  1.5503 -3.9737
  435MOL0     H59979   2.340  10.406   8.647  0.0110  0.4670  0.1212
  435MOL0     H59980   2.549  10.504   8.584 -1.1230  0.2642 -0.1135
  435MOL0     H59981   2.658  10.440   8.470 -0.6022  1.5076  0.5483
  435MOL0     H59982   2.778  10.421   8.648  1.2141 -0.5708 -0.8664
  435MOL0     H59983   2.653  10.349   8.751 -1.0145 -2.0256 -0.7224
  435MOL0     H59984   2.676  10.156   8.578 -1.4576  0.5363  0.4171
  435MOL0     H59985   2.806  10.265   8.503  0.2232 -0.3113  0.9034
  435MOL0     H59986   2.808  10.124   8.768  1.1699 -0.1637  1.3885
  435MOL0     H59987   2.924  10.090   8.651  1.7364 -0.4478  2.7188
  435MOL0     H59988   3.010  10.020   8.843  0.2611 -0.2503  0.9460
  435MOL0     H59989   3.324   9.874   8.916 -0.1434 -0.9072  1.9293
  435MOL0     H59990   3.156   9.845   8.884 -0.9259 -0.8964  1.3148
  435MOL0     H59991   3.202   9.882   9.051  0.2937  1.2736  0.5681
  435MOL0     H59992   3.486  10.130   9.331 -1.4613  2.8512  1.1286
  435MOL0     H59993   3.697  10.131   9.477 -0.4238  1.3410  0.7894
  435MOL0     H59994   3.943  10.116   9.582 -1.3750 -0.1664 -0.7617
  435MOL0     H59995   3.930  10.052   9.431  0.2722  0.9508 -2.2812
  435MOL0     H59996   4.145  10.154   9.362 -0.5266 -0.8767 -1.1358
  435MOL0     H59997   4.150  10.248   9.516  1.5606 -0.4647 -2.1816
  435MOL0     H59998   4.161   9.954   9.468  0.0704  0.6726 -2.9874
  435MOL0     H59999   4.141  10.033   9.630  0.8802  2.2096 -0.1599
  435MOL0     H60000   4.356  10.160   9.573  1.1118  0.9954 -2.8774
  435MOL0     H60001   4.379  10.051   9.440  2.5813  0.0655  1.1697
  435MOL0     H60002   4.357   9.991   9.736 -0.5328  2.1692 -1.0280
  435MOL0     H60003   4.359   9.859   9.624 -1.8840  1.1592  1.2206
  435MOL0     H60004   4.574  10.074   9.648 -0.4172 -0.3350 -2.5394
  435MOL0     H60005   4.579   9.953   9.533 -0.3748 -1.2569  0.7248
  435MOL0     H60006   4.609   9.772   9.704  1.8090 -0.1540 -0.2401
  435MOL0     H60007   4.593   9.895   9.840  1.9575 -0.1634  1.3831
  435MOL0     H60008   4.806   9.996   9.749  0.3211  1.1892 -3.5085
  435MOL0     H60009   4.831   9.864   9.637 -1.4938 -1.1892  0.2789
  435MOL0     H60010   3.895  10.374   9.189  0.8775 -0.7652 -2.7869
  435MOL0     H60011   3.690  10.372   9.049  1.6920  2.5072  1.3640
  435MOL0     H60012   3.342  10.356   8.929 -1.5939  0.8689  1.2497
  435MOL0     H60013   3.151  10.415   8.799 -1.6126 -0.1628  1.4011
  435MOL0     H60014   1.157  10.449   8.679  1.6186 -0.0660  0.7318
  435MOL0     H60015   0.941  10.385   8.806  0.0538  0.8115 -0.9879
  435MOL0     H60016   0.814  10.105   9.161 -0.0447  0.4219 -0.3117
  435MOL0     H60017   0.600  10.021   9.245  0.6278  0.0287 -1.3877
  435MOL0     H60018   0.305  10.258   9.264 -3.8453 -1.5095 -1.1903
  435MOL0     H60019   0.316  10.089   9.255 -0.3264  0.3673 -0.8418
  435MOL0     H60020   0.189  10.087   9.477 -1.6554  0.9132  0.4851
  435MOL0     H60021   0.112  10.192   9.348 -1.6816 -0.5187  0.5036
  435MOL0     H60022   0.287  10.242   9.588  1.7129  1.8057 -1.0034
  435MOL0     H60023   0.275  10.369   9.464  1.9502 -1.6479 -2.1724
  435MOL0     H60024   0.038  10.392   9.502  2.7167  1.8871 -0.0486
  435MOL0     H60025   0.110  10.405   9.660  0.0418  1.1561 -0.3327
  435MOL0     H60026  -0.119  10.069   9.725  1.9845 -2.4591 -1.6595
  435MOL0     H60027   0.532  10.389   9.447  0.1016 -0.6829  0.5751
  435MOL0     H60028   0.673  10.569   9.419 -1.2638  0.6626 -2.3292
  435MOL0     H60029   0.846  10.548   9.394 -0.7154  1.3242  2.5520
  435MOL0     H60030   0.735  10.595   9.259  0.3231  1.3350  0.9274
  436MOL0     O60031   6.796  11.356  10.315 -0.1252  0.2064 -0.1026
  436MOL0     C60032   6.717  11.376  10.229  0.1093 -1.7831  0.8657
  436MOL0     O60033   6.751  11.443  10.108  0.5469  0.0451 -0.5097
  436MOL0     C60034   6.882  11.457  10.087 -0.6175  0.2931 -0.2771
  436MOL0     C60035   6.955  11.558  10.148  0.4640 -0.1359 -1.0847
  436MOL0     C60036   7.087  11.581  10.116  0.4458 -0.2237 -0.6468
  436MOL0     C60037   7.156  11.495  10.033  0.1393  0.5150 -0.1873
  436MOL0     O60038   7.288  11.497   9.991  0.6478  0.2625 -0.2148
  436MOL0     C60039   7.381  11.592  10.039 -0.4239  0.2212  0.2814
  436MOL0     C60040   7.398  11.704   9.936  0.3183 -0.0389 -0.2701
  436MOL0     C60041   7.504  11.804   9.969 -0.3367  0.3679 -0.1851
  436MOL0     C60042   7.499  11.915   9.865  1.1118 -0.3355  0.3244
  436MOL0     C60043   7.601  12.034   9.881  0.0647  0.1954  0.4138
  436MOL0     C60044   7.739  11.980   9.857 -0.0100 -0.1855  0.3001
  436MOL0     C60045   7.855  12.070   9.868  0.3762  0.8113 -0.9111
  436MOL0     C60046   7.865  12.171   9.760  0.2364 -0.5938 -0.1150
  436MOL0     N60047   7.890  12.112   9.627 -0.0942  0.3911  0.3647
  436MOL0     C60048   7.822  12.144   9.508  0.0985  0.0525 -0.5252
  436MOL0     C60049   7.899  12.084   9.411 -0.2463  0.5998 -0.3863
  436MOL0     C60050   7.873  12.074   9.269  0.0887 -0.8027  0.6267
  436MOL0     C60051   7.957  12.171   9.184 -0.5410 -0.1154  0.6099
  436MOL0     C60052   8.111  12.145   9.188  0.4640 -0.3257  0.7426
  436MOL0     C60053   8.147  12.007   9.132  0.3800  0.1883  0.0604
  436MOL0     O60054   8.295  11.999   9.109  0.3095  0.3723  0.6234
  436MOL0     C60055   8.370  12.068   9.022 -0.8060  0.7506  0.7447
  436MOL0     C60056   8.320  12.113   8.904 -0.2978 -0.3897 -0.3682
  436MOL0     C60057   8.402  12.179   8.807  0.0069  0.1760 -0.3517
  436MOL0     C60058   8.320  12.224   8.684 -0.2696  0.3843 -0.3140
  436MOL0     C60059   8.544  12.206   8.831 -0.4458  0.3952  0.5071
  436MOL0     C60060   8.628  12.282   8.734  0.7057 -0.4458  1.1987
  436MOL0     O60061   8.756  12.309   8.771 -0.0314  0.1628 -0.6289
  436MOL0     C60062   8.846  12.364   8.688 -0.4326 -0.2489  0.2540
  436MOL0     C60063   8.848  12.364   8.545 -0.0485  0.2770  0.5953
  436MOL0     C60064   8.958  12.411   8.477 -0.2796  0.5810  0.0912
  436MOL0     C60065   9.079  12.451   8.542  0.0632  0.1423  0.4427
  436MOL0     O60066   9.189  12.484   8.476  0.9247  0.8268  0.0105
  436MOL0     C60067   9.306  12.487   8.545 -0.5189 -0.3681 -0.6476
  436MOL0     C60068   9.417  12.523   8.450  0.7481 -0.2419  0.4538
  436MOL0     C60069   9.541  12.550   8.521 -1.3989  0.0619  0.1962
  436MOL0     C60070   9.669  12.584   8.441  0.7333 -0.6327 -0.0017
  436MOL0     C60071   9.784  12.611   8.532 -0.1938  0.0754  0.4487
  436MOL0     C60072   9.912  12.613   8.450  0.0767  0.7394  0.8230
  436MOL0     C60073  10.039  12.631   8.538  1.0512  0.4564 -0.3856
  436MOL0     C60074  10.174  12.630   8.463 -0.3197 -0.1130 -0.0212
  436MOL0    Cl60075  10.195  12.470   8.372 -0.2731  0.6291 -0.3483
  436MOL0     C60076   9.064  12.463   8.681 -0.8895 -0.0757  0.0848
  436MOL0     C60077   8.951  12.420   8.754  0.7445 -0.2554 -0.2496
  436MOL0     O60078   8.582  12.308   8.626  0.0475  0.1090 -0.3169
  436MOL0     C60079   8.594  12.154   8.950 -0.9039  0.1019  0.2152
  436MOL0     C60080   8.510  12.075   9.035  0.2142 -0.3398  0.4530
  436MOL0     N60081   7.999  12.008   9.470 -0.1162 -0.2664 -0.0276
  436MOL0     N60082   7.988  12.021   9.594  0.0161  0.7522 -0.1557
  436MOL0     C60083   7.085  11.393   9.972 -1.0575 -0.2003  0.6126
  436MOL0     C60084   6.951  11.382   9.993  0.0716  0.2121 -0.2368
  436MOL0     C60085   6.570  11.373  10.256 -0.0075 -0.3806  0.2688
  436MOL0     C60086   6.491  11.472  10.196 -0.3859 -0.1964  0.1353
  436MOL0     C60087   6.351  11.485  10.196 -0.2360 -0.3867 -0.3325
  436MOL0     C60088   6.280  11.396  10.281  0.3392  0.3976  0.3182
  436MOL0     O60089   6.147  11.423  10.285 -0.0818  0.8548 -0.0455
  436MOL0     C60090   6.067  11.311  10.322  0.7211 -0.0621 -0.3138
  436MOL0     C60091   5.927  11.353  10.277 -0.1052 -0.3250  0.1919
  436MOL0     C60092   5.820  11.270  10.346 -0.2944 -0.0223  0.5844
  436MOL0     C60093   5.689  11.331  10.309  0.7490 -0.7961 -0.7173
  436MOL0     C60094   5.651  11.441  10.405 -0.6872  0.7446 -0.3440
  436MOL0     C60095   5.627  11.526  10.490 -0.5954 -0.1854 -0.0146
  436MOL0     C60096   6.353  11.294  10.348 -0.7002 -0.3885  0.1623
  436MOL0     C60097   6.499  11.276  10.324  0.0236 -0.1747 -0.1049
  436MOL0     C60098   6.556  11.158  10.379  0.2156 -0.0902 -0.1418
  436MOL0     H60099   6.902  11.637  10.201  1.2897  1.1397 -2.1221
  436MOL0     H60100   7.133  11.661  10.173 -0.4842 -1.3674  1.8614
  436MOL0     H60101   7.476  11.540  10.059 -1.4132 -1.7553  0.1295
  436MOL0     H60102   7.357  11.641  10.134  1.6372  5.6392 -1.6546
  436MOL0     H60103   7.425  11.650   9.845  0.6675 -1.8270  0.8385
  436MOL0     H60104   7.302  11.753   9.916 -1.6776 -2.8345  1.7363
  436MOL0     H60105   7.497  11.846  10.070  2.2779 -1.8222  1.0626
  436MOL0     H60106   7.592  11.739   9.954 -0.2499  0.9516 -2.5395
  436MOL0     H60107   7.502  11.870   9.765 -2.5173 -1.0390  0.3771
  436MOL0     H60108   7.399  11.960   9.870  1.3521  0.2703 -0.1563
  436MOL0     H60109   7.595  12.076   9.982  1.7243  2.8252 -0.4712
  436MOL0     H60110   7.578  12.114   9.809 -0.1387  0.0598  0.3274
  436MOL0     H60111   7.759  11.896   9.925  0.5604 -0.8102 -0.6202
  436MOL0     H60112   7.741  11.946   9.753 -0.0225  0.1719  0.1828
  436MOL0     H60113   7.947  12.011   9.866 -0.6650 -1.2982  2.9652
  436MOL0     H60114   7.844  12.109   9.970 -0.9883 -3.4166  0.7976
  436MOL0     H60115   7.774  12.229   9.776 -0.4465 -1.3085 -1.2489
  436MOL0     H60116   7.946  12.240   9.782 -0.4841 -0.0272  0.8175
  436MOL0     H60117   7.738  12.209   9.487  0.4772  1.1297  1.0996
  436MOL0     H60118   7.769  12.100   9.245  0.1223 -1.3641 -0.1584
  436MOL0     H60119   7.888  11.970   9.241 -1.9189 -0.9211 -0.2247
  436MOL0     H60120   7.929  12.162   9.079 -0.3349  1.4724  0.4082
  436MOL0     H60121   7.943  12.271   9.224 -1.9305 -0.3492  0.7367
  436MOL0     H60122   8.149  12.225   9.124 -1.1282  2.7341  3.3221
  436MOL0     H60123   8.146  12.167   9.290 -0.0332  0.4128  0.7657
  436MOL0     H60124   8.107  11.928   9.197 -2.0273  1.7960  0.6528
  436MOL0     H60125   8.096  11.991   9.037  0.5862 -0.4866  0.0593
  436MOL0     H60126   8.214  12.099   8.887 -0.2431  1.2055 -2.4315
  436MOL0     H60127   8.315  12.333   8.675 -1.7441  0.5012  1.3631
  436MOL0     H60128   8.218  12.186   8.678 -0.5094  0.8192  0.8377
  436MOL0     H60129   8.376  12.180   8.600  0.3097  3.5630 -1.7784
  436MOL0     H60130   8.774  12.324   8.477 -0.5015  2.6542 -0.4139
  436MOL0     H60131   8.967  12.404   8.369  2.0191 -0.1498  0.2701
  436MOL0     H60132   9.304  12.554   8.631 -1.2065 -1.3760  0.1335
  436MOL0     H60133   9.329  12.387   8.583 -1.8257  0.3516  2.2943
  436MOL0     H60134   9.425  12.445   8.375  0.0683  0.6444 -0.5700
  436MOL0     H60135   9.379  12.610   8.396  0.6906 -0.0528  0.7965
  436MOL0     H60136   9.575  12.459   8.572  0.4904 -0.1653 -1.3201
  436MOL0     H60137   9.521  12.625   8.598 -1.4856  0.0481  0.1867
  436MOL0     H60138   9.650  12.674   8.381 -2.5491 -1.6459 -0.6511
  436MOL0     H60139   9.693  12.508   8.368  1.1443 -0.6061  0.1044
  436MOL0     H60140   9.771  12.703   8.589 -0.4679 -0.2894  0.9776
  436MOL0     H60141   9.789  12.527   8.601 -1.7288  0.5176  1.1531
  436MOL0     H60142   9.903  12.693   8.376 -0.4029 -2.1030 -2.4097
  436MOL0     H60143   9.905  12.525   8.385 -2.3105  2.2287 -1.1018
  436MOL0     H60144  10.040  12.553   8.615 -2.7075 -0.5072 -1.0860
  436MOL0     H60145  10.032  12.725   8.594  1.7525 -0.2875  1.0052
  436MOL0     H60146  10.244  12.637   8.546 -0.0949 -1.0004 -0.1203
  436MOL0     H60147  10.197  12.715   8.399  3.4684  1.2915  2.8528
  436MOL0     H60148   9.139  12.513   8.741  0.8099 -1.6514 -0.6606
  436MOL0     H60149   8.958  12.413   8.862 -0.6622  1.7469  0.0321
  436MOL0     H60150   8.701  12.157   8.965 -1.0034 -0.6048  1.2041
  436MOL0     H60151   8.562  12.036   9.122  1.0693  2.1923  1.1768
  436MOL0     H60152   7.140  11.327   9.905  1.2648  0.1864  2.0155
  436MOL0     H60153   6.900  11.306   9.935 -0.4605 -3.4179  4.3822
  436MOL0     H60154   6.539  11.544  10.131 -0.1494 -1.4349 -1.0952
  436MOL0     H60155   6.297  11.568  10.151 -1.4752 -1.2511 -0.4981
  436MOL0     H60156   6.104  11.219  10.277  0.7220  0.6942 -1.9356
  436MOL0     H60157   6.071  11.291  10.430  1.5609  0.2888 -0.2704
  436MOL0     H60158   5.917  11.360  10.168  0.3079  0.8630  0.2156
  436MOL0     H60159   5.908  11.457  10.303 -0.3818  0.0011 -1.2338
  436MOL0     H60160   5.826  11.167  10.310 -1.6986  0.4940 -1.2784
  436MOL0     H60161   5.836  11.273  10.454 -2.8110  3.2253  1.0368
  436MOL0     H60162   5.617  11.249  10.320  1.0507 -1.2094 -1.6816
  436MOL0     H60163   5.682  11.361  10.204 -0.5240  1.3058 -0.0757
  436MOL0     H60164   5.585  11.589  10.566  1.8317  0.2331  1.0581
  436MOL0     H60165   6.295  11.231  10.414 -0.1265  0.4564  1.5195
  436MOL0     H60166   6.546  11.165  10.487  2.0869  0.6877  0.0293
  436MOL0     H60167   6.507  11.066  10.345  1.4461 -0.7282 -0.2774
  436MOL0     H60168   6.664  11.146  10.366  0.5783  2.9514 -0.6538
  437MOL0     O60169   7.439  11.286   1.895  0.1221  0.3135  0.2560
  437MOL0     C60170   7.336  11.229   1.932 -0.9070 -0.0958 -0.7721
  437MOL0     O60171   7.330  11.106   1.989 -0.1370 -0.4866  0.5062
  437MOL0     C60172   7.439  11.023   1.995 -0.3187 -0.6518 -0.0201
  437MOL0     C60173   7.442  10.949   2.110  0.6851  0.5381 -0.8804
  437MOL0     C60174   7.547  10.864   2.147  0.4229  0.6496  0.0496
  437MOL0     C60175   7.655  10.849   2.052 -0.6632 -0.4764 -0.5538
  437MOL0     O60176   7.756  10.766   2.097 -0.2860  0.7905  0.8725
  437MOL0     C60177   7.864  10.739   2.006  0.0448 -0.4853 -0.0341
  437MOL0     C60178   7.973  10.683   2.094 -0.3996 -0.3285  1.1743
  437MOL0     C60179   8.114  10.711   2.033 -0.0742 -0.6364 -0.5600
  437MOL0     C60180   8.223  10.655   2.126  0.4724  1.0464 -0.0714
  437MOL0     C60181   8.358  10.673   2.058  0.7634 -0.7045  0.0324
  437MOL0     C60182   8.456  10.585   2.121 -0.4299  0.3418 -0.1189
  437MOL0     C60183   8.593  10.596   2.050  0.3191 -0.3988 -0.6396
  437MOL0     C60184   8.686  10.485   2.106 -0.3060  0.3499 -0.1780
  437MOL0     N60185   8.631  10.347   2.077 -0.1395  0.1346  0.1526
  437MOL0     C60186   8.632  10.282   1.955 -0.2856 -0.7163  0.0534
  437MOL0     C60187   8.553  10.173   1.963  0.0316 -0.1553  0.4320
  437MOL0     C60188   8.517  10.084   1.842  0.4555  0.1550 -0.1719
  437MOL0     C60189   8.572   9.948   1.870 -1.1876  0.5268 -0.3959
  437MOL0     C60190   8.591   9.875   1.734  0.4171 -0.8304 -0.5545
  437MOL0     C60191   8.623   9.724   1.741 -0.2323  0.2030 -0.4208
  437MOL0     O60192   8.744   9.696   1.820 -0.3558  0.2782 -0.2986
  437MOL0     C60193   8.866   9.729   1.769 -0.3701 -0.4338 -0.0251
  437MOL0     C60194   8.980   9.710   1.851  0.1155 -0.1308  0.1515
  437MOL0     C60195   9.117   9.719   1.806 -0.0773  0.0289  0.2387
  437MOL0     C60196   9.230   9.695   1.899 -1.1078 -0.0802 -0.7291
  437MOL0     C60197   9.144   9.770   1.669 -0.3155 -0.5983 -0.2078
  437MOL0     C60198   9.274   9.797   1.606 -0.3828  0.0814 -0.3532
  437MOL0     O60199   9.271   9.869   1.487  0.1286  0.2872  0.5851
  437MOL0     C60200   9.380   9.936   1.433 -1.1238  0.3457  0.0128
  437MOL0     C60201   9.381   9.954   1.291  0.4403  0.1773 -0.0299
  437MOL0     C60202   9.481  10.023   1.228 -0.4431  0.8599  0.2149
  437MOL0     C60203   9.589  10.073   1.300  0.2002 -0.7103  0.0821
  437MOL0     O60204   9.694  10.138   1.233  0.0694  0.4258 -0.1683
  437MOL0     C60205   9.800  10.189   1.313 -0.3118 -0.1176 -0.5747
  437MOL0     C60206   9.892  10.243   1.219 -0.9769  0.2468  0.1209
  437MOL0     C60207   9.991  10.340   1.296 -0.3282  0.0184 -0.1148
  437MOL0     C60208  10.078  10.411   1.195  0.1087 -0.5397 -0.1813
  437MOL0     C60209  10.184  10.318   1.147  0.2840  0.3524  0.1139
  437MOL0     C60210  10.301  10.395   1.088 -0.1989 -0.9109  0.0280
  437MOL0     C60211  10.410  10.291   1.018  0.7474 -0.2248  0.0968
  437MOL0     C60212  10.528  10.370   0.963  0.1651 -0.3724  1.3311
  437MOL0    Cl60213  10.620  10.281   0.842  0.3793  0.2619  0.4844
  437MOL0     C60214   9.587  10.044   1.440 -0.3107  0.0917  0.1238
  437MOL0     C60215   9.485   9.980   1.507 -0.8989  0.1635 -0.4956
  437MOL0     O60216   9.374   9.740   1.654  0.5515  0.1865 -0.2836
  437MOL0     C60217   9.030   9.799   1.591 -0.6201  1.0863  0.5994
  437MOL0     C60218   8.901   9.772   1.637  0.4188  1.0500 -0.4395
  437MOL0     N60219   8.516  10.168   2.100 -0.1352  0.9022 -0.9570
  437MOL0     N60220   8.563  10.273   2.163 -0.4328  0.1089 -0.3276
  437MOL0     C60221   7.655  10.924   1.937 -0.2925 -0.2548 -0.0122
  437MOL0     C60222   7.550  11.012   1.912 -0.7930 -0.0549  0.7494
  437MOL0     C60223   7.198  11.293   1.921 -0.1002  0.2967 -0.1891
  437MOL0     C60224   7.195  11.427   1.883 -0.6833  0.4168 -0.0029
  437MOL0     C60225   7.082  11.503   1.880  0.6423  0.0103  0.0793
  437MOL0     C60226   6.959  11.452   1.925 -0.0313 -0.2225 -0.2900
  437MOL0     O60227   6.841  11.526   1.934 -0.6015  0.9911  0.7797
  437MOL0     C60228   6.714  11.466   1.916 -0.0232 -0.3937  0.3386
  437MOL0     C60229   6.608  11.565   1.879 -0.0481  0.0335 -0.4552
  437MOL0     C60230   6.586  11.665   1.991  0.4672 -0.4785 -0.5691
  437MOL0     C60231   6.449  11.734   1.958  0.1284 -0.0950  0.0040
  437MOL0     C60232   6.423  11.834   2.058  0.4559  0.1588 -0.2308
  437MOL0     C60233   6.390  11.915   2.143  0.0833  0.1406  0.0270
  437MOL0     C60234   6.958  11.316   1.960  0.1484  0.7214  0.2864
  437MOL0     C60235   7.072  11.233   1.958  0.2903 -0.5127  0.8492
  437MOL0     C60236   7.056  11.084   1.962 -0.7999  0.4040 -0.6084
  437MOL0     H60237   7.358  10.957   2.179  1.3217 -3.6555  0.6865
  437MOL0     H60238   7.542  10.805   2.238 -1.2279  1.1508  0.3076
  437MOL0     H60239   7.901  10.835   1.969 -0.2354 -0.6430 -0.7261
  437MOL0     H60240   7.831  10.670   1.928  1.6157 -1.5005  0.1370
  437MOL0     H60241   7.961  10.730   2.193 -2.1219  1.6826  0.0834
  437MOL0     H60242   7.979  10.574   2.101 -1.3871 -0.3878  1.2820
  437MOL0     H60243   8.128  10.666   1.934  1.6618  0.4933 -0.8713
  437MOL0     H60244   8.130  10.819   2.023 -0.8983 -0.6054 -1.7217
  437MOL0     H60245   8.213  10.692   2.228 -1.2961  1.4632 -0.3575
  437MOL0     H60246   8.209  10.546   2.125 -1.6040  1.2583  1.0613
  437MOL0     H60247   8.387  10.778   2.053  0.0430 -0.5246 -0.6983
  437MOL0     H60248   8.354  10.647   1.951  1.3994  0.9607 -0.4381
  437MOL0     H60249   8.473  10.611   2.226 -0.6132 -1.3229  0.3665
  437MOL0     H60250   8.419  10.481   2.123  0.0955  0.1490  1.9786
  437MOL0     H60251   8.639  10.695   2.054  0.7411 -0.6168  0.1414
  437MOL0     H60252   8.579  10.581   1.942 -1.5026  0.8357 -0.5982
  437MOL0     H60253   8.784  10.497   2.058 -0.1083  1.7912  0.5416
  437MOL0     H60254   8.684  10.501   2.214 -2.3639  0.0140 -0.1308
  437MOL0     H60255   8.683  10.312   1.864 -0.7098 -0.7793 -0.2079
  437MOL0     H60256   8.555  10.125   1.748  0.0906  0.4294 -0.2032
  437MOL0     H60257   8.408  10.083   1.828  0.3469  1.3958  0.4455
  437MOL0     H60258   8.667   9.957   1.923 -2.7980 -1.4059  3.1831
  437MOL0     H60259   8.506   9.894   1.938  1.3013  1.1555  2.7680
  437MOL0     H60260   8.494   9.886   1.685 -0.8494 -1.4739  1.6630
  437MOL0     H60261   8.680   9.922   1.693  1.0816  0.1820  1.8415
  437MOL0     H60262   8.544   9.666   1.789 -1.2733  0.9502 -1.1789
  437MOL0     H60263   8.629   9.686   1.639  0.2107 -0.2763 -0.2259
  437MOL0     H60264   8.965   9.682   1.955 -0.4720 -1.7197 -0.3348
  437MOL0     H60265   9.203   9.666   2.001  3.0366  0.4535  0.7372
  437MOL0     H60266   9.305   9.774   1.903 -2.1368  0.8853 -0.2483
  437MOL0     H60267   9.283   9.611   1.852 -2.9195 -0.8886 -1.4302
  437MOL0     H60268   9.304   9.905   1.232  0.7847 -0.3783 -0.0241
  437MOL0     H60269   9.481  10.041   1.121  3.1988 -1.7225 -0.4142
  437MOL0     H60270   9.771  10.268   1.383 -0.8419 -0.5956 -0.2449
  437MOL0     H60271   9.844  10.105   1.367  0.3578 -0.2439 -1.3111
  437MOL0     H60272   9.932  10.151   1.175  0.3524  1.9680 -2.5233
  437MOL0     H60273   9.842  10.299   1.140 -0.2684 -0.9718 -1.2206
  437MOL0     H60274  10.058  10.289   1.365  1.1839  0.5218 -1.1714
  437MOL0     H60275   9.937  10.417   1.352 -0.4140 -0.8781  1.0637
  437MOL0     H60276  10.128  10.493   1.247 -1.1248  0.5409 -0.6333
  437MOL0     H60277  10.015  10.457   1.119 -0.4511 -0.8353  0.0931
  437MOL0     H60278  10.226  10.257   1.228  0.3387 -0.1361 -0.2813
  437MOL0     H60279  10.147  10.245   1.076 -1.5738 -0.5147  1.8899
  437MOL0     H60280  10.347  10.447   1.172 -2.1718  0.3604  0.3786
  437MOL0     H60281  10.262  10.460   1.009 -0.4035 -0.7916  0.2286
  437MOL0     H60282  10.356  10.231   0.944 -0.7197 -3.3855  3.3854
  437MOL0     H60283  10.454  10.226   1.094  0.6673  0.0882  0.4137
  437MOL0     H60284  10.596  10.414   1.037  0.2075  1.7721  0.0934
  437MOL0     H60285  10.483  10.447   0.901  1.9792  1.5410  2.2755
  437MOL0     H60286   9.673  10.070   1.501  0.3691  0.7784 -1.0945
  437MOL0     H60287   9.494   9.959   1.613 -2.0334 -1.6726 -0.7205
  437MOL0     H60288   9.033   9.838   1.490  0.8024 -0.2230  0.1044
  437MOL0     H60289   8.824   9.786   1.561  0.4362 -0.7441 -0.8280
  437MOL0     H60290   7.735  10.921   1.863 -1.2341 -2.5873 -1.0533
  437MOL0     H60291   7.562  11.072   1.822 -0.6868 -0.7141  0.3143
  437MOL0     H60292   7.292  11.468   1.854  0.5038 -1.1437  1.5383
  437MOL0     H60293   7.093  11.609   1.858 -0.9731  0.6256  1.8651
  437MOL0     H60294   6.717  11.389   1.839  2.0344 -2.7938  2.6288
  437MOL0     H60295   6.685  11.409   2.005 -1.9743 -0.0226 -0.0212
  437MOL0     H60296   6.516  11.509   1.860  0.0139  0.2621 -1.4727
  437MOL0     H60297   6.637  11.615   1.786 -1.4726 -2.3389 -2.2925
  437MOL0     H60298   6.576  11.608   2.084  0.9272  0.4408  0.0575
  437MOL0     H60299   6.667  11.738   2.002 -0.2926  0.5071 -1.3377
  437MOL0     H60300   6.364  11.666   1.947 -0.8604  1.1789 -0.5346
  437MOL0     H60301   6.459  11.796   1.868 -4.2125  0.6190 -0.1760
  437MOL0     H60302   6.355  11.974   2.225  0.8914 -1.0748  1.3008
  437MOL0     H60303   6.860  11.277   1.985  0.0586  0.8985  0.2180
  437MOL0     H60304   7.077  11.035   2.057  1.2821  0.5282 -0.9556
  437MOL0     H60305   6.953  11.053   1.941 -0.0937 -2.5064 -0.0808
  437MOL0     H60306   7.106  11.031   1.880 -0.9346 -0.4213 -0.1584
  438MOL0     O60307   2.819   3.011   0.790 -0.2918  0.2089  0.3660
  438MOL0     C60308   2.818   2.969   0.906  0.7915 -0.7308 -0.9629
  438MOL0     O60309   2.919   2.966   0.995  0.8067 -0.3623  0.5996
  438MOL0     C60310   3.050   2.980   0.968  0.1582  1.0653 -0.2191
  438MOL0     C60311   3.126   2.982   0.846  0.6804 -0.2909 -0.5218
  438MOL0     C60312   3.264   3.007   0.855  0.4674 -0.4535  0.4922
  438MOL0     C60313   3.329   3.018   0.977 -0.5685 -0.0727  0.8965
  438MOL0     O60314   3.466   3.039   0.980  0.1634  0.4412  0.5658
  438MOL0     C60315   3.507   3.175   0.956 -0.2925  0.3330 -0.2621
  438MOL0     C60316   3.658   3.190   0.965 -0.3259 -0.2045  0.0937
  438MOL0     C60317   3.732   3.156   0.831 -0.0146 -0.5804  0.0727
  438MOL0     C60318   3.880   3.169   0.857 -0.1517 -0.0074  0.8900
  438MOL0     C60319   3.965   3.090   0.757 -0.2073 -0.7660 -0.4148
  438MOL0     C60320   4.109   3.118   0.798 -0.0219  0.0140 -0.1281
  438MOL0     C60321   4.198   3.033   0.700 -0.6065 -0.8076  0.0373
  438MOL0     C60322   4.345   3.045   0.740 -0.3036  0.3586  0.4655
  438MOL0     N60323   4.391   2.975   0.863  0.3157 -0.6918  0.0880
  438MOL0     C60324   4.444   2.847   0.871 -0.7831 -0.6806 -0.5576
  438MOL0     C60325   4.464   2.833   1.003 -0.6177 -0.0156  0.0973
  438MOL0     C60326   4.514   2.692   1.059  0.6846 -0.3518 -0.2504
  438MOL0     C60327   4.662   2.683   1.093  0.3934  0.8560 -1.0643
  438MOL0     C60328   4.708   2.554   1.164  0.5439  0.4534 -0.1998
  438MOL0     C60329   4.860   2.556   1.178  0.0637  0.6049 -0.1907
  438MOL0     O60330   4.881   2.654   1.278 -0.0752 -0.4258  0.0518
  438MOL0     C60331   5.005   2.683   1.334 -0.1164  0.3027  0.0019
  438MOL0     C60332   5.017   2.723   1.464  0.0841 -0.9019  0.6188
  438MOL0     C60333   5.146   2.765   1.513  0.2047 -0.2170 -0.3497
  438MOL0     C60334   5.143   2.793   1.661 -0.3855 -0.1548 -0.5069
  438MOL0     C60335   5.262   2.762   1.428 -0.9200  0.1626 -0.3585
  438MOL0     C60336   5.398   2.801   1.470  0.6952  0.2706 -0.2954
  438MOL0     O60337   5.502   2.740   1.405  0.4008  0.0189  0.4702
  438MOL0     C60338   5.631   2.729   1.456 -0.4172 -0.5748 -0.5316
  438MOL0     C60339   5.676   2.736   1.589 -0.7086 -0.3500 -0.0970
  438MOL0     C60340   5.812   2.714   1.628  0.0892  0.1800  0.8542
  438MOL0     C60341   5.911   2.685   1.532  0.4083 -0.4494  0.2947
  438MOL0     O60342   6.039   2.683   1.563 -0.4197 -0.9262  0.0311
  438MOL0     C60343   6.104   2.564   1.538  0.0942 -0.1254  0.6723
  438MOL0     C60344   6.086   2.484   1.668 -0.0334  0.1123  0.5563
  438MOL0     C60345   6.178   2.549   1.774  0.6049  0.5281 -0.6672
  438MOL0     C60346   6.194   2.439   1.888  0.1054  0.2440 -0.1253
  438MOL0     C60347   6.069   2.410   1.969  1.0035  1.0065 -0.0631
  438MOL0     C60348   6.088   2.281   2.048  0.2348  0.6878  0.2668
  438MOL0     C60349   6.097   2.151   1.965 -0.1909  0.5718  0.0531
  438MOL0     C60350   6.093   2.030   2.056 -0.0946 -0.1240 -0.0831
  438MOL0    Cl60351   6.116   1.891   1.954  0.2094 -0.3623  0.2351
  438MOL0     C60352   5.864   2.672   1.398  0.0913  0.5391  0.4515
  438MOL0     C60353   5.729   2.694   1.368 -0.0552  0.6863 -0.5179
  438MOL0     O60354   5.407   2.863   1.575 -0.4034  1.0095 -0.0308
  438MOL0     C60355   5.245   2.719   1.298 -1.6970 -0.2652  0.5499
  438MOL0     C60356   5.121   2.679   1.256  0.5337  0.0947  0.6687
  438MOL0     N60357   4.432   2.950   1.070  0.1040  0.0341 -0.5649
  438MOL0     N60358   4.376   3.035   0.983  0.0107  0.0282 -0.0616
  438MOL0     C60359   3.256   3.001   1.094 -0.2448 -0.1385 -0.0223
  438MOL0     C60360   3.118   2.986   1.084 -0.7600 -0.4225 -0.5240
  438MOL0     C60361   2.688   2.959   0.977 -0.2077  0.1761  0.5791
  438MOL0     C60362   2.586   2.886   0.912  0.3713  0.3433 -0.0631
  438MOL0     C60363   2.469   2.854   0.973 -0.8844 -0.1674 -0.7495
  438MOL0     C60364   2.430   2.916   1.093  0.0222 -0.1683 -0.5581
  438MOL0     O60365   2.315   2.889   1.169  0.8073  0.3251  0.2925
  438MOL0     C60366   2.224   2.792   1.111 -0.1543  0.1675  0.2923
  438MOL0     C60367   2.125   2.851   1.017 -0.2322 -0.4235 -0.1076
  438MOL0     C60368   2.041   2.956   1.083  1.3525  0.2363  0.4928
  438MOL0     C60369   1.952   3.011   0.970 -0.0610 -0.4131 -0.4028
  438MOL0     C60370   1.875   3.136   1.009 -0.1523  0.2485  0.1226
  438MOL0     C60371   1.801   3.232   1.045 -0.0464 -0.2870 -0.4489
  438MOL0     C60372   2.528   2.990   1.159 -0.5619 -0.3600 -0.0359
  438MOL0     C60373   2.659   3.019   1.105 -0.4638  0.0629  0.0535
  438MOL0     C60374   2.752   3.110   1.190  0.0963  0.7835  0.4226
  438MOL0     H60375   3.083   2.972   0.747  0.0682  0.3992 -0.3371
  438MOL0     H60376   3.327   3.012   0.767 -0.3642  1.1841 -0.0523
  438MOL0     H60377   3.468   3.236   1.038  0.5204  1.1670 -0.4787
  438MOL0     H60378   3.466   3.219   0.865 -3.0749  1.2181  1.3057
  438MOL0     H60379   3.681   3.295   0.986 -2.7830  0.7375 -1.4324
  438MOL0     H60380   3.696   3.123   1.043 -0.7980  0.4564  0.9139
  438MOL0     H60381   3.706   3.059   0.789 -0.4919  0.0596 -1.1387
  438MOL0     H60382   3.695   3.226   0.755 -0.9681 -1.1829 -0.0244
  438MOL0     H60383   3.909   3.273   0.872  2.5282 -0.7371  1.2831
  438MOL0     H60384   3.895   3.112   0.950  0.0825  1.4642  1.7833
  438MOL0     H60385   3.956   3.119   0.652 -0.0415 -2.6166 -0.9738
  438MOL0     H60386   3.929   2.987   0.758 -1.6222 -0.3701 -2.9170
  438MOL0     H60387   4.136   3.223   0.801 -2.5102  0.7088  2.8419
  438MOL0     H60388   4.121   3.077   0.899 -1.6277 -2.5967 -0.8963
  438MOL0     H60389   4.195   3.072   0.598  4.9914  0.5331  0.0565
  438MOL0     H60390   4.167   2.928   0.702 -3.4202 -0.1282 -1.9585
  438MOL0     H60391   4.406   3.005   0.658 -1.1172 -1.2937  0.6260
  438MOL0     H60392   4.371   3.151   0.753  2.1021 -0.2498  1.0751
  438MOL0     H60393   4.462   2.771   0.795 -0.5089  0.0307 -1.2244
  438MOL0     H60394   4.483   2.614   0.989 -2.1480  1.6728 -1.4415
  438MOL0     H60395   4.470   2.676   1.158 -2.0919  2.7875 -0.8004
  438MOL0     H60396   4.719   2.693   1.000  0.3919 -0.3649 -1.2101
  438MOL0     H60397   4.685   2.766   1.161  0.1947 -0.3957  0.6093
  438MOL0     H60398   4.655   2.539   1.259  1.7714 -0.6279  0.3405
  438MOL0     H60399   4.684   2.462   1.110  1.5391 -0.3464  0.6981
  438MOL0     H60400   4.899   2.463   1.221  1.5303  1.3684  0.1977
  438MOL0     H60401   4.909   2.573   1.082  0.8252  2.2420  0.4378
  438MOL0     H60402   4.922   2.726   1.516 -0.7499 -1.2476 -0.8080
  438MOL0     H60403   5.038   2.797   1.694 -1.3722 -1.8556 -3.1094
  438MOL0     H60404   5.177   2.894   1.685 -2.9740  0.8700 -0.7332
  438MOL0     H60405   5.206   2.714   1.703  2.3157  1.8830 -0.4700
  438MOL0     H60406   5.601   2.760   1.663  1.2273 -0.9022  2.1397
  438MOL0     H60407   5.847   2.709   1.730  0.8732 -0.2996  0.5662
  438MOL0     H60408   6.068   2.507   1.452 -1.6827  0.7745  0.7810
  438MOL0     H60409   6.209   2.592   1.525  0.1721 -1.1425 -1.1297
  438MOL0     H60410   5.985   2.468   1.707 -0.2030  0.4296  0.2490
  438MOL0     H60411   6.125   2.383   1.652 -0.4507  0.1007 -0.4553
  438MOL0     H60412   6.135   2.643   1.810 -0.9919 -0.4866  0.1883
  438MOL0     H60413   6.274   2.576   1.729  1.0844 -0.9110 -0.5615
  438MOL0     H60414   6.273   2.454   1.961 -0.8043  1.0420  0.7277
  438MOL0     H60415   6.224   2.351   1.830  1.3866  0.2691  0.4829
  438MOL0     H60416   6.039   2.497   2.029  1.6407  1.6976 -0.7306
  438MOL0     H60417   5.991   2.398   1.893  1.2414  0.9108 -0.2925
  438MOL0     H60418   6.015   2.275   2.129 -0.4751  0.3152 -0.3838
  438MOL0     H60419   6.186   2.292   2.094  0.2994  0.4087  0.1944
  438MOL0     H60420   6.197   2.152   1.922 -0.0735 -2.3811  0.0704
  438MOL0     H60421   6.015   2.141   1.893 -0.2299 -0.2421  0.1977
  438MOL0     H60422   5.997   2.022   2.107 -0.2825 -3.2665 -0.7685
  438MOL0     H60423   6.171   2.032   2.133 -0.6937  5.0917  0.7674
  438MOL0     H60424   5.939   2.646   1.323 -1.0293  2.3740 -1.3950
  438MOL0     H60425   5.704   2.681   1.263  1.6747 -3.8103 -0.6049
  438MOL0     H60426   5.320   2.701   1.221 -2.5569 -2.6440  0.1803
  438MOL0     H60427   5.119   2.632   1.158  4.1305  0.8430  0.0905
  438MOL0     H60428   3.316   3.006   1.185  2.1443  3.0848 -1.5610
  438MOL0     H60429   3.069   2.959   1.177  2.4579 -2.1480  0.8196
  438MOL0     H60430   2.607   2.851   0.811 -0.5022 -1.3409  0.2889
  438MOL0     H60431   2.406   2.792   0.909 -1.6100  1.2687 -1.4568
  438MOL0     H60432   2.276   2.716   1.050  0.8462  0.9943  0.0838
  438MOL0     H60433   2.171   2.739   1.191 -1.5851 -0.0707 -0.7735
  438MOL0     H60434   2.057   2.771   0.988 -0.4454 -0.3867  0.2730
  438MOL0     H60435   2.176   2.898   0.933  0.9711  0.1441  0.9071
  438MOL0     H60436   1.970   2.916   1.157  0.4651  2.6521  1.0484
  438MOL0     H60437   2.095   3.034   1.137  0.3937 -0.1587  2.1113
  438MOL0     H60438   1.890   2.925   0.944 -0.6809  0.5778 -2.4605
  438MOL0     H60439   2.001   3.047   0.879 -2.2085 -1.1118 -1.9321
  438MOL0     H60440   1.736   3.311   1.078  0.3910  0.1059 -0.5036
  438MOL0     H60441   2.499   3.041   1.250 -0.6522  1.7104 -1.1735
  438MOL0     H60442   2.699   3.148   1.277 -0.7782  0.9069 -0.1488
  438MOL0     H60443   2.845   3.063   1.223 -0.2432 -1.2598 -1.2583
  438MOL0     H60444   2.790   3.198   1.137 -2.6911  3.2450  2.2399
  439MOL0     O60445   8.932   9.018  10.540  0.2510  0.2123  1.0074
  439MOL0     C60446   8.872   8.931  10.597  0.2534 -0.6609  0.0526
  439MOL0     O60447   8.911   8.807  10.620 -0.4835  0.2738  0.4343
  439MOL0     C60448   9.041   8.767  10.590  0.6619  0.1593  0.2454
  439MOL0     C60449   9.148   8.848  10.620  0.6830  0.1957 -0.0263
  439MOL0     C60450   9.275   8.810  10.583 -1.1356  0.0582 -0.0478
  439MOL0     C60451   9.294   8.691  10.511 -0.2734  0.4381  0.0212
  439MOL0     O60452   9.420   8.676  10.455 -0.0636  0.1469 -0.6474
  439MOL0     C60453   9.475   8.542  10.430  1.0981 -0.6409 -0.0345
  439MOL0     C60454   9.586   8.553  10.336 -0.3068 -1.0181  0.1627
  439MOL0     C60455   9.644   8.421  10.292  0.2027  0.2149  0.1405
  439MOL0     C60456   9.788   8.441  10.244  0.5208 -0.0542  0.0664
  439MOL0     C60457   9.843   8.314  10.176 -0.3247 -0.2451 -0.3384
  439MOL0     C60458   9.898   8.221  10.281  1.0442  0.5502  0.9322
  439MOL0     C60459  10.024   8.263  10.342  0.5555  0.7539 -0.4660
  439MOL0     C60460  10.118   8.307  10.233 -0.2074 -0.1742  0.6364
  439MOL0     N60461  10.252   8.314  10.284 -0.3295  0.3501 -0.4876
  439MOL0     C60462  10.319   8.432  10.312  0.0770 -0.7408 -0.5806
  439MOL0     C60463  10.449   8.404  10.330  0.4065 -0.1048  0.5304
  439MOL0     C60464  10.554   8.505  10.339 -0.3218 -0.0317 -0.2209
  439MOL0     C60465  10.680   8.462  10.428  0.2268 -0.0473 -0.0835
  439MOL0     C60466  10.668   8.474  10.583  0.1555  0.4017 -0.3362
  439MOL0     C60467  10.796   8.424  10.649 -0.0946 -0.4153 -0.6346
  439MOL0     O60468  10.894   8.512  10.604 -0.0502  0.2888  0.0128
  439MOL0     C60469  11.021   8.518  10.657 -0.3263  0.2260  0.1910
  439MOL0     C60470  11.056   8.453  10.773  0.4606  0.0910 -0.1762
  439MOL0     C60471  11.181   8.459  10.834 -0.0175  0.1954  0.2464
  439MOL0     C60472  11.214   8.378  10.961 -0.0708  0.0544  0.2850
  439MOL0     C60473  11.277   8.537  10.764  0.1280 -0.2745 -0.4464
  439MOL0     C60474  11.409   8.567  10.816  0.5558 -0.3489 -0.6840
  439MOL0     O60475  11.497   8.470  10.801  0.6876  0.6083 -0.1167
  439MOL0     C60476  11.609   8.475  10.873 -0.6329 -0.4014  0.3443
  439MOL0     C60477  11.603   8.486  11.012 -0.2776  0.6854 -0.3117
  439MOL0     C60478  11.721   8.491  11.081  0.4307  0.2393 -0.6706
  439MOL0     C60479  11.851   8.489  11.020  0.2693 -0.7047  0.1818
  439MOL0     O60480  11.966   8.491  11.095 -0.4072  0.0875  0.1164
  439MOL0     C60481  11.964   8.532  11.234  0.3824  0.1330 -0.3458
  439MOL0     C60482  12.109   8.553  11.278 -0.7570  0.4224 -0.2144
  439MOL0     C60483  12.170   8.426  11.328  0.5046  0.1003  0.7393
  439MOL0     C60484  12.319   8.449  11.356  0.7669 -0.2874 -0.4792
  439MOL0     C60485  12.392   8.309  11.371  0.0784  0.7304 -0.5269
  439MOL0     C60486  12.543   8.322  11.400 -0.0477  0.0639 -0.3744
  439MOL0     C60487  12.617   8.188  11.395 -0.9384 -0.4987  0.3839
  439MOL0     C60488  12.769   8.212  11.409  0.7247  0.3920  1.0864
  439MOL0    Cl60489  12.823   8.283  11.563  0.2506 -0.1017 -0.5146
  439MOL0     C60490  11.848   8.482  10.880  0.4861  0.3136 -0.0586
  439MOL0     C60491  11.731   8.463  10.807  0.0991 -0.0250 -0.4797
  439MOL0     O60492  11.444   8.685  10.828  0.1737  0.3963  0.2002
  439MOL0     C60493  11.240   8.602  10.642 -0.2501  0.9592  0.0356
  439MOL0     C60494  11.107   8.607  10.595  0.1437 -0.4977  0.0706
  439MOL0     N60495  10.456   8.263  10.316  0.6997  0.2861 -0.8297
  439MOL0     N60496  10.339   8.217  10.303  0.2226  0.3710 -0.6980
  439MOL0     C60497   9.191   8.599  10.484 -0.9382 -0.1065  0.5941
  439MOL0     C60498   9.063   8.646  10.522 -0.9010  0.4176 -1.4565
  439MOL0     C60499   8.747   8.981  10.665  0.2705 -0.3317 -0.4545
  439MOL0     C60500   8.693   9.108  10.616  0.0429 -0.0883 -0.5415
  439MOL0     C60501   8.589   9.169  10.680  0.1998  0.4204 -0.1364
  439MOL0     C60502   8.523   9.100  10.784  0.1039  0.0085 -0.2309
  439MOL0     O60503   8.416   9.151  10.853  0.0229  0.3197 -0.1284
  439MOL0     C60504   8.350   9.260  10.796 -0.6825 -0.2425 -0.1476
  439MOL0     C60505   8.241   9.290  10.895 -0.5094  0.2863 -0.6696
  439MOL0     C60506   8.147   9.407  10.854 -0.4204 -0.3821  0.0165
  439MOL0     C60507   8.087   9.410  10.709 -0.5283  0.2873  0.2736
  439MOL0     C60508   8.002   9.291  10.682  1.1482  1.0252 -0.5237
  439MOL0     C60509   7.946   9.188  10.653  1.0430  0.2724  0.0274
  439MOL0     C60510   8.571   8.978  10.833 -0.8794  0.1519 -0.0435
  439MOL0     C60511   8.690   8.921  10.780 -0.1947  0.1305 -0.4022
  439MOL0     C60512   8.745   8.801  10.845  0.0433 -0.9893 -0.4292
  439MOL0     H60513   9.125   8.943  10.667 -3.9311 -1.1430  0.8520
  439MOL0     H60514   9.362   8.866  10.618 -1.4004  0.1909  0.4024
  439MOL0     H60515   9.396   8.484  10.381  0.0124  0.2915  0.5458
  439MOL0     H60516   9.502   8.492  10.523 -2.8091 -2.2167  0.4734
  439MOL0     H60517   9.562   8.611  10.246  0.5417 -2.2681 -0.9049
  439MOL0     H60518   9.659   8.610  10.394 -1.5440  1.9224 -0.9938
  439MOL0     H60519   9.640   8.346  10.372  0.4357 -1.5279 -1.3955
  439MOL0     H60520   9.579   8.383  10.212  0.3153  0.2612  0.0262
  439MOL0     H60521   9.786   8.517  10.166  0.3835  0.8823  0.9648
  439MOL0     H60522   9.842   8.483  10.329 -3.2149  1.1241  2.0652
  439MOL0     H60523   9.908   8.347  10.094 -0.7465  0.9546 -0.2101
  439MOL0     H60524   9.764   8.260  10.124 -0.3568  0.6941 -1.2995
  439MOL0     H60525   9.822   8.197  10.356 -0.8164  2.8844 -0.0830
  439MOL0     H60526   9.922   8.126  10.233 -0.7426 -0.5976  2.2032
  439MOL0     H60527  10.062   8.171  10.387 -0.2314  0.9425  0.6107
  439MOL0     H60528  10.009   8.348  10.409 -2.3198  1.3629 -1.7091
  439MOL0     H60529  10.111   8.240  10.146 -1.2521 -0.3132  0.8143
  439MOL0     H60530  10.099   8.411  10.205 -2.1270  0.2846  3.2445
  439MOL0     H60531  10.281   8.534  10.308 -1.4930 -1.3364 -1.3360
  439MOL0     H60532  10.515   8.597  10.385 -1.9651 -0.2047 -1.1646
  439MOL0     H60533  10.582   8.528  10.236  1.3551 -1.0992 -0.0355
  439MOL0     H60534  10.709   8.357  10.416  1.4346 -0.1166  2.5568
  439MOL0     H60535  10.758   8.531  10.395 -2.3754  3.7295  0.9749
  439MOL0     H60536  10.656   8.578  10.612  0.8334  0.2175  0.6489
  439MOL0     H60537  10.585   8.414  10.620  2.0987 -1.3665  1.4967
  439MOL0     H60538  10.792   8.417  10.758  0.3951 -5.0729 -0.6986
  439MOL0     H60539  10.822   8.322  10.622 -0.3636 -0.1624 -1.8996
  439MOL0     H60540  10.991   8.382  10.824  1.1825  1.3058  2.6214
  439MOL0     H60541  11.245   8.278  10.927 -0.6553  0.2259 -0.7870
  439MOL0     H60542  11.120   8.371  11.017  0.4568 -0.5623  1.1301
  439MOL0     H60543  11.288   8.434  11.019 -2.3653  0.5542  2.9588
  439MOL0     H60544  11.500   8.488  11.046 -1.0125  0.1437 -2.3707
  439MOL0     H60545  11.707   8.496  11.189 -1.7320  2.7819 -0.9492
  439MOL0     H60546  11.919   8.631  11.248 -1.5694 -0.1822 -3.4030
  439MOL0     H60547  11.908   8.464  11.298  1.0753  1.8687  2.2440
  439MOL0     H60548  12.163   8.597  11.194 -0.7341 -2.1445 -1.6432
  439MOL0     H60549  12.111   8.624  11.362 -0.3646 -0.3987  0.4907
  439MOL0     H60550  12.141   8.350  11.255 -2.1030  2.5116 -0.9235
  439MOL0     H60551  12.123   8.398  11.423  0.6981 -0.8489  0.5654
  439MOL0     H60552  12.325   8.510  11.447 -2.1647  0.8690 -0.9445
  439MOL0     H60553  12.365   8.508  11.276 -0.0461 -0.0640 -0.7850
  439MOL0     H60554  12.345   8.258  11.456  2.6208 -0.7506  0.1230
  439MOL0     H60555  12.387   8.251  11.278 -0.9595  1.5269 -0.9829
  439MOL0     H60556  12.535   8.361  11.502 -3.1491 -4.7168  1.5213
  439MOL0     H60557  12.575   8.391  11.321 -2.5235 -1.3619 -2.7753
  439MOL0     H60558  12.603   8.160  11.290  0.0009  0.3510  0.0164
  439MOL0     H60559  12.581   8.112  11.465  1.7778 -1.3716  0.9433
  439MOL0     H60560  12.807   8.268  11.323  0.9166 -2.5268 -0.9081
  439MOL0     H60561  12.806   8.109  11.398 -0.9918 -0.2896  1.3725
  439MOL0     H60562  11.945   8.484  10.831  0.8841  3.0493  0.6756
  439MOL0     H60563  11.725   8.447  10.700 -0.2413 -1.3557 -0.2843
  439MOL0     H60564  11.313   8.664  10.590  0.9029 -1.5590 -1.5365
  439MOL0     H60565  11.079   8.677  10.516 -0.7401  0.5791  1.2907
  439MOL0     H60566   9.208   8.509  10.426 -1.2957  1.1116 -1.5270
  439MOL0     H60567   8.980   8.587  10.486 -1.9796  1.1340 -0.2739
  439MOL0     H60568   8.748   9.158  10.537  2.3009  0.6211  1.3517
  439MOL0     H60569   8.546   9.260  10.639 -0.5691  1.8418  3.4238
  439MOL0     H60570   8.403   9.355  10.785 -1.5380  0.0728 -2.0525
  439MOL0     H60571   8.318   9.228  10.696 -0.2028 -2.1160  0.2547
  439MOL0     H60572   8.290   9.311  10.990  0.5831 -0.6896 -0.9931
  439MOL0     H60573   8.182   9.199  10.913 -2.0482  1.4380  0.4528
  439MOL0     H60574   8.065   9.429  10.923  0.8259  2.5603  0.7368
  439MOL0     H60575   8.206   9.499  10.849 -1.3625  0.2848  0.8310
  439MOL0     H60576   8.176   9.410  10.646  0.0635 -0.4870  1.0974
  439MOL0     H60577   8.034   9.506  10.699 -0.9537 -0.1562 -2.7498
  439MOL0     H60578   7.911   9.087  10.645  3.2800 -0.4210 -1.9406
  439MOL0     H60579   8.525   8.936  10.921  0.3538 -2.6325 -0.6337
  439MOL0     H60580   8.851   8.820  10.864  0.1926  0.7198 -2.5619
  439MOL0     H60581   8.686   8.771  10.932 -2.3170  0.0440 -1.5669
  439MOL0     H60582   8.745   8.718  10.774  2.6399 -0.2816 -1.3709
  440MOL0     O60583   2.896  10.274   3.996  0.9827 -0.0292  0.0158
  440MOL0     C60584   2.936  10.356   3.916  0.1129 -0.0940 -0.5279
  440MOL0     O60585   3.039  10.330   3.831  0.4139  0.1163  0.2770
  440MOL0     C60586   3.063  10.197   3.792  0.6019 -0.3556  0.6405
  440MOL0     C60587   2.979  10.085   3.803  0.1840 -0.8123  0.1392
  440MOL0     C60588   3.018   9.953   3.777  0.2945 -0.3259  0.0726
  440MOL0     C60589   3.146   9.919   3.731 -1.1235  0.4471  0.5320
  440MOL0     O60590   3.195   9.789   3.698  0.1492 -0.7564  0.1942
  440MOL0     C60591   3.099   9.687   3.674 -0.3685 -0.2811 -0.2341
  440MOL0     C60592   3.157   9.570   3.597 -0.2786 -0.6564 -1.0112
  440MOL0     C60593   3.203   9.618   3.454 -0.3751  0.2075 -0.3655
  440MOL0     C60594   3.266   9.510   3.376 -0.2302  0.2353 -0.3049
  440MOL0     C60595   3.289   9.547   3.232 -0.1664  0.3372  0.4679
  440MOL0     C60596   3.364   9.439   3.156 -0.1577 -0.7826  0.3158
  440MOL0     C60597   3.513   9.440   3.181  0.7365  0.7192  0.7676
  440MOL0     C60598   3.566   9.297   3.149 -0.1963  0.0267 -0.4724
  440MOL0     N60599   3.713   9.289   3.179  0.4176  0.9078  0.4894
  440MOL0     C60600   3.818   9.371   3.124 -0.5110 -0.4937 -0.0714
  440MOL0     C60601   3.925   9.331   3.196 -0.9332 -1.0309 -0.1448
  440MOL0     C60602   4.071   9.347   3.145 -0.0393 -0.3936 -0.3106
  440MOL0     C60603   4.118   9.482   3.121  0.4607  0.0381  0.2828
  440MOL0     C60604   4.111   9.573   3.244  0.4970  1.0778  0.3627
  440MOL0     C60605   3.979   9.629   3.297 -0.7228  0.7999  0.0751
  440MOL0     O60606   4.008   9.737   3.383 -0.1976  0.3095 -0.1375
  440MOL0     C60607   3.911   9.801   3.453 -0.0170  0.3916  1.0127
  440MOL0     C60608   3.776   9.780   3.444 -0.6177  0.9604 -0.1811
  440MOL0     C60609   3.679   9.853   3.513 -0.6517  0.5539 -0.2718
  440MOL0     C60610   3.538   9.813   3.500  0.6033 -0.2484 -0.1350
  440MOL0     C60611   3.724   9.952   3.605  0.2249  0.0822 -0.4488
  440MOL0     C60612   3.640  10.054   3.677  0.4504 -0.0491 -0.3144
  440MOL0     O60613   3.677  10.111   3.800 -0.2240  0.2946  0.6307
  440MOL0     C60614   3.592  10.204   3.850  0.0598  0.7260 -1.0638
  440MOL0     C60615   3.487  10.170   3.936 -0.1952 -0.0458  0.5377
  440MOL0     C60616   3.421  10.263   4.013  0.2631  0.2961 -0.1308
  440MOL0     C60617   3.449  10.401   3.998 -0.0646 -0.5880 -0.3877
  440MOL0     O60618   3.363  10.487   4.069  0.1013  0.2951  0.0530
  440MOL0     C60619   3.404  10.621   4.078 -0.5192 -0.1847  0.5804
  440MOL0     C60620   3.350  10.681   4.211  0.4210 -0.4063 -0.3486
  440MOL0     C60621   3.195  10.718   4.197 -0.2855  0.0180 -0.3472
  440MOL0     C60622   3.145  10.801   4.313  0.5054  0.0398  0.3441
  440MOL0     C60623   3.000  10.853   4.281 -0.6267  0.4569  0.3893
  440MOL0     C60624   2.915  10.903   4.398 -0.8833 -0.9816  0.1858
  440MOL0     C60625   2.979  11.023   4.469 -0.6174 -0.0764  0.2936
  440MOL0     C60626   2.888  11.070   4.580 -0.4799 -0.6450  0.3755
  440MOL0    Cl60627   2.731  11.131   4.507 -0.5548  0.0385 -0.1053
  440MOL0     C60628   3.558  10.436   3.908  0.3857  0.5588 -0.8727
  440MOL0     C60629   3.620  10.337   3.833  0.1634 -0.2333 -0.3411
  440MOL0     O60630   3.547  10.094   3.615  0.4735  0.4208 -0.1523
  440MOL0     C60631   3.866   9.970   3.617  1.1399 -0.3200 -0.4282
  440MOL0     C60632   3.957   9.892   3.545 -0.2233 -0.0864  0.3365
  440MOL0     N60633   3.884   9.237   3.286  0.0460 -0.1590  0.0544
  440MOL0     N60634   3.757   9.215   3.285  0.3947 -1.0239 -0.2690
  440MOL0     C60635   3.235  10.031   3.720 -0.0181 -0.8636  0.7372
  440MOL0     C60636   3.193  10.167   3.747 -0.5219 -0.4409  0.7385
  440MOL0     C60637   2.881  10.493   3.930  0.5230 -0.0836 -0.0921
  440MOL0     C60638   2.753  10.505   3.976  0.8919  0.0649  0.2613
  440MOL0     C60639   2.692  10.637   3.999 -0.8655 -0.1153  0.4448
  440MOL0     C60640   2.768  10.752   3.988 -0.6118  0.0553  0.3217
  440MOL0     O60641   2.705  10.878   3.991 -1.0044 -0.6900  0.6496
  440MOL0     C60642   2.563  10.896   3.975  0.2602  0.2951 -0.1717
  440MOL0     C60643   2.496  10.924   4.112 -0.4999 -0.3246 -0.5808
  440MOL0     C60644   2.551  11.041   4.191  0.2220  0.5746  0.5672
  440MOL0     C60645   2.552  11.178   4.124 -0.4035  0.2276  0.9039
  440MOL0     C60646   2.427  11.204   4.046 -0.4147  0.4462 -0.6134
  440MOL0     C60647   2.324  11.226   3.986 -0.4645  0.0257  0.2743
  440MOL0     C60648   2.895  10.739   3.931  1.1473  0.4272  0.4261
  440MOL0     C60649   2.953  10.615   3.907  0.0859 -0.2133 -0.5976
  440MOL0     C60650   3.091  10.617   3.868  0.9103 -0.0839  0.1333
  440MOL0     H60651   2.874  10.083   3.829 -0.2514  0.6736 -1.3465
  440MOL0     H60652   2.937   9.881   3.784  0.0939  0.0614  2.5330
  440MOL0     H60653   3.000   9.714   3.638 -0.9661 -1.4866  0.4383
  440MOL0     H60654   3.085   9.649   3.776  0.9677  0.4014  0.2301
  440MOL0     H60655   3.243   9.539   3.657  1.2946  2.0473 -1.7048
  440MOL0     H60656   3.082   9.492   3.581 -1.6874  0.6328 -0.9415
  440MOL0     H60657   3.117   9.658   3.401 -0.0173  0.4909 -0.7413
  440MOL0     H60658   3.279   9.695   3.475 -0.5030  0.2109  0.1037
  440MOL0     H60659   3.366   9.495   3.418 -1.0274 -1.4056  1.1840
  440MOL0     H60660   3.213   9.414   3.377 -1.5881  0.9628 -0.1352
  440MOL0     H60661   3.354   9.635   3.232  1.3324 -0.7268 -1.1068
  440MOL0     H60662   3.187   9.559   3.193  0.7216  1.8567 -1.5241
  440MOL0     H60663   3.312   9.348   3.186  0.0784 -0.7816  0.7225
  440MOL0     H60664   3.347   9.452   3.048 -0.1079 -0.6825  0.3197
  440MOL0     H60665   3.528   9.469   3.286 -1.0363 -2.2446  1.9689
  440MOL0     H60666   3.556   9.514   3.114  0.0072  0.7552  0.3260
  440MOL0     H60667   3.519   9.218   3.209  1.9479  0.7090  2.3465
  440MOL0     H60668   3.550   9.267   3.046  0.3460 -2.9654  0.2085
  440MOL0     H60669   3.807   9.438   3.039 -3.4410 -0.2068  0.4107
  440MOL0     H60670   4.081   9.276   3.062 -0.3894 -0.8304  0.0150
  440MOL0     H60671   4.123   9.311   3.234 -1.4077  0.3500  0.8378
  440MOL0     H60672   4.222   9.485   3.087  0.5621  3.2216  0.5282
  440MOL0     H60673   4.066   9.520   3.033  2.4208 -0.8795 -1.3647
  440MOL0     H60674   4.161   9.517   3.323 -1.0909 -1.0495 -0.0365
  440MOL0     H60675   4.164   9.660   3.205  2.1712  0.0057  0.1709
  440MOL0     H60676   3.913   9.659   3.216  0.2853  0.1585 -1.0157
  440MOL0     H60677   3.927   9.546   3.348 -1.9423 -1.0135 -3.7543
  440MOL0     H60678   3.750   9.699   3.376 -0.2407  2.8907 -2.7999
  440MOL0     H60679   3.506   9.865   3.409 -0.2697 -1.0731 -0.3166
  440MOL0     H60680   3.477   9.849   3.583 -0.7758 -1.4718 -0.5765
  440MOL0     H60681   3.529   9.705   3.480 -0.6706  0.2232 -2.4626
  440MOL0     H60682   3.461  10.065   3.946 -1.4380 -0.1186 -2.4789
  440MOL0     H60683   3.341  10.228   4.078 -0.2117 -1.1286 -1.4115
  440MOL0     H60684   3.513  10.632   4.070 -0.6934  2.0316  0.4609
  440MOL0     H60685   3.355  10.672   3.994 -0.0977 -2.3958 -1.0908
  440MOL0     H60686   3.359  10.601   4.285 -0.5291 -2.7748 -2.6777
  440MOL0     H60687   3.405  10.774   4.232 -2.8165  1.1109  2.5923
  440MOL0     H60688   3.140  10.624   4.182  0.1442 -0.0775 -1.4540
  440MOL0     H60689   3.184  10.782   4.110  2.0026  1.6009  0.4312
  440MOL0     H60690   3.211  10.886   4.333  2.1023 -0.4708 -2.3465
  440MOL0     H60691   3.131  10.738   4.401 -0.1676  2.3504  2.0215
  440MOL0     H60692   3.005  10.926   4.200  0.5762 -1.6362 -1.5514
  440MOL0     H60693   2.944  10.767   4.242  2.3356 -1.1144 -0.7974
  440MOL0     H60694   2.904  10.826   4.475 -0.3300 -2.3394 -1.0566
  440MOL0     H60695   2.817  10.930   4.358 -0.5498  2.3097  1.3356
  440MOL0     H60696   2.992  11.107   4.400 -0.2248  0.5103  1.0716
  440MOL0     H60697   3.080  10.997   4.501  0.4292 -1.3691 -3.4993
  440MOL0     H60698   2.945  11.143   4.637 -0.7903 -1.1217  1.3084
  440MOL0     H60699   2.866  10.993   4.655 -1.1085  0.7829  1.7207
  440MOL0     H60700   3.576  10.541   3.893  1.3759  0.5429  0.1220
  440MOL0     H60701   3.686  10.379   3.758 -1.0551  1.4830 -0.5109
  440MOL0     H60702   3.896  10.046   3.688 -0.9298 -0.5987  0.8363
  440MOL0     H60703   4.061   9.921   3.558  0.0280 -1.1674  0.9122
  440MOL0     H60704   3.338   9.999   3.706  1.1802  2.7941  0.1545
  440MOL0     H60705   3.267  10.244   3.734  1.9774 -2.6508  1.1254
  440MOL0     H60706   2.698  10.412   3.968  0.0540  0.5308  0.3825
  440MOL0     H60707   2.593  10.648   4.040  0.0796  0.6775  2.6503
  440MOL0     H60708   2.548  10.977   3.904  2.5898  1.1971  0.2637
  440MOL0     H60709   2.508  10.808   3.940  0.6528 -0.1246  0.2422
  440MOL0     H60710   2.503  10.834   4.175 -0.2855 -0.2148 -0.4460
  440MOL0     H60711   2.389  10.942   4.102 -0.3446  0.6900 -0.5286
  440MOL0     H60712   2.485  11.057   4.277 -3.1677 -1.6991 -1.3883
  440MOL0     H60713   2.651  11.010   4.222 -0.2117 -2.4671 -0.7032
  440MOL0     H60714   2.637  11.180   4.055  1.0711  0.8493  2.6480
  440MOL0     H60715   2.563  11.260   4.196  0.6213 -0.0235  1.0548
  440MOL0     H60716   2.223  11.239   3.950 -1.7342 -1.0289  3.1586
  440MOL0     H60717   2.956  10.824   3.904  2.3565 -0.8633 -1.0171
  440MOL0     H60718   3.156  10.571   3.944 -0.2178  0.0242  1.1842
  440MOL0     H60719   3.090  10.564   3.772 -1.6728 -1.8340  1.0251
  440MOL0     H60720   3.124  10.719   3.845  2.1618 -0.9433 -2.3585
  441MOL0     O60721   3.380   1.167   4.459  0.1099 -0.3986  0.4889
  441MOL0     C60722   3.327   1.203   4.566 -0.6955 -0.2876 -1.2722
  441MOL0     O60723   3.396   1.274   4.664  0.8322 -0.1103  0.5354
  441MOL0     C60724   3.531   1.265   4.660  0.9857  0.5186  0.4206
  441MOL0     C60725   3.587   1.149   4.708 -0.2619  0.3922  0.1298
  441MOL0     C60726   3.718   1.116   4.715  0.0829 -0.1145 -0.7266
  441MOL0     C60727   3.802   1.218   4.676  0.1265  1.1796 -0.5087
  441MOL0     O60728   3.938   1.204   4.677  0.5462 -0.3349  0.7833
  441MOL0     C60729   3.977   1.152   4.807  0.1447 -0.8947 -0.6210
  441MOL0     C60730   4.125   1.136   4.805  1.2333 -0.0519  0.2374
  441MOL0     C60731   4.180   1.121   4.942 -0.0618 -0.0122 -0.1031
  441MOL0     C60732   4.310   1.045   4.928 -0.2470 -0.5573 -0.3968
  441MOL0     C60733   4.353   1.017   5.070 -0.1817 -0.1403 -0.4223
  441MOL0     C60734   4.492   0.944   5.077 -0.8594 -0.0825  0.6907
  441MOL0     C60735   4.486   0.811   5.020 -0.8180  0.6907 -0.1763
  441MOL0     C60736   4.531   0.806   4.878 -0.2986 -0.4521 -0.2522
  441MOL0     N60737   4.678   0.826   4.861 -0.4131 -0.6425 -1.0262
  441MOL0     C60738   4.774   0.747   4.922 -0.6493 -0.5214 -0.5228
  441MOL0     C60739   4.890   0.815   4.888 -0.9084  0.3732  0.1602
  441MOL0     C60740   5.023   0.753   4.921 -0.3421 -0.0744 -0.8702
  441MOL0     C60741   5.137   0.856   4.913 -0.7368  0.2683 -1.2198
  441MOL0     C60742   5.128   0.968   5.029  0.3984 -0.9402  0.1758
  441MOL0     C60743   5.272   1.020   5.058 -0.0830 -0.2143  0.7512
  441MOL0     O60744   5.370   0.925   5.096 -0.4294  0.3947 -0.2399
  441MOL0     C60745   5.499   0.969   5.096  0.6398 -0.2691 -0.6036
  441MOL0     C60746   5.536   1.103   5.106 -0.0951 -0.3767  0.2588
  441MOL0     C60747   5.665   1.137   5.118 -0.2895  0.1260 -1.3987
  441MOL0     C60748   5.690   1.286   5.108  0.2409  0.1479 -0.1238
  441MOL0     C60749   5.769   1.046   5.138  0.1106  0.4791  0.4549
  441MOL0     C60750   5.914   1.073   5.152  0.9365 -0.2058  0.9739
  441MOL0     O60751   5.966   1.201   5.161 -0.3978  0.0820 -0.8852
  441MOL0     C60752   6.097   1.220   5.142 -0.5097  0.1216  1.3823
  441MOL0     C60753   6.202   1.166   5.215  1.3900  0.5253  0.1434
  441MOL0     C60754   6.339   1.173   5.185  0.2979 -0.7654 -0.0434
  441MOL0     C60755   6.373   1.241   5.067  0.5525 -0.2695  0.2334
  441MOL0     O60756   6.506   1.255   5.038 -0.1383 -0.4338  0.1652
  441MOL0     C60757   6.544   1.384   4.993  0.0400 -0.3215 -0.7169
  441MOL0     C60758   6.692   1.378   4.957 -0.4577  0.7727 -0.2472
  441MOL0     C60759   6.757   1.507   4.899  0.2615  0.0483 -0.8821
  441MOL0     C60760   6.683   1.545   4.766 -0.1054 -0.2645 -1.3469
  441MOL0     C60761   6.762   1.636   4.678 -0.3872 -0.5336  0.4566
  441MOL0     C60762   6.877   1.558   4.621  0.1801  0.5842 -0.6429
  441MOL0     C60763   6.911   1.621   4.487  0.1653 -0.6337  0.2657
  441MOL0     C60764   7.046   1.580   4.440 -0.9894  0.1389  0.8091
  441MOL0    Cl60765   7.056   1.614   4.261  0.0983  0.2292 -0.2256
  441MOL0     C60766   6.269   1.288   4.990 -0.9629  0.0933  0.0489
  441MOL0     C60767   6.140   1.296   5.026  0.3095 -0.5098  0.0140
  441MOL0     O60768   5.986   0.974   5.144  0.6975  0.6241  0.4756
  441MOL0     C60769   5.725   0.909   5.136 -0.0871  0.3555 -0.2666
  441MOL0     C60770   5.595   0.873   5.120  0.6177 -0.5807 -0.5625
  441MOL0     N60771   4.871   0.927   4.814  0.2476 -0.6690  0.5139
  441MOL0     N60772   4.742   0.934   4.801  0.2891  0.1790 -0.4986
  441MOL0     C60773   3.751   1.347   4.637  0.2723 -0.0439 -0.0810
  441MOL0     C60774   3.617   1.370   4.632 -0.8881 -0.3368  0.7813
  441MOL0     C60775   3.184   1.188   4.563  0.2735 -0.2330  0.3510
  441MOL0     C60776   3.114   1.236   4.450 -0.3958 -0.5247  0.3079
  441MOL0     C60777   2.976   1.243   4.448  1.2419  0.7110  0.2436
  441MOL0     C60778   2.898   1.220   4.560 -0.6326  0.1413  1.1295
  441MOL0     O60779   2.768   1.245   4.544 -0.5663 -0.4153 -0.2961
  441MOL0     C60780   2.689   1.250   4.659  0.2679  0.8752 -0.2908
  441MOL0     C60781   2.619   1.123   4.678 -0.0250 -0.5195  0.1969
  441MOL0     C60782   2.558   1.104   4.825  0.7047  0.1808  0.4847
  441MOL0     C60783   2.408   1.118   4.831  0.2802 -0.4582  0.3815
  441MOL0     C60784   2.358   1.252   4.849 -0.8469 -0.1387 -0.7293
  441MOL0     C60785   2.312   1.364   4.865  0.1369  0.5175 -0.5689
  441MOL0     C60786   2.964   1.164   4.673  0.3610  0.4703 -0.1646
  441MOL0     C60787   3.101   1.148   4.673 -0.4049  0.6727 -0.2145
  441MOL0     C60788   3.157   1.112   4.809 -0.2050  0.9604 -0.2406
  441MOL0     H60789   3.518   1.071   4.738  0.1160  1.3896  4.1124
  441MOL0     H60790   3.755   1.021   4.752 -0.7895 -2.0963 -4.4423
  441MOL0     H60791   3.939   1.052   4.827 -1.5311 -0.2531 -0.5112
  441MOL0     H60792   3.943   1.227   4.878 -0.5535 -2.0041  0.2531
  441MOL0     H60793   4.144   1.051   4.739  4.6867  0.6304  0.1718
  441MOL0     H60794   4.175   1.214   4.747 -0.0925 -0.9810 -2.2792
  441MOL0     H60795   4.206   1.220   4.982 -0.6400  0.8272 -1.7122
  441MOL0     H60796   4.108   1.064   5.001 -0.2020 -0.8429 -1.0399
  441MOL0     H60797   4.293   0.954   4.870 -1.2281 -0.8260  0.2623
  441MOL0     H60798   4.382   1.108   4.876 -0.3804  0.7028  0.8723
  441MOL0     H60799   4.280   0.965   5.134 -0.4890  2.3664  1.4058
  441MOL0     H60800   4.368   1.114   5.118  1.3598 -1.4014  1.8382
  441MOL0     H60801   4.569   1.001   5.023 -0.4484  1.0274  2.3509
  441MOL0     H60802   4.522   0.944   5.182 -0.5234 -1.5493  0.6226
  441MOL0     H60803   4.385   0.773   5.035 -0.2860 -0.3695  0.9057
  441MOL0     H60804   4.553   0.747   5.079 -1.2261  0.5212  0.1125
  441MOL0     H60805   4.504   0.712   4.830 -3.1197  0.8890 -1.5061
  441MOL0     H60806   4.480   0.880   4.816 -0.1453 -0.4362 -0.3597
  441MOL0     H60807   4.759   0.653   4.974  1.7908 -0.0757  1.1594
  441MOL0     H60808   5.046   0.673   4.849  0.9407 -0.7802  0.2753
  441MOL0     H60809   5.024   0.708   5.021 -3.3270 -1.0197 -1.1599
  441MOL0     H60810   5.224   0.791   4.928 -1.2383 -0.1490  0.0295
  441MOL0     H60811   5.148   0.892   4.811  2.2991 -1.3643 -1.6026
  441MOL0     H60812   5.068   1.052   4.993  0.2887 -0.6438  1.0255
  441MOL0     H60813   5.074   0.943   5.121 -1.2299  1.2900 -0.0823
  441MOL0     H60814   5.300   1.074   4.967 -0.4971  1.2241  1.4457
  441MOL0     H60815   5.273   1.099   5.133  1.0072  2.5657 -1.9753
  441MOL0     H60816   5.462   1.182   5.103  1.0769  0.8479  1.9693
  441MOL0     H60817   5.776   1.311   5.045 -2.1317 -2.8936 -5.1967
  441MOL0     H60818   5.705   1.335   5.204 -1.0717 -0.5457  0.4721
  441MOL0     H60819   5.603   1.334   5.062 -0.0475 -1.7029 -1.6442
  441MOL0     H60820   6.171   1.104   5.298 -0.5993 -0.8537 -1.5064
  441MOL0     H60821   6.408   1.127   5.254 -0.0735  1.9289  2.3052
  441MOL0     H60822   6.486   1.403   4.902 -2.2373 -2.1320  0.2501
  441MOL0     H60823   6.525   1.457   5.072 -0.7183 -1.0217 -0.2234
  441MOL0     H60824   6.746   1.346   5.046  1.7896  1.1861 -1.3860
  441MOL0     H60825   6.712   1.292   4.893 -0.4099 -0.2632  1.1288
  441MOL0     H60826   6.864   1.489   4.886  0.9912 -2.0763  5.0361
  441MOL0     H60827   6.741   1.590   4.968  1.4519  0.6458 -1.3033
  441MOL0     H60828   6.597   1.607   4.792  1.2632  0.1187  3.1020
  441MOL0     H60829   6.648   1.456   4.713 -1.4994  0.0896 -1.0663
  441MOL0     H60830   6.691   1.682   4.609 -1.1952  0.7188  2.0540
  441MOL0     H60831   6.802   1.715   4.743 -0.7419 -0.7592  0.9557
  441MOL0     H60832   6.844   1.455   4.602 -0.4747  0.5505  0.5635
  441MOL0     H60833   6.962   1.563   4.690  1.1952  0.0639 -1.8095
  441MOL0     H60834   6.905   1.729   4.500  2.5642 -0.2045 -1.5905
  441MOL0     H60835   6.838   1.604   4.408  0.1198 -0.2252  0.2201
  441MOL0     H60836   7.060   1.473   4.457 -1.6286  0.1133  1.2351
  441MOL0     H60837   7.123   1.633   4.495 -0.2721  0.0123 -0.0458
  441MOL0     H60838   6.300   1.329   4.895  0.0041  2.4029  1.2715
  441MOL0     H60839   6.068   1.328   4.952 -0.3782  0.7578  1.1978
  441MOL0     H60840   5.797   0.828   5.126  0.7062  1.1404 -1.1942
  441MOL0     H60841   5.563   0.770   5.110 -2.4883  0.1265  0.9208
  441MOL0     H60842   3.823   1.424   4.611  1.3331 -1.5375 -1.8200
  441MOL0     H60843   3.584   1.466   4.593  1.5431 -1.5219 -5.2370
  441MOL0     H60844   3.177   1.252   4.363 -0.5048 -1.5825  0.0119
  441MOL0     H60845   2.926   1.289   4.363 -1.0563 -1.5140  0.2532
  441MOL0     H60846   2.744   1.283   4.748  1.1929 -1.1111 -0.0796
  441MOL0     H60847   2.606   1.319   4.642 -1.0258 -0.0640  1.7360
  441MOL0     H60848   2.690   1.040   4.670 -1.6934 -2.0674  0.8559
  441MOL0     H60849   2.543   1.112   4.600 -2.6190  2.4244  2.0701
  441MOL0     H60850   2.577   1.000   4.851 -0.2179  0.4101  2.2134
  441MOL0     H60851   2.602   1.172   4.899 -1.4027  0.2827  1.7220
  441MOL0     H60852   2.384   1.059   4.919  1.0934 -3.0060 -0.9935
  441MOL0     H60853   2.361   1.066   4.747 -0.7909 -0.6421  1.0796
  441MOL0     H60854   2.281   1.465   4.885  1.8427  0.7511  1.1318
  441MOL0     H60855   2.906   1.135   4.760  1.6823  0.0072  0.5911
  441MOL0     H60856   3.107   1.024   4.852 -2.0267  1.2722 -1.5799
  441MOL0     H60857   3.261   1.080   4.796 -0.9159 -1.9856  0.5974
  441MOL0     H60858   3.135   1.192   4.881  1.5880  0.8405  0.4884
  442MOL0     O60859   9.060   7.829   3.877 -0.0055  0.0674  0.2273
  442MOL0     C60860   8.956   7.783   3.827 -0.6097  0.5823  0.4132
  442MOL0     O60861   8.924   7.647   3.819 -0.7098  0.1091  0.1176
  442MOL0     C60862   9.023   7.561   3.874 -0.3946 -0.3402 -0.1992
  442MOL0     C60863   8.995   7.488   3.990 -0.4923 -0.3254  0.4685
  442MOL0     C60864   9.101   7.424   4.048  0.1651  0.6806 -0.1114
  442MOL0     C60865   9.230   7.420   3.985  0.4413  0.0293 -0.7449
  442MOL0     O60866   9.337   7.350   4.030  0.2247 -0.5347  0.1444
  442MOL0     C60867   9.328   7.285   4.153 -0.4397 -0.0666 -0.8479
  442MOL0     C60868   9.474   7.260   4.198  0.1673 -0.0350  0.5429
  442MOL0     C60869   9.551   7.173   4.095 -0.0060  0.2671  0.0613
  442MOL0     C60870   9.691   7.134   4.165 -0.2352 -0.5526  0.1036
  442MOL0     C60871   9.804   7.113   4.060  0.1297  0.2885  0.4097
  442MOL0     C60872   9.807   6.966   4.024 -0.9366  0.2683 -0.6569
  442MOL0     C60873   9.923   6.939   3.925  0.0613  0.2165  0.0806
  442MOL0     C60874   9.922   6.787   3.899 -0.5159 -0.8169 -0.2057
  442MOL0     N60875  10.013   6.740   3.803  0.7447  0.3425  0.4137
  442MOL0     C60876  10.087   6.823   3.715 -0.3812 -0.1844  0.0295
  442MOL0     C60877  10.169   6.728   3.654  0.9045 -0.2332 -0.6118
  442MOL0     C60878  10.257   6.772   3.540 -0.1912  0.1163 -0.7267
  442MOL0     C60879  10.379   6.871   3.574  0.4774 -0.4461  0.3149
  442MOL0     C60880  10.397   6.970   3.461 -0.4885  0.0769  0.0028
  442MOL0     C60881  10.521   7.066   3.481  0.8167  0.6700 -0.5769
  442MOL0     O60882  10.524   7.167   3.380  0.0606  0.4819  0.1626
  442MOL0     C60883  10.634   7.248   3.369  0.7723 -0.2176  0.0491
  442MOL0     C60884  10.725   7.227   3.269  0.2206  0.5643 -0.0606
  442MOL0     C60885  10.834   7.311   3.244  0.1710  0.9893 -0.8958
  442MOL0     C60886  10.922   7.284   3.121 -0.2686  0.0424  1.0489
  442MOL0     C60887  10.860   7.421   3.336  0.2160 -0.1494 -0.5055
  442MOL0     C60888  10.979   7.517   3.333 -0.7407  0.1406  0.4303
  442MOL0     O60889  10.965   7.644   3.388  0.1886  0.1475 -0.1986
  442MOL0     C60890  11.083   7.711   3.404 -0.2736 -0.2611  0.1356
  442MOL0     C60891  11.151   7.693   3.528 -0.3112 -0.3096  0.0171
  442MOL0     C60892  11.269   7.766   3.551  0.2186  0.6493 -0.8001
  442MOL0     C60893  11.334   7.836   3.455  0.5064  0.5951  0.8106
  442MOL0     O60894  11.450   7.899   3.486  0.5224 -0.2079 -1.2119
  442MOL0     C60895  11.506   8.004   3.406 -0.1005  0.0036  0.6950
  442MOL0     C60896  11.587   7.948   3.296 -0.4035 -0.4077  0.0350
  442MOL0     C60897  11.716   7.879   3.354  0.6582 -0.1067 -0.0136
  442MOL0     C60898  11.823   7.962   3.410  0.3898  0.2577 -0.6169
  442MOL0     C60899  11.925   7.876   3.466  0.1586 -0.8299 -0.4376
  442MOL0     C60900  12.035   7.968   3.508 -0.1012  0.2994 -1.0713
  442MOL0     C60901  12.143   7.880   3.575 -0.0007 -0.6849  0.7864
  442MOL0     C60902  12.280   7.945   3.593 -0.3417 -1.0467  0.5961
  442MOL0    Cl60903  12.302   8.057   3.725 -0.2694  0.4896  0.3369
  442MOL0     C60904  11.268   7.848   3.336  0.3545  0.6890  1.4441
  442MOL0     C60905  11.144   7.793   3.307 -0.3563  0.5775  0.5325
  442MOL0     O60906  11.082   7.453   3.318  0.2048 -0.5662  0.4020
  442MOL0     C60907  10.766   7.445   3.434  0.0796 -0.5636  0.5639
  442MOL0     C60908  10.655   7.357   3.450 -0.4000  0.2477  0.3035
  442MOL0     N60909  10.130   6.602   3.690 -0.3402  0.0283 -0.3992
  442MOL0     N60910  10.038   6.603   3.781  0.4677 -0.1702  0.3027
  442MOL0     C60911   9.255   7.489   3.867  0.0295  0.2202 -0.0501
  442MOL0     C60912   9.147   7.553   3.806  0.0005 -0.0279 -0.9559
  442MOL0     C60913   8.852   7.881   3.776 -1.1771  0.0415 -0.0325
  442MOL0     C60914   8.732   7.833   3.716 -0.0603 -0.1760  0.6906
  442MOL0     C60915   8.635   7.920   3.660  0.1189  0.4871 -0.9665
  442MOL0     C60916   8.635   8.053   3.685  0.1811 -0.6818  0.1627
  442MOL0     O60917   8.517   8.119   3.652 -0.3441  0.0020 -0.2452
  442MOL0     C60918   8.493   8.255   3.700  0.4005  0.1692  0.1959
  442MOL0     C60919   8.464   8.256   3.850 -0.5359  0.3694  0.8356
  442MOL0     C60920   8.436   8.408   3.898 -0.3785 -0.1309  1.0657
  442MOL0     C60921   8.473   8.426   4.042  0.8472  0.1256  0.3766
  442MOL0     C60922   8.617   8.426   4.056  0.1028 -0.7782 -0.2855
  442MOL0     C60923   8.732   8.438   4.032  0.9465 -0.0424 -0.2494
  442MOL0     C60924   8.749   8.108   3.739  0.2049  0.5945  0.1798
  442MOL0     C60925   8.859   8.031   3.786 -0.1267 -0.3072  0.3507
  442MOL0     C60926   8.969   8.102   3.856 -0.4277 -0.2104 -0.1653
  442MOL0     H60927   8.898   7.490   4.039 -0.4534  0.0669  0.5323
  442MOL0     H60928   9.076   7.369   4.138  2.3320  1.3042  0.9388
  442MOL0     H60929   9.261   7.199   4.148 -1.1058  0.4647 -1.2633
  442MOL0     H60930   9.283   7.359   4.220 -0.7613 -0.3992 -0.6978
  442MOL0     H60931   9.521   7.357   4.219 -0.0400 -0.0726  1.1968
  442MOL0     H60932   9.478   7.211   4.295  0.6827 -1.8504 -0.3583
  442MOL0     H60933   9.498   7.083   4.065 -1.0656  0.0424  2.4313
  442MOL0     H60934   9.565   7.233   4.004 -0.1537  1.4762  0.8118
  442MOL0     H60935   9.721   7.226   4.217  1.6266 -0.1167 -1.6075
  442MOL0     H60936   9.675   7.045   4.226 -1.3779 -0.8948 -0.6600
  442MOL0     H60937   9.897   7.137   4.113 -0.2420 -0.3336  1.3804
  442MOL0     H60938   9.780   7.175   3.974  2.2637  2.8807  1.5312
  442MOL0     H60939   9.826   6.913   4.118  2.5620  2.2231 -0.0898
  442MOL0     H60940   9.713   6.935   3.977 -0.7339 -0.7610 -0.4142
  442MOL0     H60941  10.015   6.971   3.974 -0.0008  1.5828 -0.6696
  442MOL0     H60942   9.905   7.000   3.836  1.0086 -0.2245 -0.4305
  442MOL0     H60943   9.946   6.739   3.994 -4.0470 -3.1135 -0.2922
  442MOL0     H60944   9.824   6.750   3.866  0.2969 -2.2065 -1.1071
  442MOL0     H60945  10.071   6.930   3.712  0.9657  0.0780  1.3073
  442MOL0     H60946  10.197   6.810   3.457 -0.2952 -1.1784 -1.2627
  442MOL0     H60947  10.304   6.681   3.502 -1.4712 -0.8747 -0.0297
  442MOL0     H60948  10.368   6.917   3.673  1.6666 -3.4910  2.0200
  442MOL0     H60949  10.470   6.811   3.585 -0.3228 -1.2845  3.8979
  442MOL0     H60950  10.415   6.910   3.372  1.6147 -1.9385  1.6591
  442MOL0     H60951  10.311   7.032   3.435 -0.2335  0.7591  0.7487
  442MOL0     H60952  10.513   7.096   3.586 -0.6572 -1.2061 -0.0965
  442MOL0     H60953  10.610   7.004   3.464 -0.5835 -0.9136 -2.7099
  442MOL0     H60954  10.692   7.145   3.206 -0.2853 -1.4067  2.6061
  442MOL0     H60955  10.990   7.200   3.136 -0.0144 -0.4640 -2.3047
  442MOL0     H60956  10.973   7.375   3.087 -1.4852 -0.3725 -2.2543
  442MOL0     H60957  10.848   7.255   3.047  0.2008  0.8867  0.2290
  442MOL0     H60958  11.121   7.620   3.602 -1.4588  2.2042  2.2206
  442MOL0     H60959  11.322   7.744   3.643  1.8557 -0.4749 -1.9639
  442MOL0     H60960  11.421   8.054   3.360 -0.1899 -0.5131  0.2830
  442MOL0     H60961  11.568   8.071   3.466 -0.8527  1.7969 -0.4616
  442MOL0     H60962  11.531   7.869   3.246 -1.1315  0.6515 -0.8646
  442MOL0     H60963  11.618   8.017   3.217 -3.5349 -0.0477 -0.9797
  442MOL0     H60964  11.747   7.815   3.271 -1.3841 -0.8145 -0.2879
  442MOL0     H60965  11.691   7.811   3.435  1.1130  0.1451  0.3432
  442MOL0     H60966  11.780   8.025   3.487  2.7492  0.3753  0.6983
  442MOL0     H60967  11.857   8.024   3.326 -1.5096  0.1793 -1.4820
  442MOL0     H60968  11.882   7.822   3.551 -1.8869  0.2760 -0.7115
  442MOL0     H60969  11.961   7.804   3.392  2.8843  0.4274 -0.4743
  442MOL0     H60970  11.998   8.036   3.585 -0.2629 -0.4366 -0.4812
  442MOL0     H60971  12.076   8.017   3.420 -0.7599 -0.8350 -2.0439
  442MOL0     H60972  12.151   7.800   3.501 -4.2720 -1.3609  0.8041
  442MOL0     H60973  12.101   7.848   3.671 -1.1057 -0.4514  0.4054
  442MOL0     H60974  12.305   7.997   3.500 -1.5500 -0.3777  0.6206
  442MOL0     H60975  12.353   7.864   3.602 -0.9064 -1.4941  1.2669
  442MOL0     H60976  11.307   7.899   3.249 -1.8105 -2.6467 -1.8021
  442MOL0     H60977  11.097   7.805   3.210 -0.2241  0.2751  0.4284
  442MOL0     H60978  10.777   7.531   3.499 -2.8781 -1.6590  2.7407
  442MOL0     H60979  10.580   7.384   3.524 -0.9760 -0.5678  0.0260
  442MOL0     H60980   9.349   7.483   3.813  0.7608 -1.4379  1.3289
  442MOL0     H60981   9.146   7.600   3.708 -2.1291  0.1471 -0.9003
  442MOL0     H60982   8.716   7.727   3.702 -0.5117 -0.1999  1.3460
  442MOL0     H60983   8.555   7.863   3.614 -0.1144  0.1529 -0.1681
  442MOL0     H60984   8.573   8.322   3.669 -0.2818  0.5023 -0.9011
  442MOL0     H60985   8.404   8.293   3.649  1.3033  2.5565  0.2730
  442MOL0     H60986   8.546   8.210   3.906  0.9862  1.1906 -0.6121
  442MOL0     H60987   8.375   8.198   3.876  0.4139 -0.2186  3.0401
  442MOL0     H60988   8.483   8.471   3.822 -1.9720  0.2821  0.3780
  442MOL0     H60989   8.328   8.424   3.888 -0.1656  0.0497 -1.7328
  442MOL0     H60990   8.431   8.350   4.108  0.1667  0.5863  0.4886
  442MOL0     H60991   8.437   8.525   4.073 -0.1313  0.2481 -1.0261
  442MOL0     H60992   8.830   8.449   3.990  0.1906 -1.1813 -2.5268
  442MOL0     H60993   8.753   8.216   3.746 -0.2049  0.6652 -0.5464
  442MOL0     H60994   8.943   8.203   3.886  1.9651  0.2003  0.7829
  442MOL0     H60995   8.996   8.059   3.953 -0.5433 -1.0332 -0.4848
  442MOL0     H60996   9.050   8.107   3.782 -0.2324 -1.3503 -0.0554
  443MOL0     O60997   6.253   9.689  10.269  0.4646 -0.5632 -0.0765
  443MOL0     C60998   6.189   9.614  10.331  0.8805 -0.2969 -0.0327
  443MOL0     O60999   6.239   9.546  10.440 -0.0029 -0.4171  0.3086
  443MOL0     C61000   6.370   9.584  10.487  0.5148 -0.1309 -0.2052
  443MOL0     C61001   6.439   9.479  10.551  0.1621 -0.2563 -0.2579
  443MOL0     C61002   6.566   9.499  10.599 -0.4330 -0.2100 -0.3896
  443MOL0     C61003   6.635   9.623  10.579  0.5896  0.5974  0.6293
  443MOL0     O61004   6.767   9.647  10.612  0.1801  0.3177  0.0895
  443MOL0     C61005   6.804   9.617  10.744 -0.1402 -0.0402  0.0201
  443MOL0     C61006   6.958   9.618  10.748 -0.1384  0.7601  0.0819
  443MOL0     C61007   7.013   9.511  10.654 -0.1538  0.7205  0.2554
  443MOL0     C61008   7.164   9.509  10.655 -0.0505 -0.0619 -1.5418
  443MOL0     C61009   7.206   9.368  10.609 -0.5168 -0.2039 -0.0164
  443MOL0     C61010   7.188   9.332  10.462 -0.1913  0.5713 -0.0632
  443MOL0     C61011   7.291   9.400  10.361  0.2378 -0.4305 -1.0704
  443MOL0     C61012   7.413   9.314  10.368  0.0447 -0.1903 -0.4929
  443MOL0     N61013   7.532   9.359  10.300  0.3274  0.1755 -0.1553
  443MOL0     C61014   7.531   9.397  10.166 -0.1532 -0.4525  0.1907
  443MOL0     C61015   7.661   9.430  10.140 -0.7178 -0.2211 -0.1202
  443MOL0     C61016   7.712   9.473  10.011 -0.1648 -0.6270  0.6683
  443MOL0     C61017   7.870   9.499  10.008  0.1874  0.3448  0.6843
  443MOL0     C61018   7.948   9.367   9.982  0.5085  0.2102 -0.3866
  443MOL0     C61019   8.091   9.402   9.949 -0.2349 -0.2525  0.0252
  443MOL0     O61020   8.159   9.282   9.910 -0.2585 -0.1305 -0.2843
  443MOL0     C61021   8.293   9.287   9.907  0.1255 -0.6096 -0.1838
  443MOL0     C61022   8.367   9.407   9.904 -1.0662  0.3219  0.3032
  443MOL0     C61023   8.507   9.407   9.888  0.2123  0.1083  0.1677
  443MOL0     C61024   8.577   9.544   9.892 -0.4676 -0.0710  0.7607
  443MOL0     C61025   8.569   9.280   9.867  0.2982 -0.5782 -0.7695
  443MOL0     C61026   8.714   9.272   9.845  0.3521 -0.0211  0.4071
  443MOL0     O61027   8.792   9.215   9.944 -0.5738  0.3070  0.0855
  443MOL0     C61028   8.932   9.206   9.917  0.8155  0.0347  0.0190
  443MOL0     C61029   9.015   9.311   9.950 -0.0664 -0.1141  0.0421
  443MOL0     C61030   9.152   9.296   9.949  0.2393  0.2868  0.1902
  443MOL0     C61031   9.211   9.183   9.897 -0.3361  0.7634 -0.7054
  443MOL0     O61032   9.344   9.158   9.883 -0.0003 -0.5254 -0.3341
  443MOL0     C61033   9.431   9.263   9.917 -0.3904  0.1606 -0.1827
  443MOL0     C61034   9.575   9.210   9.894 -0.8763  0.2876  0.1329
  443MOL0     C61035   9.680   9.278   9.979 -0.2727  0.5801 -0.5148
  443MOL0     C61036   9.821   9.251   9.925 -0.3445  0.0432  0.6181
  443MOL0     C61037   9.919   9.315  10.019  0.0354 -1.2678 -0.3862
  443MOL0     C61038  10.057   9.311   9.963  0.4756 -0.6966 -0.7724
  443MOL0     C61039  10.173   9.384  10.043 -0.5226  0.6328  0.0738
  443MOL0     C61040  10.255   9.284  10.130 -0.2047  0.9809 -1.3000
  443MOL0    Cl61041  10.376   9.192  10.036 -0.0145  0.2211 -0.2031
  443MOL0     C61042   9.125   9.077   9.865 -0.6817  0.1301  0.3983
  443MOL0     C61043   8.986   9.086   9.874 -0.6517  0.2614  0.2063
  443MOL0     O61044   8.762   9.314   9.739  0.0347 -0.2569  0.2695
  443MOL0     C61045   8.501   9.160   9.860 -0.3257 -0.6192 -0.3061
  443MOL0     C61046   8.358   9.165   9.889  0.4499  0.3184  0.2876
  443MOL0     N61047   7.739   9.398  10.253  0.1287 -0.0070 -0.8334
  443MOL0     N61048   7.657   9.365  10.345 -0.4091 -0.7827 -0.7215
  443MOL0     C61049   6.565   9.727  10.517 -1.0577 -0.0043 -0.2618
  443MOL0     C61050   6.430   9.708  10.476  0.5008 -0.9104 -0.7069
  443MOL0     C61051   6.042   9.602  10.304 -0.3473 -0.3147  0.4392
  443MOL0     C61052   5.960   9.555  10.405 -0.5543 -0.3624  0.2584
  443MOL0     C61053   5.823   9.521  10.391  0.6924 -0.3697 -0.3509
  443MOL0     C61054   5.753   9.539  10.272 -0.2289 -0.0208  0.5769
  443MOL0     O61055   5.623   9.496  10.262 -0.1393  0.1938 -0.3203
  443MOL0     C61056   5.561   9.492  10.138 -0.0210 -0.1965  0.0345
  443MOL0     C61057   5.449   9.389  10.131  1.6911  0.5194 -0.9159
  443MOL0     C61058   5.350   9.423  10.240 -0.4330 -0.0108 -0.8006
  443MOL0     C61059   5.212   9.377  10.205  0.3937  0.2249 -0.1273
  443MOL0     C61060   5.132   9.451  10.101 -0.3357 -0.2689  0.1916
  443MOL0     C61061   5.069   9.521  10.026 -0.1418 -0.5799 -0.3995
  443MOL0     C61062   5.837   9.592  10.166  0.7581  0.3021  0.3203
  443MOL0     C61063   5.975   9.630  10.184 -0.4909 -0.5424  1.1253
  443MOL0     C61064   6.044   9.682  10.060 -0.5382  0.2484  0.1607
  443MOL0     H61065   6.378   9.389  10.556 -0.0545 -0.1370 -0.7006
  443MOL0     H61066   6.616   9.417  10.648 -1.2001 -1.0814 -1.0414
  443MOL0     H61067   6.762   9.529  10.795  1.8246  0.1497  2.1795
  443MOL0     H61068   6.770   9.698  10.808  1.1546  0.3395  0.2574
  443MOL0     H61069   7.002   9.716  10.726  1.7116 -0.1988 -0.6548
  443MOL0     H61070   6.990   9.590  10.848 -1.5547  1.1388  0.6690
  443MOL0     H61071   6.978   9.414  10.689 -0.6379  1.0521  0.6848
  443MOL0     H61072   6.991   9.519  10.547  2.1711  1.6389 -0.2280
  443MOL0     H61073   7.201   9.598  10.603 -1.5088  0.8679 -1.0530
  443MOL0     H61074   7.195   9.514  10.761  0.0542 -1.7314 -1.4767
  443MOL0     H61075   7.153   9.298  10.674 -1.1305  0.5472  0.3144
  443MOL0     H61076   7.308   9.351  10.644 -1.7566  0.4354  4.7154
  443MOL0     H61077   7.186   9.223  10.456 -0.6547  0.6094 -0.7046
  443MOL0     H61078   7.085   9.359  10.434  0.7438  3.0506 -1.4199
  443MOL0     H61079   7.312   9.503  10.391  1.7991 -0.8740 -0.5243
  443MOL0     H61080   7.247   9.410  10.261 -3.8164  0.0899  0.5841
  443MOL0     H61081   7.435   9.312  10.475 -1.9640 -4.3423  0.0524
  443MOL0     H61082   7.373   9.217  10.339 -1.3278  0.3203 -0.3572
  443MOL0     H61083   7.448   9.402  10.098 -0.7525  3.4110  0.9888
  443MOL0     H61084   7.669   9.572   9.993  0.6895  0.1630  2.6914
  443MOL0     H61085   7.683   9.411   9.925 -1.7938 -1.7275  1.9703
  443MOL0     H61086   7.898   9.571   9.931  0.3857 -0.7647 -0.3044
  443MOL0     H61087   7.905   9.534  10.106 -0.8681  1.9311  0.5386
  443MOL0     H61088   7.936   9.302  10.068 -1.8733  3.1987  1.7277
  443MOL0     H61089   7.893   9.315   9.902 -3.6168 -1.9938  3.4439
  443MOL0     H61090   8.080   9.463   9.859  2.1608  1.6688  0.9126
  443MOL0     H61091   8.136   9.459  10.031 -0.7227  2.2065 -1.3274
  443MOL0     H61092   8.310   9.499   9.906 -3.0124 -0.8094  1.7509
  443MOL0     H61093   8.595   9.579   9.994  1.6977  2.0534 -0.2473
  443MOL0     H61094   8.517   9.613   9.831  0.1452 -0.3130 -0.1464
  443MOL0     H61095   8.679   9.539   9.852 -0.7739  3.2075 -0.7526
  443MOL0     H61096   8.969   9.407   9.972 -0.7418 -0.5132  0.4132
  443MOL0     H61097   9.202   9.386   9.985 -2.2222  0.8422  2.5509
  443MOL0     H61098   9.402   9.349   9.857 -2.8798  0.2800  1.0615
  443MOL0     H61099   9.429   9.304  10.019 -2.1210  1.9593 -0.8831
  443MOL0     H61100   9.567   9.104   9.919 -3.9113  0.8993  2.2595
  443MOL0     H61101   9.597   9.217   9.787 -0.3259  5.1096  0.3193
  443MOL0     H61102   9.689   9.230  10.076  1.3974  1.4862 -0.1853
  443MOL0     H61103   9.664   9.385   9.995  0.5814  0.6077  0.2754
  443MOL0     H61104   9.822   9.304   9.829 -3.1606  0.8118  0.9177
  443MOL0     H61105   9.851   9.147   9.911 -2.7417 -0.6211 -0.1208
  443MOL0     H61106   9.876   9.412  10.044 -2.9329 -2.5851  0.0779
  443MOL0     H61107   9.920   9.256  10.111 -0.0924 -0.8236 -0.0991
  443MOL0     H61108  10.053   9.368   9.869  4.0086  2.7992  0.8862
  443MOL0     H61109  10.088   9.208   9.947 -0.1548 -1.5259  2.5967
  443MOL0     H61110  10.119   9.436  10.124 -0.7812 -1.9882  1.7208
  443MOL0     H61111  10.236   9.451   9.985  2.7086 -2.0733  0.1839
  443MOL0     H61112  10.198   9.209  10.187 -1.5559  2.0150 -1.2189
  443MOL0     H61113  10.298   9.334  10.218 -2.1162 -0.5600  0.6429
  443MOL0     H61114   9.156   8.976   9.841  0.5019  0.3022  1.1130
  443MOL0     H61115   8.925   9.006   9.833  0.7540 -0.2301 -1.0319
  443MOL0     H61116   8.549   9.067   9.834  4.6091  0.7561  2.5065
  443MOL0     H61117   8.305   9.070   9.894  2.1515 -0.6217  2.0917
  443MOL0     H61118   6.615   9.822  10.500  1.5640 -1.5180 -1.7149
  443MOL0     H61119   6.379   9.793  10.433  1.1759 -0.8139 -1.3433
  443MOL0     H61120   6.003   9.552  10.504 -0.4169 -2.7190  0.1960
  443MOL0     H61121   5.769   9.486  10.479  1.3148 -2.0124 -0.5784
  443MOL0     H61122   5.529   9.596  10.120  3.1983  0.5884 -1.9936
  443MOL0     H61123   5.631   9.477  10.055  0.7048 -1.3088  0.8222
  443MOL0     H61124   5.492   9.289  10.139 -1.3866 -0.8041  1.3195
  443MOL0     H61125   5.396   9.398  10.036  2.1215 -0.0840 -1.2171
  443MOL0     H61126   5.382   9.377  10.334 -0.0075  0.1282 -0.8714
  443MOL0     H61127   5.350   9.531  10.255  1.3448  0.0109 -0.6558
  443MOL0     H61128   5.141   9.382  10.287  0.1566  3.1353 -0.3916
  443MOL0     H61129   5.221   9.273  10.174  0.8806  0.5739 -1.2140
  443MOL0     H61130   5.009   9.572   9.953  1.4216 -1.0781 -2.1361
  443MOL0     H61131   5.783   9.612  10.074  0.7536  2.1102  0.6908
  443MOL0     H61132   6.059   9.790  10.053 -0.2984  0.1507 -1.0890
  443MOL0     H61133   6.135   9.631  10.025  1.3100  2.3235  1.6091
  443MOL0     H61134   5.983   9.656   9.974  0.7537  0.8909 -0.9915
  444MOL0     O61135   4.669   7.666   8.341 -0.3070  1.0383 -0.2373
  444MOL0     C61136   4.655   7.720   8.235 -0.2223 -0.7814 -0.1633
  444MOL0     O61137   4.717   7.842   8.199  0.0020  0.4631  0.2143
  444MOL0     C61138   4.823   7.896   8.283 -0.2748  0.3659  0.6931
  444MOL0     C61139   4.821   8.027   8.326  0.3123 -0.0833  0.1227
  444MOL0     C61140   4.936   8.084   8.385  0.7322 -0.0688  0.8132
  444MOL0     C61141   5.046   8.012   8.413  0.3513 -0.5034 -0.6522
  444MOL0     O61142   5.154   8.079   8.471  1.0085  0.1425  0.0485
  444MOL0     C61143   5.276   8.089   8.390  0.1332  0.0043 -0.2219
  444MOL0     C61144   5.300   8.243   8.385 -0.1458 -0.2308  0.0439
  444MOL0     C61145   5.441   8.277   8.327 -0.2782  0.7464 -0.0430
  444MOL0     C61146   5.459   8.420   8.303 -0.4450  0.1092  0.0620
  444MOL0     C61147   5.588   8.465   8.226 -0.7294  0.6830  0.3387
  444MOL0     C61148   5.728   8.391   8.257 -0.1230  0.2398  1.0579
  444MOL0     C61149   5.776   8.406   8.401  0.3084 -0.7951 -0.4799
  444MOL0     C61150   5.915   8.354   8.436 -0.3110 -0.1736  0.5099
  444MOL0     N61151   6.020   8.424   8.356  0.1773 -0.7026 -0.0165
  444MOL0     C61152   6.143   8.371   8.315  0.3459  0.2281  0.8739
  444MOL0     C61153   6.215   8.474   8.267 -0.2421  0.3012  0.0385
  444MOL0     C61154   6.353   8.454   8.216 -0.5956 -0.5337  0.3663
  444MOL0     C61155   6.449   8.523   8.302  0.0490 -0.7352 -0.3933
  444MOL0     C61156   6.596   8.519   8.250  0.3455  0.4154  0.1543
  444MOL0     C61157   6.616   8.564   8.104  0.3904 -0.4373 -0.2326
  444MOL0     O61158   6.749   8.544   8.077 -0.2004 -0.0589  0.7814
  444MOL0     C61159   6.800   8.532   7.954  0.6215  0.9467 -0.1284
  444MOL0     C61160   6.937   8.533   7.940  0.0219  0.3073  0.1397
  444MOL0     C61161   7.003   8.513   7.815  0.0546  1.1402 -0.5759
  444MOL0     C61162   7.148   8.500   7.827  0.9231  0.2340  0.2387
  444MOL0     C61163   6.925   8.483   7.697  0.3564 -0.4511  0.9806
  444MOL0     C61164   6.976   8.461   7.559 -0.3433  0.4068 -0.1882
  444MOL0     O61165   6.884   8.424   7.464 -0.1092  0.1249 -0.5719
  444MOL0     C61166   6.922   8.411   7.328 -0.2550  0.6350 -0.1060
  444MOL0     C61167   6.903   8.298   7.254  0.6018 -0.2294  0.5599
  444MOL0     C61168   6.942   8.292   7.119  0.3967  0.3357  0.7148
  444MOL0     C61169   6.996   8.392   7.047 -1.4212 -1.3656  0.6439
  444MOL0     O61170   7.015   8.383   6.904  0.1090 -0.6698  0.3309
  444MOL0     C61171   7.103   8.481   6.845  0.2510  0.3352 -1.3924
  444MOL0     C61172   7.153   8.427   6.710  0.1186  0.1800  0.4002
  444MOL0     C61173   7.032   8.398   6.620 -0.5855 -0.3204  0.4038
  444MOL0     C61174   7.087   8.379   6.482 -0.5174 -0.1787  0.5068
  444MOL0     C61175   7.095   8.515   6.398  0.5884 -0.3219  0.3160
  444MOL0     C61176   6.967   8.544   6.316 -0.2805  0.6384 -0.6364
  444MOL0     C61177   6.934   8.469   6.190  0.2837 -1.3967 -0.9136
  444MOL0     C61178   7.016   8.514   6.069 -0.1215 -0.9354 -0.4131
  444MOL0    Cl61179   6.955   8.426   5.928 -0.1508 -0.3417  0.4782
  444MOL0     C61180   7.015   8.518   7.119  0.9332 -0.4163  0.2492
  444MOL0     C61181   6.977   8.520   7.255  0.6096 -0.8775 -0.1482
  444MOL0     O61182   7.101   8.467   7.535 -0.2541  0.3053  0.2040
  444MOL0     C61183   6.788   8.493   7.715 -0.7123  0.4066  0.3644
  444MOL0     C61184   6.728   8.515   7.834  1.1911 -0.1653  0.2720
  444MOL0     N61185   6.141   8.588   8.272  0.2999 -1.0233 -0.7102
  444MOL0     N61186   6.019   8.562   8.322  0.5243 -0.5882 -0.1606
  444MOL0     C61187   5.047   7.876   8.384  0.1467 -0.1053  0.1552
  444MOL0     C61188   4.941   7.818   8.317  0.5870  0.7190 -0.1265
  444MOL0     C61189   4.560   7.660   8.143  0.8769 -0.1062  0.8953
  444MOL0     C61190   4.486   7.739   8.054  0.6851  0.1632 -0.7472
  444MOL0     C61191   4.392   7.683   7.969  0.8321 -0.6157  0.0894
  444MOL0     C61192   4.362   7.549   7.962  0.7497 -0.2974  0.0255
  444MOL0     O61193   4.268   7.492   7.875  0.4301 -0.4637  0.2500
  444MOL0     C61194   4.219   7.581   7.778 -0.1033  1.3297  0.0592
  444MOL0     C61195   4.129   7.506   7.690 -0.4311  0.6096  1.0451
  444MOL0     C61196   4.203   7.386   7.626  0.0526 -0.5834 -0.9335
  444MOL0     C61197   4.119   7.329   7.510 -0.5717 -0.1925 -0.7040
  444MOL0     C61198   3.997   7.265   7.558  0.1135 -0.3511  0.6711
  444MOL0     C61199   3.907   7.191   7.601  0.3930 -0.7098  0.0197
  444MOL0     C61200   4.430   7.469   8.051  0.8672 -0.1513  0.1383
  444MOL0     C61201   4.521   7.518   8.135 -0.8458 -0.6793  0.1072
  444MOL0     C61202   4.585   7.412   8.212 -0.5073  0.0710 -0.0056
  444MOL0     H61203   4.738   8.094   8.308  0.1276 -0.3919 -0.1872
  444MOL0     H61204   4.922   8.191   8.397 -0.8347 -0.3011  1.2929
  444MOL0     H61205   5.257   8.041   8.294 -2.4856  0.1133  0.1485
  444MOL0     H61206   5.356   8.041   8.447 -1.1667  0.2189  1.9139
  444MOL0     H61207   5.221   8.292   8.328 -0.5534  0.8374  1.4753
  444MOL0     H61208   5.288   8.280   8.487 -1.3792  0.9357 -0.5058
  444MOL0     H61209   5.509   8.245   8.408  2.8549 -2.2501 -3.4605
  444MOL0     H61210   5.470   8.211   8.245 -0.4344 -0.9991  1.2403
  444MOL0     H61211   5.372   8.458   8.250 -0.9910 -0.2516  0.6856
  444MOL0     H61212   5.471   8.470   8.399 -0.1402 -0.6172  0.4177
  444MOL0     H61213   5.598   8.573   8.243  1.8274  0.5578 -0.0016
  444MOL0     H61214   5.572   8.448   8.119 -1.6947  0.9529  0.4324
  444MOL0     H61215   5.717   8.288   8.221 -1.2848  0.2147  1.4455
  444MOL0     H61216   5.801   8.435   8.189  1.1212 -2.3521  0.6139
  444MOL0     H61217   5.712   8.348   8.469 -0.5312 -0.0025 -0.5770
  444MOL0     H61218   5.774   8.509   8.436  0.0425 -0.7007 -0.7668
  444MOL0     H61219   5.943   8.360   8.542 -1.0168  2.0965  0.6233
  444MOL0     H61220   5.928   8.249   8.410 -0.7734  0.0610 -0.7271
  444MOL0     H61221   6.169   8.266   8.322  1.2755  0.5019  1.7387
  444MOL0     H61222   6.349   8.500   8.117 -0.6396 -4.8874 -1.8992
  444MOL0     H61223   6.372   8.348   8.197 -4.5730 -1.1211 -1.1501
  444MOL0     H61224   6.426   8.630   8.311  2.2240 -0.3344  1.5191
  444MOL0     H61225   6.452   8.482   8.403 -1.9635 -1.6598 -0.6490
  444MOL0     H61226   6.668   8.577   8.309  1.6797 -2.4305  1.5039
  444MOL0     H61227   6.635   8.417   8.255  0.8571  0.4141 -2.3614
  444MOL0     H61228   6.550   8.510   8.036  2.3253 -0.7622 -1.9372
  444MOL0     H61229   6.591   8.670   8.110 -1.2677 -0.6814 -1.8446
  444MOL0     H61230   6.990   8.573   8.026  0.9250 -0.7007  0.0720
  444MOL0     H61231   7.205   8.577   7.774 -2.0430  1.7693 -0.9531
  444MOL0     H61232   7.172   8.399   7.792  1.9259  1.1706 -1.9777
  444MOL0     H61233   7.181   8.502   7.931 -1.6406 -2.9492  1.2770
  444MOL0     H61234   6.858   8.207   7.293  1.6494 -0.8879  0.2737
  444MOL0     H61235   6.947   8.192   7.077  1.8359  0.5114  0.3844
  444MOL0     H61236   7.043   8.570   6.826  0.7504  0.4523 -2.4939
  444MOL0     H61237   7.191   8.510   6.904  1.3057 -2.7117 -1.3207
  444MOL0     H61238   7.213   8.505   6.663 -0.7682 -0.4667 -1.9381
  444MOL0     H61239   7.213   8.337   6.721  2.2245  1.0141 -2.7855
  444MOL0     H61240   6.947   8.466   6.624 -1.4033 -1.3336  0.7262
  444MOL0     H61241   6.996   8.298   6.645 -0.6787 -0.6244 -0.8755
  444MOL0     H61242   7.020   8.308   6.434 -0.7156  0.0678  0.4144
  444MOL0     H61243   7.192   8.350   6.490  0.5241  3.0687  0.3743
  444MOL0     H61244   7.100   8.599   6.468  0.1577  1.1928 -1.4116
  444MOL0     H61245   7.184   8.502   6.336 -0.5819 -0.6870 -1.3332
  444MOL0     H61246   6.964   8.651   6.295 -0.3899 -0.0806 -5.4851
  444MOL0     H61247   6.888   8.515   6.385  0.2081  1.8113  0.4405
  444MOL0     H61248   6.829   8.486   6.169  0.8577  0.7421 -2.3125
  444MOL0     H61249   6.951   8.363   6.214  1.9594 -1.1607 -0.9452
  444MOL0     H61250   7.125   8.507   6.081 -0.0990  1.0606  1.2346
  444MOL0     H61251   7.001   8.622   6.061  2.5730 -0.4480  0.2657
  444MOL0     H61252   7.060   8.601   7.065  0.2019  1.4516  2.3592
  444MOL0     H61253   6.993   8.615   7.306  2.5352  0.6906 -3.3618
  444MOL0     H61254   6.717   8.475   7.635 -1.2419  2.9707  0.1744
  444MOL0     H61255   6.620   8.516   7.827  0.9047  0.5556  3.2085
  444MOL0     H61256   5.143   7.826   8.398 -0.0155 -0.5656 -0.3330
  444MOL0     H61257   4.933   7.715   8.284  0.6214  0.8051 -0.4090
  444MOL0     H61258   4.504   7.846   8.058  1.0979  0.0578  1.9120
  444MOL0     H61259   4.351   7.764   7.909  0.8570 -0.3780  0.3867
  444MOL0     H61260   4.168   7.666   7.825 -2.5810 -0.6673  1.1709
  444MOL0     H61261   4.294   7.621   7.708 -0.5394 -0.3496 -1.4257
  444MOL0     H61262   4.106   7.578   7.611 -1.3075  1.0164  1.6559
  444MOL0     H61263   4.042   7.474   7.748  1.1622 -1.4073  2.4853
  444MOL0     H61264   4.302   7.417   7.591  0.4471 -1.9747 -1.1185
  444MOL0     H61265   4.215   7.309   7.702 -1.4592  1.8742  1.9848
  444MOL0     H61266   4.178   7.258   7.450 -2.4103 -1.2204 -1.3885
  444MOL0     H61267   4.102   7.413   7.442  2.0678  2.0968  1.1969
  444MOL0     H61268   3.828   7.135   7.646 -0.1180  1.8490  2.6439
  444MOL0     H61269   4.400   7.365   8.053  2.2810 -0.6248  3.4662
  444MOL0     H61270   4.681   7.453   8.243 -0.8077  0.0415  1.0063
  444MOL0     H61271   4.524   7.386   8.299 -1.9900  1.6159 -0.5312
  444MOL0     H61272   4.600   7.320   8.155  1.9168 -0.1900  0.9095
  445MOL0     O61273   6.238   5.963   1.226  0.0596 -0.4549 -0.8333
  445MOL0     C61274   6.270   5.869   1.303  0.2979 -0.0229  0.2660
  445MOL0     O61275   6.345   5.754   1.275  0.1805 -0.2987 -0.5250
  445MOL0     C61276   6.371   5.734   1.141 -0.1082  0.3322  0.0211
  445MOL0     C61277   6.498   5.670   1.115  0.2487 -0.6716  0.6199
  445MOL0     C61278   6.530   5.646   0.975  0.0310 -1.0699 -0.5196
  445MOL0     C61279   6.444   5.669   0.870 -0.0329  0.1446  0.2331
  445MOL0     O61280   6.496   5.644   0.750 -0.1411  0.6368 -0.0627
  445MOL0     C61281   6.482   5.724   0.631  0.2181  0.8959  0.2176
  445MOL0     C61282   6.558   5.659   0.514  0.1787  0.1424 -0.0882
  445MOL0     C61283   6.699   5.625   0.562 -1.4752 -0.7082  0.5256
  445MOL0     C61284   6.770   5.573   0.432 -0.1154 -0.4354  0.4830
  445MOL0     C61285   6.917   5.529   0.461 -0.1902 -0.1794  0.6904
  445MOL0     C61286   6.932   5.405   0.549 -0.9043  0.5895  0.2844
  445MOL0     C61287   6.988   5.442   0.691 -0.3556 -0.4799 -0.1429
  445MOL0     C61288   6.999   5.314   0.779 -0.2610  0.8328  0.3200
  445MOL0     N61289   7.124   5.233   0.753  0.3504  0.7772  0.6221
  445MOL0     C61290   7.248   5.245   0.808 -0.7650  0.1620  1.1723
  445MOL0     C61291   7.329   5.164   0.734 -0.5789  0.1287 -0.6005
  445MOL0     C61292   7.478   5.166   0.764  0.8949 -0.2959  0.7413
  445MOL0     C61293   7.503   5.075   0.882  0.7168  0.7667  0.2321
  445MOL0     C61294   7.624   5.133   0.962 -0.2688 -0.6474  1.0186
  445MOL0     C61295   7.665   5.042   1.071 -0.1102 -0.1263  0.2620
  445MOL0     O61296   7.751   5.111   1.164  1.4672 -0.1509  0.5626
  445MOL0     C61297   7.866   5.041   1.206  0.4284 -0.2706  0.0886
  445MOL0     C61298   7.899   5.028   1.337  1.2981 -0.2652  0.7411
  445MOL0     C61299   8.014   4.975   1.392  0.2875 -0.4897  0.4141
  445MOL0     C61300   8.047   5.001   1.536  0.2500 -0.3326  0.0659
  445MOL0     C61301   8.107   4.913   1.289  0.3983  0.5434 -0.6742
  445MOL0     C61302   8.245   4.859   1.322 -0.5837 -1.1131  1.0448
  445MOL0     O61303   8.323   4.843   1.221 -0.3111 -0.4403  0.4012
  445MOL0     C61304   8.424   4.752   1.227 -0.1146  0.5217 -0.0699
  445MOL0     C61305   8.438   4.657   1.129 -0.2010  0.7210  0.6148
  445MOL0     C61306   8.538   4.559   1.145 -0.2436 -0.4954  0.7938
  445MOL0     C61307   8.637   4.560   1.248  0.0662 -0.0769 -0.2305
  445MOL0     O61308   8.728   4.460   1.265  0.1312 -0.0383 -0.7827
  445MOL0     C61309   8.731   4.360   1.160 -0.2820  0.3027  0.5336
  445MOL0     C61310   8.841   4.254   1.193 -1.0485  0.2716 -0.1796
  445MOL0     C61311   8.977   4.316   1.164 -0.4155  0.5890 -0.3875
  445MOL0     C61312   9.097   4.220   1.151 -0.0418  0.1053  0.0849
  445MOL0     C61313   9.224   4.305   1.123 -0.3669  0.3042  0.7882
  445MOL0     C61314   9.270   4.380   1.248 -1.0557  0.1484 -0.3999
  445MOL0     C61315   9.405   4.454   1.243 -0.0638  0.3435  0.1755
  445MOL0     C61316   9.518   4.349   1.265  0.2365 -0.2975  0.1018
  445MOL0    Cl61317   9.499   4.302   1.431  0.7474 -0.0047 -0.6950
  445MOL0     C61318   8.635   4.666   1.339  0.6382  0.4142  0.4950
  445MOL0     C61319   8.528   4.759   1.327 -0.0692  0.2387  0.0112
  445MOL0     O61320   8.278   4.833   1.439 -0.3607  0.3112 -0.4698
  445MOL0     C61321   8.064   4.912   1.152 -0.6202  0.4590 -0.7431
  445MOL0     C61322   7.951   4.974   1.110 -0.3009 -0.3694  0.4409
  445MOL0     N61323   7.249   5.096   0.643 -0.2271 -0.3368 -0.7814
  445MOL0     N61324   7.123   5.144   0.652 -0.7103 -1.2071 -0.1119
  445MOL0     C61325   6.320   5.732   0.909 -0.2749  0.4097  0.2779
  445MOL0     C61326   6.283   5.761   1.039  0.0610  0.5889  0.2661
  445MOL0     C61327   6.209   5.872   1.435  0.5395  0.1872 -0.3146
  445MOL0     C61328   6.290   5.910   1.544  0.2949  0.3567 -0.1517
  445MOL0     C61329   6.224   5.944   1.664  0.0390 -0.3952  0.3098
  445MOL0     C61330   6.086   5.929   1.679 -0.0140  0.0792 -0.0667
  445MOL0     O61331   6.045   5.972   1.804  0.4385  0.0579 -0.2285
  445MOL0     C61332   5.909   6.019   1.811 -0.2118 -0.1531  0.3186
  445MOL0     C61333   5.876   6.088   1.954 -0.6671 -0.0533  0.4146
  445MOL0     C61334   5.725   6.123   1.969  0.3413 -0.3091 -0.6339
  445MOL0     C61335   5.698   6.188   2.104 -0.4129 -0.3599 -0.0508
  445MOL0     C61336   5.558   6.190   2.148 -0.1604  0.3559  0.3669
  445MOL0     C61337   5.449   6.197   2.187  0.2944 -0.0421 -0.1835
  445MOL0     C61338   6.005   5.886   1.578 -0.0976  0.3457  0.1341
  445MOL0     C61339   6.066   5.856   1.448 -0.2901  0.5625 -0.6211
  445MOL0     C61340   5.973   5.814   1.337  0.1338 -0.4241 -1.0670
  445MOL0     H61341   6.565   5.630   1.190  2.6113 -0.2799 -1.1452
  445MOL0     H61342   6.628   5.599   0.973  1.0235  0.8157  0.8355
  445MOL0     H61343   6.516   5.827   0.646 -0.7059  1.4016 -0.9953
  445MOL0     H61344   6.379   5.737   0.597  0.7636  0.9736 -1.4929
  445MOL0     H61345   6.512   5.562   0.494 -0.7853  0.4166  0.7104
  445MOL0     H61346   6.564   5.723   0.425 -0.0117 -0.2221 -0.3630
  445MOL0     H61347   6.748   5.716   0.597 -0.1077 -0.7692 -1.1073
  445MOL0     H61348   6.709   5.556   0.646  1.4161  0.6998  1.4971
  445MOL0     H61349   6.719   5.490   0.382 -0.6578  0.1370  0.0573
  445MOL0     H61350   6.782   5.659   0.366 -1.6934  0.0698  0.8027
  445MOL0     H61351   6.958   5.624   0.496 -0.4800 -0.4640  1.8472
  445MOL0     H61352   6.967   5.511   0.366 -0.5287 -1.9347  0.8197
  445MOL0     H61353   6.841   5.346   0.561 -0.6413  0.3825  1.4496
  445MOL0     H61354   7.009   5.351   0.494 -0.5809  1.1038  0.2195
  445MOL0     H61355   6.903   5.488   0.742 -1.7175 -0.6194 -2.1542
  445MOL0     H61356   7.078   5.504   0.692  0.0210 -0.9816  2.3080
  445MOL0     H61357   6.996   5.356   0.880 -5.3615 -1.0693  1.2308
  445MOL0     H61358   6.909   5.253   0.773  1.0516 -1.4154  1.8490
  445MOL0     H61359   7.280   5.310   0.889  1.2623  1.6887 -0.7262
  445MOL0     H61360   7.508   5.270   0.779  1.9042 -0.7230  1.7745
  445MOL0     H61361   7.519   5.135   0.668 -2.0409  0.8371 -1.0350
  445MOL0     H61362   7.411   5.084   0.940 -0.6365 -1.5506 -1.3801
  445MOL0     H61363   7.530   4.970   0.871 -1.7263 -0.3073  3.2690
  445MOL0     H61364   7.710   5.146   0.895 -2.1719  0.0640 -1.4633
  445MOL0     H61365   7.590   5.233   0.991 -2.6164 -0.5584 -1.5323
  445MOL0     H61366   7.576   5.007   1.123 -0.9726  1.8137  0.1451
  445MOL0     H61367   7.710   4.950   1.032 -0.4197  0.2697 -1.0877
  445MOL0     H61368   7.835   5.069   1.414  0.1517 -0.9209  0.1597
  445MOL0     H61369   8.099   5.097   1.542  2.4459 -1.4962  0.7065
  445MOL0     H61370   8.102   4.915   1.577  0.8365  0.0045  0.0011
  445MOL0     H61371   7.955   5.016   1.593  1.5640  1.5500  1.8080
  445MOL0     H61372   8.364   4.656   1.050  0.3328 -2.8582 -0.0097
  445MOL0     H61373   8.531   4.474   1.077 -1.5901  1.1495 -1.2608
  445MOL0     H61374   8.632   4.316   1.141 -0.3825  0.4901  0.6193
  445MOL0     H61375   8.758   4.405   1.064  3.8057 -0.9324  0.9413
  445MOL0     H61376   8.841   4.226   1.299  0.2890  0.9370  0.0125
  445MOL0     H61377   8.825   4.162   1.135 -1.7934 -1.0923  2.0700
  445MOL0     H61378   8.988   4.397   1.237  0.8078  0.4532 -0.3997
  445MOL0     H61379   8.970   4.371   1.070 -1.2469 -1.0645 -1.3351
  445MOL0     H61380   9.084   4.159   1.061  4.3934 -0.4498 -0.3797
  445MOL0     H61381   9.114   4.170   1.247  5.4214  3.8945  1.5513
  445MOL0     H61382   9.298   4.236   1.080 -3.6168 -2.1782 -1.3429
  445MOL0     H61383   9.211   4.370   1.036  0.5298 -0.4006  0.1029
  445MOL0     H61384   9.277   4.301   1.323 -2.4810  0.2470 -0.1410
  445MOL0     H61385   9.200   4.456   1.285 -0.2164  2.4831 -3.2226
  445MOL0     H61386   9.412   4.532   1.319 -2.3542  0.0608  0.7542
  445MOL0     H61387   9.409   4.502   1.145  0.1892  3.6265  1.6621
  445MOL0     H61388   9.613   4.399   1.248  0.3171  0.2346  1.8995
  445MOL0     H61389   9.511   4.267   1.193 -2.7224  0.9078 -1.1831
  445MOL0     H61390   8.719   4.686   1.404 -0.1904  3.3060  0.8088
  445MOL0     H61391   8.519   4.835   1.404 -2.3845 -1.7607  1.8652
  445MOL0     H61392   8.129   4.877   1.072  1.3419  3.0333 -0.4421
  445MOL0     H61393   7.933   4.981   1.003 -1.7868 -2.1403  0.5242
  445MOL0     H61394   6.243   5.749   0.835  0.9827  1.9852 -0.7403
  445MOL0     H61395   6.189   5.813   1.049  1.1053  2.9815 -1.2440
  445MOL0     H61396   6.397   5.907   1.530  0.1854 -0.2912 -0.9114
  445MOL0     H61397   6.282   5.992   1.742 -0.1103 -0.7763  0.6573
  445MOL0     H61398   5.882   6.094   1.736 -0.1654  0.3220  0.7739
  445MOL0     H61399   5.846   5.930   1.799 -1.0054 -0.3322  4.4190
  445MOL0     H61400   5.938   6.178   1.954  1.3539 -1.3787  0.1224
  445MOL0     H61401   5.903   6.015   2.031 -0.8924 -0.0576  0.4912
  445MOL0     H61402   5.703   6.187   1.883  4.4794  0.6565 -1.1852
  445MOL0     H61403   5.668   6.029   1.965  1.1790 -0.8591 -0.0081
  445MOL0     H61404   5.730   6.292   2.090 -0.8974 -0.3284 -1.0216
  445MOL0     H61405   5.761   6.137   2.177 -0.0100  0.7472  0.3974
  445MOL0     H61406   5.360   6.192   2.246  0.8056 -2.3336  0.4984
  445MOL0     H61407   5.896   5.881   1.578 -0.1019  0.3648  1.0398
  445MOL0     H61408   5.992   5.714   1.299 -0.1444 -0.4029 -1.2662
  445MOL0     H61409   5.867   5.827   1.361  0.1484  4.9565 -2.5025
  445MOL0     H61410   5.993   5.882   1.253 -0.2785 -0.9864 -1.6248
  446MOL0     O61411   1.342   8.274   9.188  0.0508 -0.4780  0.1342
  446MOL0     C61412   1.252   8.347   9.142 -0.5499 -0.0866  0.7669
  446MOL0     O61413   1.258   8.417   9.028 -0.6764 -0.0129  1.0513
  446MOL0     C61414   1.382   8.465   8.999  0.2454 -0.6760 -0.8108
  446MOL0     C61415   1.435   8.460   8.868 -0.1163 -0.1070 -0.4255
  446MOL0     C61416   1.563   8.507   8.841 -0.3779 -0.3028  0.4664
  446MOL0     C61417   1.639   8.570   8.942  0.4874  0.0781 -0.3298
  446MOL0     O61418   1.763   8.621   8.932  0.1310  0.4500 -0.2351
  446MOL0     C61419   1.843   8.573   8.822 -0.3480  0.4518  0.7957
  446MOL0     C61420   1.979   8.639   8.862  0.4375 -0.0280 -0.1240
  446MOL0     C61421   2.088   8.604   8.763  1.0103  0.1017  0.2347
  446MOL0     C61422   2.143   8.459   8.757 -0.3803 -0.6437 -0.9899
  446MOL0     C61423   2.234   8.441   8.630  0.5937  0.7717 -0.3806
  446MOL0     C61424   2.299   8.303   8.639  0.0951 -0.5140 -0.3306
  446MOL0     C61425   2.355   8.263   8.503  0.3927  0.5324 -0.8390
  446MOL0     C61426   2.460   8.157   8.517 -0.3844 -0.3238 -0.2476
  446MOL0     N61427   2.593   8.215   8.544 -0.8079 -0.2261 -0.4797
  446MOL0     C61428   2.671   8.284   8.452 -0.8474 -0.3616 -0.7174
  446MOL0     C61429   2.763   8.350   8.521  0.0489 -0.0150  0.2653
  446MOL0     C61430   2.866   8.436   8.452  0.0570  0.0656  0.1861
  446MOL0     C61431   2.893   8.421   8.297 -0.2695  0.4185  0.1635
  446MOL0     C61432   3.005   8.511   8.264  0.6802  0.1961 -0.9941
  446MOL0     C61433   3.033   8.506   8.120 -0.1205 -0.7341 -0.3309
  446MOL0     O61434   3.115   8.391   8.085  0.2795 -0.0287 -0.5527
  446MOL0     C61435   3.185   8.406   7.969  0.3198 -0.4255 -0.1590
  446MOL0     C61436   3.143   8.475   7.850 -0.2511  0.2068  0.0750
  446MOL0     C61437   3.223   8.481   7.736  0.0134  0.1000 -0.0362
  446MOL0     C61438   3.166   8.575   7.618 -0.4015  0.2245  0.0502
  446MOL0     C61439   3.345   8.413   7.733 -0.1909  0.2888 -0.5256
  446MOL0     C61440   3.431   8.408   7.612 -0.4290  0.5374  0.2899
  446MOL0     O61441   3.539   8.320   7.622  0.7652  0.5176 -0.9228
  446MOL0     C61442   3.662   8.319   7.556  0.7105  0.4675 -0.1941
  446MOL0     C61443   3.703   8.429   7.476 -0.2167 -0.7834 -0.1805
  446MOL0     C61444   3.818   8.410   7.410  0.4952 -0.1487 -0.4635
  446MOL0     C61445   3.903   8.300   7.417 -0.1492 -0.1124 -0.7926
  446MOL0     O61446   4.011   8.269   7.348 -0.3708  0.4691  0.5330
  446MOL0     C61447   4.037   8.358   7.241 -0.3182  0.9025 -0.1244
  446MOL0     C61448   4.169   8.326   7.181 -0.1360 -0.3164  0.1313
  446MOL0     C61449   4.213   8.438   7.090 -0.1242 -0.0997 -0.0603
  446MOL0     C61450   4.347   8.403   7.014  0.0962 -0.3012 -0.3058
  446MOL0     C61451   4.416   8.534   6.975 -0.1631 -0.2881  0.1562
  446MOL0     C61452   4.346   8.649   6.892  0.9212 -0.2612 -0.0215
  446MOL0     C61453   4.452   8.758   6.857 -0.5610  0.2228 -0.5842
  446MOL0     C61454   4.383   8.881   6.809  0.1437  0.5942 -0.4072
  446MOL0    Cl61455   4.480   9.018   6.812 -0.1066  0.7757 -0.3589
  446MOL0     C61456   3.863   8.195   7.500  0.0427 -0.0829 -0.5245
  446MOL0     C61457   3.741   8.199   7.567 -0.3665 -0.2364 -0.1637
  446MOL0     O61458   3.415   8.483   7.519  0.0781 -0.1806 -0.1773
  446MOL0     C61459   3.375   8.329   7.846  0.4810 -0.0380  0.2610
  446MOL0     C61460   3.303   8.333   7.959 -0.1809  0.8864 -0.6393
  446MOL0     N61461   2.739   8.332   8.654 -0.0979 -0.2885  0.2607
  446MOL0     N61462   2.629   8.256   8.663 -0.0620 -0.2640  0.3554
  446MOL0     C61463   1.583   8.574   9.073  0.0193 -0.4694 -0.2259
  446MOL0     C61464   1.460   8.529   9.104  0.6980  0.1912  0.5210
  446MOL0     C61465   1.123   8.333   9.203 -0.7448  0.3720 -0.5973
  446MOL0     C61466   1.011   8.332   9.122 -0.2230 -0.6903 -0.0108
  446MOL0     C61467   0.882   8.303   9.165 -0.1007 -0.4103  0.0557
  446MOL0     C61468   0.863   8.275   9.298 -0.0064  0.5822 -0.3292
  446MOL0     O61469   0.745   8.252   9.363  1.0034 -0.8446 -0.2223
  446MOL0     C61470   0.619   8.273   9.291  0.1750  0.1967  0.8792
  446MOL0     C61471   0.581   8.144   9.231 -0.2953 -0.2306  0.3272
  446MOL0     C61472   0.567   8.042   9.342  0.1987  0.7199  0.1043
  446MOL0     C61473   0.500   7.907   9.305 -0.4208 -0.7478 -0.2612
  446MOL0     C61474   0.579   7.838   9.204 -0.5763 -0.5730  0.3705
  446MOL0     C61475   0.643   7.795   9.111 -0.8349 -0.2704 -0.3868
  446MOL0     C61476   0.976   8.267   9.381 -1.2381 -1.3408  0.4114
  446MOL0     C61477   1.107   8.296   9.342 -0.0865  0.0549  0.3231
  446MOL0     C61478   1.201   8.324   9.447  0.4019  0.2736  0.6314
  446MOL0     H61479   1.379   8.419   8.785  0.1201 -0.5530 -0.3704
  446MOL0     H61480   1.605   8.500   8.741  1.3558  2.1643  0.9300
  446MOL0     H61481   1.813   8.611   8.723  3.3344  1.9601  0.0916
  446MOL0     H61482   1.853   8.464   8.816  1.4784  0.6581 -1.2813
  446MOL0     H61483   1.954   8.746   8.870 -1.6009 -0.4280 -0.5599
  446MOL0     H61484   2.008   8.601   8.960  1.1801 -0.6586 -0.5778
  446MOL0     H61485   2.047   8.625   8.664  1.9517 -0.1377 -0.2162
  446MOL0     H61486   2.169   8.676   8.774  0.3040  0.8003  0.9915
  446MOL0     H61487   2.200   8.438   8.848  1.8445 -2.5168 -2.6844
  446MOL0     H61488   2.059   8.390   8.748 -0.1059 -1.2178  0.5273
  446MOL0     H61489   2.310   8.521   8.629  0.1416  1.2047 -0.2756
  446MOL0     H61490   2.166   8.445   8.545 -0.3224  0.5757  0.3292
  446MOL0     H61491   2.376   8.296   8.716 -2.0251 -2.0127  1.7872
  446MOL0     H61492   2.215   8.238   8.669 -1.4141  2.2332  1.8864
  446MOL0     H61493   2.396   8.352   8.453 -0.6362  1.9041  0.6738
  446MOL0     H61494   2.264   8.225   8.456 -0.0090 -1.6471  1.5205
  446MOL0     H61495   2.428   8.087   8.594  2.0293 -0.1301  1.0430
  446MOL0     H61496   2.461   8.098   8.424 -2.0523 -0.2263 -0.3451
  446MOL0     H61497   2.654   8.287   8.345 -4.2360 -5.0326 -0.6367
  446MOL0     H61498   2.961   8.409   8.499 -0.3517  1.0986  1.6726
  446MOL0     H61499   2.837   8.539   8.474  2.1830  0.9978 -1.0507
  446MOL0     H61500   2.908   8.316   8.269  0.2697  0.7025 -0.6501
  446MOL0     H61501   2.811   8.458   8.235  1.5280  1.0359 -2.0322
  446MOL0     H61502   2.970   8.610   8.296 -1.6048 -1.1372  0.9559
  446MOL0     H61503   3.097   8.483   8.316  1.4818  4.4993  0.3427
  446MOL0     H61504   2.936   8.510   8.069 -0.7040  0.5822  0.8084
  446MOL0     H61505   3.076   8.604   8.098 -1.8055  0.1915  0.2836
  446MOL0     H61506   3.051   8.533   7.843 -0.7808 -0.7774 -2.0398
  446MOL0     H61507   3.067   8.617   7.635  0.6165  1.9727  2.0757
  446MOL0     H61508   3.155   8.508   7.532  1.0106 -0.4433  0.3555
  446MOL0     H61509   3.236   8.653   7.588  1.2084 -2.1299 -2.8364
  446MOL0     H61510   3.644   8.519   7.460  1.5151  0.2942 -0.9323
  446MOL0     H61511   3.837   8.489   7.338  0.2381  1.2482  0.9470
  446MOL0     H61512   3.960   8.370   7.165  1.8048 -2.1658 -3.0642
  446MOL0     H61513   4.052   8.458   7.281 -2.3237  0.3142  2.3720
  446MOL0     H61514   4.243   8.313   7.260 -2.5029  1.1378  2.7681
  446MOL0     H61515   4.165   8.231   7.127 -2.4305 -0.8565  1.1023
  446MOL0     H61516   4.225   8.521   7.160 -0.4541 -0.6983  0.7205
  446MOL0     H61517   4.138   8.472   7.017  0.8430  3.0353  0.2883
  446MOL0     H61518   4.306   8.343   6.931 -0.4138 -0.8206  0.3121
  446MOL0     H61519   4.410   8.337   7.075 -0.7574 -1.9065 -1.0889
  446MOL0     H61520   4.445   8.576   7.072 -1.5731 -0.5609  0.7252
  446MOL0     H61521   4.512   8.501   6.934 -0.3854 -0.7316 -0.0052
  446MOL0     H61522   4.258   8.689   6.943 -0.0081  0.4132 -2.0467
  446MOL0     H61523   4.301   8.599   6.806 -1.1551  1.7855 -0.2397
  446MOL0     H61524   4.531   8.731   6.787 -2.2419 -1.5144 -1.9148
  446MOL0     H61525   4.508   8.788   6.946 -2.8247  1.5535  0.4842
  446MOL0     H61526   4.291   8.912   6.859  0.7272  2.1113 -0.2446
  446MOL0     H61527   4.349   8.874   6.705 -0.5430  1.9647 -0.2831
  446MOL0     H61528   3.930   8.110   7.503 -0.6090 -0.6159 -0.8321
  446MOL0     H61529   3.715   8.117   7.633  1.8308 -2.6111 -2.0221
  446MOL0     H61530   3.466   8.271   7.843  0.7982  0.4838 -1.9055
  446MOL0     H61531   3.338   8.286   8.050 -2.4440 -0.1180 -0.2013
  446MOL0     H61532   1.629   8.633   9.152 -2.4434 -0.1339  1.0923
  446MOL0     H61533   1.427   8.548   9.205 -1.2568 -2.2596  0.4503
  446MOL0     H61534   1.018   8.356   9.016 -0.8714 -0.0105  0.0963
  446MOL0     H61535   0.797   8.308   9.097  0.6026  3.0137 -0.7950
  446MOL0     H61536   0.529   8.299   9.348 -0.8801 -0.6429 -0.3554
  446MOL0     H61537   0.628   8.339   9.205 -0.4610 -1.8864 -0.8719
  446MOL0     H61538   0.669   8.115   9.172  0.6398  1.1541  1.0148
  446MOL0     H61539   0.492   8.150   9.167  0.1932 -0.0882 -0.3496
  446MOL0     H61540   0.665   8.010   9.380  0.4340 -0.3714 -1.3453
  446MOL0     H61541   0.506   8.077   9.426 -2.3135  1.5061 -1.9373
  446MOL0     H61542   0.399   7.928   9.270 -0.1295  0.6685 -0.3048
  446MOL0     H61543   0.500   7.844   9.395  4.5071 -0.8062 -0.0496
  446MOL0     H61544   0.688   7.754   9.022 -1.4383 -4.5208  1.0745
  446MOL0     H61545   0.964   8.262   9.489  1.4279 -1.7700  0.7387
  446MOL0     H61546   1.225   8.228   9.494  0.2704 -0.1823 -0.2209
  446MOL0     H61547   1.294   8.368   9.411 -0.0919 -1.2453 -2.9129
  446MOL0     H61548   1.162   8.390   9.525  0.6728  0.1864  0.8455
  447MOL0     O61549   4.627   2.692   7.230  0.1037  0.6063  0.1457
  447MOL0     C61550   4.631   2.786   7.305  0.6263 -0.0009  0.6741
  447MOL0     O61551   4.736   2.819   7.379  0.3166 -0.4445 -0.0458
  447MOL0     C61552   4.868   2.779   7.346  0.3070  0.3003 -0.1284
  447MOL0     C61553   4.954   2.785   7.453 -0.2873  0.4175  0.7012
  447MOL0     C61554   5.093   2.747   7.438 -0.3251  0.1962 -0.1161
  447MOL0     C61555   5.145   2.706   7.311  0.4030  0.1143 -0.9406
  447MOL0     O61556   5.281   2.690   7.297 -0.5296  0.3170  0.0703
  447MOL0     C61557   5.330   2.608   7.186 -0.3183 -0.4602 -0.8113
  447MOL0     C61558   5.377   2.696   7.077 -0.6722 -0.4938  0.4056
  447MOL0     C61559   5.485   2.787   7.111 -0.1713 -0.0444 -0.3338
  447MOL0     C61560   5.497   2.910   7.020 -0.3632  0.1697 -0.2983
  447MOL0     C61561   5.634   2.984   7.040  0.3504 -0.0222 -0.1685
  447MOL0     C61562   5.756   2.905   7.004 -0.3725  0.1279 -0.2863
  447MOL0     C61563   5.751   2.836   6.857 -0.0182 -0.4693 -0.9550
  447MOL0     C61564   5.884   2.790   6.812 -0.3681  0.6405 -0.3350
  447MOL0     N61565   5.974   2.903   6.814  0.6056  0.0494 -0.7367
  447MOL0     C61566   5.975   3.012   6.739  0.5642  0.0621 -0.1611
  447MOL0     C61567   6.091   3.074   6.758 -0.1811 -0.0067  1.4359
  447MOL0     C61568   6.143   3.205   6.694 -0.2226 -0.5678 -0.2279
  447MOL0     C61569   6.295   3.213   6.724  0.2157  0.7695  0.2380
  447MOL0     C61570   6.354   3.348   6.675  0.3423  0.4460  0.5908
  447MOL0     C61571   6.494   3.380   6.722 -0.0143  0.4588  0.1691
  447MOL0     O61572   6.530   3.513   6.728 -0.5149  0.4319  0.1182
  447MOL0     C61573   6.655   3.543   6.749  0.0819  0.9512  0.8256
  447MOL0     C61574   6.690   3.671   6.712  0.5466 -0.2809 -1.1813
  447MOL0     C61575   6.824   3.714   6.718 -0.4223 -0.3094 -0.2447
  447MOL0     C61576   6.841   3.851   6.665 -0.4172  0.0718 -1.1778
  447MOL0     C61577   6.924   3.633   6.773 -0.6224  0.3392  0.0781
  447MOL0     C61578   7.058   3.690   6.794  0.0400 -0.5348  0.3540
  447MOL0     O61579   7.070   3.809   6.866 -0.6651 -0.2101  0.2055
  447MOL0     C61580   7.196   3.863   6.898  0.2272  0.1677 -0.3007
  447MOL0     C61581   7.201   3.917   7.025  0.3678 -0.4192  0.1624
  447MOL0     C61582   7.322   3.987   7.063  0.2385 -0.0266  0.6252
  447MOL0     C61583   7.429   3.994   6.976  0.2785  0.5960 -1.2429
  447MOL0     O61584   7.556   4.036   7.009  0.5192 -0.2703 -0.5256
  447MOL0     C61585   7.574   4.142   7.105  0.3587 -0.5561 -0.1595
  447MOL0     C61586   7.709   4.206   7.072  0.0542  0.2248 -0.1900
  447MOL0     C61587   7.724   4.350   7.123  0.4047 -0.4019 -0.0918
  447MOL0     C61588   7.870   4.383   7.175 -0.1417  0.6066 -0.0979
  447MOL0     C61589   7.954   4.459   7.070 -0.1403  0.2828  0.9538
  447MOL0     C61590   8.069   4.528   7.131  0.3583  0.4361 -0.4699
  447MOL0     C61591   8.176   4.422   7.181 -0.1616  0.6848 -0.2659
  447MOL0     C61592   8.286   4.494   7.260  0.5426 -0.2072 -0.0019
  447MOL0    Cl61593   8.399   4.374   7.327 -0.2302 -0.0256 -0.0564
  447MOL0     C61594   7.426   3.937   6.854  1.2533  0.1550  0.1651
  447MOL0     C61595   7.303   3.870   6.813 -0.3392 -0.7819 -0.2993
  447MOL0     O61596   7.150   3.625   6.746 -0.5561 -0.2123 -0.0864
  447MOL0     C61597   6.893   3.494   6.804 -0.1547  0.2197 -0.0470
  447MOL0     C61598   6.755   3.454   6.792 -0.3296 -0.3798 -0.9748
  447MOL0     N61599   6.159   3.003   6.851 -0.3333 -0.0305  1.0050
  447MOL0     N61600   6.090   2.901   6.890 -0.4406  0.0712  0.1960
  447MOL0     C61601   5.050   2.702   7.207  0.6576  0.2996  0.1803
  447MOL0     C61602   4.913   2.735   7.223  0.5674 -0.9460 -0.2846
  447MOL0     C61603   4.504   2.861   7.334 -0.5872  0.2992 -0.2561
  447MOL0     C61604   4.446   2.863   7.463  0.7976  0.6653 -0.5704
  447MOL0     C61605   4.336   2.946   7.482  0.2164 -0.7460  0.2973
  447MOL0     C61606   4.277   3.018   7.376 -0.8336  0.3246  0.6882
  447MOL0     O61607   4.178   3.102   7.384  0.5393 -0.4282 -0.1911
  447MOL0     C61608   4.123   3.132   7.511 -0.3017  0.9250  0.3281
  447MOL0     C61609   4.026   3.256   7.495 -0.0442 -0.4293 -0.7075
  447MOL0     C61610   3.899   3.212   7.418  0.4762 -0.2335  0.5236
  447MOL0     C61611   3.813   3.333   7.388  0.3085  0.4969  0.2668
  447MOL0     C61612   3.696   3.294   7.300 -0.6873  0.1881  0.5271
  447MOL0     C61613   3.603   3.279   7.225  0.0396  0.2928  0.5029
  447MOL0     C61614   4.334   3.008   7.243  0.1550 -0.0893 -0.6539
  447MOL0     C61615   4.453   2.930   7.223  0.8931 -0.0490 -1.2835
  447MOL0     C61616   4.529   2.952   7.098  0.0781  0.2034 -0.1762
  447MOL0     H61617   4.926   2.823   7.551 -1.7537  5.6251 -1.3960
  447MOL0     H61618   5.163   2.762   7.519 -0.0968 -0.0614 -0.2642
  447MOL0     H61619   5.252   2.544   7.146 -0.8153 -0.5838  0.3072
  447MOL0     H61620   5.416   2.544   7.210  1.4780  1.8013 -0.8226
  447MOL0     H61621   5.428   2.636   7.001  1.2955  1.0752  0.4227
  447MOL0     H61622   5.289   2.749   7.039 -1.1380 -0.0361  2.0506
  447MOL0     H61623   5.469   2.822   7.214  0.9178  1.4001 -0.6149
  447MOL0     H61624   5.583   2.740   7.122  0.5273  1.5395  0.6349
  447MOL0     H61625   5.498   2.871   6.918  1.2678  0.1270 -0.2882
  447MOL0     H61626   5.407   2.973   7.018 -0.2515  0.4046  0.9771
  447MOL0     H61627   5.641   3.013   7.145  1.0697 -1.0366  0.0817
  447MOL0     H61628   5.635   3.069   6.972  1.5190  0.7642  0.8111
  447MOL0     H61629   5.835   2.980   7.009 -0.6632  0.3634  0.8927
  447MOL0     H61630   5.784   2.821   7.069  1.6363 -0.1447 -1.4156
  447MOL0     H61631   5.718   2.913   6.786 -1.2812 -0.9927 -0.9545
  447MOL0     H61632   5.672   2.761   6.850 -2.4514  2.0053 -2.0690
  447MOL0     H61633   5.925   2.714   6.879 -0.2132 -0.3413 -1.5118
  447MOL0     H61634   5.876   2.735   6.717  2.6430 -0.9112  0.1941
  447MOL0     H61635   5.894   3.060   6.684 -1.2254 -0.7043  1.6864
  447MOL0     H61636   6.087   3.293   6.726  0.9655 -0.0893  0.6101
  447MOL0     H61637   6.125   3.204   6.586 -1.3028  1.3139 -0.0994
  447MOL0     H61638   6.318   3.204   6.831  1.4849  0.9797 -0.0030
  447MOL0     H61639   6.343   3.127   6.676 -1.3666 -0.0906  0.1206
  447MOL0     H61640   6.357   3.355   6.566 -1.2201  0.0573  0.4865
  447MOL0     H61641   6.287   3.427   6.713 -3.2306 -2.5365  1.1078
  447MOL0     H61642   6.517   3.334   6.818  3.3465  0.5030 -0.4901
  447MOL0     H61643   6.569   3.324   6.664  0.2543  1.4267 -0.4599
  447MOL0     H61644   6.614   3.739   6.673  0.0741 -0.9368 -1.4153
  447MOL0     H61645   6.802   3.928   6.732 -0.8827  0.5844 -2.0292
  447MOL0     H61646   6.783   3.879   6.577  0.7494 -0.9912 -2.3209
  447MOL0     H61647   6.945   3.878   6.647  0.2945  0.9256  3.0002
  447MOL0     H61648   7.122   3.908   7.098 -0.3172  0.5486 -0.4277
  447MOL0     H61649   7.340   4.007   7.168  0.2828 -0.8551  0.7816
  447MOL0     H61650   7.495   4.217   7.096  0.6167  0.0688  2.1851
  447MOL0     H61651   7.571   4.097   7.205 -0.0658 -1.6277 -0.6441
  447MOL0     H61652   7.787   4.142   7.114 -0.2284  0.4424  0.6692
  447MOL0     H61653   7.714   4.208   6.962  1.4226  3.0683 -0.1708
  447MOL0     H61654   7.649   4.365   7.202 -0.6095 -0.7730 -0.9613
  447MOL0     H61655   7.690   4.425   7.051  0.9853  0.8414  0.8681
  447MOL0     H61656   7.921   4.287   7.190 -0.6610  0.6187  2.2348
  447MOL0     H61657   7.859   4.431   7.273  0.6433 -0.7216  0.6733
  447MOL0     H61658   7.987   4.389   6.993 -1.3566 -0.8123  1.4040
  447MOL0     H61659   7.890   4.535   7.023 -0.9130 -0.6871  0.4065
  447MOL0     H61660   8.037   4.588   7.218 -1.0310 -0.4254 -0.3573
  447MOL0     H61661   8.116   4.594   7.058  0.7491  1.2850  0.5237
  447MOL0     H61662   8.222   4.374   7.094 -1.3397 -1.8746  0.4080
  447MOL0     H61663   8.135   4.345   7.247 -0.9630  0.2741 -1.2165
  447MOL0     H61664   8.247   4.555   7.343  1.2853 -0.9785  0.9374
  447MOL0     H61665   8.342   4.562   7.196  1.8321 -2.6500 -1.5987
  447MOL0     H61666   7.510   3.958   6.788  1.5317 -0.0854  0.4415
  447MOL0     H61667   7.297   3.832   6.711 -0.8580  2.8501 -1.7738
  447MOL0     H61668   6.964   3.423   6.846 -0.0373 -0.0197 -0.6378
  447MOL0     H61669   6.726   3.356   6.828  0.6069  0.5045  2.4581
  447MOL0     H61670   5.071   2.674   7.104  0.9499 -1.4777  0.6923
  447MOL0     H61671   4.846   2.731   7.138  2.0818  0.4917 -1.6171
  447MOL0     H61672   4.486   2.804   7.545  1.2529  1.6586 -0.0676
  447MOL0     H61673   4.292   2.948   7.581  0.7110  1.9612  0.5501
  447MOL0     H61674   4.081   3.043   7.558  4.5793 -0.3974  2.8305
  447MOL0     H61675   4.207   3.167   7.571  1.6192 -0.6903 -1.2878
  447MOL0     H61676   4.068   3.343   7.445 -2.0755  0.1519 -1.4870
  447MOL0     H61677   3.997   3.292   7.594 -2.2488  1.4901 -1.9690
  447MOL0     H61678   3.933   3.164   7.326  1.2033 -1.2992  1.3260
  447MOL0     H61679   3.838   3.144   7.478  1.7561 -0.0983  2.0159
  447MOL0     H61680   3.880   3.396   7.328  2.9871 -1.2422  1.2498
  447MOL0     H61681   3.779   3.388   7.476  1.1756  0.2836  0.7508
  447MOL0     H61682   3.523   3.262   7.155  2.7681 -0.5651 -2.6968
  447MOL0     H61683   4.296   3.072   7.164  0.2259  1.2216  0.3260
  447MOL0     H61684   4.536   2.855   7.047  0.0243  0.5753 -0.9017
  447MOL0     H61685   4.481   3.027   7.034  1.5728  1.1939 -0.1890
  447MOL0     H61686   4.624   3.000   7.125 -0.8119  3.3092 -2.0855
  448MOL0     O61687   0.649   6.292   2.267  0.3489  0.1218  0.8075
  448MOL0     C61688   0.568   6.368   2.316 -0.0762  0.1810  0.6620
  448MOL0     O61689   0.573   6.510   2.307  1.0052 -0.0303 -0.0062
  448MOL0     C61690   0.685   6.572   2.251 -0.3686 -0.1642 -0.3507
  448MOL0     C61691   0.649   6.701   2.207  0.0187  0.0778  0.0359
  448MOL0     C61692   0.750   6.777   2.144  0.9690  0.0736 -0.1826
  448MOL0     C61693   0.883   6.726   2.127 -0.3098  0.1364  1.0694
  448MOL0     O61694   0.972   6.804   2.065 -0.4578  0.2612  0.1687
  448MOL0     C61695   1.086   6.740   2.009  0.1164 -0.1229 -0.2109
  448MOL0     C61696   1.151   6.834   1.913  0.2951 -0.5243 -0.9662
  448MOL0     C61697   1.216   6.942   2.000  0.7638 -0.0414 -0.5373
  448MOL0     C61698   1.334   6.991   1.921 -0.5273  0.3307  0.0508
  448MOL0     C61699   1.432   7.075   2.000 -0.6882 -0.2321  0.0810
  448MOL0     C61700   1.568   7.112   1.931  0.2954  0.1803  0.0178
  448MOL0     C61701   1.649   7.216   2.017  1.1845  0.5288 -0.1962
  448MOL0     C61702   1.772   7.269   1.940 -0.5889  0.0989 -0.0983
  448MOL0     N61703   1.877   7.327   2.029 -0.1181 -0.2410  0.4425
  448MOL0     C61704   1.942   7.264   2.137 -0.1870  0.0082 -0.3054
  448MOL0     C61705   2.025   7.360   2.184 -0.2936 -0.2564  0.2327
  448MOL0     C61706   2.132   7.331   2.297  0.7600 -0.6587 -0.5211
  448MOL0     C61707   2.076   7.334   2.439  0.2848 -0.2532 -0.1110
  448MOL0     C61708   2.029   7.474   2.474 -0.2727 -0.6158 -0.9655
  448MOL0     C61709   2.132   7.583   2.497  0.2725  0.2738 -0.3354
  448MOL0     O61710   2.256   7.540   2.564  0.5552  0.2880  0.2133
  448MOL0     C61711   2.350   7.634   2.588  0.0234  0.1041 -0.3196
  448MOL0     C61712   2.477   7.586   2.627 -0.0176  0.1544  0.3369
  448MOL0     C61713   2.597   7.668   2.630  0.2909 -0.2955 -1.2993
  448MOL0     C61714   2.727   7.591   2.663 -0.0352 -0.3303  0.7176
  448MOL0     C61715   2.581   7.807   2.618 -0.2073 -0.4579 -0.7595
  448MOL0     C61716   2.696   7.898   2.652  0.3343 -0.6697 -0.2747
  448MOL0     O61717   2.663   8.024   2.637 -1.2118 -0.5209 -0.3980
  448MOL0     C61718   2.758   8.111   2.680  0.2450  0.2538  0.7611
  448MOL0     C61719   2.770   8.144   2.809  0.7009 -0.9369 -0.3564
  448MOL0     C61720   2.873   8.229   2.857  0.0807  0.6076 -0.5069
  448MOL0     C61721   2.969   8.282   2.769 -0.1299 -0.0519 -0.1818
  448MOL0     O61722   3.075   8.362   2.822  0.7640 -0.3143 -0.2226
  448MOL0     C61723   3.198   8.379   2.758 -0.6275 -0.1022  0.2490
  448MOL0     C61724   3.294   8.454   2.857  0.5161 -1.5613  0.1666
  448MOL0     C61725   3.267   8.407   3.000  0.4690  0.0173 -0.9362
  448MOL0     C61726   3.374   8.473   3.097 -0.2245 -0.1006  0.2696
  448MOL0     C61727   3.365   8.423   3.237 -0.0293 -0.4963 -0.6331
  448MOL0     C61728   3.445   8.292   3.260 -0.2992 -0.1094 -0.1022
  448MOL0     C61729   3.429   8.233   3.407 -0.1333 -0.8080 -0.3840
  448MOL0     C61730   3.319   8.138   3.436 -0.2065  0.6968  0.3032
  448MOL0    Cl61731   3.342   7.991   3.339 -0.2583 -0.1346 -0.0949
  448MOL0     C61732   2.946   8.259   2.633  0.0044 -1.0993  0.3191
  448MOL0     C61733   2.846   8.172   2.593 -0.4829 -0.2106  0.3056
  448MOL0     O61734   2.808   7.853   2.675  0.2545  0.4729  0.4725
  448MOL0     C61735   2.455   7.855   2.583  0.1648  0.1675 -0.0943
  448MOL0     C61736   2.339   7.771   2.567 -0.8931 -1.2597  0.1611
  448MOL0     N61737   2.003   7.474   2.109  0.3138  0.1814 -0.1505
  448MOL0     N61738   1.912   7.458   2.015  0.5188 -0.8748 -0.2375
  448MOL0     C61739   0.910   6.596   2.179  0.5966  0.1302  0.0424
  448MOL0     C61740   0.809   6.521   2.233 -0.1776  0.6125 -0.5448
  448MOL0     C61741   0.464   6.313   2.410 -0.3728  0.4975 -0.1188
  448MOL0     C61742   0.362   6.398   2.468 -0.0030 -0.3129 -0.0064
  448MOL0     C61743   0.267   6.345   2.550 -0.2906  0.1495 -0.5681
  448MOL0     C61744   0.267   6.217   2.578  0.3259  0.3426 -0.9940
  448MOL0     O61745   0.175   6.156   2.668 -0.2620  0.0491 -0.4674
  448MOL0     C61746   0.089   6.232   2.750  0.4165  0.1536 -0.3505
  448MOL0     C61747  -0.028   6.148   2.799  0.0949  0.0634  0.2129
  448MOL0     C61748  -0.123   6.117   2.681 -0.1435 -0.1092  0.4291
  448MOL0     C61749  -0.263   6.097   2.728  0.1971  0.5606  1.4015
  448MOL0     C61750  -0.277   5.961   2.773  0.0705  0.2748 -0.4890
  448MOL0     C61751  -0.328   5.857   2.818  0.1606  0.5507 -1.1086
  448MOL0     C61752   0.363   6.130   2.530 -0.3591  0.1272  0.4076
  448MOL0     C61753   0.461   6.174   2.444 -0.2969  0.4061  0.0143
  448MOL0     C61754   0.557   6.064   2.403  0.5075 -0.0473  0.3642
  448MOL0     H61755   0.548   6.740   2.210  0.2067  0.5807 -0.0557
  448MOL0     H61756   0.735   6.872   2.094  3.9555  0.2279 -0.9612
  448MOL0     H61757   1.060   6.653   1.949 -0.0377 -0.8926  0.9355
  448MOL0     H61758   1.160   6.712   2.085 -0.3753  2.4978  1.3666
  448MOL0     H61759   1.223   6.773   1.858  4.1358  3.9773 -1.5879
  448MOL0     H61760   1.084   6.881   1.840  1.6559 -0.1041 -1.9895
  448MOL0     H61761   1.145   7.024   2.017 -0.5564 -0.7560 -2.2058
  448MOL0     H61762   1.258   6.901   2.092  1.9822 -1.0112 -1.4951
  448MOL0     H61763   1.395   6.912   1.877  0.5266  0.7883  0.6504
  448MOL0     H61764   1.307   7.051   1.834  0.1359  1.1100  0.3653
  448MOL0     H61765   1.449   7.016   2.091  1.6517 -1.8224 -1.3062
  448MOL0     H61766   1.376   7.165   2.026 -1.5172  0.5962 -3.9367
  448MOL0     H61767   1.628   7.021   1.942 -2.9027 -1.9882  0.6164
  448MOL0     H61768   1.559   7.155   1.831 -0.0725 -0.7521 -0.3637
  448MOL0     H61769   1.679   7.173   2.114 -0.7069  3.0955  1.6449
  448MOL0     H61770   1.579   7.293   2.048 -1.5228 -2.4569  1.7066
  448MOL0     H61771   1.816   7.182   1.890 -1.8786 -0.8336  0.3182
  448MOL0     H61772   1.751   7.341   1.861 -1.0539 -1.1926 -1.2073
  448MOL0     H61773   1.938   7.164   2.179 -1.9474 -0.7790 -2.1539
  448MOL0     H61774   2.208   7.409   2.290 -0.7442  0.7458 -4.2649
  448MOL0     H61775   2.181   7.236   2.273 -1.8705 -1.8532 -1.5835
  448MOL0     H61776   1.990   7.268   2.450 -0.5072  1.1637  4.2016
  448MOL0     H61777   2.145   7.304   2.518  0.1356  2.5043  1.1933
  448MOL0     H61778   1.965   7.510   2.393 -1.7374  0.0228  0.4311
  448MOL0     H61779   1.971   7.475   2.566  1.9699  0.8290  0.5305
  448MOL0     H61780   2.159   7.631   2.403  1.3506 -0.9766 -0.7021
  448MOL0     H61781   2.099   7.666   2.560  1.7833 -0.6326  1.8168
  448MOL0     H61782   2.492   7.481   2.648  4.1478  0.5528  0.2015
  448MOL0     H61783   2.764   7.626   2.759 -0.3695  1.4448  0.2320
  448MOL0     H61784   2.802   7.615   2.587 -1.4317 -2.0257 -1.3426
  448MOL0     H61785   2.714   7.482   2.661 -1.8223 -0.1621 -1.7551
  448MOL0     H61786   2.694   8.123   2.884  1.1114  4.0904  1.8699
  448MOL0     H61787   2.873   8.247   2.964  1.1900 -0.4851 -0.2953
  448MOL0     H61788   3.247   8.286   2.729  1.4670  1.4808 -1.6640
  448MOL0     H61789   3.186   8.434   2.664  2.7925 -0.9567 -0.8542
  448MOL0     H61790   3.400   8.434   2.836  0.6433 -2.5405  1.6443
  448MOL0     H61791   3.284   8.563   2.863 -0.8010 -1.7553  2.2947
  448MOL0     H61792   3.274   8.298   3.001  0.2278  0.0009 -0.3223
  448MOL0     H61793   3.167   8.437   3.032  0.7928 -1.2404  1.5245
  448MOL0     H61794   3.351   8.580   3.100  0.7690  0.1071  0.8960
  448MOL0     H61795   3.479   8.472   3.066 -0.7652 -1.2815 -1.6959
  448MOL0     H61796   3.406   8.499   3.304 -1.3847 -1.1718  1.0173
  448MOL0     H61797   3.260   8.422   3.265 -0.2671  0.2915 -1.4444
  448MOL0     H61798   3.546   8.329   3.245 -0.8436  1.4251 -0.1743
  448MOL0     H61799   3.410   8.212   3.194  0.8759  0.7686 -1.8588
  448MOL0     H61800   3.410   8.308   3.484 -0.0040 -1.5688  0.3971
  448MOL0     H61801   3.526   8.187   3.429 -0.8691 -2.1847  0.1466
  448MOL0     H61802   3.220   8.184   3.423  0.1129  1.8428  1.7372
  448MOL0     H61803   3.329   8.109   3.541 -0.5504 -0.2855  0.0754
  448MOL0     H61804   3.014   8.307   2.563 -1.6462 -1.4383 -1.6044
  448MOL0     H61805   2.839   8.137   2.491  0.6697  2.5020 -0.8285
  448MOL0     H61806   2.441   7.962   2.570 -2.0478  0.1839  1.7795
  448MOL0     H61807   2.243   7.812   2.539  0.2527  0.5071 -1.3779
  448MOL0     H61808   1.014   6.564   2.181  0.3238 -1.0451 -2.2795
  448MOL0     H61809   0.838   6.432   2.287  2.0759  0.9737 -1.0434
  448MOL0     H61810   0.360   6.504   2.442 -0.9271 -0.8056 -2.0612
  448MOL0     H61811   0.191   6.413   2.590 -0.3175  0.9281 -1.8714
  448MOL0     H61812   0.151   6.254   2.837 -0.6784  1.4093  0.1379
  448MOL0     H61813   0.048   6.325   2.708  0.4108  0.9475  1.3366
  448MOL0     H61814  -0.089   6.204   2.870  1.4761  2.0288 -0.0586
  448MOL0     H61815   0.009   6.053   2.839 -2.0765 -1.7569 -1.8588
  448MOL0     H61816  -0.118   6.206   2.618  2.1827  0.7869  1.7677
  448MOL0     H61817  -0.087   6.030   2.627  3.5389  1.0985  0.6720
  448MOL0     H61818  -0.331   6.105   2.643  1.3391 -0.4670  0.3539
  448MOL0     H61819  -0.298   6.174   2.798 -0.5835  0.4297  1.1626
  448MOL0     H61820  -0.378   5.773   2.860 -2.0388  1.2506 -2.1727
  448MOL0     H61821   0.355   6.029   2.568  0.4372  0.1735  0.7122
  448MOL0     H61822   0.548   5.969   2.456 -1.1147 -0.4594 -0.5970
  448MOL0     H61823   0.535   6.035   2.300 -2.4546  0.5476  0.7656
  448MOL0     H61824   0.657   6.099   2.434  0.7388 -0.8396  0.5303
  449MOL0     O61825   6.743   2.116   3.470  0.6241 -0.3329 -0.1290
  449MOL0     C61826   6.745   2.138   3.592 -0.1999  0.2227 -0.4106
  449MOL0     O61827   6.857   2.112   3.672  0.1284  0.3915  0.8747
  449MOL0     C61828   6.968   2.080   3.594 -0.6426  0.1282  0.5113
  449MOL0     C61829   6.989   1.953   3.536  1.0350  0.1059  0.2936
  449MOL0     C61830   7.098   1.916   3.463  0.2938 -0.1812 -0.1274
  449MOL0     C61831   7.202   2.003   3.425  0.6535  0.3289 -0.0914
  449MOL0     O61832   7.308   1.966   3.349 -0.4429  0.1119  0.5435
  449MOL0     C61833   7.350   1.832   3.333 -0.6887 -0.0436  0.0890
  449MOL0     C61834   7.470   1.826   3.244  0.8766 -0.5248 -0.6639
  449MOL0     C61835   7.606   1.848   3.316 -0.6100  0.5082  0.1248
  449MOL0     C61836   7.609   1.987   3.384  0.5696 -0.2682  0.1539
  449MOL0     C61837   7.754   2.038   3.380 -0.0109  0.1875  0.2311
  449MOL0     C61838   7.758   2.184   3.436 -0.2422 -0.8181 -0.6583
  449MOL0     C61839   7.768   2.201   3.584  0.0298 -0.0234 -0.0857
  449MOL0     C61840   7.803   2.352   3.624  0.4340 -0.8787  0.4081
  449MOL0     N61841   7.679   2.438   3.624 -0.2883  0.2540 -0.4870
  449MOL0     C61842   7.547   2.402   3.668 -0.9594  0.3400  0.3148
  449MOL0     C61843   7.470   2.509   3.655 -0.1096  0.2672  1.0507
  449MOL0     C61844   7.328   2.518   3.689 -0.1827 -0.1772  0.2551
  449MOL0     C61845   7.292   2.454   3.827 -0.4364  0.4426  0.2555
  449MOL0     C61846   7.336   2.544   3.951  0.8832  0.8195 -0.6281
  449MOL0     C61847   7.307   2.477   4.089 -0.0357 -0.3127  0.4879
  449MOL0     O61848   7.331   2.562   4.206 -0.3811  0.6507 -0.5218
  449MOL0     C61849   7.460   2.605   4.234  0.6344  0.5885 -0.4814
  449MOL0     C61850   7.577   2.529   4.206 -0.6496 -0.5056 -0.0353
  449MOL0     C61851   7.709   2.584   4.227  0.8923  0.0063  0.6350
  449MOL0     C61852   7.814   2.484   4.191 -0.0938 -1.0150 -0.5064
  449MOL0     C61853   7.729   2.716   4.282  0.2995  0.1711  0.1595
  449MOL0     C61854   7.858   2.779   4.300  0.3275 -0.3330 -0.0639
  449MOL0     O61855   7.856   2.896   4.370 -0.2754  0.0499 -0.3888
  449MOL0     C61856   7.962   2.983   4.366 -0.7130  0.8112  0.5729
  449MOL0     C61857   8.082   2.941   4.427 -0.0071  0.0427 -0.7191
  449MOL0     C61858   8.190   3.028   4.427 -0.6260  0.0228 -0.1820
  449MOL0     C61859   8.180   3.154   4.354 -0.4495 -0.4229 -0.2591
  449MOL0     O61860   8.280   3.245   4.338 -0.3071 -0.4199 -0.1547
  449MOL0     C61861   8.414   3.206   4.378  0.4962  1.1478  0.3696
  449MOL0     C61862   8.518   3.320   4.360 -0.9818  0.1752 -1.2511
  449MOL0     C61863   8.660   3.268   4.397 -0.5410 -0.2994 -0.2358
  449MOL0     C61864   8.751   3.394   4.418  0.0088 -0.0174 -0.9359
  449MOL0     C61865   8.889   3.362   4.384  1.0515  0.1380 -0.7684
  449MOL0     C61866   8.962   3.271   4.483 -0.1549  1.0141  0.3965
  449MOL0     C61867   9.092   3.209   4.423 -0.0100 -0.8791  0.4743
  449MOL0     C61868   9.181   3.317   4.353  0.5821 -0.2094  0.2271
  449MOL0    Cl61869   9.234   3.439   4.473  0.2213 -0.4820 -0.1807
  449MOL0     C61870   8.058   3.182   4.288  0.1528  0.5020 -0.5854
  449MOL0     C61871   7.949   3.101   4.293  0.9346  0.4106  0.3258
  449MOL0     O61872   7.961   2.723   4.273 -0.5008  0.0076 -0.1610
  449MOL0     C61873   7.613   2.787   4.319  0.5550  0.3464  0.3160
  449MOL0     C61874   7.480   2.736   4.294  0.1723  0.0216 -0.3649
  449MOL0     N61875   7.555   2.617   3.612 -0.3476  0.0188  0.3173
  449MOL0     N61876   7.668   2.573   3.600 -0.2991 -0.5594 -0.3050
  449MOL0     C61877   7.188   2.133   3.483  0.4795  0.5830  0.1161
  449MOL0     C61878   7.075   2.174   3.559  0.1625  0.2364 -0.4542
  449MOL0     C61879   6.621   2.191   3.662  0.9759  0.3043  0.6354
  449MOL0     C61880   6.615   2.196   3.801 -0.3980  0.1978 -0.1358
  449MOL0     C61881   6.498   2.213   3.874  0.5021  0.0430 -0.4741
  449MOL0     C61882   6.378   2.241   3.818  0.3659  0.2754  0.0936
  449MOL0     O61883   6.263   2.244   3.898  0.6327  0.2828  0.3438
  449MOL0     C61884   6.151   2.171   3.852  0.1000  0.1048  0.7201
  449MOL0     C61885   6.035   2.195   3.945  0.1124  0.4138 -0.0049
  449MOL0     C61886   5.996   2.338   3.966 -0.6060  0.5941 -0.4434
  449MOL0     C61887   5.860   2.372   4.030  0.2612  0.5751  0.2082
  449MOL0     C61888   5.805   2.271   4.128  0.2314  0.1250  0.1998
  449MOL0     C61889   5.767   2.185   4.207 -0.8117  0.4219 -0.3477
  449MOL0     C61890   6.378   2.254   3.681 -0.0531  0.1972 -0.1484
  449MOL0     C61891   6.499   2.237   3.603  0.0038 -0.5530  0.0955
  449MOL0     C61892   6.490   2.272   3.461  1.0052  0.4181 -0.1854
  449MOL0     H61893   6.922   1.870   3.555  0.7841  0.2664  0.1150
  449MOL0     H61894   7.115   1.813   3.434 -0.6339  0.0035 -1.4058
  449MOL0     H61895   7.273   1.776   3.280 -0.5281 -1.0656  0.9054
  449MOL0     H61896   7.364   1.780   3.428 -1.2527  2.1010  1.4182
  449MOL0     H61897   7.469   1.723   3.206 -0.0600 -1.8128  2.5133
  449MOL0     H61898   7.462   1.896   3.160 -1.3988  2.4477  1.7897
  449MOL0     H61899   7.608   1.775   3.398 -0.7475 -0.3154 -0.5909
  449MOL0     H61900   7.692   1.822   3.253 -0.6915 -0.2013  0.2976
  449MOL0     H61901   7.544   2.053   3.326 -0.9505  0.0095  2.0758
  449MOL0     H61902   7.572   1.988   3.487 -0.1705 -3.0470 -0.0186
  449MOL0     H61903   7.796   2.024   3.281 -1.8322 -0.4162 -0.5072
  449MOL0     H61904   7.813   1.968   3.440  0.5572 -0.5842 -1.1863
  449MOL0     H61905   7.838   2.249   3.398 -0.5641  1.6014  2.3821
  449MOL0     H61906   7.661   2.225   3.404  0.0379  0.9012  0.5293
  449MOL0     H61907   7.842   2.126   3.613 -0.9070 -1.7783 -2.0281
  449MOL0     H61908   7.676   2.168   3.633 -1.1541  0.9853 -1.5510
  449MOL0     H61909   7.845   2.358   3.725  0.9023 -1.0383  0.2263
  449MOL0     H61910   7.865   2.406   3.552  0.2644  0.9245  1.5407
  449MOL0     H61911   7.505   2.305   3.694 -1.7645  0.1219 -1.6435
  449MOL0     H61912   7.275   2.463   3.611 -0.0241 -1.4302  1.0005
  449MOL0     H61913   7.299   2.623   3.694 -1.5245 -0.5593  0.7650
  449MOL0     H61914   7.185   2.434   3.829 -0.8217  2.0460 -1.5980
  449MOL0     H61915   7.355   2.365   3.840  2.0305  2.1342  0.7031
  449MOL0     H61916   7.441   2.571   3.957  0.5171  1.9484  1.7285
  449MOL0     H61917   7.283   2.640   3.953 -3.1818 -1.1960 -0.3484
  449MOL0     H61918   7.201   2.450   4.100 -0.9087  1.6890 -1.9391
  449MOL0     H61919   7.363   2.384   4.101  0.2515  0.1407  3.1349
  449MOL0     H61920   7.574   2.432   4.157 -0.5091  0.5201 -2.2306
  449MOL0     H61921   7.857   2.505   4.092  1.5679 -2.1403 -0.0756
  449MOL0     H61922   7.771   2.384   4.186 -2.7210  0.0102  0.2141
  449MOL0     H61923   7.890   2.482   4.270 -1.9626  0.3837  1.4173
  449MOL0     H61924   8.088   2.842   4.472  1.7184  2.2544  4.7693
  449MOL0     H61925   8.282   3.001   4.477 -1.9850 -0.5294  2.2087
  449MOL0     H61926   8.422   3.172   4.481 -0.9843 -2.6400 -0.5933
  449MOL0     H61927   8.448   3.125   4.312  0.5228  1.9164 -0.5927
  449MOL0     H61928   8.508   3.358   4.258  1.7155  0.6613 -1.3953
  449MOL0     H61929   8.493   3.395   4.435 -0.9846 -2.2093  1.3085
  449MOL0     H61930   8.691   3.209   4.310 -2.3407  1.7166 -2.3738
  449MOL0     H61931   8.659   3.203   4.484  1.4849  1.1295  0.9428
  449MOL0     H61932   8.750   3.426   4.522  1.8105 -0.9896 -0.5863
  449MOL0     H61933   8.722   3.478   4.354  0.9248  0.5230 -0.6503
  449MOL0     H61934   8.888   3.319   4.283  2.5917  2.1522 -1.7211
  449MOL0     H61935   8.937   3.460   4.371  0.2904  0.4032 -1.8489
  449MOL0     H61936   8.897   3.185   4.505  1.4048  0.3204  2.6621
  449MOL0     H61937   8.969   3.335   4.571  0.2593 -1.6511  2.4339
  449MOL0     H61938   9.068   3.132   4.349 -0.6493 -0.6587  0.4457
  449MOL0     H61939   9.156   3.168   4.502  1.0823 -0.3804 -0.1217
  449MOL0     H61940   9.133   3.368   4.269  1.0704  0.0442  0.0948
  449MOL0     H61941   9.276   3.280   4.313  0.5862 -0.6506  0.6378
  449MOL0     H61942   8.050   3.271   4.226  2.3767 -0.4873 -2.4187
  449MOL0     H61943   7.859   3.121   4.235  0.8153 -2.8027 -0.8338
  449MOL0     H61944   7.608   2.887   4.360  1.8943  0.9915 -0.9711
  449MOL0     H61945   7.389   2.794   4.302  0.1054  0.2319 -2.2660
  449MOL0     H61946   7.264   2.209   3.467 -1.4342  2.7015  0.5886
  449MOL0     H61947   7.076   2.274   3.600 -0.1916 -0.1022  0.4008
  449MOL0     H61948   6.697   2.151   3.857 -0.9358  1.5031  1.7877
  449MOL0     H61949   6.500   2.206   3.983 -0.5381  0.5101 -0.4148
  449MOL0     H61950   6.123   2.213   3.755 -0.0985 -2.2396 -0.3269
  449MOL0     H61951   6.168   2.064   3.836  0.7171  0.3875 -0.6244
  449MOL0     H61952   6.056   2.140   4.037  1.0305  0.2050 -0.3318
  449MOL0     H61953   5.943   2.142   3.917 -1.6748  4.0159 -1.7228
  449MOL0     H61954   6.070   2.381   4.034 -0.3136 -1.0447  0.3104
  449MOL0     H61955   6.002   2.384   3.867 -1.3765  1.5383 -0.0767
  449MOL0     H61956   5.783   2.371   3.953 -2.3556  0.7003  2.6706
  449MOL0     H61957   5.873   2.472   4.073  0.0129  0.5967  0.2347
  449MOL0     H61958   5.726   2.110   4.271 -0.3392 -1.5336 -2.2418
  449MOL0     H61959   6.287   2.288   3.633  0.7866 -0.4745 -2.3670
  449MOL0     H61960   6.393   2.315   3.436  0.2974 -0.5046  0.8870
  449MOL0     H61961   6.572   2.334   3.423  0.3869 -0.1198 -2.6043
  449MOL0     H61962   6.496   2.182   3.398 -0.3325 -0.4733  0.8989
  450MOL0     O61963   2.956   5.098   0.309  0.1170  0.7883  0.3072
  450MOL0     C61964   2.874   5.109   0.214  0.0026  0.5946  0.5847
  450MOL0     O61965   2.905   5.161   0.088 -1.0021  0.1217  0.2403
  450MOL0     C61966   3.041   5.192   0.068  0.0757  0.0797 -0.5222
  450MOL0     C61967   3.128   5.109  -0.009  0.0223 -0.0443 -0.4909
  450MOL0     C61968   3.264   5.141  -0.025 -1.0401  0.5542  0.1308
  450MOL0     C61969   3.316   5.260   0.037  1.0360  0.4678 -0.2641
  450MOL0     O61970   3.452   5.295   0.037  0.6215  0.2144  0.2161
  450MOL0     C61971   3.547   5.208  -0.025 -0.6717  0.0031 -0.4284
  450MOL0     C61972   3.695   5.271  -0.019  0.2231 -0.4925  0.2526
  450MOL0     C61973   3.796   5.189  -0.107 -0.7048 -1.4705  0.1197
  450MOL0     C61974   3.902   5.295  -0.156  0.2899 -0.2775 -0.1640
  450MOL0     C61975   4.014   5.222  -0.213  0.3079  0.7747 -0.1822
  450MOL0     C61976   4.119   5.306  -0.277 -0.2187 -0.1907  0.1666
  450MOL0     C61977   4.248   5.232  -0.279 -0.5404 -0.5654  0.0748
  450MOL0     C61978   4.355   5.315  -0.368  0.4664  0.5017 -0.4135
  450MOL0     N61979   4.448   5.212  -0.419  0.4120  0.4455  0.4272
  450MOL0     C61980   4.541   5.141  -0.346 -0.1981 -0.1604 -0.0119
  450MOL0     C61981   4.603   5.054  -0.436 -0.1194  0.0072  0.6079
  450MOL0     C61982   4.716   4.947  -0.429 -0.5681 -0.4135  1.1793
  450MOL0     C61983   4.673   4.813  -0.493  0.4094  0.1956  0.7743
  450MOL0     C61984   4.540   4.750  -0.436  1.5080 -0.7717 -0.5161
  450MOL0     C61985   4.404   4.812  -0.487 -0.7241  0.7040  0.2135
  450MOL0     O61986   4.297   4.725  -0.468  0.3258  0.8930 -0.5708
  450MOL0     C61987   4.171   4.775  -0.485  0.6366 -0.0541  0.4213
  450MOL0     C61988   4.065   4.695  -0.462 -0.3468  0.6854  0.7716
  450MOL0     C61989   3.929   4.739  -0.471  0.1530 -0.1316 -0.1912
  450MOL0     C61990   3.828   4.623  -0.445  0.1865 -0.3168  0.7322
  450MOL0     C61991   3.896   4.874  -0.516 -0.0786  0.4598 -0.2392
  450MOL0     C61992   3.759   4.928  -0.527  0.3329 -0.0403 -0.3923
  450MOL0     O61993   3.658   4.858  -0.469  0.6370  0.5015  0.4682
  450MOL0     C61994   3.526   4.906  -0.484 -0.3977 -0.4363  0.3981
  450MOL0     C61995   3.472   5.000  -0.392  0.4082 -1.2067  0.4233
  450MOL0     C61996   3.340   5.053  -0.401 -0.2820  0.0364  1.4582
  450MOL0     C61997   3.256   5.006  -0.508 -0.6676 -0.2689 -0.2498
  450MOL0     O61998   3.133   5.055  -0.534 -0.0433 -0.5908 -0.6001
  450MOL0     C61999   3.030   5.028  -0.436 -1.1095 -0.0349  0.3275
  450MOL0     C62000   2.890   5.027  -0.492 -1.1676 -0.5033 -0.1652
  450MOL0     C62001   2.840   4.887  -0.543  0.2591  0.0324 -0.4376
  450MOL0     C62002   2.694   4.910  -0.583  0.6026  0.3591  0.5579
  450MOL0     C62003   2.628   4.799  -0.667 -0.4632  0.4059  0.6242
  450MOL0     C62004   2.698   4.768  -0.800 -0.0181  0.2226  0.3290
  450MOL0     C62005   2.638   4.650  -0.879 -0.3318 -0.1305  0.6392
  450MOL0     C62006   2.650   4.517  -0.800 -0.1441 -0.1772  0.5128
  450MOL0    Cl62007   2.585   4.376  -0.892 -0.2887 -0.3052 -0.1848
  450MOL0     C62008   3.310   4.921  -0.599  0.0440 -0.7631 -1.2267
  450MOL0     C62009   3.434   4.860  -0.580  0.8839 -0.4569  0.0735
  450MOL0     O62010   3.747   5.040  -0.573  0.1536 -0.6121 -0.2500
  450MOL0     C62011   4.005   4.956  -0.538  0.0415  0.2339 -0.3165
  450MOL0     C62012   4.138   4.907  -0.528  0.8102 -0.3224 -0.3745
  450MOL0     N62013   4.548   5.076  -0.561 -0.6282 -0.3803  0.3955
  450MOL0     N62014   4.460   5.173  -0.548  0.4700  0.0927 -0.6353
  450MOL0     C62015   3.228   5.339   0.110 -0.2786  0.1137 -0.7126
  450MOL0     C62016   3.092   5.307   0.128  0.6653 -0.2974  0.4586
  450MOL0     C62017   2.739   5.048   0.233 -0.1607  0.0514  0.2119
  450MOL0     C62018   2.656   5.027   0.123 -0.0429 -0.1011  0.4143
  450MOL0     C62019   2.531   4.967   0.124  0.1855  0.3876 -0.2864
  450MOL0     C62020   2.479   4.918   0.241  0.2614 -0.0114  0.1101
  450MOL0     O62021   2.349   4.872   0.244 -0.3941  0.4131  0.5600
  450MOL0     C62022   2.297   4.826   0.375  0.3733 -1.0163  0.5522
  450MOL0     C62023   2.152   4.788   0.353  0.3107 -0.1033 -0.2921
  450MOL0     C62024   2.063   4.754   0.471 -0.1964  0.2864  0.0376
  450MOL0     C62025   1.919   4.728   0.435 -0.2930 -0.8609 -0.7394
  450MOL0     C62026   1.834   4.682   0.542  0.3833  0.2320  0.0913
  450MOL0     C62027   1.777   4.633   0.636 -0.7088 -0.9499 -0.5158
  450MOL0     C62028   2.560   4.935   0.361  0.5184 -0.8048 -0.3867
  450MOL0     C62029   2.690   4.988   0.358 -1.1227  0.2265  0.1973
  450MOL0     C62030   2.771   4.988   0.485 -0.2540 -0.5804 -0.5223
  450MOL0     H62031   3.086   5.018  -0.049 -2.5729  0.4508  0.8969
  450MOL0     H62032   3.331   5.075  -0.079 -2.7949  0.2074 -1.7539
  450MOL0     H62033   3.507   5.211  -0.127 -1.5431  1.2381 -0.0730
  450MOL0     H62034   3.546   5.106   0.016 -2.0168  0.8477  1.7919
  450MOL0     H62035   3.690   5.377  -0.047 -2.5809 -0.5103  0.3797
  450MOL0     H62036   3.731   5.270   0.084  2.1047  0.5622 -0.3359
  450MOL0     H62037   3.846   5.117  -0.042 -1.4840 -0.4197  1.9622
  450MOL0     H62038   3.756   5.144  -0.198 -0.4749  3.2814 -2.6880
  450MOL0     H62039   3.859   5.373  -0.221 -1.4869 -0.6097  0.5451
  450MOL0     H62040   3.942   5.340  -0.065  0.6120 -0.0204 -0.4309
  450MOL0     H62041   3.974   5.153  -0.288 -1.6063  2.5743 -0.9196
  450MOL0     H62042   4.063   5.170  -0.131 -1.2031 -1.3539 -0.5651
  450MOL0     H62043   4.082   5.325  -0.379 -1.1204 -1.9975  0.1186
  450MOL0     H62044   4.126   5.401  -0.224  1.4746 -0.0794 -0.1970
  450MOL0     H62045   4.225   5.137  -0.329  0.7749 -0.7748 -0.1927
  450MOL0     H62046   4.284   5.215  -0.177 -0.2489  1.0684  0.2718
  450MOL0     H62047   4.302   5.356  -0.455 -0.9966  1.1916  0.7689
  450MOL0     H62048   4.404   5.397  -0.316  0.6714 -0.7203  1.3951
  450MOL0     H62049   4.556   5.155  -0.239 -1.6939 -1.7349  0.4486
  450MOL0     H62050   4.744   4.932  -0.324  2.1050  1.1088  0.7816
  450MOL0     H62051   4.807   4.988  -0.473 -0.4929  0.3384  2.0101
  450MOL0     H62052   4.659   4.836  -0.599  1.7374  1.9523  0.9217
  450MOL0     H62053   4.752   4.740  -0.478 -1.3908 -2.2408 -0.9005
  450MOL0     H62054   4.529   4.643  -0.459 -1.3034 -0.0445 -3.1819
  450MOL0     H62055   4.532   4.763  -0.327  1.2442  0.6069 -0.6882
  450MOL0     H62056   4.381   4.905  -0.435 -0.3423  1.4713 -0.9586
  450MOL0     H62057   4.414   4.843  -0.591 -3.6252 -3.3852 -1.5569
  450MOL0     H62058   4.088   4.592  -0.439  1.9172  0.6707 -1.1945
  450MOL0     H62059   3.756   4.675  -0.380  0.3648 -1.1524  1.6209
  450MOL0     H62060   3.863   4.528  -0.404  1.9759 -0.7872 -1.6707
  450MOL0     H62061   3.779   4.598  -0.539  1.3292  0.3502 -0.0687
  450MOL0     H62062   3.536   5.046  -0.318  0.0609  1.7119 -0.9606
  450MOL0     H62063   3.308   5.130  -0.332  0.4854  2.2037 -0.4470
  450MOL0     H62064   3.038   4.928  -0.391 -3.8456 -0.7839 -0.6244
  450MOL0     H62065   3.044   5.109  -0.364  4.9409  1.9888 -2.4537
  450MOL0     H62066   2.827   5.070  -0.414  0.8621  0.1165  1.2462
  450MOL0     H62067   2.890   5.101  -0.572  1.0448 -0.9482 -0.6550
  450MOL0     H62068   2.847   4.818  -0.458 -0.8062  1.0102  0.4787
  450MOL0     H62069   2.906   4.848  -0.621  0.1518 -2.0673  0.4730
  450MOL0     H62070   2.691   5.004  -0.637 -1.3548 -0.5225 -0.9931
  450MOL0     H62071   2.634   4.917  -0.491 -0.5155 -2.0722  0.1014
  450MOL0     H62072   2.617   4.712  -0.600  0.2009 -0.4884 -0.4026
  450MOL0     H62073   2.524   4.826  -0.686 -0.3300 -0.4050 -1.4871
  450MOL0     H62074   2.805   4.748  -0.797  0.1329  0.1524 -2.3461
  450MOL0     H62075   2.681   4.857  -0.862 -2.3409 -0.0411  0.4728
  450MOL0     H62076   2.674   4.643  -0.982 -0.0311 -0.8744  0.7901
  450MOL0     H62077   2.529   4.665  -0.882 -0.3049  0.1509  1.0708
  450MOL0     H62078   2.593   4.524  -0.707  0.4858  0.1809  0.8780
  450MOL0     H62079   2.757   4.500  -0.783  0.3153  0.4641 -1.4636
  450MOL0     H62080   3.249   4.888  -0.683  0.7909 -0.4925 -1.8966
  450MOL0     H62081   3.460   4.787  -0.656 -3.6181 -1.7723 -0.5026
  450MOL0     H62082   3.988   5.055  -0.578 -1.7681  0.1771  0.2156
  450MOL0     H62083   4.215   4.978  -0.557  0.7114 -0.0368  0.0405
  450MOL0     H62084   3.269   5.427   0.157 -2.2308  0.4855  0.4065
  450MOL0     H62085   3.023   5.366   0.186 -0.9329 -1.3558 -0.3024
  450MOL0     H62086   2.676   5.076   0.028  0.2312 -1.4302 -0.2290
  450MOL0     H62087   2.465   4.979   0.038 -1.3909  1.1512  0.9861
  450MOL0     H62088   2.361   4.742   0.403  0.5008 -1.9349 -2.1852
  450MOL0     H62089   2.286   4.906   0.449  0.9161 -0.4881  0.0723
  450MOL0     H62090   2.136   4.697   0.295 -1.9059  0.2406 -0.3049
  450MOL0     H62091   2.105   4.863   0.289 -2.2351 -3.1102 -2.2616
  450MOL0     H62092   2.112   4.667   0.516 -1.9968  0.3997  2.4174
  450MOL0     H62093   2.061   4.838   0.542 -3.2612  1.9980 -1.8861
  450MOL0     H62094   1.918   4.653   0.355  1.4194 -0.9202 -0.7410
  450MOL0     H62095   1.880   4.819   0.388  3.5633  1.6187  0.3120
  450MOL0     H62096   1.728   4.593   0.724  2.5033  0.5453  2.1745
  450MOL0     H62097   2.521   4.903   0.457  1.4537 -1.2001 -0.1180
  450MOL0     H62098   2.714   4.939   0.564 -0.1483 -0.0535 -0.1140
  450MOL0     H62099   2.868   4.937   0.486 -0.2972 -0.7338  2.2658
  450MOL0     H62100   2.797   5.089   0.519  0.7668 -1.1167  0.3435
  451MOL0     O62101   2.301   0.632   0.510  0.3113  0.4546 -0.0959
  451MOL0     C62102   2.347   0.638   0.617  0.0928 -0.1595 -0.1579
  451MOL0     O62103   2.474   0.672   0.645 -0.3124  0.2531  1.0043
  451MOL0     C62104   2.564   0.729   0.557  1.1556  0.4539  0.0322
  451MOL0     C62105   2.548   0.866   0.517 -0.2105 -0.1086 -0.1151
  451MOL0     C62106   2.634   0.916   0.420 -0.0900  0.1584  0.7351
  451MOL0     C62107   2.733   0.844   0.361 -0.4612  0.6946  0.3732
  451MOL0     O62108   2.815   0.891   0.265 -0.1999 -0.0850 -0.1692
  451MOL0     C62109   2.771   0.890   0.127  0.2508 -0.6892 -0.7739
  451MOL0     C62110   2.838   0.999   0.050 -0.1149  0.6764  0.6507
  451MOL0     C62111   2.976   0.959  -0.010  0.0502  1.3390  1.1689
  451MOL0     C62112   3.015   1.060  -0.123  0.1328 -0.1799 -0.6174
  451MOL0     C62113   3.131   1.007  -0.206  0.5908 -0.0621 -0.0795
  451MOL0     C62114   3.184   1.105  -0.309 -0.7991 -0.2370 -1.1365
  451MOL0     C62115   3.316   1.042  -0.339 -0.2740 -0.9212  1.1844
  451MOL0     C62116   3.363   1.104  -0.471  1.0268  0.0129  0.4984
  451MOL0     N62117   3.475   1.033  -0.529  0.4472 -0.3434 -0.4243
  451MOL0     C62118   3.475   0.899  -0.571  0.7961 -0.2452  0.2156
  451MOL0     C62119   3.605   0.875  -0.601 -0.0505 -0.5412 -0.1766
  451MOL0     C62120   3.664   0.747  -0.645  0.0886  0.0552  0.0592
  451MOL0     C62121   3.721   0.757  -0.790 -0.1882 -0.0350  0.2495
  451MOL0     C62122   3.771   0.610  -0.825 -0.5632 -0.0093  1.8154
  451MOL0     C62123   3.876   0.623  -0.949  1.0306  0.3717 -0.0538
  451MOL0     O62124   3.989   0.694  -0.902  0.4550 -0.7689 -0.1713
  451MOL0     C62125   4.058   0.631  -0.796  0.4369 -0.6139 -0.1940
  451MOL0     C62126   4.062   0.681  -0.663 -0.3377 -1.2477 -0.0250
  451MOL0     C62127   4.140   0.626  -0.559 -1.0964 -0.6890  0.5537
  451MOL0     C62128   4.152   0.706  -0.436 -0.7204 -1.0107 -0.7166
  451MOL0     C62129   4.222   0.516  -0.581  0.5664  0.4706  0.2016
  451MOL0     C62130   4.314   0.441  -0.491  0.6851  0.5380 -0.4774
  451MOL0     O62131   4.351   0.317  -0.527 -0.5870 -0.5669  0.0270
  451MOL0     C62132   4.444   0.241  -0.460 -0.1691  0.7796 -0.4752
  451MOL0     C62133   4.445   0.102  -0.487 -0.4774  0.4658  0.0804
  451MOL0     C62134   4.544   0.016  -0.431 -0.5070 -0.3227 -0.4798
  451MOL0     C62135   4.639   0.069  -0.332  0.9514  0.1987  0.0079
  451MOL0     O62136   4.722  -0.025  -0.285 -0.1196 -0.5096 -0.1228
  451MOL0     C62137   4.853   0.020  -0.231 -0.3418 -0.2262 -0.1068
  451MOL0     C62138   4.954  -0.091  -0.247  0.1740 -0.7037  0.1233
  451MOL0     C62139   4.982  -0.174  -0.127 -0.6607  0.2038 -0.0180
  451MOL0     C62140   5.098  -0.268  -0.154  0.8058 -0.0599 -0.7226
  451MOL0     C62141   5.127  -0.351  -0.035  0.0813 -0.3310  0.0674
  451MOL0     C62142   5.026  -0.460  -0.004 -0.6918 -0.2583  0.2821
  451MOL0     C62143   5.064  -0.527   0.130 -0.0285 -0.4126  0.8789
  451MOL0     C62144   4.961  -0.636   0.159 -0.3674 -0.5712 -0.3276
  451MOL0    Cl62145   4.801  -0.578   0.200  0.2960  0.1273 -0.3977
  451MOL0     C62146   4.640   0.202  -0.303 -0.1016  0.6116  0.2809
  451MOL0     C62147   4.546   0.288  -0.368 -0.1383 -0.7034  0.2210
  451MOL0     O62148   4.359   0.495  -0.391  0.3896 -0.1080 -1.6720
  451MOL0     C62149   4.211   0.462  -0.711 -0.0916  0.0994 -0.1156
  451MOL0     C62150   4.131   0.520  -0.811  0.1131  0.3509  0.3115
  451MOL0     N62151   3.681   0.981  -0.564 -0.5487  0.0747  0.4508
  451MOL0     N62152   3.603   1.079  -0.527  0.0939  0.2487  0.0027
  451MOL0     C62153   2.742   0.709   0.400  0.1031 -0.6944 -0.8524
  451MOL0     C62154   2.661   0.653   0.500  0.0493 -0.1696  0.2596
  451MOL0     C62155   2.262   0.582   0.730  0.0527 -0.2380  0.2435
  451MOL0     C62156   2.333   0.539   0.843 -0.3326 -0.7597  0.1314
  451MOL0     C62157   2.272   0.476   0.953  0.7993  0.0544 -0.1385
  451MOL0     C62158   2.139   0.441   0.933 -0.0302 -0.5828 -0.2517
  451MOL0     O62159   2.086   0.362   1.026  1.2689  0.3345  0.5400
  451MOL0     C62160   1.986   0.433   1.106 -0.3518  0.0431 -0.3923
  451MOL0     C62161   1.969   0.371   1.245  0.2705 -0.2038  1.1421
  451MOL0     C62162   1.867   0.436   1.336  0.2728  0.1452 -0.7126
  451MOL0     C62163   1.725   0.454   1.271 -0.5435 -0.9081  0.3837
  451MOL0     C62164   1.650   0.333   1.247  0.1730 -0.3253 -0.2568
  451MOL0     C62165   1.564   0.248   1.240  0.7515 -0.4362 -0.2330
  451MOL0     C62166   2.064   0.480   0.826 -0.0225 -0.7012 -1.0144
  451MOL0     C62167   2.124   0.555   0.723  0.4006  0.4914 -0.1112
  451MOL0     C62168   2.028   0.602   0.625 -0.4054 -0.1450 -0.2428
  451MOL0     H62169   2.469   0.923   0.566  0.9812  0.7162  0.9256
  451MOL0     H62170   2.624   1.020   0.390  0.8313 -0.2821 -1.2160
  451MOL0     H62171   2.663   0.908   0.124  0.1561 -1.3124 -2.2067
  451MOL0     H62172   2.795   0.792   0.085  1.0964 -0.3722 -1.0461
  451MOL0     H62173   2.783   1.034  -0.039 -0.0942  2.7123  1.3819
  451MOL0     H62174   2.856   1.091   0.107 -1.8065 -1.7647  5.6178
  451MOL0     H62175   3.049   0.964   0.072  1.1504  3.5977  0.1368
  451MOL0     H62176   2.979   0.853  -0.037 -2.2216  1.4268  0.3990
  451MOL0     H62177   2.932   1.067  -0.194  0.6048  0.9052 -1.0826
  451MOL0     H62178   3.038   1.158  -0.080  0.3508  0.2174 -1.6114
  451MOL0     H62179   3.093   0.914  -0.249 -1.7941 -1.1245  3.7758
  451MOL0     H62180   3.211   0.977  -0.138 -0.0056  0.6202  0.9578
  451MOL0     H62181   3.113   1.124  -0.390 -0.2710 -0.4245 -1.6480
  451MOL0     H62182   3.197   1.202  -0.260  1.9327 -0.8371 -0.4852
  451MOL0     H62183   3.303   0.935  -0.357 -1.6679 -0.5413 -0.2334
  451MOL0     H62184   3.393   1.060  -0.263  1.2552 -1.5731 -0.1375
  451MOL0     H62185   3.278   1.117  -0.538  1.1303 -0.0293  0.3572
  451MOL0     H62186   3.389   1.207  -0.447 -0.0810  0.4538 -0.1198
  451MOL0     H62187   3.386   0.839  -0.588 -1.1702  2.6477 -0.4108
  451MOL0     H62188   3.587   0.670  -0.630  0.3599  0.0406  1.5545
  451MOL0     H62189   3.747   0.730  -0.576  0.2514 -1.1985 -0.4134
  451MOL0     H62190   3.644   0.784  -0.863 -1.8408  1.4242  2.4071
  451MOL0     H62191   3.803   0.828  -0.800  0.0216 -0.3884 -0.5773
  451MOL0     H62192   3.802   0.540  -0.747  0.7128  0.2055  1.5290
  451MOL0     H62193   3.679   0.564  -0.862 -0.1918 -0.0991  0.9873
  451MOL0     H62194   3.905   0.529  -0.997 -1.2278  1.0179 -2.9902
  451MOL0     H62195   3.823   0.683  -1.024 -1.0296  0.9712  1.7761
  451MOL0     H62196   4.007   0.772  -0.646  0.5014 -0.8661  0.7296
  451MOL0     H62197   4.051   0.732  -0.401 -0.0511  1.9917 -0.7332
  451MOL0     H62198   4.211   0.796  -0.456 -0.4888 -0.8704  0.5337
  451MOL0     H62199   4.194   0.646  -0.355 -0.4226  1.0110  0.7012
  451MOL0     H62200   4.365   0.066  -0.551 -2.3406  2.2570  1.2805
  451MOL0     H62201   4.539  -0.090  -0.455 -2.7166 -0.2264 -0.6796
  451MOL0     H62202   4.892   0.112  -0.276 -1.1002  0.4259  0.5061
  451MOL0     H62203   4.853   0.048  -0.125  2.5061  0.1536 -0.1461
  451MOL0     H62204   4.923  -0.148  -0.335 -0.3807  2.0597 -1.5972
  451MOL0     H62205   5.048  -0.041  -0.273 -0.0770 -0.0193  0.5069
  451MOL0     H62206   4.893  -0.227  -0.092 -0.2447 -0.4609  0.0508
  451MOL0     H62207   5.011  -0.103  -0.049  1.6216 -0.6892  0.0172
  451MOL0     H62208   5.187  -0.207  -0.169  0.5656  0.3067 -0.6708
  451MOL0     H62209   5.080  -0.326  -0.244  2.3112 -1.4060 -0.2048
  451MOL0     H62210   5.222  -0.400  -0.057 -0.2918 -0.5694 -1.0987
  451MOL0     H62211   5.147  -0.290   0.053  1.9439  0.5156 -0.8673
  451MOL0     H62212   5.025  -0.534  -0.085  1.2607  2.0773 -2.0682
  451MOL0     H62213   4.928  -0.411   0.005 -1.4114 -1.7628  1.1672
  451MOL0     H62214   5.068  -0.460   0.216 -1.0699  3.0385 -1.5508
  451MOL0     H62215   5.163  -0.572   0.116 -0.2241 -0.4595 -0.5129
  451MOL0     H62216   5.003  -0.692   0.243  4.7548  1.5342 -1.0671
  451MOL0     H62217   4.945  -0.711   0.080  0.1117 -1.9379  0.8339
  451MOL0     H62218   4.698   0.257  -0.229  0.8395  1.5189 -1.0949
  451MOL0     H62219   4.564   0.394  -0.353 -0.7442  0.1278 -3.7088
  451MOL0     H62220   4.247   0.362  -0.732 -2.9372 -1.3851  1.5000
  451MOL0     H62221   4.128   0.476  -0.910 -3.2930  0.8506  0.0749
  451MOL0     H62222   2.819   0.645   0.360 -0.3633 -3.0549  1.7599
  451MOL0     H62223   2.666   0.545   0.508  1.5577 -0.4359 -2.7488
  451MOL0     H62224   2.438   0.565   0.852 -1.0043  2.9518 -1.2004
  451MOL0     H62225   2.333   0.439   1.034 -1.8576  0.9244  2.4098
  451MOL0     H62226   2.012   0.539   1.107 -0.4969  0.1306 -2.3162
  451MOL0     H62227   1.885   0.436   1.063 -0.1587  0.1346 -0.8418
  451MOL0     H62228   2.066   0.367   1.295  1.1084  4.0639  0.2579
  451MOL0     H62229   1.937   0.268   1.226  0.4113 -0.9726  4.4385
  451MOL0     H62230   1.856   0.380   1.429 -0.6183  2.3692  0.6143
  451MOL0     H62231   1.895   0.537   1.368 -2.1214  0.4727  0.5960
  451MOL0     H62232   1.735   0.517   1.182  0.6585 -0.9589  0.4688
  451MOL0     H62233   1.665   0.515   1.339 -0.8770  1.4951 -1.9145
  451MOL0     H62234   1.486   0.176   1.228 -0.0630  0.3450  0.2662
  451MOL0     H62235   1.961   0.447   0.812 -0.5394  1.6077 -3.5107
  451MOL0     H62236   2.072   0.683   0.566 -0.8002  1.6932  1.8655
  451MOL0     H62237   1.985   0.529   0.556  0.4274  0.2926 -1.2411
  451MOL0     H62238   1.951   0.658   0.679  2.1517  1.1999  2.3269
  452MOL0     O62239   3.248   2.586   1.047 -0.0446 -0.3497  0.0650
  452MOL0     C62240   3.247   2.642   1.152 -0.0667 -0.1151  0.1706
  452MOL0     O62241   3.354   2.706   1.211  0.0690 -0.1521 -0.3684
  452MOL0     C62242   3.484   2.692   1.168 -0.5517  0.1930 -0.7701
  452MOL0     C62243   3.543   2.579   1.104  0.2418 -0.3267 -0.0899
  452MOL0     C62244   3.669   2.592   1.041  0.3822 -0.8754  1.0383
  452MOL0     C62245   3.744   2.710   1.049  0.7071  0.4949 -0.2465
  452MOL0     O62246   3.868   2.733   0.996  0.4337  0.1217  0.0695
  452MOL0     C62247   3.945   2.621   0.953  0.3232  0.0807  0.4351
  452MOL0     C62248   4.078   2.665   0.903 -0.2824  0.3479  0.3433
  452MOL0     C62249   4.168   2.552   0.841  0.8721 -0.2738 -0.2552
  452MOL0     C62250   4.211   2.583   0.702  0.1492 -0.1119  0.8794
  452MOL0     C62251   4.289   2.468   0.645 -0.3888 -0.6935 -0.1109
  452MOL0     C62252   4.365   2.498   0.516  0.9756 -0.2091  0.2181
  452MOL0     C62253   4.450   2.378   0.471 -0.5442  0.7892 -0.5169
  452MOL0     C62254   4.570   2.354   0.572  0.5644  0.7100  1.2553
  452MOL0     N62255   4.666   2.468   0.593  0.0196  0.8378  0.7872
  452MOL0     C62256   4.741   2.506   0.490  0.4539 -0.7784 -0.3974
  452MOL0     C62257   4.791   2.628   0.535  0.3963 -0.6001 -0.1668
  452MOL0     C62258   4.884   2.724   0.464  0.0987  0.9099  0.5350
  452MOL0     C62259   4.797   2.834   0.403 -1.0237  0.7515 -0.3184
  452MOL0     C62260   4.885   2.950   0.341  0.6340 -0.0377  0.1426
  452MOL0     C62261   4.932   2.907   0.198  0.0017  0.5516  0.3676
  452MOL0     O62262   5.074   2.896   0.178  0.4904  0.0944  0.4174
  452MOL0     C62263   5.154   3.010   0.179 -0.0066  1.2325 -0.0955
  452MOL0     C62264   5.123   3.124   0.112  0.2198  0.1320 -0.9373
  452MOL0     C62265   5.207   3.236   0.122 -0.0242  0.1059  0.3241
  452MOL0     C62266   5.165   3.364   0.057 -0.4038 -0.3150 -0.5351
  452MOL0     C62267   5.329   3.230   0.197  0.5229 -0.0727  0.6904
  452MOL0     C62268   5.421   3.346   0.216  0.9488 -0.5418  0.3982
  452MOL0     O62269   5.389   3.474   0.180  0.1134 -0.0041 -0.6671
  452MOL0     C62270   5.491   3.558   0.137 -0.2813 -0.0565  0.2757
  452MOL0     C62271   5.460   3.629   0.022  0.6065  0.0700 -0.0110
  452MOL0     C62272   5.555   3.696  -0.053  1.6502  0.5146 -0.4793
  452MOL0     C62273   5.687   3.700   0.000 -0.0329  0.2712  0.9333
  452MOL0     O62274   5.777   3.777  -0.069 -0.5121 -0.5707  0.7819
  452MOL0     C62275   5.920   3.785  -0.037  0.5469  0.7419  0.8644
  452MOL0     C62276   6.005   3.838  -0.155  0.2094 -0.3817 -0.0173
  452MOL0     C62277   6.152   3.817  -0.120  0.5338 -0.4289  0.5136
  452MOL0     C62278   6.251   3.861  -0.227 -0.1464  0.0124  1.4262
  452MOL0     C62279   6.395   3.845  -0.181  0.3645  0.2589 -0.1483
  452MOL0     C62280   6.435   3.697  -0.188 -0.9352 -0.3352 -0.1706
  452MOL0     C62281   6.585   3.685  -0.141  1.0112 -0.2914  0.1570
  452MOL0     C62282   6.603   3.701   0.005 -0.2544  0.3263 -0.3873
  452MOL0    Cl62283   6.771   3.686   0.036 -0.0705 -0.0112  0.2733
  452MOL0     C62284   5.725   3.630   0.118 -0.8252 -0.2431 -0.6108
  452MOL0     C62285   5.625   3.563   0.186  0.2148 -0.6845  0.0510
  452MOL0     O62286   5.524   3.305   0.260 -0.5597 -0.0635  0.1021
  452MOL0     C62287   5.371   3.101   0.242 -0.1248  0.4612  0.2965
  452MOL0     C62288   5.282   2.994   0.234 -0.1330 -0.7517 -0.3930
  452MOL0     N62289   4.740   2.660   0.657  0.3555  0.7822 -0.4849
  452MOL0     N62290   4.666   2.558   0.697 -0.3267  0.1989 -0.1411
  452MOL0     C62291   3.676   2.822   1.100 -0.6690 -0.5010 -0.5950
  452MOL0     C62292   3.554   2.814   1.165  0.9408  0.3521 -0.4227
  452MOL0     C62293   3.108   2.669   1.206 -0.1207 -0.3978 -0.7816
  452MOL0     C62294   2.999   2.656   1.130  0.5685  0.1664  0.1803
  452MOL0     C62295   2.869   2.663   1.177  0.0151  0.3763 -0.0340
  452MOL0     C62296   2.852   2.686   1.311  1.0627 -0.4953  0.1035
  452MOL0     O62297   2.723   2.721   1.341  0.0244  0.0256 -0.8253
  452MOL0     C62298   2.687   2.744   1.483 -1.0847  0.4626  0.6259
  452MOL0     C62299   2.561   2.826   1.506  0.5965  0.2065  0.2198
  452MOL0     C62300   2.439   2.739   1.536  0.8696  0.2259 -0.3476
  452MOL0     C62301   2.313   2.837   1.563 -0.5560 -0.3781  0.3512
  452MOL0     C62302   2.325   2.918   1.684  0.0237  0.8312  0.0418
  452MOL0     C62303   2.334   2.997   1.776 -0.3540 -0.0392  0.4250
  452MOL0     C62304   2.960   2.713   1.391 -0.2402  0.1295 -0.6006
  452MOL0     C62305   3.087   2.710   1.343  0.3083 -0.3248 -0.2521
  452MOL0     C62306   3.197   2.753   1.429 -0.0313 -0.6815  0.5244
  452MOL0     H62307   3.482   2.489   1.099 -0.6938  0.2113  1.1397
  452MOL0     H62308   3.706   2.505   0.986 -1.7210 -1.3470  0.2654
  452MOL0     H62309   3.887   2.565   0.878  2.4048  0.5945 -1.6839
  452MOL0     H62310   3.960   2.554   1.038  0.5795 -0.8713 -0.3334
  452MOL0     H62311   4.062   2.748   0.833 -0.7356  0.7544  0.9180
  452MOL0     H62312   4.143   2.695   0.985  0.6906 -5.1402  1.9213
  452MOL0     H62313   4.262   2.541   0.896  0.2903 -3.0823  0.3770
  452MOL0     H62314   4.118   2.455   0.851  0.4133 -0.0760 -0.5759
  452MOL0     H62315   4.124   2.598   0.637 -1.9799 -2.9294  2.8457
  452MOL0     H62316   4.270   2.675   0.694 -0.0627 -0.0981 -0.9982
  452MOL0     H62317   4.212   2.390   0.640 -0.3044 -0.7912  0.1441
  452MOL0     H62318   4.368   2.443   0.716  1.7747 -0.0726 -2.1484
  452MOL0     H62319   4.298   2.523   0.433  1.9041  0.1545 -0.4389
  452MOL0     H62320   4.413   2.596   0.508  0.9524 -0.2618 -0.5727
  452MOL0     H62321   4.488   2.383   0.369 -0.0222 -2.0200 -0.5312
  452MOL0     H62322   4.386   2.290   0.466 -0.3971  0.6128  0.5445
  452MOL0     H62323   4.535   2.315   0.668  0.6063 -2.7507 -0.0008
  452MOL0     H62324   4.632   2.270   0.540 -1.4329 -0.1174 -0.6813
  452MOL0     H62325   4.766   2.460   0.395  1.2157 -0.4744 -0.3547
  452MOL0     H62326   4.928   2.665   0.383 -0.2925 -0.1917  1.1075
  452MOL0     H62327   4.963   2.770   0.524  1.2609  2.1063 -1.7520
  452MOL0     H62328   4.728   2.797   0.326  2.8057 -0.0778 -3.6812
  452MOL0     H62329   4.744   2.880   0.487 -2.9780  2.2900 -2.2678
  452MOL0     H62330   4.810   3.027   0.325  0.1578 -0.8550 -1.9683
  452MOL0     H62331   4.967   2.975   0.409 -0.1947 -1.9249  1.9414
  452MOL0     H62332   4.892   2.808   0.175 -1.8347  1.3907 -0.2654
  452MOL0     H62333   4.882   2.968   0.121  0.8084 -0.0042 -0.6238
  452MOL0     H62334   5.025   3.135   0.066 -0.4204  1.5407  0.6413
  452MOL0     H62335   5.156   3.439   0.136  0.2756 -2.5863  1.8522
  452MOL0     H62336   5.074   3.354  -0.002  0.6832  0.7702 -2.4905
  452MOL0     H62337   5.238   3.402  -0.015 -1.1673  0.3141 -1.0032
  452MOL0     H62338   5.357   3.629  -0.011  0.2904 -0.9884  0.9221
  452MOL0     H62339   5.537   3.754  -0.142  0.9929 -2.0444 -2.1297
  452MOL0     H62340   5.949   3.839   0.054  1.9640 -0.7934  1.3661
  452MOL0     H62341   5.951   3.682  -0.018  1.9586  0.6476 -1.5673
  452MOL0     H62342   5.982   3.776  -0.242  0.2218 -0.2608 -0.1069
  452MOL0     H62343   5.978   3.944  -0.161  4.5840  0.8298 -3.4331
  452MOL0     H62344   6.166   3.709  -0.104 -1.7680 -1.0768 -1.2369
  452MOL0     H62345   6.163   3.878  -0.030 -4.7846  0.1702  1.0401
  452MOL0     H62346   6.241   3.969  -0.238  0.6123 -0.0194  0.2539
  452MOL0     H62347   6.250   3.804  -0.320  3.2582  0.4322  0.9871
  452MOL0     H62348   6.460   3.898  -0.251 -1.3213  1.7249 -0.6616
  452MOL0     H62349   6.396   3.883  -0.078 -0.8923  1.2269 -0.4656
  452MOL0     H62350   6.428   3.667  -0.293  2.7325 -0.7451 -0.4265
  452MOL0     H62351   6.373   3.635  -0.122 -3.9375  0.4608 -2.0018
  452MOL0     H62352   6.649   3.750  -0.201 -0.7435  2.9160  1.5108
  452MOL0     H62353   6.620   3.583  -0.157  5.9376  1.1290  0.3749
  452MOL0     H62354   6.539   3.630   0.059 -4.1755  2.0945 -2.2836
  452MOL0     H62355   6.572   3.802   0.031 -0.4294  0.3298 -0.6072
  452MOL0     H62356   5.819   3.624   0.170 -0.8146 -1.5372 -0.7544
  452MOL0     H62357   5.647   3.516   0.281 -0.0331  1.2049  1.1081
  452MOL0     H62358   5.467   3.081   0.288  0.7180 -0.7782 -1.8476
  452MOL0     H62359   5.314   2.901   0.280 -2.5241 -1.5341 -0.1914
  452MOL0     H62360   3.731   2.915   1.099  0.5362 -1.0739  2.3318
  452MOL0     H62361   3.519   2.903   1.217 -1.7173 -1.9883  2.1551
  452MOL0     H62362   3.018   2.659   1.023  0.1282 -1.9567 -0.0020
  452MOL0     H62363   2.789   2.642   1.106  1.3364 -3.6893 -0.5657
  452MOL0     H62364   2.663   2.650   1.533 -2.1763 -0.4321 -1.4535
  452MOL0     H62365   2.771   2.786   1.539 -0.5729  0.6336 -0.2692
  452MOL0     H62366   2.535   2.885   1.418 -1.3162 -0.6596  0.1590
  452MOL0     H62367   2.589   2.880   1.598 -2.3593 -3.8655  3.8996
  452MOL0     H62368   2.412   2.676   1.450  0.2044 -1.6253  1.1478
  452MOL0     H62369   2.450   2.676   1.624 -0.1201 -1.3230 -1.2756
  452MOL0     H62370   2.223   2.777   1.576 -0.8071 -0.2735 -0.8569
  452MOL0     H62371   2.300   2.903   1.477 -1.5083 -0.1302  0.6703
  452MOL0     H62372   2.334   3.062   1.861  0.0170  0.5276 -0.0054
  452MOL0     H62373   2.958   2.744   1.496 -1.4396 -1.6488 -0.0517
  452MOL0     H62374   3.239   2.849   1.398  1.2378 -0.5028  2.6251
  452MOL0     H62375   3.167   2.756   1.534  1.4502 -2.0623  1.0128
  452MOL0     H62376   3.279   2.682   1.426  0.3057 -0.2645 -0.8546
  453MOL0     O62377  10.484   8.079   8.741  0.4268  0.1183 -0.3118
  453MOL0     C62378  10.442   8.086   8.851 -0.4124 -0.1220 -0.9845
  453MOL0     O62379  10.514   8.050   8.968  0.0861  0.0687  0.5206
  453MOL0     C62380  10.633   7.978   8.968 -1.2142 -0.6312  0.0759
  453MOL0     C62381  10.723   8.003   9.068 -0.9716  0.2511 -0.6655
  453MOL0     C62382  10.858   7.952   9.065 -0.1206 -0.3760 -0.4914
  453MOL0     C62383  10.894   7.865   8.970 -0.3341 -0.3163 -0.1298
  453MOL0     O62384  11.021   7.810   8.985  0.0398  0.1878 -0.3375
  453MOL0     C62385  11.074   7.702   8.908 -0.1509  0.1688 -0.0504
  453MOL0     C62386  11.218   7.671   8.943 -0.0788  0.6098 -0.5255
  453MOL0     C62387  11.295   7.588   8.831  0.0901  1.1562 -0.5320
  453MOL0     C62388  11.444   7.538   8.862 -0.0422  0.0120 -0.2750
  453MOL0     C62389  11.493   7.451   8.747  0.1984 -0.0961  0.2157
  453MOL0     C62390  11.649   7.436   8.753 -0.0791  0.1628  0.0615
  453MOL0     C62391  11.701   7.400   8.888  0.1322  0.5112  0.5503
  453MOL0     C62392  11.837   7.332   8.890 -0.3826 -0.7625 -0.3810
  453MOL0     N62393  11.938   7.424   8.822 -0.0328 -0.5257  0.2641
  453MOL0     C62394  11.979   7.439   8.690  0.0907 -0.3326  0.3140
  453MOL0     C62395  12.068   7.544   8.689  0.1648 -0.2046  0.6112
  453MOL0     C62396  12.158   7.606   8.587  0.9686 -0.2582  0.5802
  453MOL0     C62397  12.081   7.601   8.449  0.0391  0.3672  0.8026
  453MOL0     C62398  12.174   7.662   8.341  0.9279 -0.4137 -0.4685
  453MOL0     C62399  12.152   7.588   8.213 -0.9779 -0.2999  0.5427
  453MOL0     O62400  12.022   7.627   8.165  1.5028 -0.9332 -0.4260
  453MOL0     C62401  11.949   7.556   8.069  0.1018  0.7236  0.2085
  453MOL0     C62402  11.987   7.427   8.024  0.1947 -0.1344  0.3370
  453MOL0     C62403  11.890   7.356   7.939 -0.3346 -0.5710  0.2011
  453MOL0     C62404  11.936   7.222   7.898 -0.8581  0.1309 -0.0974
  453MOL0     C62405  11.764   7.412   7.907 -0.1673  0.1571 -0.4525
  453MOL0     C62406  11.659   7.340   7.820 -0.3465 -0.7476  0.2436
  453MOL0     O62407  11.547   7.417   7.801  0.5343 -0.7411  0.6414
  453MOL0     C62408  11.453   7.398   7.700 -0.6648  0.5500 -0.0774
  453MOL0     C62409  11.323   7.440   7.728  0.3523  0.6812  0.4730
  453MOL0     C62410  11.221   7.425   7.632  0.2198 -0.4820  0.2409
  453MOL0     C62411  11.254   7.390   7.501 -0.5146 -0.0221  0.4262
  453MOL0     O62412  11.168   7.389   7.393  0.2281 -0.0322 -0.4840
  453MOL0     C62413  11.026   7.374   7.410  0.9443 -0.3455  0.0745
  453MOL0     C62414  10.955   7.312   7.286 -0.4633 -0.1450 -0.2255
  453MOL0     C62415  10.971   7.399   7.162  0.6978 -0.1567  0.4702
  453MOL0     C62416  10.918   7.343   7.030  0.1338  0.4142 -0.5019
  453MOL0     C62417  10.769   7.334   7.034 -1.1400 -0.9528 -0.4945
  453MOL0     C62418  10.719   7.191   7.047 -0.2295  0.8924 -0.0040
  453MOL0     C62419  10.565   7.204   7.073 -0.7051 -0.5299 -0.0447
  453MOL0     C62420  10.496   7.064   7.075  0.0771  0.0725 -0.0377
  453MOL0    Cl62421  10.319   7.079   7.074 -0.2545  0.2386 -0.3752
  453MOL0     C62422  11.389   7.348   7.472  0.0559  0.2638 -0.1535
  453MOL0     C62423  11.490   7.360   7.569  0.7906  0.0984 -0.5859
  453MOL0     O62424  11.669   7.223   7.793  0.2425  0.6940  0.1953
  453MOL0     C62425  11.727   7.534   7.967 -0.3606 -0.8707  0.4296
  453MOL0     C62426  11.826   7.608   8.039 -0.2880  0.1416 -0.3060
  453MOL0     N62427  12.094   7.571   8.822 -0.5093 -0.2684  0.6799
  453MOL0     N62428  12.008   7.510   8.893 -0.2850  0.0092  0.3252
  453MOL0     C62429  10.805   7.839   8.864 -0.2290 -0.1339  0.0364
  453MOL0     C62430  10.674   7.893   8.863 -0.0541  0.0358 -0.0150
  453MOL0     C62431  10.303   8.137   8.866  0.1061  0.5050  0.6572
  453MOL0     C62432  10.242   8.119   8.988 -0.6487  0.1003  0.3062
  453MOL0     C62433  10.116   8.175   9.010  0.6467 -0.5549  0.2913
  453MOL0     C62434  10.045   8.240   8.913 -0.6588  0.8139  1.4378
  453MOL0     O62435   9.918   8.279   8.952 -0.1448 -0.5216  0.3894
  453MOL0     C62436   9.841   8.355   8.856 -0.1431 -0.0848 -0.0519
  453MOL0     C62437   9.692   8.352   8.908 -1.0132 -0.0363  0.1463
  453MOL0     C62438   9.597   8.416   8.805  0.7401  0.0595 -0.5070
  453MOL0     C62439   9.442   8.419   8.854  0.0153  0.9654 -0.2325
  453MOL0     C62440   9.366   8.542   8.826  0.4632 -0.4532  0.1468
  453MOL0     C62441   9.283   8.639   8.809  0.1452  0.1157 -0.8348
  453MOL0     C62442  10.111   8.268   8.787 -0.7661 -1.0687 -0.1625
  453MOL0     C62443  10.242   8.219   8.766  0.4879 -0.6717 -0.6354
  453MOL0     C62444  10.302   8.239   8.626  0.1707  0.0574 -0.0434
  453MOL0     H62445  10.683   8.057   9.153 -1.5406 -1.2111  0.0478
  453MOL0     H62446  10.928   7.979   9.143 -1.7492  0.0595  0.8706
  453MOL0     H62447  11.067   7.727   8.802 -1.6057 -0.3202 -0.0944
  453MOL0     H62448  11.008   7.617   8.928  0.6204 -0.3819  0.1896
  453MOL0     H62449  11.269   7.766   8.961 -0.4129  0.2923  2.6815
  453MOL0     H62450  11.211   7.626   9.042 -0.0893  1.6033 -0.0632
  453MOL0     H62451  11.239   7.498   8.803 -0.1632  1.3704 -0.7181
  453MOL0     H62452  11.291   7.650   8.741 -2.6768 -1.2120 -2.2101
  453MOL0     H62453  11.508   7.624   8.882  2.3687 -1.3553 -1.6476
  453MOL0     H62454  11.433   7.493   8.961 -0.4694  0.9118  0.1005
  453MOL0     H62455  11.462   7.497   8.653  0.8024  2.6938  1.2723
  453MOL0     H62456  11.438   7.357   8.751 -1.5218  0.8812  0.4060
  453MOL0     H62457  11.677   7.361   8.679  3.8784 -1.3884  2.7798
  453MOL0     H62458  11.685   7.534   8.721 -3.0733  2.3717  2.8273
  453MOL0     H62459  11.633   7.331   8.938 -1.6754  1.0614 -1.0509
  453MOL0     H62460  11.704   7.488   8.954 -4.2190  0.7032  0.7416
  453MOL0     H62461  11.867   7.312   8.994  0.9470  0.5243 -0.4940
  453MOL0     H62462  11.827   7.234   8.843 -2.1614 -0.6547 -0.2728
  453MOL0     H62463  11.949   7.391   8.597  2.9999  0.1157 -0.9390
  453MOL0     H62464  12.254   7.554   8.581  0.3341 -1.3703 -0.1038
  453MOL0     H62465  12.179   7.710   8.616 -0.8472  0.3129 -0.0042
  453MOL0     H62466  12.054   7.500   8.419  3.1907  0.0446 -1.5091
  453MOL0     H62467  11.991   7.663   8.451 -0.5439 -0.3456 -1.2219
  453MOL0     H62468  12.158   7.769   8.324  4.5103 -0.1469 -3.3267
  453MOL0     H62469  12.281   7.655   8.362  1.0100  2.2303  0.3787
  453MOL0     H62470  12.220   7.621   8.134 -0.1786 -0.1079  1.2963
  453MOL0     H62471  12.173   7.482   8.234 -0.3641 -0.7356 -1.9216
  453MOL0     H62472  12.086   7.387   8.041 -0.2151 -1.7034 -0.7810
  453MOL0     H62473  12.041   7.208   7.925 -0.6585 -0.3017 -1.0795
  453MOL0     H62474  11.926   7.217   7.789  0.5087  0.2658 -0.2501
  453MOL0     H62475  11.878   7.140   7.941  1.4265 -1.6831 -0.3242
  453MOL0     H62476  11.304   7.482   7.826  1.9547  0.2125  1.0107
  453MOL0     H62477  11.122   7.464   7.651  0.6801  1.0473 -0.3190
  453MOL0     H62478  11.014   7.299   7.489  1.6157 -0.5211  0.0178
  453MOL0     H62479  10.978   7.465   7.446  1.4155  0.7955 -2.0864
  453MOL0     H62480  11.005   7.217   7.267  0.5389  0.4234 -0.4621
  453MOL0     H62481  10.849   7.288   7.304 -0.1298  0.2578  2.9117
  453MOL0     H62482  11.077   7.416   7.142  0.0597 -0.1165 -3.7075
  453MOL0     H62483  10.931   7.498   7.183 -1.4259 -0.9685  0.5040
  453MOL0     H62484  10.956   7.242   7.011  2.0027  0.9213  0.2986
  453MOL0     H62485  10.941   7.419   6.955  0.0364  0.8424 -0.1068
  453MOL0     H62486  10.721   7.395   7.111  0.7506 -0.2640  0.1950
  453MOL0     H62487  10.740   7.384   6.941  2.1159  4.1801  0.8165
  453MOL0     H62488  10.767   7.141   7.131 -1.6194 -0.0508  0.2552
  453MOL0     H62489  10.739   7.135   6.955  0.5443 -2.2723  1.9476
  453MOL0     H62490  10.522   7.273   7.000 -0.7483  0.2553  0.7080
  453MOL0     H62491  10.556   7.258   7.168  1.1713 -1.0539  0.4688
  453MOL0     H62492  10.523   7.010   7.167 -3.6576 -0.1245  1.1250
  453MOL0     H62493  10.534   7.013   6.986  2.0303  2.1889 -0.5115
  453MOL0     H62494  11.417   7.313   7.374  1.8470 -3.3400  1.4543
  453MOL0     H62495  11.594   7.331   7.552  0.8274 -0.8595  1.0632
  453MOL0     H62496  11.633   7.585   7.949  0.1396 -0.3275 -0.7411
  453MOL0     H62497  11.812   7.710   8.074  0.7253  0.2112 -0.0581
  453MOL0     H62498  10.843   7.771   8.788  1.3698 -0.0701  0.7347
  453MOL0     H62499  10.610   7.876   8.777  2.2315  2.0092 -2.2768
  453MOL0     H62500  10.297   8.066   9.065  0.4778  2.0089  0.8843
  453MOL0     H62501  10.056   8.154   9.097 -1.5831  1.5696 -0.6112
  453MOL0     H62502   9.878   8.458   8.845  2.2884 -1.1007 -2.4110
  453MOL0     H62503   9.853   8.305   8.760 -1.9401 -1.0756  0.1952
  453MOL0     H62504   9.697   8.408   9.002  0.1809  0.1183  0.0051
  453MOL0     H62505   9.652   8.255   8.940 -3.9191  1.3679  1.1280
  453MOL0     H62506   9.622   8.520   8.785 -1.9235  1.4223  2.3825
  453MOL0     H62507   9.601   8.356   8.713 -2.9923  1.4078 -1.7268
  453MOL0     H62508   9.450   8.419   8.963  2.3681  0.9093 -0.3558
  453MOL0     H62509   9.399   8.324   8.821  2.9726 -0.9541  1.0433
  453MOL0     H62510   9.212   8.719   8.812 -3.5343 -2.8325 -0.6523
  453MOL0     H62511  10.053   8.317   8.709 -1.8872 -2.1419 -0.0276
  453MOL0     H62512  10.240   8.307   8.566  0.7322 -0.1600 -0.8918
  453MOL0     H62513  10.403   8.279   8.643  0.6054 -1.0180 -0.0504
  453MOL0     H62514  10.301   8.145   8.569  1.1714  0.2533 -0.4129
  454MOL0     O62515   5.788   8.072  10.392 -0.4743  0.1403 -0.4976
  454MOL0     C62516   5.718   8.121  10.306  0.5554  0.5461  0.1487
  454MOL0     O62517   5.763   8.194  10.204 -0.5580  0.6580 -0.2889
  454MOL0     C62518   5.888   8.247  10.203 -0.5981  0.9796 -0.2623
  454MOL0     C62519   5.930   8.321  10.313 -0.0254 -0.8153  0.2320
  454MOL0     C62520   6.064   8.360  10.311 -0.3892  0.5535 -0.7044
  454MOL0     C62521   6.152   8.332  10.209 -0.2873  0.7823 -0.4216
  454MOL0     O62522   6.283   8.377  10.214 -0.0220 -0.1885 -0.2352
  454MOL0     C62523   6.326   8.463  10.321  0.2064 -0.1147  0.2107
  454MOL0     C62524   6.462   8.530  10.288 -0.3177 -0.7533  0.5246
  454MOL0     C62525   6.490   8.653  10.370 -0.2293  0.2212 -0.2852
  454MOL0     C62526   6.519   8.610  10.520 -0.5767  0.3107 -0.5445
  454MOL0     C62527   6.521   8.727  10.615 -0.2053 -0.0381 -0.4507
  454MOL0     C62528   6.661   8.780  10.655 -0.6274  0.3341  0.9675
  454MOL0     C62529   6.761   8.816  10.535 -0.0746  0.2947 -0.4693
  454MOL0     C62530   6.898   8.867  10.600 -0.2778  0.0569  0.4752
  454MOL0     N62531   6.951   8.780  10.710 -0.2672 -0.5699 -0.8015
  454MOL0     C62532   6.952   8.638  10.714 -0.1300 -0.4366  0.1035
  454MOL0     C62533   6.965   8.603  10.842  0.2896  0.4134  0.2683
  454MOL0     C62534   6.974   8.466  10.906 -0.2466 -1.0244  0.7877
  454MOL0     C62535   7.117   8.414  10.892  0.0901 -0.3390 -0.0530
  454MOL0     C62536   7.221   8.492  10.966 -0.1212  0.1156  0.1560
  454MOL0     C62537   7.327   8.413  11.027  0.3723  0.5071 -0.6930
  454MOL0     O62538   7.283   8.307  11.119 -0.0438 -0.3567  0.4847
  454MOL0     C62539   7.392   8.239  11.177 -0.2069  0.1194  0.5659
  454MOL0     C62540   7.368   8.126  11.265 -0.1914 -0.2590  0.4083
  454MOL0     C62541   7.473   8.041  11.306 -0.8209  0.6668  0.5119
  454MOL0     C62542   7.437   7.903  11.365  0.1541 -0.8056  0.2153
  454MOL0     C62543   7.608   8.081  11.288 -0.4653  0.7663  0.4799
  454MOL0     C62544   7.722   8.008  11.359 -0.0284 -0.2767  0.3139
  454MOL0     O62545   7.846   8.065  11.348  0.3342 -0.2553 -0.8559
  454MOL0     C62546   7.943   8.024  11.430 -0.2447 -0.6925  0.3666
  454MOL0     C62547   8.027   8.121  11.476  1.2611  0.2035 -0.2086
  454MOL0     C62548   8.150   8.080  11.542 -0.1363  0.8504  0.2609
  454MOL0     C62549   8.181   7.944  11.550 -0.3971  0.6168 -0.6910
  454MOL0     O62550   8.302   7.903  11.596  0.1783 -0.0850 -0.5713
  454MOL0     C62551   8.413   7.990  11.581 -0.2151 -0.1675 -0.4136
  454MOL0     C62552   8.541   7.923  11.618 -0.1421 -0.5819  0.6780
  454MOL0     C62553   8.558   7.798  11.521  0.2516  0.1884 -0.3138
  454MOL0     C62554   8.707   7.772  11.499  0.8225 -0.0221  0.5619
  454MOL0     C62555   8.781   7.734  11.623 -0.0529  0.6876 -0.9138
  454MOL0     C62556   8.922   7.682  11.583 -0.4625  0.5152 -0.6029
  454MOL0     C62557   8.921   7.531  11.586 -0.0681 -0.1880 -0.1941
  454MOL0     C62558   8.854   7.469  11.464 -0.9138 -0.1379 -0.2450
  454MOL0    Cl62559   8.895   7.299  11.462 -0.5261 -0.0763  0.1661
  454MOL0     C62560   8.093   7.849  11.502 -0.2633  0.2468 -0.6091
  454MOL0     C62561   7.975   7.889  11.447 -0.3557  0.6036 -1.3363
  454MOL0     O62562   7.703   7.916  11.430 -0.1272 -0.0737 -0.8683
  454MOL0     C62563   7.632   8.207  11.225  0.2776 -0.4027  0.1324
  454MOL0     C62564   7.527   8.276  11.163 -0.0393  0.3386  0.4359
  454MOL0     N62565   6.958   8.718  10.919  0.7066 -0.1102 -0.3496
  454MOL0     N62566   6.951   8.821  10.842 -0.1917 -0.1233 -0.0749
  454MOL0     C62567   6.118   8.252  10.106  0.2681 -0.0406  0.1960
  454MOL0     C62568   5.985   8.208  10.106 -0.1894 -0.1844 -0.3206
  454MOL0     C62569   5.575   8.102  10.310  0.2950 -0.0564  0.0962
  454MOL0     C62570   5.498   8.175  10.228  0.5678 -1.2921  0.9031
  454MOL0     C62571   5.354   8.158  10.222 -0.0310 -0.3952 -0.4058
  454MOL0     C62572   5.294   8.048  10.283 -0.1816 -0.0664 -0.4612
  454MOL0     O62573   5.164   8.009  10.276 -0.0974 -0.2687 -0.7942
  454MOL0     C62574   5.081   8.096  10.192  0.7432  0.9718 -0.8284
  454MOL0     C62575   4.934   8.059  10.187  0.3779 -0.2913 -0.1795
  454MOL0     C62576   4.904   7.960  10.076 -0.2934 -0.4803  0.4813
  454MOL0     C62577   4.753   7.910  10.072 -0.3159  0.3214 -0.6359
  454MOL0     C62578   4.735   7.835   9.949 -0.6758 -0.4456  0.0498
  454MOL0     C62579   4.722   7.777   9.841  0.3151 -0.3463  0.2104
  454MOL0     C62580   5.374   7.972  10.364 -0.6293  0.2972 -1.5518
  454MOL0     C62581   5.512   8.000  10.389 -0.5196 -0.1793 -0.4308
  454MOL0     C62582   5.584   7.909  10.483  0.3038  0.0674  0.2322
  454MOL0     H62583   5.862   8.335  10.397  1.8148 -1.8952  1.9942
  454MOL0     H62584   6.097   8.411  10.401 -0.7312  0.0209 -0.2677
  454MOL0     H62585   6.339   8.399  10.408  1.8320  0.4208  0.3895
  454MOL0     H62586   6.248   8.539  10.335 -1.2438 -1.6694  1.0039
  454MOL0     H62587   6.540   8.453  10.290  0.4976 -0.2545 -3.3853
  454MOL0     H62588   6.461   8.575  10.188 -1.3857  0.5944  1.0959
  454MOL0     H62589   6.572   8.713  10.331  3.4012 -1.7065  3.5597
  454MOL0     H62590   6.399   8.714  10.362 -1.6341 -1.3202  2.4853
  454MOL0     H62591   6.438   8.550  10.563  0.8594 -0.5874  1.0273
  454MOL0     H62592   6.608   8.549  10.537 -0.5289  0.2909 -0.8567
  454MOL0     H62593   6.472   8.692  10.706 -1.5310  1.0491 -0.7194
  454MOL0     H62594   6.464   8.811  10.573 -2.2432 -0.1138  1.9190
  454MOL0     H62595   6.648   8.863  10.725  1.4632 -0.2239  2.1266
  454MOL0     H62596   6.706   8.701  10.717 -0.6267  0.1234  0.7008
  454MOL0     H62597   6.707   8.891  10.475 -0.4774  0.4187  0.0381
  454MOL0     H62598   6.777   8.730  10.469  0.4671 -0.9880  1.2674
  454MOL0     H62599   6.974   8.878  10.523  0.6980 -0.4674  1.3416
  454MOL0     H62600   6.879   8.965  10.646 -0.3773 -1.4318  3.8881
  454MOL0     H62601   6.947   8.573  10.627  0.1563  1.3482 -1.3072
  454MOL0     H62602   6.909   8.395  10.856  0.0761 -1.8103  1.4645
  454MOL0     H62603   6.944   8.465  11.011 -0.2016 -2.1053  0.7935
  454MOL0     H62604   7.103   8.318  10.943 -0.7928  0.7884  1.9521
  454MOL0     H62605   7.151   8.408  10.789  0.5968 -1.6028  0.1638
  454MOL0     H62606   7.269   8.572  10.908 -0.0976  0.4950  0.6906
  454MOL0     H62607   7.165   8.538  11.048  0.7382 -0.6042  1.1624
  454MOL0     H62608   7.390   8.363  10.953  2.4071 -0.6746  1.6643
  454MOL0     H62609   7.383   8.492  11.078 -0.5932 -0.1042  1.4741
  454MOL0     H62610   7.264   8.094  11.277  0.1944 -2.7554 -1.9526
  454MOL0     H62611   7.449   7.892  11.473  0.0495 -1.3167  0.1793
  454MOL0     H62612   7.496   7.821  11.324  0.6016 -2.1281  3.2477
  454MOL0     H62613   7.333   7.878  11.339  0.2354 -1.0100  0.0885
  454MOL0     H62614   7.997   8.224  11.458 -1.7190 -0.2839  1.3751
  454MOL0     H62615   8.211   8.152  11.596  0.0603  0.2059  0.8987
  454MOL0     H62616   8.424   8.025  11.478  1.4277 -3.1910 -1.3871
  454MOL0     H62617   8.401   8.077  11.646 -2.8669 -1.1699  0.5936
  454MOL0     H62618   8.624   7.992  11.600  1.1107 -2.3579 -0.7412
  454MOL0     H62619   8.547   7.883  11.719  1.8030 -1.4578  0.2603
  454MOL0     H62620   8.501   7.820  11.431 -1.6983 -0.8426  0.6124
  454MOL0     H62621   8.517   7.702  11.554  1.6556 -0.3614 -0.1085
  454MOL0     H62622   8.758   7.859  11.456 -1.6055  0.8704 -0.7285
  454MOL0     H62623   8.718   7.696  11.421  1.7156 -0.3691  1.0182
  454MOL0     H62624   8.795   7.824  11.684  0.3749  0.8878 -1.3056
  454MOL0     H62625   8.722   7.662  11.682  0.0874 -0.6818 -2.3811
  454MOL0     H62626   8.993   7.717  11.659  1.3210 -0.2888 -1.8352
  454MOL0     H62627   8.958   7.724  11.489 -1.4094  1.7311 -0.4524
  454MOL0     H62628   8.879   7.489  11.678  0.8617 -0.3622  0.1576
  454MOL0     H62629   9.024   7.496  11.580  0.2144  0.7033 -0.6972
  454MOL0     H62630   8.887   7.522  11.375 -0.5584  0.3499  0.1663
  454MOL0     H62631   8.749   7.494  11.482 -0.3293  1.5779  1.0412
  454MOL0     H62632   8.122   7.749  11.532  2.3125  0.8939 -0.7542
  454MOL0     H62633   7.922   7.806  11.400 -1.5654  0.6594 -0.1484
  454MOL0     H62634   7.733   8.245  11.210 -0.3532  0.5901 -2.1043
  454MOL0     H62635   7.558   8.365  11.110 -0.2566  1.7904  2.5944
  454MOL0     H62636   6.182   8.225  10.023  1.2612  2.1245  0.1893
  454MOL0     H62637   5.948   8.142  10.029 -0.8056 -1.4328  0.9986
  454MOL0     H62638   5.541   8.253  10.165  1.6670 -0.6626  2.3589
  454MOL0     H62639   5.305   8.232  10.160  0.3784  1.1507  1.0604
  454MOL0     H62640   5.089   8.199  10.229 -3.1437  1.0469  0.2237
  454MOL0     H62641   5.126   8.082  10.093  0.6106  0.0922 -0.7697
  454MOL0     H62642   4.874   8.147  10.162  1.4244  0.6745  0.6107
  454MOL0     H62643   4.906   8.022  10.286  1.2160  0.7896  0.4812
  454MOL0     H62644   4.932   8.003   9.979  1.1305  0.7696  1.3949
  454MOL0     H62645   4.968   7.872  10.085 -1.5054 -1.3713  0.5673
  454MOL0     H62646   4.682   7.990  10.091  0.1895 -0.2263  5.6751
  454MOL0     H62647   4.736   7.848  10.161  1.6289  2.3076  1.2285
  454MOL0     H62648   4.720   7.716   9.753  1.4256  0.2917 -0.2891
  454MOL0     H62649   5.325   7.907  10.435  3.2344  0.6172  1.8111
  454MOL0     H62650   5.653   7.845  10.428  2.7753  3.6549 -1.1630
  454MOL0     H62651   5.637   7.966  10.560 -0.4437  1.6139 -0.3601
  454MOL0     H62652   5.507   7.848  10.532 -0.1831  0.9362  0.5891
  455MOL0     O62653   4.446   1.175   5.582 -0.1692  0.1749 -0.1222
  455MOL0     C62654   4.529   1.090   5.563 -0.0156 -0.0398  1.3017
  455MOL0     O62655   4.656   1.094   5.607  0.2052  0.0102  0.3741
  455MOL0     C62656   4.713   1.211   5.663  0.1275 -0.6259  0.2791
  455MOL0     C62657   4.752   1.316   5.573 -0.2215  0.9078  1.0288
  455MOL0     C62658   4.808   1.434   5.639 -0.3692 -0.1566 -0.6952
  455MOL0     C62659   4.823   1.440   5.774 -0.1033  0.1079 -0.5048
  455MOL0     O62660   4.869   1.550   5.840 -0.4092  0.3986 -0.1804
  455MOL0     C62661   4.980   1.619   5.785 -1.0843 -1.0374 -0.5689
  455MOL0     C62662   5.116   1.538   5.799  0.8795  0.3355 -0.5565
  455MOL0     C62663   5.143   1.496   5.947 -0.1974 -0.5798 -0.3359
  455MOL0     C62664   5.263   1.413   5.972 -0.1538 -0.7985  0.2337
  455MOL0     C62665   5.400   1.455   5.900 -0.6457 -0.6822 -0.1689
  455MOL0     C62666   5.513   1.359   5.927  0.3117 -0.0885  0.2373
  455MOL0     C62667   5.629   1.389   5.825 -0.7246  0.4795  0.6257
  455MOL0     C62668   5.760   1.322   5.871  0.2959 -0.1629  0.0836
  455MOL0     N62669   5.818   1.407   5.972  0.4753  0.2424 -0.0202
  455MOL0     C62670   5.884   1.520   5.948  0.2425  1.1438  1.0131
  455MOL0     C62671   5.934   1.548   6.065  0.0344 -0.2357 -0.0608
  455MOL0     C62672   6.030   1.658   6.083  0.2199  0.1539  0.2582
  455MOL0     C62673   6.134   1.650   6.197  0.1189  0.3833  0.6989
  455MOL0     C62674   6.282   1.665   6.143 -0.2486  0.6623 -0.2737
  455MOL0     C62675   6.392   1.685   6.251  0.1535  0.8204 -0.4691
  455MOL0     O62676   6.517   1.652   6.196 -0.0102 -0.1986  0.7229
  455MOL0     C62677   6.628   1.638   6.278  0.1612 -0.2554 -0.3529
  455MOL0     C62678   6.752   1.612   6.226 -0.5604 -0.0379  0.8887
  455MOL0     C62679   6.876   1.603   6.297  0.3678  0.0243 -0.4335
  455MOL0     C62680   6.998   1.559   6.222 -0.9019  0.3308 -0.0839
  455MOL0     C62681   6.862   1.602   6.439 -0.4246  0.2316 -0.1575
  455MOL0     C62682   6.977   1.600   6.518  0.6488 -0.2845 -0.2120
  455MOL0     O62683   7.002   1.714   6.581  0.5178 -0.5330 -0.2690
  455MOL0     C62684   7.132   1.725   6.622 -0.3493 -0.3249 -0.2466
  455MOL0     C62685   7.160   1.733   6.762 -0.0951  0.1289  0.1642
  455MOL0     C62686   7.285   1.736   6.821  0.3013 -0.2342  0.0458
  455MOL0     C62687   7.394   1.736   6.734 -0.0178  0.4555 -0.0357
  455MOL0     O62688   7.518   1.733   6.780 -0.5489  0.4854  0.3376
  455MOL0     C62689   7.620   1.654   6.708  0.7214  0.4205 -0.1018
  455MOL0     C62690   7.739   1.643   6.793 -0.2773 -0.4933 -0.7329
  455MOL0     C62691   7.839   1.769   6.766 -0.3595 -0.5193 -0.8449
  455MOL0     C62692   7.932   1.795   6.887 -0.1062  0.0757  0.0921
  455MOL0     C62693   7.990   1.673   6.960  0.3198 -0.8447  0.1954
  455MOL0     C62694   8.086   1.583   6.883  0.0161 -0.6016 -0.1402
  455MOL0     C62695   8.206   1.659   6.822 -0.4041  0.7548 -0.2586
  455MOL0     C62696   8.298   1.555   6.751  0.4402  0.6261  0.5391
  455MOL0    Cl62697   8.389   1.481   6.875  0.4337  0.4686 -0.4234
  455MOL0     C62698   7.369   1.747   6.590 -0.3874  0.3145  0.3188
  455MOL0     C62699   7.239   1.743   6.539  0.5004 -0.3899  0.0525
  455MOL0     O62700   7.039   1.495   6.523 -0.5767 -0.4331  0.0129
  455MOL0     C62701   6.736   1.608   6.502  0.3879  0.3298  0.1351
  455MOL0     C62702   6.624   1.630   6.421 -0.3949 -0.3521  0.2069
  455MOL0     N62703   5.892   1.460   6.163 -0.0233  0.1596  0.0510
  455MOL0     N62704   5.826   1.369   6.103 -0.2418 -0.0039  0.0526
  455MOL0     C62705   4.786   1.327   5.851 -0.2034 -0.2611 -0.5627
  455MOL0     C62706   4.731   1.213   5.796  0.0423 -0.3647 -0.4080
  455MOL0     C62707   4.490   0.963   5.494  0.4492  0.3658 -0.3454
  455MOL0     C62708   4.578   0.854   5.492  0.3380  0.3248 -0.6200
  455MOL0     C62709   4.542   0.726   5.436  0.7823  0.2093 -0.4587
  455MOL0     C62710   4.418   0.713   5.376  0.1507  0.2733 -0.6504
  455MOL0     O62711   4.393   0.590   5.319  0.1120 -1.3217  0.3260
  455MOL0     C62712   4.262   0.546   5.300  0.4777  0.0178 -0.0094
  455MOL0     C62713   4.280   0.419   5.228 -0.7439  0.3926 -0.1482
  455MOL0     C62714   4.148   0.361   5.158  0.1348  0.1368  0.5926
  455MOL0     C62715   4.133   0.215   5.150 -0.0329  0.5764 -1.1994
  455MOL0     C62716   4.112   0.159   5.280  0.4334  0.6126  0.4153
  455MOL0     C62717   4.101   0.115   5.391  0.2101  0.2267  0.2341
  455MOL0     C62718   4.330   0.819   5.369  0.3438  0.1006 -0.0391
  455MOL0     C62719   4.361   0.946   5.420 -0.3154 -0.7350  0.0317
  455MOL0     C62720   4.247   1.048   5.404 -0.1692  0.1602  0.1900
  455MOL0     H62721   4.744   1.312   5.465  2.5186  1.9902  0.7046
  455MOL0     H62722   4.826   1.521   5.577 -1.9935  0.1439 -0.7858
  455MOL0     H62723   5.005   1.718   5.825 -2.5026 -0.8096 -0.1980
  455MOL0     H62724   4.951   1.641   5.682 -1.3891 -0.0867 -0.2917
  455MOL0     H62725   5.104   1.454   5.730  0.8904  0.7083 -1.0165
  455MOL0     H62726   5.199   1.598   5.761  1.8418 -2.1586 -2.7077
  455MOL0     H62727   5.147   1.590   6.003 -0.4368  0.4756 -2.0038
  455MOL0     H62728   5.072   1.425   5.991 -0.3493 -1.4476 -1.8887
  455MOL0     H62729   5.271   1.418   6.081 -4.6991 -0.0750  0.7203
  455MOL0     H62730   5.262   1.309   5.939  0.2197 -0.4710 -0.8606
  455MOL0     H62731   5.433   1.553   5.938  1.6470 -2.1554  1.9115
  455MOL0     H62732   5.376   1.462   5.793 -1.2761 -1.5890 -0.0907
  455MOL0     H62733   5.542   1.371   6.031 -1.1296 -1.6690  0.8769
  455MOL0     H62734   5.475   1.257   5.911 -0.5839 -0.1700  2.5206
  455MOL0     H62735   5.639   1.497   5.809 -0.5641  0.7059  2.1417
  455MOL0     H62736   5.602   1.343   5.729 -0.5701  2.7241 -0.5541
  455MOL0     H62737   5.745   1.217   5.900 -2.0523 -0.3285 -1.4437
  455MOL0     H62738   5.838   1.326   5.795  1.4880 -0.0817  1.2792
  455MOL0     H62739   5.907   1.563   5.851 -0.1140  2.0357  1.3127
  455MOL0     H62740   5.974   1.751   6.096 -0.0280 -0.1830  1.7446
  455MOL0     H62741   6.089   1.655   5.991 -0.9350 -0.7841 -0.4813
  455MOL0     H62742   6.109   1.732   6.265 -0.2286  1.0458 -0.2188
  455MOL0     H62743   6.124   1.560   6.259  0.3434  1.8927  3.0363
  455MOL0     H62744   6.311   1.574   6.090  1.2922  1.0986 -0.2203
  455MOL0     H62745   6.281   1.754   6.080  1.0423  2.4515  2.1257
  455MOL0     H62746   6.393   1.792   6.278 -0.5138  0.9726 -1.0175
  455MOL0     H62747   6.367   1.618   6.334 -1.1984  0.7143 -0.9410
  455MOL0     H62748   6.739   1.606   6.118  0.5729  2.6964  0.5239
  455MOL0     H62749   6.996   1.561   6.113 -0.2744 -2.5621 -0.2273
  455MOL0     H62750   7.044   1.463   6.249  0.9041  1.4110  0.7900
  455MOL0     H62751   7.073   1.630   6.256  1.3104 -2.3464  1.0203
  455MOL0     H62752   7.078   1.728   6.833 -0.1075 -5.3484  0.1617
  455MOL0     H62753   7.295   1.743   6.929 -0.2053 -2.5145  0.3014
  455MOL0     H62754   7.577   1.556   6.684 -0.4166  1.7509 -4.4742
  455MOL0     H62755   7.651   1.704   6.616  0.4525  1.0033  0.1187
  455MOL0     H62756   7.714   1.652   6.899  1.4173  2.7901 -0.4886
  455MOL0     H62757   7.799   1.551   6.787  2.3205  0.9707  0.9707
  455MOL0     H62758   7.780   1.857   6.739  1.3066  0.4051 -1.6253
  455MOL0     H62759   7.908   1.740   6.686  1.4669 -0.8121  0.7597
  455MOL0     H62760   7.872   1.862   6.949  2.7425  1.3589  1.6528
  455MOL0     H62761   8.019   1.855   6.861  1.7329 -2.2898  0.4717
  455MOL0     H62762   8.045   1.709   7.048 -1.5414  2.5784  0.1486
  455MOL0     H62763   7.910   1.612   7.003 -1.6902  1.5628  0.1491
  455MOL0     H62764   8.030   1.540   6.800 -0.3507  0.6447 -0.5544
  455MOL0     H62765   8.111   1.497   6.946  0.4755 -0.3501  0.0310
  455MOL0     H62766   8.261   1.704   6.906  1.4824 -0.0330 -1.0220
  455MOL0     H62767   8.183   1.738   6.751  2.3538  2.6783  0.7977
  455MOL0     H62768   8.365   1.605   6.680  1.3877 -0.4546  0.6476
  455MOL0     H62769   8.228   1.486   6.703 -1.2987  0.8811  2.5449
  455MOL0     H62770   7.440   1.756   6.507  0.1187  0.2543  0.7402
  455MOL0     H62771   7.217   1.746   6.433 -1.2346  3.7118  0.3567
  455MOL0     H62772   6.717   1.595   6.608 -2.0144  0.0129 -0.2810
  455MOL0     H62773   6.526   1.637   6.468 -0.0008  0.8049  0.8946
  455MOL0     H62774   4.796   1.331   5.959 -1.6074  0.8116 -0.4474
  455MOL0     H62775   4.689   1.134   5.857 -3.5068 -0.6986 -2.9409
  455MOL0     H62776   4.676   0.859   5.536  0.4612  0.3659 -0.8941
  455MOL0     H62777   4.614   0.645   5.444  0.6363  0.2683  3.0012
  455MOL0     H62778   4.211   0.521   5.394 -3.1766  0.1539 -1.7731
  455MOL0     H62779   4.202   0.618   5.243 -1.0737  0.2809  1.8639
  455MOL0     H62780   4.331   0.348   5.294 -0.0358 -0.6162 -1.7004
  455MOL0     H62781   4.348   0.431   5.143  0.2403  0.9847  0.7078
  455MOL0     H62782   4.053   0.395   5.200 -1.7714 -0.4250 -2.8893
  455MOL0     H62783   4.150   0.402   5.057 -1.9967  1.9649  1.2084
  455MOL0     H62784   4.229   0.184   5.107  0.8071  2.0011 -0.4163
  455MOL0     H62785   4.057   0.182   5.078 -0.1680  0.7475 -1.1340
  455MOL0     H62786   4.067   0.094   5.490  0.2620 -0.1770  0.1686
  455MOL0     H62787   4.242   0.809   5.306 -0.7075  1.9560  1.0500
  455MOL0     H62788   4.235   1.105   5.497  0.0088 -1.3579  1.1780
  455MOL0     H62789   4.278   1.115   5.323 -1.7119  2.7491  1.6111
  455MOL0     H62790   4.151   1.001   5.385  0.3067 -0.0947 -1.8072
  456MOL0     O62791   8.964   9.263   2.671 -0.2146 -0.2555 -0.9692
  456MOL0     C62792   8.898   9.310   2.762 -0.3713  0.0547  0.2297
  456MOL0     O62793   8.949   9.358   2.880 -0.4635 -0.6222  0.0582
  456MOL0     C62794   9.087   9.370   2.904 -0.1069  0.5503  0.1419
  456MOL0     C62795   9.167   9.441   2.821  0.0494  0.0834  0.2399
  456MOL0     C62796   9.300   9.438   2.846  0.7496 -0.4028 -0.2136
  456MOL0     C62797   9.353   9.379   2.961  0.8480  0.0813  0.3123
  456MOL0     O62798   9.487   9.367   2.984 -0.5311 -0.3392 -0.0093
  456MOL0     C62799   9.538   9.305   3.107  0.3939 -0.0581 -0.0263
  456MOL0     C62800   9.682   9.271   3.098  0.7759 -0.0123  0.6079
  456MOL0     C62801   9.755   9.379   3.024 -0.5733  0.5763  0.0296
  456MOL0     C62802   9.903   9.386   3.056 -0.3989 -0.0705  0.8769
  456MOL0     C62803   9.971   9.514   2.985 -0.2114  0.0321  0.5930
  456MOL0     C62804  10.122   9.509   3.006 -0.1290 -0.6499 -0.1916
  456MOL0     C62805  10.185   9.483   3.148  1.1192 -0.7450 -0.0090
  456MOL0     C62806  10.339   9.498   3.139 -0.0115  0.7353  0.0950
  456MOL0     N62807  10.403   9.469   3.266 -0.6587 -0.4879 -0.2011
  456MOL0     C62808  10.416   9.352   3.335 -0.2338 -0.4093  0.7882
  456MOL0     C62809  10.489   9.388   3.446  0.5637 -0.4110 -0.1287
  456MOL0     C62810  10.518   9.279   3.542 -0.0368 -0.0789 -1.1628
  456MOL0     C62811  10.638   9.317   3.635 -0.2539  0.5620  0.4318
  456MOL0     C62812  10.764   9.307   3.554  0.4724 -0.0692  1.1941
  456MOL0     C62813  10.887   9.302   3.640 -0.5699  0.1738  0.3848
  456MOL0     O62814  10.900   9.411   3.733  0.8581 -0.0445  0.6848
  456MOL0     C62815  11.017   9.435   3.794  0.0999 -0.2946  0.2439
  456MOL0     C62816  11.035   9.550   3.866  0.0872  0.3003  0.2768
  456MOL0     C62817  11.155   9.575   3.933  0.1058  0.2931  0.7347
  456MOL0     C62818  11.147   9.712   3.999 -0.4329  0.4278 -0.3105
  456MOL0     C62819  11.264   9.481   3.927  0.2668  0.0081 -0.3807
  456MOL0     C62820  11.395   9.504   4.001 -0.4021 -0.0263  0.4248
  456MOL0     O62821  11.477   9.388   3.997  0.2299  0.0342  0.2583
  456MOL0     C62822  11.605   9.400   3.960  0.2475  0.5830 -0.1300
  456MOL0     C62823  11.668   9.511   3.892 -0.1324  0.1418 -0.0140
  456MOL0     C62824  11.815   9.510   3.876  1.1408 -0.0893  0.4042
  456MOL0     C62825  11.889   9.402   3.926  0.4098  0.1417 -0.9663
  456MOL0     O62826  12.027   9.395   3.936 -0.3457 -0.7325  0.1073
  456MOL0     C62827  12.105   9.465   3.846  1.1872 -0.2790 -0.0017
  456MOL0     C62828  12.249   9.444   3.866  0.5982  0.0289 -0.1910
  456MOL0     C62829  12.297   9.509   3.999  0.3377  0.1102  0.0177
  456MOL0     C62830  12.441   9.552   3.992  0.4404 -0.0992 -0.5735
  456MOL0     C62831  12.487   9.618   4.123 -0.7763  0.4214  0.0631
  456MOL0     C62832  12.623   9.693   4.091 -0.7064 -0.2052 -0.7164
  456MOL0     C62833  12.683   9.746   4.219  0.0589  0.3439 -1.3398
  456MOL0     C62834  12.834   9.777   4.201 -0.0898  0.0665  0.2815
  456MOL0    Cl62835  12.905   9.803   4.359  0.2038 -0.2106 -0.4636
  456MOL0     C62836  11.820   9.297   3.996 -0.6717 -0.2230 -0.4470
  456MOL0     C62837  11.684   9.288   4.002  0.6460 -0.0558  0.0469
  456MOL0     O62838  11.425   9.610   4.055 -0.2047 -0.1546  0.6683
  456MOL0     C62839  11.245   9.367   3.853 -0.0333  0.3468 -0.3131
  456MOL0     C62840  11.119   9.337   3.797  0.3170  0.4151  0.1710
  456MOL0     N62841  10.502   9.528   3.447  0.2016  0.2643  0.4748
  456MOL0     N62842  10.447   9.579   3.342 -0.7156 -0.1061  0.2257
  456MOL0     C62843   9.262   9.323   3.052 -0.6075 -0.1730  0.3393
  456MOL0     C62844   9.132   9.314   3.019 -0.6074 -0.7720 -0.5341
  456MOL0     C62845   8.749   9.306   2.746  0.2268  1.1277 -0.2863
  456MOL0     C62846   8.674   9.338   2.860  0.5578  0.1213  0.6196
  456MOL0     C62847   8.534   9.346   2.850  0.2996 -0.1691 -0.6243
  456MOL0     C62848   8.466   9.311   2.735 -1.2426  0.3650 -0.5129
  456MOL0     O62849   8.329   9.330   2.718  0.3929 -0.4507  0.2319
  456MOL0     C62850   8.239   9.331   2.827 -0.1596  0.1473 -0.0052
  456MOL0     C62851   8.098   9.348   2.770  0.5424  0.0114 -0.8044
  456MOL0     C62852   7.997   9.390   2.886 -0.3498  0.0826  0.7300
  456MOL0     C62853   7.851   9.357   2.859  0.8321 -0.5413 -0.4762
  456MOL0     C62854   7.828   9.209   2.845  0.3109  0.2426  0.1411
  456MOL0     C62855   7.799   9.090   2.838 -0.4044 -0.0914  0.3328
  456MOL0     C62856   8.541   9.261   2.628  0.3136  0.5756 -0.0352
  456MOL0     C62857   8.679   9.257   2.630  0.0312  0.3935 -0.1817
  456MOL0     C62858   8.745   9.203   2.503  0.0230 -0.3812 -0.1933
  456MOL0     H62859   9.129   9.497   2.736  2.9835  0.4399 -0.9536
  456MOL0     H62860   9.363   9.474   2.766  0.7993 -0.5004 -0.2183
  456MOL0     H62861   9.492   9.209   3.131  1.9362 -1.3102 -1.7313
  456MOL0     H62862   9.517   9.366   3.196  3.4546  1.3936 -0.1452
  456MOL0     H62863   9.727   9.262   3.197  2.3317 -1.3937 -0.1586
  456MOL0     H62864   9.689   9.175   3.046  0.1925  0.1133  0.2874
  456MOL0     H62865   9.741   9.358   2.918 -0.6313  2.8160 -0.4598
  456MOL0     H62866   9.710   9.478   3.040 -0.4573  0.4054  1.5522
  456MOL0     H62867   9.923   9.382   3.164 -1.8087 -2.6930  1.1418
  456MOL0     H62868   9.949   9.298   3.011 -1.3280  0.9044 -2.1986
  456MOL0     H62869   9.937   9.612   3.020 -4.7433 -0.9452 -0.4056
  456MOL0     H62870   9.948   9.514   2.878  0.0921 -1.0548  0.5230
  456MOL0     H62871  10.175   9.436   2.945  2.4235 -0.3198  1.4737
  456MOL0     H62872  10.160   9.603   2.966 -0.7567  1.0213  2.8243
  456MOL0     H62873  10.163   9.384   3.189  3.1694 -0.3569  2.2758
  456MOL0     H62874  10.147   9.552   3.225 -0.1836 -1.2178 -0.2016
  456MOL0     H62875  10.376   9.431   3.060  0.6740 -0.8195  1.6784
  456MOL0     H62876  10.367   9.599   3.107  1.7699  0.5300  0.9316
  456MOL0     H62877  10.384   9.256   3.295 -0.2160 -0.1529  0.1452
  456MOL0     H62878  10.517   9.177   3.504 -1.3675 -1.2687  1.7623
  456MOL0     H62879  10.436   9.277   3.614 -0.5982  2.0839 -1.6562
  456MOL0     H62880  10.622   9.417   3.676  0.6705  0.2649  1.5805
  456MOL0     H62881  10.650   9.249   3.721  1.0050 -1.4210 -1.2166
  456MOL0     H62882  10.762   9.217   3.492  0.5725  0.2463  0.7346
  456MOL0     H62883  10.770   9.391   3.485 -2.0446 -1.5957 -1.0782
  456MOL0     H62884  10.901   9.203   3.684  1.2036 -0.1396 -0.8012
  456MOL0     H62885  10.972   9.311   3.573 -0.5277  2.6502  0.6632
  456MOL0     H62886  10.952   9.620   3.864  1.1621  1.7137  2.3218
  456MOL0     H62887  11.149   9.687   4.106  2.8395 -2.4841 -0.8640
  456MOL0     H62888  11.054   9.765   3.977 -0.4648  0.4823 -0.0462
  456MOL0     H62889  11.231   9.780   3.982 -0.7325  0.9751  0.3422
  456MOL0     H62890  11.614   9.597   3.854 -0.2131 -0.1163 -0.4879
  456MOL0     H62891  11.864   9.590   3.821 -0.6751  1.1850  0.5521
  456MOL0     H62892  12.099   9.438   3.740  2.1656  2.5718 -0.8674
  456MOL0     H62893  12.092   9.573   3.859  1.3852 -0.4878  2.3976
  456MOL0     H62894  12.275   9.338   3.863 -0.8479 -0.3184 -1.5380
  456MOL0     H62895  12.302   9.495   3.785 -0.1607 -0.2185 -0.8586
  456MOL0     H62896  12.296   9.428   4.073  0.7837  0.0446 -0.0479
  456MOL0     H62897  12.231   9.591   4.029  0.4814 -0.1680  1.1697
  456MOL0     H62898  12.445   9.636   3.922  0.3397  2.1173  1.9037
  456MOL0     H62899  12.503   9.472   3.950  0.3491  1.4763 -4.0055
  456MOL0     H62900  12.419   9.692   4.165 -1.4188 -1.0359  1.7356
  456MOL0     H62901  12.506   9.547   4.204  0.6213  1.1601  0.4076
  456MOL0     H62902  12.595   9.776   4.025 -2.2045  0.3295  0.5321
  456MOL0     H62903  12.692   9.626   4.039  0.7898  0.0301  0.8663
  456MOL0     H62904  12.689   9.672   4.299  1.3307  0.5532 -1.2160
  456MOL0     H62905  12.630   9.830   4.264 -0.7763  0.7808 -3.0227
  456MOL0     H62906  12.845   9.870   4.144  1.2199 -0.3386 -0.1549
  456MOL0     H62907  12.878   9.696   4.143 -1.8519  1.5570 -3.4926
  456MOL0     H62908  11.867   9.209   4.038 -1.3289 -2.1910 -3.4969
  456MOL0     H62909  11.635   9.208   4.056 -2.1140 -0.1900 -2.4072
  456MOL0     H62910  11.316   9.285   3.850 -0.1133  0.3027 -1.5984
  456MOL0     H62911  11.103   9.250   3.734 -1.2115  1.1285 -0.4771
  456MOL0     H62912   9.293   9.273   3.143 -2.0733 -0.6323  0.6192
  456MOL0     H62913   9.066   9.250   3.077  1.2596 -2.8621 -0.5901
  456MOL0     H62914   8.715   9.369   2.955 -1.2136  0.5509  1.2708
  456MOL0     H62915   8.463   9.371   2.928 -2.7840 -1.4854 -2.8228
  456MOL0     H62916   8.253   9.233   2.872 -1.4095 -0.4326 -0.8122
  456MOL0     H62917   8.268   9.406   2.901  1.0490 -0.7737  0.4695
  456MOL0     H62918   8.070   9.259   2.714  3.3147 -2.2056  0.9901
  456MOL0     H62919   8.106   9.426   2.694 -0.4499  2.7303  1.6827
  456MOL0     H62920   8.033   9.361   2.985 -0.7307  0.5884  1.0231
  456MOL0     H62921   7.998   9.499   2.886 -1.0875  0.1659 -1.9622
  456MOL0     H62922   7.811   9.409   2.771  0.6083 -0.7356 -0.4885
  456MOL0     H62923   7.792   9.392   2.943  0.9711 -0.6349 -0.3392
  456MOL0     H62924   7.768   8.991   2.864  0.8078  0.0654  2.7296
  456MOL0     H62925   8.490   9.218   2.543  1.5676  0.0185 -0.5360
  456MOL0     H62926   8.764   9.294   2.445 -0.5970 -0.6125 -0.7669
  456MOL0     H62927   8.835   9.146   2.530  0.2294  0.7018  1.5719
  456MOL0     H62928   8.680   9.136   2.446 -0.1743  0.0414 -0.4692
  457MOL0     O62929   6.492  11.163   4.926 -0.2354 -0.0245 -0.2721
  457MOL0     C62930   6.445  11.193   4.816  0.0717  0.6992  0.0751
  457MOL0     O62931   6.499  11.290   4.728  0.5997  0.1995 -0.1461
  457MOL0     C62932   6.617  11.351   4.767  0.4149  0.9815  0.7119
  457MOL0     C62933   6.738  11.276   4.768 -0.1628 -0.4313  0.2390
  457MOL0     C62934   6.858  11.344   4.783  0.1829  0.3201  0.2526
  457MOL0     C62935   6.862  11.487   4.790 -0.2306  0.3063  0.1528
  457MOL0     O62936   6.983  11.553   4.798 -0.0558  1.1885 -0.3704
  457MOL0     C62937   7.072  11.532   4.690 -0.5710 -0.6225 -0.1866
  457MOL0     C62938   7.198  11.611   4.724 -0.3657 -0.0397  0.3679
  457MOL0     C62939   7.314  11.602   4.621  0.4755 -0.5299  0.6237
  457MOL0     C62940   7.289  11.682   4.486  0.8809  0.2111 -0.7659
  457MOL0     C62941   7.406  11.660   4.389  0.2309  0.3839 -0.0146
  457MOL0     C62942   7.371  11.732   4.259 -0.0785 -0.4515  0.2783
  457MOL0     C62943   7.447  11.679   4.138 -0.2260  0.3040  0.1345
  457MOL0     C62944   7.600  11.679   4.154 -0.7158 -0.3040 -0.8328
  457MOL0     N62945   7.658  11.808   4.175  0.0886 -0.4012 -0.1368
  457MOL0     C62946   7.739  11.862   4.275 -0.0451 -0.6630  0.1464
  457MOL0     C62947   7.742  11.994   4.245  0.2303 -0.0237  0.4422
  457MOL0     C62948   7.826  12.102   4.307  0.0966 -0.5599 -0.7476
  457MOL0     C62949   7.965  12.124   4.246  0.5680  0.6003  0.0758
  457MOL0     C62950   7.956  12.114   4.088  0.2227  0.2858 -0.1869
  457MOL0     C62951   8.085  12.163   4.022  0.6245 -0.7568 -0.4103
  457MOL0     O62952   8.196  12.092   4.074 -0.1554  0.4960 -0.6377
  457MOL0     C62953   8.326  12.142   4.045  0.7099  0.9968 -0.5094
  457MOL0     C62954   8.425  12.132   4.133  0.3690 -0.2081 -0.8964
  457MOL0     C62955   8.551  12.186   4.123  0.0376 -0.0823  0.1362
  457MOL0     C62956   8.660  12.177   4.229  0.1736 -0.8553  0.5932
  457MOL0     C62957   8.583  12.248   3.996 -0.6809 -0.1257 -0.5280
  457MOL0     C62958   8.722  12.298   3.959 -0.0384 -0.2847 -0.0815
  457MOL0     O62959   8.724  12.388   3.860 -0.2081 -0.2855 -0.5621
  457MOL0     C62960   8.853  12.444   3.829 -0.3839  0.6334 -0.5799
  457MOL0     C62961   8.955  12.355   3.789 -0.5938  0.1639  0.1061
  457MOL0     C62962   9.085  12.402   3.766 -0.9656  0.8717 -0.3627
  457MOL0     C62963   9.121  12.536   3.787 -0.3090 -0.5855 -0.5256
  457MOL0     O62964   9.238  12.595   3.753  0.1191  0.6101  0.6064
  457MOL0     C62965   9.237  12.677   3.631 -0.3910 -0.0683 -0.3332
  457MOL0     C62966   9.389  12.704   3.598 -0.7286 -0.4217  0.0506
  457MOL0     C62967   9.472  12.747   3.730 -0.0125  0.3612  0.1466
  457MOL0     C62968   9.615  12.782   3.684  0.7573 -0.2890  0.6376
  457MOL0     C62969   9.693  12.850   3.797 -1.1156 -0.2719  0.1185
  457MOL0     C62970   9.847  12.846   3.770 -0.4336  0.2809 -0.5130
  457MOL0     C62971   9.897  12.695   3.769 -0.7271 -0.5835 -0.5967
  457MOL0     C62972  10.044  12.674   3.795  0.1661 -0.4563  0.2917
  457MOL0    Cl62973  10.091  12.723   3.959 -0.0026  0.2466 -0.2301
  457MOL0     C62974   9.013  12.612   3.839 -0.4016 -0.8931  0.0114
  457MOL0     C62975   8.882  12.575   3.842 -0.3241  0.3777 -0.0823
  457MOL0     O62976   8.824  12.253   4.008 -0.2709 -0.1275 -0.7766
  457MOL0     C62977   8.484  12.246   3.896  0.5491 -0.3674  0.2612
  457MOL0     C62978   8.357  12.199   3.922 -0.4666  0.1600  0.1008
  457MOL0     N62979   7.649  12.025   4.145 -0.0067  0.2019  0.2373
  457MOL0     N62980   7.611  11.909   4.090 -0.0941 -0.2137 -0.4585
  457MOL0     C62981   6.744  11.553   4.795  0.0155  0.3426 -0.1420
  457MOL0     C62982   6.624  11.487   4.785 -0.5663 -0.9127  0.1042
  457MOL0     C62983   6.318  11.123   4.769  0.0225 -1.0153  0.1600
  457MOL0     C62984   6.275  11.154   4.637 -0.8956  0.3506 -0.8215
  457MOL0     C62985   6.163  11.094   4.583  0.4711 -0.0209  0.5094
  457MOL0     C62986   6.082  11.006   4.661 -0.0564 -1.0174 -0.0151
  457MOL0     O62987   5.966  10.943   4.625 -0.5683  0.2615  0.4543
  457MOL0     C62988   5.892  10.985   4.512  0.3002  1.0890 -0.3159
  457MOL0     C62989   5.936  10.892   4.395  0.0182  0.3573 -0.0884
  457MOL0     C62990   5.883  10.926   4.259 -0.1774 -0.0129  0.1925
  457MOL0     C62991   5.973  11.004   4.167  0.1827 -0.1142 -0.3341
  457MOL0     C62992   6.056  10.914   4.095 -0.7254  0.1160 -0.3011
  457MOL0     C62993   6.144  10.840   4.052  0.5063  0.7583  0.1853
  457MOL0     C62994   6.119  10.985   4.793 -0.0831 -0.2300  0.1056
  457MOL0     C62995   6.237  11.038   4.845 -0.3577 -0.3950 -0.3518
  457MOL0     C62996   6.261  11.013   4.991 -0.7208  0.4841  0.4261
  457MOL0     H62997   6.735  11.168   4.755 -1.0791 -0.1889 -2.0047
  457MOL0     H62998   6.952  11.290   4.786 -1.1046 -2.1286 -0.4353
  457MOL0     H62999   7.029  11.575   4.600  0.8540 -1.1273 -1.1351
  457MOL0     H63000   7.104  11.428   4.676  0.4244 -0.5857  1.5583
  457MOL0     H63001   7.175  11.718   4.722  0.5032  0.1450  0.0581
  457MOL0     H63002   7.238  11.592   4.824  0.0584  3.7863  1.0763
  457MOL0     H63003   7.407  11.649   4.655  0.0507  0.4540  0.4521
  457MOL0     H63004   7.334  11.503   4.579  2.7349  0.8416 -1.8809
  457MOL0     H63005   7.189  11.653   4.452 -0.1100 -2.2277  3.4443
  457MOL0     H63006   7.285  11.791   4.498  1.3538  0.2116 -0.5854
  457MOL0     H63007   7.408  11.554   4.363  0.3334 -0.2533  2.3860
  457MOL0     H63008   7.502  11.686   4.434 -1.0807  3.6274  1.1968
  457MOL0     H63009   7.266  11.705   4.246  0.1710 -2.8605  2.4752
  457MOL0     H63010   7.388  11.838   4.276  0.1964 -0.4894  0.2426
  457MOL0     H63011   7.425  11.744   4.052  3.2507  1.0940 -0.3302
  457MOL0     H63012   7.419  11.576   4.111  0.8875 -0.3821  1.4864
  457MOL0     H63013   7.634  11.609   4.231  1.0030  0.0333 -1.2340
  457MOL0     H63014   7.642  11.644   4.059 -1.1126  0.3320 -1.2519
  457MOL0     H63015   7.808  11.813   4.343 -0.9484 -1.8887  0.2205
  457MOL0     H63016   7.838  12.086   4.414 -0.6851 -0.7888 -0.6851
  457MOL0     H63017   7.768  12.194   4.293 -1.3446 -1.4069 -0.6108
  457MOL0     H63018   7.994  12.228   4.263  1.0208  0.5356 -0.2852
  457MOL0     H63019   8.040  12.052   4.280 -0.9630 -1.2096 -0.1772
  457MOL0     H63020   7.925  12.014   4.056 -2.9586  0.7358  1.0393
  457MOL0     H63021   7.873  12.172   4.045 -0.4957 -0.0828  0.6670
  457MOL0     H63022   8.085  12.145   3.914 -0.0829  2.0400 -0.9695
  457MOL0     H63023   8.100  12.270   4.044  0.5089 -1.0454  1.1590
  457MOL0     H63024   8.405  12.089   4.230 -1.3909  0.9465 -0.7051
  457MOL0     H63025   8.707  12.276   4.235  1.8195 -1.4905 -0.8353
  457MOL0     H63026   8.744  12.115   4.197 -0.1646 -1.8040  1.4916
  457MOL0     H63027   8.618  12.151   4.326  0.0909  1.4656  1.2404
  457MOL0     H63028   8.923  12.255   3.763 -0.7986  0.4232 -0.6432
  457MOL0     H63029   9.155  12.327   3.730  2.2098  3.4950 -0.1863
  457MOL0     H63030   9.192  12.623   3.547 -3.0153  2.2659 -0.5481
  457MOL0     H63031   9.196  12.778   3.641  0.4908  0.3976 -1.1683
  457MOL0     H63032   9.444  12.618   3.559  1.6084 -0.1510  2.3982
  457MOL0     H63033   9.398  12.786   3.527 -2.6794 -0.4544 -0.2884
  457MOL0     H63034   9.475  12.667   3.805  1.2384 -0.2068 -0.4751
  457MOL0     H63035   9.422  12.831   3.777  0.4118  0.6803  0.0356
  457MOL0     H63036   9.626  12.849   3.599  3.3166 -0.4565  0.7644
  457MOL0     H63037   9.650  12.682   3.658  0.4825  0.3230 -2.4186
  457MOL0     H63038   9.672  12.957   3.796  0.6597  0.1222  1.2132
  457MOL0     H63039   9.665  12.807   3.894 -1.1944 -1.3614 -0.3700
  457MOL0     H63040   9.897  12.897   3.853 -0.6635  0.3929 -0.4412
  457MOL0     H63041   9.875  12.890   3.675 -0.7328  0.4072 -0.5431
  457MOL0     H63042   9.871  12.648   3.674  0.3938 -1.0160 -0.7069
  457MOL0     H63043   9.839  12.644   3.846 -0.1424 -0.1567  0.1372
  457MOL0     H63044  10.101  12.734   3.723  0.5205 -1.5190 -0.3375
  457MOL0     H63045  10.063  12.567   3.780  0.4423 -0.4225  0.4026
  457MOL0     H63046   9.039  12.714   3.866 -0.3260 -1.0367  0.4973
  457MOL0     H63047   8.799  12.644   3.857  0.2210  0.9231  0.4945
  457MOL0     H63048   8.519  12.274   3.797  0.6978 -4.0813 -0.8909
  457MOL0     H63049   8.287  12.199   3.839 -2.0673 -0.0110  1.4016
  457MOL0     H63050   6.739  11.661   4.804 -1.6200  0.4522 -1.8776
  457MOL0     H63051   6.537  11.551   4.793  1.5429  2.0273  1.2730
  457MOL0     H63052   6.340  11.219   4.580 -0.0175 -0.6805 -1.0111
  457MOL0     H63053   6.150  11.100   4.475  1.9560 -0.8100  0.2586
  457MOL0     H63054   5.787  10.966   4.533 -0.0823  1.8638 -1.4296
  457MOL0     H63055   5.904  11.090   4.484 -0.7797  0.4565 -3.7021
  457MOL0     H63056   5.895  10.793   4.418 -0.5513  0.9187  1.4235
  457MOL0     H63057   6.045  10.883   4.391  0.1613  1.9580 -0.2906
  457MOL0     H63058   5.858  10.827   4.220 -1.7684 -0.6645  2.6222
  457MOL0     H63059   5.791  10.984   4.265  0.0934  0.3366  1.2880
  457MOL0     H63060   6.034  11.057   4.241 -1.3719 -0.3890  1.2217
  457MOL0     H63061   5.900  11.060   4.107 -0.5675 -0.3341  0.3480
  457MOL0     H63062   6.216  10.767   4.020 -1.4498 -0.7301 -1.0249
  457MOL0     H63063   6.048  10.936   4.859 -3.6622  0.0573 -3.1673
  457MOL0     H63064   6.336  10.937   5.012  1.0775  2.3324  0.9717
  457MOL0     H63065   6.294  11.098   5.052  0.3112 -1.2755  2.4519
  457MOL0     H63066   6.167  10.986   5.040 -1.6981  1.6382 -0.7369
  458MOL0     O63067  11.154   1.144   6.909  0.2977 -0.9273 -0.0357
  458MOL0     C63068  11.053   1.148   6.980 -0.2152  0.4758  0.3104
  458MOL0     O63069  11.026   1.060   7.083  0.0961 -0.5498  0.4630
  458MOL0     C63070  11.110   0.971   7.139 -0.5533  0.6936  0.5218
  458MOL0     C63071  11.045   0.878   7.214 -0.8924 -0.7232  0.3502
  458MOL0     C63072  11.124   0.789   7.285 -0.0016 -0.1884 -0.0994
  458MOL0     C63073  11.261   0.782   7.272  0.1033  0.7759 -0.9092
  458MOL0     O63074  11.325   0.689   7.347  0.0261  0.1279  0.1245
  458MOL0     C63075  11.461   0.663   7.302  0.3548 -0.2266 -0.4966
  458MOL0     C63076  11.513   0.541   7.368 -0.8032 -0.6390 -0.2793
  458MOL0     C63077  11.665   0.529   7.363  0.2404 -0.5676  0.0785
  458MOL0     C63078  11.723   0.403   7.421 -0.2956  0.6623  0.0726
  458MOL0     C63079  11.875   0.421   7.417  0.6241  0.2814  1.0057
  458MOL0     C63080  11.940   0.289   7.445 -0.0885 -0.0735 -0.1164
  458MOL0     C63081  12.086   0.306   7.471  0.0233  0.6772 -0.3172
  458MOL0     C63082  12.174   0.189   7.527  0.1103 -0.1642  0.0889
  458MOL0     N63083  12.321   0.216   7.533 -0.5859  0.8116 -0.8075
  458MOL0     C63084  12.403   0.290   7.455 -0.1881  0.8091  0.0135
  458MOL0     C63085  12.528   0.287   7.511  0.3556 -0.1280 -0.8387
  458MOL0     C63086  12.648   0.353   7.461 -0.6559  0.2727 -0.4926
  458MOL0     C63087  12.771   0.310   7.541  0.1298 -1.0167 -0.4156
  458MOL0     C63088  12.871   0.419   7.516 -0.6644 -0.1039  0.0261
  458MOL0     C63089  13.002   0.357   7.579 -0.4989 -0.1244 -0.2440
  458MOL0     O63090  13.107   0.446   7.536 -0.0002  0.0262  0.3100
  458MOL0     C63091  13.236   0.411   7.567  0.5056  0.1496  0.1659
  458MOL0     C63092  13.330   0.500   7.524  0.0843 -0.3111  1.1569
  458MOL0     C63093  13.468   0.485   7.555  0.3431  0.1692  0.2895
  458MOL0     C63094  13.565   0.596   7.520  0.4935 -0.0293 -0.2747
  458MOL0     C63095  13.507   0.361   7.620  0.2407  0.2972 -0.5380
  458MOL0     C63096  13.651   0.337   7.658  0.5764  0.4698 -0.4558
  458MOL0     O63097  13.682   0.212   7.717 -0.5986 -0.0214  0.4925
  458MOL0     C63098  13.812   0.180   7.752 -0.3634  0.1705  0.3056
  458MOL0     C63099  13.872   0.238   7.862  0.2563 -0.3566  0.1850
  458MOL0     C63100  13.995   0.189   7.903 -0.6410 -0.3364 -0.3928
  458MOL0     C63101  14.067   0.090   7.835 -0.3538  1.4729  0.4486
  458MOL0     O63102  14.194   0.045   7.867  0.5701  0.1729 -0.7066
  458MOL0     C63103  14.273   0.108   7.973  0.1951 -0.2901  0.0675
  458MOL0     C63104  14.415   0.062   7.945 -1.2900 -0.9008 -0.6110
  458MOL0     C63105  14.521   0.127   8.040 -1.1423 -0.5259 -0.0252
  458MOL0     C63106  14.654   0.045   8.027 -0.5074 -0.2273 -0.5214
  458MOL0     C63107  14.770   0.121   8.093 -0.9931  0.0579 -0.2710
  458MOL0     C63108  14.889   0.023   8.123 -0.3134  0.1582  0.0923
  458MOL0     C63109  14.944  -0.055   8.009 -0.3093 -0.1440 -0.3039
  458MOL0     C63110  15.031  -0.173   8.054 -0.1500  0.3896 -0.7473
  458MOL0    Cl63111  15.185  -0.095   8.118  0.3393 -0.1083  0.1181
  458MOL0     C63112  14.006   0.040   7.725  0.1139 -0.0822 -0.4626
  458MOL0     C63113  13.879   0.077   7.678 -0.0107 -0.2128 -0.7940
  458MOL0     O63114  13.735   0.417   7.639 -0.8872 -0.0261  0.0165
  458MOL0     C63115  13.410   0.268   7.664 -0.1619 -0.6109  0.7535
  458MOL0     C63116  13.278   0.293   7.626 -0.9610 -0.6998 -0.4190
  458MOL0     N63117  12.517   0.212   7.632  0.4327 -0.3750 -0.7087
  458MOL0     N63118  12.391   0.182   7.641 -0.5040  0.3169 -0.6464
  458MOL0     C63119  11.323   0.874   7.188  0.1740  0.5044  0.2772
  458MOL0     C63120  11.251   0.976   7.143  0.4673 -0.0835 -0.1319
  458MOL0     C63121  10.945   1.245   6.956 -0.3396 -0.2940 -0.1679
  458MOL0     C63122  10.815   1.197   6.980  0.2980  0.4336 -0.3125
  458MOL0     C63123  10.712   1.286   6.971 -0.6058  0.6352  0.8917
  458MOL0     C63124  10.731   1.419   6.944 -1.1291  0.4835 -0.2628
  458MOL0     O63125  10.630   1.506   6.939 -0.3205 -0.8067  0.7511
  458MOL0     C63126  10.494   1.466   6.961 -0.3851 -0.2253 -0.3642
  458MOL0     C63127  10.396   1.588   6.947  0.1919  0.0665 -0.4098
  458MOL0     C63128  10.267   1.547   7.016 -0.4514  0.3472  0.3946
  458MOL0     C63129  10.166   1.660   7.046  0.3066 -0.4820 -0.0574
  458MOL0     C63130  10.034   1.604   7.076  0.5031 -0.2371  0.3215
  458MOL0     C63131   9.934   1.544   7.108 -0.4528  0.3318  0.4077
  458MOL0     C63132  10.862   1.462   6.915  0.6827 -0.4385 -0.1676
  458MOL0     C63133  10.973   1.377   6.915 -0.4371 -0.7739 -0.7574
  458MOL0     C63134  11.110   1.431   6.888  0.1876  0.2986  0.2915
  458MOL0     H63135  10.937   0.876   7.222 -0.9430  2.5455  2.2961
  458MOL0     H63136  11.076   0.712   7.343  0.1292 -0.1311  0.0869
  458MOL0     H63137  11.522   0.753   7.313  1.8021 -0.9152 -2.3106
  458MOL0     H63138  11.469   0.633   7.197  1.2365  0.3391 -0.6061
  458MOL0     H63139  11.476   0.534   7.471  1.6324  3.1356  1.0590
  458MOL0     H63140  11.475   0.453   7.314  1.9150  0.1682 -3.8299
  458MOL0     H63141  11.699   0.543   7.260 -0.7853 -1.7567 -0.4464
  458MOL0     H63142  11.688   0.610   7.433 -1.0657 -2.4339  2.8670
  458MOL0     H63143  11.699   0.393   7.527 -0.3597  1.5644  0.1468
  458MOL0     H63144  11.698   0.309   7.370  1.6579  0.5952 -0.8529
  458MOL0     H63145  11.903   0.498   7.489 -1.8653  0.3980  1.9496
  458MOL0     H63146  11.899   0.449   7.314  0.8989 -1.0471  0.6869
  458MOL0     H63147  11.897   0.241   7.534 -0.7369  1.1459  0.2438
  458MOL0     H63148  11.942   0.221   7.359  0.7186  0.8013 -0.8033
  458MOL0     H63149  12.105   0.392   7.536  3.2959 -0.7366  0.7855
  458MOL0     H63150  12.134   0.330   7.376 -1.2786 -0.5708 -1.3489
  458MOL0     H63151  12.153   0.165   7.631 -0.8659 -0.1126 -0.0890
  458MOL0     H63152  12.160   0.100   7.465 -0.4249  0.6747 -1.0364
  458MOL0     H63153  12.376   0.347   7.367 -3.6735  0.3987  0.6545
  458MOL0     H63154  12.632   0.458   7.486 -1.4344  0.1529 -0.4775
  458MOL0     H63155  12.663   0.324   7.356  2.1334  0.5397 -0.2617
  458MOL0     H63156  12.742   0.307   7.647 -3.0711 -1.6905 -1.2136
  458MOL0     H63157  12.805   0.207   7.527  0.9382 -1.2356  2.4373
  458MOL0     H63158  12.889   0.438   7.409  0.9707 -0.8362  0.1412
  458MOL0     H63159  12.845   0.509   7.572  0.6318 -0.0093  0.5140
  458MOL0     H63160  12.995   0.344   7.687 -0.6357  1.7225 -0.0120
  458MOL0     H63161  13.020   0.261   7.528  2.2864  1.9205 -3.5227
  458MOL0     H63162  13.289   0.592   7.486 -1.1252 -0.5721  1.7573
  458MOL0     H63163  13.661   0.572   7.474  0.3298 -3.7370  1.0048
  458MOL0     H63164  13.589   0.635   7.619 -2.2044  0.0597  0.4369
  458MOL0     H63165  13.505   0.664   7.458 -2.2773 -2.3451 -0.3456
  458MOL0     H63166  13.814   0.308   7.921  0.1745 -0.9625  0.8360
  458MOL0     H63167  14.039   0.223   7.997 -2.5839  1.3932 -0.0410
  458MOL0     H63168  14.264   0.216   7.958 -1.0289 -0.5649 -1.4987
  458MOL0     H63169  14.246   0.085   8.077 -2.2097  1.3500 -0.1062
  458MOL0     H63170  14.418  -0.045   7.970 -0.9234 -0.2181  2.8290
  458MOL0     H63171  14.433   0.072   7.838  0.2399  0.5095 -0.2702
  458MOL0     H63172  14.487   0.116   8.144 -1.2478  1.1340  0.1357
  458MOL0     H63173  14.537   0.233   8.021 -0.0915 -0.6850 -0.0603
  458MOL0     H63174  14.675   0.017   7.923 -1.2325  0.4372 -0.8532
  458MOL0     H63175  14.642  -0.052   8.078  2.3801  0.3185  1.4517
  458MOL0     H63176  14.803   0.207   8.033  4.7550  0.9315  3.3375
  458MOL0     H63177  14.751   0.180   8.183 -1.7794  2.0829 -1.6859
  458MOL0     H63178  14.859  -0.046   8.202  0.0156 -0.9905 -0.7683
  458MOL0     H63179  14.977   0.076   8.159  0.4692 -1.1335  0.1301
  458MOL0     H63180  15.007   0.013   7.951 -1.0490  1.4843  0.7271
  458MOL0     H63181  14.868  -0.095   7.942 -1.9039  1.1963  0.6223
  458MOL0     H63182  15.055  -0.242   7.973 -0.2497 -0.4914 -0.0391
  458MOL0     H63183  14.986  -0.234   8.132  2.7456 -0.9633  0.0012
  458MOL0     H63184  14.053  -0.038   7.667 -1.3689 -1.1777 -0.2588
  458MOL0     H63185  13.834   0.038   7.587 -0.5646  2.6093 -1.8388
  458MOL0     H63186  13.450   0.179   7.712 -0.5636 -1.2139 -0.0027
  458MOL0     H63187  13.209   0.211   7.645 -0.7283 -0.7930  0.0467
  458MOL0     H63188  11.430   0.871   7.166 -0.2862  0.4639 -2.1574
  458MOL0     H63189  11.317   1.043   7.089  0.7974 -1.3071 -1.3145
  458MOL0     H63190  10.794   1.093   7.005  1.6750  0.3579  0.6361
  458MOL0     H63191  10.612   1.245   6.982 -0.6816  0.0886 -1.2985
  458MOL0     H63192  10.459   1.384   6.897 -3.5637  1.4540 -1.0278
  458MOL0     H63193  10.503   1.431   7.064  3.1305  0.6941 -0.2373
  458MOL0     H63194  10.381   1.625   6.845  1.0917  3.3325  0.5170
  458MOL0     H63195  10.436   1.674   7.001 -1.7391  0.0529  1.1681
  458MOL0     H63196  10.216   1.466   6.964  0.6418 -1.2843  1.7559
  458MOL0     H63197  10.300   1.497   7.107 -1.7525 -2.7658 -0.7226
  458MOL0     H63198  10.163   1.721   6.956  0.6145  0.1670  0.3630
  458MOL0     H63199  10.202   1.719   7.132 -4.3555  1.4204  0.8721
  458MOL0     H63200   9.854   1.480   7.141  2.3524 -2.9682  1.4796
  458MOL0     H63201  10.875   1.564   6.882 -0.3711 -0.5950 -1.1064
  458MOL0     H63202  11.142   1.373   6.801  2.3914 -0.6743  1.6622
  458MOL0     H63203  11.107   1.536   6.855  0.1378  0.1150 -0.3007
  458MOL0     H63204  11.183   1.425   6.970 -2.1805  1.2563  2.6247
  459MOL0     O63205   7.502   7.056   1.979 -0.6292 -0.2065 -0.1987
  459MOL0     C63206   7.545   7.149   1.913  1.1014  0.1544 -0.5450
  459MOL0     O63207   7.668   7.175   1.894  0.9149 -0.9808 -0.6669
  459MOL0     C63208   7.785   7.112   1.934 -0.1569 -0.3675 -0.7910
  459MOL0     C63209   7.891   7.130   1.848 -0.1110 -0.2237 -0.4313
  459MOL0     C63210   8.014   7.067   1.870  0.4062  0.1757 -0.2454
  459MOL0     C63211   8.025   6.984   1.982  0.2335  0.3235 -0.1632
  459MOL0     O63212   8.132   6.909   2.001  0.3578  0.2389 -0.4702
  459MOL0     C63213   8.247   6.936   1.924 -1.0498  1.1852 -0.7076
  459MOL0     C63214   8.365   6.855   1.988 -0.3398 -0.0706  0.2506
  459MOL0     C63215   8.497   6.848   1.905  0.3305  0.4946  0.1256
  459MOL0     C63216   8.618   6.800   1.988  0.3858 -0.2330 -0.6225
  459MOL0     C63217   8.741   6.770   1.909 -0.1789  0.4547  0.2587
  459MOL0     C63218   8.856   6.686   1.978  0.5708 -0.3074  0.4627
  459MOL0     C63219   8.988   6.750   1.961  0.1673 -0.6451 -0.6327
  459MOL0     C63220   9.043   6.725   1.822  0.1114  0.0946  0.6764
  459MOL0     N63221   9.153   6.817   1.788 -0.1034 -0.4908  0.2304
  459MOL0     C63222   9.164   6.954   1.806  0.0904  0.8790  0.0825
  459MOL0     C63223   9.296   6.976   1.768  0.0561 -0.7228 -0.1183
  459MOL0     C63224   9.370   7.105   1.789  0.0210 -0.9364  0.2893
  459MOL0     C63225   9.449   7.156   1.667 -0.7087 -0.3220  0.2228
  459MOL0     C63226   9.493   7.298   1.690 -0.1953  0.1210 -0.0941
  459MOL0     C63227   9.564   7.343   1.817 -0.1355 -0.3210 -0.6357
  459MOL0     O63228   9.706   7.308   1.833  0.3225 -0.6435  0.2292
  459MOL0     C63229   9.778   7.364   1.935 -0.5463  0.1333 -0.4279
  459MOL0     C63230   9.909   7.390   1.915 -0.3416 -0.3454 -1.4805
  459MOL0     C63231   9.989   7.461   2.013 -0.1110  0.7930 -0.6183
  459MOL0     C63232  10.129   7.505   1.967  0.7912 -0.0611  0.2144
  459MOL0     C63233   9.936   7.502   2.132  0.6126 -0.7456  0.0845
  459MOL0     C63234  10.012   7.574   2.240 -0.0333 -0.6714  0.5418
  459MOL0     O63235   9.957   7.674   2.313  0.4803  0.1017  1.3611
  459MOL0     C63236  10.029   7.760   2.392 -0.0500 -0.0687  0.2502
  459MOL0     C63237  10.097   7.874   2.335  0.0813 -0.1953 -0.5613
  459MOL0     C63238  10.144   7.971   2.418 -0.2186 -0.6027 -0.8629
  459MOL0     C63239  10.123   7.970   2.555  0.3639 -1.1363 -0.6948
  459MOL0     O63240  10.177   8.071   2.629  0.0900 -0.1533  0.0584
  459MOL0     C63241  10.109   8.095   2.754  0.2985 -0.1751 -0.7898
  459MOL0     C63242  10.146   8.236   2.814  0.0883 -0.4135  0.5782
  459MOL0     C63243  10.092   8.242   2.960 -0.2231 -0.2448 -0.1497
  459MOL0     C63244  10.124   8.376   3.035 -0.4126  0.2156 -0.0366
  459MOL0     C63245  10.054   8.402   3.171 -0.0979  0.5973 -0.2238
  459MOL0     C63246   9.924   8.477   3.164  0.3867 -0.1602 -0.2486
  459MOL0     C63247   9.869   8.513   3.308 -0.4606 -0.2235  0.5180
  459MOL0     C63248   9.736   8.583   3.285 -0.7276  0.0350  0.5409
  459MOL0    Cl63249   9.680   8.707   3.406 -0.2808  0.1898 -0.1809
  459MOL0     C63250  10.066   7.858   2.605  0.0860  0.0273 -0.5874
  459MOL0     C63251  10.023   7.753   2.530 -0.7884  0.4071 -0.2810
  459MOL0     O63252  10.130   7.534   2.250  0.0810 -0.2284 -0.7109
  459MOL0     C63253   9.801   7.472   2.158  0.5216  0.3865 -0.4932
  459MOL0     C63254   9.723   7.408   2.058  1.1564  0.0314 -0.4865
  459MOL0     N63255   9.347   6.867   1.712 -0.2498  0.5481  0.0442
  459MOL0     N63256   9.257   6.775   1.709  0.0288 -0.6019  0.3193
  459MOL0     C63257   7.924   6.971   2.075 -0.1072 -0.5853 -1.1178
  459MOL0     C63258   7.799   7.028   2.047  1.3272 -0.5007 -0.8110
  459MOL0     C63259   7.448   7.239   1.846 -0.1148  0.7086 -0.1701
  459MOL0     C63260   7.488   7.337   1.757 -0.4084  0.5176 -0.3260
  459MOL0     C63261   7.407   7.429   1.699  1.1094  0.1614  0.7716
  459MOL0     C63262   7.268   7.415   1.711 -0.8390  0.8390 -0.4318
  459MOL0     O63263   7.189   7.508   1.645 -0.2874  0.7612 -0.2882
  459MOL0     C63264   7.231   7.572   1.522  0.5487 -0.2634  0.0591
  459MOL0     C63265   7.133   7.535   1.406 -0.1442 -0.2461 -0.5733
  459MOL0     C63266   6.988   7.577   1.437 -0.4343 -0.6566 -0.6426
  459MOL0     C63267   6.886   7.509   1.351  0.3396  0.2582 -0.2671
  459MOL0     C63268   6.898   7.360   1.361  0.4769 -0.4800 -0.0930
  459MOL0     C63269   6.906   7.241   1.374  0.9499  0.7725 -0.1070
  459MOL0     C63270   7.225   7.300   1.782  1.3133  1.0015 -0.1216
  459MOL0     C63271   7.311   7.208   1.846  0.3217  0.3344  0.2487
  459MOL0     C63272   7.235   7.085   1.918  0.7288 -0.2987 -0.5543
  459MOL0     H63273   7.874   7.186   1.756 -0.2404 -0.9703 -0.8700
  459MOL0     H63274   8.093   7.064   1.796 -0.0439 -1.8667 -0.7138
  459MOL0     H63275   8.272   7.042   1.921 -0.3164  1.0636  0.3856
  459MOL0     H63276   8.227   6.912   1.819 -0.7750  0.3235 -0.5725
  459MOL0     H63277   8.384   6.904   2.084  0.0212  2.6584 -1.0946
  459MOL0     H63278   8.332   6.752   2.003  0.7821 -0.3524  0.9253
  459MOL0     H63279   8.477   6.761   1.841 -3.3510  0.7317  0.7352
  459MOL0     H63280   8.528   6.936   1.849  1.2547  0.1588  0.0918
  459MOL0     H63281   8.645   6.878   2.060  1.7307 -1.1414 -0.1065
  459MOL0     H63282   8.583   6.711   2.040  1.1861 -0.4860 -0.5026
  459MOL0     H63283   8.780   6.867   1.876  3.5247  0.4488  3.8303
  459MOL0     H63284   8.719   6.704   1.824  0.3884 -0.5427  0.8621
  459MOL0     H63285   8.830   6.692   2.084 -3.5608  5.5534 -0.3571
  459MOL0     H63286   8.850   6.584   1.939 -1.0775 -0.1213  0.1463
  459MOL0     H63287   9.059   6.703   2.030  1.4983 -0.7495 -2.0201
  459MOL0     H63288   8.975   6.855   1.986  1.9801 -0.6222  0.3968
  459MOL0     H63289   9.072   6.620   1.817  0.6926  0.2958 -0.4631
  459MOL0     H63290   8.970   6.750   1.744  0.6877 -1.7108 -0.5083
  459MOL0     H63291   9.080   7.015   1.838 -2.3787 -1.6089 -1.1884
  459MOL0     H63292   9.436   7.086   1.874 -3.6354 -3.3221  2.9078
  459MOL0     H63293   9.299   7.180   1.823 -0.2518 -0.4704 -1.2380
  459MOL0     H63294   9.531   7.088   1.641 -0.8035 -0.1418 -0.5613
  459MOL0     H63295   9.375   7.151   1.587 -1.2672 -0.4955  0.7463
  459MOL0     H63296   9.548   7.335   1.604 -0.6576  0.3636 -0.2871
  459MOL0     H63297   9.398   7.349   1.703 -0.6685 -1.0421  1.4198
  459MOL0     H63298   9.575   7.452   1.817 -0.8685 -0.2438  0.3874
  459MOL0     H63299   9.503   7.312   1.902 -4.0787  2.2609 -2.2030
  459MOL0     H63300   9.962   7.379   1.821 -0.1310  0.4783 -1.4671
  459MOL0     H63301  10.142   7.614   1.966 -0.0787  0.0880  2.2521
  459MOL0     H63302  10.149   7.480   1.862 -0.5284  1.7490 -0.5179
  459MOL0     H63303  10.213   7.473   2.030 -1.3618  0.6926  3.7111
  459MOL0     H63304  10.082   7.902   2.231 -1.0458 -1.4289 -0.7587
  459MOL0     H63305  10.215   8.047   2.388  1.2692 -1.2470  0.9031
  459MOL0     H63306  10.000   8.097   2.741  0.0120 -1.9511  0.7937
  459MOL0     H63307  10.126   8.017   2.829 -1.1890  2.2807  2.3956
  459MOL0     H63308  10.253   8.258   2.810  0.3439 -1.6097  0.4416
  459MOL0     H63309  10.094   8.316   2.759 -1.5742 -1.9884 -0.2524
  459MOL0     H63310  10.133   8.163   3.023 -3.3591 -0.2632  2.1316
  459MOL0     H63311   9.988   8.209   2.968 -0.6640  1.4232  2.0271
  459MOL0     H63312  10.110   8.461   2.967 -0.8353  0.6266  0.5483
  459MOL0     H63313  10.231   8.374   3.058 -0.4191  1.7848  0.2761
  459MOL0     H63314  10.030   8.309   3.224 -3.3130  1.5002  0.1227
  459MOL0     H63315  10.118   8.450   3.245 -0.1619 -1.3043  1.1389
  459MOL0     H63316   9.845   8.447   3.095  0.9274  1.0367 -1.4379
  459MOL0     H63317   9.944   8.575   3.120 -0.8580 -0.6958 -2.1020
  459MOL0     H63318   9.949   8.571   3.356  1.9664 -3.2682  0.4083
  459MOL0     H63319   9.855   8.417   3.359  0.6523 -1.1034 -0.7539
  459MOL0     H63320   9.663   8.506   3.256  1.2067 -0.8244 -2.4191
  459MOL0     H63321   9.751   8.644   3.196 -3.4009  1.0274  0.6653
  459MOL0     H63322  10.061   7.841   2.712  2.1393  0.8395 -0.3175
  459MOL0     H63323   9.975   7.666   2.574  2.7050 -0.6302  1.9901
  459MOL0     H63324   9.765   7.497   2.257  1.2524  1.0590 -0.3903
  459MOL0     H63325   9.618   7.385   2.073  0.7287  0.0801 -3.0030
  459MOL0     H63326   7.950   6.909   2.160 -2.8263 -0.9953 -0.4918
  459MOL0     H63327   7.720   7.009   2.119  2.5762 -0.9604  0.4859
  459MOL0     H63328   7.593   7.339   1.729 -0.9395  0.7629 -2.4630
  459MOL0     H63329   7.451   7.507   1.637  1.1640  0.5768  1.3190
  459MOL0     H63330   7.212   7.678   1.539  0.3335 -0.0081 -1.6388
  459MOL0     H63331   7.336   7.552   1.498  0.4189 -1.8204  0.6074
  459MOL0     H63332   7.151   7.428   1.391  1.6777  0.1500 -1.5035
  459MOL0     H63333   7.166   7.591   1.318 -1.7457 -0.9332 -1.6661
  459MOL0     H63334   6.963   7.564   1.543  2.1178  0.7760  0.2027
  459MOL0     H63335   6.988   7.684   1.416  0.3598 -0.8174 -1.5395
  459MOL0     H63336   6.918   7.531   1.248 -0.9364 -0.2973 -0.8042
  459MOL0     H63337   6.784   7.545   1.360 -0.9625 -2.3968 -2.6812
  459MOL0     H63338   6.924   7.137   1.393 -1.4587  0.4164  0.5764
  459MOL0     H63339   7.118   7.290   1.796  1.4699  0.0673  0.5123
  459MOL0     H63340   7.128   7.103   1.934  1.5467  2.2860  3.4083
  459MOL0     H63341   7.252   6.991   1.864 -1.6641 -2.2998  1.8845
  459MOL0     H63342   7.268   7.070   2.022  1.4304 -1.4634 -0.9308
  460MOL0     O63343   6.617  10.254   5.686 -0.0834  0.4857 -0.9695
  460MOL0     C63344   6.563  10.309   5.779  0.3247 -0.6149 -0.2010
  460MOL0     O63345   6.570  10.271   5.905  0.5128  0.8969  0.3086
  460MOL0     C63346   6.653  10.171   5.938 -0.5872 -0.4459  0.1557
  460MOL0     C63347   6.790  10.170   5.901  0.0329 -0.5007 -0.2447
  460MOL0     C63348   6.874  10.064   5.929 -0.1836  0.3654 -0.7110
  460MOL0     C63349   6.825   9.967   6.016  0.1664  0.8214  0.2667
  460MOL0     O63350   6.911   9.883   6.084 -0.3601 -0.7906  0.7564
  460MOL0     C63351   6.976   9.788   6.000 -0.6500 -0.5196  0.1935
  460MOL0     C63352   7.072   9.710   6.093  0.1157 -0.3606 -0.1994
  460MOL0     C63353   7.199   9.778   6.151 -0.0543  0.1350 -0.5675
  460MOL0     C63354   7.187   9.858   6.278  0.0273 -0.0100  0.3323
  460MOL0     C63355   7.310   9.951   6.305  0.6437 -0.3326 -0.8424
  460MOL0     C63356   7.294  10.024   6.439  0.1734  0.3685 -0.1700
  460MOL0     C63357   7.398  10.131   6.451 -0.1879  0.2857 -0.8186
  460MOL0     C63358   7.362  10.220   6.574 -0.1282 -0.4248  0.0795
  460MOL0     N63359   7.459  10.334   6.570  0.1231  0.3251 -0.8486
  460MOL0     C63360   7.576  10.337   6.644 -0.5105 -0.2875 -0.8745
  460MOL0     C63361   7.641  10.445   6.598  0.0902 -0.0036 -0.5852
  460MOL0     C63362   7.793  10.484   6.617  0.3443 -0.0569 -0.6699
  460MOL0     C63363   7.817  10.621   6.585 -0.3100  0.0018  0.2189
  460MOL0     C63364   7.747  10.728   6.673  0.0276  0.5773  0.5817
  460MOL0     C63365   7.753  10.859   6.594  0.4517 -0.1899 -0.1993
  460MOL0     O63366   7.884  10.896   6.545 -0.2994 -0.0098 -0.3015
  460MOL0     C63367   7.968  10.949   6.638  0.0268  0.3798 -0.0565
  460MOL0     C63368   7.947  10.980   6.775 -0.8865 -0.1623 -0.4628
  460MOL0     C63369   8.042  11.032   6.860 -0.4930  0.3389  0.0735
  460MOL0     C63370   7.994  11.067   6.998  1.0362  0.2007  0.8405
  460MOL0     C63371   8.176  11.046   6.805 -0.2318 -0.8078  0.1836
  460MOL0     C63372   8.282  11.117   6.885 -0.7450  0.5332  0.3397
  460MOL0     O63373   8.388  11.157   6.815  0.5286 -0.0798 -0.2174
  460MOL0     C63374   8.469  11.254   6.870  0.5941 -0.0430 -0.4382
  460MOL0     C63375   8.411  11.360   6.941  0.0433  0.0097 -0.1460
  460MOL0     C63376   8.493  11.458   7.003  0.1484 -0.1900 -0.2114
  460MOL0     C63377   8.636  11.458   6.978 -0.0644 -0.3082 -0.1800
  460MOL0     O63378   8.709  11.554   7.046  0.9837 -0.0229 -0.5796
  460MOL0     C63379   8.835  11.527   7.110 -0.1084  0.0220 -0.6006
  460MOL0     C63380   8.877  11.650   7.185  0.2557 -0.0437  0.4368
  460MOL0     C63381   9.021  11.650   7.222 -0.7638  0.3126 -0.9810
  460MOL0     C63382   9.053  11.744   7.333 -1.0163  0.1247 -0.1137
  460MOL0     C63383   9.207  11.738   7.346 -0.3706 -0.5186  0.6169
  460MOL0     C63384   9.233  11.817   7.477  0.7057 -0.3699 -0.3602
  460MOL0     C63385   9.186  11.959   7.455  0.8064  0.9624 -0.1850
  460MOL0     C63386   9.266  12.052   7.545 -0.2519 -0.2152  0.1061
  460MOL0    Cl63387   9.246  12.011   7.712  0.6809  0.1363  0.0852
  460MOL0     C63388   8.689  11.362   6.901  0.3985  1.2335  1.3426
  460MOL0     C63389   8.609  11.256   6.853  0.0975  0.8233  0.2334
  460MOL0     O63390   8.275  11.112   7.008 -0.2627 -0.2679 -0.1370
  460MOL0     C63391   8.201  11.019   6.672  0.8942  0.2822 -0.4128
  460MOL0     C63392   8.098  10.962   6.590  0.2534  0.3518 -0.8836
  460MOL0     N63393   7.558  10.519   6.515 -0.3875  0.2787  0.1757
  460MOL0     N63394   7.444  10.451   6.502 -0.2361 -0.1542 -0.3579
  460MOL0     C63395   6.688   9.962   6.062 -0.4813 -0.5441 -0.5041
  460MOL0     C63396   6.608  10.073   6.029 -0.1768 -0.1920  0.0626
  460MOL0     C63397   6.471  10.417   5.733  0.3726  0.5209  0.2135
  460MOL0     C63398   6.447  10.434   5.588 -0.5337 -0.1550 -0.2060
  460MOL0     C63399   6.375  10.544   5.534 -0.5358  0.5544 -0.6462
  460MOL0     C63400   6.316  10.629   5.617 -0.5459 -0.6100  0.9039
  460MOL0     O63401   6.256  10.734   5.554  0.4425  0.3401  0.1377
  460MOL0     C63402   6.203  10.850   5.618  0.0274  0.4052  0.9624
  460MOL0     C63403   6.084  10.813   5.708 -0.6891  0.7446  0.3702
  460MOL0     C63404   6.075  10.898   5.837  0.2147  0.0083 -0.0205
  460MOL0     C63405   6.009  10.813   5.948  0.0732 -0.2263  0.6540
  460MOL0     C63406   5.862  10.812   5.925 -0.2967 -0.6663 -1.0901
  460MOL0     C63407   5.742  10.831   5.906 -0.5732  0.8006 -0.3080
  460MOL0     C63408   6.330  10.614   5.758 -0.9062  0.2611 -0.6689
  460MOL0     C63409   6.409  10.519   5.817  0.3535 -0.0459  0.7286
  460MOL0     C63410   6.414  10.510   5.965  0.4716 -0.0048  0.5010
  460MOL0     H63411   6.825  10.256   5.845 -0.6149 -0.2418 -0.2669
  460MOL0     H63412   6.978  10.069   5.900 -0.6341 -0.4302 -2.5582
  460MOL0     H63413   7.037   9.835   5.922 -4.1346  1.2511 -1.6868
  460MOL0     H63414   6.898   9.720   5.966  0.4355 -0.3645 -2.8751
  460MOL0     H63415   7.006   9.682   6.177 -1.3214  1.8006 -0.5425
  460MOL0     H63416   7.102   9.623   6.034 -2.0108 -1.0296 -0.3969
  460MOL0     H63417   7.271   9.700   6.174  1.5921  1.6035 -0.5267
  460MOL0     H63418   7.230   9.849   6.073 -0.0675  1.0911  0.2755
  460MOL0     H63419   7.099   9.920   6.266  0.0439 -0.1377 -0.4710
  460MOL0     H63420   7.170   9.793   6.365  2.4792 -1.2489 -0.0267
  460MOL0     H63421   7.328  10.016   6.219  0.3592 -0.8780 -1.3184
  460MOL0     H63422   7.395   9.882   6.298  0.7169 -0.1571 -1.8725
  460MOL0     H63423   7.198  10.076   6.432  0.2824  0.4920 -0.7683
  460MOL0     H63424   7.297   9.946   6.516 -1.0266  1.6055  1.1803
  460MOL0     H63425   7.393  10.195   6.363 -2.0320  0.0754 -0.9102
  460MOL0     H63426   7.496  10.085   6.461 -0.8320 -1.1307 -0.7139
  460MOL0     H63427   7.256  10.246   6.575  0.0993  0.5548  0.6700
  460MOL0     H63428   7.380  10.178   6.673  1.2015  1.0727  0.5206
  460MOL0     H63429   7.615  10.257   6.707 -1.6086 -0.5502 -0.5020
  460MOL0     H63430   7.842  10.416   6.547 -3.0337 -1.5683 -1.8078
  460MOL0     H63431   7.835  10.474   6.717  0.1249 -2.8251 -0.7716
  460MOL0     H63432   7.925  10.635   6.590 -0.3488  0.8382 -0.8324
  460MOL0     H63433   7.797  10.640   6.480 -1.1115  0.8298  0.5056
  460MOL0     H63434   7.643  10.706   6.700  0.3722  0.1697  1.6582
  460MOL0     H63435   7.799  10.736   6.769  3.1970 -1.6214 -0.7885
  460MOL0     H63436   7.693  10.855   6.502 -1.3024 -0.4779  0.9194
  460MOL0     H63437   7.721  10.943   6.655 -0.4922  0.4232 -1.4992
  460MOL0     H63438   7.850  10.962   6.818 -0.6410  1.3296  0.8037
  460MOL0     H63439   7.885  11.071   7.001  0.9059  0.3169 -1.6744
  460MOL0     H63440   8.020  11.167   7.034 -0.5960  1.1938 -0.5712
  460MOL0     H63441   8.035  10.988   7.060 -0.7098 -0.7176  0.8837
  460MOL0     H63442   8.307  11.351   6.972  0.8934 -2.0711  2.4560
  460MOL0     H63443   8.449  11.540   7.060 -0.7294 -0.8903  0.1550
  460MOL0     H63444   8.831  11.441   7.177  0.4325  0.7218  0.3481
  460MOL0     H63445   8.909  11.505   7.032 -0.0114 -0.2570 -0.4304
  460MOL0     H63446   8.851  11.745   7.138  0.9990  1.3030  2.6199
  460MOL0     H63447   8.824  11.637   7.279  0.9726 -1.8986  0.6419
  460MOL0     H63448   9.079  11.670   7.131 -0.6199  0.4988 -0.8513
  460MOL0     H63449   9.043  11.547   7.253 -1.1780 -0.1066 -2.0180
  460MOL0     H63450   9.005  11.701   7.422 -2.9139  0.9621 -0.6914
  460MOL0     H63451   9.006  11.841   7.317 -3.5918 -0.9902  0.1816
  460MOL0     H63452   9.250  11.640   7.367  2.4149  0.3762 -0.5633
  460MOL0     H63453   9.249  11.787   7.258  1.9401  0.1901  2.0326
  460MOL0     H63454   9.342  11.812   7.486  1.0378  0.1084 -3.2568
  460MOL0     H63455   9.188  11.763   7.561  0.2831  0.2591 -0.1831
  460MOL0     H63456   9.083  11.973   7.488  0.7845 -0.8426  0.6583
  460MOL0     H63457   9.185  11.991   7.351 -0.6656  0.0059 -0.4840
  460MOL0     H63458   9.234  12.157   7.536  0.1315 -0.1466 -0.5277
  460MOL0     H63459   9.371  12.041   7.513 -0.6349  1.8824 -2.2480
  460MOL0     H63460   8.791  11.359   6.863  1.1580 -0.5022  3.2787
  460MOL0     H63461   8.655  11.185   6.785 -0.9708  1.8411 -1.6372
  460MOL0     H63462   8.297  11.047   6.629  1.3525  1.4908  1.2609
  460MOL0     H63463   8.118  10.951   6.484  0.7775  1.5570 -0.9337
  460MOL0     H63464   6.661   9.884   6.132  1.5093 -0.5768  0.2865
  460MOL0     H63465   6.505  10.074   6.063 -0.6991 -1.9103 -1.3132
  460MOL0     H63466   6.498  10.368   5.517  1.1227 -1.5464  2.1464
  460MOL0     H63467   6.374  10.559   5.426  1.0025  0.5815 -0.6864
  460MOL0     H63468   6.279  10.905   5.675  1.1942 -0.4227  0.2511
  460MOL0     H63469   6.163  10.923   5.547  1.0498  1.3953  1.3868
  460MOL0     H63470   6.088  10.705   5.726  0.2831  0.5897 -0.6567
  460MOL0     H63471   5.993  10.826   5.649 -0.8948  3.0540  1.1105
  460MOL0     H63472   6.174  10.920   5.878 -0.1873  1.8763  0.0451
  460MOL0     H63473   6.021  10.990   5.815  0.4910  0.3967  0.9018
  460MOL0     H63474   6.028  10.862   6.043  0.5942 -0.3557  0.6208
  460MOL0     H63475   6.048  10.711   5.941 -3.2031 -1.5414 -5.4954
  460MOL0     H63476   5.642  10.823   5.867 -0.0114  0.9035 -1.8278
  460MOL0     H63477   6.281  10.681   5.828  1.5712  0.0526  1.3986
  460MOL0     H63478   6.373  10.414   5.997  1.8044 -0.9964 -0.6448
  460MOL0     H63479   6.512  10.529   6.008 -0.7169  2.5635  2.3818
  460MOL0     H63480   6.355  10.588   6.013 -0.2028  1.5383 -2.5606
  461MOL0     O63481   0.429  11.279   3.865  0.7863  0.9174  0.5789
  461MOL0     C63482   0.373  11.218   3.958 -0.0717  0.6794  0.2488
  461MOL0     O63483   0.426  11.111   4.019 -0.6926  0.2877  0.1068
  461MOL0     C63484   0.551  11.075   3.991 -0.4319  0.6299  0.3946
  461MOL0     C63485   0.665  11.111   4.067 -0.3110 -0.4458 -0.7816
  461MOL0     C63486   0.804  11.064   4.042  0.2902  1.1195 -0.8626
  461MOL0     C63487   0.819  10.984   3.925 -0.2242 -0.7801 -0.3198
  461MOL0     O63488   0.937  10.924   3.889  0.4500  0.8073  0.3617
  461MOL0     C63489   1.044  10.920   3.989 -0.0012  0.7361 -0.3912
  461MOL0     C63490   1.164  10.861   3.905 -0.3471 -0.1967  0.7913
  461MOL0     C63491   1.293  10.847   3.971 -1.3489  0.5943 -1.2838
  461MOL0     C63492   1.405  10.808   3.869 -0.1744  0.2255  0.8356
  461MOL0     C63493   1.535  10.779   3.938  0.5929  0.8835  0.1299
  461MOL0     C63494   1.647  10.730   3.845 -0.8358 -0.5426  0.4723
  461MOL0     C63495   1.717  10.855   3.792 -0.0649 -0.1837 -0.5320
  461MOL0     C63496   1.803  10.823   3.671 -0.6959  0.0662  0.4364
  461MOL0     N63497   1.943  10.835   3.703 -0.6704  0.5277 -0.3642
  461MOL0     C63498   2.020  10.955   3.732 -1.1938 -0.0087  0.4660
  461MOL0     C63499   2.152  10.920   3.700  0.4231 -0.0727 -0.5313
  461MOL0     C63500   2.270  11.016   3.698  0.6841 -0.5927 -0.6015
  461MOL0     C63501   2.319  11.045   3.552  0.6796 -0.3711 -0.0954
  461MOL0     C63502   2.443  11.134   3.568 -0.2427 -0.5533 -0.3599
  461MOL0     C63503   2.574  11.081   3.508  0.5417  0.4710  0.0115
  461MOL0     O63504   2.615  10.964   3.570  0.5512 -0.1334 -0.0512
  461MOL0     C63505   2.717  10.885   3.505  0.6659  1.0505 -0.0247
  461MOL0     C63506   2.795  10.919   3.387 -0.1470  0.1271 -0.0136
  461MOL0     C63507   2.913  10.849   3.350  0.0163 -0.2861  0.3070
  461MOL0     C63508   2.995  10.898   3.231  0.2041  0.4164  0.2023
  461MOL0     C63509   2.948  10.737   3.427 -0.2067  0.0458  0.1285
  461MOL0     C63510   3.077  10.670   3.403  0.7303 -0.5094 -0.0147
  461MOL0     O63511   3.170  10.704   3.498  0.1906 -0.1516 -0.1864
  461MOL0     C63512   3.294  10.647   3.471 -0.1243  0.8809 -0.2382
  461MOL0     C63513   3.349  10.551   3.563  0.0245  0.0279  0.5383
  461MOL0     C63514   3.469  10.487   3.542 -0.8760  0.1770  0.7223
  461MOL0     C63515   3.549  10.515   3.425  0.4283  0.1539 -0.6082
  461MOL0     O63516   3.682  10.470   3.403  0.0425 -1.1518 -0.5486
  461MOL0     C63517   3.686  10.328   3.424 -0.8794 -0.3722 -0.0029
  461MOL0     C63518   3.826  10.279   3.389  0.4077  1.2407 -0.2971
  461MOL0     C63519   3.945  10.363   3.457 -0.5531 -0.5273  0.7385
  461MOL0     C63520   4.083  10.348   3.394 -0.5588  0.0872 -0.0969
  461MOL0     C63521   4.132  10.201   3.412  0.0930  1.5578  0.1905
  461MOL0     C63522   4.277  10.177   3.348 -0.1751 -0.4250 -0.1290
  461MOL0     C63523   4.338  10.046   3.402 -0.6749  0.1109 -0.3643
  461MOL0     C63524   4.465  10.005   3.320 -0.2041  0.3496  0.3372
  461MOL0    Cl63525   4.581  10.141   3.325  0.0509 -0.1089 -0.0926
  461MOL0     C63526   3.495  10.606   3.326 -0.4045 -0.0924 -0.7614
  461MOL0     C63527   3.373  10.675   3.349 -0.9421 -0.3274 -0.6780
  461MOL0     O63528   3.086  10.589   3.308  0.0360  0.1499  0.0797
  461MOL0     C63529   2.864  10.694   3.533 -1.0116  0.7275  0.4107
  461MOL0     C63530   2.746  10.763   3.564 -0.5413  1.1976 -0.4091
  461MOL0     N63531   2.157  10.786   3.665 -0.2884  0.3249 -0.2985
  461MOL0     N63532   2.037  10.733   3.670  0.2416 -0.4444 -0.5069
  461MOL0     C63533   0.709  10.952   3.844  0.1718  0.3944  0.1159
  461MOL0     C63534   0.578  10.988   3.877  0.5244  0.1060 -0.1296
  461MOL0     C63535   0.239  11.263   3.996  0.4828  0.8132  0.2412
  461MOL0     C63536   0.161  11.169   4.071  0.6626 -1.0429  0.7753
  461MOL0     C63537   0.031  11.199   4.103  0.1083  0.2738 -0.0361
  461MOL0     C63538  -0.025  11.327   4.078  0.3797  0.8527  1.3212
  461MOL0     O63539  -0.153  11.356   4.128  0.2690  0.7419  0.4077
  461MOL0     C63540  -0.213  11.486   4.117 -0.1469 -0.3156  0.0999
  461MOL0     C63541  -0.354  11.474   4.165  0.5908  0.2216 -0.4882
  461MOL0     C63542  -0.428  11.343   4.104 -0.5779 -0.1755  0.1169
  461MOL0     C63543  -0.578  11.330   4.149  0.0318  0.0994 -0.6192
  461MOL0     C63544  -0.570  11.290   4.290  0.0059 -0.3746 -0.0309
  461MOL0     C63545  -0.598  11.250   4.402 -0.1748 -0.3033  1.0126
  461MOL0     C63546   0.055  11.415   4.014  0.1849  0.0202  0.3073
  461MOL0     C63547   0.188  11.393   3.974 -0.0161 -0.6288  0.3193
  461MOL0     C63548   0.261  11.507   3.912 -0.1362 -0.3488 -0.1465
  461MOL0     H63549   0.647  11.187   4.143 -1.9148  0.9258 -2.4099
  461MOL0     H63550   0.895  11.082   4.099  0.9308 -1.1225 -1.1044
  461MOL0     H63551   1.036  10.858   4.078 -0.1602  1.6401  0.2366
  461MOL0     H63552   1.068  11.020   4.026  1.6715  0.1252  0.2934
  461MOL0     H63553   1.131  10.766   3.862 -0.3148  0.2909 -0.3484
  461MOL0     H63554   1.184  10.929   3.821  1.7434 -0.3832  1.0900
  461MOL0     H63555   1.316  10.946   4.015 -2.3766  0.6151 -0.7669
  461MOL0     H63556   1.292  10.769   4.048 -0.4860  0.6023 -1.2532
  461MOL0     H63557   1.402  10.727   3.795 -0.0319 -0.7399  1.8653
  461MOL0     H63558   1.419  10.892   3.799  3.8677  0.2413  1.3845
  461MOL0     H63559   1.519  10.705   4.017  2.6285  1.3320  1.0254
  461MOL0     H63560   1.557  10.876   3.984 -1.3150  0.8811  1.1306
  461MOL0     H63561   1.721  10.669   3.897  1.4331  1.7801  0.1410
  461MOL0     H63562   1.591  10.676   3.768 -0.6179 -1.5584  1.0126
  461MOL0     H63563   1.786  10.892   3.868  1.4437 -0.2960 -1.7829
  461MOL0     H63564   1.652  10.939   3.767 -0.2381  0.4951  1.9578
  461MOL0     H63565   1.781  10.727   3.622  1.5041  0.4682 -1.5262
  461MOL0     H63566   1.779  10.903   3.601  1.4993  2.3714  2.1504
  461MOL0     H63567   1.986  11.058   3.747 -1.8834 -0.4270  2.0325
  461MOL0     H63568   2.352  10.980   3.762  1.2016  1.4997 -0.0228
  461MOL0     H63569   2.244  11.112   3.744  0.8296 -0.0889 -1.5591
  461MOL0     H63570   2.340  10.948   3.505  1.8451 -0.5602  0.7417
  461MOL0     H63571   2.241  11.097   3.497  1.6989  2.9247  1.3082
  461MOL0     H63572   2.427  11.231   3.520 -0.1391 -0.5005 -0.2887
  461MOL0     H63573   2.469  11.157   3.672  0.0297 -4.3968  0.5502
  461MOL0     H63574   2.554  11.059   3.403 -0.5719  1.0306  0.0886
  461MOL0     H63575   2.654  11.156   3.507 -0.1052  1.1801  0.2236
  461MOL0     H63576   2.772  11.014   3.340  1.8882  2.3065  2.9591
  461MOL0     H63577   3.102  10.895   3.255  0.5659  0.1757 -1.3097
  461MOL0     H63578   2.970  10.997   3.193 -0.8730 -0.5366 -1.7230
  461MOL0     H63579   2.988  10.831   3.145  0.1150 -0.3432  0.7921
  461MOL0     H63580   3.292  10.544   3.655 -1.5678  0.0628 -0.4020
  461MOL0     H63581   3.508  10.437   3.630 -0.8977  1.1470  1.2941
  461MOL0     H63582   3.672  10.310   3.531  3.7429 -1.2342  0.6412
  461MOL0     H63583   3.607  10.282   3.364 -0.1915 -2.7288  0.7795
  461MOL0     H63584   3.826  10.179   3.433 -2.3970  1.3361  0.0597
  461MOL0     H63585   3.829  10.257   3.282 -0.7803 -0.9271  0.0626
  461MOL0     H63586   3.965  10.326   3.558  1.1904 -0.3590  0.4799
  461MOL0     H63587   3.915  10.468   3.462 -1.1345 -0.6777  0.5037
  461MOL0     H63588   4.161  10.406   3.445  0.5458 -0.5592 -1.0161
  461MOL0     H63589   4.082  10.365   3.286  1.6235 -4.0604 -0.9441
  461MOL0     H63590   4.132  10.178   3.519 -0.3585 -0.1230 -0.1403
  461MOL0     H63591   4.064  10.136   3.356  1.1783  1.6141 -1.2577
  461MOL0     H63592   4.341  10.260   3.379 -1.3726  0.9169 -1.0664
  461MOL0     H63593   4.278  10.168   3.239  0.3925  0.6780 -0.2310
  461MOL0     H63594   4.262   9.967   3.400 -1.3430  0.5467  2.7707
  461MOL0     H63595   4.362  10.065   3.507 -1.6915  0.7364 -0.2301
  461MOL0     H63596   4.440   9.997   3.214  1.0444 -0.4375  0.0816
  461MOL0     H63597   4.511   9.911   3.354 -0.7450 -0.7553 -1.8477
  461MOL0     H63598   3.556  10.624   3.239  0.0533  1.5833 -0.1299
  461MOL0     H63599   3.329  10.745   3.279  1.3026  1.1351 -0.7295
  461MOL0     H63600   2.904  10.615   3.595  2.2756  0.8871 -1.3215
  461MOL0     H63601   2.685  10.728   3.646  1.3366 -0.5324  0.3166
  461MOL0     H63602   0.732  10.895   3.755  1.9256  1.2553 -0.0168
  461MOL0     H63603   0.498  10.958   3.810 -0.0306  1.5991 -0.1719
  461MOL0     H63604   0.199  11.075   4.111 -0.3783 -0.2211  3.9450
  461MOL0     H63605  -0.022  11.125   4.161 -0.6814  0.3152 -0.6829
  461MOL0     H63606  -0.162  11.563   4.176 -1.7042  1.1791 -0.4217
  461MOL0     H63607  -0.210  11.508   4.010 -0.1072  1.4922  0.4484
  461MOL0     H63608  -0.400  11.564   4.124 -0.4915 -0.7440 -1.4872
  461MOL0     H63609  -0.361  11.479   4.274  1.7849  1.1478 -0.4385
  461MOL0     H63610  -0.434  11.362   3.997  3.0132  2.5395  0.2014
  461MOL0     H63611  -0.370  11.253   4.125  0.3739  0.7000  1.4377
  461MOL0     H63612  -0.628  11.253   4.090 -0.8219  0.7266 -0.7393
  461MOL0     H63613  -0.618  11.432   4.146  0.4955  0.3551  0.7731
  461MOL0     H63614  -0.613  11.238   4.507  0.1360 -1.1609  0.9717
  461MOL0     H63615   0.026  11.514   3.982  2.6713  0.0631 -2.0875
  461MOL0     H63616   0.363  11.510   3.950 -0.2323  2.9461  0.1899
  461MOL0     H63617   0.261  11.500   3.803 -0.2695  0.8669 -0.2365
  461MOL0     H63618   0.208  11.602   3.927  1.8074  0.9768 -1.2329
  462MOL0     O63619   5.872   5.976   4.905  0.0210  0.6663 -0.6204
  462MOL0     C63620   5.778   5.902   4.906  0.1265 -0.6836  0.4434
  462MOL0     O63621   5.781   5.770   4.868 -0.1340 -0.1648  1.0583
  462MOL0     C63622   5.878   5.727   4.785  0.9106  0.2337  0.2109
  462MOL0     C63623   5.843   5.702   4.655 -0.2735 -0.5235  0.3530
  462MOL0     C63624   5.936   5.648   4.567 -0.1362  0.7254  0.9937
  462MOL0     C63625   6.064   5.623   4.606 -0.5784  0.7449 -0.1490
  462MOL0     O63626   6.137   5.552   4.514 -0.0865 -0.4619 -0.2369
  462MOL0     C63627   6.279   5.553   4.521  0.1217  0.4281 -0.3557
  462MOL0     C63628   6.328   5.480   4.397  0.0558 -1.0434  0.8941
  462MOL0     C63629   6.475   5.430   4.410 -0.6360 -0.0162  0.0987
  462MOL0     C63630   6.561   5.536   4.473 -0.5245  0.9153  0.1300
  462MOL0     C63631   6.709   5.485   4.483 -0.1545  0.1440  0.1313
  462MOL0     C63632   6.726   5.378   4.576 -0.2720 -0.5023 -0.2200
  462MOL0     C63633   6.881   5.345   4.598 -0.4154 -0.4831 -0.3096
  462MOL0     C63634   6.923   5.414   4.728  0.0070  0.4499  0.2145
  462MOL0     N63635   7.052   5.375   4.776 -0.5504  0.3382  0.5225
  462MOL0     C63636   7.083   5.256   4.839  0.1215 -0.2928  0.3055
  462MOL0     C63637   7.212   5.263   4.856  0.5724 -0.0279 -0.3035
  462MOL0     C63638   7.290   5.153   4.929  0.2519  0.2999  0.2869
  462MOL0     C63639   7.353   5.191   5.063  0.5256  0.1754 -0.1628
  462MOL0     C63640   7.492   5.145   5.068  0.1782 -0.6117  0.3005
  462MOL0     C63641   7.585   5.252   5.015  0.0827 -0.8116  0.9710
  462MOL0     O63642   7.621   5.352   5.117 -0.4181  0.2752 -0.2457
  462MOL0     C63643   7.735   5.333   5.190  0.3672 -0.6719 -0.1884
  462MOL0     C63644   7.789   5.446   5.245 -0.3005  0.2621 -0.1711
  462MOL0     C63645   7.909   5.446   5.319 -0.1908  0.3896 -0.0781
  462MOL0     C63646   7.959   5.573   5.378  0.0578 -0.5774  0.7425
  462MOL0     C63647   7.973   5.318   5.348 -0.6890 -0.5190  0.3047
  462MOL0     C63648   8.090   5.305   5.439  0.1903 -0.1829 -0.4159
  462MOL0     O63649   8.168   5.190   5.427 -0.3313  0.7844 -0.2331
  462MOL0     C63650   8.267   5.164   5.518 -0.3251  0.0263  0.0979
  462MOL0     C63651   8.266   5.037   5.586  0.4999  0.0033  1.3523
  462MOL0     C63652   8.367   5.004   5.679  0.1735 -0.5528  0.5022
  462MOL0     C63653   8.466   5.098   5.711  0.4516 -0.0269  0.0829
  462MOL0     O63654   8.556   5.095   5.813 -0.4969  0.3224  0.0554
  462MOL0     C63655   8.515   5.029   5.934 -0.1082  0.1575  0.2790
  462MOL0     C63656   8.606   5.080   6.046 -0.0564 -0.1401  0.5154
  462MOL0     C63657   8.574   5.228   6.090  0.6656 -0.3482 -0.3932
  462MOL0     C63658   8.436   5.259   6.146  0.6822  0.4713 -0.4618
  462MOL0     C63659   8.428   5.380   6.241  0.2374  0.5382 -0.7990
  462MOL0     C63660   8.525   5.370   6.367 -0.2065 -0.5797 -0.1112
  462MOL0     C63661   8.497   5.493   6.449 -0.3184  0.3755  0.3317
  462MOL0     C63662   8.586   5.509   6.572 -0.5305  0.0961  0.6732
  462MOL0    Cl63663   8.759   5.521   6.519 -0.1642 -0.0226 -0.0485
  462MOL0     C63664   8.477   5.219   5.632  0.3549  0.1312  0.2261
  462MOL0     C63665   8.368   5.255   5.544  0.2314 -0.4883 -0.0362
  462MOL0     O63666   8.093   5.390   5.528  0.2808 -0.0157 -0.9367
  462MOL0     C63667   7.924   5.203   5.273  0.9412  0.1769 -0.2506
  462MOL0     C63668   7.805   5.215   5.203 -0.1743  0.0927  0.0349
  462MOL0     N63669   7.262   5.391   4.829 -0.0099  0.0276  0.0845
  462MOL0     N63670   7.159   5.456   4.783 -0.0249  0.7597  0.6626
  462MOL0     C63671   6.109   5.656   4.733  0.3797 -0.0974  0.1170
  462MOL0     C63672   6.016   5.716   4.821  0.0365  0.4264 -0.4649
  462MOL0     C63673   5.646   5.952   4.951  1.0904  0.1098 -0.5975
  462MOL0     C63674   5.549   5.852   4.991  0.9454  0.3488 -0.1036
  462MOL0     C63675   5.418   5.883   5.030 -0.4427  0.3342 -0.0351
  462MOL0     C63676   5.377   6.018   5.037  0.2365 -0.2245  0.0747
  462MOL0     O63677   5.238   6.042   5.058  0.0384 -0.1046  0.4440
  462MOL0     C63678   5.210   6.150   5.149  0.3217 -0.5669  0.2670
  462MOL0     C63679   5.078   6.103   5.212 -0.1557 -0.6358 -0.3844
  462MOL0     C63680   4.963   6.119   5.107 -0.2332  0.3998  0.4475
  462MOL0     C63681   4.912   6.259   5.075 -0.5114 -0.4629  0.0895
  462MOL0     C63682   4.858   6.331   5.190 -0.5681 -1.0190 -0.4901
  462MOL0     C63683   4.794   6.399   5.268 -0.8959  0.5090  0.4572
  462MOL0     C63684   5.465   6.119   5.003 -0.8378 -0.1034  0.4055
  462MOL0     C63685   5.599   6.082   4.961 -0.3851 -0.2462 -0.6190
  462MOL0     C63686   5.685   6.195   4.915 -0.8426 -0.1651  0.6626
  462MOL0     H63687   5.740   5.698   4.623  0.4928  0.9350 -2.6564
  462MOL0     H63688   5.911   5.621   4.465  3.8440  3.1475 -0.8545
  462MOL0     H63689   6.313   5.498   4.609  0.0983  1.3044  0.2204
  462MOL0     H63690   6.320   5.654   4.517 -0.2388  0.6025  0.2330
  462MOL0     H63691   6.261   5.399   4.368 -0.9071  0.8574 -2.7934
  462MOL0     H63692   6.311   5.544   4.310  2.1619 -0.7328  0.6558
  462MOL0     H63693   6.469   5.343   4.475  1.1902 -1.3695 -1.4143
  462MOL0     H63694   6.510   5.383   4.317 -1.3143 -2.1114  0.8434
  462MOL0     H63695   6.560   5.635   4.426 -1.5202  0.1733 -1.4796
  462MOL0     H63696   6.523   5.544   4.575 -1.8748 -2.3688 -0.0087
  462MOL0     H63697   6.764   5.572   4.521  0.0866  2.1287 -4.1702
  462MOL0     H63698   6.742   5.457   4.382 -0.7473 -1.5384  0.3871
  462MOL0     H63699   6.674   5.398   4.670 -2.1647  1.0630 -1.5111
  462MOL0     H63700   6.684   5.282   4.545 -1.6789 -0.3439  1.1060
  462MOL0     H63701   6.947   5.376   4.517 -0.1428 -0.9981 -0.2861
  462MOL0     H63702   6.888   5.237   4.615 -2.6819 -0.6034  0.1822
  462MOL0     H63703   6.921   5.523   4.722 -1.2417  0.4422  0.0975
  462MOL0     H63704   6.851   5.390   4.807 -1.7189 -2.9369 -2.1127
  462MOL0     H63705   7.011   5.181   4.870 -0.5802  0.7028  1.1457
  462MOL0     H63706   7.369   5.119   4.862  0.3678 -1.6153  1.3111
  462MOL0     H63707   7.235   5.059   4.942  1.1191 -0.4150 -0.9434
  462MOL0     H63708   7.339   5.297   5.085 -0.7639 -0.4200  2.4092
  462MOL0     H63709   7.297   5.139   5.141  1.3490 -0.5886 -0.0682
  462MOL0     H63710   7.512   5.129   5.175  1.7602  0.5621  0.2200
  462MOL0     H63711   7.507   5.047   5.023 -0.2319 -0.3423 -0.4488
  462MOL0     H63712   7.678   5.214   4.972  1.3685  1.0528  1.9626
  462MOL0     H63713   7.533   5.316   4.943 -1.5566 -0.4849  2.4050
  462MOL0     H63714   7.750   5.545   5.225  0.0810  0.4714  0.0918
  462MOL0     H63715   7.898   5.659   5.347  1.3043 -0.4183 -1.4394
  462MOL0     H63716   8.058   5.608   5.349 -1.8288  4.1292 -1.0896
  462MOL0     H63717   7.940   5.566   5.485 -2.3878  1.5542  0.5525
  462MOL0     H63718   8.189   4.965   5.562 -1.5230  2.4726  0.0548
  462MOL0     H63719   8.348   4.920   5.745 -0.6732 -0.3558  0.5257
  462MOL0     H63720   8.411   5.048   5.964  0.1108 -1.9453  2.6985
  462MOL0     H63721   8.520   4.920   5.921  1.7821  0.3379 -0.7099
  462MOL0     H63722   8.593   5.024   6.139  0.3326 -0.1935  0.5405
  462MOL0     H63723   8.711   5.076   6.016  0.1968  0.2045  1.3398
  462MOL0     H63724   8.592   5.298   6.008  1.1897 -1.8709 -1.6277
  462MOL0     H63725   8.652   5.247   6.164  0.9016  2.5755 -1.2394
  462MOL0     H63726   8.392   5.177   6.203 -0.9163 -0.1384 -2.4538
  462MOL0     H63727   8.367   5.268   6.062 -0.4742 -2.2060  0.0845
  462MOL0     H63728   8.453   5.466   6.179  0.3964 -0.2305 -1.8316
  462MOL0     H63729   8.325   5.385   6.279 -0.4195  0.3982 -2.4702
  462MOL0     H63730   8.631   5.363   6.341 -0.2933  1.3233 -1.1312
  462MOL0     H63731   8.508   5.280   6.426 -1.1506  0.0706  0.6363
  462MOL0     H63732   8.390   5.503   6.467 -0.3462  1.9896 -0.5719
  462MOL0     H63733   8.506   5.581   6.385  1.5981 -1.6763 -2.4484
  462MOL0     H63734   8.568   5.421   6.634  0.4683  1.6515  3.3756
  462MOL0     H63735   8.557   5.604   6.616 -0.0209  0.2078  0.7792
  462MOL0     H63736   8.570   5.276   5.640  0.7120 -0.4502  0.2864
  462MOL0     H63737   8.359   5.343   5.481 -1.3880  0.6915  1.7127
  462MOL0     H63738   7.957   5.100   5.282 -0.7769 -0.4917 -1.1006
  462MOL0     H63739   7.774   5.121   5.159 -0.4714 -0.2561  0.9770
  462MOL0     H63740   6.215   5.636   4.746  0.6816 -0.0953 -2.0351
  462MOL0     H63741   6.050   5.742   4.920  0.2424  0.5075 -0.5558
  462MOL0     H63742   5.579   5.747   4.991 -1.6075 -0.4436  0.3377
  462MOL0     H63743   5.350   5.801   5.051  0.6322 -1.1351 -1.9633
  462MOL0     H63744   5.284   6.157   5.230  3.3907 -2.6709 -2.0912
  462MOL0     H63745   5.189   6.243   5.096 -1.8404  0.0952  2.1041
  462MOL0     H63746   5.066   6.166   5.301  2.8195 -1.3447  0.6332
  462MOL0     H63747   5.095   6.004   5.255 -2.2851 -0.6709  0.4647
  462MOL0     H63748   4.987   6.071   5.012  0.6961 -2.1659  1.8678
  462MOL0     H63749   4.875   6.066   5.146  1.0601 -1.8349  0.5269
  462MOL0     H63750   4.844   6.251   4.990 -2.3835  3.1698  1.0533
  462MOL0     H63751   4.996   6.319   5.039  0.2401 -0.9075  1.0467
  462MOL0     H63752   4.732   6.450   5.340 -2.9335  0.0185 -0.8537
  462MOL0     H63753   5.436   6.223   4.990  0.5568  0.4700  1.6066
  462MOL0     H63754   5.697   6.185   4.806  0.4818 -2.2758  0.9484
  462MOL0     H63755   5.637   6.288   4.946 -3.9009 -2.2616  2.7182
  462MOL0     H63756   5.788   6.190   4.953 -0.2611  2.9095 -0.2184
  463MOL0     O63757   0.193   6.492  11.001  0.4728 -0.0168  0.3586
  463MOL0     C63758   0.239   6.497  10.883  0.6118 -0.2159 -0.1415
  463MOL0     O63759   0.207   6.410  10.782  0.3199  0.2186 -1.0351
  463MOL0     C63760   0.146   6.289  10.813 -0.4913 -0.3694 -0.3528
  463MOL0     C63761   0.068   6.242  10.705 -0.3221 -0.0566 -0.0169
  463MOL0     C63762  -0.009   6.129  10.716 -0.2865  0.0088  0.0079
  463MOL0     C63763  -0.019   6.053  10.839 -0.7224  0.7565 -0.2109
  463MOL0     O63764  -0.106   5.945  10.865 -0.2946 -0.0172  0.4326
  463MOL0     C63765  -0.159   5.880  10.746  0.0317  0.3445  0.6732
  463MOL0     C63766  -0.217   5.736  10.787  0.2022  0.5225  0.6947
  463MOL0     C63767  -0.261   5.658  10.660 -0.6350  0.3135  0.3473
  463MOL0     C63768  -0.161   5.624  10.551 -0.5983  0.0980  0.0856
  463MOL0     C63769  -0.078   5.507  10.608  0.7097  0.1953  0.5383
  463MOL0     C63770  -0.020   5.421  10.493 -0.0175 -0.0056 -0.4080
  463MOL0     C63771   0.116   5.343  10.529  0.4165  0.1222  0.2075
  463MOL0     C63772   0.239   5.439  10.551  0.2381  0.3715  0.4198
  463MOL0     N63773   0.347   5.352  10.615 -0.5307 -0.9092 -0.0033
  463MOL0     C63774   0.458   5.302  10.552  0.3149 -0.3522 -0.6675
  463MOL0     C63775   0.531   5.244  10.654 -0.1271 -0.5703 -0.5492
  463MOL0     C63776   0.666   5.200  10.636  1.0501  0.1362 -0.7511
  463MOL0     C63777   0.769   5.314  10.632  0.4521 -0.3906  0.1356
  463MOL0     C63778   0.779   5.414  10.749  0.0872  0.0799 -0.0040
  463MOL0     C63779   0.900   5.496  10.732 -0.3331  0.3970  0.7346
  463MOL0     O63780   0.886   5.597  10.833 -0.4874 -0.4804  0.2039
  463MOL0     C63781   0.954   5.716  10.822  0.4948  0.1846 -0.3434
  463MOL0     C63782   0.906   5.827  10.885 -1.1214  0.4828  0.6203
  463MOL0     C63783   0.981   5.951  10.885  0.3589  0.2955 -0.2915
  463MOL0     C63784   0.910   6.071  10.946  0.1293 -0.7349 -0.5551
  463MOL0     C63785   1.107   5.956  10.827  0.0183 -0.0554  0.0498
  463MOL0     C63786   1.196   6.080  10.827 -0.2298 -0.4419 -0.6840
  463MOL0     O63787   1.295   6.085  10.737 -0.0039 -0.1844 -0.2669
  463MOL0     C63788   1.363   6.204  10.717  0.4858  0.5848 -0.1034
  463MOL0     C63789   1.293   6.327  10.696  0.0348 -0.0097 -1.0940
  463MOL0     C63790   1.360   6.446  10.666 -0.4657 -1.4683  0.1812
  463MOL0     C63791   1.500   6.451  10.660  0.4861  0.2039  0.3933
  463MOL0     O63792   1.546   6.573  10.624  0.6517 -0.0930 -0.2453
  463MOL0     C63793   1.680   6.602  10.644 -0.4193 -0.2820 -0.5272
  463MOL0     C63794   1.713   6.758  10.654  0.2494 -0.0248  0.4187
  463MOL0     C63795   1.690   6.818  10.517  0.0758  0.7790  0.1042
  463MOL0     C63796   1.688   6.968  10.516  0.8552  0.2065 -0.7076
  463MOL0     C63797   1.649   7.026  10.381  0.9771 -0.1298  0.0055
  463MOL0     C63798   1.656   7.179  10.365 -0.5248  0.3828 -0.2068
  463MOL0     C63799   1.544   7.247  10.435 -0.0858 -0.3403  0.6462
  463MOL0     C63800   1.561   7.400  10.428  0.1149  0.4362 -0.3944
  463MOL0    Cl63801   1.669   7.461  10.556  0.2140 -0.4648  0.2232
  463MOL0     C63802   1.569   6.329  10.686  0.6086 -0.3639 -0.1456
  463MOL0     C63803   1.504   6.211  10.712 -0.5347 -0.9069 -0.0555
  463MOL0     O63804   1.199   6.160  10.929  0.1814  0.4285  1.0154
  463MOL0     C63805   1.159   5.843  10.765  0.1991 -0.1114 -0.0525
  463MOL0     C63806   1.085   5.723  10.772  0.1411 -0.1074  0.4543
  463MOL0     N63807   0.472   5.283  10.775 -0.0766  0.8615  0.3322
  463MOL0     N63808   0.363   5.340  10.750  1.0227  0.3493 -0.0326
  463MOL0     C63809   0.066   6.094  10.939  0.6897 -0.6732  0.2575
  463MOL0     C63810   0.140   6.216  10.927  0.3019 -0.5401 -0.4648
  463MOL0     C63811   0.342   6.598  10.843 -0.1837  0.0215  1.2720
  463MOL0     C63812   0.433   6.565  10.740  0.1283 -0.5397 -0.9676
  463MOL0     C63813   0.529   6.656  10.703  0.1172 -0.2195  0.9505
  463MOL0     C63814   0.538   6.784  10.757 -0.4625  0.7193  0.3828
  463MOL0     O63815   0.632   6.877  10.706  0.4747  0.1511 -0.6375
  463MOL0     C63816   0.765   6.836  10.679 -1.1438  0.2817 -0.0660
  463MOL0     C63817   0.844   6.968  10.650 -0.0437  0.3136 -0.1262
  463MOL0     C63818   0.981   6.929  10.600 -0.0418  0.0389 -0.1438
  463MOL0     C63819   1.076   7.043  10.570 -0.1515  0.3093 -0.5219
  463MOL0     C63820   1.171   7.013  10.461 -0.1012 -0.2531  0.0981
  463MOL0     C63821   1.245   6.993  10.362  0.9380  0.3604  0.7119
  463MOL0     C63822   0.447   6.817  10.858 -0.7634  0.0673  0.3312
  463MOL0     C63823   0.349   6.728  10.902  0.4912  0.2053  0.2877
  463MOL0     C63824   0.258   6.775  11.005 -0.5725 -0.0339 -1.3424
  463MOL0     H63825   0.077   6.297  10.612  2.2288  0.1229  0.2899
  463MOL0     H63826  -0.066   6.085  10.635 -0.4642  0.5071 -0.1408
  463MOL0     H63827  -0.078   5.874  10.673 -1.2726 -1.7337 -0.7004
  463MOL0     H63828  -0.238   5.939  10.699  1.1241 -0.0760 -1.8362
  463MOL0     H63829  -0.136   5.680  10.835  1.3075 -0.2331 -1.8867
  463MOL0     H63830  -0.306   5.746  10.850  0.7407 -2.2507  2.0216
  463MOL0     H63831  -0.310   5.571  10.706 -0.2963  0.9081  1.9190
  463MOL0     H63832  -0.338   5.719  10.613  0.9745 -0.4712 -3.6563
  463MOL0     H63833  -0.220   5.591  10.465 -1.0150  0.0274  0.3952
  463MOL0     H63834  -0.104   5.715  10.531 -1.0752 -0.0308 -2.1451
  463MOL0     H63835  -0.139   5.446  10.674 -2.5492  2.6126 -0.0212
  463MOL0     H63836   0.004   5.556  10.661 -0.1630  1.2070  0.9819
  463MOL0     H63837  -0.093   5.350  10.451  0.8643 -1.4222  0.3892
  463MOL0     H63838   0.006   5.486  10.409 -1.6609 -1.7150 -2.3529
  463MOL0     H63839   0.137   5.273  10.448 -1.5983  1.0739 -1.2356
  463MOL0     H63840   0.104   5.287  10.622 -0.7881 -0.2544 -0.1552
  463MOL0     H63841   0.274   5.481  10.456  1.5512 -1.6791 -0.0555
  463MOL0     H63842   0.211   5.516  10.623 -0.5493  0.2445  0.2583
  463MOL0     H63843   0.478   5.320  10.447  0.8620 -2.4673 -0.9637
  463MOL0     H63844   0.669   5.141  10.544 -1.2116 -1.9905  0.4414
  463MOL0     H63845   0.696   5.133  10.717 -1.1096 -2.0161 -1.6299
  463MOL0     H63846   0.867   5.265  10.625  0.8303  0.4263 -0.4201
  463MOL0     H63847   0.762   5.377  10.543 -0.1514 -1.5815 -0.6872
  463MOL0     H63848   0.695   5.483  10.741  0.9443  1.2639  0.9240
  463MOL0     H63849   0.777   5.369  10.848 -2.7115  0.4313  0.1687
  463MOL0     H63850   0.986   5.434  10.759 -2.3914 -2.6489  0.8513
  463MOL0     H63851   0.905   5.536  10.630 -1.7826 -0.2235  0.3859
  463MOL0     H63852   0.815   5.812  10.942 -0.0452 -5.4045  1.4015
  463MOL0     H63853   0.929   6.087  11.053 -1.9226 -1.0536 -0.1048
  463MOL0     H63854   0.803   6.058  10.929  0.0023  1.3264 -1.7359
  463MOL0     H63855   0.938   6.166  10.899 -1.9387  1.3630  2.1221
  463MOL0     H63856   1.184   6.333  10.694 -0.5773 -5.4159 -0.2165
  463MOL0     H63857   1.319   6.545  10.651  0.6760 -0.9277  0.5643
  463MOL0     H63858   1.711   6.558  10.739  0.4812 -1.7786 -1.4554
  463MOL0     H63859   1.744   6.542  10.578 -1.4105 -0.9177 -0.9225
  463MOL0     H63860   1.651   6.813  10.726  0.3284  0.8133 -0.1497
  463MOL0     H63861   1.815   6.777  10.688 -0.2976  2.2610  0.9797
  463MOL0     H63862   1.600   6.787  10.463 -0.1928  0.6217  0.6312
  463MOL0     H63863   1.766   6.778  10.450 -0.9490  0.7152 -1.0488
  463MOL0     H63864   1.787   7.004  10.545  1.3343 -0.3649 -1.6040
  463MOL0     H63865   1.613   7.001  10.589 -0.2772 -3.1230 -0.1813
  463MOL0     H63866   1.727   6.988  10.314  0.9961 -1.3676  0.6891
  463MOL0     H63867   1.549   6.989  10.355  1.9233 -1.0360 -2.7122
  463MOL0     H63868   1.655   7.189  10.256  0.2405 -1.5627 -0.4467
  463MOL0     H63869   1.756   7.211  10.396  0.2707 -1.9646 -0.1336
  463MOL0     H63870   1.536   7.215  10.539 -2.6512 -2.8050 -0.1936
  463MOL0     H63871   1.445   7.227  10.395  0.0230 -1.1530  0.7617
  463MOL0     H63872   1.460   7.442  10.432 -0.0551 -0.0540  1.0680
  463MOL0     H63873   1.605   7.433  10.333  2.1713  1.8879  0.9962
  463MOL0     H63874   1.678   6.328  10.687  0.6259 -0.6393  2.1950
  463MOL0     H63875   1.555   6.118  10.734 -0.0306 -0.5687  0.2073
  463MOL0     H63876   1.258   5.844  10.721 -0.9906  1.8683 -2.9595
  463MOL0     H63877   1.133   5.636  10.728  0.6041  1.1301 -1.5778
  463MOL0     H63878   0.068   6.051  11.039  0.0082  0.6259  0.8647
  463MOL0     H63879   0.203   6.242  11.011  0.0228 -1.9359  0.2051
  463MOL0     H63880   0.439   6.465  10.699 -1.2810 -0.5042 -1.2966
  463MOL0     H63881   0.595   6.615  10.627  0.3224 -0.0310  1.0279
  463MOL0     H63882   0.812   6.783  10.763 -2.3460 -1.8550 -0.6505
  463MOL0     H63883   0.763   6.770  10.592  0.4564  0.0328  0.0625
  463MOL0     H63884   0.857   7.014  10.748  3.4011 -2.9199  1.1787
  463MOL0     H63885   0.804   7.037  10.575 -1.1802 -0.9485 -0.7237
  463MOL0     H63886   1.035   6.884  10.683  1.6575  0.9137 -0.7128
  463MOL0     H63887   0.981   6.854  10.519  3.3052 -0.1671 -0.1028
  463MOL0     H63888   1.131   7.066  10.662 -1.3401 -1.8963  0.8188
  463MOL0     H63889   1.014   7.124  10.531 -1.6142 -0.0530  0.9503
  463MOL0     H63890   1.295   6.980  10.268 -1.6993  0.1673 -0.7575
  463MOL0     H63891   0.465   6.916  10.900  0.3702  0.9167 -1.9799
  463MOL0     H63892   0.241   6.702  11.084  0.7652  0.8589 -0.1655
  463MOL0     H63893   0.282   6.864  11.064  3.9739 -1.5872 -0.4264
  463MOL0     H63894   0.159   6.780  10.959 -0.2365 -1.1257 -2.2286
  464MOL0     O63895  11.318   1.263   2.155  0.0260  0.4306 -0.6496
  464MOL0     C63896  11.296   1.325   2.053 -0.9586  0.1155  0.4932
  464MOL0     O63897  11.369   1.437   2.017 -0.5233 -0.5446 -0.1382
  464MOL0     C63898  11.460   1.505   2.096  1.0644 -0.0084 -0.2147
  464MOL0     C63899  11.522   1.470   2.219  0.2109 -0.5563 -0.1938
  464MOL0     C63900  11.623   1.552   2.279  0.1101 -0.3672 -0.5049
  464MOL0     C63901  11.673   1.671   2.206  0.5731  1.3480  0.6474
  464MOL0     O63902  11.757   1.761   2.266  0.0834 -0.3468  0.4558
  464MOL0     C63903  11.804   1.742   2.400  0.0948  0.4632 -0.0654
  464MOL0     C63904  11.917   1.639   2.407  0.8145  0.6320  0.2413
  464MOL0     C63905  11.966   1.621   2.551  0.1789  0.4102  0.2680
  464MOL0     C63906  12.089   1.529   2.553  0.7199  0.5968 -0.8561
  464MOL0     C63907  12.171   1.542   2.680 -0.4342  1.0555  0.0216
  464MOL0     C63908  12.243   1.681   2.684 -0.0133  0.2745 -0.2313
  464MOL0     C63909  12.365   1.669   2.777 -0.5055 -0.0915 -0.2696
  464MOL0     C63910  12.438   1.805   2.790 -0.0190 -0.4002 -0.4803
  464MOL0     N63911  12.554   1.799   2.882 -0.2910 -0.9852 -0.3053
  464MOL0     C63912  12.542   1.766   3.017 -0.7492 -0.5891 -1.0696
  464MOL0     C63913  12.665   1.773   3.072 -0.7112  0.1451  0.0496
  464MOL0     C63914  12.719   1.752   3.214 -0.2234  0.5682  0.0849
  464MOL0     C63915  12.661   1.627   3.280  0.6626 -0.1428 -0.4471
  464MOL0     C63916  12.669   1.625   3.434  0.3074  0.4494 -0.4256
  464MOL0     C63917  12.609   1.742   3.510  0.4715  0.2418 -0.6093
  464MOL0     O63918  12.623   1.726   3.652  0.0557  0.4824 -0.2958
  464MOL0     C63919  12.752   1.755   3.702  0.7569  0.1581  0.3478
  464MOL0     C63920  12.774   1.885   3.749  0.1841 -0.0374 -0.3815
  464MOL0     C63921  12.902   1.908   3.812  0.4860  0.1893 -0.7168
  464MOL0     C63922  12.939   2.055   3.841  0.6462  0.6271 -0.3255
  464MOL0     C63923  12.994   1.804   3.831  0.6631  0.2591  0.1131
  464MOL0     C63924  13.122   1.826   3.898 -0.2807  0.1657  0.4807
  464MOL0     O63925  13.214   1.883   3.820  0.1497 -0.2788 -0.0038
  464MOL0     C63926  13.328   1.916   3.886 -0.3716  0.7862 -0.2025
  464MOL0     C63927  13.451   1.856   3.856 -0.3473 -0.3650  0.6957
  464MOL0     C63928  13.579   1.884   3.920  0.4716  0.0537 -0.5683
  464MOL0     C63929  13.577   1.980   4.023 -0.3601 -0.3808  0.1039
  464MOL0     O63930  13.696   2.012   4.082 -0.2671 -0.2694 -0.3847
  464MOL0     C63931  13.692   2.089   4.203  0.4945 -0.3587  0.0881
  464MOL0     C63932  13.833   2.117   4.248 -0.2728  0.0330 -1.0097
  464MOL0     C63933  13.921   1.987   4.270  0.4405 -0.3640 -0.3288
  464MOL0     C63934  13.879   1.910   4.399 -0.5826 -0.2604  0.4713
  464MOL0     C63935  13.966   1.795   4.429 -0.0925  0.2171  0.1955
  464MOL0     C63936  14.105   1.841   4.457 -0.1511  0.3825 -0.4531
  464MOL0     C63937  14.196   1.738   4.527 -0.9390 -0.0556 -1.0664
  464MOL0     C63938  14.333   1.801   4.541  0.6937  0.1873 -0.3263
  464MOL0    Cl63939  14.437   1.692   4.643  0.1601  0.1985  0.0442
  464MOL0     C63940  13.448   2.042   4.055 -1.0753  0.2113  0.1914
  464MOL0     C63941  13.330   2.008   3.988 -0.5544 -1.5691 -0.0090
  464MOL0     O63942  13.138   1.780   4.017  0.4656 -0.2725 -0.2546
  464MOL0     C63943  12.971   1.682   3.774 -0.0957 -0.3251  0.0214
  464MOL0     C63944  12.848   1.656   3.712 -0.7197 -0.1690 -0.7495
  464MOL0     N63945  12.751   1.807   2.965 -0.0859  0.2377 -0.0359
  464MOL0     N63946  12.687   1.823   2.855  0.2142 -0.0063  0.3379
  464MOL0     C63947  11.617   1.697   2.086  0.8793  0.2152  0.6510
  464MOL0     C63948  11.510   1.617   2.033  0.7903 -0.5042 -0.1384
  464MOL0     C63949  11.195   1.287   1.954 -0.2522 -0.2837  0.1716
  464MOL0     C63950  11.213   1.316   1.819  0.2259 -0.4240  0.7404
  464MOL0     C63951  11.124   1.279   1.720 -0.3587 -0.5857 -0.1566
  464MOL0     C63952  11.012   1.206   1.754 -0.0608 -0.6865  0.2370
  464MOL0     O63953  10.939   1.165   1.644  0.6039  0.2481  0.3068
  464MOL0     C63954  10.813   1.099   1.652 -0.3594 -0.0158 -0.8207
  464MOL0     C63955  10.702   1.203   1.667 -0.1374 -0.1360 -0.4443
  464MOL0     C63956  10.558   1.148   1.672 -0.1068 -0.3484  0.3714
  464MOL0     C63957  10.531   1.052   1.781 -0.1208 -0.6269 -0.6955
  464MOL0     C63958  10.591   1.082   1.919  0.3258 -0.8142  0.0451
  464MOL0     C63959  10.631   1.126   2.027 -0.4010  0.0657  0.3063
  464MOL0     C63960  10.986   1.176   1.897  0.8694 -0.3890  0.1734
  464MOL0     C63961  11.077   1.216   1.995  0.4986  0.8977  0.1573
  464MOL0     C63962  11.048   1.172   2.148 -0.6172 -0.3637 -0.1410
  464MOL0     H63963  11.514   1.373   2.267  1.4007  0.3340  1.8836
  464MOL0     H63964  11.653   1.529   2.381 -1.9184 -0.3621  0.1271
  464MOL0     H63965  11.727   1.713   2.472 -0.3323  1.1761 -0.2249
  464MOL0     H63966  11.845   1.836   2.437  0.3251  1.6172 -2.9946
  464MOL0     H63967  11.887   1.545   2.360 -1.1114  1.9932 -1.4545
  464MOL0     H63968  11.998   1.673   2.342 -0.8549  0.2016 -2.1940
  464MOL0     H63969  11.986   1.718   2.598  0.7756 -1.1646  3.4895
  464MOL0     H63970  11.887   1.580   2.614 -0.4817  2.3706  0.7944
  464MOL0     H63971  12.045   1.430   2.544 -1.3896  1.1050  2.2162
  464MOL0     H63972  12.158   1.550   2.470  0.5349  1.9522 -0.7031
  464MOL0     H63973  12.244   1.463   2.702 -1.5811  0.6098  2.5965
  464MOL0     H63974  12.098   1.521   2.759 -1.6901  0.2220 -1.3023
  464MOL0     H63975  12.263   1.717   2.582  0.9400 -0.2582 -0.2421
  464MOL0     H63976  12.175   1.758   2.722 -1.3630  0.6920 -3.1610
  464MOL0     H63977  12.438   1.600   2.734 -2.1560 -2.0628 -0.0426
  464MOL0     H63978  12.335   1.641   2.879  3.0449  0.6068  1.1164
  464MOL0     H63979  12.473   1.835   2.691 -0.7313 -0.6295 -0.8071
  464MOL0     H63980  12.367   1.878   2.829 -1.6012 -1.9177 -0.3637
  464MOL0     H63981  12.453   1.738   3.073 -0.1745 -1.7092 -0.6806
  464MOL0     H63982  12.686   1.837   3.274  1.2422  1.4218 -0.2697
  464MOL0     H63983  12.829   1.748   3.217 -0.2568 -1.9046  3.2220
  464MOL0     H63984  12.561   1.600   3.245  1.2448 -2.3529 -0.5360
  464MOL0     H63985  12.718   1.542   3.243  1.6271  1.0900 -1.9499
  464MOL0     H63986  12.630   1.535   3.483 -1.8637  1.9007  0.6962
  464MOL0     H63987  12.777   1.629   3.452  0.2451 -0.0316  0.0681
  464MOL0     H63988  12.661   1.838   3.494 -1.7000  1.6272  0.2366
  464MOL0     H63989  12.502   1.757   3.498  0.3183  0.2751  0.6860
  464MOL0     H63990  12.697   1.962   3.747 -0.1798 -0.3964 -2.4124
  464MOL0     H63991  12.984   2.069   3.939  3.3928  0.4520 -1.4716
  464MOL0     H63992  12.848   2.116   3.841  0.4636  0.3588  0.0318
  464MOL0     H63993  13.006   2.097   3.765  0.0789 -2.1615 -2.5436
  464MOL0     H63994  13.444   1.789   3.771 -0.8083  0.8982 -0.2981
  464MOL0     H63995  13.666   1.835   3.878 -2.0749 -2.1638 -3.7364
  464MOL0     H63996  13.652   2.190   4.189  3.6031  1.0433  0.5444
  464MOL0     H63997  13.644   2.047   4.292  1.8336  0.8952  1.4408
  464MOL0     H63998  13.888   2.173   4.172  1.4665 -1.1399 -0.6665
  464MOL0     H63999  13.821   2.173   4.342 -4.4163 -1.1380 -0.6490
  464MOL0     H64000  14.017   2.034   4.291  0.4609  0.2123 -1.5646
  464MOL0     H64001  13.926   1.926   4.179  0.8046  0.4258 -0.8531
  464MOL0     H64002  13.781   1.865   4.377 -1.2854  1.8289 -1.0605
  464MOL0     H64003  13.871   1.980   4.482 -2.6942 -0.2254  0.3072
  464MOL0     H64004  13.927   1.732   4.510 -1.7845 -2.2344 -2.3221
  464MOL0     H64005  13.977   1.726   4.345  1.5182 -1.7183  1.9066
  464MOL0     H64006  14.104   1.925   4.527 -0.3167 -0.0077  0.0170
  464MOL0     H64007  14.167   1.858   4.368  1.9574  1.9566  1.1968
  464MOL0     H64008  14.201   1.650   4.463  0.9199 -0.6927 -0.1187
  464MOL0     H64009  14.160   1.714   4.628 -2.0571  0.7833 -1.2419
  464MOL0     H64010  14.322   1.894   4.599  1.4724  0.8868 -1.2623
  464MOL0     H64011  14.387   1.828   4.450  2.7675  2.8975  1.5235
  464MOL0     H64012  13.448   2.120   4.130  0.8939 -1.1248  1.6516
  464MOL0     H64013  13.238   2.057   4.015  0.5729  0.1362  0.9548
  464MOL0     H64014  13.033   1.593   3.784  0.9197 -0.0319 -2.9303
  464MOL0     H64015  12.833   1.551   3.691  3.2316 -1.0148 -0.0924
  464MOL0     H64016  11.646   1.779   2.021  1.7314  0.3318  1.1498
  464MOL0     H64017  11.473   1.650   1.937  2.7145  3.9750  0.3894
  464MOL0     H64018  11.304   1.366   1.787 -1.3481  0.4085 -3.0704
  464MOL0     H64019  11.145   1.307   1.617 -0.9324 -0.1837 -0.1649
  464MOL0     H64020  10.795   1.047   1.557  0.3239  0.3217 -1.1428
  464MOL0     H64021  10.809   1.027   1.734  0.8187 -0.2662 -0.9640
  464MOL0     H64022  10.710   1.258   1.573 -0.1558 -2.0958 -1.6402
  464MOL0     H64023  10.722   1.273   1.749  3.2607 -1.1795 -0.2170
  464MOL0     H64024  10.491   1.234   1.674  1.4849  0.9612 -0.6802
  464MOL0     H64025  10.538   1.092   1.580  2.9766 -2.3179  0.7502
  464MOL0     H64026  10.548   0.951   1.742 -1.9521 -1.0207 -0.6114
  464MOL0     H64027  10.422   1.043   1.787  0.0348 -2.2266  0.8451
  464MOL0     H64028  10.668   1.167   2.119 -0.8398  1.9890 -0.3227
  464MOL0     H64029  10.893   1.121   1.908  0.2427 -0.0038 -2.5247
  464MOL0     H64030  11.076   1.254   2.215 -1.3590 -1.2294  1.2955
  464MOL0     H64031  10.945   1.143   2.166 -0.6339 -1.0733 -1.2761
  464MOL0     H64032  11.120   1.090   2.158  0.1830  0.2505 -0.7335
  465MOL0     O64033  10.269   1.211   6.332  0.2513 -0.1556  0.0577
  465MOL0     C64034  10.196   1.193   6.433 -0.5695  0.2191  0.7858
  465MOL0     O64035  10.202   1.276   6.552 -0.0992  0.5349 -0.1771
  465MOL0     C64036  10.306   1.363   6.558  0.1524 -1.0308 -0.1271
  465MOL0     C64037  10.436   1.318   6.589 -0.5190  0.1874 -0.0717
  465MOL0     C64038  10.543   1.409   6.604 -0.0375  0.3223 -0.1246
  465MOL0     C64039  10.515   1.550   6.585  0.6697  0.9526  0.0758
  465MOL0     O64040  10.607   1.646   6.582  0.3209 -0.3375 -0.5524
  465MOL0     C64041  10.648   1.698   6.451 -0.1610 -0.1863  0.8512
  465MOL0     C64042  10.754   1.606   6.393  0.9482 -1.1164  0.6338
  465MOL0     C64043  10.872   1.598   6.484 -0.6651  0.4017  0.1819
  465MOL0     C64044  10.994   1.547   6.409 -0.9398 -0.0037  0.0269
  465MOL0     C64045  11.108   1.512   6.505 -0.8600 -0.1128  0.3959
  465MOL0     C64046  11.227   1.439   6.448 -0.2592 -0.2755 -0.1382
  465MOL0     C64047  11.341   1.401   6.551  0.4559 -0.7198  0.1130
  465MOL0     C64048  11.395   1.531   6.627 -0.4206 -0.2258  0.2638
  465MOL0     N64049  11.494   1.498   6.725 -0.0369 -0.8466  0.4220
  465MOL0     C64050  11.626   1.478   6.702  0.2729  0.9324  0.2156
  465MOL0     C64051  11.680   1.477   6.828  0.1919 -0.0371 -0.5162
  465MOL0     C64052  11.825   1.428   6.835  0.2581  0.0928  0.1472
  465MOL0     C64053  11.908   1.497   6.937 -0.8373 -0.4619  0.0482
  465MOL0     C64054  11.924   1.641   6.904  0.8655 -0.1554  0.5647
  465MOL0     C64055  12.003   1.721   7.010  0.4322 -0.1237  0.3386
  465MOL0     O64056  12.138   1.668   7.023 -0.3567 -0.2067  0.5077
  465MOL0     C64057  12.225   1.734   7.112 -0.0657 -0.0100 -0.8884
  465MOL0     C64058  12.356   1.698   7.121  0.1433  0.2492 -0.3081
  465MOL0     C64059  12.446   1.765   7.213  0.4237 -0.2336 -0.1318
  465MOL0     C64060  12.579   1.707   7.204 -0.2577 -0.4606 -0.9089
  465MOL0     C64061  12.402   1.873   7.297  1.4786 -0.8850 -0.2291
  465MOL0     C64062  12.473   1.959   7.401 -0.4308  0.0374 -0.5444
  465MOL0     O64063  12.611   1.958   7.410 -0.2878 -0.2423  0.8707
  465MOL0     C64064  12.676   2.078   7.435  0.3006 -0.5098  0.3209
  465MOL0     C64065  12.731   2.138   7.323 -0.2121  0.2546  0.2590
  465MOL0     C64066  12.811   2.253   7.340  0.4067 -0.0289  0.4278
  465MOL0     C64067  12.827   2.318   7.463  0.0899 -0.5183 -0.0078
  465MOL0     O64068  12.905   2.431   7.482  0.6610  0.9128  0.1976
  465MOL0     C64069  13.005   2.458   7.390 -0.4783 -0.5466  0.3976
  465MOL0     C64070  12.973   2.579   7.313 -0.7850 -0.7127 -0.0468
  465MOL0     C64071  13.088   2.622   7.215  0.2847  0.3180 -0.0151
  465MOL0     C64072  13.050   2.743   7.131 -0.3214 -0.3945  0.4024
  465MOL0     C64073  13.166   2.784   7.047  0.1519 -0.2176 -0.7458
  465MOL0     C64074  13.267   2.877   7.119  0.0240  0.4027 -0.4293
  465MOL0     C64075  13.391   2.908   7.031  0.7200 -0.1486  0.1847
  465MOL0     C64076  13.474   3.029   7.073 -0.1889 -0.1882 -0.8762
  465MOL0    Cl64077  13.602   2.989   7.184 -0.4138  0.5825 -0.1542
  465MOL0     C64078  12.756   2.262   7.574 -0.0899 -0.9162 -0.3647
  465MOL0     C64079  12.682   2.146   7.562  0.1570 -0.6802 -0.5343
  465MOL0     O64080  12.407   2.029   7.476  0.1390  0.1948  0.7580
  465MOL0     C64081  12.268   1.912   7.272 -0.0677 -0.3664 -0.0171
  465MOL0     C64082  12.175   1.845   7.184 -0.2360 -0.8531  0.6648
  465MOL0     N64083  11.584   1.488   6.922  0.1141 -0.2508 -0.0152
  465MOL0     N64084  11.475   1.503   6.858  0.2828  0.0936  0.5553
  465MOL0     C64085  10.386   1.589   6.547  0.6560 -0.0537  0.3016
  465MOL0     C64086  10.284   1.500   6.536 -0.8535  0.0811  0.5966
  465MOL0     C64087  10.076   1.104   6.423 -0.5577  0.3545  0.4749
  465MOL0     C64088   9.951   1.143   6.479 -0.1347 -0.2480  0.5903
  465MOL0     C64089   9.831   1.075   6.456  0.1641 -0.3632  0.0094
  465MOL0     C64090   9.835   0.962   6.381  0.0056  0.3558  0.2729
  465MOL0     O64091   9.717   0.892   6.373  0.0168 -0.0430 -0.6337
  465MOL0     C64092   9.683   0.796   6.271 -0.7978  0.8139  0.6662
  465MOL0     C64093   9.568   0.705   6.304 -0.1853 -0.3514 -0.4113
  465MOL0     C64094   9.439   0.784   6.274 -0.5603 -0.4296  0.4222
  465MOL0     C64095   9.309   0.710   6.302  0.7130  0.0867  0.1013
  465MOL0     C64096   9.291   0.576   6.240 -0.1549 -0.0236  0.4795
  465MOL0     C64097   9.269   0.479   6.174 -0.4678  1.0411  0.1767
  465MOL0     C64098   9.957   0.926   6.319  0.0294 -0.3689  0.2699
  465MOL0     C64099  10.075   0.991   6.346 -0.3811  0.6095 -0.2926
  465MOL0     C64100  10.203   0.926   6.288  0.6534 -0.4276 -1.5760
  465MOL0     H64101  10.447   1.211   6.600  0.3191  0.2132 -0.6380
  465MOL0     H64102  10.642   1.368   6.624 -1.0208 -0.3239  4.7475
  465MOL0     H64103  10.694   1.797   6.459 -0.6706  0.2979 -1.6308
  465MOL0     H64104  10.567   1.713   6.380  1.9074 -0.2994 -1.6915
  465MOL0     H64105  10.708   1.508   6.375 -0.7999 -0.1194 -0.6522
  465MOL0     H64106  10.782   1.645   6.295 -1.4086  0.0448  0.3374
  465MOL0     H64107  10.900   1.694   6.529 -3.0504  0.6363  1.3674
  465MOL0     H64108  10.838   1.526   6.559  0.0047 -2.0954 -1.7732
  465MOL0     H64109  10.973   1.465   6.340 -0.1233 -0.4525  0.2928
  465MOL0     H64110  11.039   1.623   6.345 -0.5118  0.0721  0.4115
  465MOL0     H64111  11.066   1.439   6.575  3.0346 -2.8875  0.1951
  465MOL0     H64112  11.127   1.607   6.555 -0.4928  0.6087 -1.0508
  465MOL0     H64113  11.188   1.342   6.417 -0.5358 -0.1160 -0.2898
  465MOL0     H64114  11.277   1.499   6.372  0.6594 -0.6908  0.1257
  465MOL0     H64115  11.423   1.359   6.493  0.5148 -0.1112 -0.2595
  465MOL0     H64116  11.300   1.330   6.622  0.2280 -0.3814  0.3232
  465MOL0     H64117  11.433   1.599   6.550 -0.6196 -0.9513 -0.5017
  465MOL0     H64118  11.305   1.570   6.675 -1.0902 -0.1147 -1.0120
  465MOL0     H64119  11.680   1.472   6.608 -0.7475  1.0155 -0.3881
  465MOL0     H64120  11.875   1.447   6.740 -0.5140  2.4523  0.1537
  465MOL0     H64121  11.832   1.319   6.840 -2.0929 -0.1389 -0.5761
  465MOL0     H64122  11.858   1.483   7.033 -0.8261 -2.5956 -0.2161
  465MOL0     H64123  12.012   1.462   6.940  0.3116  2.3124 -2.4655
  465MOL0     H64124  11.974   1.653   6.807  0.4842  3.2863  0.6732
  465MOL0     H64125  11.830   1.697   6.896  1.7128  1.1425 -0.9416
  465MOL0     H64126  12.015   1.828   6.989 -0.8013 -0.0546 -0.0967
  465MOL0     H64127  11.950   1.719   7.106  0.4872 -0.1636  0.3684
  465MOL0     H64128  12.381   1.609   7.064 -0.7683  0.1279 -0.5485
  465MOL0     H64129  12.603   1.658   7.109  0.6844  0.5481 -1.2203
  465MOL0     H64130  12.587   1.621   7.270 -1.3337 -0.3438 -0.5975
  465MOL0     H64131  12.657   1.779   7.230  0.9038 -2.1732  0.4699
  465MOL0     H64132  12.717   2.100   7.222  2.0192  0.6310 -0.2525
  465MOL0     H64133  12.857   2.284   7.246  0.0656 -0.4447  0.1203
  465MOL0     H64134  13.097   2.485   7.443 -1.2164  1.8630  0.5666
  465MOL0     H64135  13.034   2.371   7.330  0.8358 -1.6436  2.4795
  465MOL0     H64136  12.880   2.586   7.257 -0.0012  1.3488 -1.2372
  465MOL0     H64137  12.971   2.660   7.387 -0.5114 -1.6521  1.0070
  465MOL0     H64138  13.106   2.534   7.152  2.5428  1.2331 -0.7429
  465MOL0     H64139  13.178   2.644   7.273 -0.5339  0.4502  1.2463
  465MOL0     H64140  13.017   2.828   7.191 -2.4177 -0.9070  0.0648
  465MOL0     H64141  12.961   2.717   7.073 -0.2957 -0.9583  0.6070
  465MOL0     H64142  13.214   2.694   7.008  1.1296  1.8613 -4.9774
  465MOL0     H64143  13.126   2.840   6.962 -2.4493  1.9086  1.6548
  465MOL0     H64144  13.288   2.823   7.211 -1.1890  1.1725  0.3260
  465MOL0     H64145  13.215   2.969   7.146 -0.8246 -0.4310  0.8997
  465MOL0     H64146  13.343   2.932   6.936 -1.8463  0.0361  1.4430
  465MOL0     H64147  13.456   2.823   7.008 -0.1646 -1.0586  0.9855
  465MOL0     H64148  13.409   3.109   7.112 -1.9442 -1.9927  0.0846
  465MOL0     H64149  13.515   3.079   6.984  1.0271 -0.3678 -0.4276
  465MOL0     H64150  12.762   2.329   7.659  0.9834  0.7111 -1.6333
  465MOL0     H64151  12.636   2.101   7.650 -1.0395 -2.2521 -1.8990
  465MOL0     H64152  12.230   1.996   7.329  0.7054 -0.0872  0.1074
  465MOL0     H64153  12.072   1.879   7.187  0.1217  0.2095  1.9590
  465MOL0     H64154  10.372   1.694   6.520 -0.0027  0.0692  1.0736
  465MOL0     H64155  10.182   1.524   6.510 -0.7778  1.0355  1.1187
  465MOL0     H64156   9.947   1.233   6.539 -0.4485  1.7111 -2.1821
  465MOL0     H64157   9.735   1.112   6.491 -0.0898  0.4886 -1.5185
  465MOL0     H64158   9.652   0.852   6.183  1.8566  0.2130 -0.7760
  465MOL0     H64159   9.768   0.730   6.251 -0.1559  1.7220  0.3570
  465MOL0     H64160   9.581   0.673   6.408  1.4414  2.9512  0.5620
  465MOL0     H64161   9.591   0.612   6.251  2.1552 -0.2333  0.2695
  465MOL0     H64162   9.452   0.868   6.344 -0.5246 -0.6619  0.6977
  465MOL0     H64163   9.439   0.820   6.171  1.8896  0.7609  0.7502
  465MOL0     H64164   9.224   0.772   6.271  1.0097 -0.2158 -1.3672
  465MOL0     H64165   9.304   0.699   6.411 -0.1379 -1.1374 -0.0462
  465MOL0     H64166   9.230   0.387   6.135 -2.7043  0.7346  2.8101
  465MOL0     H64167   9.950   0.842   6.250  1.4294 -0.0411 -0.2961
  465MOL0     H64168  10.239   0.981   6.200  0.9410  1.7139 -0.1855
  465MOL0     H64169  10.282   0.934   6.363 -0.9812 -0.2718  0.2215
  465MOL0     H64170  10.193   0.819   6.268 -0.2814 -0.2004 -2.4307
  466MOL0     O64171   5.733   1.323   9.861 -0.0148  0.3937  0.2651
  466MOL0     C64172   5.701   1.223   9.925  0.0112  0.9313  0.6482
  466MOL0     O64173   5.788   1.135   9.992  0.0942  0.2213  0.4038
  466MOL0     C64174   5.919   1.172   9.996 -0.4326  0.0119  0.1860
  466MOL0     C64175   5.964   1.200  10.119  0.5638 -0.1547 -0.1793
  466MOL0     C64176   6.095   1.230  10.135  0.2199 -0.2342 -0.1891
  466MOL0     C64177   6.188   1.213  10.037 -0.7042  0.0094  0.7771
  466MOL0     O64178   6.325   1.222  10.053  0.2547 -0.3794 -0.2494
  466MOL0     C64179   6.413   1.227   9.942  0.8451 -0.3893  0.7269
  466MOL0     C64180   6.557   1.262   9.991  0.7410  0.0800  0.8155
  466MOL0     C64181   6.634   1.358   9.890 -0.3913  0.4500 -0.0754
  466MOL0     C64182   6.737   1.442   9.952 -0.2015 -0.2916 -0.2919
  466MOL0     C64183   6.873   1.372   9.978 -0.2828 -0.1135 -0.4794
  466MOL0     C64184   6.873   1.235  10.046  0.2242 -0.5527  0.1051
  466MOL0     C64185   7.026   1.197  10.082  1.1520 -0.6082  0.6124
  466MOL0     C64186   7.113   1.176   9.950 -0.0496  0.7274  0.4470
  466MOL0     N64187   7.242   1.117   9.981 -0.8931 -0.3076 -0.2384
  466MOL0     C64188   7.356   1.193   9.988 -1.1051  0.3715  0.8049
  466MOL0     C64189   7.446   1.108  10.048  0.3308 -0.5749  0.0743
  466MOL0     C64190   7.585   1.150  10.076 -0.1937 -0.4025 -0.6499
  466MOL0     C64191   7.687   1.072   9.987 -0.4323  0.2046 -0.3297
  466MOL0     C64192   7.812   1.156   9.957 -0.6722  0.4197 -1.1214
  466MOL0     C64193   7.897   1.191  10.084  0.2763  0.3263  0.1155
  466MOL0     O64194   8.020   1.256  10.054 -0.2292  0.8993  0.1941
  466MOL0     C64195   8.132   1.185  10.013  0.6218  0.5158  0.0674
  466MOL0     C64196   8.137   1.045  10.007 -0.5750 -0.0306 -0.2541
  466MOL0     C64197   8.248   0.976   9.960 -0.2715  0.4455 -0.1594
  466MOL0     C64198   8.252   0.823   9.960  0.1870  0.1529 -0.0845
  466MOL0     C64199   8.363   1.049   9.920 -0.0090  0.2062  0.3241
  466MOL0     C64200   8.497   0.992   9.877 -0.1433 -0.3386 -0.0246
  466MOL0     O64201   8.608   1.078   9.865  0.6342 -0.4757  0.3295
  466MOL0     C64202   8.724   1.032   9.817  0.0544  0.4043 -0.3173
  466MOL0     C64203   8.741   1.054   9.682  0.4043  0.2793  1.0976
  466MOL0     C64204   8.865   1.022   9.623 -0.0050  0.1666 -0.6248
  466MOL0     C64205   8.971   0.974   9.707 -0.4038 -0.4755  0.5473
  466MOL0     O64206   9.099   0.983   9.659 -1.2252 -0.4041 -0.0440
  466MOL0     C64207   9.163   0.853   9.663 -0.4143 -0.3721 -0.5575
  466MOL0     C64208   9.287   0.858   9.564 -0.3102  0.0286 -0.4361
  466MOL0     C64209   9.377   0.977   9.574 -0.6169  0.2198  0.2653
  466MOL0     C64210   9.474   0.999   9.451 -0.1755 -0.5753 -0.4732
  466MOL0     C64211   9.562   0.880   9.431  0.5150 -0.4575 -0.3577
  466MOL0     C64212   9.688   0.922   9.350  0.3768 -0.7579  0.6497
  466MOL0     C64213   9.735   0.807   9.256 -0.0253  0.4578  0.4137
  466MOL0     C64214   9.886   0.800   9.247 -0.2651  0.4185 -0.0380
  466MOL0    Cl64215   9.953   0.939   9.149  0.1781 -0.1393 -0.1287
  466MOL0     C64216   8.946   0.937   9.840  0.2017 -0.5966 -0.1876
  466MOL0     C64217   8.821   0.963   9.894  0.1446 -0.0897 -0.6425
  466MOL0     O64218   8.500   0.871   9.861 -0.1186  0.0482 -0.1033
  466MOL0     C64219   8.356   1.190   9.936  0.3882  0.0143 -0.4925
  466MOL0     C64220   8.242   1.256   9.984  0.4466 -0.1324 -0.2889
  466MOL0     N64221   7.388   0.988  10.080 -0.4608  0.6837  0.5066
  466MOL0     N64222   7.271   0.991  10.029  0.0745 -1.2540 -0.6895
  466MOL0     C64223   6.139   1.194   9.907  0.1202 -0.2477 -0.1667
  466MOL0     C64224   6.010   1.178   9.891 -1.0357 -0.2467 -0.1522
  466MOL0     C64225   5.550   1.189   9.941 -0.0235 -0.1984 -0.3602
  466MOL0     C64226   5.516   1.062  10.014  0.0531 -0.6880  0.6320
  466MOL0     C64227   5.381   1.020  10.022  0.1298 -0.2160 -0.4912
  466MOL0     C64228   5.281   1.108   9.986  0.2618 -0.1552  0.3724
  466MOL0     O64229   5.151   1.063  10.001  0.5188 -0.3572  0.7394
  466MOL0     C64230   5.122   1.026  10.142  0.8569  0.1856  1.1460
  466MOL0     C64231   4.969   1.029  10.143  0.4084  0.3441  0.4911
  466MOL0     C64232   4.914   1.179  10.147  1.0118  0.6912  0.3344
  466MOL0     C64233   4.767   1.196  10.183  0.3561 -0.3602 -0.3196
  466MOL0     C64234   4.688   1.184  10.061  0.4411  0.7246  0.6245
  466MOL0     C64235   4.631   1.178   9.956  0.5370 -0.3957 -0.3055
  466MOL0     C64236   5.306   1.229   9.928  0.4643 -0.0553 -0.1758
  466MOL0     C64237   5.442   1.266   9.894 -0.2378 -1.0618 -0.2190
  466MOL0     C64238   5.455   1.399   9.819  0.3548  0.1627 -0.1247
  466MOL0     H64239   5.898   1.196  10.205 -0.8037  1.1673 -1.1094
  466MOL0     H64240   6.118   1.268  10.234 -1.7669  0.1055  0.1805
  466MOL0     H64241   6.366   1.300   9.875  0.0172 -1.9049 -0.4152
  466MOL0     H64242   6.419   1.137   9.881  1.3488  0.1941 -0.1227
  466MOL0     H64243   6.564   1.304  10.091  0.3298 -0.5633  1.1228
  466MOL0     H64244   6.604   1.163  10.000 -1.4053 -0.9600  1.1965
  466MOL0     H64245   6.676   1.302   9.806  2.0059 -0.8090  1.8535
  466MOL0     H64246   6.561   1.427   9.846 -2.4779 -2.0049 -0.6903
  466MOL0     H64247   6.763   1.530   9.893 -2.3390  0.6176  0.0283
  466MOL0     H64248   6.700   1.486  10.045  1.6899  0.9676 -0.0997
  466MOL0     H64249   6.935   1.434  10.043 -1.2784  0.2982  0.0974
  466MOL0     H64250   6.916   1.369   9.878  1.6163  3.9773  0.0338
  466MOL0     H64251   6.811   1.232  10.136 -0.1968  0.5686 -0.1319
  466MOL0     H64252   6.819   1.162   9.985 -0.7841 -0.1281  0.4636
  466MOL0     H64253   7.017   1.106  10.142  0.1516 -0.6150  0.4708
  466MOL0     H64254   7.068   1.280  10.139 -1.7669 -0.0286  2.0902
  466MOL0     H64255   7.084   1.098   9.878 -2.0954  3.6050 -2.0926
  466MOL0     H64256   7.129   1.268   9.894  0.6442 -0.0698 -0.7227
  466MOL0     H64257   7.370   1.295   9.952 -0.8565 -0.5415 -1.9660
  466MOL0     H64258   7.600   1.124  10.181 -3.2463  1.5868  0.4392
  466MOL0     H64259   7.600   1.259  10.080 -2.2076 -0.0077 -1.9169
  466MOL0     H64260   7.716   0.974  10.026 -2.0042  0.1871  0.9068
  466MOL0     H64261   7.638   1.061   9.890 -0.0943 -1.2431 -0.3592
  466MOL0     H64262   7.879   1.104   9.888  2.5748  0.1186  1.9274
  466MOL0     H64263   7.780   1.253   9.919  1.7720  1.2995 -1.1110
  466MOL0     H64264   7.838   1.247  10.157  1.5613  0.6430  0.9656
  466MOL0     H64265   7.912   1.097  10.139  1.5213 -0.6773 -1.8206
  466MOL0     H64266   8.041   0.998  10.023 -1.5262  2.1511  0.8171
  466MOL0     H64267   8.162   0.772   9.997  0.5026 -0.0742  0.3881
  466MOL0     H64268   8.334   0.787  10.023  1.5672  0.9034 -1.3906
  466MOL0     H64269   8.268   0.782   9.860 -1.2741 -1.4368  0.2706
  466MOL0     H64270   8.657   1.099   9.631 -0.4174 -2.3424 -0.0405
  466MOL0     H64271   8.887   1.053   9.522 -1.4282 -0.0360 -1.0234
  466MOL0     H64272   9.198   0.837   9.765 -3.0253 -0.6888  0.3598
  466MOL0     H64273   9.101   0.767   9.638  0.6957 -1.2991 -0.1962
  466MOL0     H64274   9.337   0.762   9.580 -0.8204 -0.1632  0.0671
  466MOL0     H64275   9.255   0.870   9.460 -1.3770 -0.4671 -0.1777
  466MOL0     H64276   9.441   0.960   9.662  0.6152  0.7175 -0.5082
  466MOL0     H64277   9.310   1.062   9.590 -0.5710  0.6201 -1.5304
  466MOL0     H64278   9.538   1.086   9.469 -2.2481  0.9702 -0.2710
  466MOL0     H64279   9.408   1.015   9.365  0.2724 -3.9125 -1.5721
  466MOL0     H64280   9.592   0.837   9.527 -1.5023 -0.5753  0.2743
  466MOL0     H64281   9.503   0.810   9.372 -2.1638  1.6890 -0.4508
  466MOL0     H64282   9.765   0.948   9.423 -1.1753  0.6536  1.8457
  466MOL0     H64283   9.668   1.007   9.284 -1.0877 -2.0585 -0.6608
  466MOL0     H64284   9.692   0.814   9.155 -2.6223  0.7427  1.4552
  466MOL0     H64285   9.706   0.705   9.283 -1.4048 -0.0267 -2.4032
  466MOL0     H64286   9.913   0.707   9.196 -0.7820  0.1750  0.1186
  466MOL0     H64287   9.938   0.793   9.343  2.9764 -3.2599 -1.7976
  466MOL0     H64288   9.026   0.908   9.908  0.6648  3.5064  1.2897
  466MOL0     H64289   8.801   0.962  10.001 -2.0233  2.7157 -0.9170
  466MOL0     H64290   8.439   1.254   9.909  2.1563 -1.1368  1.8540
  466MOL0     H64291   8.239   1.364   9.992 -2.7949 -0.0239 -1.5053
  466MOL0     H64292   6.207   1.178   9.825  1.0512 -1.1469  0.7427
  466MOL0     H64293   5.982   1.162   9.788  1.3447  1.3107 -1.1212
  466MOL0     H64294   5.586   0.988  10.051  0.0444 -0.6645  0.6965
  466MOL0     H64295   5.361   0.927  10.074  2.2609 -1.0809 -1.0845
  466MOL0     H64296   5.149   0.921  10.160 -1.4176 -1.1828 -2.3760
  466MOL0     H64297   5.166   1.101  10.208  1.7620  2.3434 -1.6954
  466MOL0     H64298   4.936   0.979  10.234 -0.1120  2.7154  1.6870
  466MOL0     H64299   4.930   0.968  10.060 -0.8087 -0.5862  1.7118
  466MOL0     H64300   4.983   1.218  10.222  2.6884  0.5786 -1.0846
  466MOL0     H64301   4.937   1.229  10.052 -3.2762 -1.3037 -2.0691
  466MOL0     H64302   4.756   1.296  10.225 -0.0509 -0.1397 -0.9301
  466MOL0     H64303   4.727   1.115  10.245  1.4602  0.3613  1.4081
  466MOL0     H64304   4.577   1.175   9.864  1.2712 -2.7640 -0.7298
  466MOL0     H64305   5.227   1.292   9.888 -1.1155 -1.9602 -0.2360
  466MOL0     H64306   5.362   1.452   9.801  0.4851  0.2904 -0.4296
  466MOL0     H64307   5.511   1.469   9.882 -0.2970 -2.3959  3.6601
  466MOL0     H64308   5.511   1.371   9.729  0.8243 -1.7481  0.6987
  467MOL0     O64309   7.344   0.153   6.790  0.3689  0.3614 -0.4159
  467MOL0     C64310   7.296   0.260   6.757  0.3668  0.0961 -0.7425
  467MOL0     O64311   7.352   0.361   6.684 -0.2884  0.2099  0.2305
  467MOL0     C64312   7.472   0.339   6.613 -0.0545  0.3562  0.1556
  467MOL0     C64313   7.489   0.230   6.527 -0.5974 -0.6731 -0.1084
  467MOL0     C64314   7.614   0.234   6.449  0.6857  0.0615 -0.1507
  467MOL0     C64315   7.701   0.342   6.462 -0.2760  0.7710  0.6537
  467MOL0     O64316   7.814   0.332   6.376 -0.4479 -0.7930  0.3474
  467MOL0     C64317   7.932   0.408   6.391 -0.7377  0.5247  0.5596
  467MOL0     C64318   8.029   0.362   6.276  0.4062 -0.1552  0.3109
  467MOL0     C64319   8.160   0.415   6.325  0.0719  0.4289  0.7582
  467MOL0     C64320   8.281   0.357   6.247  0.3940 -0.0516 -0.9071
  467MOL0     C64321   8.419   0.431   6.270  0.3972 -0.5122 -0.3525
  467MOL0     C64322   8.533   0.343   6.211 -0.2587 -0.7918  0.3725
  467MOL0     C64323   8.557   0.352   6.054 -0.1982  0.2334 -0.5052
  467MOL0     C64324   8.641   0.232   6.004  0.1009 -1.0258 -0.5942
  467MOL0     N64325   8.765   0.204   6.077  0.1645 -0.1555  0.0108
  467MOL0     C64326   8.792   0.105   6.160 -0.3827 -0.3277 -0.0838
  467MOL0     C64327   8.924   0.115   6.195 -0.1868  0.7395  0.3219
  467MOL0     C64328   8.989   0.000   6.272 -0.2462 -0.3927  0.0540
  467MOL0     C64329   9.113  -0.049   6.190  0.1479 -0.3858 -0.2066
  467MOL0     C64330   9.157  -0.178   6.242  0.6883  0.3503 -0.3363
  467MOL0     C64331   9.301  -0.221   6.192  0.4387 -0.2235 -0.4406
  467MOL0     O64332   9.414  -0.148   6.248  0.2069 -0.3232  0.3810
  467MOL0     C64333   9.536  -0.206   6.230  0.0509  0.6982  0.4669
  467MOL0     C64334   9.645  -0.139   6.284  0.9110 -0.5122  0.4227
  467MOL0     C64335   9.778  -0.177   6.267 -0.2522 -0.5873 -0.2616
  467MOL0     C64336   9.886  -0.090   6.322 -0.6442 -0.0955 -0.1784
  467MOL0     C64337   9.801  -0.299   6.205 -0.1962  0.4315  1.3205
  467MOL0     C64338   9.932  -0.375   6.205 -0.0508 -0.6954  0.5501
  467MOL0     O64339  10.026  -0.353   6.302 -0.1783 -0.6543  0.2922
  467MOL0     C64340  10.150  -0.406   6.297  0.0635 -0.0610 -0.2874
  467MOL0     C64341  10.259  -0.338   6.248  0.6713 -0.5290 -0.3305
  467MOL0     C64342  10.384  -0.397   6.247 -0.5092  0.5731 -0.4743
  467MOL0     C64343  10.395  -0.527   6.294  0.1112 -0.2365 -0.1992
  467MOL0     O64344  10.519  -0.586   6.295  0.2470  0.0607 -0.3910
  467MOL0     C64345  10.540  -0.729   6.293  0.0678  0.2961  0.6679
  467MOL0     C64346  10.615  -0.777   6.404 -0.5170 -0.4650  0.0739
  467MOL0     C64347  10.757  -0.729   6.417 -0.4829  1.0170  0.6271
  467MOL0     C64348  10.814  -0.780   6.550  0.3002 -0.5849  0.7937
  467MOL0     C64349  10.969  -0.749   6.565 -0.1039  1.2747 -0.2523
  467MOL0     C64350  11.036  -0.817   6.688  0.4767  0.0988 -0.4549
  467MOL0     C64351  11.186  -0.806   6.697 -0.1528  0.8037  0.0231
  467MOL0     C64352  11.243  -0.888   6.817  0.3186 -0.7793  0.0521
  467MOL0    Cl64353  11.245  -0.774   6.952 -0.2516 -0.3249 -0.0728
  467MOL0     C64354  10.284  -0.600   6.346  0.7680  0.1763  0.4747
  467MOL0     C64355  10.163  -0.534   6.346 -0.3906  0.2968  1.1068
  467MOL0     O64356   9.938  -0.462   6.115 -0.2624  0.0447 -1.0652
  467MOL0     C64357   9.693  -0.363   6.140  0.2178 -0.2648 -0.3376
  467MOL0     C64358   9.561  -0.316   6.147  0.4008 -0.8513 -0.2486
  467MOL0     N64359   8.974   0.222   6.128  0.6171  0.3055  0.2160
  467MOL0     N64360   8.876   0.282   6.069  0.1716  0.7522  0.7572
  467MOL0     C64361   7.681   0.445   6.551  0.1554 -0.4592  0.0237
  467MOL0     C64362   7.561   0.442   6.628 -0.6104 -0.6720 -0.1201
  467MOL0     C64363   7.159   0.292   6.801  0.0221 -0.0966 -0.5056
  467MOL0     C64364   7.114   0.427   6.781  0.5101  0.4446 -0.4751
  467MOL0     C64365   6.970   0.460   6.806 -0.1038  0.5865  0.0908
  467MOL0     C64366   6.888   0.363   6.852  0.0790  0.2290 -1.3223
  467MOL0     O64367   6.756   0.401   6.871  0.2034 -0.6448 -0.6952
  467MOL0     C64368   6.659   0.295   6.888  0.0437 -0.5924  0.3729
  467MOL0     C64369   6.513   0.342   6.914 -0.0172 -0.1455  0.7040
  467MOL0     C64370   6.498   0.429   7.036  0.0727 -1.1775  0.0651
  467MOL0     C64371   6.354   0.471   7.052  0.7889  0.7148 -0.0171
  467MOL0     C64372   6.265   0.368   7.114 -0.0774 -0.1585  0.5259
  467MOL0     C64373   6.195   0.284   7.163  0.1713 -0.4406 -1.0464
  467MOL0     C64374   6.929   0.233   6.863  0.1199  0.3340  0.0827
  467MOL0     C64375   7.064   0.195   6.849 -0.1775 -0.3509 -0.5607
  467MOL0     C64376   7.102   0.054   6.896  0.3288 -0.1640 -0.3897
  467MOL0     H64377   7.425   0.145   6.508  1.8058 -2.1135 -2.5913
  467MOL0     H64378   7.636   0.160   6.373  4.6612  2.3197 -1.4897
  467MOL0     H64379   7.975   0.395   6.491  0.5773 -1.7250 -0.2130
  467MOL0     H64380   7.905   0.512   6.376 -1.2085  0.3808  0.4107
  467MOL0     H64381   8.041   0.253   6.272  1.1265 -0.0963  0.6764
  467MOL0     H64382   8.020   0.405   6.176 -3.4497 -0.7204  0.2561
  467MOL0     H64383   8.159   0.524   6.308 -1.3947  0.6940  2.3176
  467MOL0     H64384   8.178   0.399   6.431  0.9263 -2.3437  0.2693
  467MOL0     H64385   8.292   0.251   6.272 -2.9166 -0.2323  0.3802
  467MOL0     H64386   8.274   0.359   6.138  0.3400 -2.3531 -1.0024
  467MOL0     H64387   8.434   0.436   6.378  1.1683  0.6766 -0.4942
  467MOL0     H64388   8.424   0.530   6.223 -2.1865 -0.1694 -0.0486
  467MOL0     H64389   8.629   0.381   6.248  1.0377 -2.5122 -1.0701
  467MOL0     H64390   8.528   0.239   6.243 -6.5697  0.0146  3.4964
  467MOL0     H64391   8.617   0.437   6.021  1.8415 -1.0494 -0.2458
  467MOL0     H64392   8.459   0.353   6.004 -0.5967  1.3995  0.2537
  467MOL0     H64393   8.578   0.142   6.011 -0.7909 -0.3354  0.6381
  467MOL0     H64394   8.663   0.244   5.897  1.7203 -0.7796 -0.2498
  467MOL0     H64395   8.719   0.030   6.185  1.2530 -2.0948 -0.3802
  467MOL0     H64396   8.925  -0.085   6.295  0.5076 -0.7468  0.8984
  467MOL0     H64397   9.026   0.052   6.361 -0.7744  1.5754 -0.8217
  467MOL0     H64398   9.097  -0.069   6.083  2.0873 -1.6486 -0.3243
  467MOL0     H64399   9.192   0.027   6.198 -0.9987  0.8868 -0.6264
  467MOL0     H64400   9.155  -0.180   6.352  1.1093  0.6496 -0.3173
  467MOL0     H64401   9.092  -0.261   6.213  0.7912 -0.9814  2.7830
  467MOL0     H64402   9.311  -0.329   6.205  1.0222 -0.1692 -0.4337
  467MOL0     H64403   9.305  -0.213   6.083 -0.3833  1.8010 -0.3651
  467MOL0     H64404   9.623  -0.054   6.349  0.6441  1.1907 -1.7620
  467MOL0     H64405   9.984  -0.102   6.273 -0.4891 -1.7047  0.4645
  467MOL0     H64406   9.897  -0.099   6.430 -3.6968 -0.3514  0.1870
  467MOL0     H64407   9.850   0.013   6.309 -1.0575 -0.2817 -0.5071
  467MOL0     H64408  10.256  -0.232   6.222  0.7985 -0.4195  0.0817
  467MOL0     H64409  10.472  -0.342   6.215  0.1898  1.0102  2.0112
  467MOL0     H64410  10.442  -0.776   6.280 -0.7201  1.0983  3.2633
  467MOL0     H64411  10.584  -0.760   6.197  1.6066 -2.3701  2.1127
  467MOL0     H64412  10.557  -0.734   6.486  0.2389  0.6067  0.0545
  467MOL0     H64413  10.608  -0.886   6.416  0.2329 -0.6448 -0.9734
  467MOL0     H64414  10.756  -0.620   6.412 -2.8453  0.9799 -2.0859
  467MOL0     H64415  10.815  -0.774   6.336 -0.0672  1.4144  0.6969
  467MOL0     H64416  10.799  -0.887   6.563 -1.3262 -0.4358  0.3146
  467MOL0     H64417  10.765  -0.730   6.633  2.5209  1.9839  0.7055
  467MOL0     H64418  11.017  -0.791   6.476 -0.1811  1.2456 -0.2797
  467MOL0     H64419  10.984  -0.641   6.559  1.3381  1.0408 -2.0169
  467MOL0     H64420  11.020  -0.924   6.671 -1.6823  0.2775  0.1058
  467MOL0     H64421  10.988  -0.790   6.782 -0.7366  0.4233 -1.1429
  467MOL0     H64422  11.210  -0.700   6.711 -0.1762  0.5603  2.2646
  467MOL0     H64423  11.230  -0.847   6.606 -1.8019 -2.2188  0.4684
  467MOL0     H64424  11.349  -0.911   6.801  0.7491  1.0306  0.1320
  467MOL0     H64425  11.195  -0.983   6.843 -0.4541  0.0182  1.7026
  467MOL0     H64426  10.296  -0.699   6.390  1.2917  0.0737  0.1129
  467MOL0     H64427  10.074  -0.592   6.372  0.0790 -1.5742 -1.1895
  467MOL0     H64428   9.714  -0.434   6.060 -0.7816  0.4445 -1.2637
  467MOL0     H64429   9.493  -0.370   6.082  0.7757  0.1955 -1.5495
  467MOL0     H64430   7.751   0.526   6.569 -2.0493  0.9566  3.5438
  467MOL0     H64431   7.537   0.514   6.706 -0.4392 -0.4441 -0.2752
  467MOL0     H64432   7.183   0.503   6.746  0.9238 -0.5975 -2.0492
  467MOL0     H64433   6.938   0.563   6.796 -3.1775 -0.1493  1.1738
  467MOL0     H64434   6.658   0.227   6.803 -2.7611  1.9751 -1.8977
  467MOL0     H64435   6.678   0.231   6.975 -0.0494 -0.1548  0.7192
  467MOL0     H64436   6.461   0.246   6.921  2.1631 -1.3658  0.9430
  467MOL0     H64437   6.483   0.401   6.827 -0.4246  0.4576  1.2380
  467MOL0     H64438   6.536   0.381   7.127  1.7404  1.9842  1.1967
  467MOL0     H64439   6.562   0.517   7.034 -0.5982 -0.5804  2.2607
  467MOL0     H64440   6.301   0.500   6.961  2.2522  1.3026 -0.7066
  467MOL0     H64441   6.337   0.555   7.119  1.3829 -0.1015  1.2011
  467MOL0     H64442   6.142   0.200   7.203 -1.4624  1.6286  1.4255
  467MOL0     H64443   6.856   0.154   6.872  1.9068 -1.3573  0.3181
  467MOL0     H64444   7.188   0.046   6.963 -1.9592 -1.0476  2.6693
  467MOL0     H64445   7.016   0.002   6.939  1.3656 -0.6570  1.1908
  467MOL0     H64446   7.122  -0.002   6.804 -0.7598  0.5498 -1.0863
  468MOL0     O64447   7.792   7.101   6.608 -0.5623 -0.1895  0.1842
  468MOL0     C64448   7.716   7.188   6.556  0.0855  0.0050  0.3992
  468MOL0     O64449   7.685   7.314   6.602 -0.3845 -0.8889 -0.2195
  468MOL0     C64450   7.751   7.338   6.719  0.4846  0.6721  0.7877
  468MOL0     C64451   7.691   7.297   6.839 -0.8419  0.5946  0.0297
  468MOL0     C64452   7.746   7.325   6.965  0.6841 -0.6866  0.5419
  468MOL0     C64453   7.865   7.392   6.970 -0.2025  0.2284 -1.1687
  468MOL0     O64454   7.929   7.391   7.092 -0.8013 -0.2089 -0.0954
  468MOL0     C64455   8.028   7.486   7.119 -0.2869  0.6262 -0.5579
  468MOL0     C64456   7.992   7.561   7.242 -0.0670 -0.2622  0.6949
  468MOL0     C64457   7.994   7.474   7.367 -0.3227 -0.2419 -0.3619
  468MOL0     C64458   8.134   7.443   7.416  0.1901  0.1203  0.6975
  468MOL0     C64459   8.134   7.386   7.559  0.2954 -0.0044  0.7720
  468MOL0     C64460   8.048   7.268   7.581  0.1530  0.3599 -0.6542
  468MOL0     C64461   8.084   7.152   7.483 -0.3719 -0.1461  0.2708
  468MOL0     C64462   8.047   7.017   7.550  0.7078  0.0276  0.5320
  468MOL0     N64463   7.903   7.018   7.579  0.6062 -0.0526 -0.0626
  468MOL0     C64464   7.801   7.028   7.485 -0.2415  0.1720 -0.1251
  468MOL0     C64465   7.692   7.051   7.564  0.2313  0.2970  0.6266
  468MOL0     C64466   7.557   7.059   7.502 -0.2187  0.0119 -0.0748
  468MOL0     C64467   7.526   7.203   7.448 -0.5827 -0.1738 -0.1533
  468MOL0     C64468   7.492   7.300   7.560  0.0245 -0.5218 -0.4220
  468MOL0     C64469   7.546   7.444   7.536  0.0001 -0.7182 -0.2837
  468MOL0     O64470   7.538   7.523   7.662 -0.2760  0.0542 -0.4387
  468MOL0     C64471   7.648   7.526   7.739 -0.0931  0.2636 -1.4392
  468MOL0     C64472   7.692   7.647   7.792  0.3392 -1.1243  0.7895
  468MOL0     C64473   7.805   7.664   7.877  0.8193  0.0330  0.1976
  468MOL0     C64474   7.835   7.799   7.920 -0.0573  0.2560 -0.0853
  468MOL0     C64475   7.890   7.553   7.899 -0.9108  0.0999  0.2248
  468MOL0     C64476   8.023   7.557   7.973  0.2663  1.3645 -0.0036
  468MOL0     O64477   8.105   7.447   7.940  0.1830  0.3738  0.6992
  468MOL0     C64478   8.225   7.451   8.008 -1.0877  0.1636 -1.5281
  468MOL0     C64479   8.257   7.352   8.101 -0.2379 -0.1982 -0.5896
  468MOL0     C64480   8.382   7.331   8.167 -0.1892 -0.4620 -0.1223
  468MOL0     C64481   8.490   7.407   8.118 -0.0284 -0.2422 -0.1108
  468MOL0     O64482   8.617   7.361   8.152 -0.0835 -0.0136  0.8782
  468MOL0     C64483   8.708   7.471   8.184  0.2376  0.2772  0.0088
  468MOL0     C64484   8.830   7.426   8.266  0.7211  0.2263  0.1497
  468MOL0     C64485   8.924   7.340   8.186 -0.0146 -0.0956 -0.4635
  468MOL0     C64486   9.052   7.315   8.267  0.0364 -0.3721  0.0937
  468MOL0     C64487   9.159   7.249   8.169 -0.4921 -0.3863 -0.0052
  468MOL0     C64488   9.229   7.352   8.079 -0.8135  0.1215  0.5271
  468MOL0     C64489   9.340   7.287   7.986 -0.5144 -0.8370 -0.2732
  468MOL0     C64490   9.431   7.385   7.910  0.3205 -0.6193  0.6067
  468MOL0    Cl64491   9.510   7.509   8.011  0.3776  0.1569  0.1802
  468MOL0     C64492   8.466   7.510   8.026  0.2757  0.1994 -0.7373
  468MOL0     C64493   8.339   7.528   7.972  0.2100 -0.6346 -0.7900
  468MOL0     O64494   8.046   7.653   8.044 -0.4778  0.1874 -0.3563
  468MOL0     C64495   7.857   7.431   7.834  0.4319 -0.0139 -0.5433
  468MOL0     C64496   7.737   7.420   7.761 -0.5496  0.2981  0.0665
  468MOL0     N64497   7.730   7.044   7.700  0.6450  0.0881 -0.0838
  468MOL0     N64498   7.849   7.024   7.704  0.5450  0.0774 -0.2124
  468MOL0     C64499   7.928   7.434   6.857 -0.7956 -0.4063  0.8847
  468MOL0     C64500   7.872   7.401   6.727 -0.2559 -0.9250 -0.4127
  468MOL0     C64501   7.644   7.139   6.437 -0.0700 -1.3423  0.0966
  468MOL0     C64502   7.511   7.181   6.421 -0.6655 -0.3853 -0.5356
  468MOL0     C64503   7.417   7.139   6.323 -0.8472 -0.4813  0.2449
  468MOL0     C64504   7.460   7.040   6.241  0.4208  0.4530  0.6168
  468MOL0     O64505   7.367   6.998   6.144 -0.1908  0.1268 -0.3097
  468MOL0     C64506   7.366   7.074   6.032  0.3292  0.3597 -0.1177
  468MOL0     C64507   7.491   7.067   5.947 -0.2526  0.4420 -0.0302
  468MOL0     C64508   7.508   6.924   5.880 -0.2671 -0.0503 -0.4773
  468MOL0     C64509   7.378   6.864   5.828 -0.2101  0.5023 -0.1613
  468MOL0     C64510   7.314   6.954   5.730 -0.4942 -0.5884 -0.4350
  468MOL0     C64511   7.274   7.041   5.657 -0.7254  0.4058 -0.2410
  468MOL0     C64512   7.597   6.994   6.248  0.6164 -0.1917  0.8554
  468MOL0     C64513   7.690   7.055   6.335  0.8068  0.4503  0.1845
  468MOL0     C64514   7.838   7.018   6.321  0.1236 -0.2091 -0.3087
  468MOL0     H64515   7.596   7.245   6.834 -2.1907  2.8619  0.7424
  468MOL0     H64516   7.702   7.286   7.056  1.9773 -0.8986  1.1019
  468MOL0     H64517   8.027   7.558   7.037 -3.1219  1.4875  0.1266
  468MOL0     H64518   8.122   7.430   7.119 -1.8125 -2.1304  1.2184
  468MOL0     H64519   8.077   7.629   7.249  1.4387 -2.1734  2.3183
  468MOL0     H64520   7.901   7.620   7.228 -0.3839 -1.0165 -0.5880
  468MOL0     H64521   7.939   7.519   7.450  0.1696  0.1842 -0.2636
  468MOL0     H64522   7.944   7.378   7.348 -0.3979 -0.0372 -1.2738
  468MOL0     H64523   8.179   7.374   7.343 -2.0935 -0.6826 -0.0386
  468MOL0     H64524   8.202   7.528   7.429 -0.6030  0.9051 -0.1553
  468MOL0     H64525   8.100   7.464   7.627 -0.5870  0.3417 -0.0334
  468MOL0     H64526   8.240   7.365   7.576  0.4610 -0.1576 -0.3606
  468MOL0     H64527   8.063   7.232   7.683  0.2379  0.4367 -0.6399
  468MOL0     H64528   7.941   7.286   7.572  0.1540  1.1402  0.6265
  468MOL0     H64529   8.192   7.148   7.468 -0.6748  0.5527 -2.5780
  468MOL0     H64530   8.036   7.169   7.386 -0.6533 -0.2128  0.3954
  468MOL0     H64531   8.071   6.933   7.485 -0.0568 -1.3579  1.9693
  468MOL0     H64532   8.105   6.996   7.640 -0.7283 -1.9545  1.0778
  468MOL0     H64533   7.805   7.018   7.377 -1.5776  0.1268 -0.1895
  468MOL0     H64534   7.484   7.041   7.581 -0.7255 -0.6045 -0.6693
  468MOL0     H64535   7.537   6.980   7.429 -1.2288 -2.0162  2.2997
  468MOL0     H64536   7.609   7.244   7.389 -0.9514  0.5439 -0.1859
  468MOL0     H64537   7.439   7.199   7.382  0.1295  4.9148 -1.8521
  468MOL0     H64538   7.386   7.293   7.583  0.3605  1.2933  2.2858
  468MOL0     H64539   7.538   7.268   7.654  0.5625  3.7570  1.0368
  468MOL0     H64540   7.651   7.441   7.504 -0.0525  1.3835 -0.7659
  468MOL0     H64541   7.490   7.495   7.458 -0.4249 -0.4022  0.2253
  468MOL0     H64542   7.633   7.733   7.763 -0.3380 -2.2407 -1.3328
  468MOL0     H64543   7.836   7.809   8.029 -1.0680 -1.6049  0.1369
  468MOL0     H64544   7.766   7.876   7.883  0.2883  1.3443  1.4146
  468MOL0     H64545   7.930   7.843   7.887 -0.5686  2.9765  1.6962
  468MOL0     H64546   8.171   7.290   8.125  0.7041 -1.2218  0.2719
  468MOL0     H64547   8.400   7.245   8.231  2.1905 -1.8274 -2.4464
  468MOL0     H64548   8.728   7.531   8.095 -1.9477  2.3834  0.8366
  468MOL0     H64549   8.648   7.540   8.243  1.9337  2.7243 -0.9659
  468MOL0     H64550   8.879   7.512   8.313 -0.1789  0.3707  0.8567
  468MOL0     H64551   8.795   7.348   8.334 -2.0236 -0.5562 -2.0013
  468MOL0     H64552   8.950   7.391   8.092 -0.8611 -0.0354 -0.6746
  468MOL0     H64553   8.874   7.249   8.153 -0.3081  0.1927 -0.8257
  468MOL0     H64554   9.030   7.238   8.342 -0.5316 -0.3922 -0.0916
  468MOL0     H64555   9.093   7.400   8.322  0.9166 -1.3275  0.9688
  468MOL0     H64556   9.229   7.195   8.234 -1.0838 -0.1130  0.8823
  468MOL0     H64557   9.100   7.184   8.103 -3.1560  0.9419  0.9386
  468MOL0     H64558   9.286   7.416   8.148  0.5590  0.5640 -0.9559
  468MOL0     H64559   9.158   7.416   8.026 -0.9147  0.3407  0.9142
  468MOL0     H64560   9.288   7.230   7.908  1.3831 -1.1030 -1.3892
  468MOL0     H64561   9.394   7.215   8.049  1.8514  1.8742  0.9971
  468MOL0     H64562   9.373   7.435   7.832 -2.1353  0.3378  2.8598
  468MOL0     H64563   9.512   7.330   7.861 -0.4353 -1.0024 -0.2421
  468MOL0     H64564   8.554   7.566   7.998  1.8099 -1.8283 -0.2527
  468MOL0     H64565   8.310   7.606   7.903 -3.6449  0.2581  1.5448
  468MOL0     H64566   7.925   7.346   7.838  0.2839 -0.0897  2.1107
  468MOL0     H64567   7.715   7.323   7.719 -1.1958 -0.1618  1.4214
  468MOL0     H64568   8.024   7.483   6.848 -0.8753 -0.1189  1.5230
  468MOL0     H64569   7.933   7.445   6.648  0.0570 -0.8052 -0.1067
  468MOL0     H64570   7.459   7.244   6.491  2.2611  1.5966  0.0218
  468MOL0     H64571   7.315   7.175   6.322 -0.3727  0.9389 -0.0950
  468MOL0     H64572   7.277   7.043   5.977  0.8572  1.1674 -1.4809
  468MOL0     H64573   7.350   7.178   6.062 -0.5616  0.1405  0.1851
  468MOL0     H64574   7.580   7.105   5.997 -2.5838  3.9156  1.9776
  468MOL0     H64575   7.476   7.144   5.871  0.5021 -1.0295 -1.7464
  468MOL0     H64576   7.581   6.936   5.799 -1.5915  0.3872 -1.6367
  468MOL0     H64577   7.559   6.850   5.943  1.6951 -0.5442 -2.4957
  468MOL0     H64578   7.303   6.843   5.904  0.3955 -0.9199  0.0807
  468MOL0     H64579   7.396   6.769   5.776  1.8264  1.1337 -0.7200
  468MOL0     H64580   7.249   7.128   5.599 -1.9882 -1.1976 -2.1959
  468MOL0     H64581   7.625   6.918   6.175 -2.1857  0.5532 -1.1554
  468MOL0     H64582   7.892   7.004   6.415  1.5190 -1.2129 -1.2121
  468MOL0     H64583   7.836   6.913   6.291 -0.4083  0.5177 -3.0721
  468MOL0     H64584   7.893   7.084   6.253  1.5819 -1.7390 -0.6887
  469MOL0     O64585   6.498  10.522  10.098  0.1067  0.2940  0.0712
  469MOL0     C64586   6.544  10.564   9.993  0.0514 -0.0907  1.3407
  469MOL0     O64587   6.667  10.553   9.941 -0.2175  0.4954 -0.4178
  469MOL0     C64588   6.779  10.521  10.014  0.2962 -0.1924 -0.7521
  469MOL0     C64589   6.897  10.541   9.944  0.0449  0.2637 -0.4640
  469MOL0     C64590   7.024  10.511  10.003 -0.4138  0.0454  0.5223
  469MOL0     C64591   7.028  10.486  10.138 -0.4402 -0.0415  0.2617
  469MOL0     O64592   7.148  10.480  10.201 -0.3659  0.0474 -0.0436
  469MOL0     C64593   7.160  10.495  10.347 -0.2837  0.0949 -0.6226
  469MOL0     C64594   7.290  10.565  10.382  0.0807  0.1088 -0.1574
  469MOL0     C64595   7.432  10.506  10.345 -0.7159  0.1362  0.1313
  469MOL0     C64596   7.556  10.600  10.368  0.7163  0.5232 -0.1460
  469MOL0     C64597   7.692  10.561  10.301  0.4140 -0.5318 -0.0862
  469MOL0     C64598   7.797  10.665  10.319  0.0904 -0.1490 -0.0592
  469MOL0     C64599   7.771  10.789  10.228 -1.0685 -0.1425 -0.1790
  469MOL0     C64600   7.895  10.875  10.246  0.1989  0.1372 -0.2015
  469MOL0     N64601   8.007  10.856  10.152 -0.0807 -0.2119 -0.1535
  469MOL0     C64602   8.118  10.937  10.154 -0.3276 -0.8646  0.4122
  469MOL0     C64603   8.196  10.887  10.050  0.5122 -0.4736 -0.0638
  469MOL0     C64604   8.317  10.934   9.989 -0.1380 -0.6659  0.1051
  469MOL0     C64605   8.440  10.861  10.037  0.4195  0.2370  0.3567
  469MOL0     C64606   8.577  10.920   9.994 -0.5333  0.4220  0.3673
  469MOL0     C64607   8.627  11.016  10.099 -0.4012 -0.5852  0.0763
  469MOL0     O64608   8.759  11.044  10.048 -0.8192  0.3734  0.2500
  469MOL0     C64609   8.851  11.104  10.128  0.3391 -0.2337  0.9613
  469MOL0     C64610   8.824  11.180  10.239 -0.2509  0.3520 -0.8271
  469MOL0     C64611   8.931  11.236  10.315  0.6467 -0.0627  1.0673
  469MOL0     C64612   8.884  11.310  10.437  0.2382 -0.3755 -0.3135
  469MOL0     C64613   9.062  11.221  10.266  0.1604  0.4361 -0.2475
  469MOL0     C64614   9.182  11.287  10.335  0.9839 -0.8993  0.3755
  469MOL0     O64615   9.152  11.371  10.436 -0.0820 -0.6105 -0.1636
  469MOL0     C64616   9.252  11.449  10.491  0.5667 -0.2693  0.2264
  469MOL0     C64617   9.281  11.579  10.439  0.2058  1.4505 -0.0695
  469MOL0     C64618   9.395  11.641  10.489 -0.6632  0.7022  0.5754
  469MOL0     C64619   9.474  11.594  10.596  0.4027  0.9496  1.0022
  469MOL0     O64620   9.564  11.688  10.645 -0.1932  0.0424  0.0886
  469MOL0     C64621   9.633  11.654  10.763  0.1737  0.4884 -0.8197
  469MOL0     C64622   9.746  11.554  10.736 -0.6190  0.0258  0.4156
  469MOL0     C64623   9.835  11.534  10.858  0.5715 -0.1829  0.1998
  469MOL0     C64624   9.758  11.457  10.968  0.3643 -0.3291 -0.4205
  469MOL0     C64625   9.835  11.431  11.099  1.1442 -0.8294 -0.5136
  469MOL0     C64626   9.963  11.348  11.087  0.5867 -0.4685  0.6981
  469MOL0     C64627  10.033  11.332  11.230  0.1060  0.0217  0.9015
  469MOL0     C64628   9.953  11.221  11.302  0.7652 -0.6833  0.3911
  469MOL0    Cl64629  10.018  11.230  11.475  0.0250  0.2706 -0.7150
  469MOL0     C64630   9.434  11.462  10.644  0.9238 -0.5819  0.1150
  469MOL0     C64631   9.330  11.391  10.588  0.0808  0.1970  0.5167
  469MOL0     O64632   9.290  11.277  10.283  0.0531 -0.3891 -0.3162
  469MOL0     C64633   9.083  11.134  10.156 -0.5060  0.2469  0.4517
  469MOL0     C64634   8.983  11.078  10.091 -0.0391  0.2539 -0.2643
  469MOL0     N64635   8.132  10.783   9.998  0.3351 -0.2141  0.0439
  469MOL0     N64636   8.020  10.761  10.057  0.4909 -0.3177 -0.1106
  469MOL0     C64637   6.910  10.457  10.209  0.8536  0.4655 -0.6252
  469MOL0     C64638   6.785  10.467  10.142  1.0019 -0.8649  0.0054
  469MOL0     C64639   6.461  10.652   9.904  0.2397 -0.4152  0.5917
  469MOL0     C64640   6.527  10.730   9.811  0.6960  0.6790  0.2200
  469MOL0     C64641   6.467  10.796   9.705 -0.1506  0.3323  0.2678
  469MOL0     C64642   6.331  10.791   9.692 -0.1059 -0.3362 -0.9097
  469MOL0     O64643   6.272  10.823   9.569 -0.0735 -0.2521 -0.7860
  469MOL0     C64644   6.132  10.861   9.567  0.2657  0.4342  0.4942
  469MOL0     C64645   6.097  10.927   9.433 -0.1049  0.1622 -0.0100
  469MOL0     C64646   5.951  10.990   9.411 -0.1949  0.3892  0.2388
  469MOL0     C64647   5.917  11.054   9.271  0.1041 -0.2872 -0.4690
  469MOL0     C64648   6.026  11.149   9.232  0.9874 -0.4407  0.6239
  469MOL0     C64649   6.122  11.208   9.185 -0.1680 -0.6752 -0.0566
  469MOL0     C64650   6.259  10.737   9.795  0.7564  0.0757  0.6682
  469MOL0     C64651   6.319  10.662   9.900  0.2180 -0.2367  0.0518
  469MOL0     C64652   6.231  10.611  10.009  0.3589 -1.2617  0.0729
  469MOL0     H64653   6.889  10.590   9.848 -1.0631  0.5836 -0.2189
  469MOL0     H64654   7.111  10.525   9.940 -1.0685  1.7322 -0.0779
  469MOL0     H64655   7.160  10.396  10.394 -3.2437  0.0734 -0.4660
  469MOL0     H64656   7.082  10.562  10.383  0.4683  0.4817  0.3194
  469MOL0     H64657   7.290  10.661  10.329  0.7676  1.0392  1.4523
  469MOL0     H64658   7.286  10.597  10.486  2.5845 -0.1213  0.0910
  469MOL0     H64659   7.447  10.412  10.398  1.2163 -0.8372 -1.9851
  469MOL0     H64660   7.421  10.480  10.240 -3.0512  2.6342 -0.3728
  469MOL0     H64661   7.531  10.694  10.318 -0.8528 -0.7699 -1.9216
  469MOL0     H64662   7.572  10.623  10.473  1.0103 -1.9289  0.3983
  469MOL0     H64663   7.681  10.545  10.194  0.3802  3.2549 -0.7870
  469MOL0     H64664   7.729  10.468  10.345 -0.3924  0.6963  3.5706
  469MOL0     H64665   7.805  10.685  10.426 -0.5336 -0.1086 -0.0167
  469MOL0     H64666   7.890  10.622  10.281  2.1843  3.7479  0.1769
  469MOL0     H64667   7.684  10.849  10.255  0.5287  1.3801  1.8969
  469MOL0     H64668   7.778  10.754  10.124  3.0553 -2.3794  0.6487
  469MOL0     H64669   7.871  10.981  10.233 -0.4612  0.2189  1.4698
  469MOL0     H64670   7.929  10.859  10.349  0.4062  0.6329 -0.1858
  469MOL0     H64671   8.144  11.026  10.211  1.4023 -1.5371  0.7332
  469MOL0     H64672   8.328  11.041  10.012  0.3731  0.0179 -2.8318
  469MOL0     H64673   8.316  10.935   9.879  2.6797  3.2341 -0.1088
  469MOL0     H64674   8.423  10.871  10.145 -1.4554 -0.0158  0.1318
  469MOL0     H64675   8.438  10.758  10.000 -0.4162  1.3344 -2.9562
  469MOL0     H64676   8.644  10.834   9.985  1.1592  1.8464 -1.5628
  469MOL0     H64677   8.573  10.972   9.898 -2.2206  0.6598  0.5365
  469MOL0     H64678   8.554  11.098  10.105  0.6212  0.3187  0.4853
  469MOL0     H64679   8.625  10.966  10.196  0.9151 -1.5188 -0.3559
  469MOL0     H64680   8.718  11.190  10.257 -0.8442 -1.8835 -2.5787
  469MOL0     H64681   8.776  11.301  10.451  0.7057 -5.0567  1.9340
  469MOL0     H64682   8.904  11.418  10.429  0.7849 -0.4007  0.6503
  469MOL0     H64683   8.938  11.267  10.522 -3.2759 -2.7869  0.9086
  469MOL0     H64684   9.206  11.614  10.368 -1.5120 -1.0115  0.4222
  469MOL0     H64685   9.426  11.733  10.439  2.1660 -2.0412 -3.3152
  469MOL0     H64686   9.664  11.741  10.822  0.6766 -1.0765  1.3641
  469MOL0     H64687   9.571  11.596  10.832  1.6966 -0.2175  0.0015
  469MOL0     H64688   9.709  11.451  10.731 -1.3344  0.1912  1.9217
  469MOL0     H64689   9.812  11.577  10.652 -1.6010  0.7207 -0.1943
  469MOL0     H64690   9.870  11.633  10.889  2.8027 -0.8300 -0.0601
  469MOL0     H64691   9.930  11.484  10.835  0.1521 -1.9278  2.0260
  469MOL0     H64692   9.728  11.356  10.939  1.4457 -0.6120 -0.6217
  469MOL0     H64693   9.674  11.522  10.994  0.9223  0.6174 -0.9068
  469MOL0     H64694   9.874  11.528  11.133  2.8716 -1.2760 -1.1177
  469MOL0     H64695   9.764  11.398  11.175  0.8224  1.7621  0.4155
  469MOL0     H64696  10.036  11.395  11.021 -0.8246 -1.1949 -1.5023
  469MOL0     H64697   9.940  11.259  11.027  0.8308  1.7939 -3.1334
  469MOL0     H64698  10.029  11.422  11.292  1.3750 -1.3586  3.1552
  469MOL0     H64699  10.140  11.312  11.219  0.6282  1.5843  2.5801
  469MOL0     H64700   9.957  11.121  11.260 -1.0654 -0.4639 -0.3925
  469MOL0     H64701   9.846  11.240  11.307  0.2319 -2.9639 -1.1104
  469MOL0     H64702   9.492  11.409  10.719  3.0526 -0.5032 -1.4004
  469MOL0     H64703   9.310  11.288  10.616  1.3450  0.3892  2.2817
  469MOL0     H64704   9.185  11.115  10.122 -0.7752  0.5101 -0.5189
  469MOL0     H64705   9.007  11.010  10.009  0.9152 -0.2297  0.4049
  469MOL0     H64706   6.907  10.429  10.314  0.3303  3.0211  0.1059
  469MOL0     H64707   6.695  10.444  10.198  1.6946 -0.5778  1.2663
  469MOL0     H64708   6.635  10.724   9.812  0.6241 -1.0498  1.3556
  469MOL0     H64709   6.526  10.833   9.622  0.6403  2.4263  1.6829
  469MOL0     H64710   6.067  10.776   9.588  1.7970 -0.9306 -0.0286
  469MOL0     H64711   6.118  10.931   9.650 -1.4782  1.3086 -0.5076
  469MOL0     H64712   6.120  10.858   9.352 -0.5287  0.5296 -0.4527
  469MOL0     H64713   6.165  11.008   9.405 -0.6928  0.0451 -1.9354
  469MOL0     H64714   5.880  10.909   9.425 -0.0364  0.3430  0.7932
  469MOL0     H64715   5.932  11.063   9.490  0.4904  0.9555 -0.0971
  469MOL0     H64716   5.825  11.113   9.274 -0.5223 -1.3004  2.0448
  469MOL0     H64717   5.908  10.968   9.204 -1.2389 -1.7676  1.5126
  469MOL0     H64718   6.200  11.249   9.122  2.2121 -3.5337  0.8278
  469MOL0     H64719   6.152  10.729   9.776  1.0905  0.5051 -1.7289
  469MOL0     H64720   6.227  10.503   9.995  1.2168 -1.2214 -0.5492
  469MOL0     H64721   6.278  10.634  10.105  1.3054  3.8201 -1.3110
  469MOL0     H64722   6.129  10.652  10.005  0.1889 -1.7329 -0.3954
  470MOL0     O64723   4.861   0.927   2.561 -0.2566  0.1994 -0.2234
  470MOL0     C64724   4.783   0.840   2.526 -0.2935 -0.5074  0.6078
  470MOL0     O64725   4.791   0.758   2.416  1.0050 -0.8372 -0.1451
  470MOL0     C64726   4.897   0.783   2.331 -0.5039  0.1518  0.5064
  470MOL0     C64727   4.906   0.898   2.254  0.8022  0.2516 -0.5962
  470MOL0     C64728   4.998   0.904   2.158 -0.0031 -0.3124  0.4040
  470MOL0     C64729   5.094   0.806   2.137 -0.5917 -0.3067  0.3785
  470MOL0     O64730   5.195   0.796   2.045  0.3912  0.4674 -0.7491
  470MOL0     C64731   5.226   0.911   1.957  0.1336  0.0928  0.3764
  470MOL0     C64732   5.366   0.870   1.889  0.3491 -0.5922 -0.6423
  470MOL0     C64733   5.484   0.956   1.946  0.5101  0.2623  0.4568
  470MOL0     C64734   5.508   0.932   2.087 -0.5207 -0.0380  0.4141
  470MOL0     C64735   5.650   0.981   2.131  0.1336 -0.3890  0.5357
  470MOL0     C64736   5.665   0.993   2.288  0.5227  0.0216 -0.3288
  470MOL0     C64737   5.618   0.860   2.360 -0.2746  0.7621  0.5877
  470MOL0     C64738   5.694   0.731   2.294 -0.8488 -0.9354  0.3957
  470MOL0     N64739   5.664   0.620   2.384  0.4931 -0.2266  0.4258
  470MOL0     C64740   5.535   0.579   2.412  0.7802 -0.0802  0.6428
  470MOL0     C64741   5.539   0.471   2.488 -0.0878 -1.0465  0.1121
  470MOL0     C64742   5.426   0.395   2.550 -0.3409 -0.4951  1.3407
  470MOL0     C64743   5.465   0.263   2.624 -0.8905  1.1720  0.4417
  470MOL0     C64744   5.341   0.211   2.692  1.1136  0.1376 -0.2782
  470MOL0     C64745   5.356   0.071   2.730  0.6588 -0.0739  0.3491
  470MOL0     O64746   5.313  -0.025   2.625  0.3105 -0.8012  0.1093
  470MOL0     C64747   5.184  -0.039   2.589  0.5462  0.8033 -0.5434
  470MOL0     C64748   5.158  -0.066   2.458  0.2535 -0.3526 -0.4735
  470MOL0     C64749   5.026  -0.091   2.409 -0.1894  0.7932  0.2952
  470MOL0     C64750   5.018  -0.124   2.261  0.2135  0.1441  0.8711
  470MOL0     C64751   4.914  -0.075   2.496 -0.2890  0.8524 -0.0712
  470MOL0     C64752   4.771  -0.082   2.452 -0.4651  0.5231  0.0588
  470MOL0     O64753   4.671  -0.069   2.549 -0.3830 -0.6468  0.1042
  470MOL0     C64754   4.539  -0.076   2.512 -0.3554 -0.1976  0.2277
  470MOL0     C64755   4.466   0.038   2.470 -0.1940  0.3041  0.2955
  470MOL0     C64756   4.333   0.016   2.418 -0.0390 -0.4647 -0.5221
  470MOL0     C64757   4.274  -0.114   2.430  0.5936  0.4854 -0.4535
  470MOL0     O64758   4.149  -0.131   2.375 -0.2913  0.1826 -0.1960
  470MOL0     C64759   4.142  -0.247   2.293  0.4597  0.0082  0.7290
  470MOL0     C64760   4.095  -0.185   2.164  0.0940  0.1822 -0.2477
  470MOL0     C64761   3.947  -0.145   2.149 -0.6765 -0.1549 -0.1633
  470MOL0     C64762   3.921  -0.064   2.017 -0.1862  0.0597 -0.8818
  470MOL0     C64763   3.773  -0.068   1.971  0.9539  0.5932  0.6768
  470MOL0     C64764   3.760  -0.056   1.823  0.6274 -0.0026 -0.2225
  470MOL0     C64765   3.610  -0.015   1.786 -0.5597  0.2379  1.0440
  470MOL0     C64766   3.518  -0.118   1.848 -0.1746 -0.0967  0.4568
  470MOL0    Cl64767   3.503  -0.269   1.756 -0.0034 -0.3298 -0.2456
  470MOL0     C64768   4.346  -0.217   2.488  0.2669  0.1380  0.9529
  470MOL0     C64769   4.473  -0.199   2.530  0.5672 -0.3568  0.8555
  470MOL0     O64770   4.752  -0.082   2.333 -0.3071  0.0315 -0.0470
  470MOL0     C64771   4.942  -0.043   2.632 -0.1262  0.8384 -0.5286
  470MOL0     C64772   5.074  -0.039   2.682 -0.0448  0.0797  0.0873
  470MOL0     N64773   5.671   0.444   2.501  0.2151 -0.1422  0.1381
  470MOL0     N64774   5.745   0.538   2.452 -0.2407 -0.7270 -0.0696
  470MOL0     C64775   5.077   0.695   2.210 -0.3529 -0.5388 -0.9803
  470MOL0     C64776   4.991   0.681   2.314  0.5941 -0.0596 -0.5077
  470MOL0     C64777   4.670   0.809   2.614  0.4386  0.2163 -0.5125
  470MOL0     C64778   4.598   0.686   2.594 -0.1757 -0.0964 -0.5863
  470MOL0     C64779   4.496   0.637   2.672 -0.2900 -0.5755  0.8083
  470MOL0     C64780   4.443   0.703   2.776  0.3966 -0.4093 -0.9113
  470MOL0     O64781   4.337   0.673   2.854  0.1610  0.1100  0.2752
  470MOL0     C64782   4.239   0.571   2.807  0.2310  0.2374 -0.3337
  470MOL0     C64783   4.093   0.601   2.853 -0.1966  0.4602  0.7197
  470MOL0     C64784   4.085   0.619   3.003 -0.3287  1.0805  0.8647
  470MOL0     C64785   3.935   0.640   3.035 -0.5005 -0.5137  0.2472
  470MOL0     C64786   3.909   0.635   3.183 -0.7287  0.6757 -0.1990
  470MOL0     C64787   3.881   0.638   3.298 -0.2620 -0.1774 -0.1958
  470MOL0     C64788   4.508   0.826   2.808  0.6558 -0.5871  0.1543
  470MOL0     C64789   4.626   0.877   2.735 -0.1196  0.1234  0.5590
  470MOL0     C64790   4.687   1.003   2.779  0.1934 -0.5515  0.5929
  470MOL0     H64791   4.823   0.966   2.266 -0.4630 -1.3795  0.4589
  470MOL0     H64792   5.002   0.996   2.100  0.1216 -1.8937 -2.2519
  470MOL0     H64793   5.236   1.005   2.012 -0.5741  0.7575 -0.5993
  470MOL0     H64794   5.144   0.921   1.884 -0.6677 -0.9230  1.1069
  470MOL0     H64795   5.398   0.768   1.914  1.7130  0.3506  1.7754
  470MOL0     H64796   5.363   0.875   1.780 -1.8272 -0.5332 -0.6245
  470MOL0     H64797   5.575   0.935   1.890  0.6762 -1.0416  1.1669
  470MOL0     H64798   5.455   1.061   1.938  0.3309  0.2868  1.3419
  470MOL0     H64799   5.432   0.988   2.142 -1.1342 -1.1945  0.7899
  470MOL0     H64800   5.495   0.829   2.123  0.4285 -0.1038  0.5796
  470MOL0     H64801   5.662   1.080   2.086  1.4987 -1.1076 -0.7617
  470MOL0     H64802   5.729   0.914   2.094  0.1433 -1.1187  1.8234
  470MOL0     H64803   5.765   1.026   2.315 -0.0446  2.5817 -1.1214
  470MOL0     H64804   5.590   1.069   2.313 -0.8237 -0.1024 -3.4749
  470MOL0     H64805   5.510   0.848   2.350 -0.0938  0.7513 -2.0462
  470MOL0     H64806   5.633   0.860   2.468 -0.5812  0.7551  0.6292
  470MOL0     H64807   5.671   0.712   2.188  1.7612 -1.5185 -0.1311
  470MOL0     H64808   5.801   0.755   2.290 -1.7303  4.0533 -0.6109
  470MOL0     H64809   5.443   0.628   2.383  0.9391 -0.1193  0.0648
  470MOL0     H64810   5.353   0.372   2.471  0.8095  1.9580 -0.5674
  470MOL0     H64811   5.374   0.460   2.621  0.4146  2.9067 -0.9871
  470MOL0     H64812   5.510   0.186   2.560 -0.4168  2.1386 -0.4315
  470MOL0     H64813   5.542   0.287   2.698  1.6182 -6.1124  0.9907
  470MOL0     H64814   5.328   0.268   2.784 -1.5250 -0.4533 -0.2175
  470MOL0     H64815   5.251   0.222   2.631 -0.3855 -2.6238  1.2581
  470MOL0     H64816   5.463   0.059   2.746  0.4049 -0.1937  2.1903
  470MOL0     H64817   5.307   0.044   2.824  1.5811 -1.5718  0.4255
  470MOL0     H64818   5.245  -0.064   2.392 -0.0039  1.8299 -0.8473
  470MOL0     H64819   5.117  -0.103   2.219  0.5208 -0.4458  1.2848
  470MOL0     H64820   4.944  -0.061   2.211 -0.0008 -0.8918 -0.1693
  470MOL0     H64821   4.997  -0.230   2.242 -1.7047  0.3749  1.4644
  470MOL0     H64822   4.509   0.138   2.475  0.2898  0.0795  0.6999
  470MOL0     H64823   4.272   0.099   2.383  0.0079  1.0399  2.6416
  470MOL0     H64824   4.242  -0.288   2.279 -0.0612 -0.6629 -1.5005
  470MOL0     H64825   4.068  -0.319   2.328 -0.7223  1.1286  0.6029
  470MOL0     H64826   4.168  -0.105   2.152  0.9174 -0.8627 -3.0409
  470MOL0     H64827   4.104  -0.268   2.092  0.6427 -0.1359  0.1835
  470MOL0     H64828   3.921  -0.086   2.238  2.6652  0.3832  0.6096
  470MOL0     H64829   3.889  -0.238   2.141 -1.9870  0.6323 -0.0523
  470MOL0     H64830   3.970  -0.125   1.941  3.9692  0.8666  0.8848
  470MOL0     H64831   3.962   0.038   2.015 -1.1717  0.5662  1.4044
  470MOL0     H64832   3.732  -0.162   2.009  1.6985  0.1765  0.4817
  470MOL0     H64833   3.707   0.011   2.007 -0.6395  0.8461 -2.5376
  470MOL0     H64834   3.780  -0.153   1.777  0.0318 -1.0058  1.5305
  470MOL0     H64835   3.828   0.018   1.779  0.9121  0.3260  0.7233
  470MOL0     H64836   3.606  -0.003   1.677  0.2779 -0.7677  0.8820
  470MOL0     H64837   3.577   0.078   1.832 -0.6932 -0.7964  3.1694
  470MOL0     H64838   3.415  -0.082   1.847 -1.0049 -2.1175  2.9305
  470MOL0     H64839   3.528  -0.139   1.955 -1.2220 -1.2107  0.3518
  470MOL0     H64840   4.287  -0.309   2.488  0.0115  0.1750 -2.5217
  470MOL0     H64841   4.539  -0.274   2.572  1.9565 -0.3093 -1.1120
  470MOL0     H64842   4.862  -0.029   2.703 -0.2279  0.8996 -0.6546
  470MOL0     H64843   5.091  -0.022   2.788  2.0529 -2.3553  0.2377
  470MOL0     H64844   5.144   0.613   2.184  0.0609 -0.4501 -0.2291
  470MOL0     H64845   4.990   0.586   2.367  1.1551  0.2952  0.1547
  470MOL0     H64846   4.625   0.617   2.515  1.0992 -0.8535  0.4820
  470MOL0     H64847   4.481   0.530   2.658 -1.5952 -0.1554 -1.5904
  470MOL0     H64848   4.235   0.575   2.698 -0.0170  1.7785 -0.2841
  470MOL0     H64849   4.275   0.472   2.838  0.5539 -0.3339 -2.3855
  470MOL0     H64850   4.036   0.518   2.810  0.0600 -0.4010  1.9799
  470MOL0     H64851   4.071   0.696   2.803 -1.7428 -0.4213 -0.3464
  470MOL0     H64852   4.121   0.527   3.049  2.8326  0.0415 -3.0830
  470MOL0     H64853   4.144   0.706   3.033 -0.8346  0.6208  3.3872
  470MOL0     H64854   3.880   0.562   2.981  2.1865 -3.8276  1.8749
  470MOL0     H64855   3.907   0.737   2.991  0.6472  0.0811  0.7815
  470MOL0     H64856   3.839   0.641   3.397 -1.2257  2.7149 -0.5916
  470MOL0     H64857   4.481   0.882   2.897 -0.2793 -0.3951 -0.2339
  470MOL0     H64858   4.700   1.071   2.693  0.4634 -2.4760 -0.9567
  470MOL0     H64859   4.619   1.064   2.839  0.7418  0.0312  0.6398
  470MOL0     H64860   4.783   0.985   2.829 -0.0949  0.0225  1.3816
  471MOL0     O64861   5.822   7.674  10.041 -0.0198 -0.0750 -0.1458
  471MOL0     C64862   5.797   7.648   9.921 -0.3383  0.5907 -0.1121
  471MOL0     O64863   5.880   7.588   9.837 -0.1719 -0.3724  0.6059
  471MOL0     C64864   6.014   7.588   9.876 -0.5398 -0.9862 -0.6128
  471MOL0     C64865   6.067   7.475   9.937  1.0743 -0.0691  0.1584
  471MOL0     C64866   6.199   7.474   9.976  0.5680 -0.0380 -0.0529
  471MOL0     C64867   6.284   7.579   9.938 -1.2964 -0.4648  0.1610
  471MOL0     O64868   6.420   7.561   9.957 -0.6715  0.2802  0.4907
  471MOL0     C64869   6.460   7.511  10.080 -0.1251  0.2525 -0.3025
  471MOL0     C64870   6.598   7.561  10.105  0.2307 -0.6600 -0.0657
  471MOL0     C64871   6.705   7.508   9.999 -0.1966  0.2693  0.0765
  471MOL0     C64872   6.844   7.560  10.031  0.5084  0.7797 -0.5574
  471MOL0     C64873   6.916   7.567   9.894  0.2737 -0.5159 -0.2472
  471MOL0     C64874   7.064   7.578   9.918 -1.0142 -0.0122 -1.2127
  471MOL0     C64875   7.143   7.580   9.791 -0.4110 -0.8797  0.2112
  471MOL0     C64876   7.298   7.592   9.829 -0.5983 -0.1022 -0.6391
  471MOL0     N64877   7.375   7.511   9.731  0.2730 -0.1780 -0.8700
  471MOL0     C64878   7.399   7.558   9.602 -0.2023  0.9294  0.4121
  471MOL0     C64879   7.499   7.474   9.560 -0.4395  0.4073 -0.1982
  471MOL0     C64880   7.568   7.461   9.428 -0.0845 -0.1310 -0.5053
  471MOL0     C64881   7.714   7.396   9.435  0.6050 -0.2255 -0.1628
  471MOL0     C64882   7.761   7.357   9.301  0.2803 -0.3969  0.4788
  471MOL0     C64883   7.910   7.320   9.297  0.1571  0.9382  0.7384
  471MOL0     O64884   7.998   7.410   9.354  0.0994 -0.1727 -0.8283
  471MOL0     C64885   8.134   7.395   9.342  0.7216  0.2515  0.7947
  471MOL0     C64886   8.209   7.284   9.296 -0.1147 -0.3861  0.4352
  471MOL0     C64887   8.351   7.289   9.297 -0.1932  0.5524 -0.5311
  471MOL0     C64888   8.421   7.157   9.264  0.2324 -0.2100  0.4050
  471MOL0     C64889   8.416   7.413   9.327 -0.1811 -0.0876  0.9389
  471MOL0     C64890   8.565   7.432   9.326  0.0808 -0.4874  0.8854
  471MOL0     O64891   8.640   7.341   9.250 -0.4840 -0.3903  0.2593
  471MOL0     C64892   8.777   7.327   9.274 -0.2809 -0.5119 -0.2471
  471MOL0     C64893   8.853   7.370   9.378 -0.2634 -0.2402 -0.2589
  471MOL0     C64894   8.989   7.347   9.372  0.0652 -0.2519  0.1417
  471MOL0     C64895   9.053   7.285   9.273  0.6258 -0.4814  0.3357
  471MOL0     O64896   9.190   7.289   9.278 -0.1791  0.2501  0.2483
  471MOL0     C64897   9.270   7.246   9.168  0.4368  0.3934 -0.0243
  471MOL0     C64898   9.424   7.237   9.196 -0.1543  0.4808  0.5263
  471MOL0     C64899   9.484   7.356   9.254 -0.1886 -0.7583 -0.3777
  471MOL0     C64900   9.637   7.355   9.269  0.3236 -0.1631  0.6451
  471MOL0     C64901   9.692   7.245   9.364 -0.0327  0.4621  0.2365
  471MOL0     C64902   9.847   7.227   9.367  0.1873 -0.4272 -1.0261
  471MOL0     C64903   9.921   7.344   9.439  0.4736  0.5238  0.0418
  471MOL0     C64904  10.072   7.332   9.452 -0.1535 -0.7793 -0.8966
  471MOL0    Cl64905  10.142   7.193   9.366  0.5440 -0.1244  0.1039
  471MOL0     C64906   8.981   7.227   9.168  1.4681  0.1989 -0.5008
  471MOL0     C64907   8.842   7.248   9.179  0.0309 -0.1089  0.5412
  471MOL0     O64908   8.609   7.532   9.376  0.1567 -0.0340  0.4529
  471MOL0     C64909   8.333   7.523   9.361 -0.3533 -0.5548  1.0115
  471MOL0     C64910   8.201   7.513   9.372  0.9173 -0.1301 -0.4044
  471MOL0     N64911   7.521   7.383   9.657  0.0559  0.1070  0.0077
  471MOL0     N64912   7.450   7.407   9.760 -0.2566 -0.1382 -0.0029
  471MOL0     C64913   6.231   7.693   9.873 -0.4009  0.3184  0.2156
  471MOL0     C64914   6.096   7.695   9.843  0.2877 -0.0366 -1.1751
  471MOL0     C64915   5.670   7.690   9.866  0.8667  0.1206 -0.6840
  471MOL0     C64916   5.636   7.655   9.729 -0.1225 -0.9370  0.0193
  471MOL0     C64917   5.526   7.704   9.665  0.4283  1.0517  0.4538
  471MOL0     C64918   5.430   7.767   9.736 -1.0455  0.1873  0.1153
  471MOL0     O64919   5.306   7.794   9.688 -0.1479  0.1530 -0.2212
  471MOL0     C64920   5.282   7.798   9.548 -0.2100 -0.5399  0.1760
  471MOL0     C64921   5.159   7.875   9.508  0.5386 -0.4377  0.2986
  471MOL0     C64922   5.025   7.827   9.580  0.2838  0.4236  0.3738
  471MOL0     C64923   4.992   7.684   9.560 -0.1072 -0.1813 -0.5050
  471MOL0     C64924   5.007   7.645   9.419  0.1708  0.0613 -1.0484
  471MOL0     C64925   4.993   7.615   9.309 -0.0352 -0.7785 -0.2607
  471MOL0     C64926   5.453   7.802   9.866  0.3878 -0.0045  0.1375
  471MOL0     C64927   5.575   7.764   9.937  0.3587 -0.4874  0.1744
  471MOL0     C64928   5.593   7.834  10.077 -0.0538 -0.8976  1.1974
  471MOL0     H64929   6.000   7.394   9.963 -2.5505  1.7324 -2.6838
  471MOL0     H64930   6.236   7.383  10.021  1.3316 -0.4631 -1.4805
  471MOL0     H64931   6.458   7.403  10.091  0.4517  0.3050  0.4177
  471MOL0     H64932   6.398   7.548  10.163 -1.1689 -2.7891  0.3866
  471MOL0     H64933   6.590   7.670  10.112  0.8258 -0.5346 -1.1152
  471MOL0     H64934   6.632   7.512  10.197 -1.3244 -0.2969  0.7287
  471MOL0     H64935   6.695   7.399  10.008 -0.3652  0.2654 -0.1463
  471MOL0     H64936   6.668   7.545   9.903 -0.4521 -0.6377 -0.1881
  471MOL0     H64937   6.851   7.658  10.080 -0.0724 -1.2267  4.0970
  471MOL0     H64938   6.899   7.498  10.103 -1.5324  1.7166  1.9865
  471MOL0     H64939   6.878   7.647   9.829  0.5450 -0.9740 -0.9812
  471MOL0     H64940   6.900   7.473   9.841 -2.0356 -0.7968  0.8153
  471MOL0     H64941   7.092   7.662   9.983 -0.8484 -1.7319  1.0762
  471MOL0     H64942   7.089   7.491   9.979 -0.9457  1.7882  1.5161
  471MOL0     H64943   7.125   7.676   9.740 -1.4441 -0.0373  2.0936
  471MOL0     H64944   7.118   7.492   9.731  1.7386 -2.2299  1.1770
  471MOL0     H64945   7.332   7.696   9.822  0.9727 -0.6136 -0.8557
  471MOL0     H64946   7.313   7.558   9.932  0.1111  1.2301 -0.2776
  471MOL0     H64947   7.358   7.646   9.553 -2.7973 -0.6063 -0.3945
  471MOL0     H64948   7.576   7.560   9.383  0.6786  0.2005  0.3475
  471MOL0     H64949   7.491   7.413   9.366 -0.7827  0.6698 -0.2718
  471MOL0     H64950   7.774   7.476   9.478  0.5768 -0.2720 -0.0380
  471MOL0     H64951   7.717   7.304   9.494  0.3866  0.2418  0.5877
  471MOL0     H64952   7.707   7.268   9.269  2.1327 -2.0434  1.7222
  471MOL0     H64953   7.738   7.440   9.234  2.0009 -0.3605 -0.1193
  471MOL0     H64954   7.920   7.225   9.350  1.0402  1.7260  2.0334
  471MOL0     H64955   7.936   7.305   9.191 -1.7233  1.8895  0.0972
  471MOL0     H64956   8.159   7.188   9.286  1.3871 -1.1300 -0.3236
  471MOL0     H64957   8.448   7.140   9.160 -0.8842 -0.4463  0.1343
  471MOL0     H64958   8.347   7.079   9.286 -0.3886  1.0062  3.1092
  471MOL0     H64959   8.507   7.143   9.330  1.4603  1.4586 -0.7713
  471MOL0     H64960   8.821   7.432   9.461  0.6153 -1.4490  1.0292
  471MOL0     H64961   9.042   7.387   9.458  1.0393 -1.3604  0.0851
  471MOL0     H64962   9.239   7.149   9.128  0.9511 -1.0545  2.8723
  471MOL0     H64963   9.259   7.322   9.090  0.1381 -0.7797 -1.1698
  471MOL0     H64964   9.421   7.161   9.274 -1.5617  1.6050  1.6281
  471MOL0     H64965   9.475   7.213   9.102  0.8530  0.4399  1.0683
  471MOL0     H64966   9.447   7.371   9.356  0.0693  1.0929 -0.5251
  471MOL0     H64967   9.470   7.439   9.185  1.0173 -1.5440 -1.6224
  471MOL0     H64968   9.660   7.458   9.298  2.2829 -0.2593 -0.3960
  471MOL0     H64969   9.682   7.342   9.171 -1.6183  3.2804 -0.8844
  471MOL0     H64970   9.654   7.264   9.465 -1.7170  3.4651 -0.8191
  471MOL0     H64971   9.646   7.151   9.333 -0.2968  0.9513 -0.9072
  471MOL0     H64972   9.899   7.207   9.273  1.9008  0.1846 -0.2390
  471MOL0     H64973   9.864   7.134   9.422 -0.3191  0.1546  0.1468
  471MOL0     H64974   9.886   7.339   9.542  0.8931  0.6066  0.1930
  471MOL0     H64975   9.887   7.439   9.396 -3.4401 -1.6089 -2.1776
  471MOL0     H64976  10.107   7.313   9.554  1.2691 -2.1378 -1.5929
  471MOL0     H64977  10.107   7.429   9.416 -0.2765 -1.3898 -2.7762
  471MOL0     H64978   9.028   7.168   9.089 -0.9319 -0.3594 -1.6123
  471MOL0     H64979   8.767   7.217   9.107 -1.6818  1.9237  1.3222
  471MOL0     H64980   8.388   7.614   9.383 -1.9205  0.4605  0.9023
  471MOL0     H64981   8.137   7.594   9.404  2.7865  0.9665  0.7751
  471MOL0     H64982   6.288   7.784   9.855 -0.4041  0.4520  0.8298
  471MOL0     H64983   6.052   7.785   9.801  0.0922  0.1933 -0.4840
  471MOL0     H64984   5.706   7.590   9.677  0.3555  0.0561 -0.6156
  471MOL0     H64985   5.523   7.677   9.560  0.2289 -1.3915  1.0302
  471MOL0     H64986   5.365   7.846   9.496 -0.6002 -0.5494 -0.4707
  471MOL0     H64987   5.285   7.699   9.501  1.8756 -0.7304  0.5912
  471MOL0     H64988   5.141   7.872   9.400 -1.7291  1.8631  0.4958
  471MOL0     H64989   5.172   7.981   9.529 -0.9144 -0.3961  1.1624
  471MOL0     H64990   5.037   7.846   9.688  2.4605 -0.4569  0.3347
  471MOL0     H64991   4.941   7.889   9.548 -0.5063 -1.8169 -2.1515
  471MOL0     H64992   4.902   7.652   9.613 -0.6086 -0.1209 -1.2955
  471MOL0     H64993   5.069   7.624   9.609  0.9838  0.5929 -1.2322
  471MOL0     H64994   4.984   7.575   9.210  2.3521 -0.7616 -0.5409
  471MOL0     H64995   5.379   7.860   9.919  0.0437  1.1932 -1.5768
  471MOL0     H64996   5.509   7.900  10.101  1.1255  1.3733 -0.5547
  471MOL0     H64997   5.593   7.758  10.156 -3.2656  0.1761  2.3817
  471MOL0     H64998   5.685   7.892  10.086 -1.4674  2.6240 -3.1959
  472MOL0     O64999   6.312   9.677   7.694  1.1415  0.8267  0.0091
  472MOL0     C65000   6.280   9.624   7.587 -0.1655  0.5721  0.1546
  472MOL0     O65001   6.349   9.624   7.477 -0.0464  0.4030  0.3896
  472MOL0     C65002   6.474   9.670   7.475  0.0481 -0.3232 -0.4790
  472MOL0     C65003   6.520   9.763   7.375  0.3787 -0.9073 -0.0739
  472MOL0     C65004   6.643   9.818   7.381  0.7420  0.0382 -0.7784
  472MOL0     C65005   6.742   9.784   7.477  1.1053 -0.3884  0.3195
  472MOL0     O65006   6.859   9.843   7.458  0.2721  0.5201  0.0561
  472MOL0     C65007   6.957   9.806   7.548  0.7303  0.0204 -0.4790
  472MOL0     C65008   7.091   9.859   7.508  0.0233 -0.7480  0.3286
  472MOL0     C65009   7.107  10.004   7.544  0.0669  1.0573  0.1452
  472MOL0     C65010   7.252  10.054   7.549  0.0197 -0.2417 -0.2393
  472MOL0     C65011   7.255  10.197   7.603 -0.0030 -0.4047  0.3803
  472MOL0     C65012   7.257  10.295   7.485 -0.4255  0.4299 -0.0442
  472MOL0     C65013   7.394  10.301   7.422  0.2251  0.0702  0.1937
  472MOL0     C65014   7.386  10.423   7.321  0.4080 -1.0790 -0.7065
  472MOL0     N65015   7.527  10.452   7.275 -0.0700 -0.1470  0.4930
  472MOL0     C65016   7.578  10.469   7.142 -0.3477 -0.6702 -0.3696
  472MOL0     C65017   7.711  10.469   7.159 -0.0967  1.1923 -0.6306
  472MOL0     C65018   7.813  10.491   7.049  0.1476 -0.4620  0.3077
  472MOL0     C65019   7.918  10.588   7.105 -1.0204  0.0031 -0.3553
  472MOL0     C65020   7.985  10.675   6.999 -0.3231 -0.2840 -0.7055
  472MOL0     C65021   8.124  10.730   7.037  0.6836 -0.3437 -0.1003
  472MOL0     O65022   8.210  10.631   7.088 -0.5396 -0.2563  0.0948
  472MOL0     C65023   8.329  10.665   7.133 -0.0896  0.3226  0.2084
  472MOL0     C65024   8.406  10.764   7.085 -0.2783  1.1792  0.1091
  472MOL0     C65025   8.533  10.802   7.141 -0.2036 -0.2482  0.7020
  472MOL0     C65026   8.607  10.933   7.092  0.3349  0.3832  0.7604
  472MOL0     C65027   8.581  10.728   7.256 -0.4420  0.7300  1.1190
  472MOL0     C65028   8.710  10.759   7.328 -0.5087  0.7801 -0.1964
  472MOL0     O65029   8.721  10.711   7.454 -0.0824 -0.6681 -0.2408
  472MOL0     C65030   8.829  10.733   7.537 -0.0977 -1.0214  0.4207
  472MOL0     C65031   8.819  10.811   7.655 -1.0522 -0.0205  0.3866
  472MOL0     C65032   8.935  10.830   7.737  0.8756  0.1402  0.3839
  472MOL0     C65033   9.061  10.774   7.708  0.4439  0.1016 -0.1823
  472MOL0     O65034   9.182  10.797   7.771  0.0709 -0.6102 -0.3638
  472MOL0     C65035   9.182  10.827   7.909 -0.0617  0.6969  0.9337
  472MOL0     C65036   9.209  10.974   7.932 -0.0083 -0.2088 -0.1376
  472MOL0     C65037   9.325  11.036   7.864 -0.4927 -0.2424 -0.1025
  472MOL0     C65038   9.455  10.992   7.932 -0.2121  0.0702  0.0689
  472MOL0     C65039   9.488  11.061   8.062 -0.6051 -0.4143  0.4458
  472MOL0     C65040   9.580  10.970   8.149 -0.0216  0.7529 -0.3296
  472MOL0     C65041   9.700  10.908   8.081  0.0256 -0.0464  0.2283
  472MOL0     C65042   9.799  11.004   8.032  0.6329 -0.4367 -0.0176
  472MOL0    Cl65043   9.958  10.979   8.103 -0.1866 -0.1684  0.4332
  472MOL0     C65044   9.071  10.704   7.583  0.1256  0.0350 -0.1988
  472MOL0     C65045   8.950  10.678   7.505 -0.2464 -0.2562 -0.6870
  472MOL0     O65046   8.789  10.831   7.272  0.4896  0.2281  0.2871
  472MOL0     C65047   8.499  10.622   7.302 -0.6116 -0.4685 -0.2473
  472MOL0     C65048   8.377  10.601   7.250 -0.2609  0.0402  0.8054
  472MOL0     N65049   7.741  10.442   7.298 -0.3420  0.1571 -0.7120
  472MOL0     N65050   7.632  10.439   7.367 -0.3361 -0.1937  0.1569
  472MOL0     C65051   6.712   9.670   7.561  0.5472  0.6072  0.5140
  472MOL0     C65052   6.576   9.620   7.560 -0.2163  0.0488  0.3644
  472MOL0     C65053   6.134   9.570   7.562  0.4432 -0.0747  0.2042
  472MOL0     C65054   6.101   9.556   7.430 -0.4785 -0.8426 -0.0660
  472MOL0     C65055   5.979   9.498   7.390  0.1634  0.6131  0.2722
  472MOL0     C65056   5.877   9.464   7.477 -0.3037  0.4695 -0.5311
  472MOL0     O65057   5.755   9.416   7.457 -0.0061  0.2542 -0.2154
  472MOL0     C65058   5.704   9.460   7.330 -0.6322 -0.6877 -0.5754
  472MOL0     C65059   5.557   9.411   7.350  0.8627  0.1641  0.6221
  472MOL0     C65060   5.477   9.488   7.466 -0.2424 -0.4320 -0.3136
  472MOL0     C65061   5.417   9.626   7.416  0.3231 -0.2170  0.0851
  472MOL0     C65062   5.282   9.586   7.366 -0.8927  0.8080  0.2675
  472MOL0     C65063   5.178   9.544   7.320 -0.0401 -0.0220 -0.0889
  472MOL0     C65064   5.908   9.484   7.613  0.2563  0.3638 -0.0851
  472MOL0     C65065   6.033   9.540   7.659 -0.6348  0.5626  0.0595
  472MOL0     C65066   6.055   9.543   7.808 -0.1877 -0.6411 -0.6727
  472MOL0     H65067   6.459   9.800   7.294 -2.2773 -1.5147  1.5489
  472MOL0     H65068   6.671   9.889   7.305 -0.7763  0.1283 -1.2831
  472MOL0     H65069   6.973   9.698   7.557 -0.3923  0.0173  2.6839
  472MOL0     H65070   6.924   9.834   7.648 -1.2090 -1.6098 -0.6065
  472MOL0     H65071   7.172   9.799   7.551 -1.1089 -2.2491  0.4659
  472MOL0     H65072   7.094   9.845   7.400 -0.4286 -0.6598  0.3024
  472MOL0     H65073   7.061  10.070   7.470  0.2794  0.8817 -0.1414
  472MOL0     H65074   7.062  10.017   7.643  1.3652  0.4297  0.8524
  472MOL0     H65075   7.300   9.999   7.629 -1.9568  0.0902  1.2466
  472MOL0     H65076   7.303  10.038   7.453 -1.0672  2.2654 -1.3537
  472MOL0     H65077   7.349  10.211   7.657  0.5702 -0.2872 -0.6258
  472MOL0     H65078   7.164  10.210   7.663 -2.7764  0.8601 -3.6678
  472MOL0     H65079   7.180  10.269   7.411 -0.7299 -0.4016  0.5433
  472MOL0     H65080   7.232  10.393   7.526  1.4029  0.9187 -0.0287
  472MOL0     H65081   7.425  10.215   7.362  1.0116  1.4073 -1.4152
  472MOL0     H65082   7.463  10.317   7.505  2.2031 -0.3211 -1.2944
  472MOL0     H65083   7.318  10.414   7.236 -0.6656  2.2321 -0.3151
  472MOL0     H65084   7.354  10.510   7.379  1.7355 -0.6041 -0.6412
  472MOL0     H65085   7.520  10.474   7.051  0.8930  1.7526 -1.1105
  472MOL0     H65086   7.774  10.531   6.955 -0.6499 -1.3615  0.2438
  472MOL0     H65087   7.859  10.396   7.019  1.0376  0.0759 -0.0696
  472MOL0     H65088   7.876  10.650   7.185 -2.9109 -2.0800  0.3452
  472MOL0     H65089   7.987  10.514   7.146 -0.5770 -0.3076 -1.6025
  472MOL0     H65090   7.988  10.623   6.903  0.0809  0.6112 -1.1835
  472MOL0     H65091   7.918  10.760   6.982  1.7839  1.9702  1.4904
  472MOL0     H65092   8.164  10.776   6.946  2.3884 -0.0233  0.7832
  472MOL0     H65093   8.108  10.807   7.113 -0.7087  1.6099 -2.2121
  472MOL0     H65094   8.373  10.822   6.999 -1.8383 -1.8356 -1.4466
  472MOL0     H65095   8.689  10.902   7.026 -0.0138  0.8645  0.0907
  472MOL0     H65096   8.652  10.996   7.169 -0.0388  0.8948  0.5651
  472MOL0     H65097   8.551  11.005   7.032 -1.8635  0.4830  2.8009
  472MOL0     H65098   8.723  10.845   7.692 -0.8611  0.8750  0.0654
  472MOL0     H65099   8.919  10.879   7.833  0.5371 -1.4385  1.1639
  472MOL0     H65100   9.095  10.783   7.959  0.1459 -2.4449 -1.2083
  472MOL0     H65101   9.269  10.774   7.951  0.3938  0.3665 -0.3922
  472MOL0     H65102   9.120  11.018   7.886  0.6751  0.2378 -1.0567
  472MOL0     H65103   9.205  11.003   8.038 -1.2715  1.6431 -0.6331
  472MOL0     H65104   9.303  11.144   7.866 -0.3850 -0.1966 -1.0815
  472MOL0     H65105   9.323  11.014   7.757  0.4206  1.9868 -0.6379
  472MOL0     H65106   9.533  11.020   7.860 -2.2951  0.1005 -2.3399
  472MOL0     H65107   9.457  10.883   7.943  1.8172 -0.0958 -1.3660
  472MOL0     H65108   9.536  11.158   8.045 -0.4078 -0.6263 -0.2438
  472MOL0     H65109   9.395  11.079   8.117 -0.0587 -0.1625  1.2997
  472MOL0     H65110   9.521  10.882   8.175 -1.1361  1.8521  1.0254
  472MOL0     H65111   9.616  11.014   8.242 -1.3163  1.1159  0.0240
  472MOL0     H65112   9.684  10.830   8.006  3.3210 -0.4587 -0.2204
  472MOL0     H65113   9.748  10.848   8.159  1.7803 -3.1398 -2.9603
  472MOL0     H65114   9.773  11.107   8.056  1.1712 -0.4907  0.8405
  472MOL0     H65115   9.797  11.013   7.923 -2.7033  0.1740 -0.0146
  472MOL0     H65116   9.166  10.669   7.542  0.0679  0.8432 -1.0846
  472MOL0     H65117   8.960  10.622   7.413 -0.1339 -0.8773 -0.2977
  472MOL0     H65118   8.537  10.577   7.393  1.0022  4.6529  1.9636
  472MOL0     H65119   8.319  10.524   7.300 -0.7877  1.0049  1.6967
  472MOL0     H65120   6.778   9.635   7.639  0.8948  2.6453  1.1978
  472MOL0     H65121   6.547   9.538   7.625  3.9045 -1.7972  0.2015
  472MOL0     H65122   6.166   9.598   7.354  0.6428  2.9499  2.6882
  472MOL0     H65123   5.949   9.472   7.289  1.0298  0.1760  0.1131
  472MOL0     H65124   5.708   9.568   7.313  0.2616 -0.6933 -0.4270
  472MOL0     H65125   5.754   9.405   7.249 -0.5013 -0.2211 -0.8117
  472MOL0     H65126   5.558   9.302   7.363  2.8094 -0.1008 -1.2776
  472MOL0     H65127   5.511   9.423   7.252 -1.9311 -2.2344  1.4783
  472MOL0     H65128   5.395   9.423   7.498 -1.2606  1.7235  1.6290
  472MOL0     H65129   5.547   9.502   7.549  2.0489 -4.1490 -1.3611
  472MOL0     H65130   5.482   9.678   7.344 -0.5385 -0.1810 -0.6907
  472MOL0     H65131   5.408   9.693   7.502  0.5151 -0.9016  0.6421
  472MOL0     H65132   5.091   9.507   7.268  0.8953  0.1275 -1.8594
  472MOL0     H65133   5.826   9.470   7.684 -0.4447  3.3816 -0.1770
  472MOL0     H65134   6.161   9.546   7.832  0.2975 -3.9851 -1.7666
  472MOL0     H65135   6.021   9.637   7.852  2.0218  0.9136 -2.0516
  472MOL0     H65136   6.019   9.452   7.856  1.1576 -1.3034 -0.8648
  473MOL0     O65137   8.827   0.257   9.463  0.0174  0.5482  0.0931
  473MOL0     C65138   8.858   0.153   9.524  0.4531 -0.5126 -0.1333
  473MOL0     O65139   8.950   0.071   9.480 -0.1162  0.1029 -0.2723
  473MOL0     C65140   9.043   0.130   9.392  0.0108 -0.3725 -0.6954
  473MOL0     C65141   9.019   0.112   9.252  1.2609 -0.1306 -0.9207
  473MOL0     C65142   9.110   0.164   9.156 -0.4098 -0.0242 -0.1782
  473MOL0     C65143   9.211   0.254   9.208 -0.4844  0.2442  0.0448
  473MOL0     O65144   9.293   0.339   9.130  0.3189 -0.9578  0.0499
  473MOL0     C65145   9.319   0.309   8.996 -0.0583 -0.9001  0.0738
  473MOL0     C65146   9.418   0.407   8.932  0.0411 -1.2015  0.6169
  473MOL0     C65147   9.565   0.394   8.968  0.4080 -0.6450 -0.0555
  473MOL0     C65148   9.633   0.537   8.947  0.6795  0.6373  0.0277
  473MOL0     C65149   9.776   0.530   8.917 -0.9540  0.1484  0.1447
  473MOL0     C65150   9.803   0.467   8.776 -0.7590  0.0080  0.0988
  473MOL0     C65151   9.953   0.457   8.748  0.0448  0.0021 -1.3934
  473MOL0     C65152   9.973   0.400   8.613  1.6398  0.3976 -0.4936
  473MOL0     N65153  10.112   0.370   8.586  0.2750 -0.2157  0.2958
  473MOL0     C65154  10.213   0.469   8.586  0.3463  0.2914 -0.1747
  473MOL0     C65155  10.325   0.403   8.562 -0.2421 -0.2320 -0.8720
  473MOL0     C65156  10.466   0.457   8.561 -0.4997 -0.3187  0.7067
  473MOL0     C65157  10.530   0.432   8.702 -0.4953 -0.5475  0.1104
  473MOL0     C65158  10.683   0.478   8.704  0.0606  0.3827 -0.1070
  473MOL0     C65159  10.745   0.460   8.842 -0.9269 -0.0445 -0.2700
  473MOL0     O65160  10.660   0.483   8.950  0.2913 -0.0387 -0.3370
  473MOL0     C65161  10.719   0.482   9.073  0.4065 -0.3009 -0.4211
  473MOL0     C65162  10.648   0.516   9.190 -0.1151 -0.9468 -0.1420
  473MOL0     C65163  10.708   0.535   9.316 -0.2052  0.4487 -0.5608
  473MOL0     C65164  10.618   0.558   9.432  0.8103 -0.0605 -0.0765
  473MOL0     C65165  10.849   0.517   9.330 -0.0486  0.2192 -0.8601
  473MOL0     C65166  10.923   0.532   9.460 -0.4424  0.7400  0.0808
  473MOL0     O65167  10.891   0.625   9.549 -0.8690  0.2183 -0.0316
  473MOL0     C65168  10.964   0.637   9.665  0.1219  0.0886  0.1381
  473MOL0     C65169  10.925   0.607   9.791 -0.4604  0.3032  0.1867
  473MOL0     C65170  11.013   0.630   9.900  0.1446 -0.2398 -1.2176
  473MOL0     C65171  11.138   0.693   9.882 -1.2057  0.3494 -0.0467
  473MOL0     O65172  11.229   0.710   9.988  0.2677  0.3359  0.8146
  473MOL0     C65173  11.185   0.687  10.129  0.1258  0.0425  0.3413
  473MOL0     C65174  11.298   0.727  10.234  0.3915 -0.5569 -0.8323
  473MOL0     C65175  11.326   0.876  10.221  0.0397 -0.4778 -0.5490
  473MOL0     C65176  11.430   0.926  10.315 -0.1035  0.2514 -0.0418
  473MOL0     C65177  11.456   1.078  10.296  0.6914  0.1734  0.5881
  473MOL0     C65178  11.589   1.132  10.350 -0.2155  0.3252  0.0473
  473MOL0     C65179  11.622   1.284  10.304  0.3962 -0.0583  0.1930
  473MOL0     C65180  11.679   1.303  10.161  0.1319 -1.0350  0.0557
  473MOL0    Cl65181  11.801   1.180  10.124 -0.2767 -0.0662 -0.7388
  473MOL0     C65182  11.174   0.712   9.754  0.0162  0.0920 -0.0198
  473MOL0     C65183  11.088   0.679   9.652  0.6904 -0.9490 -0.5589
  473MOL0     O65184  11.018   0.458   9.472  0.2519  0.3051  0.0299
  473MOL0     C65185  10.925   0.471   9.215  0.4389 -0.0722  0.3980
  473MOL0     C65186  10.855   0.447   9.089  0.3679  0.0131 -0.5815
  473MOL0     N65187  10.298   0.269   8.548  0.3726 -0.4290  0.3069
  473MOL0     N65188  10.169   0.253   8.571 -0.4013  0.3337 -0.2454
  473MOL0     C65189   9.221   0.282   9.344 -0.6967 -0.4828  0.3973
  473MOL0     C65190   9.143   0.218   9.435 -0.1158  0.1120 -0.8134
  473MOL0     C65191   8.775   0.116   9.638  0.7216  0.5441 -0.0657
  473MOL0     C65192   8.640   0.164   9.639  0.6463  0.3327 -0.4789
  473MOL0     C65193   8.553   0.121   9.747  0.1145  0.0101 -0.0791
  473MOL0     C65194   8.586   0.017   9.837  0.4555  0.1590 -0.0249
  473MOL0     O65195   8.511  -0.025   9.940  0.6319 -0.3662  0.4806
  473MOL0     C65196   8.404   0.045   9.988 -0.3097 -0.2111 -1.0957
  473MOL0     C65197   8.442   0.149  10.073 -0.9126 -0.3680  0.3879
  473MOL0     C65198   8.547   0.103  10.185  0.6276  0.4874 -0.1773
  473MOL0     C65199   8.538   0.194  10.315 -0.2251 -0.5748  0.4176
  473MOL0     C65200   8.406   0.212  10.382 -0.1697  0.2679 -0.1443
  473MOL0     C65201   8.291   0.226  10.422  0.2242  0.5193 -0.0677
  473MOL0     C65202   8.715  -0.022   9.836 -0.5065 -0.2062 -1.2556
  473MOL0     C65203   8.811   0.025   9.746  0.2243 -0.3036  0.0223
  473MOL0     C65204   8.950  -0.025   9.772  0.2710  0.9428 -0.1201
  473MOL0     H65205   8.929   0.061   9.218 -0.6888  2.7009 -0.4134
  473MOL0     H65206   9.096   0.132   9.053 -3.1787 -1.0868  0.4146
  473MOL0     H65207   9.229   0.325   8.937 -0.0997  0.3214  0.4305
  473MOL0     H65208   9.354   0.205   8.989 -0.7954 -1.1502  0.0820
  473MOL0     H65209   9.411   0.398   8.823  1.2246  2.4578  0.0941
  473MOL0     H65210   9.381   0.508   8.954  1.4437 -0.8239  1.3795
  473MOL0     H65211   9.563   0.368   9.074 -3.9710 -0.1865  0.1505
  473MOL0     H65212   9.610   0.315   8.908  0.0805  1.5407 -3.4268
  473MOL0     H65213   9.582   0.603   8.877  0.0127  1.1124  0.9303
  473MOL0     H65214   9.622   0.582   9.046 -0.3616 -2.6145  1.5361
  473MOL0     H65215   9.838   0.489   8.997 -0.4229  3.0894  1.3678
  473MOL0     H65216   9.799   0.636   8.924 -4.3064  1.0903 -1.1571
  473MOL0     H65217   9.753   0.370   8.768 -0.9684  0.0092  1.1358
  473MOL0     H65218   9.757   0.537   8.705  0.3442  1.6049  0.9014
  473MOL0     H65219   9.986   0.385   8.823 -1.7495  0.4034 -0.1352
  473MOL0     H65220  10.000   0.554   8.767 -0.1083 -0.5128  2.3652
  473MOL0     H65221   9.913   0.309   8.611  0.7637  0.9811 -2.1795
  473MOL0     H65222   9.929   0.464   8.536 -4.0370 -2.5582 -0.2391
  473MOL0     H65223  10.202   0.574   8.614 -1.0575 -0.3154  1.8234
  473MOL0     H65224  10.458   0.562   8.531 -1.8275  0.0266  2.1731
  473MOL0     H65225  10.530   0.405   8.489  0.1205  0.8470  0.3908
  473MOL0     H65226  10.475   0.492   8.775 -0.0344 -0.0457  0.0537
  473MOL0     H65227  10.522   0.326   8.727  0.0777 -0.8631 -0.9817
  473MOL0     H65228  10.739   0.418   8.631  0.9685  1.5241 -0.3800
  473MOL0     H65229  10.691   0.585   8.686 -3.0492  0.9020  0.9143
  473MOL0     H65230  10.775   0.356   8.853 -3.5473 -0.5973  3.2701
  473MOL0     H65231  10.833   0.526   8.841  1.9573 -3.5411 -1.0616
  473MOL0     H65232  10.542   0.530   9.169  0.0728  2.7738  0.7602
  473MOL0     H65233  10.648   0.623   9.515  1.0316 -1.7959  1.2637
  473MOL0     H65234  10.606   0.460   9.478 -0.9630  0.4841  0.6912
  473MOL0     H65235  10.522   0.592   9.392  1.4291 -0.5759 -2.1483
  473MOL0     H65236  10.826   0.564   9.803 -1.0250  1.7411  0.9866
  473MOL0     H65237  10.977   0.606  10.000  2.4598 -1.7657 -0.6667
  473MOL0     H65238  11.089   0.735  10.148 -0.1074 -0.4344  0.3728
  473MOL0     H65239  11.162   0.582  10.148 -0.2803  0.2395  0.9653
  473MOL0     H65240  11.265   0.704  10.335  0.2527  1.1085 -0.4703
  473MOL0     H65241  11.387   0.666  10.214 -0.1203 -1.2770 -0.9360
  473MOL0     H65242  11.235   0.937  10.226  0.2214 -0.2821  1.9838
  473MOL0     H65243  11.364   0.892  10.120 -0.4354  0.0367 -0.6484
  473MOL0     H65244  11.515   0.858  10.305  0.7816  1.2223  0.6359
  473MOL0     H65245  11.405   0.937  10.421 -1.2706  2.2049 -0.4582
  473MOL0     H65246  11.458   1.097  10.189 -0.6985  3.3389  1.0129
  473MOL0     H65247  11.374   1.144  10.329 -2.1108 -1.4205 -2.5578
  473MOL0     H65248  11.686   1.086  10.328 -0.1394  0.1798  0.6744
  473MOL0     H65249  11.581   1.120  10.458  0.2005 -1.4787 -0.0944
  473MOL0     H65250  11.692   1.321  10.380  1.7540 -1.9607 -0.0293
  473MOL0     H65251  11.525   1.333  10.311 -0.7947 -2.1919 -0.3562
  473MOL0     H65252  11.716   1.406  10.150  2.4626 -1.5110  2.4126
  473MOL0     H65253  11.597   1.292  10.089  0.7805 -1.4977 -0.6257
  473MOL0     H65254  11.273   0.755   9.745 -0.6891  2.1749  1.3942
  473MOL0     H65255  11.127   0.689   9.551 -1.9690  1.0062 -1.5247
  473MOL0     H65256  11.032   0.455   9.225  0.5253 -1.3151 -1.9432
  473MOL0     H65257  10.914   0.406   9.008 -2.2801 -0.2754 -2.5123
  473MOL0     H65258   9.293   0.359   9.369 -1.5216  0.8572 -1.1334
  473MOL0     H65259   9.161   0.237   9.540 -0.2078 -2.2521 -0.3161
  473MOL0     H65260   8.599   0.226   9.560 -3.3244 -1.0342  0.3267
  473MOL0     H65261   8.449   0.155   9.744 -0.1431 -0.8367 -2.4972
  473MOL0     H65262   8.343   0.081   9.905  1.0201 -1.0564 -2.4850
  473MOL0     H65263   8.339  -0.016  10.051 -0.5466  1.2903  0.2089
  473MOL0     H65264   8.361   0.204  10.122  1.9109  2.9979  1.7046
  473MOL0     H65265   8.487   0.232  10.016 -3.6709  0.2860 -1.0581
  473MOL0     H65266   8.514   0.006  10.223  2.1820  0.2547  0.6373
  473MOL0     H65267   8.648   0.085  10.146  0.3857 -1.7732  0.1118
  473MOL0     H65268   8.573   0.295  10.291  0.6907 -0.8968  0.3471
  473MOL0     H65269   8.614   0.169  10.390  2.2615 -1.1823 -2.1054
  473MOL0     H65270   8.188   0.241  10.445  0.6272  1.0179  1.5642
  473MOL0     H65271   8.748  -0.086   9.918  0.6633  3.0944  1.0462
  473MOL0     H65272   9.021   0.058   9.775  1.4156  0.0008  0.1610
  473MOL0     H65273   8.952  -0.078   9.868 -1.9126 -1.0676 -1.0756
  473MOL0     H65274   8.974  -0.095   9.691  2.5783  3.1227 -1.4515
  474MOL0     O65275   2.544   7.296  10.042  0.1873 -0.0474 -0.0736
  474MOL0     C65276   2.563   7.243   9.933 -0.0688 -0.3611  0.4875
  474MOL0     O65277   2.666   7.268   9.850  0.4084 -0.8642  0.1938
  474MOL0     C65278   2.744   7.383   9.851  0.5282  0.0476 -0.0463
  474MOL0     C65279   2.871   7.371   9.812  0.0271  0.3851 -0.4870
  474MOL0     C65280   2.956   7.478   9.825  0.0275  0.5232  0.2611
  474MOL0     C65281   2.919   7.597   9.888 -1.0755  0.4754  0.8132
  474MOL0     O65282   3.024   7.685   9.900  0.3936 -0.7558  0.1650
  474MOL0     C65283   3.006   7.794   9.994  0.4661 -0.3919  0.7159
  474MOL0     C65284   3.126   7.894   9.966 -0.4137  0.6534  0.0448
  474MOL0     C65285   3.263   7.821   9.963  0.0129  0.0906  0.6028
  474MOL0     C65286   3.374   7.917   9.923  0.5810 -0.8272 -0.1721
  474MOL0     C65287   3.516   7.854   9.951  0.0884 -0.1891  0.9755
  474MOL0     C65288   3.630   7.955   9.933 -0.2287 -0.8536 -0.7388
  474MOL0     C65289   3.673   8.026  10.069 -0.5797  0.2919  0.6965
  474MOL0     C65290   3.767   8.150  10.040 -0.2547  0.3956 -0.0044
  474MOL0     N65291   3.836   8.188  10.167  0.0442 -0.1245  1.3683
  474MOL0     C65292   3.812   8.311  10.221 -0.3723 -0.1073  0.1981
  474MOL0     C65293   3.921   8.334  10.301  0.2065  0.0609 -0.4967
  474MOL0     C65294   3.962   8.458  10.367  0.6509 -0.2330 -0.2359
  474MOL0     C65295   3.960   8.455  10.522 -0.2135 -0.2042 -0.0646
  474MOL0     C65296   3.817   8.416  10.571 -0.7005 -0.3285 -0.4481
  474MOL0     C65297   3.821   8.374  10.716  0.8821  0.5850  0.9560
  474MOL0     O65298   3.928   8.275  10.740 -0.2455  0.1692  0.4516
  474MOL0     C65299   4.010   8.272  10.852 -0.3264 -0.9474 -0.1496
  474MOL0     C65300   4.118   8.188  10.857  0.3061 -0.1678  0.7895
  474MOL0     C65301   4.193   8.176  10.966  0.0419 -0.1772 -0.3564
  474MOL0     C65302   4.301   8.075  10.958  0.0084  0.1731 -0.4520
  474MOL0     C65303   4.177   8.260  11.083  0.0556  0.1287  0.7295
  474MOL0     C65304   4.251   8.258  11.211  0.8570  0.8213 -0.3434
  474MOL0     O65305   4.306   8.134  11.249 -0.3798 -0.0666  0.4467
  474MOL0     C65306   4.402   8.146  11.344  0.1622  0.0983 -0.2951
  474MOL0     C65307   4.535   8.101  11.312 -0.8724  0.2977  0.7336
  474MOL0     C65308   4.634   8.105  11.416  0.0979  0.2225 -0.5833
  474MOL0     C65309   4.603   8.147  11.549 -0.4822  0.1267 -0.4533
  474MOL0     O65310   4.688   8.148  11.656  0.0801  0.5207  0.2670
  474MOL0     C65311   4.808   8.065  11.656  0.2557  0.2848 -0.8089
  474MOL0     C65312   4.852   8.053  11.808 -0.1934 -0.1888  0.1579
  474MOL0     C65313   4.738   8.011  11.901 -0.0165 -1.3950  1.1383
  474MOL0     C65314   4.797   7.959  12.032  0.4912  0.4020  0.8752
  474MOL0     C65315   4.685   7.943  12.133  0.3036 -0.2715  0.4538
  474MOL0     C65316   4.603   7.812  12.098 -0.2280 -0.1080  0.4966
  474MOL0     C65317   4.490   7.791  12.207 -0.3482 -0.2162  0.5590
  474MOL0     C65318   4.374   7.702  12.158 -0.6548 -0.5480  0.1033
  474MOL0    Cl65319   4.235   7.705  12.283  0.1810 -0.2910  0.3180
  474MOL0     C65320   4.477   8.188  11.576  0.4941 -0.4757  0.0185
  474MOL0     C65321   4.373   8.193  11.472 -0.4223  0.4964 -0.4197
  474MOL0     O65322   4.258   8.355  11.276 -0.0497 -0.4803 -0.5182
  474MOL0     C65323   4.074   8.348  11.080  1.1876 -0.2250 -0.1687
  474MOL0     C65324   3.993   8.354  10.964  1.2510  0.2367 -0.7166
  474MOL0     N65325   4.007   8.223  10.296  0.2225  1.2279  0.5491
  474MOL0     N65326   3.953   8.140  10.214  0.4545 -0.0766 -0.3783
  474MOL0     C65327   2.791   7.604   9.940 -0.1695 -0.9532  0.3407
  474MOL0     C65328   2.705   7.497   9.919  0.0423  0.0963  0.2725
  474MOL0     C65329   2.456   7.151   9.884  0.5647 -0.3844  0.5955
  474MOL0     C65330   2.379   7.083   9.980  0.1034  0.6100  0.1920
  474MOL0     C65331   2.279   6.996   9.945 -0.2270  0.5439 -0.1413
  474MOL0     C65332   2.248   6.968   9.809 -0.3014  0.2939  0.0810
  474MOL0     O65333   2.143   6.891   9.776 -0.4368  0.0158  0.6884
  474MOL0     C65334   2.104   6.878   9.634 -0.0856 -0.5301 -0.7448
  474MOL0     C65335   1.966   6.804   9.627 -0.3440 -0.1182  0.1262
  474MOL0     C65336   1.926   6.787   9.481  0.0872  0.2142 -0.2605
  474MOL0     C65337   2.014   6.711   9.384  0.3783  0.1404  0.1482
  474MOL0     C65338   2.088   6.588   9.428  0.0883 -0.0085  0.2639
  474MOL0     C65339   2.147   6.493   9.462 -0.1644  1.2184 -0.2616
  474MOL0     C65340   2.318   7.050   9.717  0.0350  0.5460  0.0010
  474MOL0     C65341   2.423   7.135   9.750 -0.1080 -0.4003 -0.1547
  474MOL0     C65342   2.477   7.223   9.638 -0.2211 -0.3457  0.3578
  474MOL0     H65343   2.907   7.276   9.774  1.8086  0.9323 -0.2453
  474MOL0     H65344   3.058   7.488   9.788 -0.7259  1.8964 -1.6658
  474MOL0     H65345   3.014   7.764  10.098 -0.2914 -0.1500  0.8474
  474MOL0     H65346   2.914   7.848   9.968  0.1065 -1.1640  0.3506
  474MOL0     H65347   3.104   7.938   9.868  0.3395 -2.1418 -1.4860
  474MOL0     H65348   3.120   7.972  10.042 -0.4356  1.5121 -0.8226
  474MOL0     H65349   3.287   7.795  10.067 -1.9205  1.0109  1.3318
  474MOL0     H65350   3.267   7.738   9.892  1.3330  1.3026 -0.8020
  474MOL0     H65351   3.371   7.947   9.818  0.2485 -0.0890  0.0454
  474MOL0     H65352   3.363   8.006   9.986 -0.0113 -2.0691  1.5388
  474MOL0     H65353   3.529   7.776   9.874  1.5900  1.3629 -0.4102
  474MOL0     H65354   3.533   7.807  10.048  5.6256 -2.1542 -0.5879
  474MOL0     H65355   3.719   7.902   9.896 -0.3766 -1.7241  0.1201
  474MOL0     H65356   3.608   8.039   9.866  0.9982  1.0606  1.1228
  474MOL0     H65357   3.727   7.958  10.136 -1.2328  0.3396  1.2733
  474MOL0     H65358   3.581   8.060  10.116 -1.0311 -1.1101  0.8674
  474MOL0     H65359   3.853   8.118   9.981  0.9444  2.2233  0.6536
  474MOL0     H65360   3.704   8.226   9.993 -1.7414 -1.7691 -1.7043
  474MOL0     H65361   3.737   8.387  10.204  0.5893  1.0977  1.1049
  474MOL0     H65362   3.899   8.537  10.324  0.9505 -0.3812 -0.9584
  474MOL0     H65363   4.066   8.476  10.337  0.8601  1.6429  1.3552
  474MOL0     H65364   4.035   8.384  10.558 -1.2648 -0.9295  0.7299
  474MOL0     H65365   3.983   8.557  10.552 -1.2660 -0.1693  0.6472
  474MOL0     H65366   3.749   8.502  10.570 -0.7283 -0.3428 -1.3090
  474MOL0     H65367   3.769   8.330  10.523 -1.9981 -0.0264  0.2751
  474MOL0     H65368   3.824   8.468  10.771  2.9037  1.5408 -0.6600
  474MOL0     H65369   3.722   8.335  10.742 -0.4400  2.4145 -0.9981
  474MOL0     H65370   4.140   8.120  10.775  2.3641  0.2247  0.9512
  474MOL0     H65371   4.279   7.991  11.025  1.1685 -1.4187 -1.9528
  474MOL0     H65372   4.390   8.120  11.001 -2.0206  1.6204  2.5648
  474MOL0     H65373   4.318   8.040  10.855  5.0292  1.4611 -0.2875
  474MOL0     H65374   4.563   8.068  11.213  1.7648 -1.7893  2.0385
  474MOL0     H65375   4.735   8.074  11.390  0.2842  0.1325  0.2413
  474MOL0     H65376   4.786   7.962  11.627 -2.6162 -1.1633  5.0581
  474MOL0     H65377   4.890   8.103  11.593  0.9843  0.8047  0.4193
  474MOL0     H65378   4.933   7.980  11.803  0.5472  0.7027 -2.4622
  474MOL0     H65379   4.886   8.148  11.851  2.6247 -0.7566 -0.6417
  474MOL0     H65380   4.691   7.935  11.838  1.2528  1.3195 -3.6692
  474MOL0     H65381   4.672   8.098  11.908 -1.0073 -1.9235 -0.7699
  474MOL0     H65382   4.872   8.023  12.080  1.1800 -1.7401  2.8687
  474MOL0     H65383   4.841   7.863  12.004 -3.6270 -0.5902 -3.4885
  474MOL0     H65384   4.727   7.923  12.232 -0.4546 -2.1370  0.4354
  474MOL0     H65385   4.618   8.030  12.142 -0.2127 -0.6581  0.4204
  474MOL0     H65386   4.679   7.733  12.100 -0.6257 -0.5242 -0.1930
  474MOL0     H65387   4.551   7.813  12.002 -0.5658 -1.3477  0.6448
  474MOL0     H65388   4.449   7.889  12.233 -3.9505 -0.0276 -4.2817
  474MOL0     H65389   4.529   7.747  12.299 -0.2484  1.0631  1.1381
  474MOL0     H65390   4.422   7.605  12.141  0.4735 -0.0142  0.1105
  474MOL0     H65391   4.333   7.734  12.062 -0.2975 -0.2364  0.0512
  474MOL0     H65392   4.449   8.198  11.681  0.6439  0.8608 -0.0558
  474MOL0     H65393   4.272   8.226  11.497 -0.3673 -1.3724  2.8575
  474MOL0     H65394   4.046   8.402  11.171 -0.9018 -3.3130  1.1898
  474MOL0     H65395   3.912   8.424  10.948  0.8074  0.3200  1.5393
  474MOL0     H65396   2.758   7.676  10.014  1.0823 -0.0300  0.0410
  474MOL0     H65397   2.601   7.497   9.951 -0.5053  1.1507 -1.3536
  474MOL0     H65398   2.405   7.100  10.084 -0.2480 -1.4648  0.6729
  474MOL0     H65399   2.227   6.935  10.017  0.6943 -2.5375 -1.8589
  474MOL0     H65400   2.088   6.974   9.583 -1.1911 -0.7933 -0.9155
  474MOL0     H65401   2.177   6.823   9.575  1.7913  2.1331 -1.1262
  474MOL0     H65402   1.895   6.855   9.693  1.6442  1.1632  1.3953
  474MOL0     H65403   1.984   6.705   9.672  0.6448 -1.2756 -2.6208
  474MOL0     H65404   1.825   6.748   9.473 -0.4126  1.5490 -0.8694
  474MOL0     H65405   1.923   6.888   9.438  2.9916 -0.0067 -1.2228
  474MOL0     H65406   2.092   6.777   9.346 -0.7418  0.3238 -2.0008
  474MOL0     H65407   1.949   6.679   9.302 -1.5065  2.5273  0.6196
  474MOL0     H65408   2.213   6.411   9.480 -0.9578  0.7187  0.4209
  474MOL0     H65409   2.301   7.058   9.610 -0.6489  0.0965  0.0666
  474MOL0     H65410   2.569   7.180   9.598  1.7185  2.4571  1.5209
  474MOL0     H65411   2.407   7.223   9.554  0.1908  0.1875  0.0070
  474MOL0     H65412   2.497   7.323   9.677  0.8675 -0.0154 -0.9787
  475MOL0     O65413   7.886   2.425   6.261  0.2906  0.3823 -0.4518
  475MOL0     C65414   7.925   2.490   6.173 -0.5555 -0.2569  0.5185
  475MOL0     O65415   8.053   2.531   6.146  0.3081 -0.2328 -0.7738
  475MOL0     C65416   8.148   2.504   6.240  0.9449 -0.1347  0.0864
  475MOL0     C65417   8.241   2.404   6.224  0.3175  0.0970 -1.0847
  475MOL0     C65418   8.341   2.388   6.318  0.1426  0.2684 -0.3203
  475MOL0     C65419   8.351   2.473   6.432 -0.1893 -0.3245  0.8306
  475MOL0     O65420   8.454   2.459   6.525 -0.4206 -0.1911  0.8347
  475MOL0     C65421   8.448   2.528   6.650 -0.2446 -0.6695 -0.0883
  475MOL0     C65422   8.562   2.499   6.749  0.4755 -0.6719 -0.1756
  475MOL0     C65423   8.696   2.494   6.674  0.2869  0.0086  0.2956
  475MOL0     C65424   8.804   2.477   6.781 -0.0903  0.0552  0.1027
  475MOL0     C65425   8.945   2.470   6.727 -0.5671 -0.5345 -0.0213
  475MOL0     C65426   9.003   2.594   6.661  0.1794  0.5589 -0.1146
  475MOL0     C65427   9.134   2.558   6.594 -0.3236 -0.2243 -0.2580
  475MOL0     C65428   9.194   2.682   6.519  0.5064 -0.1526  0.1372
  475MOL0     N65429   9.336   2.674   6.491  0.7749 -0.1841 -0.3387
  475MOL0     C65430   9.400   2.607   6.387  0.5307 -0.5125 -0.2551
  475MOL0     C65431   9.531   2.624   6.410 -0.2917  0.1994  0.1884
  475MOL0     C65432   9.632   2.561   6.318 -0.2919  0.2784  0.0276
  475MOL0     C65433   9.706   2.659   6.222  0.0029 -0.4183  0.3782
  475MOL0     C65434   9.801   2.600   6.110 -0.1385  0.1234 -0.5196
  475MOL0     C65435   9.813   2.703   6.001  0.9349 -0.6863  0.7269
  475MOL0     O65436   9.870   2.822   6.046 -0.5740 -0.1978 -0.4507
  475MOL0     C65437  10.000   2.843   6.018 -0.2672  0.1842 -0.4167
  475MOL0     C65438  10.046   2.975   6.013 -0.2459  0.7584 -0.5262
  475MOL0     C65439  10.179   3.006   5.983 -0.9340  0.1247  0.0066
  475MOL0     C65440  10.207   3.145   5.940 -0.3210 -0.5582 -0.1848
  475MOL0     C65441  10.266   2.900   5.967 -0.1451 -0.4303  0.1515
  475MOL0     C65442  10.413   2.916   5.952  0.4552 -1.2320 -0.4577
  475MOL0     O65443  10.470   3.042   5.994  0.5170  0.0017  0.0795
  475MOL0     C65444  10.605   3.048   6.017 -0.1043  0.4543  0.6180
  475MOL0     C65445  10.706   3.020   5.931  0.1251 -0.2152 -0.0970
  475MOL0     C65446  10.841   3.051   5.968 -0.4374 -0.4989  0.2822
  475MOL0     C65447  10.872   3.086   6.099  0.0364 -0.0417  0.5134
  475MOL0     O65448  10.992   3.090   6.159 -0.2134  0.4140 -0.2623
  475MOL0     C65449  11.104   3.085   6.064  0.1225  0.0532  0.0870
  475MOL0     C65450  11.225   3.039   6.141 -0.3206 -0.1411  0.0907
  475MOL0     C65451  11.344   3.139   6.133 -0.0551 -0.1886 -0.0560
  475MOL0     C65452  11.426   3.133   6.000  0.0826 -0.1313 -0.9529
  475MOL0     C65453  11.498   3.266   5.983  0.4465  1.0009 -0.0822
  475MOL0     C65454  11.637   3.244   6.045 -0.4203 -0.1306 -0.5134
  475MOL0     C65455  11.734   3.370   6.031  0.6829  0.5983 -0.1705
  475MOL0     C65456  11.880   3.340   6.017  0.3860  0.3133 -0.3630
  475MOL0    Cl65457  11.943   3.285   6.177  0.3000  0.1594 -0.6108
  475MOL0     C65458  10.766   3.099   6.187  0.1530  0.3880 -0.5957
  475MOL0     C65459  10.631   3.080   6.148  0.3011  0.3777  0.1943
  475MOL0     O65460  10.471   2.821   5.908  0.5121  0.8198 -0.3717
  475MOL0     C65461  10.221   2.770   5.983  0.3243 -0.0944 -0.0924
  475MOL0     C65462  10.090   2.742   6.000  0.1682  0.3883  0.5717
  475MOL0     N65463   9.552   2.683   6.530  0.1058 -0.8964  0.1554
  475MOL0     N65464   9.434   2.719   6.582 -0.3961 -0.1072 -1.3648
  475MOL0     C65465   8.266   2.585   6.435 -0.7018  0.2228 -0.4952
  475MOL0     C65466   8.162   2.603   6.345 -0.4180  0.1890  0.3255
  475MOL0     C65467   7.809   2.546   6.086 -0.7798 -0.9103 -0.6026
  475MOL0     C65468   7.683   2.569   6.145  0.4445  0.2219  0.0046
  475MOL0     C65469   7.585   2.629   6.067  0.3413  0.4158 -0.3552
  475MOL0     C65470   7.601   2.661   5.929  0.1795 -0.4977  0.3452
  475MOL0     O65471   7.498   2.711   5.840 -1.1071  0.0056 -0.5567
  475MOL0     C65472   7.370   2.761   5.886 -0.1082 -1.0174 -0.5354
  475MOL0     C65473   7.378   2.904   5.926  0.3079 -0.1726  0.3907
  475MOL0     C65474   7.234   2.962   5.939 -0.2122  0.3495  0.6728
  475MOL0     C65475   7.192   3.017   6.075  0.5463 -0.1598  0.1676
  475MOL0     C65476   7.165   2.904   6.162  0.4812 -0.0998  0.3684
  475MOL0     C65477   7.108   2.827   6.244  0.3198 -0.4095  0.6648
  475MOL0     C65478   7.720   2.621   5.869  0.0371 -0.2528 -0.2014
  475MOL0     C65479   7.826   2.571   5.946  0.3566  0.6068 -0.2291
  475MOL0     C65480   7.950   2.536   5.866 -0.0766 -0.0365  1.2385
  475MOL0     H65481   8.254   2.336   6.139 -0.7563 -0.1140 -1.0975
  475MOL0     H65482   8.413   2.307   6.305  2.4487  2.2853 -0.8756
  475MOL0     H65483   8.350   2.523   6.698  0.2413  1.7081  1.3436
  475MOL0     H65484   8.456   2.635   6.625 -0.1818 -0.1661  1.9676
  475MOL0     H65485   8.562   2.585   6.817 -0.2636 -0.1543 -0.8162
  475MOL0     H65486   8.549   2.404   6.801  0.2929 -0.7187 -0.3059
  475MOL0     H65487   8.699   2.399   6.619 -0.7110 -0.8038  1.5788
  475MOL0     H65488   8.698   2.588   6.618 -0.4035  0.6958  1.3819
  475MOL0     H65489   8.804   2.568   6.841  2.8857  0.0818  0.2083
  475MOL0     H65490   8.781   2.392   6.846 -1.2775  0.0544 -0.3092
  475MOL0     H65491   8.938   2.391   6.652  0.1219  2.1903 -3.1888
  475MOL0     H65492   9.005   2.442   6.814 -0.8080  1.9876  1.0559
  475MOL0     H65493   8.942   2.632   6.578  2.3875 -0.0209 -2.1172
  475MOL0     H65494   9.004   2.673   6.736 -0.8819  2.3036 -1.8498
  475MOL0     H65495   9.111   2.479   6.522 -0.3104 -0.1827 -0.3080
  475MOL0     H65496   9.197   2.514   6.672 -1.9580 -0.4732  0.9513
  475MOL0     H65497   9.144   2.692   6.423 -1.5741 -2.5153  0.8544
  475MOL0     H65498   9.180   2.772   6.580 -2.0222  0.3780 -1.1154
  475MOL0     H65499   9.363   2.557   6.298  0.0879 -1.6997  0.5637
  475MOL0     H65500   9.584   2.483   6.259  2.7125  0.4636 -2.9163
  475MOL0     H65501   9.716   2.507   6.363 -0.4708 -3.6179 -3.7460
  475MOL0     H65502   9.626   2.717   6.174  0.5908 -0.4417 -0.6473
  475MOL0     H65503   9.766   2.726   6.285 -1.6899 -0.3105  1.9970
  475MOL0     H65504   9.894   2.568   6.157 -0.9779 -1.0073  0.4521
  475MOL0     H65505   9.762   2.513   6.055 -0.6536  0.7626 -1.1840
  475MOL0     H65506   9.873   2.659   5.921  0.1463 -3.5023  1.5541
  475MOL0     H65507   9.714   2.715   5.956  0.4005 -2.6292  1.2709
  475MOL0     H65508   9.972   3.055   6.019 -1.0845  0.0945 -1.5793
  475MOL0     H65509  10.299   3.191   5.979  1.7397 -0.6772 -4.3446
  475MOL0     H65510  10.123   3.211   5.965  0.0236 -0.4792  0.8425
  475MOL0     H65511  10.222   3.143   5.832  1.0103 -0.0019 -0.0369
  475MOL0     H65512  10.681   2.981   5.833  0.4646 -0.1093 -0.2296
  475MOL0     H65513  10.920   3.031   5.897 -0.2430  1.8757 -0.2657
  475MOL0     H65514  11.097   3.012   5.983 -1.0608 -1.1314  1.1999
  475MOL0     H65515  11.119   3.185   6.024  1.0185  0.6925  1.8919
  475MOL0     H65516  11.203   3.026   6.247 -2.1267 -0.5356 -0.3082
  475MOL0     H65517  11.253   2.950   6.084  0.1341  1.0897 -1.7070
  475MOL0     H65518  11.408   3.130   6.221 -0.2542 -2.7053 -0.0942
  475MOL0     H65519  11.297   3.237   6.147 -4.0432 -1.8328 -0.6174
  475MOL0     H65520  11.355   3.129   5.917 -0.0646 -0.3535 -0.8160
  475MOL0     H65521  11.491   3.046   5.986  1.1150  0.6305 -1.0814
  475MOL0     H65522  11.511   3.293   5.878  0.4697  3.6613  0.5173
  475MOL0     H65523  11.456   3.355   6.031 -0.4171  1.4318 -1.5646
  475MOL0     H65524  11.692   3.159   6.004 -0.3243 -0.4702  0.3055
  475MOL0     H65525  11.636   3.230   6.153  2.4233  2.4754  0.0079
  475MOL0     H65526  11.708   3.432   6.117 -0.8763 -0.1936 -0.0281
  475MOL0     H65527  11.714   3.428   5.940  1.0789  1.1889  0.1156
  475MOL0     H65528  11.937   3.430   5.991  1.0440  0.2301  0.7116
  475MOL0     H65529  11.892   3.269   5.935 -2.2431 -1.6183  0.7934
  475MOL0     H65530  10.785   3.123   6.291  1.2990 -2.8404  0.0597
  475MOL0     H65531  10.552   3.084   6.222 -0.9180  4.0823 -1.0762
  475MOL0     H65532  10.287   2.684   5.993  3.4465  2.3356  3.6751
  475MOL0     H65533  10.077   2.636   6.016  0.7105  0.0731 -0.9052
  475MOL0     H65534   8.269   2.660   6.514 -0.2835  0.4349 -0.7049
  475MOL0     H65535   8.101   2.693   6.353 -1.9958 -0.8241 -0.0160
  475MOL0     H65536   7.654   2.538   6.245 -1.2369  2.7429  0.3917
  475MOL0     H65537   7.482   2.621   6.102  0.6005 -0.1246  0.2764
  475MOL0     H65538   7.301   2.750   5.802 -0.6502 -2.1701  0.0267
  475MOL0     H65539   7.322   2.694   5.958  0.1074  0.1234  0.7081
  475MOL0     H65540   7.446   2.951   5.854  2.5570 -2.3366  0.9400
  475MOL0     H65541   7.432   2.901   6.021  0.7427 -0.9779  0.1306
  475MOL0     H65542   7.226   3.040   5.863  0.3358 -0.1603  0.0809
  475MOL0     H65543   7.165   2.883   5.910  1.6093 -1.1384  0.2077
  475MOL0     H65544   7.097   3.071   6.068  0.2381 -0.8248 -1.2142
  475MOL0     H65545   7.263   3.089   6.117 -2.0123  1.0761  2.6995
  475MOL0     H65546   7.060   2.760   6.311 -0.2782  0.6929  1.3555
  475MOL0     H65547   7.725   2.626   5.761 -1.2562  3.2085 -0.1953
  475MOL0     H65548   7.943   2.557   5.759 -3.8502 -1.0835  1.1559
  475MOL0     H65549   8.041   2.588   5.897 -0.4351  1.2657  0.1853
  475MOL0     H65550   7.965   2.428   5.876 -2.2256 -0.4131  0.8122
  476MOL0     O65551   7.942   6.886   9.393 -0.1886  0.3684 -0.3524
  476MOL0     C65552   7.867   6.863   9.306 -0.5736  0.2073  0.2898
  476MOL0     O65553   7.904   6.803   9.192  0.0067  0.6573 -0.3642
  476MOL0     C65554   8.001   6.715   9.195  0.1231  0.2239  0.7991
  476MOL0     C65555   8.133   6.746   9.168  0.4424 -0.2997 -0.7039
  476MOL0     C65556   8.235   6.649   9.158  0.2570  0.8801 -0.0428
  476MOL0     C65557   8.205   6.512   9.171  0.3275  0.5585 -0.9896
  476MOL0     O65558   8.292   6.407   9.156 -0.1382 -0.0522  0.4418
  476MOL0     C65559   8.420   6.437   9.102  0.0292  0.3889  0.4165
  476MOL0     C65560   8.499   6.317   9.071 -0.4681 -0.3651  0.4459
  476MOL0     C65561   8.613   6.356   8.964  0.1027  0.6039 -0.6741
  476MOL0     C65562   8.727   6.244   8.957 -0.6496 -0.2417  0.5254
  476MOL0     C65563   8.834   6.295   8.856  0.8956  0.3821 -0.2453
  476MOL0     C65564   8.955   6.199   8.851  0.0976  0.0148  0.2078
  476MOL0     C65565   9.039   6.191   8.980 -0.4021  0.4476 -0.0931
  476MOL0     C65566   9.093   6.323   9.030  0.5646  0.6852 -0.3241
  476MOL0     N65567   9.198   6.302   9.123 -0.0817 -0.3190  0.1834
  476MOL0     C65568   9.325   6.248   9.101  0.1116  1.1243  0.7095
  476MOL0     C65569   9.387   6.247   9.215  0.5031  0.2374 -0.9731
  476MOL0     C65570   9.525   6.201   9.255  0.0157 -0.8330 -0.1561
  476MOL0     C65571   9.522   6.130   9.396  0.4291 -0.7424 -0.0261
  476MOL0     C65572   9.630   6.024   9.402 -0.3385  0.2269  0.0735
  476MOL0     C65573   9.627   5.978   9.553 -0.2056 -0.6191  0.1414
  476MOL0     O65574   9.717   5.868   9.569 -0.0114 -0.0112 -0.9065
  476MOL0     C65575   9.747   5.820   9.690  0.6896  0.1583 -0.5224
  476MOL0     C65576   9.680   5.842   9.815  0.8072  0.2517  0.8058
  476MOL0     C65577   9.724   5.785   9.937  0.0926  0.3291  0.1173
  476MOL0     C65578   9.646   5.804  10.066 -1.3495  0.4609  0.2249
  476MOL0     C65579   9.842   5.708   9.933  0.7941  0.0259  0.1475
  476MOL0     C65580   9.901   5.643  10.061  0.0479 -0.3325 -0.1009
  476MOL0     O65581   9.824   5.616  10.171  0.3912  0.0632  0.0467
  476MOL0     C65582   9.859   5.525  10.264  0.3720  0.6117 -0.0821
  476MOL0     C65583   9.970   5.531  10.344  0.3840  0.4702 -0.0961
  476MOL0     C65584  10.000   5.439  10.440 -0.0277  0.5890 -0.2657
  476MOL0     C65585   9.915   5.331  10.456 -0.2361  0.8659 -0.0516
  476MOL0     O65586   9.950   5.251  10.565  0.1317 -0.0060  0.0706
  476MOL0     C65587   9.882   5.117  10.562 -0.7928 -0.3457  0.8391
  476MOL0     C65588   9.908   5.030  10.684 -0.6218  0.3854 -0.7458
  476MOL0     C65589  10.051   4.979  10.697  0.5864  0.6309 -0.5651
  476MOL0     C65590  10.128   5.066  10.804  0.0634 -0.1630  0.3375
  476MOL0     C65591  10.269   5.019  10.812 -0.2564 -0.1798 -0.4007
  476MOL0     C65592  10.356   5.077  10.921 -0.8273 -0.1614 -0.3510
  476MOL0     C65593  10.505   5.033  10.900  0.5002 -0.1469 -0.5005
  476MOL0     C65594  10.592   5.131  10.826 -0.1438 -0.4520 -0.5234
  476MOL0    Cl65595  10.762   5.075  10.808  0.3260  0.2379  0.0896
  476MOL0     C65596   9.803   5.314  10.371  0.8517 -0.1156  0.6352
  476MOL0     C65597   9.779   5.418  10.281  0.3276 -0.1763  0.2726
  476MOL0     O65598  10.019   5.615  10.053 -0.0314 -0.5179 -0.1763
  476MOL0     C65599   9.902   5.684   9.802 -0.6810  0.2971  0.5780
  476MOL0     C65600   9.852   5.730   9.682 -0.7397 -0.2685 -0.4837
  476MOL0     N65601   9.309   6.310   9.311  0.1585 -0.1826  0.6160
  476MOL0     N65602   9.199   6.339   9.251  0.2433 -0.5130  0.3744
  476MOL0     C65603   8.074   6.477   9.205 -0.8932 -0.2237 -0.0946
  476MOL0     C65604   7.974   6.577   9.214  0.1915 -0.5371 -0.5455
  476MOL0     C65605   7.732   6.932   9.312  0.2846  0.1355 -0.7107
  476MOL0     C65606   7.671   6.975   9.193  0.5828  0.6248 -0.1959
  476MOL0     C65607   7.539   7.025   9.193  0.3006  0.9617  0.1301
  476MOL0     C65608   7.465   7.037   9.309  0.0715 -0.5059  0.0263
  476MOL0     O65609   7.335   7.090   9.309  0.2173  0.1517 -0.1482
  476MOL0     C65610   7.235   7.039   9.395 -0.5994  0.3126  0.5289
  476MOL0     C65611   7.217   7.147   9.508  0.3847  0.1097  0.3698
  476MOL0     C65612   7.189   7.283   9.457 -0.9222 -0.5277 -0.6446
  476MOL0     C65613   7.054   7.305   9.398 -0.0734 -0.1409  1.0297
  476MOL0     C65614   6.951   7.308   9.499 -0.2624 -0.0159  0.6983
  476MOL0     C65615   6.866   7.333   9.580 -0.6168  0.3509 -0.1061
  476MOL0     C65616   7.526   6.994   9.428  0.2796  0.0500  0.1404
  476MOL0     C65617   7.658   6.944   9.430  0.0254  0.5159 -0.2032
  476MOL0     C65618   7.704   6.902   9.569  0.2701  0.1736  0.5586
  476MOL0     H65619   8.155   6.851   9.149 -0.5119  0.2271  0.9185
  476MOL0     H65620   8.330   6.684   9.119 -0.4058  1.4795 -1.1525
  476MOL0     H65621   8.470   6.496   9.179  2.4703 -1.5605  0.4423
  476MOL0     H65622   8.413   6.495   9.010  0.6191 -0.2313 -0.0331
  476MOL0     H65623   8.535   6.274   9.165 -0.9440  0.9453  1.2480
  476MOL0     H65624   8.439   6.237   9.027 -2.7507  1.3661  0.2456
  476MOL0     H65625   8.563   6.357   8.867 -2.0876  0.2397  0.3880
  476MOL0     H65626   8.667   6.448   8.988  0.6973 -0.2750  1.6444
  476MOL0     H65627   8.769   6.229   9.057 -0.2999  2.2922  0.8144
  476MOL0     H65628   8.693   6.143   8.930 -2.1265 -0.3899  2.6577
  476MOL0     H65629   8.866   6.397   8.880  3.2020 -0.6464  1.4035
  476MOL0     H65630   8.784   6.297   8.758 -1.7631 -0.9956  0.9809
  476MOL0     H65631   8.923   6.096   8.833 -0.2288  0.1638 -0.0754
  476MOL0     H65632   9.022   6.235   8.772 -0.6669 -1.9091 -1.4046
  476MOL0     H65633   9.132   6.138   8.960  0.2367 -0.4598  4.2986
  476MOL0     H65634   8.986   6.148   9.066  0.8491 -0.2167  0.3625
  476MOL0     H65635   9.132   6.381   8.947 -0.9079 -0.0609 -1.5909
  476MOL0     H65636   9.013   6.378   9.083  0.8902 -0.3869  1.3628
  476MOL0     H65637   9.361   6.204   9.008  0.2379  1.0226  0.8065
  476MOL0     H65638   9.586   6.291   9.254  1.2518 -1.6332 -2.1935
  476MOL0     H65639   9.560   6.129   9.180 -0.4128  0.2279 -1.4110
  476MOL0     H65640   9.534   6.217   9.461 -0.4719 -0.9981  0.5009
  476MOL0     H65641   9.426   6.083   9.418  0.7561 -1.2547  0.3210
  476MOL0     H65642   9.619   5.947   9.326  0.5562 -0.5500  0.6925
  476MOL0     H65643   9.725   6.068   9.370  1.2271 -2.5477  0.5615
  476MOL0     H65644   9.658   6.065   9.613  0.1523  0.2814 -1.3056
  476MOL0     H65645   9.530   5.940   9.587  0.1373  0.1392  2.1024
  476MOL0     H65646   9.585   5.894   9.821 -0.2912 -1.7118  0.9502
  476MOL0     H65647   9.716   5.838  10.142 -0.3047 -2.1457  0.5149
  476MOL0     H65648   9.589   5.718  10.103 -5.0234  3.2409  1.6684
  476MOL0     H65649   9.569   5.881  10.056 -1.3510  0.4808  0.3992
  476MOL0     H65650  10.033   5.619  10.332  3.1214 -1.4431 -0.8123
  476MOL0     H65651  10.079   5.463  10.511  0.3669 -0.7265 -0.2321
  476MOL0     H65652   9.777   5.147  10.569 -0.2681  1.4718  1.5155
  476MOL0     H65653   9.897   5.067  10.466 -1.9565  0.9433 -0.0523
  476MOL0     H65654   9.892   5.088  10.775 -0.8991  1.5495 -1.5088
  476MOL0     H65655   9.848   4.939  10.679 -0.1455  0.0109  0.2857
  476MOL0     H65656  10.101   4.988  10.600  0.4461  1.6889 -0.5529
  476MOL0     H65657  10.049   4.874  10.726  0.4565  0.1400 -2.2533
  476MOL0     H65658  10.089   5.066  10.906  1.7424  0.9838  1.0316
  476MOL0     H65659  10.134   5.169  10.769  2.6420 -1.1438 -2.6316
  476MOL0     H65660  10.269   4.912  10.837  2.4543 -0.3786 -0.9007
  476MOL0     H65661  10.317   5.036  10.715  0.4372 -0.0901 -0.0502
  476MOL0     H65662  10.341   5.045  11.025 -1.8441  0.5732 -0.2638
  476MOL0     H65663  10.348   5.186  10.926 -0.9156 -0.2178  2.2715
  476MOL0     H65664  10.512   4.934  10.853  1.8966 -0.2173 -0.1856
  476MOL0     H65665  10.545   5.022  11.001 -2.2742  1.0685  0.8341
  476MOL0     H65666  10.587   5.229  10.872 -0.5649 -0.0817 -1.3277
  476MOL0     H65667  10.556   5.147  10.724 -2.5809 -0.9029  0.1887
  476MOL0     H65668   9.733   5.233  10.388  1.4957 -1.5299 -2.5231
  476MOL0     H65669   9.689   5.423  10.220  1.4420 -0.6494 -1.4823
  476MOL0     H65670   9.987   5.619   9.786  0.4491  1.6590  0.7851
  476MOL0     H65671   9.887   5.699   9.585 -2.7892 -0.7171 -1.1343
  476MOL0     H65672   8.043   6.373   9.208  2.5356 -1.5825 -3.4633
  476MOL0     H65673   7.869   6.557   9.234 -0.5184  2.5688 -0.7446
  476MOL0     H65674   7.736   6.964   9.107  0.4374 -0.5277 -0.1836
  476MOL0     H65675   7.494   7.071   9.106 -2.5913 -1.0923  0.3915
  476MOL0     H65676   7.143   7.031   9.336 -0.9918  0.3186  1.1287
  476MOL0     H65677   7.268   6.943   9.435  1.1218  1.3057  1.6029
  476MOL0     H65678   7.307   7.139   9.570  0.1818 -1.5189  0.5104
  476MOL0     H65679   7.135   7.119   9.576  0.9544 -0.8618  0.6796
  476MOL0     H65680   7.193   7.359   9.536  1.6764 -0.1942 -1.0181
  476MOL0     H65681   7.265   7.315   9.385 -0.5935 -0.4256 -0.2552
  476MOL0     H65682   7.029   7.226   9.327 -0.8438 -0.5996  1.7906
  476MOL0     H65683   7.057   7.407   9.358 -0.8183 -0.1291  1.0022
  476MOL0     H65684   6.794   7.353   9.657 -2.3474 -1.9071 -1.0271
  476MOL0     H65685   7.465   7.008   9.516 -2.3167  0.4074 -1.5932
  476MOL0     H65686   7.617   6.859   9.619 -0.1035  2.0227  1.5929
  476MOL0     H65687   7.786   6.830   9.578 -0.5967 -0.8337  0.6334
  476MOL0     H65688   7.714   6.984   9.640 -3.3257 -0.0216  1.4614
  477MOL0     O65689  10.883   8.400   2.675  0.4959 -0.2205 -0.6760
  477MOL0     C65690  10.918   8.405   2.555 -0.2598 -0.4694 -0.7921
  477MOL0     O65691  11.032   8.458   2.507 -0.4107 -0.4029 -0.5817
  477MOL0     C65692  11.138   8.486   2.592  0.0288  0.2470 -0.6275
  477MOL0     C65693  11.207   8.604   2.558 -0.2562 -0.3233 -0.2550
  477MOL0     C65694  11.297   8.662   2.648  0.7404 -1.2108  0.3559
  477MOL0     C65695  11.314   8.613   2.780  1.0489  0.3434  0.0503
  477MOL0     O65696  11.383   8.674   2.878 -0.5186 -0.1962 -0.4457
  477MOL0     C65697  11.514   8.729   2.834  0.4627  0.2231 -0.1688
  477MOL0     C65698  11.591   8.760   2.957  0.2935 -0.6330 -0.1863
  477MOL0     C65699  11.732   8.812   2.917 -0.1805  0.1601  0.1480
  477MOL0     C65700  11.830   8.745   3.013 -0.1244 -0.2844 -0.0800
  477MOL0     C65701  11.960   8.820   3.010 -0.5292  0.4565  0.4524
  477MOL0     C65702  12.065   8.759   3.098 -0.5738 -0.3052  0.3627
  477MOL0     C65703  12.185   8.857   3.105 -0.0554 -0.0079 -0.4776
  477MOL0     C65704  12.311   8.804   3.174 -0.9286 -0.1313 -0.3346
  477MOL0     N65705  12.405   8.919   3.188  0.5300  0.3148  0.4497
  477MOL0     C65706  12.516   8.942   3.114 -0.8009 -0.0176  0.2863
  477MOL0     C65707  12.566   9.060   3.153  0.4510 -0.0839  0.2160
  477MOL0     C65708  12.681   9.137   3.093 -0.1570 -0.3605  0.1073
  477MOL0     C65709  12.806   9.118   3.169  1.2003  0.2257  0.9925
  477MOL0     C65710  12.927   9.166   3.098 -0.0122 -1.4257 -0.3165
  477MOL0     C65711  13.050   9.138   3.190  0.2781  0.0168  0.2413
  477MOL0     O65712  13.045   9.201   3.325 -0.4989  0.4050 -0.1434
  477MOL0     C65713  13.164   9.191   3.396  0.4559  0.0925  0.9191
  477MOL0     C65714  13.182   9.269   3.510 -0.6102  0.0652 -0.0290
  477MOL0     C65715  13.301   9.271   3.578  0.5197  0.5670 -0.6748
  477MOL0     C65716  13.318   9.383   3.675  0.3268 -0.0451 -0.5424
  477MOL0     C65717  13.412   9.183   3.546  0.0918  0.2498 -0.7894
  477MOL0     C65718  13.545   9.184   3.606 -0.2048 -0.4215  0.1568
  477MOL0     O65719  13.643   9.116   3.544  0.4698  0.5068  0.5301
  477MOL0     C65720  13.772   9.146   3.578 -0.1109  0.1123 -1.2195
  477MOL0     C65721  13.857   9.040   3.601 -0.6045 -0.1053 -0.5604
  477MOL0     C65722  13.996   9.050   3.610 -0.3501  0.4544 -0.3738
  477MOL0     C65723  14.060   9.178   3.598  0.9406  0.0478  0.1875
  477MOL0     O65724  14.190   9.206   3.599  0.2418  0.3996 -0.1772
  477MOL0     C65725  14.275   9.098   3.566  0.2908 -0.3550  0.1126
  477MOL0     C65726  14.423   9.151   3.551 -0.0351  0.4789  0.9205
  477MOL0     C65727  14.510   9.028   3.513  0.4186  0.2197 -0.4573
  477MOL0     C65728  14.653   9.068   3.474  0.1982  0.1407 -0.0649
  477MOL0     C65729  14.743   8.935   3.489  0.4317 -0.0540  0.2219
  477MOL0     C65730  14.870   8.958   3.411 -0.0854 -0.2687  0.2953
  477MOL0     C65731  14.931   8.818   3.365  0.6591 -0.5517  1.0606
  477MOL0     C65732  15.071   8.820   3.319 -0.7512 -0.2294 -1.1371
  477MOL0    Cl65733  15.135   8.652   3.311 -0.0619  0.3241 -0.2267
  477MOL0     C65734  13.980   9.292   3.574 -0.3445  0.4356 -0.2396
  477MOL0     C65735  13.837   9.272   3.564 -0.0145  0.0096 -0.5409
  477MOL0     O65736  13.556   9.243   3.707  1.0453  0.3567  0.0072
  477MOL0     C65737  13.379   9.092   3.445 -0.0024  0.0657  0.4113
  477MOL0     C65738  13.264   9.101   3.368  0.3275 -0.3715  0.2980
  477MOL0     N65739  12.472   9.112   3.239 -0.3109  0.8987  0.5923
  477MOL0     N65740  12.374   9.028   3.264  0.1821 -0.3436  0.6173
  477MOL0     C65741  11.241   8.498   2.813 -0.1026 -0.6754 -0.0928
  477MOL0     C65742  11.168   8.427   2.723 -0.7668 -0.5029 -0.4242
  477MOL0     C65743  10.828   8.352   2.455 -0.4042 -0.2379  0.8554
  477MOL0     C65744  10.696   8.397   2.454  0.9222 -0.2808  0.5948
  477MOL0     C65745  10.607   8.345   2.356  0.0044  0.4321 -0.6157
  477MOL0     C65746  10.649   8.248   2.263  0.3281 -0.8801 -0.4096
  477MOL0     O65747  10.541   8.203   2.190 -0.9450 -0.4080 -0.0921
  477MOL0     C65748  10.554   8.124   2.069 -0.1079 -0.2901  0.0918
  477MOL0     C65749  10.413   8.098   2.021 -0.7362 -1.0913 -0.0747
  477MOL0     C65750  10.406   7.982   1.921 -0.2001 -0.0480  0.9285
  477MOL0     C65751  10.273   7.896   1.928 -0.3334 -0.5989  0.8499
  477MOL0     C65752  10.151   7.974   1.897  0.4928 -0.2435  0.3695
  477MOL0     C65753  10.042   8.023   1.874 -0.1407  0.3819 -0.2011
  477MOL0     C65754  10.774   8.200   2.269 -0.0169  0.7475  0.0641
  477MOL0     C65755  10.863   8.250   2.368  0.4470 -0.5379  0.0870
  477MOL0     C65756  10.997   8.186   2.368  0.0134  0.2904 -0.5866
  477MOL0     H65757  11.183   8.650   2.463  0.1032  2.8755  1.0626
  477MOL0     H65758  11.344   8.754   2.614 -1.9276 -0.7170 -2.4146
  477MOL0     H65759  11.512   8.821   2.775 -1.5802 -1.4552 -3.0284
  477MOL0     H65760  11.548   8.641   2.778 -1.4981 -1.1815  0.7215
  477MOL0     H65761  11.529   8.835   3.006 -0.3077 -0.2653 -1.4766
  477MOL0     H65762  11.596   8.671   3.021 -3.0571 -1.0269 -0.3110
  477MOL0     H65763  11.745   8.773   2.815 -2.4613 -1.9416  0.5490
  477MOL0     H65764  11.726   8.920   2.908 -3.2473 -0.1359 -4.1762
  477MOL0     H65765  11.789   8.744   3.114 -0.9350  0.7409 -0.3875
  477MOL0     H65766  11.849   8.643   2.978  1.2607 -0.6378  1.5747
  477MOL0     H65767  11.941   8.923   3.042 -1.9786  0.1970  0.5014
  477MOL0     H65768  12.001   8.816   2.909  1.1746  3.1036  0.9467
  477MOL0     H65769  12.019   8.745   3.196 -0.9354 -1.9136  0.0017
  477MOL0     H65770  12.096   8.659   3.065 -0.4149 -1.4334  3.5705
  477MOL0     H65771  12.146   8.944   3.159 -0.3438 -1.1666  1.2422
  477MOL0     H65772  12.216   8.891   3.005  2.0791 -1.0836 -0.2472
  477MOL0     H65773  12.280   8.762   3.270 -0.3319 -1.5732 -0.7425
  477MOL0     H65774  12.359   8.729   3.110 -1.6406 -1.4506  0.6327
  477MOL0     H65775  12.558   8.868   3.047 -1.0584  1.1441 -1.2005
  477MOL0     H65776  12.664   9.245   3.081  2.2611  0.2773  1.6695
  477MOL0     H65777  12.704   9.098   2.994 -0.4567 -0.0633 -0.0827
  477MOL0     H65778  12.797   9.168   3.265  1.2618 -1.1622  1.7483
  477MOL0     H65779  12.819   9.012   3.191  1.1856  0.1932  0.8437
  477MOL0     H65780  12.955   9.130   2.999  1.1536  1.9190 -1.3733
  477MOL0     H65781  12.910   9.274   3.088  3.2276 -0.7992 -0.1455
  477MOL0     H65782  13.073   9.032   3.198  3.8835  0.6980  0.6196
  477MOL0     H65783  13.144   9.166   3.142  0.4604  0.9583  1.1022
  477MOL0     H65784  13.103   9.340   3.532 -1.0605 -0.3119 -0.4325
  477MOL0     H65785  13.326   9.340   3.776  1.6454 -1.9018 -1.3872
  477MOL0     H65786  13.232   9.450   3.677  0.0219 -0.4287  1.6652
  477MOL0     H65787  13.407   9.445   3.659 -0.5835  1.4532 -0.0296
  477MOL0     H65788  13.818   8.938   3.602  1.7128 -1.0669 -0.1876
  477MOL0     H65789  14.053   8.961   3.638 -0.1707  1.0872  1.4568
  477MOL0     H65790  14.264   9.035   3.655 -0.3983  2.5913  2.2722
  477MOL0     H65791  14.248   9.039   3.478 -0.7062 -1.3718  1.0652
  477MOL0     H65792  14.434   9.240   3.488 -3.2608 -0.6313 -1.5028
  477MOL0     H65793  14.449   9.189   3.650 -1.6743  1.4375  1.0162
  477MOL0     H65794  14.464   8.967   3.436 -3.0917  0.2785  1.4004
  477MOL0     H65795  14.515   8.962   3.600 -1.7022  0.6084  0.0134
  477MOL0     H65796  14.699   9.141   3.540  0.4443  0.2604 -0.3685
  477MOL0     H65797  14.661   9.106   3.372 -1.3763  0.1216 -0.2206
  477MOL0     H65798  14.767   8.918   3.594  2.9367 -0.2910 -0.3319
  477MOL0     H65799  14.688   8.852   3.445 -1.9992  3.0971 -3.3691
  477MOL0     H65800  14.950   9.012   3.463  3.0503 -5.3767  1.5441
  477MOL0     H65801  14.848   9.012   3.319 -0.1969 -1.8509 -0.6388
  477MOL0     H65802  14.872   8.778   3.281  0.0591 -0.9919  1.6771
  477MOL0     H65803  14.925   8.754   3.453 -0.0662  0.8304  2.0539
  477MOL0     H65804  15.131   8.887   3.381 -2.8251  0.6559  0.0367
  477MOL0     H65805  15.070   8.869   3.221 -1.1587 -0.3321 -1.1882
  477MOL0     H65806  14.024   9.391   3.567 -1.9290  1.2196  0.4530
  477MOL0     H65807  13.773   9.358   3.545  0.4351  0.3242 -0.6473
  477MOL0     H65808  13.453   9.021   3.409 -1.1242 -0.5378 -0.7876
  477MOL0     H65809  13.259   9.031   3.285 -0.1057 -2.3720  1.9071
  477MOL0     H65810  11.247   8.457   2.913 -1.6142  0.4282  0.4880
  477MOL0     H65811  11.119   8.333   2.744 -0.8662 -0.7615 -1.7121
  477MOL0     H65812  10.655   8.471   2.522 -2.3536 -2.3840  1.1603
  477MOL0     H65813  10.505   8.379   2.342  0.1526  1.6336  0.9007
  477MOL0     H65814  10.611   8.176   1.991  1.1480 -2.3839 -0.4931
  477MOL0     H65815  10.608   8.032   2.092 -1.4773 -0.9567  0.7825
  477MOL0     H65816  10.370   8.194   1.990 -0.9364 -0.9440  0.6418
  477MOL0     H65817  10.356   8.071   2.111 -0.7708  2.6311  1.1942
  477MOL0     H65818  10.422   8.009   1.816 -0.6291 -2.8749  0.0523
  477MOL0     H65819  10.487   7.912   1.945 -2.1142 -2.5409  0.5186
  477MOL0     H65820  10.258   7.853   2.027 -0.0431 -0.0314  1.1501
  477MOL0     H65821  10.279   7.818   1.851 -0.0461 -0.6651  0.9372
  477MOL0     H65822   9.947   8.062   1.845 -0.8189 -1.6211 -0.8053
  477MOL0     H65823  10.797   8.116   2.204 -2.0252 -0.4365  0.7762
  477MOL0     H65824  11.084   8.251   2.379  2.5262 -2.5453 -2.0972
  477MOL0     H65825  10.998   8.114   2.450 -2.1607 -0.4567 -1.1635
  477MOL0     H65826  11.016   8.129   2.277 -0.9501 -1.8032  0.4687
  478MOL0     O65827   1.171   7.136   4.292  0.1542 -0.1902 -1.3410
  478MOL0     C65828   1.140   7.073   4.395  0.9212  0.1013  0.1326
  478MOL0     O65829   1.231   7.026   4.488  0.2328 -0.2217  0.1400
  478MOL0     C65830   1.360   7.017   4.444 -0.7107 -0.1441  0.2796
  478MOL0     C65831   1.456   7.114   4.461 -0.8142 -0.4890 -0.1143
  478MOL0     C65832   1.587   7.084   4.435  0.0314  0.3332  0.5186
  478MOL0     C65833   1.622   6.960   4.391  0.0799  0.2045  0.1641
  478MOL0     O65834   1.746   6.926   4.353 -0.7005 -0.0341  0.3031
  478MOL0     C65835   1.816   7.020   4.252 -0.2941  0.2876 -0.6031
  478MOL0     C65836   1.964   7.009   4.271  0.3599  0.0409  1.1116
  478MOL0     C65837   2.005   7.097   4.385 -1.0965 -0.6334  0.0446
  478MOL0     C65838   2.149   7.061   4.431 -1.2728 -0.7789  0.3995
  478MOL0     C65839   2.209   7.135   4.549  0.1224 -0.0971 -0.5123
  478MOL0     C65840   2.124   7.113   4.683  0.4117 -0.7124  0.1349
  478MOL0     C65841   2.144   6.971   4.743 -0.6138 -1.2120 -0.2418
  478MOL0     C65842   2.069   6.944   4.866  0.1530  0.4498 -0.3187
  478MOL0     N65843   1.929   6.973   4.860 -0.1135  0.0175  0.5824
  478MOL0     C65844   1.840   6.912   4.784 -0.3395 -0.2926  0.1936
  478MOL0     C65845   1.720   6.954   4.826  0.0392 -0.2055  0.5678
  478MOL0     C65846   1.590   6.928   4.759  0.0200  0.2367  1.0422
  478MOL0     C65847   1.510   6.850   4.866  0.0160 -0.4755 -0.1976
  478MOL0     C65848   1.359   6.835   4.826 -1.2595 -0.7536  0.7889
  478MOL0     C65849   1.299   6.739   4.913 -0.2609  0.4896 -0.0074
  478MOL0     O65850   1.317   6.771   5.054  0.0589 -0.0415 -0.3581
  478MOL0     C65851   1.250   6.686   5.139  0.2878 -0.4370  0.5146
  478MOL0     C65852   1.304   6.685   5.269 -0.2723 -0.0532  0.1447
  478MOL0     C65853   1.248   6.623   5.379 -0.8130  0.0581  0.6240
  478MOL0     C65854   1.308   6.655   5.512  0.2005  0.0586  0.1811
  478MOL0     C65855   1.138   6.535   5.348  0.4586 -0.4863 -0.4190
  478MOL0     C65856   1.068   6.457   5.452 -0.7168 -0.2533 -0.6556
  478MOL0     O65857   0.953   6.395   5.412 -0.8093  0.5345 -0.3655
  478MOL0     C65858   0.876   6.347   5.513  1.6089 -0.8827 -0.6044
  478MOL0     C65859   0.835   6.214   5.514  0.1142 -0.2905 -0.2979
  478MOL0     C65860   0.717   6.164   5.563 -0.6739 -0.1963 -0.7654
  478MOL0     C65861   0.628   6.255   5.632 -1.1884  0.4417 -0.0579
  478MOL0     O65862   0.515   6.223   5.699 -0.6782  0.5114 -0.3060
  478MOL0     C65863   0.473   6.084   5.699  0.5474  0.5026  0.4381
  478MOL0     C65864   0.348   6.057   5.793  0.2235  0.7031  0.1957
  478MOL0     C65865   0.396   6.015   5.932 -0.0546 -0.9032 -0.3628
  478MOL0     C65866   0.272   6.001   6.022 -0.5395  0.0044 -0.5981
  478MOL0     C65867   0.197   6.136   6.048  0.0750  1.0109 -0.2527
  478MOL0     C65868   0.089   6.116   6.166 -0.1409 -0.6316 -0.2943
  478MOL0     C65869   0.044   6.257   6.201  0.7381 -0.7769 -0.0203
  478MOL0     C65870  -0.092   6.254   6.275 -1.1530 -0.3139  0.8775
  478MOL0    Cl65871  -0.119   6.413   6.361  0.1468  0.1613  0.0794
  478MOL0     C65872   0.666   6.389   5.628  0.4761  0.4437  0.0372
  478MOL0     C65873   0.782   6.437   5.567 -0.1009 -0.6150  0.1297
  478MOL0     O65874   1.112   6.452   5.567 -0.4442  0.3877  0.2385
  478MOL0     C65875   1.088   6.531   5.219  0.2224 -0.0558  0.0035
  478MOL0     C65876   1.137   6.606   5.117  0.6436 -0.7761  0.0300
  478MOL0     N65877   1.743   7.026   4.946  0.8988 -0.2962 -0.2957
  478MOL0     N65878   1.868   7.040   4.963  0.8846  0.1016  0.5777
  478MOL0     C65879   1.525   6.867   4.368 -0.1799  0.1023  0.1916
  478MOL0     C65880   1.392   6.893   4.394 -0.0674  0.2336  0.3269
  478MOL0     C65881   0.996   7.078   4.432  0.4716  0.6428  0.4796
  478MOL0     C65882   0.958   7.015   4.546  0.5746  0.0696  0.2101
  478MOL0     C65883   0.822   7.009   4.582  0.1844 -0.1818  0.5615
  478MOL0     C65884   0.721   7.063   4.503 -0.2392  0.0344  0.3392
  478MOL0     O65885   0.590   7.056   4.548 -0.3434 -0.1593  0.9892
  478MOL0     C65886   0.502   7.006   4.448  0.2154 -0.2960 -0.4101
  478MOL0     C65887   0.522   6.859   4.424 -0.9976 -0.5615 -0.7105
  478MOL0     C65888   0.483   6.762   4.533  1.0459 -0.3154 -0.5248
  478MOL0     C65889   0.365   6.676   4.497  0.2623 -0.5534 -0.6522
  478MOL0     C65890   0.251   6.752   4.461  0.4445  0.1774  0.4503
  478MOL0     C65891   0.171   6.837   4.435  0.5053 -0.1027 -0.3947
  478MOL0     C65892   0.754   7.133   4.383  0.6449  0.4499 -1.3347
  478MOL0     C65893   0.895   7.138   4.343  0.4940  0.8939 -0.4295
  478MOL0     C65894   0.930   7.211   4.208 -0.3589  0.3223  0.3955
  478MOL0     H65895   1.431   7.216   4.488 -1.1160 -0.0185 -2.0131
  478MOL0     H65896   1.675   7.145   4.454 -0.6115  1.6439 -0.6124
  478MOL0     H65897   1.791   7.120   4.287 -2.2905 -0.9841  1.8458
  478MOL0     H65898   1.771   7.016   4.152 -0.7205  1.4483 -0.4684
  478MOL0     H65899   2.009   6.910   4.285  2.6614  0.7937 -0.4584
  478MOL0     H65900   2.006   7.048   4.178 -1.0521  1.9644  1.2236
  478MOL0     H65901   1.999   7.200   4.349 -4.5661 -2.0006 -4.1316
  478MOL0     H65902   1.942   7.095   4.474  0.4771  1.1706  1.2866
  478MOL0     H65903   2.152   6.954   4.455  0.5292 -0.6245  0.9879
  478MOL0     H65904   2.218   7.089   4.351 -3.2462 -0.6812 -1.3524
  478MOL0     H65905   2.195   7.242   4.531 -0.3284  0.0402  0.5643
  478MOL0     H65906   2.315   7.114   4.564  0.4407  0.8172 -1.4036
  478MOL0     H65907   2.186   7.168   4.754  0.0018 -1.5042  1.1296
  478MOL0     H65908   2.023   7.153   4.682  0.9108  0.6230  0.7594
  478MOL0     H65909   2.250   6.954   4.761 -0.0896  1.1366 -0.7477
  478MOL0     H65910   2.108   6.898   4.670 -1.1955  0.0590 -1.2770
  478MOL0     H65911   2.094   6.843   4.898  1.8370  1.3369  1.3785
  478MOL0     H65912   2.102   7.006   4.950 -0.4549  0.9458 -0.4320
  478MOL0     H65913   1.855   6.853   4.694 -0.9237  0.6124 -0.5208
  478MOL0     H65914   1.604   6.875   4.665  0.5361 -2.0476  2.3267
  478MOL0     H65915   1.532   7.016   4.730 -0.5908 -0.3117  0.5757
  478MOL0     H65916   1.563   6.755   4.879  2.7140  0.5928 -2.3059
  478MOL0     H65917   1.504   6.905   4.961 -0.8565  0.4683 -0.7819
  478MOL0     H65918   1.304   6.929   4.835 -1.5737 -0.8026 -0.4616
  478MOL0     H65919   1.348   6.806   4.722  2.2875 -0.8281  0.3347
  478MOL0     H65920   1.193   6.729   4.889 -0.1610 -1.6650  0.2066
  478MOL0     H65921   1.347   6.644   4.886 -0.7684  0.7421 -1.9659
  478MOL0     H65922   1.393   6.745   5.285 -0.8988  0.4883  1.8432
  478MOL0     H65923   1.336   6.760   5.503 -0.7058  0.3599  0.8628
  478MOL0     H65924   1.394   6.591   5.536  0.2221  1.0934  3.2860
  478MOL0     H65925   1.243   6.638   5.598 -0.9915  0.7408 -0.5739
  478MOL0     H65926   0.897   6.139   5.466  1.3420  0.5730 -0.0805
  478MOL0     H65927   0.710   6.056   5.556  1.8226 -0.5446  1.0084
  478MOL0     H65928   0.439   6.052   5.601 -0.2848  0.9127  0.5810
  478MOL0     H65929   0.560   6.022   5.721  0.3582 -0.2589 -0.8845
  478MOL0     H65930   0.275   6.139   5.799 -0.3907  0.0662  3.2626
  478MOL0     H65931   0.292   5.974   5.749 -0.3480  0.2890  1.6296
  478MOL0     H65932   0.449   6.100   5.976 -1.3464  1.2435 -2.6854
  478MOL0     H65933   0.458   5.925   5.932 -0.7438 -1.4618 -2.7747
  478MOL0     H65934   0.305   5.961   6.118  0.1597  0.7172 -0.5311
  478MOL0     H65935   0.208   5.921   5.985 -1.1936  0.4504 -0.4495
  478MOL0     H65936   0.260   6.223   6.071  0.6343  1.0711 -1.8756
  478MOL0     H65937   0.143   6.157   5.956 -1.4297 -0.3930  0.2731
  478MOL0     H65938   0.137   6.071   6.254  1.9839 -1.2568 -1.6975
  478MOL0     H65939   0.010   6.049   6.133 -1.9759  0.8586  0.8518
  478MOL0     H65940   0.037   6.326   6.116  2.0186 -2.9542 -2.0158
  478MOL0     H65941   0.117   6.306   6.266  0.9531  0.0560 -0.8659
  478MOL0     H65942  -0.090   6.171   6.346 -3.0498 -2.3203 -1.2302
  478MOL0     H65943  -0.171   6.221   6.206 -0.4835  0.5173 -0.3173
  478MOL0     H65944   0.581   6.452   5.654 -1.0386 -1.3450 -0.3381
  478MOL0     H65945   0.808   6.542   5.561  0.9220 -0.9253 -1.3047
  478MOL0     H65946   1.002   6.467   5.197 -1.5741  1.8984  0.9954
  478MOL0     H65947   1.086   6.598   5.022  0.4711 -2.7217  0.2536
  478MOL0     H65948   1.550   6.763   4.349 -3.5530 -0.8909  0.5542
  478MOL0     H65949   1.323   6.809   4.389  0.9788 -0.5853 -1.3803
  478MOL0     H65950   1.034   6.960   4.601  0.9602  0.9533  0.5832
  478MOL0     H65951   0.801   6.958   4.676  0.7589  1.8874  1.8703
  478MOL0     H65952   0.408   7.018   4.502  0.0512 -2.5501 -0.1120
  478MOL0     H65953   0.497   7.071   4.360  1.3223  1.1237  0.5112
  478MOL0     H65954   0.630   6.848   4.406 -0.5128  0.5710  1.2748
  478MOL0     H65955   0.479   6.825   4.329 -0.4266 -2.5866 -0.2811
  478MOL0     H65956   0.565   6.694   4.556  1.6037  1.2664  2.7249
  478MOL0     H65957   0.476   6.819   4.626  2.7999 -0.3017 -0.3716
  478MOL0     H65958   0.337   6.622   4.588  0.8793 -1.2755 -0.8767
  478MOL0     H65959   0.389   6.607   4.414  1.5862 -0.9786  0.0441
  478MOL0     H65960   0.100   6.914   4.414 -0.1006  0.0429  1.9227
  478MOL0     H65961   0.675   7.178   4.324 -0.5389 -0.7430 -0.6931
  478MOL0     H65962   0.969   7.140   4.135  0.6058  0.7748  0.4578
  478MOL0     H65963   0.839   7.256   4.166  0.8097 -0.5717 -3.4951
  478MOL0     H65964   1.005   7.291   4.215 -0.0474  0.1758 -0.9504
  479MOL0     O65965  10.842   5.328   4.436  0.4741  0.6600  0.3488
  479MOL0     C65966  10.849   5.425   4.507  0.3438  0.7215  0.7702
  479MOL0     O65967  10.962   5.500   4.511 -0.5647  0.3893 -0.1508
  479MOL0     C65968  11.086   5.450   4.484  0.7584  0.0275 -0.2400
  479MOL0     C65969  11.122   5.328   4.536 -1.1171 -0.0708  0.6085
  479MOL0     C65970  11.253   5.282   4.513  0.5104  0.2778 -0.7156
  479MOL0     C65971  11.338   5.347   4.434 -1.3734  0.4430  0.9396
  479MOL0     O65972  11.466   5.298   4.429 -0.3498 -0.6298  0.2529
  479MOL0     C65973  11.555   5.318   4.320 -0.6471  0.2937  0.1004
  479MOL0     C65974  11.664   5.215   4.319  0.0660 -0.4816 -0.7147
  479MOL0     C65975  11.751   5.247   4.201 -0.3432  0.2099 -0.2227
  479MOL0     C65976  11.886   5.177   4.218 -0.6159  0.8681 -0.6233
  479MOL0     C65977  11.999   5.233   4.133 -0.1944 -0.1207  0.4903
  479MOL0     C65978  12.134   5.188   4.173  0.0347 -0.2049  0.1456
  479MOL0     C65979  12.215   5.147   4.051  0.6099  0.2773 -0.4699
  479MOL0     C65980  12.346   5.069   4.085 -0.1683  0.1113 -0.5231
  479MOL0     N65981  12.455   5.174   4.086  0.1176  0.6957 -0.4057
  479MOL0     C65982  12.472   5.284   4.172 -0.1770  0.0059 -0.4767
  479MOL0     C65983  12.592   5.340   4.143 -0.2928  0.8895 -0.4708
  479MOL0     C65984  12.632   5.470   4.192  0.4367  0.2194 -0.0664
  479MOL0     C65985  12.782   5.481   4.177 -0.4291 -0.6309 -0.3218
  479MOL0     C65986  12.848   5.617   4.231  0.4924  1.1478 -0.2934
  479MOL0     C65987  12.842   5.734   4.139  0.5587 -0.8544 -0.5845
  479MOL0     O65988  12.704   5.770   4.107 -0.1478 -0.5308 -0.2889
  479MOL0     C65989  12.628   5.820   4.205  0.1463  0.1136 -0.8999
  479MOL0     C65990  12.672   5.898   4.317  0.2152  0.6937  0.5577
  479MOL0     C65991  12.594   5.945   4.419  0.9729  0.5861 -0.0772
  479MOL0     C65992  12.659   6.015   4.529 -0.4793  0.6529 -0.1645
  479MOL0     C65993  12.456   5.903   4.428  0.4615 -0.8964  0.4357
  479MOL0     C65994  12.357   5.942   4.532  0.7325  0.0345  0.2737
  479MOL0     O65995  12.239   5.874   4.539 -0.3947  1.0073  0.6902
  479MOL0     C65996  12.137   5.917   4.616  0.1607 -0.1184 -0.9291
  479MOL0     C65997  12.130   5.879   4.749 -0.0100 -0.0934  0.6410
  479MOL0     C65998  12.029   5.922   4.823  0.2209 -0.1597  0.0955
  479MOL0     C65999  11.919   5.989   4.767  0.6485 -0.9249  0.2197
  479MOL0     O66000  11.800   6.017   4.839 -0.0371 -0.0916  0.4386
  479MOL0     C66001  11.771   5.942   4.959  0.1441 -0.6059  0.9090
  479MOL0     C66002  11.640   5.991   5.013  1.2358  0.4469  0.1527
  479MOL0     C66003  11.571   5.909   5.124  0.7160  0.1319  0.5114
  479MOL0     C66004  11.444   5.974   5.162  0.4410 -0.3160 -0.7718
  479MOL0     C66005  11.348   5.883   5.245  0.3400 -0.8041  0.8980
  479MOL0     C66006  11.225   5.957   5.282  0.4438  0.6940  0.7013
  479MOL0     C66007  11.120   5.878   5.371 -0.8108 -0.7287 -0.4026
  479MOL0     C66008  11.006   5.970   5.418 -0.4608 -0.2157  0.1243
  479MOL0    Cl66009  10.920   6.063   5.289  0.1289 -0.1393 -0.2722
  479MOL0     C66010  11.932   6.034   4.634  0.2316  0.7719  0.6920
  479MOL0     C66011  12.044   6.001   4.564  0.3647  0.3149 -0.0960
  479MOL0     O66012  12.388   6.038   4.598 -0.1790 -0.2957 -0.2250
  479MOL0     C66013  12.410   5.816   4.321  0.0223 -0.6177  0.3584
  479MOL0     C66014  12.495   5.780   4.217  0.0936 -0.0562  0.9958
  479MOL0     N66015  12.646   5.267   4.043 -0.6091  0.1455 -0.2016
  479MOL0     N66016  12.565   5.165   4.013 -0.0323 -0.2843  1.0168
  479MOL0     C66017  11.302   5.466   4.369 -0.4079 -0.0006  0.5776
  479MOL0     C66018  11.176   5.521   4.403 -0.4086 -0.1399  0.1844
  479MOL0     C66019  10.728   5.460   4.585  0.1241 -0.0911  0.3175
  479MOL0     C66020  10.611   5.386   4.567  1.0288  0.1253  0.6395
  479MOL0     C66021  10.492   5.411   4.639 -0.3689 -0.0120  0.2095
  479MOL0     C66022  10.487   5.508   4.742 -0.8876 -1.0111 -0.4050
  479MOL0     O66023  10.383   5.542   4.836  0.1072  0.6395  0.3467
  479MOL0     C66024  10.254   5.484   4.804 -0.5933 -0.0400  0.3945
  479MOL0     C66025  10.137   5.536   4.891 -0.0968  0.0882  0.4870
  479MOL0     C66026  10.000   5.473   4.854 -0.8046 -0.2815  0.5075
  479MOL0     C66027   9.901   5.491   4.969 -0.2885  0.2430  0.0416
  479MOL0     C66028   9.777   5.411   4.956 -1.1935  0.2912  0.4843
  479MOL0     C66029   9.686   5.332   4.963 -0.2747 -0.5823  0.0561
  479MOL0     C66030  10.603   5.585   4.758  0.1819  0.8583 -0.3661
  479MOL0     C66031  10.719   5.567   4.682 -0.4918 -0.2846 -0.5675
  479MOL0     C66032  10.842   5.644   4.731  0.9897 -0.1318 -0.3063
  479MOL0     H66033  11.055   5.274   4.602 -0.0304  0.1541  1.9225
  479MOL0     H66034  11.292   5.196   4.567  2.4120  0.3236 -1.9156
  479MOL0     H66035  11.602   5.417   4.313  1.5739 -0.7587 -1.3288
  479MOL0     H66036  11.493   5.323   4.229  0.4963  2.0017 -0.6355
  479MOL0     H66037  11.716   5.221   4.415 -0.3748 -1.5478 -0.3952
  479MOL0     H66038  11.615   5.118   4.314  1.2075 -1.1469  0.4683
  479MOL0     H66039  11.702   5.218   4.107  2.4756 -0.8395 -1.5076
  479MOL0     H66040  11.777   5.353   4.189  0.6262 -0.2559 -3.1144
  479MOL0     H66041  11.919   5.189   4.322 -2.2245 -0.3154  0.0728
  479MOL0     H66042  11.876   5.069   4.200 -0.4034  0.6208  0.6593
  479MOL0     H66043  11.991   5.342   4.135 -2.5375 -0.1985 -0.8579
  479MOL0     H66044  11.984   5.206   4.028  0.4194 -2.4075  0.9344
  479MOL0     H66045  12.179   5.280   4.209 -0.0148 -0.2298  0.2703
  479MOL0     H66046  12.127   5.116   4.255 -1.3262 -0.8141 -0.4629
  479MOL0     H66047  12.237   5.224   3.977  1.7037 -0.2627 -0.7280
  479MOL0     H66048  12.153   5.072   4.001  2.0122  1.1081 -3.7328
  479MOL0     H66049  12.334   5.020   4.182  2.5277 -0.9008 -0.6276
  479MOL0     H66050  12.372   4.988   4.017  3.3594  0.4166  0.2953
  479MOL0     H66051  12.407   5.319   4.251  0.0336 -1.0608  0.1766
  479MOL0     H66052  12.586   5.494   4.288  0.1901  0.2775 -0.1963
  479MOL0     H66053  12.589   5.543   4.123  0.8505  1.1801  0.6731
  479MOL0     H66054  12.820   5.396   4.235 -1.2196 -0.0025  1.1843
  479MOL0     H66055  12.813   5.469   4.073  0.7429 -1.9370  0.1482
  479MOL0     H66056  12.807   5.637   4.330  1.0667  1.0227 -0.0276
  479MOL0     H66057  12.954   5.592   4.244  0.5125  1.4086  0.0611
  479MOL0     H66058  12.898   5.823   4.169  0.8214 -0.4860 -2.0809
  479MOL0     H66059  12.896   5.708   4.047  1.4268  2.1254 -1.0145
  479MOL0     H66060  12.779   5.915   4.325  0.0202  1.4261  1.8463
  479MOL0     H66061  12.768   6.014   4.533 -0.4746 -1.6486  0.4278
  479MOL0     H66062  12.628   5.983   4.629  2.5854  0.3251  0.7637
  479MOL0     H66063  12.626   6.120   4.525  0.9421  1.0808 -3.1845
  479MOL0     H66064  12.211   5.819   4.789  0.1903 -2.9047 -3.3651
  479MOL0     H66065  12.026   5.899   4.929  1.9313  2.7342  0.8496
  479MOL0     H66066  11.769   5.834   4.942 -0.3298 -0.4545 -0.0398
  479MOL0     H66067  11.851   5.960   5.031  0.3292 -0.7854  0.7485
  479MOL0     H66068  11.655   6.083   5.070  0.0544 -0.7842  2.5520
  479MOL0     H66069  11.577   6.012   4.926 -1.7816 -0.1916  2.0800
  479MOL0     H66070  11.638   5.904   5.211 -0.6169 -0.2742  1.5495
  479MOL0     H66071  11.549   5.810   5.084  0.5530  1.2168 -2.2813
  479MOL0     H66072  11.396   6.023   5.077  0.7102 -0.5474 -1.0583
  479MOL0     H66073  11.450   6.065   5.223  0.8394 -0.5654 -0.4303
  479MOL0     H66074  11.332   5.795   5.182  3.5683  0.5324 -2.1677
  479MOL0     H66075  11.398   5.849   5.335  3.5542 -1.8860 -1.1292
  479MOL0     H66076  11.173   5.989   5.191 -0.9845  0.2801  1.3376
  479MOL0     H66077  11.244   6.050   5.336 -1.2887  0.9887  0.8828
  479MOL0     H66078  11.172   5.844   5.461 -0.3534  2.8390  0.8542
  479MOL0     H66079  11.082   5.783   5.333 -0.6877 -1.5347  1.3741
  479MOL0     H66080  11.049   6.038   5.492 -2.6847  1.6821 -0.1890
  479MOL0     H66081  10.935   5.918   5.483 -1.5066  0.0990 -0.7265
  479MOL0     H66082  11.852   6.089   4.586 -2.8142 -1.2418  3.0231
  479MOL0     H66083  12.060   6.033   4.461 -2.6192  3.4195  0.2196
  479MOL0     H66084  12.306   5.785   4.316  0.0081 -0.3492 -1.8298
  479MOL0     H66085  12.446   5.736   4.130  1.5478  2.3927 -1.2264
  479MOL0     H66086  11.372   5.519   4.305  1.6726 -2.4913  0.6176
  479MOL0     H66087  11.152   5.621   4.370 -1.3550 -1.2264 -2.8457
  479MOL0     H66088  10.605   5.310   4.489 -3.2659  2.2859 -1.4746
  479MOL0     H66089  10.400   5.354   4.624 -2.4929  3.4046 -0.9162
  479MOL0     H66090  10.234   5.510   4.700  1.0392 -2.5961 -0.6764
  479MOL0     H66091  10.255   5.374   4.808  0.4955 -0.1854 -2.2869
  479MOL0     H66092  10.124   5.643   4.872  0.4105 -0.1971 -1.8040
  479MOL0     H66093  10.162   5.513   4.995 -0.4676 -1.4618  0.2582
  479MOL0     H66094   9.968   5.518   4.760  1.2521 -0.9968 -0.5795
  479MOL0     H66095  10.011   5.367   4.832 -0.7560 -0.2348  0.3034
  479MOL0     H66096   9.872   5.595   4.986  0.6871  0.3100  1.4301
  479MOL0     H66097   9.953   5.458   5.059  0.8522 -1.2275 -1.0984
  479MOL0     H66098   9.601   5.266   4.961 -2.1415  1.7096 -0.4093
  479MOL0     H66099  10.599   5.666   4.831  1.1960 -0.1466  0.8474
  479MOL0     H66100  10.923   5.579   4.765  1.8409  1.3884  0.6827
  479MOL0     H66101  10.880   5.703   4.648  2.0213 -0.4016 -0.0473
  479MOL0     H66102  10.808   5.712   4.809 -0.1778 -1.7429  0.6646
  480MOL0     O66103   3.129   5.938   1.998  0.5479 -0.1318  0.5101
  480MOL0     C66104   3.120   6.050   2.046  0.2401 -0.2116  0.8227
  480MOL0     O66105   3.228   6.133   2.065 -0.0198 -0.5883 -0.9046
  480MOL0     C66106   3.348   6.100   2.003  0.0427  0.0716 -1.2558
  480MOL0     C66107   3.463   6.067   2.079  0.1639  0.2866 -0.3013
  480MOL0     C66108   3.584   6.034   2.015 -0.8088 -0.6172  0.6156
  480MOL0     C66109   3.593   6.048   1.877  0.1974  0.7953 -0.2342
  480MOL0     O66110   3.704   6.010   1.815 -0.1948  0.4072 -0.1375
  480MOL0     C66111   3.749   5.877   1.834  0.0942  0.1328  0.5635
  480MOL0     C66112   3.860   5.843   1.731 -0.3270 -0.8100 -0.3567
  480MOL0     C66113   3.912   5.697   1.764 -0.0260  0.0508 -0.0642
  480MOL0     C66114   4.013   5.676   1.650 -0.1207 -0.5058  0.1932
  480MOL0     C66115   4.087   5.545   1.667 -0.5253  0.4674 -0.4867
  480MOL0     C66116   4.000   5.410   1.664 -0.2625 -0.2289  0.7584
  480MOL0     C66117   3.922   5.393   1.530 -0.6999 -0.5684 -0.4990
  480MOL0     C66118   4.012   5.396   1.405 -0.7161 -0.0928 -0.3370
  480MOL0     N66119   4.107   5.285   1.368 -0.0530 -0.4488 -0.2509
  480MOL0     C66120   4.096   5.146   1.341  0.0467  0.0826  0.1789
  480MOL0     C66121   4.222   5.102   1.314  0.8113 -0.6788 -0.1091
  480MOL0     C66122   4.271   4.970   1.288  0.6298 -0.2105 -0.3690
  480MOL0     C66123   4.392   4.955   1.190  0.0959 -0.0124  0.1355
  480MOL0     C66124   4.451   4.816   1.191 -0.2632  0.8595 -1.1778
  480MOL0     C66125   4.595   4.800   1.147  0.4969  0.4297 -0.1740
  480MOL0     O66126   4.646   4.669   1.163 -0.2047 -0.1190  0.5679
  480MOL0     C66127   4.782   4.654   1.134 -0.3313  0.3590 -0.1768
  480MOL0     C66128   4.865   4.759   1.091 -0.1327  0.2122  0.8847
  480MOL0     C66129   5.003   4.744   1.061 -0.8495  0.0023  0.1046
  480MOL0     C66130   5.093   4.864   1.029  0.6683 -0.5290  0.7834
  480MOL0     C66131   5.056   4.606   1.077  0.9936 -0.4456  0.6729
  480MOL0     C66132   5.198   4.583   1.088 -0.4152  0.4888 -0.3887
  480MOL0     O66133   5.281   4.689   1.103 -0.1163  0.6288  0.5501
  480MOL0     C66134   5.409   4.669   1.137  0.6397  0.5211 -0.4710
  480MOL0     C66135   5.506   4.743   1.070 -0.2364  0.4173 -0.0225
  480MOL0     C66136   5.642   4.710   1.106  0.2680 -0.3858 -0.0208
  480MOL0     C66137   5.677   4.621   1.200 -0.2778  0.6748  0.2054
  480MOL0     O66138   5.801   4.599   1.239  0.6681  0.0612  0.4673
  480MOL0     C66139   5.890   4.545   1.144  0.2740  0.5029 -0.1856
  480MOL0     C66140   5.963   4.444   1.224  0.1439 -0.2551  0.7784
  480MOL0     C66141   6.082   4.396   1.146 -1.4632  0.3747  0.0471
  480MOL0     C66142   6.170   4.293   1.227  0.3299 -0.3708  0.2985
  480MOL0     C66143   6.299   4.248   1.160  0.0162 -0.1323  0.7490
  480MOL0     C66144   6.355   4.114   1.230 -0.0406 -0.1569  0.2470
  480MOL0     C66145   6.473   4.072   1.150 -0.2643 -0.1350  0.3762
  480MOL0     C66146   6.534   3.944   1.214  0.5905  0.3612 -0.1209
  480MOL0    Cl66147   6.569   3.958   1.394  0.2494  0.0390 -0.0124
  480MOL0     C66148   5.575   4.559   1.274  0.2644 -0.2808  0.0382
  480MOL0     C66149   5.445   4.576   1.232  0.2521 -0.1813  0.1348
  480MOL0     O66150   5.228   4.465   1.098 -0.2661  0.3053  0.2105
  480MOL0     C66151   4.965   4.507   1.111  0.3986 -0.7466  0.7400
  480MOL0     C66152   4.831   4.525   1.150 -0.5985 -0.0645 -0.3830
  480MOL0     N66153   4.303   5.210   1.300  1.0512 -0.7873  0.5415
  480MOL0     N66154   4.235   5.314   1.340 -0.1390  0.6087  0.3181
  480MOL0     C66155   3.488   6.094   1.803  0.3042 -0.8083  0.5356
  480MOL0     C66156   3.361   6.112   1.865  0.2905  0.9125  0.7289
  480MOL0     C66157   2.982   6.099   2.079  0.0355  0.6863  0.7496
  480MOL0     C66158   2.960   6.147   2.207 -0.8738 -0.4088  0.0047
  480MOL0     C66159   2.829   6.191   2.247 -0.4369  0.1079  0.9342
  480MOL0     C66160   2.721   6.182   2.161  0.3697  0.6230 -0.0367
  480MOL0     O66161   2.597   6.237   2.198  0.2025  0.0813  0.2095
  480MOL0     C66162   2.476   6.218   2.130 -0.3257 -0.4118 -0.4728
  480MOL0     C66163   2.362   6.219   2.227  0.2110  0.2852  0.2887
  480MOL0     C66164   2.345   6.358   2.306  0.5215  0.0986  0.0901
  480MOL0     C66165   2.294   6.472   2.213 -0.4224  0.3405 -0.4823
  480MOL0     C66166   2.170   6.450   2.135  1.0925 -0.1441 -0.5771
  480MOL0     C66167   2.066   6.426   2.080  0.2044 -0.3062  0.0711
  480MOL0     C66168   2.741   6.129   2.036 -0.2105  0.3762  0.4542
  480MOL0     C66169   2.865   6.078   1.987 -0.4653 -0.9520 -0.9600
  480MOL0     C66170   2.871   6.004   1.856 -0.1461 -0.4546 -0.7170
  480MOL0     H66171   3.463   6.056   2.187 -2.1121  0.0101 -0.2806
  480MOL0     H66172   3.674   6.005   2.067 -0.8267  0.1596  1.1003
  480MOL0     H66173   3.661   5.815   1.817 -1.1718  2.6311 -3.2821
  480MOL0     H66174   3.779   5.865   1.939 -0.9685  0.6766  0.9457
  480MOL0     H66175   3.815   5.852   1.631 -0.4656 -2.9206 -0.5427
  480MOL0     H66176   3.940   5.917   1.738 -0.5026 -0.7448  1.3814
  480MOL0     H66177   3.953   5.691   1.865  0.6430  2.6248 -0.1064
  480MOL0     H66178   3.829   5.626   1.756 -0.5221  0.5879  0.2161
  480MOL0     H66179   3.963   5.676   1.552 -0.1886  1.2252  0.1947
  480MOL0     H66180   4.094   5.750   1.651 -0.6300  0.0594  0.2767
  480MOL0     H66181   4.131   5.544   1.767  0.1445  1.0769 -0.7674
  480MOL0     H66182   4.162   5.547   1.588 -0.6306 -0.1480 -0.6063
  480MOL0     H66183   4.066   5.324   1.682  1.1778  0.6204 -0.2581
  480MOL0     H66184   3.935   5.413   1.752  2.9910 -2.1165  3.4560
  480MOL0     H66185   3.848   5.470   1.510 -1.1549 -1.4580 -2.6063
  480MOL0     H66186   3.868   5.298   1.526 -0.2372 -0.8211 -1.1343
  480MOL0     H66187   3.945   5.391   1.318  0.7300  1.3326 -1.5898
  480MOL0     H66188   4.068   5.490   1.404  1.5555 -1.3704 -1.8813
  480MOL0     H66189   4.010   5.080   1.342 -1.4135  1.6246 -3.9224
  480MOL0     H66190   4.191   4.927   1.227  0.1884  1.7337 -1.2375
  480MOL0     H66191   4.277   4.908   1.378  2.5763  0.4941  0.0483
  480MOL0     H66192   4.360   4.983   1.088 -0.7766  1.6352  0.8145
  480MOL0     H66193   4.462   5.033   1.221 -1.5785  1.4379  0.4950
  480MOL0     H66194   4.454   4.778   1.293 -1.4316  2.4833 -0.4940
  480MOL0     H66195   4.390   4.757   1.121 -0.1558 -0.4333 -0.2106
  480MOL0     H66196   4.605   4.830   1.043  1.2122  0.1656 -0.1866
  480MOL0     H66197   4.653   4.860   1.217 -0.1914 -0.3361  1.0955
  480MOL0     H66198   4.827   4.858   1.066 -0.4394  0.3610  1.8710
  480MOL0     H66199   5.160   4.851   0.944  0.9417  1.5474  0.6351
  480MOL0     H66200   5.149   4.896   1.117  1.6770  3.7500 -1.1384
  480MOL0     H66201   5.025   4.941   0.991 -1.5727 -3.1745 -1.0077
  480MOL0     H66202   5.483   4.811   0.989 -0.3465  0.0011 -0.3449
  480MOL0     H66203   5.711   4.779   1.058 -0.9988  0.3369 -0.8508
  480MOL0     H66204   5.838   4.498   1.060 -0.5231 -1.3491  1.2650
  480MOL0     H66205   5.955   4.626   1.110 -0.3985  1.3353  0.4729
  480MOL0     H66206   5.989   4.489   1.320  1.0357  0.6697  0.1263
  480MOL0     H66207   5.904   4.359   1.259 -0.6585  0.1692  0.4677
  480MOL0     H66208   6.154   4.475   1.122 -0.7068 -0.1213  0.6447
  480MOL0     H66209   6.051   4.346   1.054  0.9998 -1.7063  0.2501
  480MOL0     H66210   6.106   4.208   1.252  1.6576 -1.8705 -1.0888
  480MOL0     H66211   6.207   4.339   1.319 -0.1977  0.6924 -0.0077
  480MOL0     H66212   6.274   4.220   1.057 -0.9223 -0.1357  0.9771
  480MOL0     H66213   6.369   4.332   1.156  0.1321 -0.2638 -1.2677
  480MOL0     H66214   6.290   4.026   1.232  1.4180 -1.2631  0.5274
  480MOL0     H66215   6.372   4.138   1.336 -1.0314  1.4725  0.0809
  480MOL0     H66216   6.548   4.151   1.145  0.7566 -1.1405 -2.1159
  480MOL0     H66217   6.442   4.047   1.048  1.0442 -1.0115  0.1694
  480MOL0     H66218   6.624   3.914   1.160 -1.1353 -1.5956 -2.0898
  480MOL0     H66219   6.460   3.864   1.209 -0.0085  0.9804 -4.0660
  480MOL0     H66220   5.603   4.513   1.368 -0.0409  5.0516  3.1945
  480MOL0     H66221   5.369   4.521   1.287  0.8054 -1.1113 -0.0207
  480MOL0     H66222   4.993   4.402   1.113  1.0848 -0.6080 -0.7200
  480MOL0     H66223   4.767   4.447   1.189  0.4680 -0.3478  0.8759
  480MOL0     H66224   3.503   6.098   1.696  1.2569  0.4590  0.7001
  480MOL0     H66225   3.273   6.121   1.802 -0.2071 -1.9178  0.8871
  480MOL0     H66226   3.042   6.159   2.276 -2.1655  0.8343  1.3988
  480MOL0     H66227   2.809   6.241   2.341  2.0631  1.5146  0.8213
  480MOL0     H66228   2.471   6.293   2.051 -0.5794 -0.9747 -1.0036
  480MOL0     H66229   2.464   6.118   2.088  0.0725 -0.3465 -0.7503
  480MOL0     H66230   2.382   6.139   2.299 -0.1335  0.7408  0.9049
  480MOL0     H66231   2.274   6.197   2.167  0.5026 -0.7229  0.2082
  480MOL0     H66232   2.276   6.341   2.389  1.4758 -0.6212  0.7588
  480MOL0     H66233   2.440   6.389   2.351 -0.3034  0.3844  1.6967
  480MOL0     H66234   2.381   6.491   2.149  1.4922  0.5938  2.0440
  480MOL0     H66235   2.286   6.567   2.266  3.9334 -0.5853  2.3975
  480MOL0     H66236   1.965   6.412   2.048  0.5463 -1.2645 -0.6680
  480MOL0     H66237   2.648   6.119   1.981  0.4489  1.8758 -1.0210
  480MOL0     H66238   2.896   5.899   1.868  2.3153  0.2919  1.9450
  480MOL0     H66239   2.776   6.025   1.807 -1.4107 -0.2420  1.6433
  480MOL0     H66240   2.947   6.039   1.786  0.9535  0.0442  0.6542
  481MOL0     O66241   6.934   8.866   0.952 -0.4821 -0.3148 -0.1865
  481MOL0     C66242   6.891   8.926   0.848 -0.2240  0.1835  0.1702
  481MOL0     O66243   6.770   8.915   0.788  0.3945 -0.2716  0.0422
  481MOL0     C66244   6.675   8.839   0.848  0.7610 -0.0489 -0.2030
  481MOL0     C66245   6.694   8.702   0.863  0.1015  0.2257  0.0689
  481MOL0     C66246   6.596   8.616   0.920  0.0602  0.4446 -0.5328
  481MOL0     C66247   6.473   8.674   0.964 -0.8565  0.4917  0.3752
  481MOL0     O66248   6.358   8.596   0.987 -0.3316  0.2676  0.3600
  481MOL0     C66249   6.359   8.463   0.937  0.3728 -0.8279 -0.0254
  481MOL0     C66250   6.209   8.423   0.937  0.4053  0.0717  0.0888
  481MOL0     C66251   6.171   8.281   0.950 -0.0880  0.1497 -0.2392
  481MOL0     C66252   6.014   8.262   0.976 -0.9082  0.2369  0.8118
  481MOL0     C66253   5.983   8.115   0.963  1.0520 -1.1414  0.3666
  481MOL0     C66254   5.833   8.090   0.934 -0.8107 -0.3206  0.3602
  481MOL0     C66255   5.733   8.127   1.040  0.1629  0.7659 -0.8045
  481MOL0     C66256   5.742   8.049   1.171  0.4316 -0.0331 -0.0700
  481MOL0     N66257   5.867   8.060   1.239  0.0136 -0.2091  0.1272
  481MOL0     C66258   5.898   8.156   1.329 -0.0155 -0.1259  0.2438
  481MOL0     C66259   6.004   8.108   1.400  0.0644  0.2380 -0.6913
  481MOL0     C66260   6.087   8.179   1.505 -0.6456 -0.5058  0.5226
  481MOL0     C66261   6.146   8.306   1.437 -0.1873 -0.1822  0.0961
  481MOL0     C66262   6.265   8.277   1.354  0.2943 -0.1783  0.2499
  481MOL0     C66263   6.403   8.318   1.413  0.3704  0.3470  0.4932
  481MOL0     O66264   6.441   8.246   1.528  0.6951 -0.8355 -0.1388
  481MOL0     C66265   6.575   8.210   1.536  0.6096  0.3504  0.2836
  481MOL0     C66266   6.675   8.270   1.467 -0.0205  0.6740 -0.3040
  481MOL0     C66267   6.811   8.218   1.468  0.3565 -1.0339  0.3024
  481MOL0     C66268   6.914   8.301   1.389  0.4077  0.5568  0.0414
  481MOL0     C66269   6.839   8.114   1.555 -0.7820 -0.5309 -0.5747
  481MOL0     C66270   6.967   8.063   1.597  1.2876 -0.3770  0.1256
  481MOL0     O66271   6.978   8.034   1.727 -0.4347 -0.4272 -0.1335
  481MOL0     C66272   7.094   7.973   1.758 -0.7824  0.6282 -0.1733
  481MOL0     C66273   7.203   8.047   1.793 -0.7131  0.5257  0.6648
  481MOL0     C66274   7.323   7.977   1.824  0.1922  0.6425 -0.4735
  481MOL0     C66275   7.338   7.841   1.841 -0.6367 -0.5338  0.2846
  481MOL0     O66276   7.453   7.778   1.889 -0.6278  0.5581  0.3495
  481MOL0     C66277   7.565   7.840   1.948 -0.5534  0.1065 -0.0160
  481MOL0     C66278   7.670   7.739   1.990  0.4744 -0.1917  0.2695
  481MOL0     C66279   7.680   7.623   1.903  0.3661  0.2668  0.2140
  481MOL0     C66280   7.777   7.515   1.953  0.0108  0.2574  0.0333
  481MOL0     C66281   7.926   7.567   1.963 -0.0809  0.3268 -0.5681
  481MOL0     C66282   8.029   7.457   1.928 -0.0054 -0.4788  0.3972
  481MOL0     C66283   8.170   7.511   1.895 -0.3414  0.5486 -0.7767
  481MOL0     C66284   8.258   7.379   1.869  0.3700 -0.2318 -0.3912
  481MOL0    Cl66285   8.299   7.287   2.016 -0.0948  0.2900 -0.0739
  481MOL0     C66286   7.217   7.770   1.824  0.3040  0.4593  0.2762
  481MOL0     C66287   7.093   7.834   1.779 -0.3154  0.0709 -0.5486
  481MOL0     O66288   7.051   8.052   1.509 -0.2048  0.4465  0.0755
  481MOL0     C66289   6.738   8.060   1.630  0.4196 -0.6344  0.4539
  481MOL0     C66290   6.611   8.105   1.613  0.5523  0.4981  0.7429
  481MOL0     N66291   6.019   7.979   1.359 -0.3338 -0.3862 -0.2623
  481MOL0     N66292   5.936   7.949   1.266 -0.2413 -0.1827 -0.0061
  481MOL0     C66293   6.452   8.810   0.945  0.1636 -0.0402 -0.7346
  481MOL0     C66294   6.556   8.893   0.894 -0.0836 -0.1942 -0.6336
  481MOL0     C66295   6.990   9.009   0.774 -0.8926  0.4128  0.4469
  481MOL0     C66296   6.943   9.137   0.735  0.4503  0.2121 -0.1534
  481MOL0     C66297   7.015   9.224   0.650 -0.1002 -0.3703 -0.3508
  481MOL0     C66298   7.144   9.187   0.607 -0.1642 -0.5731  0.3433
  481MOL0     O66299   7.227   9.258   0.532 -0.5211 -0.6076  0.6342
  481MOL0     C66300   7.238   9.401   0.554  0.7832  0.7924 -0.1383
  481MOL0     C66301   7.386   9.433   0.566  0.0469 -0.5362  0.2663
  481MOL0     C66302   7.443   9.405   0.702 -0.3208 -0.8209 -0.0314
  481MOL0     C66303   7.584   9.456   0.736 -0.2974 -0.1505 -0.3745
  481MOL0     C66304   7.691   9.400   0.661 -0.2074  0.4794  0.2031
  481MOL0     C66305   7.771   9.365   0.578  0.3100  0.4149  0.3839
  481MOL0     C66306   7.192   9.060   0.644 -0.1884 -1.4027 -0.7545
  481MOL0     C66307   7.122   8.966   0.721  1.1182 -0.8246  0.7402
  481MOL0     C66308   7.180   8.831   0.749  0.2604  0.1986 -0.5926
  481MOL0     H66309   6.785   8.649   0.834 -1.4803 -1.9299 -1.2205
  481MOL0     H66310   6.615   8.510   0.931 -0.2869  0.2057 -1.9291
  481MOL0     H66311   6.397   8.398   1.016  0.6308 -1.8931 -1.0087
  481MOL0     H66312   6.417   8.448   0.847  0.0601 -0.7484 -0.2429
  481MOL0     H66313   6.165   8.466   1.028  0.8606 -3.7818  2.3437
  481MOL0     H66314   6.152   8.478   0.862  0.4407  1.1205  0.8056
  481MOL0     H66315   6.189   8.232   0.854 -1.5097  0.5925 -0.7535
  481MOL0     H66316   6.228   8.231   1.029 -0.6913  1.7823  1.2851
  481MOL0     H66317   5.983   8.311   1.069  0.6879  1.4122  0.7598
  481MOL0     H66318   5.962   8.321   0.900 -0.6172 -0.3943  0.1199
  481MOL0     H66319   6.009   8.068   1.059  1.0138 -1.6030  0.1538
  481MOL0     H66320   6.043   8.082   0.878  0.4461  0.6606 -0.8317
  481MOL0     H66321   5.805   8.147   0.845 -0.5052 -1.4433 -0.4782
  481MOL0     H66322   5.824   7.985   0.905  0.8678  0.4441 -3.6107
  481MOL0     H66323   5.637   8.090   1.001 -0.3927  0.5490  0.7043
  481MOL0     H66324   5.729   8.235   1.057  0.2801  0.6489 -0.0136
  481MOL0     H66325   5.661   8.093   1.230 -1.3915  0.7466 -2.9748
  481MOL0     H66326   5.718   7.946   1.146 -0.0551  0.0463  0.0702
  481MOL0     H66327   5.865   8.259   1.334  0.6180  0.0235  1.8424
  481MOL0     H66328   6.166   8.115   1.546  1.2985  2.5161  1.8432
  481MOL0     H66329   6.030   8.211   1.592  0.5161  0.6995  0.8796
  481MOL0     H66330   6.068   8.351   1.374  0.0433  0.7820  0.4723
  481MOL0     H66331   6.173   8.386   1.507 -1.8383  0.8000 -0.3221
  481MOL0     H66332   6.278   8.176   1.315  0.9343 -1.2573  3.0008
  481MOL0     H66333   6.248   8.342   1.268  2.1306  0.9496  0.6841
  481MOL0     H66334   6.467   8.295   1.328 -0.2052  2.7348 -0.6862
  481MOL0     H66335   6.394   8.426   1.427 -1.7871  0.3899 -0.7785
  481MOL0     H66336   6.649   8.357   1.409 -3.6032 -0.5254 -0.7062
  481MOL0     H66337   7.012   8.297   1.438  0.7390 -0.9722 -0.6838
  481MOL0     H66338   6.889   8.404   1.363  1.4752  0.7131 -0.4299
  481MOL0     H66339   6.932   8.238   1.302  2.4200 -0.9455  1.4512
  481MOL0     H66340   7.202   8.156   1.790  0.4327  0.5269 -0.1663
  481MOL0     H66341   7.415   8.033   1.835  0.1592  0.3827  1.5051
  481MOL0     H66342   7.616   7.908   1.878  1.5163 -0.2198  1.1147
  481MOL0     H66343   7.537   7.906   2.030 -1.6190  0.3092 -0.5235
  481MOL0     H66344   7.771   7.779   2.005 -0.4802  1.6419  2.5710
  481MOL0     H66345   7.622   7.717   2.086  2.0692  2.8582  1.9215
  481MOL0     H66346   7.704   7.648   1.800 -0.0378  1.3282  0.3693
  481MOL0     H66347   7.584   7.570   1.900  0.9288 -1.0925  2.6218
  481MOL0     H66348   7.779   7.430   1.885  1.4785 -1.5307  2.1614
  481MOL0     H66349   7.745   7.474   2.049 -3.4809 -1.2247 -1.5938
  481MOL0     H66350   7.941   7.660   1.908 -0.8821  1.6975  1.4292
  481MOL0     H66351   7.947   7.586   2.068  2.3204  0.7395 -1.0553
  481MOL0     H66352   8.002   7.395   1.841 -0.3123 -0.9850  0.8507
  481MOL0     H66353   8.036   7.384   2.009  3.5067 -0.8074 -0.0224
  481MOL0     H66354   8.208   7.572   1.977 -1.4058 -1.9523  1.7289
  481MOL0     H66355   8.171   7.571   1.803 -1.1079  1.2717 -0.3139
  481MOL0     H66356   8.340   7.409   1.803  0.1331 -1.0330 -1.0648
  481MOL0     H66357   8.205   7.298   1.818 -0.7854 -1.5162  2.6287
  481MOL0     H66358   7.215   7.662   1.834  0.7195  0.6504  3.1416
  481MOL0     H66359   7.005   7.774   1.760 -0.4906 -0.3580  1.4096
  481MOL0     H66360   6.756   7.978   1.699  2.1808 -0.5653  0.1181
  481MOL0     H66361   6.535   8.053   1.670 -1.3919 -0.3117 -2.3688
  481MOL0     H66362   6.365   8.862   0.984  2.0357  1.3455  1.9657
  481MOL0     H66363   6.544   9.001   0.889  2.0612  0.2665  1.9781
  481MOL0     H66364   6.841   9.165   0.757  0.1727 -2.0579  1.8843
  481MOL0     H66365   6.971   9.321   0.628 -2.2648 -0.9427  1.0963
  481MOL0     H66366   7.194   9.441   0.462 -2.0367 -2.4252 -0.4011
  481MOL0     H66367   7.183   9.442   0.639  2.0572 -0.4176  1.3447
  481MOL0     H66368   7.397   9.539   0.539  1.7211  0.1157  3.0829
  481MOL0     H66369   7.447   9.386   0.489 -0.3070  0.5421 -0.6964
  481MOL0     H66370   7.383   9.443   0.785 -0.0417  1.4415 -0.8055
  481MOL0     H66371   7.452   9.296   0.707  1.5941 -0.8782 -2.5492
  481MOL0     H66372   7.606   9.445   0.842  1.6369 -2.4120 -0.9231
  481MOL0     H66373   7.587   9.562   0.710  0.8766 -0.4332 -1.5094
  481MOL0     H66374   7.845   9.326   0.510 -1.4388  1.2135 -2.1099
  481MOL0     H66375   7.295   9.046   0.612  0.0834  0.3154 -0.7124
  481MOL0     H66376   7.184   8.827   0.859 -0.7431  0.8347 -0.5314
  481MOL0     H66377   7.114   8.747   0.725 -0.3921 -0.0965  1.9141
  481MOL0     H66378   7.277   8.801   0.707  0.1263 -1.1469 -0.0198
  482MOL0     O66379   1.650   1.049   1.100  0.5165  0.5552  0.2625
  482MOL0     C66380   1.608   0.934   1.114 -0.5710 -0.2307  0.5094
  482MOL0     O66381   1.691   0.821   1.120  0.2368  0.0846 -0.0064
  482MOL0     C66382   1.826   0.838   1.085  0.1126 -0.9582 -0.7848
  482MOL0     C66383   1.903   0.774   0.992 -0.1561  0.0005  0.5956
  482MOL0     C66384   2.031   0.820   0.956 -0.2135 -0.4236 -0.6141
  482MOL0     C66385   2.100   0.909   1.038  1.0851 -0.0846 -0.6254
  482MOL0     O66386   2.221   0.963   1.022  0.1027 -0.2391 -0.4554
  482MOL0     C66387   2.301   0.926   0.914 -0.1318 -0.0450  0.0467
  482MOL0     C66388   2.443   0.984   0.951  0.3426 -0.9534  0.0926
  482MOL0     C66389   2.545   0.962   0.848  0.5666  0.5397 -0.3792
  482MOL0     C66390   2.669   1.024   0.900 -0.0042  0.3289 -0.1777
  482MOL0     C66391   2.791   0.980   0.815  0.3865 -0.0517  0.0546
  482MOL0     C66392   2.809   1.088   0.698 -0.4949  0.5181  0.4616
  482MOL0     C66393   2.932   1.029   0.621 -0.6510 -0.5149 -0.2690
  482MOL0     C66394   2.986   1.131   0.516 -0.3161 -0.0060  0.1658
  482MOL0     N66395   3.118   1.096   0.461  0.7971 -0.0550  0.3765
  482MOL0     C66396   3.157   1.000   0.366  0.3675 -0.0444 -0.2506
  482MOL0     C66397   3.287   1.033   0.326  0.2881 -0.1134  0.1093
  482MOL0     C66398   3.375   0.987   0.213  0.6870  0.0714  0.2726
  482MOL0     C66399   3.522   0.979   0.249 -0.4293  0.1917 -0.0303
  482MOL0     C66400   3.550   0.906   0.383 -0.2450 -0.2540  0.1597
  482MOL0     C66401   3.698   0.902   0.430  0.2204  1.0654 -0.2462
  482MOL0     O66402   3.782   0.855   0.329 -0.6179 -0.1364  0.3089
  482MOL0     C66403   3.795   0.723   0.290  0.1142  0.1708 -0.4119
  482MOL0     C66404   3.873   0.683   0.191  0.1138 -0.9251 -0.8325
  482MOL0     C66405   3.887   0.546   0.152  0.0844 -0.2096 -0.4322
  482MOL0     C66406   3.985   0.522   0.042  0.4827 -0.5122  0.1736
  482MOL0     C66407   3.806   0.444   0.207  0.1624  0.2677 -0.0203
  482MOL0     C66408   3.809   0.300   0.168  0.3964 -0.1458  0.1180
  482MOL0     O66409   3.902   0.258   0.081 -0.5021  0.4985  0.8201
  482MOL0     C66410   3.906   0.128   0.047 -0.2215 -0.1878 -0.2892
  482MOL0     C66411   3.839   0.082  -0.063 -0.3954 -1.1754  0.2451
  482MOL0     C66412   3.865  -0.048  -0.106 -0.6182 -0.4960  0.5674
  482MOL0     C66413   3.950  -0.143  -0.046  0.3594  0.7937  0.7371
  482MOL0     O66414   3.978  -0.271  -0.092 -0.2032  0.2040  0.6551
  482MOL0     C66415   3.962  -0.299  -0.232 -0.2362  0.3636  0.1811
  482MOL0     C66416   3.982  -0.450  -0.250  0.5169 -0.0041 -0.1058
  482MOL0     C66417   3.853  -0.524  -0.221  0.0948 -0.7857  0.1786
  482MOL0     C66418   3.880  -0.673  -0.238 -0.1456  0.5988  0.0993
  482MOL0     C66419   3.774  -0.765  -0.174 -0.2127 -0.4864 -0.2270
  482MOL0     C66420   3.631  -0.747  -0.236  0.1879  0.2205  0.3857
  482MOL0     C66421   3.520  -0.809  -0.154 -0.0407 -0.0838  0.0726
  482MOL0     C66422   3.384  -0.774  -0.230 -0.0072  0.3095 -0.7842
  482MOL0    Cl66423   3.229  -0.844  -0.166 -0.2671 -0.0377 -0.0784
  482MOL0     C66424   4.005  -0.098   0.071  0.2261  0.2810  0.0889
  482MOL0     C66425   3.992   0.040   0.113  1.2552  0.5757  0.7757
  482MOL0     O66426   3.711   0.238   0.203  0.7914 -1.0735  0.8375
  482MOL0     C66427   3.721   0.488   0.313 -0.0277  0.9421  0.0208
  482MOL0     C66428   3.724   0.622   0.360  0.2940 -0.8042  1.0279
  482MOL0     N66429   3.328   1.138   0.407  0.4807 -0.0478  0.8823
  482MOL0     N66430   3.224   1.186   0.478  0.1180  0.6702 -0.4616
  482MOL0     C66431   2.025   0.962   1.148 -0.2502  0.5428 -0.7476
  482MOL0     C66432   1.896   0.930   1.168 -0.1321  0.4807 -0.4006
  482MOL0     C66433   1.456   0.916   1.112 -0.2787  0.5606  0.5510
  482MOL0     C66434   1.375   1.030   1.137 -0.3640  0.6083  0.5898
  482MOL0     C66435   1.238   1.020   1.138  0.4634  0.6765 -0.2185
  482MOL0     C66436   1.171   0.896   1.105 -0.2710  0.0882  0.0333
  482MOL0     O66437   1.036   0.870   1.092 -0.3100  0.5463  0.4825
  482MOL0     C66438   0.948   0.983   1.106 -0.6664  0.0518 -0.7594
  482MOL0     C66439   0.817   0.940   1.042 -0.1629 -0.7988  0.3314
  482MOL0     C66440   0.798   0.982   0.895 -0.3983  0.0377 -1.1873
  482MOL0     C66441   0.659   1.038   0.865 -0.4660 -0.9478 -0.0371
  482MOL0     C66442   0.565   0.932   0.855  0.0436 -0.5828 -0.3447
  482MOL0     C66443   0.487   0.844   0.829 -0.2886  0.6542 -0.3640
  482MOL0     C66444   1.261   0.788   1.079  0.4351  0.0278  0.0323
  482MOL0     C66445   1.397   0.790   1.092  0.0129 -0.2026  0.5735
  482MOL0     C66446   1.476   0.664   1.082 -0.0913  0.9110  0.8950
  482MOL0     H66447   1.855   0.699   0.929  0.2784  1.7095 -1.9112
  482MOL0     H66448   2.071   0.764   0.872  0.8371 -0.4857 -0.0925
  482MOL0     H66449   2.261   0.962   0.819  1.4230  2.8731  0.3677
  482MOL0     H66450   2.302   0.817   0.915 -2.6131 -0.1301 -0.1853
  482MOL0     H66451   2.434   1.092   0.967  1.9450 -0.5011 -1.6333
  482MOL0     H66452   2.467   0.947   1.051 -0.5469  1.8355  1.4308
  482MOL0     H66453   2.570   0.856   0.839 -0.4900  0.2952 -0.6328
  482MOL0     H66454   2.525   1.001   0.748 -0.6867  1.0247  0.0346
  482MOL0     H66455   2.644   1.129   0.886 -2.4402 -0.2437 -0.6022
  482MOL0     H66456   2.672   0.992   1.004 -0.5156  2.4184  0.5274
  482MOL0     H66457   2.779   0.877   0.782  0.5526  0.2242 -0.8806
  482MOL0     H66458   2.878   0.976   0.881  0.2202  0.6118  0.3334
  482MOL0     H66459   2.717   1.101   0.641 -1.1560 -0.2378  1.3349
  482MOL0     H66460   2.841   1.186   0.736  0.1654  0.6148 -0.3143
  482MOL0     H66461   2.911   0.941   0.561 -2.4370  0.0900 -0.5808
  482MOL0     H66462   3.018   1.012   0.687  1.6752  2.1217 -2.3585
  482MOL0     H66463   2.921   1.133   0.428 -0.0875  0.3368  0.0009
  482MOL0     H66464   2.987   1.228   0.568  1.2962  0.1608 -0.1177
  482MOL0     H66465   3.094   0.921   0.326  0.9385 -1.1925  1.0369
  482MOL0     H66466   3.367   1.051   0.126 -0.2634  0.3464  0.5526
  482MOL0     H66467   3.348   0.885   0.184  3.5663 -1.0968  1.2850
  482MOL0     H66468   3.567   0.919   0.169  0.6510 -0.4686  1.0467
  482MOL0     H66469   3.562   1.081   0.245 -0.5781  0.2255 -1.0024
  482MOL0     H66470   3.501   0.951   0.470  1.2180 -2.7383  2.4214
  482MOL0     H66471   3.503   0.808   0.370 -1.0564  0.0529  0.6892
  482MOL0     H66472   3.720   1.003   0.467 -1.1121  1.3157 -0.0879
  482MOL0     H66473   3.708   0.829   0.512 -0.8512  3.5476  2.2530
  482MOL0     H66474   3.926   0.762   0.138  1.0598 -0.5374  0.6119
  482MOL0     H66475   4.051   0.610   0.039 -3.1726  2.4446 -0.1759
  482MOL0     H66476   3.946   0.522  -0.060  2.2649  1.3686 -0.5962
  482MOL0     H66477   4.045   0.433   0.062  0.2923 -0.8157 -0.5568
  482MOL0     H66478   3.780   0.156  -0.116  0.4917  1.6727  2.9062
  482MOL0     H66479   3.820  -0.072  -0.202 -0.8931  1.2780  0.2104
  482MOL0     H66480   3.866  -0.267  -0.272 -0.0432 -0.1295 -0.6961
  482MOL0     H66481   4.037  -0.248  -0.293 -1.7842  1.5634 -0.7655
  482MOL0     H66482   4.013  -0.477  -0.352  0.2361 -4.0584  0.7181
  482MOL0     H66483   4.063  -0.482  -0.184  0.6165  0.2321 -0.1096
  482MOL0     H66484   3.781  -0.490  -0.295  1.6978  2.1189 -0.1915
  482MOL0     H66485   3.820  -0.511  -0.117 -0.7201 -2.3007  0.1339
  482MOL0     H66486   3.968  -0.700  -0.179 -1.2457  0.1273  1.5923
  482MOL0     H66487   3.904  -0.695  -0.342  0.7267 -0.4135  0.4992
  482MOL0     H66488   3.808  -0.866  -0.198 -2.1038 -1.4373  0.8330
  482MOL0     H66489   3.773  -0.762  -0.065 -1.1302  2.5959 -0.2362
  482MOL0     H66490   3.626  -0.782  -0.339  0.3662 -3.0903  1.4092
  482MOL0     H66491   3.605  -0.640  -0.236  0.0439  0.2055  1.4916
  482MOL0     H66492   3.510  -0.770  -0.052  1.1106 -1.0539  0.5655
  482MOL0     H66493   3.527  -0.917  -0.140 -1.1448 -0.4095 -1.6569
  482MOL0     H66494   3.387  -0.812  -0.332 -2.2421  2.2608 -1.6841
  482MOL0     H66495   3.379  -0.664  -0.232  0.9431  0.4036  0.3531
  482MOL0     H66496   4.070  -0.168   0.121 -0.9819 -2.0412 -1.3782
  482MOL0     H66497   4.057   0.080   0.189  1.3692  2.9151 -0.4563
  482MOL0     H66498   3.661   0.416   0.368  0.6413 -1.0550 -1.7241
  482MOL0     H66499   3.655   0.643   0.442  1.0252  1.1071  1.1939
  482MOL0     H66500   2.077   1.030   1.215  0.4361  0.0742 -0.7971
  482MOL0     H66501   1.843   0.980   1.248  1.8331 -1.2955  2.1673
  482MOL0     H66502   1.429   1.123   1.147  3.7224 -1.3873 -0.7112
  482MOL0     H66503   1.173   1.106   1.148  1.2025  1.5987 -2.6082
  482MOL0     H66504   0.936   0.996   1.214  3.5204 -1.2693  0.0261
  482MOL0     H66505   0.994   1.075   1.067 -0.5409 -0.6557 -2.3917
  482MOL0     H66506   0.742   0.975   1.114  0.0964 -2.4012  1.4494
  482MOL0     H66507   0.806   0.831   1.043  1.9836 -1.1003  2.7050
  482MOL0     H66508   0.877   1.056   0.884  0.2030 -0.4221 -0.1312
  482MOL0     H66509   0.821   0.890   0.839  1.3379  0.0862 -0.6168
  482MOL0     H66510   0.656   1.087   0.767 -3.1273  0.3286  0.5964
  482MOL0     H66511   0.626   1.110   0.941 -1.7420 -0.3532 -1.1206
  482MOL0     H66512   0.414   0.775   0.790 -0.0804  1.2540 -1.8909
  482MOL0     H66513   1.206   0.701   1.045  1.7776 -0.8217 -0.0508
  482MOL0     H66514   1.420   0.570   1.077 -0.1562  0.9304  1.2427
  482MOL0     H66515   1.560   0.660   1.012 -1.1336  0.1278 -0.3393
  482MOL0     H66516   1.517   0.654   1.183 -3.4143 -1.1039  2.1884
  483MOL0     O66517   5.204   6.409  11.196  0.8425  0.3337  0.6649
  483MOL0     C66518   5.111   6.355  11.262  0.5239 -0.0678 -0.4448
  483MOL0     O66519   5.102   6.346  11.403  0.2043  0.0027 -0.3771
  483MOL0     C66520   5.174   6.434  11.487  0.1366  0.0923  1.1355
  483MOL0     C66521   5.173   6.390  11.621 -0.4455 -0.4179  0.4566
  483MOL0     C66522   5.238   6.468  11.721 -0.4506 -0.1574  0.0826
  483MOL0     C66523   5.316   6.579  11.683  0.3431 -0.5823 -0.1259
  483MOL0     O66524   5.397   6.652  11.769  0.3762  0.2067 -0.0379
  483MOL0     C66525   5.431   6.599  11.896 -0.3763 -0.2879  0.2850
  483MOL0     C66526   5.501   6.709  11.977 -0.4767  0.1631  0.4145
  483MOL0     C66527   5.639   6.759  11.914  1.2509  0.0717 -0.3473
  483MOL0     C66528   5.751   6.659  11.959 -0.5677 -0.5378 -0.3349
  483MOL0     C66529   5.882   6.731  11.928  0.2956 -0.1368 -0.1188
  483MOL0     C66530   6.006   6.643  11.962 -0.1755  0.6812  0.0664
  483MOL0     C66531   6.135   6.673  11.891 -0.1740 -0.3705  0.3846
  483MOL0     C66532   6.158   6.824  11.883  0.1615 -0.3373 -0.8221
  483MOL0     N66533   6.276   6.847  11.810  0.1373 -0.9629 -0.2854
  483MOL0     C66534   6.404   6.841  11.859  0.3496  0.3055  0.1020
  483MOL0     C66535   6.482   6.867  11.759  0.2494 -0.1618  0.0187
  483MOL0     C66536   6.624   6.875  11.782 -0.4629  0.3331  0.4254
  483MOL0     C66537   6.704   6.867  11.646 -0.4844 -0.5418  0.1184
  483MOL0     C66538   6.849   6.838  11.683 -0.0029  0.1614  0.1330
  483MOL0     C66539   6.953   6.870  11.567 -0.3279 -0.1207  0.5088
  483MOL0     O66540   7.078   6.862  11.632 -0.4704  0.7171 -0.3537
  483MOL0     C66541   7.195   6.885  11.563  0.9384 -0.0631  0.3776
  483MOL0     C66542   7.315   6.890  11.637 -0.3740  0.3522 -0.2262
  483MOL0     C66543   7.440   6.911  11.583 -0.1629  0.4175  0.6262
  483MOL0     C66544   7.561   6.931  11.680  0.5610 -0.0587  0.2937
  483MOL0     C66545   7.444   6.911  11.434 -0.2728  0.5325  0.3772
  483MOL0     C66546   7.565   6.942  11.362  0.6714  0.8288  0.1495
  483MOL0     O66547   7.587   6.866  11.246 -0.2840 -0.2410 -0.0645
  483MOL0     C66548   7.693   6.888  11.166  0.2488  0.2795  0.5789
  483MOL0     C66549   7.677   6.975  11.061  0.0270  0.2855  0.1506
  483MOL0     C66550   7.786   6.996  10.976  0.1094  0.3982  0.4408
  483MOL0     C66551   7.904   6.911  10.986 -0.8821  0.2028  0.1852
  483MOL0     O66552   8.016   6.914  10.902 -0.8347 -0.0100 -0.8177
  483MOL0     C66553   7.999   6.959  10.767  0.2373 -0.1098  0.3520
  483MOL0     C66554   8.109   6.918  10.664  0.2328 -1.0336 -1.0268
  483MOL0     C66555   8.254   6.944  10.723  0.1879 -0.1163  1.1280
  483MOL0     C66556   8.360   6.882  10.624  0.1022  0.0312  0.3945
  483MOL0     C66557   8.503   6.885  10.683  0.3989 -0.2397 -0.3956
  483MOL0     C66558   8.613   6.849  10.576 -0.3479 -0.1309 -0.2671
  483MOL0     C66559   8.749   6.905  10.609 -0.1486  0.0670 -0.3971
  483MOL0     C66560   8.850   6.840  10.515 -0.2699 -0.5660 -0.1835
  483MOL0    Cl66561   8.934   6.710  10.602 -0.1012  0.1980 -0.5029
  483MOL0     C66562   7.908   6.825  11.089 -0.7176 -0.7300  0.0935
  483MOL0     C66563   7.802   6.805  11.177 -0.4466  0.2715 -0.1246
  483MOL0     O66564   7.634   7.037  11.399 -0.4527  0.6081  0.6478
  483MOL0     C66565   7.322   6.904  11.363 -0.4984  0.0750  0.0756
  483MOL0     C66566   7.199   6.893  11.425 -1.1339  0.7194  0.4769
  483MOL0     N66567   6.408   6.902  11.646 -0.9657 -0.2566 -0.6151
  483MOL0     N66568   6.286   6.887  11.672  0.7349  0.5062 -0.1060
  483MOL0     C66569   5.308   6.625  11.547 -0.3709  0.3332  0.0761
  483MOL0     C66570   5.241   6.560  11.445  0.1132 -0.5221 -0.4495
  483MOL0     C66571   4.997   6.290  11.196 -0.1944 -0.2601 -0.6198
  483MOL0     C66572   4.902   6.219  11.274  0.5799 -0.5915  0.4176
  483MOL0     C66573   4.805   6.137  11.215  0.5169 -0.7781  0.5306
  483MOL0     C66574   4.790   6.123  11.080  0.1654 -0.4418  0.6470
  483MOL0     O66575   4.707   6.039  11.016  0.2938  0.4961 -0.4991
  483MOL0     C66576   4.601   5.979  11.088  0.9960  0.5213  0.5027
  483MOL0     C66577   4.541   5.877  10.993 -0.0287 -0.1478 -0.3962
  483MOL0     C66578   4.419   5.822  11.065  0.2269  0.9542  0.6209
  483MOL0     C66579   4.355   5.705  10.984 -0.6761 -0.6054 -0.3514
  483MOL0     C66580   4.216   5.712  11.002  0.1311 -0.2132 -0.6809
  483MOL0     C66581   4.096   5.713  11.033 -0.0947  0.7369 -0.5861
  483MOL0     C66582   4.872   6.208  11.003 -0.3840 -0.0363 -0.0732
  483MOL0     C66583   4.972   6.289  11.057 -0.1259  0.6555 -0.9559
  483MOL0     C66584   5.042   6.372  10.959 -0.2160  0.3522  0.5236
  483MOL0     H66585   5.112   6.305  11.647  1.1346 -2.1413 -1.1312
  483MOL0     H66586   5.224   6.451  11.827  2.8594  2.7428  1.1647
  483MOL0     H66587   5.500   6.517  11.876  2.0286  1.1756  2.0882
  483MOL0     H66588   5.344   6.564  11.953 -0.7160  0.4363  0.2226
  483MOL0     H66589   5.435   6.795  11.992 -1.6314 -0.9362  1.9872
  483MOL0     H66590   5.521   6.665  12.076  3.7594 -0.2262 -0.4412
  483MOL0     H66591   5.632   6.762  11.805 -0.1756 -0.5867 -0.2891
  483MOL0     H66592   5.667   6.861  11.943  0.0215  0.4496 -0.4198
  483MOL0     H66593   5.753   6.632  12.065  0.2817  0.2896 -0.1287
  483MOL0     H66594   5.745   6.562  11.908  1.1658 -1.1013  0.4658
  483MOL0     H66595   5.884   6.823  11.986 -0.8845  0.6851 -1.3095
  483MOL0     H66596   5.877   6.763  11.823  2.1769  0.3008 -0.1031
  483MOL0     H66597   6.025   6.652  12.069 -0.5664 -1.5164  0.3743
  483MOL0     H66598   5.974   6.540  11.942 -0.6684  0.3019  2.4420
  483MOL0     H66599   6.117   6.635  11.790  1.9069  1.5234 -0.7861
  483MOL0     H66600   6.211   6.614  11.942 -1.0906 -1.3100  0.7268
  483MOL0     H66601   6.070   6.876  11.845 -3.1703 -2.8175  2.6574
  483MOL0     H66602   6.194   6.875  11.973  3.6778  0.9206 -2.7429
  483MOL0     H66603   6.427   6.827  11.964 -3.2096  0.8982  1.0888
  483MOL0     H66604   6.656   6.792  11.846  1.3415  1.1257  0.6246
  483MOL0     H66605   6.645   6.972  11.827  0.6087  0.5153 -0.4297
  483MOL0     H66606   6.661   6.780  11.596 -0.7407  0.2141 -1.0146
  483MOL0     H66607   6.692   6.961  11.591 -0.0336 -0.1373  0.6953
  483MOL0     H66608   6.879   6.895  11.771  3.0137  1.2885 -1.4662
  483MOL0     H66609   6.875   6.732  11.691  0.7557  0.4771  2.2815
  483MOL0     H66610   6.944   6.790  11.493  2.4893  0.0148 -0.0770
  483MOL0     H66611   6.921   6.965  11.524  3.0572  0.5114 -0.8405
  483MOL0     H66612   7.323   6.869  11.743  1.0022 -1.9230 -0.7057
  483MOL0     H66613   7.623   7.017  11.653  2.9680 -2.3563 -2.1128
  483MOL0     H66614   7.626   6.844  11.667  0.1705 -0.0806 -1.9526
  483MOL0     H66615   7.536   6.950  11.785 -2.1212  0.0610 -0.2885
  483MOL0     H66616   7.582   7.028  11.058  0.8013  1.7179  0.0955
  483MOL0     H66617   7.781   7.076  10.903  0.6611  1.3671  1.4441
  483MOL0     H66618   7.904   6.925  10.725 -1.3701  2.1032  2.0063
  483MOL0     H66619   8.005   7.068  10.770  2.0921 -0.0988 -1.4182
  483MOL0     H66620   8.101   6.809  10.654  1.1118 -1.3308  0.9918
  483MOL0     H66621   8.084   6.974  10.574 -2.4857 -0.4370 -0.0129
  483MOL0     H66622   8.253   6.900  10.823 -1.7765  1.3567  1.8024
  483MOL0     H66623   8.290   7.047  10.727  1.7139 -0.3778 -2.1046
  483MOL0     H66624   8.350   6.937  10.530 -2.1338  0.7993  1.0199
  483MOL0     H66625   8.338   6.778  10.599  0.6120  0.4251 -1.9242
  483MOL0     H66626   8.523   6.978  10.736 -2.6812 -1.0090  2.4619
  483MOL0     H66627   8.508   6.811  10.765  0.0597 -1.0617 -1.1006
  483MOL0     H66628   8.579   6.887  10.479 -0.9743  0.0587  0.0223
  483MOL0     H66629   8.630   6.742  10.592 -0.7104 -0.4247 -1.6879
  483MOL0     H66630   8.776   6.875  10.710 -1.7900 -2.9984 -0.7402
  483MOL0     H66631   8.754   7.014  10.605  1.5055  0.0666  0.8239
  483MOL0     H66632   8.933   6.899  10.474 -0.7167 -0.5905 -1.1721
  483MOL0     H66633   8.817   6.802  10.417  0.1168 -2.2903  0.3288
  483MOL0     H66634   7.990   6.756  11.104 -0.9683 -1.8122 -2.8957
  483MOL0     H66635   7.812   6.737  11.261  0.2294  0.2913 -0.1893
  483MOL0     H66636   7.312   6.915  11.255  0.9815 -0.6921 -0.1634
  483MOL0     H66637   7.106   6.905  11.370 -1.4301  2.4196  1.2588
  483MOL0     H66638   5.354   6.717  11.514 -0.1771  0.3499  0.3832
  483MOL0     H66639   5.237   6.600  11.345 -1.0159  2.1519  0.5672
  483MOL0     H66640   4.901   6.216  11.382  0.7001 -2.2724  0.4049
  483MOL0     H66641   4.727   6.097  11.279 -1.9703  2.4574 -0.2377
  483MOL0     H66642   4.649   5.934  11.175  0.2548 -2.5087 -0.5616
  483MOL0     H66643   4.522   6.045  11.125 -1.0109 -0.2271 -2.1576
  483MOL0     H66644   4.610   5.795  10.972 -2.3987 -2.8410  1.6299
  483MOL0     H66645   4.502   5.920  10.899 -0.4136 -1.5354 -0.8896
  483MOL0     H66646   4.450   5.785  11.163 -0.9225  0.9802  1.0174
  483MOL0     H66647   4.360   5.912  11.086  0.9087  1.1819  1.6375
  483MOL0     H66648   4.387   5.606  11.019 -0.1198  0.3040  1.8909
  483MOL0     H66649   4.367   5.727  10.878  1.9241  1.5410  0.2935
  483MOL0     H66650   3.994   5.698  11.063  0.4574 -0.6341  0.7950
  483MOL0     H66651   4.854   6.217  10.897 -1.4765 -1.7026 -0.0598
  483MOL0     H66652   5.135   6.315  10.943 -1.4748 -1.5681 -0.3064
  483MOL0     H66653   5.006   6.357  10.857 -1.7800 -2.5438  1.3815
  483MOL0     H66654   5.053   6.478  10.980 -0.8609  0.5061  0.1152
  484MOL0     O66655   1.122   4.587   9.064  0.2649 -0.0755 -0.0294
  484MOL0     C66656   1.152   4.473   9.071 -0.6194 -0.1619 -0.7730
  484MOL0     O66657   1.289   4.433   9.067  0.4989  0.6241  0.3078
  484MOL0     C66658   1.373   4.531   9.015  1.0271 -0.4711 -0.2678
  484MOL0     C66659   1.406   4.642   9.086 -0.4389 -0.1074 -0.1818
  484MOL0     C66660   1.499   4.730   9.033 -0.2669  0.4723 -0.7632
  484MOL0     C66661   1.557   4.710   8.909 -0.1483 -0.5023 -0.0644
  484MOL0     O66662   1.646   4.805   8.866 -0.3753  0.0767  0.2377
  484MOL0     C66663   1.713   4.802   8.746 -0.3274  0.0723 -0.1666
  484MOL0     C66664   1.773   4.945   8.719  0.0325  0.1011 -0.3960
  484MOL0     C66665   1.859   4.954   8.598  0.2071 -0.1363 -0.2490
  484MOL0     C66666   1.945   5.077   8.602  0.3881  0.1330 -0.5823
  484MOL0     C66667   2.044   5.075   8.489  0.2150  1.3135 -0.0693
  484MOL0     C66668   2.138   5.191   8.502 -0.3160  0.0218 -0.3471
  484MOL0     C66669   2.215   5.217   8.377  0.0541  0.7965  0.4216
  484MOL0     C66670   2.313   5.332   8.395 -0.4469 -0.0746 -0.6888
  484MOL0     N66671   2.440   5.313   8.483  0.1824  0.2106 -0.5544
  484MOL0     C66672   2.515   5.410   8.534  0.9381  0.3963  0.4867
  484MOL0     C66673   2.629   5.348   8.587 -0.8594 -0.6923  0.2314
  484MOL0     C66674   2.732   5.407   8.671 -0.9197 -0.5096  0.4072
  484MOL0     C66675   2.877   5.383   8.625  0.0757  0.2526 -0.3122
  484MOL0     C66676   2.977   5.441   8.724 -0.6394  0.2093 -0.3732
  484MOL0     C66677   3.113   5.449   8.654 -0.1135  0.3172 -0.7521
  484MOL0     O66678   3.194   5.549   8.719  0.4180  0.3892  0.0308
  484MOL0     C66679   3.310   5.500   8.776 -0.2398  0.2591 -0.8174
  484MOL0     C66680   3.304   5.443   8.910 -0.0525 -0.6253  0.9640
  484MOL0     C66681   3.420   5.398   8.975  0.2288 -0.2814 -1.4781
  484MOL0     C66682   3.398   5.316   9.110  0.7412  0.3887  0.3103
  484MOL0     C66683   3.544   5.412   8.914 -0.0961  0.2902  0.0767
  484MOL0     C66684   3.679   5.374   8.973  0.3520  0.5100  0.4947
  484MOL0     O66685   3.794   5.400   8.909 -0.1439 -0.7827  0.0699
  484MOL0     C66686   3.911   5.341   8.939 -0.2286 -0.1525  0.3791
  484MOL0     C66687   4.029   5.407   8.934 -0.3182  0.6606  0.0828
  484MOL0     C66688   4.142   5.339   8.939 -0.0656  0.6345  0.5704
  484MOL0     C66689   4.157   5.201   8.963 -0.1529 -0.4467  0.3000
  484MOL0     O66690   4.286   5.145   8.957 -0.2265 -0.6024 -0.0222
  484MOL0     C66691   4.303   5.008   8.952  0.3323 -0.2092  0.3484
  484MOL0     C66692   4.442   4.975   8.999  0.6614 -0.3062 -0.8981
  484MOL0     C66693   4.544   5.034   8.894 -0.0026 -0.8878  0.9802
  484MOL0     C66694   4.689   4.997   8.943 -0.1895 -0.0178 -0.6110
  484MOL0     C66695   4.781   5.048   8.833 -0.6098 -0.0885 -0.2070
  484MOL0     C66696   4.932   5.048   8.869  0.3982 -0.2242 -0.0203
  484MOL0     C66697   5.006   5.099   8.747  0.4537 -0.2114 -0.6410
  484MOL0     C66698   5.145   5.036   8.754  1.1344 -0.7059  0.6457
  484MOL0    Cl66699   5.136   4.861   8.693  0.2447  0.0851 -0.0282
  484MOL0     C66700   4.039   5.125   8.947 -0.6060  0.2191  0.1302
  484MOL0     C66701   3.916   5.198   8.933 -0.5426  0.3509 -0.3594
  484MOL0     O66702   3.677   5.307   9.075 -0.0259 -0.0955 -0.2797
  484MOL0     C66703   3.549   5.467   8.788  0.1158 -0.0520  0.0392
  484MOL0     C66704   3.435   5.498   8.716  1.0616  0.1112  0.3311
  484MOL0     N66705   2.626   5.222   8.541 -0.1907 -0.8449  0.4598
  484MOL0     N66706   2.508   5.197   8.485 -0.6690  0.0122 -0.2752
  484MOL0     C66707   1.521   4.604   8.837  0.3822 -0.1536  0.1231
  484MOL0     C66708   1.428   4.514   8.885 -0.5249  0.9828 -0.3140
  484MOL0     C66709   1.051   4.361   9.107 -0.0136 -0.6549  0.5138
  484MOL0     C66710   1.096   4.228   9.095  0.6167 -0.1951  0.3601
  484MOL0     C66711   1.006   4.121   9.125 -1.1504 -0.2867  0.0379
  484MOL0     C66712   0.878   4.141   9.167  0.0943 -0.1005 -0.8367
  484MOL0     O66713   0.795   4.038   9.202 -0.2045 -0.2016  0.6513
  484MOL0     C66714   0.657   4.066   9.236  0.6445 -0.7277 -0.7674
  484MOL0     C66715   0.656   4.111   9.382 -0.6763 -0.5552  0.5426
  484MOL0     C66716   0.726   4.006   9.477 -0.6580  0.4595  0.5426
  484MOL0     C66717   0.650   3.886   9.521 -0.0583  0.2869 -0.4101
  484MOL0     C66718   0.523   3.922   9.593 -0.6803 -0.0777  0.0166
  484MOL0     C66719   0.416   3.957   9.638  0.0023 -0.1645 -0.3497
  484MOL0     C66720   0.841   4.283   9.176  0.4386  0.2403 -0.2341
  484MOL0     C66721   0.921   4.387   9.146 -0.7901 -0.0427 -0.1721
  484MOL0     C66722   0.858   4.528   9.150  1.0543  0.7470  0.1926
  484MOL0     H66723   1.368   4.669   9.184  1.4109 -0.0213  0.5593
  484MOL0     H66724   1.542   4.812   9.089 -0.2128 -2.1791  3.5420
  484MOL0     H66725   1.646   4.784   8.661  2.5616 -2.6112 -2.0471
  484MOL0     H66726   1.789   4.724   8.743 -1.5435 -1.3590  2.4222
  484MOL0     H66727   1.691   5.017   8.705  0.9124  1.0157 -1.0454
  484MOL0     H66728   1.822   4.975   8.811 -1.5911  0.5181  0.3812
  484MOL0     H66729   1.932   4.873   8.610  0.1211 -0.0324  1.0628
  484MOL0     H66730   1.800   4.938   8.506 -1.6638  0.5777  0.7734
  484MOL0     H66731   1.887   5.168   8.586  2.4863  1.5654 -0.4036
  484MOL0     H66732   1.998   5.084   8.698 -1.1267  0.5313  0.2553
  484MOL0     H66733   1.990   5.090   8.395 -0.1849  1.5125  0.1915
  484MOL0     H66734   2.093   4.978   8.476 -1.1812  0.5948 -0.1027
  484MOL0     H66735   2.082   5.278   8.537 -0.1612  0.0763 -0.2299
  484MOL0     H66736   2.202   5.157   8.585 -1.9396 -3.7757 -0.4495
  484MOL0     H66737   2.143   5.248   8.300 -0.6262 -0.8917  0.3389
  484MOL0     H66738   2.265   5.131   8.332 -0.3444  1.5013 -1.4843
  484MOL0     H66739   2.342   5.353   8.291 -0.4766  1.9899 -0.3186
  484MOL0     H66740   2.264   5.425   8.425 -0.6238 -0.1653 -0.6961
  484MOL0     H66741   2.478   5.510   8.553 -0.1897 -0.1871  1.4833
  484MOL0     H66742   2.717   5.365   8.771 -0.7866  2.1864  1.6460
  484MOL0     H66743   2.708   5.513   8.685  4.5093  0.7126  3.8801
  484MOL0     H66744   2.894   5.275   8.627  1.0862  0.4139  1.0889
  484MOL0     H66745   2.892   5.423   8.524  0.6298  0.8800  0.0113
  484MOL0     H66746   2.943   5.544   8.739 -1.3266  0.2868 -2.2070
  484MOL0     H66747   2.985   5.383   8.816  0.7841 -2.2282 -1.9472
  484MOL0     H66748   3.162   5.354   8.629  0.0028  0.2269 -0.1911
  484MOL0     H66749   3.113   5.491   8.553 -1.3306  1.2029 -0.3907
  484MOL0     H66750   3.204   5.430   8.950 -1.0062 -1.6003 -1.4961
  484MOL0     H66751   3.431   5.384   9.189 -0.3602  0.1512  0.9960
  484MOL0     H66752   3.445   5.217   9.112  1.9253  0.9179 -0.4377
  484MOL0     H66753   3.291   5.298   9.126  1.2454 -3.4884  0.4067
  484MOL0     H66754   4.044   5.513   8.913  3.3827  0.1556 -0.5385
  484MOL0     H66755   4.232   5.398   8.930  0.1504  0.1700 -0.5926
  484MOL0     H66756   4.232   4.956   9.017 -0.8370  0.8748 -0.0348
  484MOL0     H66757   4.290   4.978   8.848 -0.5236  0.7680  0.1645
  484MOL0     H66758   4.468   5.014   9.098 -0.8158 -2.6916  0.5413
  484MOL0     H66759   4.445   4.866   8.997  0.8691 -0.2873 -2.0469
  484MOL0     H66760   4.527   5.139   8.867  1.2858 -1.4661 -2.6252
  484MOL0     H66761   4.538   4.982   8.798  3.6325  1.6442 -0.8610
  484MOL0     H66762   4.685   4.888   8.948 -1.4428  0.0587  0.5513
  484MOL0     H66763   4.711   5.036   9.043  0.1173 -2.7095  0.4583
  484MOL0     H66764   4.765   4.986   8.745  0.4179 -0.1611 -0.3482
  484MOL0     H66765   4.753   5.147   8.797  1.2044  0.3798 -0.4034
  484MOL0     H66766   4.956   4.943   8.888  0.9443 -0.2117 -0.6097
  484MOL0     H66767   4.973   5.107   8.951  1.1813 -0.0989 -0.4909
  484MOL0     H66768   5.003   5.208   8.740  0.5623 -0.1680 -0.0258
  484MOL0     H66769   4.968   5.068   8.649 -0.5082  1.5637 -0.8632
  484MOL0     H66770   5.180   5.029   8.857 -0.2577 -2.3293  1.0505
  484MOL0     H66771   5.215   5.097   8.695 -0.4736 -0.2838 -0.9164
  484MOL0     H66772   4.028   5.019   8.928  0.3881  0.5637 -2.9449
  484MOL0     H66773   3.821   5.145   8.936  0.2336 -1.1963 -1.3510
  484MOL0     H66774   3.645   5.469   8.737  0.6900  2.3737  1.0461
  484MOL0     H66775   3.426   5.540   8.616 -0.5513 -1.1257 -0.0806
  484MOL0     H66776   1.568   4.588   8.741  1.8905  1.2355  0.5737
  484MOL0     H66777   1.396   4.427   8.828 -0.4893 -0.5254  1.8579
  484MOL0     H66778   1.194   4.202   9.056  0.0853 -1.6212 -0.0949
  484MOL0     H66779   1.046   4.021   9.112  3.6322  1.3369  0.3101
  484MOL0     H66780   0.616   4.138   9.164 -2.0374  0.8406  2.1191
  484MOL0     H66781   0.594   3.977   9.232 -2.3890  1.3077 -1.1837
  484MOL0     H66782   0.558   4.131   9.425 -0.3234 -2.3382  2.3286
  484MOL0     H66783   0.713   4.204   9.388  0.0085 -0.9084 -0.2274
  484MOL0     H66784   0.819   3.965   9.435 -0.1336  1.8901  0.2421
  484MOL0     H66785   0.755   4.055   9.571  1.2235 -0.8146  0.6902
  484MOL0     H66786   0.714   3.826   9.586 -1.2646  1.2521  1.8194
  484MOL0     H66787   0.618   3.820   9.440 -2.3303 -0.0640  0.6919
  484MOL0     H66788   0.312   3.980   9.651  0.2020 -0.4603  2.3660
  484MOL0     H66789   0.741   4.310   9.207  1.1904  0.0652  2.6241
  484MOL0     H66790   0.925   4.603   9.193  2.2258 -0.5083  0.6190
  484MOL0     H66791   0.822   4.561   9.052 -0.5156  1.3905  0.9502
  484MOL0     H66792   0.770   4.518   9.214  1.7381  0.5445  1.1234
  485MOL0     O66793   4.633   8.240   5.673  0.4785 -0.6640  0.0507
  485MOL0     C66794   4.538   8.158   5.675  0.7991 -0.0431  0.6535
  485MOL0     O66795   4.528   8.052   5.590  0.2776  0.1103  0.9010
  485MOL0     C66796   4.635   7.995   5.528  0.7533  0.2921  0.7814
  485MOL0     C66797   4.760   7.995   5.581 -0.4135 -0.4362  0.4345
  485MOL0     C66798   4.868   7.934   5.508 -0.1434  0.2146 -0.2445
  485MOL0     C66799   4.847   7.872   5.380 -0.4716 -0.1010 -0.1120
  485MOL0     O66800   4.954   7.805   5.327  0.6293 -0.3904  0.1995
  485MOL0     C66801   4.962   7.788   5.182 -0.2089 -0.0262 -0.4190
  485MOL0     C66802   5.102   7.750   5.128 -0.1070 -0.1256 -0.7827
  485MOL0     C66803   5.201   7.865   5.141 -0.7205  0.0815 -0.6140
  485MOL0     C66804   5.332   7.827   5.069 -0.1941 -0.0193 -0.4461
  485MOL0     C66805   5.438   7.933   5.099  0.0354  0.3477 -0.6142
  485MOL0     C66806   5.571   7.877   5.040  0.0271  0.2570 -0.9235
  485MOL0     C66807   5.689   7.980   5.044  0.6393  0.7408  0.1183
  485MOL0     C66808   5.684   8.094   4.934 -0.1375  0.0876 -0.0668
  485MOL0     N66809   5.812   8.160   4.922  0.0587 -0.2380  0.1056
  485MOL0     C66810   5.871   8.245   5.013  0.1391  0.1516  0.1649
  485MOL0     C66811   5.971   8.317   4.947 -0.0911  0.3751  0.5979
  485MOL0     C66812   6.071   8.420   4.994  0.4175  0.7328  0.4260
  485MOL0     C66813   6.190   8.425   4.897  0.0897  0.9212  0.6187
  485MOL0     C66814   6.302   8.529   4.941  0.1845  0.2664 -0.0409
  485MOL0     C66815   6.274   8.687   4.947 -0.0858 -0.2711  0.0877
  485MOL0     O66816   6.312   8.749   5.071  0.8833 -0.7306  0.5231
  485MOL0     C66817   6.442   8.764   5.096 -0.8962 -0.2114  0.2190
  485MOL0     C66818   6.471   8.842   5.206  0.3735 -0.9618  0.3143
  485MOL0     C66819   6.607   8.870   5.247  0.4484 -0.1000  0.3426
  485MOL0     C66820   6.621   8.974   5.361 -0.0325 -0.1532  1.3182
  485MOL0     C66821   6.713   8.803   5.177  0.5381  0.1539 -0.0875
  485MOL0     C66822   6.856   8.821   5.219  0.6358  0.4653  0.0371
  485MOL0     O66823   6.921   8.705   5.216 -0.3211 -0.2283 -0.3529
  485MOL0     C66824   7.053   8.705   5.249 -0.1037  0.4612 -0.4245
  485MOL0     C66825   7.106   8.766   5.367  0.7057 -0.1397  0.0373
  485MOL0     C66826   7.242   8.767   5.379 -0.4269 -0.3626  0.4358
  485MOL0     C66827   7.328   8.702   5.286  0.1755 -0.2409 -0.3666
  485MOL0     O66828   7.462   8.714   5.303 -0.3459  0.1915 -0.2151
  485MOL0     C66829   7.535   8.609   5.235 -0.4004 -0.1734  0.2158
  485MOL0     C66830   7.679   8.597   5.282 -0.0175 -0.0346 -0.3687
  485MOL0     C66831   7.733   8.473   5.219  0.2063  0.6028 -0.0361
  485MOL0     C66832   7.882   8.461   5.243 -1.2367 -0.7541  0.2547
  485MOL0     C66833   7.943   8.319   5.219  0.3903  0.0231 -0.0122
  485MOL0     C66834   7.964   8.228   5.339  0.5933 -0.1008  0.6256
  485MOL0     C66835   8.048   8.102   5.305  0.7902  0.1151  0.6094
  485MOL0     C66836   7.960   7.989   5.238  0.1186  0.2116 -0.9320
  485MOL0    Cl66837   7.947   8.032   5.063  0.3994 -0.1974 -0.0282
  485MOL0     C66838   7.267   8.626   5.183  0.4383  0.1362  1.1041
  485MOL0     C66839   7.131   8.627   5.166  0.4798 -0.0233  0.1681
  485MOL0     O66840   6.893   8.933   5.247 -0.0578  0.5887 -0.5969
  485MOL0     C66841   6.680   8.726   5.065 -0.3065  0.1868  0.2396
  485MOL0     C66842   6.549   8.702   5.027 -0.6558 -1.1881  0.2923
  485MOL0     N66843   5.969   8.258   4.816 -0.5542  0.0220 -0.6225
  485MOL0     N66844   5.881   8.169   4.804 -0.0274 -0.3548 -0.4672
  485MOL0     C66845   4.716   7.861   5.336  0.8823  1.0664  0.4117
  485MOL0     C66846   4.613   7.918   5.412 -0.9647 -0.1110 -0.0997
  485MOL0     C66847   4.430   8.184   5.775  0.0270  0.1116  0.0419
  485MOL0     C66848   4.318   8.109   5.772  0.2892  0.0219 -0.1142
  485MOL0     C66849   4.212   8.125   5.856 -0.5346 -0.2608 -0.2470
  485MOL0     C66850   4.226   8.217   5.963  0.1576  0.5080 -0.6006
  485MOL0     O66851   4.126   8.230   6.059  0.1648  0.3446  0.1095
  485MOL0     C66852   4.062   8.115   6.100  0.2121  0.3294 -0.8492
  485MOL0     C66853   3.954   8.160   6.192  0.5538  0.4792  0.5152
  485MOL0     C66854   3.824   8.178   6.107 -0.2290  0.2666 -0.2142
  485MOL0     C66855   3.714   8.242   6.199 -0.2874  0.6444  0.4557
  485MOL0     C66856   3.600   8.290   6.126 -0.5011  0.2374 -0.6649
  485MOL0     C66857   3.505   8.327   6.066  0.3223 -0.4054  0.3352
  485MOL0     C66858   4.335   8.300   5.966 -0.2560  0.2979  0.6475
  485MOL0     C66859   4.439   8.278   5.878 -0.4194 -0.5847 -1.0658
  485MOL0     C66860   4.551   8.373   5.896 -0.9404 -0.4695 -0.1257
  485MOL0     H66861   4.769   8.023   5.685  2.7281 -1.1953  0.4628
  485MOL0     H66862   4.964   7.925   5.557 -0.7181  2.6416  1.5260
  485MOL0     H66863   4.943   7.886   5.138  1.9352  0.0935 -1.2184
  485MOL0     H66864   4.895   7.712   5.141 -1.2285  1.0700 -0.8375
  485MOL0     H66865   5.125   7.655   5.177 -1.2055 -0.6374 -1.2276
  485MOL0     H66866   5.086   7.729   5.022  0.2190 -0.0747 -0.8433
  485MOL0     H66867   5.153   7.956   5.104  0.4646  0.8631 -0.2772
  485MOL0     H66868   5.230   7.892   5.243  1.6810 -0.0537 -1.2113
  485MOL0     H66869   5.371   7.736   5.116  1.7808  0.2639 -1.4424
  485MOL0     H66870   5.309   7.830   4.962 -4.5425 -0.2817  0.2699
  485MOL0     H66871   5.440   7.939   5.208 -1.9322 -2.6664 -0.2873
  485MOL0     H66872   5.413   8.033   5.064  0.1021  1.1423  1.4765
  485MOL0     H66873   5.599   7.780   5.083  0.3598 -0.1165 -1.9503
  485MOL0     H66874   5.543   7.852   4.937 -1.7865 -1.4238 -0.0838
  485MOL0     H66875   5.783   7.924   5.043  0.1915 -0.0966  1.4769
  485MOL0     H66876   5.692   8.029   5.141  2.5493  0.0945  0.4402
  485MOL0     H66877   5.647   8.054   4.839  2.1658 -0.5605 -0.7691
  485MOL0     H66878   5.617   8.174   4.966 -2.5923 -1.0229 -2.0583
  485MOL0     H66879   5.838   8.249   5.116 -0.1167  1.0058  0.0576
  485MOL0     H66880   6.112   8.395   5.093 -0.0586  2.0608  0.9730
  485MOL0     H66881   6.008   8.509   4.995 -0.8699 -0.0756  3.6992
  485MOL0     H66882   6.234   8.325   4.888  1.6608  1.6725 -0.5994
  485MOL0     H66883   6.163   8.448   4.794  2.6966 -0.0654 -0.3641
  485MOL0     H66884   6.329   8.481   5.035  0.0487 -1.1858 -0.7251
  485MOL0     H66885   6.380   8.506   4.867 -0.7952  1.2453 -1.4307
  485MOL0     H66886   6.327   8.736   4.865 -2.1288  1.3461 -0.3860
  485MOL0     H66887   6.168   8.705   4.923 -0.1373 -2.8235 -2.0518
  485MOL0     H66888   6.394   8.896   5.261 -1.1573 -1.5358 -1.1740
  485MOL0     H66889   6.651   8.931   5.457  1.8482  0.4873  1.0550
  485MOL0     H66890   6.524   9.024   5.374 -0.6253 -0.6749 -0.7278
  485MOL0     H66891   6.696   9.049   5.338 -1.3985  0.6201 -0.9100
  485MOL0     H66892   7.035   8.818   5.431 -0.1073 -2.0822  0.7718
  485MOL0     H66893   7.299   8.819   5.456  0.9145  2.2067 -2.0764
  485MOL0     H66894   7.495   8.507   5.242 -0.5819 -0.1807 -0.8056
  485MOL0     H66895   7.548   8.642   5.131 -0.1825 -0.1369  0.2549
  485MOL0     H66896   7.736   8.687   5.260  0.9285  0.0577  2.1565
  485MOL0     H66897   7.685   8.580   5.390 -0.8395  3.5590  0.3595
  485MOL0     H66898   7.717   8.479   5.111  1.2920 -1.4661 -0.3454
  485MOL0     H66899   7.689   8.381   5.257 -0.4268  1.0826  0.4266
  485MOL0     H66900   7.911   8.487   5.345  2.5865  0.0665 -0.8788
  485MOL0     H66901   7.935   8.521   5.168 -1.2444 -1.7389 -0.5676
  485MOL0     H66902   7.874   8.283   5.142 -0.5436 -1.8868  1.6271
  485MOL0     H66903   8.039   8.333   5.169  1.5098  0.3213  2.1105
  485MOL0     H66904   7.868   8.196   5.380 -0.1801  1.9060  0.5003
  485MOL0     H66905   8.004   8.287   5.421 -0.1043 -2.6919  2.9927
  485MOL0     H66906   8.086   8.067   5.401 -0.5793  1.9880  1.9226
  485MOL0     H66907   8.138   8.129   5.249  0.6505  3.2928  1.6873
  485MOL0     H66908   7.865   7.966   5.288 -1.6686  0.7347 -3.8260
  485MOL0     H66909   8.022   7.899   5.235 -2.7634 -2.0545  1.5345
  485MOL0     H66910   7.333   8.582   5.110 -1.5916  1.4522 -1.6980
  485MOL0     H66911   7.082   8.573   5.086 -2.0037  0.0351  1.5426
  485MOL0     H66912   6.750   8.668   5.006 -0.0121  0.0353  0.7355
  485MOL0     H66913   6.531   8.641   4.939  2.5670 -0.0825 -1.2950
  485MOL0     H66914   4.697   7.811   5.242 -1.5033  1.0378  0.8538
  485MOL0     H66915   4.510   7.911   5.377 -1.9810  3.1558  1.8263
  485MOL0     H66916   4.302   8.041   5.690 -2.2024  0.8090 -0.3847
  485MOL0     H66917   4.127   8.060   5.839 -2.1086  2.2378 -2.7432
  485MOL0     H66918   4.017   8.060   6.017 -1.8490  1.1297 -0.3373
  485MOL0     H66919   4.140   8.058   6.152 -1.6154 -1.8759 -0.3538
  485MOL0     H66920   3.974   8.251   6.250 -0.5415  1.6219 -0.8538
  485MOL0     H66921   3.936   8.080   6.265  2.7388 -0.4593  0.1082
  485MOL0     H66922   3.845   8.246   6.024 -1.2471  1.6338  0.5895
  485MOL0     H66923   3.791   8.083   6.062  3.3375 -0.6747 -1.1084
  485MOL0     H66924   3.753   8.335   6.242 -1.6843  1.5971 -0.2709
  485MOL0     H66925   3.677   8.162   6.264  1.6595 -3.4256 -2.9694
  485MOL0     H66926   3.420   8.360   6.010 -0.2607 -1.4875  0.5393
  485MOL0     H66927   4.333   8.380   6.038  0.3679  0.5042  0.4432
  485MOL0     H66928   4.525   8.456   5.963 -0.0208 -0.2454 -0.0304
  485MOL0     H66929   4.629   8.315   5.946  0.1504  0.9808 -0.0824
  485MOL0     H66930   4.598   8.431   5.816  2.5010  0.6157  2.4468
  486MOL0     O66931   4.889   4.849   8.329 -0.1973 -0.9442  0.2755
  486MOL0     C66932   4.825   4.755   8.366 -0.3700  0.2602 -0.1491
  486MOL0     O66933   4.860   4.622   8.333 -0.7723 -0.4110 -0.5727
  486MOL0     C66934   4.973   4.612   8.258  0.5660  0.2040 -0.5250
  486MOL0     C66935   5.101   4.640   8.319 -0.0300  0.8934  0.0117
  486MOL0     C66936   5.219   4.629   8.250 -0.1952  0.0626  0.1542
  486MOL0     C66937   5.217   4.589   8.118  0.2588 -0.1743 -0.2096
  486MOL0     O66938   5.329   4.571   8.045 -0.1022 -0.6055 -0.5838
  486MOL0     C66939   5.385   4.693   8.004 -0.4966 -1.1760 -0.4503
  486MOL0     C66940   5.521   4.705   8.071 -0.4158 -0.5533 -1.6045
  486MOL0     C66941   5.595   4.840   8.065  0.0884  0.0520 -0.0056
  486MOL0     C66942   5.656   4.836   7.920 -0.2172 -0.0195 -0.1780
  486MOL0     C66943   5.745   4.961   7.907 -0.4164 -0.4573  0.1547
  486MOL0     C66944   5.667   5.087   7.864  0.5748 -0.3410  0.1728
  486MOL0     C66945   5.752   5.199   7.801  0.3867 -0.8489 -0.1512
  486MOL0     C66946   5.672   5.332   7.783  0.0349 -0.2404  0.4076
  486MOL0     N66947   5.533   5.340   7.741 -0.6051  0.3501 -0.0179
  486MOL0     C66948   5.427   5.305   7.812  0.1607 -0.3697  0.1977
  486MOL0     C66949   5.327   5.326   7.720  0.3693  0.0190  0.9011
  486MOL0     C66950   5.180   5.288   7.742 -0.2448  0.5711  0.0902
  486MOL0     C66951   5.107   5.248   7.614 -0.5588 -0.6048 -0.3499
  486MOL0     C66952   5.068   5.364   7.527 -0.0119  0.5997 -0.7033
  486MOL0     C66953   5.062   5.323   7.382 -0.2913 -0.1632 -0.4076
  486MOL0     O66954   5.037   5.455   7.318 -0.4735  0.1430  0.3977
  486MOL0     C66955   5.014   5.459   7.178 -0.2955  0.0454 -0.3319
  486MOL0     C66956   4.968   5.357   7.101  0.2426 -0.5894  0.5255
  486MOL0     C66957   4.938   5.378   6.965 -0.6175  0.7173  0.3970
  486MOL0     C66958   4.906   5.255   6.883  0.6642 -0.0940 -0.0327
  486MOL0     C66959   4.934   5.512   6.911  0.1183  0.1416  0.4466
  486MOL0     C66960   4.895   5.562   6.780  0.4056 -0.1999  0.5558
  486MOL0     O66961   4.849   5.691   6.756 -0.9461 -0.0756 -0.0705
  486MOL0     C66962   4.856   5.743   6.633 -0.1643 -0.5511  0.1217
  486MOL0     C66963   4.738   5.780   6.574 -0.0834 -0.1140 -0.3584
  486MOL0     C66964   4.739   5.842   6.444  0.3006  0.6177  0.0353
  486MOL0     C66965   4.860   5.858   6.375 -0.2923  0.1245  0.6191
  486MOL0     O66966   4.864   5.931   6.257  0.7668  0.1964  0.2636
  486MOL0     C66967   4.963   6.035   6.242 -0.2176  0.0491  0.0678
  486MOL0     C66968   4.932   6.126   6.124 -0.0830 -0.0570  0.0226
  486MOL0     C66969   5.042   6.234   6.096 -0.2041  0.3998  0.0934
  486MOL0     C66970   5.166   6.162   6.033  0.0968 -0.7951 -0.0001
  486MOL0     C66971   5.247   6.267   5.948  0.0041  0.1822 -0.1313
  486MOL0     C66972   5.387   6.216   5.906  0.7494  0.4364 -0.8401
  486MOL0     C66973   5.462   6.322   5.835 -0.1168  0.1706 -0.2206
  486MOL0     C66974   5.600   6.272   5.785  0.4807 -0.4352  0.9577
  486MOL0    Cl66975   5.698   6.295   5.932 -0.2034  0.2173 -0.4986
  486MOL0     C66976   4.979   5.813   6.437  0.3821  0.4086 -0.3474
  486MOL0     C66977   4.976   5.750   6.560 -0.1293  0.4727  0.5204
  486MOL0     O66978   4.914   5.490   6.690  0.4680 -0.4199 -0.6815
  486MOL0     C66979   4.980   5.611   7.001 -0.0403  0.0183  1.2602
  486MOL0     C66980   5.020   5.588   7.126  0.2216  0.5270 -0.8616
  486MOL0     N66981   5.380   5.401   7.615 -0.1039  0.3066 -0.2783
  486MOL0     N66982   5.506   5.405   7.625  0.2289  0.0614 -0.0716
  486MOL0     C66983   5.091   4.563   8.059  0.0953 -0.0551 -0.1388
  486MOL0     C66984   4.968   4.573   8.129 -0.9107  0.2307 -0.3919
  486MOL0     C66985   4.693   4.772   8.432  0.3795  0.3824  0.3734
  486MOL0     C66986   4.613   4.654   8.443 -0.4012 -0.7486  0.9186
  486MOL0     C66987   4.490   4.654   8.497 -0.3883 -0.3471  0.2341
  486MOL0     C66988   4.437   4.775   8.541  0.9433 -0.4241 -1.1037
  486MOL0     O66989   4.298   4.779   8.577 -0.3662  0.6849 -0.1275
  486MOL0     C66990   4.216   4.656   8.579 -0.4830  0.5727  0.0369
  486MOL0     C66991   4.113   4.658   8.463  0.4189 -0.1857 -0.2736
  486MOL0     C66992   4.169   4.666   8.327  0.8706 -0.8148  0.3865
  486MOL0     C66993   4.054   4.628   8.224  0.3865 -0.2280  0.5700
  486MOL0     C66994   4.109   4.601   8.087  0.3256  0.0291  0.1089
  486MOL0     C66995   4.144   4.562   7.979 -0.1199 -0.0363  0.5495
  486MOL0     C66996   4.525   4.886   8.540  0.1184  0.5629 -0.2489
  486MOL0     C66997   4.646   4.899   8.477  0.3383  0.7147 -0.4847
  486MOL0     C66998   4.716   5.035   8.473 -0.1253  0.4049 -0.2315
  486MOL0     H66999   5.105   4.668   8.424 -1.9338  1.0337  0.0876
  486MOL0     H67000   5.315   4.650   8.296  1.5536 -1.1872 -2.6298
  486MOL0     H67001   5.326   4.785   8.016  2.0074  0.6910 -1.4587
  486MOL0     H67002   5.400   4.698   7.896 -2.2838  1.8870 -0.6747
  486MOL0     H67003   5.509   4.683   8.178  4.3098 -1.7978 -1.0969
  486MOL0     H67004   5.585   4.628   8.029  2.5561  1.4380 -1.0787
  486MOL0     H67005   5.522   4.917   8.092 -2.1971 -1.7892 -0.5672
  486MOL0     H67006   5.678   4.831   8.137 -0.4903 -1.2297  0.5426
  486MOL0     H67007   5.716   4.748   7.892 -2.5331 -1.3754 -1.1891
  486MOL0     H67008   5.579   4.821   7.843  0.2985 -1.8409 -0.4034
  486MOL0     H67009   5.810   4.932   7.824  1.9706 -0.7983  2.0430
  486MOL0     H67010   5.804   4.978   7.997 -0.8258 -1.8116  0.7172
  486MOL0     H67011   5.601   5.052   7.784 -2.2071  1.8587  1.3296
  486MOL0     H67012   5.610   5.125   7.950 -0.8087 -1.8996 -0.0079
  486MOL0     H67013   5.797   5.176   7.704 -0.9933  1.2503 -1.3532
  486MOL0     H67014   5.833   5.223   7.871  1.1426 -0.0991 -1.2440
  486MOL0     H67015   5.664   5.390   7.876  0.8578  0.9107 -0.2121
  486MOL0     H67016   5.726   5.408   7.726  0.2622 -0.0199  0.9057
  486MOL0     H67017   5.420   5.246   7.903  0.0619 -0.5074  0.1024
  486MOL0     H67018   5.134   5.375   7.790 -0.0061  1.7396 -1.6990
  486MOL0     H67019   5.172   5.196   7.801  1.3871  0.6418  0.4689
  486MOL0     H67020   5.165   5.170   7.563 -0.8449  0.2857 -2.1247
  486MOL0     H67021   5.013   5.203   7.645 -1.2569  1.4065  0.5865
  486MOL0     H67022   4.970   5.399   7.561  0.4774 -0.3400  1.9116
  486MOL0     H67023   5.144   5.441   7.538  1.0292 -0.1096 -2.5996
  486MOL0     H67024   5.152   5.271   7.349 -0.4493 -0.9543  0.3806
  486MOL0     H67025   4.984   5.250   7.356 -2.1034  0.5975  2.4306
  486MOL0     H67026   4.954   5.256   7.137 -1.8867 -0.0031  1.4380
  486MOL0     H67027   4.895   5.279   6.777 -1.7695  3.3605  0.7961
  486MOL0     H67028   4.808   5.224   6.919  0.0544  0.4384 -1.1979
  486MOL0     H67029   4.974   5.170   6.896 -1.1415 -1.7126 -0.7641
  486MOL0     H67030   4.646   5.763   6.629  0.4830 -3.7514 -0.3285
  486MOL0     H67031   4.653   5.896   6.408  0.7949 -0.3500 -2.8959
  486MOL0     H67032   4.973   6.093   6.334  0.4619 -1.2979  0.8661
  486MOL0     H67033   5.064   5.996   6.228 -0.9864 -2.2846  0.6836
  486MOL0     H67034   4.905   6.060   6.041  1.1730  0.4158 -0.7922
  486MOL0     H67035   4.840   6.177   6.153  0.3701  0.3423  0.7787
  486MOL0     H67036   5.066   6.295   6.183 -0.4114  0.9787 -0.2443
  486MOL0     H67037   4.998   6.299   6.018  1.3517 -2.9120 -3.9296
  486MOL0     H67038   5.139   6.076   5.970  0.9743 -0.8152 -0.3518
  486MOL0     H67039   5.224   6.121   6.116 -1.9997  0.8324  2.4233
  486MOL0     H67040   5.197   6.295   5.855 -0.8076 -0.1646  0.1865
  486MOL0     H67041   5.262   6.354   6.012 -2.9211  1.8290 -1.4662
  486MOL0     H67042   5.376   6.126   5.844 -0.0907 -0.4619  0.5540
  486MOL0     H67043   5.431   6.178   5.999 -2.8806  0.5279  1.0903
  486MOL0     H67044   5.471   6.410   5.898  1.0051  0.6511 -1.0186
  486MOL0     H67045   5.405   6.349   5.746 -1.7716 -1.7964  0.1498
  486MOL0     H67046   5.638   6.320   5.695 -0.3056  0.0055  0.8580
  486MOL0     H67047   5.603   6.165   5.760  1.9073  0.0318 -1.0817
  486MOL0     H67048   5.071   5.828   6.380 -0.1238  1.7467 -0.8505
  486MOL0     H67049   5.067   5.704   6.597  1.3004  2.4421 -0.3866
  486MOL0     H67050   4.982   5.713   6.964  1.5510 -0.8084 -1.2384
  486MOL0     H67051   5.039   5.681   7.179 -0.3834  0.9664 -1.3868
  486MOL0     H67052   5.085   4.523   7.958 -1.6841 -1.0487  0.3143
  486MOL0     H67053   4.871   4.552   8.084  0.7686 -1.1755 -3.6907
  486MOL0     H67054   4.637   4.556   8.403  2.8045  0.8145 -1.3907
  486MOL0     H67055   4.436   4.560   8.503 -1.5048  0.3586  2.7861
  486MOL0     H67056   4.268   4.560   8.568 -0.9303  0.2818  0.4400
  486MOL0     H67057   4.157   4.653   8.671 -1.3862 -3.1192 -0.4688
  486MOL0     H67058   4.044   4.740   8.484  0.9594  0.1357  0.2526
  486MOL0     H67059   4.054   4.566   8.476  0.6873  0.0280  3.6109
  486MOL0     H67060   4.193   4.771   8.309 -0.1675 -0.4907  0.7902
  486MOL0     H67061   4.256   4.600   8.318 -0.1873 -2.3037  0.6873
  486MOL0     H67062   3.971   4.699   8.225  1.6148  1.2835  1.9196
  486MOL0     H67063   4.002   4.537   8.256 -0.5881 -0.0454 -0.4634
  486MOL0     H67064   4.186   4.530   7.886 -2.1462  1.8392 -1.1131
  486MOL0     H67065   4.497   4.979   8.588 -0.6467 -0.4169  1.2949
  486MOL0     H67066   4.825   5.029   8.467 -0.1578  0.6879 -1.4831
  486MOL0     H67067   4.674   5.089   8.387 -0.5774 -0.0650 -0.3116
  486MOL0     H67068   4.681   5.098   8.556 -2.7669 -1.0557 -0.1271
  487MOL0     O67069  11.248   6.582   1.873  0.0781 -0.3855  0.8518
  487MOL0     C67070  11.224   6.698   1.909  0.2816 -0.9764 -0.2529
  487MOL0     O67071  11.250   6.810   1.840 -0.3453 -0.4780  0.8299
  487MOL0     C67072  11.354   6.815   1.746  0.1424 -0.4820  0.6921
  487MOL0     C67073  11.489   6.819   1.784  0.9159  0.3193 -0.4145
  487MOL0     C67074  11.590   6.820   1.687 -1.2726 -0.2972 -0.4191
  487MOL0     C67075  11.562   6.826   1.552  0.3992 -0.7398  0.3103
  487MOL0     O67076  11.648   6.838   1.443 -0.2607 -0.3405 -0.0979
  487MOL0     C67077  11.781   6.872   1.465  0.8493  0.9216 -0.2108
  487MOL0     C67078  11.875   6.855   1.348  0.3021  0.2282  0.5782
  487MOL0     C67079  12.013   6.903   1.388  0.2705  0.1505 -0.2095
  487MOL0     C67080  12.108   6.782   1.394  0.5197  0.3657  0.0691
  487MOL0     C67081  12.252   6.824   1.420 -0.6434  0.3045 -0.4828
  487MOL0     C67082  12.327   6.698   1.461 -1.3142  0.7224 -0.2409
  487MOL0     C67083  12.417   6.736   1.573 -0.3560  1.2191 -0.0793
  487MOL0     C67084  12.503   6.613   1.603  0.2016 -0.0554 -0.0281
  487MOL0     N67085  12.616   6.601   1.507  0.4288  0.5562 -0.5319
  487MOL0     C67086  12.731   6.672   1.527 -0.3300 -0.0399  0.5916
  487MOL0     C67087  12.815   6.627   1.432  0.0502 -0.2777  0.0481
  487MOL0     C67088  12.956   6.664   1.383  0.2955  0.0634 -0.7468
  487MOL0     C67089  13.020   6.779   1.460 -0.2067 -0.2921  0.5955
  487MOL0     C67090  13.156   6.813   1.397  0.3189  0.5185 -1.0424
  487MOL0     C67091  13.235   6.918   1.479 -0.7559  0.0772 -0.0137
  487MOL0     O67092  13.335   6.990   1.405 -0.1311  0.2025 -0.0595
  487MOL0     C67093  13.460   6.936   1.403  0.0824 -0.1035 -0.1610
  487MOL0     C67094  13.554   7.021   1.345  0.1179  0.2960 -0.1241
  487MOL0     C67095  13.688   6.995   1.333  0.0776 -0.3143 -0.6351
  487MOL0     C67096  13.783   7.099   1.278 -0.0655 -0.0905  0.4689
  487MOL0     C67097  13.740   6.875   1.387  0.0323  0.1369 -0.8638
  487MOL0     C67098  13.884   6.841   1.398 -0.0854  0.6524 -0.6910
  487MOL0     O67099  13.977   6.923   1.343 -0.6528 -0.1188 -0.5266
  487MOL0     C67100  14.106   6.906   1.371  0.1728 -0.9070 -0.0163
  487MOL0     C67101  14.189   7.016   1.393  0.2646  0.4220 -0.4213
  487MOL0     C67102  14.323   7.011   1.426  0.2997 -0.7138  0.3026
  487MOL0     C67103  14.389   6.885   1.418 -0.2565  0.4251 -0.4487
  487MOL0     O67104  14.524   6.865   1.447 -0.2497 -0.0598  0.4067
  487MOL0     C67105  14.598   6.955   1.532  0.2022  0.1420  0.3736
  487MOL0     C67106  14.748   6.937   1.510 -0.8680 -0.4659 -0.7535
  487MOL0     C67107  14.821   6.985   1.646 -0.0463 -0.6463  0.3735
  487MOL0     C67108  14.973   7.006   1.624 -0.2705 -0.2729 -0.3303
  487MOL0     C67109  15.042   7.039   1.755 -0.1507  0.1019 -0.1546
  487MOL0     C67110  15.192   7.035   1.730 -0.3023 -0.3860  0.2441
  487MOL0     C67111  15.273   7.050   1.861 -0.2668 -0.0209  0.1786
  487MOL0     C67112  15.425   7.034   1.826 -0.2279 -0.3251  0.2317
  487MOL0    Cl67113  15.470   7.180   1.719 -0.4905  0.1570 -0.2681
  487MOL0     C67114  14.316   6.776   1.386  0.1844 -0.4561 -0.0441
  487MOL0     C67115  14.174   6.788   1.363  0.0204  1.1891 -0.0389
  487MOL0     O67116  13.911   6.735   1.457  0.2997 -0.9960 -0.2298
  487MOL0     C67117  13.646   6.785   1.448 -0.2534  0.1193  0.1632
  487MOL0     C67118  13.506   6.814   1.453  0.1558 -0.0926  0.1480
  487MOL0     N67119  12.756   6.521   1.369  0.2932 -0.1937  0.0518
  487MOL0     N67120  12.628   6.519   1.399  1.3505 -0.0236  0.7136
  487MOL0     C67121  11.423   6.818   1.515 -0.0428  0.3657  0.8665
  487MOL0     C67122  11.319   6.814   1.613  0.2301 -0.1421 -0.1821
  487MOL0     C67123  11.135   6.718   2.028 -0.2256  0.1523 -0.2156
  487MOL0     C67124  11.107   6.848   2.074 -0.4590 -0.1665  0.3537
  487MOL0     C67125  11.008   6.881   2.169  0.0406 -0.1022  0.2559
  487MOL0     C67126  10.950   6.776   2.246  0.4960 -1.0358 -0.5219
  487MOL0     O67127  10.859   6.787   2.348  0.0920  0.0588 -0.2140
  487MOL0     C67128  10.853   6.924   2.412  0.4928 -0.2986 -0.5563
  487MOL0     C67129  10.963   6.942   2.516  0.2730  0.0577 -0.2809
  487MOL0     C67130  10.980   7.090   2.568  0.5879  0.2347 -0.6257
  487MOL0     C67131  11.107   7.084   2.663 -0.2150  0.0351  0.0118
  487MOL0     C67132  11.138   7.211   2.725 -0.0965 -0.4310 -0.0199
  487MOL0     C67133  11.171   7.305   2.796  0.1246  0.8227  0.2107
  487MOL0     C67134  10.973   6.644   2.204  0.8560  0.1709  0.0897
  487MOL0     C67135  11.069   6.614   2.106 -0.5063 -0.5673 -0.2442
  487MOL0     C67136  11.090   6.463   2.077  0.1258 -0.4879 -0.2817
  487MOL0     H67137  11.514   6.816   1.890 -0.1617  0.6362 -0.1344
  487MOL0     H67138  11.689   6.833   1.730 -1.0694  0.8089 -1.1832
  487MOL0     H67139  11.821   6.810   1.547  0.2600  0.3523 -0.3438
  487MOL0     H67140  11.780   6.975   1.500 -0.8742  1.1571 -0.8844
  487MOL0     H67141  11.881   6.755   1.304  3.4116 -0.2086  1.7718
  487MOL0     H67142  11.841   6.930   1.276  1.1497  0.1753  0.1141
  487MOL0     H67143  12.043   6.976   1.313 -0.9307  1.6267  0.6702
  487MOL0     H67144  12.006   6.961   1.480  1.5780 -0.8366  0.5387
  487MOL0     H67145  12.071   6.721   1.477 -0.0752 -0.2866 -0.6595
  487MOL0     H67146  12.101   6.727   1.300  1.1129 -0.4367  0.4888
  487MOL0     H67147  12.249   6.894   1.504  0.5946  2.5152 -2.1651
  487MOL0     H67148  12.287   6.868   1.326 -1.5180 -1.3016 -1.6117
  487MOL0     H67149  12.275   6.605   1.486 -0.3301  0.6475  1.7221
  487MOL0     H67150  12.397   6.674   1.380  1.4775 -0.8317  2.4206
  487MOL0     H67151  12.357   6.757   1.662 -1.1248 -0.3318 -0.1855
  487MOL0     H67152  12.482   6.820   1.551  1.3771  0.5830  2.2575
  487MOL0     H67153  12.529   6.618   1.709 -3.1133  1.8458  0.8342
  487MOL0     H67154  12.450   6.518   1.595  1.5502 -0.8142 -0.2519
  487MOL0     H67155  12.744   6.743   1.608  1.0548  0.5562 -0.1117
  487MOL0     H67156  12.955   6.689   1.277 -3.5253  0.8617 -0.6654
  487MOL0     H67157  13.014   6.572   1.396  0.0336  0.0808  0.7531
  487MOL0     H67158  12.949   6.859   1.439  1.1387  0.6916 -0.3685
  487MOL0     H67159  13.025   6.746   1.564  0.6013 -3.1016 -0.2473
  487MOL0     H67160  13.216   6.723   1.379 -0.6557 -0.8169  1.8000
  487MOL0     H67161  13.148   6.854   1.296 -1.5042 -0.5716 -1.3943
  487MOL0     H67162  13.170   6.991   1.528  0.1655  0.5714  0.5115
  487MOL0     H67163  13.274   6.876   1.572 -0.5220  1.7476  0.6851
  487MOL0     H67164  13.508   7.112   1.308 -1.1763 -1.6028 -3.6154
  487MOL0     H67165  13.845   7.129   1.362 -0.2647 -0.2220  0.6659
  487MOL0     H67166  13.732   7.193   1.256  0.8850  0.4872  0.6978
  487MOL0     H67167  13.838   7.065   1.189 -2.2463  0.1665 -1.0631
  487MOL0     H67168  14.143   7.113   1.378  0.1739  0.0071 -3.4076
  487MOL0     H67169  14.372   7.105   1.447  2.6212 -1.5552 -1.0570
  487MOL0     H67170  14.575   7.059   1.506  0.3932  0.0149 -0.3135
  487MOL0     H67171  14.568   6.939   1.636  1.2201  1.2493  0.8482
  487MOL0     H67172  14.772   6.835   1.480  1.9712  0.1803 -0.9703
  487MOL0     H67173  14.778   6.990   1.419 -0.9763 -0.7604 -0.9640
  487MOL0     H67174  14.815   6.914   1.729  0.5131  1.3767  2.2303
  487MOL0     H67175  14.771   7.071   1.690 -0.5317  0.4696 -2.1761
  487MOL0     H67176  14.984   7.087   1.551  0.4025 -0.8969 -0.9312
  487MOL0     H67177  15.011   6.913   1.582 -0.2577 -0.3261 -0.2026
  487MOL0     H67178  15.015   7.140   1.787  0.4061 -0.3125  1.7306
  487MOL0     H67179  15.009   6.968   1.831 -1.6809 -0.1245 -0.9907
  487MOL0     H67180  15.226   7.104   1.652  0.3012 -1.3663 -0.3899
  487MOL0     H67181  15.211   6.938   1.682  2.3078  0.0707  0.2226
  487MOL0     H67182  15.249   6.967   1.927  2.7833 -0.7263  0.5615
  487MOL0     H67183  15.247   7.148   1.901 -0.0135  0.1472 -0.0604
  487MOL0     H67184  15.441   6.937   1.778  0.5685  0.5279 -1.2656
  487MOL0     H67185  15.484   7.047   1.918 -2.3510  3.4231  1.2497
  487MOL0     H67186  14.368   6.681   1.392  1.1902  0.0314 -0.7145
  487MOL0     H67187  14.125   6.693   1.342  1.6522  0.4398 -0.7166
  487MOL0     H67188  13.677   6.703   1.512 -2.4721  0.8509  2.3205
  487MOL0     H67189  13.443   6.741   1.503  0.2821 -0.0057  0.4359
  487MOL0     H67190  11.399   6.811   1.410  2.4809  0.4784  0.2060
  487MOL0     H67191  11.213   6.821   1.591 -0.3526 -0.8586  2.1124
  487MOL0     H67192  11.167   6.924   2.025  0.3859 -0.5343  0.8034
  487MOL0     H67193  10.992   6.987   2.183 -1.0517 -0.1206 -0.7776
  487MOL0     H67194  10.839   7.004   2.340 -1.8066  0.6074  0.7834
  487MOL0     H67195  10.762   6.931   2.472  0.5133  1.2762 -0.6763
  487MOL0     H67196  11.057   6.919   2.466  0.4423 -3.0015  1.2492
  487MOL0     H67197  10.949   6.868   2.595  0.9128 -2.9292 -2.7622
  487MOL0     H67198  11.000   7.161   2.487  0.1839  0.3491 -0.6276
  487MOL0     H67199  10.884   7.115   2.613  0.1241 -1.6093 -0.5049
  487MOL0     H67200  11.199   7.056   2.610 -0.3013  0.6675 -0.4900
  487MOL0     H67201  11.105   7.010   2.743  2.0097  1.8077  1.8662
  487MOL0     H67202  11.181   7.393   2.856 -1.1333  2.2431 -1.5605
  487MOL0     H67203  10.942   6.549   2.245 -1.8615  0.3823 -1.3003
  487MOL0     H67204  11.028   6.391   2.133  0.6780 -0.5981  0.2022
  487MOL0     H67205  11.059   6.439   1.975 -1.5327 -4.1314  0.9100
  487MOL0     H67206  11.195   6.439   2.094  0.4645 -0.5673 -2.2425
  488MOL0     O67207   5.219   0.502   1.656 -0.1229  0.0892  0.0087
  488MOL0     C67208   5.180   0.613   1.620 -0.9119  0.2162  1.0008
  488MOL0     O67209   5.246   0.681   1.522 -0.2524 -0.3909 -0.1344
  488MOL0     C67210   5.371   0.638   1.469  0.0171  0.1884 -0.3206
  488MOL0     C67211   5.482   0.645   1.552  0.4544 -0.6451  0.4598
  488MOL0     C67212   5.601   0.609   1.491 -0.0683  0.0640 -0.2619
  488MOL0     C67213   5.613   0.579   1.352  0.6225  0.1102 -0.4366
  488MOL0     O67214   5.725   0.562   1.280  0.2607 -0.0355 -0.0995
  488MOL0     C67215   5.856   0.576   1.341  0.6650  0.0001 -0.1312
  488MOL0     C67216   5.966   0.585   1.239  0.3234 -0.3025 -0.5476
  488MOL0     C67217   6.104   0.588   1.305  0.1818  0.5669 -0.1284
  488MOL0     C67218   6.228   0.581   1.215  0.1880 -0.2354  0.4526
  488MOL0     C67219   6.362   0.562   1.292 -0.0186  0.0378  1.2464
  488MOL0     C67220   6.485   0.568   1.200 -0.1523 -0.4206 -0.2252
  488MOL0     C67221   6.622   0.536   1.272  0.6150  0.2728 -0.1946
  488MOL0     C67222   6.647   0.666   1.358 -0.2250  0.5071  1.0636
  488MOL0     N67223   6.762   0.649   1.446  0.1812 -0.5418  0.3119
  488MOL0     C67224   6.755   0.567   1.551  0.6422  0.1333 -0.7909
  488MOL0     C67225   6.886   0.556   1.594  0.1629  0.1620  0.0637
  488MOL0     C67226   6.925   0.455   1.696  0.4023  0.6137 -0.4957
  488MOL0     C67227   6.933   0.523   1.835 -0.7182 -0.3663  0.5298
  488MOL0     C67228   7.023   0.648   1.859  0.2261 -0.6180 -1.2530
  488MOL0     C67229   7.170   0.630   1.829  0.4688 -0.4481  0.0432
  488MOL0     O67230   7.231   0.544   1.930 -0.3880  0.2994 -0.1530
  488MOL0     C67231   7.370   0.549   1.942 -1.0445 -0.2997 -0.3371
  488MOL0     C67232   7.432   0.479   2.045  0.1333 -0.4027  0.1784
  488MOL0     C67233   7.571   0.479   2.066  0.1696 -0.7694  0.0611
  488MOL0     C67234   7.613   0.392   2.175 -0.5354 -0.2082 -0.6215
  488MOL0     C67235   7.654   0.566   1.990  0.0235  0.2476 -0.5852
  488MOL0     C67236   7.809   0.596   2.002 -0.6607  0.2502 -0.1070
  488MOL0     O67237   7.872   0.651   1.892  0.0235  0.4560 -0.3905
  488MOL0     C67238   8.003   0.700   1.909  0.2453 -0.6120 -0.1885
  488MOL0     C67239   8.036   0.800   2.001  0.1409 -0.4683 -0.1502
  488MOL0     C67240   8.168   0.831   2.019  0.4642  0.0635 -0.2041
  488MOL0     C67241   8.269   0.780   1.935  0.7220 -0.0421 -1.0690
  488MOL0     O67242   8.396   0.821   1.953 -0.0573  0.0706 -0.9400
  488MOL0     C67243   8.510   0.734   1.943  0.2213  0.4173  0.6991
  488MOL0     C67244   8.629   0.786   2.015 -0.1494 -0.1311 -0.9126
  488MOL0     C67245   8.761   0.702   2.017 -0.2525 -0.2318 -0.0664
  488MOL0     C67246   8.868   0.766   2.105 -0.4291 -0.0648  0.3649
  488MOL0     C67247   8.996   0.695   2.104 -0.2134  0.5582 -0.3147
  488MOL0     C67248   9.089   0.758   2.209 -0.4152 -1.0713 -0.0059
  488MOL0     C67249   9.234   0.709   2.197  0.8903  0.6582 -0.4755
  488MOL0     C67250   9.345   0.810   2.229  0.3758  0.0139 -0.0703
  488MOL0    Cl67251   9.499   0.756   2.159 -0.5348  0.1048 -0.3118
  488MOL0     C67252   8.232   0.708   1.824 -1.1979  0.3393  0.4313
  488MOL0     C67253   8.100   0.655   1.817 -0.0578  1.1680 -1.2126
  488MOL0     O67254   7.865   0.558   2.108  0.0276  0.6496  0.6206
  488MOL0     C67255   7.588   0.634   1.884  0.7491 -0.1959  0.0910
  488MOL0     C67256   7.449   0.628   1.855 -0.6463 -0.1187 -0.6563
  488MOL0     N67257   6.964   0.630   1.502  1.2995  0.1023 -0.3510
  488MOL0     N67258   6.889   0.682   1.418  0.0227 -0.0501 -0.1914
  488MOL0     C67259   5.497   0.587   1.272  0.5000  0.0908 -0.6585
  488MOL0     C67260   5.368   0.608   1.332 -0.9760 -0.0007 -0.0412
  488MOL0     C67261   5.051   0.676   1.667 -0.3773 -0.7306  0.1605
  488MOL0     C67262   5.002   0.784   1.596  0.5321  0.2326  0.1812
  488MOL0     C67263   4.886   0.851   1.639  0.1624  0.2017 -0.1316
  488MOL0     C67264   4.819   0.821   1.760 -0.5649  0.1548 -0.1278
  488MOL0     O67265   4.709   0.899   1.799  0.2457  0.2742  0.3680
  488MOL0     C67266   4.616   0.852   1.895 -0.8466  0.6148 -0.8817
  488MOL0     C67267   4.662   0.891   2.035 -0.6470 -0.3695  0.4126
  488MOL0     C67268   4.561   0.867   2.144  0.7233 -0.5354 -0.6877
  488MOL0     C67269   4.493   0.732   2.156 -0.6678  0.0260  0.5598
  488MOL0     C67270   4.362   0.749   2.225 -0.7158  0.3819  0.7821
  488MOL0     C67271   4.261   0.752   2.287  0.0735 -0.1787  0.4361
  488MOL0     C67272   4.872   0.711   1.828  0.2842 -0.7011 -0.3291
  488MOL0     C67273   4.985   0.642   1.790  0.7637 -0.8651 -0.8427
  488MOL0     C67274   5.028   0.524   1.881  0.1300  0.3918 -0.2072
  488MOL0     H67275   5.467   0.676   1.655 -0.5670 -0.6044  0.3061
  488MOL0     H67276   5.692   0.623   1.549 -0.2690 -0.0728  0.0859
  488MOL0     H67277   5.876   0.486   1.401 -0.6396  0.6384  1.3213
  488MOL0     H67278   5.853   0.655   1.417 -3.9207 -0.9385  0.9394
  488MOL0     H67279   5.964   0.497   1.175 -0.1705  0.4590 -1.6190
  488MOL0     H67280   5.950   0.673   1.175 -1.0205  0.2691  0.5152
  488MOL0     H67281   6.105   0.670   1.377 -2.4548  0.1296  0.5071
  488MOL0     H67282   6.108   0.509   1.381  2.0130  0.3109 -0.4379
  488MOL0     H67283   6.211   0.488   1.159 -2.9641 -0.9291  2.3315
  488MOL0     H67284   6.228   0.666   1.147 -0.3885 -2.0417 -1.9644
  488MOL0     H67285   6.354   0.463   1.338 -0.3722 -1.1360 -1.1701
  488MOL0     H67286   6.367   0.639   1.369  2.7045  0.5246  0.6902
  488MOL0     H67287   6.472   0.503   1.112 -4.0611 -1.5476  0.9607
  488MOL0     H67288   6.498   0.668   1.157  0.7345  0.3786  1.7953
  488MOL0     H67289   6.703   0.507   1.205 -0.3569  1.5988 -2.0329
  488MOL0     H67290   6.606   0.451   1.339  0.1596  0.1228 -0.4852
  488MOL0     H67291   6.685   0.740   1.287  1.9707  0.1959  1.8424
  488MOL0     H67292   6.555   0.707   1.401 -1.2055 -1.9011  1.4136
  488MOL0     H67293   6.673   0.514   1.598  2.1843  0.3102  2.3292
  488MOL0     H67294   7.022   0.413   1.668  0.0540 -0.0319 -0.7742
  488MOL0     H67295   6.854   0.372   1.704  1.5365 -0.1911  3.3393
  488MOL0     H67296   6.833   0.555   1.867 -1.5218 -2.0873 -0.1494
  488MOL0     H67297   6.973   0.451   1.908 -1.3206  1.1719  2.4640
  488MOL0     H67298   6.978   0.729   1.801  1.8764  2.4454  1.4249
  488MOL0     H67299   7.030   0.667   1.967 -0.6570 -3.2357 -0.6551
  488MOL0     H67300   7.171   0.576   1.733  1.6331 -0.3316 -0.0243
  488MOL0     H67301   7.217   0.727   1.814 -0.1501 -0.3658 -1.6238
  488MOL0     H67302   7.363   0.417   2.103  0.6402  0.2178  1.4844
  488MOL0     H67303   7.640   0.292   2.139  1.9484  0.5491 -1.0171
  488MOL0     H67304   7.540   0.398   2.257 -1.3155  3.8010 -1.3807
  488MOL0     H67305   7.702   0.426   2.228  0.2822 -1.5777 -1.0546
  488MOL0     H67306   7.960   0.834   2.071  0.2228  2.7307 -1.4283
  488MOL0     H67307   8.198   0.889   2.106  0.0394  2.4029 -1.5244
  488MOL0     H67308   8.476   0.637   1.982 -1.4026  0.8209  0.3544
  488MOL0     H67309   8.540   0.719   1.839 -1.3777 -1.1647  0.4177
  488MOL0     H67310   8.658   0.884   1.975  2.0463 -0.4808 -0.2930
  488MOL0     H67311   8.593   0.796   2.117 -0.4280  3.8121 -1.2430
  488MOL0     H67312   8.801   0.672   1.920  1.3563 -0.6791  0.6987
  488MOL0     H67313   8.733   0.606   2.064 -1.4008  0.3845  0.5627
  488MOL0     H67314   8.847   0.772   2.212  2.4827  1.2251  0.9707
  488MOL0     H67315   8.879   0.866   2.062 -0.1604 -0.5023 -0.6216
  488MOL0     H67316   8.982   0.588   2.124  1.1447  0.5233  0.6408
  488MOL0     H67317   9.041   0.693   2.004 -0.2990  1.7106 -0.3929
  488MOL0     H67318   9.057   0.732   2.310 -0.0600 -1.0105  0.1212
  488MOL0     H67319   9.075   0.866   2.212 -1.6734 -1.1970 -0.4091
  488MOL0     H67320   9.252   0.666   2.097 -2.4578 -0.0162 -0.9125
  488MOL0     H67321   9.244   0.617   2.255  0.5837  0.7142 -0.3308
  488MOL0     H67322   9.343   0.804   2.338 -0.3914 -2.9580 -0.1591
  488MOL0     H67323   9.319   0.911   2.197 -0.4199 -0.3036 -0.4577
  488MOL0     H67324   8.302   0.663   1.754 -3.0929 -1.3639 -0.5039
  488MOL0     H67325   8.067   0.573   1.754  0.1285 -1.5169  1.8763
  488MOL0     H67326   7.643   0.708   1.828  1.7509  0.1424  1.4899
  488MOL0     H67327   7.407   0.693   1.778  0.0106 -0.5711 -1.4103
  488MOL0     H67328   5.491   0.566   1.166 -0.7106  1.4414 -0.8793
  488MOL0     H67329   5.280   0.616   1.269 -0.6389  0.3125 -0.4788
  488MOL0     H67330   5.047   0.807   1.500  0.9182 -2.1111 -0.2612
  488MOL0     H67331   4.856   0.935   1.577 -1.7291 -0.3433 -0.0144
  488MOL0     H67332   4.514   0.889   1.879 -1.4737 -1.7765 -3.0892
  488MOL0     H67333   4.607   0.743   1.902 -0.7031  0.7043  1.3096
  488MOL0     H67334   4.711   0.988   2.031 -2.2030  0.4585  0.6535
  488MOL0     H67335   4.737   0.817   2.064  0.6545  0.0538 -1.7438
  488MOL0     H67336   4.604   0.883   2.244 -1.4570  0.2407  0.1911
  488MOL0     H67337   4.483   0.940   2.121  1.8851 -0.0724 -3.5677
  488MOL0     H67338   4.565   0.667   2.208  0.8429  1.2003  0.0372
  488MOL0     H67339   4.476   0.681   2.061  2.7008  0.5652 -0.4796
  488MOL0     H67340   4.171   0.774   2.341  0.8462 -1.2556  2.2756
  488MOL0     H67341   4.828   0.692   1.926 -1.4959 -3.0483 -1.4908
  488MOL0     H67342   5.035   0.441   1.811 -0.3298  1.9503 -2.2016
  488MOL0     H67343   5.117   0.537   1.943 -2.1658  2.1965  3.0612
  488MOL0     H67344   4.953   0.514   1.960  1.0585  0.3419  0.6972
  489MOL0     O67345  10.073   7.831   6.985 -0.3992 -0.5162 -0.3407
  489MOL0     C67346  10.001   7.934   6.966 -0.0752  0.4104  0.0012
  489MOL0     O67347  10.046   8.064   6.953  0.0274  0.3427  0.3185
  489MOL0     C67348  10.179   8.086   6.935 -0.2039  0.9198 -0.3922
  489MOL0     C67349  10.259   8.116   7.043  0.2956 -0.1429 -1.2255
  489MOL0     C67350  10.393   8.165   7.023  0.0636  0.4469  0.2452
  489MOL0     C67351  10.442   8.166   6.892 -0.1262  0.3955 -0.0981
  489MOL0     O67352  10.567   8.202   6.856 -0.6067  0.0954  0.3265
  489MOL0     C67353  10.674   8.117   6.913 -0.6821  0.6470 -0.0629
  489MOL0     C67354  10.811   8.176   6.877  0.6072  0.3478  0.1249
  489MOL0     C67355  10.940   8.101   6.926  0.1155  0.3315  1.2513
  489MOL0     C67356  11.070   8.133   6.841  0.3333 -0.7902 -0.5662
  489MOL0     C67357  11.191   8.056   6.886 -0.8193 -0.8974 -0.2856
  489MOL0     C67358  11.236   8.095   7.023  0.2861 -0.3483 -0.4918
  489MOL0     C67359  11.376   8.038   7.051 -0.0006  0.1343 -0.4529
  489MOL0     C67360  11.415   8.033   7.203 -0.6758 -0.4748  0.4061
  489MOL0     N67361  11.531   7.941   7.222  0.3351 -0.5538 -0.1850
  489MOL0     C67362  11.559   7.810   7.183  0.1853  0.0626 -0.3935
  489MOL0     C67363  11.692   7.796   7.228  0.2784  0.1373  0.2285
  489MOL0     C67364  11.785   7.678   7.215 -0.8679  0.0070 -0.3983
  489MOL0     C67365  11.720   7.546   7.278 -0.7440 -0.4067 -0.5963
  489MOL0     C67366  11.784   7.410   7.227  0.0830  0.5974  0.5986
  489MOL0     C67367  11.770   7.301   7.335  0.4932  0.2023  0.6014
  489MOL0     O67368  11.817   7.349   7.463 -0.5383 -0.5814  0.0216
  489MOL0     C67369  11.957   7.346   7.489  0.2905  0.5877  0.5248
  489MOL0     C67370  11.991   7.424   7.598 -0.0337  0.0308  0.6836
  489MOL0     C67371  12.122   7.437   7.649  0.0921  0.7289  1.1938
  489MOL0     C67372  12.135   7.538   7.762 -0.0003  0.6261  0.2458
  489MOL0     C67373  12.229   7.374   7.575 -0.4938  0.5243  0.5320
  489MOL0     C67374  12.376   7.384   7.609 -0.4295 -0.3735 -0.6484
  489MOL0     O67375  12.464   7.297   7.545  0.1045  0.1785 -0.1131
  489MOL0     C67376  12.601   7.309   7.559 -0.2788 -0.1063 -0.6546
  489MOL0     C67377  12.664   7.189   7.552 -0.6931 -0.3165  0.8157
  489MOL0     C67378  12.798   7.180   7.568 -1.0047  0.0323 -0.0587
  489MOL0     C67379  12.877   7.296   7.580  0.1423 -0.2339  0.5177
  489MOL0     O67380  13.016   7.270   7.581  0.5377 -0.5385 -0.5185
  489MOL0     C67381  13.105   7.376   7.534  0.4133 -0.0081 -0.0518
  489MOL0     C67382  13.242   7.328   7.496  0.1943  0.2676  0.0895
  489MOL0     C67383  13.234   7.240   7.374 -0.0520  0.4256  0.2228
  489MOL0     C67384  13.375   7.169   7.360 -0.5235 -0.0041  0.1938
  489MOL0     C67385  13.374   7.096   7.226  0.2339  0.9846 -0.8861
  489MOL0     C67386  13.503   7.020   7.215 -0.5029  0.8294 -0.7819
  489MOL0     C67387  13.533   7.003   7.069  0.2514  0.1483 -0.8948
  489MOL0     C67388  13.620   6.884   7.045 -0.2617 -0.4443  0.8570
  489MOL0    Cl67389  13.635   6.852   6.869 -0.0446  0.0387 -0.1030
  489MOL0     C67390  12.820   7.422   7.577  1.0222  0.0319 -0.3896
  489MOL0     C67391  12.681   7.427   7.569 -0.1786  1.3017  0.0936
  489MOL0     O67392  12.411   7.459   7.699  0.1298  0.3920  0.3922
  489MOL0     C67393  12.194   7.300   7.463  0.0302 -0.0359  0.0005
  489MOL0     C67394  12.063   7.282   7.419 -0.0102 -0.1018 -0.5304
  489MOL0     N67395  11.729   7.912   7.285 -0.1784 -0.3454 -0.7153
  489MOL0     N67396  11.643   8.006   7.282  0.6177  0.4530  0.5093
  489MOL0     C67397  10.354   8.150   6.785 -0.4755 -0.0714  0.5183
  489MOL0     C67398  10.225   8.096   6.803 -0.5514  0.4140  0.4731
  489MOL0     C67399   9.855   7.910   6.985  0.3480 -0.5299 -0.6160
  489MOL0     C67400   9.772   8.013   7.035  0.3582  0.6706  0.3236
  489MOL0     C67401   9.638   8.006   7.043 -0.3119  0.2603  0.1811
  489MOL0     C67402   9.574   7.889   7.005  0.5975  0.3932  0.6974
  489MOL0     O67403   9.439   7.867   7.027  0.0104  0.6325 -0.4904
  489MOL0     C67404   9.360   7.969   7.095  0.5256 -0.3047  0.2274
  489MOL0     C67405   9.226   7.913   7.119  0.4200 -0.0628  0.0757
  489MOL0     C67406   9.115   8.009   7.174  0.4178  0.6745 -0.3432
  489MOL0     C67407   9.160   8.108   7.277 -0.4367  0.0313 -0.3657
  489MOL0     C67408   9.209   8.233   7.221  0.2229  0.4217 -0.7163
  489MOL0     C67409   9.267   8.326   7.162  0.1312 -0.5656  0.3076
  489MOL0     C67410   9.653   7.781   6.952 -0.2449 -0.3725 -0.3889
  489MOL0     C67411   9.791   7.797   6.938  0.2788 -1.0441  0.1186
  489MOL0     C67412   9.865   7.698   6.851 -0.3332 -0.4816  0.3293
  489MOL0     H67413  10.219   8.098   7.143 -0.6105 -0.9013 -1.7129
  489MOL0     H67414  10.453   8.185   7.110 -1.2015  0.7388  1.0800
  489MOL0     H67415  10.666   8.028   6.850  2.2004  0.2502 -0.0300
  489MOL0     H67416  10.669   8.085   7.017 -0.0202 -0.9112 -0.4882
  489MOL0     H67417  10.814   8.199   6.770  2.1459  0.0255  0.0729
  489MOL0     H67418  10.811   8.272   6.928 -2.0029 -0.0003  0.9102
  489MOL0     H67419  10.968   8.122   7.030 -0.0072 -3.6882  2.2515
  489MOL0     H67420  10.915   7.995   6.922  1.9536 -0.1273  0.9632
  489MOL0     H67421  11.066   8.130   6.732  2.1412 -1.3719 -0.6590
  489MOL0     H67422  11.090   8.239   6.860 -1.1006 -0.6997  0.6546
  489MOL0     H67423  11.272   8.066   6.813  0.1116  0.4584  0.8724
  489MOL0     H67424  11.157   7.952   6.892  0.3541 -1.2255  0.8723
  489MOL0     H67425  11.230   8.204   7.024 -0.2361 -0.3375 -1.8884
  489MOL0     H67426  11.162   8.056   7.093 -1.6987  4.1263  0.2233
  489MOL0     H67427  11.451   8.098   7.000  1.1595 -2.4580 -2.0207
  489MOL0     H67428  11.377   7.933   7.019  0.1573 -0.3690  1.0910
  489MOL0     H67429  11.437   8.132   7.244  4.1441 -1.1782  0.0692
  489MOL0     H67430  11.332   7.990   7.260 -0.1780 -1.3037  0.5328
  489MOL0     H67431  11.496   7.743   7.126  0.9187 -1.6339  0.7370
  489MOL0     H67432  11.889   7.691   7.247  0.7013 -3.9012 -3.1569
  489MOL0     H67433  11.795   7.661   7.107  0.7492 -0.9580 -0.1420
  489MOL0     H67434  11.728   7.554   7.387  1.0855  4.1509 -0.8271
  489MOL0     H67435  11.616   7.544   7.245 -0.9820  1.5966 -0.1409
  489MOL0     H67436  11.739   7.379   7.133 -0.4798  1.0456  0.7113
  489MOL0     H67437  11.893   7.416   7.215  0.1519 -0.1910  0.7836
  489MOL0     H67438  11.665   7.271   7.338  1.2742 -2.7958  1.1959
  489MOL0     H67439  11.822   7.213   7.297 -1.1703 -1.9299  2.9391
  489MOL0     H67440  11.909   7.479   7.643  1.1888  3.7374 -1.2409
  489MOL0     H67441  12.039   7.561   7.809 -0.7895 -3.7058  1.2218
  489MOL0     H67442  12.174   7.633   7.725  1.4740  0.0188  0.1660
  489MOL0     H67443  12.211   7.503   7.833  0.3971 -1.0297 -0.9412
  489MOL0     H67444  12.615   7.092   7.542  1.8591 -1.5106 -1.1704
  489MOL0     H67445  12.846   7.083   7.576 -2.3151 -0.5455  1.2200
  489MOL0     H67446  13.067   7.423   7.443 -0.2142 -0.5385 -0.0694
  489MOL0     H67447  13.111   7.449   7.615 -1.3640 -1.3279  1.3646
  489MOL0     H67448  13.296   7.416   7.461 -0.3604  0.0236 -1.4723
  489MOL0     H67449  13.288   7.279   7.582  2.6448 -0.1120 -1.3348
  489MOL0     H67450  13.216   7.294   7.281 -0.2261  1.5994  0.9173
  489MOL0     H67451  13.157   7.163   7.373 -0.1148  0.4649 -1.8066
  489MOL0     H67452  13.400   7.094   7.435  0.1871  0.2192  0.1850
  489MOL0     H67453  13.455   7.242   7.349  1.5723 -2.0933  0.8635
  489MOL0     H67454  13.288   7.028   7.223  0.3847  0.7847 -0.6997
  489MOL0     H67455  13.357   7.175   7.152  0.9701  2.9191  0.9329
  489MOL0     H67456  13.489   6.920   7.256  0.2159  0.4066 -1.5187
  489MOL0     H67457  13.584   7.066   7.273 -1.7163 -0.0707  1.7613
  489MOL0     H67458  13.558   7.105   7.038 -2.1210  1.0573 -0.1087
  489MOL0     H67459  13.439   6.978   7.019 -0.5471  1.3465 -0.0612
  489MOL0     H67460  13.587   6.797   7.102  0.4517 -0.9701  0.4767
  489MOL0     H67461  13.717   6.912   7.087  0.9279 -0.4295 -1.7273
  489MOL0     H67462  12.863   7.521   7.587 -4.1286  2.3567  2.5245
  489MOL0     H67463  12.626   7.521   7.565  0.0443  1.4289  0.0011
  489MOL0     H67464  12.274   7.255   7.405  0.8272 -1.3316  1.9875
  489MOL0     H67465  12.034   7.222   7.334 -0.9672 -0.1694 -0.1727
  489MOL0     H67466  10.392   8.161   6.684  0.1147 -0.4284  0.6950
  489MOL0     H67467  10.151   8.088   6.724  0.8219  1.3681 -0.9698
  489MOL0     H67468   9.812   8.114   7.036 -0.8670  1.1733 -0.0619
  489MOL0     H67469   9.587   8.100   7.060 -1.5209  0.2667 -2.8636
  489MOL0     H67470   9.409   7.985   7.192  2.4513 -1.8787 -0.3932
  489MOL0     H67471   9.346   8.057   7.032  1.1572 -1.7209 -2.0171
  489MOL0     H67472   9.242   7.825   7.181  0.5084 -0.2709 -0.2429
  489MOL0     H67473   9.195   7.878   7.021  0.3384  1.8407 -0.6195
  489MOL0     H67474   9.062   8.053   7.090 -1.3939 -2.3290 -0.9186
  489MOL0     H67475   9.036   7.949   7.221  1.0294  0.6065  0.6451
  489MOL0     H67476   9.235   8.066   7.345  1.1972  0.6730 -1.7055
  489MOL0     H67477   9.077   8.139   7.341  0.9521  0.9391  1.0654
  489MOL0     H67478   9.308   8.394   7.090 -3.1449  1.5294  0.2242
  489MOL0     H67479   9.617   7.686   6.915 -0.8440 -0.3335  0.0695
  489MOL0     H67480   9.795   7.656   6.777  0.0688 -0.4807 -0.0576
  489MOL0     H67481   9.952   7.740   6.800 -1.0712  0.8045  0.0845
  489MOL0     H67482   9.898   7.620   6.920 -2.0042  0.2514  2.0374
  490MOL0     O67483   8.293   6.109   3.801  0.8787  0.5157  0.5183
  490MOL0     C67484   8.231   6.061   3.705  0.4253  0.1061 -0.2228
  490MOL0     O67485   8.276   5.951   3.633  0.0270 -0.3752 -0.3590
  490MOL0     C67486   8.404   5.907   3.654  0.3935 -0.1632 -0.4558
  490MOL0     C67487   8.474   5.868   3.543  0.2263  0.0207 -0.9791
  490MOL0     C67488   8.603   5.799   3.561  0.4633 -0.4255  0.1034
  490MOL0     C67489   8.649   5.748   3.683  0.1415 -0.4810  0.4076
  490MOL0     O67490   8.753   5.667   3.696  0.4458  0.0463  0.2609
  490MOL0     C67491   8.863   5.676   3.610 -0.8566 -0.7768  0.6430
  490MOL0     C67492   8.974   5.575   3.652 -0.1028  0.4934  0.3750
  490MOL0     C67493   9.004   5.576   3.802 -0.3519  0.1105 -0.3644
  490MOL0     C67494   9.139   5.504   3.833 -0.4278  0.8762 -0.3936
  490MOL0     C67495   9.227   5.575   3.933 -0.3132 -0.1727  0.0131
  490MOL0     C67496   9.358   5.491   3.947 -0.3254 -0.1997  0.1845
  490MOL0     C67497   9.465   5.574   4.025  0.0534 -0.1290  0.3270
  490MOL0     C67498   9.583   5.472   4.061  0.7637  0.4821  0.0569
  490MOL0     N67499   9.649   5.514   4.191 -0.0506  0.4217  0.9041
  490MOL0     C67500   9.763   5.586   4.204 -0.6608  0.1737 -0.3661
  490MOL0     C67501   9.787   5.590   4.336  1.1649  0.2065  0.0196
  490MOL0     C67502   9.919   5.652   4.388 -0.3612  0.0099 -0.6796
  490MOL0     C67503  10.041   5.571   4.355 -0.2031 -0.7400  0.3593
  490MOL0     C67504  10.173   5.643   4.396 -0.0519  0.7045  0.1389
  490MOL0     C67505  10.297   5.602   4.319  0.5219  0.0890 -0.0934
  490MOL0     O67506  10.408   5.672   4.384 -0.6900  0.1592  0.7211
  490MOL0     C67507  10.532   5.656   4.340  0.9241 -0.6354 -0.9646
  490MOL0     C67508  10.625   5.753   4.372  0.6854  0.3401  0.0586
  490MOL0     C67509  10.760   5.753   4.331  0.4574  0.2820  0.9262
  490MOL0     C67510  10.837   5.876   4.362 -0.1372  0.1733  0.1218
  490MOL0     C67511  10.807   5.647   4.251 -0.1877  0.8044 -0.6793
  490MOL0     C67512  10.952   5.639   4.196  0.4887 -0.1477 -0.0306
  490MOL0     O67513  10.986   5.525   4.133 -0.6823  0.4360 -0.0497
  490MOL0     C67514  11.100   5.505   4.054  0.9585 -0.7891 -0.1243
  490MOL0     C67515  11.179   5.391   4.065 -0.3107  0.1082 -0.1127
  490MOL0     C67516  11.305   5.372   4.005  0.1393 -0.5988  0.2991
  490MOL0     C67517  11.354   5.470   3.923  0.8264 -0.5378  0.4812
  490MOL0     O67518  11.468   5.466   3.845 -0.4336 -0.9833  0.0123
  490MOL0     C67519  11.522   5.337   3.830 -0.4472 -0.3143 -0.3981
  490MOL0     C67520  11.603   5.327   3.693  0.2361 -0.8396  0.0032
  490MOL0     C67521  11.661   5.178   3.659 -0.4986  0.7326 -0.4350
  490MOL0     C67522  11.753   5.103   3.760 -0.3953 -0.5025  0.5202
  490MOL0     C67523  11.887   5.165   3.773  0.4512  0.3447  0.2859
  490MOL0     C67524  11.962   5.161   3.635 -0.0018 -0.0220  0.1393
  490MOL0     C67525  12.109   5.205   3.656  0.0152  0.4342 -0.3799
  490MOL0     C67526  12.182   5.220   3.523  0.0530  0.0740  0.6498
  490MOL0    Cl67527  12.219   5.064   3.439 -0.2023  0.0980  0.3689
  490MOL0     C67528  11.278   5.586   3.907  0.6031  0.1402  0.3185
  490MOL0     C67529  11.153   5.611   3.976 -0.2128 -0.3691  0.6276
  490MOL0     O67530  11.017   5.743   4.198 -0.1003  0.5997 -0.2273
  490MOL0     C67531  10.711   5.540   4.218  0.0765 -0.0253 -0.1395
  490MOL0     C67532  10.579   5.551   4.263  0.0983  0.7202  0.4715
  490MOL0     N67533   9.690   5.516   4.402  0.3032 -0.8413  0.4403
  490MOL0     N67534   9.605   5.480   4.312 -1.4536 -0.0741 -0.2272
  490MOL0     C67535   8.572   5.795   3.792  0.3126  0.0814  0.5727
  490MOL0     C67536   8.456   5.871   3.781  0.5850 -0.7407 -0.3451
  490MOL0     C67537   8.089   6.089   3.688 -1.4868 -1.6663 -0.6142
  490MOL0     C67538   8.022   6.125   3.803 -0.1992 -0.4795 -0.0387
  490MOL0     C67539   7.885   6.157   3.789  0.1836 -0.4513  0.0488
  490MOL0     C67540   7.815   6.178   3.676 -0.3086  0.3365  1.0684
  490MOL0     O67541   7.678   6.210   3.681 -0.7172 -0.1179 -1.2173
  490MOL0     C67542   7.601   6.209   3.563  0.5221  0.3006 -0.1719
  490MOL0     C67543   7.453   6.262   3.593 -0.7600  0.1023 -0.0615
  490MOL0     C67544   7.406   6.379   3.514 -0.2733 -0.8305 -0.4876
  490MOL0     C67545   7.254   6.389   3.510 -0.1384 -0.5453 -1.1580
  490MOL0     C67546   7.201   6.448   3.639 -0.6604 -0.1614  0.2928
  490MOL0     C67547   7.165   6.492   3.751 -0.0620  0.4768  0.1113
  490MOL0     C67548   7.889   6.137   3.558  0.6774  0.2073 -0.3956
  490MOL0     C67549   8.016   6.086   3.570  0.4057 -0.0633  0.0596
  490MOL0     C67550   8.083   6.050   3.443  0.8257  0.1101 -0.9057
  490MOL0     H67551   8.428   5.894   3.448 -1.3062  1.6358  0.1303
  490MOL0     H67552   8.645   5.764   3.467 -1.0171  0.9624 -1.1603
  490MOL0     H67553   8.895   5.780   3.604 -3.6664  0.0765 -1.0155
  490MOL0     H67554   8.832   5.641   3.512 -0.8473 -0.2794  0.4618
  490MOL0     H67555   8.959   5.476   3.609  1.1873  1.4746 -2.6269
  490MOL0     H67556   9.069   5.610   3.608  0.2596  2.9006  2.7948
  490MOL0     H67557   9.009   5.679   3.838 -1.3601 -1.1596  3.9538
  490MOL0     H67558   8.920   5.530   3.854 -0.6175  0.1249 -0.7724
  490MOL0     H67559   9.117   5.408   3.880  3.6518  1.6363  3.6878
  490MOL0     H67560   9.194   5.493   3.739  1.9015 -1.0477  1.0981
  490MOL0     H67561   9.180   5.595   4.030  0.5238 -2.6040  1.0115
  490MOL0     H67562   9.249   5.675   3.894  2.2560 -1.9271 -3.6248
  490MOL0     H67563   9.340   5.405   4.012  4.2231 -2.8917 -1.6214
  490MOL0     H67564   9.395   5.463   3.848  3.5358  3.0982  0.4334
  490MOL0     H67565   9.418   5.621   4.111  1.9017  0.8816  0.8392
  490MOL0     H67566   9.509   5.656   3.967  0.4904 -0.1709  0.5964
  490MOL0     H67567   9.545   5.371   4.071 -0.3832  1.1151  3.2754
  490MOL0     H67568   9.647   5.485   3.973 -1.8839  1.3837 -1.8568
  490MOL0     H67569   9.831   5.630   4.132  0.7797  0.5931  1.1888
  490MOL0     H67570   9.912   5.660   4.497  0.9843  2.7630 -0.7179
  490MOL0     H67571   9.922   5.754   4.347 -0.1151 -0.2718 -1.3596
  490MOL0     H67572  10.037   5.476   4.409  3.4766  0.0157  2.2687
  490MOL0     H67573  10.044   5.559   4.246  0.1344  2.1025 -0.0218
  490MOL0     H67574  10.150   5.748   4.377 -3.2537 -0.3711 -3.0705
  490MOL0     H67575  10.196   5.617   4.500 -2.7640  2.3343  1.2534
  490MOL0     H67576  10.317   5.495   4.330  0.5910  0.0985 -0.1267
  490MOL0     H67577  10.275   5.626   4.215 -0.5332 -0.1592  0.0596
  490MOL0     H67578  10.591   5.839   4.428 -0.4070  0.1750 -0.3133
  490MOL0     H67579  10.928   5.835   4.409  0.0703 -0.4497 -0.8033
  490MOL0     H67580  10.786   5.941   4.434 -0.8090  0.1838 -0.3628
  490MOL0     H67581  10.850   5.939   4.274  1.2652 -2.4899 -1.7602
  490MOL0     H67582  11.147   5.309   4.129  1.7970  0.6312  1.7070
  490MOL0     H67583  11.361   5.281   4.020  0.9741 -0.1580 -0.0987
  490MOL0     H67584  11.590   5.316   3.914  2.1582  0.5890 -2.1623
  490MOL0     H67585  11.447   5.258   3.819  1.1257 -1.7955 -0.9874
  490MOL0     H67586  11.547   5.357   3.604 -1.7476 -1.6039  0.9388
  490MOL0     H67587  11.686   5.399   3.688  0.8514 -1.5572 -0.1885
  490MOL0     H67588  11.706   5.178   3.560  1.4616 -2.7813  0.2654
  490MOL0     H67589  11.578   5.111   3.631 -0.6717  1.5861 -2.0774
  490MOL0     H67590  11.759   5.003   3.717 -0.3994 -0.1995 -0.1908
  490MOL0     H67591  11.710   5.098   3.861  0.1682  1.2903  0.8848
  490MOL0     H67592  11.882   5.267   3.811  0.7925  0.0096  1.2614
  490MOL0     H67593  11.939   5.107   3.850  0.2768  1.3665  1.1953
  490MOL0     H67594  11.927   5.227   3.555 -2.3628 -1.3705 -0.0466
  490MOL0     H67595  11.961   5.060   3.591 -0.1035 -0.7329  1.7088
  490MOL0     H67596  12.162   5.127   3.711  1.9884 -0.0204 -2.7255
  490MOL0     H67597  12.107   5.292   3.721 -1.5141 -0.8304  1.3772
  490MOL0     H67598  12.277   5.260   3.557  0.2021 -0.4569  0.8733
  490MOL0     H67599  12.141   5.288   3.448  1.1638 -1.6348 -1.6446
  490MOL0     H67600  11.317   5.665   3.842  1.2486 -1.2233 -1.0167
  490MOL0     H67601  11.096   5.702   3.958  0.1664 -0.2853 -0.2244
  490MOL0     H67602  10.740   5.453   4.161 -1.7162  0.5881 -2.1222
  490MOL0     H67603  10.510   5.476   4.226 -1.4643  0.8135  2.9374
  490MOL0     H67604   8.596   5.754   3.889  1.7198 -0.2742  0.0916
  490MOL0     H67605   8.398   5.896   3.868 -0.2158  0.4535 -1.1967
  490MOL0     H67606   8.061   6.117   3.903  2.5332 -3.8156 -1.1562
  490MOL0     H67607   7.828   6.185   3.878 -0.6770 -0.3653 -0.5174
  490MOL0     H67608   7.652   6.268   3.487  1.3664 -0.4946 -0.2415
  490MOL0     H67609   7.591   6.103   3.537 -1.2655  0.3673  0.1689
  490MOL0     H67610   7.444   6.271   3.701  1.6409 -0.1650  0.2053
  490MOL0     H67611   7.390   6.178   3.560  1.1949 -1.3441 -0.2579
  490MOL0     H67612   7.452   6.472   3.549 -1.5070 -1.1250  2.1090
  490MOL0     H67613   7.428   6.367   3.407 -0.1956 -2.2447 -0.3249
  490MOL0     H67614   7.204   6.294   3.489 -2.7723  1.1238 -3.0528
  490MOL0     H67615   7.221   6.454   3.428 -1.8322 -0.7141 -0.6383
  490MOL0     H67616   7.119   6.534   3.838 -0.3980 -0.7641  0.5550
  490MOL0     H67617   7.827   6.144   3.470 -0.9582  0.7003  0.7497
  490MOL0     H67618   8.190   6.070   3.442  1.0706 -1.0856 -0.9618
  490MOL0     H67619   8.068   5.944   3.420 -2.8851  0.9734 -3.3999
  490MOL0     H67620   8.025   6.101   3.366 -1.9132  0.6873  1.3473
  491MOL0     O67621   9.524   8.402   3.094 -0.0132  0.3094 -0.7175
  491MOL0     C67622   9.433   8.332   3.141 -0.2016  0.3764 -0.4797
  491MOL0     O67623   9.447   8.233   3.232 -0.7238  0.3323  0.3017
  491MOL0     C67624   9.569   8.191   3.277  0.0090 -0.6689  0.4276
  491MOL0     C67625   9.688   8.179   3.209  0.3439  0.4352  1.3499
  491MOL0     C67626   9.806   8.141   3.271 -0.2455  0.0683 -0.5281
  491MOL0     C67627   9.804   8.123   3.412 -0.2822 -0.3156 -0.4054
  491MOL0     O67628   9.911   8.109   3.488 -0.2014  0.0318  0.1108
  491MOL0     C67629  10.042   8.127   3.437 -0.0654 -0.1646  0.3128
  491MOL0     C67630  10.144   8.099   3.557  0.2035 -0.0862  0.9152
  491MOL0     C67631  10.283   8.147   3.521 -0.8816 -0.1880 -0.2121
  491MOL0     C67632  10.298   8.304   3.531 -0.5401 -0.1698 -0.6775
  491MOL0     C67633  10.439   8.346   3.549  1.1324 -0.2928 -0.2451
  491MOL0     C67634  10.480   8.346   3.698  0.2057 -0.0934  0.6182
  491MOL0     C67635  10.624   8.374   3.710 -0.4082 -0.8380  0.6373
  491MOL0     C67636  10.648   8.348   3.858 -0.3795 -0.0749  0.3458
  491MOL0     N67637  10.760   8.432   3.914  0.2453 -0.2096 -0.3598
  491MOL0     C67638  10.892   8.424   3.873 -0.5801  0.1204  0.5439
  491MOL0     C67639  10.966   8.523   3.932  0.0196 -0.0306 -0.4197
  491MOL0     C67640  11.112   8.535   3.923  0.2343  0.2394  1.1346
  491MOL0     C67641  11.173   8.461   4.046 -0.5383  0.9909 -0.3436
  491MOL0     C67642  11.330   8.464   4.033  0.3121  0.2580 -0.1366
  491MOL0     C67643  11.391   8.370   4.134  0.4770 -0.4251 -0.8050
  491MOL0     O67644  11.530   8.399   4.150 -0.6737  0.1823 -0.1514
  491MOL0     C67645  11.602   8.364   4.268  0.6591  0.1771 -0.5423
  491MOL0     C67646  11.743   8.376   4.274  0.1652  0.5019 -0.0424
  491MOL0     C67647  11.819   8.323   4.383  0.6434 -0.7564  0.5936
  491MOL0     C67648  11.967   8.356   4.368 -0.4432  0.3161 -0.8140
  491MOL0     C67649  11.753   8.250   4.480 -0.4912 -0.2434 -0.4045
  491MOL0     C67650  11.817   8.204   4.605 -0.0195  0.3922 -0.3137
  491MOL0     O67651  11.946   8.236   4.649  0.7110 -0.4402  0.4142
  491MOL0     C67652  12.004   8.210   4.770 -0.2334  0.2846  0.3629
  491MOL0     C67653  12.110   8.296   4.807  0.6545 -0.2153 -0.1787
  491MOL0     C67654  12.180   8.271   4.924 -0.0201  0.3725 -0.4510
  491MOL0     C67655  12.164   8.154   5.002  0.9113  0.4982 -0.1736
  491MOL0     O67656  12.231   8.122   5.113 -0.0383  0.1836 -0.3661
  491MOL0     C67657  12.344   8.197   5.144 -1.4953 -0.7782 -0.3162
  491MOL0     C67658  12.390   8.143   5.280 -0.0272  0.3517 -0.1425
  491MOL0     C67659  12.300   8.192   5.389  0.1419 -0.4308 -0.1239
  491MOL0     C67660  12.380   8.287   5.484  0.0437  0.9516  0.9790
  491MOL0     C67661  12.295   8.345   5.604  0.2216  0.8582  0.6001
  491MOL0     C67662  12.144   8.354   5.580  0.8222  0.0677 -0.5964
  491MOL0     C67663  12.075   8.442   5.684  0.0418  0.1912  0.3296
  491MOL0     C67664  11.928   8.462   5.643  0.6973  0.4701  0.0764
  491MOL0    Cl67665  11.837   8.555   5.771  0.3554  0.5623 -0.1919
  491MOL0     C67666  12.061   8.069   4.959 -0.3551  0.2370  0.2220
  491MOL0     C67667  11.978   8.101   4.854 -0.4592  0.4500 -0.8783
  491MOL0     O67668  11.744   8.137   4.679 -0.1840  0.3389  0.8619
  491MOL0     C67669  11.612   8.234   4.471 -0.3965 -0.8809  0.4031
  491MOL0     C67670  11.537   8.302   4.374  0.1040 -0.2948  0.0940
  491MOL0     N67671  10.884   8.588   4.018 -0.1877 -0.1753 -0.2352
  491MOL0     N67672  10.764   8.538   4.010  0.2031  0.7913  0.3552
  491MOL0     C67673   9.682   8.127   3.479  0.2464 -0.1557 -0.0738
  491MOL0     C67674   9.571   8.164   3.416  0.2290 -0.5626  0.1569
  491MOL0     C67675   9.297   8.369   3.098  0.0848 -0.5598 -0.1189
  491MOL0     C67676   9.194   8.366   3.189 -0.3587  0.2613 -0.5641
  491MOL0     C67677   9.063   8.401   3.155  0.5805  0.3314 -0.4730
  491MOL0     C67678   9.020   8.443   3.028  0.2156 -0.2548 -0.7536
  491MOL0     O67679   8.901   8.499   2.991  0.2238  0.1576  0.6900
  491MOL0     C67680   8.804   8.495   3.092  0.1372  0.3015 -0.3667
  491MOL0     C67681   8.661   8.516   3.033  0.0076 -0.1471 -0.2779
  491MOL0     C67682   8.658   8.599   2.908 -0.3573 -0.2731 -0.0688
  491MOL0     C67683   8.509   8.633   2.873 -0.4621  0.4182 -0.4601
  491MOL0     C67684   8.511   8.725   2.760  0.5741  0.0358  0.1782
  491MOL0     C67685   8.493   8.809   2.667  0.0441 -0.1904 -0.1090
  491MOL0     C67686   9.127   8.447   2.934 -0.4975 -0.5902 -0.6553
  491MOL0     C67687   9.257   8.412   2.970 -0.1938  0.3725  0.1413
  491MOL0     C67688   9.353   8.425   2.857  0.7900  0.1155  0.3141
  491MOL0     H67689   9.680   8.216   3.107  0.2235  1.8965  1.8745
  491MOL0     H67690   9.894   8.125   3.210 -0.2479 -1.6104 -0.1527
  491MOL0     H67691  10.059   8.228   3.399 -0.0356 -0.9400 -1.9306
  491MOL0     H67692  10.055   8.056   3.354  0.6349  0.1706  0.1219
  491MOL0     H67693  10.107   8.123   3.657  0.8492 -2.0939  1.6818
  491MOL0     H67694  10.150   7.990   3.559 -1.6490 -0.2099  3.0368
  491MOL0     H67695  10.353   8.107   3.596 -2.1463 -0.4855  0.8591
  491MOL0     H67696  10.313   8.112   3.422  1.0131  1.5967 -0.3320
  491MOL0     H67697  10.256   8.343   3.438  0.4599  1.1621 -0.6008
  491MOL0     H67698  10.241   8.351   3.612  1.0204  0.7551 -0.0731
  491MOL0     H67699  10.445   8.448   3.510  2.3243 -0.3035 -0.1404
  491MOL0     H67700  10.500   8.283   3.483  2.3033  1.0828 -0.5378
  491MOL0     H67701  10.410   8.403   3.759 -2.3787 -2.0037 -0.3549
  491MOL0     H67702  10.470   8.243   3.736 -0.4776 -1.5550 -3.0385
  491MOL0     H67703  10.631   8.481   3.687  0.3330 -0.6053  1.8733
  491MOL0     H67704  10.685   8.315   3.642 -1.1597 -1.1352  0.2112
  491MOL0     H67705  10.560   8.389   3.909 -0.8801 -0.5400 -0.1306
  491MOL0     H67706  10.670   8.242   3.871  3.2194  0.2170 -1.9306
  491MOL0     H67707  10.945   8.347   3.819  0.2759  2.2640 -1.8970
  491MOL0     H67708  11.131   8.643   3.924 -3.1837  0.9685  2.4389
  491MOL0     H67709  11.137   8.488   3.827 -0.5303 -0.8830  1.4633
  491MOL0     H67710  11.142   8.491   4.147 -1.4712  0.2527 -0.3994
  491MOL0     H67711  11.145   8.356   4.032  1.0917  0.3472  0.7844
  491MOL0     H67712  11.367   8.445   3.932  0.9347 -0.7755  0.2697
  491MOL0     H67713  11.364   8.566   4.052  0.9970 -0.2466  1.5453
  491MOL0     H67714  11.335   8.384   4.227  1.3842  0.0249 -0.3167
  491MOL0     H67715  11.379   8.262   4.118  0.6019 -1.1763  3.0799
  491MOL0     H67716  11.787   8.408   4.180  2.4353 -2.5832 -0.1798
  491MOL0     H67717  12.024   8.267   4.396 -1.6309  0.1780  1.3971
  491MOL0     H67718  11.991   8.438   4.436 -0.7029 -1.0067  0.9490
  491MOL0     H67719  11.995   8.399   4.272 -2.5338  1.1231 -1.0922
  491MOL0     H67720  12.149   8.375   4.743  2.6519 -0.5948  0.4821
  491MOL0     H67721  12.260   8.338   4.954 -2.0728  2.8039 -0.0453
  491MOL0     H67722  12.408   8.193   5.055 -2.0730  1.2404 -0.8901
  491MOL0     H67723  12.322   8.303   5.163 -0.7684 -0.3953 -1.5258
  491MOL0     H67724  12.387   8.033   5.274  1.9426  0.1741  1.2865
  491MOL0     H67725  12.494   8.175   5.294  0.9185 -2.4736 -0.0249
  491MOL0     H67726  12.277   8.098   5.440  0.4738 -1.4144 -1.7478
  491MOL0     H67727  12.214   8.246   5.349 -0.5776 -0.3378  1.4505
  491MOL0     H67728  12.421   8.370   5.426  0.4115 -0.3997 -0.7859
  491MOL0     H67729  12.460   8.227   5.527 -0.4959 -2.5648 -2.3893
  491MOL0     H67730  12.315   8.271   5.682  3.5630  0.4527 -0.5115
  491MOL0     H67731  12.323   8.441   5.646 -2.7472  1.8872  0.4563
  491MOL0     H67732  12.096   8.256   5.569 -0.6881  0.6855  0.1491
  491MOL0     H67733  12.131   8.406   5.484  1.8116  1.6770  0.0913
  491MOL0     H67734  12.123   8.540   5.690 -0.4429  0.4283  0.3358
  491MOL0     H67735  12.088   8.384   5.776  1.1190 -1.4684 -0.8114
  491MOL0     H67736  11.884   8.362   5.640 -1.4013  1.2477  2.0271
  491MOL0     H67737  11.923   8.502   5.542  1.2168  0.7040  0.1380
  491MOL0     H67738  12.044   7.975   5.011  1.6548  0.4377  1.3660
  491MOL0     H67739  11.889   8.041   4.837  0.8642 -1.3888 -1.5925
  491MOL0     H67740  11.557   8.169   4.538 -0.8343 -2.0068 -1.0018
  491MOL0     H67741  11.431   8.279   4.386 -0.5390  1.0101 -2.4121
  491MOL0     H67742   9.676   8.117   3.587  0.6637 -0.6887 -0.0924
  491MOL0     H67743   9.475   8.179   3.465  0.1803  1.0080 -0.3626
  491MOL0     H67744   9.215   8.324   3.287  1.3933  1.6453 -0.2954
  491MOL0     H67745   8.996   8.413   3.240  1.9579 -0.3736  0.7621
  491MOL0     H67746   8.785   8.407   3.154 -0.0451 -0.4096 -1.4041
  491MOL0     H67747   8.824   8.573   3.166  2.8119 -1.1296  0.5451
  491MOL0     H67748   8.609   8.574   3.110  0.5041  1.2953 -1.0124
  491MOL0     H67749   8.603   8.423   3.033 -3.2525  1.7000  1.7176
  491MOL0     H67750   8.719   8.687   2.931  2.5516 -2.3254  0.6649
  491MOL0     H67751   8.712   8.539   2.834  0.6164 -0.3542  0.6857
  491MOL0     H67752   8.464   8.670   2.965  0.7781  1.1519 -0.1189
  491MOL0     H67753   8.457   8.539   2.854  2.3298 -1.1394 -1.0359
  491MOL0     H67754   8.484   8.885   2.592 -0.5889  0.5852  0.7176
  491MOL0     H67755   9.086   8.485   2.841 -0.5078 -0.4800 -0.6066
  491MOL0     H67756   9.391   8.327   2.826 -0.9365 -1.0331  1.6563
  491MOL0     H67757   9.315   8.471   2.765 -0.5781 -0.7269  0.4330
  491MOL0     H67758   9.441   8.485   2.880  0.0695  0.7643  1.4760
  492MOL0     O67759   1.281   1.426   8.983  0.1869  0.5437  0.7554
  492MOL0     C67760   1.264   1.491   8.882 -0.4075  0.3379  0.0781
  492MOL0     O67761   1.361   1.544   8.805  0.4816  0.2972  0.7380
  492MOL0     C67762   1.493   1.504   8.803  0.0574 -0.0271  0.7121
  492MOL0     C67763   1.584   1.585   8.737  0.1541 -0.2556 -0.8459
  492MOL0     C67764   1.718   1.557   8.736  0.0872 -0.0622  0.0090
  492MOL0     C67765   1.769   1.444   8.800 -0.5202 -0.1809 -0.3965
  492MOL0     O67766   1.907   1.405   8.798 -0.0085 -0.1043  0.0410
  492MOL0     C67767   2.009   1.507   8.806  0.7469 -0.1205  0.2909
  492MOL0     C67768   2.146   1.444   8.794  0.2221 -0.4411 -0.1055
  492MOL0     C67769   2.189   1.354   8.914 -0.6888 -0.0423 -0.3025
  492MOL0     C67770   2.310   1.279   8.870  0.1231 -0.2033 -0.0605
  492MOL0     C67771   2.291   1.139   8.807  0.4813  0.6348  0.4586
  492MOL0     C67772   2.424   1.082   8.740  0.2083 -0.2405 -0.0517
  492MOL0     C67773   2.405   0.948   8.672 -0.3673  0.1203  0.4330
  492MOL0     C67774   2.433   0.823   8.763  0.5056  0.6353 -0.1919
  492MOL0     N67775   2.571   0.824   8.814 -0.9388 -0.6399  0.6125
  492MOL0     C67776   2.673   0.849   8.725  0.3909  0.6180  0.0506
  492MOL0     C67777   2.785   0.833   8.802 -0.7173  0.3824 -0.0721
  492MOL0     C67778   2.925   0.817   8.740 -0.7363  0.3552 -0.1758
  492MOL0     C67779   3.034   0.783   8.842 -0.4749 -0.1798 -0.3487
  492MOL0     C67780   3.175   0.783   8.787  0.8507 -0.2329  0.1776
  492MOL0     C67781   3.275   0.812   8.897  0.6243 -0.0207 -0.1394
  492MOL0     O67782   3.284   0.711   8.998  0.1731  0.0504  0.7817
  492MOL0     C67783   3.399   0.701   9.063  0.0191  0.1172 -0.3788
  492MOL0     C67784   3.442   0.577   9.102 -0.0558  0.2118 -0.6163
  492MOL0     C67785   3.549   0.560   9.190  0.2876 -0.8526 -1.2407
  492MOL0     C67786   3.575   0.424   9.239  0.0418  0.5771  0.9267
  492MOL0     C67787   3.642   0.665   9.224 -0.0921  0.1939  0.1526
  492MOL0     C67788   3.772   0.660   9.282 -1.5852 -0.4217  0.2024
  492MOL0     O67789   3.819   0.777   9.347  0.2744  0.4120 -0.3125
  492MOL0     C67790   3.935   0.765   9.420 -0.0696 -0.4981  0.3230
  492MOL0     C67791   3.934   0.712   9.550  0.0310 -0.2877  0.6004
  492MOL0     C67792   4.049   0.709   9.630 -0.2061  0.4057  0.1812
  492MOL0     C67793   4.172   0.750   9.573  0.6633  0.1753  0.1130
  492MOL0     O67794   4.288   0.753   9.650  0.2065  0.1350  0.3324
  492MOL0     C67795   4.403   0.677   9.594 -0.5364 -0.9839  0.3001
  492MOL0     C67796   4.540   0.738   9.617 -0.5323  0.5017  0.0689
  492MOL0     C67797   4.593   0.703   9.761 -0.9988  0.3151 -0.2106
  492MOL0     C67798   4.651   0.824   9.838  0.7955  0.1803 -0.1847
  492MOL0     C67799   4.706   0.769   9.979  0.4180 -0.4337  0.6754
  492MOL0     C67800   4.834   0.697   9.952  0.3686  0.5404 -0.5185
  492MOL0     C67801   4.904   0.638  10.077  0.5882  0.2554  0.4694
  492MOL0     C67802   5.038   0.576  10.030 -0.6257 -0.2298  0.3477
  492MOL0    Cl67803   5.164   0.705  10.001  0.0071 -0.4464  0.4247
  492MOL0     C67804   4.172   0.810   9.448 -0.9963  0.6618 -0.2402
  492MOL0     C67805   4.060   0.819   9.366  0.3815 -0.0052  0.4092
  492MOL0     O67806   3.850   0.557   9.265  0.3344 -0.0195 -0.0929
  492MOL0     C67807   3.599   0.792   9.176  0.9733 -0.3713  1.1575
  492MOL0     C67808   3.472   0.810   9.115 -0.3185  0.5192 -0.4172
  492MOL0     N67809   2.748   0.802   8.934 -0.4801  0.2544 -0.4554
  492MOL0     N67810   2.623   0.794   8.937 -0.1482 -0.9270 -0.1792
  492MOL0     C67811   1.674   1.352   8.852 -0.3052 -0.0296 -0.1045
  492MOL0     C67812   1.537   1.376   8.849 -0.8340 -0.2033  0.0666
  492MOL0     C67813   1.124   1.525   8.854 -0.5970  0.0087 -0.3830
  492MOL0     C67814   1.100   1.663   8.813  0.2625  0.3836  0.1911
  492MOL0     C67815   0.970   1.718   8.803 -0.0297 -0.2114 -0.5999
  492MOL0     C67816   0.853   1.634   8.817 -0.4688  0.1002 -0.1524
  492MOL0     O67817   0.718   1.671   8.808 -0.4695  0.7197  0.5876
  492MOL0     C67818   0.685   1.805   8.762 -0.1575 -0.2611 -0.0702
  492MOL0     C67819   0.537   1.839   8.780  0.8145 -0.3202 -0.3696
  492MOL0     C67820   0.446   1.730   8.735 -0.2356 -0.0005  0.9475
  492MOL0     C67821   0.297   1.754   8.778  0.5544 -0.7528 -0.0035
  492MOL0     C67822   0.209   1.653   8.722  0.1084 -0.6224  1.6299
  492MOL0     C67823   0.135   1.585   8.652 -0.4648  0.0964 -0.1414
  492MOL0     C67824   0.881   1.502   8.850 -0.9650  0.4252  0.5485
  492MOL0     C67825   1.008   1.445   8.869  0.3081  0.3992 -0.3347
  492MOL0     C67826   1.032   1.297   8.906  0.6666  0.8583  0.0308
  492MOL0     H67827   1.545   1.673   8.686  1.1519  1.1874  0.7891
  492MOL0     H67828   1.786   1.632   8.698  0.0312  1.6068  2.8608
  492MOL0     H67829   1.993   1.561   8.900 -1.5123 -1.7880  0.9644
  492MOL0     H67830   2.014   1.576   8.722  0.5763 -2.8741 -2.1362
  492MOL0     H67831   2.135   1.380   8.705  0.7204  0.6098 -0.9363
  492MOL0     H67832   2.213   1.525   8.766 -1.3891  1.0227  0.1491
  492MOL0     H67833   2.214   1.399   9.011  2.1713 -2.9981  0.5095
  492MOL0     H67834   2.104   1.288   8.936 -2.1013  1.2677 -1.6548
  492MOL0     H67835   2.361   1.337   8.792  1.8400 -0.0565  1.1203
  492MOL0     H67836   2.382   1.274   8.952  1.2080  2.2978 -0.7579
  492MOL0     H67837   2.209   1.141   8.735 -0.4529 -0.2866  1.4620
  492MOL0     H67838   2.265   1.067   8.885  2.8867  0.3342  1.0619
  492MOL0     H67839   2.444   1.151   8.657  1.7508 -1.6473 -0.9183
  492MOL0     H67840   2.507   1.091   8.811 -1.8424  0.3422  2.4135
  492MOL0     H67841   2.465   0.950   8.580 -0.6424  2.6112  0.2243
  492MOL0     H67842   2.304   0.940   8.629 -0.3938 -3.1329  0.8656
  492MOL0     H67843   2.353   0.823   8.838 -0.7286 -1.9085 -1.3685
  492MOL0     H67844   2.411   0.727   8.716 -1.6034  1.5513 -1.2068
  492MOL0     H67845   2.669   0.851   8.616  1.6876 -0.2915 -0.0352
  492MOL0     H67846   2.946   0.909   8.685 -0.9983 -1.0879 -2.8140
  492MOL0     H67847   2.910   0.737   8.667 -1.6157  1.0581 -0.7936
  492MOL0     H67848   3.031   0.858   8.922 -1.6428 -0.9631  0.3719
  492MOL0     H67849   3.015   0.689   8.894 -3.8008  0.5293 -0.0809
  492MOL0     H67850   3.201   0.688   8.739  1.2480  0.0630 -0.2006
  492MOL0     H67851   3.187   0.864   8.715 -1.4653 -2.1109 -2.5390
  492MOL0     H67852   3.374   0.826   8.852  0.8666 -0.9685  0.0810
  492MOL0     H67853   3.256   0.912   8.936 -0.6470 -0.0135 -0.7243
  492MOL0     H67854   3.381   0.492   9.073  0.2216  0.0673 -0.7704
  492MOL0     H67855   3.617   0.424   9.340  0.2274 -2.1959  0.9212
  492MOL0     H67856   3.640   0.375   9.166 -0.8288  0.5257  0.1612
  492MOL0     H67857   3.480   0.368   9.240 -0.5182  1.3937 -1.3277
  492MOL0     H67858   3.836   0.675   9.578  0.2475 -1.1552  0.2333
  492MOL0     H67859   4.040   0.693   9.736  1.5120 -0.2318  0.2593
  492MOL0     H67860   4.403   0.577   9.637 -0.5830 -0.3931  1.7460
  492MOL0     H67861   4.374   0.673   9.489 -0.7276 -2.0375  0.3875
  492MOL0     H67862   4.603   0.706   9.534 -0.2750  0.4514  0.2843
  492MOL0     H67863   4.532   0.847   9.617 -1.5690  0.4501 -1.6565
  492MOL0     H67864   4.669   0.627   9.740 -1.2202  0.2910 -0.9736
  492MOL0     H67865   4.524   0.642   9.819  1.2347 -0.8983  1.3209
  492MOL0     H67866   4.565   0.891   9.853  1.9877  1.1829  2.7440
  492MOL0     H67867   4.729   0.882   9.789 -0.6999  3.3907  0.9442
  492MOL0     H67868   4.721   0.846  10.055 -2.0132  0.1788  0.6242
  492MOL0     H67869   4.634   0.699  10.023 -0.2481 -0.9164 -1.0904
  492MOL0     H67870   4.906   0.769   9.911  1.4967  0.1433  0.6852
  492MOL0     H67871   4.816   0.613   9.885  0.8881 -0.6150  0.7404
  492MOL0     H67872   4.845   0.551  10.106 -0.0893  1.5010  3.0679
  492MOL0     H67873   4.921   0.710  10.158  1.9917  2.3221 -1.5122
  492MOL0     H67874   5.027   0.519   9.938  3.5896 -1.8774  0.6254
  492MOL0     H67875   5.073   0.509  10.109 -1.5848  1.5761  2.4100
  492MOL0     H67876   4.260   0.859   9.406  0.1022 -0.7817  0.2829
  492MOL0     H67877   4.063   0.870   9.271 -1.8716 -0.7002 -0.0970
  492MOL0     H67878   3.662   0.880   9.177  1.8205 -0.9502  0.1201
  492MOL0     H67879   3.438   0.912   9.097  0.9303  1.4696  2.1506
  492MOL0     H67880   1.711   1.267   8.908 -1.1627 -0.0896  0.3854
  492MOL0     H67881   1.470   1.296   8.880 -0.3438 -1.0862 -1.0684
  492MOL0     H67882   1.181   1.733   8.795  0.8567  0.1227  1.7169
  492MOL0     H67883   0.960   1.820   8.765 -0.4111 -0.5697 -1.4907
  492MOL0     H67884   0.742   1.873   8.826 -1.7594  0.8013  0.3112
  492MOL0     H67885   0.717   1.820   8.659  2.7064 -0.9528  0.6280
  492MOL0     H67886   0.513   1.926   8.717  0.8404 -1.3284 -1.8227
  492MOL0     H67887   0.510   1.859   8.884 -1.0403  0.2743 -0.9313
  492MOL0     H67888   0.454   1.724   8.626  0.9047 -1.1127  1.0755
  492MOL0     H67889   0.480   1.633   8.773 -0.5023 -0.8855 -0.9731
  492MOL0     H67890   0.250   1.844   8.739 -1.0001 -2.3792 -2.1612
  492MOL0     H67891   0.295   1.740   8.887 -1.2888  1.5895  0.3318
  492MOL0     H67892   0.083   1.535   8.573  0.1055 -1.7259  0.5738
  492MOL0     H67893   0.799   1.432   8.865  0.3622 -0.8744  2.1432
  492MOL0     H67894   1.036   1.281   9.014 -1.8709 -1.8398 -0.1520
  492MOL0     H67895   0.946   1.245   8.863  1.5573  0.1932 -0.9924
  492MOL0     H67896   1.121   1.256   8.858  0.5952  0.7241  0.0122
  493MOL0     O67897   0.507   8.585   2.158 -0.1273 -0.1333 -0.5323
  493MOL0     C67898   0.533   8.512   2.061  0.5559 -0.6573  0.1948
  493MOL0     O67899   0.647   8.443   2.031  0.1402 -0.0424  0.2195
  493MOL0     C67900   0.765   8.459   2.097 -0.4632 -0.3787 -0.2054
  493MOL0     C67901   0.802   8.579   2.167  0.1370  0.1120 -0.2640
  493MOL0     C67902   0.924   8.586   2.234  0.1192  0.6350  0.4064
  493MOL0     C67903   1.020   8.480   2.227  0.6184  0.1053  0.4321
  493MOL0     O67904   1.142   8.483   2.285  0.1787 -0.3335  0.1220
  493MOL0     C67905   1.213   8.592   2.228 -0.0161  0.3531  0.2192
  493MOL0     C67906   1.366   8.580   2.241  0.1096  0.5766 -0.4611
  493MOL0     C67907   1.441   8.722   2.207  0.2608  0.2958  0.2177
  493MOL0     C67908   1.575   8.686   2.150 -0.0610 -0.4081 -0.6580
  493MOL0     C67909   1.655   8.819   2.125  0.1247 -0.5503 -0.1228
  493MOL0     C67910   1.809   8.804   2.116  0.1533 -0.1922  0.3434
  493MOL0     C67911   1.880   8.940   2.081 -0.1190  0.5913  0.3399
  493MOL0     C67912   2.027   8.930   2.117 -0.3188  0.4687  0.6918
  493MOL0     N67913   2.092   9.064   2.084  0.3444  0.1652 -0.5085
  493MOL0     C67914   2.118   9.123   1.961  0.6170 -0.6307  0.1222
  493MOL0     C67915   2.175   9.241   1.985  0.0554 -0.7721 -0.4977
  493MOL0     C67916   2.226   9.343   1.885 -1.2439  0.2219  0.2928
  493MOL0     C67917   2.314   9.454   1.953  0.4274  0.3368 -0.4649
  493MOL0     C67918   2.454   9.389   1.975 -0.6867 -0.5769  0.0779
  493MOL0     C67919   2.530   9.497   2.043  0.1406  0.2431 -0.5566
  493MOL0     O67920   2.658   9.448   2.087  0.2490  0.3980  0.0041
  493MOL0     C67921   2.756   9.422   2.001  0.1531  0.3818 -0.2950
  493MOL0     C67922   2.753   9.458   1.869 -0.2889 -0.2564  0.1179
  493MOL0     C67923   2.844   9.402   1.774 -0.1141 -0.5753 -0.8413
  493MOL0     C67924   2.826   9.454   1.634 -0.3687  0.3432  0.3171
  493MOL0     C67925   2.957   9.327   1.823  0.1806  0.0745 -0.7779
  493MOL0     C67926   3.061   9.276   1.734 -0.3861  0.9033  0.3854
  493MOL0     O67927   3.176   9.250   1.800 -0.4872  0.3765  0.1025
  493MOL0     C67928   3.287   9.211   1.727  1.0625 -0.5316 -0.0307
  493MOL0     C67929   3.290   9.079   1.689  0.2233  0.1258 -0.0779
  493MOL0     C67930   3.390   9.031   1.602  1.3203 -0.1627 -0.2185
  493MOL0     C67931   3.501   9.109   1.574  0.9820 -0.1301  0.0796
  493MOL0     O67932   3.611   9.057   1.512  0.1331  0.0656  0.2332
  493MOL0     C67933   3.605   8.936   1.436  0.6433 -0.9719  0.9085
  493MOL0     C67934   3.736   8.900   1.362  0.3402 -0.5136 -0.4370
  493MOL0     C67935   3.758   9.011   1.260  0.2143  0.4181  0.9516
  493MOL0     C67936   3.899   8.976   1.191  0.2223  0.3833 -0.0955
  493MOL0     C67937   3.938   9.085   1.085 -0.4847 -0.5313 -0.3099
  493MOL0     C67938   3.847   9.102   0.961 -0.3359  0.2860 -0.4940
  493MOL0     C67939   3.829   8.983   0.868 -0.7166  0.9457 -0.5190
  493MOL0     C67940   3.972   8.914   0.838  0.1170  0.7975 -0.0042
  493MOL0    Cl67941   4.056   9.031   0.726  0.2739 -0.1224  0.2001
  493MOL0     C67942   3.499   9.244   1.612 -0.5505  0.6665  0.7489
  493MOL0     C67943   3.387   9.300   1.673  0.1321  0.1363  0.2648
  493MOL0     O67944   3.039   9.239   1.618  0.5266  0.0323  0.6368
  493MOL0     C67945   2.957   9.295   1.963 -0.1180 -0.6136  1.1999
  493MOL0     C67946   2.860   9.350   2.048 -0.2171  0.3686 -0.0509
  493MOL0     N67947   2.176   9.255   2.120  0.2993 -0.4448  0.0568
  493MOL0     N67948   2.120   9.160   2.173 -0.5281 -0.0498 -0.3999
  493MOL0     C67949   0.987   8.368   2.150  0.6741 -0.0922  0.8538
  493MOL0     C67950   0.859   8.353   2.098  0.0896  0.3863 -0.5237
  493MOL0     C67951   0.426   8.503   1.954  0.0992 -0.5923  0.0957
  493MOL0     C67952   0.301   8.466   1.990  0.9404  0.2885 -0.0054
  493MOL0     C67953   0.201   8.441   1.892  0.2965  0.2962 -0.1418
  493MOL0     C67954   0.223   8.473   1.759 -0.1941  0.6385 -1.0464
  493MOL0     O67955   0.137   8.460   1.659  0.0533 -0.6409 -0.4938
  493MOL0     C67956  -0.000   8.424   1.673 -1.0938 -0.3329  0.1783
  493MOL0     C67957  -0.082   8.543   1.726 -0.0541 -0.3771  0.5907
  493MOL0     C67958  -0.091   8.657   1.616  0.1526  0.3694 -0.4423
  493MOL0     C67959  -0.197   8.620   1.503 -1.0478 -0.2780  0.3268
  493MOL0     C67960  -0.216   8.729   1.405 -0.6651 -1.2840  0.7129
  493MOL0     C67961  -0.249   8.814   1.317 -0.3033 -0.5851  0.3531
  493MOL0     C67962   0.359   8.496   1.725 -0.1320 -0.0733 -0.0081
  493MOL0     C67963   0.458   8.526   1.818  0.0946  0.1825  0.1895
  493MOL0     C67964   0.594   8.567   1.765 -0.2874 -0.1412 -0.4584
  493MOL0     H67965   0.738   8.665   2.155 -2.1348 -1.6467 -1.5268
  493MOL0     H67966   0.949   8.685   2.272 -1.1138  0.6043  1.3478
  493MOL0     H67967   1.193   8.691   2.271  0.6076 -0.1420  1.7173
  493MOL0     H67968   1.192   8.603   2.121 -0.2589  0.0502  0.2338
  493MOL0     H67969   1.389   8.545   2.343  0.9473  3.0507  0.2670
  493MOL0     H67970   1.412   8.507   2.174  1.8427 -1.5695  2.7835
  493MOL0     H67971   1.386   8.782   2.133  0.3013 -0.5855 -0.5381
  493MOL0     H67972   1.452   8.791   2.291  0.6300  0.7072 -0.1578
  493MOL0     H67973   1.635   8.621   2.215  1.9092 -0.1941 -2.1553
  493MOL0     H67974   1.565   8.638   2.052 -0.0407  2.7789 -2.3706
  493MOL0     H67975   1.630   8.891   2.203 -3.0826  1.3125 -2.5968
  493MOL0     H67976   1.619   8.864   2.032 -2.2832  1.4882  1.6472
  493MOL0     H67977   1.847   8.767   2.212 -0.2173  0.3167  0.6898
  493MOL0     H67978   1.837   8.729   2.041  0.1616 -1.3256  1.4360
  493MOL0     H67979   1.825   9.020   2.131 -4.5996 -1.3835 -0.9357
  493MOL0     H67980   1.864   8.971   1.978  0.4192 -0.3198 -0.0246
  493MOL0     H67981   2.031   8.907   2.224 -0.5406 -0.2570  0.5497
  493MOL0     H67982   2.074   8.854   2.054 -3.2064  0.0417 -1.1184
  493MOL0     H67983   2.094   9.083   1.863 -1.1810 -2.6897  1.2935
  493MOL0     H67984   2.144   9.395   1.834 -0.9752  0.2124 -0.1490
  493MOL0     H67985   2.273   9.294   1.799 -1.9020 -0.0513  0.0751
  493MOL0     H67986   2.312   9.550   1.900 -1.2131 -0.0810 -1.2262
  493MOL0     H67987   2.274   9.489   2.048 -0.6577  0.3085 -0.8958
  493MOL0     H67988   2.456   9.294   2.030  1.2001  1.0546  3.1589
  493MOL0     H67989   2.497   9.374   1.876 -3.0157  0.7565 -1.2256
  493MOL0     H67990   2.522   9.593   1.990 -1.6688 -0.1713 -1.0821
  493MOL0     H67991   2.484   9.523   2.138  0.7938  0.3604 -0.2627
  493MOL0     H67992   2.668   9.520   1.843 -1.6229 -0.9749  2.4821
  493MOL0     H67993   2.829   9.563   1.644 -2.0983  0.5524 -0.9606
  493MOL0     H67994   2.734   9.426   1.581  0.1938 -0.3064 -0.3417
  493MOL0     H67995   2.913   9.436   1.570 -0.3227  0.0479  0.4617
  493MOL0     H67996   3.217   9.013   1.734  0.6517  0.8341  1.7161
  493MOL0     H67997   3.373   8.926   1.577 -0.7020  0.3049 -0.9863
  493MOL0     H67998   3.585   8.852   1.503 -1.0849 -0.9619  0.4686
  493MOL0     H67999   3.522   8.948   1.365 -0.1348  1.9754  2.1632
  493MOL0     H68000   3.820   8.900   1.432 -0.9296 -0.7729  1.1426
  493MOL0     H68001   3.719   8.804   1.313  1.3333  0.3249 -2.5608
  493MOL0     H68002   3.761   9.111   1.303 -0.9429  0.8979 -0.0350
  493MOL0     H68003   3.682   9.004   1.182  2.0294  0.8353 -0.9213
  493MOL0     H68004   3.884   8.879   1.142 -1.9926 -0.7825  2.6312
  493MOL0     H68005   3.980   8.962   1.263 -0.4589  2.8545  1.2428
  493MOL0     H68006   3.945   9.184   1.131 -3.0054  0.0771 -1.0399
  493MOL0     H68007   4.041   9.072   1.051 -0.1321  0.1906  0.4599
  493MOL0     H68008   3.873   9.190   0.903 -1.7599  1.1865  0.1928
  493MOL0     H68009   3.748   9.130   0.998 -1.2191 -2.2696 -0.7093
  493MOL0     H68010   3.764   9.009   0.784 -2.3802 -0.8882  0.1224
  493MOL0     H68011   3.770   8.913   0.927  0.2787 -1.0670 -1.7963
  493MOL0     H68012   3.951   8.822   0.783  0.7161 -1.2130  2.9305
  493MOL0     H68013   4.034   8.869   0.915 -0.8370  0.3808  0.5365
  493MOL0     H68014   3.582   9.308   1.587 -0.1578 -0.0354  0.2148
  493MOL0     H68015   3.380   9.406   1.695  1.5507 -0.2217  2.7868
  493MOL0     H68016   3.042   9.241   2.004 -0.1431 -1.4025  0.2444
  493MOL0     H68017   2.864   9.333   2.156 -0.0492 -2.0334 -0.3850
  493MOL0     H68018   1.054   8.284   2.135  0.7685  0.1962 -0.5529
  493MOL0     H68019   0.838   8.261   2.045  0.4057 -0.4677  0.7677
  493MOL0     H68020   0.286   8.440   2.094  0.4847  0.0281 -0.1346
  493MOL0     H68021   0.108   8.408   1.936  0.9938  2.1258  3.0152
  493MOL0     H68022  -0.049   8.384   1.584 -0.2761 -1.6401  0.3037
  493MOL0     H68023   0.003   8.343   1.746 -0.7765  0.2858  0.8750
  493MOL0     H68024  -0.045   8.575   1.824 -1.4316  0.9525  0.7179
  493MOL0     H68025  -0.181   8.505   1.753 -1.1095 -0.7605 -3.1955
  493MOL0     H68026  -0.113   8.755   1.660  2.2081  1.7599 -2.2762
  493MOL0     H68027   0.008   8.672   1.571 -0.7251  1.4463 -2.1390
  493MOL0     H68028  -0.289   8.601   1.559 -0.4463  2.2809  2.3428
  493MOL0     H68029  -0.172   8.525   1.455 -0.6472 -1.0775  2.0501
  493MOL0     H68030  -0.286   8.890   1.251 -0.4682 -0.0729  1.0195
  493MOL0     H68031   0.388   8.497   1.620 -0.2649  0.6916 -0.0443
  493MOL0     H68032   0.661   8.484   1.739 -1.5544 -1.6043  0.7628
  493MOL0     H68033   0.577   8.631   1.679 -2.4000 -0.5556 -0.3897
  493MOL0     H68034   0.641   8.622   1.848 -2.0057 -1.6945  1.6636
  494MOL0     O68035   6.413   2.391   4.575  1.2638  0.2930 -0.6137
  494MOL0     C68036   6.425   2.425   4.691  1.1798 -0.1952 -0.3984
  494MOL0     O68037   6.541   2.425   4.763  0.6728 -0.2388 -0.5924
  494MOL0     C68038   6.671   2.438   4.704  0.7346  0.0475 -0.3152
  494MOL0     C68039   6.697   2.490   4.577  0.1018  0.4661 -0.1627
  494MOL0     C68040   6.830   2.501   4.541 -0.5533  0.0264  0.5006
  494MOL0     C68041   6.936   2.451   4.627 -0.3949  0.2756  0.1817
  494MOL0     O68042   7.059   2.449   4.576  0.9040 -0.1146  0.4391
  494MOL0     C68043   7.173   2.453   4.662 -0.1016 -0.4637  1.2172
  494MOL0     C68044   7.298   2.505   4.585 -0.1594 -0.1329  0.1962
  494MOL0     C68045   7.427   2.463   4.657  0.3402  0.7602 -0.7311
  494MOL0     C68046   7.548   2.527   4.598  0.7507  0.0510  0.5805
  494MOL0     C68047   7.674   2.519   4.675  0.1734  0.6829 -0.7096
  494MOL0     C68048   7.792   2.551   4.589 -0.1377 -0.9512 -0.0590
  494MOL0     C68049   7.911   2.579   4.678  0.3075  0.0671 -0.5032
  494MOL0     C68050   8.040   2.569   4.611 -0.0548  0.0791  0.6926
  494MOL0     N68051   8.156   2.611   4.691 -0.0683  0.5144 -0.0810
  494MOL0     C68052   8.227   2.525   4.771  0.7454  0.3209 -0.4004
  494MOL0     C68053   8.311   2.606   4.839 -0.1605 -0.4511  1.8532
  494MOL0     C68054   8.422   2.563   4.939 -0.1530 -0.2769 -0.2835
  494MOL0     C68055   8.560   2.586   4.881 -0.2274 -0.3115  0.7230
  494MOL0     C68056   8.649   2.477   4.935  0.3987  0.6682 -0.1921
  494MOL0     C68057   8.791   2.515   4.899 -1.2695  0.1202 -0.7812
  494MOL0     O68058   8.889   2.441   4.970 -0.7050 -0.5854  0.2611
  494MOL0     C68059   9.022   2.471   4.956 -0.6858 -0.3546  1.1323
  494MOL0     C68060   9.115   2.403   5.038 -0.3089 -0.0084 -0.7620
  494MOL0     C68061   9.255   2.412   5.033  0.5340 -0.0978  1.3131
  494MOL0     C68062   9.325   2.313   5.120  0.2559  0.4410 -0.6516
  494MOL0     C68063   9.311   2.508   4.936 -0.1035 -0.5935 -0.7064
  494MOL0     C68064   9.459   2.535   4.909  0.8671  0.1004  0.1125
  494MOL0     O68065   9.486   2.632   4.816 -0.2518  0.2845 -0.0421
  494MOL0     C68066   9.612   2.660   4.794 -0.4260  0.4820  0.6428
  494MOL0     C68067   9.702   2.586   4.710 -0.5849 -0.3758 -0.6539
  494MOL0     C68068   9.838   2.625   4.691 -0.4626 -0.4210  0.3707
  494MOL0     C68069   9.880   2.747   4.746 -0.2853  0.0325 -0.2801
  494MOL0     O68070  10.005   2.793   4.703 -0.4839 -0.3539  0.2748
  494MOL0     C68071  10.018   2.800   4.560 -0.4977  0.2362  0.5864
  494MOL0     C68072  10.090   2.936   4.535  0.3491  0.8675  0.2255
  494MOL0     C68073  10.011   3.059   4.568 -1.3416  0.4674 -0.1362
  494MOL0     C68074  10.103   3.181   4.567 -0.5021  0.5176  0.1651
  494MOL0     C68075  10.037   3.312   4.600  0.7310 -0.6296 -0.3246
  494MOL0     C68076  10.113   3.437   4.565 -0.8769  0.4744  0.1856
  494MOL0     C68077  10.036   3.564   4.610  0.1625 -0.5501 -0.6023
  494MOL0     C68078  10.128   3.685   4.623  1.3816  0.4324  0.4106
  494MOL0    Cl68079  10.053   3.843   4.652  0.2506  0.0225 -0.2185
  494MOL0     C68080   9.801   2.811   4.839 -0.5263  0.8534  0.8393
  494MOL0     C68081   9.667   2.775   4.853 -0.2133  0.0553  0.7466
  494MOL0     O68082   9.540   2.473   4.974 -0.2418  0.2822 -0.3362
  494MOL0     C68083   9.218   2.585   4.855 -0.0113 -0.4150 -0.1840
  494MOL0     C68084   9.078   2.579   4.879  0.3150  1.4954  0.1076
  494MOL0     N68085   8.287   2.736   4.802 -0.7648 -0.8155  0.5581
  494MOL0     N68086   8.190   2.741   4.720  1.2877  0.0287 -0.0148
  494MOL0     C68087   6.905   2.389   4.749  0.7057  0.2135 -0.6320
  494MOL0     C68088   6.771   2.391   4.783 -0.6251  0.3230 -0.0419
  494MOL0     C68089   6.300   2.474   4.755  0.3111 -0.1089 -0.6504
  494MOL0     C68090   6.179   2.430   4.706 -0.2658 -0.4289 -0.7165
  494MOL0     C68091   6.060   2.469   4.761  0.7354 -0.4643  0.1263
  494MOL0     C68092   6.054   2.550   4.868  0.5004 -0.7695 -0.5335
  494MOL0     O68093   5.927   2.598   4.900 -0.3634 -0.0334 -0.3553
  494MOL0     C68094   5.926   2.701   5.002 -0.1037  0.2512  0.0361
  494MOL0     C68095   5.789   2.773   4.991  0.7852  0.0339  0.1641
  494MOL0     C68096   5.783   2.880   5.109  0.1651  0.5157  0.5472
  494MOL0     C68097   5.651   2.954   5.124  0.0371  0.4276  0.0471
  494MOL0     C68098   5.605   3.010   4.996 -0.1508 -0.6465  0.5095
  494MOL0     C68099   5.567   3.062   4.895  0.7816 -0.4043  0.2945
  494MOL0     C68100   6.174   2.590   4.923 -0.5313 -0.2139  0.1717
  494MOL0     C68101   6.303   2.564   4.871  0.0616 -0.5896 -0.2271
  494MOL0     C68102   6.418   2.637   4.947  0.2104  0.2162  0.3241
  494MOL0     H68103   6.618   2.530   4.514 -0.4065  1.0465  0.8203
  494MOL0     H68104   6.853   2.552   4.448  0.4705  3.4486  2.4460
  494MOL0     H68105   7.194   2.355   4.706  0.9351 -0.8610 -0.1023
  494MOL0     H68106   7.156   2.519   4.747  0.0810 -0.5373  1.3136
  494MOL0     H68107   7.289   2.460   4.487 -1.0762 -0.6083  0.4852
  494MOL0     H68108   7.292   2.613   4.567  0.3867 -0.6290 -3.8734
  494MOL0     H68109   7.422   2.503   4.759 -3.3341  0.8172 -0.8029
  494MOL0     H68110   7.442   2.356   4.671 -1.0234  0.7085  0.5500
  494MOL0     H68111   7.569   2.488   4.499 -0.2209  0.8910  0.0205
  494MOL0     H68112   7.518   2.632   4.590 -0.9386 -0.3623  1.2076
  494MOL0     H68113   7.692   2.420   4.716  0.6093  1.6120  1.5327
  494MOL0     H68114   7.661   2.583   4.763 -0.9283 -3.7925  2.7325
  494MOL0     H68115   7.819   2.469   4.522  1.9792 -1.6792  1.5439
  494MOL0     H68116   7.784   2.645   4.534 -2.0825 -2.2970 -2.2102
  494MOL0     H68117   7.910   2.510   4.763 -1.1160 -0.1432 -0.6556
  494MOL0     H68118   7.907   2.673   4.733  0.9218  0.2922 -0.8337
  494MOL0     H68119   8.052   2.468   4.571  0.9721  1.6497 -3.5100
  494MOL0     H68120   8.021   2.637   4.527  1.0453 -0.3450  0.0863
  494MOL0     H68121   8.225   2.417   4.778  0.7778  0.3978  0.9712
  494MOL0     H68122   8.402   2.458   4.965  0.7347 -0.4048 -0.0794
  494MOL0     H68123   8.415   2.616   5.034 -1.7383  0.4420 -0.7654
  494MOL0     H68124   8.550   2.573   4.772 -0.1758 -1.2211  0.8208
  494MOL0     H68125   8.594   2.689   4.897 -0.1491 -0.2067 -0.0535
  494MOL0     H68126   8.649   2.484   5.044 -1.6120 -1.5021  0.0084
  494MOL0     H68127   8.618   2.375   4.910 -0.3212  0.3332  1.9333
  494MOL0     H68128   8.806   2.495   4.793  1.6819 -0.8847 -0.2711
  494MOL0     H68129   8.812   2.621   4.918 -0.8514 -0.0492 -0.2678
  494MOL0     H68130   9.068   2.319   5.089 -1.6096  0.7443 -0.6954
  494MOL0     H68131   9.374   2.363   5.205 -1.1732  0.6193  0.1034
  494MOL0     H68132   9.397   2.257   5.059 -0.3943 -0.9285 -0.2030
  494MOL0     H68133   9.259   2.252   5.183  1.1978 -0.1871 -0.2420
  494MOL0     H68134   9.665   2.494   4.664  0.7960 -1.8175  0.9503
  494MOL0     H68135   9.909   2.567   4.633  1.5957 -0.7061  2.9533
  494MOL0     H68136  10.062   2.707   4.522 -2.6959 -0.5767 -0.0773
  494MOL0     H68137   9.922   2.801   4.508  0.3952 -1.9924 -1.2625
  494MOL0     H68138  10.180   2.935   4.598 -1.0073 -1.5640  2.2850
  494MOL0     H68139  10.119   2.934   4.430  2.4252 -3.1657  0.7007
  494MOL0     H68140   9.959   3.054   4.665  2.4956  1.3858  2.2030
  494MOL0     H68141   9.930   3.084   4.499 -1.6928  2.1694  0.8297
  494MOL0     H68142  10.132   3.179   4.462 -0.7150  0.9912  0.0933
  494MOL0     H68143  10.185   3.167   4.637 -0.8493  0.6694  0.6081
  494MOL0     H68144   9.939   3.308   4.551  0.4679 -2.0994  0.2549
  494MOL0     H68145  10.029   3.316   4.709 -1.3924 -1.2983 -0.4152
  494MOL0     H68146  10.130   3.448   4.458  0.5886 -3.9180 -0.2478
  494MOL0     H68147  10.212   3.428   4.612  0.9414 -1.1389 -3.5384
  494MOL0     H68148  10.003   3.543   4.712  1.4780  1.5180  0.3336
  494MOL0     H68149   9.949   3.588   4.549  1.7844  1.8504 -2.1404
  494MOL0     H68150  10.185   3.693   4.531  1.2711  2.2264  0.4678
  494MOL0     H68151  10.198   3.676   4.706  0.9792  1.6136  0.8980
  494MOL0     H68152   9.839   2.900   4.887  0.4124 -0.1163  1.9600
  494MOL0     H68153   9.607   2.840   4.916  1.9288  1.8235  1.1148
  494MOL0     H68154   9.235   2.660   4.778 -1.8963  2.5635  2.0541
  494MOL0     H68155   9.019   2.627   4.801 -0.3374 -2.3711 -2.0642
  494MOL0     H68156   6.988   2.349   4.806  2.2625  4.4580  0.4782
  494MOL0     H68157   6.740   2.356   4.881  0.0355 -0.2846 -0.0440
  494MOL0     H68158   6.166   2.369   4.617 -0.7731 -0.0140 -0.9312
  494MOL0     H68159   5.970   2.426   4.719  0.7260 -1.2128  0.8800
  494MOL0     H68160   5.936   2.653   5.100 -0.0985  2.2168  1.0388
  494MOL0     H68161   6.006   2.774   4.986  1.0251 -0.6888  1.2263
  494MOL0     H68162   5.716   2.692   4.994 -1.6711  1.6916 -4.6460
  494MOL0     H68163   5.785   2.831   4.899  1.2292  1.5592  1.0563
  494MOL0     H68164   5.810   2.840   5.207 -0.9353  1.8299  1.4350
  494MOL0     H68165   5.864   2.951   5.090 -2.3616  3.1962 -1.3138
  494MOL0     H68166   5.657   3.029   5.203 -1.7851  0.8860 -0.1977
  494MOL0     H68167   5.578   2.884   5.168  1.6037 -0.5159  1.2717
  494MOL0     H68168   5.561   3.105   4.797 -1.3148 -2.1910 -0.4308
  494MOL0     H68169   6.184   2.651   5.012  0.5965  0.9847 -0.7253
  494MOL0     H68170   6.382   2.730   4.991 -0.3349 -0.2113  0.7939
  494MOL0     H68171   6.452   2.580   5.034  0.8893  3.5265  2.3742
  494MOL0     H68172   6.503   2.655   4.881 -0.6366 -1.9447 -1.5287
  495MOL0     O68173   5.899   1.435   5.567 -0.1361  0.3522  0.0473
  495MOL0     C68174   5.885   1.329   5.506  0.2829 -0.5517  0.1867
  495MOL0     O68175   5.984   1.245   5.480  0.3183 -1.0249 -0.5176
  495MOL0     C68176   6.107   1.275   5.531  0.2079  0.0167 -0.1920
  495MOL0     C68177   6.134   1.232   5.660 -0.1835  1.1511  0.2022
  495MOL0     C68178   6.258   1.246   5.720 -0.0987  0.0569  0.3831
  495MOL0     C68179   6.348   1.332   5.660 -0.1163  0.1973  0.0373
  495MOL0     O68180   6.475   1.350   5.708  0.3897 -0.2319  0.1743
  495MOL0     C68181   6.520   1.272   5.825  0.6710 -0.5196  0.3959
  495MOL0     C68182   6.654   1.330   5.865 -0.1954 -0.4456  0.7915
  495MOL0     C68183   6.747   1.237   5.937  0.2904 -0.0618 -0.2356
  495MOL0     C68184   6.890   1.302   5.942  0.2378 -0.9735 -0.3169
  495MOL0     C68185   7.003   1.218   6.005  0.2133  1.0090 -0.3062
  495MOL0     C68186   7.136   1.286   6.004  0.0052  0.2308 -0.3024
  495MOL0     C68187   7.219   1.261   5.874 -0.6871  0.4813  0.0849
  495MOL0     C68188   7.277   1.119   5.866 -0.1800  0.4395  0.1099
  495MOL0     N68189   7.394   1.102   5.954 -0.2555 -0.0951  0.0728
  495MOL0     C68190   7.514   1.164   5.949 -0.0760 -1.1577 -0.3951
  495MOL0     C68191   7.582   1.118   6.054 -0.8203 -0.1647  0.6677
  495MOL0     C68192   7.725   1.140   6.086 -0.8754 -0.0343 -0.5417
  495MOL0     C68193   7.828   1.101   5.978  0.4140 -0.5679  0.0660
  495MOL0     C68194   7.960   1.161   6.023 -1.0650 -0.5769  0.4257
  495MOL0     C68195   8.077   1.124   5.928  0.3365  0.4222 -1.0956
  495MOL0     O68196   8.198   1.154   5.996  0.4730 -0.6690  0.5879
  495MOL0     C68197   8.326   1.132   5.933 -0.1810 -0.2097 -0.0998
  495MOL0     C68198   8.436   1.128   6.014 -0.0881 -0.4233 -0.5265
  495MOL0     C68199   8.564   1.094   5.964  0.1406  0.1499  0.1602
  495MOL0     C68200   8.673   1.065   6.065  0.0958  0.3448  0.6687
  495MOL0     C68201   8.580   1.075   5.822  0.4642 -0.1866 -0.4332
  495MOL0     C68202   8.705   1.044   5.757  0.3313 -0.5046  0.2704
  495MOL0     O68203   8.701   1.016   5.624  0.0626 -0.0685  0.5906
  495MOL0     C68204   8.832   0.986   5.573  0.0804  0.0442 -0.6138
  495MOL0     C68205   8.919   1.095   5.537 -0.0291  0.8636  0.2953
  495MOL0     C68206   9.053   1.063   5.495  0.1911 -0.3015  0.2641
  495MOL0     C68207   9.101   0.933   5.511 -0.1352  0.4523  0.3258
  495MOL0     O68208   9.238   0.912   5.480 -0.6115 -1.0725 -0.4459
  495MOL0     C68209   9.292   0.792   5.529 -0.2942  0.8466 -0.2052
  495MOL0     C68210   9.442   0.791   5.504  1.0647  0.7100 -0.1638
  495MOL0     C68211   9.505   0.654   5.546 -0.0812  0.1981 -0.1023
  495MOL0     C68212   9.662   0.655   5.532  0.8522 -0.0953  0.3990
  495MOL0     C68213   9.720   0.510   5.509  0.7615  0.4537 -0.3072
  495MOL0     C68214   9.878   0.510   5.515 -0.8725  0.5280 -0.3174
  495MOL0     C68215   9.925   0.379   5.458 -0.1599  0.5122  0.8632
  495MOL0     C68216  10.063   0.338   5.513  0.0895  0.1864  0.2122
  495MOL0    Cl68217  10.183   0.441   5.438 -0.0238 -0.0521  0.0551
  495MOL0     C68218   9.012   0.833   5.540  0.2886  0.9448  0.0732
  495MOL0     C68219   8.879   0.854   5.565 -0.9096 -0.4282 -0.2424
  495MOL0     O68220   8.807   1.028   5.822  0.2660 -0.1053 -0.1977
  495MOL0     C68221   8.466   1.097   5.742  0.1725 -0.0575  0.1159
  495MOL0     C68222   8.345   1.115   5.794  1.2260  0.3039 -0.0506
  495MOL0     N68223   7.511   1.020   6.119 -0.8733 -0.3141  0.5004
  495MOL0     N68224   7.396   1.016   6.062 -0.5147 -0.2571  0.0185
  495MOL0     C68225   6.321   1.395   5.539 -0.1416  0.8374  0.0396
  495MOL0     C68226   6.196   1.366   5.480 -0.4631 -0.5146 -0.2885
  495MOL0     C68227   5.746   1.289   5.474  0.7171  0.1688  0.5136
  495MOL0     C68228   5.665   1.401   5.444  1.2226  0.4101 -0.2652
  495MOL0     C68229   5.536   1.386   5.432  0.4263 -0.5877  0.1799
  495MOL0     C68230   5.469   1.264   5.465  0.1600 -1.1016 -1.0512
  495MOL0     O68231   5.331   1.274   5.474  0.5539 -0.2596 -0.7524
  495MOL0     C68232   5.253   1.226   5.583  0.2970 -0.1709 -0.1443
  495MOL0     C68233   5.198   1.085   5.554 -0.0957  0.2626  0.1514
  495MOL0     C68234   5.108   1.076   5.427 -0.0370  0.4909 -0.6194
  495MOL0     C68235   4.994   0.968   5.450 -0.5318  0.7095  0.0954
  495MOL0     C68236   4.889   0.968   5.347 -0.3145  0.3330  0.3493
  495MOL0     C68237   4.806   0.963   5.258 -0.4895  0.1341  0.3073
  495MOL0     C68238   5.551   1.153   5.486  0.7898  0.2480 -0.3501
  495MOL0     C68239   5.684   1.163   5.490 -0.2649  0.2324  0.7592
  495MOL0     C68240   5.755   1.037   5.533 -0.4897  0.4302 -0.5411
  495MOL0     H68241   6.061   1.178   5.719  1.4279 -0.3145  0.9002
  495MOL0     H68242   6.265   1.212   5.823  0.0201  1.5572  0.9028
  495MOL0     H68243   6.532   1.168   5.792 -0.3272 -0.3369 -0.5955
  495MOL0     H68244   6.453   1.287   5.910 -0.7756 -0.4809 -0.7244
  495MOL0     H68245   6.703   1.368   5.775 -0.4455 -0.3515  0.6935
  495MOL0     H68246   6.635   1.416   5.930  0.7962 -0.5200  1.2034
  495MOL0     H68247   6.708   1.208   6.035  1.5777 -0.1565  0.2651
  495MOL0     H68248   6.753   1.141   5.884  0.6437 -0.3023  0.2251
  495MOL0     H68249   6.929   1.325   5.842  1.6202 -0.0308  0.4158
  495MOL0     H68250   6.882   1.395   5.998  1.1813 -0.3399 -1.2136
  495MOL0     H68251   7.009   1.119   5.957  1.1431  1.3034 -0.8213
  495MOL0     H68252   6.976   1.206   6.110  0.7628  2.9890  0.1022
  495MOL0     H68253   7.127   1.394   6.019 -0.9997  0.1928 -0.5245
  495MOL0     H68254   7.197   1.249   6.087  1.4758 -4.7809 -3.1885
  495MOL0     H68255   7.295   1.339   5.873 -2.2689  2.1075  1.1898
  495MOL0     H68256   7.153   1.270   5.787 -1.9190 -0.8787  0.8296
  495MOL0     H68257   7.215   1.039   5.908 -2.1529  2.8045  2.0465
  495MOL0     H68258   7.305   1.100   5.762  1.1311 -0.4906  0.6126
  495MOL0     H68259   7.546   1.243   5.882 -0.6727  1.7268  2.4534
  495MOL0     H68260   7.750   1.075   6.171 -0.9636 -0.0431 -0.5231
  495MOL0     H68261   7.734   1.242   6.123 -2.5096 -0.7731  2.2023
  495MOL0     H68262   7.832   0.992   5.984  2.8622 -0.4669  1.7875
  495MOL0     H68263   7.793   1.140   5.882  0.3379  1.9635  1.0280
  495MOL0     H68264   7.947   1.269   6.038  1.6107 -0.3206  1.6044
  495MOL0     H68265   7.995   1.121   6.118 -0.1640 -2.3231 -0.5787
  495MOL0     H68266   8.082   1.016   5.911 -1.3868  0.1848 -0.3260
  495MOL0     H68267   8.067   1.178   5.834 -0.2001  1.6291 -0.3596
  495MOL0     H68268   8.424   1.148   6.120  2.2938 -1.7747  0.0635
  495MOL0     H68269   8.693   0.958   6.074  2.1879  0.2808 -3.0250
  495MOL0     H68270   8.639   1.114   6.157 -2.2199  2.2365 -1.0627
  495MOL0     H68271   8.773   1.102   6.040 -0.1034  1.1292  0.9996
  495MOL0     H68272   8.884   1.197   5.525  0.8803  1.1141 -0.3191
  495MOL0     H68273   9.114   1.143   5.456 -0.6405 -0.2622 -1.0216
  495MOL0     H68274   9.286   0.779   5.638 -0.2960  1.6120 -0.1028
  495MOL0     H68275   9.253   0.711   5.467  1.3435  1.1835 -1.7550
  495MOL0     H68276   9.459   0.799   5.396  0.8036  0.4956 -0.2224
  495MOL0     H68277   9.498   0.866   5.560  0.5883  0.2609  0.9340
  495MOL0     H68278   9.467   0.572   5.485  1.3676 -0.3704 -0.2800
  495MOL0     H68279   9.483   0.639   5.652  1.1188 -0.1963  0.1109
  495MOL0     H68280   9.704   0.703   5.621 -0.8645  2.9685 -0.2891
  495MOL0     H68281   9.705   0.722   5.457  0.3346  1.6710  1.6050
  495MOL0     H68282   9.685   0.448   5.593  1.6732  0.4342  0.0703
  495MOL0     H68283   9.677   0.470   5.417 -0.5193 -0.0033  0.4580
  495MOL0     H68284   9.931   0.524   5.610  2.6689  4.2793 -2.5022
  495MOL0     H68285   9.921   0.596   5.463  2.6296 -0.0449  1.3082
  495MOL0     H68286   9.931   0.381   5.349  0.9499 -0.2284  0.8939
  495MOL0     H68287   9.855   0.299   5.486  0.3438 -1.0218 -1.8572
  495MOL0     H68288  10.086   0.236   5.480 -1.7732 -1.6589  4.0062
  495MOL0     H68289  10.074   0.335   5.622 -1.6848 -0.5022  0.3982
  495MOL0     H68290   9.032   0.726   5.534 -4.0777 -0.2258  2.0210
  495MOL0     H68291   8.824   0.767   5.596 -2.8186  1.2020  1.2113
  495MOL0     H68292   8.473   1.096   5.634  4.7239 -1.7575  0.2314
  495MOL0     H68293   8.274   1.120   5.712  0.2430  0.0486  0.7648
  495MOL0     H68294   6.391   1.459   5.487  1.3133 -0.2346  0.6053
  495MOL0     H68295   6.168   1.423   5.391 -2.6359 -0.7710  0.1783
  495MOL0     H68296   5.704   1.503   5.436  0.0791  1.0141  1.4096
  495MOL0     H68297   5.479   1.476   5.416 -0.8332 -1.1672  1.1881
  495MOL0     H68298   5.328   1.212   5.661  2.5581  2.5867 -1.6349
  495MOL0     H68299   5.168   1.291   5.605 -0.3262 -1.2834  0.8360
  495MOL0     H68300   5.134   1.067   5.641 -2.0105  3.4125 -0.4554
  495MOL0     H68301   5.271   1.003   5.555  0.1848  0.3764 -2.8711
  495MOL0     H68302   5.052   1.170   5.421 -0.6599  0.1707  0.0767
  495MOL0     H68303   5.166   1.055   5.337  0.3423 -2.1253  0.1571
  495MOL0     H68304   4.942   0.970   5.546 -2.1432 -1.4074 -0.6561
  495MOL0     H68305   5.046   0.871   5.448  2.7259  2.2713  1.2430
  495MOL0     H68306   4.740   0.974   5.174 -0.2329 -1.8274 -0.2138
  495MOL0     H68307   5.500   1.065   5.525 -0.1674  0.7755 -0.3852
  495MOL0     H68308   5.697   0.945   5.522  1.4680 -1.1043  1.0087
  495MOL0     H68309   5.841   1.016   5.468  0.3921 -2.7823  1.4293
  495MOL0     H68310   5.797   1.048   5.633 -0.5349  1.1717 -0.5999
  496MOL0     O68311   3.974   0.289   4.432  0.6074 -0.2783 -0.2675
  496MOL0     C68312   3.876   0.308   4.505  0.0177 -0.5271  0.9115
  496MOL0     O68313   3.881   0.330   4.638  0.3028  0.1964 -0.2899
  496MOL0     C68314   4.010   0.311   4.696 -0.4955  1.3630  0.0446
  496MOL0     C68315   4.053   0.183   4.717  0.4283 -0.5591  0.9484
  496MOL0     C68316   4.184   0.155   4.774  0.2115 -0.6526 -0.5496
  496MOL0     C68317   4.259   0.267   4.815 -0.0233 -0.1852  0.0413
  496MOL0     O68318   4.388   0.251   4.874 -0.3962  0.2967 -0.0151
  496MOL0     C68319   4.443   0.115   4.883 -0.2845 -0.9542  0.1386
  496MOL0     C68320   4.572   0.130   4.976 -0.1498 -0.2575  0.1618
  496MOL0     C68321   4.651   0.244   4.920  0.1666 -0.1636  1.0751
  496MOL0     C68322   4.768   0.267   5.003  1.0556 -0.4728 -0.0800
  496MOL0     C68323   4.859   0.361   4.941 -0.0872 -0.4335  0.4596
  496MOL0     C68324   4.999   0.374   5.008 -0.4917 -0.7006  0.9397
  496MOL0     C68325   5.100   0.264   4.968 -0.2414 -0.0620 -1.0802
  496MOL0     C68326   5.177   0.308   4.844 -0.1372  0.0155  0.0309
  496MOL0     N68327   5.283   0.407   4.867  0.0045 -0.0296 -0.0468
  496MOL0     C68328   5.320   0.499   4.777 -0.3077  0.1274  0.4568
  496MOL0     C68329   5.404   0.586   4.843 -0.0247  0.4830 -0.5581
  496MOL0     C68330   5.463   0.705   4.783 -0.7226 -0.3848 -0.1895
  496MOL0     C68331   5.618   0.694   4.776 -0.2629  0.4679  0.5919
  496MOL0     C68332   5.668   0.562   4.711  0.2602 -0.5013  0.2712
  496MOL0     C68333   5.828   0.562   4.714  0.5457 -0.7666 -0.6161
  496MOL0     O68334   5.882   0.611   4.842  1.1266  0.5868 -0.7851
  496MOL0     C68335   6.020   0.619   4.865  0.1812  0.0929 -0.3536
  496MOL0     C68336   6.122   0.556   4.787  0.7426 -0.1370 -0.8566
  496MOL0     C68337   6.261   0.561   4.826  0.0817 -0.2574 -0.6318
  496MOL0     C68338   6.367   0.506   4.730 -0.0578  0.2229 -0.2789
  496MOL0     C68339   6.300   0.628   4.947 -0.4665 -0.3315  0.2175
  496MOL0     C68340   6.436   0.626   4.995 -0.8150  0.0294  0.1576
  496MOL0     O68341   6.512   0.513   4.993 -0.3480  0.6040  0.3693
  496MOL0     C68342   6.647   0.523   4.993  0.5326 -0.9394 -1.5199
  496MOL0     C68343   6.722   0.432   5.061  0.1592 -0.0870  0.2501
  496MOL0     C68344   6.860   0.445   5.059 -0.2398  0.3083 -0.3656
  496MOL0     C68345   6.920   0.548   4.992 -0.1029 -0.1192  0.1713
  496MOL0     O68346   7.057   0.554   4.986  0.5476  0.3708 -0.4639
  496MOL0     C68347   7.132   0.439   5.035 -1.2512 -0.3637 -0.6917
  496MOL0     C68348   7.284   0.459   5.017 -0.1148  0.2166 -0.6259
  496MOL0     C68349   7.341   0.568   5.108 -0.5243 -0.1141  0.6284
  496MOL0     C68350   7.488   0.615   5.066 -0.9269 -0.3513  0.2840
  496MOL0     C68351   7.597   0.533   5.123  0.0030  0.0988  0.0085
  496MOL0     C68352   7.720   0.558   5.042 -0.0455 -0.0788 -0.9282
  496MOL0     C68353   7.846   0.516   5.109  0.5098  0.9846 -0.2463
  496MOL0     C68354   7.964   0.517   5.010  0.3567 -1.1261  0.4261
  496MOL0    Cl68355   8.117   0.504   5.107  0.0162 -0.3532  0.3000
  496MOL0     C68356   6.842   0.647   4.936 -0.2761  0.3242 -0.3840
  496MOL0     C68357   6.706   0.627   4.924  0.0416 -0.3716  0.2710
  496MOL0     O68358   6.470   0.730   5.044 -1.5309  0.1962 -0.1467
  496MOL0     C68359   6.201   0.688   5.027 -0.2370 -0.1249  0.0558
  496MOL0     C68360   6.063   0.681   4.987  0.0100  0.0768  0.3492
  496MOL0     N68361   5.430   0.528   4.966 -0.0265 -0.9133  0.4346
  496MOL0     N68362   5.354   0.424   4.979 -0.3303  0.7192  0.6376
  496MOL0     C68363   4.215   0.390   4.790 -0.5365  0.6593 -0.3760
  496MOL0     C68364   4.091   0.412   4.741 -0.5910 -0.3046  0.6093
  496MOL0     C68365   3.742   0.322   4.445  0.6051  0.0391 -0.2528
  496MOL0     C68366   3.657   0.420   4.507 -0.3168 -0.2972  0.8770
  496MOL0     C68367   3.524   0.431   4.455 -0.3248 -0.3211 -0.6743
  496MOL0     C68368   3.475   0.359   4.348  0.0018 -0.3330 -0.2862
  496MOL0     O68369   3.356   0.370   4.284 -0.2593 -0.1835 -0.4178
  496MOL0     C68370   3.273   0.480   4.309 -0.4312  0.3392  0.2889
  496MOL0     C68371   3.144   0.460   4.234  0.2297 -0.5159 -1.1539
  496MOL0     C68372   3.033   0.557   4.285  0.4537 -0.1350  0.0406
  496MOL0     C68373   2.891   0.547   4.253  0.3897 -0.3386  0.4390
  496MOL0     C68374   2.838   0.427   4.318  0.2459 -0.2434  0.5954
  496MOL0     C68375   2.782   0.342   4.371 -0.9136 -0.4518 -0.3989
  496MOL0     C68376   3.568   0.275   4.287 -0.7792 -0.6215 -0.3080
  496MOL0     C68377   3.702   0.258   4.328  0.3788 -0.3365 -0.0479
  496MOL0     C68378   3.793   0.172   4.243 -0.4701 -0.2305 -0.1456
  496MOL0     H68379   3.985   0.111   4.673  0.5396  1.0518 -2.2210
  496MOL0     H68380   4.226   0.055   4.774 -0.3810 -0.9258  0.8057
  496MOL0     H68381   4.469   0.078   4.783 -0.3098  0.3594 -0.3758
  496MOL0     H68382   4.373   0.043   4.924 -0.3136 -2.9473 -3.1080
  496MOL0     H68383   4.540   0.160   5.076 -3.4303  3.0419 -1.6076
  496MOL0     H68384   4.631   0.038   4.974 -0.9135 -0.7767  0.8933
  496MOL0     H68385   4.681   0.229   4.816 -1.0771 -0.6636  0.7713
  496MOL0     H68386   4.593   0.337   4.917  1.1928  0.5658 -3.5071
  496MOL0     H68387   4.733   0.305   5.099 -1.1224 -1.6327 -0.3427
  496MOL0     H68388   4.824   0.175   5.023  4.5741  1.7576  1.2133
  496MOL0     H68389   4.821   0.462   4.962  1.1031  0.4436 -1.3358
  496MOL0     H68390   4.861   0.346   4.833  0.1426 -3.4370  0.8137
  496MOL0     H68391   5.039   0.471   4.977  0.4289 -1.2702  0.3228
  496MOL0     H68392   4.986   0.377   5.117  0.9379  2.4910  1.1349
  496MOL0     H68393   5.045   0.174   4.937 -1.7363  0.0899  0.9364
  496MOL0     H68394   5.176   0.240   5.042  0.1121  0.2642 -1.3342
  496MOL0     H68395   5.219   0.217   4.800 -2.3286 -1.1212  0.1268
  496MOL0     H68396   5.101   0.348   4.776 -1.3371 -1.5042  0.4276
  496MOL0     H68397   5.278   0.511   4.678  1.4322 -1.9402 -0.6147
  496MOL0     H68398   5.441   0.786   4.854  1.8899 -2.7175  3.6128
  496MOL0     H68399   5.411   0.723   4.688  1.6377  2.0344 -1.1318
  496MOL0     H68400   5.650   0.778   4.714  2.1009 -0.0741  0.9658
  496MOL0     H68401   5.651   0.701   4.881  1.1587  1.2069  0.1312
  496MOL0     H68402   5.632   0.475   4.767  2.0668 -1.3483  0.1956
  496MOL0     H68403   5.638   0.556   4.606  2.0725 -0.3641 -0.2939
  496MOL0     H68404   5.875   0.466   4.691  1.8701 -0.0226 -1.1188
  496MOL0     H68405   5.869   0.630   4.638 -0.3374  0.8225  0.2786
  496MOL0     H68406   6.090   0.505   4.696 -2.7686  1.1825 -0.5206
  496MOL0     H68407   6.400   0.404   4.749  2.3262  0.5523 -2.1605
  496MOL0     H68408   6.452   0.575   4.726 -0.3680  0.5914 -0.6576
  496MOL0     H68409   6.320   0.497   4.632  0.0693 -2.9591 -0.1422
  496MOL0     H68410   6.684   0.354   5.126 -1.2392 -0.1997 -0.6629
  496MOL0     H68411   6.919   0.368   5.107  2.6367  1.5601 -1.6158
  496MOL0     H68412   7.112   0.422   5.141  1.8650 -2.9770 -0.3819
  496MOL0     H68413   7.093   0.356   4.975 -3.1545  1.5609 -2.3109
  496MOL0     H68414   7.330   0.365   5.048 -2.2894 -0.9409 -0.7288
  496MOL0     H68415   7.311   0.479   4.913 -0.9229  1.2375 -0.6648
  496MOL0     H68416   7.340   0.545   5.215 -1.8170 -0.3359  0.5842
  496MOL0     H68417   7.274   0.653   5.093 -0.8258 -0.5979 -0.9715
  496MOL0     H68418   7.508   0.717   5.101 -0.2916 -0.5238  0.4219
  496MOL0     H68419   7.505   0.622   4.958  1.5524 -2.2524  0.4650
  496MOL0     H68420   7.610   0.553   5.230  1.2943 -0.1600 -0.0744
  496MOL0     H68421   7.576   0.427   5.109 -2.8967  0.4547  1.0940
  496MOL0     H68422   7.730   0.666   5.031  1.0068  0.0235  0.7187
  496MOL0     H68423   7.697   0.520   4.942 -5.6963  1.3324 -0.4967
  496MOL0     H68424   7.840   0.415   5.152  1.8187  1.2767  0.6826
  496MOL0     H68425   7.871   0.577   5.196  0.9355  0.5110 -0.0378
  496MOL0     H68426   7.967   0.608   4.949 -0.0245 -0.4110  1.4352
  496MOL0     H68427   7.942   0.431   4.947 -1.3582 -0.1480 -0.4074
  496MOL0     H68428   6.885   0.730   4.880 -0.0938 -0.8565 -2.0730
  496MOL0     H68429   6.639   0.702   4.882 -2.2083 -1.5274  1.6040
  496MOL0     H68430   6.230   0.760   5.103  2.2474 -1.0330  0.0627
  496MOL0     H68431   5.988   0.743   5.034 -0.6194 -0.7765  0.4921
  496MOL0     H68432   4.280   0.470   4.823 -1.4848  1.2336  0.1452
  496MOL0     H68433   4.052   0.512   4.728 -0.1888 -0.3602 -1.4334
  496MOL0     H68434   3.689   0.483   4.590 -1.5933 -0.0989  1.2424
  496MOL0     H68435   3.461   0.503   4.504 -0.5531 -1.1277  0.2469
  496MOL0     H68436   3.245   0.488   4.415 -1.4503  1.8698 -0.0660
  496MOL0     H68437   3.327   0.572   4.288  0.8384 -0.9391 -2.4810
  496MOL0     H68438   3.110   0.362   4.269  0.8992 -0.4614 -0.3128
  496MOL0     H68439   3.150   0.471   4.126  0.0304  0.7749 -1.0448
  496MOL0     H68440   3.037   0.565   4.395 -0.9775 -1.0132  0.1807
  496MOL0     H68441   3.059   0.657   4.251 -0.5897  0.3041  0.4704
  496MOL0     H68442   2.867   0.537   4.147 -2.7971 -0.7152  1.0879
  496MOL0     H68443   2.833   0.630   4.295 -2.8789 -2.1719 -0.1154
  496MOL0     H68444   2.744   0.253   4.417  1.7112 -2.0687 -1.1805
  496MOL0     H68445   3.535   0.216   4.202 -0.1361  1.4371 -2.0997
  496MOL0     H68446   3.838   0.092   4.303 -2.5154 -3.0277 -2.0659
  496MOL0     H68447   3.730   0.121   4.170 -0.6174 -2.0420  1.1585
  496MOL0     H68448   3.869   0.231   4.192  1.8099 -0.0538  3.1077
  497MOL0     O68449   5.237  10.513   8.665  0.1020 -0.2795 -0.1420
  497MOL0     C68450   5.224  10.427   8.574  0.5126 -0.4565  0.7249
  497MOL0     O68451   5.324  10.384   8.490 -0.0442 -0.2201  0.6639
  497MOL0     C68452   5.442  10.452   8.485  0.5945 -0.1731 -0.5527
  497MOL0     C68453   5.447  10.574   8.416 -0.4767 -0.0897 -0.2792
  497MOL0     C68454   5.555  10.658   8.431 -0.0114 -0.0419  0.2322
  497MOL0     C68455   5.660  10.623   8.520 -0.6459  0.2385 -0.7796
  497MOL0     O68456   5.764  10.719   8.533  0.4397  0.2933  0.2581
  497MOL0     C68457   5.875  10.686   8.617 -0.3099  0.7673 -0.4096
  497MOL0     C68458   5.976  10.805   8.629  1.5063 -0.4963  0.1704
  497MOL0     C68459   6.064  10.813   8.507  0.0433  0.5844 -0.3450
  497MOL0     C68460   6.179  10.915   8.512  0.1530  0.2530 -0.2437
  497MOL0     C68461   6.254  10.952   8.383  0.2452  0.7345  0.9014
  497MOL0     C68462   6.321  10.825   8.332  0.7365  0.1945  0.2835
  497MOL0     C68463   6.405  10.845   8.203  0.0643 -0.2933 -0.9897
  497MOL0     C68464   6.535  10.917   8.227  0.1222  0.4644 -0.7199
  497MOL0     N68465   6.613  10.828   8.319  0.4143  0.2615 -0.3447
  497MOL0     C68466   6.655  10.865   8.448  0.1406 -0.1379 -0.0772
  497MOL0     C68467   6.731  10.762   8.488 -0.3732 -0.1015 -0.2271
  497MOL0     C68468   6.814  10.737   8.617 -0.1658  0.2804  0.0095
  497MOL0     C68469   6.956  10.786   8.597  0.8076  0.3046  0.4986
  497MOL0     C68470   7.033  10.790   8.725 -0.2174 -0.0896 -0.4541
  497MOL0     C68471   7.176  10.847   8.711  0.9570 -0.6175  0.3022
  497MOL0     O68472   7.250  10.763   8.620 -0.1393 -0.4324  0.1503
  497MOL0     C68473   7.390  10.791   8.599 -0.5398 -0.1127  0.6691
  497MOL0     C68474   7.464  10.705   8.519 -0.1599  0.3503 -0.0070
  497MOL0     C68475   7.598  10.697   8.508  0.2113  0.3608 -0.5195
  497MOL0     C68476   7.654  10.600   8.410  0.6177 -0.0948 -0.1567
  497MOL0     C68477   7.670  10.787   8.597 -0.3039 -0.0911  1.0831
  497MOL0     C68478   7.816  10.800   8.595  0.5371 -0.3236  1.0680
  497MOL0     O68479   7.863  10.919   8.648  0.0255  0.2016  0.4984
  497MOL0     C68480   7.996  10.937   8.676 -0.3063  0.8502  0.7285
  497MOL0     C68481   8.108  10.903   8.591 -0.8603  0.7909  0.1801
  497MOL0     C68482   8.242  10.921   8.626  0.1299 -0.0464 -0.2117
  497MOL0     C68483   8.263  10.968   8.758 -0.1363  0.3999  0.1316
  497MOL0     O68484   8.402  10.989   8.795 -0.2479  0.7787 -0.2623
  497MOL0     C68485   8.471  10.868   8.842  0.4139  0.1540 -0.6827
  497MOL0     C68486   8.623  10.869   8.808  0.5925  0.7087  0.1787
  497MOL0     C68487   8.659  10.781   8.689  1.1200  0.7310  0.2455
  497MOL0     C68488   8.813  10.785   8.673  0.1974 -0.5024 -0.3568
  497MOL0     C68489   8.866  10.741   8.534  1.2195  0.3095  0.3646
  497MOL0     C68490   9.004  10.785   8.523 -0.2663 -0.1545 -0.1238
  497MOL0     C68491   9.072  10.709   8.403 -0.2318 -0.4299 -0.0700
  497MOL0     C68492   9.191  10.790   8.357  0.3619  0.3953  1.3546
  497MOL0    Cl68493   9.284  10.712   8.236 -0.3308 -0.6983  0.1060
  497MOL0     C68494   8.159  11.008   8.842 -0.3324  0.0242 -0.0479
  497MOL0     C68495   8.025  10.987   8.803  0.5445 -1.1104  0.1587
  497MOL0     O68496   7.881  10.708   8.550  0.1495  0.3688 -0.2092
  497MOL0     C68497   7.602  10.876   8.681 -0.4554  0.0895  0.2760
  497MOL0     C68498   7.464  10.878   8.677 -0.9398  0.3514  1.1386
  497MOL0     N68499   6.752  10.676   8.383 -0.4667 -0.0489  0.0139
  497MOL0     N68500   6.670  10.708   8.288  0.1051  0.6639  0.6944
  497MOL0     C68501   5.656  10.491   8.588 -0.1622 -0.4787  0.1785
  497MOL0     C68502   5.544  10.404   8.568 -0.6314 -0.0511  0.0784
  497MOL0     C68503   5.081  10.374   8.551 -0.2565  0.6583  0.3067
  497MOL0     C68504   4.978  10.435   8.625 -0.5993 -0.1194  0.2220
  497MOL0     C68505   4.842  10.405   8.610 -0.3842 -0.2298  0.4153
  497MOL0     C68506   4.799  10.307   8.528  0.5516  0.6739  0.4101
  497MOL0     O68507   4.663  10.294   8.519  0.0848  0.3019  0.0686
  497MOL0     C68508   4.603  10.195   8.433  0.4144 -0.3252 -0.2836
  497MOL0     C68509   4.449  10.190   8.489 -0.8208 -0.6186  0.3326
  497MOL0     C68510   4.442  10.116   8.622 -0.0181 -0.6036 -0.5775
  497MOL0     C68511   4.422   9.959   8.616  0.0553 -0.5016 -0.8705
  497MOL0     C68512   4.286   9.910   8.570 -0.5137  0.5391 -0.1230
  497MOL0     C68513   4.184   9.874   8.514  1.2609  0.5306 -0.1218
  497MOL0     C68514   4.900  10.247   8.455 -0.3101  0.0687 -0.1318
  497MOL0     C68515   5.036  10.270   8.456  0.2353 -0.6652  0.2740
  497MOL0     C68516   5.124  10.191   8.373  0.3836  0.1244  0.9782
  497MOL0     H68517   5.366  10.602   8.350 -0.9309  1.6184  0.9424
  497MOL0     H68518   5.549  10.751   8.375 -0.1667 -1.1242 -1.6493
  497MOL0     H68519   5.924  10.596   8.579  0.0192  1.5828 -2.0263
  497MOL0     H68520   5.834  10.666   8.716  0.7492 -0.0597 -0.1222
  497MOL0     H68521   5.912  10.894   8.633  0.2277 -1.4049  0.4508
  497MOL0     H68522   6.034  10.796   8.722 -0.2689 -0.2434  1.3593
  497MOL0     H68523   6.113  10.717   8.487  2.6587  1.4310  1.4722
  497MOL0     H68524   6.004  10.844   8.421  0.3782  0.3671 -0.6620
  497MOL0     H68525   6.137  11.009   8.547 -0.3454 -0.6524  1.7122
  497MOL0     H68526   6.252  10.887   8.589 -2.0613 -0.0262  1.8681
  497MOL0     H68527   6.335  11.020   8.410 -0.1854  2.0820 -0.9265
  497MOL0     H68528   6.183  10.999   8.314 -0.2469 -1.0437  0.1641
  497MOL0     H68529   6.381  10.789   8.416  0.5406  0.2999  0.4691
  497MOL0     H68530   6.243  10.754   8.302 -3.0655  4.7838 -2.0744
  497MOL0     H68531   6.355  10.897   8.120  1.2818  0.8842 -1.0304
  497MOL0     H68532   6.445  10.750   8.167  2.1916 -0.3187  1.1966
  497MOL0     H68533   6.579  10.922   8.128  1.1295  1.3118 -0.2483
  497MOL0     H68534   6.526  11.013   8.278  0.8388 -1.7962  4.3094
  497MOL0     H68535   6.629  10.953   8.505  1.5014  0.1293  0.1405
  497MOL0     H68536   6.819  10.629   8.626  1.1036  0.3671  0.5921
  497MOL0     H68537   6.768  10.774   8.710 -1.0346  0.2023 -0.3751
  497MOL0     H68538   6.997  10.719   8.520 -0.7317  1.1062 -1.0822
  497MOL0     H68539   6.949  10.882   8.543 -0.8630 -1.5461 -2.8862
  497MOL0     H68540   6.974  10.839   8.803  1.7318 -1.1151  1.7968
  497MOL0     H68541   7.042  10.684   8.750 -2.1980 -0.2372 -0.2416
  497MOL0     H68542   7.168  10.943   8.660  0.2486  0.5061  2.3744
  497MOL0     H68543   7.223  10.851   8.810 -0.0772 -0.4935  0.8045
  497MOL0     H68544   7.408  10.628   8.466 -0.9066  1.5441 -0.9894
  497MOL0     H68545   7.750  10.635   8.370  1.9734  0.6159  3.3088
  497MOL0     H68546   7.579  10.575   8.335 -0.7342  1.4243  0.6414
  497MOL0     H68547   7.691  10.512   8.464  0.5741  0.2778  0.4931
  497MOL0     H68548   8.098  10.874   8.487  0.7664 -0.5207  0.3584
  497MOL0     H68549   8.331  10.898   8.568  0.3697  0.2766  0.0293
  497MOL0     H68550   8.463  10.877   8.951 -1.1044 -1.2768 -0.6429
  497MOL0     H68551   8.431  10.774   8.802  1.8487 -0.6528 -0.2957
  497MOL0     H68552   8.659  10.970   8.790  1.6915  0.2133 -0.5013
  497MOL0     H68553   8.681  10.831   8.893  3.9028 -0.6694 -2.4656
  497MOL0     H68554   8.619  10.822   8.596 -0.2930 -0.7810  0.1331
  497MOL0     H68555   8.630  10.678   8.714 -0.7550  1.2465  0.3434
  497MOL0     H68556   8.861  10.723   8.750 -0.8585 -2.5502 -1.2528
  497MOL0     H68557   8.846  10.887   8.692 -1.3283  0.0009 -0.2722
  497MOL0     H68558   8.850  10.633   8.524 -0.3322  0.5483  0.0399
  497MOL0     H68559   8.810  10.797   8.458  1.8775  2.8072  1.6472
  497MOL0     H68560   9.061  10.764   8.614 -0.2228  0.2620 -0.0519
  497MOL0     H68561   9.003  10.893   8.503  1.7163 -0.3041 -1.3735
  497MOL0     H68562   9.012  10.700   8.312  1.4836  2.0247 -1.5406
  497MOL0     H68563   9.100  10.609   8.437 -1.2222 -0.7584 -0.1750
  497MOL0     H68564   9.243  10.808   8.451  0.1694  1.3130  1.2949
  497MOL0     H68565   9.165  10.889   8.317  0.1898 -0.7281 -1.5482
  497MOL0     H68566   8.193  11.060   8.932  1.0231  0.1521 -0.6115
  497MOL0     H68567   7.943  11.025   8.863 -1.1203 -3.1016 -0.7120
  497MOL0     H68568   7.660  10.936   8.750  1.7810  0.7613 -2.0594
  497MOL0     H68569   7.428  10.949   8.751  4.1929  2.5721  1.8786
  497MOL0     H68570   5.743  10.472   8.649  0.7880  1.9254 -0.3333
  497MOL0     H68571   5.542  10.309   8.619  2.1571  0.2768  0.9503
  497MOL0     H68572   5.011  10.511   8.696  1.1491 -0.6952  0.0659
  497MOL0     H68573   4.764  10.469   8.649  0.6549  1.0255  0.4866
  497MOL0     H68574   4.610  10.222   8.328  0.6837  0.6743 -0.0197
  497MOL0     H68575   4.656  10.100   8.447  0.7060 -0.2383 -0.7911
  497MOL0     H68576   4.381  10.152   8.412 -1.0129  1.4552 -0.5916
  497MOL0     H68577   4.421  10.295   8.499  1.3257  0.2044 -1.3835
  497MOL0     H68578   4.537  10.130   8.673  0.0471  2.3142 -1.3108
  497MOL0     H68579   4.371  10.168   8.687 -0.3569  0.7699 -1.9636
  497MOL0     H68580   4.440   9.910   8.712 -0.4596  0.0128 -0.5037
  497MOL0     H68581   4.505   9.918   8.558 -1.2293 -4.7748 -0.0698
  497MOL0     H68582   4.088   9.850   8.472 -0.5586  1.7282  3.0116
  497MOL0     H68583   4.858  10.179   8.382 -1.4736  0.3231  0.2777
  497MOL0     H68584   5.076  10.123   8.302  3.0315  0.7444 -1.6362
  497MOL0     H68585   5.188  10.250   8.307  0.6903 -0.8895  0.3481
  497MOL0     H68586   5.183  10.131   8.443 -0.1660 -2.0385 -0.3036
  498MOL0     O68587   4.564   6.905   3.629  0.1989 -0.3907 -0.2835
  498MOL0     C68588   4.476   6.918   3.543 -0.0213 -0.1581  0.0554
  498MOL0     O68589   4.508   6.965   3.414 -0.8630 -0.2382 -0.5297
  498MOL0     C68590   4.627   7.031   3.387 -0.0337  0.5028 -0.1792
  498MOL0     C68591   4.672   7.017   3.254 -1.0974 -0.1927 -0.9878
  498MOL0     C68592   4.793   7.062   3.216 -0.0127  0.2295  0.0274
  498MOL0     C68593   4.875   7.123   3.306 -0.3178  0.3900 -0.8732
  498MOL0     O68594   5.000   7.165   3.264  0.5059 -0.1336  0.2058
  498MOL0     C68595   5.107   7.196   3.361 -0.0412  0.2502 -0.2330
  498MOL0     C68596   5.231   7.215   3.279 -0.3344 -0.6578 -0.1540
  498MOL0     C68597   5.335   7.285   3.370  0.2919  0.0109  0.8546
  498MOL0     C68598   5.479   7.266   3.330 -0.2475  0.3358  0.3229
  498MOL0     C68599   5.583   7.330   3.426  0.4331 -0.4460 -0.0434
  498MOL0     C68600   5.590   7.270   3.565 -0.0702 -1.4495  0.8923
  498MOL0     C68601   5.695   7.334   3.655  0.5223  0.1102  0.2329
  498MOL0     C68602   5.708   7.267   3.796  0.1813  0.6902  0.1925
  498MOL0     N68603   5.804   7.350   3.869 -0.5490  0.3321  0.2480
  498MOL0     C68604   5.938   7.323   3.852  0.2288 -0.3186 -0.3743
  498MOL0     C68605   5.998   7.408   3.938 -0.6833  0.1859 -0.9115
  498MOL0     C68606   6.155   7.414   3.953  1.2245  0.4661  0.2169
  498MOL0     C68607   6.206   7.555   3.926 -0.4175  0.6969  0.2993
  498MOL0     C68608   6.346   7.577   3.979  0.2666  0.2314 -0.2228
  498MOL0     C68609   6.464   7.483   3.935 -0.0996 -0.2783 -0.2346
  498MOL0     O68610   6.578   7.564   3.954 -0.0508  0.0090  0.2007
  498MOL0     C68611   6.702   7.512   3.933  0.5033 -0.5749 -0.2758
  498MOL0     C68612   6.736   7.386   3.872 -0.1921  0.0228 -0.0230
  498MOL0     C68613   6.868   7.346   3.856 -0.6177 -0.4879  0.5581
  498MOL0     C68614   6.889   7.216   3.786 -0.0608 -0.1097 -0.2598
  498MOL0     C68615   6.973   7.430   3.902  0.7062  0.0386 -0.1171
  498MOL0     C68616   7.115   7.392   3.894 -0.2844  0.6043 -0.1046
  498MOL0     O68617   7.198   7.422   3.993 -0.1138 -0.2788  0.3623
  498MOL0     C68618   7.320   7.360   3.986 -0.4766  0.6696 -0.3876
  498MOL0     C68619   7.355   7.264   4.084  0.2598  1.0507  0.0677
  498MOL0     C68620   7.483   7.203   4.100 -0.8434 -0.1981  0.3868
  498MOL0     C68621   7.586   7.253   4.023  1.3231 -0.1288 -0.5865
  498MOL0     O68622   7.717   7.210   4.025 -0.2634 -0.5038  0.4589
  498MOL0     C68623   7.763   7.154   4.154  0.1713 -1.1488 -0.4303
  498MOL0     C68624   7.919   7.154   4.164 -0.6105 -0.0419  0.0563
  498MOL0     C68625   7.979   7.052   4.267 -0.6177 -0.1773  0.8918
  498MOL0     C68626   8.127   7.039   4.259 -0.3808 -0.8078 -0.5515
  498MOL0     C68627   8.186   6.934   4.350 -0.7460 -0.1359  0.3605
  498MOL0     C68628   8.334   6.914   4.322 -0.0883 -0.8728  0.6067
  498MOL0     C68629   8.381   6.829   4.439 -0.2748  0.3482  0.3230
  498MOL0     C68630   8.527   6.791   4.419 -0.0447  0.7929  0.3159
  498MOL0    Cl68631   8.617   6.944   4.438  0.1450  0.6327 -0.0742
  498MOL0     C68632   7.554   7.358   3.934 -0.0382  0.1561 -0.2205
  498MOL0     C68633   7.427   7.409   3.908 -0.4815  0.7496 -0.1721
  498MOL0     O68634   7.154   7.335   3.791 -0.1492 -0.3292  0.4442
  498MOL0     C68635   6.943   7.559   3.954  0.1301  0.6472 -0.3712
  498MOL0     C68636   6.807   7.595   3.980 -0.2263  0.1432  0.6189
  498MOL0     N68637   5.899   7.487   3.992 -0.1828 -0.4744  0.7536
  498MOL0     N68638   5.781   7.457   3.939  0.1577  0.6300 -0.1751
  498MOL0     C68639   4.834   7.152   3.438  0.8122 -0.5135  0.0699
  498MOL0     C68640   4.709   7.108   3.477 -0.0607  1.6073 -0.9022
  498MOL0     C68641   4.343   6.850   3.582  1.2153 -0.7230  0.5504
  498MOL0     C68642   4.313   6.835   3.717  0.0870  0.1598 -0.1301
  498MOL0     C68643   4.185   6.781   3.754 -0.0858 -0.8514  0.6437
  498MOL0     C68644   4.081   6.747   3.661 -0.2573 -0.4476  0.4229
  498MOL0     O68645   3.960   6.716   3.713  0.1612 -0.6029  0.2458
  498MOL0     C68646   3.858   6.658   3.632  0.6887 -0.3421  0.4385
  498MOL0     C68647   3.764   6.580   3.723 -0.0368 -0.3987 -0.1121
  498MOL0     C68648   3.705   6.674   3.840 -0.0946  0.5522 -0.0381
  498MOL0     C68649   3.568   6.736   3.797  0.0105 -0.1822  0.4834
  498MOL0     C68650   3.576   6.857   3.718 -0.7556 -0.1459 -0.1311
  498MOL0     C68651   3.556   6.956   3.652  0.4805  0.9022  0.4388
  498MOL0     C68652   4.117   6.754   3.524 -0.1160 -0.0613 -0.1610
  498MOL0     C68653   4.244   6.806   3.480 -0.7703 -0.3562 -0.1248
  498MOL0     C68654   4.268   6.820   3.330 -0.9708  0.3813 -0.5537
  498MOL0     H68655   4.607   6.959   3.188 -2.7062  0.3640  0.0418
  498MOL0     H68656   4.828   7.063   3.114  0.3490  2.9831  0.0930
  498MOL0     H68657   5.138   7.111   3.422  1.4924  0.4177 -0.7586
  498MOL0     H68658   5.071   7.285   3.414  0.4640  0.9152 -0.9895
  498MOL0     H68659   5.268   7.118   3.246  3.6063  0.2242  1.1957
  498MOL0     H68660   5.207   7.276   3.192  1.3037 -0.8260 -0.7386
  498MOL0     H68661   5.314   7.392   3.385  4.4389  0.7304  2.9585
  498MOL0     H68662   5.330   7.239   3.469 -0.8181 -2.1608 -0.1544
  498MOL0     H68663   5.501   7.164   3.299  1.0633  0.2937  1.3124
  498MOL0     H68664   5.495   7.324   3.239 -0.5558  0.4010  0.3103
  498MOL0     H68665   5.556   7.436   3.435  1.0234 -0.1260 -1.7102
  498MOL0     H68666   5.679   7.320   3.375 -0.1622  0.5271 -1.4282
  498MOL0     H68667   5.489   7.271   3.606 -0.8619  1.6797 -0.8085
  498MOL0     H68668   5.623   7.167   3.549  2.4190 -0.4479 -1.0664
  498MOL0     H68669   5.680   7.441   3.672 -0.2456 -0.2076  1.6676
  498MOL0     H68670   5.789   7.322   3.600  0.3377 -0.0878 -0.0421
  498MOL0     H68671   5.611   7.255   3.846  0.0891 -1.1199 -0.3390
  498MOL0     H68672   5.733   7.161   3.788  2.3243  1.1257  0.5681
  498MOL0     H68673   5.983   7.244   3.794  2.5257  0.1347  0.6782
  498MOL0     H68674   6.185   7.336   3.882 -0.6873 -1.0129  0.9195
  498MOL0     H68675   6.184   7.382   4.054  0.3432 -0.3108  0.2439
  498MOL0     H68676   6.204   7.570   3.818 -0.3948  0.4006  0.2588
  498MOL0     H68677   6.136   7.632   3.960 -3.0645  0.6446 -4.2952
  498MOL0     H68678   6.372   7.680   3.956  0.1217 -0.0910 -1.9922
  498MOL0     H68679   6.352   7.570   4.088  2.2018  3.7364  0.0413
  498MOL0     H68680   6.475   7.390   3.993 -2.6101 -0.1398  0.5712
  498MOL0     H68681   6.437   7.453   3.833  1.1010 -1.0439 -0.3406
  498MOL0     H68682   6.655   7.320   3.843  0.0053  0.7938 -2.5617
  498MOL0     H68683   6.790   7.170   3.775 -0.5513  0.6177  0.9086
  498MOL0     H68684   6.947   7.143   3.842 -2.0812 -2.5938 -1.1884
  498MOL0     H68685   6.932   7.242   3.688 -1.7163 -1.2574 -1.3448
  498MOL0     H68686   7.285   7.230   4.159  1.8852  1.1117  1.6706
  498MOL0     H68687   7.487   7.118   4.166 -3.0846 -1.5246 -1.0465
  498MOL0     H68688   7.726   7.214   4.238 -4.6927 -0.6310 -2.6000
  498MOL0     H68689   7.726   7.053   4.174  0.9773 -1.1228  1.4060
  498MOL0     H68690   7.958   7.132   4.064  0.8125  0.1559  0.5500
  498MOL0     H68691   7.951   7.254   4.195  0.0638  0.1434 -1.1653
  498MOL0     H68692   7.938   6.953   4.243  1.0269 -0.8082  0.4784
  498MOL0     H68693   7.947   7.077   4.368  0.9436 -0.9020  1.5970
  498MOL0     H68694   8.168   7.133   4.299  0.9257 -2.4039  2.1795
  498MOL0     H68695   8.153   7.016   4.155 -1.9502 -1.4012 -0.8374
  498MOL0     H68696   8.152   6.960   4.450 -0.8800  0.4943  0.1585
  498MOL0     H68697   8.128   6.841   4.342 -1.9951  0.4007  2.4054
  498MOL0     H68698   8.380   7.013   4.324 -0.9799 -0.4450  0.6401
  498MOL0     H68699   8.356   6.876   4.222  0.8226  0.7178  0.1639
  498MOL0     H68700   8.330   6.732   4.438  2.1904 -1.0237  0.1238
  498MOL0     H68701   8.370   6.882   4.534 -0.4682  3.4535 -1.2919
  498MOL0     H68702   8.534   6.748   4.319 -0.5468 -0.3994  0.7745
  498MOL0     H68703   8.568   6.721   4.493  1.3178 -2.2535 -3.0520
  498MOL0     H68704   7.643   7.385   3.879  2.8366 -1.8066  3.1174
  498MOL0     H68705   7.396   7.483   3.835 -2.2015 -1.9450 -2.3478
  498MOL0     H68706   7.028   7.622   3.980 -0.9022  2.2678 -0.7745
  498MOL0     H68707   6.793   7.681   4.045 -2.3322 -1.1486  1.9865
  498MOL0     H68708   4.898   7.204   3.510  0.2043  0.8161 -0.3166
  498MOL0     H68709   4.678   7.129   3.579  0.3806  1.4595 -0.7385
  498MOL0     H68710   4.380   6.883   3.788 -0.4626 -2.6990  2.5872
  498MOL0     H68711   4.152   6.799   3.856  1.4821 -0.3112  1.0876
  498MOL0     H68712   3.806   6.743   3.588 -0.0874 -1.5692 -1.1257
  498MOL0     H68713   3.896   6.601   3.547 -0.0617 -0.6973  0.3312
  498MOL0     H68714   3.824   6.495   3.758  0.1453 -1.5302 -2.9225
  498MOL0     H68715   3.685   6.525   3.671 -1.2619  1.0562  0.1384
  498MOL0     H68716   3.702   6.617   3.934  2.1713 -1.7899 -1.2475
  498MOL0     H68717   3.776   6.751   3.871  3.1419 -2.4411  0.6776
  498MOL0     H68718   3.521   6.767   3.891 -1.1521  0.9037 -0.4117
  498MOL0     H68719   3.500   6.659   3.760 -3.3347  1.5146  2.5544
  498MOL0     H68720   3.517   7.031   3.587 -0.4279  1.7384  1.8744
  498MOL0     H68721   4.046   6.724   3.447  0.5293  1.6097 -1.4674
  498MOL0     H68722   4.354   6.762   3.295 -0.2545  2.2997 -2.1609
  498MOL0     H68723   4.175   6.798   3.277 -3.6293  0.8753  3.4729
  498MOL0     H68724   4.294   6.925   3.319  3.3964 -0.4095  0.2933
  499MOL0     O68725   1.912   4.621   6.218 -0.0707  0.2986  0.2890
  499MOL0     C68726   1.942   4.526   6.292 -0.0962 -0.4827  0.3183
  499MOL0     O68727   2.061   4.496   6.347 -0.7204 -0.9789 -0.9320
  499MOL0     C68728   2.175   4.573   6.350 -0.8484 -0.2256 -0.5434
  499MOL0     C68729   2.299   4.509   6.346  0.4380 -0.3187  0.1354
  499MOL0     C68730   2.414   4.583   6.339  0.5286 -0.0718 -0.6227
  499MOL0     C68731   2.412   4.725   6.349  0.5204  0.0933 -0.7599
  499MOL0     O68732   2.520   4.801   6.339 -0.2832  0.4273  0.8667
  499MOL0     C68733   2.651   4.742   6.320 -0.2800  0.6854  0.3035
  499MOL0     C68734   2.741   4.860   6.316  0.1256  0.3584 -0.0754
  499MOL0     C68735   2.808   4.891   6.450  0.1942  0.0459  0.1552
  499MOL0     C68736   2.699   4.955   6.544 -1.1576 -0.2675 -0.4825
  499MOL0     C68737   2.779   5.037   6.650 -0.4341 -0.0951 -0.5847
  499MOL0     C68738   2.849   4.935   6.749  0.6280 -0.5866  0.4501
  499MOL0     C68739   2.901   4.998   6.876  0.4493 -0.6880 -0.6869
  499MOL0     C68740   2.950   4.908   6.990 -0.1410  0.4795  0.8741
  499MOL0     N68741   2.848   4.819   7.043  0.0917  0.7835 -0.4703
  499MOL0     C68742   2.716   4.857   7.067  0.3410 -0.1117 -0.2510
  499MOL0     C68743   2.651   4.740   7.108  0.2157  0.3659  0.1013
  499MOL0     C68744   2.513   4.724   7.171  0.3677  0.3203  0.0175
  499MOL0     C68745   2.503   4.759   7.316  0.1953 -0.5078  0.2855
  499MOL0     C68746   2.615   4.709   7.410  0.9985 -0.5909  1.1966
  499MOL0     C68747   2.589   4.756   7.552  0.0614  0.5578 -0.0300
  499MOL0     O68748   2.576   4.895   7.567 -0.2434 -0.0496 -0.5435
  499MOL0     C68749   2.694   4.960   7.603  0.2411 -0.0087  0.1233
  499MOL0     C68750   2.677   5.095   7.628 -0.5041 -0.4689 -0.3809
  499MOL0     C68751   2.786   5.174   7.652  0.3179  1.2181 -0.2573
  499MOL0     C68752   2.748   5.321   7.677 -0.0904  0.1736 -0.0733
  499MOL0     C68753   2.916   5.121   7.655 -0.3705  0.1609  0.4209
  499MOL0     C68754   3.043   5.200   7.681  0.6374  0.2911 -0.6291
  499MOL0     O68755   3.115   5.170   7.799 -0.0401 -0.6810  0.2982
  499MOL0     C68756   3.242   5.229   7.812 -0.5363  0.6649  0.7148
  499MOL0     C68757   3.325   5.266   7.707 -0.2669 -0.0009 -0.4344
  499MOL0     C68758   3.459   5.312   7.725  0.1708  0.0338 -0.4242
  499MOL0     C68759   3.509   5.310   7.864 -0.7303 -0.3221  0.8889
  499MOL0     O68760   3.643   5.339   7.876  0.2713 -0.8315  0.2196
  499MOL0     C68761   3.695   5.366   8.004 -0.3926 -0.4772 -0.1680
  499MOL0     C68762   3.828   5.432   7.976 -0.3250 -0.7572 -0.5558
  499MOL0     C68763   3.882   5.486   8.112  0.3648 -0.6870 -0.9388
  499MOL0     C68764   4.027   5.527   8.087 -0.3851 -0.1527  0.4656
  499MOL0     C68765   4.073   5.629   8.191 -0.6698 -0.6792  0.3553
  499MOL0     C68766   4.074   5.567   8.326  0.3059 -0.1189 -0.2881
  499MOL0     C68767   4.141   5.662   8.418 -0.4981  0.0265  0.1020
  499MOL0     C68768   4.187   5.616   8.555  0.0684 -0.8581 -0.0104
  499MOL0    Cl68769   4.246   5.750   8.663  0.1577  0.1984  0.4070
  499MOL0     C68770   3.427   5.266   7.968  0.9544  0.0160  0.3042
  499MOL0     C68771   3.292   5.229   7.943  0.2341  0.0796  0.2968
  499MOL0     O68772   3.056   5.296   7.607 -0.1169  0.3146  0.9710
  499MOL0     C68773   2.933   4.975   7.648  0.5575 -0.1880 -0.2330
  499MOL0     C68774   2.820   4.900   7.619 -0.1835 -0.2948 -0.1363
  499MOL0     N68775   2.742   4.638   7.104 -0.2508 -0.3199  0.0075
  499MOL0     N68776   2.857   4.683   7.061 -0.1852  0.0921 -0.6890
  499MOL0     C68777   2.285   4.790   6.373  0.2748  0.9710  1.1723
  499MOL0     C68778   2.165   4.712   6.361  0.4929  0.9983 -0.5968
  499MOL0     C68779   1.833   4.425   6.323  0.5763 -1.4127 -0.0202
  499MOL0     C68780   1.855   4.337   6.428 -0.4316 -0.1664 -0.5057
  499MOL0     C68781   1.754   4.249   6.481 -0.0734 -0.2893 -0.1091
  499MOL0     C68782   1.631   4.238   6.415 -0.1425 -0.0791  0.2630
  499MOL0     O68783   1.527   4.150   6.445 -0.9009  0.6320 -0.6521
  499MOL0     C68784   1.546   4.046   6.545  0.3234  0.0560 -0.3123
  499MOL0     C68785   1.424   3.961   6.579 -0.0250 -0.1947  0.3530
  499MOL0     C68786   1.460   3.837   6.659  0.3639 -0.6400 -0.2662
  499MOL0     C68787   1.338   3.760   6.706  0.2378 -0.3440  0.0691
  499MOL0     C68788   1.242   3.843   6.792 -0.3650  0.1329  0.9871
  499MOL0     C68789   1.184   3.916   6.866 -0.4360  0.4489  0.7503
  499MOL0     C68790   1.608   4.330   6.306  0.7967  1.2331 -0.3255
  499MOL0     C68791   1.707   4.409   6.252  0.0782  0.9327  0.0941
  499MOL0     C68792   1.686   4.465   6.117 -0.2265 -0.2924  0.3173
  499MOL0     H68793   2.293   4.401   6.338 -1.6355 -0.3916  1.8410
  499MOL0     H68794   2.510   4.533   6.338  0.1957 -0.7897  0.7937
  499MOL0     H68795   2.655   4.677   6.231 -1.3147  1.3801 -0.2727
  499MOL0     H68796   2.680   4.675   6.401 -2.3868  0.2277  0.7330
  499MOL0     H68797   2.824   4.842   6.248  1.5619  1.5537  1.2713
  499MOL0     H68798   2.701   4.953   6.275  1.9593  0.6200 -1.3547
  499MOL0     H68799   2.851   4.799   6.490  0.6607  0.2825  0.2051
  499MOL0     H68800   2.891   4.959   6.428  0.0203 -0.3449 -1.9783
  499MOL0     H68801   2.626   5.017   6.492 -3.0191 -0.5841  1.6083
  499MOL0     H68802   2.641   4.881   6.600 -0.1387  0.2592  1.3768
  499MOL0     H68803   2.703   5.093   6.705 -2.6554 -0.8108 -2.7495
  499MOL0     H68804   2.849   5.109   6.606  0.0262  0.3541  0.8207
  499MOL0     H68805   2.782   4.849   6.762  0.6353 -1.0957 -2.2006
  499MOL0     H68806   2.933   4.887   6.697  1.3102  0.0068  0.9875
  499MOL0     H68807   2.817   5.053   6.920  1.1571  0.5729 -0.8845
  499MOL0     H68808   2.985   5.063   6.850  0.9752 -1.0746  0.0159
  499MOL0     H68809   3.047   4.860   6.973  0.3004  1.2775  1.1104
  499MOL0     H68810   2.972   4.984   7.065 -0.5134  1.7709 -0.2617
  499MOL0     H68811   2.671   4.954   7.052  0.2041 -0.2942 -1.0968
  499MOL0     H68812   2.476   4.621   7.163  0.6715 -0.0987  2.8915
  499MOL0     H68813   2.435   4.785   7.124 -3.1841 -0.0831  4.6912
  499MOL0     H68814   2.487   4.867   7.323  1.4777 -0.4330  3.4719
  499MOL0     H68815   2.404   4.725   7.348 -2.3533  4.4561 -1.2855
  499MOL0     H68816   2.617   4.601   7.399 -2.3020 -0.4929 -2.8172
  499MOL0     H68817   2.716   4.741   7.383  0.9575  1.3322  3.0533
  499MOL0     H68818   2.484   4.734   7.575  0.2914  0.8168  1.3118
  499MOL0     H68819   2.639   4.704   7.635 -0.3868 -1.7630 -1.1222
  499MOL0     H68820   2.575   5.132   7.620 -0.8500 -0.5888  2.5878
  499MOL0     H68821   2.662   5.320   7.745  2.1143 -1.4908  2.9552
  499MOL0     H68822   2.723   5.374   7.585  0.7597  2.1129  0.7586
  499MOL0     H68823   2.827   5.377   7.727  0.4635 -0.1958 -0.5226
  499MOL0     H68824   3.280   5.277   7.609  0.7878  2.0118 -0.7482
  499MOL0     H68825   3.528   5.333   7.644  0.3987  0.2200 -0.1813
  499MOL0     H68826   3.628   5.433   8.060 -1.7571 -2.6912  0.9639
  499MOL0     H68827   3.702   5.275   8.064  1.3826 -0.5717 -0.4782
  499MOL0     H68828   3.900   5.362   7.932  2.1061  0.9256  0.4927
  499MOL0     H68829   3.809   5.517   7.909  1.5573 -0.1977 -0.4404
  499MOL0     H68830   3.867   5.420   8.198 -1.6972  0.1796 -0.5884
  499MOL0     H68831   3.829   5.579   8.133  0.1804 -0.9133 -0.3777
  499MOL0     H68832   4.037   5.578   7.991  0.7711 -1.1512  0.0279
  499MOL0     H68833   4.082   5.432   8.083  0.1676  0.1853 -0.3207
  499MOL0     H68834   4.178   5.650   8.167 -0.8417 -0.4033 -0.1799
  499MOL0     H68835   4.009   5.717   8.182 -0.6522 -0.6998  0.0141
  499MOL0     H68836   4.137   5.478   8.330 -1.0838 -1.1363  3.1534
  499MOL0     H68837   3.972   5.542   8.358  0.8203  0.7220  2.2329
  499MOL0     H68838   4.072   5.745   8.432 -2.5933 -0.9852 -3.0662
  499MOL0     H68839   4.225   5.710   8.367  0.3551  3.0354  3.9099
  499MOL0     H68840   4.258   5.535   8.535 -1.3938 -1.7926 -1.8131
  499MOL0     H68841   4.097   5.577   8.604 -0.5497  2.0325  1.3534
  499MOL0     H68842   3.469   5.258   8.068  1.7259 -1.8069 -0.1238
  499MOL0     H68843   3.229   5.194   8.025  1.0864 -0.5143  0.7116
  499MOL0     H68844   3.027   4.922   7.658  0.1347 -0.6148  2.1919
  499MOL0     H68845   2.824   4.792   7.606  0.2332 -0.2717 -0.1969
  499MOL0     H68846   2.280   4.897   6.389  1.0836  1.2503 -0.2522
  499MOL0     H68847   2.062   4.744   6.366 -0.6339 -2.2986 -0.2758
  499MOL0     H68848   1.948   4.335   6.483 -0.3534 -2.3707 -0.6096
  499MOL0     H68849   1.779   4.197   6.573 -1.4295  1.1588  1.1307
  499MOL0     H68850   1.632   3.983   6.519  0.3747  0.3331 -0.8277
  499MOL0     H68851   1.586   4.091   6.636  0.6974  0.4691 -0.6787
  499MOL0     H68852   1.371   3.933   6.487 -2.0443  1.2277  1.0043
  499MOL0     H68853   1.349   4.017   6.636  2.0383  0.1547  2.8775
  499MOL0     H68854   1.517   3.767   6.598  0.0397 -1.6486  0.5553
  499MOL0     H68855   1.521   3.872   6.744 -1.5253  1.7771  0.2125
  499MOL0     H68856   1.361   3.669   6.763  0.5201  1.4059  2.9613
  499MOL0     H68857   1.277   3.718   6.626 -0.8425 -1.4574  1.4098
  499MOL0     H68858   1.128   3.985   6.926  0.2067  0.6430  1.1378
  499MOL0     H68859   1.514   4.316   6.254  0.1686  0.1206  1.0406
  499MOL0     H68860   1.606   4.413   6.064 -0.8788 -1.2006  2.1187
  499MOL0     H68861   1.648   4.566   6.136 -2.7725 -1.3968  1.4872
  499MOL0     H68862   1.782   4.457   6.065  0.0443 -2.4594  1.0708
  500MOL0     O68863   2.525   4.375   3.430 -0.6158 -0.8004 -0.6488
  500MOL0     C68864   2.493   4.415   3.539 -0.2344 -0.6306  0.1933
  500MOL0     O68865   2.577   4.482   3.625 -0.4145  0.2228  0.4853
  500MOL0     C68866   2.710   4.499   3.595  0.2346 -0.0323 -0.4843
  500MOL0     C68867   2.760   4.554   3.475  0.8132  0.5368  0.5795
  500MOL0     C68868   2.894   4.582   3.459 -0.6109  0.2556 -0.3856
  500MOL0     C68869   2.988   4.560   3.564  0.5849  0.3550  0.0574
  500MOL0     O68870   3.117   4.613   3.544  0.6034  0.3360  0.0108
  500MOL0     C68871   3.193   4.654   3.654  0.0732  0.5211  0.3018
  500MOL0     C68872   3.313   4.738   3.617 -0.2874  0.4058  0.0100
  500MOL0     C68873   3.442   4.642   3.605  0.7974  0.1840  0.1698
  500MOL0     C68874   3.555   4.725   3.548  0.6073  0.2521  0.1063
  500MOL0     C68875   3.661   4.620   3.504 -0.1242 -0.7742  0.4649
  500MOL0     C68876   3.795   4.690   3.470  0.7227  0.1953 -0.3865
  500MOL0     C68877   3.899   4.587   3.418 -0.5168  0.9126 -0.0138
  500MOL0     C68878   4.026   4.645   3.354  1.2119  0.4027  0.2279
  500MOL0     N68879   4.014   4.657   3.206 -0.8993 -0.5161 -0.4001
  500MOL0     C68880   4.078   4.567   3.112  0.4213 -0.1673 -0.0732
  500MOL0     C68881   4.015   4.602   2.995 -0.2523  0.0870 -0.4021
  500MOL0     C68882   4.040   4.527   2.858  0.8113  0.7949 -0.7587
  500MOL0     C68883   4.168   4.592   2.802 -0.3086  0.8821 -0.7805
  500MOL0     C68884   4.305   4.540   2.846 -0.0952 -0.1450  0.2123
  500MOL0     C68885   4.410   4.631   2.785 -0.4423 -0.3014 -0.4117
  500MOL0     O68886   4.532   4.564   2.810  0.3088 -0.4156  0.3038
  500MOL0     C68887   4.597   4.573   2.931  0.4197  0.4911  0.3490
  500MOL0     C68888   4.723   4.500   2.940  0.1725 -0.9264  0.0321
  500MOL0     C68889   4.788   4.489   3.072 -0.1558  1.0686  0.7093
  500MOL0     C68890   4.909   4.398   3.072  0.4422  0.4923  0.7922
  500MOL0     C68891   4.745   4.559   3.188 -0.1752  0.1816  0.7872
  500MOL0     C68892   4.808   4.541   3.320 -0.2443  0.0088  0.6063
  500MOL0     O68893   4.777   4.625   3.415  0.0096  0.7387  0.0354
  500MOL0     C68894   4.857   4.631   3.527 -0.6366  0.3340 -0.2572
  500MOL0     C68895   4.839   4.542   3.636  0.1214  0.8186  0.6375
  500MOL0     C68896   4.907   4.561   3.754  0.0424  0.2942  0.1882
  500MOL0     C68897   4.993   4.677   3.771 -0.0286 -0.6006  0.0081
  500MOL0     O68898   5.042   4.712   3.893  0.1655  0.2506 -0.1822
  500MOL0     C68899   5.144   4.798   3.902  0.3366  0.1727 -0.3183
  500MOL0     C68900   5.204   4.793   4.034  0.9056 -0.1713  0.2764
  500MOL0     C68901   5.299   4.917   4.040  0.0189 -0.3865  0.3993
  500MOL0     C68902   5.369   4.940   4.177 -0.0834 -0.0260 -0.1269
  500MOL0     C68903   5.266   4.982   4.281 -0.0422  0.7156 -0.6472
  500MOL0     C68904   5.334   5.000   4.418  0.0315 -0.0796  0.1629
  500MOL0     C68905   5.360   5.148   4.456  0.1301  0.1741  0.7925
  500MOL0     C68906   5.427   5.150   4.589 -0.1934  1.2911  0.2616
  500MOL0    Cl68907   5.409   5.322   4.640  0.3001 -0.1925  0.3029
  500MOL0     C68908   5.011   4.761   3.661  0.1168 -0.3531 -0.3139
  500MOL0     C68909   4.944   4.739   3.541 -0.5157 -0.6048 -0.1480
  500MOL0     O68910   4.896   4.462   3.331  0.8489 -0.1271  0.2563
  500MOL0     C68911   4.623   4.626   3.174  0.1573  0.8692 -0.1179
  500MOL0     C68912   4.550   4.639   3.051 -0.0620  0.0656  0.7126
  500MOL0     N68913   3.937   4.718   3.005  0.0840  0.2227 -0.9082
  500MOL0     N68914   3.943   4.752   3.137 -0.9823  0.1506  0.1634
  500MOL0     C68915   2.942   4.502   3.686  0.2473 -0.7511  0.2007
  500MOL0     C68916   2.804   4.484   3.701 -0.1489  0.6130  0.5984
  500MOL0     C68917   2.356   4.387   3.592 -0.4540 -0.2466 -0.1331
  500MOL0     C68918   2.346   4.373   3.734 -0.4818 -0.4810  0.9516
  500MOL0     C68919   2.232   4.322   3.791  0.1299 -0.8706 -0.9961
  500MOL0     C68920   2.119   4.305   3.710 -0.2609  0.4692 -0.3222
  500MOL0     O68921   1.997   4.254   3.757 -0.3290 -0.1730 -0.3514
  500MOL0     C68922   1.981   4.211   3.896 -0.4672 -0.0627  0.3728
  500MOL0     C68923   1.839   4.161   3.932  0.4004 -0.1343 -0.5169
  500MOL0     C68924   1.728   4.227   3.845  1.6259 -0.2688 -0.7434
  500MOL0     C68925   1.602   4.140   3.836  0.5860 -0.6908 -0.9606
  500MOL0     C68926   1.531   4.121   3.970 -0.1162  0.2981 -0.2698
  500MOL0     C68927   1.486   4.096   4.083 -0.5843  0.2495 -0.0445
  500MOL0     C68928   2.128   4.314   3.572  0.5010 -0.5795  0.6090
  500MOL0     C68929   2.241   4.358   3.516 -0.2673 -0.2818  0.7040
  500MOL0     C68930   2.241   4.367   3.367 -0.2518 -0.1118  0.4333
  500MOL0     H68931   2.685   4.571   3.398  2.3728 -1.4129 -1.4997
  500MOL0     H68932   2.939   4.633   3.374 -2.0122 -1.2635 -2.1214
  500MOL0     H68933   3.222   4.561   3.705  2.2127 -0.4128 -2.3559
  500MOL0     H68934   3.127   4.724   3.706  0.2391  1.5938 -0.8836
  500MOL0     H68935   3.289   4.784   3.521 -1.8439  0.1634  0.2588
  500MOL0     H68936   3.328   4.818   3.691 -0.1113  0.0909  0.3187
  500MOL0     H68937   3.464   4.593   3.700  0.3916 -0.1487  0.0938
  500MOL0     H68938   3.420   4.562   3.534  0.2922 -0.4623  1.0313
  500MOL0     H68939   3.532   4.788   3.461  2.2905  1.8095  0.7116
  500MOL0     H68940   3.603   4.789   3.624  2.5780 -1.4076  0.3420
  500MOL0     H68941   3.627   4.555   3.423  0.2858 -1.8083  1.0996
  500MOL0     H68942   3.685   4.552   3.586 -2.1346 -2.2665 -0.1029
  500MOL0     H68943   3.775   4.763   3.390  0.4254 -0.9506 -1.4006
  500MOL0     H68944   3.833   4.737   3.561 -1.4978 -1.0043  1.2634
  500MOL0     H68945   3.845   4.516   3.354 -0.0687 -0.5002  1.1456
  500MOL0     H68946   3.945   4.532   3.500 -2.1450 -0.5339 -0.0147
  500MOL0     H68947   4.042   4.740   3.404  2.0077 -0.3070  1.3530
  500MOL0     H68948   4.112   4.581   3.373  1.6290  0.6401 -0.8028
  500MOL0     H68949   4.141   4.480   3.128  0.5998  0.0153  0.2491
  500MOL0     H68950   3.952   4.544   2.795  0.2985 -0.7681 -0.5058
  500MOL0     H68951   4.043   4.419   2.876 -1.5590  0.0334 -3.8985
  500MOL0     H68952   4.147   4.579   2.695  1.2174  4.4881 -1.6853
  500MOL0     H68953   4.174   4.700   2.817  2.5334  0.7080 -0.0849
  500MOL0     H68954   4.304   4.541   2.955  1.2694  1.0135  0.2451
  500MOL0     H68955   4.323   4.441   2.803  0.3320 -0.4123  0.9849
  500MOL0     H68956   4.395   4.646   2.678 -0.0494  0.3149 -0.3885
  500MOL0     H68957   4.402   4.729   2.833  1.6222 -0.3719  0.1901
  500MOL0     H68958   4.756   4.451   2.849 -0.6069  0.8306 -1.2589
  500MOL0     H68959   4.878   4.303   3.117 -0.6592  0.1911 -0.5236
  500MOL0     H68960   4.992   4.453   3.116 -0.4196  0.1700  2.9365
  500MOL0     H68961   4.934   4.376   2.968  1.4872 -1.4948  1.4104
  500MOL0     H68962   4.789   4.446   3.628  0.8131  0.6041 -2.7201
  500MOL0     H68963   4.876   4.497   3.837 -1.4470 -0.9374 -1.2526
  500MOL0     H68964   5.224   4.785   3.829  1.8593  1.7309  0.9727
  500MOL0     H68965   5.101   4.898   3.891  0.8417  0.6560  1.6732
  500MOL0     H68966   5.133   4.807   4.116 -1.3963 -0.9315 -1.4891
  500MOL0     H68967   5.257   4.699   4.049 -1.2105 -1.1150  2.6110
  500MOL0     H68968   5.250   5.012   4.014 -1.5873 -1.0460  0.8836
  500MOL0     H68969   5.381   4.909   3.969  1.0717 -0.3860  1.5716
  500MOL0     H68970   5.444   5.018   4.160 -2.1078  1.6005 -2.1857
  500MOL0     H68971   5.431   4.854   4.205  0.5930  0.0157 -1.4297
  500MOL0     H68972   5.210   5.067   4.242  0.9675  1.5800 -0.2650
  500MOL0     H68973   5.200   4.896   4.297 -2.1585  2.3699 -0.1458
  500MOL0     H68974   5.436   4.960   4.414  0.4974  1.0910 -3.9275
  500MOL0     H68975   5.276   4.957   4.500  0.9012 -1.0750  0.2836
  500MOL0     H68976   5.261   5.195   4.454  0.7976  1.6275  0.5925
  500MOL0     H68977   5.416   5.192   4.373 -3.0787 -2.1225 -2.9432
  500MOL0     H68978   5.534   5.130   4.578 -0.6145 -0.1457 -1.7606
  500MOL0     H68979   5.373   5.079   4.651  1.3226  0.5605  0.7899
  500MOL0     H68980   5.052   4.861   3.673  1.3073 -1.1833  4.6562
  500MOL0     H68981   4.953   4.821   3.470  2.4777  0.8245  1.6967
  500MOL0     H68982   4.572   4.671   3.258 -0.8778 -2.0166  0.9049
  500MOL0     H68983   4.462   4.702   3.048 -0.5341 -0.5997  0.3061
  500MOL0     H68984   3.010   4.481   3.768  2.1394 -1.1108 -1.3729
  500MOL0     H68985   2.768   4.451   3.799 -1.5553 -2.4954 -0.8203
  500MOL0     H68986   2.427   4.392   3.804 -1.1905  1.4213  1.3184
  500MOL0     H68987   2.221   4.300   3.897  2.3948  0.9394 -0.3212
  500MOL0     H68988   2.053   4.137   3.932 -0.9529 -0.0390  1.4209
  500MOL0     H68989   1.999   4.302   3.955  1.9575  0.3394 -0.8714
  500MOL0     H68990   1.823   4.168   4.040 -0.1804 -2.1055 -0.4371
  500MOL0     H68991   1.828   4.053   3.921 -2.4075 -0.1558  1.3530
  500MOL0     H68992   1.695   4.323   3.887  0.3021 -2.4624  3.9143
  500MOL0     H68993   1.765   4.243   3.744 -0.1174  1.1225 -1.2314
  500MOL0     H68994   1.619   4.037   3.803  0.4460 -1.2699  0.6551
  500MOL0     H68995   1.533   4.197   3.774  0.2078 -1.2892 -1.0883
  500MOL0     H68996   1.440   4.088   4.180  2.0695  0.2914  1.3262
  500MOL0     H68997   2.036   4.286   3.523 -0.3554  0.0134  1.8048
  500MOL0     H68998   2.275   4.468   3.340 -1.2864  0.1886  0.2023
  500MOL0     H68999   2.300   4.284   3.329 -2.3800 -1.2014 -0.6772
  500MOL0     H69000   2.135   4.356   3.343 -0.2628  1.7172 -0.5743
  501MOL0     O69001   3.082  10.938   7.373 -0.3613 -0.8829 -0.0179
  501MOL0     C69002   3.031  11.051   7.363 -0.5778  0.3914  0.7206
  501MOL0     O69003   3.100  11.168   7.404  0.2134  0.2701 -0.4049
  501MOL0     C69004   3.226  11.162   7.456 -0.1398 -0.3145  0.6528
  501MOL0     C69005   3.335  11.074   7.414  0.1706 -0.3458  0.6690
  501MOL0     C69006   3.461  11.089   7.469 -0.0428  0.2884 -0.4021
  501MOL0     C69007   3.475  11.183   7.569  0.0851 -0.4825 -0.2433
  501MOL0     O69008   3.603  11.196   7.623  0.1987  0.4287 -0.2339
  501MOL0     C69009   3.677  11.309   7.580  0.3255 -0.6149  0.2952
  501MOL0     C69010   3.827  11.280   7.578 -0.6114  0.2422 -0.0911
  501MOL0     C69011   3.889  11.288   7.719 -0.2391 -0.3002  0.4727
  501MOL0     C69012   4.045  11.284   7.715  0.6142 -0.2110  0.2055
  501MOL0     C69013   4.102  11.294   7.864  0.5808 -0.3073  0.9046
  501MOL0     C69014   4.117  11.158   7.934  0.2087 -0.2519  0.3375
  501MOL0     C69015   4.217  11.172   8.045  0.8931 -0.8103  0.3020
  501MOL0     C69016   4.205  11.047   8.136  0.0747 -0.5705  0.2099
  501MOL0     N69017   4.187  10.919   8.064  0.0029 -0.2457 -0.0045
  501MOL0     C69018   4.089  10.834   8.085 -0.0918 -0.2504  0.6855
  501MOL0     C69019   4.091  10.741   7.984  0.2249  0.0363 -0.2596
  501MOL0     C69020   3.985  10.633   7.969  1.1378 -0.4652  0.0749
  501MOL0     C69021   4.015  10.531   7.856  0.1505  0.3013  0.2206
  501MOL0     C69022   3.920  10.412   7.875  0.0785 -0.5707  0.0996
  501MOL0     C69023   3.926  10.323   7.752  0.2508  0.5144 -0.0546
  501MOL0     O69024   4.063  10.291   7.718  0.2258  0.2756  0.0340
  501MOL0     C69025   4.143  10.228   7.812 -1.0278  0.0100  0.0673
  501MOL0     C69026   4.091  10.135   7.905 -0.8867  0.2007 -0.7885
  501MOL0     C69027   4.172  10.065   7.991 -0.0450  0.1898 -0.3951
  501MOL0     C69028   4.093   9.973   8.083 -0.8939 -0.1998  0.1988
  501MOL0     C69029   4.315  10.072   7.978  0.2237 -0.1889 -0.6003
  501MOL0     C69030   4.409   9.991   8.051  0.1153  0.0374 -0.2831
  501MOL0     O69031   4.538  10.029   8.067  1.0310 -0.1120 -0.4068
  501MOL0     C69032   4.628   9.955   8.145 -0.9151 -0.0182  0.1968
  501MOL0     C69033   4.763   9.966   8.105 -0.0123  0.0760 -0.5105
  501MOL0     C69034   4.863   9.918   8.179  0.1105 -0.1980 -0.4590
  501MOL0     C69035   4.847   9.841   8.290  0.8358 -0.5570 -0.5819
  501MOL0     O69036   4.951   9.782   8.361 -0.2101  0.4966  0.0947
  501MOL0     C69037   5.038   9.702   8.272 -0.6091 -0.4242 -0.6604
  501MOL0     C69038   5.172   9.688   8.337  0.3541 -0.2937 -0.5494
  501MOL0     C69039   5.235   9.822   8.388  0.0781 -0.2538  0.4912
  501MOL0     C69040   5.368   9.798   8.457  0.0786 -0.3201  0.2504
  501MOL0     C69041   5.431   9.936   8.499  0.4544 -0.5852  0.2918
  501MOL0     C69042   5.545   9.913   8.598 -0.0195  0.2478 -0.6312
  501MOL0     C69043   5.606  10.045   8.637 -0.1245 -0.4459 -0.6738
  501MOL0     C69044   5.721  10.026   8.727 -0.2994  0.3880  0.6314
  501MOL0    Cl69045   5.817  10.181   8.740 -0.0388 -0.3441 -0.3165
  501MOL0     C69046   4.715   9.837   8.335  0.1136  0.7916 -0.3222
  501MOL0     C69047   4.613   9.890   8.255 -0.1613 -0.0503 -0.5787
  501MOL0     O69048   4.361   9.889   8.094  0.1850 -1.1291  0.2627
  501MOL0     C69049   4.370  10.155   7.877 -0.2565 -0.4416  0.4818
  501MOL0     C69050   4.283  10.229   7.802 -0.4545  0.2493  0.5400
  501MOL0     N69051   4.206  10.761   7.914  0.0388  0.2631  0.3075
  501MOL0     N69052   4.268  10.857   7.969 -0.5440 -0.1390 -0.2577
  501MOL0     C69053   3.373  11.258   7.620 -0.3932  0.3582  0.3137
  501MOL0     C69054   3.247  11.258   7.554 -0.2513 -0.6758 -0.7628
  501MOL0     C69055   2.894  11.057   7.311 -0.4376  0.0852  0.8266
  501MOL0     C69056   2.838  10.937   7.268 -0.3410 -0.4812 -0.0906
  501MOL0     C69057   2.708  10.937   7.212 -0.1303  0.6485 -0.6769
  501MOL0     C69058   2.639  11.052   7.196  0.2891 -0.5953  0.2679
  501MOL0     O69059   2.513  11.041   7.149 -0.2564  0.3707  0.6537
  501MOL0     C69060   2.425  11.157   7.128  0.9476  0.4430  0.8163
  501MOL0     C69061   2.338  11.191   7.246 -0.5643  0.2385 -0.8577
  501MOL0     C69062   2.261  11.066   7.314  0.3579 -0.3426 -1.1615
  501MOL0     C69063   2.134  11.126   7.380  0.0530  0.4140  0.1399
  501MOL0     C69064   2.160  11.197   7.509 -0.9798  0.3894 -0.0403
  501MOL0     C69065   2.199  11.254   7.610 -0.2946 -0.4313 -0.4624
  501MOL0     C69066   2.686  11.174   7.249 -0.6653  0.0898  0.1661
  501MOL0     C69067   2.816  11.176   7.303  0.4761 -0.7543 -0.1056
  501MOL0     C69068   2.844  11.315   7.347  0.2276  0.0672  0.4657
  501MOL0     H69069   3.312  10.994   7.345 -1.2394 -3.2655  4.1797
  501MOL0     H69070   3.547  11.033   7.434  0.4103  0.8010 -0.1422
  501MOL0     H69071   3.656  11.403   7.631 -0.4400  0.6076 -2.1089
  501MOL0     H69072   3.649  11.311   7.474 -4.5318 -1.2392  1.3471
  501MOL0     H69073   3.840  11.183   7.530 -1.1887 -1.4259  2.9422
  501MOL0     H69074   3.879  11.358   7.520  1.0687 -0.8029 -0.0629
  501MOL0     H69075   3.861  11.378   7.775  2.0717  0.3219  0.7062
  501MOL0     H69076   3.854  11.198   7.769  1.0733 -0.4255  1.2011
  501MOL0     H69077   4.075  11.198   7.654 -1.7302 -0.1613 -1.1155
  501MOL0     H69078   4.065  11.378   7.663  0.0175  0.7666  1.6670
  501MOL0     H69079   4.035  11.354   7.925  1.5042 -1.5974  3.3270
  501MOL0     H69080   4.195  11.348   7.844  0.3228 -0.7028 -1.7838
  501MOL0     H69081   4.021  11.129   7.978 -0.7336  0.6089 -1.0521
  501MOL0     H69082   4.152  11.085   7.861  1.8256  1.5831 -0.8348
  501MOL0     H69083   4.206  11.259   8.110 -2.1303 -0.3905 -0.6370
  501MOL0     H69084   4.320  11.171   8.006  1.1370 -1.1891  0.9373
  501MOL0     H69085   4.291  11.038   8.203  0.2500 -0.7670 -0.0402
  501MOL0     H69086   4.115  11.063   8.195 -0.3402 -0.2726 -0.4957
  501MOL0     H69087   4.012  10.830   8.162 -1.2252 -2.3309 -0.4825
  501MOL0     H69088   3.889  10.677   7.940  0.6583 -2.3413 -1.4411
  501MOL0     H69089   3.964  10.579   8.061 -1.2411  0.3872  0.1039
  501MOL0     H69090   3.991  10.580   7.762 -4.5168  0.6018  1.3058
  501MOL0     H69091   4.118  10.494   7.863  0.9626  2.5911  5.6109
  501MOL0     H69092   3.958  10.351   7.957  1.0872 -1.9295 -1.3142
  501MOL0     H69093   3.821  10.450   7.904  0.9186  0.3266  1.9639
  501MOL0     H69094   3.869  10.231   7.765  0.5833  0.1766 -0.8732
  501MOL0     H69095   3.880  10.370   7.664  0.6936 -2.2400 -1.8822
  501MOL0     H69096   3.986  10.106   7.904 -0.2282 -2.4937 -0.4070
  501MOL0     H69097   4.108   9.872   8.044  3.3090  0.6144 -0.9069
  501MOL0     H69098   3.990  10.007   8.097 -0.0816  1.4312  2.9678
  501MOL0     H69099   4.143   9.977   8.180 -0.6503  1.4667  0.0373
  501MOL0     H69100   4.778  10.033   8.020  1.7155 -0.2214 -0.4649
  501MOL0     H69101   4.964   9.936   8.141  1.3012  1.0862  2.9425
  501MOL0     H69102   4.987   9.605   8.265  1.1020 -1.5076  1.1554
  501MOL0     H69103   5.056   9.748   8.174 -0.5163  0.9134 -0.0408
  501MOL0     H69104   5.160   9.618   8.421  0.6485 -1.2778 -1.3065
  501MOL0     H69105   5.241   9.643   8.264 -0.7526 -2.3014 -0.4398
  501MOL0     H69106   5.167   9.873   8.457 -0.0377 -1.4708  1.3039
  501MOL0     H69107   5.252   9.892   8.306 -1.2969  0.8891  1.1244
  501MOL0     H69108   5.432   9.742   8.388  2.0800  0.6556  1.2214
  501MOL0     H69109   5.344   9.734   8.543  0.5420 -0.1764  0.4918
  501MOL0     H69110   5.469   9.983   8.408  0.4833  1.0439  1.0985
  501MOL0     H69111   5.359  10.008   8.540  2.5946  0.6144  2.2175
  501MOL0     H69112   5.621   9.841   8.567  0.3563 -0.4309  1.6505
  501MOL0     H69113   5.500   9.862   8.684 -2.0525 -0.4802 -2.0669
  501MOL0     H69114   5.528  10.112   8.674  1.4336  0.1722  1.7159
  501MOL0     H69115   5.642  10.080   8.541 -0.4807  0.9406 -0.3207
  501MOL0     H69116   5.788   9.947   8.692 -0.3340  1.2800 -1.6362
  501MOL0     H69117   5.678   9.991   8.821 -2.5163  0.9413 -0.1140
  501MOL0     H69118   4.683   9.789   8.427 -1.8243  0.1812 -1.2584
  501MOL0     H69119   4.511   9.884   8.293 -0.0384 -0.2827 -0.2876
  501MOL0     H69120   4.476  10.161   7.853 -0.7112  0.5896 -1.4175
  501MOL0     H69121   4.320  10.292   7.721  0.3923 -0.0340  0.6921
  501MOL0     H69122   3.397  11.322   7.704  2.0442  1.1637 -0.9024
  501MOL0     H69123   3.170  11.324   7.590  0.0347  0.2826 -1.8322
  501MOL0     H69124   2.902  10.849   7.278  1.5057  0.9980  2.2360
  501MOL0     H69125   2.671  10.842   7.175 -0.0829  0.1787  0.4465
  501MOL0     H69126   2.476  11.241   7.082 -0.0423  0.0804 -1.0541
  501MOL0     H69127   2.361  11.116   7.049  3.1766 -1.2090 -0.2592
  501MOL0     H69128   2.270  11.267   7.206  2.1961  3.4836  0.0948
  501MOL0     H69129   2.395  11.244   7.324 -1.1774 -2.3112  1.4936
  501MOL0     H69130   2.250  10.974   7.256 -1.0264 -1.2064  0.3828
  501MOL0     H69131   2.309  11.023   7.403 -1.7851 -3.1829 -1.2408
  501MOL0     H69132   2.066  11.047   7.412  1.8983 -0.3504  2.3916
  501MOL0     H69133   2.083  11.188   7.305 -0.9515  0.3532  0.7594
  501MOL0     H69134   2.243  11.313   7.687 -0.4600 -0.1651 -0.5709
  501MOL0     H69135   2.617  11.256   7.266 -2.1015 -0.7861 -1.1508
  501MOL0     H69136   2.855  11.320   7.456 -0.3147 -0.6163  0.5567
  501MOL0     H69137   2.940  11.342   7.302 -0.2570 -1.2025 -1.4061
  501MOL0     H69138   2.769  11.389   7.315  2.5555  1.5804 -1.8906
  502MOL0     O69139  10.765   3.952  10.674 -0.1712  0.0598  0.3580
  502MOL0     C69140  10.736   3.993  10.781 -0.7442 -0.2697  0.2599
  502MOL0     O69141  10.769   4.108  10.838 -0.3998 -0.3542  0.2529
  502MOL0     C69142  10.861   4.194  10.784 -0.6775  0.4138  0.3948
  502MOL0     C69143  10.836   4.336  10.788  0.5324 -0.0488 -0.0584
  502MOL0     C69144  10.935   4.425  10.733  0.1432 -0.0409 -0.8240
  502MOL0     C69145  11.045   4.382  10.671  0.2002  0.4315  0.0277
  502MOL0     O69146  11.122   4.485  10.627  0.2940 -0.4456  0.8857
  502MOL0     C69147  11.265   4.476  10.609  0.1582  0.5184 -0.0831
  502MOL0     C69148  11.326   4.454  10.753 -0.4811  1.1561  0.7749
  502MOL0     C69149  11.481   4.452  10.758  0.2258 -0.0019  0.2996
  502MOL0     C69150  11.556   4.585  10.718  0.3826 -0.7325 -0.1439
  502MOL0     C69151  11.706   4.576  10.757  0.0238  1.0828 -0.9133
  502MOL0     C69152  11.793   4.685  10.705 -0.2690  0.2670  0.2064
  502MOL0     C69153  11.948   4.678  10.737  0.3535 -0.2476  0.2071
  502MOL0     C69154  11.981   4.734  10.876 -0.3923 -0.9507 -0.1456
  502MOL0     N69155  12.119   4.700  10.912 -0.0392 -0.3984 -0.5133
  502MOL0     C69156  12.187   4.771  11.008 -0.5643 -0.2677 -0.0461
  502MOL0     C69157  12.314   4.712  11.018  0.2978 -0.7890  0.0381
  502MOL0     C69158  12.413   4.736  11.115  0.7887 -0.1680 -0.5864
  502MOL0     C69159  12.534   4.802  11.071 -0.9907  0.6325  0.0553
  502MOL0     C69160  12.629   4.722  10.983 -0.0800 -0.4509  0.0903
  502MOL0     C69161  12.662   4.585  11.043 -0.1628 -0.2090  0.4875
  502MOL0     O69162  12.723   4.604  11.172  0.1548 -0.2526  0.1843
  502MOL0     C69163  12.857   4.599  11.199 -0.2754 -0.3905 -0.0749
  502MOL0     C69164  12.889   4.572  11.329 -0.4604  0.6726  0.0207
  502MOL0     C69165  13.021   4.587  11.373 -0.2395 -0.2111  0.0525
  502MOL0     C69166  13.046   4.546  11.517 -0.5386  0.4083 -0.2531
  502MOL0     C69167  13.124   4.619  11.276 -0.1710 -0.7411  0.2648
  502MOL0     C69168  13.270   4.621  11.306 -0.2637 -0.2702  0.1948
  502MOL0     O69169  13.364   4.617  11.205 -0.0147  0.5794 -0.2699
  502MOL0     C69170  13.488   4.583  11.237 -0.6358 -0.1206  0.0759
  502MOL0     C69171  13.522   4.453  11.218 -0.4750  1.0248  0.2092
  502MOL0     C69172  13.649   4.407  11.253  0.5186  0.4154 -0.3930
  502MOL0     C69173  13.755   4.497  11.291  0.8766 -0.1944 -0.0645
  502MOL0     O69174  13.882   4.455  11.320 -0.0584  0.2437 -0.6159
  502MOL0     C69175  13.899   4.315  11.341  0.4666 -0.0947  0.9970
  502MOL0     C69176  14.025   4.265  11.410  0.0615  0.4419  0.1832
  502MOL0     C69177  14.157   4.290  11.329  0.2432 -0.5213  0.3812
  502MOL0     C69178  14.292   4.278  11.410 -0.5633  0.0947 -0.0120
  502MOL0     C69179  14.306   4.405  11.501  0.2173 -0.0647  0.5358
  502MOL0     C69180  14.449   4.434  11.551  0.6491 -0.5788  0.0608
  502MOL0     C69181  14.509   4.320  11.645  0.5738 -0.0805  1.1044
  502MOL0     C69182  14.655   4.343  11.656 -0.3540  1.0628 -0.0948
  502MOL0    Cl69183  14.729   4.294  11.503 -0.1652  0.1100 -0.1040
  502MOL0     C69184  13.712   4.633  11.312 -0.8035  1.1541  0.0618
  502MOL0     C69185  13.585   4.673  11.281  0.3566  0.0040 -1.0459
  502MOL0     O69186  13.303   4.626  11.426  0.6010  0.5975  0.6282
  502MOL0     C69187  13.085   4.633  11.145  0.0742 -0.4918  0.3053
  502MOL0     C69188  12.955   4.618  11.103 -0.3582 -0.8900 -1.3863
  502MOL0     N69189  12.313   4.611  10.920 -0.4234  0.0980  0.6850
  502MOL0     N69190  12.197   4.613  10.853 -0.0891  0.4823 -0.6593
  502MOL0     C69191  11.076   4.243  10.680 -0.8892  0.3247 -0.1991
  502MOL0     C69192  10.983   4.150  10.730  0.5470 -0.0544 -1.0468
  502MOL0     C69193  10.633   3.920  10.857  0.3747 -0.0138 -0.4053
  502MOL0     C69194  10.666   3.896  10.992 -0.7051  0.0578 -0.0403
  502MOL0     C69195  10.590   3.806  11.066  0.4878  0.1234  0.1162
  502MOL0     C69196  10.470   3.754  11.008  0.6805  0.0630 -0.3827
  502MOL0     O69197  10.406   3.658  11.082 -0.2720  0.4733  0.5127
  502MOL0     C69198  10.263   3.667  11.097  0.6809  0.8313 -0.0600
  502MOL0     C69199  10.230   3.766  11.209  0.4361 -0.6263  0.3534
  502MOL0     C69200  10.083   3.766  11.255 -0.5282  0.4098  0.9692
  502MOL0     C69201  10.032   3.885  11.339 -0.0201 -0.5082 -0.3868
  502MOL0     C69202  10.127   3.890  11.448 -0.4742 -0.4342  0.2712
  502MOL0     C69203  10.193   3.897  11.551 -0.0873  0.0297  0.7441
  502MOL0     C69204  10.434   3.782  10.874 -0.2709 -0.1392  0.1403
  502MOL0     C69205  10.513   3.861  10.793 -0.8364  0.7622 -0.1292
  502MOL0     C69206  10.480   3.872  10.643  0.4548  0.4972  0.3917
  502MOL0     H69207  10.747   4.368  10.840  0.7462 -3.0991  2.4830
  502MOL0     H69208  10.911   4.530  10.748 -3.5954 -0.9627  0.8247
  502MOL0     H69209  11.297   4.575  10.576 -0.5835  0.1664 -2.0025
  502MOL0     H69210  11.304   4.410  10.531  1.6992  2.1397 -0.7742
  502MOL0     H69211  11.289   4.539  10.810  1.4828  2.5726  0.0352
  502MOL0     H69212  11.297   4.361  10.803  1.0617 -0.1338 -0.6182
  502MOL0     H69213  11.511   4.424  10.859  0.1938  1.4378  0.7302
  502MOL0     H69214  11.524   4.372  10.698 -0.7975 -0.1593 -0.2459
  502MOL0     H69215  11.542   4.598  10.610 -2.3499 -0.4796  0.1677
  502MOL0     H69216  11.521   4.676  10.766  0.5283 -0.4126 -0.6401
  502MOL0     H69217  11.748   4.485  10.714 -1.0850  1.0442 -1.9992
  502MOL0     H69218  11.707   4.558  10.864 -3.4963  0.9234 -0.8100
  502MOL0     H69219  11.786   4.681  10.596 -1.9395 -1.1495  0.3291
  502MOL0     H69220  11.751   4.782  10.733  2.3436  1.6713 -0.4111
  502MOL0     H69221  12.018   4.729  10.670  1.1904 -1.6307 -0.0151
  502MOL0     H69222  11.970   4.571  10.732  0.6164 -0.1410 -2.1578
  502MOL0     H69223  11.957   4.841  10.877 -1.8800 -1.2636 -0.2553
  502MOL0     H69224  11.917   4.698  10.957  1.2243  1.7133  2.5306
  502MOL0     H69225  12.145   4.859  11.057 -0.1012  0.5549 -1.0929
  502MOL0     H69226  12.427   4.639  11.163  0.6736  1.0567  2.0707
  502MOL0     H69227  12.362   4.796  11.191 -0.2270 -1.1126 -0.4973
  502MOL0     H69228  12.512   4.895  11.019  1.0104 -0.0745 -2.2126
  502MOL0     H69229  12.594   4.831  11.157  0.6101 -1.2208 -0.3647
  502MOL0     H69230  12.591   4.711  10.882  1.4524  0.0357 -0.5681
  502MOL0     H69231  12.720   4.782  10.981 -0.6653  0.4273 -1.4970
  502MOL0     H69232  12.573   4.524  11.056 -0.5540  0.2219 -0.1187
  502MOL0     H69233  12.729   4.532  10.974 -2.1004 -2.2343  0.0463
  502MOL0     H69234  12.820   4.534  11.403  1.5709 -2.5737  0.4806
  502MOL0     H69235  12.950   4.530  11.566 -0.2643 -2.2173 -0.3930
  502MOL0     H69236  13.091   4.638  11.555  0.3988  1.0792 -2.7815
  502MOL0     H69237  13.099   4.453  11.541 -1.2141  0.6143  2.2507
  502MOL0     H69238  13.466   4.376  11.167  0.8315  0.3927 -0.3168
  502MOL0     H69239  13.670   4.302  11.232  0.2090 -0.0487  1.4253
  502MOL0     H69240  13.811   4.268  11.387 -2.4070  1.2414 -2.6031
  502MOL0     H69241  13.905   4.253  11.250 -0.8710  0.9297  0.1690
  502MOL0     H69242  14.023   4.306  11.512 -1.0823 -1.3751  0.9467
  502MOL0     H69243  14.004   4.158  11.423  2.7082 -0.1392  0.1772
  502MOL0     H69244  14.151   4.385  11.276 -1.4717 -0.8157 -0.0127
  502MOL0     H69245  14.149   4.217  11.248 -1.1929 -0.8654  0.8130
  502MOL0     H69246  14.371   4.283  11.335 -0.9372  1.4536 -0.3449
  502MOL0     H69247  14.305   4.183  11.462  0.8037  0.6455  0.6834
  502MOL0     H69248  14.281   4.497  11.447 -3.5680 -0.4802  1.2701
  502MOL0     H69249  14.236   4.402  11.585  0.6324  1.1592  0.9584
  502MOL0     H69250  14.451   4.530  11.603  0.8130 -0.1204 -0.7749
  502MOL0     H69251  14.526   4.454  11.476 -0.3033 -0.7241 -0.9847
  502MOL0     H69252  14.492   4.220  11.604  1.2391 -0.0384  0.7158
  502MOL0     H69253  14.463   4.320  11.744  0.0603 -2.9829  0.9537
  502MOL0     H69254  14.695   4.276  11.732  0.0134  0.4492 -0.8053
  502MOL0     H69255  14.679   4.447  11.679 -0.2779  0.5332  2.4527
  502MOL0     H69256  13.778   4.702  11.362  1.4742  0.1725 -1.4224
  502MOL0     H69257  13.546   4.773  11.299 -0.8622 -0.6057 -0.0728
  502MOL0     H69258  13.147   4.652  11.058 -3.6179  0.0073 -2.4546
  502MOL0     H69259  12.927   4.635  10.999 -1.9163  1.4032 -0.6606
  502MOL0     H69260  11.166   4.198  10.639 -0.3658  2.6244 -1.7599
  502MOL0     H69261  10.985   4.043  10.717  1.3505 -0.2371  0.4069
  502MOL0     H69262  10.747   3.934  11.053 -2.9650 -0.2358  3.4279
  502MOL0     H69263  10.630   3.767  11.159  1.4910  1.5894  0.3384
  502MOL0     H69264  10.205   3.696  11.009 -0.2502 -2.3831 -0.6285
  502MOL0     H69265  10.230   3.568  11.130  0.7655  0.8607  0.1145
  502MOL0     H69266  10.267   3.867  11.188 -0.5048 -0.9149 -3.3567
  502MOL0     H69267  10.282   3.722  11.295  0.1857 -1.1795  0.2274
  502MOL0     H69268  10.036   3.762  11.157  2.9716 -0.7878 -0.8117
  502MOL0     H69269  10.059   3.675  11.311  0.9979 -0.2914  0.5290
  502MOL0     H69270   9.930   3.869  11.376 -0.8035 -0.6156 -2.4514
  502MOL0     H69271  10.031   3.981  11.286  0.5602 -0.1320  0.2697
  502MOL0     H69272  10.255   3.906  11.638  1.3417  2.8001 -0.4146
  502MOL0     H69273  10.347   3.734  10.831 -0.7480  0.6170  0.2375
  502MOL0     H69274  10.517   3.971  10.614  0.8356  0.7006  1.5165
  502MOL0     H69275  10.531   3.798  10.580  0.5500 -0.2096  1.2820
  502MOL0     H69276  10.372   3.867  10.631  0.4070  2.9404 -0.7245
  503MOL0     O69277   2.330   9.933  11.263 -0.4167  0.9210 -0.0391
  503MOL0     C69278   2.327   9.851  11.360 -0.2384 -0.1342  0.3542
  503MOL0     O69279   2.273   9.720  11.354  0.1108 -0.6194  0.0196
  503MOL0     C69280   2.240   9.662  11.232 -0.0999  0.4337  0.1796
  503MOL0     C69281   2.337   9.603  11.148  0.9260 -1.0904 -0.1899
  503MOL0     C69282   2.298   9.560  11.018  0.1249 -0.2072  0.3543
  503MOL0     C69283   2.164   9.588  10.975  0.5116  0.2965  0.4325
  503MOL0     O69284   2.131   9.543  10.847 -0.3410  0.0418  0.1853
  503MOL0     C69285   2.042   9.635  10.784  0.3911 -0.0496 -0.2202
  503MOL0     C69286   2.051   9.611  10.637 -0.5727 -0.2812  0.3912
  503MOL0     C69287   2.173   9.672  10.571 -1.0985 -0.5735 -0.2100
  503MOL0     C69288   2.173   9.647  10.415  0.3112  0.4281  0.3248
  503MOL0     C69289   2.301   9.686  10.341  0.9157  0.6560  0.2714
  503MOL0     C69290   2.327   9.837  10.339 -1.0844 -0.1170 -0.0507
  503MOL0     C69291   2.475   9.860  10.302  0.4346  0.3711 -0.0030
  503MOL0     C69292   2.523  10.008  10.284 -0.3761 -0.2971 -0.0035
  503MOL0     N69293   2.669  10.013  10.288  0.2082 -0.8503  0.5008
  503MOL0     C69294   2.740  10.034  10.171  0.3663 -0.1757  0.3199
  503MOL0     C69295   2.867  10.063  10.210  0.0627 -0.6030 -0.2445
  503MOL0     C69296   2.982  10.092  10.109 -0.1410  0.6212 -0.6106
  503MOL0     C69297   2.961  10.212  10.007  0.9293  0.0316  0.4257
  503MOL0     C69298   3.037  10.199   9.875 -0.0976 -0.0540 -0.1679
  503MOL0     C69299   3.197  10.221   9.879  0.4145  0.9053  0.1248
  503MOL0     O69300   3.236  10.330   9.965  0.3710  0.6832 -0.0661
  503MOL0     C69301   3.372  10.354   9.968  1.1978  1.1029 -0.1311
  503MOL0     C69302   3.471  10.286   9.892 -0.0295  0.1230  0.4762
  503MOL0     C69303   3.607  10.324   9.900  0.7821  0.4131 -0.4291
  503MOL0     C69304   3.706  10.266   9.801  0.1293 -0.6437  0.4437
  503MOL0     C69305   3.646  10.425   9.987 -0.5567  0.6905  0.3689
  503MOL0     C69306   3.791  10.472  10.004 -1.3651 -0.0558  0.3966
  503MOL0     O69307   3.897  10.375   9.983 -0.2401  0.4611  0.5303
  503MOL0     C69308   4.019  10.401  10.041 -0.3079  0.6655 -0.0027
  503MOL0     C69309   4.139  10.377   9.974 -0.5094  1.0033 -0.3686
  503MOL0     C69310   4.258  10.402  10.035 -0.1234  0.4453 -0.0639
  503MOL0     C69311   4.260  10.447  10.168 -0.0887  0.3816 -0.2677
  503MOL0     O69312   4.375  10.477  10.233 -0.0101  0.4754 -0.0635
  503MOL0     C69313   4.483  10.530  10.152  0.2513  0.1976 -0.9428
  503MOL0     C69314   4.553  10.614  10.250  0.3267 -0.3487 -0.0119
  503MOL0     C69315   4.638  10.538  10.348 -0.3672  0.0132  1.5454
  503MOL0     C69316   4.769  10.507  10.293  0.2562 -0.2505 -0.5266
  503MOL0     C69317   4.872  10.484  10.405  0.6183 -0.1951  1.3832
  503MOL0     C69318   5.010  10.451  10.338  0.2740 -0.9125  0.0661
  503MOL0     C69319   5.115  10.424  10.443  0.0809  0.5240 -0.2391
  503MOL0     C69320   5.255  10.438  10.399 -0.1853 -0.4192  0.1383
  503MOL0    Cl69321   5.279  10.325  10.266  0.2633  0.0460  0.1872
  503MOL0     C69322   4.144  10.460  10.237  0.2870  0.5079  0.0164
  503MOL0     C69323   4.022  10.430  10.176 -0.1270 -0.1849 -0.0062
  503MOL0     O69324   3.802  10.584  10.055 -0.6426  0.1935 -0.1317
  503MOL0     C69325   3.544  10.488  10.059 -0.2207  0.2791  0.0112
  503MOL0     C69326   3.404  10.452  10.055 -0.4633  0.6696  0.1544
  503MOL0     N69327   2.874  10.053  10.345  0.5479 -0.3489  0.0989
  503MOL0     N69328   2.755  10.035  10.390  0.1128 -0.9565 -0.1039
  503MOL0     C69329   2.070   9.634  11.069 -0.1990 -0.0905  0.5223
  503MOL0     C69330   2.106   9.669  11.200 -0.3335  0.4212  0.1757
  503MOL0     C69331   2.351   9.911  11.496 -0.4683 -0.6055  0.4387
  503MOL0     C69332   2.331  10.053  11.514 -0.5569  0.4512 -0.6987
  503MOL0     C69333   2.345  10.101  11.646 -0.2084  0.9677 -0.5141
  503MOL0     C69334   2.385  10.027  11.754  1.1282  0.2745 -0.2224
  503MOL0     O69335   2.423  10.071  11.885  0.2908  0.1892 -0.9286
  503MOL0     C69336   2.447  10.216  11.904  0.0258  0.0243  0.3023
  503MOL0     C69337   2.573  10.258  11.843 -0.6066  0.2398  0.3700
  503MOL0     C69338   2.702  10.198  11.911  0.3903 -0.0983 -0.8098
  503MOL0     C69339   2.826  10.276  11.864  0.1719  0.7626 -0.3310
  503MOL0     C69340   2.953  10.195  11.894 -0.1979  0.3299 -0.2504
  503MOL0     C69341   3.055  10.123  11.892 -0.1473  0.1858  1.1822
  503MOL0     C69342   2.396   9.890  11.733  0.1336 -0.1885  0.1465
  503MOL0     C69343   2.395   9.834  11.606  0.3897 -0.0549  0.1098
  503MOL0     C69344   2.437   9.691  11.601  0.3270  0.3901  0.1752
  503MOL0     H69345   2.441   9.596  11.179  1.5490 -0.5788 -2.0119
  503MOL0     H69346   2.368   9.510  10.952 -0.3781  0.4410 -0.7006
  503MOL0     H69347   2.071   9.738  10.807 -0.0685  0.4323 -1.6743
  503MOL0     H69348   1.939   9.623  10.820  1.1358 -0.8320  1.7528
  503MOL0     H69349   2.056   9.503  10.622  2.5672 -0.5004  2.2101
  503MOL0     H69350   1.969   9.659  10.582  0.9302 -1.1329 -2.8697
  503MOL0     H69351   2.178   9.780  10.590 -1.1653 -0.2846 -1.7507
  503MOL0     H69352   2.266   9.633  10.613 -0.1606  1.5423 -0.1983
  503MOL0     H69353   2.147   9.542  10.398  2.3932  0.2767 -2.6557
  503MOL0     H69354   2.098   9.713  10.372 -1.9668 -1.8372  0.5927
  503MOL0     H69355   2.289   9.655  10.237  0.4296  0.5560  0.3534
  503MOL0     H69356   2.382   9.624  10.381 -0.5335 -1.5749 -0.0166
  503MOL0     H69357   2.267   9.882  10.260  0.0687 -0.2010 -0.9935
  503MOL0     H69358   2.300   9.880  10.436 -0.6790 -1.4414  0.6802
  503MOL0     H69359   2.493   9.796  10.215  0.6608 -1.5657  1.4173
  503MOL0     H69360   2.536   9.822  10.384 -0.0606  0.6686  0.5045
  503MOL0     H69361   2.487  10.058  10.193 -1.8834  0.3802  0.9339
  503MOL0     H69362   2.491  10.073  10.365  1.4976 -0.5113  0.9597
  503MOL0     H69363   2.705  10.026  10.069 -0.1859  0.6167  0.4397
  503MOL0     H69364   2.999  10.001  10.052  2.0659  0.4298  0.2764
  503MOL0     H69365   3.071  10.119  10.167 -1.6635  1.1502  1.6000
  503MOL0     H69366   2.857  10.211   9.974  1.5995  0.5685 -1.8330
  503MOL0     H69367   2.986  10.301  10.065 -3.6378  0.6983  1.6968
  503MOL0     H69368   3.010  10.099   9.840 -0.8332 -0.3101  1.0946
  503MOL0     H69369   2.989  10.274   9.811 -0.9316 -1.3596 -1.1338
  503MOL0     H69370   3.231  10.125   9.919 -1.9190  0.2380  0.6916
  503MOL0     H69371   3.240  10.229   9.779  0.5981  0.2217  0.1428
  503MOL0     H69372   3.450  10.202   9.826 -2.1887  0.7676  0.2549
  503MOL0     H69373   3.775  10.337   9.753  1.2285 -1.8648  0.1604
  503MOL0     H69374   3.653  10.214   9.721 -1.2987  0.0040  0.9413
  503MOL0     H69375   3.777  10.201   9.852  1.6588 -1.1304 -2.1355
  503MOL0     H69376   4.127  10.328   9.878  1.2127 -2.8794  1.1985
  503MOL0     H69377   4.350  10.383   9.981  0.8081 -0.4458  1.7641
  503MOL0     H69378   4.544  10.447  10.114  1.3052  0.3911  0.2239
  503MOL0     H69379   4.448  10.588  10.066 -0.1250  0.0778 -0.8725
  503MOL0     H69380   4.620  10.685  10.201 -0.4429 -0.6079 -1.5035
  503MOL0     H69381   4.477  10.673  10.301  2.3965 -0.6128  3.6854
  503MOL0     H69382   4.595  10.440  10.372  1.0636 -1.2444 -0.6299
  503MOL0     H69383   4.658  10.594  10.440  0.6734  3.7763 -0.7531
  503MOL0     H69384   4.799  10.584  10.221 -1.8967  0.0068 -1.2386
  503MOL0     H69385   4.773  10.416  10.233  2.5378  0.5607 -1.7516
  503MOL0     H69386   4.873  10.576  10.464  0.0606  0.8030 -0.1055
  503MOL0     H69387   4.840  10.398  10.463  2.5477 -1.3437  0.8553
  503MOL0     H69388   5.029  10.543  10.283  2.3253 -1.7214 -0.6963
  503MOL0     H69389   5.015  10.365  10.270 -1.0969 -0.8639 -0.1284
  503MOL0     H69390   5.091  10.324  10.481  0.5620 -0.2817 -1.9570
  503MOL0     H69391   5.093  10.492  10.526 -0.6145 -0.9638  0.8511
  503MOL0     H69392   5.321  10.414  10.483  0.4990  0.7107 -0.0593
  503MOL0     H69393   5.281  10.543  10.386 -2.2984  0.0056 -1.0188
  503MOL0     H69394   4.128  10.475  10.343  0.5298 -1.6940  0.4241
  503MOL0     H69395   3.935  10.446  10.238 -0.2338 -4.2976  1.1837
  503MOL0     H69396   3.559  10.568  10.131 -0.4844  1.0833 -0.8062
  503MOL0     H69397   3.340  10.518  10.114  1.8677  3.0011  0.2637
  503MOL0     H69398   1.964   9.641  11.045 -0.5669  0.8839  2.1947
  503MOL0     H69399   2.024   9.718  11.251 -0.7272 -0.5916  0.5426
  503MOL0     H69400   2.293  10.129  11.447 -0.4829  0.6412 -0.5269
  503MOL0     H69401   2.332  10.208  11.656  0.0050  0.8685  1.0295
  503MOL0     H69402   2.368  10.271  11.852  0.7998 -0.4700 -1.4596
  503MOL0     H69403   2.437  10.238  12.011 -2.0800  0.2859  0.0866
  503MOL0     H69404   2.582  10.367  11.845  0.9681  0.1487 -0.3763
  503MOL0     H69405   2.587  10.229  11.739 -2.5620  2.3367 -0.5523
  503MOL0     H69406   2.693  10.210  12.020 -0.1088  0.9942 -0.9598
  503MOL0     H69407   2.710  10.094  11.878  1.2433 -0.7560  1.2806
  503MOL0     H69408   2.826  10.369  11.922  1.8469 -0.9512  2.6582
  503MOL0     H69409   2.818  10.284  11.755  1.7026 -1.9370 -0.7201
  503MOL0     H69410   3.141  10.062  11.911  0.1581  0.7322  1.5938
  503MOL0     H69411   2.425   9.813  11.803  0.3748  0.0838  0.3488
  503MOL0     H69412   2.512   9.658  11.673  0.5626  0.1065 -0.1960
  503MOL0     H69413   2.347   9.629  11.591  0.4234  0.4359 -1.1824
  503MOL0     H69414   2.487   9.681  11.504  0.1187 -0.7538  0.1743
  504MOL0     O69415   4.072   7.530   2.794 -0.1124 -0.0212 -0.1731
  504MOL0     C69416   4.003   7.544   2.694 -0.9498 -0.3674 -0.3388
  504MOL0     O69417   4.051   7.546   2.565 -0.7125  0.1431  0.5249
  504MOL0     C69418   4.177   7.503   2.528 -0.0017 -0.2724 -0.1672
  504MOL0     C69419   4.277   7.595   2.493 -0.2499 -0.6598  0.2529
  504MOL0     C69420   4.408   7.555   2.457 -0.1389 -0.9330 -0.3576
  504MOL0     C69421   4.425   7.415   2.455 -0.4721  0.4848  0.3188
  504MOL0     O69422   4.536   7.338   2.415 -0.0624 -0.0278 -0.1568
  504MOL0     C69423   4.658   7.414   2.412  0.7006  0.6719 -0.3105
  504MOL0     C69424   4.761   7.313   2.376 -0.7301  0.2670  0.5539
  504MOL0     C69425   4.900   7.383   2.372 -0.1333  0.0367 -0.5723
  504MOL0     C69426   4.999   7.305   2.279 -0.6355  0.0690 -0.2074
  504MOL0     C69427   5.146   7.350   2.292  0.0930  0.1410  0.0226
  504MOL0     C69428   5.207   7.315   2.434  0.0020 -0.0562 -0.1479
  504MOL0     C69429   5.339   7.387   2.466 -0.4751 -0.5531  0.6518
  504MOL0     C69430   5.467   7.349   2.381  0.6377 -0.0896  0.0825
  504MOL0     N69431   5.573   7.447   2.395 -0.3254  0.4395 -0.1494
  504MOL0     C69432   5.701   7.420   2.393 -0.9862 -0.5046  0.0142
  504MOL0     C69433   5.760   7.538   2.400 -0.1043  0.6349  0.2845
  504MOL0     C69434   5.907   7.567   2.433 -0.5608 -0.5669  0.2180
  504MOL0     C69435   5.997   7.449   2.402 -1.2353 -0.7574 -0.0337
  504MOL0     C69436   6.145   7.487   2.397  0.1932  0.3563 -0.4844
  504MOL0     C69437   6.222   7.515   2.518 -0.0655 -0.5837 -0.3896
  504MOL0     O69438   6.223   7.392   2.601  0.3130  0.0340  0.2817
  504MOL0     C69439   6.306   7.282   2.569 -0.6402 -0.0095 -0.6346
  504MOL0     C69440   6.284   7.160   2.628  0.4759 -0.5834  0.1688
  504MOL0     C69441   6.357   7.047   2.614  0.1202  0.0395 -0.6049
  504MOL0     C69442   6.305   6.922   2.685  0.1960 -0.1697 -0.1024
  504MOL0     C69443   6.482   7.054   2.544 -0.2009  0.1015 -1.2335
  504MOL0     C69444   6.581   6.952   2.531 -0.4704  0.3538  0.3587
  504MOL0     O69445   6.663   6.946   2.423 -0.4662 -0.2251  0.3904
  504MOL0     C69446   6.755   6.846   2.416 -0.4718 -0.7404  0.4868
  504MOL0     C69447   6.733   6.732   2.335  0.4149  0.5247  0.0898
  504MOL0     C69448   6.827   6.627   2.331  0.4682 -0.2696 -0.4573
  504MOL0     C69449   6.939   6.630   2.412  0.8509 -0.3273  0.6928
  504MOL0     O69450   7.031   6.536   2.427  0.2353  0.6682  0.2863
  504MOL0     C69451   7.003   6.410   2.372 -0.2802  0.2714 -0.2418
  504MOL0     C69452   7.135   6.327   2.369  0.2627 -0.5046 -0.3353
  504MOL0     C69453   7.156   6.249   2.501 -0.0349 -0.6755 -1.1615
  504MOL0     C69454   7.058   6.142   2.537  0.5331 -0.3777 -0.4281
  504MOL0     C69455   7.090   6.067   2.669  0.1346 -0.0308  0.4874
  504MOL0     C69456   6.987   5.971   2.716  0.3477  0.7182  0.5091
  504MOL0     C69457   7.032   5.919   2.849  0.0944  0.5719 -0.0251
  504MOL0     C69458   6.914   5.861   2.923  0.3249  0.1076 -0.2769
  504MOL0    Cl69459   6.950   5.805   3.091  0.2208  0.0104  0.3210
  504MOL0     C69460   6.962   6.747   2.490  0.8059 -0.3785 -0.3129
  504MOL0     C69461   6.869   6.854   2.491  0.4576  0.4371  0.8207
  504MOL0     O69462   6.584   6.870   2.622  0.0629 -0.0368 -0.4869
  504MOL0     C69463   6.498   7.172   2.472 -0.3787 -0.4414 -0.3055
  504MOL0     C69464   6.415   7.283   2.480  0.2091  0.1143  0.3437
  504MOL0     N69465   5.669   7.639   2.393 -0.0243 -0.4729  0.4019
  504MOL0     N69466   5.552   7.583   2.389  0.1427  0.3289 -0.0139
  504MOL0     C69467   4.325   7.329   2.498  0.1199 -0.2390  0.9987
  504MOL0     C69468   4.201   7.368   2.540 -0.3018  0.5089  0.1370
  504MOL0     C69469   3.857   7.539   2.716  0.6755 -1.1613  0.0081
  504MOL0     C69470   3.775   7.465   2.629  0.2649 -0.2407  0.5736
  504MOL0     C69471   3.635   7.453   2.637  0.1584  0.1360  0.0122
  504MOL0     C69472   3.572   7.526   2.737  0.2942 -0.5673  0.6965
  504MOL0     O69473   3.436   7.516   2.735  1.1054  0.3393 -0.0272
  504MOL0     C69474   3.366   7.643   2.731 -0.0976  0.0497  0.0298
  504MOL0     C69475   3.216   7.607   2.698  0.0428 -0.3626 -0.1029
  504MOL0     C69476   3.208   7.523   2.565  0.2043 -0.0807 -0.4357
  504MOL0     C69477   3.065   7.480   2.560  0.8771 -0.1959  0.3239
  504MOL0     C69478   3.057   7.382   2.446  0.2367  0.5595  0.3097
  504MOL0     C69479   3.037   7.297   2.360 -0.1065  0.0517 -0.5052
  504MOL0     C69480   3.642   7.608   2.825  0.0634  0.0769 -0.4495
  504MOL0     C69481   3.785   7.611   2.814 -0.7503 -0.8104 -0.7615
  504MOL0     C69482   3.851   7.706   2.914 -0.4165  0.4023 -0.9856
  504MOL0     H69483   4.262   7.703   2.495  0.4489 -0.5054 -1.3765
  504MOL0     H69484   4.499   7.613   2.452  0.4949 -1.9595 -1.1192
  504MOL0     H69485   4.686   7.453   2.510 -0.3181  1.3168 -0.2580
  504MOL0     H69486   4.645   7.491   2.335  0.0592  0.1863 -0.7059
  504MOL0     H69487   4.763   7.234   2.452  0.7149  0.7114  1.0056
  504MOL0     H69488   4.731   7.247   2.294 -5.4642  0.3626  1.9161
  504MOL0     H69489   4.881   7.482   2.328 -0.5854 -0.0420 -0.5567
  504MOL0     H69490   4.945   7.400   2.470  2.3024 -0.3900 -1.5438
  504MOL0     H69491   4.984   7.201   2.307  0.0970  0.0267  0.0387
  504MOL0     H69492   4.964   7.323   2.177 -3.9640  0.4967  0.8743
  504MOL0     H69493   5.145   7.459   2.280  1.0810  0.0149 -1.5274
  504MOL0     H69494   5.203   7.302   2.212 -0.1961 -0.7577  0.3465
  504MOL0     H69495   5.128   7.331   2.507  0.6119  0.0280  0.5115
  504MOL0     H69496   5.223   7.208   2.445 -1.7642 -0.1837  1.6978
  504MOL0     H69497   5.370   7.376   2.571  1.4822  1.7520  0.4032
  504MOL0     H69498   5.318   7.494   2.463  0.6953 -0.3076 -2.3044
  504MOL0     H69499   5.498   7.247   2.405 -0.6143 -1.1739 -2.5452
  504MOL0     H69500   5.431   7.344   2.278  1.4435 -1.0652 -0.1696
  504MOL0     H69501   5.754   7.327   2.411  1.3954  0.5314 -1.1555
  504MOL0     H69502   5.920   7.583   2.541 -1.0234 -3.2378  0.7495
  504MOL0     H69503   5.936   7.651   2.371 -0.1561 -0.6282  0.3217
  504MOL0     H69504   5.992   7.374   2.481 -1.5172 -0.2082  0.4769
  504MOL0     H69505   5.980   7.405   2.304  2.2175 -1.8454 -0.3062
  504MOL0     H69506   6.196   7.404   2.348 -0.1538  1.3161 -2.5826
  504MOL0     H69507   6.168   7.578   2.342 -0.3313  1.4310  1.0123
  504MOL0     H69508   6.326   7.537   2.491 -0.7232 -0.9037 -3.5649
  504MOL0     H69509   6.180   7.598   2.576  1.1969  0.2350 -0.5993
  504MOL0     H69510   6.199   7.157   2.696  1.6946  0.9671  1.8509
  504MOL0     H69511   6.216   6.945   2.743 -1.5700  0.3191 -2.8167
  504MOL0     H69512   6.375   6.889   2.763 -1.7614 -0.5283  1.5861
  504MOL0     H69513   6.282   6.840   2.616 -5.0397  1.5071 -0.8142
  504MOL0     H69514   6.635   6.706   2.296 -0.1814 -2.6322  3.1623
  504MOL0     H69515   6.811   6.543   2.265 -1.2540 -1.2861  1.1342
  504MOL0     H69516   6.936   6.351   2.436  2.0653 -1.7345  0.5166
  504MOL0     H69517   6.968   6.422   2.269 -0.5467  2.8426  0.0874
  504MOL0     H69518   7.130   6.255   2.287 -2.0197 -2.0776  1.0715
  504MOL0     H69519   7.220   6.396   2.361 -0.1165  0.5452  2.9898
  504MOL0     H69520   7.177   6.317   2.585  2.6358 -0.4149 -1.9401
  504MOL0     H69521   7.252   6.198   2.495  1.8771  1.7411  3.6391
  504MOL0     H69522   7.058   6.067   2.458  0.9827 -2.5795  1.5682
  504MOL0     H69523   6.958   6.187   2.537  1.2854  1.4300  0.4208
  504MOL0     H69524   7.176   6.005   2.642  0.5754  2.3097 -4.5683
  504MOL0     H69525   7.117   6.142   2.744  1.0245  1.0844 -0.8990
  504MOL0     H69526   6.975   5.894   2.639 -1.1107  2.1537 -0.7874
  504MOL0     H69527   6.888   6.015   2.729 -0.5808 -1.2959  0.5342
  504MOL0     H69528   7.083   5.994   2.911 -0.7808  1.3878 -0.2654
  504MOL0     H69529   7.111   5.848   2.823 -0.4250 -0.7169  1.7054
  504MOL0     H69530   6.871   5.782   2.860 -1.7981  0.2081  0.9723
  504MOL0     H69531   6.823   5.921   2.923 -0.6496 -1.3063  0.2269
  504MOL0     H69532   7.057   6.758   2.541  1.6400 -0.2258 -1.8241
  504MOL0     H69533   6.878   6.948   2.545 -2.6495  1.8529 -0.8566
  504MOL0     H69534   6.593   7.184   2.421 -0.3043 -0.3086 -0.1380
  504MOL0     H69535   6.444   7.377   2.435 -0.7577  0.4621  0.4211
  504MOL0     H69536   4.346   7.223   2.495  0.2579 -0.2628  2.3387
  504MOL0     H69537   4.119   7.305   2.573  0.9768 -2.1158 -1.2890
  504MOL0     H69538   3.825   7.425   2.542  1.6089  0.3517  1.0566
  504MOL0     H69539   3.580   7.417   2.550  0.2266 -0.2323  0.1223
  504MOL0     H69540   3.375   7.681   2.832 -0.6407  0.9907 -0.2650
  504MOL0     H69541   3.414   7.716   2.666 -0.9680 -0.3737 -1.1352
  504MOL0     H69542   3.161   7.698   2.670 -1.0475 -1.3237 -1.2277
  504MOL0     H69543   3.170   7.557   2.783 -1.9076  1.5594  0.0539
  504MOL0     H69544   3.235   7.591   2.483 -1.4357  0.3013 -0.6985
  504MOL0     H69545   3.267   7.431   2.572 -0.5961 -0.5464  0.4407
  504MOL0     H69546   3.010   7.571   2.534  1.8671 -0.2557 -2.2890
  504MOL0     H69547   3.015   7.431   2.644 -2.5074  3.2779  0.6164
  504MOL0     H69548   3.044   7.217   2.289 -0.8325  0.4533 -1.0500
  504MOL0     H69549   3.581   7.658   2.900 -1.6686 -2.5879  0.0537
  504MOL0     H69550   3.878   7.648   3.002  0.0461 -0.2477 -1.5471
  504MOL0     H69551   3.942   7.749   2.872  1.2311  1.0795  2.8718
  504MOL0     H69552   3.801   7.802   2.931 -1.5101 -0.0889 -1.3549
  505MOL0     O69553   7.585   0.975   9.301  0.5337 -0.5479 -0.2877
  505MOL0     C69554   7.462   1.008   9.293  0.1536 -0.1968 -0.1817
  505MOL0     O69555   7.415   1.105   9.218  0.0383 -0.1406 -0.1639
  505MOL0     C69556   7.504   1.166   9.140 -0.0483  0.3373  0.4222
  505MOL0     C69557   7.544   1.296   9.178 -0.6512  0.2168  0.2537
  505MOL0     C69558   7.612   1.380   9.092 -0.7693  0.7081  0.8026
  505MOL0     C69559   7.659   1.329   8.965  0.2878  0.3803 -0.6023
  505MOL0     O69560   7.758   1.407   8.908  0.3549  0.4094 -0.9509
  505MOL0     C69561   7.792   1.403   8.770 -0.5370 -0.7353  0.1392
  505MOL0     C69562   7.879   1.517   8.739  0.8957  1.3144  0.8669
  505MOL0     C69563   8.004   1.521   8.828  0.9449 -0.0534  0.2150
  505MOL0     C69564   8.074   1.652   8.796 -0.0867 -0.5592 -0.2921
  505MOL0     C69565   8.208   1.661   8.863  0.4097  0.5555  0.2258
  505MOL0     C69566   8.256   1.811   8.873 -0.0468 -0.3396 -0.1421
  505MOL0     C69567   8.369   1.826   8.968  0.2330  0.1630 -0.1682
  505MOL0     C69568   8.446   1.956   8.935  0.1750  0.4003 -0.4625
  505MOL0     N69569   8.561   1.971   9.025 -0.3973 -0.3743  0.1787
  505MOL0     C69570   8.574   1.911   9.151 -0.1341 -0.2667  0.3593
  505MOL0     C69571   8.705   1.925   9.180 -0.4132  0.0563 -0.5876
  505MOL0     C69572   8.766   1.888   9.312  0.7344 -0.6768  0.2013
  505MOL0     C69573   8.912   1.879   9.320  0.3052  1.3257  0.7229
  505MOL0     C69574   8.949   1.858   9.462  0.0849 -0.0496  0.5210
  505MOL0     C69575   9.101   1.829   9.475 -0.7604 -0.3452 -0.0344
  505MOL0     O69576   9.124   1.692   9.435 -0.1464  0.2546 -0.4128
  505MOL0     C69577   9.247   1.655   9.414 -0.8707  0.1729  0.4903
  505MOL0     C69578   9.255   1.518   9.392 -0.3866  1.1860  0.2390
  505MOL0     C69579   9.377   1.452   9.373 -0.0096 -0.1985  1.1486
  505MOL0     C69580   9.371   1.309   9.340 -0.5411 -0.0157  0.3512
  505MOL0     C69581   9.496   1.520   9.386  0.5568 -0.5229  0.3433
  505MOL0     C69582   9.623   1.447   9.382 -0.6584 -0.8264 -0.4926
  505MOL0     O69583   9.630   1.324   9.441 -0.2092  0.3369  0.0733
  505MOL0     C69584   9.756   1.274   9.467  0.5601 -0.1136 -0.4798
  505MOL0     C69585   9.836   1.228   9.369  0.4086  0.7811 -0.2913
  505MOL0     C69586   9.975   1.186   9.395 -0.5206 -0.5250  0.1920
  505MOL0     C69587  10.035   1.204   9.526  0.3832  0.4228 -0.9185
  505MOL0     O69588  10.160   1.172   9.562 -0.4350 -0.3747  0.0740
  505MOL0     C69589  10.242   1.109   9.465  0.3388  0.8024 -1.2568
  505MOL0     C69590  10.371   1.055   9.531 -0.7082  0.5673  0.0772
  505MOL0     C69591  10.348   0.936   9.618 -0.2939 -0.1099 -0.8854
  505MOL0     C69592  10.309   0.810   9.535 -0.0994 -0.1439 -0.4954
  505MOL0     C69593  10.179   0.733   9.572  0.3095  0.4069 -0.2865
  505MOL0     C69594  10.137   0.612   9.487  0.0831 -0.4760  0.4341
  505MOL0     C69595  10.026   0.527   9.560  0.3231  0.0759  0.1125
  505MOL0     C69596   9.980   0.411   9.476  0.7690  0.3576  0.0743
  505MOL0    Cl69597   9.908   0.474   9.326  0.4035 -0.2373 -0.1474
  505MOL0     C69598   9.950   1.241   9.622 -0.0264 -0.0730  0.3211
  505MOL0     C69599   9.816   1.275   9.595  0.3915 -0.1779 -0.0087
  505MOL0     O69600   9.719   1.513   9.342  0.0353  0.4441  0.6390
  505MOL0     C69601   9.490   1.658   9.407  0.3459  0.1985 -0.3917
  505MOL0     C69602   9.365   1.731   9.429 -0.4335 -0.2633  0.0400
  505MOL0     N69603   8.777   1.961   9.064  0.9528 -1.0095 -0.0252
  505MOL0     N69604   8.686   1.996   8.976 -0.0441  0.0653 -0.2939
  505MOL0     C69605   7.617   1.201   8.929 -0.2243 -0.0584  0.1412
  505MOL0     C69606   7.539   1.124   9.012  0.6542  0.1847  0.0424
  505MOL0     C69607   7.375   0.936   9.391  0.2010 -1.0980  1.1396
  505MOL0     C69608   7.436   0.850   9.478  0.3906 -0.4543 -0.2083
  505MOL0     C69609   7.359   0.792   9.581 -0.6841 -0.1743 -0.5963
  505MOL0     C69610   7.225   0.810   9.590  0.0032  0.4946 -0.0604
  505MOL0     O69611   7.145   0.739   9.684  0.4732  0.1791  0.5253
  505MOL0     C69612   7.142   0.809   9.805  1.0597  0.2154 -0.2339
  505MOL0     C69613   7.089   0.717   9.920  0.1263  0.5506  0.0382
  505MOL0     C69614   6.974   0.625   9.882  0.9473  1.1582 -0.1361
  505MOL0     C69615   6.928   0.535   9.993 -0.0066 -0.1381  0.2460
  505MOL0     C69616   6.816   0.456   9.951  0.1597 -0.4527 -1.1595
  505MOL0     C69617   6.730   0.384   9.904 -0.0014  0.0374  1.1047
  505MOL0     C69618   7.162   0.892   9.498 -0.5221 -0.3118  0.2630
  505MOL0     C69619   7.235   0.968   9.400 -0.2121  0.2357 -0.5159
  505MOL0     C69620   7.162   1.062   9.318  0.8711 -0.0393  0.2208
  505MOL0     H69621   7.509   1.337   9.272 -0.2583  1.8875 -0.2961
  505MOL0     H69622   7.625   1.485   9.114 -0.3810  0.7492  0.3875
  505MOL0     H69623   7.706   1.418   8.705 -0.1830 -0.3742 -0.2471
  505MOL0     H69624   7.840   1.308   8.744 -0.7009 -1.6809  2.9169
  505MOL0     H69625   7.916   1.508   8.637  1.0141 -1.6091  1.1072
  505MOL0     H69626   7.824   1.612   8.742  2.0935  2.0182  1.5221
  505MOL0     H69627   7.984   1.512   8.935  2.2708  1.2977  0.6075
  505MOL0     H69628   8.060   1.430   8.805  0.1410 -0.3154 -0.7828
  505MOL0     H69629   8.087   1.659   8.687  1.1748  3.0411 -0.0472
  505MOL0     H69630   8.004   1.728   8.832 -1.0099 -2.6374  2.6058
  505MOL0     H69631   8.274   1.583   8.823  0.3593 -0.7591  2.5039
  505MOL0     H69632   8.184   1.634   8.966  2.0522 -1.6831  0.1072
  505MOL0     H69633   8.292   1.835   8.772  2.0640  1.7421  1.0133
  505MOL0     H69634   8.184   1.889   8.899  1.0384  0.0981  1.7007
  505MOL0     H69635   8.437   1.744   8.944 -0.6562  0.1667 -3.1250
  505MOL0     H69636   8.338   1.814   9.072  1.6347  1.0228  0.3778
  505MOL0     H69637   8.473   1.965   8.829 -1.7218  2.3469 -0.8612
  505MOL0     H69638   8.381   2.041   8.960  0.0414 -0.1420  1.1630
  505MOL0     H69639   8.491   1.872   9.208 -0.4018  0.2578  0.3323
  505MOL0     H69640   8.715   1.802   9.355  1.2452 -0.0867  2.0557
  505MOL0     H69641   8.728   1.968   9.376  0.8925  1.2917 -2.0342
  505MOL0     H69642   8.953   1.794   9.263 -0.9634 -0.5278  2.4229
  505MOL0     H69643   8.953   1.971   9.277  0.5285 -0.0189 -2.2197
  505MOL0     H69644   8.926   1.951   9.515 -0.6775  0.7850 -1.1846
  505MOL0     H69645   8.891   1.777   9.506  0.4987 -1.7843 -1.9136
  505MOL0     H69646   9.168   1.896   9.420 -2.1437  2.4365  1.4625
  505MOL0     H69647   9.127   1.848   9.580  0.8529  0.5520 -0.5594
  505MOL0     H69648   9.172   1.450   9.385  0.9321 -0.9963  3.2529
  505MOL0     H69649   9.380   1.256   9.435  0.2840  0.1012  0.3515
  505MOL0     H69650   9.458   1.277   9.281 -1.5428 -1.6382 -0.2952
  505MOL0     H69651   9.279   1.290   9.284 -0.2502  3.2358 -1.4687
  505MOL0     H69652   9.798   1.222   9.267 -0.7468 -1.2996  0.1977
  505MOL0     H69653  10.028   1.160   9.304  1.8565  2.2061  0.6335
  505MOL0     H69654  10.191   1.026   9.415 -1.2528  0.8510  0.1914
  505MOL0     H69655  10.268   1.188   9.394  3.6066  0.8226 -0.1783
  505MOL0     H69656  10.443   1.038   9.451  1.4077  0.5978  1.8560
  505MOL0     H69657  10.419   1.129   9.596  0.5267 -1.6796  1.8645
  505MOL0     H69658  10.277   0.966   9.695 -2.0090 -1.1995 -1.9635
  505MOL0     H69659  10.443   0.915   9.667 -0.6221  2.3708  1.0212
  505MOL0     H69660  10.396   0.744   9.536 -1.5631 -2.2750  2.9192
  505MOL0     H69661  10.299   0.834   9.429  1.6915  2.4928 -0.1570
  505MOL0     H69662  10.202   0.698   9.673  2.6740  0.8823 -0.6145
  505MOL0     H69663  10.099   0.807   9.583  0.6376  0.5999  0.9959
  505MOL0     H69664  10.212   0.534   9.470 -2.7177 -3.0531 -0.8399
  505MOL0     H69665  10.098   0.652   9.394 -1.8265  0.0598  1.4188
  505MOL0     H69666   9.941   0.592   9.581 -0.1141 -1.3770  3.6023
  505MOL0     H69667  10.070   0.487   9.653 -0.1231  0.6647  0.5803
  505MOL0     H69668   9.910   0.353   9.536 -0.5839  1.3740 -0.4627
  505MOL0     H69669  10.066   0.346   9.462 -1.6011 -2.8147 -0.8444
  505MOL0     H69670   9.983   1.253   9.724  1.4032  3.1518 -0.3978
  505MOL0     H69671   9.762   1.300   9.685 -1.5316  0.0514 -1.1800
  505MOL0     H69672   9.582   1.714   9.416 -0.7764  1.9598  0.8407
  505MOL0     H69673   9.365   1.838   9.448 -2.7402 -0.6265  2.7511
  505MOL0     H69674   7.651   1.162   8.833  1.4746  5.4065 -1.8602
  505MOL0     H69675   7.503   1.031   8.970  2.3780  0.2383 -1.7329
  505MOL0     H69676   7.543   0.837   9.490  0.0616 -0.7799  3.5347
  505MOL0     H69677   7.414   0.724   9.647 -1.0576  1.4662  1.5247
  505MOL0     H69678   7.244   0.837   9.835  1.3410 -2.1135  1.1862
  505MOL0     H69679   7.075   0.895   9.795  1.4610  0.9372  2.4334
  505MOL0     H69680   7.058   0.778  10.005  1.0026  2.8935 -1.2475
  505MOL0     H69681   7.168   0.649   9.954 -0.3395  0.1631  0.3802
  505MOL0     H69682   6.884   0.685   9.861  0.5411  0.6889  0.2439
  505MOL0     H69683   6.991   0.550   9.804  0.5896 -1.1290  1.8808
  505MOL0     H69684   6.890   0.602  10.070 -0.8164 -1.4015  0.9895
  505MOL0     H69685   7.010   0.473  10.030 -1.4085 -1.1411  1.8394
  505MOL0     H69686   6.665   0.306   9.871  1.3720 -1.2012  1.2223
  505MOL0     H69687   7.055   0.910   9.510 -1.0876 -2.0074 -1.6251
  505MOL0     H69688   7.189   1.166   9.339 -1.1780  0.6006 -0.1248
  505MOL0     H69689   7.154   1.034   9.213 -0.8002  3.0694 -0.6095
  505MOL0     H69690   7.059   1.066   9.353  0.6618  2.1949 -0.4920
  506MOL0     O69691   2.837   0.341   8.195  0.5879  0.2883  0.6224
  506MOL0     C69692   2.786   0.349   8.308 -0.0512  0.0146  0.5359
  506MOL0     O69693   2.853   0.338   8.429 -0.1572  0.3946  0.5692
  506MOL0     C69694   2.993   0.359   8.441 -0.4824 -0.5237  0.0570
  506MOL0     C69695   3.045   0.369   8.571  0.3990  0.2536 -0.2605
  506MOL0     C69696   3.181   0.379   8.596  0.4355 -0.1375  0.0938
  506MOL0     C69697   3.267   0.381   8.498  0.0325  1.0576 -0.2072
  506MOL0     O69698   3.391   0.396   8.542  0.3607 -0.1256  0.1141
  506MOL0     C69699   3.502   0.338   8.460  0.5004  0.2867 -0.7089
  506MOL0     C69700   3.569   0.444   8.364  0.2974 -0.2349 -0.7932
  506MOL0     C69701   3.712   0.400   8.332  0.6337  0.0516 -0.2667
  506MOL0     C69702   3.809   0.415   8.448  0.3528  0.2205  1.0006
  506MOL0     C69703   3.947   0.365   8.407  0.3730 -0.0715  0.5222
  506MOL0     C69704   3.956   0.213   8.393  0.4976 -0.4060  0.4400
  506MOL0     C69705   4.096   0.165   8.375 -0.5348 -0.5342  0.5900
  506MOL0     C69706   4.113   0.022   8.402 -0.2614 -0.1360  0.2097
  506MOL0     N69707   4.250  -0.030   8.373 -0.4009 -0.9731 -0.4408
  506MOL0     C69708   4.356   0.034   8.305  0.3365 -0.7218  0.2847
  506MOL0     C69709   4.459  -0.048   8.316 -0.0875 -0.4020 -0.0655
  506MOL0     C69710   4.593  -0.016   8.271 -0.7970 -0.1113  0.1052
  506MOL0     C69711   4.691  -0.043   8.388  0.6149 -0.5941 -1.1872
  506MOL0     C69712   4.840   0.000   8.347  0.2083 -1.0493  0.4376
  506MOL0     C69713   4.948   0.007   8.458  0.2190 -0.1523 -0.3574
  506MOL0     O69714   5.087   0.020   8.420 -0.5074  0.2334 -0.0374
  506MOL0     C69715   5.158   0.137   8.413  0.4162 -0.5751 -0.0405
  506MOL0     C69716   5.295   0.123   8.408 -0.0015 -0.0938  0.0633
  506MOL0     C69717   5.378   0.237   8.416 -0.6030 -0.4309 -0.6905
  506MOL0     C69718   5.522   0.218   8.416 -0.0815  1.3062 -0.5021
  506MOL0     C69719   5.323   0.371   8.403  0.1974 -0.4247  1.2149
  506MOL0     C69720   5.402   0.501   8.394  0.2528 -0.4249  0.7032
  506MOL0     O69721   5.539   0.503   8.412  0.2318  0.2688 -0.3789
  506MOL0     C69722   5.623   0.602   8.375  0.0018  0.0397 -0.0753
  506MOL0     C69723   5.595   0.684   8.257 -0.0637 -0.0732  0.7206
  506MOL0     C69724   5.681   0.783   8.221  0.4135 -0.1834  0.6579
  506MOL0     C69725   5.795   0.815   8.294 -0.3102  0.3405  0.5058
  506MOL0     O69726   5.881   0.922   8.263  0.1064  0.2838 -1.0007
  506MOL0     C69727   5.855   1.006   8.153  0.4307  0.7008  0.0176
  506MOL0     C69728   5.903   1.148   8.176 -0.4928 -0.1311 -0.2773
  506MOL0     C69729   5.830   1.249   8.086  0.2198 -0.3689 -0.0695
  506MOL0     C69730   5.869   1.395   8.115  0.1152  0.2120 -0.1718
  506MOL0     C69731   5.770   1.483   8.043  0.4458  0.6677  0.2060
  506MOL0     C69732   5.807   1.629   8.068  0.4447 -0.0613 -0.0017
  506MOL0     C69733   5.686   1.705   8.013 -0.3115  1.0762  1.3050
  506MOL0     C69734   5.741   1.828   7.931  0.0145 -0.1430 -0.9092
  506MOL0    Cl69735   5.856   1.923   8.037  0.1306 -0.2232 -0.1031
  506MOL0     C69736   5.816   0.742   8.408  0.3383 -0.1442  0.4049
  506MOL0     C69737   5.735   0.634   8.449  0.5182  0.1310  0.1719
  506MOL0     O69738   5.337   0.604   8.380 -0.0235  0.7037 -0.5880
  506MOL0     C69739   5.179   0.382   8.389 -0.2797  0.1052 -0.1607
  506MOL0     C69740   5.097   0.264   8.403  0.1598 -1.2461  0.4593
  506MOL0     N69741   4.411  -0.161   8.376 -1.1035  0.2357 -0.9467
  506MOL0     N69742   4.289  -0.151   8.411  0.1512  0.3748 -0.1448
  506MOL0     C69743   3.221   0.382   8.369  0.3232 -0.2271  0.1716
  506MOL0     C69744   3.082   0.380   8.336 -0.8646 -0.2098  0.6325
  506MOL0     C69745   2.647   0.386   8.310  0.7333 -0.3996 -0.1081
  506MOL0     C69746   2.558   0.296   8.254 -1.0125 -0.5970 -0.0291
  506MOL0     C69747   2.426   0.309   8.286 -0.4846  0.2942  0.5897
  506MOL0     C69748   2.369   0.407   8.371  0.4722  0.2555  0.1482
  506MOL0     O69749   2.234   0.414   8.404  0.0702  0.5561 -0.1226
  506MOL0     C69750   2.144   0.314   8.345 -0.1070 -0.4161 -0.0350
  506MOL0     C69751   2.017   0.323   8.427 -0.9618  0.5441 -1.0244
  506MOL0     C69752   1.941   0.459   8.435  0.3565 -0.7538 -0.4538
  506MOL0     C69753   1.861   0.487   8.565 -0.0830  0.5450 -0.1408
  506MOL0     C69754   1.746   0.400   8.587  0.5510  0.7973  0.1821
  506MOL0     C69755   1.646   0.331   8.602 -0.6369 -0.1088  1.0627
  506MOL0     C69756   2.454   0.507   8.416  0.0862 -0.0814  0.5437
  506MOL0     C69757   2.594   0.495   8.385  0.0088  0.1637  0.0161
  506MOL0     C69758   2.687   0.608   8.447 -0.4132  0.8779  0.7233
  506MOL0     H69759   2.967   0.373   8.647  1.1078  1.5797  0.4323
  506MOL0     H69760   3.218   0.399   8.696 -0.4363  4.0281 -0.2516
  506MOL0     H69761   3.464   0.256   8.399  0.5115 -0.1597 -0.1246
  506MOL0     H69762   3.576   0.295   8.528 -0.4647 -3.2972 -1.7286
  506MOL0     H69763   3.515   0.444   8.268 -1.1099 -1.8639 -0.0759
  506MOL0     H69764   3.563   0.545   8.406  0.2787 -1.4112  2.2848
  506MOL0     H69765   3.711   0.294   8.309 -3.2500 -0.5937  1.9829
  506MOL0     H69766   3.749   0.459   8.248 -1.0163  0.8900 -0.4548
  506MOL0     H69767   3.815   0.522   8.472 -1.4166  1.2565 -2.4065
  506MOL0     H69768   3.778   0.352   8.531 -0.6702 -0.9463 -0.2377
  506MOL0     H69769   4.000   0.396   8.498 -1.1418  0.3709  1.2788
  506MOL0     H69770   3.988   0.418   8.321 -2.1955  1.2891  0.0375
  506MOL0     H69771   3.907   0.163   8.477 -0.5472 -2.5343 -1.3075
  506MOL0     H69772   3.894   0.187   8.306  0.2507  3.6083 -0.7781
  506MOL0     H69773   4.156   0.202   8.458 -0.8686  0.2081  0.5167
  506MOL0     H69774   4.138   0.198   8.280 -0.8533 -3.8629 -0.8347
  506MOL0     H69775   4.082  -0.008   8.502  0.7069  0.9953  0.8811
  506MOL0     H69776   4.056  -0.045   8.338 -0.7626 -0.9314  1.4565
  506MOL0     H69777   4.357   0.130   8.254 -3.8797 -0.4865  0.2785
  506MOL0     H69778   4.614   0.090   8.254  1.9903 -0.4905  0.7293
  506MOL0     H69779   4.621  -0.061   8.175  1.8305  1.6972 -0.0981
  506MOL0     H69780   4.664   0.018   8.474  2.0965  0.0615 -1.1503
  506MOL0     H69781   4.678  -0.146   8.424  1.5131 -0.7135 -1.1706
  506MOL0     H69782   4.881  -0.072   8.276 -2.1240  0.3154 -2.5243
  506MOL0     H69783   4.840   0.090   8.285  0.5537 -2.3725 -1.5557
  506MOL0     H69784   4.913   0.080   8.532  0.0287 -0.3970 -0.2020
  506MOL0     H69785   4.944  -0.094   8.501  2.3445 -1.1815 -2.3233
  506MOL0     H69786   5.340   0.025   8.398  1.0229  0.2525  1.0987
  506MOL0     H69787   5.549   0.113   8.432 -3.4982  0.4256  0.3423
  506MOL0     H69788   5.559   0.278   8.499  1.2787 -2.2403  1.6677
  506MOL0     H69789   5.557   0.256   8.320  0.1756  0.4386 -0.7635
  506MOL0     H69790   5.510   0.658   8.196  1.0468 -2.7595  0.2140
  506MOL0     H69791   5.658   0.841   8.132  3.3642  1.1501  0.6462
  506MOL0     H69792   5.906   0.961   8.067 -0.4667 -1.2750  0.4557
  506MOL0     H69793   5.750   1.017   8.123  0.2525 -0.2645  0.2540
  506MOL0     H69794   5.890   1.175   8.281 -3.1238  2.8698 -1.2135
  506MOL0     H69795   6.009   1.151   8.151 -0.7478  0.4162 -1.3778
  506MOL0     H69796   5.722   1.239   8.103  0.5293 -0.0049  2.6425
  506MOL0     H69797   5.855   1.225   7.983  1.0714 -1.8459  0.4423
  506MOL0     H69798   5.970   1.422   8.082 -0.8221  0.0540 -3.5422
  506MOL0     H69799   5.862   1.405   8.224  2.6306  0.0947  0.0408
  506MOL0     H69800   5.781   1.458   7.937 -1.2448  0.7131 -0.0019
  506MOL0     H69801   5.671   1.447   8.074  0.5014 -1.3580 -1.7137
  506MOL0     H69802   5.903   1.649   8.020 -0.1575 -1.1698 -1.7662
  506MOL0     H69803   5.821   1.651   8.174  5.2232 -1.0531 -0.2297
  506MOL0     H69804   5.619   1.735   8.093 -0.8099  2.6506  0.3273
  506MOL0     H69805   5.621   1.646   7.948 -0.4298  0.3901  2.0333
  506MOL0     H69806   5.655   1.884   7.892  0.5200 -0.1931 -2.1545
  506MOL0     H69807   5.801   1.793   7.847 -0.3213 -2.4710 -0.2309
  506MOL0     H69808   5.901   0.779   8.465  1.3799 -0.0188 -1.1591
  506MOL0     H69809   5.752   0.575   8.538  2.4990  0.7193  0.2234
  506MOL0     H69810   5.123   0.474   8.376  1.5480  1.2651 -0.1924
  506MOL0     H69811   4.990   0.284   8.403  0.6136  1.7052  0.8849
  506MOL0     H69812   3.306   0.396   8.303  0.2881  0.3101  0.2394
  506MOL0     H69813   3.054   0.390   8.232  0.8173 -2.2872 -0.0991
  506MOL0     H69814   2.591   0.208   8.200  2.4680  0.4369  0.1397
  506MOL0     H69815   2.365   0.235   8.235 -3.6601  2.1225  1.4413
  506MOL0     H69816   2.120   0.344   8.243  3.9554 -1.5415 -1.5289
  506MOL0     H69817   2.185   0.212   8.341  1.1194 -0.0376  1.6675
  506MOL0     H69818   2.022   0.295   8.533 -0.1035  0.8233 -0.9869
  506MOL0     H69819   1.958   0.242   8.383 -0.6901  0.5038 -1.3185
  506MOL0     H69820   2.017   0.537   8.420 -1.0135  0.8584  0.6367
  506MOL0     H69821   1.867   0.464   8.355 -1.0946  1.5122  0.9266
  506MOL0     H69822   1.818   0.586   8.548  1.2900  0.5918 -4.5941
  506MOL0     H69823   1.918   0.488   8.658 -1.9948  2.8613  1.1257
  506MOL0     H69824   1.556   0.282   8.634 -1.1810  0.7012  0.8350
  506MOL0     H69825   2.414   0.583   8.483  2.0128 -0.7764  2.5893
  506MOL0     H69826   2.711   0.571   8.547 -0.7642 -1.1864  0.1022
  506MOL0     H69827   2.777   0.614   8.385  0.5753  4.5753  2.2862
  506MOL0     H69828   2.639   0.706   8.448  0.8521  1.5939 -1.7127
  507MOL0     O69829   5.631   8.571   3.862  0.5958 -0.4535 -0.0358
  507MOL0     C69830   5.662   8.597   3.745 -0.5687  0.3346 -0.6648
  507MOL0     O69831   5.793   8.596   3.694 -0.1843  0.3734 -0.5957
  507MOL0     C69832   5.895   8.550   3.768 -0.5215 -0.6011 -0.0201
  507MOL0     C69833   6.013   8.629   3.768 -0.8225 -0.8961  0.6890
  507MOL0     C69834   6.125   8.583   3.832  0.0620 -0.8553 -0.5634
  507MOL0     C69835   6.120   8.460   3.900 -0.4474 -0.0036 -0.2097
  507MOL0     O69836   6.233   8.416   3.964  0.1066 -0.1384  0.4788
  507MOL0     C69837   6.298   8.311   3.881 -0.1812  0.1066  0.4697
  507MOL0     C69838   6.418   8.371   3.792  1.1546  1.0605  0.3199
  507MOL0     C69839   6.540   8.433   3.860  0.2360 -0.0528 -0.1299
  507MOL0     C69840   6.602   8.308   3.936  0.3878  0.0610 -0.1465
  507MOL0     C69841   6.749   8.336   3.974 -0.7927 -0.1050 -0.1658
  507MOL0     C69842   6.825   8.208   4.015 -0.4367 -0.1934  0.8167
  507MOL0     C69843   6.824   8.093   3.913 -0.6612  0.0581  0.8133
  507MOL0     C69844   6.845   8.117   3.761 -0.3601  0.0901  0.1956
  507MOL0     N69845   6.988   8.141   3.726 -1.1286 -0.1186  0.2242
  507MOL0     C69846   7.067   8.235   3.794 -0.1699  0.3981 -0.4668
  507MOL0     C69847   7.179   8.246   3.722  0.3101  0.6632  0.0889
  507MOL0     C69848   7.304   8.330   3.727 -0.2196 -0.4394 -0.0221
  507MOL0     C69849   7.427   8.261   3.776 -0.5968 -0.5551 -0.0345
  507MOL0     C69850   7.478   8.153   3.686 -0.0041  1.0363  0.2176
  507MOL0     C69851   7.615   8.108   3.724 -0.2325 -0.8585 -0.6559
  507MOL0     O69852   7.661   8.019   3.624 -0.6234  0.0137  1.1667
  507MOL0     C69853   7.792   7.989   3.606  0.5217 -0.5891  0.9079
  507MOL0     C69854   7.899   8.077   3.642  0.3216  0.2560  0.3254
  507MOL0     C69855   8.028   8.035   3.629  0.2377  0.2038  0.0602
  507MOL0     C69856   8.135   8.139   3.648 -0.3914 -0.2234 -0.7410
  507MOL0     C69857   8.051   7.905   3.575  0.0550 -0.2196 -0.4091
  507MOL0     C69858   8.194   7.855   3.570 -0.2789  0.4221 -0.2546
  507MOL0     O69859   8.213   7.719   3.616  0.2947 -0.3982 -0.4050
  507MOL0     C69860   8.335   7.664   3.591 -0.0481 -0.5401 -0.4107
  507MOL0     C69861   8.386   7.576   3.683  0.6829  0.9030 -0.2082
  507MOL0     C69862   8.501   7.499   3.652 -0.2926 -0.5484 -0.0099
  507MOL0     C69863   8.575   7.510   3.534  0.6201 -1.2776  0.4266
  507MOL0     O69864   8.691   7.447   3.511  0.0282 -0.0326 -0.0983
  507MOL0     C69865   8.787   7.532   3.443  0.0351  0.1176  0.1892
  507MOL0     C69866   8.919   7.455   3.447  0.0241 -0.2142  0.4858
  507MOL0     C69867   9.021   7.541   3.373  0.6400 -0.8231  0.0263
  507MOL0     C69868   9.145   7.471   3.313  0.0420 -0.2119 -0.0528
  507MOL0     C69869   9.256   7.465   3.420 -0.5858 -0.0276 -0.5863
  507MOL0     C69870   9.379   7.372   3.382  0.3614  0.5041  0.2393
  507MOL0     C69871   9.482   7.393   3.488 -0.4041 -0.6818 -0.5829
  507MOL0     C69872   9.598   7.286   3.479  0.5213 -0.0058 -0.3533
  507MOL0    Cl69873   9.666   7.269   3.313  0.1486  0.0431 -0.0529
  507MOL0     C69874   8.517   7.607   3.451  0.0439  0.5380  0.6578
  507MOL0     C69875   8.403   7.672   3.472  0.1722  0.6204  0.3981
  507MOL0     O69876   8.278   7.929   3.519 -0.6786  0.7533  0.1341
  507MOL0     C69877   7.946   7.820   3.540 -0.5939 -0.2333 -0.1660
  507MOL0     C69878   7.822   7.862   3.555 -0.6959 -0.7125 -0.0298
  507MOL0     N69879   7.164   8.171   3.605 -0.2830  0.1038 -0.6669
  507MOL0     N69880   7.048   8.115   3.606  0.6258 -0.1521  0.4201
  507MOL0     C69881   6.006   8.375   3.893  1.2030  0.2524  0.5041
  507MOL0     C69882   5.901   8.422   3.822 -0.0557  0.5205  0.6332
  507MOL0     C69883   5.551   8.646   3.652 -0.0165  0.1316  0.0632
  507MOL0     C69884   5.420   8.657   3.705  0.8456  0.0667  0.0604
  507MOL0     C69885   5.308   8.709   3.639 -0.5727 -0.0880  0.2905
  507MOL0     C69886   5.316   8.744   3.501 -0.2283 -0.7783 -0.6132
  507MOL0     O69887   5.213   8.770   3.413 -0.7834 -1.1930  0.5008
  507MOL0     C69888   5.081   8.795   3.459  0.1223  0.3737 -0.1715
  507MOL0     C69889   4.992   8.866   3.351  0.1168 -0.9791 -0.4096
  507MOL0     C69890   4.898   8.975   3.411 -0.0197  0.0445 -0.3487
  507MOL0     C69891   4.789   8.925   3.506 -0.6413  0.0621  0.4812
  507MOL0     C69892   4.701   8.824   3.444  0.2425 -0.0321 -0.1564
  507MOL0     C69893   4.622   8.747   3.399  0.2236  0.0244  0.0212
  507MOL0     C69894   5.448   8.726   3.439 -0.1107  0.9720  0.2699
  507MOL0     C69895   5.565   8.683   3.513  0.3773  0.5814 -0.3716
  507MOL0     C69896   5.694   8.665   3.429  0.9863 -0.2916 -1.0731
  507MOL0     H69897   6.016   8.728   3.723  1.7230 -0.3576  1.8861
  507MOL0     H69898   6.213   8.647   3.836  0.0301 -0.8174 -0.4530
  507MOL0     H69899   6.233   8.259   3.810  0.2148  2.1322 -1.4948
  507MOL0     H69900   6.339   8.237   3.950 -0.1480  0.5061  0.8862
  507MOL0     H69901   6.449   8.285   3.733 -2.0410 -0.5437  0.7841
  507MOL0     H69902   6.371   8.436   3.718  2.8528 -0.2090 -2.0084
  507MOL0     H69903   6.612   8.457   3.781  0.3288 -1.5603 -0.5242
  507MOL0     H69904   6.498   8.513   3.923 -1.7016 -1.7263  0.7967
  507MOL0     H69905   6.560   8.307   4.038  3.6327  0.1785  1.3188
  507MOL0     H69906   6.587   8.207   3.898 -1.2839 -0.2849  1.2947
  507MOL0     H69907   6.762   8.405   4.058  0.1827  0.0550 -0.4378
  507MOL0     H69908   6.800   8.371   3.884 -0.8296 -0.1461 -0.2028
  507MOL0     H69909   6.928   8.238   4.032  0.2980 -2.8890  1.6166
  507MOL0     H69910   6.791   8.170   4.113  0.0182 -1.0882  0.6360
  507MOL0     H69911   6.728   8.041   3.922 -1.7895  2.1850  1.7389
  507MOL0     H69912   6.909   8.033   3.948  0.3635  2.6458  3.0949
  507MOL0     H69913   6.802   8.043   3.693  1.1441  1.1879 -2.0635
  507MOL0     H69914   6.795   8.209   3.731 -1.9812 -1.4668 -2.2160
  507MOL0     H69915   7.031   8.299   3.874  0.0392 -0.7413  0.5707
  507MOL0     H69916   7.290   8.416   3.792 -0.5138 -1.2015  0.9472
  507MOL0     H69917   7.329   8.365   3.626  0.1183  1.3433  0.6506
  507MOL0     H69918   7.508   8.334   3.787 -0.1406  0.0113 -4.9166
  507MOL0     H69919   7.401   8.221   3.875 -2.8952  0.0892 -0.3276
  507MOL0     H69920   7.413   8.066   3.679 -1.2731  1.9565  0.1517
  507MOL0     H69921   7.476   8.201   3.587  0.8763  0.9667  0.1632
  507MOL0     H69922   7.674   8.200   3.724 -0.3483 -0.7818 -0.1766
  507MOL0     H69923   7.619   8.054   3.819 -0.9473  2.0192  1.1239
  507MOL0     H69924   7.875   8.172   3.688  0.6930  2.0892 -2.9564
  507MOL0     H69925   8.091   8.222   3.704 -0.4568  0.0183 -1.1530
  507MOL0     H69926   8.177   8.182   3.557  2.9493 -1.5939  0.0004
  507MOL0     H69927   8.221   8.096   3.701 -0.2588 -3.3276 -3.1895
  507MOL0     H69928   8.335   7.572   3.779  1.7054  0.2877  0.3354
  507MOL0     H69929   8.543   7.432   3.726 -0.0029  0.3720  0.6723
  507MOL0     H69930   8.768   7.544   3.336  3.0446  0.4151 -0.3983
  507MOL0     H69931   8.808   7.628   3.490  0.7315 -0.4078  0.9783
  507MOL0     H69932   8.945   7.440   3.552  0.6789 -0.7579  0.2551
  507MOL0     H69933   8.907   7.357   3.399 -0.2810 -0.1720  0.4733
  507MOL0     H69934   9.055   7.615   3.446  1.0553 -0.7629 -0.2272
  507MOL0     H69935   8.969   7.588   3.289  1.8335  1.9516  0.7301
  507MOL0     H69936   9.194   7.536   3.240  0.8356  2.5009  2.6457
  507MOL0     H69937   9.117   7.374   3.272 -0.5837 -0.8590  1.7949
  507MOL0     H69938   9.279   7.569   3.447 -2.2130 -0.0094  0.9090
  507MOL0     H69939   9.208   7.430   3.512 -2.5643 -2.5379 -2.4185
  507MOL0     H69940   9.429   7.402   3.290  2.4717  2.0060  1.7795
  507MOL0     H69941   9.348   7.268   3.394  1.8110  0.1863  1.6764
  507MOL0     H69942   9.430   7.391   3.584 -0.2449  3.4281 -0.2492
  507MOL0     H69943   9.524   7.492   3.470  0.8291 -0.4949  2.6772
  507MOL0     H69944   9.547   7.198   3.519 -0.4683  1.6545  2.3404
  507MOL0     H69945   9.687   7.298   3.541  0.4013 -3.7784  0.8067
  507MOL0     H69946   8.551   7.608   3.348 -2.7969  0.1388 -0.3758
  507MOL0     H69947   8.362   7.729   3.389  0.5718  0.5101  0.1218
  507MOL0     H69948   7.967   7.721   3.501  0.0645  0.8211 -2.6667
  507MOL0     H69949   7.740   7.792   3.536 -0.4031 -1.0448 -0.0856
  507MOL0     H69950   6.013   8.275   3.932 -0.3559 -0.4376 -0.8636
  507MOL0     H69951   5.815   8.358   3.804  0.0346  0.5613  0.0260
  507MOL0     H69952   5.404   8.630   3.809  1.2839  2.2588  0.7390
  507MOL0     H69953   5.211   8.718   3.687 -1.8662 -1.5849 -1.8693
  507MOL0     H69954   5.033   8.702   3.491  0.0583  0.1042 -1.0426
  507MOL0     H69955   5.087   8.857   3.550  2.7892 -0.1501  0.0911
  507MOL0     H69956   4.933   8.792   3.297  0.7217 -0.1952 -2.2340
  507MOL0     H69957   5.040   8.921   3.269 -1.0063  1.0713  0.2351
  507MOL0     H69958   4.958   9.053   3.459  0.9078 -0.1567 -1.1382
  507MOL0     H69959   4.854   9.028   3.326  3.0409 -0.0696 -2.1553
  507MOL0     H69960   4.740   9.019   3.532 -0.1862  0.6396 -0.6968
  507MOL0     H69961   4.827   8.886   3.601  1.0863  0.5087  0.0142
  507MOL0     H69962   4.536   8.692   3.368  1.0762 -0.4812 -1.5411
  507MOL0     H69963   5.451   8.740   3.331 -2.4337  1.1967  0.1829
  507MOL0     H69964   5.705   8.558   3.410  0.2193 -0.3070 -1.4935
  507MOL0     H69965   5.676   8.715   3.333  1.3916 -0.3920 -1.2039
  507MOL0     H69966   5.780   8.713   3.477  1.2327 -0.6596 -1.1438
  508MOL0     O69967   8.675  10.464   0.947 -0.2696 -0.1248 -0.4151
  508MOL0     C69968   8.608  10.363   0.960 -0.5517  0.3143  0.8337
  508MOL0     O69969   8.638  10.241   0.910  0.3952  0.2901 -0.0404
  508MOL0     C69970   8.760  10.212   0.871 -0.1641 -1.3375  0.3850
  508MOL0     C69971   8.771  10.141   0.756 -0.0719  0.4403 -0.1316
  508MOL0     C69972   8.895  10.090   0.717  0.2613 -0.6639  0.4473
  508MOL0     C69973   9.007  10.114   0.796  0.0804  0.2512 -0.8341
  508MOL0     O69974   9.122  10.061   0.745 -0.4132 -0.3524  0.1499
  508MOL0     C69975   9.234  10.056   0.834 -0.1078 -0.3649 -0.5067
  508MOL0     C69976   9.325   9.952   0.771 -0.7132  0.4328  0.2985
  508MOL0     C69977   9.450   9.933   0.851 -0.0990 -0.3296 -0.5949
  508MOL0     C69978   9.563   9.858   0.772  0.1683  0.4876 -0.2867
  508MOL0     C69979   9.682   9.826   0.870  0.0549 -0.5257  0.5713
  508MOL0     C69980   9.775   9.945   0.899 -0.0668  0.2843  0.2827
  508MOL0     C69981   9.877   9.984   0.787 -0.9637 -0.5514  0.5973
  508MOL0     C69982   9.967  10.103   0.835 -0.3742  0.5201 -0.0331
  508MOL0     N69983  10.083  10.117   0.745  0.2994 -0.3649 -0.4749
  508MOL0     C69984  10.094  10.224   0.660 -0.5007 -0.4705 -0.7718
  508MOL0     C69985  10.222  10.221   0.619 -1.0068 -0.6478 -0.1936
  508MOL0     C69986  10.297  10.334   0.536  0.5771 -0.9141 -0.3749
  508MOL0     C69987  10.369  10.431   0.639 -0.4733 -1.0023 -0.0570
  508MOL0     C69988  10.420  10.564   0.580 -0.0903  0.3223  0.5030
  508MOL0     C69989  10.522  10.549   0.464 -0.2442  0.0043 -0.2980
  508MOL0     O69990  10.631  10.467   0.511 -0.1534  0.4864 -0.3865
  508MOL0     C69991  10.734  10.421   0.437  0.4332  0.2414  0.0307
  508MOL0     C69992  10.853  10.385   0.508  0.8851  0.5246 -0.3215
  508MOL0     C69993  10.967  10.343   0.443  0.1837  0.3049  0.9027
  508MOL0     C69994  11.084  10.320   0.528 -0.1409 -0.2565  0.4143
  508MOL0     C69995  10.958  10.327   0.301  0.3622  0.0751 -0.0962
  508MOL0     C69996  11.065  10.272   0.217  0.5105  0.5020 -0.3427
  508MOL0     O69997  11.032  10.229   0.096 -0.3495 -0.1999  0.4538
  508MOL0     C69998  11.145  10.180   0.034 -0.1032  0.1731  0.1273
  508MOL0     C69999  11.167  10.038   0.028  0.1959 -0.7735 -0.6395
  508MOL0     C70000  11.291   9.989  -0.015  0.1364 -0.5088 -0.2743
  508MOL0     C70001  11.393  10.074  -0.070 -0.5202 -0.2073 -0.0985
  508MOL0     O70002  11.506  10.014  -0.119 -0.1799 -0.3111  0.1003
  508MOL0     C70003  11.620  10.102  -0.151  0.4120 -0.7647  1.2885
  508MOL0     C70004  11.730  10.005  -0.195  0.1019  0.1687  0.1358
  508MOL0     C70005  11.866  10.080  -0.172 -0.0293  0.4953 -0.1998
  508MOL0     C70006  11.972   9.998  -0.227  0.0343  0.0571 -0.1989
  508MOL0     C70007  12.095  10.076  -0.264  0.3710  0.3274  0.3861
  508MOL0     C70008  12.191   9.983  -0.335 -1.1741  0.7570  0.0059
  508MOL0     C70009  12.320  10.064  -0.367 -0.2852 -0.5665 -0.4244
  508MOL0     C70010  12.421   9.973  -0.445  0.5669 -0.0618  0.4259
  508MOL0    Cl70011  12.559  10.075  -0.493  0.3309  0.1239 -0.2734
  508MOL0     C70012  11.364  10.216  -0.067  0.1742 -0.5432  0.3026
  508MOL0     C70013  11.246  10.270  -0.018 -0.0422 -0.2881  0.5762
  508MOL0     O70014  11.174  10.275   0.270 -0.3019  0.1862  1.2549
  508MOL0     C70015  10.839  10.366   0.229  0.1007  0.5634  0.0647
  508MOL0     C70016  10.731  10.420   0.299 -0.4000  0.3858  0.5538
  508MOL0     N70017  10.287  10.106   0.668  0.3361 -0.1927  0.1846
  508MOL0     N70018  10.199  10.044   0.749  0.5657 -0.0781  0.2034
  508MOL0     C70019   8.999  10.191   0.920  0.0486  0.1669  0.3341
  508MOL0     C70020   8.875  10.241   0.953  0.6558 -0.8221  0.3203
  508MOL0     C70021   8.476  10.385   1.018 -0.2993 -0.0810 -0.9504
  508MOL0     C70022   8.383  10.278   1.014 -0.4747 -0.6028 -0.2092
  508MOL0     C70023   8.265  10.276   1.078 -0.2253  0.3427  0.2922
  508MOL0     C70024   8.227  10.391   1.137 -0.2000  0.0598 -0.3714
  508MOL0     O70025   8.110  10.414   1.209  0.1930 -0.1442  0.1701
  508MOL0     C70026   8.037  10.297   1.260 -1.7772  0.0342  0.7559
  508MOL0     C70027   7.906  10.348   1.305 -0.8688  0.3429 -0.6771
  508MOL0     C70028   7.815  10.362   1.175  0.6211 -0.8481  0.1940
  508MOL0     C70029   7.757  10.499   1.160  0.3438  0.4300  0.4696
  508MOL0     C70030   7.671  10.534   1.272  1.3218  1.1892  0.3967
  508MOL0     C70031   7.574  10.541   1.348  0.2551  0.2406  0.2713
  508MOL0     C70032   8.314  10.500   1.144 -0.0715  0.5914 -0.2524
  508MOL0     C70033   8.449  10.499   1.099  0.0444  0.8365  0.1856
  508MOL0     C70034   8.528  10.628   1.133 -0.7249  0.5224  0.0476
  508MOL0     H70035   8.681  10.116   0.699  0.3695 -0.7340 -0.3494
  508MOL0     H70036   8.896  10.036   0.623 -2.1287  0.8451 -0.5659
  508MOL0     H70037   9.202  10.016   0.931 -1.6251  0.3335 -0.7043
  508MOL0     H70038   9.289  10.150   0.842 -1.7485  0.5411  0.4821
  508MOL0     H70039   9.281   9.852   0.778  1.4868 -0.4792  1.9265
  508MOL0     H70040   9.362   9.972   0.670  2.0235 -0.3175  1.0547
  508MOL0     H70041   9.498  10.027   0.878 -0.3881  0.5022 -2.8170
  508MOL0     H70042   9.417   9.872   0.936  0.2528 -0.4956 -0.5785
  508MOL0     H70043   9.516   9.767   0.733  0.8199  0.5634 -1.2941
  508MOL0     H70044   9.602   9.925   0.695  1.4428  1.9238  1.5284
  508MOL0     H70045   9.745   9.751   0.820  1.1682  0.5023  0.3721
  508MOL0     H70046   9.639   9.778   0.958 -1.6270  1.0646  0.6685
  508MOL0     H70047   9.714  10.034   0.918 -1.3281 -0.9607  2.3968
  508MOL0     H70048   9.836   9.925   0.987 -0.8148  0.3212  0.8102
  508MOL0     H70049   9.826  10.029   0.702  1.4255  5.0038  1.6440
  508MOL0     H70050   9.936   9.898   0.754  1.0742  0.6151  1.0461
  508MOL0     H70051   9.908  10.195   0.840 -2.4613 -0.5551 -2.4704
  508MOL0     H70052  10.013  10.078   0.931 -0.0048  0.6142 -0.1823
  508MOL0     H70053  10.018  10.301   0.649 -0.3276 -0.2745 -0.6161
  508MOL0     H70054  10.214  10.387   0.489  0.6584 -1.6741 -1.4160
  508MOL0     H70055  10.361  10.301   0.454 -1.8783  0.5772 -3.0612
  508MOL0     H70056  10.308  10.456   0.726  0.3607 -0.9280  0.5097
  508MOL0     H70057  10.452  10.369   0.675 -1.3308 -2.8092 -1.0446
  508MOL0     H70058  10.336  10.624   0.545 -0.4741 -1.5843 -2.1987
  508MOL0     H70059  10.472  10.617   0.660 -2.9168  0.0615  2.6386
  508MOL0     H70060  10.470  10.496   0.383  0.4218 -0.9804 -0.1035
  508MOL0     H70061  10.547  10.650   0.432 -1.7441 -0.4470 -3.2321
  508MOL0     H70062  10.837  10.369   0.614 -1.5968  1.4623 -0.4869
  508MOL0     H70063  11.112  10.215   0.523 -2.6706 -1.0400  1.5527
  508MOL0     H70064  11.058  10.339   0.633  3.9493 -2.2548  2.0064
  508MOL0     H70065  11.168  10.374   0.483 -1.7369  0.8153 -1.4598
  508MOL0     H70066  11.089   9.970   0.061 -0.5496  0.4705  0.2792
  508MOL0     H70067  11.316   9.886   0.009 -0.4417 -0.7826 -0.8107
  508MOL0     H70068  11.599  10.178  -0.227  0.4380 -1.3599  0.6721
  508MOL0     H70069  11.656  10.139  -0.055  0.1624 -0.2957  1.2048
  508MOL0     H70070  11.718   9.918  -0.130 -0.3230 -2.0058 -2.6413
  508MOL0     H70071  11.719   9.983  -0.302 -1.5922 -0.5575  0.4231
  508MOL0     H70072  11.880  10.087  -0.063  1.2069 -1.5704 -0.1620
  508MOL0     H70073  11.869  10.178  -0.220  2.5394  0.9621  0.7403
  508MOL0     H70074  11.933   9.952  -0.319 -2.1989  2.1434 -0.3807
  508MOL0     H70075  11.998   9.913  -0.163 -0.6195 -1.5638 -1.9624
  508MOL0     H70076  12.070  10.159  -0.331  2.7028 -1.7905 -3.4099
  508MOL0     H70077  12.141  10.112  -0.171 -2.0237  1.1973  1.3004
  508MOL0     H70078  12.146   9.944  -0.427  0.0849  0.7893 -0.6436
  508MOL0     H70079  12.216   9.899  -0.269  0.4114  0.8776 -0.3939
  508MOL0     H70080  12.354  10.122  -0.281 -2.1957 -0.3693  0.2364
  508MOL0     H70081  12.285  10.140  -0.437 -0.0078  0.5307  0.6111
  508MOL0     H70082  12.362   9.933  -0.528 -1.7021  1.7394  1.0716
  508MOL0     H70083  12.448   9.890  -0.380 -0.8788  0.9463  2.4357
  508MOL0     H70084  11.440  10.285  -0.101 -1.1799  0.5224 -0.7226
  508MOL0     H70085  11.232  10.377  -0.005 -0.9503 -0.5747  2.2651
  508MOL0     H70086  10.832  10.343   0.124 -1.7175  0.2505  0.2070
  508MOL0     H70087  10.640  10.462   0.257  0.0042  0.4962 -0.2285
  508MOL0     H70088   9.086  10.197   0.985 -0.0885 -2.0628  0.8224
  508MOL0     H70089   8.864  10.301   1.043 -0.9121 -0.7908  0.1444
  508MOL0     H70090   8.411  10.185   0.967 -0.0845 -0.0803 -1.0456
  508MOL0     H70091   8.206  10.185   1.076  0.1016  0.1352 -0.0215
  508MOL0     H70092   8.018  10.218   1.186  0.4918 -2.2128  2.3791
  508MOL0     H70093   8.089  10.248   1.343  0.7365  1.0995 -0.0933
  508MOL0     H70094   7.928  10.435   1.368  1.2015 -0.8750  0.4009
  508MOL0     H70095   7.879  10.269   1.375  3.3113 -0.1038  0.6753
  508MOL0     H70096   7.871  10.353   1.081  0.2532 -3.6582  0.1597
  508MOL0     H70097   7.742  10.282   1.166 -1.2767  0.8283 -0.0045
  508MOL0     H70098   7.714  10.510   1.060  0.1829  1.1233  0.6104
  508MOL0     H70099   7.844  10.565   1.157  1.7495 -1.3557 -1.9000
  508MOL0     H70100   7.493  10.550   1.418  0.1156 -2.3028  0.5345
  508MOL0     H70101   8.278  10.584   1.203  2.1992  2.3234 -1.1717
  508MOL0     H70102   8.465  10.684   1.204 -0.3566  0.1232  0.7017
  508MOL0     H70103   8.606  10.584   1.196 -1.4777 -0.5026  0.2924
  508MOL0     H70104   8.564  10.703   1.062  1.7519  0.4563  1.1093
  509MOL0     O70105   7.215  10.165   9.458 -0.5984 -0.0025 -0.3455
  509MOL0     C70106   7.156  10.262   9.405 -0.1702 -0.9734  0.0097
  509MOL0     O70107   7.208  10.387   9.386  0.1818 -0.1475  0.4472
  509MOL0     C70108   7.337  10.412   9.425  0.0720  0.2473  0.4259
  509MOL0     C70109   7.441  10.393   9.336 -0.5470 -0.1213 -0.4484
  509MOL0     C70110   7.575  10.394   9.376  0.3599  0.2495  1.0532
  509MOL0     C70111   7.596  10.413   9.515  0.5071 -0.9842  0.0566
  509MOL0     O70112   7.713  10.397   9.578 -0.1005 -0.0671 -0.3568
  509MOL0     C70113   7.823  10.375   9.494  0.7582 -0.2532 -0.3979
  509MOL0     C70114   7.945  10.337   9.576  0.4803  0.4309 -0.2294
  509MOL0     C70115   8.068  10.306   9.496 -0.3989 -0.1458 -0.2782
  509MOL0     C70116   8.181  10.239   9.580  0.6025  0.5925  0.1687
  509MOL0     C70117   8.324  10.265   9.524 -0.0570  0.6644  0.0076
  509MOL0     C70118   8.429  10.195   9.615  0.2994 -0.0079  0.4561
  509MOL0     C70119   8.572  10.217   9.556  0.3022  0.4106  0.3605
  509MOL0     C70120   8.678  10.144   9.633 -0.5036 -0.2895  1.2680
  509MOL0     N70121   8.808  10.195   9.589  0.0505 -0.4333  0.3072
  509MOL0     C70122   8.864  10.192   9.465  0.2813 -0.3637  0.1952
  509MOL0     C70123   8.989  10.245   9.472  1.0043 -0.6920  0.1189
  509MOL0     C70124   9.087  10.275   9.367  0.1780 -0.4375  0.3869
  509MOL0     C70125   9.038  10.380   9.273  1.2589  0.4196 -1.0982
  509MOL0     C70126   9.093  10.363   9.133 -0.1025 -0.4769 -0.4338
  509MOL0     C70127   9.238  10.422   9.118 -0.3210 -0.3402  0.0180
  509MOL0     O70128   9.336  10.342   9.181  0.7084  0.7752 -0.6343
  509MOL0     C70129   9.459  10.384   9.217 -0.3849 -0.4640 -0.3949
  509MOL0     C70130   9.514  10.511   9.166 -0.3991  0.8470  0.0966
  509MOL0     C70131   9.636  10.552   9.206 -0.1259  0.3906 -0.1554
  509MOL0     C70132   9.696  10.679   9.150  1.0003 -0.4470 -0.0957
  509MOL0     C70133   9.701  10.476   9.309  0.5702  0.0118  0.0175
  509MOL0     C70134   9.824  10.519   9.378  0.4479  0.1700  0.5139
  509MOL0     O70135   9.906  10.416   9.426  0.4040  0.5833  0.1961
  509MOL0     C70136  10.038  10.457   9.454  0.0551  0.7384 -0.3680
  509MOL0     C70137  10.142  10.431   9.361  0.3023 -0.6701 -0.9922
  509MOL0     C70138  10.267  10.478   9.391  0.2982  0.2434 -0.1798
  509MOL0     C70139  10.295  10.553   9.505  1.3077  0.6876 -0.5322
  509MOL0     O70140  10.425  10.589   9.520  0.1142  0.1892  0.3795
  509MOL0     C70141  10.446  10.731   9.550  0.5908 -0.1827 -0.7020
  509MOL0     C70142  10.582  10.773   9.512 -0.4399  0.4331 -0.6402
  509MOL0     C70143  10.697  10.696   9.590 -0.0023  0.0076  0.3623
  509MOL0     C70144  10.836  10.706   9.510  0.0181  0.7308  0.4360
  509MOL0     C70145  10.945  10.629   9.585 -0.8119 -0.6966 -0.1944
  509MOL0     C70146  11.018  10.726   9.679  0.5727  0.3109  0.1696
  509MOL0     C70147  11.141  10.660   9.745 -0.2141 -0.4254  0.5324
  509MOL0     C70148  11.233  10.759   9.810  0.0323  0.2784 -0.0793
  509MOL0    Cl70149  11.149  10.829   9.963 -0.1286 -0.1901  0.4106
  509MOL0     C70150  10.190  10.578   9.597 -0.1324 -0.5254  0.1263
  509MOL0     C70151  10.064  10.529   9.573 -0.5655  0.5344  0.7554
  509MOL0     O70152   9.829  10.639   9.402 -0.5890 -0.1038 -0.0324
  509MOL0     C70153   9.645  10.355   9.352  1.0615 -1.1648 -0.4361
  509MOL0     C70154   9.523  10.304   9.305  0.8827 -0.1945 -0.8117
  509MOL0     N70155   9.018  10.266   9.605  0.1182 -0.7381 -0.5058
  509MOL0     N70156   8.910  10.252   9.671 -0.0948  0.1146 -0.1700
  509MOL0     C70157   7.489  10.455   9.595 -0.2230 -0.0656  0.2237
  509MOL0     C70158   7.357  10.451   9.550 -0.2350  0.2444 -0.8180
  509MOL0     C70159   7.016  10.249   9.361 -0.6427 -0.7505 -0.2129
  509MOL0     C70160   6.956  10.343   9.268  0.5550  0.2425  0.3365
  509MOL0     C70161   6.821  10.337   9.239 -0.4479  0.1108  0.9739
  509MOL0     C70162   6.739  10.234   9.288 -0.2583 -0.8184  0.3843
  509MOL0     O70163   6.605  10.223   9.256 -0.5613  0.5782  0.0618
  509MOL0     C70164   6.563  10.267   9.124 -1.2578 -0.8900 -0.2105
  509MOL0     C70165   6.435  10.206   9.083 -0.3643 -0.3068 -0.0483
  509MOL0     C70166   6.395  10.243   8.940 -0.3034  0.6714  0.1047
  509MOL0     C70167   6.267  10.181   8.879 -0.2748  0.2861 -0.6696
  509MOL0     C70168   6.140  10.206   8.949 -1.0279 -0.7951 -0.0860
  509MOL0     C70169   6.030  10.237   8.987  0.1689 -0.3962 -0.0230
  509MOL0     C70170   6.790  10.147   9.385 -0.2391  0.9196  0.6583
  509MOL0     C70171   6.933  10.142   9.416  0.2937  0.0782 -0.5470
  509MOL0     C70172   6.981  10.028   9.500 -0.5454  0.5113 -0.4571
  509MOL0     H70173   7.425  10.389   9.229 -1.5258  0.5016 -0.3321
  509MOL0     H70174   7.649  10.364   9.303 -0.5141 -1.0742  0.6646
  509MOL0     H70175   7.838  10.464   9.433  2.3751  0.8922  1.5534
  509MOL0     H70176   7.798  10.298   9.421 -4.2552  1.0076 -0.4022
  509MOL0     H70177   7.964  10.416   9.649 -1.2919  1.3791 -0.7552
  509MOL0     H70178   7.914  10.244   9.625  1.6278  0.1708  0.0265
  509MOL0     H70179   8.051  10.242   9.408  0.9713 -2.8345  1.2730
  509MOL0     H70180   8.102  10.402   9.456 -1.6559  0.1949 -0.5695
  509MOL0     H70181   8.175  10.266   9.686  2.1773  0.1958  0.3826
  509MOL0     H70182   8.173  10.130   9.579 -1.7030  0.7140  0.9232
  509MOL0     H70183   8.341  10.373   9.521  0.0439  0.6388 -0.3298
  509MOL0     H70184   8.325  10.240   9.418 -1.2388  0.3473  0.0546
  509MOL0     H70185   8.425  10.243   9.714  1.1252 -0.0237  0.5050
  509MOL0     H70186   8.409  10.088   9.622  0.7752 -0.2059 -0.9959
  509MOL0     H70187   8.601  10.323   9.556  0.7532  0.3070  1.6581
  509MOL0     H70188   8.568  10.179   9.453 -0.2017  2.1210 -0.2826
  509MOL0     H70189   8.680  10.178   9.737  3.0473  1.4722  0.7834
  509MOL0     H70190   8.685  10.035   9.638  0.8923 -0.5512 -2.6857
  509MOL0     H70191   8.816  10.150   9.377 -1.2816 -0.7279  1.1946
  509MOL0     H70192   9.085  10.182   9.308 -0.1132 -0.5535  0.5787
  509MOL0     H70193   9.187  10.305   9.398  0.5085 -0.0830 -0.9346
  509MOL0     H70194   8.929  10.370   9.276  1.4048 -1.5239  1.0142
  509MOL0     H70195   9.057  10.475   9.323  1.5374 -0.5575  0.7590
  509MOL0     H70196   9.100  10.256   9.111  1.2829 -0.7957  1.3390
  509MOL0     H70197   9.023  10.414   9.066 -1.2463  1.2888  1.9493
  509MOL0     H70198   9.266  10.431   9.013  0.3687 -0.7533  0.1599
  509MOL0     H70199   9.243  10.523   9.161  1.7509 -0.9155  1.2826
  509MOL0     H70200   9.463  10.562   9.085 -1.5187 -1.2172 -0.5982
  509MOL0     H70201   9.644  10.719   9.063  0.4858  3.4012  1.7635
  509MOL0     H70202   9.805  10.682   9.138  0.9040 -0.8422 -1.1356
  509MOL0     H70203   9.688  10.751   9.232 -1.4889 -0.2521 -0.4378
  509MOL0     H70204  10.111  10.375   9.273 -2.1133 -1.3408  0.2023
  509MOL0     H70205  10.351  10.458   9.325  0.9223  3.2576 -0.4246
  509MOL0     H70206  10.367  10.791   9.504 -1.7667 -1.0353  1.9430
  509MOL0     H70207  10.437  10.747   9.658  1.6130 -0.6134 -0.5460
  509MOL0     H70208  10.591  10.748   9.406 -0.3206 -0.7370 -0.3645
  509MOL0     H70209  10.589  10.882   9.519 -0.0936  0.3589  0.5214
  509MOL0     H70210  10.665  10.593   9.609  2.3949 -0.8025  0.2504
  509MOL0     H70211  10.716  10.735   9.690  1.9151  1.0728 -0.3768
  509MOL0     H70212  10.875  10.807   9.495 -1.8348  1.1665 -2.1653
  509MOL0     H70213  10.823  10.663   9.410  2.1912  0.4981  0.1961
  509MOL0     H70214  10.905  10.553   9.652  0.7187 -1.6435 -0.3000
  509MOL0     H70215  11.013  10.575   9.517  0.2344  1.3014 -0.8096
  509MOL0     H70216  10.952  10.776   9.750 -0.6985  0.5471 -1.1191
  509MOL0     H70217  11.058  10.814   9.627  0.8903  0.2248  0.2672
  509MOL0     H70218  11.196  10.594   9.678 -1.1042  0.0130 -0.6660
  509MOL0     H70219  11.114  10.587   9.822  1.7523  0.0959  1.7997
  509MOL0     H70220  11.247  10.841   9.739 -0.9991  0.1356 -0.4696
  509MOL0     H70221  11.325  10.712   9.846  0.1509  0.3393 -0.2975
  509MOL0     H70222  10.204  10.632   9.690  0.6480  2.3724 -1.5576
  509MOL0     H70223   9.990  10.548   9.650 -0.3640  3.9486  0.2464
  509MOL0     H70224   9.687  10.299   9.435  0.7254 -0.5759  0.1451
  509MOL0     H70225   9.468  10.215   9.336 -0.6291  0.2203 -2.1912
  509MOL0     H70226   7.508  10.492   9.695 -2.5292  3.9437 -0.6201
  509MOL0     H70227   7.281  10.479   9.622  1.5204  0.1708  1.1688
  509MOL0     H70228   7.017  10.412   9.211  3.6095 -2.6723 -0.2328
  509MOL0     H70229   6.791  10.412   9.167  3.1922  0.6683 -0.1185
  509MOL0     H70230   6.541  10.374   9.130 -0.1697 -0.6863  0.8081
  509MOL0     H70231   6.640  10.241   9.051 -0.4907 -0.2928  0.3642
  509MOL0     H70232   6.357  10.243   9.150 -0.7242  0.0059 -0.6393
  509MOL0     H70233   6.432  10.096   9.085 -1.0381 -0.3022 -0.8701
  509MOL0     H70234   6.390  10.352   8.939 -1.6318  0.7448  3.2226
  509MOL0     H70235   6.479  10.216   8.875 -1.3210 -1.1333 -0.5458
  509MOL0     H70236   6.280  10.073   8.868 -2.0203 -0.1626  1.1571
  509MOL0     H70237   6.267  10.213   8.774 -0.1335 -0.6506 -0.9650
  509MOL0     H70238   5.933  10.271   9.020  0.4281 -0.9050  1.3562
  509MOL0     H70239   6.719  10.071   9.414 -1.1934  0.6938 -1.9720
  509MOL0     H70240   7.046   9.957   9.447  3.0916  0.4559  3.5177
  509MOL0     H70241   7.048  10.062   9.579 -0.2273 -1.5897  0.2452
  509MOL0     H70242   6.897   9.977   9.548  1.2713 -1.6244  0.6692
  510MOL0     O70243   1.291   6.469   2.287 -0.6370  0.4706 -0.1348
  510MOL0     C70244   1.282   6.476   2.408  0.0314  0.4886  0.7410
  510MOL0     O70245   1.372   6.533   2.491  0.3352 -0.1883  0.0570
  510MOL0     C70246   1.482   6.572   2.422 -0.2122 -0.0387 -0.1069
  510MOL0     C70247   1.493   6.699   2.360  0.4633  0.1529  0.1370
  510MOL0     C70248   1.604   6.733   2.281 -0.6970 -0.1802 -1.1824
  510MOL0     C70249   1.715   6.634   2.257  0.0386  0.3430  0.7458
  510MOL0     O70250   1.834   6.648   2.189 -0.8858 -0.4827  0.3240
  510MOL0     C70251   1.845   6.761   2.094  0.5712  0.4544 -0.9604
  510MOL0     C70252   1.986   6.754   2.042 -0.0937  0.3633  0.5386
  510MOL0     C70253   1.990   6.868   1.942  0.8117  0.1040 -0.3089
  510MOL0     C70254   2.130   6.878   1.879  0.5422 -0.0682  0.1203
  510MOL0     C70255   2.174   7.026   1.871  0.6955 -0.1143 -0.6775
  510MOL0     C70256   2.111   7.108   1.759 -0.1734  0.6124  0.4340
  510MOL0     C70257   2.172   7.246   1.754  0.2565 -0.5508  0.0943
  510MOL0     C70258   2.182   7.307   1.613  0.2200 -0.6405  0.1741
  510MOL0     N70259   2.061   7.334   1.549  0.3665 -0.3072 -0.0281
  510MOL0     C70260   2.035   7.372   1.417  0.0871 -0.6109 -0.8853
  510MOL0     C70261   1.898   7.388   1.404 -1.4180 -0.3376 -0.2290
  510MOL0     C70262   1.837   7.434   1.282 -0.5937 -0.0641 -0.2625
  510MOL0     C70263   1.858   7.574   1.242 -0.4517  0.6946 -0.2232
  510MOL0     C70264   1.830   7.683   1.345  0.1719  0.9382  0.6671
  510MOL0     C70265   1.882   7.824   1.291  0.2895  1.1261 -0.0482
  510MOL0     O70266   1.987   7.865   1.377 -0.1002 -0.2523 -0.0882
  510MOL0     C70267   2.107   7.852   1.322 -0.0100 -0.5307 -0.0116
  510MOL0     C70268   2.181   7.730   1.341  0.0969  0.5422  0.1490
  510MOL0     C70269   2.303   7.710   1.287  0.4882  0.2917  0.1034
  510MOL0     C70270   2.382   7.583   1.330  0.6600 -0.7770  0.4510
  510MOL0     C70271   2.363   7.817   1.214 -0.5172  0.3676  0.3713
  510MOL0     C70272   2.502   7.804   1.144 -0.6403 -0.6851  0.4049
  510MOL0     O70273   2.582   7.916   1.144  0.2325  0.9951  0.2282
  510MOL0     C70274   2.701   7.910   1.074 -0.2152  0.3235  0.0136
  510MOL0     C70275   2.700   7.935   0.934 -0.2534 -0.0559 -0.6945
  510MOL0     C70276   2.821   7.947   0.862  0.4469 -0.7012 -0.0984
  510MOL0     C70277   2.946   7.947   0.928 -0.2936 -0.4560  0.2960
  510MOL0     O70278   3.058   7.960   0.848  0.1072 -0.2985 -0.0767
  510MOL0     C70279   3.162   8.050   0.894  0.0605  0.3701  0.5381
  510MOL0     C70280   3.267   7.951   0.940  1.0683 -0.7949 -0.2741
  510MOL0     C70281   3.393   8.028   0.960 -0.3931 -0.5304 -0.7450
  510MOL0     C70282   3.496   8.025   0.843  0.1062  0.1384 -0.2825
  510MOL0     C70283   3.625   8.098   0.880 -0.4381  0.2849 -0.2882
  510MOL0     C70284   3.677   8.172   0.759  0.0587  0.4927  0.6168
  510MOL0     C70285   3.814   8.237   0.771  0.2102 -0.1577 -0.0796
  510MOL0     C70286   3.837   8.342   0.661 -0.2989  0.3566 -0.3063
  510MOL0    Cl70287   3.978   8.441   0.668  0.1172 -0.6119  0.3023
  510MOL0     C70288   2.947   7.915   1.066 -0.6258 -0.3804  1.0998
  510MOL0     C70289   2.832   7.887   1.134 -0.2067 -0.3589 -0.2506
  510MOL0     O70290   2.526   7.701   1.086 -0.3477 -0.1298  0.6379
  510MOL0     C70291   2.286   7.933   1.190 -0.6658  0.1682  0.3003
  510MOL0     C70292   2.156   7.949   1.240 -0.6127 -0.1730  0.5667
  510MOL0     N70293   1.843   7.368   1.527 -0.2046 -0.6658  0.4120
  510MOL0     N70294   1.943   7.337   1.610 -0.0151 -0.0850  0.4481
  510MOL0     C70295   1.703   6.513   2.322 -0.2850 -0.2295 -0.0895
  510MOL0     C70296   1.592   6.481   2.402  0.4535  0.0800  0.2276
  510MOL0     C70297   1.165   6.426   2.472 -0.4255 -0.4436  0.3559
  510MOL0     C70298   1.122   6.288   2.462  0.0211  0.6350 -0.2727
  510MOL0     C70299   1.004   6.250   2.529  0.5696  0.3368 -0.2936
  510MOL0     C70300   0.936   6.339   2.605 -0.4525  0.1466 -0.3141
  510MOL0     O70301   0.833   6.283   2.674 -0.3675  0.5509  0.7599
  510MOL0     C70302   0.710   6.352   2.678  0.3238 -0.0853  0.1658
  510MOL0     C70303   0.686   6.401   2.819  0.6137  0.0816 -0.0278
  510MOL0     C70304   0.549   6.466   2.826 -0.6372  0.2197  0.2265
  510MOL0     C70305   0.509   6.518   2.963  0.2795  0.9471 -0.2395
  510MOL0     C70306   0.592   6.630   3.007  0.0545  0.1506 -0.1348
  510MOL0     C70307   0.644   6.727   3.052 -0.6320  0.1870 -0.3970
  510MOL0     C70308   0.975   6.475   2.614  0.0724  0.3759 -0.6731
  510MOL0     C70309   1.088   6.517   2.542  0.0290 -0.4738  0.3263
  510MOL0     C70310   1.122   6.672   2.537  0.8460 -0.2123  0.1349
  510MOL0     H70311   1.415   6.773   2.372  0.5966 -0.0412  2.9505
  510MOL0     H70312   1.601   6.826   2.226 -1.2059  0.6689  0.2133
  510MOL0     H70313   1.827   6.856   2.146  0.3981 -0.5447  0.8978
  510MOL0     H70314   1.776   6.763   2.009  0.8433  0.5804 -1.1802
  510MOL0     H70315   2.065   6.757   2.117  0.5885  2.9884 -0.2063
  510MOL0     H70316   2.007   6.668   1.977 -2.2440 -0.8057  1.2856
  510MOL0     H70317   1.904   6.864   1.875 -1.0207  1.7243  1.7683
  510MOL0     H70318   1.963   6.959   1.998 -3.4702 -2.1562  1.8241
  510MOL0     H70319   2.206   6.832   1.942 -0.8854  0.7564  2.6073
  510MOL0     H70320   2.127   6.830   1.780 -3.3089  0.6313 -0.2569
  510MOL0     H70321   2.283   7.029   1.867  0.7687  0.4972  1.1218
  510MOL0     H70322   2.151   7.073   1.967  1.2440 -1.7144  0.2851
  510MOL0     H70323   2.163   7.065   1.673 -0.0037  1.0382  0.3198
  510MOL0     H70324   2.003   7.092   1.755  0.2796 -3.1495 -2.2673
  510MOL0     H70325   2.275   7.244   1.793 -0.6350  0.7505  2.8056
  510MOL0     H70326   2.108   7.313   1.812 -0.0967 -0.5367 -0.3064
  510MOL0     H70327   2.242   7.399   1.616  0.7986 -0.8741 -2.1598
  510MOL0     H70328   2.238   7.239   1.548 -0.0368  0.5246 -1.3076
  510MOL0     H70329   2.103   7.376   1.333 -1.1016 -1.4251 -1.9131
  510MOL0     H70330   1.730   7.432   1.304 -1.1451  0.3738 -2.6739
  510MOL0     H70331   1.848   7.369   1.195 -2.8296 -0.7623 -0.0909
  510MOL0     H70332   1.962   7.583   1.208 -1.1335  1.2194 -2.2983
  510MOL0     H70333   1.792   7.576   1.156  0.6286  0.4595 -1.0769
  510MOL0     H70334   1.725   7.697   1.370 -0.8051 -0.6814 -2.1228
  510MOL0     H70335   1.888   7.655   1.434  0.2180 -0.7352  0.1448
  510MOL0     H70336   1.900   7.821   1.183 -1.2297  1.3375 -0.3273
  510MOL0     H70337   1.788   7.870   1.322 -1.4175 -2.5084  0.6803
  510MOL0     H70338   2.136   7.654   1.404  1.8915  0.6004  1.5721
  510MOL0     H70339   2.351   7.499   1.266 -1.2004 -0.9324  1.4698
  510MOL0     H70340   2.341   7.542   1.423 -0.5971  0.4705  0.4731
  510MOL0     H70341   2.488   7.599   1.350  0.8252 -0.9999 -0.1943
  510MOL0     H70342   2.610   7.926   0.873  0.7137 -1.2117 -2.0158
  510MOL0     H70343   2.814   7.956   0.754  0.0974  0.5415  0.0172
  510MOL0     H70344   3.200   8.115   0.814  1.7348  0.6391  1.4930
  510MOL0     H70345   3.127   8.112   0.976 -1.3396 -0.7780  0.8485
  510MOL0     H70346   3.238   7.903   1.033  1.8277 -1.2718 -0.2805
  510MOL0     H70347   3.289   7.875   0.863  0.6669 -0.7105 -0.4762
  510MOL0     H70348   3.451   7.993   1.046  2.0319 -0.3776 -2.1961
  510MOL0     H70349   3.373   8.135   0.970  0.1142 -0.4456 -0.6287
  510MOL0     H70350   3.464   8.078   0.754  1.9771  2.3580  0.2589
  510MOL0     H70351   3.508   7.920   0.814  0.1168 -0.5014  1.8726
  510MOL0     H70352   3.607   8.166   0.965 -1.2472 -0.5029  0.1795
  510MOL0     H70353   3.697   8.019   0.906 -0.3968 -0.1844 -1.7534
  510MOL0     H70354   3.604   8.247   0.724  0.7415  1.2944  0.8784
  510MOL0     H70355   3.688   8.099   0.679 -1.3735  0.7820  0.1244
  510MOL0     H70356   3.890   8.159   0.760  2.0716  1.1171  2.6251
  510MOL0     H70357   3.822   8.288   0.868  0.8847  0.1778 -0.3096
  510MOL0     H70358   3.746   8.403   0.658 -0.9036 -0.2991  2.4134
  510MOL0     H70359   3.848   8.290   0.565 -1.1720  2.5828 -1.6676
  510MOL0     H70360   3.037   7.909   1.126  1.0719  0.1713 -1.2544
  510MOL0     H70361   2.830   7.866   1.240  2.2736  0.5987  0.0364
  510MOL0     H70362   2.325   8.018   1.136 -0.0773  0.1646  0.7136
  510MOL0     H70363   2.105   8.044   1.227 -0.6015 -0.2959 -0.4029
  510MOL0     H70364   1.776   6.434   2.305  0.1842  0.5461 -1.9655
  510MOL0     H70365   1.589   6.383   2.448  2.1002  0.5018  1.3074
  510MOL0     H70366   1.170   6.214   2.398  0.8890  0.0458  1.0192
  510MOL0     H70367   0.973   6.146   2.524 -2.1752  1.0792 -0.5273
  510MOL0     H70368   0.703   6.437   2.609 -1.1733 -0.4775 -0.1894
  510MOL0     H70369   0.633   6.283   2.644 -0.1342 -0.3470  1.6453
  510MOL0     H70370   0.770   6.465   2.849  0.9465 -0.3543 -0.0216
  510MOL0     H70371   0.696   6.315   2.886 -0.1264 -0.3371 -0.4446
  510MOL0     H70372   0.551   6.556   2.763 -0.7084  0.4540  0.5561
  510MOL0     H70373   0.474   6.395   2.791  0.6345  0.0423 -2.4432
  510MOL0     H70374   0.507   6.436   3.036 -1.5189 -0.0962 -1.3590
  510MOL0     H70375   0.409   6.563   2.964 -0.3538 -0.1564  3.7094
  510MOL0     H70376   0.689   6.818   3.086  1.9377 -0.8112 -0.8888
  510MOL0     H70377   0.909   6.542   2.669  0.4784 -0.0709  0.3855
  510MOL0     H70378   1.049   6.741   2.581  1.7580  0.3541  0.8053
  510MOL0     H70379   1.222   6.680   2.581  0.5476 -4.0930  1.9363
  510MOL0     H70380   1.132   6.713   2.436  2.7191 -0.3168  0.2438
  511MOL0     O70381   5.663   0.537   7.690  0.4531 -0.1517  0.7474
  511MOL0     C70382   5.622   0.525   7.800  0.1822  0.1174 -0.1376
  511MOL0     O70383   5.647   0.619   7.899 -0.5968  0.5009  0.0895
  511MOL0     C70384   5.702   0.738   7.859  0.4950  0.2749  0.1706
  511MOL0     C70385   5.616   0.845   7.838  0.4518  0.0446 -0.0975
  511MOL0     C70386   5.658   0.962   7.786  0.2542  0.6172  0.2333
  511MOL0     C70387   5.791   0.984   7.762  0.7309  0.5081 -0.7531
  511MOL0     O70388   5.812   1.104   7.706 -0.2648 -0.3613  0.7682
  511MOL0     C70389   5.949   1.150   7.706  0.1621  0.7642  0.5155
  511MOL0     C70390   5.949   1.302   7.685 -0.0469 -0.7687 -0.4950
  511MOL0     C70391   6.089   1.367   7.663 -0.0372  1.2867 -0.1658
  511MOL0     C70392   6.067   1.511   7.613 -0.5816 -0.2933 -0.3405
  511MOL0     C70393   6.199   1.545   7.547 -0.2952 -0.3078 -0.6735
  511MOL0     C70394   6.235   1.694   7.521 -0.0951 -0.0597 -0.7007
  511MOL0     C70395   6.149   1.796   7.436  0.0601 -0.4165 -0.1255
  511MOL0     C70396   6.174   1.764   7.291  0.3302 -1.2663  0.2972
  511MOL0     N70397   6.149   1.877   7.208 -0.0690 -0.5773  0.2877
  511MOL0     C70398   6.227   1.913   7.102  0.1780 -0.6155  0.1920
  511MOL0     C70399   6.179   2.020   7.051 -0.4849 -0.0150 -0.3981
  511MOL0     C70400   6.235   2.102   6.930 -0.5301  0.4767 -0.3958
  511MOL0     C70401   6.360   2.172   6.983  0.9890  0.2946 -0.0074
  511MOL0     C70402   6.400   2.281   6.887 -0.5185  0.2873 -0.0172
  511MOL0     C70403   6.488   2.223   6.770 -0.0329 -0.7172  0.5364
  511MOL0     O70404   6.548   2.312   6.684 -0.3489 -0.8815 -0.4723
  511MOL0     C70405   6.652   2.387   6.726  0.1444  0.1035 -0.3868
  511MOL0     C70406   6.703   2.484   6.638 -0.5153 -0.0130 -1.0407
  511MOL0     C70407   6.819   2.564   6.673  0.8230  0.1383  0.1586
  511MOL0     C70408   6.880   2.652   6.565 -0.6199 -0.8188  0.2757
  511MOL0     C70409   6.884   2.545   6.805  0.0023 -0.6248 -0.7236
  511MOL0     C70410   7.009   2.618   6.846  0.1738  0.2612  0.0284
  511MOL0     O70411   7.037   2.588   6.974 -0.5337  0.3756 -0.3861
  511MOL0     C70412   7.172   2.604   6.999 -0.3103  0.1115  0.0223
  511MOL0     C70413   7.247   2.489   6.999 -0.1774 -0.6309 -0.1229
  511MOL0     C70414   7.387   2.492   7.024  0.1040 -0.8496 -0.5960
  511MOL0     C70415   7.445   2.623   7.048 -0.1538 -0.7230  0.1595
  511MOL0     O70416   7.580   2.645   7.067 -0.2780 -0.1698  0.1156
  511MOL0     C70417   7.667   2.531   7.078 -0.5607 -1.1433 -1.1859
  511MOL0     C70418   7.794   2.580   7.143  0.3585  0.1083  0.4140
  511MOL0     C70419   7.907   2.468   7.134 -0.0191 -0.3751  0.1006
  511MOL0     C70420   8.022   2.496   7.233  0.0642 -0.8515 -0.3244
  511MOL0     C70421   8.154   2.440   7.185  0.6859  0.3199 -0.3571
  511MOL0     C70422   8.269   2.449   7.291 -0.2141 -0.3190  0.2314
  511MOL0     C70423   8.414   2.445   7.226 -0.3092  0.0789 -0.3843
  511MOL0     C70424   8.505   2.441   7.336  0.2182 -0.8257  0.1484
  511MOL0    Cl70425   8.499   2.284   7.425  0.0701  0.0033 -0.1607
  511MOL0     C70426   7.363   2.735   7.056 -0.0703 -0.6216  0.0752
  511MOL0     C70427   7.228   2.722   7.040  0.0007 -0.3685  0.5487
  511MOL0     O70428   7.055   2.709   6.776  0.2671 -0.0541 -0.8586
  511MOL0     C70429   6.829   2.446   6.890 -0.3856  0.0885 -0.1926
  511MOL0     C70430   6.719   2.370   6.842  0.1284  0.9957  0.3767
  511MOL0     N70431   6.065   2.052   7.120 -0.3115 -0.2404 -0.6780
  511MOL0     N70432   6.042   1.964   7.208 -0.0204 -0.0576 -0.1040
  511MOL0     C70433   5.883   0.877   7.794 -0.4584 -0.7024  0.1069
  511MOL0     C70434   5.842   0.757   7.843 -0.3036  0.4790 -0.1126
  511MOL0     C70435   5.551   0.404   7.837 -0.8485 -0.2978  0.2032
  511MOL0     C70436   5.564   0.369   7.973 -0.2426 -0.5113 -0.7499
  511MOL0     C70437   5.501   0.253   8.024  0.6649 -0.2176  0.0284
  511MOL0     C70438   5.422   0.173   7.945 -0.1652  0.0762 -0.3181
  511MOL0     O70439   5.382   0.055   7.999  0.0248  0.1206 -0.1490
  511MOL0     C70440   5.335  -0.050   7.917 -0.5107 -0.0631  0.0992
  511MOL0     C70441   5.180  -0.052   7.901 -0.1117  0.6853 -0.3376
  511MOL0     C70442   5.125  -0.170   7.985 -0.6371  0.2307  0.0296
  511MOL0     C70443   4.987  -0.196   7.937  0.3456  0.0865 -0.0451
  511MOL0     C70444   4.935  -0.329   7.970  0.1695  0.1355  0.0558
  511MOL0     C70445   4.888  -0.436   7.991 -0.1778  0.2598  1.4141
  511MOL0     C70446   5.403   0.216   7.809  0.3327 -0.1847 -0.2836
  511MOL0     C70447   5.470   0.324   7.755  0.5233 -0.0400  0.1462
  511MOL0     C70448   5.463   0.342   7.603  0.1687 -0.2572 -0.6972
  511MOL0     H70449   5.511   0.826   7.857  0.7514 -0.6309  0.9635
  511MOL0     H70450   5.585   1.042   7.777  2.2196  2.6006  1.0184
  511MOL0     H70451   5.993   1.096   7.621 -1.5914  1.1862 -0.6987
  511MOL0     H70452   6.003   1.128   7.799  0.4593  0.0451  0.1822
  511MOL0     H70453   5.867   1.315   7.613  0.2458 -1.7670 -1.0235
  511MOL0     H70454   5.920   1.347   7.780  1.1808 -0.2198 -0.3609
  511MOL0     H70455   6.151   1.372   7.753  1.4227  0.0640 -1.0573
  511MOL0     H70456   6.136   1.321   7.576  0.5540  0.9302  0.3348
  511MOL0     H70457   5.988   1.513   7.538 -0.0645 -0.9077 -0.9087
  511MOL0     H70458   6.038   1.580   7.693  0.3827  0.4268 -0.5917
  511MOL0     H70459   6.212   1.493   7.452 -3.1823  0.7004 -1.7347
  511MOL0     H70460   6.282   1.516   7.613  0.0318  2.4441  0.2512
  511MOL0     H70461   6.233   1.742   7.620 -1.4912  4.3916 -2.6440
  511MOL0     H70462   6.340   1.695   7.492 -0.0686 -0.7389 -0.6342
  511MOL0     H70463   6.183   1.900   7.442 -2.5976  0.5722 -0.7981
  511MOL0     H70464   6.045   1.798   7.470  0.6723  2.6822  2.0972
  511MOL0     H70465   6.276   1.729   7.275  2.0213  2.0439  2.6567
  511MOL0     H70466   6.096   1.693   7.262 -3.5569  1.9167  1.9407
  511MOL0     H70467   6.316   1.869   7.057  0.3277 -0.8848  0.7487
  511MOL0     H70468   6.157   2.176   6.910 -1.9721 -0.8585  0.1510
  511MOL0     H70469   6.268   2.036   6.850 -0.1403 -0.7793  0.7520
  511MOL0     H70470   6.329   2.212   7.080 -0.2425 -1.5938  0.4506
  511MOL0     H70471   6.443   2.102   6.997  0.3121 -0.1244  2.3477
  511MOL0     H70472   6.313   2.324   6.837 -0.3988  1.4322  0.7225
  511MOL0     H70473   6.451   2.353   6.952  2.3589 -2.5584  1.1469
  511MOL0     H70474   6.566   2.152   6.801 -1.2352 -2.6229 -0.6039
  511MOL0     H70475   6.426   2.153   6.713  1.2484 -2.1219  0.7780
  511MOL0     H70476   6.650   2.506   6.546 -4.7305  2.6750  1.7239
  511MOL0     H70477   6.872   2.757   6.592 -2.8082 -1.4020  2.2352
  511MOL0     H70478   6.827   2.634   6.470 -0.8062  0.1822  0.1777
  511MOL0     H70479   6.985   2.629   6.547 -0.9717 -2.4539  0.1232
  511MOL0     H70480   7.204   2.391   6.979 -0.4274 -0.0719 -2.5430
  511MOL0     H70481   7.448   2.402   7.031 -1.7234 -2.0120  1.5902
  511MOL0     H70482   7.628   2.457   7.148 -2.4403 -0.9922 -2.0080
  511MOL0     H70483   7.678   2.486   6.979 -1.5235  2.4184 -3.1052
  511MOL0     H70484   7.824   2.673   7.095  0.9300  0.1398  0.8214
  511MOL0     H70485   7.781   2.592   7.251  2.0378  0.5929  0.6060
  511MOL0     H70486   7.941   2.465   7.030 -0.0862  2.7543 -0.1182
  511MOL0     H70487   7.857   2.375   7.163 -0.0122 -0.1075  1.0042
  511MOL0     H70488   7.986   2.451   7.326  0.0030 -2.5727 -1.1511
  511MOL0     H70489   8.034   2.601   7.261  1.1395 -0.9205 -0.4849
  511MOL0     H70490   8.145   2.337   7.149  1.2632  0.6984 -1.6302
  511MOL0     H70491   8.172   2.497   7.093  1.5360 -1.6178 -1.4486
  511MOL0     H70492   8.266   2.366   7.362  0.9220 -0.9417 -0.4248
  511MOL0     H70493   8.271   2.544   7.345  2.8359 -0.0796 -0.1283
  511MOL0     H70494   8.440   2.529   7.160  0.1164 -0.2865 -0.6781
  511MOL0     H70495   8.414   2.352   7.169 -0.1330  0.7761 -1.5657
  511MOL0     H70496   8.496   2.528   7.401  0.1189  0.6745 -1.7857
  511MOL0     H70497   8.599   2.453   7.282  0.1704  0.1142  0.2721
  511MOL0     H70498   7.397   2.832   7.090 -0.9311  0.1702 -1.2435
  511MOL0     H70499   7.163   2.809   7.054  0.3788  0.1050 -0.5292
  511MOL0     H70500   6.871   2.418   6.986  2.8893  2.7234 -0.6596
  511MOL0     H70501   6.687   2.295   6.913 -0.0824  2.4859  1.9086
  511MOL0     H70502   5.988   0.900   7.778 -0.9124  1.9196  0.3536
  511MOL0     H70503   5.909   0.675   7.868  1.9799  2.1735 -0.4117
  511MOL0     H70504   5.622   0.435   8.037 -1.5293 -0.6550  0.6192
  511MOL0     H70505   5.508   0.233   8.131 -1.4009  2.3301  0.7464
  511MOL0     H70506   5.377  -0.046   7.816 -0.1377 -2.9126  0.0449
  511MOL0     H70507   5.377  -0.145   7.950  0.8959  0.8233  0.9789
  511MOL0     H70508   5.151  -0.065   7.796  2.3054 -2.2456 -0.7595
  511MOL0     H70509   5.143   0.044   7.939 -2.4982 -0.9384  1.8495
  511MOL0     H70510   5.185  -0.261   7.970  0.2609  1.1487 -2.4962
  511MOL0     H70511   5.118  -0.138   8.089  1.1920  2.1092 -0.3659
  511MOL0     H70512   4.984  -0.180   7.828 -1.4135  0.3773  0.0033
  511MOL0     H70513   4.911  -0.125   7.972 -0.1017 -0.2814 -0.2546
  511MOL0     H70514   4.848  -0.531   8.019  3.2079 -1.9529 -0.6767
  511MOL0     H70515   5.334   0.158   7.748 -1.0247  2.0735 -1.0062
  511MOL0     H70516   5.433   0.255   7.543  3.8985 -1.8986 -0.4728
  511MOL0     H70517   5.385   0.417   7.585 -1.3110 -1.3801  0.7662
  511MOL0     H70518   5.562   0.371   7.567  1.3764 -0.5803  2.1577
  512MOL0     O70519   5.656   5.938   3.242 -0.2929 -0.4913  0.3650
  512MOL0     C70520   5.577   5.960   3.333  0.1347  0.3002  0.5245
  512MOL0     O70521   5.615   5.985   3.464  0.2543  0.7303  0.0718
  512MOL0     C70522   5.746   5.970   3.491 -0.4487  0.2950 -0.0063
  512MOL0     C70523   5.788   5.833   3.511  0.4870 -0.4823  0.3546
  512MOL0     C70524   5.917   5.805   3.542 -0.0573 -0.0487 -0.6062
  512MOL0     C70525   6.009   5.914   3.565 -1.1672  0.9595 -0.5765
  512MOL0     O70526   6.139   5.894   3.605  0.4581 -1.3176  0.3433
  512MOL0     C70527   6.224   5.859   3.501  0.2765  0.6761  0.2023
  512MOL0     C70528   6.351   5.951   3.504  0.2281 -0.1138 -0.2245
  512MOL0     C70529   6.314   6.086   3.430 -0.5103 -0.5858  0.0933
  512MOL0     C70530   6.418   6.200   3.416  0.4074 -0.4706 -0.1442
  512MOL0     C70531   6.547   6.156   3.336 -0.0933 -0.2054 -0.0272
  512MOL0     C70532   6.516   6.095   3.202 -0.4767  0.2460  0.0139
  512MOL0     C70533   6.644   6.048   3.125 -0.2077 -0.4327 -0.5214
  512MOL0     C70534   6.711   6.172   3.050 -0.0732 -0.1816  0.6187
  512MOL0     N70535   6.667   6.199   2.911 -0.0136 -0.3125 -0.3878
  512MOL0     C70536   6.541   6.246   2.874  0.7007 -0.1392 -0.8399
  512MOL0     C70537   6.548   6.292   2.752  0.0743  0.4758  0.0362
  512MOL0     C70538   6.423   6.323   2.669 -0.8867 -0.0603  0.5624
  512MOL0     C70539   6.442   6.447   2.570 -0.3385  0.0411 -0.0995
  512MOL0     C70540   6.429   6.417   2.423  0.5887 -0.2574  0.0444
  512MOL0     C70541   6.551   6.363   2.364 -0.1640  1.1673  0.0680
  512MOL0     O70542   6.529   6.348   2.221  0.0676 -0.2456 -0.2950
  512MOL0     C70543   6.638   6.332   2.143 -0.2220 -0.1773 -0.4705
  512MOL0     C70544   6.659   6.429   2.043  0.4968 -0.0626  0.3295
  512MOL0     C70545   6.766   6.423   1.948  0.4033  0.0956  0.0487
  512MOL0     C70546   6.762   6.525   1.848  0.1595  0.5832  0.6509
  512MOL0     C70547   6.857   6.315   1.962 -0.1607  0.5018  0.8371
  512MOL0     C70548   6.966   6.291   1.865 -0.1095 -0.1915 -0.4267
  512MOL0     O70549   7.053   6.183   1.879 -0.9090 -0.4445  0.1676
  512MOL0     C70550   7.162   6.163   1.795 -0.6316 -0.0046 -0.0031
  512MOL0     C70551   7.284   6.120   1.850 -1.0409 -0.4706 -1.4865
  512MOL0     C70552   7.389   6.084   1.770 -0.0848 -0.5647 -0.2471
  512MOL0     C70553   7.381   6.101   1.630 -0.4275  0.5319 -0.1741
  512MOL0     O70554   7.474   6.058   1.543 -0.0508  0.4930  0.4902
  512MOL0     C70555   7.599   6.003   1.584  0.7080  0.8605 -0.1316
  512MOL0     C70556   7.694   6.000   1.467  0.3667 -0.3132  0.0977
  512MOL0     C70557   7.832   5.944   1.510  0.4742  0.9090  0.3723
  512MOL0     C70558   7.951   5.959   1.406 -0.1456 -0.4188  0.1007
  512MOL0     C70559   7.954   5.856   1.295  0.7174 -0.3140 -0.2973
  512MOL0     C70560   8.044   5.895   1.177  0.0061 -0.5559 -0.5064
  512MOL0     C70561   8.056   5.786   1.071  0.3404  0.6313  0.3322
  512MOL0     C70562   8.149   5.811   0.949 -0.5136  0.1752  0.0893
  512MOL0    Cl70563   8.136   5.975   0.890 -0.3197  0.1493  0.3279
  512MOL0     C70564   7.263   6.140   1.575  0.2845 -0.7054  0.1486
  512MOL0     C70565   7.145   6.161   1.646  0.1723  0.0495  0.3229
  512MOL0     O70566   6.981   6.370   1.773 -0.2278 -0.2368 -0.0766
  512MOL0     C70567   6.846   6.228   2.071 -0.3367 -0.2513  0.4909
  512MOL0     C70568   6.730   6.231   2.154  0.0066  0.0960 -0.1727
  512MOL0     N70569   6.680   6.267   2.719  0.1642 -0.4378  1.5836
  512MOL0     N70570   6.747   6.217   2.809  0.5008 -0.3862  0.3691
  512MOL0     C70571   5.970   6.041   3.542 -0.1931 -0.0033 -0.2971
  512MOL0     C70572   5.838   6.071   3.503  0.2126 -0.5795  0.4145
  512MOL0     C70573   5.436   5.953   3.305  0.8002 -0.7015 -0.3106
  512MOL0     C70574   5.348   5.998   3.409  0.0802 -0.0324  0.1792
  512MOL0     C70575   5.205   5.991   3.393 -0.5294 -0.2714 -0.0055
  512MOL0     C70576   5.154   5.939   3.277  0.7158  0.6389  0.3901
  512MOL0     O70577   5.020   5.936   3.245  1.0172  0.9005  0.3229
  512MOL0     C70578   4.923   5.988   3.338  0.4195  0.0956 -0.3891
  512MOL0     C70579   4.784   5.977   3.277  0.3566 -0.1448  0.3062
  512MOL0     C70580   4.742   6.113   3.230  0.9809 -0.1906  0.2390
  512MOL0     C70581   4.607   6.111   3.157  0.0849 -0.1193 -0.0148
  512MOL0     C70582   4.491   6.060   3.232  0.5339  0.3617  0.1076
  512MOL0     C70583   4.395   6.018   3.294 -0.3711  0.7648 -1.1244
  512MOL0     C70584   5.237   5.902   3.172 -0.2415  0.1421  0.7712
  512MOL0     C70585   5.370   5.897   3.189 -0.1802  0.3021  0.5841
  512MOL0     C70586   5.446   5.835   3.065 -0.9509 -0.0470 -0.2555
  512MOL0     H70587   5.714   5.755   3.501 -0.0994  0.0478  0.4441
  512MOL0     H70588   5.945   5.702   3.563 -2.3689 -0.2757  1.8840
  512MOL0     H70589   6.171   5.863   3.405 -0.4846  0.3422  0.5962
  512MOL0     H70590   6.262   5.757   3.509  1.2252  0.8752 -1.2496
  512MOL0     H70591   6.387   5.976   3.604  0.2725  0.0780 -0.2884
  512MOL0     H70592   6.436   5.910   3.448  1.4749  2.2361 -0.1506
  512MOL0     H70593   6.271   6.065   3.332 -2.8081  1.7353  0.5055
  512MOL0     H70594   6.242   6.142   3.491  0.3336  0.4944  0.1089
  512MOL0     H70595   6.366   6.288   3.376 -3.1372 -1.9648  0.8050
  512MOL0     H70596   6.474   6.218   3.508 -0.6185 -0.2327  0.4541
  512MOL0     H70597   6.609   6.084   3.391 -0.8878 -1.7920 -1.1200
  512MOL0     H70598   6.605   6.248   3.332  0.3588 -0.4932 -0.1450
  512MOL0     H70599   6.467   5.998   3.206 -0.4564  0.0991 -2.0502
  512MOL0     H70600   6.456   6.155   3.133  0.5692  0.8498 -0.3954
  512MOL0     H70601   6.625   5.968   3.053  3.4938 -2.4430  0.4799
  512MOL0     H70602   6.718   6.003   3.191  0.9114 -1.0153 -2.1114
  512MOL0     H70603   6.703   6.267   3.104 -2.8223  0.2231 -0.3721
  512MOL0     H70604   6.818   6.149   3.042  0.2941  1.8354 -1.2533
  512MOL0     H70605   6.454   6.259   2.937  1.3202 -1.3336  0.3235
  512MOL0     H70606   6.335   6.343   2.731 -0.6142  3.3496  0.0019
  512MOL0     H70607   6.413   6.234   2.606  0.7348  1.0925 -1.4222
  512MOL0     H70608   6.362   6.517   2.593  0.2098  0.0049  2.1074
  512MOL0     H70609   6.530   6.508   2.594 -0.2328 -0.1491  0.0031
  512MOL0     H70610   6.352   6.339   2.418  0.4148 -0.0452 -0.8121
  512MOL0     H70611   6.396   6.507   2.371 -0.0330  0.2004  1.1935
  512MOL0     H70612   6.642   6.417   2.394 -0.0471  1.5576 -0.9144
  512MOL0     H70613   6.561   6.265   2.410  1.5741  1.3337  0.1202
  512MOL0     H70614   6.591   6.514   2.045  2.2334  1.3829  2.9044
  512MOL0     H70615   6.858   6.578   1.848  0.5647 -0.1014 -0.6298
  512MOL0     H70616   6.681   6.592   1.874  1.1381  0.9988  2.8267
  512MOL0     H70617   6.747   6.476   1.751  0.3253  2.4639 -0.3776
  512MOL0     H70618   7.301   6.113   1.957  2.9965  1.5344 -1.7815
  512MOL0     H70619   7.477   6.038   1.813  0.5209  0.6528 -0.1155
  512MOL0     H70620   7.640   6.061   1.668 -0.3330 -0.6853  1.5284
  512MOL0     H70621   7.584   5.901   1.621 -2.4018  1.3334  0.1380
  512MOL0     H70622   7.644   5.939   1.391  0.5445 -4.2815  2.8775
  512MOL0     H70623   7.709   6.098   1.420 -0.4980 -1.6116 -3.1723
  512MOL0     H70624   7.831   5.834   1.517  0.1660  0.8629 -0.2866
  512MOL0     H70625   7.852   5.988   1.608  1.3131  0.3981  0.4438
  512MOL0     H70626   8.049   5.954   1.454  0.0102  0.1676 -0.1473
  512MOL0     H70627   7.943   6.060   1.367 -3.0349 -0.6696 -0.1415
  512MOL0     H70628   7.983   5.762   1.342  1.6527  1.1311  2.1769
  512MOL0     H70629   7.850   5.847   1.259  0.5927  1.4917 -0.4623
  512MOL0     H70630   8.141   5.920   1.220  0.6241  0.5862 -2.4164
  512MOL0     H70631   8.015   5.994   1.140  1.2334  0.5319  1.3286
  512MOL0     H70632   7.959   5.764   1.026  0.0975  0.9128  0.7122
  512MOL0     H70633   8.093   5.697   1.122 -0.6454 -0.3485 -0.6064
  512MOL0     H70634   8.128   5.730   0.879  1.3027 -1.2699  1.1233
  512MOL0     H70635   8.251   5.793   0.985 -0.1641  0.2176 -0.8461
  512MOL0     H70636   7.263   6.159   1.468 -2.1725  4.2200  0.7027
  512MOL0     H70637   7.052   6.187   1.597  1.5955  2.9635 -1.0831
  512MOL0     H70638   6.925   6.156   2.086  0.8292  0.8617 -0.1045
  512MOL0     H70639   6.720   6.151   2.226  1.6142 -0.3045 -0.3699
  512MOL0     H70640   6.044   6.112   3.578 -2.7487  2.9494 -0.3852
  512MOL0     H70641   5.799   6.172   3.505 -0.4938 -0.8330 -0.0578
  512MOL0     H70642   5.384   6.052   3.496  3.5786 -0.1976 -1.0186
  512MOL0     H70643   5.137   6.022   3.471 -2.0459 -1.8881 -0.6151
  512MOL0     H70644   4.923   5.925   3.427 -1.6133  0.2903 -0.1905
  512MOL0     H70645   4.939   6.090   3.373 -1.3026 -0.2897  1.7450
  512MOL0     H70646   4.716   5.937   3.352 -0.1393 -0.5204 -0.3296
  512MOL0     H70647   4.784   5.909   3.192  1.7855  1.3288 -0.9562
  512MOL0     H70648   4.732   6.180   3.316  0.3797 -0.9165  0.7428
  512MOL0     H70649   4.817   6.153   3.160  2.1589 -0.9214  1.0532
  512MOL0     H70650   4.607   6.081   3.052  0.2143 -0.7382  0.1598
  512MOL0     H70651   4.571   6.214   3.150 -1.1058 -0.3196  2.1741
  512MOL0     H70652   4.323   5.966   3.355  0.5033 -0.4422 -1.0783
  512MOL0     H70653   5.201   5.868   3.076  0.1814 -3.2331  1.6805
  512MOL0     H70654   5.498   5.748   3.107 -1.0588 -0.3184 -0.6789
  512MOL0     H70655   5.382   5.796   2.985 -0.9091  0.5656 -0.5903
  512MOL0     H70656   5.522   5.902   3.025 -0.1921 -1.3460 -1.0687
  513MOL0     O70657  11.188   6.723   6.149  0.3852  0.4667 -0.3838
  513MOL0     C70658  11.194   6.836   6.108 -0.0655  0.0382  0.4670
  513MOL0     O70659  11.298   6.888   6.036 -0.1225  0.2209  0.1970
  513MOL0     C70660  11.407   6.805   6.018 -0.3914  0.2912  0.6767
  513MOL0     C70661  11.417   6.714   5.899  0.5329 -0.1042  0.0688
  513MOL0     C70662  11.511   6.611   5.912 -0.2604 -0.7249  0.1575
  513MOL0     C70663  11.603   6.607   6.018 -0.1734 -0.1336  0.5754
  513MOL0     O70664  11.695   6.508   6.037  0.3117 -0.2537  0.4385
  513MOL0     C70665  11.798   6.490   5.943  0.1176  0.1900 -0.0115
  513MOL0     C70666  11.883   6.621   5.931  0.5599  0.5407  0.1240
  513MOL0     C70667  11.962   6.647   6.063  0.3595 -0.1343  1.0309
  513MOL0     C70668  12.104   6.582   6.069 -0.1872  0.0997 -0.3592
  513MOL0     C70669  12.211   6.683   6.010 -0.8120 -0.1704 -0.2340
  513MOL0     C70670  12.343   6.604   6.031  0.3020 -0.4623 -0.0207
  513MOL0     C70671  12.446   6.711   6.003 -0.1828 -0.1661  0.1093
  513MOL0     C70672  12.579   6.651   5.958  0.3289  0.0625 -0.9567
  513MOL0     N70673  12.646   6.591   6.071  0.1849 -0.4033  0.6677
  513MOL0     C70674  12.663   6.459   6.103  0.0834  0.6744 -0.4369
  513MOL0     C70675  12.744   6.453   6.209  0.3453 -0.1168  0.1685
  513MOL0     C70676  12.791   6.327   6.284 -0.0951 -0.7209  0.3374
  513MOL0     C70677  12.941   6.321   6.301  0.4461  0.0235 -0.4328
  513MOL0     C70678  12.993   6.185   6.342  0.8800 -0.0413  0.0487
  513MOL0     C70679  13.142   6.183   6.364 -0.2685  0.0105 -0.5252
  513MOL0     O70680  13.216   6.240   6.256 -0.4014 -0.4480  0.0353
  513MOL0     C70681  13.353   6.248   6.276 -0.4436  0.3154  0.2041
  513MOL0     C70682  13.436   6.167   6.356 -0.2823  0.2521  0.0395
  513MOL0     C70683  13.579   6.181   6.363 -0.8155 -0.1671  0.5892
  513MOL0     C70684  13.651   6.092   6.457  0.4524  0.8124 -0.7803
  513MOL0     C70685  13.643   6.271   6.272  0.4811 -0.0604 -0.7944
  513MOL0     C70686  13.785   6.293   6.253  0.9817  0.1978  0.2492
  513MOL0     O70687  13.812   6.332   6.130  0.1550 -0.0360  0.6847
  513MOL0     C70688  13.945   6.341   6.094  0.0733  0.0582  0.0381
  513MOL0     C70689  14.027   6.451   6.130 -1.0342  0.5055 -0.7454
  513MOL0     C70690  14.164   6.441   6.086  0.1584 -0.4096  0.2212
  513MOL0     C70691  14.209   6.321   6.021  0.4842  0.2614  0.6193
  513MOL0     O70692  14.326   6.308   5.955 -0.1093 -0.4722 -0.2633
  513MOL0     C70693  14.450   6.309   6.024  0.0533  0.0516  0.1702
  513MOL0     C70694  14.539   6.210   5.955 -0.1048 -0.5131  0.1075
  513MOL0     C70695  14.511   6.060   6.000 -0.2418  0.0797  0.2786
  513MOL0     C70696  14.583   5.970   5.896 -0.8323 -0.6454 -0.7496
  513MOL0     C70697  14.733   5.969   5.899  0.5020 -0.9411  0.6648
  513MOL0     C70698  14.780   5.846   5.828  0.1336 -0.0312 -0.6205
  513MOL0     C70699  14.938   5.843   5.832 -0.0487  0.2229 -0.5748
  513MOL0     C70700  14.985   5.699   5.778  0.0401 -0.9618  0.2670
  513MOL0    Cl70701  14.926   5.682   5.615 -0.0597 -0.3544  0.0450
  513MOL0     C70702  14.126   6.210   5.993 -0.0758  0.1202  0.5331
  513MOL0     C70703  13.992   6.223   6.029 -0.0572 -0.4459  0.4790
  513MOL0     O70704  13.865   6.286   6.344  0.5808  0.2690 -0.1682
  513MOL0     C70705  13.551   6.353   6.195 -0.2409  0.3051  0.1664
  513MOL0     C70706  13.416   6.347   6.198  0.2500 -0.6023 -0.3880
  513MOL0     N70707  12.770   6.582   6.244 -0.7433 -0.6527 -0.0643
  513MOL0     N70708  12.726   6.664   6.155  0.2423  0.1583 -0.1466
  513MOL0     C70709  11.606   6.700   6.123  0.2583  0.4383  0.4786
  513MOL0     C70710  11.501   6.794   6.121  0.2075  0.2422 -0.1966
  513MOL0     C70711  11.079   6.921   6.137 -0.5825 -0.5943 -0.4056
  513MOL0     C70712  11.072   7.034   6.045  0.7812  0.3235 -0.3609
  513MOL0     C70713  10.972   7.126   6.058  0.5060  0.2143  0.0388
  513MOL0     C70714  10.871   7.106   6.150 -0.2527 -0.1412 -0.7575
  513MOL0     O70715  10.753   7.170   6.163  0.6713 -0.5454  0.0050
  513MOL0     C70716  10.729   7.291   6.078 -0.4552  0.3387 -0.2270
  513MOL0     C70717  10.613   7.374   6.128 -0.3254 -0.4769 -0.5750
  513MOL0     C70718  10.636   7.425   6.268 -0.0896  0.1957  0.1137
  513MOL0     C70719  10.547   7.535   6.317 -0.2453  0.2039  0.2939
  513MOL0     C70720  10.550   7.653   6.227 -0.3935 -1.0938 -0.7347
  513MOL0     C70721  10.540   7.745   6.142  0.0491 -0.1072 -0.1087
  513MOL0     C70722  10.880   6.991   6.232  0.1034  0.0156 -0.5245
  513MOL0     C70723  10.983   6.907   6.240 -0.0365 -0.4463 -0.8910
  513MOL0     C70724  10.998   6.806   6.350 -0.3285 -0.8855  0.5608
  513MOL0     H70725  11.337   6.720   5.826  1.5469  1.5719 -0.9639
  513MOL0     H70726  11.505   6.528   5.843  1.1671  0.9327 -2.0846
  513MOL0     H70727  11.756   6.457   5.848  1.1175  0.7986 -0.6813
  513MOL0     H70728  11.864   6.408   5.975 -0.7294 -0.2345  0.7061
  513MOL0     H70729  11.947   6.599   5.845  0.8097 -1.4225  0.7793
  513MOL0     H70730  11.811   6.702   5.917  0.5219  0.3854 -0.6465
  513MOL0     H70731  11.974   6.755   6.077  0.1947 -0.2165  1.9064
  513MOL0     H70732  11.909   6.613   6.152 -1.9381  0.6787  0.0398
  513MOL0     H70733  12.120   6.562   6.176  1.3783  0.0464 -0.5814
  513MOL0     H70734  12.097   6.485   6.020 -0.8668 -1.0555  1.8884
  513MOL0     H70735  12.216   6.776   6.067  0.0273 -0.1860 -0.2707
  513MOL0     H70736  12.192   6.702   5.904 -2.3325  4.4999  0.5966
  513MOL0     H70737  12.356   6.558   6.130  3.1087 -1.7041 -0.8500
  513MOL0     H70738  12.352   6.523   5.958 -1.2052 -1.8285  1.2082
  513MOL0     H70739  12.458   6.762   6.099  0.4476 -1.2987  0.6569
  513MOL0     H70740  12.411   6.780   5.927 -0.0187  1.9792  1.8850
  513MOL0     H70741  12.563   6.562   5.897 -0.9511  0.1639 -0.7889
  513MOL0     H70742  12.635   6.732   5.911 -0.4087  1.3891  0.3578
  513MOL0     H70743  12.617   6.371   6.060 -1.4535  1.0733  0.3355
  513MOL0     H70744  12.762   6.241   6.223  0.8233  0.7313 -2.2696
  513MOL0     H70745  12.743   6.317   6.382 -3.2849  2.4267 -0.6992
  513MOL0     H70746  12.989   6.366   6.213  0.9680  0.2492 -0.0412
  513MOL0     H70747  12.974   6.390   6.379  1.2703 -1.3711  0.5025
  513MOL0     H70748  12.943   6.155   6.434  2.5054  0.5285  1.1637
  513MOL0     H70749  12.974   6.111   6.264 -1.0467  1.6388 -1.2063
  513MOL0     H70750  13.155   6.238   6.458 -2.8080 -1.2107  0.6593
  513MOL0     H70751  13.172   6.079   6.382  2.0652  0.4644 -1.5183
  513MOL0     H70752  13.392   6.095   6.424  0.7657 -1.1639 -0.7370
  513MOL0     H70753  13.760   6.095   6.451  0.6350 -1.7389 -0.0207
  513MOL0     H70754  13.632   5.986   6.437  1.8303  0.4392 -0.2849
  513MOL0     H70755  13.625   6.120   6.560 -2.2000  3.2997 -1.9948
  513MOL0     H70756  13.992   6.543   6.176  1.1773  1.6331 -1.1829
  513MOL0     H70757  14.236   6.522   6.080  0.0406 -0.2763  0.6173
  513MOL0     H70758  14.475   6.415   6.010 -1.8923  0.7479  1.5710
  513MOL0     H70759  14.440   6.298   6.132 -1.0001  0.1839  0.0925
  513MOL0     H70760  14.536   6.221   5.847 -2.7893 -1.3297  0.0269
  513MOL0     H70761  14.640   6.234   5.989 -0.6806  0.5508  1.1593
  513MOL0     H70762  14.407   6.035   5.975 -0.1523 -1.7941  1.6079
  513MOL0     H70763  14.536   6.043   6.105 -1.2534  0.5638  0.6142
  513MOL0     H70764  14.554   5.996   5.794  2.4754  1.1134 -1.3610
  513MOL0     H70765  14.543   5.869   5.909 -0.4173 -1.0547 -2.3572
  513MOL0     H70766  14.778   6.058   5.855 -0.3220 -1.4621 -1.3637
  513MOL0     H70767  14.760   5.968   6.005 -0.3755 -3.5472  0.9397
  513MOL0     H70768  14.761   5.850   5.720  1.0457 -2.2539 -0.8984
  513MOL0     H70769  14.730   5.761   5.874 -2.6348  2.1733  0.7835
  513MOL0     H70770  14.969   5.859   5.936  0.3359 -2.0246 -0.2780
  513MOL0     H70771  14.981   5.926   5.776 -0.0785 -1.2151 -2.8486
  513MOL0     H70772  14.944   5.623   5.846 -0.1536 -1.7047 -0.6655
  513MOL0     H70773  15.094   5.696   5.777  0.1309  0.1810 -2.7353
  513MOL0     H70774  14.159   6.119   5.944  0.0367  0.0533  0.7320
  513MOL0     H70775  13.929   6.138   6.004 -0.0425 -0.2738 -0.1574
  513MOL0     H70776  13.598   6.419   6.123 -1.1091 -0.6403 -1.3110
  513MOL0     H70777  13.353   6.410   6.135 -0.2455  0.8544  1.4931
  513MOL0     H70778  11.677   6.682   6.203 -0.5413 -2.0536  0.7235
  513MOL0     H70779  11.487   6.855   6.210 -0.2054 -0.0027 -0.0908
  513MOL0     H70780  11.148   7.040   5.968  1.7579 -1.5151  0.3880
  513MOL0     H70781  10.980   7.211   5.990  3.3712 -0.7423 -0.9967
  513MOL0     H70782  10.820   7.350   6.084  1.0756 -2.0511  2.3399
  513MOL0     H70783  10.715   7.260   5.974  0.5081  1.0753 -0.5919
  513MOL0     H70784  10.521   7.314   6.130  1.1848 -2.8698  1.1190
  513MOL0     H70785  10.606   7.459   6.059  2.0322 -0.7789 -1.2578
  513MOL0     H70786  10.610   7.334   6.324 -1.7438  0.6998  0.2428
  513MOL0     H70787  10.737   7.458   6.290 -0.1036  0.3885 -0.1038
  513MOL0     H70788  10.563   7.566   6.420 -2.7122 -0.6427  1.0068
  513MOL0     H70789  10.442   7.505   6.314 -0.8507  2.0662  1.0301
  513MOL0     H70790  10.539   7.826   6.071 -1.3788  0.5146  0.5832
  513MOL0     H70791  10.795   6.973   6.298  0.0931  0.8608 -0.2994
  513MOL0     H70792  11.102   6.801   6.383 -0.5814  0.3577  1.6596
  513MOL0     H70793  10.941   6.834   6.439 -0.3225 -1.1083  0.6357
  513MOL0     H70794  10.962   6.715   6.302  0.0264  0.3259 -2.1853
  514MOL0     O70795   7.771   3.979   6.281 -0.2263 -0.5618  0.3804
  514MOL0     C70796   7.811   3.934   6.173  0.1540 -0.1814  0.8470
  514MOL0     O70797   7.944   3.890   6.151  0.3765 -0.5956  0.1956
  514MOL0     C70798   8.033   3.911   6.245  0.0217  0.0108 -0.4163
  514MOL0     C70799   8.029   3.846   6.371  0.2048 -0.4004 -0.2027
  514MOL0     C70800   8.123   3.871   6.468  0.6084  0.3626 -0.4999
  514MOL0     C70801   8.225   3.967   6.446 -0.7039  0.4174  0.4299
  514MOL0     O70802   8.317   3.980   6.550 -0.2727 -0.6548  0.7728
  514MOL0     C70803   8.420   4.082   6.524 -0.0907 -0.3340  0.5766
  514MOL0     C70804   8.533   4.065   6.623 -0.2168 -0.2114 -0.4884
  514MOL0     C70805   8.604   3.934   6.639 -0.6438 -0.2911  0.0989
  514MOL0     C70806   8.711   3.934   6.756  0.0873 -0.8171 -0.2845
  514MOL0     C70807   8.806   3.813   6.764  0.4476 -0.4990 -0.5422
  514MOL0     C70808   8.938   3.859   6.835  0.2972 -0.0103 -0.1137
  514MOL0     C70809   8.928   3.876   6.987 -0.6195  0.1635  0.4532
  514MOL0     C70810   9.063   3.922   7.054 -0.0561  0.1015 -0.3578
  514MOL0     N70811   9.177   3.835   7.036 -0.2113 -0.2011 -0.9313
  514MOL0     C70812   9.254   3.786   7.147  0.1484 -0.2438 -0.4511
  514MOL0     C70813   9.357   3.723   7.093  0.2626 -0.9182 -0.2331
  514MOL0     C70814   9.470   3.673   7.177  0.4014  0.2240 -0.0403
  514MOL0     C70815   9.589   3.768   7.198 -0.4345  0.0966  0.1687
  514MOL0     C70816   9.683   3.691   7.283 -0.1011  0.2182  0.0683
  514MOL0     C70817   9.811   3.783   7.289  0.8668 -0.2123 -0.2152
  514MOL0     O70818   9.861   3.797   7.156  0.3497 -0.2440  0.2567
  514MOL0     C70819   9.971   3.878   7.135  0.0964  0.1181  0.0962
  514MOL0     C70820  10.047   3.952   7.240  0.7845  0.2320  0.2050
  514MOL0     C70821  10.144   4.049   7.206 -0.7125 -0.1739  0.5023
  514MOL0     C70822  10.200   4.144   7.310  0.0525 -0.0571  0.1598
  514MOL0     C70823  10.190   4.055   7.071  0.0019  0.6791  0.0035
  514MOL0     C70824  10.299   4.135   7.020 -0.1007 -0.2222  0.0067
  514MOL0     O70825  10.290   4.170   6.888  0.0224  1.0320 -1.2039
  514MOL0     C70826  10.393   4.231   6.830  0.3399  0.1705  0.9967
  514MOL0     C70827  10.463   4.340   6.881  0.0651 -0.0986 -0.4484
  514MOL0     C70828  10.581   4.382   6.818  0.3664 -1.0903  0.0400
  514MOL0     C70829  10.625   4.321   6.703 -0.0473 -0.2000  0.0475
  514MOL0     O70830  10.732   4.385   6.653 -0.1979  0.0598  0.4722
  514MOL0     C70831  10.811   4.322   6.549  0.5249 -0.3729  0.0400
  514MOL0     C70832  10.910   4.221   6.599  0.3105 -0.1107  0.4044
  514MOL0     C70833  11.011   4.187   6.493 -0.0255 -0.6228 -0.0388
  514MOL0     C70834  11.122   4.288   6.474  0.2798  0.5301 -0.9870
  514MOL0     C70835  11.234   4.245   6.375  0.6615  0.6441 -0.6952
  514MOL0     C70836  11.317   4.365   6.348 -0.3761 -0.0438 -0.6700
  514MOL0     C70837  11.420   4.325   6.239  0.0372  0.0079  0.3124
  514MOL0     C70838  11.508   4.442   6.194 -0.6134 -0.1233  0.4937
  514MOL0    Cl70839  11.574   4.374   6.037  0.0474 -0.6902  0.3871
  514MOL0     C70840  10.553   4.212   6.645 -0.2113  0.1503 -0.8574
  514MOL0     C70841  10.435   4.164   6.712 -0.0330 -0.0038 -0.7055
  514MOL0     O70842  10.389   4.166   7.101  0.1603 -0.2743  0.0812
  514MOL0     C70843  10.118   3.971   6.971  0.0536 -0.8571 -0.0459
  514MOL0     C70844  10.007   3.891   7.004 -0.0606  0.1556  0.3212
  514MOL0     N70845   9.342   3.725   6.955 -0.6148  0.1598  0.1657
  514MOL0     N70846   9.238   3.800   6.925 -0.1105 -0.1715  0.4224
  514MOL0     C70847   8.233   4.029   6.320  0.0436 -0.7628 -0.0817
  514MOL0     C70848   8.134   4.007   6.222  0.7031 -0.5170  0.3378
  514MOL0     C70849   7.712   3.919   6.057  0.3881 -0.0586  0.1262
  514MOL0     C70850   7.767   3.845   5.946  0.0397  0.7203 -0.1479
  514MOL0     C70851   7.692   3.816   5.832  0.2093 -0.2316  0.3472
  514MOL0     C70852   7.561   3.858   5.824  0.7173  0.9534 -0.0532
  514MOL0     O70853   7.471   3.810   5.722  0.5674 -0.0404 -0.0618
  514MOL0     C70854   7.499   3.882   5.601  0.3263  0.3075 -0.2453
  514MOL0     C70855   7.396   4.004   5.596 -0.1323  0.1289  0.4100
  514MOL0     C70856   7.257   3.945   5.547 -0.9354 -0.3638  0.0428
  514MOL0     C70857   7.158   4.060   5.532  0.3888 -0.3666 -0.3686
  514MOL0     C70858   7.130   4.118   5.670 -0.2579 -0.6172  0.2238
  514MOL0     C70859   7.112   4.164   5.777 -0.3825 -0.7042 -0.3218
  514MOL0     C70860   7.501   3.917   5.943 -0.4384 -0.1210  0.2365
  514MOL0     C70861   7.572   3.947   6.057 -0.3087  0.6511 -0.2520
  514MOL0     C70862   7.494   4.015   6.172  0.8089  0.0536  0.6491
  514MOL0     H70863   7.951   3.777   6.401 -0.7020  0.8987  0.5759
  514MOL0     H70864   8.119   3.829   6.568  0.6686  1.2410 -0.1139
  514MOL0     H70865   8.369   4.178   6.531 -1.2836 -0.6652 -2.1604
  514MOL0     H70866   8.465   4.078   6.424 -0.3148 -0.9322  0.4935
  514MOL0     H70867   8.615   4.133   6.601  1.6191 -2.5367 -1.3071
  514MOL0     H70868   8.489   4.082   6.722 -0.2628 -3.1607  0.0939
  514MOL0     H70869   8.530   3.854   6.645 -1.0904 -0.1634 -2.4913
  514MOL0     H70870   8.655   3.897   6.550 -0.5295  1.5010 -0.6229
  514MOL0     H70871   8.770   4.026   6.745 -2.2698  0.6885 -1.2638
  514MOL0     H70872   8.658   3.951   6.850 -1.6665  0.9720 -1.5050
  514MOL0     H70873   8.818   3.767   6.666  0.5057 -2.6164  0.3978
  514MOL0     H70874   8.753   3.738   6.823  1.1867  0.4302  1.4148
  514MOL0     H70875   9.007   3.776   6.820 -0.2499 -0.3487 -0.8280
  514MOL0     H70876   8.980   3.955   6.805 -0.6985  1.1445  1.9257
  514MOL0     H70877   8.889   3.784   7.031  1.1717 -0.7514  0.2273
  514MOL0     H70878   8.854   3.955   7.006 -0.1047  0.6083  0.6630
  514MOL0     H70879   9.099   4.012   7.002  0.6441 -0.2867 -0.5576
  514MOL0     H70880   9.040   3.933   7.160 -0.7261 -2.1242 -0.2296
  514MOL0     H70881   9.239   3.797   7.254 -1.1769  0.2120 -0.6663
  514MOL0     H70882   9.497   3.576   7.134 -3.4120 -1.2407  0.5112
  514MOL0     H70883   9.438   3.653   7.280  1.1198 -0.6036  0.0407
  514MOL0     H70884   9.628   3.798   7.100  0.5799  3.0516  1.3768
  514MOL0     H70885   9.551   3.856   7.249  0.9396 -0.0212  1.4821
  514MOL0     H70886   9.651   3.665   7.384  1.1427 -2.0677 -0.0457
  514MOL0     H70887   9.701   3.591   7.241  2.2687 -0.4555  2.4122
  514MOL0     H70888   9.803   3.880   7.338 -0.8816 -0.3292 -0.2001
  514MOL0     H70889   9.884   3.725   7.346 -2.2165 -3.6493  0.5916
  514MOL0     H70890  10.025   3.945   7.347 -0.5443 -0.5313 -0.0917
  514MOL0     H70891  10.214   4.240   7.260  0.5857  0.0754  0.5492
  514MOL0     H70892  10.297   4.107   7.345  0.4334 -0.7128 -1.5088
  514MOL0     H70893  10.129   4.153   7.393 -0.9723 -1.1300 -0.5639
  514MOL0     H70894  10.427   4.379   6.975 -0.1297 -1.7082  0.1621
  514MOL0     H70895  10.636   4.466   6.860  0.2985 -0.7776 -0.4845
  514MOL0     H70896  10.751   4.280   6.467  0.6476  0.4324 -0.4695
  514MOL0     H70897  10.868   4.400   6.498 -0.4425  1.7169  1.9796
  514MOL0     H70898  10.966   4.269   6.680  0.5158  1.3253 -0.5653
  514MOL0     H70899  10.855   4.130   6.627 -0.9454  0.4092 -0.3123
  514MOL0     H70900  10.968   4.177   6.393 -0.3335 -3.8927  0.3118
  514MOL0     H70901  11.061   4.093   6.516 -0.1672 -0.9926 -1.1972
  514MOL0     H70902  11.170   4.303   6.572  1.1051  0.6249 -1.3947
  514MOL0     H70903  11.075   4.381   6.440 -1.2546  1.1053  2.3127
  514MOL0     H70904  11.293   4.163   6.415 -0.4676 -0.5582 -1.4327
  514MOL0     H70905  11.196   4.198   6.284 -0.8042 -2.4628  1.3558
  514MOL0     H70906  11.373   4.401   6.435  1.6073 -1.5192 -1.2643
  514MOL0     H70907  11.251   4.441   6.306  0.7046 -0.5263 -3.4280
  514MOL0     H70908  11.358   4.280   6.161 -0.5947  2.2781 -0.6010
  514MOL0     H70909  11.484   4.253   6.289  0.3379  0.3837  0.4732
  514MOL0     H70910  11.583   4.465   6.270 -1.3132 -0.3869  1.2817
  514MOL0     H70911  11.447   4.530   6.176  0.1565  0.0831 -1.3313
  514MOL0     H70912  10.575   4.159   6.553 -0.3574 -3.0420  0.8227
  514MOL0     H70913  10.383   4.082   6.664 -0.0458 -1.2163  1.2723
  514MOL0     H70914  10.154   3.970   6.869  1.3962  1.7480  0.3164
  514MOL0     H70915   9.966   3.822   6.931 -2.5404  0.6890  1.0976
  514MOL0     H70916   8.309   4.102   6.293  0.3629 -1.0105  0.1444
  514MOL0     H70917   8.151   4.048   6.123  1.5752  0.6301  0.9303
  514MOL0     H70918   7.870   3.811   5.939 -0.0485  0.4547 -0.1496
  514MOL0     H70919   7.734   3.747   5.761 -0.9023  1.9534 -2.6501
  514MOL0     H70920   7.600   3.924   5.593  0.6656 -0.6025 -0.9013
  514MOL0     H70921   7.480   3.812   5.520 -1.4893 -1.3090  1.4779
  514MOL0     H70922   7.432   4.079   5.524 -1.1908  0.0686 -0.1976
  514MOL0     H70923   7.384   4.052   5.693 -1.1752 -0.7923  0.7583
  514MOL0     H70924   7.274   3.899   5.450 -2.3276  0.6149 -0.6967
  514MOL0     H70925   7.224   3.868   5.618  0.4493 -1.3082 -0.2920
  514MOL0     H70926   7.071   4.016   5.483  0.8778  0.1148 -1.7125
  514MOL0     H70927   7.190   4.140   5.464 -0.7958 -0.7781 -1.4277
  514MOL0     H70928   7.072   4.204   5.868  1.6987  1.3121 -0.1913
  514MOL0     H70929   7.396   3.945   5.932 -0.6758 -0.8845  0.5401
  514MOL0     H70930   7.481   3.954   6.261 -1.9640 -1.2640 -0.5353
  514MOL0     H70931   7.543   4.103   6.215 -2.8811  0.2742  5.1376
  514MOL0     H70932   7.396   4.044   6.131 -0.0833 -0.8823  2.0487
  515MOL0     O70933   0.452   0.985   6.404 -0.4935 -0.6259  0.0439
  515MOL0     C70934   0.403   1.009   6.512  0.6704  0.2704  0.0468
  515MOL0     O70935   0.467   1.023   6.631 -0.1453 -0.2622 -0.6303
  515MOL0     C70936   0.587   1.094   6.643 -0.3325 -0.5673  0.5267
  515MOL0     C70937   0.654   1.081   6.761  0.3444 -0.2008  0.5043
  515MOL0     C70938   0.757   1.166   6.797 -0.3107  0.3912  0.8142
  515MOL0     C70939   0.809   1.263   6.708  0.5234  0.7557  0.4347
  515MOL0     O70940   0.903   1.354   6.744 -0.3253 -0.4969  0.8050
  515MOL0     C70941   0.972   1.332   6.867  0.3754 -0.1621 -0.3613
  515MOL0     C70942   1.104   1.409   6.869 -1.0657  0.4167 -0.1976
  515MOL0     C70943   1.233   1.364   6.799  0.4387 -0.5077 -0.1771
  515MOL0     C70944   1.305   1.474   6.735 -0.6036  0.2868  0.2269
  515MOL0     C70945   1.389   1.422   6.613 -0.7990  0.1523 -0.8125
  515MOL0     C70946   1.529   1.492   6.598 -0.6910  0.1091  0.6428
  515MOL0     C70947   1.630   1.447   6.491  0.1357 -0.0358  0.6554
  515MOL0     C70948   1.675   1.307   6.522 -0.7874  0.2968 -0.0843
  515MOL0     N70949   1.774   1.250   6.426  0.5342 -0.6725  0.1349
  515MOL0     C70950   1.769   1.261   6.281  0.2460  0.4425  0.3367
  515MOL0     C70951   1.889   1.205   6.238  0.2272  0.5411 -0.0456
  515MOL0     C70952   1.943   1.184   6.098 -0.3456 -0.1776 -0.5378
  515MOL0     C70953   1.954   1.322   6.027  1.0300 -0.1630 -0.2942
  515MOL0     C70954   2.037   1.307   5.897  0.1788 -0.8478  0.3289
  515MOL0     C70955   2.184   1.312   5.928 -0.1867  0.2539 -0.4129
  515MOL0     O70956   2.262   1.312   5.803 -0.2584  0.1036  0.3864
  515MOL0     C70957   2.403   1.299   5.813  1.1499 -0.3717  0.3953
  515MOL0     C70958   2.480   1.267   5.926  0.5786  1.5215  0.2395
  515MOL0     C70959   2.610   1.256   5.931  0.0680 -0.4450  0.2000
  515MOL0     C70960   2.671   1.229   6.066 -0.2257 -0.3232  0.4414
  515MOL0     C70961   2.685   1.281   5.813 -0.1970  0.7930 -0.7060
  515MOL0     C70962   2.832   1.253   5.810 -0.0827  0.3047 -0.5701
  515MOL0     O70963   2.889   1.271   5.686 -0.3728  0.6329  0.2854
  515MOL0     C70964   3.031   1.265   5.680 -0.5859 -0.7185 -0.5871
  515MOL0     C70965   3.107   1.375   5.649  0.1086  0.0961  0.1304
  515MOL0     C70966   3.252   1.358   5.639  0.3104 -0.4468  0.3146
  515MOL0     C70967   3.312   1.241   5.668  0.9531  0.2361  0.5404
  515MOL0     O70968   3.448   1.246   5.650  0.6332 -0.1026  0.4501
  515MOL0     C70969   3.531   1.134   5.696  0.0815 -0.1591 -0.4539
  515MOL0     C70970   3.674   1.163   5.655 -0.6335  0.0134  0.2779
  515MOL0     C70971   3.774   1.040   5.677 -0.0098 -0.1064 -0.5102
  515MOL0     C70972   3.917   1.068   5.671 -0.4181 -0.8197  0.3927
  515MOL0     C70973   3.971   1.135   5.802 -0.7761 -0.7256 -0.3243
  515MOL0     C70974   4.117   1.191   5.796 -0.1385 -0.6099  0.5116
  515MOL0     C70975   4.164   1.251   5.930  0.2577  0.6645  0.3781
  515MOL0     C70976   4.318   1.277   5.937 -0.9262 -0.7739  0.5050
  515MOL0    Cl70977   4.349   1.363   6.095  0.5821  0.2205 -0.1451
  515MOL0     C70978   3.234   1.132   5.709 -0.4390 -0.8931 -0.6161
  515MOL0     C70979   3.101   1.144   5.713 -0.3324  0.7916  0.0418
  515MOL0     O70980   2.900   1.223   5.906 -0.6302 -0.0802 -1.0808
  515MOL0     C70981   2.616   1.327   5.698 -0.0724  0.2120 -0.4058
  515MOL0     C70982   2.473   1.322   5.695 -1.4265  0.0778 -0.6363
  515MOL0     N70983   1.957   1.169   6.356  0.4632 -0.1898  0.2646
  515MOL0     N70984   1.891   1.200   6.462  0.3107 -0.2494 -0.3101
  515MOL0     C70985   0.753   1.261   6.577 -0.3478  0.2260 -0.1613
  515MOL0     C70986   0.634   1.197   6.556 -0.3281  0.2796 -0.5521
  515MOL0     C70987   0.250   1.002   6.518 -0.0122 -0.0264  0.8743
  515MOL0     C70988   0.185   0.959   6.401 -0.9037 -0.8334  0.8048
  515MOL0     C70989   0.051   0.954   6.395 -0.0431  0.2217 -1.0243
  515MOL0     C70990  -0.028   1.005   6.498  0.2132  0.7373 -0.6997
  515MOL0     O70991  -0.159   1.013   6.462 -0.1613 -0.4661 -0.1280
  515MOL0     C70992  -0.249   1.074   6.556  0.5461  0.2031  0.4262
  515MOL0     C70993  -0.375   1.118   6.475 -0.3957 -0.8087  0.1266
  515MOL0     C70994  -0.476   1.187   6.571  0.0561  0.2495  0.3830
  515MOL0     C70995  -0.564   1.095   6.648 -0.0802 -0.0619 -0.1980
  515MOL0     C70996  -0.633   1.003   6.562  0.0523 -0.2846  0.7856
  515MOL0     C70997  -0.683   0.915   6.500  0.6928 -0.5396  0.0697
  515MOL0     C70998   0.031   1.058   6.617 -0.3893  0.4223 -0.7961
  515MOL0     C70999   0.170   1.055   6.627  0.4318  0.7034  0.2849
  515MOL0     C71000   0.231   1.107   6.754  0.9317  0.2199 -0.3162
  515MOL0     H71001   0.624   1.018   6.844  3.0239  1.1187  2.6511
  515MOL0     H71002   0.805   1.147   6.893  1.9734 -1.3518 -0.5598
  515MOL0     H71003   0.997   1.227   6.883 -2.7945 -0.8978  0.4664
  515MOL0     H71004   0.907   1.370   6.947 -1.6543 -1.7964 -1.1320
  515MOL0     H71005   1.082   1.511   6.838  1.4010  0.5785 -1.6977
  515MOL0     H71006   1.129   1.412   6.976  2.0413 -1.6302 -0.7222
  515MOL0     H71007   1.290   1.325   6.884  0.0575  0.7847  0.6923
  515MOL0     H71008   1.214   1.285   6.726 -3.0259  0.2983 -0.3086
  515MOL0     H71009   1.234   1.545   6.692  1.6535 -0.0609 -4.7082
  515MOL0     H71010   1.371   1.517   6.811  1.8453 -0.0491 -1.5984
  515MOL0     H71011   1.333   1.428   6.519  1.0622 -0.4818 -2.0313
  515MOL0     H71012   1.418   1.318   6.627  0.6705  0.7214  0.7813
  515MOL0     H71013   1.505   1.587   6.550 -1.8029 -2.2573 -4.1392
  515MOL0     H71014   1.583   1.513   6.691  1.1179 -2.5983  0.3214
  515MOL0     H71015   1.720   1.507   6.485  0.7313 -0.9755 -0.2242
  515MOL0     H71016   1.584   1.458   6.392  0.4706  0.5715  0.5660
  515MOL0     H71017   1.708   1.300   6.626  2.1048 -2.8337 -1.0389
  515MOL0     H71018   1.589   1.241   6.510 -1.9151  1.1001  2.6995
  515MOL0     H71019   1.694   1.289   6.208 -0.2137 -0.0688  0.6134
  515MOL0     H71020   1.886   1.117   6.033 -1.7648  0.8065 -0.3452
  515MOL0     H71021   2.044   1.144   6.109  0.5308  2.1554  0.4496
  515MOL0     H71022   1.852   1.352   6.002  0.9111  0.1392  0.5241
  515MOL0     H71023   1.992   1.395   6.099 -0.0421 -1.6881  1.9344
  515MOL0     H71024   2.013   1.217   5.840 -2.4123  1.2468 -2.1947
  515MOL0     H71025   2.008   1.400   5.847 -0.9055 -0.1187  2.2031
  515MOL0     H71026   2.210   1.407   5.978  2.6217 -0.6567  0.0727
  515MOL0     H71027   2.223   1.234   5.994  0.4289  0.4999 -0.4722
  515MOL0     H71028   2.423   1.251   6.017 -0.4225  2.0891 -0.2662
  515MOL0     H71029   2.715   1.326   6.089 -1.4887  0.4336 -0.2129
  515MOL0     H71030   2.745   1.149   6.054  0.4992  0.4773 -0.7048
  515MOL0     H71031   2.599   1.205   6.144 -1.6001  1.5028 -0.2078
  515MOL0     H71032   3.062   1.470   5.622 -0.3711 -0.4728 -1.1295
  515MOL0     H71033   3.298   1.452   5.609 -0.3231 -0.2072  0.0626
  515MOL0     H71034   3.523   1.122   5.805 -1.4474  0.4908 -0.4753
  515MOL0     H71035   3.493   1.050   5.638 -2.1831 -0.1833  0.9438
  515MOL0     H71036   3.668   1.196   5.551 -0.8531 -0.0146  0.2810
  515MOL0     H71037   3.708   1.251   5.709  0.2749 -0.4203  0.4357
  515MOL0     H71038   3.756   0.957   5.608  1.3368 -1.3020  0.5063
  515MOL0     H71039   3.746   1.010   5.778 -0.7300  2.0809  0.0068
  515MOL0     H71040   3.931   1.133   5.584 -4.1985  1.2732  1.0996
  515MOL0     H71041   3.976   0.979   5.651  3.4852  1.5374  0.5145
  515MOL0     H71042   3.915   1.228   5.814 -2.9542 -1.7195 -1.8880
  515MOL0     H71043   3.959   1.066   5.886 -0.8651  1.7799  1.8444
  515MOL0     H71044   4.141   1.262   5.717 -1.6807  0.2686  0.7912
  515MOL0     H71045   4.187   1.108   5.781  1.0117 -0.5739  4.5116
  515MOL0     H71046   4.131   1.181   6.009 -1.8077 -0.2098 -1.1631
  515MOL0     H71047   4.107   1.344   5.938 -1.9113 -0.6051  0.7844
  515MOL0     H71048   4.355   1.341   5.857  0.4028 -0.8080  1.0675
  515MOL0     H71049   4.372   1.182   5.929 -0.5442 -0.5088 -0.1385
  515MOL0     H71050   3.285   1.040   5.732  0.5883  0.2673  2.1878
  515MOL0     H71051   3.034   1.062   5.736 -1.0908  1.7667  1.4874
  515MOL0     H71052   2.667   1.345   5.604 -0.4901 -1.5019 -1.0007
  515MOL0     H71053   2.408   1.345   5.611 -0.9145 -2.8034 -1.9617
  515MOL0     H71054   0.788   1.322   6.495 -2.9659 -2.3317 -3.4409
  515MOL0     H71055   0.587   1.207   6.458  0.5699  2.0046 -0.8450
  515MOL0     H71056   0.237   0.926   6.312 -0.9712  0.1931  0.3688
  515MOL0     H71057   0.012   0.912   6.303  3.2319  0.8011 -2.8069
  515MOL0     H71058  -0.286   1.002   6.630 -2.9090  2.8153  1.4560
  515MOL0     H71059  -0.211   1.151   6.624 -1.5187 -1.0271  3.1899
  515MOL0     H71060  -0.413   1.039   6.410  1.5764 -0.7536 -1.1513
  515MOL0     H71061  -0.331   1.193   6.410 -0.6378  1.2077  2.1636
  515MOL0     H71062  -0.427   1.252   6.643 -1.4218  1.6525  0.1858
  515MOL0     H71063  -0.553   1.243   6.517 -0.1748  0.0987  0.5528
  515MOL0     H71064  -0.630   1.150   6.716  1.0779  0.2342  0.7230
  515MOL0     H71065  -0.490   1.041   6.708 -0.9831 -0.5916  0.4529
  515MOL0     H71066  -0.728   0.834   6.447 -5.2844  1.7388  0.9158
  515MOL0     H71067  -0.022   1.094   6.705  0.4492 -0.9928  0.3250
  515MOL0     H71068   0.154   1.164   6.808  0.6324  0.5755 -1.0956
  515MOL0     H71069   0.278   1.038   6.825  1.9896 -0.0206 -1.2244
  515MOL0     H71070   0.305   1.185   6.735  2.7492 -1.4687 -0.4575
  516MOL0     O71071  11.226   1.309   2.965 -0.1514 -0.2352  0.0417
  516MOL0     C71072  11.143   1.223   2.994  0.3304  0.4091 -1.6529
  516MOL0     O71073  11.168   1.085   3.023  0.5414 -0.8317 -0.1660
  516MOL0     C71074  11.296   1.043   2.997 -0.0972  0.4890  0.0127
  516MOL0     C71075  11.315   0.972   2.879  0.3016 -0.5476 -0.7054
  516MOL0     C71076  11.442   0.935   2.833  0.4554  0.3278  0.1517
  516MOL0     C71077  11.557   0.976   2.905 -0.2569  0.0116 -0.5354
  516MOL0     O71078  11.682   0.938   2.862 -0.6702 -0.5302  0.2053
  516MOL0     C71079  11.800   0.973   2.943  0.4843 -0.1250 -0.1542
  516MOL0     C71080  11.915   0.886   2.898  0.9337  0.0447 -0.8874
  516MOL0     C71081  12.036   0.886   2.987  0.4819 -0.4599 -0.1494
  516MOL0     C71082  12.148   0.794   2.949  0.3428  0.1822  0.6274
  516MOL0     C71083  12.276   0.794   3.034 -0.1544 -1.0167  0.3499
  516MOL0     C71084  12.333   0.930   3.069 -0.1523  0.3666 -0.1412
  516MOL0     C71085  12.457   0.921   3.154  0.2965  0.5664  0.8802
  516MOL0     C71086  12.477   1.058   3.232 -0.5737  1.4149 -0.5949
  516MOL0     N71087  12.492   1.174   3.144 -0.0861 -0.3217  0.4191
  516MOL0     C71088  12.569   1.180   3.033 -0.1530  0.4866  0.9933
  516MOL0     C71089  12.553   1.311   2.987 -0.5280  1.1088 -0.0468
  516MOL0     C71090  12.617   1.363   2.862  0.1251  0.4014 -1.2101
  516MOL0     C71091  12.737   1.453   2.909  0.7456  0.8269  0.3049
  516MOL0     C71092  12.862   1.365   2.940 -0.0073  0.2245  0.0334
  516MOL0     C71093  12.985   1.436   2.998 -0.0255 -1.2432  0.1186
  516MOL0     O71094  13.066   1.339   3.065  0.6523 -0.0961  0.0643
  516MOL0     C71095  13.192   1.377   3.102 -0.6038  0.2886  0.3768
  516MOL0     C71096  13.275   1.272   3.151 -0.1259 -0.5687 -0.1532
  516MOL0     C71097  13.411   1.296   3.196 -0.7784  0.4664  0.8142
  516MOL0     C71098  13.495   1.179   3.229  0.1182  0.3275 -0.0422
  516MOL0     C71099  13.467   1.427   3.170  0.0823 -0.3100 -0.5999
  516MOL0     C71100  13.613   1.460   3.185 -0.1072 -0.1278 -0.3475
  516MOL0     O71101  13.687   1.413   3.295 -0.6282  0.1469  0.2527
  516MOL0     C71102  13.824   1.412   3.287 -0.0467  0.1408  0.5745
  516MOL0     C71103  13.890   1.519   3.325  0.2726  0.2595  0.8469
  516MOL0     C71104  14.033   1.517   3.353  0.2173  0.2458 -0.2721
  516MOL0     C71105  14.106   1.399   3.319  0.3312  0.1245  0.6480
  516MOL0     O71106  14.235   1.403   3.347 -0.5858 -0.8276 -0.0605
  516MOL0     C71107  14.309   1.281   3.363 -0.0106  0.1921 -0.1702
  516MOL0     C71108  14.418   1.297   3.467 -0.0620 -0.0829  0.0793
  516MOL0     C71109  14.470   1.156   3.512 -0.8896 -0.7324 -0.3561
  516MOL0     C71110  14.537   1.081   3.390  0.3751  0.4726 -0.1913
  516MOL0     C71111  14.609   0.954   3.430  0.4316 -0.3919 -0.6540
  516MOL0     C71112  14.732   0.978   3.518  1.2995 -0.1443 -1.2703
  516MOL0     C71113  14.811   0.845   3.514 -0.5351 -0.1923 -0.6122
  516MOL0     C71114  14.949   0.864   3.567  0.0087 -0.0211  0.1730
  516MOL0    Cl71115  15.041   0.711   3.590  0.5913  0.2320  0.0461
  516MOL0     C71116  14.032   1.287   3.278 -0.4079  0.2744  0.0159
  516MOL0     C71117  13.896   1.293   3.270 -0.5231 -0.1570 -0.1817
  516MOL0     O71118  13.658   1.529   3.091 -0.7111  0.8996 -0.2334
  516MOL0     C71119  13.376   1.523   3.121  0.0117 -0.2693  0.0928
  516MOL0     C71120  13.246   1.503   3.092  0.3592 -0.4304 -0.6304
  516MOL0     N71121  12.457   1.370   3.058  0.2200 -0.6168 -0.7300
  516MOL0     N71122  12.420   1.296   3.153 -0.1965  0.5668  0.5237
  516MOL0     C71123  11.538   1.055   3.018  0.0259  0.4472 -0.7759
  516MOL0     C71124  11.413   1.088   3.063  0.1760 -0.7451 -0.1506
  516MOL0     C71125  11.002   1.266   3.006  0.9398 -0.8874 -0.2772
  516MOL0     C71126  10.909   1.182   2.954  0.5740  0.1256  0.5166
  516MOL0     C71127  10.772   1.217   2.938 -0.0457 -0.3121 -0.1212
  516MOL0     C71128  10.723   1.337   3.001 -0.5700  0.6871 -0.2312
  516MOL0     O71129  10.597   1.398   3.002 -0.0102 -0.2135  0.3116
  516MOL0     C71130  10.493   1.327   2.938  0.3200  0.7555 -0.3537
  516MOL0     C71131  10.358   1.390   2.975 -0.4309 -0.3715 -0.0231
  516MOL0     C71132  10.328   1.522   2.909 -0.6543  0.1565 -1.1830
  516MOL0     C71133  10.182   1.550   2.898 -0.7720  0.9529  0.4536
  516MOL0     C71134  10.144   1.624   2.779 -0.1209  0.7062 -0.5004
  516MOL0     C71135  10.110   1.679   2.677  0.2866 -1.1785 -0.4438
  516MOL0     C71136  10.818   1.419   3.064  0.9152  0.6811  0.1408
  516MOL0     C71137  10.955   1.391   3.071  0.5207  0.3183 -0.0522
  516MOL0     C71138  11.042   1.487   3.153  0.1093 -0.5416 -0.8699
  516MOL0     H71139  11.231   0.954   2.812 -1.6220  2.6065  0.6215
  516MOL0     H71140  11.450   0.874   2.743 -0.8911  1.1700 -0.5774
  516MOL0     H71141  11.776   0.946   3.046  2.9732  0.8265  0.7734
  516MOL0     H71142  11.826   1.079   2.932  1.0212 -0.0843  1.2454
  516MOL0     H71143  11.868   0.788   2.900 -3.2795  1.8180  2.1480
  516MOL0     H71144  11.952   0.918   2.799  4.7835  1.1097  0.6842
  516MOL0     H71145  12.080   0.986   2.985  3.2345 -1.5914 -0.9114
  516MOL0     H71146  12.003   0.875   3.091 -1.3029  1.1742 -0.5058
  516MOL0     H71147  12.105   0.695   2.968  1.8324 -0.3424  1.3364
  516MOL0     H71148  12.162   0.806   2.841 -2.8155  0.4347  0.1228
  516MOL0     H71149  12.355   0.753   2.970  1.4430  2.7475 -0.3503
  516MOL0     H71150  12.253   0.743   3.128 -2.4933 -0.9252 -0.1071
  516MOL0     H71151  12.353   0.991   2.980 -0.3416  1.0373  0.2737
  516MOL0     H71152  12.260   0.985   3.128  0.3827  1.5318 -0.5303
  516MOL0     H71153  12.535   0.914   3.077 -2.2083 -1.4640 -1.6949
  516MOL0     H71154  12.448   0.835   3.221  1.8140 -0.6452 -0.3809
  516MOL0     H71155  12.400   1.074   3.308 -0.0048 -0.2479  0.3726
  516MOL0     H71156  12.562   1.046   3.300 -0.8890 -2.6689 -0.6824
  516MOL0     H71157  12.635   1.106   2.988  1.0706  2.2078 -0.1395
  516MOL0     H71158  12.551   1.413   2.791 -0.6192  1.6722  0.3106
  516MOL0     H71159  12.667   1.280   2.810  0.1503 -0.8406  0.7033
  516MOL0     H71160  12.769   1.518   2.827 -0.6631 -1.1096 -1.8670
  516MOL0     H71161  12.706   1.513   2.996 -2.4670 -0.6504  0.3181
  516MOL0     H71162  12.834   1.284   3.009  5.2040 -0.7793  1.3820
  516MOL0     H71163  12.903   1.315   2.851  3.7024  1.3427  0.9887
  516MOL0     H71164  13.048   1.477   2.919 -0.2151 -2.7061 -0.8331
  516MOL0     H71165  12.944   1.501   3.075 -1.6895 -1.4763 -0.5251
  516MOL0     H71166  13.233   1.173   3.167 -0.0923 -0.6236 -0.3929
  516MOL0     H71167  13.522   1.201   3.333 -2.2029 -1.1445  0.9604
  516MOL0     H71168  13.580   1.174   3.161  0.7954  1.9714  0.6398
  516MOL0     H71169  13.437   1.086   3.223  1.1965 -0.2703 -4.1743
  516MOL0     H71170  13.842   1.613   3.347 -0.4613  0.1223 -0.0696
  516MOL0     H71171  14.070   1.615   3.379 -2.2618  1.5218 -1.1829
  516MOL0     H71172  14.249   1.197   3.400  2.0885 -2.0455 -1.5618
  516MOL0     H71173  14.346   1.240   3.269 -1.0385  1.6172 -1.2292
  516MOL0     H71174  14.496   1.361   3.423  0.0308  0.3997  0.9279
  516MOL0     H71175  14.389   1.361   3.551  2.7646  0.5159  0.7103
  516MOL0     H71176  14.387   1.106   3.563 -2.4632 -0.7143 -2.7375
  516MOL0     H71177  14.549   1.189   3.581 -0.9659 -1.4342  0.0666
  516MOL0     H71178  14.611   1.140   3.336  0.2095  0.5279 -0.3615
  516MOL0     H71179  14.450   1.060   3.326 -3.4148  0.9281  4.2621
  516MOL0     H71180  14.543   0.887   3.485 -1.1708  2.8435  1.6917
  516MOL0     H71181  14.638   0.911   3.333 -1.4113  1.8323 -2.3196
  516MOL0     H71182  14.703   1.003   3.621 -0.3606 -3.7074 -0.7371
  516MOL0     H71183  14.797   1.052   3.471  2.5302  0.5276  1.2755
  516MOL0     H71184  14.810   0.793   3.417 -2.1943 -1.1509 -0.1281
  516MOL0     H71185  14.751   0.777   3.576 -0.9755 -0.5869 -1.4437
  516MOL0     H71186  14.952   0.919   3.662  0.0392  0.5181 -0.1320
  516MOL0     H71187  15.000   0.923   3.490 -3.2781 -0.3120 -2.4631
  516MOL0     H71188  14.078   1.190   3.259 -2.7754 -0.8599 -0.3990
  516MOL0     H71189  13.845   1.197   3.265  4.4372 -3.4259  3.1116
  516MOL0     H71190  13.425   1.617   3.099  4.0046 -1.6348  2.1420
  516MOL0     H71191  13.192   1.586   3.046 -0.0160 -1.0943 -1.4211
  516MOL0     H71192  11.621   1.095   3.077  0.7483  0.1926 -1.5929
  516MOL0     H71193  11.404   1.151   3.151 -0.9204 -0.9126 -0.1332
  516MOL0     H71194  10.952   1.094   2.907 -0.2401 -1.8320  3.1776
  516MOL0     H71195  10.704   1.144   2.894 -1.0934 -0.6383  1.9274
  516MOL0     H71196  10.504   1.327   2.829  1.3088  0.8217 -0.2633
  516MOL0     H71197  10.502   1.223   2.971 -1.3285  0.4588 -0.7692
  516MOL0     H71198  10.346   1.402   3.083 -0.7769 -0.0784 -0.0926
  516MOL0     H71199  10.284   1.314   2.948  2.2617 -1.5409 -5.6668
  516MOL0     H71200  10.367   1.606   2.968 -1.8809  0.7887 -1.2257
  516MOL0     H71201  10.385   1.522   2.816  1.7017  1.5010  0.1431
  516MOL0     H71202  10.154   1.618   2.978  0.8697  2.4612 -0.1973
  516MOL0     H71203  10.133   1.452   2.897  0.2773  0.3450 -2.9087
  516MOL0     H71204  10.078   1.736   2.592  0.0690 -0.5917  0.0278
  516MOL0     H71205  10.783   1.516   3.097 -0.8358 -0.7338  2.8593
  516MOL0     H71206  11.148   1.481   3.126  1.8414  1.9233  4.1448
  516MOL0     H71207  11.002   1.588   3.140 -2.4560 -0.9648  2.4668
  516MOL0     H71208  11.034   1.455   3.257 -0.7800 -0.5277 -0.9267
  517MOL0     O71209   5.642   4.255   9.417  0.0306  0.2838  0.8001
  517MOL0     C71210   5.653   4.200   9.305  0.3144  0.0403 -0.0331
  517MOL0     O71211   5.552   4.152   9.238 -0.3215 -0.5771 -0.3525
  517MOL0     C71212   5.429   4.146   9.298  0.2170 -0.3536 -0.0115
  517MOL0     C71213   5.382   4.022   9.337 -0.0057 -0.8848  0.6190
  517MOL0     C71214   5.262   4.001   9.402 -0.4103  0.6456 -0.0382
  517MOL0     C71215   5.195   4.108   9.450  0.2144 -0.6699  0.0473
  517MOL0     O71216   5.080   4.077   9.522 -0.0372  0.0668  0.6027
  517MOL0     C71217   5.012   4.190   9.579  0.3688 -0.4629  0.4461
  517MOL0     C71218   4.893   4.131   9.664  0.6453 -0.0493 -0.3362
  517MOL0     C71219   4.904   4.179   9.805 -0.5183  0.0715  1.0734
  517MOL0     C71220   4.811   4.101   9.893  0.7088 -0.2152 -0.4207
  517MOL0     C71221   4.691   4.192   9.940  0.9601  0.4626 -0.2863
  517MOL0     C71222   4.732   4.297  10.046 -0.3584  0.3786 -0.3248
  517MOL0     C71223   4.642   4.277  10.173 -0.0192  0.5660 -0.6874
  517MOL0     C71224   4.674   4.368  10.283 -0.0315  0.6908  0.2834
  517MOL0     N71225   4.782   4.318  10.368  0.5398  0.0499 -0.6851
  517MOL0     C71226   4.911   4.284  10.324 -0.4284  0.4037 -0.5599
  517MOL0     C71227   4.958   4.212  10.435 -0.2964 -0.0079 -0.5421
  517MOL0     C71228   5.089   4.151  10.448 -0.1631 -0.4692 -0.7182
  517MOL0     C71229   5.204   4.256  10.465 -0.7478  0.3666  0.7941
  517MOL0     C71230   5.340   4.204  10.479 -0.5764  0.5948  0.4166
  517MOL0     C71231   5.413   4.275  10.583  0.6025 -0.4756  0.1777
  517MOL0     O71232   5.547   4.244  10.567 -0.1893  0.0533 -0.3090
  517MOL0     C71233   5.647   4.333  10.612  0.3768  0.2430 -0.2970
  517MOL0     C71234   5.628   4.451  10.682 -0.9821  0.1559  0.8801
  517MOL0     C71235   5.737   4.539  10.713  0.1516 -0.1017 -0.1907
  517MOL0     C71236   5.693   4.656  10.791  0.3905 -0.2763  0.0814
  517MOL0     C71237   5.877   4.509  10.686  0.4425  0.1013  0.2498
  517MOL0     C71238   5.997   4.583  10.710 -0.7867 -0.2403 -0.1017
  517MOL0     O71239   6.116   4.544  10.655 -0.1002 -0.3113 -0.1136
  517MOL0     C71240   6.230   4.625  10.656 -0.0174 -0.4726 -0.3550
  517MOL0     C71241   6.298   4.648  10.780  0.8307  0.1956  0.0114
  517MOL0     C71242   6.405   4.742  10.794  0.3345 -0.0575  0.2525
  517MOL0     C71243   6.456   4.797  10.670 -0.3734 -0.3675 -0.0280
  517MOL0     O71244   6.577   4.869  10.670 -0.6614 -0.1077  0.0051
  517MOL0     C71245   6.592   4.956  10.774  0.2881 -0.3756 -0.1119
  517MOL0     C71246   6.647   5.092  10.718 -0.3892 -0.5725  0.1445
  517MOL0     C71247   6.553   5.138  10.601 -0.5944 -0.3528 -0.2679
  517MOL0     C71248   6.575   5.285  10.573  1.3081 -0.2986 -0.4082
  517MOL0     C71249   6.543   5.320  10.425 -0.8938 -0.2804  1.2722
  517MOL0     C71250   6.397   5.320  10.387  0.3522 -0.9697 -0.7852
  517MOL0     C71251   6.321   5.428  10.474 -0.2353 -0.0643  0.6631
  517MOL0     C71252   6.190   5.462  10.409  0.4672 -0.5614 -0.6553
  517MOL0    Cl71253   6.084   5.318  10.437  0.0509 -0.1559 -0.1013
  517MOL0     C71254   6.389   4.776  10.551 -0.1802  0.8346 -0.4792
  517MOL0     C71255   6.284   4.683  10.540  0.6973 -0.6936 -0.1928
  517MOL0     O71256   5.990   4.680  10.790  0.3879  0.1223 -0.2877
  517MOL0     C71257   5.893   4.389  10.613  0.3184 -0.8246  1.3629
  517MOL0     C71258   5.783   4.308  10.572  0.3235 -0.1106 -0.0816
  517MOL0     N71259   4.862   4.203  10.529 -0.4385 -0.3995  0.0194
  517MOL0     N71260   4.755   4.269  10.490  0.4984 -0.1521  0.1979
  517MOL0     C71261   5.242   4.240   9.418  0.2744  0.2018 -0.8923
  517MOL0     C71262   5.356   4.257   9.336  0.0443 -0.4310 -0.3630
  517MOL0     C71263   5.796   4.197   9.247 -0.5000 -0.2207  0.7056
  517MOL0     C71264   5.901   4.225   9.335 -0.4487 -0.7246  0.1539
  517MOL0     C71265   6.032   4.222   9.295 -0.6161 -0.4513 -0.1587
  517MOL0     C71266   6.063   4.211   9.160 -0.7335  0.6243 -0.1271
  517MOL0     O71267   6.190   4.234   9.117 -0.5035  0.4212 -0.0405
  517MOL0     C71268   6.229   4.198   8.984 -0.0783  0.9147  0.0538
  517MOL0     C71269   6.384   4.208   8.978 -0.0327 -0.5407 -0.2012
  517MOL0     C71270   6.432   4.210   8.834  0.0347  0.8158  0.8528
  517MOL0     C71271   6.581   4.162   8.820  0.4308 -0.3474 -0.5192
  517MOL0     C71272   6.681   4.251   8.874  0.3011 -1.0614  1.2289
  517MOL0     C71273   6.748   4.344   8.916  0.2942  0.4527 -0.2936
  517MOL0     C71274   5.963   4.174   9.074 -0.1633  0.4347  0.2228
  517MOL0     C71275   5.832   4.168   9.114  0.0513 -0.4339 -0.6672
  517MOL0     C71276   5.727   4.126   9.010 -0.1318  0.2457 -1.2864
  517MOL0     H71277   5.434   3.930   9.310 -1.5827 -1.5755 -0.2140
  517MOL0     H71278   5.237   3.900   9.432 -1.4904  1.0260  0.4388
  517MOL0     H71279   4.964   4.244   9.497  0.8696 -1.2260 -0.3698
  517MOL0     H71280   5.081   4.248   9.641  0.0679 -0.6127  0.9288
  517MOL0     H71281   4.802   4.167   9.615 -1.0232  1.2460  3.4031
  517MOL0     H71282   4.909   4.023   9.648 -0.0712 -0.0060 -1.4820
  517MOL0     H71283   5.008   4.157   9.830 -0.6445  0.4064  1.9262
  517MOL0     H71284   4.888   4.287   9.815  1.5306  0.5967 -0.7237
  517MOL0     H71285   4.769   4.010   9.850 -1.0451 -0.0739  0.9129
  517MOL0     H71286   4.865   4.073   9.984  0.4840  2.9846  0.8151
  517MOL0     H71287   4.625   4.114   9.980  1.0939  0.5539  0.1115
  517MOL0     H71288   4.638   4.250   9.863  3.0345  3.5124  0.4282
  517MOL0     H71289   4.838   4.290  10.070  0.1781  0.4116 -2.4664
  517MOL0     H71290   4.709   4.399  10.013 -0.0467  1.1797  1.7996
  517MOL0     H71291   4.654   4.176  10.213  0.2874  0.9469  0.2179
  517MOL0     H71292   4.540   4.281  10.135 -0.4771 -1.5665  0.1945
  517MOL0     H71293   4.699   4.465  10.240  2.9050 -0.7123 -1.5168
  517MOL0     H71294   4.584   4.368  10.345  0.6168 -0.3984  1.2772
  517MOL0     H71295   4.961   4.311  10.232 -0.8389  3.7097  0.0453
  517MOL0     H71296   5.100   4.083  10.363 -1.6846  0.7185 -1.9481
  517MOL0     H71297   5.088   4.094  10.541  3.1410  1.1989  0.5284
  517MOL0     H71298   5.200   4.327  10.382 -0.0928  0.9516  1.2503
  517MOL0     H71299   5.173   4.304  10.559  2.5183 -3.5393  4.3082
  517MOL0     H71300   5.337   4.100  10.511 -1.0732  0.7865  1.0076
  517MOL0     H71301   5.381   4.209  10.378 -1.0361 -0.6987  0.1503
  517MOL0     H71302   5.397   4.383  10.574  0.5373 -0.4149  0.9665
  517MOL0     H71303   5.372   4.246  10.680  0.1987 -1.3270 -0.2286
  517MOL0     H71304   5.532   4.490  10.717 -0.3921  0.1740  2.5877
  517MOL0     H71305   5.706   4.739  10.721  3.6236  0.6501  1.5829
  517MOL0     H71306   5.756   4.662  10.881  1.5629 -0.7169 -0.6758
  517MOL0     H71307   5.590   4.655  10.828 -0.0257  1.4701 -0.9456
  517MOL0     H71308   6.266   4.585  10.862 -0.1443 -3.3634 -2.8059
  517MOL0     H71309   6.458   4.734  10.888 -1.2701 -2.9514  1.0326
  517MOL0     H71310   6.495   4.982  10.818  1.2172  0.3411  1.6164
  517MOL0     H71311   6.655   4.925  10.858 -1.8809 -1.4066  1.2332
  517MOL0     H71312   6.641   5.167  10.798  2.9929 -0.2855  0.2578
  517MOL0     H71313   6.750   5.088  10.681 -1.1913 -2.9204 -2.1564
  517MOL0     H71314   6.448   5.124  10.628 -1.2338 -0.1847 -2.4278
  517MOL0     H71315   6.568   5.069  10.517 -2.0862  1.0412 -1.7441
  517MOL0     H71316   6.677   5.314  10.602  1.9003 -1.3955 -1.2992
  517MOL0     H71317   6.514   5.349  10.637 -0.9492 -2.0787 -0.6748
  517MOL0     H71318   6.599   5.410  10.398 -0.1169 -0.9383  0.6286
  517MOL0     H71319   6.592   5.236  10.374 -0.3706  0.2619  0.8571
  517MOL0     H71320   6.347   5.225  10.406  0.2106 -0.6039  0.7772
  517MOL0     H71321   6.390   5.341  10.279 -0.5126  0.8679 -0.4056
  517MOL0     H71322   6.375   5.523  10.471  0.1140 -0.2824 -0.3841
  517MOL0     H71323   6.308   5.396  10.578 -0.4503  1.1350  1.0281
  517MOL0     H71324   6.213   5.503  10.311  2.0666  2.8178  0.9575
  517MOL0     H71325   6.142   5.550  10.452  0.5309 -0.7651 -0.1553
  517MOL0     H71326   6.427   4.822  10.461  3.5955  1.1303  1.0753
  517MOL0     H71327   6.235   4.675  10.443  0.9301 -0.3909 -0.3365
  517MOL0     H71328   5.984   4.359  10.562  0.7758  3.0832 -0.5750
  517MOL0     H71329   5.810   4.215  10.523 -1.8557 -0.0470 -1.5278
  517MOL0     H71330   5.179   4.323   9.447  0.2432 -0.1348  0.0661
  517MOL0     H71331   5.413   4.347   9.317  3.3324 -2.2952  0.0107
  517MOL0     H71332   5.880   4.250   9.439  0.7786  2.0855 -0.1675
  517MOL0     H71333   6.109   4.246   9.366 -2.0725  0.2424  1.2520
  517MOL0     H71334   6.198   4.097   8.957  0.8586  1.2029 -2.3372
  517MOL0     H71335   6.193   4.277   8.917  0.4756  0.3406 -0.9431
  517MOL0     H71336   6.424   4.125   9.037 -0.6331  1.6983  3.7285
  517MOL0     H71337   6.415   4.300   9.029  0.2721 -0.7398 -0.0206
  517MOL0     H71338   6.362   4.146   8.781 -0.4948  2.7931 -0.9803
  517MOL0     H71339   6.425   4.307   8.785  1.2473  0.1775 -0.6848
  517MOL0     H71340   6.602   4.133   8.717 -1.5287  3.7088 -2.2981
  517MOL0     H71341   6.590   4.070   8.879  0.0720  0.5538  1.0009
  517MOL0     H71342   6.797   4.434   8.948 -0.1229  0.4331  0.4439
  517MOL0     H71343   5.992   4.166   8.970 -0.0771  0.8325  0.2175
  517MOL0     H71344   5.781   4.102   8.918  1.1518  1.1665 -0.8157
  517MOL0     H71345   5.670   4.041   9.048 -1.8383  0.9876 -2.1068
  517MOL0     H71346   5.661   4.212   8.997 -0.0138  0.8777  1.6014
  518MOL0     O71347   4.317   3.974   2.280 -0.1128 -0.3045 -0.7614
  518MOL0     C71348   4.271   3.910   2.183  0.6368 -0.9027  0.0373
  518MOL0     O71349   4.346   3.865   2.084  0.3262 -0.3287  0.1382
  518MOL0     C71350   4.482   3.856   2.102 -0.6974  0.0399 -0.2387
  518MOL0     C71351   4.549   3.741   2.074 -0.2982 -0.3340 -0.1680
  518MOL0     C71352   4.680   3.725   2.100 -0.0499 -0.3254  0.1709
  518MOL0     C71353   4.761   3.824   2.165 -0.8386 -0.3969 -0.1165
  518MOL0     O71354   4.888   3.785   2.204  0.2850 -0.0433  0.3589
  518MOL0     C71355   4.975   3.890   2.212  0.1260  0.2645 -0.1487
  518MOL0     C71356   5.092   3.830   2.291 -0.0998  0.1498  0.9811
  518MOL0     C71357   5.172   3.721   2.218  0.4248 -0.3152  0.0108
  518MOL0     C71358   5.233   3.760   2.080 -0.0665 -0.7226 -0.5091
  518MOL0     C71359   5.381   3.820   2.106 -0.7476 -0.4521 -0.2441
  518MOL0     C71360   5.431   3.862   1.968  0.2784  0.8558  0.3949
  518MOL0     C71361   5.574   3.910   1.975 -0.4443 -0.0880  0.1134
  518MOL0     C71362   5.595   4.053   2.007  1.0918 -0.0510  0.0073
  518MOL0     N71363   5.718   4.082   2.077 -0.2468  0.0729  0.2439
  518MOL0     C71364   5.845   4.033   2.047 -0.3144 -0.5859  0.6400
  518MOL0     C71365   5.925   4.082   2.142 -0.6537  0.4077  0.1789
  518MOL0     C71366   6.073   4.052   2.143 -0.3229  0.4542 -0.2500
  518MOL0     C71367   6.158   4.148   2.052  0.1478 -0.2084 -0.1577
  518MOL0     C71368   6.146   4.292   2.089  0.5282 -0.1699  0.5971
  518MOL0     C71369   6.025   4.361   2.014 -0.0863  0.2354  0.5359
  518MOL0     O71370   6.024   4.332   1.879 -0.2630 -0.1809 -0.5695
  518MOL0     C71371   5.903   4.338   1.815  0.0324 -0.1648  0.5182
  518MOL0     C71372   5.902   4.267   1.697  0.2480 -0.0360 -0.2120
  518MOL0     C71373   5.786   4.249   1.623  0.5399  0.8656  0.9334
  518MOL0     C71374   5.807   4.178   1.487 -0.3677  0.1416 -0.7041
  518MOL0     C71375   5.662   4.304   1.665  0.4235 -0.5208 -0.0829
  518MOL0     C71376   5.531   4.300   1.596 -0.3173 -0.2106 -0.4828
  518MOL0     O71377   5.423   4.351   1.662 -0.2000  0.6541 -0.3924
  518MOL0     C71378   5.298   4.352   1.606  0.2461  0.5373 -0.0375
  518MOL0     C71379   5.265   4.336   1.476 -0.5804  0.0110  0.6004
  518MOL0     C71380   5.126   4.341   1.437 -0.5851 -0.1667  0.6506
  518MOL0     C71381   5.020   4.339   1.531 -1.3473  0.7545  0.3786
  518MOL0     O71382   4.895   4.337   1.481  0.4307  0.6589  0.8283
  518MOL0     C71383   4.796   4.369   1.574  0.6494  0.0558  0.1826
  518MOL0     C71384   4.661   4.366   1.502  0.6661 -0.2919  0.1151
  518MOL0     C71385   4.629   4.227   1.453  0.3319  0.0735  0.8260
  518MOL0     C71386   4.486   4.207   1.398 -0.2348 -0.7229  1.4306
  518MOL0     C71387   4.451   4.067   1.378 -0.3342 -0.6752 -0.6847
  518MOL0     C71388   4.328   4.063   1.293  0.2764  0.1906 -0.3658
  518MOL0     C71389   4.276   3.915   1.266 -0.1946  0.5244  0.5754
  518MOL0     C71390   4.216   3.852   1.384  1.1528 -0.1361  0.3349
  518MOL0    Cl71391   4.057   3.786   1.336  0.4155 -0.2135  0.4453
  518MOL0     C71392   5.052   4.335   1.666 -0.1238 -0.0732  0.4915
  518MOL0     C71393   5.193   4.349   1.701 -0.2728 -0.0287 -0.0838
  518MOL0     O71394   5.536   4.248   1.486  0.0907 -0.1841 -0.4567
  518MOL0     C71395   5.664   4.369   1.785  0.1205 -0.4300 -0.9956
  518MOL0     C71396   5.778   4.391   1.857  1.1198 -0.1566  0.3076
  518MOL0     N71397   5.848   4.142   2.238  0.5225 -0.5575 -0.1819
  518MOL0     N71398   5.731   4.161   2.188 -0.7070  0.1160 -0.5722
  518MOL0     C71399   4.691   3.946   2.193  0.0768  0.1918  0.3923
  518MOL0     C71400   4.561   3.959   2.151  0.5645  0.1149  0.4696
  518MOL0     C71401   4.115   3.904   2.172  0.4886 -0.7748 -0.2283
  518MOL0     C71402   4.031   4.004   2.235 -0.4179 -0.5487  0.3406
  518MOL0     C71403   3.894   4.008   2.208  0.1328 -0.0962  0.2901
  518MOL0     C71404   3.836   3.906   2.130 -1.0308 -0.8580 -1.0425
  518MOL0     O71405   3.701   3.904   2.096 -0.6833 -0.6232  0.0086
  518MOL0     C71406   3.611   3.999   2.151 -0.2722 -0.8422 -0.2286
  518MOL0     C71407   3.464   3.973   2.134 -0.2090  0.9516 -0.6164
  518MOL0     C71408   3.417   3.846   2.199 -0.5489  0.5149  0.3895
  518MOL0     C71409   3.272   3.833   2.191 -0.3793 -0.3997  1.1099
  518MOL0     C71410   3.219   3.722   2.274 -0.6318 -0.3860 -0.7917
  518MOL0     C71411   3.179   3.642   2.350  0.8606  1.0747  0.0990
  518MOL0     C71412   3.914   3.796   2.090  0.0061 -0.4891  0.1911
  518MOL0     C71413   4.051   3.800   2.107  0.0554 -0.0473 -0.3660
  518MOL0     C71414   4.126   3.675   2.060  0.0678  0.0153  0.4179
  518MOL0     H71415   4.496   3.655   2.034  1.6251 -0.1196 -3.5258
  518MOL0     H71416   4.729   3.631   2.076  0.0658 -0.1642 -0.2449
  518MOL0     H71417   4.947   3.987   2.255 -0.7263  1.5957 -3.3873
  518MOL0     H71418   5.004   3.913   2.109  0.4169 -0.5229 -0.2525
  518MOL0     H71419   5.165   3.902   2.328  0.5989 -1.3765  2.7620
  518MOL0     H71420   5.055   3.784   2.383  1.6537 -1.5209  0.9285
  518MOL0     H71421   5.249   3.666   2.273 -0.7783 -2.0494  0.0408
  518MOL0     H71422   5.096   3.648   2.190  1.3750  0.1200 -4.4840
  518MOL0     H71423   5.236   3.673   2.014  2.0307 -0.7876 -0.3908
  518MOL0     H71424   5.181   3.837   2.023  0.5860 -0.3303 -0.5791
  518MOL0     H71425   5.439   3.738   2.148  1.7326 -0.2441 -2.9475
  518MOL0     H71426   5.378   3.906   2.173  0.4384  0.0451 -0.8118
  518MOL0     H71427   5.413   3.775   1.904 -4.2258 -0.8830  3.4416
  518MOL0     H71428   5.373   3.942   1.921 -1.7229 -2.2303 -2.9187
  518MOL0     H71429   5.628   3.878   1.885 -1.8499 -0.4579 -0.6258
  518MOL0     H71430   5.619   3.859   2.061 -0.7644 -1.7110 -0.6464
  518MOL0     H71431   5.579   4.116   1.919 -1.2096 -1.9537 -1.0161
  518MOL0     H71432   5.511   4.089   2.067  0.1585 -0.6896 -0.8822
  518MOL0     H71433   5.880   3.963   1.972  0.9054  0.0408  0.5904
  518MOL0     H71434   6.095   3.950   2.110 -0.8125  0.1604  0.3046
  518MOL0     H71435   6.118   4.051   2.243  2.4682 -2.3106 -1.3745
  518MOL0     H71436   6.264   4.122   2.046  0.0623 -0.8939  1.0409
  518MOL0     H71437   6.117   4.131   1.952 -1.5694 -1.6349  0.7182
  518MOL0     H71438   6.125   4.296   2.197 -0.7164  1.4222  0.3491
  518MOL0     H71439   6.243   4.338   2.070  0.8277 -0.5706  1.1443
  518MOL0     H71440   5.928   4.328   2.052  0.0577 -1.1865 -0.2437
  518MOL0     H71441   6.037   4.469   2.029 -1.6460  0.4451  0.4132
  518MOL0     H71442   6.002   4.239   1.666  0.4352  2.0599 -1.7689
  518MOL0     H71443   5.909   4.145   1.467  0.5702  0.8481  2.3200
  518MOL0     H71444   5.772   4.252   1.415 -0.6320  0.4052 -0.3112
  518MOL0     H71445   5.742   4.091   1.474 -1.5968  1.3622 -3.5839
  518MOL0     H71446   5.332   4.328   1.391 -1.5068 -0.8089 -0.0898
  518MOL0     H71447   5.093   4.347   1.333 -1.8454  0.7646  1.0766
  518MOL0     H71448   4.801   4.299   1.659 -0.0578  0.7466  0.8153
  518MOL0     H71449   4.810   4.473   1.603 -0.4435  0.5953 -1.1688
  518MOL0     H71450   4.576   4.399   1.563 -0.5814 -2.9796 -0.0361
  518MOL0     H71451   4.671   4.445   1.427 -0.3283 -0.2363  0.0321
  518MOL0     H71452   4.646   4.157   1.535  1.1062  0.0461  0.6479
  518MOL0     H71453   4.698   4.197   1.373 -0.7408  0.2484 -0.1964
  518MOL0     H71454   4.478   4.262   1.303  1.1089 -0.1254  1.6432
  518MOL0     H71455   4.416   4.257   1.467 -0.2788  1.2899  0.0306
  518MOL0     H71456   4.525   4.010   1.320 -2.0661 -1.4336 -2.2743
  518MOL0     H71457   4.434   4.013   1.472  1.0541 -1.2568 -0.7421
  518MOL0     H71458   4.346   4.110   1.195 -0.0565 -0.5089 -0.7716
  518MOL0     H71459   4.256   4.128   1.344  0.8327  0.5749 -0.0704
  518MOL0     H71460   4.367   3.862   1.236 -1.0682 -1.1540  0.8075
  518MOL0     H71461   4.195   3.913   1.193 -2.0746 -2.4884  2.5105
  518MOL0     H71462   4.217   3.926   1.465  3.6150  3.6560 -2.8037
  518MOL0     H71463   4.288   3.773   1.406  1.7192  0.3683  0.3469
  518MOL0     H71464   4.984   4.306   1.745  1.4632 -2.5259  1.0719
  518MOL0     H71465   5.219   4.350   1.806  3.1930 -2.1384 -0.7682
  518MOL0     H71466   5.573   4.410   1.828 -1.0794 -0.0552 -3.7272
  518MOL0     H71467   5.772   4.448   1.949  1.2146  0.6228 -0.1573
  518MOL0     H71468   4.749   4.016   2.251  0.9913  0.4838 -0.8161
  518MOL0     H71469   4.513   4.055   2.167  1.7965  1.0700 -1.2259
  518MOL0     H71470   4.072   4.086   2.293 -1.8719  0.5899 -0.2048
  518MOL0     H71471   3.834   4.091   2.245  3.2646  2.2045  0.7309
  518MOL0     H71472   3.621   3.998   2.260  0.1411 -0.9623 -0.2661
  518MOL0     H71473   3.633   4.096   2.106  1.8425 -1.8760 -1.5675
  518MOL0     H71474   3.441   3.979   2.027 -2.9827  2.8349 -0.0055
  518MOL0     H71475   3.415   4.055   2.186 -0.9015  1.0000 -1.3233
  518MOL0     H71476   3.466   3.761   2.152  1.1488  0.0010  2.8671
  518MOL0     H71477   3.447   3.839   2.304  0.4932 -0.2657  0.0587
  518MOL0     H71478   3.247   3.812   2.087 -0.9995 -0.9141  1.3540
  518MOL0     H71479   3.229   3.930   2.219  3.3618  1.1130  2.2103
  518MOL0     H71480   3.140   3.574   2.423  0.6226  1.5604  0.4302
  518MOL0     H71481   3.858   3.724   2.031 -0.6289 -0.3788  0.6469
  518MOL0     H71482   4.213   3.646   2.119  1.4468 -0.5684 -1.7976
  518MOL0     H71483   4.060   3.588   2.053  0.9226 -0.5842 -0.3918
  518MOL0     H71484   4.163   3.691   1.958  3.4371 -1.3875  1.2943
  519MOL0     O71485   5.444   0.968   4.285 -0.2054  0.2557  0.1154
  519MOL0     C71486   5.398   0.857   4.255 -0.4879  0.5678  0.2727
  519MOL0     O71487   5.452   0.740   4.295 -0.3773 -0.1285  0.5776
  519MOL0     C71488   5.581   0.745   4.338  1.1814  0.9903 -0.0775
  519MOL0     C71489   5.635   0.816   4.439  0.2157 -0.4282 -0.9285
  519MOL0     C71490   5.772   0.839   4.460 -0.3771  0.1554  0.2947
  519MOL0     C71491   5.865   0.769   4.377  0.2382 -0.6380 -0.4051
  519MOL0     O71492   6.001   0.772   4.396 -0.2967  0.0727  0.2573
  519MOL0     C71493   6.071   0.883   4.443 -0.1061 -0.5893  0.7213
  519MOL0     C71494   6.213   0.841   4.454 -0.4685  0.3525  0.1420
  519MOL0     C71495   6.264   0.845   4.313 -0.2473 -0.2044 -0.3874
  519MOL0     C71496   6.392   0.760   4.300 -0.4262  0.8471  0.2372
  519MOL0     C71497   6.432   0.731   4.151  0.0028 -0.6551 -0.7481
  519MOL0     C71498   6.576   0.689   4.135  0.5476  1.0349  0.1306
  519MOL0     C71499   6.613   0.625   3.990 -0.2441 -0.0158 -0.0231
  519MOL0     C71500   6.761   0.623   3.969 -0.2118 -0.7081  0.1079
  519MOL0     N71501   6.833   0.530   4.055  0.4988 -0.2661  0.8371
  519MOL0     C71502   6.820   0.391   4.074  1.0326  0.6335  0.0141
  519MOL0     C71503   6.928   0.347   4.152  0.4609 -0.0100 -0.6947
  519MOL0     C71504   6.945   0.201   4.197 -0.4085 -0.1623  1.4539
  519MOL0     C71505   7.049   0.116   4.127  0.4377  0.3800 -0.5133
  519MOL0     C71506   7.138   0.054   4.236  0.4006  0.3251 -0.3674
  519MOL0     C71507   7.227  -0.056   4.178  0.1250 -0.7636 -0.3106
  519MOL0     O71508   7.340  -0.064   4.268  0.3071 -0.1944  0.1750
  519MOL0     C71509   7.455  -0.118   4.221 -0.5221  0.4056 -0.2027
  519MOL0     C71510   7.467  -0.195   4.101 -0.8386  0.1849 -0.0965
  519MOL0     C71511   7.594  -0.229   4.058 -1.0761  0.4854  0.1023
  519MOL0     C71512   7.590  -0.323   3.943  0.5401  1.0569 -0.0342
  519MOL0     C71513   7.711  -0.193   4.127 -0.1959 -0.4302  0.5738
  519MOL0     C71514   7.848  -0.243   4.085  0.5215  0.9491  0.1382
  519MOL0     O71515   7.938  -0.265   4.186  0.4900 -0.1059  0.4545
  519MOL0     C71516   8.072  -0.309   4.161  0.8007 -0.7586  0.5349
  519MOL0     C71517   8.163  -0.246   4.246  0.1058 -0.2919  0.4023
  519MOL0     C71518   8.296  -0.275   4.238 -0.3127  0.1192 -0.4258
  519MOL0     C71519   8.341  -0.357   4.131  0.4071 -0.0561  0.5940
  519MOL0     O71520   8.473  -0.378   4.120 -0.0545 -0.2110 -0.4435
  519MOL0     C71521   8.541  -0.417   3.996 -0.0591  0.0341  0.3107
  519MOL0     C71522   8.679  -0.466   4.036 -0.6580 -0.0153 -0.7927
  519MOL0     C71523   8.749  -0.379   4.142  0.2664 -0.6312  0.4736
  519MOL0     C71524   8.893  -0.424   4.172 -0.0953 -0.3020 -0.5983
  519MOL0     C71525   8.982  -0.466   4.056  0.3783  0.5823 -0.2782
  519MOL0     C71526   9.130  -0.495   4.097  1.0502 -0.3096 -0.3094
  519MOL0     C71527   9.209  -0.369   4.120  0.0030 -0.7906  0.3272
  519MOL0     C71528   9.246  -0.297   3.985  0.0707 -0.0420  0.6326
  519MOL0    Cl71529   9.343  -0.395   3.883 -0.4137  0.1949  0.1564
  519MOL0     C71530   8.250  -0.424   4.043  0.4655 -0.0517  0.0325
  519MOL0     C71531   8.114  -0.396   4.064 -0.3457  0.0266  0.6588
  519MOL0     O71532   7.862  -0.266   3.966  0.7239 -0.4138 -0.5122
  519MOL0     C71533   7.694  -0.114   4.237 -0.1116 -0.2334  0.4446
  519MOL0     C71534   7.574  -0.074   4.281  0.1470  0.0226 -0.8387
  519MOL0     N71535   6.987   0.462   4.196 -0.9007  0.6630  0.4331
  519MOL0     N71536   6.930   0.564   4.138 -0.4290  0.2568  0.0173
  519MOL0     C71537   5.818   0.684   4.280 -0.4231 -0.6295  0.7100
  519MOL0     C71538   5.674   0.679   4.254 -0.2745 -0.7460  0.1260
  519MOL0     C71539   5.273   0.846   4.171 -0.1148 -0.0778  0.3067
  519MOL0     C71540   5.196   0.964   4.174  0.1918  0.6338  0.1850
  519MOL0     C71541   5.071   0.960   4.122 -0.6996  0.5468 -0.1923
  519MOL0     C71542   5.014   0.844   4.069 -0.1036  0.2289  0.7901
  519MOL0     O71543   4.880   0.848   4.044 -0.1162 -0.1363  0.3826
  519MOL0     C71544   4.816   0.727   4.023  0.3609  0.0076  0.5632
  519MOL0     C71545   4.662   0.723   4.061 -0.3401  0.3155  0.1828
  519MOL0     C71546   4.583   0.838   3.997 -0.1079 -0.2289  0.2704
  519MOL0     C71547   4.436   0.848   4.040  0.6196  0.4609 -1.0274
  519MOL0     C71548   4.374   0.965   3.975  0.0399 -0.3600  0.0653
  519MOL0     C71549   4.316   1.069   3.934 -0.3823  0.8557 -0.8004
  519MOL0     C71550   5.098   0.735   4.039  0.1955 -0.1756  0.4872
  519MOL0     C71551   5.232   0.742   4.081 -0.8143  0.0142  0.8832
  519MOL0     C71552   5.315   0.622   4.034  0.0442 -0.1212 -0.7827
  519MOL0     H71553   5.570   0.869   4.507  0.9558 -0.1494 -0.4281
  519MOL0     H71554   5.803   0.898   4.546 -1.8067  0.3843  0.6832
  519MOL0     H71555   6.039   0.915   4.542  0.4254  2.7058 -0.0525
  519MOL0     H71556   6.050   0.965   4.373 -0.4458  1.9229  3.5715
  519MOL0     H71557   6.269   0.916   4.512  0.3381 -0.8171  0.9252
  519MOL0     H71558   6.209   0.739   4.494 -0.0053 -1.6993 -4.4762
  519MOL0     H71559   6.189   0.805   4.244 -0.6807  0.4458 -0.3002
  519MOL0     H71560   6.279   0.946   4.274  1.6485 -0.9402 -1.7116
  519MOL0     H71561   6.464   0.809   4.366 -0.7237  1.3381  0.2045
  519MOL0     H71562   6.382   0.663   4.348  0.0203  1.4008  1.5019
  519MOL0     H71563   6.421   0.827   4.099 -2.5756 -1.9901 -2.9049
  519MOL0     H71564   6.371   0.653   4.104  1.2235 -3.0116  1.3169
  519MOL0     H71565   6.643   0.769   4.168 -1.0203  1.5345  2.3052
  519MOL0     H71566   6.586   0.603   4.201 -2.8729 -0.4698 -1.0525
  519MOL0     H71567   6.589   0.695   3.909 -1.0778 -0.6357 -0.3143
  519MOL0     H71568   6.557   0.533   3.970  0.6591 -0.2447 -1.6985
  519MOL0     H71569   6.784   0.598   3.865  2.4425 -1.5076  0.8372
  519MOL0     H71570   6.807   0.719   3.994  0.8233 -1.2044  0.1567
  519MOL0     H71571   6.751   0.319   4.029  0.2774  2.4479 -1.9184
  519MOL0     H71572   6.845   0.160   4.186 -0.3352 -0.5109  2.0727
  519MOL0     H71573   6.965   0.197   4.304  1.0615 -0.2238  1.1984
  519MOL0     H71574   6.997   0.041   4.068 -0.6551 -1.8207  2.9344
  519MOL0     H71575   7.095   0.183   4.054 -1.9953  3.0676  0.2342
  519MOL0     H71576   7.191   0.136   4.285 -3.1487  0.0655  4.6093
  519MOL0     H71577   7.074   0.002   4.308  0.0657  0.7970 -0.3250
  519MOL0     H71578   7.170  -0.149   4.176  1.0685 -1.3453 -0.8983
  519MOL0     H71579   7.258  -0.022   4.078 -2.4891 -0.9372 -1.2435
  519MOL0     H71580   7.375  -0.237   4.062 -2.1890  1.3326  1.6863
  519MOL0     H71581   7.650  -0.294   3.855 -1.2392  0.5387 -1.4850
  519MOL0     H71582   7.489  -0.351   3.912  0.7247 -2.9452  2.2752
  519MOL0     H71583   7.623  -0.417   3.988  0.2143  1.6035  1.3964
  519MOL0     H71584   8.129  -0.186   4.330  1.9761 -2.0276  2.4905
  519MOL0     H71585   8.357  -0.229   4.315 -0.9854 -1.7020  1.2553
  519MOL0     H71586   8.483  -0.489   3.938 -1.7263  1.5739 -0.0167
  519MOL0     H71587   8.551  -0.329   3.932  0.8251 -0.6412 -0.5123
  519MOL0     H71588   8.658  -0.560   4.088  0.6052 -0.0655 -0.3468
  519MOL0     H71589   8.738  -0.485   3.946 -1.3789 -0.9723 -1.0841
  519MOL0     H71590   8.689  -0.386   4.234 -0.2083  2.7167  0.5454
  519MOL0     H71591   8.756  -0.277   4.103  2.0471 -0.7657  0.3549
  519MOL0     H71592   8.897  -0.511   4.238  1.8701 -0.0797 -0.3626
  519MOL0     H71593   8.946  -0.344   4.226  0.8161 -1.9679  1.1167
  519MOL0     H71594   8.946  -0.559   4.010  2.3074 -0.4755  0.2711
  519MOL0     H71595   8.968  -0.395   3.974 -5.9434 -3.4605 -3.6030
  519MOL0     H71596   9.178  -0.545   4.013  1.2358 -1.3481  0.3980
  519MOL0     H71597   9.125  -0.561   4.185 -0.2821  1.8816  1.3611
  519MOL0     H71598   9.303  -0.389   4.172 -1.0877 -0.5937  2.4443
  519MOL0     H71599   9.154  -0.304   4.188 -1.7972 -0.3648 -1.4506
  519MOL0     H71600   9.297  -0.202   4.006 -2.1236  1.6536 -1.2516
  519MOL0     H71601   9.163  -0.254   3.928  2.1107  3.8434  0.2089
  519MOL0     H71602   8.275  -0.486   3.958 -1.5180 -0.3817 -0.3706
  519MOL0     H71603   8.041  -0.434   3.993  1.8393 -0.7424 -1.3044
  519MOL0     H71604   7.789  -0.088   4.283  0.8549 -1.4557 -0.8009
  519MOL0     H71605   7.571  -0.006   4.366  0.1870 -0.7319 -0.2209
  519MOL0     H71606   5.894   0.639   4.217 -2.6520  0.1013 -2.7874
  519MOL0     H71607   5.622   0.616   4.182  0.2302 -0.0805 -0.8360
  519MOL0     H71608   5.225   1.055   4.224  0.4843 -0.3445  1.8651
  519MOL0     H71609   5.010   1.049   4.122  2.8907  3.2356 -0.8617
  519MOL0     H71610   4.821   0.701   3.917 -2.2400 -0.0804  0.3821
  519MOL0     H71611   4.856   0.643   4.079 -0.5985 -2.6117 -2.3920
  519MOL0     H71612   4.662   0.737   4.170 -0.9723 -1.2101  0.4033
  519MOL0     H71613   4.628   0.620   4.043 -1.7539  1.0815 -1.8880
  519MOL0     H71614   4.631   0.932   4.023  1.2944 -0.0531 -2.5257
  519MOL0     H71615   4.584   0.828   3.888 -2.0494 -1.6274  0.3108
  519MOL0     H71616   4.437   0.862   4.149 -0.3564  1.7158 -1.1617
  519MOL0     H71617   4.383   0.759   4.004  0.1026 -0.3786  1.5706
  519MOL0     H71618   4.269   1.149   3.879  1.5754  2.4134 -0.3347
  519MOL0     H71619   5.063   0.650   3.982 -1.5448  0.9645 -0.2414
  519MOL0     H71620   5.288   0.536   4.097  1.2181 -0.6480 -0.9803
  519MOL0     H71621   5.301   0.590   3.931 -0.8660 -1.2961 -0.3223
  519MOL0     H71622   5.420   0.632   4.062 -0.0960 -0.7195  0.0126
  520MOL0     O71623   6.923  10.936   3.507 -0.3286  0.3583 -0.1399
  520MOL0     C71624   6.882  10.848   3.575  0.4188  0.8740  0.1168
  520MOL0     O71625   6.964  10.759   3.645 -0.1909 -0.2312  0.2004
  520MOL0     C71626   7.099  10.764   3.638 -1.0793 -0.4604 -0.3343
  520MOL0     C71627   7.153  10.733   3.761  0.6864  0.1643  0.2361
  520MOL0     C71628   7.291  10.722   3.783 -0.3892 -0.6165  0.1927
  520MOL0     C71629   7.376  10.729   3.674  0.2195  0.2391 -0.1452
  520MOL0     O71630   7.505  10.706   3.700  0.1402  0.0826 -0.0058
  520MOL0     C71631   7.606  10.786   3.649  0.4188 -0.2927  0.0877
  520MOL0     C71632   7.742  10.783   3.722  0.2803 -0.5790  0.2366
  520MOL0     C71633   7.786  10.640   3.726  0.3836  0.4902 -0.3055
  520MOL0     C71634   7.902  10.632   3.825 -0.8123 -0.0834  0.0784
  520MOL0     C71635   7.975  10.488   3.822  0.2716  0.2626 -0.7623
  520MOL0     C71636   8.124  10.500   3.857 -0.1607  0.1679 -1.5025
  520MOL0     C71637   8.211  10.583   3.758  0.5440 -0.7146 -0.4101
  520MOL0     C71638   8.212  10.534   3.614 -0.5231  0.0916  0.1065
  520MOL0     N71639   8.331  10.588   3.538  0.1165 -0.1845 -0.1753
  520MOL0     C71640   8.338  10.720   3.519 -0.4436 -0.0767  1.1372
  520MOL0     C71641   8.458  10.737   3.467 -0.6656 -0.4714 -0.3777
  520MOL0     C71642   8.515  10.869   3.415  0.0972  0.7568 -0.7701
  520MOL0     C71643   8.600  10.948   3.518  0.4640 -0.5595 -0.0898
  520MOL0     C71644   8.713  10.864   3.583  0.0047  0.4372  0.6755
  520MOL0     C71645   8.821  10.958   3.636 -0.7911 -0.4682  0.3422
  520MOL0     O71646   8.772  11.072   3.708  0.4234  0.5798 -0.2405
  520MOL0     C71647   8.861  11.174   3.739 -0.2774 -0.0158 -0.4814
  520MOL0     C71648   8.811  11.276   3.815  0.6695 -0.8666  0.0529
  520MOL0     C71649   8.888  11.390   3.849  0.2547  0.9445  0.5575
  520MOL0     C71650   8.834  11.498   3.933  0.3647 -0.1406 -0.5133
  520MOL0     C71651   9.030  11.393   3.812  0.5553  0.7543 -1.0659
  520MOL0     C71652   9.138  11.495   3.855  0.2603 -0.1867 -0.8864
  520MOL0     O71653   9.267  11.451   3.835 -0.6615  0.0471  0.1319
  520MOL0     C71654   9.379  11.529   3.867  0.1743  0.1780 -0.2667
  520MOL0     C71655   9.424  11.627   3.784 -0.0822 -0.6956 -0.0161
  520MOL0     C71656   9.541  11.700   3.801 -0.7859  0.9198 -0.8343
  520MOL0     C71657   9.620  11.673   3.918 -0.0860  0.3134  0.0266
  520MOL0     O71658   9.734  11.755   3.940 -0.2269  0.1505  0.4290
  520MOL0     C71659   9.830  11.711   4.036  0.5768  0.3414  0.5662
  520MOL0     C71660   9.933  11.813   4.013 -0.2161  0.5428 -0.1687
  520MOL0     C71661  10.037  11.815   4.124 -0.5958 -0.9966 -0.7843
  520MOL0     C71662  10.113  11.943   4.113 -1.2536 -0.8076  0.1580
  520MOL0     C71663  10.242  11.941   4.205 -0.2755  0.9348 -0.4528
  520MOL0     C71664  10.334  12.060   4.178 -0.0926 -0.0501 -0.8244
  520MOL0     C71665  10.463  12.040   4.261  0.1817  0.6337  0.3651
  520MOL0     C71666  10.549  12.168   4.243  0.5330  0.6722  1.1543
  520MOL0    Cl71667  10.610  12.168   4.073  0.1073 -0.6266 -0.2094
  520MOL0     C71668   9.573  11.574   4.002 -0.5033 -0.6704  1.1143
  520MOL0     C71669   9.460  11.501   3.974 -0.2995 -1.5542  1.0591
  520MOL0     O71670   9.109  11.605   3.903  1.0318 -0.0373 -0.3800
  520MOL0     C71671   9.076  11.291   3.734  0.0313  0.1025  0.1283
  520MOL0     C71672   8.997  11.181   3.702 -0.2429 -0.0966  0.0517
  520MOL0     N71673   8.525  10.615   3.460  0.0262  0.6488  0.4404
  520MOL0     N71674   8.447  10.524   3.500 -0.1448 -0.3259 -0.2318
  520MOL0     C71675   7.320  10.760   3.545  0.6320 -0.9551  0.0867
  520MOL0     C71676   7.178  10.772   3.529 -0.0779  0.0354  0.4334
  520MOL0     C71677   6.732  10.827   3.600 -1.5561 -0.5577  0.0538
  520MOL0     C71678   6.693  10.700   3.646  0.2371 -0.4280  0.3642
  520MOL0     C71679   6.562  10.682   3.675  0.9198  0.2269 -0.2395
  520MOL0     C71680   6.466  10.781   3.670  0.4296  0.0438  0.6452
  520MOL0     O71681   6.338  10.743   3.701 -0.0206  0.5560  0.1994
  520MOL0     C71682   6.237  10.842   3.693  0.0578 -0.7620  0.6417
  520MOL0     C71683   6.103  10.771   3.688 -0.0554 -0.3010  0.0455
  520MOL0     C71684   5.980  10.854   3.697 -0.6192 -0.2614  1.1024
  520MOL0     C71685   5.854  10.775   3.698 -0.4271  0.3896 -0.0869
  520MOL0     C71686   5.838  10.709   3.829  0.4667 -0.1998  0.3808
  520MOL0     C71687   5.817  10.648   3.935 -0.4777 -0.5660 -0.2860
  520MOL0     C71688   6.505  10.909   3.624 -0.2749  0.2000 -0.1037
  520MOL0     C71689   6.635  10.933   3.583 -0.2087 -0.0170 -0.3551
  520MOL0     C71690   6.661  11.067   3.536 -0.3140  0.0082  0.2201
  520MOL0     H71691   7.088  10.735   3.847  0.2247  2.6587 -0.1110
  520MOL0     H71692   7.339  10.693   3.876  0.0662  2.1517  0.9107
  520MOL0     H71693   7.581  10.893   3.649 -1.3008 -0.6516  1.3716
  520MOL0     H71694   7.622  10.746   3.549  0.3354  1.0795 -0.4889
  520MOL0     H71695   7.811  10.842   3.662 -0.0014 -1.2630 -0.7735
  520MOL0     H71696   7.733  10.823   3.824 -1.3205 -0.3398  0.0283
  520MOL0     H71697   7.702  10.573   3.748  2.1217 -0.9808  2.4082
  520MOL0     H71698   7.821  10.603   3.629  1.6641 -1.4272  0.8235
  520MOL0     H71699   7.977  10.705   3.793  1.2003 -1.4951  1.3889
  520MOL0     H71700   7.870  10.653   3.927  2.4044  1.2871  0.9320
  520MOL0     H71701   7.963  10.447   3.721 -0.8579 -0.0565 -0.5040
  520MOL0     H71702   7.925  10.414   3.885  0.5754  0.9078  0.2633
  520MOL0     H71703   8.122  10.550   3.955 -2.5771 -0.8117 -0.9784
  520MOL0     H71704   8.171  10.403   3.870  2.0325  1.1621 -1.5015
  520MOL0     H71705   8.314  10.567   3.792  0.5806  2.0589  1.0115
  520MOL0     H71706   8.199  10.691   3.769  0.5619 -0.7500 -0.0548
  520MOL0     H71707   8.215  10.425   3.618 -1.3240 -0.0159 -1.4988
  520MOL0     H71708   8.119  10.551   3.560 -0.2547  2.1328  0.2070
  520MOL0     H71709   8.255  10.788   3.536  0.8040  1.4465  1.3539
  520MOL0     H71710   8.435  10.932   3.374 -2.2305  0.0735  2.3569
  520MOL0     H71711   8.590  10.847   3.338 -0.0248  1.5346 -1.1204
  520MOL0     H71712   8.631  11.037   3.462 -0.4918  0.0495  0.3244
  520MOL0     H71713   8.541  10.987   3.602  1.5112  3.5215 -1.0189
  520MOL0     H71714   8.674  10.811   3.671  0.7093  1.3004  1.5221
  520MOL0     H71715   8.746  10.787   3.512 -0.7476 -0.2467  1.0427
  520MOL0     H71716   8.887  10.904   3.705  2.2550  1.9191 -0.5013
  520MOL0     H71717   8.882  10.993   3.552 -0.4755  2.8682  1.7940
  520MOL0     H71718   8.709  11.275   3.854 -0.1818 -0.9169 -2.0607
  520MOL0     H71719   8.890  11.515   4.025 -1.9057 -1.2796  1.1914
  520MOL0     H71720   8.727  11.485   3.955  0.0022  0.6610 -1.6829
  520MOL0     H71721   8.837  11.587   3.870 -2.7203 -0.4924 -1.3304
  520MOL0     H71722   9.370  11.648   3.692 -0.3377 -1.6601 -0.1002
  520MOL0     H71723   9.567  11.771   3.724  2.9265  2.4427  1.5448
  520MOL0     H71724   9.787  11.710   4.136  2.2958 -0.3023  1.3272
  520MOL0     H71725   9.871  11.613   4.011 -1.2038 -0.2122 -0.3334
  520MOL0     H71726   9.992  11.778   3.928 -1.0741  1.5556 -1.2204
  520MOL0     H71727   9.892  11.914   4.003  0.4526  0.9393  0.9306
  520MOL0     H71728  10.112  11.737   4.111  1.3790  0.7809 -0.6732
  520MOL0     H71729  10.002  11.813   4.228  0.2617  0.6140 -0.4223
  520MOL0     H71730  10.038  12.017   4.144 -0.7473 -0.1033 -0.2711
  520MOL0     H71731  10.139  11.963   4.009 -0.0627 -0.6784  0.4711
  520MOL0     H71732  10.213  11.937   4.310 -0.2241 -2.0356 -0.4727
  520MOL0     H71733  10.295  11.846   4.194 -2.2211 -0.2275 -0.1782
  520MOL0     H71734  10.305  12.157   4.220 -1.2855 -0.6703 -0.1877
  520MOL0     H71735  10.357  12.081   4.073 -0.5852 -0.1150 -0.9457
  520MOL0     H71736  10.529  11.961   4.224  1.1001  0.9117  1.3505
  520MOL0     H71737  10.445  12.043   4.369 -2.8219  1.5450 -0.0871
  520MOL0     H71738  10.636  12.173   4.310  1.0715 -0.5648  0.5871
  520MOL0     H71739  10.487  12.257   4.253 -0.3135  0.2423 -0.0602
  520MOL0     H71740   9.616  11.547   4.098 -0.0942  1.2992  1.5263
  520MOL0     H71741   9.433  11.414   4.034 -0.5010 -0.7058  2.2422
  520MOL0     H71742   9.179  11.286   3.699  0.0156  0.4377  0.0341
  520MOL0     H71743   9.038  11.099   3.645  0.9532 -0.1530  0.9497
  520MOL0     H71744   7.379  10.775   3.455 -0.8935 -0.9375 -0.9529
  520MOL0     H71745   7.133  10.798   3.434 -1.2233 -2.7128  0.1352
  520MOL0     H71746   6.770  10.626   3.666  0.5475  0.1385  1.3023
  520MOL0     H71747   6.522  10.594   3.726 -0.7373 -0.8065 -3.1248
  520MOL0     H71748   6.246  10.905   3.782  3.3239  0.2247 -0.2496
  520MOL0     H71749   6.254  10.900   3.602 -2.2665  0.9461  1.1927
  520MOL0     H71750   6.106  10.699   3.770  0.4160 -0.7123 -0.3240
  520MOL0     H71751   6.101  10.712   3.596  0.2298  0.6471 -0.5903
  520MOL0     H71752   5.985  10.911   3.791 -2.2049 -1.6393  2.0806
  520MOL0     H71753   5.978  10.914   3.606  2.0653 -0.7824  0.6062
  520MOL0     H71754   5.852  10.692   3.626 -1.4213 -0.4425  0.8689
  520MOL0     H71755   5.765  10.834   3.676 -1.7130 -1.1547  0.7936
  520MOL0     H71756   5.807  10.586   4.022  1.5991  0.2173  0.6030
  520MOL0     H71757   6.439  10.994   3.640 -0.5822 -0.4289  2.3905
  520MOL0     H71758   6.675  11.058   3.427 -2.1720  1.1970 -0.1783
  520MOL0     H71759   6.575  11.133   3.553 -0.3094 -0.5082  2.5442
  520MOL0     H71760   6.743  11.118   3.586  1.4252 -0.9802 -1.4690
  521MOL0     O71761   7.270  11.127   8.794 -0.0779 -0.6168  0.4256
  521MOL0     C71762   7.222  11.235   8.767 -0.0317 -0.0599  0.2283
  521MOL0     O71763   7.290  11.346   8.735  0.5916  0.3688 -0.1153
  521MOL0     C71764   7.419  11.345   8.694 -0.0924  0.1913  0.2106
  521MOL0     C71765   7.509  11.284   8.786 -0.5251  0.3708  0.0951
  521MOL0     C71766   7.647  11.288   8.744 -0.1462  0.4089 -0.2069
  521MOL0     C71767   7.686  11.331   8.618  0.4594  1.2518  0.3306
  521MOL0     O71768   7.813  11.341   8.569  0.7388 -0.0604 -0.5163
  521MOL0     C71769   7.929  11.342   8.656 -0.2398 -0.2799  0.1068
  521MOL0     C71770   8.062  11.370   8.575  0.1272 -0.2143  0.1691
  521MOL0     C71771   8.184  11.350   8.655 -0.6579 -0.1196  0.0667
  521MOL0     C71772   8.315  11.365   8.580  0.7019  0.1919  0.2099
  521MOL0     C71773   8.429  11.342   8.666 -0.2367  0.0293 -0.6831
  521MOL0     C71774   8.562  11.370   8.591 -0.2591  0.1642  0.0188
  521MOL0     C71775   8.685  11.340   8.683  1.0487  0.1461  0.1322
  521MOL0     C71776   8.783  11.453   8.659  0.0335  0.0281 -0.3516
  521MOL0     N71777   8.909  11.408   8.703  0.5474  0.0388  0.2900
  521MOL0     C71778   9.028  11.483   8.701 -0.3824 -0.3792 -0.2060
  521MOL0     C71779   9.120  11.391   8.749 -0.2473 -0.0388 -0.0725
  521MOL0     C71780   9.264  11.418   8.781 -0.1425 -0.4968  0.1059
  521MOL0     C71781   9.365  11.385   8.672  0.5332 -0.0071  0.4790
  521MOL0     C71782   9.502  11.449   8.682  0.3360 -0.0626 -0.4488
  521MOL0     C71783   9.614  11.381   8.593 -0.3819 -0.0956 -0.0627
  521MOL0     O71784   9.742  11.436   8.639 -0.1336 -0.5990 -0.5882
  521MOL0     C71785   9.853  11.356   8.629 -0.0598  0.1921  0.6634
  521MOL0     C71786   9.878  11.246   8.541 -0.1119 -0.7723 -0.1568
  521MOL0     C71787   9.995  11.173   8.536 -0.0750  0.4174 -0.8497
  521MOL0     C71788  10.011  11.055   8.447  0.9215  0.1233 -0.1704
  521MOL0     C71789  10.099  11.217   8.613 -0.0462 -0.0269 -0.5602
  521MOL0     C71790  10.232  11.149   8.614 -0.1121 -0.4575  0.0696
  521MOL0     O71791  10.265  11.048   8.528  0.1907  0.0577 -0.4150
  521MOL0     C71792  10.396  10.986   8.547  0.4067 -0.3816 -0.6877
  521MOL0     C71793  10.510  11.007   8.466  0.0851 -0.7004  0.9052
  521MOL0     C71794  10.625  10.925   8.482  0.4471 -0.1269 -0.6544
  521MOL0     C71795  10.625  10.827   8.589 -0.2164  0.0926  0.2908
  521MOL0     O71796  10.740  10.764   8.622 -0.2276  0.0128 -0.2554
  521MOL0     C71797  10.871  10.826   8.591  1.0896  0.8882 -0.4543
  521MOL0     C71798  10.953  10.754   8.690  0.0655 -0.5131  0.8407
  521MOL0     C71799  10.957  10.602   8.657 -0.1355 -0.1012  0.3135
  521MOL0     C71800  11.088  10.542   8.722 -1.0993  0.6048  0.3807
  521MOL0     C71801  11.091  10.388   8.726  0.0127 -0.1187  0.1186
  521MOL0     C71802  11.220  10.339   8.797 -0.0688 -0.5553 -0.9197
  521MOL0     C71803  11.339  10.339   8.702  0.0328  1.2475  0.9903
  521MOL0     C71804  11.457  10.253   8.744  0.1744  0.5455  0.0177
  521MOL0    Cl71805  11.480  10.286   8.915 -0.1632 -0.0540 -0.5323
  521MOL0     C71806  10.508  10.801   8.656  0.4070 -0.1574 -1.2605
  521MOL0     C71807  10.398  10.886   8.643 -0.8205 -0.0060 -0.6557
  521MOL0     O71808  10.317  11.193   8.698  0.3231 -0.5293  1.0015
  521MOL0     C71809  10.077  11.327   8.701 -0.4542 -0.0359  0.0255
  521MOL0     C71810   9.959  11.397   8.708 -0.0585  0.6158  0.7522
  521MOL0     N71811   9.056  11.268   8.766 -0.1419  0.9076 -0.0457
  521MOL0     N71812   8.937  11.285   8.744 -0.7012  0.7563 -0.5645
  521MOL0     C71813   7.585  11.385   8.532 -0.1827 -0.5218 -0.2021
  521MOL0     C71814   7.455  11.389   8.564  0.0963  0.9266 -0.6877
  521MOL0     C71815   7.072  11.235   8.756  0.7764 -0.0867 -0.2092
  521MOL0     C71816   6.998  11.138   8.828 -0.0122 -0.2043 -0.0523
  521MOL0     C71817   6.861  11.115   8.808  0.2020 -0.0404 -0.5556
  521MOL0     C71818   6.786  11.215   8.741 -0.3762 -0.0387 -0.0109
  521MOL0     O71819   6.657  11.208   8.720 -0.0373  0.6322  0.4693
  521MOL0     C71820   6.573  11.108   8.777  0.1529 -0.1690 -0.2350
  521MOL0     C71821   6.429  11.122   8.719  0.3014  0.3554 -0.8217
  521MOL0     C71822   6.380  11.265   8.758 -0.6245 -0.0542 -0.5175
  521MOL0     C71823   6.235  11.276   8.726  0.0012  0.4713 -0.2279
  521MOL0     C71824   6.139  11.182   8.785 -0.4524  0.0038  0.6459
  521MOL0     C71825   6.063  11.098   8.827  0.0045 -0.5342  0.9451
  521MOL0     C71826   6.860  11.316   8.674 -0.1216 -0.2095 -1.0414
  521MOL0     C71827   6.999  11.326   8.673  0.1214 -0.8378 -0.3776
  521MOL0     C71828   7.059  11.426   8.579 -0.0464  0.6261  0.1209
  521MOL0     H71829   7.473  11.239   8.878  1.3759 -0.2694  0.5686
  521MOL0     H71830   7.714  11.232   8.808 -0.7234 -0.3099 -0.2197
  521MOL0     H71831   7.934  11.245   8.708  1.4863  0.5920  1.6678
  521MOL0     H71832   7.925  11.413   8.739  1.5414  2.5258 -2.0432
  521MOL0     H71833   8.072  11.297   8.494  4.4851 -0.0129  0.3081
  521MOL0     H71834   8.060  11.474   8.542  3.7946  0.3250  1.2082
  521MOL0     H71835   8.196  11.414   8.743  1.4037  0.1821 -0.3723
  521MOL0     H71836   8.189  11.245   8.684  0.7830 -0.0197  0.2552
  521MOL0     H71837   8.313  11.289   8.500 -0.4145  1.4272 -0.9869
  521MOL0     H71838   8.315  11.465   8.537 -1.6947  0.6655  1.1361
  521MOL0     H71839   8.433  11.238   8.700  3.0284  0.0624 -0.6343
  521MOL0     H71840   8.429  11.405   8.755  1.2857 -0.5146 -0.2654
  521MOL0     H71841   8.577  11.297   8.512  0.9708 -2.8325  2.8081
  521MOL0     H71842   8.568  11.470   8.547  0.3721  1.5370  2.9478
  521MOL0     H71843   8.717  11.236   8.670 -1.3383 -0.6804  0.2947
  521MOL0     H71844   8.652  11.334   8.788  1.1330 -1.5898  0.0829
  521MOL0     H71845   8.810  11.474   8.556 -0.3759  0.0104 -0.4633
  521MOL0     H71846   8.756  11.548   8.707  1.0489  0.6733 -1.0287
  521MOL0     H71847   9.047  11.575   8.647 -1.3952 -2.2564 -4.1801
  521MOL0     H71848   9.306  11.380   8.875  2.7588 -0.9679 -1.2592
  521MOL0     H71849   9.255  11.526   8.797  1.1066 -0.6134  1.9448
  521MOL0     H71850   9.379  11.277   8.682 -1.3620 -0.4067 -0.7510
  521MOL0     H71851   9.338  11.411   8.569  0.8602  0.8237  0.5983
  521MOL0     H71852   9.503  11.556   8.660  1.9194  0.5941  2.2745
  521MOL0     H71853   9.532  11.437   8.787 -1.7338 -0.8036  0.1166
  521MOL0     H71854   9.617  11.278   8.628 -0.1819  0.9495  3.4219
  521MOL0     H71855   9.604  11.380   8.484 -0.5384 -2.7577 -0.0889
  521MOL0     H71856   9.802  11.212   8.471 -0.2405 -1.2730  0.2144
  521MOL0     H71857  10.070  11.082   8.359 -0.1847 -0.1033 -1.0117
  521MOL0     H71858   9.914  11.015   8.416  0.8770 -0.5655  0.8305
  521MOL0     H71859  10.054  10.970   8.500 -2.1178 -2.2226 -1.1879
  521MOL0     H71860  10.511  11.081   8.386  1.0858 -0.3009  1.2707
  521MOL0     H71861  10.713  10.940   8.420 -1.4344 -0.6578 -3.6845
  521MOL0     H71862  10.898  10.806   8.487  1.1244 -0.5191 -0.1972
  521MOL0     H71863  10.879  10.933   8.609  0.0686  0.8470  0.3082
  521MOL0     H71864  11.055  10.793   8.685 -0.2285  0.1280 -1.2797
  521MOL0     H71865  10.918  10.774   8.792  1.5549  1.9734  0.9350
  521MOL0     H71866  10.949  10.584   8.549  1.7379  0.2374  0.0796
  521MOL0     H71867  10.872  10.551   8.702  1.2562 -1.5124  1.4407
  521MOL0     H71868  11.109  10.585   8.820 -0.7852  0.6866  0.2783
  521MOL0     H71869  11.172  10.567   8.657 -0.1314 -3.2131 -0.0401
  521MOL0     H71870  11.000  10.360   8.780  0.1651  2.0105  1.6234
  521MOL0     H71871  11.086  10.357   8.622 -0.1310 -0.9069  0.3591
  521MOL0     H71872  11.201  10.235   8.824 -3.7218  0.2690  0.2186
  521MOL0     H71873  11.236  10.398   8.888 -1.5869 -1.6174  0.0714
  521MOL0     H71874  11.375  10.443   8.704  1.3223  0.8548 -0.1588
  521MOL0     H71875  11.310  10.322   8.598  1.2090 -1.8107  1.0704
  521MOL0     H71876  11.546  10.275   8.686  0.4795 -3.4143 -1.3074
  521MOL0     H71877  11.425  10.151   8.722 -1.4193  0.8050  0.9659
  521MOL0     H71878  10.504  10.723   8.731 -1.1235 -0.1439 -1.2934
  521MOL0     H71879  10.303  10.879   8.695 -0.5815 -1.3794 -0.3569
  521MOL0     H71880  10.160  11.367   8.759  1.6033 -1.8232 -1.5106
  521MOL0     H71881   9.935  11.474   8.780 -1.1743 -0.3720  1.4780
  521MOL0     H71882   7.621  11.418   8.435  2.4690 -2.9413 -0.1954
  521MOL0     H71883   7.379  11.441   8.507 -0.2140  2.7000  1.1778
  521MOL0     H71884   7.048  11.070   8.897  1.4340  1.0041  0.1259
  521MOL0     H71885   6.816  11.030   8.858 -0.6017 -0.2344 -1.5810
  521MOL0     H71886   6.613  11.012   8.744  1.0725  0.0512  0.1954
  521MOL0     H71887   6.569  11.104   8.886  0.8589 -3.0828 -0.2468
  521MOL0     H71888   6.377  11.039   8.768  2.1913 -0.0269  0.6508
  521MOL0     H71889   6.428  11.088   8.615  1.7216 -0.7549 -0.4858
  521MOL0     H71890   6.410  11.306   8.855  0.3885  3.3029 -2.1042
  521MOL0     H71891   6.429  11.329   8.684 -0.6583 -1.3029 -1.6570
  521MOL0     H71892   6.211  11.269   8.619 -1.0298 -1.6771  0.0938
  521MOL0     H71893   6.213  11.375   8.766  1.0572  0.5216  0.2607
  521MOL0     H71894   5.988  11.029   8.857 -0.5007  0.0583  1.0721
  521MOL0     H71895   6.792  11.386   8.626 -0.8628  2.2615  3.0922
  521MOL0     H71896   7.143  11.378   8.528  1.0963  1.6460  0.9820
  521MOL0     H71897   6.991  11.457   8.499  0.0043  0.4220 -0.0019
  521MOL0     H71898   7.091  11.515   8.633 -1.2735 -0.0145  1.9894
  522MOL0     O71899   4.766   5.576   4.685  0.4534  0.5219  0.2828
  522MOL0     C71900   4.814   5.461   4.697 -0.2880  0.0741  0.6559
  522MOL0     O71901   4.946   5.427   4.695  0.2254  0.1281 -0.7748
  522MOL0     C71902   5.053   5.510   4.668 -0.0946 -0.0115  0.7176
  522MOL0     C71903   5.111   5.595   4.766 -0.3898 -0.3936 -0.3250
  522MOL0     C71904   5.226   5.676   4.726  0.7234 -0.8281 -0.6802
  522MOL0     C71905   5.281   5.676   4.606  0.6575  0.4425 -0.2147
  522MOL0     O71906   5.385   5.751   4.566 -0.5273 -0.6930 -0.6190
  522MOL0     C71907   5.387   5.884   4.623 -0.7833 -0.5178 -0.7797
  522MOL0     C71908   5.469   5.983   4.538  0.2031  0.5840  0.1955
  522MOL0     C71909   5.621   5.944   4.529 -0.6492 -0.1914 -0.1499
  522MOL0     C71910   5.691   6.069   4.468  0.2009  0.0705 -0.7426
  522MOL0     C71911   5.839   6.067   4.451  0.1386 -0.2132 -0.8419
  522MOL0     C71912   5.909   6.076   4.591  0.5879 -0.2776  0.8771
  522MOL0     C71913   6.063   6.078   4.569  0.5944 -0.5907 -0.4083
  522MOL0     C71914   6.141   6.065   4.695 -0.3629  0.5095  0.4238
  522MOL0     N71915   6.283   6.054   4.655  0.6189  0.3266  0.0925
  522MOL0     C71916   6.337   5.949   4.593 -0.0045  0.1893  0.1109
  522MOL0     C71917   6.463   5.988   4.566 -0.1096 -0.3178  0.1912
  522MOL0     C71918   6.566   5.904   4.493 -0.5933 -0.3788  0.9967
  522MOL0     C71919   6.647   5.994   4.403 -0.4538 -0.4300 -1.7350
  522MOL0     C71920   6.722   5.904   4.314 -0.1840 -0.4933 -0.4661
  522MOL0     C71921   6.828   5.991   4.252  0.4805 -0.4598  0.2350
  522MOL0     O71922   6.936   6.010   4.347 -0.3494 -0.0122  0.1067
  522MOL0     C71923   7.044   6.085   4.291 -0.0388 -0.2195 -0.6607
  522MOL0     C71924   7.041   6.164   4.172 -0.0846 -0.5132 -0.3688
  522MOL0     C71925   7.144   6.253   4.136  0.5667  0.2045 -0.2109
  522MOL0     C71926   7.131   6.335   4.006  0.7738 -0.3887  0.8071
  522MOL0     C71927   7.253   6.268   4.226 -0.2892 -0.7256 -0.1243
  522MOL0     C71928   7.368   6.369   4.213 -0.2044  1.0932  0.3970
  522MOL0     O71929   7.378   6.433   4.095 -0.2072 -0.9463 -0.4542
  522MOL0     C71930   7.478   6.510   4.038 -0.6144  0.5419 -0.7642
  522MOL0     C71931   7.579   6.578   4.115 -0.8668  0.1991 -0.1782
  522MOL0     C71932   7.660   6.677   4.058  0.2095  0.2520  0.8883
  522MOL0     C71933   7.645   6.699   3.924  0.1820 -0.2774  0.1228
  522MOL0     O71934   7.716   6.796   3.860  0.6406 -0.0212  0.2909
  522MOL0     C71935   7.793   6.890   3.931  0.2791  0.2661  0.2161
  522MOL0     C71936   7.939   6.859   3.933 -0.4393 -0.6132  0.5418
  522MOL0     C71937   7.972   6.718   3.978 -0.3597  0.2226  1.3177
  522MOL0     C71938   8.127   6.696   3.951 -0.0499  0.3427  0.5628
  522MOL0     C71939   8.180   6.546   3.978 -0.2706 -0.3529 -0.3203
  522MOL0     C71940   8.325   6.530   3.959  0.5398 -0.1797 -0.0685
  522MOL0     C71941   8.368   6.391   4.009  0.4645  0.7482  0.5395
  522MOL0     C71942   8.525   6.379   4.016  0.7570  0.2688  1.0383
  522MOL0    Cl71943   8.600   6.508   4.119  0.0760  0.2595 -0.2526
  522MOL0     C71944   7.565   6.621   3.842 -0.0844 -0.0886  0.0557
  522MOL0     C71945   7.480   6.529   3.897 -0.7741 -0.2509 -0.5408
  522MOL0     O71946   7.451   6.380   4.301  0.2807 -0.2501  0.3288
  522MOL0     C71947   7.256   6.187   4.336  0.0453  0.2962 -0.3810
  522MOL0     C71948   7.159   6.092   4.368  0.2476 -0.4278  0.1405
  522MOL0     N71949   6.482   6.109   4.617 -0.5896 -0.8384 -0.3862
  522MOL0     N71950   6.375   6.150   4.672  0.7562 -0.5875  0.5199
  522MOL0     C71951   5.226   5.590   4.508  0.2760 -0.3030 -0.0037
  522MOL0     C71952   5.112   5.504   4.536  0.3266 -0.3280 -0.4929
  522MOL0     C71953   4.720   5.351   4.716 -1.0950  0.0285 -0.5658
  522MOL0     C71954   4.750   5.263   4.815 -0.4987  0.2591 -0.3713
  522MOL0     C71955   4.665   5.157   4.851 -0.6892  0.2448  0.3857
  522MOL0     C71956   4.541   5.148   4.787  0.2628  0.2841 -0.0018
  522MOL0     O71957   4.462   5.047   4.830 -0.1615  0.0905  0.1024
  522MOL0     C71958   4.341   5.014   4.766 -1.0125 -0.3142 -0.4158
  522MOL0     C71959   4.229   5.115   4.811  0.4016  0.8242 -0.4991
  522MOL0     C71960   4.097   5.086   4.727 -0.5963 -0.5906 -0.2494
  522MOL0     C71961   4.109   5.152   4.588  0.0286  0.2124  0.1150
  522MOL0     C71962   4.165   5.065   4.488  0.0590 -0.3571  0.2440
  522MOL0     C71963   4.207   4.993   4.394  0.0836 -0.1573  0.1078
  522MOL0     C71964   4.510   5.239   4.688 -0.7893 -0.7510  0.9825
  522MOL0     C71965   4.595   5.346   4.644 -0.5885  0.2367  0.7924
  522MOL0     C71966   4.565   5.434   4.525  0.1796  0.0985 -0.2557
  522MOL0     H71967   5.059   5.601   4.861 -1.8324 -0.3693 -1.0935
  522MOL0     H71968   5.259   5.751   4.797  1.2578  0.6622 -2.4211
  522MOL0     H71969   5.429   5.881   4.724  0.9156  1.6778 -1.3436
  522MOL0     H71970   5.284   5.919   4.637  0.3460  1.7777  3.4961
  522MOL0     H71971   5.429   5.995   4.437  0.5729  1.1800  0.1143
  522MOL0     H71972   5.470   6.076   4.596  1.3889  1.2003 -0.7675
  522MOL0     H71973   5.648   5.912   4.630 -1.8194 -1.8440 -0.3119
  522MOL0     H71974   5.645   5.856   4.468  1.8738 -2.1099  3.2442
  522MOL0     H71975   5.643   6.098   4.374 -3.8018  2.3403  1.7018
  522MOL0     H71976   5.654   6.151   4.531 -0.0633 -0.2277 -0.4997
  522MOL0     H71977   5.885   6.145   4.390  0.5336  0.6097  0.4803
  522MOL0     H71978   5.869   5.974   4.401 -3.5221  0.2676 -4.4436
  522MOL0     H71979   5.868   6.162   4.645 -1.3867 -1.5293  1.4707
  522MOL0     H71980   5.889   5.981   4.642  1.0030 -0.8335  0.0364
  522MOL0     H71981   6.093   6.155   4.497 -0.0543 -1.6778 -1.9059
  522MOL0     H71982   6.089   5.985   4.518 -0.8963 -0.0834 -2.2203
  522MOL0     H71983   6.118   6.149   4.761 -0.0304  0.3260  0.7817
  522MOL0     H71984   6.113   5.968   4.739  1.0954 -0.3073 -0.3591
  522MOL0     H71985   6.282   5.859   4.568 -0.0254  0.6319 -1.5636
  522MOL0     H71986   6.503   5.841   4.430 -0.3987 -0.4560  0.8808
  522MOL0     H71987   6.629   5.846   4.561  1.3185  1.1188  0.5976
  522MOL0     H71988   6.576   6.057   4.347 -1.8516 -0.2506  0.1674
  522MOL0     H71989   6.710   6.063   4.461 -0.3329 -1.4802 -0.5916
  522MOL0     H71990   6.758   5.814   4.365 -0.2734 -0.0475  0.3893
  522MOL0     H71991   6.660   5.865   4.233  0.6394  2.0341 -2.4733
  522MOL0     H71992   6.865   5.928   4.171 -1.4492  0.5736 -1.5507
  522MOL0     H71993   6.781   6.076   4.202 -0.2642 -2.2044 -2.2092
  522MOL0     H71994   6.963   6.166   4.097  1.4220 -0.7629 -1.9887
  522MOL0     H71995   7.139   6.443   4.022 -2.7774  0.3059 -1.0924
  522MOL0     H71996   7.040   6.311   3.951  1.0818  1.7525 -0.7669
  522MOL0     H71997   7.211   6.312   3.935  0.3233  1.8365 -0.5383
  522MOL0     H71998   7.590   6.572   4.223  0.6823 -0.4586 -0.3533
  522MOL0     H71999   7.729   6.741   4.113 -1.2244  1.8693  0.8941
  522MOL0     H72000   7.773   6.980   3.872 -2.8268 -1.4946 -1.6561
  522MOL0     H72001   7.755   6.906   4.032 -1.0478 -2.4809  0.2364
  522MOL0     H72002   7.981   6.855   3.832 -0.1841  0.5123  0.5931
  522MOL0     H72003   7.990   6.929   3.999  0.9725 -0.7951 -0.3224
  522MOL0     H72004   7.918   6.644   3.919 -0.9199  2.2587 -0.9153
  522MOL0     H72005   7.941   6.709   4.082 -3.1668 -1.7395  0.4449
  522MOL0     H72006   8.177   6.773   4.009 -0.6264  0.8906  0.3541
  522MOL0     H72007   8.153   6.719   3.847 -1.6203 -2.7914 -0.6539
  522MOL0     H72008   8.148   6.531   4.081 -2.0213  0.7261 -0.6548
  522MOL0     H72009   8.118   6.475   3.922 -1.3488 -0.0597  0.4633
  522MOL0     H72010   8.375   6.614   4.008 -0.3439  0.5998 -0.4584
  522MOL0     H72011   8.343   6.542   3.852 -2.0751  3.9771 -0.2668
  522MOL0     H72012   8.329   6.314   3.943  4.6532 -2.2432  1.1191
  522MOL0     H72013   8.336   6.368   4.111 -0.2821 -1.2186 -0.0898
  522MOL0     H72014   8.565   6.389   3.914 -0.0441 -0.9724  0.5893
  522MOL0     H72015   8.558   6.284   4.060 -0.4389  0.5788  2.6938
  522MOL0     H72016   7.569   6.631   3.734 -3.2540 -0.9890 -0.2572
  522MOL0     H72017   7.424   6.459   3.837  0.6597 -0.1757 -2.0513
  522MOL0     H72018   7.350   6.176   4.390  1.2065  0.2328 -2.3236
  522MOL0     H72019   7.178   6.024   4.450 -0.1630 -2.6759 -1.5381
  522MOL0     H72020   5.251   5.588   4.403  0.9017 -3.9408  0.0838
  522MOL0     H72021   5.060   5.444   4.463 -2.1514 -0.4507  1.2470
  522MOL0     H72022   4.842   5.272   4.872 -0.6806  1.9182 -0.2718
  522MOL0     H72023   4.707   5.088   4.924  1.0725 -0.8951 -1.6038
  522MOL0     H72024   4.359   5.019   4.658  1.2831  0.7829 -0.0358
  522MOL0     H72025   4.316   4.913   4.800 -0.4176 -0.7981 -1.3672
  522MOL0     H72026   4.266   5.218   4.814 -1.5147  1.5468  1.8139
  522MOL0     H72027   4.195   5.083   4.910 -0.3804 -1.0309 -1.3181
  522MOL0     H72028   4.085   4.979   4.708  3.8807 -0.7648 -3.8211
  522MOL0     H72029   4.009   5.131   4.774  0.0093  0.7664 -0.3721
  522MOL0     H72030   4.157   5.250   4.583 -1.0444  0.9571  2.9616
  522MOL0     H72031   4.006   5.164   4.554  0.6104  0.9722 -1.5223
  522MOL0     H72032   4.246   4.924   4.322  1.5746  0.6827  0.0766
  522MOL0     H72033   4.412   5.230   4.641  0.3394 -0.3164 -1.6300
  522MOL0     H72034   4.481   5.394   4.467  1.1863 -1.7988 -0.4890
  522MOL0     H72035   4.528   5.529   4.564 -0.6247 -0.3979  0.2178
  522MOL0     H72036   4.648   5.470   4.463  0.3277  0.5061  0.1726
  523MOL0     O72037   8.929  11.015   8.135 -0.5347 -0.1085  0.0004
  523MOL0     C72038   8.867  11.053   8.233  0.5542  0.3409 -0.3708
  523MOL0     O72039   8.931  11.123   8.333  0.5221  0.3152 -0.1686
  523MOL0     C72040   9.052  11.178   8.309  0.1731 -0.3912 -0.5262
  523MOL0     C72041   9.081  11.259   8.196  0.6286 -0.5730  0.5646
  523MOL0     C72042   9.208  11.323   8.186  1.1424  0.1175 -0.5630
  523MOL0     C72043   9.304  11.304   8.286 -1.0445  0.3249  0.1766
  523MOL0     O72044   9.430  11.360   8.283  0.0334  0.1121  0.9463
  523MOL0     C72045   9.446  11.470   8.191 -0.1232  0.0845 -0.0406
  523MOL0     C72046   9.573  11.548   8.219  0.3105 -0.2633 -0.7317
  523MOL0     C72047   9.699  11.451   8.199 -0.2024  0.7618  0.1881
  523MOL0     C72048   9.831  11.513   8.235 -0.2370  0.0991 -0.0120
  523MOL0     C72049   9.950  11.433   8.182 -0.4886 -0.1176  0.1813
  523MOL0     C72050  10.082  11.510   8.206 -0.2185 -0.3735  0.4781
  523MOL0     C72051  10.208  11.469   8.121  0.1559  0.6856  0.2264
  523MOL0     C72052  10.254  11.338   8.183  0.4120  0.0159  0.2765
  523MOL0     N72053  10.384  11.353   8.249  0.7046 -0.3634  1.0867
  523MOL0     C72054  10.400  11.371   8.378  0.1366 -0.3973  0.0553
  523MOL0     C72055  10.535  11.403   8.382  0.2793 -0.2588 -0.6826
  523MOL0     C72056  10.619  11.452   8.498  0.6383  0.8944  0.4837
  523MOL0     C72057  10.642  11.332   8.597  0.4914 -0.6894  0.2574
  523MOL0     C72058  10.751  11.228   8.570  0.0797 -0.0171 -0.2489
  523MOL0     C72059  10.877  11.308   8.543  0.1674  0.3409  0.0396
  523MOL0     O72060  10.988  11.231   8.592 -0.3572  0.3758 -0.4726
  523MOL0     C72061  11.054  11.144   8.515 -0.5185  0.5261 -0.1452
  523MOL0     C72062  11.021  11.118   8.376 -0.2263 -0.3344 -0.5078
  523MOL0     C72063  11.083  11.014   8.305 -0.1992  0.0353 -0.1190
  523MOL0     C72064  11.037  10.987   8.161 -0.4955  0.8679  0.2479
  523MOL0     C72065  11.179  10.932   8.365 -0.2648 -0.1394  0.3084
  523MOL0     C72066  11.240  10.806   8.303 -0.2079  0.3854  0.1511
  523MOL0     O72067  11.279  10.712   8.395  0.1930 -0.3853 -0.4471
  523MOL0     C72068  11.333  10.594   8.347 -0.4302 -0.5192 -0.4534
  523MOL0     C72069  11.465  10.590   8.292  1.1020 -0.0248  0.1418
  523MOL0     C72070  11.525  10.471   8.259 -0.6154  0.9966  0.1447
  523MOL0     C72071  11.449  10.357   8.260 -0.2405 -0.6766  0.6612
  523MOL0     O72072  11.498  10.231   8.232 -0.0032 -0.0072 -0.6259
  523MOL0     C72073  11.587  10.224   8.109 -0.2557 -0.3259 -0.3091
  523MOL0     C72074  11.501  10.223   7.985  0.3357  0.0659  0.0589
  523MOL0     C72075  11.567  10.176   7.855  0.0061  0.9978  0.6607
  523MOL0     C72076  11.466  10.145   7.741  0.7747  0.9506 -0.7246
  523MOL0     C72077  11.521  10.138   7.603 -0.1662 -0.0832  0.2136
  523MOL0     C72078  11.670  10.117   7.587 -0.3671  0.0238 -0.7458
  523MOL0     C72079  11.703  10.089   7.441  0.0066  0.1528 -0.0413
  523MOL0     C72080  11.839  10.032   7.418  0.7823  0.3393  0.2300
  523MOL0    Cl72081  11.952  10.153   7.470  0.1478 -0.0855 -0.0309
  523MOL0     C72082  11.316  10.359   8.311 -0.3208  0.2301  0.3431
  523MOL0     C72083  11.257  10.476   8.354  0.5886 -0.3697 -0.5346
  523MOL0     O72084  11.247  10.790   8.181  0.1959  0.3714  0.1085
  523MOL0     C72085  11.219  10.961   8.495 -0.7142  0.4162 -0.3637
  523MOL0     C72086  11.158  11.059   8.568 -0.1463 -0.3483 -0.3081
  523MOL0     N72087  10.585  11.406   8.257 -0.3705  0.6712 -0.1929
  523MOL0     N72088  10.495  11.379   8.174  0.2019  0.2616  0.1953
  523MOL0     C72089   9.276  11.223   8.398  0.0448 -0.5171  0.9979
  523MOL0     C72090   9.150  11.165   8.405  0.4323 -0.0038  0.0051
  523MOL0     C72091   8.716  11.043   8.244 -0.0739 -0.0865 -0.1368
  523MOL0     C72092   8.661  11.059   8.370  0.6045 -0.6172  0.1382
  523MOL0     C72093   8.524  11.064   8.400 -0.5228 -0.7775  0.4044
  523MOL0     C72094   8.437  11.041   8.290  0.3820  0.0827 -0.5879
  523MOL0     O72095   8.300  11.025   8.309  0.0465 -0.2086 -0.7166
  523MOL0     C72096   8.217  10.946   8.212 -0.2172 -0.7462 -0.1160
  523MOL0     C72097   8.238  10.797   8.207 -0.5172  0.7241  0.9348
  523MOL0     C72098   8.122  10.734   8.120  0.5471  0.0487  0.6371
  523MOL0     C72099   7.986  10.740   8.177  1.2138  0.7304 -0.4463
  523MOL0     C72100   7.902  10.624   8.129 -1.5058  0.1993  0.4299
  523MOL0     C72101   7.833  10.522   8.103 -0.4724  0.0550  0.6772
  523MOL0     C72102   8.489  11.035   8.163 -0.4244  0.2242 -0.5439
  523MOL0     C72103   8.625  11.038   8.138 -0.7661 -0.5191 -0.3007
  523MOL0     C72104   8.673  11.029   7.995 -0.2823  0.5145 -0.3167
  523MOL0     H72105   9.002  11.264   8.122 -1.6298 -0.6849  2.8310
  523MOL0     H72106   9.236  11.379   8.097  0.1143 -1.0369 -1.6686
  523MOL0     H72107   9.359  11.535   8.199  0.5817  1.1205 -0.6071
  523MOL0     H72108   9.446  11.438   8.086 -0.5712 -1.3911  0.3839
  523MOL0     H72109   9.583  11.633   8.151  0.3386 -0.9331 -1.5839
  523MOL0     H72110   9.561  11.583   8.322  1.4568 -0.9664 -0.3301
  523MOL0     H72111   9.680  11.361   8.258 -0.5673  1.6138  1.4035
  523MOL0     H72112   9.711  11.418   8.095  0.0277  3.8589 -0.8787
  523MOL0     H72113   9.821  11.604   8.176 -0.7936 -1.2785 -2.1700
  523MOL0     H72114   9.839  11.527   8.343  0.4644  0.7212 -0.1415
  523MOL0     H72115   9.950  11.404   8.077  0.7848 -3.5269  0.9787
  523MOL0     H72116   9.954  11.339   8.239  3.0457  0.2594  0.8063
  523MOL0     H72117  10.058  11.615   8.188 -2.1287 -0.9365 -0.5866
  523MOL0     H72118  10.104  11.513   8.313 -2.9678  3.9968  1.1652
  523MOL0     H72119  10.286  11.544   8.139 -1.8106  2.8855  0.0092
  523MOL0     H72120  10.183  11.462   8.015 -0.1954 -0.1990  0.3612
  523MOL0     H72121  10.176  11.300   8.249  0.7135  3.6602  2.9841
  523MOL0     H72122  10.258  11.264   8.102 -4.3633 -0.1869 -0.0456
  523MOL0     H72123  10.328  11.357   8.458  0.8825 -0.2804  0.7567
  523MOL0     H72124  10.574  11.536   8.551  0.3647  0.9936  0.0951
  523MOL0     H72125  10.713  11.484   8.450  0.0582 -1.2534 -2.3526
  523MOL0     H72126  10.658  11.368   8.699  0.0134  2.5064 -0.6742
  523MOL0     H72127  10.552  11.271   8.610 -0.1941  0.7887  3.5303
  523MOL0     H72128  10.765  11.160   8.655 -1.4616  0.4938  0.4603
  523MOL0     H72129  10.730  11.162   8.486  0.5852  0.9607 -1.1688
  523MOL0     H72130  10.880  11.348   8.441 -0.3315 -0.1866 -0.1841
  523MOL0     H72131  10.879  11.393   8.612  2.1735  0.0979  0.3437
  523MOL0     H72132  10.942  11.181   8.335 -0.7591  1.3329  2.7199
  523MOL0     H72133  11.107  11.028   8.088 -0.8302  0.1253 -0.5065
  523MOL0     H72134  10.938  11.033   8.156 -0.6945  1.1681  3.8812
  523MOL0     H72135  11.030  10.880   8.140  0.9321  0.8613 -0.2975
  523MOL0     H72136  11.520  10.683   8.290 -1.4693  1.5723  0.0179
  523MOL0     H72137  11.630  10.471   8.233  0.0132 -3.1688  1.9431
  523MOL0     H72138  11.662  10.304   8.106  1.7666 -2.1910 -1.3932
  523MOL0     H72139  11.642  10.131   8.124 -0.7005 -0.7712 -1.4125
  523MOL0     H72140  11.421  10.149   7.998 -1.4541  1.5446 -1.7514
  523MOL0     H72141  11.460  10.322   7.964 -0.6162  0.5212  3.5232
  523MOL0     H72142  11.634  10.092   7.877 -1.1064  0.1512  0.9289
  523MOL0     H72143  11.625  10.267   7.838  0.9556  0.6626  1.9123
  523MOL0     H72144  11.386  10.219   7.742  0.1664  0.3647 -2.3591
  523MOL0     H72145  11.426  10.044   7.759  0.5297  0.9075 -1.4756
  523MOL0     H72146  11.461  10.073   7.538  1.2601 -1.1073 -0.1203
  523MOL0     H72147  11.503  10.234   7.554  0.9555 -1.2542 -2.7365
  523MOL0     H72148  11.705  10.038   7.654 -0.0157 -0.9308 -2.0184
  523MOL0     H72149  11.720  10.205   7.630  0.5344 -0.8650  0.0697
  523MOL0     H72150  11.686  10.174   7.374 -2.8689  1.1500  1.7651
  523MOL0     H72151  11.631  10.012   7.411 -2.1682  2.4086 -1.1024
  523MOL0     H72152  11.856  10.013   7.312 -2.3521  0.7065 -0.4252
  523MOL0     H72153  11.855   9.939   7.474  1.2879  0.2308 -0.0857
  523MOL0     H72154  11.258  10.268   8.323  1.5889 -1.0008  0.4958
  523MOL0     H72155  11.160  10.477   8.403  1.0812 -3.4992  0.7743
  523MOL0     H72156  11.291  10.895   8.541 -2.7899 -1.7983 -0.1000
  523MOL0     H72157  11.175  11.070   8.674  5.0549  1.4038 -1.0272
  523MOL0     H72158   9.349  11.194   8.472  0.8661  0.6190  0.6598
  523MOL0     H72159   9.116  11.101   8.485 -2.5169  1.3396 -0.0437
  523MOL0     H72160   8.730  11.061   8.454  0.4207  0.3499  0.2776
  523MOL0     H72161   8.491  11.059   8.503  0.8598 -2.9450  0.8106
  523MOL0     H72162   8.113  10.962   8.242  0.9920  5.4229  2.3348
  523MOL0     H72163   8.226  10.980   8.108  1.2715 -0.0637  0.2100
  523MOL0     H72164   8.227  10.756   8.308  1.3952 -2.6294 -0.0733
  523MOL0     H72165   8.338  10.767   8.174 -1.3359  0.7986 -1.8200
  523MOL0     H72166   8.111  10.781   8.022 -2.5571  0.1308  0.9257
  523MOL0     H72167   8.153  10.629   8.111  0.1989 -0.1041  1.1793
  523MOL0     H72168   7.940  10.835   8.149  0.0987 -0.2326 -2.0244
  523MOL0     H72169   7.984  10.754   8.285 -1.4016  1.0806 -0.4978
  523MOL0     H72170   7.771  10.438   8.080 -1.4603  1.8192 -4.7501
  523MOL0     H72171   8.426  11.043   8.075 -0.1007 -0.1284 -0.8092
  523MOL0     H72172   8.711  10.928   7.981  0.8246  0.5377  1.9850
  523MOL0     H72173   8.594  11.055   7.924  0.2101  0.2600 -0.9607
  523MOL0     H72174   8.747  11.108   7.986 -2.2508  2.8218  1.9487
  524MOL0     O72175  10.795   0.214   7.187 -0.6230  0.0976 -0.8234
  524MOL0     C72176  10.781   0.308   7.111  0.7655  0.5249 -0.5090
  524MOL0     O72177  10.876   0.366   7.036 -0.3310  0.3061 -0.1394
  524MOL0     C72178  10.998   0.303   7.054  0.4402 -0.5111  1.1408
  524MOL0     C72179  11.019   0.188   6.985 -0.2943  0.8145 -0.4726
  524MOL0     C72180  11.150   0.129   6.996  0.4599  0.2604  0.7162
  524MOL0     C72181  11.245   0.187   7.075  0.2653 -0.5713 -0.9125
  524MOL0     O72182  11.366   0.132   7.094 -0.1821 -0.0715 -0.6245
  524MOL0     C72183  11.419   0.011   7.029  0.1021 -0.6145 -0.6193
  524MOL0     C72184  11.577   0.034   7.032  0.4963 -0.2013 -0.4370
  524MOL0     C72185  11.648   0.055   7.163 -0.4632 -0.6077  0.3023
  524MOL0     C72186  11.643  -0.068   7.255  0.0191  0.0900 -0.1780
  524MOL0     C72187  11.738  -0.049   7.374 -0.5049 -0.6145 -0.3490
  524MOL0     C72188  11.760  -0.175   7.439 -0.2427  0.0345 -0.3724
  524MOL0     C72189  11.828  -0.155   7.574 -0.0150  0.1599 -0.3521
  524MOL0     C72190  11.982  -0.121   7.561  0.7192  0.2200  0.1544
  524MOL0     N72191  12.044  -0.098   7.691  0.5323  0.3326 -0.0386
  524MOL0     C72192  12.129  -0.178   7.759 -0.2101 -0.3288 -0.1131
  524MOL0     C72193  12.151  -0.112   7.875  0.2123 -0.2042  0.1092
  524MOL0     C72194  12.231  -0.166   7.991 -0.4351  0.3165 -0.1182
  524MOL0     C72195  12.378  -0.161   7.955  0.1144  0.1641 -0.1475
  524MOL0     C72196  12.419  -0.279   7.870  0.0868  0.6505 -0.9447
  524MOL0     C72197  12.565  -0.256   7.832 -0.2125 -0.1443 -0.1955
  524MOL0     O72198  12.665  -0.261   7.940  0.2574 -0.3269 -0.3527
  524MOL0     C72199  12.800  -0.233   7.915 -0.5056 -0.5287 -0.4084
  524MOL0     C72200  12.834  -0.112   7.850  0.1532 -0.0960 -0.1032
  524MOL0     C72201  12.968  -0.067   7.845  0.1085  0.0251 -0.4752
  524MOL0     C72202  12.994   0.065   7.785 -0.1377 -0.0549 -1.0115
  524MOL0     C72203  13.076  -0.148   7.895  0.4269  0.2852 -0.3751
  524MOL0     C72204  13.223  -0.103   7.914 -0.8376  0.5578  0.1538
  524MOL0     O72205  13.288  -0.128   8.041  0.3621 -0.2203 -0.0423
  524MOL0     C72206  13.422  -0.098   8.061 -0.0687  0.2344 -0.4144
  524MOL0     C72207  13.477  -0.172   8.174 -0.4455 -0.5196 -0.4778
  524MOL0     C72208  13.618  -0.167   8.208  0.3281 -0.0155  0.2152
  524MOL0     C72209  13.699  -0.080   8.133  0.5769 -0.0918  0.0124
  524MOL0     O72210  13.832  -0.065   8.174  0.4478  0.0027 -0.5214
  524MOL0     C72211  13.915  -0.181   8.172 -0.0744 -0.1535  0.1676
  524MOL0     C72212  14.051  -0.153   8.234 -0.5864 -0.1941 -0.3362
  524MOL0     C72213  14.125  -0.287   8.239 -0.0014 -0.6666  0.1070
  524MOL0     C72214  14.203  -0.317   8.102 -0.1502 -0.6153  0.6776
  524MOL0     C72215  14.291  -0.439   8.111  0.0620 -0.2714  0.1120
  524MOL0     C72216  14.217  -0.567   8.130  0.2209 -0.6064  0.6215
  524MOL0     C72217  14.297  -0.697   8.154 -0.2397  0.4679 -0.3468
  524MOL0     C72218  14.197  -0.819   8.171 -0.7272 -0.2349  0.1139
  524MOL0    Cl72219  14.292  -0.973   8.165 -0.1743  0.4772  0.0031
  524MOL0     C72220  13.658  -0.010   8.025  0.4399 -0.2828  0.5175
  524MOL0     C72221  13.517  -0.013   7.992  0.8015  0.1680  0.8238
  524MOL0     O72222  13.275  -0.042   7.819  0.2090 -0.3848  0.0203
  524MOL0     C72223  13.040  -0.271   7.952  0.2261  0.8464  0.1070
  524MOL0     C72224  12.902  -0.312   7.966 -0.4000 -0.3055 -1.1325
  524MOL0     N72225  12.077   0.009   7.884  0.1781  0.2067  0.7507
  524MOL0     N72226  12.016   0.012   7.774 -0.0127 -0.1248  0.0840
  524MOL0     C72227  11.222   0.306   7.138  0.7081 -0.2104 -0.1815
  524MOL0     C72228  11.097   0.361   7.129  1.3070  0.2663  0.1896
  524MOL0     C72229  10.642   0.355   7.115  0.2980  1.3303  0.2882
  524MOL0     C72230  10.540   0.273   7.071 -0.3663 -0.1848 -0.5121
  524MOL0     C72231  10.413   0.323   7.062 -0.5498  0.3559 -0.2441
  524MOL0     C72232  10.389   0.456   7.091 -0.4224  0.5641 -0.3687
  524MOL0     O72233  10.258   0.498   7.090 -0.1169  0.1462  0.6116
  524MOL0     C72234  10.228   0.641   7.110 -0.2188  0.1979  0.7429
  524MOL0     C72235  10.218   0.674   7.258  0.3974 -0.3212  0.0349
  524MOL0     C72236  10.122   0.581   7.326 -0.1623  0.1011 -0.3669
  524MOL0     C72237   9.983   0.567   7.262  1.0939 -0.1675  0.3107
  524MOL0     C72238   9.918   0.697   7.236 -0.0147 -0.1850 -0.2176
  524MOL0     C72239   9.872   0.815   7.232 -1.5434  0.7797  1.3974
  524MOL0     C72240  10.494   0.545   7.136  0.2471  0.3190  0.8019
  524MOL0     C72241  10.625   0.488   7.145  1.1627  0.6507  0.2065
  524MOL0     C72242  10.745   0.562   7.211 -0.2178 -1.0288 -0.5900
  524MOL0     H72243  10.952   0.131   6.921 -0.5270 -1.0100  1.3076
  524MOL0     H72244  11.164   0.031   6.950  4.0551  1.0414 -0.1692
  524MOL0     H72245  11.393  -0.006   6.924  1.2129  0.2428 -1.0578
  524MOL0     H72246  11.388  -0.074   7.090  2.9570  0.1119  2.0982
  524MOL0     H72247  11.632  -0.043   6.977  0.9563  1.0956 -1.8388
  524MOL0     H72248  11.603   0.127   6.982  1.4410  0.5921  1.4175
  524MOL0     H72249  11.752   0.082   7.140 -0.4334  0.7167  1.8296
  524MOL0     H72250  11.594   0.135   7.214 -2.2972 -0.8296 -1.1746
  524MOL0     H72251  11.544  -0.093   7.293  1.1770 -0.0586  2.9832
  524MOL0     H72252  11.667  -0.160   7.199  1.2370 -0.8796  1.7992
  524MOL0     H72253  11.696   0.025   7.442  0.5430  0.3388 -0.7099
  524MOL0     H72254  11.832  -0.006   7.338 -0.7640 -0.5538 -0.9618
  524MOL0     H72255  11.662  -0.216   7.461 -0.8043  1.1220 -0.7623
  524MOL0     H72256  11.819  -0.242   7.375  1.4220 -1.5156  2.5766
  524MOL0     H72257  11.824  -0.250   7.628 -0.2889  1.2091  1.5607
  524MOL0     H72258  11.779  -0.073   7.629 -0.3371 -0.0080 -0.3882
  524MOL0     H72259  12.034  -0.201   7.506  0.5448 -0.4606  0.9498
  524MOL0     H72260  11.991  -0.030   7.502  0.2104 -0.2260 -0.6141
  524MOL0     H72261  12.169  -0.276   7.736 -0.0469 -0.2258 -0.2697
  524MOL0     H72262  12.192  -0.265   8.017 -2.5809 -0.0139 -3.9075
  524MOL0     H72263  12.205  -0.105   8.078  0.2360 -0.6873  0.8134
  524MOL0     H72264  12.402  -0.077   7.889  1.9566 -0.9822 -1.0165
  524MOL0     H72265  12.437  -0.163   8.047  0.6624 -1.2997 -0.5015
  524MOL0     H72266  12.394  -0.373   7.920 -0.1270  0.1079 -2.0235
  524MOL0     H72267  12.362  -0.292   7.777  1.6531 -2.1262 -1.6173
  524MOL0     H72268  12.583  -0.335   7.759 -1.4389 -0.7478  0.1510
  524MOL0     H72269  12.569  -0.166   7.769  0.4725 -0.8477 -1.1976
  524MOL0     H72270  12.751  -0.050   7.818 -1.8614 -1.2454  2.4914
  524MOL0     H72271  13.036   0.039   7.688  1.7683 -1.8897  0.2159
  524MOL0     H72272  13.067   0.120   7.845 -1.2371  1.9346 -1.4182
  524MOL0     H72273  12.904   0.127   7.785  0.4937  1.0503  1.8729
  524MOL0     H72274  13.412  -0.245   8.222  0.6519 -2.6094 -1.9787
  524MOL0     H72275  13.645  -0.244   8.280  3.0883  1.2965  0.6907
  524MOL0     H72276  13.858  -0.257   8.225 -3.0487  2.0446  0.3568
  524MOL0     H72277  13.920  -0.212   8.067 -1.1476 -1.4287  0.4778
  524MOL0     H72278  14.118  -0.090   8.176 -0.2867  1.4133  1.6199
  524MOL0     H72279  14.033  -0.113   8.335 -0.2118 -1.4482  0.2485
  524MOL0     H72280  14.050  -0.365   8.253 -2.7973  1.6761 -0.7003
  524MOL0     H72281  14.197  -0.296   8.321 -2.0630  1.8061  2.4006
  524MOL0     H72282  14.269  -0.231   8.089 -1.0194  0.0146  0.2843
  524MOL0     H72283  14.129  -0.323   8.021  0.7793 -0.2860 -0.2132
  524MOL0     H72284  14.359  -0.439   8.025  0.5272  1.1575  0.4454
  524MOL0     H72285  14.357  -0.433   8.198 -1.1371  1.1548  0.9731
  524MOL0     H72286  14.157  -0.585   8.040  0.5304  0.0605  0.2729
  524MOL0     H72287  14.141  -0.555   8.209  1.1603  2.6714  1.1739
  524MOL0     H72288  14.366  -0.682   8.237 -2.2078  1.5080  1.2099
  524MOL0     H72289  14.360  -0.712   8.066  1.5873  0.4143  0.9327
  524MOL0     H72290  14.131  -0.823   8.084 -0.3603 -1.1935 -0.1327
  524MOL0     H72291  14.149  -0.809   8.269  1.3144 -1.0731  1.2588
  524MOL0     H72292  13.723   0.062   7.975  1.5923  0.7009  3.2245
  524MOL0     H72293  13.472   0.048   7.913  1.3068  0.1218  0.4956
  524MOL0     H72294  13.120  -0.336   7.984 -1.4727 -0.6689  1.4480
  524MOL0     H72295  12.868  -0.403   8.015  4.6450 -1.3933  0.9962
  524MOL0     H72296  11.307   0.350   7.190  2.0266 -0.5723 -1.9040
  524MOL0     H72297  11.091   0.459   7.175  0.4205 -0.0615  0.7920
  524MOL0     H72298  10.560   0.169   7.045  2.4334 -0.3610  1.9127
  524MOL0     H72299  10.330   0.258   7.037  0.5961 -2.9202  3.4649
  524MOL0     H72300  10.302   0.709   7.068 -1.2574  0.7317 -0.2951
  524MOL0     H72301  10.136   0.652   7.052 -2.1640 -4.0584  2.6256
  524MOL0     H72302  10.196   0.781   7.270  1.0750 -0.0195 -1.1952
  524MOL0     H72303  10.311   0.666   7.315  0.2581 -0.3878  0.2500
  524MOL0     H72304  10.168   0.483   7.339  0.8355  0.6037  0.0499
  524MOL0     H72305  10.102   0.601   7.432  1.7788 -0.5549  0.1596
  524MOL0     H72306   9.913   0.508   7.323 -1.2530 -0.9803 -2.8623
  524MOL0     H72307   9.984   0.517   7.164 -0.4531  0.4420 -0.0584
  524MOL0     H72308   9.847   0.916   7.208  1.2558  1.5669  1.4673
  524MOL0     H72309  10.466   0.644   7.172 -3.2951 -0.1846 -0.1993
  524MOL0     H72310  10.780   0.497   7.292  2.5689 -0.1389 -0.9651
  524MOL0     H72311  10.826   0.572   7.138  1.1212 -0.9093  0.8379
  524MOL0     H72312  10.722   0.661   7.252  1.7562 -1.7237  2.6185
  525MOL0     O72313   9.453   0.291   3.379  0.6687  0.1113 -0.4748
  525MOL0     C72314   9.427   0.330   3.268  0.0878 -0.0330 -0.0147
  525MOL0     O72315   9.519   0.379   3.186  0.2475  0.4521 -0.5162
  525MOL0     C72316   9.655   0.369   3.216 -0.5339  0.1076  0.2044
  525MOL0     C72317   9.722   0.238   3.228 -0.1986 -0.7765 -0.8255
  525MOL0     C72318   9.860   0.238   3.241 -0.2997  0.1342 -0.4825
  525MOL0     C72319   9.934   0.353   3.216 -0.0405 -0.7430 -0.1102
  525MOL0     O72320  10.074   0.360   3.207 -0.0932  0.0225 -0.2650
  525MOL0     C72321  10.140   0.242   3.263  0.3925 -0.0872 -0.1090
  525MOL0     C72322  10.292   0.266   3.284  0.1238  0.1864  0.2663
  525MOL0     C72323  10.351   0.296   3.143  0.6018  0.3712 -0.3761
  525MOL0     C72324  10.496   0.340   3.155  0.3961 -0.4147  0.2730
  525MOL0     C72325  10.581   0.291   3.039 -0.8280 -0.4591  0.5648
  525MOL0     C72326  10.716   0.371   3.018  0.6303  0.5937 -0.2012
  525MOL0     C72327  10.782   0.300   2.907  0.3887 -0.6902  0.0817
  525MOL0     C72328  10.927   0.348   2.883  0.2318  0.3406  0.0408
  525MOL0     N72329  10.981   0.268   2.772  0.8327 -0.4520 -0.7258
  525MOL0     C72330  11.106   0.205   2.777  0.0464  0.5631  0.3006
  525MOL0     C72331  11.132   0.169   2.647 -0.3374  0.3105 -0.0582
  525MOL0     C72332  11.251   0.094   2.595 -0.4927  0.6433 -0.5815
  525MOL0     C72333  11.390   0.166   2.605  0.1405 -0.7514 -0.8160
  525MOL0     C72334  11.478   0.086   2.503  0.6807  0.6955  0.1407
  525MOL0     C72335  11.613   0.163   2.475 -0.2114  0.3867  0.0802
  525MOL0     O72336  11.705   0.160   2.587 -0.2665  0.3077 -0.0301
  525MOL0     C72337  11.840   0.139   2.569  0.2355  1.0320  0.6581
  525MOL0     C72338  11.906   0.045   2.645  0.2611 -0.1618  0.3099
  525MOL0     C72339  12.036   0.001   2.625 -0.4261 -0.6211 -0.4331
  525MOL0     C72340  12.092  -0.105   2.714  0.3811 -0.0222 -0.5231
  525MOL0     C72341  12.115   0.074   2.529 -0.0634  0.0365 -0.2546
  525MOL0     C72342  12.254   0.054   2.497  0.7583 -0.2852 -0.0986
  525MOL0     O72343  12.315   0.166   2.448 -0.6800  0.7210 -0.5184
  525MOL0     C72344  12.443   0.160   2.397 -0.7959  0.0489 -0.6326
  525MOL0     C72345  12.550   0.094   2.456 -0.9633  0.4116 -0.4121
  525MOL0     C72346  12.686   0.124   2.423  0.5821  0.3582 -0.3720
  525MOL0     C72347  12.705   0.211   2.310  0.3180 -0.1766  0.3179
  525MOL0     O72348  12.827   0.260   2.276  0.4918 -0.4377  0.6549
  525MOL0     C72349  12.944   0.189   2.285  0.2502  0.4639  0.1104
  525MOL0     C72350  12.983   0.083   2.180  0.8089  0.6684  0.7669
  525MOL0     C72351  13.107   0.002   2.213  1.4686  0.6966  0.3974
  525MOL0     C72352  13.245   0.080   2.182 -0.0072  0.8686 -0.1322
  525MOL0     C72353  13.269   0.098   2.034  0.2587 -0.0497  0.4088
  525MOL0     C72354  13.296  -0.028   1.955 -0.3922 -0.5162  0.0760
  525MOL0     C72355  13.413  -0.106   2.016 -0.2195  0.8314  0.8481
  525MOL0     C72356  13.473  -0.202   1.909 -0.0445  0.0719  0.4890
  525MOL0    Cl72357  13.548  -0.111   1.771 -0.0543  0.4491  0.2062
  525MOL0     C72358  12.598   0.273   2.245 -0.2119  0.8310  0.0092
  525MOL0     C72359  12.468   0.241   2.281 -0.3479 -0.2886 -0.5365
  525MOL0     O72360  12.293  -0.059   2.497 -0.0616 -0.5018  0.0687
  525MOL0     C72361  12.051   0.180   2.455 -0.4267  0.1491  0.5454
  525MOL0     C72362  11.913   0.207   2.469 -0.3033  0.3929  0.2527
  525MOL0     N72363  11.024   0.221   2.571 -0.5612 -0.3498 -0.7276
  525MOL0     N72364  10.952   0.291   2.644 -0.3796 -0.3609  0.1148
  525MOL0     C72365   9.862   0.475   3.203 -0.1297 -0.4500 -0.2212
  525MOL0     C72366   9.724   0.490   3.204  0.1215 -0.1133  0.1486
  525MOL0     C72367   9.295   0.300   3.209 -0.1189 -0.4649  0.4323
  525MOL0     C72368   9.255   0.374   3.093  0.5776 -0.3085  0.5502
  525MOL0     C72369   9.122   0.359   3.030  0.0851  0.1991 -0.9536
  525MOL0     C72370   9.037   0.267   3.082  0.6522  0.2586 -0.1931
  525MOL0     O72371   8.913   0.255   3.032  0.2491 -0.1886  1.0045
  525MOL0     C72372   8.828   0.141   3.021 -0.0027 -0.1027 -0.3258
  525MOL0     C72373   8.881   0.039   2.916  0.3740  0.2999 -0.6506
  525MOL0     C72374   8.857   0.095   2.779  0.2409 -0.2029 -0.6037
  525MOL0     C72375   8.979   0.184   2.729  0.3995 -0.1335  0.8330
  525MOL0     C72376   8.941   0.257   2.596 -0.0334  0.8630 -0.6030
  525MOL0     C72377   8.896   0.319   2.508 -0.4342  0.3249 -0.1790
  525MOL0     C72378   9.071   0.194   3.198 -0.2951 -0.3388  0.0549
  525MOL0     C72379   9.194   0.212   3.263  0.1343  0.6248 -0.3585
  525MOL0     C72380   9.202   0.145   3.402  0.0121 -0.2333 -0.5694
  525MOL0     H72381   9.659   0.150   3.233  0.5283 -1.2556  0.5613
  525MOL0     H72382   9.914   0.144   3.244 -0.5004 -0.0014 -1.0700
  525MOL0     H72383  10.130   0.161   3.189 -1.1313  2.4752 -2.9075
  525MOL0     H72384  10.108   0.221   3.366 -0.9051  2.6032  0.1178
  525MOL0     H72385  10.311   0.348   3.354  0.1680  0.9679 -0.6467
  525MOL0     H72386  10.334   0.179   3.336 -1.3425 -0.0677  1.0819
  525MOL0     H72387  10.324   0.209   3.082 -1.7816 -0.4055  1.6442
  525MOL0     H72388  10.298   0.386   3.113 -0.6822  0.7636  2.7007
  525MOL0     H72389  10.492   0.449   3.147  2.1326 -0.4188 -1.1316
  525MOL0     H72390  10.530   0.316   3.256 -1.2358 -2.0277  0.4886
  525MOL0     H72391  10.525   0.308   2.947 -0.3885 -3.7732 -0.4639
  525MOL0     H72392  10.597   0.184   3.054  2.7116 -0.1606 -0.0678
  525MOL0     H72393  10.702   0.479   3.012 -0.8664  0.8087  3.8297
  525MOL0     H72394  10.779   0.356   3.106  4.1043  1.2369 -2.3878
  525MOL0     H72395  10.728   0.319   2.814  1.0471  2.1787  0.1769
  525MOL0     H72396  10.795   0.194   2.931  0.3820 -0.4342  1.2688
  525MOL0     H72397  10.916   0.453   2.853 -1.8565  1.0285  2.8163
  525MOL0     H72398  10.990   0.331   2.970  1.0580 -1.6044 -0.8652
  525MOL0     H72399  11.167   0.193   2.866 -0.7974  1.4493  1.0306
  525MOL0     H72400  11.230   0.075   2.489 -0.5254  0.4032 -0.5320
  525MOL0     H72401  11.265  -0.000   2.649  2.1720 -0.2456 -2.5676
  525MOL0     H72402  11.393   0.267   2.564  0.6802 -0.6881 -0.6256
  525MOL0     H72403  11.434   0.172   2.705 -1.8546 -0.5463  0.0888
  525MOL0     H72404  11.503  -0.011   2.547  0.0538  0.3670 -0.2012
  525MOL0     H72405  11.432   0.081   2.404  0.9482  2.9385 -0.1507
  525MOL0     H72406  11.663   0.130   2.384 -1.6635 -0.6621 -0.3683
  525MOL0     H72407  11.599   0.270   2.456 -0.0688  0.1588 -1.4025
  525MOL0     H72408  11.840   0.002   2.719 -2.0617  1.2941 -0.8043
  525MOL0     H72409  12.031  -0.141   2.797  1.7502  0.0835  0.5891
  525MOL0     H72410  12.179  -0.061   2.765  0.2075  0.0391 -0.2747
  525MOL0     H72411  12.124  -0.186   2.648  0.4728  0.6387 -1.3085
  525MOL0     H72412  12.540   0.020   2.535 -1.1559  0.0279 -0.7940
  525MOL0     H72413  12.772   0.096   2.484 -1.6061  0.6699  3.1773
  525MOL0     H72414  13.017   0.270   2.271 -0.5229  1.1015 -0.3195
  525MOL0     H72415  12.955   0.154   2.388 -5.4492 -0.6570  0.6864
  525MOL0     H72416  12.897   0.018   2.165  1.1510  0.9080 -3.6653
  525MOL0     H72417  12.983   0.120   2.077 -2.2669 -1.8591 -0.2914
  525MOL0     H72418  13.101  -0.096   2.165  0.0601  0.6873  0.5441
  525MOL0     H72419  13.103  -0.020   2.320 -1.9410  0.2225  0.2718
  525MOL0     H72420  13.332   0.029   2.223 -0.4965 -1.3034 -1.6071
  525MOL0     H72421  13.234   0.179   2.228  0.2139  1.6908 -1.7878
  525MOL0     H72422  13.184   0.143   1.982  0.2335  0.5633  0.9737
  525MOL0     H72423  13.355   0.164   2.016  0.0300 -0.2215 -1.5791
  525MOL0     H72424  13.315   0.007   1.853 -1.3333 -1.0125 -0.2795
  525MOL0     H72425  13.208  -0.091   1.945 -0.9609  0.6183 -2.8928
  525MOL0     H72426  13.381  -0.170   2.098  0.6066 -0.1863  0.4037
  525MOL0     H72427  13.496  -0.046   2.055  2.5227 -0.8678 -1.8323
  525MOL0     H72428  13.387  -0.262   1.878  1.5324 -1.8215 -0.4505
  525MOL0     H72429  13.543  -0.270   1.959  0.4050  0.5968  0.5850
  525MOL0     H72430  12.626   0.334   2.160  0.6102  3.0267  1.7643
  525MOL0     H72431  12.383   0.276   2.224 -2.7632 -3.3412  0.8806
  525MOL0     H72432  12.111   0.242   2.389  1.6386 -1.7671  0.5206
  525MOL0     H72433  11.876   0.289   2.408 -0.2106 -0.3457 -0.8128
  525MOL0     H72434   9.915   0.568   3.184 -1.9100  0.1836 -2.4326
  525MOL0     H72435   9.672   0.583   3.184  0.1475 -0.3568 -1.0841
  525MOL0     H72436   9.319   0.455   3.060  2.0426 -2.0544 -1.2044
  525MOL0     H72437   9.109   0.414   2.938  0.3355 -0.2660 -1.2772
  525MOL0     H72438   8.823   0.088   3.117 -1.2710  1.7977  0.7175
  525MOL0     H72439   8.724   0.168   3.001  0.1656 -0.4551 -1.8128
  525MOL0     H72440   8.818  -0.049   2.925  1.7820 -0.6752  0.0852
  525MOL0     H72441   8.981  -0.005   2.928  0.5324  0.6479 -0.6666
  525MOL0     H72442   8.835   0.013   2.710  0.5840  0.7389 -1.8694
  525MOL0     H72443   8.771   0.163   2.784  1.5192  1.4053  0.3411
  525MOL0     H72444   9.071   0.124   2.721 -0.7956 -2.0644  0.8018
  525MOL0     H72445   8.992   0.258   2.808 -0.0219  0.3846  0.4194
  525MOL0     H72446   8.873   0.394   2.435  2.3409  2.3037  0.8188
  525MOL0     H72447   8.996   0.130   3.244  0.6873 -1.3006  0.3539
  525MOL0     H72448   9.108   0.104   3.439 -0.3931 -0.1822 -1.4941
  525MOL0     H72449   9.284   0.073   3.402 -0.8081 -1.2451  1.4311
  525MOL0     H72450   9.220   0.225   3.475 -2.0416 -0.7449  0.5798
  526MOL0     O72451   0.751   4.479   1.714  0.1097 -1.2480 -0.2767
  526MOL0     C72452   0.704   4.598   1.712  0.3394 -0.0815  0.1600
  526MOL0     O72453   0.773   4.720   1.725 -0.0170 -0.4064  0.7126
  526MOL0     C72454   0.905   4.714   1.682 -0.7386  0.9324 -0.9931
  526MOL0     C72455   0.939   4.751   1.553 -0.3486 -0.3779  0.3751
  526MOL0     C72456   1.076   4.750   1.514 -0.4261  0.6237  1.1176
  526MOL0     C72457   1.177   4.718   1.600  0.1399 -0.1372  0.3415
  526MOL0     O72458   1.302   4.724   1.551  0.4582  0.0166  0.4216
  526MOL0     C72459   1.405   4.775   1.634 -0.1473  0.2780 -0.7050
  526MOL0     C72460   1.530   4.743   1.564 -0.3318  0.0651  0.3261
  526MOL0     C72461   1.655   4.779   1.639  0.4043  0.3236  0.6164
  526MOL0     C72462   1.778   4.774   1.547 -0.5316 -0.5035 -0.2783
  526MOL0     C72463   1.796   4.882   1.456 -0.5151 -0.7885  0.6121
  526MOL0     C72464   1.930   4.905   1.390 -1.0093 -0.0715 -0.0820
  526MOL0     C72465   1.934   4.903   1.241 -0.3736 -0.4368  0.7004
  526MOL0     C72466   2.067   4.939   1.181 -0.0698  0.0575 -0.4807
  526MOL0     N72467   2.083   4.865   1.057 -0.1679  0.1657 -0.5552
  526MOL0     C72468   2.147   4.741   1.044 -0.2884 -0.4207 -0.4937
  526MOL0     C72469   2.128   4.693   0.921 -0.0125 -0.6665  0.0353
  526MOL0     C72470   2.178   4.562   0.856 -0.1779 -0.2914  0.2909
  526MOL0     C72471   2.327   4.536   0.850  0.4019 -0.3960  0.4412
  526MOL0     C72472   2.400   4.617   0.738 -1.3530  0.9043 -0.2427
  526MOL0     C72473   2.467   4.754   0.777 -0.4046  0.2406  0.5535
  526MOL0     O72474   2.557   4.740   0.889 -0.1718 -0.0854 -0.3754
  526MOL0     C72475   2.663   4.827   0.878  0.1409  0.2670  0.5410
  526MOL0     C72476   2.670   4.967   0.916  0.2517  0.2387 -0.2447
  526MOL0     C72477   2.788   5.046   0.899 -0.0880 -0.3851 -0.5829
  526MOL0     C72478   2.785   5.173   0.975 -0.2688 -0.7019 -0.1554
  526MOL0     C72479   2.902   4.992   0.831 -0.1473 -1.0105  0.0380
  526MOL0     C72480   3.032   5.062   0.821  0.9374  0.2310  0.5023
  526MOL0     O72481   3.116   5.012   0.732 -0.3434 -0.8030 -0.3803
  526MOL0     C72482   3.228   5.085   0.683  0.6585  1.2259  0.5770
  526MOL0     C72483   3.239   5.102   0.542 -0.2015 -0.4330 -0.2253
  526MOL0     C72484   3.338   5.188   0.477 -0.4533  0.3376 -0.3881
  526MOL0     C72485   3.424   5.269   0.561  0.8228 -0.2915 -0.3108
  526MOL0     O72486   3.515   5.368   0.524  0.0950  0.7552  0.6014
  526MOL0     C72487   3.571   5.378   0.393  0.3142  0.2709 -0.3215
  526MOL0     C72488   3.714   5.447   0.383  0.5707  0.0497  1.1959
  526MOL0     C72489   3.821   5.376   0.469  0.9506  0.6324  1.0996
  526MOL0     C72490   3.876   5.244   0.397  0.5602 -0.3324  0.3172
  526MOL0     C72491   3.995   5.184   0.468 -0.1066  0.2042  0.3198
  526MOL0     C72492   3.948   5.096   0.589  0.0658 -0.7935  0.7525
  526MOL0     C72493   4.066   5.025   0.648 -0.9333  0.6102  0.5234
  526MOL0     C72494   4.039   4.926   0.770  0.9507  0.2674  0.0720
  526MOL0    Cl72495   4.194   4.842   0.816 -0.3735 -0.4166  0.1738
  526MOL0     C72496   3.403   5.246   0.702 -1.1533  0.1531 -0.3766
  526MOL0     C72497   3.321   5.150   0.757  0.3956  0.4419 -0.4664
  526MOL0     O72498   3.054   5.160   0.886  0.1404  0.3399  0.4755
  526MOL0     C72499   2.890   4.855   0.787  0.0115 -0.0961 -0.3884
  526MOL0     C72500   2.779   4.778   0.819 -0.5312 -0.9049  0.5889
  526MOL0     N72501   2.052   4.796   0.858 -0.5190 -0.6547 -0.5256
  526MOL0     N72502   2.026   4.893   0.936 -0.6231 -0.7197 -0.8832
  526MOL0     C72503   1.152   4.690   1.729  0.1355 -0.5449 -0.0668
  526MOL0     C72504   1.013   4.679   1.770 -0.0539  0.4595  0.3099
  526MOL0     C72505   0.559   4.604   1.732  1.0619 -0.4314 -0.4390
  526MOL0     C72506   0.478   4.529   1.647  0.0997  0.0534 -0.3219
  526MOL0     C72507   0.343   4.511   1.672 -0.2212  0.2362  0.1407
  526MOL0     C72508   0.281   4.564   1.784  0.1262 -0.0531 -0.2846
  526MOL0     O72509   0.142   4.557   1.800  0.5714 -0.8887 -0.1769
  526MOL0     C72510   0.075   4.683   1.822 -0.0060 -0.8547 -0.0727
  526MOL0     C72511  -0.029   4.703   1.709  0.4635  0.3239  0.1919
  526MOL0     C72512  -0.125   4.583   1.704  0.0406 -0.0766 -0.3495
  526MOL0     C72513  -0.230   4.605   1.596  0.2806 -0.2529 -0.0226
  526MOL0     C72514  -0.334   4.705   1.612  0.4863 -0.1322  0.0624
  526MOL0     C72515  -0.428   4.781   1.607  0.8043 -0.0223  0.0106
  526MOL0     C72516   0.362   4.638   1.873 -0.8607 -0.8113 -0.4613
  526MOL0     C72517   0.496   4.654   1.852 -0.3096  0.4644 -0.0478
  526MOL0     C72518   0.557   4.753   1.953 -0.1577  0.6202  0.5575
  526MOL0     H72519   0.872   4.769   1.469  2.7476  3.1455 -1.6860
  526MOL0     H72520   1.116   4.768   1.415  0.6879  0.1875  1.4821
  526MOL0     H72521   1.415   4.722   1.729  0.1402  0.7623 -0.4648
  526MOL0     H72522   1.386   4.881   1.648  0.4794  0.3024 -0.0179
  526MOL0     H72523   1.536   4.638   1.534 -0.0553  0.4168 -0.9236
  526MOL0     H72524   1.533   4.805   1.474  1.2837  0.2230  0.4506
  526MOL0     H72525   1.641   4.879   1.680  1.9370  0.8169  0.0126
  526MOL0     H72526   1.664   4.717   1.729 -1.2782  0.2836  0.7805
  526MOL0     H72527   1.866   4.773   1.613 -0.0623  0.8543 -0.8392
  526MOL0     H72528   1.776   4.685   1.484 -2.3906 -1.7475  1.4389
  526MOL0     H72529   1.776   4.975   1.510  2.4261  0.1610  0.2295
  526MOL0     H72530   1.727   4.878   1.371 -0.3055  1.0042  0.3164
  526MOL0     H72531   1.977   4.995   1.430  0.3351 -0.4345 -0.7710
  526MOL0     H72532   1.995   4.824   1.425 -1.1247 -0.6532 -1.1826
  526MOL0     H72533   1.860   4.977   1.209  1.5375  1.2119 -0.0854
  526MOL0     H72534   1.904   4.803   1.208  1.6312 -1.0537  0.6084
  526MOL0     H72535   2.058   5.045   1.152 -2.1852  0.2661  0.8095
  526MOL0     H72536   2.150   4.921   1.250 -0.5833 -0.9102 -0.1091
  526MOL0     H72537   2.197   4.699   1.132 -1.7216 -0.6928  0.2222
  526MOL0     H72538   2.136   4.563   0.754  2.2662  0.2115 -0.7684
  526MOL0     H72539   2.138   4.483   0.921  1.3877  0.5767  2.3957
  526MOL0     H72540   2.367   4.553   0.950 -3.1709 -0.6517  2.0801
  526MOL0     H72541   2.335   4.429   0.830 -0.3690 -0.7035  1.6890
  526MOL0     H72542   2.488   4.555   0.717 -1.3040 -0.0862  2.5146
  526MOL0     H72543   2.342   4.618   0.645 -1.6590 -0.2221 -0.0840
  526MOL0     H72544   2.514   4.808   0.696 -1.4064  0.8430  0.3557
  526MOL0     H72545   2.383   4.814   0.814 -0.7434  1.0064 -1.3683
  526MOL0     H72546   2.583   5.001   0.970 -1.1288 -4.3627  0.8064
  526MOL0     H72547   2.699   5.184   1.041 -0.2622 -0.5211 -0.1747
  526MOL0     H72548   2.781   5.256   0.903 -4.6578 -0.7393 -0.1722
  526MOL0     H72549   2.873   5.167   1.039 -1.2689 -2.1560  1.1452
  526MOL0     H72550   3.172   5.060   0.468  0.2275 -0.4085 -0.6346
  526MOL0     H72551   3.335   5.203   0.369  0.3581 -1.8805 -0.7750
  526MOL0     H72552   3.581   5.275   0.359  3.3259  1.5057 -3.8338
  526MOL0     H72553   3.496   5.419   0.324 -0.6768  1.5877  1.4403
  526MOL0     H72554   3.732   5.438   0.276  0.7047 -0.0543  1.2267
  526MOL0     H72555   3.702   5.548   0.422  0.6445  0.7842 -0.6002
  526MOL0     H72556   3.777   5.359   0.568  1.0188  1.1535  1.2215
  526MOL0     H72557   3.915   5.432   0.471  1.7263 -0.3596 -1.8892
  526MOL0     H72558   3.895   5.253   0.290 -0.0560 -0.8836  0.1517
  526MOL0     H72559   3.802   5.163   0.402  0.7839 -0.5286  0.4226
  526MOL0     H72560   4.037   5.121   0.389 -2.9282 -0.6062 -0.6513
  526MOL0     H72561   4.070   5.259   0.497  0.4038 -0.1096 -0.1543
  526MOL0     H72562   3.885   5.012   0.557  3.5420 -2.7814 -1.5557
  526MOL0     H72563   3.892   5.163   0.655 -2.6533  0.4086 -2.4971
  526MOL0     H72564   4.132   5.099   0.695 -0.1823 -0.0335  0.5138
  526MOL0     H72565   4.127   4.968   0.577 -0.7359 -1.5081  2.2655
  526MOL0     H72566   3.957   4.860   0.740 -0.8562  2.5013 -0.1282
  526MOL0     H72567   3.998   4.982   0.854  0.1777 -0.2516  0.0554
  526MOL0     H72568   3.466   5.306   0.767  0.3401 -1.6118 -0.1309
  526MOL0     H72569   3.322   5.144   0.866 -1.1510  0.4111 -0.4213
  526MOL0     H72570   2.979   4.801   0.757  2.8603  2.5790  2.3069
  526MOL0     H72571   2.787   4.670   0.810 -0.9275 -1.0653  1.9193
  526MOL0     H72572   1.234   4.662   1.795  0.9975 -1.2206 -1.3745
  526MOL0     H72573   0.989   4.652   1.872  0.7490 -0.2399  0.3201
  526MOL0     H72574   0.528   4.486   1.560  2.1263  2.8301 -0.6848
  526MOL0     H72575   0.293   4.452   1.596 -0.2869  2.1855 -1.3771
  526MOL0     H72576   0.042   4.696   1.926  1.5444  0.0945  0.3350
  526MOL0     H72577   0.137   4.772   1.810  1.9204 -1.9099  1.5200
  526MOL0     H72578   0.023   4.713   1.613 -0.0968 -1.4971 -0.3467
  526MOL0     H72579  -0.079   4.800   1.715 -2.2456 -1.0096  0.6684
  526MOL0     H72580  -0.071   4.489   1.692  0.5449  0.1650  0.0125
  526MOL0     H72581  -0.173   4.577   1.802  4.4499  0.2126  2.0601
  526MOL0     H72582  -0.277   4.508   1.575  0.1623 -0.5332  1.4254
  526MOL0     H72583  -0.177   4.637   1.505  1.8386 -0.9259  0.6170
  526MOL0     H72584  -0.516   4.842   1.615  0.3301 -0.3605 -2.1374
  526MOL0     H72585   0.314   4.682   1.960 -2.6230 -0.1588 -1.7088
  526MOL0     H72586   0.640   4.815   1.917  1.7965 -0.2186  3.2685
  526MOL0     H72587   0.475   4.817   1.985 -1.2906  0.6712 -2.2413
  526MOL0     H72588   0.587   4.692   2.040  0.4507 -1.1550 -0.8274
  527MOL0     O72589   6.721   3.031  10.485 -0.5441  0.1097 -0.3973
  527MOL0     C72590   6.645   3.132  10.481 -0.0209  0.4121 -0.3280
  527MOL0     O72591   6.683   3.259  10.502  0.2274 -1.1752 -0.5532
  527MOL0     C72592   6.812   3.293  10.520 -0.8122  0.9583 -0.4219
  527MOL0     C72593   6.826   3.407  10.599  0.2462  0.5645 -0.3266
  527MOL0     C72594   6.951   3.444  10.653  0.0850  0.6166  0.2379
  527MOL0     C72595   7.069   3.373  10.617 -0.2781 -0.4184  0.6931
  527MOL0     O72596   7.182   3.423  10.674 -0.2776 -0.3058 -0.4365
  527MOL0     C72597   7.307   3.394  10.601  0.0703 -0.2687  0.5870
  527MOL0     C72598   7.423   3.431  10.693  0.0736 -0.2903 -0.4868
  527MOL0     C72599   7.559   3.394  10.625 -0.1507 -0.5323 -0.8192
  527MOL0     C72600   7.669   3.481  10.679  0.1599  0.4545 -0.0040
  527MOL0     C72601   7.814   3.436  10.640 -0.6831  0.1718  0.5135
  527MOL0     C72602   7.927   3.538  10.685  0.7555  0.1340 -1.1992
  527MOL0     C72603   8.070   3.484  10.691 -0.1443  0.1665  0.5584
  527MOL0     C72604   8.114   3.403  10.572 -0.1055  0.3504  0.6328
  527MOL0     N72605   8.247   3.345  10.591  0.7140  0.0390  0.6960
  527MOL0     C72606   8.313   3.246  10.512 -0.6095  1.1328 -0.8675
  527MOL0     C72607   8.429   3.220  10.574 -0.2448  0.6929  0.1983
  527MOL0     C72608   8.539   3.138  10.520 -0.8419  0.3243  0.2829
  527MOL0     C72609   8.664   3.211  10.478 -0.3023 -0.2484 -0.0829
  527MOL0     C72610   8.755   3.274  10.592 -0.1160  0.1654  0.5875
  527MOL0     C72611   8.833   3.170  10.669 -0.6238  0.3919 -0.0626
  527MOL0     O72612   8.884   3.075  10.576  0.1131 -0.1928 -0.2883
  527MOL0     C72613   9.012   3.036  10.603 -0.5036  0.0928 -0.9682
  527MOL0     C72614   9.087   3.032  10.723  0.0148 -0.0453  0.2104
  527MOL0     C72615   9.207   2.970  10.722 -0.2650  0.0666 -0.3161
  527MOL0     C72616   9.260   2.944  10.863  0.4117  0.5025  0.6678
  527MOL0     C72617   9.277   2.930  10.604  0.6151  0.4329  0.2213
  527MOL0     C72618   9.408   2.858  10.593  0.7174  0.8142 -1.0127
  527MOL0     O72619   9.487   2.859  10.704 -0.4332 -1.0316  0.1002
  527MOL0     C72620   9.598   2.778  10.702  0.4219 -0.3685  0.4642
  527MOL0     C72621   9.604   2.646  10.657  0.1095 -0.0853  0.3165
  527MOL0     C72622   9.724   2.565  10.652 -0.2829 -0.5665  0.6622
  527MOL0     C72623   9.836   2.625  10.723 -0.3246  0.0020 -0.0439
  527MOL0     O72624   9.956   2.566  10.732 -0.0443 -0.1250 -0.7440
  527MOL0     C72625   9.954   2.422  10.726  0.9061 -0.2910  0.5781
  527MOL0     C72626  10.093   2.363  10.750  0.1639 -0.2212  0.7057
  527MOL0     C72627  10.161   2.393  10.886  0.2942  0.8614  0.1133
  527MOL0     C72628  10.284   2.311  10.905 -0.1659 -0.0959  0.2133
  527MOL0     C72629  10.401   2.341  10.808 -0.3483 -0.0203  0.2727
  527MOL0     C72630  10.513   2.251  10.829 -0.2709 -0.2276 -0.1375
  527MOL0     C72631  10.634   2.283  10.727 -0.0853  0.4549  0.1637
  527MOL0     C72632  10.698   2.149  10.684 -0.3970 -0.6209 -0.0559
  527MOL0    Cl72633  10.821   2.175  10.550  0.3163 -0.1092  0.0196
  527MOL0     C72634   9.827   2.752  10.780 -0.8195 -1.1146  0.7177
  527MOL0     C72635   9.709   2.825  10.764  0.1641 -0.3309 -0.9735
  527MOL0     O72636   9.445   2.807  10.485 -0.2347  0.0428 -0.2129
  527MOL0     C72637   9.196   2.935  10.483 -0.0510 -0.2317 -0.1886
  527MOL0     C72638   9.061   2.975  10.488  0.6276  0.0882 -0.7997
  527MOL0     N72639   8.423   3.283  10.695 -0.5819  0.0222  0.2259
  527MOL0     N72640   8.322   3.357  10.708  0.2641 -0.0340  0.8309
  527MOL0     C72641   7.062   3.258  10.530  0.2788 -0.3018 -0.3106
  527MOL0     C72642   6.935   3.220  10.483  0.1084 -0.5349  0.6004
  527MOL0     C72643   6.499   3.106  10.452  0.2676 -1.0272  0.8166
  527MOL0     C72644   6.406   3.207  10.482  0.1187 -0.7739  0.2821
  527MOL0     C72645   6.273   3.190  10.440  0.0873 -0.0008  0.6812
  527MOL0     C72646   6.235   3.074  10.380  0.1778  0.3978  0.8728
  527MOL0     O72647   6.098   3.064  10.350 -0.4241 -0.0890  0.6596
  527MOL0     C72648   6.043   2.973  10.260 -0.3236 -0.9390  0.1672
  527MOL0     C72649   5.902   2.942  10.290 -0.2027  0.2500  0.5981
  527MOL0     C72650   5.809   3.060  10.263  0.4200 -0.0742 -0.0984
  527MOL0     C72651   5.790   3.095  10.117  0.2574  0.1312  0.2450
  527MOL0     C72652   5.857   3.214  10.064  0.5986  0.8985 -0.4903
  527MOL0     C72653   5.913   3.317  10.037  0.8266  0.2716  0.4096
  527MOL0     C72654   6.319   2.970  10.358 -0.7545  0.7649 -1.1037
  527MOL0     C72655   6.454   2.982  10.385 -0.0116 -0.9389 -0.6265
  527MOL0     C72656   6.538   2.880  10.324 -0.7236  1.2985 -0.2087
  527MOL0     H72657   6.736   3.460  10.630 -0.4087  1.1961 -2.9670
  527MOL0     H72658   6.960   3.529  10.720  1.9731  0.7764 -0.1706
  527MOL0     H72659   7.298   3.452  10.509 -0.9735 -0.7537  0.3671
  527MOL0     H72660   7.324   3.291  10.567 -1.8393 -0.4270 -0.0150
  527MOL0     H72661   7.426   3.539  10.714  0.2442 -0.9987  4.0346
  527MOL0     H72662   7.412   3.383  10.790  1.7764  0.7750  0.2778
  527MOL0     H72663   7.588   3.292  10.653  1.7803  0.0432 -0.5526
  527MOL0     H72664   7.554   3.405  10.517 -1.0008  0.6129 -0.6767
  527MOL0     H72665   7.647   3.584  10.647  1.2279  0.4385 -0.8524
  527MOL0     H72666   7.659   3.475  10.787  1.9002 -0.5374  0.1298
  527MOL0     H72667   7.825   3.424  10.532 -1.5436 -0.9194  0.5384
  527MOL0     H72668   7.836   3.343  10.693 -0.3606 -0.2561 -0.3484
  527MOL0     H72669   7.922   3.620  10.612 -1.0522  1.8420  0.7321
  527MOL0     H72670   7.891   3.592  10.773  0.6392 -2.5611  0.4943
  527MOL0     H72671   8.086   3.420  10.778  2.6286 -3.0547 -2.0343
  527MOL0     H72672   8.140   3.568  10.695  1.7531 -1.2155 -1.6362
  527MOL0     H72673   8.038   3.329  10.546 -1.0029  1.5340 -0.2094
  527MOL0     H72674   8.105   3.458  10.478 -2.9719 -0.3869  0.3796
  527MOL0     H72675   8.289   3.186  10.425 -1.3152 -1.3715  0.9113
  527MOL0     H72676   8.499   3.087  10.432  2.8022  0.7259 -1.8420
  527MOL0     H72677   8.562   3.058  10.591  1.3912  1.6646  1.1784
  527MOL0     H72678   8.717   3.147  10.407 -1.4452 -0.4901 -0.7510
  527MOL0     H72679   8.623   3.295  10.420  0.7906  0.3386 -0.0202
  527MOL0     H72680   8.832   3.343  10.555  0.4760 -0.4664  0.6083
  527MOL0     H72681   8.708   3.336  10.668 -0.9594 -1.2475  1.2538
  527MOL0     H72682   8.905   3.221  10.733  1.4538  1.0333 -2.7433
  527MOL0     H72683   8.767   3.114  10.736 -1.4368  0.1042 -1.0727
  527MOL0     H72684   9.040   3.079  10.809  0.3513  1.2992 -0.3134
  527MOL0     H72685   9.305   3.032  10.911 -3.0613  1.8950  1.6802
  527MOL0     H72686   9.335   2.865  10.872  0.5597  0.8184  2.7215
  527MOL0     H72687   9.180   2.902  10.925 -0.6370 -1.4816 -1.8509
  527MOL0     H72688   9.514   2.612  10.606  1.6924 -0.7415 -2.2109
  527MOL0     H72689   9.737   2.469  10.602  0.5136 -0.7609  1.2329
  527MOL0     H72690   9.881   2.379  10.795  0.6852 -0.3601  0.3025
  527MOL0     H72691   9.923   2.390  10.627  1.0825 -2.3313  1.1282
  527MOL0     H72692  10.080   2.258  10.724 -1.0319  0.4748 -1.8063
  527MOL0     H72693  10.153   2.404  10.668  0.6617  1.0288  1.6524
  527MOL0     H72694  10.097   2.372  10.972  0.9399 -0.1716  0.3640
  527MOL0     H72695  10.188   2.498  10.900  1.2450  0.8599 -1.4471
  527MOL0     H72696  10.256   2.210  10.875  0.9787 -0.9836  1.9386
  527MOL0     H72697  10.325   2.320  11.007 -0.0390  1.8650  0.0199
  527MOL0     H72698  10.367   2.349  10.705 -0.1093  1.1548  0.2675
  527MOL0     H72699  10.437   2.442  10.831 -1.4241  0.7234 -1.2366
  527MOL0     H72700  10.488   2.146  10.808  0.0168 -0.6110  1.3147
  527MOL0     H72701  10.543   2.263  10.933 -1.0487  4.3443 -0.2513
  527MOL0     H72702  10.714   2.324  10.789  1.3154 -0.3432 -1.0512
  527MOL0     H72703  10.618   2.352  10.643  1.6496  0.8343  0.1105
  527MOL0     H72704  10.613   2.091  10.646 -0.9210 -0.2587  0.5475
  527MOL0     H72705  10.739   2.102  10.773 -2.4741 -0.3544  1.1124
  527MOL0     H72706   9.912   2.801  10.825 -0.0596  0.0987 -1.8879
  527MOL0     H72707   9.700   2.927  10.801 -0.2074 -1.3126  1.8578
  527MOL0     H72708   9.235   2.894  10.390 -0.1905 -3.4796  1.0524
  527MOL0     H72709   9.000   2.981  10.399 -0.3953 -1.7289 -0.2672
  527MOL0     H72710   7.143   3.191  10.504  1.9768  0.8537  1.6347
  527MOL0     H72711   6.919   3.131  10.422 -0.6997  0.4178 -0.6379
  527MOL0     H72712   6.429   3.305  10.523 -2.8848  0.0512  0.2519
  527MOL0     H72713   6.198   3.266  10.462 -0.9623 -0.3509 -1.4176
  527MOL0     H72714   6.059   2.995  10.154  0.1664 -2.9160 -0.2256
  527MOL0     H72715   6.079   2.869  10.266 -1.1853 -1.4025 -1.7757
  527MOL0     H72716   5.886   2.907  10.393  0.1874 -0.6330  0.3637
  527MOL0     H72717   5.861   2.860  10.229  1.3349 -1.7254  2.0785
  527MOL0     H72718   5.715   3.044  10.316  0.6207 -0.6978  0.0768
  527MOL0     H72719   5.851   3.150  10.311  0.9053 -0.6096  0.5010
  527MOL0     H72720   5.683   3.088  10.097  0.1500  0.2162  0.7759
  527MOL0     H72721   5.821   3.010  10.056 -2.9698 -1.1159  0.1468
  527MOL0     H72722   5.951   3.415  10.019  0.5960  0.3411  0.2994
  527MOL0     H72723   6.288   2.876  10.313  2.7802 -1.0701 -0.1048
  527MOL0     H72724   6.632   2.920  10.286  0.6221 -1.4845 -0.0649
  527MOL0     H72725   6.562   2.803  10.398 -2.6635 -2.1045 -2.8334
  527MOL0     H72726   6.489   2.823  10.244  0.9485 -1.2487  0.4708
  528MOL0     O72727   7.261   8.800   9.755 -0.0391 -0.7511 -0.4011
  528MOL0     C72728   7.314   8.816   9.650  0.2303 -0.3551 -0.2637
  528MOL0     O72729   7.423   8.888   9.641  0.0027 -0.7917 -0.4105
  528MOL0     C72730   7.512   8.895   9.748 -0.5605  0.8979  0.0485
  528MOL0     C72731   7.626   8.812   9.754  0.2675 -1.1921 -0.0888
  528MOL0     C72732   7.719   8.827   9.857  0.6370  0.4212  0.3363
  528MOL0     C72733   7.699   8.917   9.959 -0.6736 -0.5196  0.4471
  528MOL0     O72734   7.806   8.940  10.048 -0.1687  0.0277  0.5441
  528MOL0     C72735   7.772   9.015  10.166 -0.4202  0.6695  0.5917
  528MOL0     C72736   7.873   8.985  10.273 -0.2196 -0.1999  0.9148
  528MOL0     C72737   8.013   9.033  10.241 -0.1299  0.7900 -0.9761
  528MOL0     C72738   8.108   8.983  10.349 -0.0888 -0.1495  1.0648
  528MOL0     C72739   8.246   9.048  10.312 -0.5771  0.5208 -0.7272
  528MOL0     C72740   8.351   9.012  10.423 -0.0158  0.2686  0.6221
  528MOL0     C72741   8.385   8.862  10.410 -0.0715  0.5157  0.0177
  528MOL0     C72742   8.493   8.822  10.515 -0.3824  0.3423 -0.0993
  528MOL0     N72743   8.519   8.679  10.523 -0.3439 -0.3332  0.5451
  528MOL0     C72744   8.633   8.629  10.483  0.5912  0.6917 -0.1619
  528MOL0     C72745   8.617   8.500  10.522 -0.4372 -0.0642  0.2163
  528MOL0     C72746   8.721   8.391  10.498 -0.4166  0.3812 -0.2652
  528MOL0     C72747   8.711   8.248  10.567  0.6075 -0.1324 -0.8403
  528MOL0     C72748   8.713   8.269  10.722 -0.1201  0.0405  0.3091
  528MOL0     C72749   8.831   8.361  10.775 -0.2933  0.1233 -0.3355
  528MOL0     O72750   8.951   8.309  10.714  0.4448  0.5344 -0.1280
  528MOL0     C72751   9.070   8.371  10.738 -0.5073  0.4789 -0.4428
  528MOL0     C72752   9.086   8.481  10.813 -0.4077  0.1674  0.0015
  528MOL0     C72753   9.222   8.524  10.832  0.8695  0.4081 -0.0075
  528MOL0     C72754   9.231   8.638  10.918 -0.5775  0.5896  0.0182
  528MOL0     C72755   9.331   8.460  10.772  0.8422 -0.7004  0.0833
  528MOL0     C72756   9.478   8.503  10.783  0.1319 -0.3456 -0.3153
  528MOL0     O72757   9.501   8.634  10.803  0.4737  0.2786 -0.2733
  528MOL0     C72758   9.636   8.669  10.809 -0.5378  0.2717  0.6387
  528MOL0     C72759   9.698   8.721  10.691  0.9529  0.9887  0.0062
  528MOL0     C72760   9.827   8.774  10.690  0.7635 -0.0124  0.8184
  528MOL0     C72761   9.897   8.800  10.806 -0.3136  0.0890 -0.0556
  528MOL0     O72762  10.021   8.845  10.789 -0.2809 -0.3651  0.1828
  528MOL0     C72763  10.106   8.862  10.904 -0.1456 -0.1573 -0.3654
  528MOL0     C72764  10.071   8.980  11.000  0.1273  0.3348  0.2341
  528MOL0     C72765  10.113   9.114  10.933  0.0413 -0.1091  0.9544
  528MOL0     C72766  10.069   9.243  11.001  0.4391  0.0188 -0.0437
  528MOL0     C72767  10.073   9.363  10.916 -0.1959  0.4574  0.2082
  528MOL0     C72768   9.982   9.471  10.962  0.2562  0.5926  0.1078
  528MOL0     C72769  10.009   9.597  10.885 -0.1926 -0.5428  0.0037
  528MOL0     C72770   9.944   9.721  10.948 -0.2699  0.1096  0.3810
  528MOL0    Cl72771   9.902   9.833  10.817  0.2185  0.4216 -0.4461
  528MOL0     C72772   9.827   8.754  10.922  0.4195 -0.1767 -0.2722
  528MOL0     C72773   9.706   8.688  10.930  0.0115 -0.9531  0.1348
  528MOL0     O72774   9.563   8.421  10.751 -0.4325 -0.2888  0.3832
  528MOL0     C72775   9.301   8.351  10.686  0.3999  0.0750 -0.6064
  528MOL0     C72776   9.171   8.306  10.674 -0.0871  0.3574  0.8939
  528MOL0     N72777   8.505   8.478  10.598  0.0550 -0.2622 -0.0502
  528MOL0     N72778   8.449   8.595  10.591 -0.0576 -0.0786 -0.1373
  528MOL0     C72779   7.584   8.999   9.950 -0.6135 -0.1775 -0.1099
  528MOL0     C72780   7.495   8.995   9.845  0.5569  0.0612 -0.2657
  528MOL0     C72781   7.240   8.785   9.523 -0.3937  0.5842 -0.4048
  528MOL0     C72782   7.110   8.737   9.533  0.1836 -0.4924  0.4488
  528MOL0     C72783   7.034   8.709   9.419  0.3160 -0.3308  0.4459
  528MOL0     C72784   7.088   8.730   9.294 -0.5192  0.0220  0.6053
  528MOL0     O72785   7.025   8.710   9.174  0.5861  0.4807  0.4897
  528MOL0     C72786   6.879   8.695   9.177 -0.4467  0.5299 -0.7709
  528MOL0     C72787   6.833   8.720   9.035  0.8681 -0.8107 -1.0640
  528MOL0     C72788   6.677   8.718   9.020 -0.7956  0.0068  0.3335
  528MOL0     C72789   6.608   8.832   9.089  0.2820 -0.3164  1.1493
  528MOL0     C72790   6.465   8.807   9.088  0.4499  0.2812  0.1203
  528MOL0     C72791   6.347   8.796   9.074  0.6388 -0.5997  0.0889
  528MOL0     C72792   7.227   8.766   9.281  0.5512 -0.6367  0.1197
  528MOL0     C72793   7.298   8.804   9.394 -0.4462  0.2654  0.2126
  528MOL0     C72794   7.439   8.861   9.377  0.4281  0.1023 -0.7269
  528MOL0     H72795   7.655   8.737   9.681 -1.5062 -1.3428 -0.6831
  528MOL0     H72796   7.805   8.760   9.855 -1.5320 -2.5406  0.2352
  528MOL0     H72797   7.676   8.983  10.208 -0.1333 -0.1175  0.6705
  528MOL0     H72798   7.767   9.122  10.147 -1.2865  0.4208 -0.7452
  528MOL0     H72799   7.840   9.041  10.361 -1.3386  4.0854 -1.9213
  528MOL0     H72800   7.875   8.880  10.304 -1.3292 -0.1705  1.1153
  528MOL0     H72801   8.041   9.003  10.140 -2.7696 -2.4133 -0.9385
  528MOL0     H72802   8.022   9.142  10.235  1.6310  1.0570  3.2132
  528MOL0     H72803   8.074   9.001  10.451 -0.3658 -1.0659  1.1393
  528MOL0     H72804   8.106   8.874  10.342 -5.5100 -0.2961  0.1415
  528MOL0     H72805   8.228   9.156  10.306  3.1117  1.3933  1.0180
  528MOL0     H72806   8.279   9.014  10.214 -2.3652 -0.3321 -1.0706
  528MOL0     H72807   8.435   9.079  10.404 -1.0352  1.5041  0.3896
  528MOL0     H72808   8.310   9.031  10.522  0.0656  1.8878  0.3667
  528MOL0     H72809   8.428   8.843  10.311 -1.3723  1.2003 -0.7025
  528MOL0     H72810   8.292   8.803  10.410 -0.8480  1.2186 -5.7138
  528MOL0     H72811   8.582   8.882  10.493  0.3581 -1.2890 -1.7809
  528MOL0     H72812   8.454   8.845  10.615 -0.3848 -0.8975  0.1948
  528MOL0     H72813   8.714   8.679  10.431 -0.4625  1.3651 -1.1897
  528MOL0     H72814   8.818   8.440  10.507 -0.8940  1.8042 -2.3284
  528MOL0     H72815   8.712   8.372  10.391 -3.7594 -2.2621  0.2917
  528MOL0     H72816   8.632   8.184  10.528  1.0509  0.4179 -2.7277
  528MOL0     H72817   8.803   8.191  10.547  2.1561  1.3210  1.5936
  528MOL0     H72818   8.620   8.319  10.748  0.1491  1.0881 -0.6833
  528MOL0     H72819   8.722   8.171  10.771  2.5456  1.2625  2.5743
  528MOL0     H72820   8.803   8.462  10.743 -2.6476 -0.7746 -1.2983
  528MOL0     H72821   8.841   8.354  10.884  0.3731  0.5523 -0.3597
  528MOL0     H72822   9.001   8.535  10.853 -1.4434 -1.4474  0.0440
  528MOL0     H72823   9.273   8.720  10.858 -1.0019  2.6594  2.4186
  528MOL0     H72824   9.304   8.615  10.996  0.8579 -1.9224 -1.8948
  528MOL0     H72825   9.137   8.661  10.968 -0.9668  0.6476 -0.7138
  528MOL0     H72826   9.642   8.709  10.598 -0.2431 -0.6503  0.9021
  528MOL0     H72827   9.864   8.799  10.590  0.9850 -4.6702 -0.4801
  528MOL0     H72828  10.104   8.771  10.965  0.3298  0.9684  1.4085
  528MOL0     H72829  10.211   8.867  10.874 -0.4087 -1.9637 -1.7168
  528MOL0     H72830   9.965   8.986  11.029 -0.7434  2.8717 -2.9529
  528MOL0     H72831  10.127   8.971  11.094  2.3056 -0.0353 -1.0439
  528MOL0     H72832  10.063   9.104  10.837  2.0204 -3.6513  0.1271
  528MOL0     H72833  10.218   9.120  10.903 -0.7727  2.2487 -1.9393
  528MOL0     H72834  10.131   9.254  11.091  0.3091  0.5712 -0.0163
  528MOL0     H72835   9.962   9.229  11.019  0.5929 -2.0692 -0.4439
  528MOL0     H72836  10.174   9.402  10.904 -0.9206  2.8224  1.2827
  528MOL0     H72837  10.036   9.334  10.817 -2.0120 -0.4634  1.1042
  528MOL0     H72838  10.005   9.491  11.067  0.8243  2.1660 -0.2867
  528MOL0     H72839   9.879   9.440  10.945  0.3084  0.7689 -0.5500
  528MOL0     H72840   9.955   9.591  10.789  0.4182 -0.3993 -0.3570
  528MOL0     H72841  10.117   9.607  10.867 -0.5904 -0.2981 -2.8441
  528MOL0     H72842   9.992   9.760  11.038 -2.5928 -1.4125  2.4029
  528MOL0     H72843   9.846   9.684  10.979  0.2306 -2.2362 -0.6768
  528MOL0     H72844   9.891   8.740  11.009  1.4020 -1.4720 -1.1473
  528MOL0     H72845   9.674   8.657  11.029  1.6473  2.5051  1.9212
  528MOL0     H72846   9.388   8.303  10.642 -1.2411 -3.2903 -0.4693
  528MOL0     H72847   9.156   8.227  10.602 -1.8833  1.1353  0.3591
  528MOL0     H72848   7.565   9.068  10.032 -0.3967  1.3535 -1.2982
  528MOL0     H72849   7.405   9.054   9.832 -1.5684 -2.6685  0.9860
  528MOL0     H72850   7.070   8.737   9.634  1.2416  2.2259  0.9523
  528MOL0     H72851   6.934   8.670   9.434 -0.1064  0.7753  0.5707
  528MOL0     H72852   6.850   8.593   9.205  0.1744 -0.3688 -3.2105
  528MOL0     H72853   6.828   8.754   9.254 -0.0226  0.4320 -0.4130
  528MOL0     H72854   6.872   8.650   8.961  0.1741 -0.3280 -1.9080
  528MOL0     H72855   6.873   8.814   8.996 -2.6309  0.6710 -1.4788
  528MOL0     H72856   6.660   8.728   8.912 -0.7027  1.5472  0.4370
  528MOL0     H72857   6.624   8.626   9.046 -2.4123  0.6388 -0.5255
  528MOL0     H72858   6.624   8.920   9.025 -3.5849 -0.2645  0.0407
  528MOL0     H72859   6.636   8.864   9.189  0.9317  2.1992  0.2502
  528MOL0     H72860   6.240   8.793   9.078  0.5689  1.5776  1.6966
  528MOL0     H72861   7.276   8.778   9.185 -2.3516 -2.6788 -1.8012
  528MOL0     H72862   7.442   8.967   9.402  1.7106  0.5057 -2.4674
  528MOL0     H72863   7.507   8.808   9.444 -1.9241 -0.0197  1.7299
  528MOL0     H72864   7.464   8.854   9.271  0.2440  2.2343 -0.9540
  529MOL0     O72865   1.542   2.232   8.958  0.1371  0.4172  0.1243
  529MOL0     C72866   1.474   2.317   8.910  0.6581 -0.4524  0.2922
  529MOL0     O72867   1.507   2.396   8.807 -0.3308  0.0296  0.1400
  529MOL0     C72868   1.639   2.438   8.785  0.2161  0.2688 -0.4419
  529MOL0     C72869   1.721   2.339   8.726 -0.4488 -0.7480 -0.5543
  529MOL0     C72870   1.856   2.374   8.721  0.6747 -0.4197  0.1936
  529MOL0     C72871   1.912   2.498   8.751  1.1747 -0.4985  0.7145
  529MOL0     O72872   2.047   2.523   8.733 -0.3978  0.3679 -0.3781
  529MOL0     C72873   2.082   2.662   8.749  0.1682 -0.0300 -0.4026
  529MOL0     C72874   2.225   2.671   8.712 -0.9142  0.0195 -1.5215
  529MOL0     C72875   2.329   2.621   8.813 -0.0592 -0.2480  0.2958
  529MOL0     C72876   2.466   2.578   8.757 -0.4750  0.6418 -0.2804
  529MOL0     C72877   2.586   2.591   8.851  0.4613  0.2904  0.2424
  529MOL0     C72878   2.708   2.523   8.791  0.5380 -0.3749  0.7217
  529MOL0     C72879   2.819   2.508   8.895 -0.3966  1.3076  0.3356
  529MOL0     C72880   2.952   2.475   8.826  0.0409  0.7628  0.4261
  529MOL0     N72881   3.059   2.410   8.905  0.5325 -0.6057  0.0089
  529MOL0     C72882   3.054   2.289   8.969 -0.3427  0.1672 -0.0947
  529MOL0     C72883   3.186   2.268   9.002  0.7182 -0.5577  1.0287
  529MOL0     C72884   3.235   2.135   9.052 -0.3927 -0.1705  0.4086
  529MOL0     C72885   3.298   2.050   8.936  0.5910 -0.6250  0.3133
  529MOL0     C72886   3.420   2.122   8.872  0.0245  0.1481  0.0617
  529MOL0     C72887   3.472   2.026   8.777 -0.1115 -0.0141  0.2516
  529MOL0     O72888   3.570   2.104   8.704 -0.0774 -0.4148  0.0022
  529MOL0     C72889   3.574   2.069   8.577  0.2974 -0.0865  0.9062
  529MOL0     C72890   3.643   1.950   8.545 -0.0729 -0.0894 -0.0203
  529MOL0     C72891   3.645   1.903   8.412 -0.4489  0.2057  0.0222
  529MOL0     C72892   3.723   1.772   8.389  0.3884  0.0424  0.4174
  529MOL0     C72893   3.588   1.982   8.308 -0.2055 -1.1141 -0.5530
  529MOL0     C72894   3.595   1.937   8.172 -0.4346  0.3142  0.5208
  529MOL0     O72895   3.568   2.038   8.086 -0.2092 -0.0631 -0.0069
  529MOL0     C72896   3.563   2.027   7.949  0.8217 -0.2670 -0.4882
  529MOL0     C72897   3.440   2.028   7.885  0.3482 -0.8036  0.8599
  529MOL0     C72898   3.438   2.037   7.744 -0.2453  0.3446  0.4237
  529MOL0     C72899   3.552   2.034   7.666  1.0085 -0.1688 -0.5746
  529MOL0     O72900   3.551   2.040   7.529  0.5536  0.7060 -0.5697
  529MOL0     C72901   3.427   2.028   7.450 -0.0052 -0.9151 -0.3221
  529MOL0     C72902   3.375   1.893   7.440  0.0729 -0.0826  0.0164
  529MOL0     C72903   3.259   1.870   7.341  0.4183 -0.4735  0.3843
  529MOL0     C72904   3.234   1.725   7.326  1.1422  0.1764 -0.5474
  529MOL0     C72905   3.134   1.686   7.220 -0.3961 -0.9852 -0.1633
  529MOL0     C72906   2.991   1.729   7.253  0.6390  0.6446 -0.0234
  529MOL0     C72907   2.901   1.699   7.135 -0.0681  0.0065 -0.0611
  529MOL0     C72908   2.871   1.546   7.113  0.0577  0.1687 -0.2699
  529MOL0    Cl72909   2.847   1.459   7.269  0.4165  0.1847  0.3152
  529MOL0     C72910   3.673   2.023   7.734  0.0364 -0.5883  0.6707
  529MOL0     C72911   3.681   2.032   7.871  0.6012  0.3639 -0.6900
  529MOL0     O72912   3.605   1.816   8.144 -0.1300  0.1341 -0.2338
  529MOL0     C72913   3.535   2.111   8.345 -0.6537  0.1616  0.0853
  529MOL0     C72914   3.526   2.150   8.479  0.4206  0.3192 -0.5728
  529MOL0     N72915   3.257   2.384   8.972  0.6018 -0.0059  0.4026
  529MOL0     N72916   3.181   2.475   8.925  0.4559 -0.8663  0.1354
  529MOL0     C72917   1.823   2.597   8.799 -0.1095 -0.0391 -0.1229
  529MOL0     C72918   1.687   2.564   8.826  0.4445 -0.1456  0.3173
  529MOL0     C72919   1.343   2.336   8.972 -0.2046 -0.8523  0.0574
  529MOL0     C72920   1.324   2.465   9.029 -0.2122 -0.6530  0.0939
  529MOL0     C72921   1.214   2.485   9.113  0.3986 -0.2043 -0.3586
  529MOL0     C72922   1.119   2.385   9.135  0.4185 -0.5220 -0.0044
  529MOL0     O72923   1.016   2.408   9.217  0.2272 -0.0196  0.2206
  529MOL0     C72924   0.928   2.304   9.252 -0.5840 -0.6124  0.0902
  529MOL0     C72925   0.834   2.370   9.353 -0.0214 -0.5310 -0.2062
  529MOL0     C72926   0.768   2.494   9.292  0.0732  0.2242 -0.3055
  529MOL0     C72927   0.629   2.514   9.356  0.2715 -0.2954  0.7092
  529MOL0     C72928   0.555   2.628   9.307 -0.9271 -0.6154 -0.1317
  529MOL0     C72929   0.488   2.726   9.270 -0.4085  0.6807 -0.7888
  529MOL0     C72930   1.139   2.260   9.078  0.0772  0.2312  0.1658
  529MOL0     C72931   1.249   2.229   8.990 -0.9124  0.1893  0.2466
  529MOL0     C72932   1.273   2.088   8.933  0.4803 -0.1275  0.3424
  529MOL0     H72933   1.691   2.238   8.697 -1.9439 -0.5868  0.3597
  529MOL0     H72934   1.919   2.298   8.677  1.8589  0.3933  0.4232
  529MOL0     H72935   2.059   2.710   8.845 -1.7108 -0.1555 -0.7670
  529MOL0     H72936   2.031   2.727   8.678 -1.3445 -0.5822  0.1456
  529MOL0     H72937   2.223   2.613   8.619 -1.4319  0.2243 -1.6381
  529MOL0     H72938   2.248   2.778   8.703 -0.1059  0.2384  1.7612
  529MOL0     H72939   2.350   2.712   8.869  1.9351  1.0459 -2.3158
  529MOL0     H72940   2.284   2.558   8.889 -0.0986  1.3417  1.6375
  529MOL0     H72941   2.452   2.474   8.726  1.5576  0.2101  0.1605
  529MOL0     H72942   2.487   2.644   8.673  2.5109  0.6977  0.4063
  529MOL0     H72943   2.562   2.540   8.945  0.6566 -0.6355 -0.2017
  529MOL0     H72944   2.614   2.694   8.878 -2.0992  2.0166 -2.9393
  529MOL0     H72945   2.681   2.420   8.763  2.2614 -1.0161  1.3082
  529MOL0     H72946   2.745   2.580   8.705 -1.9489  1.5362  0.8266
  529MOL0     H72947   2.785   2.425   8.958 -1.0086  1.4027  0.1409
  529MOL0     H72948   2.832   2.598   8.956 -0.4325  2.5049 -1.3457
  529MOL0     H72949   2.933   2.403   8.746  1.5384 -0.0542  0.7585
  529MOL0     H72950   2.984   2.572   8.785  0.6952 -0.2453 -1.5665
  529MOL0     H72951   2.968   2.224   8.979  1.5312 -2.6383 -1.0770
  529MOL0     H72952   3.165   2.074   9.110 -1.1536 -0.0662 -0.3754
  529MOL0     H72953   3.318   2.153   9.120  0.3728 -0.4882 -0.4104
  529MOL0     H72954   3.326   1.953   8.977 -4.6559 -2.1634  1.0844
  529MOL0     H72955   3.221   2.033   8.859  1.5216 -1.9586 -0.3449
  529MOL0     H72956   3.374   2.200   8.810 -2.6663 -0.8210  0.6816
  529MOL0     H72957   3.493   2.154   8.946  0.5129  0.3893 -0.5181
  529MOL0     H72958   3.520   1.951   8.840 -0.9441  0.2463  1.2120
  529MOL0     H72959   3.394   1.987   8.710  0.1539 -2.6610  1.3523
  529MOL0     H72960   3.684   1.888   8.625  1.4905 -0.0497 -0.7560
  529MOL0     H72961   3.787   1.777   8.301  1.7781  1.4203  1.4601
  529MOL0     H72962   3.662   1.681   8.382  1.6750 -1.2452  3.7493
  529MOL0     H72963   3.785   1.746   8.475  0.0717  1.6912  1.1844
  529MOL0     H72964   3.343   2.017   7.931 -0.6338  0.2329 -0.8822
  529MOL0     H72965   3.343   2.041   7.690  0.3718 -0.5565 -0.7662
  529MOL0     H72966   3.339   2.078   7.493 -1.6908 -2.6322 -1.5966
  529MOL0     H72967   3.448   2.064   7.349  1.8230  0.7935  0.5896
  529MOL0     H72968   3.458   1.822   7.428 -0.2988 -0.3489 -1.1294
  529MOL0     H72969   3.333   1.864   7.536 -0.4413 -0.6759 -0.3846
  529MOL0     H72970   3.290   1.919   7.249 -0.2734 -1.5366 -0.4496
  529MOL0     H72971   3.170   1.923   7.377 -0.8218 -1.6486 -0.8664
  529MOL0     H72972   3.205   1.690   7.425 -0.9821 -2.2829 -1.9102
  529MOL0     H72973   3.331   1.680   7.305  0.9759 -1.8198  2.3278
  529MOL0     H72974   3.165   1.735   7.128  0.1687 -0.7839  0.1307
  529MOL0     H72975   3.125   1.577   7.220 -1.4240 -0.9069 -0.3998
  529MOL0     H72976   2.998   1.835   7.279  0.3662  0.7188 -0.2441
  529MOL0     H72977   2.955   1.682   7.345  0.5330 -0.0249 -0.3957
  529MOL0     H72978   2.950   1.733   7.043 -0.1157  2.2389  0.6871
  529MOL0     H72979   2.808   1.757   7.138  0.3567  0.7911 -1.3264
  529MOL0     H72980   2.958   1.505   7.060 -0.7765 -1.1957 -0.6395
  529MOL0     H72981   2.786   1.534   7.045 -0.2352 -0.2103  0.1576
  529MOL0     H72982   3.759   2.024   7.668 -1.3076  3.4426 -1.3528
  529MOL0     H72983   3.778   2.017   7.917 -0.2359 -1.0880  0.7233
  529MOL0     H72984   3.509   2.186   8.271 -0.4658  1.6869  1.4928
  529MOL0     H72985   3.487   2.247   8.509 -1.1696 -0.9330  1.7220
  529MOL0     H72986   1.856   2.689   8.847  0.9707 -1.4164  1.9049
  529MOL0     H72987   1.627   2.639   8.876  4.8126  1.6798  3.4864
  529MOL0     H72988   1.382   2.553   9.004 -0.3426 -0.4500  0.4818
  529MOL0     H72989   1.202   2.579   9.167 -0.3332 -0.1208 -0.6601
  529MOL0     H72990   0.873   2.276   9.162  0.1827  0.5073 -0.7374
  529MOL0     H72991   0.978   2.223   9.307 -0.7427  1.2916  3.3259
  529MOL0     H72992   0.884   2.414   9.440  0.4720  1.5235 -1.4746
  529MOL0     H72993   0.761   2.293   9.379  0.2698 -1.0828 -0.9691
  529MOL0     H72994   0.840   2.573   9.315  1.0670 -0.7448  0.0264
  529MOL0     H72995   0.763   2.484   9.183 -1.3979 -0.3674 -0.1979
  529MOL0     H72996   0.641   2.508   9.464 -2.5913 -0.5367  1.1067
  529MOL0     H72997   0.567   2.429   9.326  0.2432 -0.1327  0.3034
  529MOL0     H72998   0.426   2.808   9.241 -4.1302 -2.1846 -1.6809
  529MOL0     H72999   1.061   2.186   9.091 -0.7660  0.2118 -3.8035
  529MOL0     H73000   1.185   2.023   8.930 -0.4980  1.1850 -1.3622
  529MOL0     H73001   1.315   2.096   8.832 -3.1002  2.0282 -1.1552
  529MOL0     H73002   1.344   2.032   8.994  0.1899 -0.5124  0.3346
  530MOL0     O73003   4.254   8.296   1.989 -0.0839  0.4121  0.2608
  530MOL0     C73004   4.179   8.387   1.950  0.5904 -0.1485  0.5233
  530MOL0     O73005   4.220   8.521   1.922 -0.3641  0.2334 -0.4668
  530MOL0     C73006   4.360   8.540   1.898 -0.4534 -0.4379 -0.1317
  530MOL0     C73007   4.450   8.603   1.989  0.2662  1.1130 -0.2687
  530MOL0     C73008   4.584   8.616   1.962 -0.2437  0.0718 -0.5400
  530MOL0     C73009   4.634   8.579   1.843  0.6098  0.0224  0.3993
  530MOL0     O73010   4.763   8.597   1.802 -0.4999 -0.2704 -0.2336
  530MOL0     C73011   4.847   8.671   1.892 -0.0845 -0.3984  0.5763
  530MOL0     C73012   4.993   8.683   1.828 -0.1411  0.7226 -0.6784
  530MOL0     C73013   5.086   8.736   1.935 -0.6593 -0.1783 -0.9217
  530MOL0     C73014   5.223   8.746   1.865 -0.1598 -0.4586 -0.0728
  530MOL0     C73015   5.319   8.817   1.960 -0.4922 -0.0281  0.2127
  530MOL0     C73016   5.456   8.841   1.901 -0.3880  0.2691 -0.2241
  530MOL0     C73017   5.559   8.874   2.023  0.6387  0.2691  0.2320
  530MOL0     C73018   5.527   9.001   2.096 -0.6880 -0.0491  1.1609
  530MOL0     N73019   5.607   9.000   2.220 -0.7808 -0.6821 -0.2883
  530MOL0     C73020   5.740   9.046   2.206  0.4699 -0.2340 -1.4652
  530MOL0     C73021   5.773   9.082   2.326  0.4456  0.6259 -0.3415
  530MOL0     C73022   5.918   9.118   2.362 -0.0970 -0.4785 -0.9572
  530MOL0     C73023   5.945   9.269   2.361 -0.6526  0.1725 -0.1786
  530MOL0     C73024   6.094   9.307   2.358  0.0746  0.0938  0.5548
  530MOL0     C73025   6.113   9.453   2.331 -0.9907 -0.1803  0.0440
  530MOL0     O73026   6.242   9.461   2.271  0.0962 -0.2051 -0.1088
  530MOL0     C73027   6.285   9.579   2.213  0.1503  0.3279 -0.4317
  530MOL0     C73028   6.228   9.708   2.217  1.5829 -0.1382  0.0494
  530MOL0     C73029   6.292   9.822   2.177  0.1589 -0.2458  0.4333
  530MOL0     C73030   6.219   9.946   2.181 -0.1886 -0.1123 -0.4108
  530MOL0     C73031   6.416   9.812   2.102 -0.4237  0.2030  0.3389
  530MOL0     C73032   6.475   9.927   2.033  0.0189  0.1634 -0.2513
  530MOL0     O73033   6.422  10.049   2.036  0.0248  0.3870  0.4464
  530MOL0     C73034   6.490  10.160   1.988  0.3938 -0.6484 -0.7117
  530MOL0     C73035   6.439  10.228   1.877  0.0687  0.1824  0.5549
  530MOL0     C73036   6.506  10.335   1.811  0.6435 -0.5701  0.4983
  530MOL0     C73037   6.609  10.393   1.875 -0.1867 -0.7774 -0.3727
  530MOL0     O73038   6.674  10.513   1.829  0.9079 -0.2872 -0.9064
  530MOL0     C73039   6.647  10.553   1.689  0.5312 -0.2927  0.0323
  530MOL0     C73040   6.724  10.681   1.651 -0.3268 -0.6211 -0.1744
  530MOL0     C73041   6.869  10.671   1.679 -0.5728  0.3075 -0.4378
  530MOL0     C73042   6.937  10.813   1.669  0.4754 -0.3411 -0.1384
  530MOL0     C73043   7.089  10.807   1.646  0.5316 -0.1876 -0.4192
  530MOL0     C73044   7.172  10.733   1.758  0.1495 -0.4529 -1.1882
  530MOL0     C73045   7.321  10.745   1.716 -0.0299 -0.5101  0.2571
  530MOL0     C73046   7.401  10.640   1.791 -0.2492 -0.7237 -0.4055
  530MOL0    Cl73047   7.576  10.634   1.745  0.2832  0.1104  0.1508
  530MOL0     C73048   6.653  10.331   1.999 -0.1117 -0.4509  0.1122
  530MOL0     C73049   6.598  10.212   2.054  1.1920 -0.8777  0.3594
  530MOL0     O73050   6.579   9.896   1.978  0.4274  0.1998 -0.5656
  530MOL0     C73051   6.474   9.678   2.100  0.4170 -0.3044 -0.3696
  530MOL0     C73052   6.404   9.561   2.146 -0.4419  0.0792  0.2158
  530MOL0     N73053   5.676   9.068   2.414  0.2768  0.0664  0.0236
  530MOL0     N73054   5.571   9.030   2.350  0.1428  0.2051 -0.5839
  530MOL0     C73055   4.548   8.522   1.745 -0.5538  0.5099  0.3153
  530MOL0     C73056   4.415   8.498   1.774  0.7810  0.9237  0.0307
  530MOL0     C73057   4.033   8.365   1.957  0.0157 -0.7393 -0.3522
  530MOL0     C73058   3.979   8.302   2.068  0.2638 -0.6101 -0.1174
  530MOL0     C73059   3.840   8.285   2.077  0.1804  0.4861 -0.2128
  530MOL0     C73060   3.751   8.338   1.974 -0.1640 -0.2181  0.0619
  530MOL0     O73061   3.615   8.328   1.986  0.2781  0.1209  0.1424
  530MOL0     C73062   3.551   8.272   2.104 -0.3163 -0.2022 -0.7207
  530MOL0     C73063   3.561   8.366   2.224  0.1422 -0.8058 -0.4581
  530MOL0     C73064   3.546   8.289   2.350 -0.6712  0.1696 -1.0424
  530MOL0     C73065   3.409   8.220   2.358 -0.1598 -0.0180  1.1970
  530MOL0     C73066   3.296   8.309   2.362 -0.3114  0.8324 -0.6075
  530MOL0     C73067   3.197   8.378   2.376  0.1920 -0.2134 -0.2425
  530MOL0     C73068   3.810   8.402   1.862 -0.3327  0.2220 -0.3565
  530MOL0     C73069   3.952   8.417   1.852 -0.3985 -0.3373 -0.6842
  530MOL0     C73070   4.010   8.493   1.736  0.7456  1.1006  0.0590
  530MOL0     H73071   4.405   8.640   2.080  1.5948  0.1478  0.8155
  530MOL0     H73072   4.639   8.666   2.041 -2.2779  1.0125  0.3851
  530MOL0     H73073   4.856   8.613   1.984 -1.0710 -0.4622  0.6411
  530MOL0     H73074   4.799   8.762   1.929 -0.7566 -0.4750 -0.0900
  530MOL0     H73075   5.028   8.582   1.803  2.2176  1.0561  0.9362
  530MOL0     H73076   4.989   8.745   1.739  0.6487  0.4903 -0.8805
  530MOL0     H73077   5.051   8.834   1.965  0.1130  0.4679 -2.0277
  530MOL0     H73078   5.076   8.670   2.022 -3.0042  0.7640 -0.4134
  530MOL0     H73079   5.254   8.644   1.839  0.8370  0.2072 -1.7113
  530MOL0     H73080   5.224   8.801   1.770 -2.8537  1.2851  0.8015
  530MOL0     H73081   5.333   8.752   2.047  2.3995  0.6049  0.3145
  530MOL0     H73082   5.284   8.919   1.980  1.9892  0.9739 -0.2215
  530MOL0     H73083   5.487   8.747   1.855 -2.0671 -0.3306 -0.2281
  530MOL0     H73084   5.453   8.929   1.837 -1.9033  1.9619  1.9903
  530MOL0     H73085   5.658   8.877   1.977  0.0651 -0.7428 -1.1467
  530MOL0     H73086   5.537   8.794   2.094 -0.5182 -0.3694 -0.8114
  530MOL0     H73087   5.556   9.081   2.028 -2.1196  0.4011  1.0474
  530MOL0     H73088   5.422   9.004   2.127 -0.7063 -2.3577  1.4756
  530MOL0     H73089   5.808   9.041   2.121 -0.3268 -1.6428 -2.0371
  530MOL0     H73090   5.993   9.076   2.294  1.5456  0.4312  0.2491
  530MOL0     H73091   5.942   9.075   2.460  1.8474  1.0418 -0.7107
  530MOL0     H73092   5.900   9.310   2.271  0.8665 -1.6947 -1.8758
  530MOL0     H73093   5.902   9.315   2.451  1.6885  1.0740  0.5511
  530MOL0     H73094   6.153   9.283   2.447  6.5638  2.4476 -2.4729
  530MOL0     H73095   6.153   9.247   2.289 -0.0455  1.1066 -0.4558
  530MOL0     H73096   6.047   9.480   2.247  0.3431  1.1739 -0.6175
  530MOL0     H73097   6.099   9.511   2.422  0.0499 -0.2429  0.2548
  530MOL0     H73098   6.130   9.735   2.255  1.1434  2.1996 -2.4422
  530MOL0     H73099   6.128   9.938   2.242 -0.7518  0.0832 -1.2031
  530MOL0     H73100   6.190   9.979   2.081  0.3921 -1.0316 -0.8884
  530MOL0     H73101   6.285  10.016   2.233  0.5960 -1.0580 -0.1017
  530MOL0     H73102   6.347  10.187   1.836 -0.7100  1.1137  1.3357
  530MOL0     H73103   6.462  10.379   1.722 -0.1776  0.1423  1.2396
  530MOL0     H73104   6.677  10.472   1.623  1.4650 -0.0614  0.1589
  530MOL0     H73105   6.541  10.566   1.665  0.4844 -1.2603 -0.3435
  530MOL0     H73106   6.697  10.700   1.547 -3.0420 -1.6641  0.2704
  530MOL0     H73107   6.674  10.763   1.703 -1.7861 -1.5683 -0.0320
  530MOL0     H73108   6.917  10.607   1.605 -0.1221 -1.9954  1.7027
  530MOL0     H73109   6.890  10.629   1.778 -2.0853 -2.2911 -1.1135
  530MOL0     H73110   6.917  10.879   1.754  0.2976  0.6556 -0.9280
  530MOL0     H73111   6.904  10.855   1.573 -0.7479  2.3150  1.3338
  530MOL0     H73112   7.102  10.757   1.549  2.1871 -1.4939  0.4214
  530MOL0     H73113   7.123  10.909   1.630 -0.6651  0.4789  1.0462
  530MOL0     H73114   7.152  10.627   1.773  1.1173 -0.7478 -1.8834
  530MOL0     H73115   7.148  10.780   1.854 -1.5623 -1.5156 -1.0595
  530MOL0     H73116   7.357  10.846   1.740  2.8230 -0.7865 -2.3812
  530MOL0     H73117   7.323  10.729   1.608  0.8537 -0.7441  0.3051
  530MOL0     H73118   7.364  10.538   1.780  0.1518 -0.6685 -2.8564
  530MOL0     H73119   7.399  10.681   1.893  2.5446 -2.0785  0.2977
  530MOL0     H73120   6.745  10.370   2.040 -0.8402 -0.7146  2.1249
  530MOL0     H73121   6.642  10.183   2.149  0.9049 -2.3949  0.0513
  530MOL0     H73122   6.572   9.656   2.057 -0.0012 -0.6588 -1.1658
  530MOL0     H73123   6.444   9.462   2.124  1.4183  0.6905  0.6688
  530MOL0     H73124   4.595   8.490   1.652 -1.0423  0.8224 -0.0464
  530MOL0     H73125   4.356   8.459   1.692  1.2127 -0.4467  0.3492
  530MOL0     H73126   4.052   8.264   2.139 -2.0879 -2.7092  1.3586
  530MOL0     H73127   3.802   8.245   2.171  1.3239 -0.3496 -0.0913
  530MOL0     H73128   3.444   8.261   2.088 -0.8282 -3.1545  3.1363
  530MOL0     H73129   3.589   8.170   2.116  0.1458 -0.0430 -0.8108
  530MOL0     H73130   3.477   8.436   2.223 -0.0741 -1.0626 -0.5117
  530MOL0     H73131   3.649   8.430   2.224 -2.6246  3.3929  0.5752
  530MOL0     H73132   3.629   8.218   2.355  0.5475  1.4549 -2.0190
  530MOL0     H73133   3.552   8.347   2.443 -1.5029  0.9664 -1.4684
  530MOL0     H73134   3.413   8.165   2.452  0.7596 -2.0921  0.0298
  530MOL0     H73135   3.398   8.144   2.280  1.0100 -0.0014  0.9826
  530MOL0     H73136   3.107   8.431   2.352  0.7814  0.5345 -0.8757
  530MOL0     H73137   3.756   8.452   1.782 -2.0698  0.4177  0.8790
  530MOL0     H73138   4.072   8.418   1.685 -0.7588  0.5253 -1.0087
  530MOL0     H73139   3.929   8.518   1.668 -0.3255 -0.2298  0.8028
  530MOL0     H73140   4.059   8.588   1.760 -0.9275  1.4321  2.3853
  531MOL0     O73141   5.518   0.678   9.256 -0.0904 -0.7738 -0.1932
  531MOL0     C73142   5.426   0.633   9.192  0.3449 -0.4788  0.5650
  531MOL0     O73143   5.364   0.705   9.095 -0.0684  0.1397 -0.3158
  531MOL0     C73144   5.356   0.847   9.109  0.3106 -0.3453 -0.0008
  531MOL0     C73145   5.390   0.926   9.003  0.1005  0.2893  0.4406
  531MOL0     C73146   5.392   1.066   9.018  0.1837  0.4351  0.2554
  531MOL0     C73147   5.352   1.122   9.133 -0.0415 -0.3700 -0.2370
  531MOL0     O73148   5.337   1.264   9.142 -0.3078  0.2579 -0.3553
  531MOL0     C73149   5.380   1.324   9.268  0.6097  0.0063 -0.2658
  531MOL0     C73150   5.473   1.437   9.233  0.5183 -0.4177  0.3327
  531MOL0     C73151   5.601   1.376   9.166 -0.2472 -0.1530  0.1118
  531MOL0     C73152   5.716   1.469   9.171 -0.5611  0.0455 -0.0631
  531MOL0     C73153   5.852   1.405   9.147  0.2700 -0.8196  0.1223
  531MOL0     C73154   5.883   1.373   8.999 -0.1143 -0.2945 -0.7057
  531MOL0     C73155   6.024   1.315   8.977 -0.9032 -0.1090 -0.1576
  531MOL0     C73156   6.115   1.440   8.989 -0.4937 -0.3238 -0.2878
  531MOL0     N73157   6.259   1.415   8.978 -0.3006 -0.2648  0.1025
  531MOL0     C73158   6.324   1.367   8.873 -0.2834  0.2291 -0.9178
  531MOL0     C73159   6.455   1.387   8.897 -0.2559 -0.1533  0.0921
  531MOL0     C73160   6.573   1.365   8.810  0.5009  0.4465  0.3783
  531MOL0     C73161   6.618   1.224   8.807 -0.4062  0.0108 -0.5580
  531MOL0     C73162   6.712   1.204   8.695  0.2728 -0.6962 -0.2854
  531MOL0     C73163   6.759   1.061   8.677 -0.8077 -0.3685  0.3324
  531MOL0     O73164   6.837   1.070   8.552 -0.6199 -0.5824 -0.2575
  531MOL0     C73165   6.964   1.117   8.555 -0.7101  0.5461  1.3418
  531MOL0     C73166   7.056   1.062   8.641 -0.4284  0.9512  0.4485
  531MOL0     C73167   7.191   1.093   8.642  0.3201 -0.3117  0.2448
  531MOL0     C73168   7.284   1.039   8.744  0.0762  0.3954 -0.4200
  531MOL0     C73169   7.234   1.171   8.531  0.1882  0.3237  0.3166
  531MOL0     C73170   7.375   1.210   8.513  0.4284  0.1570 -0.6895
  531MOL0     O73171   7.439   1.165   8.405  0.1027 -0.2418  0.2981
  531MOL0     C73172   7.574   1.174   8.389 -0.0591 -0.1825 -0.0880
  531MOL0     C73173   7.639   1.298   8.372  0.5743  0.0884  0.5075
  531MOL0     C73174   7.779   1.297   8.394 -0.0450 -0.3028 -0.4636
  531MOL0     C73175   7.863   1.182   8.404 -0.0071 -0.0374  0.0785
  531MOL0     O73176   7.996   1.173   8.411 -0.6723  0.0755 -0.4095
  531MOL0     C73177   8.082   1.289   8.425  1.0716  0.2871 -0.0191
  531MOL0     C73178   8.220   1.245   8.451 -0.2813 -0.3406 -0.2027
  531MOL0     C73179   8.267   1.187   8.322  0.2830 -0.2459 -0.1799
  531MOL0     C73180   8.399   1.114   8.351  0.3363  0.2078  0.3006
  531MOL0     C73181   8.470   1.087   8.220 -0.1141 -0.2622  0.2350
  531MOL0     C73182   8.605   1.022   8.231  0.8182  0.5792 -0.3817
  531MOL0     C73183   8.674   0.993   8.104 -0.2768  0.7129 -0.3677
  531MOL0     C73184   8.603   0.888   8.008  0.7268 -0.5925  0.0378
  531MOL0    Cl73185   8.627   0.716   8.070 -0.1871  0.1697  0.3996
  531MOL0     C73186   7.792   1.060   8.397  0.6384 -0.5617 -0.0609
  531MOL0     C73187   7.647   1.053   8.389 -0.4745  0.4837  0.0351
  531MOL0     O73188   7.425   1.283   8.603  0.4730  0.3360 -0.3821
  531MOL0     C73189   7.141   1.225   8.443 -0.2574  0.7974 -0.1469
  531MOL0     C73190   7.008   1.204   8.458  0.4198 -0.2162  0.4600
  531MOL0     N73191   6.468   1.438   9.025 -0.0792 -0.6204  0.6770
  531MOL0     N73192   6.349   1.455   9.073  0.3283  0.6758 -0.5377
  531MOL0     C73193   5.303   1.040   9.234  0.1939 -0.0230  0.2932
  531MOL0     C73194   5.304   0.902   9.223 -0.4606 -0.0138  0.1314
  531MOL0     C73195   5.386   0.498   9.224 -0.0705  0.6929 -0.8240
  531MOL0     C73196   5.465   0.416   9.316  0.1283 -0.1897 -0.7663
  531MOL0     C73197   5.443   0.276   9.326 -0.3836  0.4596 -0.3818
  531MOL0     C73198   5.333   0.223   9.255 -0.5369 -0.9609 -0.6410
  531MOL0     O73199   5.307   0.088   9.244  0.2874  0.5363 -0.4082
  531MOL0     C73200   5.280   0.034   9.367  0.1284 -0.2105 -0.3200
  531MOL0     C73201   5.197  -0.089   9.348 -0.5797 -0.0174 -0.3982
  531MOL0     C73202   5.051  -0.061   9.318  0.5411  0.4705  0.0130
  531MOL0     C73203   4.949  -0.170   9.340 -0.0775 -0.7245 -1.2222
  531MOL0     C73204   4.967  -0.241   9.466 -0.3172 -0.9932 -0.2180
  531MOL0     C73205   4.950  -0.300   9.565  0.4128 -0.4682 -0.0546
  531MOL0     C73206   5.252   0.305   9.177 -0.4345 -0.2261  0.4171
  531MOL0     C73207   5.277   0.436   9.163 -0.8848 -0.3607 -0.4104
  531MOL0     C73208   5.178   0.508   9.071  0.1373  0.2040 -0.2929
  531MOL0     H73209   5.430   0.882   8.912 -2.3524  2.6002 -1.9143
  531MOL0     H73210   5.409   1.130   8.932  0.9460 -0.8687 -0.6084
  531MOL0     H73211   5.432   1.251   9.332  0.6858 -0.9863 -1.4292
  531MOL0     H73212   5.286   1.356   9.313  0.8259 -2.5560  2.3529
  531MOL0     H73213   5.424   1.496   9.155  0.3497 -2.3698 -1.1070
  531MOL0     H73214   5.495   1.501   9.319 -1.3962  1.3389 -0.3961
  531MOL0     H73215   5.632   1.289   9.224 -0.6737 -2.9023 -3.4547
  531MOL0     H73216   5.581   1.346   9.063 -1.2363  2.9822 -0.7413
  531MOL0     H73217   5.694   1.546   9.095 -0.5208 -0.0034 -0.1244
  531MOL0     H73218   5.716   1.521   9.267 -0.5064  1.8445 -0.9838
  531MOL0     H73219   5.856   1.313   9.205 -0.1099 -2.6495 -2.5470
  531MOL0     H73220   5.920   1.479   9.190 -0.4041 -0.0714 -0.0554
  531MOL0     H73221   5.815   1.290   8.974  0.0542 -0.3552 -0.9693
  531MOL0     H73222   5.844   1.453   8.936  1.7179  0.5878 -0.7759
  531MOL0     H73223   6.035   1.268   8.879  0.9853  0.3670 -0.2138
  531MOL0     H73224   6.042   1.240   9.055 -1.7410 -0.9498 -0.7498
  531MOL0     H73225   6.086   1.506   8.907  0.1240 -0.6375 -0.7701
  531MOL0     H73226   6.087   1.493   9.080 -0.0933 -0.0663 -0.3140
  531MOL0     H73227   6.276   1.326   8.784  0.7188 -0.4678 -1.1531
  531MOL0     H73228   6.657   1.432   8.831  1.4689 -0.3440 -0.8934
  531MOL0     H73229   6.533   1.388   8.711 -2.6923 -0.9930  1.1886
  531MOL0     H73230   6.677   1.194   8.894  0.2957 -0.0286 -1.0454
  531MOL0     H73231   6.533   1.156   8.795 -0.6605 -0.1203  1.6536
  531MOL0     H73232   6.658   1.239   8.607 -2.7292  0.6350  1.9002
  531MOL0     H73233   6.797   1.271   8.709 -1.2725  1.5085 -0.9504
  531MOL0     H73234   6.812   1.026   8.766  1.2954  2.3574  0.2817
  531MOL0     H73235   6.674   0.994   8.660 -2.6546  1.2612  2.5345
  531MOL0     H73236   7.021   0.984   8.707 -0.0375  0.4999  0.1249
  531MOL0     H73237   7.236   0.963   8.807 -1.2921  2.0161  0.5958
  531MOL0     H73238   7.302   1.127   8.806 -1.1733  1.6104 -1.7222
  531MOL0     H73239   7.376   0.995   8.705 -0.2498 -0.1660 -0.5683
  531MOL0     H73240   7.577   1.386   8.368 -0.5830 -0.5566  2.6723
  531MOL0     H73241   7.827   1.394   8.385  0.3003 -0.4369 -0.0650
  531MOL0     H73242   8.073   1.352   8.336  0.3151  0.7029  0.3422
  531MOL0     H73243   8.047   1.352   8.507  1.3712 -0.5673  0.7811
  531MOL0     H73244   8.289   1.328   8.474 -2.1681  0.8386  1.5380
  531MOL0     H73245   8.225   1.181   8.539  1.1415  0.0784  0.0521
  531MOL0     H73246   8.287   1.266   8.248  2.2038 -0.9924 -0.5318
  531MOL0     H73247   8.198   1.117   8.274 -0.6241 -0.5743  1.5491
  531MOL0     H73248   8.381   1.018   8.400 -1.5318 -0.2060 -1.0580
  531MOL0     H73249   8.468   1.167   8.417  2.2644  0.5195 -1.8232
  531MOL0     H73250   8.407   1.021   8.159  0.2832  0.2417 -0.7449
  531MOL0     H73251   8.495   1.182   8.172  0.5262 -1.0830 -1.1282
  531MOL0     H73252   8.597   0.926   8.282  2.6425  0.4305 -0.3334
  531MOL0     H73253   8.671   1.085   8.290  1.2584  1.8222 -2.1204
  531MOL0     H73254   8.769   0.955   8.143 -0.5100 -0.1812 -0.6429
  531MOL0     H73255   8.702   1.079   8.044  1.3772 -0.5601 -1.5018
  531MOL0     H73256   8.638   0.897   7.905 -1.3504  2.0528 -0.5670
  531MOL0     H73257   8.497   0.914   7.999  0.7835 -0.1124  0.6564
  531MOL0     H73258   7.860   0.977   8.408  1.1200 -0.0904  0.5855
  531MOL0     H73259   7.605   0.954   8.404 -0.6324  0.5703  0.1633
  531MOL0     H73260   7.176   1.295   8.367  0.2121  2.1504  1.2743
  531MOL0     H73261   6.947   1.244   8.379  1.9571 -2.0152 -1.7755
  531MOL0     H73262   5.269   1.075   9.331  2.0859  2.5189  0.1368
  531MOL0     H73263   5.265   0.845   9.307  1.9813 -1.1037  0.6143
  531MOL0     H73264   5.544   0.455   9.379 -1.7043 -0.9749  2.2513
  531MOL0     H73265   5.505   0.221   9.395  1.4074  0.5720 -1.8166
  531MOL0     H73266   5.370   0.022   9.429  0.2228 -2.5662 -0.8021
  531MOL0     H73267   5.220   0.103   9.426  1.0628 -1.3240  2.0666
  531MOL0     H73268   5.217  -0.144   9.440  0.9614 -0.1808 -0.8068
  531MOL0     H73269   5.236  -0.159   9.274  0.6192  0.9937 -0.7518
  531MOL0     H73270   5.021   0.023   9.380 -3.3932 -0.6560 -0.0687
  531MOL0     H73271   5.041  -0.039   9.211 -0.0179 -0.5261 -0.1503
  531MOL0     H73272   4.969  -0.252   9.269 -2.2450 -1.2468 -1.3085
  531MOL0     H73273   4.844  -0.138   9.337  0.1762  0.7701  1.7979
  531MOL0     H73274   4.923  -0.362   9.648 -0.0659 -2.2361 -1.4662
  531MOL0     H73275   5.169   0.253   9.129 -2.0697  1.4096  1.3238
  531MOL0     H73276   5.129   0.583   9.133 -0.6384 -0.0330 -0.6031
  531MOL0     H73277   5.229   0.547   8.983 -1.7324  0.8939 -1.1264
  531MOL0     H73278   5.092   0.448   9.039 -0.3200  1.2370 -1.0292
  532MOL0     O73279   4.696   1.376   3.232 -0.1372 -0.3277  0.2461
  532MOL0     C73280   4.729   1.270   3.186  0.3205  1.2730 -0.5144
  532MOL0     O73281   4.826   1.249   3.090 -0.1393 -0.2452  0.2047
  532MOL0     C73282   4.871   1.350   3.006 -0.7828 -0.7139 -0.1857
  532MOL0     C73283   4.846   1.347   2.870  0.5735 -0.1113  0.5409
  532MOL0     C73284   4.926   1.417   2.774  0.6482  1.1150  0.4512
  532MOL0     C73285   5.024   1.504   2.822 -0.5255 -0.0068  0.2312
  532MOL0     O73286   5.085   1.568   2.718  0.6570  0.1431  0.1922
  532MOL0     C73287   5.214   1.626   2.737 -0.4236  0.6915  0.0802
  532MOL0     C73288   5.274   1.656   2.594  0.9952 -0.6902 -0.2318
  532MOL0     C73289   5.304   1.520   2.520 -0.1157  0.0963  0.8258
  532MOL0     C73290   5.187   1.475   2.433  0.2859  0.1530 -0.1718
  532MOL0     C73291   5.197   1.334   2.383 -0.0152  0.1689 -0.1341
  532MOL0     C73292   5.182   1.232   2.498  0.2156 -0.2409  0.5795
  532MOL0     C73293   5.143   1.097   2.420  0.1217  0.0414 -1.3541
  532MOL0     C73294   5.262   1.004   2.395 -0.2010 -0.0187 -0.4021
  532MOL0     N73295   5.303   0.936   2.519  0.5326  0.4390  0.3800
  532MOL0     C73296   5.381   0.987   2.624  0.1573  0.3371 -0.5806
  532MOL0     C73297   5.414   0.872   2.689  0.4040  0.3723 -0.7803
  532MOL0     C73298   5.494   0.871   2.809 -0.4860  0.7445  0.1898
  532MOL0     C73299   5.644   0.839   2.764 -0.1867 -0.4946 -0.2477
  532MOL0     C73300   5.753   0.858   2.873  0.3186  1.1598  0.1586
  532MOL0     C73301   5.887   0.811   2.824 -0.1921  0.2795  0.3425
  532MOL0     O73302   5.925   0.875   2.702  0.1037 -0.0069 -0.5133
  532MOL0     C73303   6.051   0.847   2.650  1.4831 -0.0554  0.0068
  532MOL0     C73304   6.109   0.727   2.653 -1.3372  0.7453 -0.2212
  532MOL0     C73305   6.229   0.702   2.584 -0.6535 -0.4451  0.0880
  532MOL0     C73306   6.283   0.571   2.580 -0.2277 -0.2063  0.2929
  532MOL0     C73307   6.295   0.811   2.514 -1.1384 -0.2072  0.0250
  532MOL0     C73308   6.435   0.808   2.455  0.6566  0.9102  0.5635
  532MOL0     O73309   6.471   0.903   2.364  0.3565  0.2998  0.8112
  532MOL0     C73310   6.594   0.906   2.311 -1.0098  0.1733 -0.1401
  532MOL0     C73311   6.647   0.795   2.248  0.4724 -0.3541 -0.2137
  532MOL0     C73312   6.773   0.798   2.204  0.0459  0.2972  0.6897
  532MOL0     C73313   6.852   0.912   2.219  0.4254 -0.2395 -1.0128
  532MOL0     O73314   6.982   0.902   2.171  0.3413  0.1434  0.3854
  532MOL0     C73315   7.088   0.984   2.219 -0.2571 -0.6000  0.2801
  532MOL0     C73316   7.205   0.915   2.148  0.0177  0.2972  0.3266
  532MOL0     C73317   7.330   0.926   2.238 -0.7574 -0.2126  0.3674
  532MOL0     C73318   7.439   0.817   2.234  0.3209  0.5301 -0.3723
  532MOL0     C73319   7.541   0.818   2.352  0.2185 -0.1236 -0.0314
  532MOL0     C73320   7.660   0.717   2.326  0.0354 -0.3291 -0.2112
  532MOL0     C73321   7.761   0.724   2.447  0.6221 -0.3421  0.3803
  532MOL0     C73322   7.884   0.636   2.414  0.2721  0.4412  0.7105
  532MOL0    Cl73323   7.982   0.634   2.565  0.6960 -0.1031 -0.1300
  532MOL0     C73324   6.804   1.027   2.279  1.5254 -0.2177 -0.6071
  532MOL0     C73325   6.671   1.024   2.323 -0.7182 -0.0368 -0.1053
  532MOL0     O73326   6.516   0.733   2.507  0.3477  0.4286 -0.0476
  532MOL0     C73327   6.232   0.932   2.514 -0.1074 -0.4212  0.7454
  532MOL0     C73328   6.110   0.953   2.578  0.5843  0.1629 -0.2312
  532MOL0     N73329   5.361   0.761   2.622  0.0300 -0.1897 -0.5274
  532MOL0     N73330   5.297   0.800   2.519  0.0615  0.1073  0.3967
  532MOL0     C73331   5.047   1.516   2.964  0.4440  0.5284  0.6796
  532MOL0     C73332   4.970   1.442   3.060 -0.5004  0.0543  0.6014
  532MOL0     C73333   4.654   1.153   3.233 -0.0053 -0.0455 -0.8092
  532MOL0     C73334   4.688   1.027   3.187 -1.0541  1.0507 -0.8806
  532MOL0     C73335   4.631   0.907   3.237  0.5482 -0.5692 -0.2694
  532MOL0     C73336   4.521   0.913   3.321 -0.8452 -0.5029 -0.2111
  532MOL0     O73337   4.446   0.797   3.340 -0.1246 -0.2223  0.5771
  532MOL0     C73338   4.353   0.788   3.453 -0.3006 -0.6367  0.5101
  532MOL0     C73339   4.412   0.794   3.590  0.3573 -0.4896  0.3966
  532MOL0     C73340   4.478   0.661   3.636 -0.5383 -0.7149 -0.1512
  532MOL0     C73341   4.623   0.647   3.596 -0.0508  0.6144 -0.5785
  532MOL0     C73342   4.717   0.755   3.629  0.4202  0.1003  0.4655
  532MOL0     C73343   4.791   0.849   3.645  0.2153  0.2241 -0.4472
  532MOL0     C73344   4.480   1.041   3.364  0.5780 -0.8175  0.4118
  532MOL0     C73345   4.537   1.157   3.318  0.8345  0.3307 -0.3376
  532MOL0     C73346   4.469   1.283   3.360  0.2579  0.7843 -0.1342
  532MOL0     H73347   4.768   1.275   2.850  0.3084 -0.0290  1.2557
  532MOL0     H73348   4.893   1.408   2.671 -2.4096 -1.8306  1.5229
  532MOL0     H73349   5.268   1.550   2.794 -1.5789  0.1422  0.4623
  532MOL0     H73350   5.215   1.717   2.797 -0.9607 -0.2812  1.6160
  532MOL0     H73351   5.202   1.720   2.542  1.8351 -0.2205 -0.8423
  532MOL0     H73352   5.362   1.719   2.608  0.4716  0.4966 -1.9019
  532MOL0     H73353   5.388   1.535   2.451 -3.8942  1.0256 -4.2124
  532MOL0     H73354   5.341   1.448   2.593 -0.9195  0.3167  1.4738
  532MOL0     H73355   5.091   1.490   2.483  0.3271  1.4266 -0.4393
  532MOL0     H73356   5.204   1.534   2.343 -1.1497 -0.3613 -0.8173
  532MOL0     H73357   5.291   1.322   2.330 -0.3619  2.5157 -1.4081
  532MOL0     H73358   5.129   1.313   2.300  1.2750 -3.2548 -0.4753
  532MOL0     H73359   5.267   1.234   2.567  1.4373  0.5792 -0.8799
  532MOL0     H73360   5.095   1.268   2.554  0.7677  0.4794  0.9987
  532MOL0     H73361   5.088   1.114   2.327  2.2523  1.0938 -2.4875
  532MOL0     H73362   5.074   1.046   2.488  0.8394  2.3115  1.2653
  532MOL0     H73363   5.243   0.934   2.314  1.4974 -1.3948  0.3311
  532MOL0     H73364   5.348   1.058   2.356  1.1865 -1.8171  0.0427
  532MOL0     H73365   5.430   1.082   2.643  0.1622 -0.0425  1.6569
  532MOL0     H73366   5.450   0.793   2.872 -1.3176 -0.5608 -1.9137
  532MOL0     H73367   5.494   0.962   2.871  2.2120  0.5537  0.5871
  532MOL0     H73368   5.641   0.733   2.736 -1.7098 -0.3922 -0.5852
  532MOL0     H73369   5.667   0.908   2.683  0.5741 -0.4347  0.0097
  532MOL0     H73370   5.762   0.966   2.887 -0.5860  1.1898  0.5576
  532MOL0     H73371   5.733   0.798   2.962  1.8437  1.8050  0.9761
  532MOL0     H73372   5.968   0.828   2.896  1.2506 -0.5335 -1.0360
  532MOL0     H73373   5.896   0.702   2.814  1.2923  0.4190 -0.1245
  532MOL0     H73374   6.066   0.645   2.709 -0.5168  0.8487  0.5911
  532MOL0     H73375   6.221   0.514   2.650  0.0981  0.1224  0.8539
  532MOL0     H73376   6.384   0.562   2.621  0.0033 -0.8576 -0.4041
  532MOL0     H73377   6.272   0.534   2.478 -0.8564  1.1524 -0.1518
  532MOL0     H73378   6.584   0.708   2.231 -0.6386  0.4785 -0.3947
  532MOL0     H73379   6.813   0.704   2.167 -0.6924 -0.0291  0.6998
  532MOL0     H73380   7.077   1.090   2.194  0.6824 -0.3920  0.7337
  532MOL0     H73381   7.100   0.979   2.327 -2.7162  1.0446  0.7189
  532MOL0     H73382   7.179   0.810   2.134 -1.8941  0.8360 -0.6243
  532MOL0     H73383   7.210   0.953   2.045 -0.6266 -0.5110 -0.0158
  532MOL0     H73384   7.299   0.912   2.342 -0.9310 -2.5612  0.0532
  532MOL0     H73385   7.371   1.026   2.220 -1.4886 -0.1438 -1.0969
  532MOL0     H73386   7.490   0.823   2.138  1.4743  3.5661  0.3430
  532MOL0     H73387   7.369   0.733   2.244  1.4748 -0.5156 -0.9190
  532MOL0     H73388   7.572   0.922   2.354 -1.1877  0.3414 -0.9665
  532MOL0     H73389   7.494   0.789   2.446 -0.2200 -0.2651 -0.2913
  532MOL0     H73390   7.702   0.748   2.230  0.5810 -2.8071 -0.8332
  532MOL0     H73391   7.631   0.612   2.324  1.3751 -0.7003 -0.7306
  532MOL0     H73392   7.702   0.703   2.537 -0.7712 -0.9482 -0.6524
  532MOL0     H73393   7.791   0.829   2.462 -2.8241  0.7832  0.2877
  532MOL0     H73394   7.938   0.684   2.332 -1.1740  1.8050  0.5208
  532MOL0     H73395   7.873   0.528   2.395  0.4070  0.2201  1.8433
  532MOL0     H73396   6.861   1.119   2.280  0.8710  0.3229 -3.2238
  532MOL0     H73397   6.636   1.111   2.377  0.4307 -0.4937  1.4467
  532MOL0     H73398   6.290   1.017   2.478 -1.3799 -0.3473 -1.2955
  532MOL0     H73399   6.068   1.053   2.568 -1.7913 -0.8403 -0.8805
  532MOL0     H73400   5.124   1.587   2.989  2.0859 -0.3646 -1.4777
  532MOL0     H73401   4.990   1.431   3.166 -2.4926 -2.0397  0.8279
  532MOL0     H73402   4.763   1.025   3.108  0.5258 -1.4129  0.5514
  532MOL0     H73403   4.653   0.807   3.201  0.0638 -0.4433 -0.9280
  532MOL0     H73404   4.280   0.869   3.437  0.5856  0.4279  1.6479
  532MOL0     H73405   4.296   0.695   3.451 -1.4359 -0.0269  2.1400
  532MOL0     H73406   4.320   0.791   3.650 -0.8640 -3.5797 -1.3397
  532MOL0     H73407   4.476   0.881   3.601  0.1756  0.2000 -2.9248
  532MOL0     H73408   4.477   0.657   3.746 -1.9728 -0.0086 -0.1157
  532MOL0     H73409   4.421   0.576   3.598  2.8047 -1.6174 -3.7834
  532MOL0     H73410   4.619   0.639   3.487  4.2139 -1.7335 -0.7953
  532MOL0     H73411   4.658   0.550   3.634  0.0555  1.4228  1.5085
  532MOL0     H73412   4.857   0.931   3.664 -0.3078  0.6130 -0.2871
  532MOL0     H73413   4.397   1.058   3.433  1.5238 -1.7183  1.8157
  532MOL0     H73414   4.366   1.263   3.392  1.0539 -0.1453  2.0861
  532MOL0     H73415   4.518   1.332   3.446  0.7680  1.0246 -0.5543
  532MOL0     H73416   4.461   1.348   3.273  0.0058 -3.8382 -3.9085
  533MOL0     O73417   4.237   8.886   3.322  0.8871 -0.5853 -0.3319
  533MOL0     C73418   4.297   8.889   3.430  0.6218 -0.7963  0.0901
  533MOL0     O73419   4.381   8.990   3.461 -0.5897 -0.2009 -0.0709
  533MOL0     C73420   4.396   9.105   3.382 -0.3732 -0.8575  0.6309
  533MOL0     C73421   4.416   9.101   3.240  0.3552  0.5536  0.0722
  533MOL0     C73422   4.435   9.217   3.167  0.0225 -0.4546 -0.5464
  533MOL0     C73423   4.428   9.338   3.229  0.8504 -0.0730 -0.2504
  533MOL0     O73424   4.450   9.440   3.144 -0.2350 -0.9158 -0.5234
  533MOL0     C73425   4.478   9.572   3.199  0.4616  0.1745  0.4451
  533MOL0     C73426   4.494   9.663   3.087  0.3178 -0.6072 -0.4764
  533MOL0     C73427   4.643   9.678   3.042  0.0046 -0.4041  0.4338
  533MOL0     C73428   4.721   9.781   3.126 -0.3707  0.2527 -0.5069
  533MOL0     C73429   4.869   9.768   3.102 -0.1117 -0.2782 -0.0064
  533MOL0     C73430   4.951   9.881   3.159  1.2773  0.2218 -0.1717
  533MOL0     C73431   4.910   9.920   3.300  0.5164  0.1930  0.3549
  533MOL0     C73432   5.017  10.001   3.376 -0.4119  1.0170 -0.6794
  533MOL0     N73433   4.992  10.151   3.367  0.2482  0.0163  0.2672
  533MOL0     C73434   4.990  10.230   3.252 -0.8707 -0.0478 -0.4209
  533MOL0     C73435   4.915  10.340   3.288  0.6062  0.5819  0.0071
  533MOL0     C73436   4.861  10.443   3.192 -0.3038 -0.6948  0.3761
  533MOL0     C73437   4.762  10.390   3.082  0.6094  0.2061  0.0141
  533MOL0     C73438   4.733  10.496   2.978 -0.1486  0.2317  0.0492
  533MOL0     C73439   4.598  10.481   2.908 -0.0582  0.3779 -0.5277
  533MOL0     O73440   4.490  10.486   3.001  0.2825 -0.4461 -0.3139
  533MOL0     C73441   4.368  10.490   2.949  0.5623 -1.1306  0.5223
  533MOL0     C73442   4.325  10.482   2.809 -1.0607  0.1850 -0.2059
  533MOL0     C73443   4.190  10.473   2.768  0.4929 -1.3833  0.6914
  533MOL0     C73444   4.161  10.458   2.623 -0.4534 -0.1289  1.1737
  533MOL0     C73445   4.083  10.481   2.869 -0.0903 -0.7790 -0.2455
  533MOL0     C73446   3.944  10.470   2.845 -0.4509 -0.5219  0.0692
  533MOL0     O73447   3.866  10.511   2.951  0.0456  0.1449  0.9504
  533MOL0     C73448   3.725  10.503   2.939  0.4465 -0.3568  0.0441
  533MOL0     C73449   3.657  10.546   2.824 -0.2040 -0.5258  0.4664
  533MOL0     C73450   3.520  10.536   2.811 -1.2921 -0.2926  0.1387
  533MOL0     C73451   3.442  10.493   2.908 -0.2387  0.5745 -0.2147
  533MOL0     O73452   3.303  10.496   2.892  0.5635 -0.7128 -0.4117
  533MOL0     C73453   3.218  10.455   3.001 -0.0388  0.4113 -0.3045
  533MOL0     C73454   3.078  10.446   2.945  0.1432 -0.3889  0.2986
  533MOL0     C73455   2.969  10.405   3.042 -0.0936  0.8502 -0.6139
  533MOL0     C73456   2.825  10.415   2.997  0.0947 -0.3562 -0.3708
  533MOL0     C73457   2.719  10.393   3.110 -0.0991 -0.0640 -0.5628
  533MOL0     C73458   2.569  10.416   3.059 -0.5605  0.4631 -0.4082
  533MOL0     C73459   2.544  10.328   2.935 -0.0986  0.6646 -0.0493
  533MOL0     C73460   2.394  10.312   2.918  0.3312  0.2511  0.0370
  533MOL0    Cl73461   2.315  10.473   2.871  0.3074  0.1936 -0.1693
  533MOL0     C73462   3.506  10.465   3.036  0.7364  0.5533 -0.0905
  533MOL0     C73463   3.645  10.474   3.048  0.7451 -0.0357 -0.2874
  533MOL0     O73464   3.904  10.451   2.734 -0.0818  0.4800 -0.2768
  533MOL0     C73465   4.132  10.507   3.007  1.0593  0.3365  0.7168
  533MOL0     C73466   4.267  10.493   3.042 -0.1076  0.0144 -0.0332
  533MOL0     N73467   4.876  10.326   3.421  0.7316 -0.5664 -0.0269
  533MOL0     N73468   4.916  10.213   3.466  0.9207  0.5033 -0.0527
  533MOL0     C73469   4.410   9.343   3.368  0.2922 -0.2258 -1.0350
  533MOL0     C73470   4.399   9.231   3.445 -0.3338 -0.3891  0.2329
  533MOL0     C73471   4.287   8.777   3.524  0.0179 -0.1701  0.5646
  533MOL0     C73472   4.388   8.763   3.615 -0.1109  0.1216  0.3178
  533MOL0     C73473   4.402   8.661   3.706  0.2450  0.0546  0.7363
  533MOL0     C73474   4.309   8.558   3.715  0.7802 -0.8579 -1.1494
  533MOL0     O73475   4.293   8.461   3.810 -0.5710  0.2822 -0.0452
  533MOL0     C73476   4.402   8.457   3.904 -0.7812 -0.1857  0.0134
  533MOL0     C73477   4.391   8.321   3.977  0.7733 -0.2926 -0.1109
  533MOL0     C73478   4.476   8.311   4.096 -0.5553  0.7670  0.1309
  533MOL0     C73479   4.523   8.165   4.112 -0.0092 -0.6506  1.4775
  533MOL0     C73480   4.419   8.086   4.183 -1.0014 -0.8248  0.4271
  533MOL0     C73481   4.332   8.015   4.232  1.2958  0.8188  0.4425
  533MOL0     C73482   4.205   8.564   3.623 -0.4443  0.4542 -0.7730
  533MOL0     C73483   4.193   8.664   3.526  0.3074 -0.4862  0.4029
  533MOL0     C73484   4.063   8.665   3.444 -0.8162 -0.5488 -0.0647
  533MOL0     H73485   4.421   9.005   3.189 -0.1765  1.2828 -1.3985
  533MOL0     H73486   4.467   9.212   3.063  1.2112 -1.1075 -0.1653
  533MOL0     H73487   4.568   9.565   3.261  0.2632 -0.6414  0.6524
  533MOL0     H73488   4.384   9.594   3.251  0.2910 -5.6100  3.4426
  533MOL0     H73489   4.428   9.636   3.004 -0.8013  1.1241 -0.1956
  533MOL0     H73490   4.474   9.764   3.123  2.6900 -0.6538  1.1670
  533MOL0     H73491   4.680   9.575   3.034 -0.7616 -0.8960  2.5485
  533MOL0     H73492   4.649   9.712   2.938  2.1517 -0.5781  0.4589
  533MOL0     H73493   4.689   9.884   3.108  1.3859  0.9509  0.0897
  533MOL0     H73494   4.708   9.752   3.231  2.7613 -2.0940 -0.6228
  533MOL0     H73495   4.892   9.763   2.995 -1.0581 -2.7894 -0.1675
  533MOL0     H73496   4.910   9.681   3.154 -1.3856  0.4786  2.4033
  533MOL0     H73497   5.049   9.832   3.158  1.3010  0.2393 -1.8113
  533MOL0     H73498   4.939   9.970   3.098 -1.8282 -0.4594 -0.7094
  533MOL0     H73499   4.884   9.830   3.357 -1.4212  1.6825  1.9908
  533MOL0     H73500   4.821   9.983   3.288  0.1997 -0.0094  1.4786
  533MOL0     H73501   5.000   9.969   3.479 -4.3096 -0.4787 -1.5969
  533MOL0     H73502   5.121   9.981   3.350 -0.4561 -0.2794  0.0744
  533MOL0     H73503   5.027  10.201   3.155  0.6688 -1.7437  0.6249
  533MOL0     H73504   4.948  10.475   3.135 -3.7315  1.7199 -4.1996
  533MOL0     H73505   4.819  10.526   3.249 -0.1306  0.9761 -1.7780
  533MOL0     H73506   4.809  10.301   3.038 -0.6232 -1.1986  1.4076
  533MOL0     H73507   4.673  10.351   3.133  1.7806 -2.0240  0.4861
  533MOL0     H73508   4.725  10.593   3.027 -1.9357 -1.0539  2.5034
  533MOL0     H73509   4.804  10.483   2.896  0.0396 -0.3472  0.2996
  533MOL0     H73510   4.577  10.561   2.836 -2.8337 -1.8875 -2.5048
  533MOL0     H73511   4.594  10.379   2.868 -0.9854  0.2100 -0.0335
  533MOL0     H73512   4.391  10.487   2.723  1.4772  3.2658  1.7182
  533MOL0     H73513   4.250  10.435   2.563  0.2914  1.8867  1.4326
  533MOL0     H73514   4.123  10.555   2.589 -1.8451 -0.8240  0.6592
  533MOL0     H73515   4.087  10.379   2.608  3.2072 -3.9419  1.2391
  533MOL0     H73516   3.712  10.597   2.746 -0.7789  2.4925  1.8920
  533MOL0     H73517   3.483  10.567   2.714  2.4896  3.2120 -0.4577
  533MOL0     H73518   3.246  10.357   3.041  0.6290  2.4198  5.0318
  533MOL0     H73519   3.232  10.523   3.086  1.9879 -0.2826 -0.0234
  533MOL0     H73520   3.052  10.549   2.917 -0.8950 -0.2021  1.8314
  533MOL0     H73521   3.073  10.388   2.853 -6.7811  2.6283 -1.8959
  533MOL0     H73522   2.978  10.463   3.135  1.1504  1.4412 -1.0880
  533MOL0     H73523   2.999  10.301   3.062  0.8888  1.1857 -0.2961
  533MOL0     H73524   2.808  10.337   2.922 -1.8828  0.1860 -0.5376
  533MOL0     H73525   2.809  10.509   2.945  0.5461 -1.3711 -2.4758
  533MOL0     H73526   2.736  10.291   3.145 -0.5469  0.5838  1.7926
  533MOL0     H73527   2.730  10.465   3.192  0.5388  0.5100 -1.1430
  533MOL0     H73528   2.556  10.516   3.019  1.5398  1.0235  0.1869
  533MOL0     H73529   2.500  10.392   3.140 -2.0335 -2.2522 -2.2746
  533MOL0     H73530   2.581  10.227   2.959  1.2007  0.8635 -1.1249
  533MOL0     H73531   2.575  10.371   2.840 -3.1852  4.2975  0.3321
  533MOL0     H73532   2.354  10.272   3.011  0.0903 -0.5900 -0.4149
  533MOL0     H73533   2.384  10.238   2.838 -1.2315 -1.7487  1.9545
  533MOL0     H73534   3.453  10.435   3.126  0.8549  1.1863  0.2006
  533MOL0     H73535   3.694  10.466   3.145  0.0309  4.7348  0.7230
  533MOL0     H73536   4.056  10.507   3.084 -0.5307  1.4269 -0.7913
  533MOL0     H73537   4.298  10.503   3.145 -3.2391 -2.2625  1.2592
  533MOL0     H73538   4.417   9.433   3.428 -0.0217 -0.8431 -0.0564
  533MOL0     H73539   4.383   9.242   3.552  3.8700  0.2951  0.9441
  533MOL0     H73540   4.466   8.838   3.622 -0.5344  1.0545 -3.1297
  533MOL0     H73541   4.488   8.655   3.771  0.3799 -1.7869  0.4324
  533MOL0     H73542   4.499   8.462   3.853  0.8417  2.3814  3.0278
  533MOL0     H73543   4.401   8.543   3.972 -0.3285  1.2812 -1.7518
  533MOL0     H73544   4.417   8.239   3.910 -0.1548 -2.6812  2.2800
  533MOL0     H73545   4.285   8.307   4.001  0.3539  3.4860  1.0867
  533MOL0     H73546   4.565   8.374   4.086  0.8942 -1.3293 -0.9736
  533MOL0     H73547   4.417   8.352   4.179 -1.8543  2.0766 -1.3830
  533MOL0     H73548   4.615   8.174   4.170 -1.3231  4.2093  3.3604
  533MOL0     H73549   4.551   8.115   4.019 -2.0245  0.1198  0.3690
  533MOL0     H73550   4.252   7.953   4.268  0.4455  0.9943 -1.0607
  533MOL0     H73551   4.138   8.481   3.645 -0.9147  1.5988  2.7107
  533MOL0     H73552   4.000   8.750   3.471  0.8430  0.7671 -0.1660
  533MOL0     H73553   4.068   8.656   3.335 -0.8389 -0.6728 -0.0554
  533MOL0     H73554   4.014   8.574   3.480  1.2334 -1.1168  1.5022
  534MOL0     O73555   0.242   2.090   8.049  0.4559  0.6546 -0.1691
  534MOL0     C73556   0.126   2.070   8.018 -0.5731  0.2389  0.4818
  534MOL0     O73557   0.081   2.003   7.909  0.4431  0.5638 -0.3601
  534MOL0     C73558   0.165   1.938   7.823  0.5958  0.2734  0.8431
  534MOL0     C73559   0.264   1.845   7.855  0.1163  0.9765  0.1052
  534MOL0     C73560   0.332   1.777   7.754  0.0743 -0.0774 -0.3484
  534MOL0     C73561   0.299   1.788   7.622  0.3137 -1.0090  0.4280
  534MOL0     O73562   0.363   1.720   7.519 -0.1400 -0.3470 -0.3202
  534MOL0     C73563   0.353   1.574   7.529 -0.3283  0.1857 -0.0708
  534MOL0     C73564   0.437   1.514   7.415  0.3164  1.3941  0.8584
  534MOL0     C73565   0.578   1.559   7.389 -0.3197 -0.4464  0.4714
  534MOL0     C73566   0.676   1.485   7.481 -0.2776 -0.8744 -0.2924
  534MOL0     C73567   0.815   1.534   7.448  0.0760  0.1044 -0.0472
  534MOL0     C73568   0.916   1.445   7.535  0.4824  0.6269  0.5627
  534MOL0     C73569   1.061   1.493   7.501 -0.4433  0.1510 -0.1448
  534MOL0     C73570   1.173   1.454   7.591  1.2018  0.7570 -0.4181
  534MOL0     N73571   1.298   1.504   7.548  0.2741  0.9029  0.3634
  534MOL0     C73572   1.345   1.633   7.551 -0.2976 -0.3278 -0.0220
  534MOL0     C73573   1.471   1.625   7.505 -0.9915 -0.8928  0.1247
  534MOL0     C73574   1.561   1.750   7.504  0.1913 -0.0940  0.2947
  534MOL0     C73575   1.544   1.854   7.617  0.7321  0.5326 -0.0976
  534MOL0     C73576   1.654   1.965   7.616 -0.4252 -0.8117 -0.0914
  534MOL0     C73577   1.802   1.922   7.610 -0.3671 -0.2088  0.3615
  534MOL0     O73578   1.883   2.038   7.617 -1.1266  0.0816  0.7596
  534MOL0     C73579   2.014   2.037   7.569  0.2427  0.1043 -0.2104
  534MOL0     C73580   2.097   1.921   7.561 -0.4625  0.1787 -0.2182
  534MOL0     C73581   2.226   1.920   7.494  0.4827  0.2125 -0.5830
  534MOL0     C73582   2.296   1.784   7.475  0.2490 -0.7566  0.9112
  534MOL0     C73583   2.271   2.036   7.427 -0.4671  0.0996  0.4952
  534MOL0     C73584   2.389   2.040   7.338  0.2470 -0.0565 -0.7769
  534MOL0     O73585   2.454   2.157   7.310 -0.4930  0.1638  0.5184
  534MOL0     C73586   2.581   2.145   7.255 -0.3123  0.3471 -0.4012
  534MOL0     C73587   2.608   2.177   7.122 -0.6100  0.5601  0.3283
  534MOL0     C73588   2.747   2.160   7.077  0.2204  0.5678  0.5399
  534MOL0     C73589   2.849   2.110   7.158  0.2304 -0.4694 -0.2702
  534MOL0     O73590   2.980   2.090   7.122 -0.3482 -0.1072  0.3077
  534MOL0     C73591   3.045   2.203   7.052  0.5778  0.4561  0.0224
  534MOL0     C73592   3.195   2.179   7.043  0.1883  0.0197 -0.7771
  534MOL0     C73593   3.265   2.260   6.931 -0.0627 -0.4140 -0.6423
  534MOL0     C73594   3.407   2.220   6.917 -0.0807 -0.5009  0.5712
  534MOL0     C73595   3.468   2.286   6.802 -0.1670 -0.8699  0.9736
  534MOL0     C73596   3.481   2.437   6.814 -0.0528 -0.6011  0.7348
  534MOL0     C73597   3.575   2.487   6.695 -0.4973 -0.3145 -0.3373
  534MOL0     C73598   3.616   2.636   6.708  0.2652  0.1367  0.1536
  534MOL0    Cl73599   3.463   2.733   6.677  0.0669 -0.1175 -0.5003
  534MOL0     C73600   2.812   2.087   7.294  0.2349 -0.3674  0.5159
  534MOL0     C73601   2.683   2.107   7.338  0.3060 -0.3898 -0.0936
  534MOL0     O73602   2.419   1.930   7.280 -0.5682 -0.5048  0.2714
  534MOL0     C73603   2.198   2.154   7.440 -0.0616 -0.2690  0.0675
  534MOL0     C73604   2.071   2.152   7.506 -0.8053  0.1427 -0.6707
  534MOL0     N73605   1.494   1.500   7.451  0.4211 -0.5136 -1.0899
  534MOL0     N73606   1.392   1.429   7.476  0.4254  0.1419  0.2801
  534MOL0     C73607   0.194   1.880   7.586 -0.2483  0.2899 -0.8980
  534MOL0     C73608   0.127   1.951   7.686  0.0394 -0.6955 -0.1270
  534MOL0     C73609   0.016   2.144   8.087  0.3325 -0.1576  0.7617
  534MOL0     C73610  -0.102   2.068   8.094 -0.0536 -0.6991 -0.1701
  534MOL0     C73611  -0.219   2.117   8.150  0.0533 -0.2397 -0.2579
  534MOL0     C73612  -0.215   2.248   8.202 -0.4490  0.0089  0.5608
  534MOL0     O73613  -0.320   2.303   8.274 -0.3310 -0.3219  0.6848
  534MOL0     C73614  -0.442   2.283   8.203  0.6549 -0.4794  0.1918
  534MOL0     C73615  -0.555   2.358   8.284 -0.7004  0.5486  0.3358
  534MOL0     C73616  -0.564   2.501   8.239 -0.0107 -0.7809 -0.0293
  534MOL0     C73617  -0.697   2.567   8.296 -0.2173  0.5936 -0.7078
  534MOL0     C73618  -0.812   2.507   8.229 -0.4973  0.6237  0.1083
  534MOL0     C73619  -0.903   2.464   8.170 -0.3127  0.4966  0.4745
  534MOL0     C73620  -0.094   2.322   8.201  0.2251 -0.3759  0.1346
  534MOL0     C73621   0.022   2.272   8.139  0.0228 -0.0572  0.3878
  534MOL0     C73622   0.143   2.363   8.139  0.2258  0.5220  0.3609
  534MOL0     H73623   0.297   1.817   7.955 -1.4318 -0.3256  0.2866
  534MOL0     H73624   0.404   1.697   7.770 -0.0290 -0.0371  0.3749
  534MOL0     H73625   0.249   1.538   7.530 -0.7911  1.4995  1.0003
  534MOL0     H73626   0.397   1.544   7.625  2.8204 -0.3405 -1.5371
  534MOL0     H73627   0.449   1.407   7.434 -0.4139  1.4625  1.7446
  534MOL0     H73628   0.375   1.528   7.325  2.7055  1.3488 -0.8919
  534MOL0     H73629   0.614   1.558   7.286  2.7434 -0.7414  1.4578
  534MOL0     H73630   0.585   1.666   7.412  1.4818 -0.0508 -1.5602
  534MOL0     H73631   0.652   1.512   7.585  1.5263 -1.6590  0.3753
  534MOL0     H73632   0.665   1.377   7.465  0.2909 -0.7025 -2.0367
  534MOL0     H73633   0.844   1.636   7.471  0.0851 -0.1122  0.9269
  534MOL0     H73634   0.832   1.520   7.341 -1.3423 -1.9250 -0.0746
  534MOL0     H73635   0.880   1.453   7.638 -5.0886  2.4095 -1.1604
  534MOL0     H73636   0.906   1.338   7.514  0.9210  0.0636  2.8676
  534MOL0     H73637   1.072   1.599   7.478  0.3011 -0.2912 -2.0593
  534MOL0     H73638   1.092   1.446   7.407 -0.7933 -2.1764  0.8240
  534MOL0     H73639   1.159   1.489   7.694 -2.4203  0.6294 -0.7448
  534MOL0     H73640   1.167   1.345   7.592  1.9417  0.6966  1.2082
  534MOL0     H73641   1.302   1.722   7.598  3.1044  0.4277  2.0685
  534MOL0     H73642   1.555   1.794   7.404  2.6396  2.3780  1.1390
  534MOL0     H73643   1.663   1.714   7.519 -0.4677 -1.4456  2.0116
  534MOL0     H73644   1.449   1.907   7.612  1.2981  1.6114  0.3020
  534MOL0     H73645   1.547   1.800   7.712 -0.3185 -1.6874 -1.2364
  534MOL0     H73646   1.637   2.033   7.531  1.5146  0.0081  0.1077
  534MOL0     H73647   1.642   2.031   7.703  0.0826 -1.6737  0.6444
  534MOL0     H73648   1.833   1.850   7.686 -0.1260  0.5664  1.0062
  534MOL0     H73649   1.826   1.869   7.517 -0.9518 -2.4134  1.3956
  534MOL0     H73650   2.057   1.825   7.589 -2.7929  0.6735 -1.5515
  534MOL0     H73651   2.276   1.740   7.377 -0.7364 -1.5374  1.4428
  534MOL0     H73652   2.239   1.708   7.530 -1.8755 -0.3714 -0.6168
  534MOL0     H73653   2.403   1.784   7.500  0.7992 -0.2767 -1.2232
  534MOL0     H73654   2.531   2.211   7.054  0.9300  0.2927 -1.6310
  534MOL0     H73655   2.768   2.180   6.972  1.5151 -0.3410  0.6043
  534MOL0     H73656   3.004   2.215   6.951 -0.0039 -1.9108 -0.0800
  534MOL0     H73657   3.028   2.291   7.114 -0.7492  1.2583 -1.4090
  534MOL0     H73658   3.245   2.199   7.139 -4.5748 -1.3306  2.3070
  534MOL0     H73659   3.211   2.073   7.020 -0.8844  0.0769 -1.8428
  534MOL0     H73660   3.247   2.364   6.959  2.6218  0.5868 -2.2843
  534MOL0     H73661   3.209   2.243   6.838 -0.0533  0.4820 -0.8222
  534MOL0     H73662   3.427   2.113   6.907  1.5811 -0.2004  0.4428
  534MOL0     H73663   3.457   2.259   7.006  0.2522  0.3378  0.0323
  534MOL0     H73664   3.571   2.249   6.793  0.3959  0.8997 -0.2148
  534MOL0     H73665   3.419   2.253   6.710  1.5630 -1.3314  0.1685
  534MOL0     H73666   3.513   2.464   6.915  0.2010 -1.8392  0.9944
  534MOL0     H73667   3.390   2.492   6.785  0.0712 -0.1289  1.2417
  534MOL0     H73668   3.528   2.464   6.599  0.5745  1.3158 -1.2824
  534MOL0     H73669   3.670   2.433   6.702 -0.8402 -1.1004 -1.3969
  534MOL0     H73670   3.689   2.671   6.635  0.2259  1.5925  0.7707
  534MOL0     H73671   3.654   2.663   6.807  1.9742 -1.1730 -0.1230
  534MOL0     H73672   2.884   2.051   7.367  1.1222 -0.1308 -0.2186
  534MOL0     H73673   2.646   2.077   7.436  0.7946 -1.0674 -0.1108
  534MOL0     H73674   2.226   2.246   7.390 -0.4805 -0.5189 -0.6438
  534MOL0     H73675   2.007   2.239   7.514 -0.8476 -0.0298  1.6118
  534MOL0     H73676   0.171   1.885   7.480 -1.3036 -1.6278 -0.8120
  534MOL0     H73677   0.054   2.024   7.651  1.7749  0.0568 -2.4315
  534MOL0     H73678  -0.100   1.964   8.064  0.4185 -0.7348 -0.0235
  534MOL0     H73679  -0.303   2.049   8.154  0.0082 -0.1158  2.4617
  534MOL0     H73680  -0.436   2.325   8.103 -1.5056 -2.3871 -0.8131
  534MOL0     H73681  -0.471   2.178   8.198  2.2500 -0.9124 -0.9281
  534MOL0     H73682  -0.523   2.336   8.387  2.5923  0.2055 -0.6516
  534MOL0     H73683  -0.651   2.308   8.271 -1.7131  1.7161  2.7409
  534MOL0     H73684  -0.475   2.557   8.268  0.7072 -1.1800 -1.3641
  534MOL0     H73685  -0.562   2.507   8.129  2.8433  1.2632  0.0284
  534MOL0     H73686  -0.706   2.671   8.263 -1.5671  0.4149 -0.9586
  534MOL0     H73687  -0.691   2.561   8.405 -1.8615 -0.0063 -0.6271
  534MOL0     H73688  -0.977   2.414   8.112  1.5560  1.5660 -3.1174
  534MOL0     H73689  -0.097   2.421   8.245 -2.3999 -0.2492 -0.2169
  534MOL0     H73690   0.119   2.467   8.115  0.4747  0.6005  0.4395
  534MOL0     H73691   0.203   2.364   8.231  0.4393  2.1880  0.2472
  534MOL0     H73692   0.209   2.324   8.062 -0.2397  3.1060 -1.4996
  535MOL0     O73693   5.583   8.435   2.135 -0.3211 -0.1887 -0.1192
  535MOL0     C73694   5.576   8.504   2.240 -1.1589  1.4059  0.7066
  535MOL0     O73695   5.677   8.525   2.326 -0.3292  0.9278 -0.4925
  535MOL0     C73696   5.798   8.504   2.267 -0.7835  0.7999  0.0578
  535MOL0     C73697   5.880   8.613   2.248 -0.2884 -0.6422 -0.0392
  535MOL0     C73698   6.008   8.595   2.203 -0.4122  0.5365  0.0474
  535MOL0     C73699   6.069   8.470   2.176 -0.5272 -0.2139 -0.8126
  535MOL0     O73700   6.200   8.447   2.150 -0.6451 -0.6403 -0.6741
  535MOL0     C73701   6.283   8.554   2.209  0.0134 -0.0358 -0.0125
  535MOL0     C73702   6.412   8.486   2.247  0.4968  0.3750 -0.2377
  535MOL0     C73703   6.522   8.583   2.283  0.4525 -0.4185 -1.2484
  535MOL0     C73704   6.603   8.532   2.403  0.1080  0.4251 -0.3121
  535MOL0     C73705   6.673   8.395   2.373  0.1207 -1.0817 -1.1182
  535MOL0     C73706   6.720   8.338   2.499 -0.2358 -0.4435 -0.1707
  535MOL0     C73707   6.762   8.190   2.459 -0.0870  0.1232  0.6756
  535MOL0     C73708   6.844   8.117   2.565 -0.1713  0.1831  0.2748
  535MOL0     N73709   6.767   8.109   2.690 -0.5472 -1.0302  0.2333
  535MOL0     C73710   6.646   8.041   2.711  0.2216  0.4815  0.1454
  535MOL0     C73711   6.624   8.058   2.843  0.4961 -0.1424 -0.4923
  535MOL0     C73712   6.518   7.999   2.933 -0.5323  0.0936  0.0134
  535MOL0     C73713   6.379   8.031   2.888  1.0658 -0.5465  0.1704
  535MOL0     C73714   6.350   8.185   2.876  0.7369  0.0920  1.0458
  535MOL0     C73715   6.402   8.266   2.985 -0.6492  0.8656 -0.7841
  535MOL0     O73716   6.351   8.391   2.972 -0.4731 -0.6403  0.1872
  535MOL0     C73717   6.432   8.498   2.933  0.1340  0.1630  0.2307
  535MOL0     C73718   6.384   8.626   2.966  0.6815  0.1205 -0.1279
  535MOL0     C73719   6.452   8.744   2.922  0.1521  0.3266 -0.7358
  535MOL0     C73720   6.389   8.872   2.960 -0.4261  0.3878  0.1312
  535MOL0     C73721   6.576   8.735   2.850 -0.2376  0.3633 -0.4169
  535MOL0     C73722   6.663   8.852   2.795  0.6267 -0.4289 -0.0457
  535MOL0     O73723   6.778   8.823   2.726  0.2699  0.3506 -0.0756
  535MOL0     C73724   6.866   8.933   2.728  0.9198  0.5079  1.0399
  535MOL0     C73725   6.995   8.923   2.785  1.0081 -0.0738  0.9178
  535MOL0     C73726   7.100   9.013   2.748 -0.1374 -0.1014  0.2201
  535MOL0     C73727   7.076   9.119   2.659  0.5899  0.1051 -0.3092
  535MOL0     O73728   7.176   9.198   2.635  0.5395  0.2253 -0.2530
  535MOL0     C73729   7.176   9.272   2.517  0.6265 -0.3384 -0.7104
  535MOL0     C73730   7.306   9.338   2.492  0.1053 -0.5669 -0.7070
  535MOL0     C73731   7.425   9.242   2.493  0.6191  0.1808 -0.4675
  535MOL0     C73732   7.556   9.300   2.424 -0.0932 -0.3418 -0.5557
  535MOL0     C73733   7.678   9.206   2.463  0.1127  0.2253 -0.7886
  535MOL0     C73734   7.794   9.257   2.400  0.2343 -0.5371  0.3200
  535MOL0     C73735   7.917   9.174   2.419 -0.2129 -0.1213 -0.4721
  535MOL0     C73736   8.044   9.244   2.357  0.6036  0.8770 -0.2606
  535MOL0    Cl73737   8.020   9.268   2.181 -0.1170 -0.1243  0.5992
  535MOL0     C73738   6.939   9.136   2.609 -0.8661 -0.0711 -1.0752
  535MOL0     C73739   6.833   9.048   2.643 -0.5135 -0.9084 -0.3835
  535MOL0     O73740   6.615   8.971   2.812 -0.2148  0.2215 -0.2785
  535MOL0     C73741   6.614   8.606   2.807 -0.5574  0.4898 -0.1686
  535MOL0     C73742   6.549   8.498   2.855  0.6022  0.1863  0.9613
  535MOL0     N73743   6.733   8.129   2.892 -0.1414 -0.8352 -0.1114
  535MOL0     N73744   6.820   8.162   2.803 -0.8044  0.5884 -0.3082
  535MOL0     C73745   5.981   8.360   2.193  0.1691 -0.7125  0.1006
  535MOL0     C73746   5.846   8.378   2.234 -0.0761  0.2384  0.1041
  535MOL0     C73747   5.446   8.567   2.273 -0.6359 -0.1692  0.6258
  535MOL0     C73748   5.461   8.692   2.346  0.0950  0.2862 -0.0757
  535MOL0     C73749   5.347   8.764   2.383  0.6834 -0.4704 -0.9198
  535MOL0     C73750   5.215   8.710   2.357 -0.1528 -0.5504  0.0769
  535MOL0     O73751   5.110   8.793   2.385 -0.0044 -0.0853 -0.4515
  535MOL0     C73752   4.972   8.763   2.334  0.1785  0.0752 -0.3755
  535MOL0     C73753   4.888   8.680   2.439 -0.1012 -0.9218  0.0196
  535MOL0     C73754   4.883   8.745   2.577 -0.3366  0.8570  0.4516
  535MOL0     C73755   4.756   8.713   2.647  0.6644 -0.9847 -1.3531
  535MOL0     C73756   4.749   8.569   2.675  0.7425 -0.6449  0.2933
  535MOL0     C73757   4.744   8.449   2.694  0.2604 -0.2670  0.2715
  535MOL0     C73758   5.205   8.590   2.284 -0.5524  0.2833  0.0688
  535MOL0     C73759   5.323   8.512   2.246  0.1844 -0.2689 -0.6480
  535MOL0     C73760   5.305   8.377   2.184  0.4090 -0.5331  0.5919
  535MOL0     H73761   5.852   8.715   2.272  2.3696 -0.1206  1.1985
  535MOL0     H73762   6.076   8.677   2.183  1.3680 -0.4500  1.6631
  535MOL0     H73763   6.250   8.595   2.304 -0.4061 -0.1797 -0.0931
  535MOL0     H73764   6.292   8.633   2.134 -0.8441  0.7690  0.7211
  535MOL0     H73765   6.401   8.415   2.330 -0.2149 -2.0312 -2.2692
  535MOL0     H73766   6.442   8.429   2.159  1.7553 -0.2130  0.5311
  535MOL0     H73767   6.592   8.606   2.203  1.1956  2.2652  0.0480
  535MOL0     H73768   6.485   8.682   2.311  2.6079 -0.2148  1.2458
  535MOL0     H73769   6.684   8.600   2.430  3.0490 -2.8848 -0.1513
  535MOL0     H73770   6.541   8.522   2.493  0.6970  0.8503  0.1496
  535MOL0     H73771   6.751   8.420   2.300  0.1315  1.2480 -0.4098
  535MOL0     H73772   6.602   8.324   2.330 -0.7372  0.0037 -1.5785
  535MOL0     H73773   6.801   8.391   2.550 -0.5035 -0.0742 -0.1251
  535MOL0     H73774   6.631   8.331   2.563 -1.6777 -0.6449 -2.1350
  535MOL0     H73775   6.828   8.199   2.372  0.5169  1.6537  1.2573
  535MOL0     H73776   6.675   8.129   2.435  1.6975 -2.1174 -0.5735
  535MOL0     H73777   6.877   8.017   2.535 -0.4711 -0.1914  1.1311
  535MOL0     H73778   6.934   8.176   2.583  1.5414 -2.6713  1.9221
  535MOL0     H73779   6.592   7.978   2.642 -0.2332 -0.5747  1.4407
  535MOL0     H73780   6.535   8.036   3.035  0.6061 -0.1090 -0.0858
  535MOL0     H73781   6.529   7.891   2.946 -3.6963 -0.3586 -0.4106
  535MOL0     H73782   6.351   7.979   2.795 -0.4108 -1.1631  0.9191
  535MOL0     H73783   6.305   7.988   2.956 -1.4144 -1.2010 -2.7005
  535MOL0     H73784   6.380   8.213   2.774  1.0519  2.3355  1.7140
  535MOL0     H73785   6.244   8.205   2.892  1.2912  2.0081  2.6075
  535MOL0     H73786   6.366   8.232   3.082 -1.0069  1.3769 -0.7373
  535MOL0     H73787   6.512   8.261   2.983 -0.6668 -0.7687  0.1267
  535MOL0     H73788   6.288   8.629   3.016 -0.7712 -0.9908 -2.6576
  535MOL0     H73789   6.361   8.917   2.864 -1.5898 -0.1972  0.1761
  535MOL0     H73790   6.452   8.933   3.024  0.8435 -1.1731  0.4177
  535MOL0     H73791   6.295   8.857   3.015  0.5329  1.3457  2.1343
  535MOL0     H73792   7.014   8.838   2.850 -1.9231 -2.0796 -0.6230
  535MOL0     H73793   7.200   9.005   2.789 -0.3434 -0.0131  0.7544
  535MOL0     H73794   7.163   9.206   2.431 -2.9095 -0.4710 -0.2143
  535MOL0     H73795   7.096   9.347   2.520 -0.4325 -1.4365 -0.8096
  535MOL0     H73796   7.304   9.384   2.392  0.1074 -0.5930 -0.7191
  535MOL0     H73797   7.313   9.420   2.563  0.4868 -0.3417 -1.0022
  535MOL0     H73798   7.388   9.143   2.467 -0.7088 -1.0539  4.8222
  535MOL0     H73799   7.443   9.238   2.601 -0.5864 -1.5722 -0.2885
  535MOL0     H73800   7.586   9.401   2.454  2.5965 -0.7455 -1.5918
  535MOL0     H73801   7.542   9.311   2.316  0.3465  2.0509 -0.4085
  535MOL0     H73802   7.695   9.200   2.571 -0.2674  0.1097 -0.7313
  535MOL0     H73803   7.664   9.108   2.416  1.0885  0.9038 -2.5858
  535MOL0     H73804   7.820   9.351   2.450  1.1873 -1.2291  1.1587
  535MOL0     H73805   7.784   9.273   2.292 -3.0583 -0.4346  0.5271
  535MOL0     H73806   7.902   9.076   2.374  0.9771 -0.8687  0.6937
  535MOL0     H73807   7.936   9.162   2.526  0.9348  1.3828 -0.4714
  535MOL0     H73808   8.116   9.163   2.374 -1.4633 -0.9351  0.2989
  535MOL0     H73809   8.067   9.337   2.410  0.9616  1.3216 -1.1733
  535MOL0     H73810   6.923   9.217   2.539  0.4149  0.0921 -1.2004
  535MOL0     H73811   6.740   9.047   2.587 -0.1956  1.0522 -1.0262
  535MOL0     H73812   6.710   8.594   2.756 -0.1180 -2.0058  1.1059
  535MOL0     H73813   6.588   8.408   2.809 -0.5933 -0.0863  0.4391
  535MOL0     H73814   6.023   8.261   2.187 -0.1157 -0.8675  0.6633
  535MOL0     H73815   5.784   8.289   2.239 -0.9913  0.8404 -0.2028
  535MOL0     H73816   5.559   8.734   2.364 -0.5480  1.0237  2.0154
  535MOL0     H73817   5.342   8.866   2.419 -1.5064  0.3941 -3.3183
  535MOL0     H73818   4.925   8.860   2.319  0.0351  0.2436  1.0740
  535MOL0     H73819   4.972   8.708   2.239 -0.9271 -0.7170  0.0649
  535MOL0     H73820   4.928   8.578   2.450  0.8224 -0.7338 -1.2827
  535MOL0     H73821   4.786   8.673   2.400 -0.9576 -2.4271  2.2830
  535MOL0     H73822   4.966   8.709   2.639  1.3747  2.5739 -0.7457
  535MOL0     H73823   4.885   8.852   2.557  1.1380  0.8820  0.6747
  535MOL0     H73824   4.673   8.752   2.587  1.1179 -0.4686 -1.6543
  535MOL0     H73825   4.762   8.776   2.736  2.6498 -1.8250 -0.8296
  535MOL0     H73826   4.751   8.343   2.702 -2.8227 -0.7011 -1.5507
  535MOL0     H73827   5.106   8.547   2.271 -1.4918  1.4666  2.6064
  535MOL0     H73828   5.371   8.306   2.235  0.2780 -0.0122  1.4945
  535MOL0     H73829   5.199   8.347   2.189 -0.3068  1.5387 -0.8471
  535MOL0     H73830   5.333   8.387   2.079  1.6586 -0.1835  0.9497
  536MOL0     O73831   5.175   3.420   3.594  0.2673  0.6264 -0.0735
  536MOL0     C73832   5.116   3.422   3.485  0.0279  0.2890  0.7077
  536MOL0     O73833   5.144   3.515   3.389 -0.3846 -0.0887 -0.0959
  536MOL0     C73834   5.248   3.602   3.404  0.1698 -0.2328  0.0029
  536MOL0     C73835   5.246   3.703   3.502  0.5639 -0.1345  0.6431
  536MOL0     C73836   5.354   3.778   3.541  0.1722 -0.0392 -0.0982
  536MOL0     C73837   5.473   3.770   3.460 -0.6940 -1.3517 -0.3660
  536MOL0     O73838   5.590   3.843   3.473 -0.1932 -0.4892  0.6411
  536MOL0     C73839   5.584   3.935   3.590 -0.5490  0.3922  0.1029
  536MOL0     C73840   5.725   4.003   3.595  0.7803  0.3174 -0.1277
  536MOL0     C73841   5.782   4.054   3.461 -0.7617 -0.2650  0.2664
  536MOL0     C73842   5.924   4.116   3.487 -0.4369 -0.4708  0.2284
  536MOL0     C73843   5.916   4.259   3.514  0.3798 -0.4718 -0.7424
  536MOL0     C73844   6.034   4.317   3.592 -0.7524  0.2895 -0.1824
  536MOL0     C73845   6.022   4.292   3.743 -0.7602  0.2249 -0.2348
  536MOL0     C73846   6.126   4.365   3.826 -0.0581  0.7640 -0.2367
  536MOL0     N73847   6.074   4.376   3.968 -0.1653  0.2426 -0.0905
  536MOL0     C73848   5.988   4.463   4.011  0.4803  1.0524 -0.0657
  536MOL0     C73849   5.984   4.441   4.150 -0.6042 -0.0086  0.8357
  536MOL0     C73850   5.936   4.528   4.254 -0.2869 -0.1417  0.3011
  536MOL0     C73851   6.042   4.619   4.313 -0.0708 -0.0700  0.6913
  536MOL0     C73852   6.133   4.548   4.417 -0.1119  1.0973  0.7898
  536MOL0     C73853   6.278   4.581   4.398  0.5224 -0.1806  0.0514
  536MOL0     O73854   6.286   4.711   4.464  0.2148 -0.2645 -0.0858
  536MOL0     C73855   6.407   4.774   4.456 -1.0998  0.5773  0.0714
  536MOL0     C73856   6.511   4.735   4.370 -0.1251  1.3263 -0.0192
  536MOL0     C73857   6.631   4.799   4.366  0.4455  0.1435  0.0082
  536MOL0     C73858   6.725   4.746   4.269 -0.4174 -0.0704 -0.1290
  536MOL0     C73859   6.663   4.905   4.455  0.1160 -0.5750  0.6131
  536MOL0     C73860   6.787   4.973   4.466 -0.4736 -0.8775 -0.2469
  536MOL0     O73861   6.844   5.022   4.353 -0.8661  0.7583  0.3257
  536MOL0     C73862   6.961   5.099   4.352 -0.0589  0.2992 -0.0546
  536MOL0     C73863   7.069   5.063   4.429  0.5645  0.0682 -0.3191
  536MOL0     C73864   7.173   5.152   4.446  0.0876  0.7739  0.3247
  536MOL0     C73865   7.172   5.274   4.381 -0.1240  0.5702  0.5122
  536MOL0     O73866   7.278   5.360   4.382  0.5110  0.3316 -0.1161
  536MOL0     C73867   7.404   5.321   4.448  0.3189  0.4347 -0.3570
  536MOL0     C73868   7.487   5.440   4.483 -0.0793  1.2868  0.2189
  536MOL0     C73869   7.628   5.402   4.530 -0.7533  0.1567  0.1738
  536MOL0     C73870   7.694   5.533   4.565 -0.4609 -0.2313 -0.1802
  536MOL0     C73871   7.842   5.513   4.604  0.0361 -0.2456  0.3344
  536MOL0     C73872   7.905   5.649   4.651  0.4901 -0.1817 -0.3052
  536MOL0     C73873   7.871   5.693   4.795  0.7390 -0.5460 -0.5367
  536MOL0     C73874   7.947   5.616   4.906  0.0879  0.2084 -0.1875
  536MOL0    Cl73875   8.124   5.613   4.881  0.0563 -0.4643 -0.4991
  536MOL0     C73876   7.061   5.312   4.303 -0.8159  0.4226 -0.9997
  536MOL0     C73877   6.954   5.221   4.285  1.0000 -0.0950 -0.7568
  536MOL0     O73878   6.824   5.001   4.581  0.0083 -0.2165  0.2730
  536MOL0     C73879   6.560   4.952   4.533  0.4194 -0.3072  0.3307
  536MOL0     C73880   6.432   4.889   4.540 -0.0732 -0.3287 -0.7607
  536MOL0     N73881   6.074   4.345   4.175  0.3237  0.2676  0.2864
  536MOL0     N73882   6.113   4.291   4.067  0.7188 -0.2988  0.4073
  536MOL0     C73883   5.483   3.674   3.361 -0.4903  0.0766  0.7671
  536MOL0     C73884   5.371   3.588   3.340  0.1264  0.4063  0.3218
  536MOL0     C73885   5.010   3.318   3.453 -0.6159  0.4690  1.1335
  536MOL0     C73886   4.964   3.307   3.321 -0.5726  0.6146 -0.0512
  536MOL0     C73887   4.869   3.209   3.280 -0.0268  0.1987 -0.4459
  536MOL0     C73888   4.801   3.133   3.382 -0.7293 -0.2717 -0.6262
  536MOL0     O73889   4.700   3.037   3.368 -0.6299 -0.0451  0.2465
  536MOL0     C73890   4.626   3.022   3.243 -0.1631  1.1081  0.4854
  536MOL0     C73891   4.551   3.154   3.206  0.3904 -0.1419  0.1182
  536MOL0     C73892   4.464   3.131   3.085 -0.5173  0.4104 -0.3545
  536MOL0     C73893   4.332   3.210   3.099  0.2281 -0.4220  0.1144
  536MOL0     C73894   4.280   3.237   2.960 -0.2104 -0.3786  0.3677
  536MOL0     C73895   4.232   3.280   2.859  0.1043  0.3747 -0.3183
  536MOL0     C73896   4.847   3.152   3.514 -0.4563  0.0334 -0.2603
  536MOL0     C73897   4.956   3.232   3.549  0.6025  0.0843 -0.1662
  536MOL0     C73898   5.006   3.212   3.693 -0.0023 -0.3119  0.5261
  536MOL0     H73899   5.153   3.719   3.556  1.1319  1.0735  1.2985
  536MOL0     H73900   5.344   3.839   3.630 -4.0580 -0.0549 -0.3269
  536MOL0     H73901   5.574   3.869   3.677  3.6376 -1.2143 -0.3825
  536MOL0     H73902   5.508   4.011   3.573  0.9589  1.6171 -1.4872
  536MOL0     H73903   5.723   4.078   3.675  1.2929  0.5315 -0.3087
  536MOL0     H73904   5.801   3.927   3.617  0.6001 -0.2432 -1.3662
  536MOL0     H73905   5.790   3.969   3.393 -3.1046  0.5367 -1.1267
  536MOL0     H73906   5.719   4.124   3.406 -1.5795 -2.1522 -1.3091
  536MOL0     H73907   5.975   4.065   3.570  2.2885  1.1752 -0.3231
  536MOL0     H73908   5.983   4.107   3.396 -3.5651  1.6445 -2.2486
  536MOL0     H73909   5.821   4.287   3.560  0.2886 -2.2370  0.2484
  536MOL0     H73910   5.924   4.306   3.416 -0.3975  3.4242  0.9024
  536MOL0     H73911   6.128   4.268   3.563  0.1993  1.2264  1.1897
  536MOL0     H73912   6.049   4.425   3.581 -1.2952  0.6565  2.2491
  536MOL0     H73913   6.023   4.184   3.763  0.5648  0.1046 -0.7924
  536MOL0     H73914   5.923   4.320   3.778 -1.2445 -0.2176 -1.2271
  536MOL0     H73915   6.214   4.300   3.824  0.3860  1.3383  0.4562
  536MOL0     H73916   6.153   4.462   3.784 -0.6676  1.5215  1.0581
  536MOL0     H73917   5.931   4.538   3.957  0.9198  0.8244 -0.8789
  536MOL0     H73918   5.912   4.460   4.337  2.1332 -0.9882  0.3769
  536MOL0     H73919   5.847   4.582   4.221 -0.8642 -1.2999 -0.1073
  536MOL0     H73920   6.097   4.665   4.231 -0.4200 -0.8620 -0.0026
  536MOL0     H73921   5.993   4.698   4.371 -0.1588 -0.7137  1.5080
  536MOL0     H73922   6.108   4.570   4.521 -0.9109 -1.5443  1.2350
  536MOL0     H73923   6.126   4.440   4.404 -0.5455  1.0101  1.6502
  536MOL0     H73924   6.346   4.516   4.454  0.4494 -0.5826 -0.3216
  536MOL0     H73925   6.311   4.573   4.294  2.7711  0.4150  0.6642
  536MOL0     H73926   6.495   4.646   4.310 -1.4781  0.3250  1.7360
  536MOL0     H73927   6.831   4.767   4.288  0.5167 -3.4345 -0.9084
  536MOL0     H73928   6.701   4.782   4.169  0.1440 -0.9177 -0.5802
  536MOL0     H73929   6.725   4.637   4.259  0.3063 -0.2916  1.7406
  536MOL0     H73930   7.068   4.969   4.483 -0.6838 -0.5567 -1.3423
  536MOL0     H73931   7.255   5.121   4.510 -0.9354  0.7739  1.6583
  536MOL0     H73932   7.391   5.263   4.540 -2.2731  2.0620  0.4139
  536MOL0     H73933   7.483   5.270   4.391  2.2780 -0.0071  2.4848
  536MOL0     H73934   7.496   5.504   4.395  3.7358  1.4862  0.5830
  536MOL0     H73935   7.426   5.480   4.564 -1.6801 -0.1031 -0.2545
  536MOL0     H73936   7.694   5.356   4.456 -0.5997  1.4539 -0.5169
  536MOL0     H73937   7.627   5.337   4.618 -3.9781 -2.0348 -1.2774
  536MOL0     H73938   7.638   5.567   4.653  0.3673 -0.1017  0.3079
  536MOL0     H73939   7.693   5.604   4.481  2.2243 -0.6936 -0.7004
  536MOL0     H73940   7.849   5.445   4.689 -0.3909  2.1849  2.4227
  536MOL0     H73941   7.901   5.470   4.522  1.6129 -1.2187  1.9134
  536MOL0     H73942   7.866   5.731   4.591  2.7186  0.9920 -0.2414
  536MOL0     H73943   8.013   5.648   4.638  0.7645  3.0195  0.7194
  536MOL0     H73944   7.766   5.673   4.818  1.4729 -1.8399  1.9339
  536MOL0     H73945   7.897   5.799   4.807 -1.5785  0.4020 -2.8695
  536MOL0     H73946   7.902   5.516   4.905 -0.4638  0.4533  0.0587
  536MOL0     H73947   7.945   5.661   5.006  1.1926  0.0225 -0.0716
  536MOL0     H73948   7.051   5.415   4.270  0.8558  0.6049 -1.0395
  536MOL0     H73949   6.861   5.248   4.237  1.1222  1.4231 -0.2101
  536MOL0     H73950   6.573   5.042   4.592  3.3062  0.2167 -0.9646
  536MOL0     H73951   6.352   4.925   4.605  0.5034  1.1389 -0.8363
  536MOL0     H73952   5.572   3.654   3.303 -0.0722 -1.0535  1.7471
  536MOL0     H73953   5.375   3.509   3.267 -0.7256  0.7112 -0.0627
  536MOL0     H73954   5.012   3.369   3.246  0.8439 -1.2664 -0.7954
  536MOL0     H73955   4.849   3.187   3.176  1.4209 -0.1281 -0.6868
  536MOL0     H73956   4.691   2.987   3.161 -1.4095 -2.7741  0.9628
  536MOL0     H73957   4.548   2.946   3.253 -3.0285  4.1658  5.2585
  536MOL0     H73958   4.624   3.233   3.183  1.3598 -1.1481 -0.3953
  536MOL0     H73959   4.486   3.173   3.292  1.6765 -0.0518  1.1040
  536MOL0     H73960   4.518   3.172   2.999  0.5634  1.1407  0.6566
  536MOL0     H73961   4.451   3.027   3.053  0.1836 -0.3627  1.7529
  536MOL0     H73962   4.366   3.298   3.154  2.3736 -1.4541  0.5051
  536MOL0     H73963   4.262   3.147   3.155 -2.5662  0.3612 -2.2281
  536MOL0     H73964   4.188   3.298   2.763  1.3885 -2.3653 -1.5087
  536MOL0     H73965   4.796   3.084   3.582 -0.5519 -1.6508 -1.9479
  536MOL0     H73966   5.115   3.201   3.689  0.0536  0.5829 -1.4255
  536MOL0     H73967   4.995   3.299   3.758  1.4768 -0.1699  0.6123
  536MOL0     H73968   4.951   3.124   3.730  2.9330 -2.1938  0.7798
  537MOL0     O73969   9.615   4.562   0.217  0.3550  0.4808  0.1287
  537MOL0     C73970   9.607   4.679   0.189 -0.1931 -0.0003  0.2938
  537MOL0     O73971   9.699   4.776   0.229  0.2196  0.0539  0.3056
  537MOL0     C73972   9.776   4.749   0.338 -0.3184  0.2995 -0.9728
  537MOL0     C73973   9.773   4.837   0.446  0.9572 -0.2895  0.7807
  537MOL0     C73974   9.857   4.829   0.552 -0.3769  0.9544 -0.2426
  537MOL0     C73975   9.947   4.715   0.567 -0.0763  0.1542 -0.1339
  537MOL0     O73976  10.039   4.691   0.674  0.0350  1.2028 -0.5976
  537MOL0     C73977  10.007   4.757   0.807 -0.8164  0.9778  0.6670
  537MOL0     C73978  10.099   4.686   0.911 -0.0099 -0.4559  0.1235
  537MOL0     C73979  10.255   4.678   0.877  1.1199  0.2028 -0.3045
  537MOL0     C73980  10.314   4.613   0.997 -0.6843 -0.0888 -0.1691
  537MOL0     C73981  10.463   4.573   0.962 -0.6813  0.3390  0.2061
  537MOL0     C73982  10.561   4.687   0.932  0.7119  0.2245  0.3878
  537MOL0     C73983  10.704   4.636   0.950 -0.0994  0.5752 -0.3126
  537MOL0     C73984  10.801   4.750   0.959  0.1894  0.1952  0.8450
  537MOL0     N73985  10.944   4.703   0.952  0.7150  0.5312  0.4114
  537MOL0     C73986  11.024   4.666   0.846 -0.7124 -0.1507  0.1926
  537MOL0     C73987  11.134   4.611   0.903  0.5554  0.7679 -1.0294
  537MOL0     C73988  11.248   4.547   0.829  0.2776  0.6736  0.6962
  537MOL0     C73989  11.364   4.641   0.806 -0.6893  0.0862 -0.2049
  537MOL0     C73990  11.501   4.578   0.766 -0.3742 -0.2696  0.0101
  537MOL0     C73991  11.567   4.490   0.872  0.3664 -0.6823  0.0055
  537MOL0     O73992  11.703   4.449   0.853  0.5780 -0.0561  0.2042
  537MOL0     C73993  11.814   4.490   0.926  0.0623 -0.4768  0.7491
  537MOL0     C73994  11.926   4.411   0.916 -0.3631 -0.8268  0.4491
  537MOL0     C73995  12.050   4.451   0.972  0.8728  0.9363 -0.3928
  537MOL0     C73996  12.170   4.361   0.956  0.1674 -0.0822 -0.0867
  537MOL0     C73997  12.056   4.573   1.050 -0.1965 -0.2169  0.1907
  537MOL0     C73998  12.181   4.633   1.102 -0.5043 -0.8254 -0.0850
  537MOL0     O73999  12.179   4.767   1.140 -0.8787  0.9736 -0.9735
  537MOL0     C74000  12.286   4.847   1.170  0.2881  0.2281  0.4301
  537MOL0     C74001  12.273   4.964   1.244  0.0371  0.9174  0.4435
  537MOL0     C74002  12.384   5.035   1.274  0.3601  0.1244 -0.3945
  537MOL0     C74003  12.510   5.013   1.223 -0.5603  0.2018  0.3477
  537MOL0     O74004  12.615   5.092   1.249 -0.3974  0.2792  0.1139
  537MOL0     C74005  12.709   5.036   1.343 -0.4353 -0.5100 -0.5440
  537MOL0     C74006  12.852   5.083   1.316 -0.6550  0.2451  0.4918
  537MOL0     C74007  12.859   5.240   1.330 -0.3120  0.5055 -0.2857
  537MOL0     C74008  13.009   5.287   1.327  0.2215 -0.0978  0.4834
  537MOL0     C74009  13.063   5.280   1.180 -0.4215 -0.0795  0.5786
  537MOL0     C74010  13.212   5.324   1.164 -0.1107  1.0318 -0.4294
  537MOL0     C74011  13.229   5.352   1.014  0.5343 -0.0895 -0.0453
  537MOL0     C74012  13.374   5.361   0.975 -0.3718  0.3076 -0.5635
  537MOL0    Cl74013  13.391   5.470   0.821 -0.0593 -0.7429  0.0933
  537MOL0     C74014  12.516   4.912   1.122  1.0964  0.0165 -0.0907
  537MOL0     C74015  12.409   4.822   1.108  0.1520  1.0744  0.5318
  537MOL0     O74016  12.280   4.564   1.108  0.4800 -0.6775  0.2902
  537MOL0     C74017  11.943   4.657   1.062 -0.0117  0.4156 -0.5883
  537MOL0     C74018  11.826   4.617   0.994  0.5070  0.4509  0.4853
  537MOL0     N74019  11.116   4.607   1.042  0.0532 -0.7452  0.7574
  537MOL0     N74020  11.007   4.663   1.066 -0.0087  0.9779  0.2193
  537MOL0     C74021   9.958   4.626   0.461 -0.0325  0.8959 -0.1923
  537MOL0     C74022   9.871   4.645   0.352  0.6060  0.0369  0.4698
  537MOL0     C74023   9.510   4.715   0.078  0.2264  0.0381  0.0376
  537MOL0     C74024   9.520   4.845   0.025  0.0383 -0.4744  0.6798
  537MOL0     C74025   9.433   4.892  -0.074 -0.1604 -0.4795 -0.8323
  537MOL0     C74026   9.347   4.803  -0.137  0.0457  0.2722 -0.4024
  537MOL0     O74027   9.240   4.827  -0.230 -0.1847 -0.5320  0.4295
  537MOL0     C74028   9.222   4.964  -0.260  0.1753  0.1881 -0.0558
  537MOL0     C74029   9.100   4.974  -0.349 -0.3864  0.7238  0.1541
  537MOL0     C74030   8.966   4.909  -0.286  0.7166 -0.0613  0.2601
  537MOL0     C74031   8.867   5.002  -0.224 -0.3921 -0.2443  0.1505
  537MOL0     C74032   8.916   5.098  -0.126 -1.0065  0.3741 -1.1989
  537MOL0     C74033   8.962   5.178  -0.044  0.9634  0.0720  0.2198
  537MOL0     C74034   9.349   4.672  -0.085  0.2045 -0.0234  1.5243
  537MOL0     C74035   9.417   4.622   0.024 -0.0579 -0.9091 -0.3097
  537MOL0     C74036   9.390   4.478   0.066  0.2599 -0.6298  0.0038
  537MOL0     H74037   9.698   4.916   0.437  1.7897  0.3413 -0.9321
  537MOL0     H74038   9.854   4.901   0.633 -2.2524 -1.6735  2.2211
  537MOL0     H74039   9.901   4.741   0.828 -1.0781 -0.0556 -1.2103
  537MOL0     H74040  10.040   4.860   0.792  0.5870  0.2172 -1.9400
  537MOL0     H74041  10.087   4.742   1.005 -1.4594 -1.8258  0.8060
  537MOL0     H74042  10.064   4.586   0.939  2.6368 -1.1363  1.3613
  537MOL0     H74043  10.267   4.617   0.787 -0.8422 -0.9836  0.1927
  537MOL0     H74044  10.290   4.782   0.874 -0.0248  0.6122  0.1375
  537MOL0     H74045  10.311   4.691   1.075  0.6940  0.0407 -0.2353
  537MOL0     H74046  10.252   4.530   1.032 -1.3621  0.6012  0.3233
  537MOL0     H74047  10.454   4.501   0.879  0.3308 -1.1539  1.3367
  537MOL0     H74048  10.504   4.520   1.048  0.9948  0.5548 -0.4292
  537MOL0     H74049  10.544   4.753   0.846  2.1804 -0.4609 -0.4656
  537MOL0     H74050  10.543   4.744   1.024  1.0280  0.3867  0.3495
  537MOL0     H74051  10.742   4.575   0.868  1.3927  0.4133  0.4643
  537MOL0     H74052  10.707   4.566   1.034  0.3058  0.4862 -0.3984
  537MOL0     H74053  10.792   4.808   0.867 -0.8755 -1.5194 -0.1896
  537MOL0     H74054  10.779   4.815   1.045 -0.2263  0.9332  0.1943
  537MOL0     H74055  11.005   4.673   0.740 -2.4048  0.1200  0.4951
  537MOL0     H74056  11.215   4.508   0.733  1.4834 -0.7515  0.8211
  537MOL0     H74057  11.285   4.458   0.880 -1.2986 -0.2472  0.3000
  537MOL0     H74058  11.339   4.724   0.740  1.4270  1.9108  1.1631
  537MOL0     H74059  11.382   4.689   0.902  1.5623 -0.1506 -0.4490
  537MOL0     H74060  11.488   4.517   0.676  0.7946 -0.4715 -0.0440
  537MOL0     H74061  11.580   4.652   0.750 -2.6011  2.6700  1.5267
  537MOL0     H74062  11.568   4.546   0.966 -1.1085  0.9927 -0.9104
  537MOL0     H74063  11.507   4.401   0.890  0.1734 -0.5709 -0.0840
  537MOL0     H74064  11.930   4.331   0.843 -0.7420 -1.0131  0.6285
  537MOL0     H74065  12.153   4.272   0.894 -0.4801 -0.6714  0.9163
  537MOL0     H74066  12.214   4.345   1.055 -0.6786  1.2232  0.5354
  537MOL0     H74067  12.240   4.416   0.892 -2.8855  2.3213 -1.6580
  537MOL0     H74068  12.176   4.988   1.285  0.2640  2.1500  0.3180
  537MOL0     H74069  12.384   5.118   1.344  1.6574  1.5860 -2.0333
  537MOL0     H74070  12.677   5.062   1.444 -0.4397  0.7945 -0.8512
  537MOL0     H74071  12.713   4.929   1.321 -2.1113 -0.6227 -0.4190
  537MOL0     H74072  12.921   5.023   1.376  0.2288  1.8865  1.1724
  537MOL0     H74073  12.877   5.060   1.213  0.6335 -0.6124  0.9749
  537MOL0     H74074  12.811   5.272   1.423  2.9140  1.9080  1.0431
  537MOL0     H74075  12.801   5.291   1.252 -0.0351 -1.7277 -2.0735
  537MOL0     H74076  13.075   5.223   1.386  2.3955  0.1218 -1.5451
  537MOL0     H74077  13.016   5.386   1.371 -0.8707 -0.2736  1.0871
  537MOL0     H74078  13.044   5.180   1.138 -0.1872 -0.1733  0.6926
  537MOL0     H74079  13.005   5.356   1.126 -0.5443  0.1293  1.0068
  537MOL0     H74080  13.282   5.251   1.206  0.3075  1.6315 -0.0585
  537MOL0     H74081  13.236   5.415   1.220  5.0976 -0.9750  1.1796
  537MOL0     H74082  13.172   5.438   0.976  0.0126 -1.3652 -2.3074
  537MOL0     H74083  13.193   5.273   0.948 -2.5425  2.0811 -1.2327
  537MOL0     H74084  13.418   5.262   0.962 -0.4578 -0.0721  1.6426
  537MOL0     H74085  13.435   5.416   1.048 -1.2896 -0.1407  0.5694
  537MOL0     H74086  12.611   4.905   1.070  0.4211  2.8123 -1.9143
  537MOL0     H74087  12.423   4.735   1.045  0.4266  0.3787  1.5286
  537MOL0     H74088  11.944   4.748   1.120  0.7940  0.7768 -1.1517
  537MOL0     H74089  11.740   4.683   0.992  0.3880  0.2875 -0.0990
  537MOL0     H74090  10.035   4.550   0.456 -0.8465  0.1527 -1.9874
  537MOL0     H74091   9.880   4.584   0.262 -2.1214  2.3890 -1.5722
  537MOL0     H74092   9.595   4.916   0.057 -0.9378  1.3564 -0.8974
  537MOL0     H74093   9.424   4.996  -0.103  1.7104  0.0097  0.2038
  537MOL0     H74094   9.225   5.032  -0.174  1.6134 -0.5016  0.4736
  537MOL0     H74095   9.304   5.003  -0.322  0.6089 -0.4217  0.1315
  537MOL0     H74096   9.123   4.908  -0.433  0.3572 -1.2149  1.7940
  537MOL0     H74097   9.079   5.076  -0.382 -1.1487  0.6567  0.4195
  537MOL0     H74098   8.907   4.853  -0.359 -0.4081  0.9438  0.3713
  537MOL0     H74099   9.010   4.843  -0.210  0.7741  0.4703  0.6978
  537MOL0     H74100   8.789   4.936  -0.185  0.9877 -0.9627  1.8381
  537MOL0     H74101   8.818   5.057  -0.305 -2.0649  0.2407  1.4217
  537MOL0     H74102   8.997   5.257   0.020  0.2813  0.9099 -0.4100
  537MOL0     H74103   9.283   4.603  -0.136  1.8445 -1.5776  1.4052
  537MOL0     H74104   9.363   4.460   0.170  1.7544 -0.4083  0.4627
  537MOL0     H74105   9.315   4.420   0.012 -0.4982 -0.3943  0.7928
  537MOL0     H74106   9.487   4.430   0.049  0.9251 -0.0604  1.9654
  538MOL0     O74107  11.258   4.619   3.949  0.5357  0.5973 -0.0920
  538MOL0     C74108  11.251   4.738   3.956 -0.2265  0.1259 -0.3460
  538MOL0     O74109  11.322   4.822   3.887  0.0918 -0.4100  0.2476
  538MOL0     C74110  11.384   4.786   3.764 -1.2451 -0.6870 -0.4867
  538MOL0     C74111  11.307   4.732   3.661  0.5304  0.1052 -0.0636
  538MOL0     C74112  11.354   4.727   3.532  0.3766 -0.0868  0.2370
  538MOL0     C74113  11.483   4.766   3.505 -0.0182  1.0933  0.0712
  538MOL0     O74114  11.525   4.758   3.373 -0.3603 -0.2261 -0.3998
  538MOL0     C74115  11.451   4.827   3.279  0.4762  1.4175 -0.6917
  538MOL0     C74116  11.498   4.970   3.276 -0.6953 -0.4559 -0.1653
  538MOL0     C74117  11.633   4.976   3.199 -0.0988 -0.7634 -0.8301
  538MOL0     C74118  11.684   5.119   3.187  0.0884  1.2665 -0.2843
  538MOL0     C74119  11.822   5.130   3.125 -0.2841  0.1765 -0.2300
  538MOL0     C74120  11.879   5.010   3.045 -0.7560 -0.7978  0.2841
  538MOL0     C74121  12.022   5.030   2.996  1.3097 -1.1296  0.7099
  538MOL0     C74122  12.132   5.032   3.112 -0.4540 -0.4373  0.2995
  538MOL0     N74123  12.271   5.000   3.061  0.2141  0.0441 -0.2736
  538MOL0     C74124  12.384   4.966   3.142  0.4744  0.5972 -0.2198
  538MOL0     C74125  12.468   4.916   3.051 -0.0866 -0.3256  0.6783
  538MOL0     C74126  12.603   4.880   3.093  0.2682 -0.0119  0.1126
  538MOL0     C74127  12.695   4.992   3.152  0.2423 -0.3083 -0.4405
  538MOL0     C74128  12.839   4.939   3.192 -0.1238  1.0297 -0.5130
  538MOL0     C74129  12.931   5.042   3.236 -0.2878  0.2361 -0.5431
  538MOL0     O74130  13.027   4.988   3.326 -0.1894 -0.1446  0.2556
  538MOL0     C74131  13.124   5.074   3.366 -0.2213 -0.0161  0.4598
  538MOL0     C74132  13.127   5.218   3.362  0.3289 -0.2794  0.7013
  538MOL0     C74133  13.236   5.292   3.406 -0.4235 -0.3063  0.6718
  538MOL0     C74134  13.234   5.444   3.397 -0.5197  0.2858 -0.0312
  538MOL0     C74135  13.353   5.228   3.443 -0.1517  0.4064 -0.2113
  538MOL0     C74136  13.481   5.300   3.476 -0.3832 -0.1735 -0.0512
  538MOL0     O74137  13.543   5.238   3.580  0.0393  0.3825  0.3456
  538MOL0     C74138  13.676   5.264   3.603  1.5677 -0.0414  0.4129
  538MOL0     C74139  13.711   5.313   3.726 -0.2977  0.2861 -0.1548
  538MOL0     C74140  13.847   5.346   3.745  1.2200 -0.7264  0.1082
  538MOL0     C74141  13.945   5.325   3.645  0.4529  0.3940  0.0000
  538MOL0     O74142  14.082   5.355   3.648  0.0071 -0.3778 -0.6770
  538MOL0     C74143  14.145   5.365   3.777  0.2521 -0.1499 -0.5160
  538MOL0     C74144  14.301   5.367   3.758  0.2047 -0.2022  1.1924
  538MOL0     C74145  14.365   5.404   3.894  0.3111  0.1034  1.4028
  538MOL0     C74146  14.516   5.430   3.864 -0.0147  0.2840 -0.4515
  538MOL0     C74147  14.586   5.480   3.996 -0.4582  0.0937  0.0202
  538MOL0     C74148  14.618   5.371   4.105  0.1813 -0.2090 -0.6908
  538MOL0     C74149  14.721   5.403   4.208  0.2595 -0.3960  0.2522
  538MOL0     C74150  14.859   5.410   4.154 -0.4734  0.3307  0.1277
  538MOL0    Cl74151  14.940   5.541   4.244 -0.0607 -0.0647 -0.2435
  538MOL0     C74152  13.900   5.273   3.523  0.3226  0.4140 -0.6895
  538MOL0     C74153  13.769   5.251   3.504 -0.6879 -0.0985 -0.2169
  538MOL0     O74154  13.525   5.393   3.411  0.1264 -0.3529  0.0305
  538MOL0     C74155  13.348   5.085   3.453 -0.3406 -0.1476 -0.2739
  538MOL0     C74156  13.241   5.005   3.416 -0.8039 -0.0941  0.6145
  538MOL0     N74157  12.423   4.920   2.928  0.0441 -0.0584  0.7871
  538MOL0     N74158  12.300   4.959   2.932 -0.5499 -0.7119  0.0657
  538MOL0     C74159  11.570   4.803   3.609 -0.0138  1.1043  0.4449
  538MOL0     C74160  11.521   4.815   3.738 -0.1583  0.6678  0.6762
  538MOL0     C74161  11.184   4.792   4.083 -1.6588  0.2889 -0.2372
  538MOL0     C74162  11.074   4.730   4.136 -0.6270 -0.1269  0.3413
  538MOL0     C74163  11.011   4.786   4.247  0.8024  0.2558 -0.9934
  538MOL0     C74164  11.059   4.894   4.309  0.8640  0.4724 -0.5497
  538MOL0     O74165  11.002   4.942   4.425  0.0198  0.7187  0.1061
  538MOL0     C74166  11.084   4.937   4.546 -0.9780 -0.6602 -0.4178
  538MOL0     C74167  11.043   4.833   4.641  0.3922  0.9993  0.5147
  538MOL0     C74168  10.899   4.865   4.698 -0.3173 -0.0238 -0.5530
  538MOL0     C74169  10.798   4.773   4.632 -0.4976 -0.3835  0.6623
  538MOL0     C74170  10.662   4.813   4.669 -0.1473 -0.8826  0.1263
  538MOL0     C74171  10.555   4.858   4.696 -0.2315  0.2305 -0.3165
  538MOL0     C74172  11.161   4.955   4.250  0.1394 -1.2440 -0.6405
  538MOL0     C74173  11.228   4.916   4.142  1.0793  0.3413  0.1168
  538MOL0     C74174  11.339   5.008   4.094  0.1592  0.2318 -0.1075
  538MOL0     H74175  11.203   4.704   3.676  1.4187 -2.9688  1.0181
  538MOL0     H74176  11.285   4.700   3.453 -1.9646  2.2729  1.3124
  538MOL0     H74177  11.343   4.836   3.298  0.3754 -0.4338 -0.2250
  538MOL0     H74178  11.462   4.777   3.183 -0.4066 -3.0197  1.2805
  538MOL0     H74179  11.419   5.037   3.240 -0.6877  1.1092  2.4407
  538MOL0     H74180  11.521   5.007   3.376 -0.9470  0.0418 -0.2914
  538MOL0     H74181  11.704   4.921   3.262 -0.0881 -0.4494 -0.5642
  538MOL0     H74182  11.620   4.934   3.099 -0.4413  1.5264 -1.7986
  538MOL0     H74183  11.605   5.177   3.138 -0.5063  2.5906  2.0784
  538MOL0     H74184  11.692   5.160   3.288 -0.3166  0.5509  0.0432
  538MOL0     H74185  11.890   5.144   3.209 -0.3820 -2.6918  0.4318
  538MOL0     H74186  11.822   5.213   3.054  0.2429 -0.9637 -1.6315
  538MOL0     H74187  11.875   4.926   3.115 -0.4115 -1.7406 -0.8134
  538MOL0     H74188  11.809   4.989   2.964  1.5626  1.9756 -2.6731
  538MOL0     H74189  12.035   5.122   2.939  1.7786  0.5802  3.3700
  538MOL0     H74190  12.042   4.938   2.940  0.5986 -1.2177  0.5925
  538MOL0     H74191  12.124   5.128   3.164 -2.3797 -0.8985  0.9164
  538MOL0     H74192  12.120   4.956   3.189  1.6222 -0.3228  0.7899
  538MOL0     H74193  12.393   4.973   3.250  2.4734  0.1759 -0.3175
  538MOL0     H74194  12.652   4.834   3.006  0.9917  0.0925  0.4513
  538MOL0     H74195  12.588   4.798   3.164 -1.9690 -2.9758 -3.4501
  538MOL0     H74196  12.712   5.066   3.072 -1.7664 -0.0451 -0.6902
  538MOL0     H74197  12.650   5.043   3.238  0.3435  0.6297 -0.9321
  538MOL0     H74198  12.820   4.876   3.279  1.9785 -0.1027 -0.8072
  538MOL0     H74199  12.891   4.889   3.110  3.2245  2.3245  0.6354
  538MOL0     H74200  12.972   5.107   3.159 -1.6689  1.6935 -0.0971
  538MOL0     H74201  12.869   5.112   3.292 -0.4567 -0.3960  0.0723
  538MOL0     H74202  13.036   5.267   3.329  1.5926  1.1487 -0.8234
  538MOL0     H74203  13.144   5.495   3.363 -1.0837 -0.1583  0.7409
  538MOL0     H74204  13.318   5.468   3.332  0.3729 -0.8253  0.6793
  538MOL0     H74205  13.252   5.494   3.493 -1.4970  1.3212 -0.3641
  538MOL0     H74206  13.639   5.324   3.808  2.7336  0.7804  2.6600
  538MOL0     H74207  13.875   5.383   3.843  0.8414  0.5530 -0.2417
  538MOL0     H74208  14.106   5.454   3.827  1.5557 -0.5679  1.3573
  538MOL0     H74209  14.121   5.269   3.824 -1.5868  0.2674 -0.5500
  538MOL0     H74210  14.329   5.265   3.728 -1.2090 -0.3912  0.4335
  538MOL0     H74211  14.324   5.426   3.669 -0.6796  0.8782  1.6667
  538MOL0     H74212  14.356   5.325   3.969 -1.3182 -0.0117  1.1248
  538MOL0     H74213  14.316   5.495   3.932 -2.0796 -0.8644  0.8225
  538MOL0     H74214  14.523   5.498   3.779 -3.5616  1.5267  0.0585
  538MOL0     H74215  14.554   5.333   3.831 -1.5855 -1.1163  1.5432
  538MOL0     H74216  14.673   5.535   3.961 -0.3204  0.8950  1.5416
  538MOL0     H74217  14.519   5.548   4.049  1.5398  0.0912  2.8075
  538MOL0     H74218  14.647   5.277   4.058  1.0699  0.1515 -0.8740
  538MOL0     H74219  14.529   5.346   4.164  0.8943 -1.4565 -0.0966
  538MOL0     H74220  14.716   5.329   4.289 -1.2881 -0.9723 -0.3327
  538MOL0     H74221  14.693   5.500   4.250  2.1978  0.7850 -1.0140
  538MOL0     H74222  14.865   5.437   4.048  0.0428 -4.4864 -1.2936
  538MOL0     H74223  14.911   5.314   4.158 -0.2098  0.4061 -1.0173
  538MOL0     H74224  13.972   5.253   3.445  0.6411 -0.1526 -0.2548
  538MOL0     H74225  13.742   5.220   3.404  1.7229 -2.7667 -0.1492
  538MOL0     H74226  13.428   5.025   3.496 -1.1280 -0.4933  0.7598
  538MOL0     H74227  13.245   4.902   3.450 -0.3760  0.6594  3.0475
  538MOL0     H74228  11.674   4.830   3.593  0.0430  0.7673  0.2517
  538MOL0     H74229  11.591   4.862   3.807 -0.1423 -1.3682  2.1453
  538MOL0     H74230  11.040   4.638   4.091  1.6184 -0.7180 -0.2733
  538MOL0     H74231  10.929   4.733   4.294  0.3105  1.7856 -0.0502
  538MOL0     H74232  11.190   4.915   4.531 -0.5725 -1.6978  3.1117
  538MOL0     H74233  11.074   5.039   4.586 -1.5845 -1.0597  0.4859
  538MOL0     H74234  11.103   4.819   4.731 -1.5687 -2.6695  1.4793
  538MOL0     H74235  11.038   4.736   4.590  0.4921  1.8397 -1.1404
  538MOL0     H74236  10.911   4.850   4.806  1.7977  3.5044 -0.1378
  538MOL0     H74237  10.872   4.970   4.684 -0.8272 -0.1685 -0.6684
  538MOL0     H74238  10.819   4.670   4.664  2.2298 -0.4534 -0.9732
  538MOL0     H74239  10.818   4.780   4.524 -0.0895 -0.5925  0.7202
  538MOL0     H74240  10.453   4.883   4.716 -1.3263 -0.5114 -4.1937
  538MOL0     H74241  11.184   5.045   4.307  1.3357 -1.2422 -1.0991
  538MOL0     H74242  11.346   5.087   4.168  6.1635 -0.1568  0.2455
  538MOL0     H74243  11.436   4.956   4.093  0.8596  1.4786  0.4997
  538MOL0     H74244  11.317   5.059   4.000  1.8429 -1.0267 -1.2586
  539MOL0     O74245   2.506   4.967   9.710 -0.1807 -0.4377  0.5368
  539MOL0     C74246   2.604   4.894   9.706  0.0321 -0.1820  0.0674
  539MOL0     O74247   2.726   4.932   9.658 -0.1458  0.3950  0.5459
  539MOL0     C74248   2.732   5.037   9.566  0.5305 -0.0198  0.1751
  539MOL0     C74249   2.860   5.092   9.551  0.6179 -0.3375  0.4272
  539MOL0     C74250   2.887   5.183   9.450  0.1094  0.0611  0.6715
  539MOL0     C74251   2.790   5.228   9.360  0.0233  0.5728  0.2539
  539MOL0     O74252   2.817   5.312   9.244  0.6229 -0.5215 -0.4578
  539MOL0     C74253   2.957   5.324   9.196  0.2616 -0.0715 -0.4764
  539MOL0     C74254   3.036   5.442   9.256 -0.1608 -0.5363 -0.0458
  539MOL0     C74255   2.957   5.572   9.246 -0.0083  0.0881  0.4479
  539MOL0     C74256   3.038   5.690   9.291 -0.0391  0.0830 -0.1977
  539MOL0     C74257   2.972   5.821   9.265  0.3195 -0.5022  1.0156
  539MOL0     C74258   3.077   5.935   9.281 -0.0028  0.1607  0.1358
  539MOL0     C74259   3.112   5.949   9.428  0.0117  0.3702  0.5489
  539MOL0     C74260   3.227   6.055   9.428  0.3490  0.4386  0.2424
  539MOL0     N74261   3.264   6.072   9.569  0.0906  0.0057  0.4268
  539MOL0     C74262   3.343   5.994   9.641 -0.7889  0.1140 -0.3988
  539MOL0     C74263   3.362   6.061   9.750 -0.4506  0.4488  0.0060
  539MOL0     C74264   3.460   6.022   9.860  0.1855  0.6315  0.4688
  539MOL0     C74265   3.586   6.113   9.875  0.5071 -0.0493 -0.5066
  539MOL0     C74266   3.677   6.093   9.755  0.1248  0.0353  0.3316
  539MOL0     C74267   3.785   6.192   9.738 -0.1390 -0.0795 -0.5514
  539MOL0     O74268   3.902   6.148   9.806  0.1676 -0.5503  0.5622
  539MOL0     C74269   4.017   6.229   9.828  0.1051 -1.3359 -0.4094
  539MOL0     C74270   4.033   6.363   9.782 -0.2186 -0.4942  1.1229
  539MOL0     C74271   4.146   6.445   9.812  0.4606  0.2177 -0.1516
  539MOL0     C74272   4.166   6.585   9.757  0.0117 -0.1629  0.4632
  539MOL0     C74273   4.244   6.385   9.896  0.0691 -0.0113  0.9207
  539MOL0     C74274   4.367   6.452   9.952 -0.2062 -1.1494  0.0730
  539MOL0     O74275   4.440   6.382  10.039  0.5461 -0.2273  0.7936
  539MOL0     C74276   4.539   6.450  10.098  0.6477 -0.0837  0.2956
  539MOL0     C74277   4.540   6.507  10.228 -0.9626 -0.6933  0.0642
  539MOL0     C74278   4.653   6.581  10.274  0.1876  0.1002  0.5639
  539MOL0     C74279   4.773   6.583  10.195  0.0312 -0.8327 -0.3073
  539MOL0     O74280   4.894   6.645  10.224 -0.1436 -0.2938  0.4515
  539MOL0     C74281   4.915   6.699  10.357 -0.4100 -0.1200 -0.3920
  539MOL0     C74282   5.044   6.784  10.364 -0.3360 -0.2337  0.4741
  539MOL0     C74283   5.170   6.718  10.302  0.3239 -0.3508 -0.0576
  539MOL0     C74284   5.294   6.803  10.354  0.8159  0.0721 -0.0637
  539MOL0     C74285   5.423   6.753  10.291 -0.4528 -0.7588  0.6247
  539MOL0     C74286   5.546   6.827  10.343 -0.7418 -1.0260 -0.0656
  539MOL0     C74287   5.581   6.940  10.254  0.5191 -0.5035 -0.1109
  539MOL0     C74288   5.687   7.030  10.314  0.6258  0.1101 -0.8755
  539MOL0    Cl74289   5.840   6.952  10.359  0.3340 -0.4307 -0.2350
  539MOL0     C74290   4.766   6.533  10.066  0.2773 -0.6476  0.3391
  539MOL0     C74291   4.649   6.470  10.026 -1.5743  0.7209  0.9663
  539MOL0     O74292   4.404   6.560   9.902  0.4942  0.1741  0.6444
  539MOL0     C74293   4.226   6.245   9.924 -1.0412 -0.5459 -0.3427
  539MOL0     C74294   4.114   6.175   9.898  0.4128 -0.2296 -0.2533
  539MOL0     N74295   3.312   6.186   9.732  0.0044 -0.3740 -0.1652
  539MOL0     N74296   3.242   6.190   9.624 -0.5567  0.5684 -0.9807
  539MOL0     C74297   2.660   5.193   9.386  0.2335 -0.2691 -0.6798
  539MOL0     C74298   2.629   5.090   9.480 -0.4710  1.0312 -0.0718
  539MOL0     C74299   2.592   4.766   9.785 -0.0901  1.6458 -0.0360
  539MOL0     C74300   2.692   4.732   9.875  0.9108 -0.6743  0.2444
  539MOL0     C74301   2.680   4.612   9.948  0.1191 -0.3318  0.0495
  539MOL0     C74302   2.576   4.524   9.936  0.9141  0.3273 -0.4904
  539MOL0     O74303   2.544   4.404   9.997 -0.6161  0.5617 -0.0222
  539MOL0     C74304   2.590   4.386  10.136 -0.8989  0.7483  0.2659
  539MOL0     C74305   2.726   4.327  10.143  0.7009 -0.0170 -0.1774
  539MOL0     C74306   2.745   4.195  10.063  0.1484  0.0555  0.5326
  539MOL0     C74307   2.684   4.069  10.121 -1.3862 -0.0156 -0.2911
  539MOL0     C74308   2.766   3.954  10.096  0.1016 -0.6718  0.1191
  539MOL0     C74309   2.834   3.857  10.087 -0.5999  0.1275  0.0436
  539MOL0     C74310   2.488   4.559   9.838  0.2264 -1.0342 -0.0856
  539MOL0     C74311   2.491   4.675   9.762  1.0365 -0.7244  0.2171
  539MOL0     C74312   2.383   4.693   9.654  0.3533  0.1404 -0.5849
  539MOL0     H74313   2.932   5.044   9.617 -1.0678 -3.4527  0.1723
  539MOL0     H74314   2.991   5.205   9.429 -0.2248 -0.0679 -1.3200
  539MOL0     H74315   2.948   5.334   9.088  0.8724  0.5917 -0.4703
  539MOL0     H74316   3.010   5.230   9.215 -0.7473 -0.5664 -0.0667
  539MOL0     H74317   3.059   5.424   9.362 -3.1312 -2.8144  0.3398
  539MOL0     H74318   3.129   5.452   9.200  0.5150 -1.1305  0.9195
  539MOL0     H74319   2.926   5.593   9.143 -2.8919  3.0408  1.7107
  539MOL0     H74320   2.858   5.572   9.294 -0.5473 -1.3153 -0.5777
  539MOL0     H74321   3.067   5.687   9.397  0.9898 -0.5600 -0.4802
  539MOL0     H74322   3.131   5.692   9.234  0.8232  1.0824  1.1537
  539MOL0     H74323   2.890   5.848   9.332 -0.1658 -2.1202  1.1179
  539MOL0     H74324   2.933   5.812   9.163  2.9870  2.0176 -0.3624
  539MOL0     H74325   3.163   5.916   9.217  0.2532  1.4025  0.0944
  539MOL0     H74326   3.030   6.025   9.239  0.3995 -0.6269 -2.1271
  539MOL0     H74327   3.144   5.857   9.478  0.0841 -1.1919 -2.1874
  539MOL0     H74328   3.025   5.981   9.487 -0.6133 -2.7022  1.4792
  539MOL0     H74329   3.314   6.023   9.369 -0.0750  0.3953 -0.3746
  539MOL0     H74330   3.179   6.143   9.382  1.0222 -0.1999 -1.8165
  539MOL0     H74331   3.389   5.896   9.629 -0.9101 -0.5357  3.2229
  539MOL0     H74332   3.495   5.921   9.837 -2.0656 -0.1685  0.3139
  539MOL0     H74333   3.415   6.015   9.960 -0.9480 -0.3625 -0.0904
  539MOL0     H74334   3.555   6.218   9.878  0.1530 -0.1713  0.1918
  539MOL0     H74335   3.634   6.097   9.972  1.1566  0.8939 -0.6573
  539MOL0     H74336   3.709   5.988   9.760 -0.0511  0.0420  2.4873
  539MOL0     H74337   3.611   6.098   9.667 -0.5584 -0.9363  0.7610
  539MOL0     H74338   3.805   6.210   9.632 -1.8155  2.3336 -0.5459
  539MOL0     H74339   3.754   6.285   9.786 -0.2414  0.9724 -2.5468
  539MOL0     H74340   3.958   6.402   9.714 -0.8830 -0.2972  1.9428
  539MOL0     H74341   4.267   6.594   9.716 -0.2837  2.5907  0.1846
  539MOL0     H74342   4.151   6.665   9.831 -1.9839 -0.2983  0.2499
  539MOL0     H74343   4.097   6.602   9.675  2.9700  0.5949 -2.0447
  539MOL0     H74344   4.464   6.509  10.305  0.7872  3.2831  1.9891
  539MOL0     H74345   4.646   6.632  10.370 -0.4706 -1.2038  1.2326
  539MOL0     H74346   4.839   6.768  10.395  0.6200  0.1946  1.1812
  539MOL0     H74347   4.921   6.610  10.419 -1.9329  0.6328  0.9200
  539MOL0     H74348   5.027   6.877  10.309  0.1045 -0.6144 -0.3091
  539MOL0     H74349   5.058   6.816  10.468 -0.0287  0.8656  0.1181
  539MOL0     H74350   5.168   6.726  10.193  2.3910  1.7751 -0.0107
  539MOL0     H74351   5.164   6.617  10.343  1.4847 -0.5236 -0.2574
  539MOL0     H74352   5.311   6.795  10.461  0.6440 -3.0237 -0.1921
  539MOL0     H74353   5.287   6.908  10.325 -0.2444  0.3809  1.2139
  539MOL0     H74354   5.439   6.647  10.315 -0.0248 -1.8868 -3.8220
  539MOL0     H74355   5.423   6.753  10.182  0.2945 -1.1388  0.6215
  539MOL0     H74356   5.624   6.750  10.340 -0.4088 -0.7862  1.4205
  539MOL0     H74357   5.537   6.861  10.447  2.2478  0.5343 -0.1972
  539MOL0     H74358   5.492   7.004  10.256 -0.8788 -2.1960 -2.4468
  539MOL0     H74359   5.612   6.908  10.154  1.0019  1.9777 -0.8028
  539MOL0     H74360   5.661   7.084  10.406  1.6468  0.0908 -0.5589
  539MOL0     H74361   5.715   7.101  10.235  0.6449 -1.6668 -2.5406
  539MOL0     H74362   4.848   6.540   9.995  1.2732  0.1734  1.5262
  539MOL0     H74363   4.666   6.433   9.926  2.2820  1.0506  1.3496
  539MOL0     H74364   4.305   6.191   9.976  0.5036  0.8614 -1.1073
  539MOL0     H74365   4.108   6.074   9.937  0.9373  0.5575  2.0237
  539MOL0     H74366   2.579   5.216   9.317 -1.6883  0.7084  1.7367
  539MOL0     H74367   2.526   5.056   9.489  0.5251 -1.9134  2.0071
  539MOL0     H74368   2.777   4.799   9.876 -0.7210  1.7133 -2.5658
  539MOL0     H74369   2.759   4.579  10.015 -0.6031 -0.0483  1.0620
  539MOL0     H74370   2.593   4.476  10.197 -2.3012 -1.2651  3.5723
  539MOL0     H74371   2.524   4.314  10.185  1.1634 -1.9621 -0.7229
  539MOL0     H74372   2.761   4.301  10.243  1.4223  0.0139 -0.4219
  539MOL0     H74373   2.799   4.400  10.108 -0.6428  1.4696  0.0044
  539MOL0     H74374   2.717   4.206   9.958 -0.6461 -0.7318  0.6453
  539MOL0     H74375   2.852   4.171  10.054  0.1392 -1.0804  2.7982
  539MOL0     H74376   2.584   4.052  10.080 -0.8921 -0.5583 -1.3098
  539MOL0     H74377   2.681   4.079  10.230  0.9825 -1.8501  0.0505
  539MOL0     H74378   2.896   3.771  10.077  1.4116  1.3380  1.5067
  539MOL0     H74379   2.396   4.501   9.826 -2.2787  2.8754 -1.9758
  539MOL0     H74380   2.311   4.771   9.680 -0.4863 -1.6640  3.1692
  539MOL0     H74381   2.437   4.710   9.560  1.7179  1.1456  0.3513
  539MOL0     H74382   2.333   4.595   9.650  1.2877 -0.3796  0.1625
  540MOL0     O74383   5.506   2.370   8.519  1.0909  0.0119  0.6580
  540MOL0     C74384   5.539   2.335   8.407  0.6939  1.2394 -0.1567
  540MOL0     O74385   5.661   2.330   8.356  0.3788 -0.0385 -0.0499
  540MOL0     C74386   5.768   2.411   8.393 -0.9830  0.0877  0.4274
  540MOL0     C74387   5.774   2.497   8.505  0.9312 -0.5153  0.1774
  540MOL0     C74388   5.883   2.579   8.532  0.8180 -0.2495  0.6700
  540MOL0     C74389   5.994   2.577   8.453 -0.0541 -0.2266 -0.2054
  540MOL0     O74390   6.105   2.659   8.469 -0.6606  0.5415 -0.3953
  540MOL0     C74391   6.120   2.744   8.585  0.6346 -0.4620  0.2676
  540MOL0     C74392   6.157   2.653   8.702  0.1296  0.1700 -0.6122
  540MOL0     C74393   6.291   2.585   8.690  0.5349 -0.5163  0.0013
  540MOL0     C74394   6.415   2.674   8.664  0.3564 -0.6149  0.0879
  540MOL0     C74395   6.540   2.607   8.603  0.4856 -0.1452  0.4075
  540MOL0     C74396   6.573   2.480   8.685 -0.1138 -0.0227  0.1659
  540MOL0     C74397   6.699   2.419   8.635 -0.4412  0.4113 -0.1147
  540MOL0     C74398   6.835   2.490   8.682 -0.2753  0.2224 -0.1170
  540MOL0     N74399   6.947   2.441   8.599  0.0467 -1.0036  0.6873
  540MOL0     C74400   6.962   2.444   8.461 -0.4240 -1.0676 -0.8003
  540MOL0     C74401   7.080   2.390   8.438  0.2869  0.3520 -0.3895
  540MOL0     C74402   7.149   2.393   8.301 -0.2410  0.5179  0.6841
  540MOL0     C74403   7.283   2.311   8.292  0.3846  0.1924  0.7801
  540MOL0     C74404   7.280   2.159   8.329  0.8332 -0.2055 -0.5189
  540MOL0     C74405   7.413   2.090   8.364 -0.2052  0.0564 -0.9390
  540MOL0     O74406   7.445   2.122   8.496 -1.2213 -0.6300 -0.0905
  540MOL0     C74407   7.583   2.140   8.508  0.6358 -0.0172 -0.2601
  540MOL0     C74408   7.668   2.028   8.534 -0.6608  0.6620  0.2982
  540MOL0     C74409   7.805   2.042   8.560  0.5717 -0.4135  0.3610
  540MOL0     C74410   7.881   1.917   8.578 -0.3043  0.2106 -0.0492
  540MOL0     C74411   7.858   2.173   8.550 -0.1639  0.3879 -0.5192
  540MOL0     C74412   8.004   2.209   8.559  0.5278  0.5464 -0.3953
  540MOL0     O74413   8.092   2.118   8.516  0.1674  0.3835  0.0866
  540MOL0     C74414   8.222   2.116   8.550 -0.1355 -0.3774 -0.9142
  540MOL0     C74415   8.311   2.055   8.460  0.6430 -0.3742 -0.2617
  540MOL0     C74416   8.450   2.044   8.486 -0.4963  0.0748  0.2308
  540MOL0     C74417   8.494   2.097   8.606 -0.1479 -0.2566 -0.0343
  540MOL0     O74418   8.626   2.091   8.629  0.5865  0.1465  0.4756
  540MOL0     C74419   8.680   2.205   8.695 -0.1702 -0.6967 -0.1086
  540MOL0     C74420   8.829   2.223   8.662  0.3015 -0.5972 -0.1538
  540MOL0     C74421   8.915   2.111   8.704 -0.2202  0.6757  0.3083
  540MOL0     C74422   9.065   2.142   8.672 -0.4682 -0.3272  0.8686
  540MOL0     C74423   9.159   2.024   8.655 -0.5692  0.9429 -0.9670
  540MOL0     C74424   9.150   1.928   8.771 -0.5233  0.2142  0.1550
  540MOL0     C74425   9.190   1.995   8.908 -0.5151  0.2846  0.2842
  540MOL0     C74426   9.173   1.906   9.032 -0.5356  0.1548  0.3956
  540MOL0    Cl74427   9.236   2.006   9.175 -0.0874  0.1496  0.1332
  540MOL0     C74428   8.403   2.153   8.699  0.0144 -0.5110 -0.7584
  540MOL0     C74429   8.268   2.157   8.674 -0.1913  0.0158 -0.2293
  540MOL0     O74430   8.032   2.316   8.612  0.1041 -0.0001  0.0216
  540MOL0     C74431   7.774   2.280   8.524 -0.0817 -0.2408  0.4484
  540MOL0     C74432   7.642   2.268   8.504 -0.1573  0.2027 -0.0722
  540MOL0     N74433   7.150   2.368   8.555  0.4142 -0.2802  0.0510
  540MOL0     N74434   7.061   2.397   8.657  0.0071  1.1750  0.8539
  540MOL0     C74435   5.986   2.504   8.328  0.4250  0.6629 -0.2949
  540MOL0     C74436   5.872   2.419   8.304 -0.6327  0.5302  0.0069
  540MOL0     C74437   5.431   2.276   8.324  0.4625 -0.8238  0.5666
  540MOL0     C74438   5.300   2.289   8.371 -0.0347  0.3774  1.2008
  540MOL0     C74439   5.198   2.210   8.314  0.9997 -0.9114 -0.5394
  540MOL0     C74440   5.209   2.139   8.204  0.0763 -0.2646 -0.4721
  540MOL0     O74441   5.094   2.078   8.151  0.2362 -0.7746  0.3401
  540MOL0     C74442   5.102   2.009   8.016  0.1097 -0.4643 -0.0101
  540MOL0     C74443   5.093   2.099   7.887  0.1661 -0.1659  0.8263
  540MOL0     C74444   4.979   2.196   7.880 -0.0836 -0.1507 -0.7663
  540MOL0     C74445   5.028   2.342   7.924 -0.1163 -0.2816 -0.2103
  540MOL0     C74446   5.084   2.421   7.813 -0.5931  0.1461 -0.3959
  540MOL0     C74447   5.134   2.486   7.731  0.0581 -0.1239  0.8301
  540MOL0     C74448   5.331   2.131   8.149  0.5189  0.7378  0.2107
  540MOL0     C74449   5.442   2.200   8.210 -0.4399  0.2003  1.1475
  540MOL0     C74450   5.581   2.160   8.162 -0.1238  0.2259  0.3782
  540MOL0     H74451   5.685   2.517   8.565  0.0857 -0.3873 -1.0852
  540MOL0     H74452   5.876   2.655   8.609  2.1626  0.5036  0.0902
  540MOL0     H74453   6.022   2.787   8.606 -0.3319 -1.1148 -2.3773
  540MOL0     H74454   6.190   2.826   8.567  0.0742  0.0103  0.2310
  540MOL0     H74455   6.161   2.720   8.788 -3.4584  0.9422 -0.8840
  540MOL0     H74456   6.081   2.579   8.728 -2.3240  2.4201 -0.8739
  540MOL0     H74457   6.309   2.528   8.781 -0.7486  0.9997  1.2623
  540MOL0     H74458   6.278   2.517   8.605  1.2460 -0.4080 -0.2011
  540MOL0     H74459   6.395   2.766   8.608  1.1318  1.4014  2.8963
  540MOL0     H74460   6.440   2.713   8.763 -0.1278  0.0128 -0.0327
  540MOL0     H74461   6.627   2.673   8.605  1.6723 -1.6294 -0.7998
  540MOL0     H74462   6.528   2.585   8.497 -0.3518 -0.4410  0.5540
  540MOL0     H74463   6.584   2.498   8.793  1.1105 -1.2802  0.2801
  540MOL0     H74464   6.487   2.414   8.677 -2.5040  2.9659 -0.4809
  540MOL0     H74465   6.694   2.410   8.526 -0.7637 -6.0926  0.0829
  540MOL0     H74466   6.695   2.315   8.669 -0.4026 -0.2206 -1.9267
  540MOL0     H74467   6.830   2.599   8.671 -0.8734  0.2753  0.6129
  540MOL0     H74468   6.862   2.469   8.785  0.9872 -2.2322 -0.8634
  540MOL0     H74469   6.893   2.484   8.388 -1.1948  0.9572  0.9274
  540MOL0     H74470   7.170   2.498   8.278  0.7596  0.1740 -0.0583
  540MOL0     H74471   7.084   2.348   8.225  1.9199  1.2326 -1.7157
  540MOL0     H74472   7.328   2.311   8.192 -0.5626  0.7353  0.3437
  540MOL0     H74473   7.355   2.359   8.359  2.5222  1.8285 -2.4683
  540MOL0     H74474   7.207   2.149   8.409  1.3980  3.2506  0.5967
  540MOL0     H74475   7.226   2.113   8.245 -1.1241 -0.5729  0.8869
  540MOL0     H74476   7.401   1.982   8.352  1.9100 -0.4491  0.7568
  540MOL0     H74477   7.491   2.120   8.293 -0.0550  0.1321 -0.7414
  540MOL0     H74478   7.631   1.927   8.535 -0.8035  0.7139  1.2310
  540MOL0     H74479   7.816   1.832   8.599 -0.5894  0.7381  1.3141
  540MOL0     H74480   7.956   1.926   8.657 -0.3960 -0.9989  0.1954
  540MOL0     H74481   7.942   1.905   8.488  0.6374 -2.3006  0.8558
  540MOL0     H74482   8.267   2.018   8.369 -0.4241  1.5815 -0.6045
  540MOL0     H74483   8.522   1.991   8.424 -3.1215 -2.9923 -0.4721
  540MOL0     H74484   8.630   2.298   8.666  3.0404  0.7500 -1.5400
  540MOL0     H74485   8.670   2.200   8.804  1.4103  0.4683  0.1281
  540MOL0     H74486   8.839   2.237   8.554  2.4928  1.1181  0.1902
  540MOL0     H74487   8.870   2.314   8.708  1.1998 -2.5639  3.2312
  540MOL0     H74488   8.878   2.021   8.652  1.1669  0.5874 -0.5671
  540MOL0     H74489   8.900   2.087   8.809 -0.2345 -0.3505  0.0864
  540MOL0     H74490   9.110   2.211   8.743  0.8710 -0.1858 -0.0848
  540MOL0     H74491   9.071   2.186   8.572  2.9494 -0.0559  1.1003
  540MOL0     H74492   9.126   1.984   8.558  0.5982  4.0381 -2.7925
  540MOL0     H74493   9.260   2.064   8.646  1.4594 -1.6473  5.2755
  540MOL0     H74494   9.213   1.841   8.749 -1.6570 -0.4897 -0.3758
  540MOL0     H74495   9.050   1.884   8.777  0.1428 -1.6476 -1.4665
  540MOL0     H74496   9.122   2.080   8.917  1.5141  2.6016 -3.3480
  540MOL0     H74497   9.290   2.035   8.889 -0.3843 -1.4067 -3.4927
  540MOL0     H74498   9.229   1.812   9.025 -0.2847  0.3832 -0.9261
  540MOL0     H74499   9.067   1.897   9.058 -1.1458  5.2740  0.5568
  540MOL0     H74500   8.425   2.198   8.796 -2.7403  2.0816 -1.1800
  540MOL0     H74501   8.199   2.201   8.745 -0.4886  0.1391 -0.5869
  540MOL0     H74502   7.814   2.378   8.545 -2.0387  0.6996  0.0005
  540MOL0     H74503   7.589   2.361   8.483  0.7705  0.6833 -0.3667
  540MOL0     H74504   6.073   2.495   8.264  1.3430 -2.2407  1.2227
  540MOL0     H74505   5.868   2.360   8.213  0.0784 -0.4420  0.5936
  540MOL0     H74506   5.289   2.357   8.455  2.4424  2.6161 -0.1409
  540MOL0     H74507   5.100   2.230   8.356  1.0073 -1.2623 -0.3520
  540MOL0     H74508   5.172   1.925   8.008  0.6865 -0.4251  3.1722
  540MOL0     H74509   5.002   1.967   8.006  0.0285  0.0706 -1.9661
  540MOL0     H74510   5.068   2.022   7.813 -1.6893  0.9074  0.2757
  540MOL0     H74511   5.183   2.156   7.865 -1.2753  2.6107  1.7401
  540MOL0     H74512   4.934   2.202   7.780  1.3137  3.9384 -1.3280
  540MOL0     H74513   4.903   2.174   7.956 -1.2928  0.1214 -1.8463
  540MOL0     H74514   5.098   2.346   8.008 -1.0880 -1.6732  0.6936
  540MOL0     H74515   4.951   2.407   7.967  0.1530 -0.3487  0.3715
  540MOL0     H74516   5.186   2.540   7.654 -1.0891  0.9963  0.8101
  540MOL0     H74517   5.352   2.064   8.066  2.6502  1.2127  0.3220
  540MOL0     H74518   5.641   2.245   8.128  0.8637 -0.6899 -0.1895
  540MOL0     H74519   5.622   2.107   8.248 -0.1530 -1.4959 -0.6376
  540MOL0     H74520   5.581   2.095   8.075 -2.3511 -2.0328  1.9192
  541MOL0     O74521   6.029   1.920   5.516  0.5115 -0.3823 -0.2718
  541MOL0     C74522   5.948   1.859   5.589 -0.1757 -0.6013 -0.3489
  541MOL0     O74523   5.984   1.796   5.706 -0.0789  0.4440  0.4151
  541MOL0     C74524   6.113   1.798   5.740 -0.0121  0.2515  0.0619
  541MOL0     C74525   6.204   1.705   5.693 -1.0176  0.1803  0.0858
  541MOL0     C74526   6.346   1.722   5.715  0.8301  0.0954  0.2814
  541MOL0     C74527   6.386   1.824   5.804  0.6141  0.2849  0.1410
  541MOL0     O74528   6.517   1.847   5.835 -0.0720 -0.0557  0.1895
  541MOL0     C74529   6.614   1.833   5.731  0.9791 -0.4634 -0.0936
  541MOL0     C74530   6.738   1.779   5.789 -0.3554  0.0613  0.7031
  541MOL0     C74531   6.830   1.743   5.682  0.1887  0.2717 -0.0888
  541MOL0     C74532   6.940   1.661   5.746 -0.4792  0.4385  0.1737
  541MOL0     C74533   7.044   1.645   5.645  0.1220 -0.1113  0.3627
  541MOL0     C74534   7.170   1.600   5.716 -0.2494 -0.3920  0.9126
  541MOL0     C74535   7.278   1.578   5.613 -0.5114 -0.4214  0.1239
  541MOL0     C74536   7.283   1.431   5.558 -0.4002 -0.0234 -0.2799
  541MOL0     N74537   7.360   1.410   5.439  0.1967 -0.1506  0.0224
  541MOL0     C74538   7.302   1.392   5.317  0.3510 -0.8509  0.5874
  541MOL0     C74539   7.398   1.340   5.237 -0.5011  0.0430  0.2589
  541MOL0     C74540   7.393   1.305   5.093 -0.8640 -0.2466  0.2737
  541MOL0     C74541   7.437   1.162   5.070 -1.1173 -0.6419  0.1860
  541MOL0     C74542   7.401   1.136   4.922  0.1867  0.1736  0.1214
  541MOL0     C74543   7.454   0.994   4.871 -0.6707 -1.0189 -0.7838
  541MOL0     O74544   7.595   0.997   4.871  0.2573  0.4000 -0.5108
  541MOL0     C74545   7.663   0.892   4.808  0.3106 -0.7039  0.9351
  541MOL0     C74546   7.607   0.782   4.741  0.0704 -0.4403 -0.8454
  541MOL0     C74547   7.687   0.679   4.676  0.8532 -0.4351 -0.3848
  541MOL0     C74548   7.610   0.562   4.632 -0.4573  0.8061  0.2584
  541MOL0     C74549   7.830   0.688   4.683 -0.3615  0.3348  0.5826
  541MOL0     C74550   7.926   0.591   4.629 -0.1417  0.2553 -0.8406
  541MOL0     O74551   8.060   0.627   4.631  0.7686  0.4630 -0.2774
  541MOL0     C74552   8.148   0.527   4.597  0.3373  0.1447  0.2744
  541MOL0     C74553   8.226   0.532   4.483 -0.1873 -0.4944  0.5743
  541MOL0     C74554   8.324   0.438   4.458  0.1652 -0.4836  0.4451
  541MOL0     C74555   8.345   0.336   4.546  0.2711  0.2868 -0.2631
  541MOL0     O74556   8.456   0.256   4.529  0.0243  0.2092  0.0365
  541MOL0     C74557   8.534   0.229   4.646 -0.2373  1.4816 -0.2385
  541MOL0     C74558   8.678   0.210   4.594  0.0977  0.1268  0.0601
  541MOL0     C74559   8.777   0.169   4.709  0.7898 -0.2110  0.2015
  541MOL0     C74560   8.910   0.128   4.645  0.1096 -0.2110 -0.5997
  541MOL0     C74561   9.007   0.089   4.754  0.2342  0.1135 -0.4702
  541MOL0     C74562   9.147   0.081   4.689  0.7487 -0.0373  1.3453
  541MOL0     C74563   9.252   0.077   4.803 -0.1216  0.3720 -0.6103
  541MOL0     C74564   9.284   0.205   4.888  0.1760  0.6841  0.9251
  541MOL0    Cl74565   9.363   0.318   4.778 -0.1871  0.5138  0.4098
  541MOL0     C74566   8.264   0.326   4.664 -0.4032  0.2251 -0.4437
  541MOL0     C74567   8.170   0.419   4.687 -0.3182  0.1484 -0.3511
  541MOL0     O74568   7.886   0.489   4.597 -0.1207 -0.4308  0.4142
  541MOL0     C74569   7.885   0.810   4.742 -0.1321  0.7683 -0.6451
  541MOL0     C74570   7.808   0.906   4.797  0.0890  1.0989 -0.7279
  541MOL0     N74571   7.510   1.339   5.313  0.0917  0.3818  0.2141
  541MOL0     N74572   7.489   1.374   5.442 -0.0458 -0.2645  0.7340
  541MOL0     C74573   6.290   1.915   5.858 -0.3727 -0.0649 -0.0620
  541MOL0     C74574   6.154   1.899   5.831 -0.2220  0.0771  0.4029
  541MOL0     C74575   5.811   1.838   5.537 -0.5610 -0.1946 -0.3413
  541MOL0     C74576   5.745   1.725   5.582 -0.1385 -0.5911  0.3233
  541MOL0     C74577   5.608   1.700   5.549 -0.6731 -0.6061 -0.4087
  541MOL0     C74578   5.543   1.794   5.476 -0.3229 -0.4471  0.1521
  541MOL0     O74579   5.415   1.773   5.456 -0.7757 -0.8967 -0.5841
  541MOL0     C74580   5.336   1.860   5.366 -0.2840  0.4859  0.5601
  541MOL0     C74581   5.199   1.801   5.335 -0.1760  0.6464  0.4109
  541MOL0     C74582   5.194   1.643   5.308 -0.4449 -0.6929 -0.7608
  541MOL0     C74583   5.061   1.619   5.248 -0.3144  0.1486  1.2318
  541MOL0     C74584   5.045   1.472   5.221 -0.5023 -0.0643  0.6174
  541MOL0     C74585   5.031   1.360   5.198 -0.1568  1.1073 -0.4911
  541MOL0     C74586   5.609   1.909   5.434 -0.3657  0.5075  0.1135
  541MOL0     C74587   5.745   1.927   5.452 -0.5822  0.1122  0.2722
  541MOL0     C74588   5.808   2.041   5.380 -0.0094  0.0818 -0.1068
  541MOL0     H74589   6.172   1.625   5.627  0.4796  1.2109 -1.9999
  541MOL0     H74590   6.414   1.648   5.672  0.1006 -0.0532 -0.6436
  541MOL0     H74591   6.642   1.929   5.687 -4.0910  2.2591  1.7505
  541MOL0     H74592   6.575   1.768   5.653 -3.3775  0.8529  0.6844
  541MOL0     H74593   6.778   1.862   5.848  2.2891 -0.5510 -0.0950
  541MOL0     H74594   6.724   1.686   5.845 -0.6255 -0.5302 -0.3164
  541MOL0     H74595   6.790   1.692   5.594  3.1196  1.8145 -2.5020
  541MOL0     H74596   6.871   1.837   5.645 -1.3004  1.2190  0.5453
  541MOL0     H74597   6.980   1.710   5.835 -1.2614  1.3148  0.0568
  541MOL0     H74598   6.907   1.562   5.780  4.2394 -1.1988  0.6749
  541MOL0     H74599   7.073   1.743   5.606 -0.2152  0.2547  1.0271
  541MOL0     H74600   7.016   1.572   5.568 -1.0110  0.8573 -0.1764
  541MOL0     H74601   7.202   1.672   5.792 -0.3511 -1.4792  1.9985
  541MOL0     H74602   7.145   1.511   5.773  0.7747  0.5052  2.8620
  541MOL0     H74603   7.372   1.598   5.665 -0.7966  1.0252  0.1436
  541MOL0     H74604   7.267   1.655   5.536 -0.6976  0.0071  0.5671
  541MOL0     H74605   7.329   1.379   5.642  0.5984  3.7722  1.7695
  541MOL0     H74606   7.181   1.392   5.548 -0.0141 -1.9036  2.3231
  541MOL0     H74607   7.201   1.408   5.281  0.3768 -1.0150  0.4366
  541MOL0     H74608   7.460   1.376   5.043 -1.9195 -0.3161 -1.3252
  541MOL0     H74609   7.294   1.327   5.050  0.4178  1.8852 -1.8791
  541MOL0     H74610   7.546   1.157   5.079 -1.2265 -0.4082  2.0622
  541MOL0     H74611   7.386   1.099   5.144  0.4009  0.0568  1.9017
  541MOL0     H74612   7.292   1.139   4.912  0.4125  0.4221 -3.2682
  541MOL0     H74613   7.434   1.222   4.863 -4.1301  1.9941  0.0378
  541MOL0     H74614   7.432   0.920   4.949  2.4482 -1.0727  0.2072
  541MOL0     H74615   7.408   0.983   4.772 -1.6039  4.3251 -1.2294
  541MOL0     H74616   7.499   0.774   4.734 -0.1737  0.6070  1.0461
  541MOL0     H74617   7.506   0.572   4.664 -1.6921 -1.4717 -2.5782
  541MOL0     H74618   7.651   0.471   4.677  2.6609  2.0957  0.2093
  541MOL0     H74619   7.601   0.546   4.524 -1.2775 -3.6474  0.8022
  541MOL0     H74620   8.209   0.604   4.404  0.6234  0.2721  1.0707
  541MOL0     H74621   8.382   0.447   4.367  2.4695 -2.9466  1.5425
  541MOL0     H74622   8.525   0.293   4.734  0.2971  0.6515  0.4309
  541MOL0     H74623   8.492   0.131   4.670  1.1924  0.7194 -0.6784
  541MOL0     H74624   8.669   0.127   4.523 -1.3393 -0.5820  1.0073
  541MOL0     H74625   8.720   0.296   4.542  2.2998 -2.6800 -3.3013
  541MOL0     H74626   8.743   0.082   4.766 -3.9207 -0.0953 -2.0017
  541MOL0     H74627   8.788   0.254   4.777 -1.5572  0.7439 -0.5000
  541MOL0     H74628   8.952   0.207   4.583 -0.7267  1.8808  1.3802
  541MOL0     H74629   8.898   0.038   4.583  0.5892  0.2279 -1.3462
  541MOL0     H74630   9.000   0.173   4.824 -0.1730  0.4985 -0.9581
  541MOL0     H74631   8.990  -0.007   4.802  1.2873  0.2869  0.2788
  541MOL0     H74632   9.161   0.178   4.641 -0.3419  0.2842  1.6624
  541MOL0     H74633   9.151  -0.000   4.616 -1.6896 -1.3815  2.5933
  541MOL0     H74634   9.346   0.043   4.757 -0.1861 -0.2883 -0.2684
  541MOL0     H74635   9.226  -0.009   4.865 -0.9741  0.8202 -0.3276
  541MOL0     H74636   9.352   0.185   4.971 -1.6832  1.0375  2.6137
  541MOL0     H74637   9.194   0.251   4.931  0.8746  0.3691  2.8451
  541MOL0     H74638   8.280   0.237   4.725 -1.7180  0.6791  0.6169
  541MOL0     H74639   8.109   0.415   4.777  0.5301 -3.0509  0.1903
  541MOL0     H74640   7.987   0.840   4.764 -1.0514  2.5441  1.5716
  541MOL0     H74641   7.856   0.998   4.829 -0.4048  1.3473 -0.7012
  541MOL0     H74642   6.319   1.996   5.924 -3.4237  1.8679 -0.8855
  541MOL0     H74643   6.075   1.963   5.871  0.2307 -0.3173  2.0051
  541MOL0     H74644   5.799   1.662   5.651  0.6966  0.9878  1.1626
  541MOL0     H74645   5.553   1.618   5.593 -0.5151 -0.8266 -0.6198
  541MOL0     H74646   5.326   1.964   5.401 -0.7530  0.1751  1.3765
  541MOL0     H74647   5.384   1.862   5.268  1.6943  0.4798  1.4619
  541MOL0     H74648   5.176   1.838   5.235  1.9900  1.3484  0.1039
  541MOL0     H74649   5.129   1.833   5.412  1.0956 -0.1439  1.9675
  541MOL0     H74650   5.280   1.603   5.253  0.6684  0.8114 -0.1637
  541MOL0     H74651   5.206   1.597   5.406  0.2833  0.0224 -0.5049
  541MOL0     H74652   5.070   1.666   5.150  0.1988 -2.4448 -0.0622
  541MOL0     H74653   4.986   1.649   5.322  0.3839 -2.4408  3.1565
  541MOL0     H74654   4.998   1.258   5.188  1.8873  0.5053 -1.6319
  541MOL0     H74655   5.556   1.981   5.371  0.6822  0.2335 -1.1284
  541MOL0     H74656   5.838   2.119   5.451  1.7573 -0.5000 -0.1448
  541MOL0     H74657   5.890   2.006   5.317 -0.7302 -0.2828 -0.8608
  541MOL0     H74658   5.741   2.096   5.313 -0.9633  0.8677  1.4272
  542MOL0     O74659   9.480  11.184   6.594 -0.1090  0.6024  0.1329
  542MOL0     C74660   9.375  11.245   6.613 -0.5261  0.5597  0.1138
  542MOL0     O74661   9.368  11.375   6.652 -0.3431  0.6851 -0.5157
  542MOL0     C74662   9.466  11.457   6.597  0.4829  1.2646  0.2034
  542MOL0     C74663   9.592  11.475   6.657  0.9981 -0.2991  0.7445
  542MOL0     C74664   9.683  11.546   6.587  0.1450  0.7037 -0.4271
  542MOL0     C74665   9.645  11.610   6.469  0.2342 -0.3604 -0.5944
  542MOL0     O74666   9.725  11.687   6.398 -0.2031  0.3175  0.3741
  542MOL0     C74667   9.823  11.777   6.470  0.0725 -0.2530  0.0183
  542MOL0     C74668   9.924  11.824   6.361  0.4918  0.3758 -0.0892
  542MOL0     C74669  10.052  11.744   6.364  0.0893  0.1432 -0.2584
  542MOL0     C74670  10.024  11.599   6.320  0.3528 -0.2111  0.6381
  542MOL0     C74671  10.140  11.539   6.233  0.1026 -0.6479  0.0484
  542MOL0     C74672  10.275  11.548   6.306 -0.0478  0.3176  0.5379
  542MOL0     C74673  10.369  11.433   6.255 -0.0047  0.1306 -0.1096
  542MOL0     C74674  10.510  11.446   6.311 -0.0270 -0.2780 -0.5096
  542MOL0     N74675  10.606  11.375   6.222  0.4799  0.5397 -0.0553
  542MOL0     C74676  10.750  11.394   6.212  0.7445 -0.0359 -0.5500
  542MOL0     C74677  10.783  11.303   6.120 -0.8000  0.0126 -0.1412
  542MOL0     C74678  10.919  11.275   6.065  0.5717  0.1920 -0.5755
  542MOL0     C74679  11.009  11.208   6.171  0.1322 -1.3941  0.8054
  542MOL0     C74680  11.086  11.300   6.265  0.0802  0.5700  0.6442
  542MOL0     C74681  11.206  11.364   6.183  0.1131 -0.0435 -0.2709
  542MOL0     O74682  11.308  11.257   6.164  0.4424 -0.1482  0.2107
  542MOL0     C74683  11.440  11.286   6.174 -0.2543 -0.7752  0.7305
  542MOL0     C74684  11.514  11.208   6.259  0.2762  0.0028 -0.2132
  542MOL0     C74685  11.647  11.238   6.282 -0.7075 -0.0870 -0.8578
  542MOL0     C74686  11.712  11.156   6.387 -0.5164  0.2355 -0.7839
  542MOL0     C74687  11.699  11.357   6.240  0.5476  0.8455  0.1839
  542MOL0     C74688  11.836  11.405   6.265 -0.1666  0.0013 -0.2150
  542MOL0     O74689  11.880  11.498   6.162 -0.7984 -0.0975 -0.0054
  542MOL0     C74690  11.996  11.568   6.173  0.6641 -0.9557 -0.6218
  542MOL0     C74691  12.050  11.624   6.051  0.7009  0.4621 -1.0308
  542MOL0     C74692  12.155  11.721   6.060 -0.9966 -0.2481  0.2599
  542MOL0     C74693  12.211  11.743   6.186  0.0176 -1.0123 -0.2381
  542MOL0     O74694  12.318  11.826   6.193 -0.3735 -0.1471  0.2979
  542MOL0     C74695  12.392  11.873   6.311 -0.0491 -0.4498  0.0140
  542MOL0     C74696  12.476  11.999   6.292  0.2016  0.5698 -0.0799
  542MOL0     C74697  12.588  11.971   6.185  0.1975  0.8562 -0.8375
  542MOL0     C74698  12.691  12.090   6.196 -0.4813  0.4460 -0.1161
  542MOL0     C74699  12.651  12.206   6.105  0.0882 -0.9581  0.2114
  542MOL0     C74700  12.732  12.321   6.138 -0.4952 -0.4098 -0.1499
  542MOL0     C74701  12.697  12.442   6.051  0.2722 -0.5318  0.4902
  542MOL0     C74702  12.779  12.570   6.077  0.2084 -0.7022 -0.3387
  542MOL0    Cl74703  12.739  12.620   6.254 -0.5159  0.3546 -0.5095
  542MOL0     C74704  12.160  11.690   6.302 -0.2412  0.3665 -0.1602
  542MOL0     C74705  12.048  11.613   6.293  1.0684 -0.1934 -0.0898
  542MOL0     O74706  11.900  11.363   6.361  0.2095 -0.5929  0.1330
  542MOL0     C74707  11.619  11.439   6.166  0.6959 -0.7049 -0.2893
  542MOL0     C74708  11.494  11.405   6.127  0.6403 -0.1539  0.2933
  542MOL0     N74709  10.670  11.233   6.081 -0.7080 -0.0370  0.6560
  542MOL0     N74710  10.564  11.283   6.136  0.9206  0.2262  0.5445
  542MOL0     C74711   9.518  11.611   6.422 -1.0886  0.2289  0.0192
  542MOL0     C74712   9.429  11.529   6.480  1.4402  0.4542  0.3062
  542MOL0     C74713   9.246  11.166   6.608 -1.0040 -0.2671  0.7198
  542MOL0     C74714   9.253  11.029   6.590 -0.0231 -0.0839  0.0857
  542MOL0     C74715   9.132  10.955   6.571  0.1233  0.0509  0.2849
  542MOL0     C74716   9.007  11.017   6.567 -0.1322 -0.0323 -0.5803
  542MOL0     O74717   8.890  10.947   6.535  0.2179 -0.5035 -0.0896
  542MOL0     C74718   8.863  10.811   6.587  0.2423 -0.5068 -0.4123
  542MOL0     C74719   8.715  10.783   6.602  0.2144  1.1076 -0.6892
  542MOL0     C74720   8.662  10.861   6.726 -0.0820  0.0300 -0.0506
  542MOL0     C74721   8.510  10.876   6.733  0.1620 -1.0230  0.3736
  542MOL0     C74722   8.448  10.746   6.720  0.1071 -0.2851 -0.3853
  542MOL0     C74723   8.386  10.640   6.730 -0.1154  0.1488  0.4495
  542MOL0     C74724   9.006  11.150   6.590  0.3366 -0.0956 -0.0221
  542MOL0     C74725   9.118  11.228   6.616 -0.1134 -1.0618 -0.0392
  542MOL0     C74726   9.091  11.374   6.643  0.5453 -0.7346 -0.3723
  542MOL0     H74727   9.603  11.431   6.756  1.0718  1.4142  1.5206
  542MOL0     H74728   9.789  11.544   6.611  0.2587 -0.8164 -0.9047
  542MOL0     H74729   9.875  11.742   6.560  1.0670  2.6629  0.7229
  542MOL0     H74730   9.772  11.873   6.483  1.4419  0.6942 -1.2665
  542MOL0     H74731   9.872  11.814   6.266 -1.0988  1.8219  0.5729
  542MOL0     H74732   9.945  11.930   6.381  1.6104 -0.2420  2.4712
  542MOL0     H74733  10.124  11.797   6.302 -0.3296 -1.2301 -1.9975
  542MOL0     H74734  10.093  11.741   6.465  1.2280  3.8116 -0.4731
  542MOL0     H74735   9.993  11.532   6.402 -2.0782  2.3364  1.9938
  542MOL0     H74736   9.944  11.606   6.245  2.0886 -2.6062 -1.5965
  542MOL0     H74737  10.154  11.603   6.146  0.5839  1.0135  1.3011
  542MOL0     H74738  10.125  11.432   6.213 -1.5315 -0.5596  0.6463
  542MOL0     H74739  10.323  11.644   6.285 -5.4806  3.3388  0.1005
  542MOL0     H74740  10.272  11.538   6.415  1.7495  4.5042  1.1973
  542MOL0     H74741  10.365  11.427   6.146 -1.7606  2.3892 -0.2608
  542MOL0     H74742  10.325  11.339   6.288  2.0595 -0.5205  0.9142
  542MOL0     H74743  10.529  11.553   6.309 -3.4108  0.4353  0.0262
  542MOL0     H74744  10.514  11.410   6.414 -1.9769 -2.1877 -1.0235
  542MOL0     H74745  10.805  11.472   6.263 -0.1200  0.5729 -0.5144
  542MOL0     H74746  10.970  11.364   6.027  0.9652  1.1880  2.0906
  542MOL0     H74747  10.911  11.208   5.979 -1.6455  0.2688 -0.4686
  542MOL0     H74748  10.944  11.149   6.235 -0.3264 -0.7533  0.9400
  542MOL0     H74749  11.083  11.141   6.125  1.3275  0.8876 -0.7924
  542MOL0     H74750  11.026  11.387   6.294  1.2299  1.3360  0.7450
  542MOL0     H74751  11.117  11.252   6.358 -2.2216  0.8733  1.6280
  542MOL0     H74752  11.188  11.406   6.084  0.6789 -1.6436 -1.0805
  542MOL0     H74753  11.246  11.450   6.239  2.9356 -2.8513  2.4720
  542MOL0     H74754  11.472  11.121   6.309 -1.2551  0.4447 -0.6747
  542MOL0     H74755  11.660  11.059   6.389 -1.1589  0.5684  1.4904
  542MOL0     H74756  11.714  11.215   6.479 -0.5973 -1.5054  0.3945
  542MOL0     H74757  11.814  11.130   6.356 -1.0545 -1.4086 -1.3014
  542MOL0     H74758  12.007  11.606   5.953 -2.0219  1.3018 -0.0649
  542MOL0     H74759  12.216  11.764   5.982  1.3128  0.9917  2.5844
  542MOL0     H74760  12.326  11.888   6.397  0.3182 -2.8569  0.8059
  542MOL0     H74761  12.464  11.798   6.343 -0.5431 -0.9753 -0.0767
  542MOL0     H74762  12.414  12.082   6.258  0.4153  0.4181 -0.8530
  542MOL0     H74763  12.522  12.035   6.385 -0.7037  2.5152 -0.3326
  542MOL0     H74764  12.544  11.960   6.086 -2.4299  0.8148  0.2432
  542MOL0     H74765  12.647  11.882   6.210 -0.0736  1.1152  0.8667
  542MOL0     H74766  12.787  12.051   6.162  1.2155  1.2680  3.2239
  542MOL0     H74767  12.696  12.123   6.301 -0.5618 -0.4148  0.1687
  542MOL0     H74768  12.659  12.173   6.001 -4.8991 -0.0132 -0.6980
  542MOL0     H74769  12.545  12.229   6.117  0.1596 -0.0502 -0.7812
  542MOL0     H74770  12.839  12.296   6.136 -0.5003 -0.4614 -2.7875
  542MOL0     H74771  12.704  12.362   6.236 -1.0317  0.2151 -0.5532
  542MOL0     H74772  12.589  12.461   6.057  0.4959  0.9111  0.3168
  542MOL0     H74773  12.722  12.414   5.948  1.6234  1.2805  0.2928
  542MOL0     H74774  12.752  12.646   6.002 -1.2486  3.0001  3.5085
  542MOL0     H74775  12.887  12.553   6.078  0.2277 -0.7018  1.8355
  542MOL0     H74776  12.203  11.710   6.400 -0.0390  0.0692 -0.1884
  542MOL0     H74777  11.997  11.587   6.385  0.6142  2.5908  0.5430
  542MOL0     H74778  11.655  11.526   6.112  0.5024 -1.2111 -1.2499
  542MOL0     H74779  11.432  11.480   6.081  2.6466  0.0447 -2.3294
  542MOL0     H74780   9.498  11.668   6.331  3.1351  3.0575  0.5724
  542MOL0     H74781   9.327  11.523   6.443  1.6691  0.8872 -0.4131
  542MOL0     H74782   9.343  10.969   6.581 -0.2447 -0.4143  0.0208
  542MOL0     H74783   9.127  10.850   6.544  0.7646 -0.3583  1.6977
  542MOL0     H74784   8.913  10.748   6.513  0.2995  1.1695 -1.8797
  542MOL0     H74785   8.916  10.807   6.682  0.5487  2.7994 -0.3138
  542MOL0     H74786   8.686  10.682   6.634 -0.8239  1.6147  0.0282
  542MOL0     H74787   8.658  10.804   6.511  1.4738  1.9254 -1.3138
  542MOL0     H74788   8.696  10.819   6.821 -1.6003 -1.8576 -0.2793
  542MOL0     H74789   8.685  10.968   6.719 -2.8707  0.6981 -0.2967
  542MOL0     H74790   8.471  10.933   6.649 -1.2277 -1.8360  0.4329
  542MOL0     H74791   8.484  10.922   6.828  3.0862  2.5045 -0.3429
  542MOL0     H74792   8.345  10.542   6.713 -1.1996  0.8743 -1.3842
  542MOL0     H74793   8.908  11.193   6.574  0.0702 -0.9204 -0.6991
  542MOL0     H74794   9.130  11.405   6.741 -0.4117  0.8012 -0.4448
  542MOL0     H74795   9.126  11.440   6.563 -1.2253  0.5023 -0.1757
  542MOL0     H74796   8.983  11.389   6.645  0.4233 -1.3913 -1.3383
  543MOL0     O74797   3.804   2.546   5.109  0.3396 -0.6197  0.8409
  543MOL0     C74798   3.782   2.612   5.004 -0.3287  0.5529 -0.4114
  543MOL0     O74799   3.843   2.732   4.968 -0.5947 -0.1076 -0.2379
  543MOL0     C74800   3.960   2.763   5.029 -0.4603 -0.1105  0.0906
  543MOL0     C74801   3.968   2.838   5.144  0.4070 -0.0847  0.4587
  543MOL0     C74802   4.089   2.893   5.189  0.4053  1.1719 -0.6694
  543MOL0     C74803   4.206   2.871   5.111 -0.2483  0.0835  0.9032
  543MOL0     O74804   4.333   2.923   5.138 -0.4542  0.7310  0.7005
  543MOL0     C74805   4.352   3.035   5.230 -0.3406 -0.6883 -0.1293
  543MOL0     C74806   4.343   3.171   5.171  0.0813 -0.1617 -0.1807
  543MOL0     C74807   4.454   3.194   5.068 -0.4896 -0.1507 -0.6125
  543MOL0     C74808   4.405   3.154   4.924 -0.4022 -0.1113 -0.3416
  543MOL0     C74809   4.495   3.207   4.811  0.5899 -0.3258 -0.1406
  543MOL0     C74810   4.502   3.106   4.699 -0.9919  0.2408 -0.2620
  543MOL0     C74811   4.571   3.158   4.573  0.3573  0.5193  0.4591
  543MOL0     C74812   4.721   3.189   4.604  0.4932  0.9063  0.6283
  543MOL0     N74813   4.809   3.069   4.615  0.2348 -0.2069 -0.0574
  543MOL0     C74814   4.911   3.068   4.703 -0.4536  0.1387  0.0652
  543MOL0     C74815   4.984   2.959   4.675  0.0979 -1.0460  0.7426
  543MOL0     C74816   5.112   2.921   4.742 -0.8469 -0.1846 -0.2319
  543MOL0     C74817   5.184   2.794   4.691 -0.1679  0.1920 -0.4419
  543MOL0     C74818   5.094   2.659   4.708 -0.1064  1.3245  0.4083
  543MOL0     C74819   5.176   2.531   4.668  0.3566 -0.3214  0.0464
  543MOL0     O74820   5.277   2.503   4.771  0.3274  0.3867 -0.1886
  543MOL0     C74821   5.375   2.424   4.730  0.8680 -0.1842 -0.0260
  543MOL0     C74822   5.354   2.312   4.648 -0.1630 -0.2893  0.0148
  543MOL0     C74823   5.453   2.213   4.618 -0.9422  0.0756  0.3922
  543MOL0     C74824   5.410   2.101   4.540 -0.5108  0.2976  0.2759
  543MOL0     C74825   5.588   2.226   4.669  0.2470 -0.6625  0.1810
  543MOL0     C74826   5.702   2.141   4.641  0.3737 -0.2346  0.2384
  543MOL0     O74827   5.818   2.169   4.718  0.4368  0.1775 -0.1732
  543MOL0     C74828   5.936   2.107   4.676  0.2467 -0.2157  0.4013
  543MOL0     C74829   5.991   2.009   4.758  0.3679 -0.3206 -0.0139
  543MOL0     C74830   6.111   1.947   4.734  0.2205  0.4854  0.0512
  543MOL0     C74831   6.179   1.973   4.613 -0.5470 -0.4075 -0.5829
  543MOL0     O74832   6.298   1.920   4.572 -0.1703  0.0038  0.1631
  543MOL0     C74833   6.396   1.902   4.683 -1.0791  1.2139 -0.3569
  543MOL0     C74834   6.447   2.042   4.716 -0.4245  0.1155 -0.0521
  543MOL0     C74835   6.588   2.044   4.769  0.0159  0.2370 -0.1188
  543MOL0     C74836   6.696   2.052   4.663  0.0503  1.0819 -0.5917
  543MOL0     C74837   6.827   2.007   4.715 -0.4565  0.1873 -0.0527
  543MOL0     C74838   6.926   2.014   4.609  0.5206 -0.0604  0.7343
  543MOL0     C74839   7.060   1.955   4.651 -0.0413  0.7211  0.4572
  543MOL0     C74840   7.162   1.980   4.539  0.3435 -0.6946  0.9076
  543MOL0    Cl74841   7.325   1.917   4.584 -0.5055 -0.0788 -0.3096
  543MOL0     C74842   6.123   2.069   4.530 -0.0491 -0.6937  0.4234
  543MOL0     C74843   6.001   2.141   4.560  1.1544  0.7768  0.4600
  543MOL0     O74844   5.703   2.056   4.553 -0.3380 -0.3540  0.7035
  543MOL0     C74845   5.609   2.344   4.753 -0.3232 -0.1060  0.4591
  543MOL0     C74846   5.502   2.430   4.791  0.5045  0.0385  0.1272
  543MOL0     N74847   4.924   2.902   4.566 -0.3436 -0.5219 -0.6479
  543MOL0     N74848   4.826   2.969   4.517  0.1879  0.7295 -0.1701
  543MOL0     C74849   4.196   2.786   5.003  0.2164 -0.5291  0.6033
  543MOL0     C74850   4.078   2.739   4.960  0.3503 -0.5373  0.4321
  543MOL0     C74851   3.670   2.577   4.913 -0.5968  0.1806  0.0368
  543MOL0     C74852   3.624   2.665   4.811  0.3477 -0.3964 -0.8516
  543MOL0     C74853   3.524   2.629   4.718  0.0642 -0.5082  0.1366
  543MOL0     C74854   3.471   2.501   4.716 -1.0359  0.1018 -0.6330
  543MOL0     O74855   3.385   2.452   4.624  0.4051 -0.5151  0.6487
  543MOL0     C74856   3.362   2.529   4.503  1.4095  1.3904 -0.4793
  543MOL0     C74857   3.479   2.534   4.408  0.2898 -0.5968  0.2648
  543MOL0     C74858   3.439   2.617   4.283 -0.9821 -0.1344 -0.3013
  543MOL0     C74859   3.532   2.572   4.168  0.6530 -0.4442  0.0566
  543MOL0     C74860   3.672   2.588   4.199 -0.2450 -0.0902  0.0156
  543MOL0     C74861   3.793   2.593   4.227 -0.1567 -0.5873 -0.3165
  543MOL0     C74862   3.519   2.414   4.813  0.6758  0.8292 -0.3709
  543MOL0     C74863   3.611   2.445   4.911 -0.0166  0.1159  0.1221
  543MOL0     C74864   3.635   2.330   5.007  0.1011  0.9783 -0.7422
  543MOL0     H74865   3.879   2.852   5.205  0.3724 -1.2302  0.6819
  543MOL0     H74866   4.088   2.942   5.286  0.6148 -0.8772  0.4283
  543MOL0     H74867   4.452   3.018   5.269  0.7651  1.0672 -1.9790
  543MOL0     H74868   4.283   3.017   5.313 -0.0940  2.3446  0.8552
  543MOL0     H74869   4.250   3.176   5.115  1.6538 -0.5607 -3.0381
  543MOL0     H74870   4.347   3.242   5.254  1.3456  0.5853 -0.8503
  543MOL0     H74871   4.473   3.302   5.072 -1.3573 -0.0136  0.3117
  543MOL0     H74872   4.541   3.137   5.101  1.3295  2.2639 -1.0180
  543MOL0     H74873   4.401   3.045   4.915  0.4808 -0.0418 -1.9121
  543MOL0     H74874   4.306   3.195   4.905  0.5692  3.0308  0.8520
  543MOL0     H74875   4.592   3.238   4.851 -0.5840  2.8225  0.5043
  543MOL0     H74876   4.438   3.289   4.769 -1.5252 -1.4371  0.4446
  543MOL0     H74877   4.567   3.022   4.725  0.2914  1.5636  1.0052
  543MOL0     H74878   4.398   3.078   4.683 -2.5239  4.9104 -0.0887
  543MOL0     H74879   4.525   3.255   4.550  2.0334  1.0587 -0.8197
  543MOL0     H74880   4.548   3.096   4.486 -0.0873  2.7763 -1.1106
  543MOL0     H74881   4.766   3.260   4.534  0.2674  1.4619  1.0423
  543MOL0     H74882   4.727   3.242   4.699  4.6721  0.8968  0.5749
  543MOL0     H74883   4.931   3.138   4.783  0.3894 -1.6426  1.4825
  543MOL0     H74884   5.084   2.900   4.846 -0.6245  1.4094  0.1765
  543MOL0     H74885   5.183   3.004   4.750 -1.9056  0.6483  0.9124
  543MOL0     H74886   5.220   2.808   4.589 -0.5636  0.9414 -0.4931
  543MOL0     H74887   5.275   2.779   4.749 -0.7499  1.1535  0.7975
  543MOL0     H74888   5.066   2.640   4.812 -1.3354  0.6462 -0.0290
  543MOL0     H74889   5.008   2.659   4.641  0.9229 -2.2834 -1.1542
  543MOL0     H74890   5.108   2.452   4.634  0.3182  0.4519 -1.7829
  543MOL0     H74891   5.228   2.552   4.574  2.4775 -2.5083  0.6389
  543MOL0     H74892   5.250   2.298   4.621 -0.6055  2.2524  0.1620
  543MOL0     H74893   5.476   2.086   4.453  1.1161  1.1474  1.3135
  543MOL0     H74894   5.312   2.125   4.499  0.2704  1.0283 -1.2773
  543MOL0     H74895   5.394   2.009   4.596 -0.4305  0.4665  0.5798
  543MOL0     H74896   5.929   1.979   4.842 -0.9788 -0.5728 -1.0570
  543MOL0     H74897   6.142   1.881   4.815  2.6633  1.8375  0.3083
  543MOL0     H74898   6.366   1.855   4.777  3.0118 -1.0739  0.0285
  543MOL0     H74899   6.480   1.842   4.648  1.2331  1.2075  4.4236
  543MOL0     H74900   6.444   2.107   4.628 -3.2489  1.4647  0.9061
  543MOL0     H74901   6.376   2.100   4.776  1.5108  0.9524  1.5376
  543MOL0     H74902   6.605   1.964   4.842 -1.8507  2.4541  2.9612
  543MOL0     H74903   6.594   2.122   4.845  0.6710 -2.1624  2.4718
  543MOL0     H74904   6.706   2.154   4.623  3.9887  1.5082  1.0227
  543MOL0     H74905   6.669   1.990   4.577 -1.4649  0.3589  0.3701
  543MOL0     H74906   6.867   2.077   4.789  1.2498  0.4886 -1.2000
  543MOL0     H74907   6.832   1.920   4.781  1.9050  0.3416  0.0340
  543MOL0     H74908   6.938   2.119   4.582  2.7578 -0.9773 -2.4839
  543MOL0     H74909   6.888   1.971   4.516  0.6462 -0.9952  1.1052
  543MOL0     H74910   7.047   1.847   4.664  0.2903  0.4587 -1.1508
  543MOL0     H74911   7.096   2.005   4.741  1.7493 -1.3298  0.9779
  543MOL0     H74912   7.170   2.088   4.521  0.8859 -0.9291 -0.4254
  543MOL0     H74913   7.136   1.940   4.440  0.0099  1.2821  0.1545
  543MOL0     H74914   6.191   2.115   4.459 -1.3722  0.8047  0.0395
  543MOL0     H74915   5.966   2.220   4.495 -0.0804  0.4832  0.7467
  543MOL0     H74916   5.710   2.369   4.782  0.6886 -3.3480  0.0824
  543MOL0     H74917   5.528   2.504   4.866 -2.6299  1.7831 -0.3176
  543MOL0     H74918   4.287   2.766   4.947 -0.3419  1.2601 -1.0395
  543MOL0     H74919   4.064   2.663   4.883  1.5950 -1.3227  0.9505
  543MOL0     H74920   3.666   2.765   4.806 -0.1862 -0.1330 -0.2572
  543MOL0     H74921   3.492   2.711   4.655  1.3787  1.6680  2.1078
  543MOL0     H74922   3.282   2.473   4.455  2.0561 -1.2784  1.3449
  543MOL0     H74923   3.330   2.630   4.529 -2.7048 -0.4443  2.6192
  543MOL0     H74924   3.504   2.432   4.377 -0.3002 -0.3968 -0.9272
  543MOL0     H74925   3.559   2.582   4.465 -0.5294  0.9343  0.1889
  543MOL0     H74926   3.335   2.599   4.252 -1.1432  3.4848 -2.3041
  543MOL0     H74927   3.460   2.723   4.295 -1.1110  0.2228 -2.7396
  543MOL0     H74928   3.504   2.647   4.093 -0.3870  0.7092  1.5380
  543MOL0     H74929   3.508   2.473   4.130 -0.8212  0.5982 -1.9172
  543MOL0     H74930   3.895   2.602   4.259 -0.7866  1.3037  1.3772
  543MOL0     H74931   3.477   2.314   4.806  0.0732  1.1113 -0.9450
  543MOL0     H74932   3.628   2.359   5.112  3.8646 -0.6992  0.1494
  543MOL0     H74933   3.560   2.253   4.989 -0.3161  1.5144 -1.3360
  543MOL0     H74934   3.736   2.288   5.001 -0.0900  0.7265 -3.0963
  544MOL0     O74935  10.749   2.947   9.693  0.1127 -0.3561  0.1359
  544MOL0     C74936  10.780   2.924   9.812 -0.6299 -0.5548 -0.3510
  544MOL0     O74937  10.753   3.000   9.922  0.1139 -0.2007 -0.7152
  544MOL0     C74938  10.672   3.112   9.897 -0.0762  0.2262  0.0521
  544MOL0     C74939  10.722   3.237   9.930 -0.4095  0.8558 -0.0054
  544MOL0     C74940  10.636   3.355   9.930 -0.0759  0.4328  0.1588
  544MOL0     C74941  10.503   3.344   9.882 -0.0117 -0.0392  0.1146
  544MOL0     O74942  10.416   3.455   9.868  0.1924  0.2049  0.1442
  544MOL0     C74943  10.282   3.431   9.830  0.3368 -0.5608  0.0673
  544MOL0     C74944  10.203   3.559   9.830 -0.2816  0.5393 -0.7936
  544MOL0     C74945  10.048   3.531   9.836 -0.2187  0.1956 -0.1458
  544MOL0     C74946   9.976   3.663   9.881  1.1007  0.2746  0.2360
  544MOL0     C74947   9.907   3.734   9.759 -0.0739  0.1592  1.5449
  544MOL0     C74948  10.009   3.798   9.668 -0.6236  1.9149 -0.3788
  544MOL0     C74949   9.953   3.900   9.568 -0.6278 -0.6065  0.0684
  544MOL0     C74950   9.832   3.857   9.498 -0.0455 -0.8782  0.0714
  544MOL0     N74951   9.852   3.738   9.411  0.6688 -0.5545 -0.0085
  544MOL0     C74952   9.864   3.744   9.268  0.5957  0.9267 -0.5495
  544MOL0     C74953   9.878   3.615   9.233  1.1772 -0.1737  0.6189
  544MOL0     C74954   9.898   3.573   9.086  0.1592  0.8082  0.5620
  544MOL0     C74955  10.038   3.528   9.037  0.7483  0.0671 -0.1356
  544MOL0     C74956  10.091   3.412   9.119 -0.4356 -0.2870  0.1120
  544MOL0     C74957  10.234   3.373   9.085 -0.4323  0.6322  0.4772
  544MOL0     O74958  10.323   3.470   9.146  0.3671  0.1250 -0.7223
  544MOL0     C74959  10.454   3.479   9.105 -0.3006  0.4840 -0.2072
  544MOL0     C74960  10.531   3.597   9.137  1.3946  0.4973 -0.7583
  544MOL0     C74961  10.664   3.610   9.102  0.2890 -0.0999 -0.7354
  544MOL0     C74962  10.715   3.756   9.106  0.2369 -0.2910 -0.0146
  544MOL0     C74963  10.737   3.495   9.059  0.1661  0.1162  0.0660
  544MOL0     C74964  10.888   3.494   9.039 -0.1928 -0.4420 -0.0955
  544MOL0     O74965  10.938   3.384   8.980 -0.1229 -0.0960  0.2698
  544MOL0     C74966  11.071   3.373   8.961 -0.5249  1.1463 -0.2544
  544MOL0     C74967  11.173   3.392   9.056  0.2161  0.1600  0.4732
  544MOL0     C74968  11.305   3.373   9.014  0.4411  0.8524 -0.8646
  544MOL0     C74969  11.334   3.342   8.882 -0.6040 -0.2435 -0.5705
  544MOL0     O74970  11.468   3.339   8.851 -0.1972 -1.1471  0.0614
  544MOL0     C74971  11.510   3.318   8.718 -0.3837 -1.5140 -1.0117
  544MOL0     C74972  11.661   3.318   8.721 -0.1259  0.1590  0.1871
  544MOL0     C74973  11.720   3.455   8.750 -0.6504  0.4144  0.2444
  544MOL0     C74974  11.865   3.434   8.785 -0.5111 -0.7552  0.2772
  544MOL0     C74975  11.932   3.561   8.821 -1.1092 -0.6713 -0.0383
  544MOL0     C74976  12.079   3.545   8.854 -0.1151 -0.4300 -1.0145
  544MOL0     C74977  12.142   3.680   8.901  0.1372 -0.2079 -0.7250
  544MOL0     C74978  12.280   3.640   8.969 -0.3153  0.4740 -0.4839
  544MOL0    Cl74979  12.357   3.794   9.016  0.4866 -0.0894 -0.8729
  544MOL0     C74980  11.238   3.316   8.796  0.4161 -0.2634 -0.5963
  544MOL0     C74981  11.109   3.322   8.837 -0.0389 -0.6041  1.3621
  544MOL0     O74982  10.952   3.597   9.086  0.0947  0.1805 -0.0500
  544MOL0     C74983  10.663   3.377   9.035 -0.5252 -0.5295 -0.1312
  544MOL0     C74984  10.527   3.368   9.059 -0.8918  0.5821  0.2047
  544MOL0     N74985   9.845   3.534   9.342  0.0807  0.8863 -0.4262
  544MOL0     N74986   9.822   3.607   9.446 -0.4831 -0.4788 -0.0363
  544MOL0     C74987  10.458   3.214   9.842  0.1140  0.5579 -0.5282
  544MOL0     C74988  10.541   3.096   9.853 -0.0393  0.2651 -0.0484
  544MOL0     C74989  10.838   2.795   9.833 -0.3295 -0.5046 -0.3154
  544MOL0     C74990  10.789   2.709   9.929  0.1151 -0.7347 -0.4301
  544MOL0     C74991  10.860   2.593   9.962 -0.3192  0.0736  0.2508
  544MOL0     C74992  10.969   2.547   9.891 -1.1967 -0.3450 -0.9087
  544MOL0     O74993  11.029   2.425   9.923  1.1522  0.3139  0.9066
  544MOL0     C74994  11.069   2.419  10.065  0.1012  0.2799  0.5080
  544MOL0     C74995  11.198   2.491  10.087  0.2860 -0.6665  0.8515
  544MOL0     C74996  11.316   2.444   9.995 -0.0142  0.5377 -0.6082
  544MOL0     C74997  11.447   2.503  10.046 -0.0976 -0.3437  0.4642
  544MOL0     C74998  11.492   2.449  10.178 -0.9496 -0.5478  0.4424
  544MOL0     C74999  11.537   2.398  10.275  0.3368 -0.5006 -0.7881
  544MOL0     C75000  11.026   2.631   9.791  0.2767 -0.6019  0.5363
  544MOL0     C75001  10.957   2.757   9.762 -0.3363 -0.5296  0.3297
  544MOL0     C75002  11.024   2.841   9.651 -0.5583 -0.3981 -0.4347
  544MOL0     H75003  10.827   3.242   9.958 -0.4696  2.1544  0.0628
  544MOL0     H75004  10.667   3.453   9.966 -1.7758  1.7962 -1.8716
  544MOL0     H75005  10.236   3.365   9.904 -2.0508 -0.1301 -0.9374
  544MOL0     H75006  10.272   3.386   9.730 -1.5616 -0.9183  0.3922
  544MOL0     H75007  10.224   3.617   9.921 -0.0549 -0.9940  0.1596
  544MOL0     H75008  10.232   3.622   9.746  3.1477 -1.0393 -0.9664
  544MOL0     H75009  10.012   3.476   9.749 -0.1092 -1.0615  0.5731
  544MOL0     H75010  10.033   3.461   9.919  0.8403 -0.9043 -0.8510
  544MOL0     H75011   9.898   3.640   9.954  1.8648 -1.3062  0.6107
  544MOL0     H75012  10.047   3.735   9.922  1.5091 -0.2220  0.4148
  544MOL0     H75013   9.835   3.810   9.793  0.7699  2.0245 -0.5512
  544MOL0     H75014   9.853   3.658   9.703  0.2227  0.7585  0.4061
  544MOL0     H75015  10.084   3.850   9.729 -2.1614  0.7293  2.7522
  544MOL0     H75016  10.057   3.717   9.613 -1.9996  1.1208 -0.4684
  544MOL0     H75017  10.029   3.912   9.491  0.7720 -1.9341  1.1767
  544MOL0     H75018   9.919   3.995   9.608 -0.3664  0.3422 -1.8547
  544MOL0     H75019   9.746   3.844   9.565 -1.3759 -2.6400 -1.8610
  544MOL0     H75020   9.818   3.942   9.430  1.0534  0.7676  1.8074
  544MOL0     H75021   9.881   3.823   9.194  1.2820  0.2121 -1.1754
  544MOL0     H75022   9.888   3.656   9.017  0.8387  0.0190 -0.5171
  544MOL0     H75023   9.816   3.507   9.057  0.0356  1.4377 -0.5626
  544MOL0     H75024  10.041   3.506   8.930 -1.4601  0.6730 -0.3737
  544MOL0     H75025  10.101   3.616   9.050 -0.7428  0.8250  3.0670
  544MOL0     H75026  10.081   3.438   9.225 -1.8408  0.2207 -0.1170
  544MOL0     H75027  10.017   3.332   9.103 -2.0015  1.3201 -1.0365
  544MOL0     H75028  10.260   3.276   9.131  0.5880  1.3559  1.4893
  544MOL0     H75029  10.256   3.369   8.978  1.1751  1.3735  0.7447
  544MOL0     H75030  10.488   3.682   9.189  1.2434 -0.8020  1.3921
  544MOL0     H75031  10.739   3.784   9.003 -0.3753  0.5774  0.0702
  544MOL0     H75032  10.805   3.761   9.168 -1.1981 -0.7821  2.1906
  544MOL0     H75033  10.644   3.819   9.159  0.2371  0.0270 -0.3846
  544MOL0     H75034  11.156   3.414   9.161  1.0073 -0.4544  0.7283
  544MOL0     H75035  11.382   3.383   9.089  1.1850 -1.1236 -1.2804
  544MOL0     H75036  11.490   3.214   8.690 -3.9296 -1.7029  1.4837
  544MOL0     H75037  11.464   3.394   8.654  0.3856  0.5643  0.7850
  544MOL0     H75038  11.686   3.236   8.789 -3.0954 -1.8032 -0.9126
  544MOL0     H75039  11.706   3.280   8.628  1.7598 -0.9926  1.4879
  544MOL0     H75040  11.665   3.504   8.830 -0.9460  1.7903 -0.7576
  544MOL0     H75041  11.708   3.520   8.663 -0.6212  0.5861  0.3704
  544MOL0     H75042  11.909   3.391   8.694 -2.4638 -1.1113 -0.5617
  544MOL0     H75043  11.878   3.363   8.867 -0.2217 -0.4351  0.5102
  544MOL0     H75044  11.930   3.632   8.738  3.4820 -0.4038 -0.1898
  544MOL0     H75045  11.887   3.615   8.905  2.3687  1.4525  0.6919
  544MOL0     H75046  12.129   3.506   8.765  0.5960 -4.2897  0.8602
  544MOL0     H75047  12.084   3.469   8.933  2.5001  0.8017  0.1339
  544MOL0     H75048  12.066   3.722   8.967  1.0007 -0.2821  0.3403
  544MOL0     H75049  12.159   3.755   8.823  1.5785 -1.8431 -2.0754
  544MOL0     H75050  12.330   3.576   8.896 -1.4088 -0.8460 -0.1186
  544MOL0     H75051  12.262   3.575   9.054 -3.0868 -0.2567 -1.5201
  544MOL0     H75052  11.264   3.281   8.696  1.7720 -0.0654 -0.3309
  544MOL0     H75053  11.052   3.311   8.745  1.9260  2.4447 -0.4279
  544MOL0     H75054  10.714   3.294   8.987  1.9343  0.8366 -0.0499
  544MOL0     H75055  10.473   3.280   9.028  1.4613 -1.6827  2.0943
  544MOL0     H75056  10.355   3.201   9.810 -0.0112 -0.2269  0.1604
  544MOL0     H75057  10.506   2.996   9.830 -0.5126  0.1882  0.9563
  544MOL0     H75058  10.706   2.723   9.996  0.2094 -0.1274 -0.4335
  544MOL0     H75059  10.837   2.530  10.047 -2.8731 -0.4486 -0.7305
  544MOL0     H75060  10.988   2.438  10.136  0.1790  0.5363  0.5285
  544MOL0     H75061  11.091   2.314  10.085 -0.1876  0.2567  0.7173
  544MOL0     H75062  11.224   2.477  10.193  0.7856 -0.2319  0.7922
  544MOL0     H75063  11.188   2.599  10.074 -0.2317 -0.6985  0.9590
  544MOL0     H75064  11.323   2.336   9.979 -1.4210  0.7101 -2.7967
  544MOL0     H75065  11.289   2.502   9.906  1.5909  1.4337 -0.5522
  544MOL0     H75066  11.447   2.612  10.053  1.0951 -0.0002 -2.9581
  544MOL0     H75067  11.520   2.482   9.967 -0.4700 -0.2664  0.0986
  544MOL0     H75068  11.591   2.352  10.355  1.3170  1.3509 -0.3280
  544MOL0     H75069  11.112   2.603   9.732  0.7924 -1.1243  1.5228
  544MOL0     H75070  10.970   2.815   9.560 -2.0841  0.9437  0.0158
  544MOL0     H75071  11.006   2.944   9.684 -0.6864 -1.2521  2.5001
  544MOL0     H75072  11.130   2.818   9.646  0.4601  1.8100  4.6776
  545MOL0     O75073   0.080  10.928   2.754 -0.4812  0.3725  0.1757
  545MOL0     C75074   0.055  11.049   2.777  0.6959  0.7249 -0.0637
  545MOL0     O75075   0.137  11.130   2.854  0.6789  0.0927  1.0213
  545MOL0     C75076   0.268  11.091   2.867  0.0708  0.3398 -0.5365
  545MOL0     C75077   0.346  11.037   2.770  0.0253  0.1862 -0.2284
  545MOL0     C75078   0.471  10.983   2.810  0.1727  0.3420 -0.4707
  545MOL0     C75079   0.511  10.994   2.940 -0.5645 -0.4710 -0.6808
  545MOL0     O75080   0.637  10.953   2.956 -0.4820 -0.2914 -0.4199
  545MOL0     C75081   0.669  10.914   3.087 -0.5847  0.2925 -0.6233
  545MOL0     C75082   0.794  10.844   3.058  0.1095  0.0472  0.1172
  545MOL0     C75083   0.919  10.923   3.050  0.3316 -0.5988  0.2436
  545MOL0     C75084   1.045  10.858   3.000  0.6755  0.6187 -0.0346
  545MOL0     C75085   1.175  10.933   3.023  0.0013 -0.7320  0.7045
  545MOL0     C75086   1.202  11.064   2.944 -0.4891 -0.3487  0.3953
  545MOL0     C75087   1.199  11.036   2.785  0.0262  0.4544 -0.5468
  545MOL0     C75088   1.214  11.168   2.716 -0.6892  0.5314 -0.7692
  545MOL0     N75089   1.350  11.224   2.727  0.3076 -0.9602 -0.7415
  545MOL0     C75090   1.465  11.169   2.679  0.1963 -0.1022  0.1488
  545MOL0     C75091   1.555  11.255   2.740  0.4052  0.0964 -0.6270
  545MOL0     C75092   1.713  11.258   2.729  0.4813 -0.6027 -0.2676
  545MOL0     C75093   1.768  11.159   2.629 -0.4465  0.3315 -0.3128
  545MOL0     C75094   1.917  11.159   2.610  0.0981  0.1776 -0.6494
  545MOL0     C75095   1.969  11.290   2.551 -0.1319  0.6121  0.5617
  545MOL0     O75096   2.096  11.278   2.485  0.3951 -0.7317  0.4445
  545MOL0     C75097   2.169  11.391   2.482  0.1100  0.3031  0.5617
  545MOL0     C75098   2.123  11.520   2.461  0.0081 -0.9218  0.4024
  545MOL0     C75099   2.204  11.631   2.447 -0.1645  0.3192 -0.0661
  545MOL0     C75100   2.145  11.767   2.421  0.6491  0.5743  0.4620
  545MOL0     C75101   2.347  11.619   2.442  0.1089 -0.1941 -0.4630
  545MOL0     C75102   2.440  11.718   2.398  0.0239 -0.1519 -1.0737
  545MOL0     O75103   2.563  11.707   2.455  0.4955 -0.1875  0.0368
  545MOL0     C75104   2.653  11.814   2.434  0.8554  0.0523  0.2434
  545MOL0     C75105   2.785  11.776   2.391  0.7334 -0.9421  0.6349
  545MOL0     C75106   2.875  11.879   2.373 -0.7333  0.1311 -0.2681
  545MOL0     C75107   2.858  12.011   2.409 -0.1014 -0.6825 -0.9184
  545MOL0     O75108   2.958  12.098   2.374 -0.5574  0.1936 -0.1607
  545MOL0     C75109   3.026  12.166   2.481  0.1727  1.0178  0.2142
  545MOL0     C75110   3.149  12.094   2.515  0.4341  0.3531 -0.5711
  545MOL0     C75111   3.240  12.166   2.609 -0.4278  0.0496  0.5775
  545MOL0     C75112   3.298  12.296   2.556  0.3691  0.0657  0.0672
  545MOL0     C75113   3.432  12.313   2.618  0.0936 -0.2129 -0.8477
  545MOL0     C75114   3.489  12.459   2.596  0.5261  0.0996  0.5998
  545MOL0     C75115   3.536  12.467   2.454 -0.0993 -0.7165  0.5850
  545MOL0     C75116   3.644  12.562   2.423 -0.0034  1.4919  0.5902
  545MOL0    Cl75117   3.581  12.731   2.430  0.6908 -0.4189  0.2464
  545MOL0     C75118   2.736  12.043   2.468  0.0512  0.2985 -0.3600
  545MOL0     C75119   2.628  11.950   2.477  0.4766  0.1528 -0.4198
  545MOL0     O75120   2.412  11.802   2.309  0.3697  0.6555 -0.4183
  545MOL0     C75121   2.396  11.492   2.470  0.5877 -0.4329 -0.5093
  545MOL0     C75122   2.307  11.384   2.490 -0.4473  0.3410  0.3319
  545MOL0     N75123   1.492  11.356   2.811  0.1201  0.6275  0.6769
  545MOL0     N75124   1.366  11.329   2.811  0.0586  0.0595  0.4017
  545MOL0     C75125   0.434  11.060   3.033 -1.0724 -0.3682  0.6663
  545MOL0     C75126   0.314  11.119   2.993 -0.2201 -0.4449 -0.5036
  545MOL0     C75127  -0.077  11.099   2.746 -0.0497 -0.1813 -0.2985
  545MOL0     C75128  -0.132  11.174   2.854  0.6984  0.0400 -0.7041
  545MOL0     C75129  -0.260  11.221   2.846  0.0734 -0.3454  0.7609
  545MOL0     C75130  -0.331  11.223   2.724 -0.6056  0.1167  1.4709
  545MOL0     O75131  -0.447  11.290   2.718  0.5354 -0.0592  0.3634
  545MOL0     C75132  -0.520  11.295   2.594  0.4715 -0.4226  0.3122
  545MOL0     C75133  -0.631  11.393   2.619  0.7522 -0.6448 -0.1938
  545MOL0     C75134  -0.735  11.379   2.504 -0.5703  1.0356  0.0527
  545MOL0     C75135  -0.847  11.483   2.537  0.2256 -0.1608  0.7279
  545MOL0     C75136  -0.929  11.442   2.647  0.3740 -0.0793 -0.5165
  545MOL0     C75137  -1.000  11.413   2.741  0.0231 -0.8214  0.1065
  545MOL0     C75138  -0.280  11.142   2.613  0.2551  0.0310 -0.7084
  545MOL0     C75139  -0.154  11.080   2.628 -0.1112 -0.9716  0.4397
  545MOL0     C75140  -0.092  11.007   2.518 -0.1975 -0.1321 -0.4246
  545MOL0     H75141   0.293  11.035   2.676 -0.5597  2.5661 -0.0294
  545MOL0     H75142   0.532  10.921   2.746  1.3156 -0.1552  1.0492
  545MOL0     H75143   0.597  10.841   3.125 -1.5741  0.3844 -2.2231
  545MOL0     H75144   0.677  10.995   3.160  1.1575 -1.7056  1.5361
  545MOL0     H75145   0.814  10.768   3.134  2.0247  0.1154 -0.2579
  545MOL0     H75146   0.781  10.788   2.965 -3.8496  0.6866  0.1283
  545MOL0     H75147   0.903  11.001   2.975 -0.7051 -2.8604 -2.0203
  545MOL0     H75148   0.940  10.971   3.146  1.8589  0.8210 -0.7379
  545MOL0     H75149   1.049  10.763   3.054 -2.8668  1.1660  1.4950
  545MOL0     H75150   1.032  10.820   2.898 -1.0108 -0.7090  0.6409
  545MOL0     H75151   1.255  10.864   2.992  0.0932 -0.7946  1.0706
  545MOL0     H75152   1.185  10.958   3.129  2.0214 -0.4944  0.5128
  545MOL0     H75153   1.121  11.136   2.962 -0.0482  0.1936  0.2318
  545MOL0     H75154   1.296  11.111   2.973 -0.3052 -0.2929 -0.2785
  545MOL0     H75155   1.099  11.003   2.755 -0.2707  3.8048 -3.9922
  545MOL0     H75156   1.269  10.960   2.750 -0.8390 -0.8661  0.4641
  545MOL0     H75157   1.202  11.164   2.608  2.8363  1.0098 -1.3070
  545MOL0     H75158   1.135  11.232   2.755 -2.4229 -3.0142  2.2325
  545MOL0     H75159   1.481  11.084   2.614  0.2365 -1.2352  1.6046
  545MOL0     H75160   1.768  11.245   2.823 -2.0012  1.9287  1.7343
  545MOL0     H75161   1.736  11.358   2.692  1.5428 -1.1314 -1.0710
  545MOL0     H75162   1.745  11.062   2.675  0.1155  0.2249 -0.2540
  545MOL0     H75163   1.717  11.165   2.533 -1.1863  2.7999  0.1634
  545MOL0     H75164   1.971  11.126   2.700  0.6613 -2.1362 -1.7585
  545MOL0     H75165   1.932  11.076   2.541  2.6467  0.7267 -0.8262
  545MOL0     H75166   1.900  11.315   2.470 -0.9591 -2.1992  0.3070
  545MOL0     H75167   1.965  11.363   2.633  0.0193  0.3741  0.7801
  545MOL0     H75168   2.017  11.524   2.438  0.5135 -1.7687 -2.4952
  545MOL0     H75169   2.210  11.854   2.436  2.4131 -0.7969  1.1380
  545MOL0     H75170   2.073  11.781   2.503 -3.6788  0.8257 -3.0049
  545MOL0     H75171   2.094  11.772   2.325 -1.5880 -0.0218  1.5484
  545MOL0     H75172   2.798  11.677   2.347  0.7427  0.1833 -2.1169
  545MOL0     H75173   2.976  11.855   2.341 -0.3309  1.6320 -0.2042
  545MOL0     H75174   3.056  12.268   2.454  0.1374  1.5276  1.9556
  545MOL0     H75175   2.962  12.179   2.569  2.7993 -0.8077  2.5767
  545MOL0     H75176   3.113  11.999   2.555 -0.0839  0.7321 -0.1307
  545MOL0     H75177   3.202  12.064   2.424 -0.2948 -0.4429 -0.7427
  545MOL0     H75178   3.325  12.103   2.640 -0.2667 -0.0987 -0.1417
  545MOL0     H75179   3.189  12.184   2.704 -0.2918 -0.0673  0.6753
  545MOL0     H75180   3.227  12.378   2.568 -1.3796 -1.0322 -2.1517
  545MOL0     H75181   3.316  12.288   2.449  0.1075  0.9088 -0.0461
  545MOL0     H75182   3.429  12.298   2.726  2.4064  0.5957 -0.6129
  545MOL0     H75183   3.512  12.247   2.585  0.7184  0.0837  0.0275
  545MOL0     H75184   3.574  12.475   2.663  0.6965  0.8129  0.2285
  545MOL0     H75185   3.424  12.545   2.615  2.5957  1.8668  0.0498
  545MOL0     H75186   3.452  12.485   2.387  1.7522 -0.1537 -1.7103
  545MOL0     H75187   3.580  12.371   2.424 -0.6403 -0.0956 -2.4762
  545MOL0     H75188   3.678  12.539   2.322  1.2078  2.7488  0.6781
  545MOL0     H75189   3.726  12.540   2.492 -0.7889  1.8121  1.6601
  545MOL0     H75190   2.725  12.146   2.501 -1.0557  0.4622 -1.1998
  545MOL0     H75191   2.526  11.974   2.505  0.9066  0.3480  1.0817
  545MOL0     H75192   2.503  11.478   2.485  0.3436  1.0878  4.3492
  545MOL0     H75193   2.348  11.288   2.519  1.2709  0.8451 -0.3210
  545MOL0     H75194   0.468  11.080   3.134  2.1860  1.7387 -0.6958
  545MOL0     H75195   0.249  11.173   3.061 -0.7748 -0.2126 -1.2097
  545MOL0     H75196  -0.074  11.177   2.946  0.0148  2.1830 -0.2873
  545MOL0     H75197  -0.316  11.265   2.927 -1.7488 -1.7091  0.3206
  545MOL0     H75198  -0.454  11.327   2.513  2.4068 -3.6031  0.4595
  545MOL0     H75199  -0.556  11.196   2.565  0.0816  0.5482 -2.9384
  545MOL0     H75200  -0.593  11.494   2.630 -1.8223  0.2671  1.1662
  545MOL0     H75201  -0.683  11.366   2.712 -0.1777 -1.7653 -1.0000
  545MOL0     H75202  -0.696  11.400   2.404 -1.0069  4.0706  0.4183
  545MOL0     H75203  -0.781  11.281   2.496 -1.1666  1.4209 -1.5563
  545MOL0     H75204  -0.910  11.502   2.449 -0.7184 -1.2367  1.1529
  545MOL0     H75205  -0.809  11.582   2.565  1.3181 -0.4522  0.3386
  545MOL0     H75206  -1.077  11.380   2.807 -2.4667 -0.2255 -2.3035
  545MOL0     H75207  -0.336  11.123   2.522 -1.2238 -1.7946  0.5362
  545MOL0     H75208  -0.074  10.904   2.550 -0.0645  0.6255  2.1399
  545MOL0     H75209  -0.156  11.005   2.430  1.1592  1.0036 -1.4807
  545MOL0     H75210   0.008  11.037   2.487 -1.2075  1.1154 -2.7452
  546MOL0     O75211   3.194  11.262   9.517  0.5082 -0.4143  0.7048
  546MOL0     C75212   3.153  11.353   9.447  0.1067  0.4535  0.2280
  546MOL0     O75213   3.240  11.448   9.388 -0.6508 -0.9096 -0.0307
  546MOL0     C75214   3.372  11.457   9.419 -0.3984  0.6823  0.5364
  546MOL0     C75215   3.464  11.378   9.352 -0.2848 -0.1866  0.2056
  546MOL0     C75216   3.599  11.390   9.383  0.9217 -0.2432 -0.1098
  546MOL0     C75217   3.640  11.477   9.475 -0.0210 -0.0156 -0.1263
  546MOL0     O75218   3.768  11.503   9.511  0.1442 -0.2918  0.0819
  546MOL0     C75219   3.843  11.606   9.437 -0.2866 -0.5565  0.4000
  546MOL0     C75220   3.966  11.648   9.523 -0.5644 -0.6262  1.2847
  546MOL0     C75221   3.948  11.682   9.668 -0.4252 -0.0179  0.6635
  546MOL0     C75222   4.093  11.717   9.722  0.2762 -0.9208 -0.3163
  546MOL0     C75223   4.112  11.719   9.876 -0.0308  0.5759 -0.6540
  546MOL0     C75224   4.114  11.575   9.942 -0.0242  0.2090  0.4222
  546MOL0     C75225   4.142  11.580  10.095  0.4912  0.0095  0.3123
  546MOL0     C75226   4.135  11.444  10.154 -0.5305  0.0455 -0.6820
  546MOL0     N75227   4.251  11.424  10.244  0.1586  0.4200 -0.0463
  546MOL0     C75228   4.281  11.498  10.354 -0.4801 -0.3733  0.0630
  546MOL0     C75229   4.410  11.483  10.378 -0.1328 -0.3230 -1.3301
  546MOL0     C75230   4.491  11.557  10.487 -0.0408 -0.0188  0.4691
  546MOL0     C75231   4.595  11.459  10.545 -0.2576 -0.1664 -0.5368
  546MOL0     C75232   4.693  11.546  10.620  0.6666  0.6763 -0.2192
  546MOL0     C75233   4.801  11.455  10.681 -0.1675  0.3751 -0.4412
  546MOL0     O75234   4.899  11.418  10.582 -0.5287 -0.6548 -0.0999
  546MOL0     C75235   5.010  11.341  10.618 -0.2897 -0.0203 -0.4698
  546MOL0     C75236   5.130  11.363  10.561 -1.0537 -0.0126 -0.7531
  546MOL0     C75237   5.246  11.278  10.583 -0.5582 -0.4749  0.1359
  546MOL0     C75238   5.376  11.305  10.512 -0.3219  0.1490 -0.1673
  546MOL0     C75239   5.239  11.176  10.691  0.1662 -0.1713  0.1722
  546MOL0     C75240   5.346  11.079  10.738 -0.5420 -0.0043  0.1170
  546MOL0     O75241   5.312  11.007  10.850  0.1561 -0.1549  0.2599
  546MOL0     C75242   5.399  10.922  10.915 -0.1101  0.2541 -0.4043
  546MOL0     C75243   5.336  10.826  10.998  0.0223 -0.0716 -0.6998
  546MOL0     C75244   5.403  10.742  11.082 -0.7432 -0.4429 -0.9320
  546MOL0     C75245   5.542  10.750  11.074  0.7867 -0.0803 -0.0388
  546MOL0     O75246   5.601  10.664  11.164 -0.0369  0.3000 -0.0704
  546MOL0     C75247   5.730  10.694  11.206  0.1627  0.7215  0.6780
  546MOL0     C75248   5.799  10.586  11.300 -0.3233 -0.1011  0.3932
  546MOL0     C75249   5.931  10.536  11.239  0.2081 -0.1003 -0.2857
  546MOL0     C75250   6.047  10.632  11.260 -0.0135 -0.1550  0.3670
  546MOL0     C75251   6.188  10.563  11.235  0.5545  0.4755  0.2100
  546MOL0     C75252   6.305  10.656  11.196 -0.2936 -0.5531 -0.6065
  546MOL0     C75253   6.422  10.560  11.178  0.4066 -0.2453  0.5925
  546MOL0     C75254   6.549  10.637  11.142 -0.3846 -0.4992 -0.8833
  546MOL0    Cl75255   6.619  10.691  11.299 -0.3733 -0.0229  0.4545
  546MOL0     C75256   5.611  10.843  10.990 -0.2507 -0.0338  0.3259
  546MOL0     C75257   5.540  10.939  10.921  0.9239  0.7206 -0.3534
  546MOL0     O75258   5.457  11.086  10.687 -0.5359 -0.3084  0.4781
  546MOL0     C75259   5.116  11.174  10.761 -0.5650 -0.2379 -0.1205
  546MOL0     C75260   4.999  11.243  10.720 -0.2774  0.3790 -0.3405
  546MOL0     N75261   4.467  11.405  10.278  0.3719  0.1569  0.1117
  546MOL0     N75262   4.370  11.368  10.201 -0.2595  0.1820 -0.7073
  546MOL0     C75263   3.550  11.555   9.546  0.1375 -1.0860 -0.1819
  546MOL0     C75264   3.418  11.551   9.520  0.5405  0.5216 -0.6989
  546MOL0     C75265   3.006  11.368   9.446  0.4010 -0.2261 -0.3756
  546MOL0     C75266   2.958  11.496   9.410  0.0754  0.1800  0.3114
  546MOL0     C75267   2.818  11.515   9.413  0.2795  0.6700 -0.0384
  546MOL0     C75268   2.726  11.418   9.454 -0.0176  0.8345  0.4198
  546MOL0     O75269   2.592  11.454   9.458  0.7719 -0.1906  0.6808
  546MOL0     C75270   2.502  11.349   9.486  0.4783 -0.0477 -0.1811
  546MOL0     C75271   2.362  11.403   9.447 -0.2157  1.0023  0.1519
  546MOL0     C75272   2.269  11.286   9.416 -1.4593 -0.7216 -0.1951
  546MOL0     C75273   2.127  11.320   9.454  0.4123  0.3952  0.2288
  546MOL0     C75274   2.028  11.213   9.430 -0.6212  0.2448  0.2752
  546MOL0     C75275   1.942  11.131   9.409  0.1946  0.5307 -0.0840
  546MOL0     C75276   2.776  11.293   9.485  0.2286  0.2346 -0.2054
  546MOL0     C75277   2.915  11.264   9.473  0.5722  0.1975  0.4145
  546MOL0     C75278   2.956  11.122   9.485  0.4733 -0.2407 -0.0751
  546MOL0     H75279   3.431  11.313   9.272 -0.4343 -0.3993  0.4343
  546MOL0     H75280   3.658  11.321   9.324 -0.7186 -1.8225  0.0244
  546MOL0     H75281   3.778  11.691   9.414 -2.3018 -2.5431 -1.7562
  546MOL0     H75282   3.872  11.572   9.337  1.8151  2.8972 -0.3787
  546MOL0     H75283   4.034  11.562   9.524 -0.8933 -0.9055  0.5249
  546MOL0     H75284   4.018  11.725   9.465 -1.3465  0.7138  2.3081
  546MOL0     H75285   3.881  11.764   9.692  1.3720  2.2064 -1.4465
  546MOL0     H75286   3.915  11.589   9.716  0.7751 -0.0798  1.4310
  546MOL0     H75287   4.153  11.637   9.678  0.4726 -0.6591 -0.5316
  546MOL0     H75288   4.123  11.814   9.681 -1.3456  0.4138  1.4352
  546MOL0     H75289   4.031  11.763   9.934  0.7515 -0.6992  1.5509
  546MOL0     H75290   4.204  11.777   9.889  0.4951 -0.5195  0.7672
  546MOL0     H75291   4.019  11.523   9.925 -0.4972  0.9665  0.6794
  546MOL0     H75292   4.192  11.517   9.891  0.6507 -0.6237  2.3241
  546MOL0     H75293   4.075  11.647  10.149 -0.4895 -0.4437 -0.3186
  546MOL0     H75294   4.245  11.616  10.104  1.7437 -3.4991  1.7205
  546MOL0     H75295   4.041  11.428  10.207  1.0387  0.3672  2.4924
  546MOL0     H75296   4.137  11.373  10.071 -0.6852 -0.4231 -0.2938
  546MOL0     H75297   4.211  11.558  10.410  1.0847  2.1833 -0.5799
  546MOL0     H75298   4.429  11.583  10.573 -2.2295 -2.0784 -0.3569
  546MOL0     H75299   4.521  11.651  10.439 -2.1102  0.5267  0.1133
  546MOL0     H75300   4.545  11.388  10.612  2.7771 -0.5852  1.4502
  546MOL0     H75301   4.652  11.401  10.472 -0.9417  0.9131 -1.9765
  546MOL0     H75302   4.739  11.622  10.556  0.2389  0.4570 -0.7914
  546MOL0     H75303   4.648  11.603  10.702  0.2779  2.4090 -1.5808
  546MOL0     H75304   4.852  11.505  10.764  0.1763  0.6655 -0.8227
  546MOL0     H75305   4.755  11.366  10.724  0.7162  1.3670  2.9005
  546MOL0     H75306   5.141  11.449  10.496  2.5929  1.3801  1.3770
  546MOL0     H75307   5.365  11.395  10.451 -1.1112  2.8900  3.6551
  546MOL0     H75308   5.407  11.216  10.457  0.9901  0.3494  0.2087
  546MOL0     H75309   5.443  11.332  10.594  0.2449  1.6363 -1.0938
  546MOL0     H75310   5.227  10.821  10.998 -0.0353  0.5744 -2.9108
  546MOL0     H75311   5.352  10.673  11.149 -1.8457  0.9067 -0.3385
  546MOL0     H75312   5.792  10.705  11.116 -1.8281  1.2767 -0.6797
  546MOL0     H75313   5.722  10.786  11.264  0.0448  1.5251 -0.5639
  546MOL0     H75314   5.821  10.611  11.404  0.9097  2.9717 -0.4976
  546MOL0     H75315   5.726  10.504  11.305  0.8067 -1.1224  0.4251
  546MOL0     H75316   5.924  10.515  11.131  0.9700 -0.1398 -0.3342
  546MOL0     H75317   5.945  10.436  11.281 -2.2336  0.0709  1.1416
  546MOL0     H75318   6.036  10.659  11.365 -4.1408 -1.7866  0.5311
  546MOL0     H75319   6.032  10.711  11.186  0.8153 -0.3295 -0.0007
  546MOL0     H75320   6.210  10.501  11.323 -1.0194 -0.8037 -0.2465
  546MOL0     H75321   6.180  10.490  11.154  1.1493  0.7148 -0.0731
  546MOL0     H75322   6.334  10.722  11.279  0.1258 -1.4560 -0.0202
  546MOL0     H75323   6.286  10.717  11.107  1.3684  0.2530 -0.4427
  546MOL0     H75324   6.404  10.479  11.106 -1.5000 -0.1002  0.8712
  546MOL0     H75325   6.441  10.508  11.272 -1.0032 -0.5224  0.7416
  546MOL0     H75326   6.532  10.726  11.080  0.3688  0.5516  0.3633
  546MOL0     H75327   6.629  10.582  11.091  1.0888 -0.8829  1.7028
  546MOL0     H75328   5.718  10.837  10.972 -0.4484  0.6151 -1.1669
  546MOL0     H75329   5.586  11.024  10.873 -0.6846  3.4571  2.6051
  546MOL0     H75330   5.100  11.100  10.839  0.5296 -0.9929 -0.5927
  546MOL0     H75331   4.901  11.221  10.762 -0.3982  2.7474  0.8278
  546MOL0     H75332   3.588  11.618   9.626 -0.9897  1.4404 -1.5213
  546MOL0     H75333   3.355  11.606   9.588  0.8165  1.7637 -1.4192
  546MOL0     H75334   3.018  11.581   9.379 -1.1561 -0.0186 -3.0321
  546MOL0     H75335   2.760  11.605   9.401  0.9266  1.0956 -0.0187
  546MOL0     H75336   2.527  11.266   9.418  1.1201  1.6518 -2.1146
  546MOL0     H75337   2.493  11.313   9.589 -3.9864 -1.4223 -0.8077
  546MOL0     H75338   2.376  11.469   9.361 -1.6388  0.7963 -0.2670
  546MOL0     H75339   2.326  11.452   9.538 -2.3059 -1.4048  0.7429
  546MOL0     H75340   2.282  11.253   9.313 -0.6077  0.6182 -0.5323
  546MOL0     H75341   2.291  11.199   9.479  0.0725 -0.3775 -0.2220
  546MOL0     H75342   2.096  11.412   9.404  0.0018  1.1033  1.7331
  546MOL0     H75343   2.117  11.352   9.558  1.5748 -1.2226  0.8832
  546MOL0     H75344   1.862  11.061   9.410  1.2146 -0.7516 -1.9889
  546MOL0     H75345   2.719  11.207   9.518  1.1294  0.0504  0.9512
  546MOL0     H75346   3.039  11.101   9.416  0.0443  0.0664 -0.6957
  546MOL0     H75347   2.983  11.106   9.590  2.3331 -0.1269 -0.5021
  546MOL0     H75348   2.868  11.062   9.461  0.0111  0.2492  0.3692
  547MOL0     O75349   7.677  11.064   6.190  0.0953  0.2795 -0.0368
  547MOL0     C75350   7.678  11.109   6.303  0.4072 -0.4676  0.5995
  547MOL0     O75351   7.782  11.162   6.370 -0.5053  0.1692  1.0283
  547MOL0     C75352   7.902  11.178   6.309 -0.2397  0.6180 -0.0400
  547MOL0     C75353   7.957  11.071   6.233  0.8508  0.9142  0.0450
  547MOL0     C75354   8.084  11.078   6.171 -0.2075 -0.3181 -0.5002
  547MOL0     C75355   8.159  11.200   6.190 -0.6386 -0.5942 -0.9097
  547MOL0     O75356   8.273  11.232   6.119 -0.3668  0.8031  0.7463
  547MOL0     C75357   8.267  11.226   5.973  0.1996  0.9291  0.1433
  547MOL0     C75358   8.403  11.247   5.921  0.7168 -0.0739 -1.2943
  547MOL0     C75359   8.502  11.140   5.967  0.0773  0.4569 -0.5065
  547MOL0     C75360   8.644  11.143   5.906 -0.0463 -0.5507 -0.4021
  547MOL0     C75361   8.749  11.078   5.990 -0.1450 -0.3316 -0.0487
  547MOL0     C75362   8.886  11.115   5.940 -0.3375  0.0593 -0.2606
  547MOL0     C75363   8.927  11.073   5.793  0.2326 -1.2251 -0.4898
  547MOL0     C75364   8.946  10.921   5.781 -0.6816  0.6996 -0.0863
  547MOL0     N75365   9.089  10.883   5.800 -0.3556  0.0609  0.3723
  547MOL0     C75366   9.165  10.789   5.729  0.2543 -0.1817 -0.6074
  547MOL0     C75367   9.286  10.785   5.785 -0.0648  0.3848 -0.1618
  547MOL0     C75368   9.394  10.695   5.733 -0.1914  0.1936 -0.3864
  547MOL0     C75369   9.520  10.696   5.823  0.0514 -0.5656 -0.3026
  547MOL0     C75370   9.625  10.607   5.768  0.9364  0.2383 -0.2531
  547MOL0     C75371   9.766  10.644   5.816  0.4586  0.5267 -0.5064
  547MOL0     O75372   9.865  10.546   5.781 -0.7464 -0.9457  0.2489
  547MOL0     C75373  10.002  10.553   5.802  0.2113 -0.3616  0.5943
  547MOL0     C75374  10.066  10.654   5.875  0.2869  0.0717  0.2164
  547MOL0     C75375  10.198  10.652   5.908 -0.0119  0.4636  0.0689
  547MOL0     C75376  10.260  10.767   5.973  0.7056  0.2494  0.3999
  547MOL0     C75377  10.280  10.547   5.856  0.3699  1.2339 -0.1782
  547MOL0     C75378  10.428  10.531   5.894 -0.0025  0.2177  0.8610
  547MOL0     O75379  10.508  10.441   5.826  0.5143  0.3696  0.1954
  547MOL0     C75380  10.634  10.432   5.871  0.6161  0.4106 -0.7051
  547MOL0     C75381  10.734  10.512   5.817  0.4781  0.1942 -0.4501
  547MOL0     C75382  10.869  10.497   5.858 -0.4724 -0.5489  0.0457
  547MOL0     C75383  10.897  10.405   5.962 -0.7898 -0.6767 -0.6688
  547MOL0     O75384  11.020  10.363   6.000  0.0947 -0.8479  0.4384
  547MOL0     C75385  11.131  10.445   5.979  0.0720  0.2356  0.4314
  547MOL0     C75386  11.257  10.390   6.044 -0.1565 -0.2143 -0.7351
  547MOL0     C75387  11.382  10.430   5.969  0.0496  0.6781 -0.6368
  547MOL0     C75388  11.506  10.386   6.042 -0.5136 -0.0671  0.1768
  547MOL0     C75389  11.629  10.407   5.959  0.0378 -0.1647  0.0035
  547MOL0     C75390  11.748  10.336   6.015  0.0451  0.1342 -1.2070
  547MOL0     C75391  11.780  10.383   6.163 -0.6432  0.1705 -0.4944
  547MOL0     C75392  11.935  10.379   6.175 -0.0005 -0.9976 -0.8350
  547MOL0    Cl75393  12.016  10.226   6.138 -0.0011  0.1018 -0.2564
  547MOL0     C75394  10.794  10.346   6.033 -0.1495 -0.3104 -0.0123
  547MOL0     C75395  10.671  10.357   5.986 -0.0308  0.0626  0.0497
  547MOL0     O75396  10.464  10.594   5.988 -0.1927 -0.0244  0.2885
  547MOL0     C75397  10.220  10.455   5.772 -0.2539  0.3261  0.3877
  547MOL0     C75398  10.081  10.451   5.753  0.4486 -0.0507 -0.4608
  547MOL0     N75399   9.291  10.879   5.884 -0.6711 -0.7890 -0.3110
  547MOL0     N75400   9.173  10.930   5.893 -0.6637  0.5319 -0.5334
  547MOL0     C75401   8.100  11.301   6.271  0.3400  0.1218 -0.3202
  547MOL0     C75402   7.976  11.298   6.326 -0.0331  0.3944  0.2035
  547MOL0     C75403   7.548  11.129   6.381  0.0726  0.3914  0.1747
  547MOL0     C75404   7.539  11.216   6.494 -0.4435  0.4077 -0.4637
  547MOL0     C75405   7.422  11.242   6.566  0.5524  0.6440 -0.4838
  547MOL0     C75406   7.302  11.192   6.525  0.1842 -0.5790 -0.4270
  547MOL0     O75407   7.186  11.228   6.583  0.9025 -0.2667 -0.0919
  547MOL0     C75408   7.110  11.336   6.519  0.3457  0.1966 -0.1908
  547MOL0     C75409   6.972  11.303   6.565  0.6666 -0.1132  0.3883
  547MOL0     C75410   6.871  11.420   6.544  0.3426  0.4241  0.3356
  547MOL0     C75411   6.733  11.372   6.601 -0.6922 -0.2452  0.5652
  547MOL0     C75412   6.623  11.467   6.569  0.2736  0.5266  0.4101
  547MOL0     C75413   6.528  11.539   6.559  0.2039 -0.3373 -0.2253
  547MOL0     C75414   7.309  11.101   6.417 -0.1405  0.0614 -0.0251
  547MOL0     C75415   7.426  11.065   6.351  0.5652  0.6890 -0.0959
  547MOL0     C75416   7.409  10.964   6.251 -0.0399  0.2171 -0.1423
  547MOL0     H75417   7.918  10.970   6.226  2.8019  0.0840  0.6145
  547MOL0     H75418   8.114  10.999   6.103  1.8929  0.9788 -1.1685
  547MOL0     H75419   8.189  11.299   5.950 -1.9569 -1.0065  0.8677
  547MOL0     H75420   8.229  11.131   5.933 -1.5966  0.8060  1.9429
  547MOL0     H75421   8.404  11.269   5.814 -1.3467  2.2964 -0.9102
  547MOL0     H75422   8.440  11.344   5.956  0.4588 -0.6157  0.5491
  547MOL0     H75423   8.509  11.153   6.075 -0.4028 -0.2085 -0.3884
  547MOL0     H75424   8.455  11.041   5.963 -2.2554  1.3398  2.0335
  547MOL0     H75425   8.647  11.089   5.811  1.8106  0.4130 -0.9388
  547MOL0     H75426   8.659  11.251   5.896 -0.2006 -0.4364  0.5765
  547MOL0     H75427   8.745  10.970   5.977  0.0986 -0.9397  3.8771
  547MOL0     H75428   8.738  11.102   6.096  0.7167 -0.6577  0.1164
  547MOL0     H75429   8.900  11.223   5.949  1.3771 -0.2110  0.9415
  547MOL0     H75430   8.957  11.080   6.016 -0.4394  3.9831  1.8853
  547MOL0     H75431   9.019  11.126   5.765  1.0509 -1.6930  1.1541
  547MOL0     H75432   8.844  11.105   5.729  0.9337  1.7882 -0.0432
  547MOL0     H75433   8.886  10.871   5.858  0.0012  0.0262  0.0234
  547MOL0     H75434   8.907  10.896   5.682  0.5321 -1.1470 -0.1522
  547MOL0     H75435   9.149  10.749   5.630 -1.5101  0.5130 -0.6370
  547MOL0     H75436   9.414  10.707   5.627  0.1357  0.1398 -0.3304
  547MOL0     H75437   9.369  10.589   5.743 -2.2193  0.7175  0.8433
  547MOL0     H75438   9.556  10.799   5.825  1.6220 -0.7153 -5.4329
  547MOL0     H75439   9.491  10.665   5.923  0.3493  1.3767  0.4171
  547MOL0     H75440   9.605  10.502   5.795 -1.5933 -0.9588 -5.5411
  547MOL0     H75441   9.609  10.601   5.660  1.4823 -1.0561 -0.2902
  547MOL0     H75442   9.799  10.743   5.781 -0.0273  1.2413  0.9839
  547MOL0     H75443   9.768  10.647   5.925 -2.1205 -0.9357 -0.3505
  547MOL0     H75444   9.999  10.731   5.911  1.1040  0.6446  0.5318
  547MOL0     H75445  10.199  10.857   5.965 -0.7517 -0.4362  2.7782
  547MOL0     H75446  10.356  10.796   5.929  1.0917 -0.1635  0.9498
  547MOL0     H75447  10.278  10.749   6.079  0.3673  1.2696  0.6417
  547MOL0     H75448  10.698  10.574   5.735 -0.1283  0.7485  0.2213
  547MOL0     H75449  10.948  10.554   5.811  1.3298 -1.7224  1.4968
  547MOL0     H75450  11.151  10.422   5.874  1.1322 -1.8520  1.0422
  547MOL0     H75451  11.108  10.549   6.004 -3.5097 -0.9179  2.7308
  547MOL0     H75452  11.258  10.427   6.147  0.0265  0.2428 -0.8992
  547MOL0     H75453  11.256  10.281   6.045  0.9107 -0.2299  0.3424
  547MOL0     H75454  11.384  10.539   5.959 -2.4387  1.0124  1.3445
  547MOL0     H75455  11.375  10.387   5.868 -1.8721  0.0828 -0.2866
  547MOL0     H75456  11.494  10.281   6.068  1.2454 -0.1182  0.9113
  547MOL0     H75457  11.518  10.435   6.140  1.7854  0.7043 -0.4312
  547MOL0     H75458  11.622  10.364   5.859  0.0008 -3.3919  1.2617
  547MOL0     H75459  11.659  10.511   5.949  1.5202 -0.1184  3.4213
  547MOL0     H75460  11.833  10.355   5.948  2.0193 -2.8099  0.2558
  547MOL0     H75461  11.731  10.228   6.020  3.0564 -0.4384 -1.0738
  547MOL0     H75462  11.728  10.320   6.235  1.0391  0.2355  0.8605
  547MOL0     H75463  11.743  10.484   6.181  1.4991  0.8703  0.3072
  547MOL0     H75464  11.955  10.412   6.278  0.8117 -1.0149 -0.9786
  547MOL0     H75465  11.981  10.458   6.114  0.1169 -1.2517 -1.0747
  547MOL0     H75466  10.828  10.282   6.114  1.9492  0.2645 -0.3669
  547MOL0     H75467  10.588  10.299   6.025 -0.8576 -0.2327 -2.0160
  547MOL0     H75468  10.273  10.373   5.723 -2.0309  0.3794 -1.7450
  547MOL0     H75469  10.042  10.373   5.689  1.6016 -1.3013  0.2891
  547MOL0     H75470   8.163  11.388   6.284  0.8313 -0.4505  1.2494
  547MOL0     H75471   7.934  11.376   6.388 -3.6714 -2.2139  1.3744
  547MOL0     H75472   7.622  11.275   6.530 -0.3681  1.9214 -2.9135
  547MOL0     H75473   7.434  11.301   6.656 -0.6507 -1.0332  0.8577
  547MOL0     H75474   7.143  11.424   6.574 -1.4613  0.2319  0.9244
  547MOL0     H75475   7.131  11.355   6.413  1.1418 -0.1335 -0.1009
  547MOL0     H75476   6.979  11.270   6.670  1.1124  2.2221  1.1469
  547MOL0     H75477   6.942  11.214   6.508  2.8787 -1.8228  1.6905
  547MOL0     H75478   6.896  11.513   6.597 -1.1879  0.8747  0.3154
  547MOL0     H75479   6.871  11.453   6.440  3.2943  0.3612  0.2510
  547MOL0     H75480   6.745  11.357   6.709 -0.1127 -0.6133  0.4521
  547MOL0     H75481   6.713  11.270   6.567 -0.1693 -0.3739  0.6411
  547MOL0     H75482   6.445  11.606   6.565 -0.4785 -1.2361  0.5368
  547MOL0     H75483   7.218  11.051   6.384 -0.8948  0.8500  0.7902
  547MOL0     H75484   7.314  10.911   6.264 -0.5372  1.1399 -0.0009
  547MOL0     H75485   7.401  11.013   6.154 -0.3361 -3.4445 -2.1825
  547MOL0     H75486   7.495  10.896   6.253  2.3397  2.9511 -1.6933
  548MOL0     O75487   6.507   2.491   4.168 -0.5005 -0.0780 -0.4589
  548MOL0     C75488   6.444   2.578   4.228 -0.0759 -0.2670  0.4376
  548MOL0     O75489   6.472   2.708   4.239  0.4765 -0.5419 -0.7881
  548MOL0     C75490   6.594   2.750   4.201  0.0885 -0.1361 -0.1674
  548MOL0     C75491   6.655   2.721   4.082  1.1925 -0.6888  0.5401
  548MOL0     C75492   6.779   2.765   4.048  0.3608  0.3794 -0.0970
  548MOL0     C75493   6.854   2.845   4.134  0.5207 -0.4335  0.1847
  548MOL0     O75494   6.983   2.887   4.112 -0.1359 -0.5230  0.5790
  548MOL0     C75495   7.026   2.895   3.979  0.0228 -0.2439 -0.5596
  548MOL0     C75496   7.161   2.967   3.970  0.2633  0.0295  0.0802
  548MOL0     C75497   7.197   2.980   3.832 -0.0162 -0.6061 -0.2304
  548MOL0     C75498   7.342   3.019   3.815  0.2269 -0.1306  1.2072
  548MOL0     C75499   7.404   3.030   3.673  0.0976 -1.1258 -0.2289
  548MOL0     C75500   7.339   2.940   3.575 -0.5899  0.2827 -0.3164
  548MOL0     C75501   7.421   2.928   3.442 -0.6703 -0.4212  0.1016
  548MOL0     C75502   7.368   2.811   3.356  0.4232  0.2013  0.3098
  548MOL0     N75503   7.461   2.775   3.247  0.1592 -0.1482 -0.6920
  548MOL0     C75504   7.540   2.666   3.246  0.8466  0.4163 -0.2953
  548MOL0     C75505   7.622   2.677   3.143 -0.1613 -0.6803 -0.2179
  548MOL0     C75506   7.705   2.561   3.093 -0.7934 -0.0065 -0.1420
  548MOL0     C75507   7.855   2.582   3.136  0.3350  0.0055 -0.0329
  548MOL0     C75508   7.862   2.558   3.290 -0.6693  0.4195  0.3226
  548MOL0     C75509   7.990   2.611   3.345  0.1559 -0.1421  0.0458
  548MOL0     O75510   8.097   2.518   3.318  0.2753 -0.1102  0.1332
  548MOL0     C75511   8.212   2.539   3.395 -0.3301 -0.2317  0.2925
  548MOL0     C75512   8.306   2.431   3.406  0.5488 -0.6045 -0.1745
  548MOL0     C75513   8.415   2.446   3.492 -0.6806  0.6309 -1.4775
  548MOL0     C75514   8.491   2.320   3.518  0.5363 -0.1273  0.6963
  548MOL0     C75515   8.438   2.558   3.563 -0.3813 -0.2347  0.5253
  548MOL0     C75516   8.561   2.581   3.651  0.0756  0.3298  0.0573
  548MOL0     O75517   8.577   2.498   3.759 -0.0827  0.3663  0.3467
  548MOL0     C75518   8.692   2.504   3.833 -0.9244 -0.2590  0.0310
  548MOL0     C75519   8.679   2.478   3.972 -0.1041  0.6285 -0.2248
  548MOL0     C75520   8.791   2.478   4.052  0.1253 -0.5856  0.1569
  548MOL0     C75521   8.919   2.500   4.001 -0.1760  0.0336 -0.6664
  548MOL0     O75522   9.033   2.511   4.070 -0.3348  0.4606  0.5304
  548MOL0     C75523   9.055   2.420   4.177 -0.0639  0.6225 -0.4363
  548MOL0     C75524   9.198   2.389   4.220 -0.6197 -0.1136  0.6567
  548MOL0     C75525   9.264   2.494   4.299 -0.3826  0.4611  0.3273
  548MOL0     C75526   9.413   2.451   4.327  0.2280 -0.0727  0.0222
  548MOL0     C75527   9.497   2.540   4.416  0.2231 -0.2817 -0.2488
  548MOL0     C75528   9.521   2.681   4.351 -0.1724 -0.2778 -0.1339
  548MOL0     C75529   9.589   2.784   4.441 -0.0769  0.1793 -0.1071
  548MOL0     C75530   9.607   2.930   4.387 -0.8726  0.2961 -0.0584
  548MOL0    Cl75531   9.738   2.925   4.264 -0.3315 -0.0481  0.2433
  548MOL0     C75532   8.932   2.508   3.860  0.1740 -0.4234  0.6681
  548MOL0     C75533   8.818   2.513   3.775  0.4895  0.9000 -0.3063
  548MOL0     O75534   8.629   2.679   3.628 -0.1360 -0.8451 -0.4789
  548MOL0     C75535   8.355   2.671   3.537 -0.6181 -0.6651  0.7070
  548MOL0     C75536   8.243   2.663   3.453  0.0499 -0.7411 -0.1808
  548MOL0     N75537   7.592   2.792   3.074  0.2683 -0.7137  1.1122
  548MOL0     N75538   7.503   2.854   3.146  0.7946  0.5436  0.7591
  548MOL0     C75539   6.788   2.884   4.255  0.5482 -0.3785  0.7059
  548MOL0     C75540   6.661   2.838   4.284 -0.8362 -0.1692  0.0762
  548MOL0     C75541   6.311   2.550   4.280  0.6312  0.3111  0.3258
  548MOL0     C75542   6.221   2.658   4.323 -0.0124  0.5979 -0.4825
  548MOL0     C75543   6.097   2.630   4.370 -0.1969  0.9185 -0.7258
  548MOL0     C75544   6.047   2.497   4.371  0.3515 -0.1677  0.2849
  548MOL0     O75545   5.910   2.460   4.399  0.6360 -0.0622 -0.3210
  548MOL0     C75546   5.815   2.556   4.421 -0.7218 -0.1718  0.1512
  548MOL0     C75547   5.690   2.516   4.338 -0.4657 -0.7929  0.0083
  548MOL0     C75548   5.577   2.611   4.345  0.1163 -0.4456 -0.4838
  548MOL0     C75549   5.513   2.627   4.482  0.3139  0.6154  0.3705
  548MOL0     C75550   5.577   2.728   4.562  0.1256 -0.1423  0.4176
  548MOL0     C75551   5.627   2.811   4.635  0.3068 -0.4994 -1.0599
  548MOL0     C75552   6.126   2.395   4.308 -0.3054  0.7383 -0.7789
  548MOL0     C75553   6.261   2.416   4.270  0.7407  0.4133 -0.0359
  548MOL0     C75554   6.327   2.286   4.215 -0.6462  0.6054 -0.1764
  548MOL0     H75555   6.599   2.650   4.022 -0.3715  0.3351  0.7345
  548MOL0     H75556   6.814   2.732   3.951  0.6529 -1.2190  0.5242
  548MOL0     H75557   6.947   2.941   3.919  0.1803  2.0304  0.8568
  548MOL0     H75558   7.032   2.789   3.951 -1.5077 -0.5952  0.3572
  548MOL0     H75559   7.148   3.066   4.014  2.0450 -1.3765  4.2147
  548MOL0     H75560   7.233   2.916   4.035  0.2651 -0.6558 -0.4476
  548MOL0     H75561   7.177   2.883   3.787 -0.8584 -1.0392  1.0443
  548MOL0     H75562   7.132   3.056   3.788  1.1379  0.4817 -0.1200
  548MOL0     H75563   7.352   3.119   3.858  1.6853  0.0235  0.5667
  548MOL0     H75564   7.403   2.958   3.881  0.8579  1.7691  2.4573
  548MOL0     H75565   7.509   2.998   3.671  0.7938  0.9786 -0.9253
  548MOL0     H75566   7.401   3.137   3.650 -4.6649 -0.6940  1.3575
  548MOL0     H75567   7.328   2.840   3.618 -1.0277 -1.2062 -3.5732
  548MOL0     H75568   7.236   2.968   3.553 -1.0998 -1.4903 -0.3900
  548MOL0     H75569   7.526   2.904   3.462  0.1268 -0.1585 -3.2108
  548MOL0     H75570   7.401   3.021   3.388 -0.2170 -2.1505 -3.3049
  548MOL0     H75571   7.341   2.732   3.427 -1.1336  1.0138  0.6597
  548MOL0     H75572   7.275   2.843   3.308 -0.9937 -0.5319  2.4228
  548MOL0     H75573   7.544   2.585   3.319  1.5786 -0.0842 -0.8817
  548MOL0     H75574   7.694   2.557   2.984  4.6480  0.7916 -1.0169
  548MOL0     H75575   7.662   2.464   3.121 -0.2997 -0.4381 -0.8373
  548MOL0     H75576   7.919   2.505   3.093  2.1375  0.4296  1.7785
  548MOL0     H75577   7.882   2.683   3.101 -1.8558 -0.1448 -2.5536
  548MOL0     H75578   7.785   2.604   3.353 -0.1798  2.0690 -0.2335
  548MOL0     H75579   7.873   2.451   3.307  1.5381 -0.1865 -3.6562
  548MOL0     H75580   8.015   2.707   3.298 -1.3270  0.2040 -0.0962
  548MOL0     H75581   7.979   2.630   3.452  0.4203  0.5231 -0.0378
  548MOL0     H75582   8.285   2.336   3.359 -1.7825 -1.2187  1.8978
  548MOL0     H75583   8.464   2.238   3.450  3.4770 -1.8736  1.4491
  548MOL0     H75584   8.462   2.282   3.617  2.3982 -0.3051  1.2053
  548MOL0     H75585   8.599   2.330   3.513  0.7482 -2.3363 -0.6522
  548MOL0     H75586   8.581   2.455   4.011 -0.0099 -0.7964 -0.7756
  548MOL0     H75587   8.779   2.449   4.156  0.4628  0.5404  0.5262
  548MOL0     H75588   9.004   2.459   4.265 -0.7428 -1.2108  0.0421
  548MOL0     H75589   9.007   2.323   4.160 -2.2512  1.7798 -1.2457
  548MOL0     H75590   9.192   2.297   4.278 -0.5829  0.7215  2.0427
  548MOL0     H75591   9.261   2.364   4.135 -2.5734  0.1894 -0.9607
  548MOL0     H75592   9.206   2.504   4.391  0.0689  1.6778  0.5015
  548MOL0     H75593   9.244   2.579   4.234 -0.4496 -2.4425 -3.8592
  548MOL0     H75594   9.462   2.430   4.232  1.1874  1.1784  0.2245
  548MOL0     H75595   9.413   2.354   4.378  1.4492 -1.4403 -2.4085
  548MOL0     H75596   9.450   2.557   4.514  1.9128  1.8321  0.2698
  548MOL0     H75597   9.588   2.484   4.440 -0.0225 -0.2591  0.8252
  548MOL0     H75598   9.427   2.723   4.315 -1.9740 -2.5782  1.6079
  548MOL0     H75599   9.593   2.666   4.270  1.3102 -1.4093  1.3224
  548MOL0     H75600   9.691   2.751   4.462 -0.9524 -3.4441 -0.7596
  548MOL0     H75601   9.527   2.802   4.529  2.0319  2.9168  0.9273
  548MOL0     H75602   9.652   2.995   4.463 -0.8150 -0.5076  0.6161
  548MOL0     H75603   9.514   2.969   4.345 -1.7052 -2.7754 -1.3216
  548MOL0     H75604   9.026   2.525   3.808 -0.3776 -0.9759 -0.5359
  548MOL0     H75605   8.828   2.522   3.668 -4.0433  1.6178 -0.8489
  548MOL0     H75606   8.378   2.767   3.582 -3.0431  0.0764  0.5058
  548MOL0     H75607   8.194   2.752   3.414 -1.1668 -1.1864  0.3107
  548MOL0     H75608   6.836   2.952   4.325  2.2839 -1.7934  0.9523
  548MOL0     H75609   6.612   2.866   4.377  0.6167 -0.3018  0.9019
  548MOL0     H75610   6.254   2.761   4.323  3.3462 -0.3653 -1.8017
  548MOL0     H75611   6.045   2.718   4.408 -1.4783 -0.7727  1.7735
  548MOL0     H75612   5.793   2.571   4.527  1.4896  0.3436  0.5895
  548MOL0     H75613   5.850   2.654   4.389  0.9834 -0.1858  1.8318
  548MOL0     H75614   5.649   2.419   4.369  0.6136 -1.8391 -1.6636
  548MOL0     H75615   5.729   2.510   4.237 -2.0153 -0.2153 -0.6603
  548MOL0     H75616   5.613   2.705   4.302 -1.0405 -0.4723 -1.5577
  548MOL0     H75617   5.497   2.583   4.277  0.2585  0.8931 -1.2556
  548MOL0     H75618   5.493   2.539   4.544  0.8016  1.4116  1.6931
  548MOL0     H75619   5.417   2.677   4.467  0.3106  0.1164 -1.5026
  548MOL0     H75620   5.664   2.890   4.698 -1.5114 -0.4685  0.0099
  548MOL0     H75621   6.070   2.303   4.293  0.1190  0.4080 -0.3781
  548MOL0     H75622   6.407   2.245   4.277  0.4547  0.2340 -1.7788
  548MOL0     H75623   6.248   2.212   4.201  1.5440 -1.9486  0.0983
  548MOL0     H75624   6.377   2.306   4.120  4.3536 -2.1079  1.4878
  549MOL0     O75625   9.968  10.021   2.249  0.4659 -0.1753 -0.2321
  549MOL0     C75626   9.943  10.023   2.130 -0.7295  0.1272  0.1485
  549MOL0     O75627  10.040   9.999   2.036 -0.0462  0.1738 -0.7997
  549MOL0     C75628  10.169   9.982   2.080  0.4135  0.1247 -0.4898
  549MOL0     C75629  10.224   9.858   2.068 -0.4642  0.4980 -0.0779
  549MOL0     C75630  10.360   9.836   2.098 -0.0590  0.1436 -0.8606
  549MOL0     C75631  10.443   9.940   2.154  0.5422 -0.1680  0.2263
  549MOL0     O75632  10.571   9.897   2.185 -0.3995  0.1867 -0.5046
  549MOL0     C75633  10.657  10.005   2.220 -0.4287 -0.3287  0.0660
  549MOL0     C75634  10.807   9.963   2.207  0.0206  0.1338  0.6766
  549MOL0     C75635  10.905  10.082   2.244  0.4006  0.3037  0.6614
  549MOL0     C75636  11.046  10.043   2.234  0.8953 -0.8262  0.2884
  549MOL0     C75637  11.128  10.177   2.236 -0.2620 -0.1848 -0.3300
  549MOL0     C75638  11.271  10.138   2.258 -0.4222  0.2722 -0.3001
  549MOL0     C75639  11.360  10.264   2.280 -0.2895 -0.2245 -0.4189
  549MOL0     C75640  11.335  10.320   2.414  0.4595 -0.0859  0.2605
  549MOL0     N75641  11.413  10.446   2.424 -0.6243  0.6249  0.0902
  549MOL0     C75642  11.529  10.457   2.501  0.0435 -0.8738 -0.4942
  549MOL0     C75643  11.559  10.592   2.474 -0.2598  0.6850 -0.2037
  549MOL0     C75644  11.659  10.666   2.553 -0.2649  0.1480 -1.0454
  549MOL0     C75645  11.801  10.633   2.507 -0.4758  0.7952 -0.0998
  549MOL0     C75646  11.817  10.641   2.352 -0.2829  0.1108 -1.2805
  549MOL0     C75647  11.967  10.646   2.306  0.1093 -0.4139  0.4168
  549MOL0     O75648  12.043  10.540   2.358  0.7403 -0.2067 -0.4245
  549MOL0     C75649  12.179  10.542   2.351  0.4186 -0.0415  0.1097
  549MOL0     C75650  12.245  10.459   2.440  0.0415  0.2037  0.4252
  549MOL0     C75651  12.379  10.431   2.436 -0.1986 -0.4430 -0.0258
  549MOL0     C75652  12.436  10.329   2.531 -0.1011  0.2438 -0.3108
  549MOL0     C75653  12.464  10.506   2.343 -0.1803 -0.2071  0.3601
  549MOL0     C75654  12.613  10.489   2.338  0.0211 -0.1256 -0.2592
  549MOL0     O75655  12.665  10.552   2.232 -0.0847 -0.3817 -0.5151
  549MOL0     C75656  12.801  10.548   2.206  1.4845 -1.1862 -0.4236
  549MOL0     C75657  12.904  10.563   2.302  0.3578  0.3362 -0.1371
  549MOL0     C75658  13.035  10.567   2.260 -0.7584  0.2925 -0.0028
  549MOL0     C75659  13.070  10.554   2.125  0.6360  0.4278 -0.5163
  549MOL0     O75660  13.198  10.559   2.096 -0.1380 -0.7481 -0.0898
  549MOL0     C75661  13.242  10.617   1.963 -0.0291  0.0810 -1.0153
  549MOL0     C75662  13.388  10.670   1.976 -0.9254 -0.7165  0.2356
  549MOL0     C75663  13.461  10.645   1.850 -0.0635  0.4141  0.5164
  549MOL0     C75664  13.590  10.729   1.854 -0.4538 -0.5750 -0.0748
  549MOL0     C75665  13.685  10.718   1.735 -0.6175 -0.2746  0.1965
  549MOL0     C75666  13.808  10.805   1.755  0.0885  0.0659 -0.3398
  549MOL0     C75667  13.793  10.949   1.796  0.1349 -0.4955  0.2963
  549MOL0     C75668  13.910  11.037   1.738  0.1436  0.4894  0.0719
  549MOL0    Cl75669  13.907  11.199   1.802  0.2523 -0.1849  0.0244
  549MOL0     C75670  12.968  10.546   2.029 -0.7729  1.3426 -0.6012
  549MOL0     C75671  12.838  10.532   2.068 -0.5082  0.6093 -0.4686
  549MOL0     O75672  12.671  10.424   2.425  0.2278  0.4736 -0.1081
  549MOL0     C75673  12.395  10.594   2.255 -0.2611  0.5121  0.3521
  549MOL0     C75674  12.257  10.616   2.261  0.1110 -0.9184  0.3532
  549MOL0     N75675  11.461  10.643   2.389 -0.8931 -0.0614  0.0403
  549MOL0     N75676  11.369  10.558   2.358  0.0747  0.1077  0.2372
  549MOL0     C75677  10.382  10.069   2.166  0.7833 -0.5404 -0.2254
  549MOL0     C75678  10.240  10.086   2.131 -0.2668 -0.1378 -0.7240
  549MOL0     C75679   9.813  10.067   2.080  0.5426 -0.5914 -0.2757
  549MOL0     C75680   9.803  10.107   1.945 -0.6388  0.5051 -0.0129
  549MOL0     C75681   9.675  10.134   1.896 -0.4797  0.7271 -0.6104
  549MOL0     C75682   9.560  10.118   1.968 -0.1094 -0.0024 -0.2358
  549MOL0     O75683   9.448  10.135   1.890 -0.1275 -0.0765  0.2341
  549MOL0     C75684   9.320  10.140   1.953 -0.8502  1.1954  0.5105
  549MOL0     C75685   9.207  10.120   1.858  0.5474 -0.7083  0.0279
  549MOL0     C75686   9.074  10.085   1.935 -0.1135 -0.1388 -0.2202
  549MOL0     C75687   8.965  10.058   1.832 -0.2512 -0.2279  0.5859
  549MOL0     C75688   8.926  10.184   1.770  0.3121  0.5804 -0.6262
  549MOL0     C75689   8.886  10.292   1.731 -0.6430  0.6644 -0.0139
  549MOL0     C75690   9.574  10.087   2.104  0.2243  0.6071 -0.5016
  549MOL0     C75691   9.697  10.058   2.166 -1.0005 -0.0220  0.2715
  549MOL0     C75692   9.702  10.001   2.311  0.3681  0.0435 -0.4244
  549MOL0     H75693  10.176   9.766   2.036 -2.8753  0.7195  2.4377
  549MOL0     H75694  10.409   9.742   2.076  2.8991  0.9458  1.7586
  549MOL0     H75695  10.651  10.035   2.325  1.0942 -1.4855  0.5109
  549MOL0     H75696  10.645  10.093   2.156  0.7540  0.8527  1.3892
  549MOL0     H75697  10.842   9.879   2.267 -1.5964  0.2166  1.7828
  549MOL0     H75698  10.820   9.928   2.104 -0.5432 -0.4758  0.8066
  549MOL0     H75699  10.870  10.169   2.188 -0.0611 -0.1326  0.2524
  549MOL0     H75700  10.884  10.115   2.346 -2.7438  1.3799 -0.2145
  549MOL0     H75701  11.072   9.966   2.307 -0.5781 -1.6869 -0.0630
  549MOL0     H75702  11.056   9.990   2.139 -0.4396  1.7563 -1.3845
  549MOL0     H75703  11.090  10.233   2.322  0.3820 -2.5875  1.6209
  549MOL0     H75704  11.115  10.234   2.143 -2.6523 -0.5774 -0.3114
  549MOL0     H75705  11.292  10.072   2.343 -0.9240  2.4399  1.6045
  549MOL0     H75706  11.293  10.090   2.162  1.0190 -1.2221  0.7147
  549MOL0     H75707  11.343  10.339   2.201  2.6870 -2.4534 -3.4507
  549MOL0     H75708  11.464  10.233   2.270 -0.7398 -1.9006 -0.2509
  549MOL0     H75709  11.231  10.350   2.433  0.4732 -0.8071  1.6718
  549MOL0     H75710  11.355  10.246   2.493 -2.3479 -1.2078  0.0579
  549MOL0     H75711  11.576  10.385   2.567 -1.8679 -0.0430  1.9204
  549MOL0     H75712  11.642  10.652   2.660  2.4021  3.3036 -0.0553
  549MOL0     H75713  11.656  10.775   2.540 -0.1520 -0.0443 -2.8642
  549MOL0     H75714  11.875  10.705   2.545  2.2628 -1.5745 -0.5687
  549MOL0     H75715  11.824  10.531   2.539  1.4470  0.3770 -2.5108
  549MOL0     H75716  11.780  10.553   2.298  0.7466  1.4358 -4.3320
  549MOL0     H75717  11.764  10.726   2.308 -0.8080 -0.2392 -1.3363
  549MOL0     H75718  11.978  10.653   2.198  0.1155  1.4837  0.5059
  549MOL0     H75719  12.012  10.735   2.349 -0.9125  0.6709 -0.6857
  549MOL0     H75720  12.188  10.397   2.509 -0.1985 -0.7537 -0.5922
  549MOL0     H75721  12.492  10.388   2.604  0.8531  1.2714 -1.8044
  549MOL0     H75722  12.504  10.259   2.481 -0.5847 -0.1725 -0.3957
  549MOL0     H75723  12.358  10.270   2.580 -1.6621  0.7583 -2.0576
  549MOL0     H75724  12.882  10.586   2.405 -1.3483  0.4567 -0.4924
  549MOL0     H75725  13.116  10.573   2.333 -1.2729 -0.1385  0.6121
  549MOL0     H75726  13.238  10.537   1.888  1.3663  0.9949 -2.1190
  549MOL0     H75727  13.176  10.703   1.947 -1.4396  0.0037  3.2733
  549MOL0     H75728  13.385  10.779   1.980 -0.1313 -0.7031  0.6351
  549MOL0     H75729  13.443  10.632   2.062  0.5492  0.6262 -0.0798
  549MOL0     H75730  13.402  10.668   1.761  0.2699 -0.2089  0.1339
  549MOL0     H75731  13.489  10.540   1.846  0.5982  0.5803  0.6931
  549MOL0     H75732  13.641  10.705   1.948  1.0716 -0.0031 -0.7345
  549MOL0     H75733  13.561  10.834   1.852 -1.8387 -0.9390 -0.7526
  549MOL0     H75734  13.715  10.614   1.721 -0.1384  0.0395 -1.2493
  549MOL0     H75735  13.635  10.750   1.643  1.5249  0.5136 -0.7517
  549MOL0     H75736  13.869  10.789   1.666 -0.6814  1.8620 -1.2407
  549MOL0     H75737  13.859  10.756   1.838 -1.4375  0.7537  1.0646
  549MOL0     H75738  13.796  10.956   1.905 -2.3800 -2.5154  0.5646
  549MOL0     H75739  13.697  10.992   1.766  1.8944  2.5312 -1.5257
  549MOL0     H75740  13.914  11.046   1.629  0.2402  1.6194  0.1490
  549MOL0     H75741  14.007  10.996   1.765  0.7398  0.4882 -1.9395
  549MOL0     H75742  12.988  10.548   1.922 -2.5980  0.9520 -0.9844
  549MOL0     H75743  12.767  10.529   1.986 -0.6459  3.6569 -0.5758
  549MOL0     H75744  12.452  10.653   2.185  0.0981 -1.1364 -0.7917
  549MOL0     H75745  12.213  10.673   2.180 -3.2626 -1.1197  1.8857
  549MOL0     H75746  10.434  10.154   2.208 -1.7534  1.4625 -0.8983
  549MOL0     H75747  10.187  10.180   2.143 -0.1913  0.0180 -1.5109
  549MOL0     H75748   9.890  10.110   1.881 -0.0584  1.1862  0.7830
  549MOL0     H75749   9.663  10.165   1.793 -0.7831  0.2359 -0.7282
  549MOL0     H75750   9.308  10.066   2.032  0.2467  1.5884  1.0715
  549MOL0     H75751   9.313  10.241   1.995  0.8577  1.5832 -0.0685
  549MOL0     H75752   9.238  10.045   1.785  2.2423 -0.7463  0.7577
  549MOL0     H75753   9.187  10.216   1.808  0.5850 -1.3307 -1.2110
  549MOL0     H75754   9.092   9.993   1.991  2.9610  0.6969  0.3106
  549MOL0     H75755   9.039  10.161   2.006  0.1683 -1.3610  1.2754
  549MOL0     H75756   8.876  10.016   1.879 -1.7911 -0.7288 -2.4824
  549MOL0     H75757   8.999   9.991   1.752 -2.3077 -0.2169 -0.3552
  549MOL0     H75758   8.869  10.393   1.702  4.6998  1.2879 -2.0222
  549MOL0     H75759   9.486  10.073   2.166  1.0427 -1.6993  0.2601
  549MOL0     H75760   9.744  10.066   2.388 -0.0184 -1.8655  1.5236
  549MOL0     H75761   9.601   9.980   2.350 -0.6084  2.0455 -1.7121
  549MOL0     H75762   9.757   9.907   2.302  0.0147 -0.1666 -0.4006
  550MOL0     O75763   3.223   9.519   7.618 -0.5550  0.1943 -1.1682
  550MOL0     C75764   3.226   9.577   7.731  0.8263 -0.7048 -1.3302
  550MOL0     O75765   3.343   9.604   7.796  0.5493  0.2094 -0.1605
  550MOL0     C75766   3.454   9.577   7.724  0.1824  0.1318  0.2591
  550MOL0     C75767   3.484   9.626   7.590 -0.4137  0.6925 -0.4113
  550MOL0     C75768   3.604   9.586   7.525 -0.0589 -0.3472 -0.0779
  550MOL0     C75769   3.693   9.493   7.581  1.1339 -0.1163 -0.4560
  550MOL0     O75770   3.806   9.437   7.523 -0.2515 -0.4758  0.0397
  550MOL0     C75771   3.844   9.476   7.392  0.7155 -0.7639  0.1641
  550MOL0     C75772   3.981   9.429   7.358 -0.0124 -0.1444  1.0755
  550MOL0     C75773   4.092   9.494   7.451  0.4761 -0.3626  0.2227
  550MOL0     C75774   4.232   9.453   7.403  0.7294 -0.1688 -0.1098
  550MOL0     C75775   4.347   9.461   7.504 -0.6405  0.0429 -0.2705
  550MOL0     C75776   4.470   9.389   7.442  1.0721 -1.1055 -0.4007
  550MOL0     C75777   4.590   9.387   7.540  0.5807 -0.1139  0.0697
  550MOL0     C75778   4.679   9.267   7.492  0.8408 -0.6503  0.0211
  550MOL0     N75779   4.803   9.253   7.575 -0.4786  0.2565  0.0767
  550MOL0     C75780   4.894   9.346   7.603  0.0930 -0.5898  0.4616
  550MOL0     C75781   4.993   9.289   7.674 -0.2011  0.9849  0.1401
  550MOL0     C75782   5.112   9.345   7.730  0.6237 -0.3777 -0.1551
  550MOL0     C75783   5.075   9.489   7.776  0.4434  0.0590 -0.1935
  550MOL0     C75784   5.174   9.541   7.887  0.0172 -0.3417 -0.0616
  550MOL0     C75785   5.306   9.591   7.820 -0.6965  0.2251  0.4709
  550MOL0     O75786   5.396   9.627   7.929 -0.6914  0.0037  0.2773
  550MOL0     C75787   5.513   9.686   7.908  0.2183 -0.3981  1.3625
  550MOL0     C75788   5.568   9.703   7.775  0.1994  0.0724 -0.0383
  550MOL0     C75789   5.687   9.778   7.753  0.0557 -0.1674 -0.3375
  550MOL0     C75790   5.730   9.809   7.607  0.7324  0.3130 -0.2999
  550MOL0     C75791   5.757   9.820   7.864  0.5372  0.1429 -0.5323
  550MOL0     C75792   5.893   9.880   7.859  0.1741 -0.0760  0.5378
  550MOL0     O75793   5.971   9.866   7.968  0.7131  0.2500 -0.2204
  550MOL0     C75794   6.074   9.957   7.977  0.6281 -0.3102  0.9079
  550MOL0     C75795   6.042  10.081   8.030  0.3169 -0.0957 -0.6934
  550MOL0     C75796   6.145  10.175   8.052 -0.1255 -0.1140  0.4053
  550MOL0     C75797   6.281  10.146   8.013  0.2564  1.0690 -0.1475
  550MOL0     O75798   6.384  10.242   8.012 -0.5543 -0.2070 -0.0627
  550MOL0     C75799   6.371  10.348   8.102  0.1346 -0.2362 -1.2035
  550MOL0     C75800   6.507  10.413   8.123 -0.0995 -0.1931 -0.6446
  550MOL0     C75801   6.605  10.307   8.180  0.0534  0.9019  0.2423
  550MOL0     C75802   6.740  10.356   8.202  0.2690  0.2329  0.5520
  550MOL0     C75803   6.854  10.253   8.235  0.2785 -0.0116 -0.0854
  550MOL0     C75804   6.995  10.307   8.208  0.3988  0.3774  0.3972
  550MOL0     C75805   7.108  10.220   8.260 -0.3420 -0.1682  1.0204
  550MOL0     C75806   7.250  10.247   8.230  0.3757  0.8666  0.0681
  550MOL0    Cl75807   7.288  10.417   8.269 -0.1716  0.1191  0.0022
  550MOL0     C75808   6.312  10.022   7.958  0.9085 -0.2118 -0.6454
  550MOL0     C75809   6.203   9.930   7.937 -0.5815 -0.6856  0.0317
  550MOL0     O75810   5.920   9.950   7.758  0.4005  0.8490  0.3335
  550MOL0     C75811   5.707   9.800   7.998  0.2911  0.0761 -0.3586
  550MOL0     C75812   5.584   9.739   8.015  0.5880 -0.1963  0.0001
  550MOL0     N75813   4.964   9.157   7.691  0.0390  0.0631 -0.6374
  550MOL0     N75814   4.852   9.138   7.639  0.8227 -0.3348  0.7211
  550MOL0     C75815   3.662   9.452   7.713  0.4618 -0.0851  0.9960
  550MOL0     C75816   3.549   9.493   7.787 -0.2136  0.3298  0.5093
  550MOL0     C75817   3.102   9.595   7.808 -0.1842 -0.2651 -1.0724
  550MOL0     C75818   3.097   9.553   7.943 -0.2011  0.0029 -0.1775
  550MOL0     C75819   2.976   9.551   8.015  0.3207  0.2018 -0.8599
  550MOL0     C75820   2.856   9.587   7.955 -0.5795  0.6875  1.0143
  550MOL0     O75821   2.739   9.589   8.018 -0.5167 -0.1774  0.1063
  550MOL0     C75822   2.610   9.588   7.956 -0.9232  0.4717 -0.2514
  550MOL0     C75823   2.497   9.576   8.063  0.1715  0.0088  0.3821
  550MOL0     C75824   2.444   9.708   8.093  0.5832  0.1378  0.6408
  550MOL0     C75825   2.345   9.713   8.213 -0.6302  0.5784  0.3288
  550MOL0     C75826   2.268   9.833   8.217 -0.9407 -0.9488  0.0726
  550MOL0     C75827   2.212   9.938   8.206  0.0390  0.2329  0.3273
  550MOL0     C75828   2.856   9.615   7.815 -0.3876  0.3709 -0.0066
  550MOL0     C75829   2.981   9.618   7.745  0.3930 -0.5890 -0.4421
  550MOL0     C75830   2.966   9.657   7.598 -0.1599  0.1187 -0.1974
  550MOL0     H75831   3.416   9.691   7.536  0.3881  2.1714  0.2901
  550MOL0     H75832   3.627   9.622   7.425 -0.0253  1.3763  0.5204
  550MOL0     H75833   3.828   9.584   7.385 -1.3153 -1.1383 -3.7154
  550MOL0     H75834   3.777   9.431   7.318  1.1349 -0.3778 -0.4615
  550MOL0     H75835   3.983   9.320   7.360  0.9820 -0.1787 -0.4346
  550MOL0     H75836   4.002   9.463   7.256  1.2096 -3.1252  0.2280
  550MOL0     H75837   4.083   9.602   7.445 -1.8401 -0.6121 -2.9010
  550MOL0     H75838   4.074   9.457   7.553 -0.8481  2.1510  0.9670
  550MOL0     H75839   4.223   9.345   7.390  0.6072 -0.4147  1.8194
  550MOL0     H75840   4.265   9.508   7.314  0.5181 -1.5988 -1.1091
  550MOL0     H75841   4.323   9.404   7.595  0.9785 -0.8916 -0.3779
  550MOL0     H75842   4.376   9.564   7.529 -0.1221  0.5456 -2.6753
  550MOL0     H75843   4.445   9.285   7.416 -1.6391 -0.8016  0.6504
  550MOL0     H75844   4.498   9.441   7.350 -1.4651  0.0350 -0.5984
  550MOL0     H75845   4.556   9.361   7.640  2.7865  0.2991  0.9786
  550MOL0     H75846   4.646   9.481   7.543  0.5627 -0.0060 -1.6931
  550MOL0     H75847   4.630   9.169   7.489  0.6385 -0.5265 -0.8870
  550MOL0     H75848   4.708   9.289   7.389  0.9682 -0.4478  0.0976
  550MOL0     H75849   4.892   9.452   7.577  2.5536 -0.7041 -0.4479
  550MOL0     H75850   5.191   9.349   7.654  1.9506  1.7151  1.2088
  550MOL0     H75851   5.147   9.284   7.814  0.7944 -1.1935 -0.8027
  550MOL0     H75852   5.092   9.557   7.692  0.0011  2.1683  1.3338
  550MOL0     H75853   4.971   9.501   7.807  0.0119 -3.2331  0.0249
  550MOL0     H75854   5.122   9.614   7.949 -0.6300 -0.2748 -0.6652
  550MOL0     H75855   5.190   9.450   7.944 -2.1033 -1.4932 -1.2163
  550MOL0     H75856   5.354   9.515   7.758  1.9723  2.1298  0.0342
  550MOL0     H75857   5.269   9.675   7.761 -1.4751  0.0524  0.6947
  550MOL0     H75858   5.518   9.668   7.686 -0.5703 -0.1676  0.4833
  550MOL0     H75859   5.666   9.757   7.535 -1.6074  0.0267  1.8342
  550MOL0     H75860   5.831   9.770   7.596  0.2096 -0.9105 -0.8786
  550MOL0     H75861   5.724   9.916   7.585  2.3042  0.1966 -1.4765
  550MOL0     H75862   5.942  10.101   8.065  1.1686  0.8280  1.3164
  550MOL0     H75863   6.117  10.273   8.088 -0.5587 -0.4396  0.9834
  550MOL0     H75864   6.314  10.428   8.054  0.9004  1.8112  1.0533
  550MOL0     H75865   6.330  10.313   8.198 -1.4165 -2.0397 -2.4521
  550MOL0     H75866   6.545  10.450   8.027 -0.4915  2.8002  0.2570
  550MOL0     H75867   6.499  10.497   8.192  1.3038 -1.5011  1.2250
  550MOL0     H75868   6.611  10.226   8.107 -0.3982  1.6533 -0.6555
  550MOL0     H75869   6.572  10.266   8.275  2.3191 -0.1226  0.6425
  550MOL0     H75870   6.733  10.432   8.281  1.7096 -2.0858  3.0838
  550MOL0     H75871   6.761  10.418   8.115  0.4053 -2.2057 -1.2640
  550MOL0     H75872   6.847  10.233   8.343 -2.0479  1.7206  0.1718
  550MOL0     H75873   6.831  10.162   8.178 -0.6743 -1.4125  2.3356
  550MOL0     H75874   6.997  10.404   8.259 -2.0953  0.9848 -0.5341
  550MOL0     H75875   6.997  10.326   8.100 -1.4346 -0.9848  0.0638
  550MOL0     H75876   7.089  10.118   8.225  0.4852  0.2412 -0.7030
  550MOL0     H75877   7.112  10.227   8.370  1.6061  1.4896  0.9060
  550MOL0     H75878   7.259  10.224   8.124 -1.1585 -2.8058  0.6176
  550MOL0     H75879   7.324  10.179   8.274 -0.7224  0.0004  0.6313
  550MOL0     H75880   6.407  10.001   7.910  0.4251 -2.5165 -0.6957
  550MOL0     H75881   6.213   9.836   7.884  0.8622 -2.1681  2.7519
  550MOL0     H75882   5.756   9.836   8.088 -0.6661  1.2502 -0.2792
  550MOL0     H75883   5.539   9.720   8.112  0.0463 -1.1113 -0.4174
  550MOL0     H75884   3.746   9.394   7.749 -0.5535 -1.7785  0.7486
  550MOL0     H75885   3.528   9.459   7.888 -1.7239 -0.2984  0.0225
  550MOL0     H75886   3.187   9.529   7.999  0.2949  1.8575 -0.1032
  550MOL0     H75887   2.965   9.512   8.116 -0.3911  1.5349 -0.3948
  550MOL0     H75888   2.598   9.674   7.889  1.7648  1.1655  0.0721
  550MOL0     H75889   2.600   9.499   7.893  0.7979  0.6461 -0.8327
  550MOL0     H75890   2.535   9.524   8.151 -0.8040 -1.2481  0.0985
  550MOL0     H75891   2.410   9.520   8.028 -0.6620  1.4545  0.0456
  550MOL0     H75892   2.530   9.769   8.123  0.4010  0.1448  1.1659
  550MOL0     H75893   2.392   9.756   8.010 -1.6745 -1.9532  0.7326
  550MOL0     H75894   2.406   9.698   8.303  1.3972 -1.7892 -1.3265
  550MOL0     H75895   2.287   9.621   8.208  0.6415 -0.1663 -1.8550
  550MOL0     H75896   2.159  10.031   8.213 -2.3954 -1.0826  0.4958
  550MOL0     H75897   2.762   9.631   7.764 -1.0933  1.4360  1.5637
  550MOL0     H75898   2.931   9.579   7.530 -1.8350  1.0105 -0.4328
  550MOL0     H75899   2.887   9.732   7.584  0.0471  0.1955 -0.9763
  550MOL0     H75900   3.051   9.708   7.552 -0.9527  1.2777 -0.4468
  551MOL0     O75901   3.027   5.636   4.528  0.1246 -0.3931 -0.6704
  551MOL0     C75902   3.023   5.654   4.409 -0.0408 -0.1280  0.1713
  551MOL0     O75903   3.074   5.757   4.336 -0.1795 -0.9546 -0.1907
  551MOL0     C75904   3.180   5.827   4.396  0.4844  0.7232  0.7748
  551MOL0     C75905   3.287   5.769   4.467  0.2245 -0.3074 -0.7491
  551MOL0     C75906   3.380   5.852   4.534 -0.4317 -0.0506  0.5129
  551MOL0     C75907   3.372   5.990   4.542 -0.0370  0.3678  0.0821
  551MOL0     O75908   3.475   6.049   4.613  0.0916  0.1295 -0.7390
  551MOL0     C75909   3.478   6.192   4.608 -0.4630 -0.4795  0.2823
  551MOL0     C75910   3.583   6.238   4.702 -0.1536  0.2195  0.5651
  551MOL0     C75911   3.714   6.185   4.648  0.5625  0.1077 -0.5176
  551MOL0     C75912   3.830   6.247   4.725 -0.1414 -0.3168 -0.2246
  551MOL0     C75913   3.966   6.252   4.643  0.1698 -0.4984  0.1979
  551MOL0     C75914   4.028   6.125   4.576  0.5734 -0.2112 -0.1046
  551MOL0     C75915   4.175   6.131   4.557 -0.7852 -0.8568 -0.1327
  551MOL0     C75916   4.221   6.047   4.432 -1.0087  1.0648  0.4406
  551MOL0     N75917   4.243   5.903   4.458 -0.6262  0.5214 -0.7657
  551MOL0     C75918   4.151   5.808   4.451  0.1460  0.0786 -0.4825
  551MOL0     C75919   4.226   5.697   4.445 -0.3116  0.2889  0.2688
  551MOL0     C75920   4.180   5.549   4.425  0.0649 -0.2616 -0.8798
  551MOL0     C75921   4.043   5.546   4.359 -0.6164 -0.4599  0.5034
  551MOL0     C75922   3.987   5.402   4.357  0.1814  0.1185 -0.2422
  551MOL0     C75923   3.858   5.407   4.281  0.2107 -0.2615 -0.2079
  551MOL0     O75924   3.817   5.275   4.261  0.6837  0.0668 -0.2887
  551MOL0     C75925   3.752   5.207   4.360 -0.6455  0.9998 -0.8199
  551MOL0     C75926   3.660   5.248   4.458  0.2075 -0.8765 -0.3714
  551MOL0     C75927   3.636   5.174   4.571  0.7349 -0.9207 -0.6236
  551MOL0     C75928   3.547   5.229   4.675  0.8781  0.0922 -0.5893
  551MOL0     C75929   3.701   5.052   4.582 -0.2442  0.8600  0.2312
  551MOL0     C75930   3.682   4.950   4.690  0.5048  0.1060 -0.3683
  551MOL0     O75931   3.791   4.891   4.739 -0.1664 -0.2528 -0.0072
  551MOL0     C75932   3.792   4.804   4.847  1.1680 -0.6295  0.2372
  551MOL0     C75933   3.876   4.832   4.947  0.1555  0.3496  0.0428
  551MOL0     C75934   3.896   4.740   5.055 -0.0634  0.6812  0.3695
  551MOL0     C75935   3.815   4.628   5.067 -0.8374  0.3237  0.3035
  551MOL0     O75936   3.812   4.546   5.177 -0.1428  0.4853  0.0751
  551MOL0     C75937   3.857   4.593   5.302 -1.2129 -0.6847 -0.4036
  551MOL0     C75938   3.799   4.512   5.412  0.3362  0.1382 -0.8211
  551MOL0     C75939   3.853   4.556   5.544  0.3024  0.0174 -0.4679
  551MOL0     C75940   3.784   4.487   5.665 -0.1433  0.1871 -0.9561
  551MOL0     C75941   3.650   4.558   5.703 -0.5733 -0.2975  0.2617
  551MOL0     C75942   3.600   4.484   5.826  0.1891  0.0126  0.4391
  551MOL0     C75943   3.513   4.577   5.912 -0.1231  0.4982 -0.2794
  551MOL0     C75944   3.369   4.585   5.860  0.0167  0.6204 -0.0637
  551MOL0    Cl75945   3.252   4.674   5.980 -0.1163  0.0491 -0.1950
  551MOL0     C75946   3.707   4.617   4.984  0.2255 -0.4505  0.1689
  551MOL0     C75947   3.697   4.700   4.873 -0.8287 -0.0288  0.1456
  551MOL0     O75948   3.570   4.922   4.728 -0.5253 -0.2656  0.7853
  551MOL0     C75949   3.787   5.009   4.491  0.2370 -0.8635  0.4986
  551MOL0     C75950   3.811   5.078   4.373  0.1101  0.4304 -0.2677
  551MOL0     N75951   4.363   5.725   4.444  0.4359 -0.4765  0.4498
  551MOL0     N75952   4.371   5.858   4.447 -0.2570  0.0443 -0.3331
  551MOL0     C75953   3.262   6.054   4.465  0.6187  0.9709 -0.3810
  551MOL0     C75954   3.167   5.967   4.397 -0.2764 -0.3019  0.3983
  551MOL0     C75955   2.950   5.552   4.333  0.0184 -0.6049  0.4715
  551MOL0     C75956   2.871   5.592   4.229 -0.2031 -0.2613 -0.3595
  551MOL0     C75957   2.797   5.504   4.160  0.4376 -1.7046  0.2707
  551MOL0     C75958   2.784   5.372   4.194  0.0746  0.0315 -0.3881
  551MOL0     O75959   2.701   5.283   4.131 -0.1250  0.4888 -0.1446
  551MOL0     C75960   2.566   5.295   4.173 -0.2675 -0.5391  0.2597
  551MOL0     C75961   2.491   5.174   4.135  0.6326 -0.4755  0.5742
  551MOL0     C75962   2.337   5.190   4.160 -0.1232 -0.0949  0.0574
  551MOL0     C75963   2.262   5.061   4.139  0.7931  0.1662 -0.2760
  551MOL0     C75964   2.268   5.021   3.996 -0.1295 -0.9796 -0.1524
  551MOL0     C75965   2.261   4.996   3.884  0.0527 -0.8948  0.0404
  551MOL0     C75966   2.870   5.324   4.297 -0.3728 -0.2356 -0.5711
  551MOL0     C75967   2.956   5.412   4.363 -1.2111  0.3853 -0.8979
  551MOL0     C75968   3.056   5.353   4.446  0.0974  0.8114  0.4525
  551MOL0     H75969   3.293   5.662   4.482  3.0087 -0.1289 -0.1690
  551MOL0     H75970   3.468   5.811   4.582  1.4090  2.3465 -0.6094
  551MOL0     H75971   3.381   6.235   4.633  0.1872  1.7073 -0.7566
  551MOL0     H75972   3.505   6.227   4.508  0.2577  0.0046  0.6352
  551MOL0     H75973   3.590   6.347   4.704 -1.2400  0.2952  0.7639
  551MOL0     H75974   3.563   6.199   4.803  1.5252  3.6793  2.4149
  551MOL0     H75975   3.734   6.078   4.660 -2.4026 -0.4354  0.2291
  551MOL0     H75976   3.719   6.202   4.540  1.5034 -1.1640 -0.7137
  551MOL0     H75977   3.804   6.351   4.748  4.6424  0.9667  0.3476
  551MOL0     H75978   3.841   6.191   4.818 -2.0421  0.3372  0.4542
  551MOL0     H75979   4.042   6.295   4.709 -0.3175  0.4107  0.1851
  551MOL0     H75980   3.953   6.324   4.561  3.0501  0.8367  0.7807
  551MOL0     H75981   4.014   6.034   4.635  1.7278 -0.1427  0.3120
  551MOL0     H75982   3.964   6.111   4.489 -2.4794  1.0678  1.7553
  551MOL0     H75983   4.226   6.088   4.644  1.6204  1.8379 -0.0549
  551MOL0     H75984   4.223   6.227   4.538  1.6128 -1.9358  0.0812
  551MOL0     H75985   4.155   6.073   4.349  1.3711  3.1665 -0.9125
  551MOL0     H75986   4.315   6.094   4.402 -0.7849  2.5265  3.1450
  551MOL0     H75987   4.043   5.808   4.457  0.2122 -1.6506  1.9058
  551MOL0     H75988   4.167   5.499   4.521 -0.1226 -1.6752 -1.6057
  551MOL0     H75989   4.254   5.487   4.373  1.6991 -1.4427  2.5448
  551MOL0     H75990   3.970   5.599   4.422  0.6845  0.9294  0.9125
  551MOL0     H75991   4.049   5.597   4.263  0.1931  1.3299  1.4435
  551MOL0     H75992   4.061   5.348   4.296 -0.8014  0.2828 -1.6378
  551MOL0     H75993   3.977   5.366   4.459 -0.2722 -0.2261 -0.4029
  551MOL0     H75994   3.793   5.470   4.342  0.4594  2.2618 -2.3982
  551MOL0     H75995   3.866   5.455   4.183  2.3711  0.9794  0.5110
  551MOL0     H75996   3.603   5.338   4.438  2.8158  1.1354  0.6778
  551MOL0     H75997   3.462   5.277   4.625 -0.8237 -1.4579  0.6451
  551MOL0     H75998   3.600   5.297   4.742  2.0632 -0.7746 -0.6272
  551MOL0     H75999   3.505   5.156   4.745 -1.5539  0.4653 -1.5409
  551MOL0     H76000   3.933   4.924   4.950  1.8708 -0.6516  3.3553
  551MOL0     H76001   3.970   4.757   5.133  0.4852 -1.7594  0.4682
  551MOL0     H76002   3.963   4.572   5.318 -1.1522 -0.5817 -0.6736
  551MOL0     H76003   3.827   4.698   5.306 -1.0115 -0.6097 -0.8184
  551MOL0     H76004   3.695   4.548   5.420  0.6075  0.9873 -1.0301
  551MOL0     H76005   3.805   4.403   5.401  3.8060 -0.1970  2.4353
  551MOL0     H76006   3.840   4.665   5.544  0.1734  0.0164  1.3148
  551MOL0     H76007   3.961   4.542   5.544  0.0439 -2.6456 -2.1026
  551MOL0     H76008   3.853   4.486   5.750  1.0488 -0.9892 -1.9027
  551MOL0     H76009   3.767   4.380   5.648 -1.4963  0.2301  0.0042
  551MOL0     H76010   3.674   4.663   5.722  2.9282 -1.2405  1.8070
  551MOL0     H76011   3.581   4.558   5.617  0.6658  1.0919 -0.7887
  551MOL0     H76012   3.682   4.441   5.885 -1.0360 -3.0890  0.0703
  551MOL0     H76013   3.547   4.395   5.793  2.2862 -1.5342  1.0032
  551MOL0     H76014   3.561   4.675   5.927  0.2972  0.2231  0.2274
  551MOL0     H76015   3.507   4.520   6.006 -0.2346 -1.4980 -1.4488
  551MOL0     H76016   3.335   4.482   5.846 -1.1926  0.5885  2.5202
  551MOL0     H76017   3.368   4.617   5.756  0.0623 -3.8758 -1.6649
  551MOL0     H76018   3.633   4.539   4.996 -0.6611 -0.0930 -2.3727
  551MOL0     H76019   3.624   4.672   4.798 -1.1175  2.6667 -0.6689
  551MOL0     H76020   3.838   4.913   4.494  4.1018  0.9592  0.1247
  551MOL0     H76021   3.894   5.049   4.310  0.4206 -3.0082  1.4586
  551MOL0     H76022   3.255   6.163   4.470  1.1923  0.9573  1.4160
  551MOL0     H76023   3.081   6.013   4.349 -0.7570 -1.0685  0.5130
  551MOL0     H76024   2.856   5.696   4.201 -0.1784 -0.0084  0.5444
  551MOL0     H76025   2.736   5.549   4.082 -0.4427 -0.5285  1.5994
  551MOL0     H76026   2.557   5.307   4.282  0.4735  0.8212  0.1955
  551MOL0     H76027   2.529   5.380   4.115 -0.2970 -1.9107 -1.8018
  551MOL0     H76028   2.531   5.088   4.190  0.6247  1.3196  3.5770
  551MOL0     H76029   2.508   5.152   4.029  0.2677  0.7289  0.2584
  551MOL0     H76030   2.326   5.224   4.264 -0.2873  0.4404 -0.1311
  551MOL0     H76031   2.305   5.273   4.097  0.3027  0.7146  0.8792
  551MOL0     H76032   2.160   5.080   4.173  0.7959  1.6811 -0.9996
  551MOL0     H76033   2.297   4.978   4.201  0.3487  1.3053  1.5554
  551MOL0     H76034   2.251   4.976   3.779 -0.9416 -0.7573  0.1033
  551MOL0     H76035   2.855   5.219   4.320 -2.0413 -0.1247 -0.9727
  551MOL0     H76036   3.157   5.393   4.428  0.6550 -1.4382 -2.0411
  551MOL0     H76037   3.036   5.361   4.553  1.1027 -0.8181  0.7989
  551MOL0     H76038   3.067   5.245   4.436  1.0596  0.9639 -0.2707
  552MOL0     O76039   1.573   3.523   6.564 -0.4048 -0.5079 -0.1711
  552MOL0     C76040   1.696   3.555   6.569  0.0203  0.3457 -0.5127
  552MOL0     O76041   1.804   3.503   6.506 -0.5843 -0.3556  0.2207
  552MOL0     C76042   1.804   3.414   6.393  0.4098  0.2346 -0.1737
  552MOL0     C76043   1.937   3.363   6.365  0.8669  0.0010 -0.3964
  552MOL0     C76044   1.946   3.281   6.259  0.2493  0.2950  0.1387
  552MOL0     C76045   1.835   3.228   6.187 -0.9250 -0.5539  0.1817
  552MOL0     O76046   1.849   3.137   6.083  0.0428 -0.2067  0.5551
  552MOL0     C76047   1.950   3.184   5.987  0.0027 -0.1715 -0.9524
  552MOL0     C76048   2.019   3.051   5.942  0.4218 -1.0299 -0.0551
  552MOL0     C76049   2.148   3.086   5.865  0.0297  0.2856  1.1299
  552MOL0     C76050   2.218   2.960   5.810  0.5034 -0.1939 -0.1449
  552MOL0     C76051   2.358   2.977   5.745  0.2201 -0.4697  0.2552
  552MOL0     C76052   2.456   3.024   5.850 -0.0759 -0.3506  0.3681
  552MOL0     C76053   2.599   3.027   5.798  0.2798  0.1690  0.0753
  552MOL0     C76054   2.708   3.045   5.902  0.5910  0.8595 -0.6100
  552MOL0     N76055   2.834   3.073   5.855 -0.0983  0.5103  0.1380
  552MOL0     C76056   2.932   2.972   5.827  0.4709 -0.9676  0.3440
  552MOL0     C76057   3.040   3.049   5.787 -0.4739 -0.3530 -0.3472
  552MOL0     C76058   3.177   2.994   5.747  0.2225  0.5269  0.5055
  552MOL0     C76059   3.168   2.955   5.604 -0.1546  0.5444 -0.0302
  552MOL0     C76060   3.277   2.867   5.562 -0.4209  0.0625 -0.4604
  552MOL0     C76061   3.428   2.909   5.587 -0.5158 -0.7984  0.1746
  552MOL0     O76062   3.517   2.799   5.563 -0.2824  0.1677  0.4154
  552MOL0     C76063   3.655   2.823   5.569  0.0967  0.3285  0.4746
  552MOL0     C76064   3.716   2.938   5.629  0.8860  0.4111  0.4263
  552MOL0     C76065   3.852   2.965   5.623  0.5391 -0.4616 -0.1199
  552MOL0     C76066   3.908   3.088   5.698  0.2173 -0.3236  0.1281
  552MOL0     C76067   3.944   2.873   5.562  0.4307 -0.6996  0.7548
  552MOL0     C76068   4.089   2.898   5.547 -0.6876 -0.2843  0.2039
  552MOL0     O76069   4.164   2.787   5.527  0.4356  0.2946  0.0931
  552MOL0     C76070   4.305   2.800   5.535  0.3100 -0.3583 -0.8945
  552MOL0     C76071   4.381   2.770   5.418 -0.9827 -0.5511 -0.4840
  552MOL0     C76072   4.526   2.794   5.425  0.5936  0.3251  0.8673
  552MOL0     C76073   4.594   2.829   5.545  0.0309  0.2265 -0.2791
  552MOL0     O76074   4.732   2.844   5.561 -0.7591 -0.0601  0.9962
  552MOL0     C76075   4.792   2.869   5.433  0.1992 -0.2025 -0.3601
  552MOL0     C76076   4.939   2.929   5.458  0.3616  0.9074  0.4750
  552MOL0     C76077   5.019   2.820   5.522 -0.8964 -0.0101  0.5646
  552MOL0     C76078   5.104   2.872   5.641  0.3485  0.2200  0.4759
  552MOL0     C76079   5.204   2.760   5.689 -0.4828 -0.4313 -0.1101
  552MOL0     C76080   5.285   2.810   5.812  0.9192 -0.3499  0.1630
  552MOL0     C76081   5.422   2.755   5.805  0.7910  0.8829  0.3333
  552MOL0     C76082   5.494   2.787   5.939  0.5424  0.9697 -0.1751
  552MOL0    Cl76083   5.670   2.756   5.892  0.3903  0.0434 -0.1882
  552MOL0     C76084   4.510   2.845   5.659 -0.4099 -0.7947 -0.1069
  552MOL0     C76085   4.371   2.832   5.650  0.1198  0.2770 -0.4324
  552MOL0     O76086   4.126   3.016   5.537 -0.0789  0.1114 -0.1764
  552MOL0     C76087   3.891   2.755   5.504  0.2513  0.6076 -0.5939
  552MOL0     C76088   3.748   2.731   5.513  0.3689 -0.3583 -0.4806
  552MOL0     N76089   3.008   3.184   5.796  0.1037  0.1660  0.5884
  552MOL0     N76090   2.887   3.196   5.840  0.1118 -0.3084 -0.0403
  552MOL0     C76091   1.709   3.264   6.216  0.0041 -0.8283  1.0364
  552MOL0     C76092   1.695   3.362   6.315  0.1068  0.3903 -0.4927
  552MOL0     C76093   1.745   3.649   6.677 -1.0326 -0.3943  0.4700
  552MOL0     C76094   1.715   3.625   6.814 -0.1836 -0.3321 -0.1808
  552MOL0     C76095   1.733   3.721   6.915  0.5277 -0.1376 -0.4969
  552MOL0     C76096   1.801   3.841   6.883 -0.0990 -0.1978  0.2089
  552MOL0     O76097   1.817   3.942   6.966 -0.4157  0.2050 -0.1979
  552MOL0     C76098   1.781   3.941   7.104 -0.2134  0.4897 -0.3506
  552MOL0     C76099   1.884   3.856   7.180  0.3509  0.7114 -0.6059
  552MOL0     C76100   2.028   3.895   7.149  0.3533 -0.5300  0.4284
  552MOL0     C76101   2.120   3.832   7.257  0.5650  0.0659  0.0522
  552MOL0     C76102   2.256   3.857   7.214 -0.4304  0.2704 -0.1317
  552MOL0     C76103   2.364   3.873   7.155  0.3098 -0.6481 -0.2593
  552MOL0     C76104   1.831   3.873   6.745 -0.2947  0.1847 -0.3810
  552MOL0     C76105   1.808   3.768   6.647 -0.4862  0.1613  0.5912
  552MOL0     C76106   1.841   3.801   6.504  0.3462  0.3791 -0.1006
  552MOL0     H76107   2.025   3.390   6.422 -0.1441  1.1418  0.6903
  552MOL0     H76108   2.044   3.241   6.234 -0.5531 -2.0666  0.5368
  552MOL0     H76109   2.025   3.252   6.029 -1.3434  1.4723 -1.1150
  552MOL0     H76110   1.904   3.237   5.903 -0.6628  1.2772  0.2809
  552MOL0     H76111   2.048   3.003   6.036 -2.4611  2.1448  2.7838
  552MOL0     H76112   1.966   2.981   5.878  2.0098  0.1730 -2.8701
  552MOL0     H76113   2.124   3.148   5.778 -1.4656 -2.5339 -0.6228
  552MOL0     H76114   2.223   3.131   5.930  2.5455 -0.9569 -0.7401
  552MOL0     H76115   2.235   2.885   5.888  2.6195  1.4696  1.1076
  552MOL0     H76116   2.152   2.909   5.739  2.6893 -0.2737 -2.2463
  552MOL0     H76117   2.352   3.040   5.656  1.9872 -0.0990  0.3599
  552MOL0     H76118   2.383   2.874   5.718  0.5989 -0.7301  1.4917
  552MOL0     H76119   2.416   3.125   5.859  0.9973  0.4817 -2.8691
  552MOL0     H76120   2.435   2.969   5.942 -2.4324  2.2065  1.4917
  552MOL0     H76121   2.611   3.116   5.735  0.1967  1.1817  1.4516
  552MOL0     H76122   2.615   2.935   5.741  2.1018  0.8094 -0.5340
  552MOL0     H76123   2.693   3.124   5.977 -1.5883 -1.4325  1.5563
  552MOL0     H76124   2.724   2.950   5.953 -0.3454  0.7520 -0.5018
  552MOL0     H76125   2.920   2.864   5.828 -1.0266 -0.8145  0.3510
  552MOL0     H76126   3.200   2.900   5.798 -2.1678 -1.0515 -1.1253
  552MOL0     H76127   3.259   3.064   5.767  0.2446 -0.0180  2.6013
  552MOL0     H76128   3.084   2.886   5.589  2.4476 -3.3500  1.6374
  552MOL0     H76129   3.156   3.044   5.542  0.0150  0.9660  0.5323
  552MOL0     H76130   3.266   2.770   5.611  2.0554  0.1745  0.4161
  552MOL0     H76131   3.265   2.854   5.454 -0.0046  0.8322 -0.6097
  552MOL0     H76132   3.458   2.989   5.518  1.3724  0.1548  1.9670
  552MOL0     H76133   3.437   2.947   5.689  2.1319  2.8999 -1.2350
  552MOL0     H76134   3.650   3.014   5.669 -1.2153 -0.7921 -0.5852
  552MOL0     H76135   3.933   3.176   5.639  0.7664  1.3411  2.6508
  552MOL0     H76136   3.992   3.068   5.766  2.0982  0.1077 -1.9523
  552MOL0     H76137   3.826   3.128   5.758 -1.4750 -1.6706 -1.1840
  552MOL0     H76138   4.344   2.725   5.327 -0.4278 -0.0918 -0.9465
  552MOL0     H76139   4.572   2.771   5.329 -0.3454  0.0108  0.4877
  552MOL0     H76140   4.808   2.784   5.365  1.4452  2.1109 -3.1684
  552MOL0     H76141   4.736   2.947   5.381  1.1941  1.3841  0.8299
  552MOL0     H76142   4.979   2.958   5.360 -2.0819 -0.4964 -1.0496
  552MOL0     H76143   4.918   3.019   5.515 -0.3651  1.1343 -0.1349
  552MOL0     H76144   5.093   2.792   5.446 -0.2327  2.0223  0.4031
  552MOL0     H76145   4.963   2.729   5.545 -0.4868 -0.9089 -1.7030
  552MOL0     H76146   5.040   2.908   5.722  0.3375 -0.5783  0.8271
  552MOL0     H76147   5.159   2.960   5.607  1.4310 -0.4815  0.3636
  552MOL0     H76148   5.147   2.667   5.704  0.2518 -1.3275 -2.4370
  552MOL0     H76149   5.275   2.744   5.607  0.5895  0.2166  0.6748
  552MOL0     H76150   5.231   2.792   5.905  1.1209  0.3972  0.4400
  552MOL0     H76151   5.300   2.919   5.803 -1.3994  0.0000  0.0443
  552MOL0     H76152   5.487   2.789   5.724  0.9530 -0.1927  0.0038
  552MOL0     H76153   5.433   2.647   5.800 -2.7690  0.4595 -2.6138
  552MOL0     H76154   5.458   2.722   6.019 -0.9915  0.2882 -1.3562
  552MOL0     H76155   5.475   2.892   5.964 -0.0922  0.6045  0.9681
  552MOL0     H76156   4.556   2.876   5.752  0.4338  0.7118 -0.9855
  552MOL0     H76157   4.302   2.839   5.734  2.3767 -0.3228  1.6141
  552MOL0     H76158   3.950   2.669   5.473 -2.7772 -1.2402 -1.6790
  552MOL0     H76159   3.696   2.649   5.466 -1.6065  0.1038  0.7846
  552MOL0     H76160   1.626   3.223   6.159 -0.9622 -0.2121  1.9428
  552MOL0     H76161   1.597   3.404   6.336  0.2945  0.3442  0.5294
  552MOL0     H76162   1.658   3.536   6.837 -1.7232 -0.0656 -2.6007
  552MOL0     H76163   1.697   3.697   7.014 -1.1596  0.4034 -0.9501
  552MOL0     H76164   1.800   4.041   7.144 -2.2029  1.4338 -1.6118
  552MOL0     H76165   1.679   3.906   7.124  0.5726 -3.0520 -1.8020
  552MOL0     H76166   1.874   3.750   7.158  0.5801 -0.0143  2.3822
  552MOL0     H76167   1.863   3.880   7.285  0.7263 -0.2244 -0.3134
  552MOL0     H76168   2.057   3.863   7.049  1.8009  2.9382 -0.4302
  552MOL0     H76169   2.033   4.005   7.153  1.2500 -0.6070  2.7851
  552MOL0     H76170   2.105   3.724   7.265 -1.0199  0.2961  0.5862
  552MOL0     H76171   2.105   3.865   7.360  0.9208 -2.2298  0.8835
  552MOL0     H76172   2.464   3.886   7.120  0.9913 -3.1352  0.5489
  552MOL0     H76173   1.883   3.962   6.712  1.1569 -0.0035  1.2727
  552MOL0     H76174   1.845   3.909   6.490  0.5010  0.1744 -1.8135
  552MOL0     H76175   1.933   3.750   6.473 -1.2316 -2.6639 -0.2199
  552MOL0     H76176   1.757   3.786   6.435 -0.0258  3.7100 -0.5178
  553MOL0     O76177   9.246  10.817   2.901  0.3466  0.1021 -0.4482
  553MOL0     C76178   9.286  10.832   3.017  1.2210  0.5473  0.0742
  553MOL0     O76179   9.316  10.952   3.076 -0.0543  0.2010 -0.7897
  553MOL0     C76180   9.347  11.060   2.997  0.7271  0.2924  0.2221
  553MOL0     C76181   9.425  11.050   2.888  0.1863  0.0997 -0.3698
  553MOL0     C76182   9.448  11.168   2.816 -0.2878  0.4009 -0.0300
  553MOL0     C76183   9.399  11.290   2.858  0.1402 -0.0610 -0.6121
  553MOL0     O76184   9.435  11.402   2.793 -0.3316 -0.5184 -0.5580
  553MOL0     C76185   9.349  11.520   2.791  1.0564 -0.3006  0.4913
  553MOL0     C76186   9.363  11.604   2.671  0.4298 -0.5656 -0.4773
  553MOL0     C76187   9.315  11.540   2.540  0.6584 -0.2926  0.4170
  553MOL0     C76188   9.331  11.632   2.419 -0.1877 -0.5961 -0.4517
  553MOL0     C76189   9.272  11.579   2.288  0.7510 -0.3310  0.6834
  553MOL0     C76190   9.294  11.665   2.168 -0.9539 -0.5565  0.4635
  553MOL0     C76191   9.437  11.718   2.146 -0.7489 -0.4134 -0.6296
  553MOL0     C76192   9.470  11.751   2.000  0.3063 -0.3070 -0.2146
  553MOL0     N76193   9.610  11.764   1.968 -0.3968 -0.1452 -0.3621
  553MOL0     C76194   9.699  11.854   2.036  0.0713 -0.1139 -0.2638
  553MOL0     C76195   9.823  11.812   2.001 -0.4240  0.6755  0.5319
  553MOL0     C76196   9.954  11.873   2.033  0.2249 -0.3943  0.3228
  553MOL0     C76197  10.064  11.837   1.932  0.3785  0.2780  0.1552
  553MOL0     C76198  10.208  11.867   1.983 -0.1149  0.5673 -0.0506
  553MOL0     C76199  10.234  12.019   1.993 -0.2841  0.0790 -0.0710
  553MOL0     O76200  10.154  12.093   2.090 -0.2896 -0.2485  0.9566
  553MOL0     C76201  10.178  12.217   2.144 -0.4418 -0.2988  0.5818
  553MOL0     C76202  10.071  12.295   2.191 -0.0685 -0.0972  0.1672
  553MOL0     C76203  10.095  12.426   2.222 -0.2787 -0.0266  0.2953
  553MOL0     C76204   9.978  12.510   2.270 -0.1663 -0.1976 -0.4428
  553MOL0     C76205  10.225  12.474   2.250  0.4854  0.6051  0.5903
  553MOL0     C76206  10.255  12.614   2.311 -0.2352  0.3431 -0.1698
  553MOL0     O76207  10.377  12.615   2.376  0.4923  0.1336  0.4505
  553MOL0     C76208  10.437  12.740   2.394  0.6026  0.4140  1.0178
  553MOL0     C76209  10.554  12.786   2.328 -0.1023  0.2612  0.3992
  553MOL0     C76210  10.606  12.913   2.360  0.0027 -1.0514  0.0240
  553MOL0     C76211  10.544  12.995   2.454 -0.4676 -0.6047 -0.1189
  553MOL0     O76212  10.603  13.117   2.471  0.7469 -0.0308 -0.0189
  553MOL0     C76213  10.625  13.152   2.608 -0.5255  1.2680  0.0642
  553MOL0     C76214  10.750  13.074   2.659  0.1398 -1.0539  0.0123
  553MOL0     C76215  10.789  13.122   2.794  0.0633  0.2595  0.4229
  553MOL0     C76216  10.911  13.055   2.846  0.6751  0.1790  0.1342
  553MOL0     C76217  11.044  13.106   2.788  1.1273 -0.7402 -0.1030
  553MOL0     C76218  11.174  13.063   2.864  0.7287 -0.3467  0.1446
  553MOL0     C76219  11.297  13.109   2.793 -0.0262  0.2344 -0.3394
  553MOL0     C76220  11.349  13.022   2.674  0.6047  0.1028  0.1726
  553MOL0    Cl76221  11.493  13.091   2.594 -0.3083 -0.1263  0.2869
  553MOL0     C76222  10.423  12.949   2.509 -0.2691 -0.6029 -1.2957
  553MOL0     C76223  10.374  12.823   2.484 -0.1240 -0.0210 -0.3545
  553MOL0     O76224  10.178  12.704   2.302  1.0246  0.4077  0.1878
  553MOL0     C76225  10.331  12.395   2.198 -0.3701 -0.5742 -0.2954
  553MOL0     C76226  10.306  12.272   2.140  0.0028  0.0889  0.5036
  553MOL0     N76227   9.809  11.695   1.920 -0.4700 -0.0065  0.1289
  553MOL0     N76228   9.688  11.673   1.901 -0.1096  0.3399  0.6549
  553MOL0     C76229   9.326  11.291   2.976  0.4831  0.0067 -0.4882
  553MOL0     C76230   9.295  11.175   3.048 -0.3633  0.0471 -0.2517
  553MOL0     C76231   9.307  10.713   3.101  0.0406 -0.7620 -0.0267
  553MOL0     C76232   9.211  10.607   3.091 -0.2058 -0.3281  0.3465
  553MOL0     C76233   9.217  10.493   3.169 -0.0636 -0.1640 -0.4817
  553MOL0     C76234   9.327  10.474   3.249 -0.0593 -0.3215 -0.3526
  553MOL0     O76235   9.366  10.361   3.314  0.1778  0.3783  0.0935
  553MOL0     C76236   9.303  10.238   3.264  0.3914 -0.4028 -0.2088
  553MOL0     C76237   9.348  10.116   3.352 -0.0315 -0.2579  0.5881
  553MOL0     C76238   9.332  10.137   3.503 -0.1107  0.9343  0.2262
  553MOL0     C76239   9.191  10.121   3.561 -0.2368  0.4109 -0.2741
  553MOL0     C76240   9.120   9.995   3.524 -0.6636  0.8154 -0.4142
  553MOL0     C76241   9.070   9.882   3.524 -0.2342 -0.2861  0.7934
  553MOL0     C76242   9.420  10.578   3.258 -0.3220 -1.2097 -0.2060
  553MOL0     C76243   9.416  10.702   3.182 -0.3722 -0.1148  0.0939
  553MOL0     C76244   9.533  10.800   3.180 -0.1793 -0.0638 -0.0242
  553MOL0     H76245   9.473  10.962   2.848  0.0420 -0.1065 -0.0892
  553MOL0     H76246   9.518  11.159   2.733  0.1748 -0.5047  0.4476
  553MOL0     H76247   9.379  11.590   2.871 -1.4491 -0.2029  1.4249
  553MOL0     H76248   9.249  11.484   2.815 -0.5467  2.5704 -1.3945
  553MOL0     H76249   9.309  11.698   2.684 -1.9342 -1.5074 -2.5874
  553MOL0     H76250   9.469  11.631   2.667  0.2798  0.4596  1.3009
  553MOL0     H76251   9.372  11.447   2.526 -0.2999 -0.7112 -0.9152
  553MOL0     H76252   9.213  11.501   2.549  1.0214 -1.4371 -0.2103
  553MOL0     H76253   9.286  11.726   2.450 -0.1358 -1.1786  1.5007
  553MOL0     H76254   9.434  11.666   2.402  0.1842 -0.9179  1.0356
  553MOL0     H76255   9.165  11.562   2.306  0.1901  1.1376 -1.0063
  553MOL0     H76256   9.304  11.479   2.258 -2.9559 -1.2066 -0.9885
  553MOL0     H76257   9.266  11.609   2.078 -0.2334  0.7830 -0.6296
  553MOL0     H76258   9.226  11.751   2.168 -0.4816 -0.1276 -1.8440
  553MOL0     H76259   9.500  11.634   2.178 -1.0352  0.1897  1.6813
  553MOL0     H76260   9.464  11.804   2.208 -0.8425 -1.6014  1.1166
  553MOL0     H76261   9.425  11.680   1.930  0.2772 -2.0475  1.4909
  553MOL0     H76262   9.421  11.847   1.979 -1.9733 -1.6335 -1.4435
  553MOL0     H76263   9.675  11.936   2.102  0.3697 -1.8399  2.1315
  553MOL0     H76264   9.999  11.848   2.129  0.7263  1.1887  0.5393
  553MOL0     H76265   9.940  11.982   2.032  2.3958 -0.0499  0.7693
  553MOL0     H76266  10.050  11.729   1.922 -1.2931  0.5652 -1.4411
  553MOL0     H76267  10.042  11.871   1.830 -0.5306  1.6315  0.7752
  553MOL0     H76268  10.239  11.821   2.078  1.4079  1.6960  0.0219
  553MOL0     H76269  10.281  11.829   1.912 -0.7094 -1.5630  0.3942
  553MOL0     H76270  10.334  12.032   2.036 -0.2127  1.0465 -0.5001
  553MOL0     H76271  10.222  12.066   1.895 -0.5917 -1.4639 -0.7924
  553MOL0     H76272   9.970  12.256   2.195 -2.0391  4.2867 -0.6548
  553MOL0     H76273   9.968  12.609   2.224  1.4984  0.8257  1.2848
  553MOL0     H76274  10.001  12.539   2.373 -0.5384  0.0668 -0.4316
  553MOL0     H76275   9.881  12.460   2.261 -0.2439 -0.0227 -0.5955
  553MOL0     H76276  10.611  12.727   2.257  0.7630 -1.8900  2.7316
  553MOL0     H76277  10.696  12.945   2.308  0.3323  2.6620  2.4801
  553MOL0     H76278  10.635  13.259   2.626 -3.1333  1.3212  1.5382
  553MOL0     H76279  10.533  13.133   2.663  0.0198 -0.1110  0.5425
  553MOL0     H76280  10.734  12.966   2.668  1.4070 -1.0885  3.1293
  553MOL0     H76281  10.839  13.095   2.599 -0.1258 -1.4851 -0.5399
  553MOL0     H76282  10.706  13.104   2.863 -2.4956  2.4944 -1.8477
  553MOL0     H76283  10.813  13.229   2.798  1.9562 -0.0647 -0.8963
  553MOL0     H76284  10.920  12.946   2.834  0.2525 -0.0525  1.7141
  553MOL0     H76285  10.921  13.065   2.955  3.0418  0.0727 -0.0125
  553MOL0     H76286  11.051  13.059   2.690 -0.7482 -2.5867  0.5635
  553MOL0     H76287  11.042  13.213   2.767 -0.5728 -0.9812 -1.3624
  553MOL0     H76288  11.179  12.956   2.887 -3.0932 -0.7545 -0.2948
  553MOL0     H76289  11.181  13.125   2.954 -1.9867 -0.4921  0.5181
  553MOL0     H76290  11.374  13.125   2.870  0.8763  3.2870 -1.7306
  553MOL0     H76291  11.284  13.208   2.749  2.8858  0.8530 -0.0766
  553MOL0     H76292  11.273  13.006   2.597  3.1443  1.4946 -2.8111
  553MOL0     H76293  11.361  12.923   2.719 -0.8787 -0.7625 -1.2539
  553MOL0     H76294  10.377  13.012   2.585  0.5814 -0.8864 -0.5254
  553MOL0     H76295  10.285  12.787   2.534 -0.7308 -0.2093 -1.5509
  553MOL0     H76296  10.431  12.431   2.215 -0.7040 -0.0608  0.6691
  553MOL0     H76297  10.381  12.210   2.092 -1.3032 -2.3396  1.4696
  553MOL0     H76298   9.289  11.380   3.026  0.1021  0.6187 -1.8215
  553MOL0     H76299   9.235  11.169   3.139  4.8048 -0.5260  3.5926
  553MOL0     H76300   9.114  10.618   3.043 -0.7618  0.9984  1.7023
  553MOL0     H76301   9.139  10.418   3.173  0.0115 -0.1719  1.4963
  553MOL0     H76302   9.196  10.253   3.278  0.3003  1.1806 -2.1416
  553MOL0     H76303   9.332  10.216   3.160  1.8171  0.1452  0.0537
  553MOL0     H76304   9.455  10.104   3.338  0.1810  1.0280  0.9809
  553MOL0     H76305   9.303  10.022   3.318  2.9579 -1.6216  0.0575
  553MOL0     H76306   9.398  10.063   3.549 -0.0566  0.8303 -0.0171
  553MOL0     H76307   9.376  10.232   3.535 -1.9941  0.7490  3.7977
  553MOL0     H76308   9.145  10.208   3.512  0.3790  0.9489  0.0930
  553MOL0     H76309   9.195  10.139   3.669 -0.3713 -1.3127  0.0359
  553MOL0     H76310   9.038   9.782   3.544 -0.8120 -0.1607  0.5110
  553MOL0     H76311   9.511  10.579   3.317  1.1457 -2.0168 -2.3047
  553MOL0     H76312   9.511  10.887   3.242  1.3158 -0.8795  1.7599
  553MOL0     H76313   9.625  10.765   3.227  1.0335  2.2139 -0.5508
  553MOL0     H76314   9.564  10.817   3.076  0.5131 -0.1831  0.1590
  554MOL0     O76315   0.804   8.529   1.411 -0.0154  0.8140 -0.7714
  554MOL0     C76316   0.753   8.416   1.416  0.1454  0.2374  0.8964
  554MOL0     O76317   0.646   8.379   1.332 -0.0670 -0.5650  0.3834
  554MOL0     C76318   0.586   8.477   1.265  0.2796 -0.2539 -0.1350
  554MOL0     C76319   0.497   8.571   1.327  0.2734 -0.0809 -0.2901
  554MOL0     C76320   0.443   8.669   1.241  0.3186 -0.4899 -0.0689
  554MOL0     C76321   0.478   8.681   1.104 -0.6747 -0.4951  0.3049
  554MOL0     O76322   0.430   8.783   1.021 -0.4830  0.8384 -0.2310
  554MOL0     C76323   0.299   8.838   1.035  0.3773  0.3613  0.0383
  554MOL0     C76324   0.221   8.833   0.898  0.3181  0.0604 -0.1552
  554MOL0     C76325   0.082   8.901   0.899 -0.1599 -0.2833  0.1609
  554MOL0     C76326   0.005   8.861   0.770 -0.2471 -0.4880 -0.5282
  554MOL0     C76327  -0.133   8.922   0.781  0.7970 -0.1452  0.0771
  554MOL0     C76328  -0.220   8.885   0.662 -0.4706 -0.5364  1.0162
  554MOL0     C76329  -0.353   8.957   0.677 -0.3165  0.1582  0.1020
  554MOL0     C76330  -0.449   8.905   0.573 -0.1600 -0.3611 -1.1512
  554MOL0     N76331  -0.410   8.959   0.433  0.1496 -0.6994  0.6883
  554MOL0     C76332  -0.396   9.091   0.391 -0.7253  0.8435 -1.1005
  554MOL0     C76333  -0.340   9.091   0.265  0.1324  0.4206 -0.3768
  554MOL0     C76334  -0.308   9.200   0.162 -0.6730  0.6572  0.1727
  554MOL0     C76335  -0.172   9.191   0.091 -0.4236  0.0337  0.5838
  554MOL0     C76336  -0.167   9.245  -0.053  0.6499  0.5642  0.3358
  554MOL0     C76337  -0.031   9.240  -0.123  0.5639 -1.1236  0.1614
  554MOL0     O76338   0.062   9.313  -0.042  0.3803  0.2548 -0.1943
  554MOL0     C76339   0.190   9.329  -0.092 -0.3249 -0.2326  0.2230
  554MOL0     C76340   0.269   9.425  -0.038  0.2522  0.0728 -0.9479
  554MOL0     C76341   0.397   9.457  -0.084  0.4974 -0.4504 -0.5436
  554MOL0     C76342   0.480   9.550  -0.002 -0.5436 -0.6752  0.1279
  554MOL0     C76343   0.451   9.391  -0.204  0.2348 -0.3821  0.6574
  554MOL0     C76344   0.594   9.405  -0.252 -0.0018 -0.7273  0.4493
  554MOL0     O76345   0.637   9.312  -0.353 -0.0403 -0.6580  0.0814
  554MOL0     C76346   0.766   9.280  -0.358  0.0924  0.4456  0.1693
  554MOL0     C76347   0.849   9.328  -0.462  1.4891 -0.7225 -0.8268
  554MOL0     C76348   0.982   9.285  -0.470 -0.4036  0.2610 -0.0946
  554MOL0     C76349   1.041   9.213  -0.372  0.4782 -0.3703 -0.3484
  554MOL0     O76350   1.171   9.192  -0.384 -0.1071 -0.3259 -0.0800
  554MOL0     C76351   1.248   9.101  -0.300  0.0534 -0.2109  0.1054
  554MOL0     C76352   1.394   9.109  -0.345  0.9207 -0.2854 -0.2118
  554MOL0     C76353   1.477   8.995  -0.289  0.3631  0.9087  0.1368
  554MOL0     C76354   1.614   8.985  -0.360  0.6985 -0.5265  0.5773
  554MOL0     C76355   1.699   8.869  -0.310  0.3115  0.5500  0.1213
  554MOL0     C76356   1.839   8.869  -0.370 -0.4263 -1.1510  0.8247
  554MOL0     C76357   1.905   8.738  -0.360  0.0632  0.3949  0.0713
  554MOL0     C76358   2.007   8.712  -0.470  0.8261 -0.2258  0.0326
  554MOL0    Cl76359   2.093   8.557  -0.437  0.0861 -0.3293  0.0063
  554MOL0     C76360   0.966   9.170  -0.263  1.0053 -0.4720  0.7129
  554MOL0     C76361   0.824   9.199  -0.258  0.6757 -0.3439  0.7882
  554MOL0     O76362   0.675   9.482  -0.201 -0.3137  0.5274  0.5035
  554MOL0     C76363   0.365   9.294  -0.262  0.5045 -0.2183  0.0733
  554MOL0     C76364   0.239   9.268  -0.203  0.2951  0.2244  0.4149
  554MOL0     N76365  -0.309   8.959   0.243 -0.2257 -0.0654 -0.3319
  554MOL0     N76366  -0.359   8.882   0.333  0.6883 -0.5092 -0.0961
  554MOL0     C76367   0.576   8.600   1.057 -0.1460 -0.4811  0.4033
  554MOL0     C76368   0.617   8.488   1.131 -0.1182  0.3065  0.1148
  554MOL0     C76369   0.803   8.320   1.519 -0.4003  0.1809 -0.0664
  554MOL0     C76370   0.885   8.373   1.618 -0.6292  0.2567 -0.1607
  554MOL0     C76371   0.915   8.296   1.733  0.1223  0.0334 -0.5935
  554MOL0     C76372   0.880   8.157   1.744 -0.7164  0.4343  0.2620
  554MOL0     O76373   0.902   8.099   1.869  0.5637  0.3626 -0.1062
  554MOL0     C76374   0.875   7.961   1.880 -0.0361  0.5831  0.1087
  554MOL0     C76375   0.963   7.895   1.987 -0.2577 -1.3557 -0.3295
  554MOL0     C76376   0.924   7.924   2.136 -0.1371  0.5411  0.3765
  554MOL0     C76377   1.017   7.855   2.227 -0.0123 -0.2882 -0.2847
  554MOL0     C76378   0.977   7.892   2.365 -0.0082 -0.5283  0.4223
  554MOL0     C76379   0.950   7.914   2.479  0.5943 -1.1650 -0.0530
  554MOL0     C76380   0.803   8.097   1.644  0.4698 -0.4708  0.9931
  554MOL0     C76381   0.769   8.179   1.530  0.0329 -0.7104  0.2232
  554MOL0     C76382   0.700   8.096   1.427  0.0009 -0.4921  0.4652
  554MOL0     H76383   0.484   8.570   1.435  2.3564  3.5093  0.1606
  554MOL0     H76384   0.375   8.739   1.290 -0.2011 -0.8572 -0.2556
  554MOL0     H76385   0.310   8.945   1.056 -2.4996  0.7544 -0.0163
  554MOL0     H76386   0.235   8.786   1.107  0.7686 -2.4327 -1.5082
  554MOL0     H76387   0.292   8.874   0.824  1.9161  0.3793  1.4787
  554MOL0     H76388   0.208   8.729   0.868  0.9290 -0.1478  0.2705
  554MOL0     H76389   0.026   8.864   0.986 -0.7008 -0.7164 -0.3598
  554MOL0     H76390   0.090   9.009   0.907 -0.5847 -0.3466  1.9625
  554MOL0     H76391   0.059   8.897   0.682 -0.8304 -0.8411 -1.0426
  554MOL0     H76392  -0.003   8.752   0.758 -0.9057 -0.2664 -2.2634
  554MOL0     H76393  -0.110   9.029   0.774  0.3525 -0.1614 -4.4649
  554MOL0     H76394  -0.182   8.888   0.873 -0.5532 -1.0378 -0.9439
  554MOL0     H76395  -0.162   8.921   0.576  0.8558  0.4688  2.2865
  554MOL0     H76396  -0.236   8.777   0.656 -0.2518 -0.4955 -1.0450
  554MOL0     H76397  -0.338   9.063   0.654 -1.4478  0.6345  1.4559
  554MOL0     H76398  -0.388   8.944   0.780  0.2166  1.2594  0.4382
  554MOL0     H76399  -0.461   8.797   0.587  3.9049 -0.6498  1.8439
  554MOL0     H76400  -0.551   8.945   0.581  0.4237  1.9321 -3.7179
  554MOL0     H76401  -0.422   9.180   0.446 -0.7938  1.2709 -1.8118
  554MOL0     H76402  -0.314   9.296   0.214 -0.5348 -0.5461  2.5457
  554MOL0     H76403  -0.380   9.194   0.080  0.7811  2.7862 -1.3863
  554MOL0     H76404  -0.099   9.254   0.144  2.0112 -2.3507  0.2609
  554MOL0     H76405  -0.133   9.091   0.110 -0.5922  0.4324  3.4011
  554MOL0     H76406  -0.240   9.191  -0.114  0.5112  0.3912  0.6530
  554MOL0     H76407  -0.192   9.351  -0.049 -1.1535  0.2157 -0.7789
  554MOL0     H76408   0.005   9.137  -0.130  0.1921 -1.4132  2.0280
  554MOL0     H76409  -0.050   9.280  -0.224 -2.1424 -1.8355  0.3244
  554MOL0     H76410   0.226   9.481   0.044 -3.3177  1.0254 -3.2437
  554MOL0     H76411   0.489   9.644  -0.057 -1.8914  0.6747  2.0559
  554MOL0     H76412   0.571   9.498   0.031 -2.3659 -2.3349  2.9541
  554MOL0     H76413   0.417   9.569   0.085 -1.0066  1.6165 -0.6507
  554MOL0     H76414   0.810   9.391  -0.541  0.7271 -0.4789 -0.2644
  554MOL0     H76415   1.030   9.324  -0.559  0.4345 -1.8073 -0.5844
  554MOL0     H76416   1.252   9.133  -0.196  0.5487 -0.9658  0.3279
  554MOL0     H76417   1.213   8.997  -0.292  0.3465 -0.2804  0.4908
  554MOL0     H76418   1.392   9.115  -0.455  3.9037 -0.9494 -0.3837
  554MOL0     H76419   1.421   9.207  -0.305 -0.7677 -0.2226  0.8325
  554MOL0     H76420   1.429   8.897  -0.290  0.1152  1.0166  1.0301
  554MOL0     H76421   1.499   9.014  -0.184 -0.4152 -1.2230  0.7352
  554MOL0     H76422   1.660   9.084  -0.353 -0.9743  0.5757 -2.1127
  554MOL0     H76423   1.602   8.980  -0.469  1.6532 -3.7212  0.5095
  554MOL0     H76424   1.696   8.863  -0.201  0.1599 -2.8974  0.0242
  554MOL0     H76425   1.644   8.779  -0.339 -0.7528  0.4002  2.4150
  554MOL0     H76426   1.903   8.942  -0.321  1.7528 -0.4976 -2.6320
  554MOL0     H76427   1.833   8.908  -0.472 -0.2704  2.0007  1.9060
  554MOL0     H76428   1.834   8.655  -0.349  2.1396 -1.5166 -0.2691
  554MOL0     H76429   1.956   8.738  -0.263  0.2618 -0.4352 -0.0302
  554MOL0     H76430   2.083   8.790  -0.464  0.0027  0.5020  2.1135
  554MOL0     H76431   1.950   8.696  -0.562  0.1553 -1.0799  0.5706
  554MOL0     H76432   1.010   9.122  -0.176 -1.0819 -0.9117  1.5942
  554MOL0     H76433   0.763   9.163  -0.177 -3.1479  2.3537 -0.6292
  554MOL0     H76434   0.393   9.234  -0.349 -1.6629  0.7454 -1.3864
  554MOL0     H76435   0.188   9.184  -0.249  1.8751 -0.0935 -0.8722
  554MOL0     H76436   0.631   8.635   0.970 -1.2499  2.9984  0.9548
  554MOL0     H76437   0.691   8.421   1.089 -0.0693  1.0658 -1.0464
  554MOL0     H76438   0.919   8.476   1.621  1.3181 -0.3922  1.3972
  554MOL0     H76439   0.982   8.335   1.809 -0.9937 -0.2740  0.5972
  554MOL0     H76440   0.771   7.947   1.912 -0.0030 -2.7850 -0.8548
  554MOL0     H76441   0.906   7.911   1.788  0.2924  3.5977 -1.5481
  554MOL0     H76442   1.067   7.922   1.969 -0.2854 -1.1716 -0.2184
  554MOL0     H76443   0.965   7.786   1.979 -1.5832 -1.6605  2.3057
  554MOL0     H76444   0.903   8.031   2.151 -0.5933  0.6319 -0.7948
  554MOL0     H76445   0.828   7.880   2.164  0.2023  0.6471  1.8044
  554MOL0     H76446   1.123   7.876   2.212 -0.2484 -1.2346 -5.1990
  554MOL0     H76447   1.004   7.747   2.213  0.4749 -0.1768 -1.7440
  554MOL0     H76448   0.914   7.938   2.577 -0.7504  0.1532 -0.8212
  554MOL0     H76449   0.771   7.994   1.641 -2.9865  0.4888 -0.2336
  554MOL0     H76450   0.753   8.001   1.428  1.9898  0.5579  0.4938
  554MOL0     H76451   0.595   8.079   1.453 -0.0785 -0.2611  0.3024
  554MOL0     H76452   0.719   8.134   1.326  0.5454  0.9388  1.0814
  555MOL0     O76453  10.341   6.730   5.035  0.6768 -0.2206 -0.0316
  555MOL0     C76454  10.327   6.635   4.958  1.0030  0.5228 -0.0016
  555MOL0     O76455  10.428   6.590   4.883  0.3891 -0.1330 -0.2021
  555MOL0     C76456  10.536   6.662   4.861 -0.4095 -0.7712  0.1756
  555MOL0     C76457  10.558   6.809   4.853 -0.9567  0.9750 -0.1656
  555MOL0     C76458  10.672   6.859   4.794 -0.0538  0.4563 -0.4387
  555MOL0     C76459  10.778   6.774   4.761  0.0438 -0.0105  0.0783
  555MOL0     O76460  10.884   6.841   4.693 -0.4024  0.1192 -0.0673
  555MOL0     C76461  10.978   6.763   4.617  0.0754  1.0173  0.7084
  555MOL0     C76462  11.077   6.684   4.708  0.0883 -0.1471  0.2189
  555MOL0     C76463  11.213   6.756   4.731 -0.4379  0.7001 -0.1227
  555MOL0     C76464  11.282   6.712   4.860  0.0342  0.4995 -0.5198
  555MOL0     C76465  11.429   6.770   4.871 -0.2479  0.1143  0.0711
  555MOL0     C76466  11.422   6.921   4.899  0.1441 -0.4762  0.0686
  555MOL0     C76467  11.555   6.986   4.938  0.7304 -0.2552  0.3229
  555MOL0     C76468  11.662   6.986   4.830  0.1249 -0.1130 -0.6112
  555MOL0     N76469  11.791   7.003   4.894 -0.1281  0.5591 -0.0850
  555MOL0     C76470  11.825   7.121   4.956 -0.0905 -0.0501  0.6499
  555MOL0     C76471  11.956   7.116   4.980 -0.1215  0.5422  0.0514
  555MOL0     C76472  12.049   7.227   5.037 -0.2623  0.3681  0.2471
  555MOL0     C76473  12.077   7.216   5.188 -0.6240 -0.4806  0.0398
  555MOL0     C76474  11.968   7.266   5.286  0.5705  0.5563 -0.3240
  555MOL0     C76475  11.928   7.413   5.281 -0.3166  0.1084  0.3518
  555MOL0     O76476  11.841   7.434   5.166 -0.2049  0.4177  0.7989
  555MOL0     C76477  11.707   7.388   5.167  0.8219 -0.6392  0.5697
  555MOL0     C76478  11.639   7.325   5.270  0.4588 -0.1626 -0.2569
  555MOL0     C76479  11.507   7.277   5.257  0.3791 -0.6772 -0.1301
  555MOL0     C76480  11.444   7.203   5.374 -0.2040 -1.1565  0.6241
  555MOL0     C76481  11.437   7.306   5.128  0.3932  0.3274  0.2307
  555MOL0     C76482  11.289   7.266   5.096  0.3727  0.5746  0.1661
  555MOL0     O76483  11.245   7.276   4.966 -0.0230 -0.4260 -0.5227
  555MOL0     C76484  11.110   7.266   4.955 -0.6266  0.0384  0.3121
  555MOL0     C76485  11.060   7.134   4.930  0.4357  0.8092  0.4339
  555MOL0     C76486  10.921   7.114   4.931 -0.3922  0.3838  0.6480
  555MOL0     C76487  10.830   7.214   4.949  0.3052  0.3081  0.1386
  555MOL0     O76488  10.694   7.183   4.935 -0.6616 -0.6599  0.0136
  555MOL0     C76489  10.607   7.295   4.951 -0.0455 -0.0022 -0.0315
  555MOL0     C76490  10.475   7.243   4.977 -0.1653 -0.3725  0.5531
  555MOL0     C76491  10.364   7.326   4.914  0.8280 -1.2873  0.0119
  555MOL0     C76492  10.337   7.455   4.979 -0.0573  0.0781 -0.7347
  555MOL0     C76493  10.219   7.529   4.920  0.1056 -0.5775 -0.5741
  555MOL0     C76494  10.188   7.654   4.990  0.0697 -0.3334  0.2682
  555MOL0     C76495  10.077   7.737   4.915 -0.6316  0.1410 -0.7090
  555MOL0     C76496  10.010   7.831   5.022  0.2380 -0.0589 -0.3477
  555MOL0    Cl76497   9.908   7.957   4.943 -0.1642 -0.0418 -0.3073
  555MOL0     C76498  10.888   7.344   4.966  0.0818  0.6024 -0.1004
  555MOL0     C76499  11.025   7.368   4.963 -0.1247  0.7366 -0.3532
  555MOL0     O76500  11.218   7.244   5.192  0.3927  0.2282 -0.1403
  555MOL0     C76501  11.506   7.371   5.024  0.9701 -0.1268  0.1130
  555MOL0     C76502  11.639   7.412   5.050  0.4702 -0.0582 -0.4074
  555MOL0     N76503  12.000   6.989   4.938 -0.7506  0.3143  0.0380
  555MOL0     N76504  11.896   6.922   4.887 -0.2828 -0.5551 -0.5112
  555MOL0     C76505  10.755   6.636   4.768 -1.1011 -0.5872  0.3648
  555MOL0     C76506  10.644   6.588   4.821  0.2218 -0.4193 -0.1544
  555MOL0     C76507  10.189   6.582   4.939 -0.8008 -0.6205 -0.1775
  555MOL0     C76508  10.164   6.528   4.812 -0.7648  1.3087  0.0525
  555MOL0     C76509  10.034   6.470   4.784 -0.8433 -1.3259  0.7938
  555MOL0     C76510   9.923   6.486   4.866 -0.1948 -0.6672 -0.0282
  555MOL0     O76511   9.798   6.442   4.840  0.0150 -0.2102 -0.1790
  555MOL0     C76512   9.760   6.327   4.919  0.6867  0.5974 -0.1201
  555MOL0     C76513   9.608   6.316   4.938 -1.1107  0.2855 -0.0007
  555MOL0     C76514   9.567   6.378   5.073 -0.0054 -0.3687  0.2135
  555MOL0     C76515   9.417   6.393   5.081 -0.0467 -0.0721  0.6893
  555MOL0     C76516   9.362   6.257   5.096  0.0432  0.3176 -0.1141
  555MOL0     C76517   9.330   6.142   5.095  0.0860 -0.0359 -0.1722
  555MOL0     C76518   9.953   6.558   4.988 -0.1457  0.8068  0.4896
  555MOL0     C76519  10.083   6.602   5.029 -0.0432  0.4022  0.2495
  555MOL0     C76520  10.102   6.671   5.164 -0.0812 -0.1143  0.4173
  555MOL0     H76521  10.477   6.876   4.879 -1.0917  0.3547  1.0920
  555MOL0     H76522  10.674   6.967   4.787  2.5027  0.5237  0.3062
  555MOL0     H76523  11.032   6.819   4.540 -1.0761 -0.7779 -1.5201
  555MOL0     H76524  10.920   6.690   4.560  1.7089 -0.7581  1.2192
  555MOL0     H76525  11.025   6.664   4.802  0.9005  1.8821  1.1458
  555MOL0     H76526  11.088   6.587   4.658 -1.0000  1.2609 -3.0775
  555MOL0     H76527  11.282   6.721   4.654 -0.9006  1.1554 -0.7604
  555MOL0     H76528  11.190   6.863   4.737 -1.3063  0.4352  2.8541
  555MOL0     H76529  11.223   6.734   4.949  0.5840 -0.0560 -0.0031
  555MOL0     H76530  11.285   6.603   4.852 -0.6610  0.4581 -0.2415
  555MOL0     H76531  11.483   6.761   4.776  2.4693  1.0395  1.4280
  555MOL0     H76532  11.480   6.713   4.949 -0.0854 -0.5758 -0.5193
  555MOL0     H76533  11.380   6.966   4.809  2.0870  0.9024 -0.2262
  555MOL0     H76534  11.346   6.941   4.975 -0.5968  0.0495 -0.8018
  555MOL0     H76535  11.598   6.925   5.018 -1.8219 -1.3509  0.9622
  555MOL0     H76536  11.534   7.088   4.970  0.4893 -0.6211  1.3539
  555MOL0     H76537  11.657   6.884   4.791 -1.8341  0.7006 -2.6903
  555MOL0     H76538  11.638   7.066   4.760 -0.2988 -1.4404 -2.0511
  555MOL0     H76539  11.764   7.211   4.956  2.3070  1.6929 -0.5875
  555MOL0     H76540  12.000   7.320   5.008  0.4941  0.4902 -0.6912
  555MOL0     H76541  12.144   7.219   4.984 -2.1718 -2.8697 -3.1282
  555MOL0     H76542  12.101   7.113   5.216 -0.0368 -0.5440 -0.6753
  555MOL0     H76543  12.177   7.253   5.210  0.0163 -2.5625  0.8939
  555MOL0     H76544  11.877   7.209   5.262 -0.2163  1.9562 -0.7679
  555MOL0     H76545  11.989   7.243   5.391  0.1583  0.0709 -0.3413
  555MOL0     H76546  11.869   7.436   5.370 -0.5736  0.5787  0.0642
  555MOL0     H76547  12.017   7.476   5.278 -0.2676  0.0076 -1.7908
  555MOL0     H76548  11.680   7.296   5.366  0.7827 -1.6959 -0.8340
  555MOL0     H76549  11.502   7.223   5.464  1.5875  1.1889 -0.9386
  555MOL0     H76550  11.442   7.097   5.347 -1.9969 -0.5910 -1.9022
  555MOL0     H76551  11.338   7.228   5.388 -0.1731 -0.2717 -0.5794
  555MOL0     H76552  11.125   7.048   4.942 -2.7945 -1.5907  2.2728
  555MOL0     H76553  10.893   7.009   4.931  0.2402  0.0537  4.4850
  555MOL0     H76554  10.635   7.369   5.026 -0.6411  0.8031 -0.5881
  555MOL0     H76555  10.605   7.344   4.853  2.5343 -0.3653 -0.3289
  555MOL0     H76556  10.471   7.145   4.929 -1.2169  0.0625 -0.3098
  555MOL0     H76557  10.460   7.242   5.085  2.1324 -1.7897  0.9166
  555MOL0     H76558  10.266   7.278   4.922 -1.5230  2.5174 -2.3672
  555MOL0     H76559  10.396   7.337   4.810  1.9666 -1.2117  0.3608
  555MOL0     H76560  10.421   7.524   4.965  0.2434 -0.3544 -1.0595
  555MOL0     H76561  10.334   7.446   5.088  2.6212 -0.9397 -0.6636
  555MOL0     H76562  10.237   7.539   4.812 -4.1466 -0.0973 -1.3838
  555MOL0     H76563  10.134   7.462   4.930  0.5128 -0.9034  0.8610
  555MOL0     H76564  10.277   7.717   4.990 -1.0401  1.3478  1.5814
  555MOL0     H76565  10.165   7.638   5.096  3.9411  1.5673  1.5633
  555MOL0     H76566  10.003   7.670   4.871 -2.6818  1.7657  0.0582
  555MOL0     H76567  10.127   7.786   4.831  0.2398  2.1751  0.8984
  555MOL0     H76568  10.081   7.883   5.087 -0.8347 -0.2737  1.0207
  555MOL0     H76569   9.943   7.777   5.089 -0.4768 -0.8238 -1.6517
  555MOL0     H76570  10.826   7.429   4.988  0.6288  0.6887  1.1790
  555MOL0     H76571  11.067   7.464   4.991 -0.0603  0.5124  0.3477
  555MOL0     H76572  11.472   7.403   4.926  2.4694  2.7390  0.3909
  555MOL0     H76573  11.680   7.479   4.976 -0.6173  1.4834  0.3247
  555MOL0     H76574  10.827   6.568   4.724  0.4792  0.8450  0.6290
  555MOL0     H76575  10.640   6.480   4.831 -1.2421 -0.5663 -1.9121
  555MOL0     H76576  10.240   6.518   4.735  0.6817  0.3826  1.5389
  555MOL0     H76577  10.017   6.419   4.689 -1.1504  0.3382 -0.0756
  555MOL0     H76578   9.787   6.240   4.859 -0.3961 -0.2172  0.5235
  555MOL0     H76579   9.817   6.322   5.012 -0.2816 -0.2485  0.4502
  555MOL0     H76580   9.592   6.207   4.942  3.4348 -0.5549  0.0530
  555MOL0     H76581   9.554   6.355   4.851 -4.0480  0.2099  1.6353
  555MOL0     H76582   9.612   6.318   5.151  2.0347  1.8253  0.8479
  555MOL0     H76583   9.613   6.477   5.077  0.5521 -0.6780  1.6673
  555MOL0     H76584   9.387   6.447   4.991  0.2114  0.6206  1.0183
  555MOL0     H76585   9.372   6.441   5.168 -1.8932  0.5965 -0.5795
  555MOL0     H76586   9.307   6.038   5.081 -2.2022  0.1521  1.5648
  555MOL0     H76587   9.866   6.577   5.049 -0.6985  1.4050 -0.4623
  555MOL0     H76588  10.098   6.780   5.165  2.2507  0.0098  1.5510
  555MOL0     H76589  10.025   6.636   5.234 -1.3151 -0.8019 -1.2024
  555MOL0     H76590  10.198   6.645   5.209  0.7374  1.2439 -0.4885
  556MOL0     O76591  10.648   0.286   6.746  0.4927  0.7617 -0.1661
  556MOL0     C76592  10.626   0.335   6.633 -0.3860 -0.0742 -0.6850
  556MOL0     O76593  10.700   0.311   6.527  0.0244 -1.0940  0.3225
  556MOL0     C76594  10.830   0.265   6.541  0.7386 -0.0221  1.1451
  556MOL0     C76595  10.864   0.142   6.596  0.7263 -0.3088 -0.6415
  556MOL0     C76596  11.001   0.096   6.592  0.9514 -1.1377  0.3103
  556MOL0     C76597  11.090   0.168   6.533 -0.0068 -0.1975  0.1644
  556MOL0     O76598  11.218   0.123   6.528  0.6019 -0.0466 -0.2290
  556MOL0     C76599  11.315   0.187   6.613  0.0759  0.4137  0.0522
  556MOL0     C76600  11.448   0.144   6.559  0.2094 -0.4771 -0.1627
  556MOL0     C76601  11.559   0.217   6.638  0.4055  0.8270 -0.2819
  556MOL0     C76602  11.694   0.160   6.600 -1.0415 -0.4787  0.3316
  556MOL0     C76603  11.816   0.241   6.652  0.3439  0.4562  0.6913
  556MOL0     C76604  11.826   0.246   6.801  0.1740  0.1368 -0.4302
  556MOL0     C76605  11.970   0.291   6.836  0.5168  0.1299  0.3523
  556MOL0     C76606  11.983   0.349   6.973  0.1642 -0.1527  0.0233
  556MOL0     N76607  12.127   0.362   7.015 -0.1323 -0.1790 -0.5437
  556MOL0     C76608  12.219   0.439   6.951 -0.4562 -0.3513  0.3310
  556MOL0     C76609  12.333   0.446   7.032 -0.1642 -0.6111 -0.2057
  556MOL0     C76610  12.470   0.504   6.997 -0.0476 -0.2100  0.1417
  556MOL0     C76611  12.559   0.502   7.122  0.6122  0.9718  1.4175
  556MOL0     C76612  12.709   0.501   7.092  0.7509 -0.8149 -0.4835
  556MOL0     C76613  12.750   0.629   7.017 -0.8100  0.3005  0.7270
  556MOL0     O76614  12.897   0.630   7.019 -0.6607 -0.6110 -0.0626
  556MOL0     C76615  12.962   0.752   6.996 -0.4519  0.3788  0.2404
  556MOL0     C76616  12.919   0.840   6.899 -0.5552  0.4949 -0.0710
  556MOL0     C76617  12.995   0.939   6.851 -0.5215 -0.4597  0.4523
  556MOL0     C76618  12.932   1.030   6.744 -0.7618 -1.1467  0.4290
  556MOL0     C76619  13.125   0.963   6.901  0.8562 -0.3174 -0.7218
  556MOL0     C76620  13.225   1.076   6.868 -0.0533 -0.2328  0.2735
  556MOL0     O76621  13.358   1.059   6.915 -0.7596 -0.2800  0.0988
  556MOL0     C76622  13.446   1.167   6.933  0.5197  0.8105  0.7216
  556MOL0     C76623  13.584   1.134   6.920 -0.1495  0.3882  0.3066
  556MOL0     C76624  13.680   1.238   6.945  0.1927  0.5652  0.6137
  556MOL0     C76625  13.641   1.371   6.971  0.9010 -0.4699 -0.5550
  556MOL0     O76626  13.741   1.452   7.012  0.3973 -0.2729  0.2461
  556MOL0     C76627  13.705   1.589   7.033 -0.9617 -0.3109  0.6108
  556MOL0     C76628  13.836   1.671   7.069  0.3432 -0.5087 -0.1827
  556MOL0     C76629  13.930   1.690   6.945  0.4380 -0.1518  1.0651
  556MOL0     C76630  13.856   1.772   6.839 -0.1575 -0.0005 -1.0664
  556MOL0     C76631  13.951   1.810   6.727  0.4058 -0.2318 -1.1520
  556MOL0     C76632  14.057   1.918   6.771  0.3654  0.8136  0.4503
  556MOL0     C76633  14.145   1.957   6.646 -0.4362  0.4602 -0.4436
  556MOL0     C76634  14.250   2.064   6.685 -0.2039  0.0944 -0.1068
  556MOL0    Cl76635  14.405   2.049   6.607 -0.6660  0.1884 -0.1415
  556MOL0     C76636  13.499   1.400   6.972  0.1455  0.4759  0.0553
  556MOL0     C76637  13.401   1.300   6.959  0.0778 -0.6175 -0.1251
  556MOL0     O76638  13.180   1.175   6.805 -0.4596  0.0453 -0.3183
  556MOL0     C76639  13.158   0.888   7.021 -0.3147 -0.4498 -0.1553
  556MOL0     C76640  13.078   0.783   7.060  0.4860  0.4567  0.5484
  556MOL0     N76641  12.299   0.370   7.142 -0.7281  0.1121 -1.1408
  556MOL0     N76642  12.179   0.322   7.134 -0.1295  0.4213 -0.2118
  556MOL0     C76643  11.062   0.292   6.477 -0.4147  0.3123  0.3589
  556MOL0     C76644  10.933   0.341   6.476 -0.2746 -0.0003 -0.5829
  556MOL0     C76645  10.508   0.424   6.613  0.8651  0.6457  0.5167
  556MOL0     C76646  10.412   0.420   6.713  0.1623 -0.5020 -0.3911
  556MOL0     C76647  10.301   0.504   6.723  0.2748  0.2547 -0.1490
  556MOL0     C76648  10.294   0.611   6.630 -0.8385 -0.9529  0.1798
  556MOL0     O76649  10.207   0.719   6.624 -0.4301  0.3248  0.6232
  556MOL0     C76650  10.110   0.738   6.724 -0.2010  0.2675  0.3013
  556MOL0     C76651   9.984   0.747   6.639 -0.2307  0.5201  0.3756
  556MOL0     C76652   9.864   0.803   6.716 -0.4258 -0.9681 -0.7554
  556MOL0     C76653   9.838   0.734   6.847 -0.9970  0.0386  0.0118
  556MOL0     C76654   9.809   0.599   6.824  1.2066  0.3817 -0.0362
  556MOL0     C76655   9.761   0.492   6.806 -0.6760  0.9667 -0.3238
  556MOL0     C76656  10.390   0.612   6.522 -0.1115  0.2580 -0.0255
  556MOL0     C76657  10.493   0.521   6.505  0.8673  0.4191  0.8172
  556MOL0     C76658  10.578   0.516   6.382 -0.9576  0.1500  0.8253
  556MOL0     H76659  10.778   0.092   6.639 -0.9333  1.5786 -1.5933
  556MOL0     H76660  11.010  -0.004   6.632 -1.9225 -1.1933  1.0583
  556MOL0     H76661  11.302   0.163   6.719  1.5553 -1.6585 -0.1515
  556MOL0     H76662  11.317   0.294   6.590  0.4018  0.3052 -0.4351
  556MOL0     H76663  11.467   0.037   6.576  0.0640 -0.0950  3.2241
  556MOL0     H76664  11.445   0.180   6.456 -3.8643  2.1782  0.6677
  556MOL0     H76665  11.560   0.324   6.617  2.4367  0.3051 -3.5319
  556MOL0     H76666  11.547   0.204   6.746  0.1014  0.9030 -0.3038
  556MOL0     H76667  11.697   0.069   6.660 -0.4908 -2.5638 -2.6460
  556MOL0     H76668  11.699   0.131   6.494 -0.0070  0.6492  0.0567
  556MOL0     H76669  11.825   0.346   6.622 -0.5146  0.4230  0.2787
  556MOL0     H76670  11.899   0.183   6.611 -1.6816 -1.0807 -1.4807
  556MOL0     H76671  11.745   0.309   6.839 -0.2720 -0.7524  0.1497
  556MOL0     H76672  11.796   0.146   6.835  1.4447  0.2148  1.0045
  556MOL0     H76673  12.000   0.366   6.763  0.1557  0.3937  0.4741
  556MOL0     H76674  12.035   0.203   6.824  0.0697 -0.3226  1.1444
  556MOL0     H76675  11.935   0.447   6.962  1.4328  0.2616 -2.4130
  556MOL0     H76676  11.922   0.301   7.050 -1.2009  1.8042  0.2357
  556MOL0     H76677  12.216   0.485   6.853  0.7449  0.9349  0.8637
  556MOL0     H76678  12.453   0.604   6.955 -2.9913 -1.3297 -1.7073
  556MOL0     H76679  12.522   0.441   6.924  1.2050  2.5455 -1.4936
  556MOL0     H76680  12.529   0.591   7.178 -1.7716  1.2040 -0.1045
  556MOL0     H76681  12.541   0.403   7.167  2.1501 -0.1086 -0.1883
  556MOL0     H76682  12.766   0.483   7.184  0.6877 -1.4100 -0.5552
  556MOL0     H76683  12.731   0.414   7.030  0.1447  0.7141 -2.9968
  556MOL0     H76684  12.714   0.617   6.914 -0.0219  4.3715 -0.1788
  556MOL0     H76685  12.706   0.721   7.057  1.1150  0.3730  2.8335
  556MOL0     H76686  12.820   0.826   6.858  0.0270 -0.1948 -1.2824
  556MOL0     H76687  12.823   1.026   6.747 -0.8511 -0.3949 -0.8740
  556MOL0     H76688  12.981   1.013   6.648  1.9126  2.6064  0.8903
  556MOL0     H76689  12.958   1.134   6.768  0.6424 -0.9527 -1.6532
  556MOL0     H76690  13.629   1.036   6.907 -0.3390  0.4685 -1.0409
  556MOL0     H76691  13.786   1.214   6.941 -0.4239 -2.3978 -1.5339
  556MOL0     H76692  13.658   1.637   6.947  1.7456 -2.6488 -2.4156
  556MOL0     H76693  13.638   1.603   7.118  1.8653  1.2345  2.7816
  556MOL0     H76694  13.804   1.771   7.098 -0.1658 -0.9422  0.8076
  556MOL0     H76695  13.886   1.626   7.155  1.3456 -0.9789 -0.9933
  556MOL0     H76696  13.966   1.590   6.919 -1.3179 -0.8350  1.1227
  556MOL0     H76697  14.015   1.748   6.982  1.1080 -0.0024 -0.6178
  556MOL0     H76698  13.807   1.858   6.884  0.2727  1.3069 -2.9759
  556MOL0     H76699  13.784   1.706   6.790  1.3433 -1.6002 -1.2324
  556MOL0     H76700  14.002   1.720   6.690  1.3915 -0.5480  0.8328
  556MOL0     H76701  13.884   1.842   6.647 -0.4454 -0.2941 -0.4792
  556MOL0     H76702  14.123   1.879   6.848  0.6172  3.2694  1.5820
  556MOL0     H76703  14.011   2.008   6.813 -1.2209  1.8797 -3.1097
  556MOL0     H76704  14.080   1.995   6.567 -2.0975 -1.0605  0.1394
  556MOL0     H76705  14.199   1.870   6.607 -1.8136 -0.7694  0.2662
  556MOL0     H76706  14.262   2.050   6.793  2.5882  0.8174 -0.2652
  556MOL0     H76707  14.209   2.165   6.674  2.4827  1.2104 -0.6694
  556MOL0     H76708  13.468   1.501   6.999  2.0110  0.5271  2.4429
  556MOL0     H76709  13.297   1.327   6.971  0.8822  1.4389  3.7612
  556MOL0     H76710  13.252   0.915   7.067  0.0151  0.7044 -1.4712
  556MOL0     H76711  13.109   0.728   7.149  0.7618  2.5328  1.8260
  556MOL0     H76712  11.136   0.357   6.431 -0.9453  0.0620 -0.8769
  556MOL0     H76713  10.911   0.432   6.422 -1.4330 -1.2471 -2.2988
  556MOL0     H76714  10.427   0.351   6.796 -0.0414 -0.2233 -0.1180
  556MOL0     H76715  10.222   0.489   6.796  1.0442  1.5000  0.9982
  556MOL0     H76716  10.101   0.662   6.802 -2.1641  1.4697  1.3189
  556MOL0     H76717  10.128   0.830   6.780  0.1037  1.8825 -2.2576
  556MOL0     H76718   9.965   0.643   6.613 -2.0966  0.7741  0.5816
  556MOL0     H76719   9.993   0.807   6.548 -2.6368 -1.1025 -1.0621
  556MOL0     H76720   9.886   0.909   6.729  0.6319 -1.2875  0.1755
  556MOL0     H76721   9.778   0.798   6.648 -1.8742  1.9483  0.6599
  556MOL0     H76722   9.752   0.789   6.888  2.1176  1.9932  4.8822
  556MOL0     H76723   9.911   0.744   6.928 -0.8427 -0.7825 -0.0142
  556MOL0     H76724   9.722   0.393   6.793  0.9878  0.5298 -2.5561
  556MOL0     H76725  10.375   0.676   6.435 -0.8008 -1.0168 -0.8688
  556MOL0     H76726  10.682   0.544   6.399  0.9094 -1.9038 -4.8298
  556MOL0     H76727  10.580   0.418   6.334  2.0248  0.1442  0.8233
  556MOL0     H76728  10.542   0.587   6.307 -1.5826 -1.6608 -0.6770
  557MOL0     O76729   1.650   5.819  11.296  0.6757 -0.3739  0.4099
  557MOL0     C76730   1.581   5.907  11.239 -0.2659 -0.2795  0.6614
  557MOL0     O76731   1.602   5.958  11.117 -0.3545 -0.2658  0.0183
  557MOL0     C76732   1.705   5.902  11.034  0.4169  0.2116  0.5986
  557MOL0     C76733   1.825   5.857  11.082  0.4782  0.9638  0.9490
  557MOL0     C76734   1.938   5.821  10.993 -0.5052 -0.6987  0.2604
  557MOL0     C76735   1.911   5.838  10.855  0.4752  0.5455  0.7662
  557MOL0     O76736   2.016   5.818  10.761  0.8377  0.1742 -0.4090
  557MOL0     C76737   1.977   5.772  10.633 -0.4322  0.2514 -0.3500
  557MOL0     C76738   2.105   5.785  10.542  0.6945 -0.4676 -0.5512
  557MOL0     C76739   2.120   5.922  10.467  0.9004 -0.0300 -0.5625
  557MOL0     C76740   2.209   5.912  10.349 -0.1706  0.2854  0.1133
  557MOL0     C76741   2.282   6.048  10.335  0.0669  0.0784  0.4007
  557MOL0     C76742   2.381   6.043  10.214  0.2748 -0.4800  0.3383
  557MOL0     C76743   2.413   6.188  10.174  0.1264 -0.6704  0.3812
  557MOL0     C76744   2.513   6.213  10.062 -0.0926  0.0056  0.1404
  557MOL0     N76745   2.631   6.296  10.107  1.0190  0.2635  0.3877
  557MOL0     C76746   2.695   6.400  10.044  0.0101 -0.9273  0.1116
  557MOL0     C76747   2.803   6.436  10.112 -0.0652  0.1173 -0.3296
  557MOL0     C76748   2.890   6.557  10.075 -0.7423 -0.0281 -0.1850
  557MOL0     C76749   3.037   6.544  10.127  0.3160 -0.2261  0.9444
  557MOL0     C76750   3.108   6.683  10.139  1.5360 -0.2845 -0.1087
  557MOL0     C76751   3.109   6.748   9.996 -0.0223  0.0844 -0.0640
  557MOL0     O76752   3.217   6.695   9.912  0.6632 -0.2198 -0.1967
  557MOL0     C76753   3.338   6.767   9.916  0.3550  0.8482  0.1078
  557MOL0     C76754   3.426   6.753   9.811 -0.6352  0.3530 -0.4375
  557MOL0     C76755   3.557   6.810   9.803  0.3919 -0.4999  0.2403
  557MOL0     C76756   3.635   6.789   9.677 -0.7611 -0.1756  0.2017
  557MOL0     C76757   3.593   6.894   9.912 -0.8948 -0.7471 -0.0454
  557MOL0     C76758   3.718   6.978   9.918 -0.7148 -0.2541 -0.1416
  557MOL0     O76759   3.821   6.950   9.835  0.4577 -0.2278  0.4502
  557MOL0     C76760   3.935   7.027   9.832  0.3189 -0.3149 -0.3767
  557MOL0     C76761   4.042   7.027   9.927  0.0218 -0.1059  0.2768
  557MOL0     C76762   4.147   7.130   9.920 -0.3932 -0.0574  0.4417
  557MOL0     C76763   4.143   7.234   9.822  0.4438  0.5961  0.3717
  557MOL0     O76764   4.235   7.337   9.807  0.3539  0.0734  0.1712
  557MOL0     C76765   4.288   7.394   9.934  0.4146 -0.5274 -1.0278
  557MOL0     C76766   4.291   7.547   9.910  0.2054 -0.4714 -0.1467
  557MOL0     C76767   4.399   7.599   9.809 -0.5370  0.2491  0.1212
  557MOL0     C76768   4.351   7.607   9.663 -0.3681 -0.4478 -0.4252
  557MOL0     C76769   4.455   7.679   9.576  0.1528  0.4511  0.6918
  557MOL0     C76770   4.429   7.663   9.430  0.6110 -0.3380 -0.4409
  557MOL0     C76771   4.561   7.707   9.357 -0.1171  0.3824  0.0888
  557MOL0     C76772   4.536   7.669   9.207  0.0635  0.6291  0.4400
  557MOL0    Cl76773   4.664   7.715   9.090 -0.0552  0.1589  0.2836
  557MOL0     C76774   4.037   7.229   9.731  0.1208  0.1141  0.1781
  557MOL0     C76775   3.935   7.130   9.743 -0.8238  0.4074  0.0817
  557MOL0     O76776   3.719   7.075   9.994  0.2177  0.1118 -0.8008
  557MOL0     C76777   3.500   6.909  10.021  0.6156  0.7427 -0.8659
  557MOL0     C76778   3.373   6.846  10.027  0.9431 -0.1646  0.8498
  557MOL0     N76779   2.810   6.351  10.220  0.2495  0.4893  0.0935
  557MOL0     N76780   2.707   6.276  10.220 -0.3932  0.8195 -0.7715
  557MOL0     C76781   1.787   5.880  10.809 -0.0226  0.6703  0.6777
  557MOL0     C76782   1.685   5.912  10.899 -0.6135 -0.7795  0.4083
  557MOL0     C76783   1.459   5.950  11.312 -0.2699 -0.1235 -0.4055
  557MOL0     C76784   1.355   6.009  11.237  0.0397 -0.0068  0.3896
  557MOL0     C76785   1.228   6.030  11.283 -0.3107 -0.0300 -0.8663
  557MOL0     C76786   1.191   5.991  11.417 -0.8243 -0.8248 -0.2404
  557MOL0     O76787   1.063   5.983  11.464  0.3036  0.3031 -0.3772
  557MOL0     C76788   0.965   6.010  11.371  0.2189 -0.7368 -0.0506
  557MOL0     C76789   0.833   5.972  11.438  0.3236 -0.0263  0.3702
  557MOL0     C76790   0.786   6.075  11.540  0.4130 -0.7909  0.5593
  557MOL0     C76791   0.657   6.033  11.605  0.0366  0.8542 -0.6360
  557MOL0     C76792   0.698   5.942  11.717 -0.6330  0.1923 -0.1208
  557MOL0     C76793   0.739   5.859  11.800  0.3888 -0.1312  0.2860
  557MOL0     C76794   1.294   5.939  11.498  0.1000 -0.1164 -0.5966
  557MOL0     C76795   1.429   5.918  11.450 -0.4270  0.2336  0.2213
  557MOL0     C76796   1.520   5.858  11.553 -0.2114  0.4564 -0.1328
  557MOL0     H76797   1.852   5.855  11.187 -1.6398  1.0802  1.5267
  557MOL0     H76798   2.042   5.803  11.020 -1.0044 -1.8495  1.4877
  557MOL0     H76799   1.895   5.829  10.588  0.2288  1.1259 -0.4869
  557MOL0     H76800   1.950   5.667  10.646 -0.4268  0.0843 -1.5422
  557MOL0     H76801   2.191   5.768  10.607  0.1935  1.7726  0.8124
  557MOL0     H76802   2.100   5.710  10.463 -3.2051  0.0651 -1.0452
  557MOL0     H76803   2.021   5.961  10.441  1.9144  3.2324  0.0459
  557MOL0     H76804   2.159   5.997  10.536 -2.8413  0.9330  0.7419
  557MOL0     H76805   2.294   5.844  10.362  0.1089  0.1802 -1.9096
  557MOL0     H76806   2.154   5.873  10.263  0.7392 -0.6483 -0.0622
  557MOL0     H76807   2.328   6.094  10.423 -1.6990  3.6517 -0.3716
  557MOL0     H76808   2.196   6.108  10.304  0.4267 -0.1274 -1.1054
  557MOL0     H76809   2.475   5.999  10.248 -0.2820  0.0116  2.7541
  557MOL0     H76810   2.335   5.983  10.136 -1.7429  0.7187  0.5204
  557MOL0     H76811   2.447   6.239  10.265 -1.0114  1.3366 -0.2572
  557MOL0     H76812   2.323   6.242  10.144 -0.1260 -1.0396  0.4755
  557MOL0     H76813   2.573   6.127  10.032  3.4670  1.9886  0.8686
  557MOL0     H76814   2.466   6.260   9.975 -1.0588 -2.3150 -0.6459
  557MOL0     H76815   2.668   6.448   9.951 -1.5909 -1.1077  0.4469
  557MOL0     H76816   2.832   6.642  10.110  1.0145  0.9241  0.5701
  557MOL0     H76817   2.893   6.560   9.965 -2.3406 -0.3646 -0.2548
  557MOL0     H76818   3.040   6.497  10.225  3.1562  2.8791  2.5536
  557MOL0     H76819   3.090   6.486  10.051 -2.0294  0.8059 -1.6839
  557MOL0     H76820   3.052   6.750  10.205 -1.3185 -2.2132 -0.3970
  557MOL0     H76821   3.206   6.657  10.181  2.3939 -1.1821 -2.4891
  557MOL0     H76822   3.014   6.741   9.943 -1.5930  1.0873  2.4475
  557MOL0     H76823   3.115   6.857  10.004 -3.2682  0.5324 -2.0623
  557MOL0     H76824   3.391   6.705   9.721  1.8850  3.7289 -3.5062
  557MOL0     H76825   3.738   6.757   9.700 -0.8723 -3.4941 -2.9010
  557MOL0     H76826   3.633   6.885   9.625  2.1813 -0.8173 -1.3801
  557MOL0     H76827   3.582   6.719   9.612 -1.1898  0.7400 -0.4530
  557MOL0     H76828   4.051   6.953  10.005  2.4684  2.0855  2.2735
  557MOL0     H76829   4.240   7.119   9.975  1.1533  1.5448 -1.6640
  557MOL0     H76830   4.221   7.373  10.018  2.1376 -3.1492 -0.2090
  557MOL0     H76831   4.388   7.354   9.954  1.5950  2.9777  1.0700
  557MOL0     H76832   4.195   7.576   9.865  0.8985 -0.8885 -2.0147
  557MOL0     H76833   4.311   7.606   9.999 -0.5235  0.8743 -0.8404
  557MOL0     H76834   4.491   7.539   9.806 -0.0993  0.9209  0.0054
  557MOL0     H76835   4.430   7.696   9.847  1.4016  0.3782 -1.5981
  557MOL0     H76836   4.255   7.659   9.662 -0.6502 -0.9730 -0.4298
  557MOL0     H76837   4.321   7.512   9.619 -2.9720  1.3806 -2.9959
  557MOL0     H76838   4.454   7.786   9.598 -0.1317  0.4449  0.7047
  557MOL0     H76839   4.544   7.632   9.618 -1.2710 -2.6492  0.5211
  557MOL0     H76840   4.340   7.724   9.412  0.5049 -0.5792 -0.7365
  557MOL0     H76841   4.404   7.557   9.418  0.6630 -0.5347  0.9734
  557MOL0     H76842   4.652   7.667   9.402  0.4470  1.9363  0.3603
  557MOL0     H76843   4.589   7.812   9.360  0.4742  0.3224 -2.0095
  557MOL0     H76844   4.448   7.727   9.177  0.9443  2.7693  1.7701
  557MOL0     H76845   4.501   7.566   9.196 -1.0503  1.2252 -2.3188
  557MOL0     H76846   4.026   7.314   9.664  3.2217 -0.6191 -1.4159
  557MOL0     H76847   3.853   7.139   9.673 -1.8255  3.1677  1.4672
  557MOL0     H76848   3.518   6.962  10.114 -1.2030 -0.9344  0.5334
  557MOL0     H76849   3.306   6.856  10.112 -1.0124  0.1768 -0.6510
  557MOL0     H76850   1.764   5.893  10.703  0.4312 -2.1972  0.1520
  557MOL0     H76851   1.597   5.964  10.863 -1.2077 -0.9789  1.5187
  557MOL0     H76852   1.375   6.034  11.134  2.1492  0.2876  0.8203
  557MOL0     H76853   1.154   6.074  11.217 -1.3799  0.6099  0.6869
  557MOL0     H76854   0.983   6.115  11.346 -2.1597 -1.0931 -4.2144
  557MOL0     H76855   0.971   5.950  11.280  2.4487 -2.3535  1.0656
  557MOL0     H76856   0.848   5.872  11.479  0.6668  0.4497  1.4590
  557MOL0     H76857   0.754   5.961  11.363  1.1734  2.7675 -1.0749
  557MOL0     H76858   0.869   6.097  11.608 -0.2817 -1.3252  1.6052
  557MOL0     H76859   0.763   6.159  11.475  0.3112 -1.9908 -1.0144
  557MOL0     H76860   0.600   5.976  11.531  0.2552  0.9209 -0.8544
  557MOL0     H76861   0.597   6.113  11.650 -1.7879 -0.4765 -0.5815
  557MOL0     H76862   0.776   5.795  11.877 -1.5234 -0.3783  1.0447
  557MOL0     H76863   1.268   5.895  11.594 -0.2801  1.7623  0.1982
  557MOL0     H76864   1.508   5.750  11.572 -0.9625  0.7959  1.5008
  557MOL0     H76865   1.627   5.866  11.534  0.2954 -2.7428  0.6202
  557MOL0     H76866   1.520   5.903  11.653  4.4645 -1.7249  1.1665
  558MOL0     O76867   8.224   8.809   1.658 -0.6817 -0.0584  0.3811
  558MOL0     C76868   8.186   8.824   1.775 -0.4157 -0.5528 -0.4498
  558MOL0     O76869   8.261   8.855   1.886 -0.3568  0.0589  0.0187
  558MOL0     C76870   8.398   8.877   1.878 -0.3751 -0.0985  0.6049
  558MOL0     C76871   8.432   9.009   1.843 -0.2941 -0.8806  1.3583
  558MOL0     C76872   8.562   9.046   1.792 -0.2558  0.1729  0.1845
  558MOL0     C76873   8.657   8.943   1.770 -0.0973 -0.5922 -0.3586
  558MOL0     O76874   8.778   8.972   1.705  0.2367 -0.4295  0.0561
  558MOL0     C76875   8.902   8.925   1.754  0.8933  0.1926  0.1230
  558MOL0     C76876   8.923   8.972   1.901  0.1337  0.2755 -0.3838
  558MOL0     C76877   9.072   8.939   1.939  0.2673 -0.3062  1.0195
  558MOL0     C76878   9.118   9.002   2.068 -0.3633  0.2697  0.1498
  558MOL0     C76879   9.259   8.957   2.118 -0.4290 -0.1436 -0.6913
  558MOL0     C76880   9.371   9.011   2.028 -0.2739 -0.0049  0.1412
  558MOL0     C76881   9.510   9.016   2.090 -0.1283  0.1720 -0.9328
  558MOL0     C76882   9.617   9.085   1.995 -0.0953 -0.5708  0.6755
  558MOL0     N76883   9.753   9.058   2.040  0.4173  0.9449 -0.3718
  558MOL0     C76884   9.807   9.085   2.169 -0.0554 -0.7252  0.0378
  558MOL0     C76885   9.937   9.063   2.158  0.8798 -0.5261 -0.8672
  558MOL0     C76886  10.035   9.094   2.271  0.3397  0.5728  0.2443
  558MOL0     C76887  10.179   9.138   2.233  0.3604  0.7057 -0.7196
  558MOL0     C76888  10.254   9.006   2.215 -0.3090 -0.9287  0.2770
  558MOL0     C76889  10.409   9.027   2.187  0.0455  0.1264 -0.7837
  558MOL0     O76890  10.482   8.904   2.220 -0.1058  0.1137  0.6041
  558MOL0     C76891  10.620   8.901   2.199 -0.0403 -0.1291 -0.1136
  558MOL0     C76892  10.679   8.778   2.221  0.3092 -0.3763  0.2889
  558MOL0     C76893  10.817   8.758   2.201  0.1201  0.7901  0.4104
  558MOL0     C76894  10.870   8.619   2.238  0.1200  0.8459  0.2823
  558MOL0     C76895  10.891   8.858   2.140 -0.4690  0.1316  0.3342
  558MOL0     C76896  11.033   8.855   2.110  0.1461  0.2638  0.4841
  558MOL0     O76897  11.087   8.969   2.063  0.3198 -0.3549  0.4239
  558MOL0     C76898  11.223   8.973   2.035  0.2292  0.1663 -0.0350
  558MOL0     C76899  11.301   9.084   2.080 -0.1951  0.9888 -0.0767
  558MOL0     C76900  11.435   9.084   2.072 -0.1203 -0.2034  0.0465
  558MOL0     C76901  11.502   8.987   1.999  0.0698  0.3902 -0.2335
  558MOL0     O76902  11.638   8.989   1.982  0.6414 -0.2433  0.4563
  558MOL0     C76903  11.709   8.866   1.973  0.0029  0.5543  0.3242
  558MOL0     C76904  11.867   8.888   1.975 -0.1297  0.7183  0.9970
  558MOL0     C76905  11.908   8.951   2.109  0.3360 -0.4464  0.4641
  558MOL0     C76906  12.064   8.972   2.116 -0.0346  0.0276  1.0936
  558MOL0     C76907  12.103   9.055   2.235 -0.6849  0.9745 -0.0468
  558MOL0     C76908  12.249   9.028   2.266  0.6210 -0.4913  1.2822
  558MOL0     C76909  12.343   9.078   2.157 -0.1685 -0.4706 -0.0047
  558MOL0     C76910  12.483   9.014   2.179 -0.0686 -0.4306 -0.1835
  558MOL0    Cl76911  12.547   9.057   2.342 -0.1406  0.0408  0.3443
  558MOL0     C76912  11.425   8.882   1.943 -0.9881  0.6456  0.5011
  558MOL0     C76913  11.284   8.882   1.958  0.0912 -0.2963  0.1493
  558MOL0     O76914  11.092   8.753   2.138  0.0344  0.4904 -0.1810
  558MOL0     C76915  10.829   8.983   2.111 -0.0926  0.3609  0.4526
  558MOL0     C76916  10.691   9.005   2.145 -1.0411  0.1383  0.1944
  558MOL0     N76917   9.968   9.014   2.028  0.3260 -0.5642 -0.4827
  558MOL0     N76918   9.863   9.024   1.961  0.2020 -0.4823 -0.3628
  558MOL0     C76919   8.629   8.809   1.802  0.0253 -0.5019 -0.0324
  558MOL0     C76920   8.496   8.775   1.859 -0.7182  0.4719  0.4551
  558MOL0     C76921   8.040   8.814   1.791  0.4281  1.2374 -0.9983
  558MOL0     C76922   7.962   8.746   1.696 -0.4908  0.2975 -0.2565
  558MOL0     C76923   7.822   8.731   1.700  0.4842 -0.0070 -0.5120
  558MOL0     C76924   7.755   8.767   1.810 -0.7450  0.0640 -0.6239
  558MOL0     O76925   7.620   8.750   1.845 -0.3742  0.3863 -0.5754
  558MOL0     C76926   7.542   8.693   1.739  0.1999  0.3008 -0.0303
  558MOL0     C76927   7.521   8.791   1.626  0.7606 -0.5064  0.4101
  558MOL0     C76928   7.482   8.926   1.679  0.5659 -0.0316  0.3918
  558MOL0     C76929   7.456   9.020   1.558 -0.0293  0.9750 -0.3569
  558MOL0     C76930   7.397   9.141   1.608 -0.2734  0.0043 -0.2712
  558MOL0     C76931   7.353   9.242   1.651 -0.2756  0.9274 -0.7875
  558MOL0     C76932   7.825   8.846   1.903 -0.1544  0.2349 -0.1192
  558MOL0     C76933   7.956   8.867   1.897  0.2229 -0.0855  0.2803
  558MOL0     C76934   8.013   8.952   2.008  0.3691 -0.0082  0.0618
  558MOL0     H76935   8.352   9.081   1.852  0.5571 -0.0323  2.4263
  558MOL0     H76936   8.586   9.148   1.763  1.5548 -0.0011  0.9221
  558MOL0     H76937   8.984   8.953   1.687  0.5273  1.1083  0.0418
  558MOL0     H76938   8.917   8.816   1.751 -1.3233 -0.1392 -1.3675
  558MOL0     H76939   8.902   9.077   1.919  1.5363  0.2814  1.5276
  558MOL0     H76940   8.846   8.920   1.959 -3.0689  1.3154 -3.3292
  558MOL0     H76941   9.091   8.831   1.941 -0.3382 -0.4412  0.1327
  558MOL0     H76942   9.134   8.977   1.856  0.6334  1.3921  2.0305
  558MOL0     H76943   9.122   9.110   2.053  0.0298  0.6250  2.3862
  558MOL0     H76944   9.050   8.976   2.149  0.3938 -0.8362  0.4577
  558MOL0     H76945   9.251   8.847   2.119 -1.1212 -0.1831 -3.1005
  558MOL0     H76946   9.278   8.987   2.221  3.6448 -0.1053 -1.2982
  558MOL0     H76947   9.366   8.946   1.940 -3.3182 -1.8789  1.5555
  558MOL0     H76948   9.350   9.113   1.995 -0.2017 -0.1179 -0.2561
  558MOL0     H76949   9.540   8.914   2.112  1.3016  0.0948 -2.9651
  558MOL0     H76950   9.507   9.076   2.181  0.2210  2.4441 -2.3503
  558MOL0     H76951   9.615   9.065   1.888  0.8339 -1.4887  0.8097
  558MOL0     H76952   9.612   9.194   1.992  0.1847 -0.5636 -1.8005
  558MOL0     H76953   9.763   9.124   2.261  1.2596  0.4896  0.1895
  558MOL0     H76954  10.037   9.018   2.351 -0.7576  0.8657  0.5786
  558MOL0     H76955   9.994   9.184   2.318  0.1006  2.2601 -2.9285
  558MOL0     H76956  10.167   9.192   2.138 -3.5147 -1.1201 -1.4377
  558MOL0     H76957  10.221   9.205   2.309 -0.8583 -0.0090  0.6266
  558MOL0     H76958  10.251   8.956   2.313 -0.2274 -0.1822  0.6717
  558MOL0     H76959  10.228   8.942   2.130 -0.3910 -0.3908 -0.1079
  558MOL0     H76960  10.429   9.060   2.085  1.0972 -0.2617 -0.7256
  558MOL0     H76961  10.447   9.110   2.247  0.4404 -0.6141  0.0339
  558MOL0     H76962  10.612   8.708   2.270 -0.4648  0.5910  0.6470
  558MOL0     H76963  10.920   8.570   2.154 -0.1915  1.3295 -0.1904
  558MOL0     H76964  10.785   8.554   2.263  0.0185  1.1621  0.7831
  558MOL0     H76965  10.936   8.626   2.326  1.8623 -0.0348 -0.9072
  558MOL0     H76966  11.248   9.162   2.134 -1.3390 -0.4051  0.8852
  558MOL0     H76967  11.504   9.155   2.118 -0.9210  0.0300  0.9224
  558MOL0     H76968  11.679   8.802   2.056 -1.0748  1.1615  0.4265
  558MOL0     H76969  11.691   8.824   1.873  3.9481 -1.6414  0.3201
  558MOL0     H76970  11.913   8.789   1.969  1.7146  1.5377  0.8990
  558MOL0     H76971  11.900   8.950   1.891  0.2185  1.2530  1.5172
  558MOL0     H76972  11.875   8.881   2.186  1.4113  0.9689  2.2947
  558MOL0     H76973  11.857   9.045   2.129  0.0753 -0.0065 -2.0155
  558MOL0     H76974  12.091   9.021   2.022  0.7352 -4.4757 -1.3043
  558MOL0     H76975  12.124   8.880   2.114  0.9196  0.6040 -1.8234
  558MOL0     H76976  12.081   9.157   2.202  1.6787  1.4783 -0.2377
  558MOL0     H76977  12.038   9.030   2.319  0.2541 -0.5018  0.2821
  558MOL0     H76978  12.266   8.925   2.299 -2.1794 -1.7220 -0.7707
  558MOL0     H76979  12.277   9.088   2.354 -0.6412  0.4133  1.0841
  558MOL0     H76980  12.342   9.186   2.170 -3.4292 -0.5103  1.0764
  558MOL0     H76981  12.316   9.045   2.055  0.0946 -0.1756 -0.1693
  558MOL0     H76982  12.566   9.026   2.109 -0.4755 -1.5340 -0.8915
  558MOL0     H76983  12.470   8.906   2.163  1.6065 -0.7293  0.2662
  558MOL0     H76984  11.474   8.802   1.889 -0.1921  0.4653  1.4653
  558MOL0     H76985  11.227   8.801   1.914 -0.1329 -0.0578  0.0013
  558MOL0     H76986  10.876   9.065   2.057  0.3279  0.4112  0.8836
  558MOL0     H76987  10.658   9.106   2.123 -1.2598  0.5686  2.2851
  558MOL0     H76988   8.698   8.726   1.794  2.4161  1.4970 -1.9824
  558MOL0     H76989   8.468   8.670   1.861 -1.4531  0.6601  0.3500
  558MOL0     H76990   8.014   8.700   1.613 -1.3311 -1.2893  0.0537
  558MOL0     H76991   7.781   8.665   1.624 -0.7173 -1.1644  1.0743
  558MOL0     H76992   7.600   8.607   1.702  0.7783  0.0969  1.3217
  558MOL0     H76993   7.445   8.659   1.775  0.2509 -1.3893 -1.3310
  558MOL0     H76994   7.440   8.760   1.559 -0.4956  2.1796  0.5402
  558MOL0     H76995   7.613   8.802   1.568  0.1060  0.7534 -0.4490
  558MOL0     H76996   7.396   8.924   1.746  1.6714 -0.4094  1.8441
  558MOL0     H76997   7.567   8.960   1.740 -0.3843  0.2078  1.6292
  558MOL0     H76998   7.387   8.969   1.490 -0.0611  3.1617 -2.0709
  558MOL0     H76999   7.546   9.029   1.496 -1.8655 -0.5939 -3.5052
  558MOL0     H77000   7.325   9.337   1.693  1.2389  0.2946  1.8535
  558MOL0     H77001   7.778   8.875   1.997 -2.5153  0.4998 -1.3023
  558MOL0     H77002   8.044   8.893   2.095 -1.6788 -1.2223  0.0486
  558MOL0     H77003   8.101   9.010   1.977  1.6442 -0.9427  1.7723
  558MOL0     H77004   7.937   9.020   2.049  0.2996 -0.1893  0.2357
  559MOL0     O77005   2.179   2.013  11.349  0.1319  0.3378  0.0978
  559MOL0     C77006   2.094   1.999  11.431 -0.3884  0.1520 -0.1551
  559MOL0     O77007   2.121   2.023  11.569  0.0793 -0.1284 -0.1933
  559MOL0     C77008   2.227   2.106  11.595 -0.1736  0.7154 -0.7939
  559MOL0     C77009   2.214   2.241  11.601  0.1710 -0.2490  0.6266
  559MOL0     C77010   2.311   2.335  11.644  0.2564 -0.5766 -0.4976
  559MOL0     C77011   2.432   2.289  11.689  0.0868 -0.0747 -0.3775
  559MOL0     O77012   2.538   2.371  11.718 -0.1164 -0.1831  0.6970
  559MOL0     C77013   2.556   2.470  11.620  0.3946 -1.2999  0.3732
  559MOL0     C77014   2.700   2.542  11.617  0.8939  0.1513 -0.3925
  559MOL0     C77015   2.809   2.462  11.548 -0.1459 -0.3416 -0.2754
  559MOL0     C77016   2.917   2.554  11.485  0.9991  0.2480  0.2103
  559MOL0     C77017   3.025   2.493  11.395 -0.0411 -0.3332 -0.5427
  559MOL0     C77018   2.965   2.432  11.265  0.5172  0.4908  0.2294
  559MOL0     C77019   3.085   2.386  11.176  0.6931  0.0549  0.4045
  559MOL0     C77020   3.161   2.256  11.211  0.2112 -0.2848 -0.3974
  559MOL0     N77021   3.260   2.218  11.107  0.1340  0.4750 -0.7465
  559MOL0     C77022   3.233   2.219  10.974 -0.0653 -0.1700  0.6540
  559MOL0     C77023   3.343   2.158  10.924 -0.8201 -0.3994  0.0144
  559MOL0     C77024   3.359   2.128  10.779  0.6236 -0.2491 -0.0874
  559MOL0     C77025   3.444   2.234  10.713 -0.2394 -0.2486  0.1908
  559MOL0     C77026   3.367   2.353  10.671 -0.6427  0.2316 -0.3794
  559MOL0     C77027   3.474   2.452  10.613 -0.3074 -0.0888  0.8262
  559MOL0     O77028   3.540   2.394  10.500 -0.5223 -0.6088  0.2595
  559MOL0     C77029   3.663   2.446  10.465 -0.2865  0.3653 -0.1386
  559MOL0     C77030   3.700   2.579  10.476 -0.8715  0.6080 -1.8256
  559MOL0     C77031   3.828   2.621  10.428  0.4277  0.3068 -0.9984
  559MOL0     C77032   3.851   2.774  10.443 -1.4734  0.2737 -0.4654
  559MOL0     C77033   3.922   2.534  10.370  1.4549 -0.2840 -0.2510
  559MOL0     C77034   4.053   2.564  10.305  0.2783 -0.4047 -0.4193
  559MOL0     O77035   4.138   2.459  10.308 -0.4318  0.2088 -0.5659
  559MOL0     C77036   4.276   2.462  10.282 -0.3194 -0.0865 -0.9298
  559MOL0     C77037   4.333   2.342  10.232 -0.0957  0.2377  0.1892
  559MOL0     C77038   4.463   2.339  10.189 -0.8778  0.3276 -0.0935
  559MOL0     C77039   4.546   2.450  10.195 -0.9317  0.2024 -0.1878
  559MOL0     O77040   4.679   2.440  10.144 -0.4393 -0.6587 -0.1711
  559MOL0     C77041   4.766   2.549  10.128 -0.7910 -0.8809  0.3853
  559MOL0     C77042   4.905   2.487  10.085 -0.4054 -0.1802  0.6868
  559MOL0     C77043   5.032   2.581  10.100  0.0971 -0.0322 -0.7724
  559MOL0     C77044   5.157   2.497  10.092  0.5469  0.6034 -0.0808
  559MOL0     C77045   5.292   2.564  10.122 -0.2414 -0.2332  0.4727
  559MOL0     C77046   5.320   2.607  10.263 -0.2174 -0.4038 -0.1579
  559MOL0     C77047   5.463   2.668  10.267 -0.2559  0.0996  0.2055
  559MOL0     C77048   5.508   2.689  10.415  0.3843  1.2505  0.4723
  559MOL0    Cl77049   5.672   2.758  10.433 -0.1922 -0.0675 -0.1880
  559MOL0     C77050   4.494   2.571  10.258 -0.0849 -0.5005 -0.2722
  559MOL0     C77051   4.359   2.577  10.298  0.4176  0.0371  0.6383
  559MOL0     O77052   4.077   2.672  10.254  0.0435  0.1006  0.0508
  559MOL0     C77053   3.870   2.406  10.351 -0.4686  0.1416 -0.4709
  559MOL0     C77054   3.750   2.367  10.397  0.4709  0.2538 -0.5017
  559MOL0     N77055   3.435   2.120  11.021 -0.0285  0.5252  0.3455
  559MOL0     N77056   3.381   2.157  11.137  0.7107 -0.0342  0.4247
  559MOL0     C77057   2.447   2.152  11.696  1.6198 -0.2688  0.5480
  559MOL0     C77058   2.348   2.059  11.647 -0.5269 -0.1208  0.1108
  559MOL0     C77059   1.949   1.969  11.389  0.4195  0.3404 -0.3577
  559MOL0     C77060   1.846   1.997  11.481  0.3908  0.4901 -0.9104
  559MOL0     C77061   1.718   1.963  11.459  0.4795  0.7762  0.6049
  559MOL0     C77062   1.677   1.915  11.333  0.0876  0.4960  0.7834
  559MOL0     O77063   1.550   1.907  11.287  0.1517  0.2944 -0.5562
  559MOL0     C77064   1.439   1.926  11.373 -0.7920  0.1714  1.4095
  559MOL0     C77065   1.311   1.870  11.305 -0.1719 -0.1802 -0.0850
  559MOL0     C77066   1.180   1.907  11.372  0.8877 -0.7490  0.2407
  559MOL0     C77067   1.055   1.822  11.331 -0.4052 -0.2193  0.4439
  559MOL0     C77068   1.070   1.681  11.380 -0.1146  0.3418  0.8922
  559MOL0     C77069   1.088   1.570  11.422  0.1940 -0.1514  0.1981
  559MOL0     C77070   1.771   1.890  11.236  0.0938  0.4086  0.4913
  559MOL0     C77071   1.906   1.916  11.264 -0.6478  1.4692  1.0972
  559MOL0     C77072   2.003   1.874  11.162  0.8437  0.0323  0.4516
  559MOL0     H77073   2.124   2.299  11.584  0.1695  0.5537  2.9565
  559MOL0     H77074   2.310   2.443  11.633  1.0532 -0.4716  0.3534
  559MOL0     H77075   2.487   2.554  11.622  0.5417 -1.1766  2.4773
  559MOL0     H77076   2.540   2.424  11.521 -0.3467  1.4948 -0.9096
  559MOL0     H77077   2.692   2.632  11.555  1.7667  0.0663 -0.6394
  559MOL0     H77078   2.730   2.571  11.719  0.5786  0.1352 -0.2912
  559MOL0     H77079   2.849   2.392  11.622 -0.2917  1.0406  1.1442
  559MOL0     H77080   2.770   2.393  11.472  1.0937 -3.3101  1.5744
  559MOL0     H77081   2.860   2.623  11.423  1.4842  0.4817  0.0233
  559MOL0     H77082   2.964   2.617  11.561  3.7200 -3.2424  1.6749
  559MOL0     H77083   3.059   2.412  11.461  0.4970 -0.1137 -0.5471
  559MOL0     H77084   3.102   2.570  11.387 -0.5112  0.3471  1.0355
  559MOL0     H77085   2.891   2.352  11.272  2.2300 -1.4038 -1.6167
  559MOL0     H77086   2.920   2.517  11.212  1.7394  1.0745  0.1037
  559MOL0     H77087   3.157   2.468  11.164 -1.4334  2.0851  0.6439
  559MOL0     H77088   3.041   2.362  11.079 -0.4757  1.0747  0.6627
  559MOL0     H77089   3.227   2.267  11.297 -0.4121  2.0659 -0.1422
  559MOL0     H77090   3.087   2.177  11.228 -1.7498  1.8371  1.8712
  559MOL0     H77091   3.149   2.246  10.912  0.0418  0.1957  0.6644
  559MOL0     H77092   3.261   2.123  10.732 -0.0617  1.1745  1.0842
  559MOL0     H77093   3.409   2.032  10.766 -0.4483 -0.7393 -0.6330
  559MOL0     H77094   3.522   2.275  10.777  0.1072  2.9318 -2.0592
  559MOL0     H77095   3.488   2.186  10.625 -1.0489 -0.5595 -0.0543
  559MOL0     H77096   3.288   2.326  10.601 -0.6328 -1.0580  0.0862
  559MOL0     H77097   3.324   2.400  10.760 -2.5244 -0.8421 -0.6699
  559MOL0     H77098   3.423   2.542  10.575  0.4270  1.1349  2.5928
  559MOL0     H77099   3.540   2.478  10.697  2.2044  1.2265 -1.4210
  559MOL0     H77100   3.631   2.653  10.515  0.6402  0.9359  0.3628
  559MOL0     H77101   3.858   2.826  10.347 -1.1457  1.5429  0.2396
  559MOL0     H77102   3.943   2.779  10.501 -0.3948 -2.5115 -1.7525
  559MOL0     H77103   3.772   2.827  10.497  0.9939  3.9895 -0.1712
  559MOL0     H77104   4.268   2.257  10.219  0.5752 -0.2846  0.1992
  559MOL0     H77105   4.496   2.246  10.143 -0.1292 -0.0837  1.2126
  559MOL0     H77106   4.723   2.619  10.055  1.6022  2.0455  1.5480
  559MOL0     H77107   4.774   2.598  10.225  0.1072  2.4435 -1.2285
  559MOL0     H77108   4.930   2.408  10.156  3.5208  1.8106  1.8465
  559MOL0     H77109   4.901   2.435   9.990 -2.3854  0.1311  0.5735
  559MOL0     H77110   5.029   2.635  10.194  1.1872 -0.5475 -0.4324
  559MOL0     H77111   5.035   2.656  10.021  1.2656 -1.0823 -1.7776
  559MOL0     H77112   5.175   2.463   9.989 -0.4962  1.8884 -0.7210
  559MOL0     H77113   5.158   2.408  10.156  1.5928 -0.4224 -1.4581
  559MOL0     H77114   5.377   2.499  10.095 -0.7323 -0.4056 -0.7138
  559MOL0     H77115   5.298   2.646  10.050 -3.2323 -2.7396 -3.0546
  559MOL0     H77116   5.321   2.528  10.338  2.8958  1.0414  1.5405
  559MOL0     H77117   5.242   2.676  10.296 -0.9373 -0.7177 -1.1888
  559MOL0     H77118   5.472   2.766  10.221  0.1974  0.0625  0.2095
  559MOL0     H77119   5.527   2.603  10.206 -0.2722  3.3809 -3.7216
  559MOL0     H77120   5.517   2.590  10.461  2.0733  1.3447  0.4062
  559MOL0     H77121   5.435   2.745  10.475 -1.4192  0.5398 -0.9790
  559MOL0     H77122   4.549   2.664  10.259 -1.5233  0.4902 -2.8999
  559MOL0     H77123   4.316   2.654  10.361  1.0523  0.4380  0.5899
  559MOL0     H77124   3.928   2.321  10.317 -2.3034 -1.2611 -0.2666
  559MOL0     H77125   3.723   2.262  10.396  0.0616  0.3230  0.9508
  559MOL0     H77126   2.533   2.097  11.733 -0.5478 -4.7874 -0.4499
  559MOL0     H77127   2.362   1.952  11.653 -0.8917 -0.3251 -2.0190
  559MOL0     H77128   1.873   2.046  11.574 -2.6139  0.1802  0.2187
  559MOL0     H77129   1.644   1.995  11.531  0.4122  0.9800  0.4447
  559MOL0     H77130   1.457   1.883  11.472  3.2080 -0.8568  0.4042
  559MOL0     H77131   1.417   2.033  11.380  3.0599  1.2909 -0.8060
  559MOL0     H77132   1.308   1.762  11.287 -1.4335  0.1687 -2.4124
  559MOL0     H77133   1.313   1.902  11.201  0.5073  0.9406  0.2586
  559MOL0     H77134   1.188   1.901  11.481 -0.2394  0.3649  0.4109
  559MOL0     H77135   1.149   2.008  11.343 -0.2636 -0.3352  2.6085
  559MOL0     H77136   1.038   1.827  11.223 -0.8138 -2.0892  0.4006
  559MOL0     H77137   0.964   1.869  11.368 -0.6219 -1.2981  1.3185
  559MOL0     H77138   1.112   1.473  11.461  3.7158  0.8053  0.7852
  559MOL0     H77139   1.742   1.850  11.139 -0.1208 -1.1208  1.1551
  559MOL0     H77140   2.103   1.855  11.203  0.8178 -0.7100  0.1969
  559MOL0     H77141   1.969   1.790  11.100 -0.2745  0.8259 -0.0569
  559MOL0     H77142   2.011   1.950  11.083 -2.4105 -0.0691 -0.1152
  560MOL0     O77143   9.233   4.782   9.707  0.0658  0.1106 -0.3624
  560MOL0     C77144   9.260   4.904   9.709  0.1183  0.5188 -0.4799
  560MOL0     O77145   9.357   4.964   9.635 -1.1562  0.3430  0.1705
  560MOL0     C77146   9.431   4.883   9.553  0.3763 -0.4914 -0.3007
  560MOL0     C77147   9.527   4.793   9.600 -1.0716  0.3174 -0.1040
  560MOL0     C77148   9.612   4.720   9.514  0.6524 -0.6634 -0.3342
  560MOL0     C77149   9.600   4.746   9.376  0.1046  0.4408 -0.3992
  560MOL0     O77150   9.694   4.698   9.289 -1.0982 -0.3307 -0.7479
  560MOL0     C77151   9.807   4.615   9.327  0.2787 -0.1019  0.2065
  560MOL0     C77152   9.921   4.641   9.226 -0.0697 -0.1009  0.8682
  560MOL0     C77153  10.028   4.724   9.302 -0.4315 -0.1742  0.4024
  560MOL0     C77154  10.113   4.629   9.391 -0.7004 -0.3136 -0.0293
  560MOL0     C77155  10.233   4.562   9.312  0.0730  0.0955 -0.2822
  560MOL0     C77156  10.345   4.497   9.393  0.9244 -0.5370 -0.0160
  560MOL0     C77157  10.438   4.418   9.292 -0.4783 -0.5494  0.7221
  560MOL0     C77158  10.547   4.342   9.368  0.1179  0.0795  0.1737
  560MOL0     N77159  10.615   4.253   9.272 -0.3338 -0.8567 -0.7326
  560MOL0     C77160  10.711   4.304   9.196  0.6956  0.0168  0.5381
  560MOL0     C77161  10.757   4.202   9.133 -0.1365  0.1929  0.4023
  560MOL0     C77162  10.862   4.209   9.031 -1.1197 -0.2533  0.4704
  560MOL0     C77163  10.961   4.094   9.032  0.7028  0.5178 -0.3837
  560MOL0     C77164  11.072   4.100   8.916 -0.7394 -0.1958  0.3094
  560MOL0     C77165  11.175   3.989   8.940 -0.0183  0.3449  0.1489
  560MOL0     O77166  11.265   4.026   9.049 -0.4329  0.0119  0.0486
  560MOL0     C77167  11.359   3.931   9.086  0.4356 -0.2645 -0.8417
  560MOL0     C77168  11.455   3.978   9.176 -0.4147 -0.2187 -0.3169
  560MOL0     C77169  11.560   3.889   9.220 -0.0218 -0.1271 -1.1008
  560MOL0     C77170  11.657   3.940   9.328  1.1150 -0.0416  0.7016
  560MOL0     C77171  11.565   3.753   9.180 -0.1078 -0.2173  0.0121
  560MOL0     C77172  11.677   3.658   9.227 -0.3377  0.1044  0.7416
  560MOL0     O77173  11.655   3.524   9.186 -0.2649  0.2274 -0.8225
  560MOL0     C77174  11.731   3.431   9.246 -0.3812  0.1072  0.1032
  560MOL0     C77175  11.684   3.368   9.361 -0.6127 -0.0018 -1.0952
  560MOL0     C77176  11.756   3.260   9.407 -0.5884 -0.3115 -0.4059
  560MOL0     C77177  11.870   3.221   9.345  0.6282  0.2338  0.6932
  560MOL0     O77178  11.916   3.111   9.411  0.3943  0.9517 -0.0998
  560MOL0     C77179  12.034   3.042   9.367 -0.8655 -0.2303  0.8416
  560MOL0     C77180  12.108   2.948   9.459  1.0476 -1.0185  0.4413
  560MOL0     C77181  12.145   3.021   9.592  0.5339  0.6211 -0.3146
  560MOL0     C77182  12.204   2.927   9.701  0.3212 -0.3027 -0.5993
  560MOL0     C77183  12.104   2.846   9.772  0.3606  0.0121 -0.1608
  560MOL0     C77184  12.174   2.751   9.874 -1.1673  0.1977 -0.0586
  560MOL0     C77185  12.085   2.655   9.932  0.3257  0.0951  0.7461
  560MOL0     C77186  12.134   2.600  10.065 -0.3924  0.2586  0.0519
  560MOL0    Cl77187  12.165   2.742  10.182 -0.1977  0.1896 -0.2932
  560MOL0     C77188  11.912   3.277   9.222 -1.1798 -0.1029 -0.5233
  560MOL0     C77189  11.847   3.387   9.179  0.2292 -0.9734  0.7210
  560MOL0     O77190  11.779   3.693   9.279  0.7092 -0.1790 -0.4166
  560MOL0     C77191  11.457   3.703   9.106 -0.7393 -0.2386 -0.0218
  560MOL0     C77192  11.359   3.790   9.055  0.1417  0.0335 -0.6497
  560MOL0     N77193  10.699   4.086   9.185 -0.5986  0.3907  0.4970
  560MOL0     N77194  10.611   4.118   9.270 -0.2108  0.3055 -0.2497
  560MOL0     C77195   9.499   4.831   9.322 -0.3622  0.4449  0.6574
  560MOL0     C77196   9.406   4.901   9.414 -0.6418  0.0861  0.2511
  560MOL0     C77197   9.169   4.987   9.788  0.8446  0.2508 -0.6152
  560MOL0     C77198   9.034   4.941   9.803  0.6467  0.1325 -0.8668
  560MOL0     C77199   8.941   5.023   9.867  0.3392 -0.6418 -0.2166
  560MOL0     C77200   8.969   5.151   9.899 -0.8742 -0.0258  0.0070
  560MOL0     O77201   8.884   5.230   9.969 -0.1636  0.1066 -0.0121
  560MOL0     C77202   8.912   5.225  10.113 -0.6803 -0.0046  0.8081
  560MOL0     C77203   8.838   5.120  10.182  0.4094  0.0307 -0.2315
  560MOL0     C77204   8.686   5.155  10.186 -0.6757 -0.6600  0.1385
  560MOL0     C77205   8.615   5.026  10.221  0.2166 -0.7962  0.1300
  560MOL0     C77206   8.471   5.063  10.236 -0.1184  0.7645 -0.1140
  560MOL0     C77207   8.350   5.074  10.237  0.1943  0.6875  0.6785
  560MOL0     C77208   9.095   5.213   9.866  0.8517 -0.1748  0.1331
  560MOL0     C77209   9.198   5.126   9.823  0.2530 -0.0245  0.3660
  560MOL0     C77210   9.331   5.193   9.804 -0.4581 -0.2786  0.2314
  560MOL0     H77211   9.547   4.772   9.704 -0.9364  2.4091  0.3293
  560MOL0     H77212   9.668   4.636   9.553 -1.1958 -0.3012  3.5760
  560MOL0     H77213   9.783   4.509   9.320  0.6350 -0.2757  1.3034
  560MOL0     H77214   9.847   4.632   9.428  0.7681  0.1673 -0.0288
  560MOL0     H77215   9.965   4.556   9.175  0.9541  2.0511 -2.1509
  560MOL0     H77216   9.879   4.702   9.145  0.6405 -0.5468  0.1505
  560MOL0     H77217  10.090   4.778   9.230  2.3870 -2.1408  1.1959
  560MOL0     H77218   9.993   4.800   9.372  1.1845 -0.6044  1.7220
  560MOL0     H77219  10.157   4.687   9.472  1.2744 -1.8804  0.1087
  560MOL0     H77220  10.055   4.555   9.447  0.4596 -1.3058 -0.0983
  560MOL0     H77221  10.269   4.636   9.239 -0.1432 -0.6208 -1.1258
  560MOL0     H77222  10.184   4.484   9.254  1.1454 -2.3497  1.9013
  560MOL0     H77223  10.410   4.573   9.437 -1.0926  2.8380 -2.3844
  560MOL0     H77224  10.302   4.436   9.473 -0.5946 -0.8593 -1.0481
  560MOL0     H77225  10.495   4.482   9.225 -0.4008 -3.0434 -1.7516
  560MOL0     H77226  10.380   4.355   9.225  1.5314 -2.2707  0.5116
  560MOL0     H77227  10.614   4.404   9.428  0.5309  0.6303 -0.8486
  560MOL0     H77228  10.498   4.273   9.438  2.7323 -0.5184  1.5574
  560MOL0     H77229  10.746   4.407   9.187 -2.3209  1.1079  0.1614
  560MOL0     H77230  10.924   4.297   9.052 -1.2876 -0.0455  0.0927
  560MOL0     H77231  10.813   4.215   8.933 -1.0298 -2.2020  0.2723
  560MOL0     H77232  11.011   4.097   9.129 -0.4768  1.3678  0.2258
  560MOL0     H77233  10.912   3.997   9.032  1.3019 -0.0917  4.8305
  560MOL0     H77234  11.022   4.086   8.820  1.2887 -0.3251 -0.7874
  560MOL0     H77235  11.123   4.197   8.909 -1.2467 -0.0171 -1.3638
  560MOL0     H77236  11.129   3.896   8.975  1.5891  0.6786  3.5124
  560MOL0     H77237  11.234   3.971   8.850  1.5284  2.1087  0.7513
  560MOL0     H77238  11.437   4.076   9.220  0.7003 -0.6430  1.2104
  560MOL0     H77239  11.638   4.032   9.384 -1.0705 -0.2537  0.3729
  560MOL0     H77240  11.745   3.969   9.269  0.0715  0.6936 -0.5454
  560MOL0     H77241  11.669   3.860   9.402  0.6729 -1.1180 -0.3627
  560MOL0     H77242  11.584   3.395   9.395 -0.1689  0.2489  0.0797
  560MOL0     H77243  11.734   3.220   9.506  0.8824  0.4355  0.2507
  560MOL0     H77244  12.007   2.985   9.277  1.3567  1.0840 -0.7781
  560MOL0     H77245  12.106   3.121   9.342 -0.2861 -0.5761  1.3992
  560MOL0     H77246  12.037   2.871   9.491  1.0367 -1.1403  0.1224
  560MOL0     H77247  12.188   2.904   9.399  3.2477  1.4220  1.4343
  560MOL0     H77248  12.050   3.071   9.615 -0.0720  0.0218 -1.4253
  560MOL0     H77249  12.210   3.108   9.581  0.6740  1.0107  2.6824
  560MOL0     H77250  12.265   2.986   9.770 -0.8113 -1.8204  1.8154
  560MOL0     H77251  12.279   2.863   9.655  1.9666  1.2055 -0.1331
  560MOL0     H77252  12.024   2.904   9.819 -2.5423 -3.7227 -0.0370
  560MOL0     H77253  12.053   2.781   9.701 -2.1463  2.5896 -0.9376
  560MOL0     H77254  12.225   2.810   9.951  4.6083 -0.4945 -2.8320
  560MOL0     H77255  12.259   2.700   9.828 -0.7057 -1.0636  2.0195
  560MOL0     H77256  12.078   2.573   9.860  1.9857  1.6813 -1.3442
  560MOL0     H77257  11.983   2.694   9.929  0.2556 -0.1096 -1.9907
  560MOL0     H77258  12.227   2.545  10.053  1.1189  2.2642  1.8202
  560MOL0     H77259  12.056   2.536  10.106  0.2595 -0.7116 -0.2093
  560MOL0     H77260  12.000   3.243   9.170  0.2121  1.3677  0.7621
  560MOL0     H77261  11.882   3.441   9.091 -2.0605 -4.1187 -2.4394
  560MOL0     H77262  11.459   3.604   9.061 -0.8822 -0.3060  0.1217
  560MOL0     H77263  11.277   3.752   8.995 -1.8555 -0.7619  2.3456
  560MOL0     H77264   9.493   4.847   9.215  1.5073  1.1873  0.6270
  560MOL0     H77265   9.326   4.969   9.388 -0.1570  1.3267  1.8578
  560MOL0     H77266   9.013   4.843   9.761 -0.4183 -0.3494  0.7138
  560MOL0     H77267   8.848   4.970   9.889  0.0064 -0.8461 -1.9342
  560MOL0     H77268   9.019   5.212  10.133 -0.2187  3.3537  1.1358
  560MOL0     H77269   8.882   5.324  10.149  0.9037  0.6220  0.5014
  560MOL0     H77270   8.874   5.118  10.286 -0.4597  0.8040  0.0995
  560MOL0     H77271   8.852   5.020  10.139 -1.8013 -1.0353  1.3161
  560MOL0     H77272   8.661   5.232  10.260 -3.6946  0.4064 -1.8121
  560MOL0     H77273   8.647   5.188  10.090  2.0580  2.6042 -0.0588
  560MOL0     H77274   8.644   4.977  10.314 -0.1461  0.5100  0.9528
  560MOL0     H77275   8.617   4.967  10.128 -3.3893  0.8623 -1.1841
  560MOL0     H77276   8.243   5.087  10.238  0.0842 -0.0947 -0.0551
  560MOL0     H77277   9.118   5.317   9.887  2.4872 -0.0019 -2.1436
  560MOL0     H77278   9.337   5.217   9.698 -1.7825 -2.3954 -0.3949
  560MOL0     H77279   9.354   5.277   9.870  1.6056 -0.7106  0.1210
  560MOL0     H77280   9.406   5.118   9.832 -1.7589 -0.9979  2.0211
  561MOL0     O77281   9.956   3.106   3.357 -0.2393 -0.0381  0.4166
  561MOL0     C77282   9.893   3.153   3.261  0.8034 -0.7994  0.0704
  561MOL0     O77283   9.944   3.237   3.166  0.1753  0.4388  0.3246
  561MOL0     C77284  10.073   3.268   3.180 -0.4472  0.1657 -0.0610
  561MOL0     C77285  10.122   3.376   3.253 -0.5675  0.1538  0.2421
  561MOL0     C77286  10.259   3.392   3.261  0.1093 -0.3310  0.0304
  561MOL0     C77287  10.349   3.295   3.224 -0.6820 -0.3524  0.0316
  561MOL0     O77288  10.483   3.329   3.232 -0.0818 -0.1292 -1.1070
  561MOL0     C77289  10.596   3.270   3.158  0.1812 -0.5718 -0.1254
  561MOL0     C77290  10.716   3.373   3.175  0.7165 -0.5214  0.2645
  561MOL0     C77291  10.833   3.312   3.108 -1.0500  0.7046  0.5251
  561MOL0     C77292  10.948   3.400   3.135  0.7908  0.6504  0.1238
  561MOL0     C77293  11.024   3.350   3.258 -0.3666  0.7406  0.4739
  561MOL0     C77294  11.116   3.443   3.325  0.6439  0.3963 -0.1665
  561MOL0     C77295  11.187   3.388   3.446  0.8519  0.2650  0.3413
  561MOL0     C77296  11.273   3.496   3.516 -0.0087  0.8240 -0.3355
  561MOL0     N77297  11.400   3.531   3.449 -0.5020  0.6446 -0.3346
  561MOL0     C77298  11.515   3.449   3.451 -0.6380 -0.7151 -0.0891
  561MOL0     C77299  11.600   3.512   3.363  0.3394 -0.0702 -0.4456
  561MOL0     C77300  11.741   3.472   3.330  0.0816  0.0246 -0.2847
  561MOL0     C77301  11.745   3.402   3.199  0.3712  0.5652 -0.3380
  561MOL0     C77302  11.881   3.374   3.130  0.2369  0.1541  0.2356
  561MOL0     C77303  11.968   3.287   3.222  0.3421 -0.4056 -0.5805
  561MOL0     O77304  12.090   3.250   3.155  0.1079 -0.3176 -0.2994
  561MOL0     C77305  12.193   3.333   3.150  0.7149  0.3482  0.5138
  561MOL0     C77306  12.313   3.279   3.102 -0.4801  0.0969 -0.3054
  561MOL0     C77307  12.423   3.363   3.075 -0.0004  0.0456 -0.1328
  561MOL0     C77308  12.552   3.291   3.028 -0.6331  0.6632 -0.4695
  561MOL0     C77309  12.409   3.504   3.114 -1.2913 -0.5086  0.5865
  561MOL0     C77310  12.530   3.597   3.098 -1.0253 -0.5913  0.2975
  561MOL0     O77311  12.620   3.565   3.006 -0.1440 -0.2276  0.0519
  561MOL0     C77312  12.756   3.598   3.024  0.4368 -0.1319 -0.1467
  561MOL0     C77313  12.819   3.672   3.126 -0.2768  0.1193 -0.1488
  561MOL0     C77314  12.958   3.685   3.125 -1.0513  0.3666  1.4938
  561MOL0     C77315  13.036   3.604   3.038  0.2068 -0.9207 -0.0277
  561MOL0     O77316  13.171   3.607   3.066  0.4897 -0.1053 -0.8482
  561MOL0     C77317  13.240   3.674   2.960 -1.3101 -0.0597 -0.7950
  561MOL0     C77318  13.387   3.696   3.009  0.2223 -0.6023 -0.4755
  561MOL0     C77319  13.459   3.793   2.912  0.0783 -0.1848  0.4789
  561MOL0     C77320  13.591   3.838   2.965  0.2669  0.3553  0.3436
  561MOL0     C77321  13.683   3.895   2.858 -0.0247 -0.2188 -0.0878
  561MOL0     C77322  13.814   3.940   2.929 -0.4970 -0.8399  0.1135
  561MOL0     C77323  13.916   3.994   2.831  0.4002 -0.4570 -0.3826
  561MOL0     C77324  14.032   4.061   2.905  0.0331  0.5771  0.5607
  561MOL0    Cl77325  14.143   3.925   2.963 -0.3727 -0.7406  0.3935
  561MOL0     C77326  12.976   3.545   2.932  0.7740  0.4270  0.0065
  561MOL0     C77327  12.837   3.546   2.927 -0.2850  0.0375  0.2395
  561MOL0     O77328  12.537   3.692   3.182 -0.4433 -0.4467 -0.1989
  561MOL0     C77329  12.293   3.551   3.170  0.1531 -0.2410  0.6286
  561MOL0     C77330  12.189   3.464   3.182  0.5595  0.3815 -0.0098
  561MOL0     N77331  11.529   3.621   3.309  0.0444 -0.4855 -0.3121
  561MOL0     N77332  11.415   3.622   3.355  0.3459 -0.3198  0.3654
  561MOL0     C77333  10.295   3.187   3.156 -0.0461 -0.4184 -0.1989
  561MOL0     C77334  10.162   3.171   3.131  0.6043  0.1876 -0.6678
  561MOL0     C77335   9.758   3.102   3.238  0.2886 -0.1861  0.8472
  561MOL0     C77336   9.718   3.092   3.105 -0.2777 -0.1233 -0.3072
  561MOL0     C77337   9.611   3.017   3.063  0.5413  0.6656  0.3305
  561MOL0     C77338   9.538   2.933   3.151 -0.7811 -0.1246  0.4990
  561MOL0     O77339   9.464   2.827   3.108 -0.0465 -0.0416  0.1257
  561MOL0     C77340   9.323   2.850   3.134  0.8554 -0.3774  1.0530
  561MOL0     C77341   9.261   2.920   3.013 -0.3852 -0.5408 -0.3614
  561MOL0     C77342   9.157   3.024   3.053 -0.0894  0.0289 -0.6218
  561MOL0     C77343   9.090   3.078   2.928 -0.1326  0.4255 -0.5398
  561MOL0     C77344   8.997   3.183   2.974  0.1418  0.8795 -0.3719
  561MOL0     C77345   8.903   3.260   3.004 -0.5847  0.2193  0.3180
  561MOL0     C77346   9.577   2.932   3.280 -0.1258 -0.0298 -0.6515
  561MOL0     C77347   9.679   3.025   3.328 -0.1417  0.1030  0.0828
  561MOL0     C77348   9.691   3.023   3.480  0.1152  0.2991  0.3045
  561MOL0     H77349  10.059   3.459   3.283 -0.8160 -0.5379  1.7505
  561MOL0     H77350  10.306   3.473   3.316  0.2317 -0.7958  0.6259
  561MOL0     H77351  10.575   3.260   3.051  1.4360 -1.9807 -0.2887
  561MOL0     H77352  10.616   3.171   3.200 -1.0793 -1.1378 -0.7992
  561MOL0     H77353  10.677   3.454   3.113  3.6606  0.9419  0.1351
  561MOL0     H77354  10.734   3.402   3.279 -2.7635  1.5035  0.4587
  561MOL0     H77355  10.843   3.216   3.157 -1.5070  0.4842  0.1990
  561MOL0     H77356  10.803   3.295   3.004  1.5447 -2.0364  0.1143
  561MOL0     H77357  11.022   3.382   3.056  1.4533 -2.3973  1.2762
  561MOL0     H77358  10.921   3.505   3.141  0.7056  0.5646  1.3307
  561MOL0     H77359  11.067   3.249   3.250 -0.2252  0.8788 -0.7673
  561MOL0     H77360  10.950   3.318   3.332  1.3996 -2.8104  0.9309
  561MOL0     H77361  11.193   3.488   3.262  2.3237  0.0361  1.5459
  561MOL0     H77362  11.050   3.527   3.350 -1.0859 -1.0486  0.3580
  561MOL0     H77363  11.253   3.302   3.426 -0.7879 -1.5618  2.3665
  561MOL0     H77364  11.116   3.351   3.520  0.2075  0.1921 -0.2972
  561MOL0     H77365  11.222   3.592   3.529  1.3216  1.4056  0.8126
  561MOL0     H77366  11.297   3.452   3.613 -1.4046  0.1533 -0.2615
  561MOL0     H77367  11.538   3.359   3.506 -2.3951 -1.4571 -0.5029
  561MOL0     H77368  11.776   3.405   3.408 -0.0986  1.3210  0.9507
  561MOL0     H77369  11.804   3.562   3.330  0.6646 -0.3775 -0.6444
  561MOL0     H77370  11.700   3.302   3.203  1.6000 -0.0007 -0.3144
  561MOL0     H77371  11.688   3.461   3.127 -1.8512 -1.3297 -0.2468
  561MOL0     H77372  11.856   3.315   3.041 -0.1357  3.1903 -1.7952
  561MOL0     H77373  11.933   3.463   3.094  1.0264 -0.9307 -1.4190
  561MOL0     H77374  11.988   3.339   3.316 -0.0607 -0.6503 -0.3577
  561MOL0     H77375  11.920   3.191   3.242  0.5220  0.1008  2.8496
  561MOL0     H77376  12.312   3.172   3.085 -3.9034  0.0117 -0.3262
  561MOL0     H77377  12.628   3.305   3.105 -1.7655 -0.4854  0.9300
  561MOL0     H77378  12.580   3.331   2.930 -1.9488 -0.3584 -1.2981
  561MOL0     H77379  12.550   3.182   3.020 -0.2365  0.6897 -0.9815
  561MOL0     H77380  12.763   3.707   3.212  1.4336  1.3930  0.5079
  561MOL0     H77381  13.004   3.738   3.207  1.0102 -2.6699  2.4519
  561MOL0     H77382  13.257   3.606   2.877 -0.6273  0.8597 -1.4309
  561MOL0     H77383  13.195   3.770   2.934 -0.1490  1.2455  1.6017
  561MOL0     H77384  13.388   3.740   3.110 -0.3074  0.3083 -0.8576
  561MOL0     H77385  13.438   3.599   3.012 -0.1192 -0.8078 -1.1023
  561MOL0     H77386  13.400   3.882   2.890  0.3290  0.0841  0.8829
  561MOL0     H77387  13.485   3.741   2.820  0.2002 -1.5712  1.2656
  561MOL0     H77388  13.641   3.748   3.004 -1.7949 -1.1926 -0.4291
  561MOL0     H77389  13.582   3.909   3.048 -1.4982  1.3881 -0.6841
  561MOL0     H77390  13.709   3.812   2.791  1.4073  1.7408 -2.1246
  561MOL0     H77391  13.626   3.975   2.809  1.6209  2.0826  1.5139
  561MOL0     H77392  13.865   3.852   2.970 -0.2130 -2.6054 -3.6647
  561MOL0     H77393  13.798   4.020   3.002 -1.1036 -0.8052 -0.0500
  561MOL0     H77394  13.865   4.072   2.773 -1.3167  0.0535  1.6944
  561MOL0     H77395  13.962   3.912   2.776  1.1151  0.0978 -0.6226
  561MOL0     H77396  13.988   4.123   2.984  1.1570 -1.9847  3.4254
  561MOL0     H77397  14.085   4.121   2.830  0.4415 -0.5325 -0.0707
  561MOL0     H77398  13.022   3.492   2.850 -0.5731  1.9537 -1.8393
  561MOL0     H77399  12.805   3.500   2.834  1.1917  2.4608 -1.5852
  561MOL0     H77400  12.290   3.653   3.206 -0.1329 -0.6802  1.9109
  561MOL0     H77401  12.097   3.513   3.214 -0.8934 -2.5967  0.7355
  561MOL0     H77402  10.365   3.107   3.134  1.2772  0.8787 -0.8485
  561MOL0     H77403  10.132   3.081   3.077  2.3285 -0.7638 -0.1362
  561MOL0     H77404   9.771   3.136   3.021 -2.5528 -1.5237 -2.6004
  561MOL0     H77405   9.584   3.009   2.958 -0.8530  0.2146  0.6960
  561MOL0     H77406   9.277   2.751   3.125 -1.4748  0.7828 -1.2718
  561MOL0     H77407   9.305   2.910   3.223  3.4960  0.6525  0.9926
  561MOL0     H77408   9.218   2.844   2.948  1.9730 -3.5693  1.3730
  561MOL0     H77409   9.342   2.967   2.957 -0.9688  2.2660  0.9829
  561MOL0     H77410   9.088   2.964   3.113  2.6585 -3.8990 -0.9777
  561MOL0     H77411   9.202   3.100   3.118  1.2466 -2.8346  2.0632
  561MOL0     H77412   9.036   2.996   2.879 -1.7386  0.1157  1.6104
  561MOL0     H77413   9.159   3.123   2.856  1.9035 -2.5672 -0.6759
  561MOL0     H77414   8.830   3.333   3.030  1.2126  2.2249  0.0617
  561MOL0     H77415   9.533   2.853   3.341 -1.8851 -0.6968 -2.6544
  561MOL0     H77416   9.792   3.051   3.510  1.2876  1.3983 -3.8869
  561MOL0     H77417   9.612   3.088   3.518 -0.4424 -0.1090 -0.1435
  561MOL0     H77418   9.673   2.921   3.517 -1.7683  1.3978  2.6649
  562MOL0     O77419   8.764   9.528   6.639  0.1488  0.6003  0.0802
  562MOL0     C77420   8.781   9.597   6.540 -0.3725  0.5858  0.1875
  562MOL0     O77421   8.866   9.699   6.521 -0.0426 -0.0269  0.2087
  562MOL0     C77422   8.980   9.699   6.603 -0.6140  0.2581 -0.7505
  562MOL0     C77423   9.114   9.696   6.561 -0.2671  0.2836 -0.9532
  562MOL0     C77424   9.222   9.693   6.651 -0.0342  0.6929 -0.1165
  562MOL0     C77425   9.205   9.691   6.789  0.0136 -0.4392 -0.3134
  562MOL0     O77426   9.315   9.679   6.866  0.2379  0.0842 -0.1024
  562MOL0     C77427   9.316   9.720   7.007 -0.3625 -0.8028  0.0945
  562MOL0     C77428   9.448   9.792   7.040 -0.2583  0.3190  0.6951
  562MOL0     C77429   9.566   9.709   7.044 -0.0596 -0.7100  0.1731
  562MOL0     C77430   9.691   9.804   7.078  0.0629  1.0308  0.1021
  562MOL0     C77431   9.818   9.726   7.085  0.1530 -0.2325 -0.5479
  562MOL0     C77432   9.937   9.823   7.111  0.1938 -0.4030 -0.0130
  562MOL0     C77433  10.063   9.763   7.083  0.2083 -0.2077 -0.5028
  562MOL0     C77434  10.179   9.857   7.126 -0.2343 -0.3341  0.5968
  562MOL0     N77435  10.169  10.002   7.067  0.3876  0.4481  0.9374
  562MOL0     C77436  10.111  10.110   7.131 -0.0783  0.2552 -0.6253
  562MOL0     C77437  10.111  10.204   7.041  0.6089  0.2588  0.1827
  562MOL0     C77438  10.043  10.340   7.042  0.1128 -0.2091  0.1121
  562MOL0     C77439  10.107  10.449   7.134  0.5576 -0.0666  0.3669
  562MOL0     C77440  10.043  10.597   7.116 -0.4127 -0.0880 -0.2592
  562MOL0     C77441   9.889  10.601   7.114  0.4999  0.6230  0.0602
  562MOL0     O77442   9.826  10.565   7.242 -0.1391 -0.4302 -0.0304
  562MOL0     C77443   9.691  10.547   7.241 -0.0301  0.0275 -1.1008
  562MOL0     C77444   9.650  10.530   7.375  0.2913  1.1584  0.3773
  562MOL0     C77445   9.512  10.530   7.401  0.3824  0.0381 -0.4898
  562MOL0     C77446   9.473  10.518   7.545 -0.6065  0.3676  0.0619
  562MOL0     C77447   9.415  10.534   7.302 -0.2115  0.1543  1.5137
  562MOL0     C77448   9.264  10.525   7.317 -0.7955  0.4713 -0.6508
  562MOL0     O77449   9.216  10.409   7.383  0.6454 -0.2698 -0.3163
  562MOL0     C77450   9.082  10.372   7.365 -0.1847 -1.0457  0.2095
  562MOL0     C77451   9.038  10.283   7.474  0.0318  0.5908  0.1809
  562MOL0     C77452   8.911  10.234   7.476 -0.0020 -0.1352 -0.0541
  562MOL0     C77453   8.812  10.279   7.388  0.1407  0.1437  0.5234
  562MOL0     O77454   8.680  10.243   7.409  0.1462  0.0843 -0.1477
  562MOL0     C77455   8.575  10.236   7.308 -0.6048  0.0785 -0.1616
  562MOL0     C77456   8.453  10.206   7.390  0.2643 -0.4678 -0.2731
  562MOL0     C77457   8.331  10.187   7.297 -0.8549 -0.3690  0.1079
  562MOL0     C77458   8.200  10.173   7.374 -0.6920  0.3864 -0.4430
  562MOL0     C77459   8.096  10.165   7.265 -0.4108 -0.5136  0.2986
  562MOL0     C77460   7.964  10.138   7.339  0.4786 -0.7521  0.2928
  562MOL0     C77461   7.845  10.118   7.240 -0.3225  0.2316 -0.1750
  562MOL0     C77462   7.708  10.110   7.302 -0.2815  0.8919 -0.4612
  562MOL0    Cl77463   7.667   9.947   7.367  0.0053 -0.4346 -0.3066
  562MOL0     C77464   8.848  10.359   7.276  0.1441 -0.1187 -0.9385
  562MOL0     C77465   8.984  10.410   7.267  0.4097  0.2013 -0.0616
  562MOL0     O77466   9.201  10.615   7.264 -0.3201 -0.1093 -0.2510
  562MOL0     C77467   9.461  10.551   7.168  0.0919 -0.1653  0.1466
  562MOL0     C77468   9.594  10.559   7.141  0.1194 -0.1069  0.6790
  562MOL0     N77469  10.201  10.164   6.939  0.6220  0.2384 -0.1534
  562MOL0     N77470  10.226  10.038   6.956  0.5309 -0.6838  0.2371
  562MOL0     C77471   9.074   9.695   6.839  0.3821 -0.1254 -0.5825
  562MOL0     C77472   8.966   9.700   6.745  0.4906  0.1958  0.4411
  562MOL0     C77473   8.657   9.583   6.452 -1.0867  0.6425  0.9438
  562MOL0     C77474   8.671   9.513   6.328 -0.6707 -0.8318 -0.3904
  562MOL0     C77475   8.552   9.484   6.250  0.1992  0.9994 -0.3864
  562MOL0     C77476   8.425   9.526   6.300 -0.2831  0.6796  0.9418
  562MOL0     O77477   8.300   9.490   6.235 -0.4438 -0.2349  0.0291
  562MOL0     C77478   8.300   9.402   6.125 -0.9627 -0.0574 -1.1000
  562MOL0     C77479   8.334   9.258   6.176 -0.0249 -0.3728 -0.0721
  562MOL0     C77480   8.354   9.166   6.044  0.0583  0.5326 -1.3199
  562MOL0     C77481   8.481   9.184   5.960 -0.0378  0.3987  0.2105
  562MOL0     C77482   8.596   9.153   6.037 -0.2081  0.0560  0.0992
  562MOL0     C77483   8.700   9.132   6.103 -0.6040  0.1341  0.1790
  562MOL0     C77484   8.419   9.586   6.425  0.7157  1.1681 -0.8519
  562MOL0     C77485   8.532   9.613   6.499 -0.3393 -0.6742  0.1627
  562MOL0     C77486   8.523   9.686   6.632  0.2391 -0.2612 -0.5730
  562MOL0     H77487   9.144   9.713   6.458  0.9007 -0.6326 -0.7899
  562MOL0     H77488   9.324   9.698   6.613  0.3053  2.4673  0.9190
  562MOL0     H77489   9.295   9.633   7.070  0.8099  0.0693  1.7638
  562MOL0     H77490   9.236   9.789   7.036  2.7989  2.6385  1.5677
  562MOL0     H77491   9.465   9.863   6.958 -2.0771 -1.3596 -1.2853
  562MOL0     H77492   9.433   9.844   7.135  0.8022  1.2529  0.3817
  562MOL0     H77493   9.562   9.622   7.109  3.9883 -0.5336  0.8885
  562MOL0     H77494   9.583   9.674   6.942  0.5479  0.9280 -0.3325
  562MOL0     H77495   9.696   9.874   6.994 -1.7291 -0.2378 -1.1460
  562MOL0     H77496   9.676   9.855   7.174  0.2806  0.5852  0.3758
  562MOL0     H77497   9.821   9.671   6.991 -1.5711  0.8029 -1.2511
  562MOL0     H77498   9.810   9.661   7.173 -1.0215  0.6903  0.0599
  562MOL0     H77499   9.926   9.917   7.055 -2.5460 -1.0279 -0.6765
  562MOL0     H77500   9.925   9.851   7.216  3.3084  1.5019 -0.0370
  562MOL0     H77501  10.074   9.744   6.976 -1.8708 -3.8745 -0.2101
  562MOL0     H77502  10.069   9.666   7.133  0.4944  0.1554  0.1969
  562MOL0     H77503  10.184   9.862   7.236  1.7967  4.3058  0.5175
  562MOL0     H77504  10.276   9.818   7.095  0.0433 -0.3041  1.3925
  562MOL0     H77505  10.045  10.120   7.216 -1.3708  1.0090 -1.6880
  562MOL0     H77506   9.937  10.329   7.069 -0.3395  0.8736 -1.0718
  562MOL0     H77507  10.038  10.385   6.942  1.0454 -2.5920 -1.0946
  562MOL0     H77508  10.091  10.420   7.239  2.6769  0.0392  0.7517
  562MOL0     H77509  10.215  10.457   7.124  0.4430  1.5703  0.2212
  562MOL0     H77510  10.079  10.649   7.205  3.2622 -2.6035 -0.0161
  562MOL0     H77511  10.090  10.650   7.032  1.7662 -0.5417  0.5842
  562MOL0     H77512   9.850  10.699   7.088 -2.4287 -0.7195 -1.0204
  562MOL0     H77513   9.850  10.531   7.039 -1.3827  1.8074 -0.1205
  562MOL0     H77514   9.723  10.502   7.451  1.1272 -1.4263 -1.2250
  562MOL0     H77515   9.467  10.413   7.576  0.3781  1.1862  3.4343
  562MOL0     H77516   9.377  10.565   7.569 -0.6648  1.7315 -2.4925
  562MOL0     H77517   9.549  10.561   7.612  0.4049 -0.3572 -0.5941
  562MOL0     H77518   9.105  10.257   7.556  0.8647  2.9504  0.3267
  562MOL0     H77519   8.886  10.161   7.552  0.9221  0.6804  1.0802
  562MOL0     H77520   8.566  10.321   7.239  1.2518 -0.9165 -1.7056
  562MOL0     H77521   8.593  10.149   7.245 -0.4676  1.2970 -1.8763
  562MOL0     H77522   8.471  10.134   7.470  1.6876  2.9514  2.8052
  562MOL0     H77523   8.432  10.294   7.452 -3.5308 -4.3156  4.8141
  562MOL0     H77524   8.336  10.103   7.227 -2.5851 -0.2671 -0.1806
  562MOL0     H77525   8.331  10.278   7.237  2.4217 -0.7721 -0.6837
  562MOL0     H77526   8.191  10.259   7.441 -0.3158 -2.3364  3.4384
  562MOL0     H77527   8.201  10.093   7.448  0.5073  1.5746  0.8986
  562MOL0     H77528   8.096  10.257   7.205  1.6019 -1.2941 -1.0352
  562MOL0     H77529   8.117  10.085   7.193 -3.1337 -0.8593 -0.2078
  562MOL0     H77530   7.935  10.224   7.399 -1.2657 -1.9943  1.3271
  562MOL0     H77531   7.975  10.050   7.403  1.5917  0.0473  1.2504
  562MOL0     H77532   7.865  10.032   7.175 -0.5915  0.0334  0.0044
  562MOL0     H77533   7.828  10.196   7.165 -1.4277  0.5939  0.4336
  562MOL0     H77534   7.638  10.134   7.222 -0.8434  1.0884  0.0820
  562MOL0     H77535   7.712  10.187   7.380  0.6887  1.3464 -0.9314
  562MOL0     H77536   8.780  10.397   7.201 -0.0016  0.7691 -0.3657
  562MOL0     H77537   9.017  10.483   7.195 -1.0705 -0.5850 -1.6043
  562MOL0     H77538   9.390  10.560   7.086 -0.4770  1.9430  0.8000
  562MOL0     H77539   9.625  10.579   7.039 -2.9672 -0.1585 -0.3649
  562MOL0     H77540   9.048   9.694   6.944 -3.4504 -1.5706 -1.4103
  562MOL0     H77541   8.866   9.704   6.787 -0.9661 -0.7817 -2.6674
  562MOL0     H77542   8.770   9.473   6.312 -1.5076 -2.3439 -2.1414
  562MOL0     H77543   8.558   9.424   6.160 -1.1839  1.0427 -0.5378
  562MOL0     H77544   8.199   9.397   6.083 -3.2943  2.5774  3.5253
  562MOL0     H77545   8.370   9.428   6.045 -0.5927 -1.4821 -1.2689
  562MOL0     H77546   8.248   9.224   6.234 -0.4838 -1.2430 -1.2274
  562MOL0     H77547   8.420   9.260   6.244 -0.7381 -0.5158  0.8493
  562MOL0     H77548   8.359   9.064   6.084  1.2420  0.4341 -1.6786
  562MOL0     H77549   8.264   9.197   5.989 -1.0135  0.7338  0.4563
  562MOL0     H77550   8.486   9.286   5.921 -0.9411 -0.2440 -1.7464
  562MOL0     H77551   8.472   9.126   5.867  0.5960  1.6440 -0.6645
  562MOL0     H77552   8.790   9.125   6.161  0.3665  1.4223 -1.1185
  562MOL0     H77553   8.327   9.627   6.465  1.6937  1.2183  1.5198
  562MOL0     H77554   8.579   9.780   6.632  0.1277 -0.1951 -0.2559
  562MOL0     H77555   8.418   9.707   6.655  0.6650 -1.8929  3.9170
  562MOL0     H77556   8.559   9.632   6.719  0.9597  0.6157 -0.3150
  563MOL0     O77557  10.770   9.602   2.677  0.6299 -0.1961 -1.0624
  563MOL0     C77558  10.724   9.675   2.590  0.1787 -0.2649  0.0474
  563MOL0     O77559  10.779   9.704   2.470  0.0235  0.5594  0.1501
  563MOL0     C77560  10.909   9.661   2.453  1.0246 -0.5992  0.4386
  563MOL0     C77561  11.018   9.708   2.514  0.4557 -0.6303 -0.2537
  563MOL0     C77562  11.154   9.668   2.484  0.8239 -0.9834 -0.4021
  563MOL0     C77563  11.174   9.574   2.382 -0.0760  0.0545  0.1245
  563MOL0     O77564  11.298   9.516   2.350  0.4287 -0.0297 -0.3525
  563MOL0     C77565  11.393   9.508   2.466  0.4818 -0.0741  0.7371
  563MOL0     C77566  11.518   9.429   2.419  1.0129  0.4287 -0.6479
  563MOL0     C77567  11.633   9.445   2.510 -0.1984 -0.3090  0.3396
  563MOL0     C77568  11.758   9.360   2.466  0.2422 -0.5805 -0.3716
  563MOL0     C77569  11.848   9.321   2.593  0.0300 -0.8301  0.0519
  563MOL0     C77570  11.969   9.227   2.556 -1.0348  0.0414  0.0270
  563MOL0     C77571  12.075   9.293   2.460  0.3583 -0.3869  0.3982
  563MOL0     C77572  12.142   9.418   2.501  0.2667  0.3193  0.2048
  563MOL0     N77573  12.257   9.451   2.421  0.0077 -0.0051 -0.3880
  563MOL0     C77574  12.380   9.393   2.436 -0.5085 -0.3984 -0.1377
  563MOL0     C77575  12.470   9.460   2.365 -0.1099  0.2088  0.2867
  563MOL0     C77576  12.617   9.415   2.355 -0.4350 -0.7271 -0.4787
  563MOL0     C77577  12.718   9.531   2.342  0.2231  0.3721 -0.0524
  563MOL0     C77578  12.755   9.585   2.478 -0.6012  0.1836  0.0415
  563MOL0     C77579  12.893   9.651   2.467  0.7991  0.0200  0.1105
  563MOL0     O77580  12.928   9.695   2.597 -0.3387 -0.8796  0.5605
  563MOL0     C77581  13.047   9.762   2.621 -0.1833  1.0722  0.4454
  563MOL0     C77582  13.065   9.817   2.748  0.8712  0.2392  0.5136
  563MOL0     C77583  13.188   9.866   2.793  0.8027  0.1976  0.4569
  563MOL0     C77584  13.201   9.900   2.936 -0.0748  0.1038 -0.7733
  563MOL0     C77585  13.286   9.884   2.697 -0.0164  0.2105 -0.4477
  563MOL0     C77586  13.423   9.954   2.713  0.6718 -0.0284  0.7998
  563MOL0     O77587  13.500   9.979   2.596 -0.0701 -0.0144  0.0563
  563MOL0     C77588  13.609  10.062   2.609 -0.2196  0.3006  0.4446
  563MOL0     C77589  13.600  10.197   2.588  0.3214  1.0640 -0.7515
  563MOL0     C77590  13.712  10.275   2.574 -0.7931  0.2761  0.4813
  563MOL0     C77591  13.841  10.224   2.590 -0.2032  0.0741 -0.2939
  563MOL0     O77592  13.955  10.293   2.603 -0.3656  0.0578  0.5157
  563MOL0     C77593  13.963  10.426   2.560 -0.4103  0.0884 -0.2058
  563MOL0     C77594  14.108  10.482   2.591  0.0701 -0.0131  0.7623
  563MOL0     C77595  14.214  10.416   2.492  0.0276 -0.5399  1.1025
  563MOL0     C77596  14.332  10.513   2.476 -0.1313  0.3031 -0.3548
  563MOL0     C77597  14.443  10.463   2.391  0.2035 -0.0928 -0.5428
  563MOL0     C77598  14.555  10.572   2.365 -0.6426  0.1229 -0.2272
  563MOL0     C77599  14.643  10.610   2.489 -0.0964 -0.0782 -0.0100
  563MOL0     C77600  14.693  10.759   2.499  0.7504 -0.0338 -0.2063
  563MOL0    Cl77601  14.547  10.857   2.528  0.5823 -0.2257  0.4131
  563MOL0     C77602  13.854  10.086   2.604  0.4117  0.5085  0.8850
  563MOL0     C77603  13.738  10.002   2.621  0.4161 -0.7456  0.4027
  563MOL0     O77604  13.455   9.995   2.823  0.3602 -0.2713  0.3066
  563MOL0     C77605  13.263   9.846   2.563 -0.3279 -0.2768 -0.3399
  563MOL0     C77606  13.153   9.768   2.530 -0.0003  0.2902 -0.4585
  563MOL0     N77607  12.409   9.580   2.317 -0.3614  0.4961 -0.4366
  563MOL0     N77608  12.283   9.561   2.348  0.7222 -0.7983  0.0020
  563MOL0     C77609  11.057   9.524   2.322 -0.4990 -0.2623  0.3578
  563MOL0     C77610  10.931   9.562   2.354  0.6218  0.1011 -0.4515
  563MOL0     C77611  10.593   9.730   2.616 -0.0963  0.2427  0.4138
  563MOL0     C77612  10.548   9.821   2.527  0.2776  0.0035  0.0119
  563MOL0     C77613  10.421   9.889   2.532 -0.4029 -0.4550 -0.1625
  563MOL0     C77614  10.340   9.869   2.648 -0.1172 -0.2967  0.1292
  563MOL0     O77615  10.230   9.946   2.666  0.0045 -0.0496  0.1648
  563MOL0     C77616  10.146   9.994   2.554 -0.1741  0.2635 -0.7136
  563MOL0     C77617  10.001  10.003   2.603 -0.3504 -0.3261  0.9440
  563MOL0     C77618   9.942   9.871   2.658  1.0288  0.3773 -0.5933
  563MOL0     C77619   9.796   9.886   2.685  0.2638 -0.2699  0.2426
  563MOL0     C77620   9.745   9.771   2.749  0.0708 -0.9500  0.5099
  563MOL0     C77621   9.692   9.676   2.797 -0.3376  0.5693  0.7095
  563MOL0     C77622  10.379   9.772   2.735 -0.1901  0.9290  0.1856
  563MOL0     C77623  10.506   9.701   2.719  0.0384  0.3706  0.7176
  563MOL0     C77624  10.522   9.594   2.811  0.1434  0.4370 -0.8748
  563MOL0     H77625  11.003   9.783   2.591  2.6777  1.4708 -1.7036
  563MOL0     H77626  11.228   9.709   2.553 -0.9820  0.6805  0.6620
  563MOL0     H77627  11.345   9.456   2.549  1.7176 -1.0513  0.8656
  563MOL0     H77628  11.423   9.609   2.495  2.1241 -0.2802 -0.1322
  563MOL0     H77629  11.492   9.322   2.416 -4.2142  1.3089  1.9260
  563MOL0     H77630  11.555   9.467   2.323 -1.5126  3.7352 -0.4733
  563MOL0     H77631  11.660   9.551   2.514  0.7715 -0.2725 -3.6828
  563MOL0     H77632  11.592   9.411   2.606  1.8250  0.2604  1.4628
  563MOL0     H77633  11.732   9.265   2.417  0.3413 -1.5139  1.3065
  563MOL0     H77634  11.820   9.415   2.394 -0.2997  1.4519  0.6552
  563MOL0     H77635  11.786   9.261   2.661 -0.2427 -1.2524 -0.5560
  563MOL0     H77636  11.885   9.407   2.649 -0.5601 -1.5802  1.6733
  563MOL0     H77637  12.019   9.195   2.648  0.2308  1.2127 -0.2385
  563MOL0     H77638  11.916   9.145   2.505 -1.7758 -1.6583  3.2533
  563MOL0     H77639  12.030   9.306   2.361  2.3851  1.3469 -0.3647
  563MOL0     H77640  12.153   9.216   2.454 -1.1583 -1.9016 -1.3488
  563MOL0     H77641  12.071   9.501   2.505  0.8019  0.7563  2.3931
  563MOL0     H77642  12.172   9.410   2.606  1.6859  1.7990 -0.0329
  563MOL0     H77643  12.404   9.305   2.496  1.0582 -0.8070 -1.2948
  563MOL0     H77644  12.628   9.350   2.268 -0.4450 -0.8488 -0.3884
  563MOL0     H77645  12.643   9.363   2.447 -0.6694  1.9139  1.1899
  563MOL0     H77646  12.805   9.487   2.293  1.9014  1.1512  2.0673
  563MOL0     H77647  12.684   9.610   2.275  2.3949 -0.6128 -2.4874
  563MOL0     H77648  12.677   9.655   2.507 -0.4059  0.9812 -1.2772
  563MOL0     H77649  12.763   9.503   2.551 -0.7526  0.4525  0.3584
  563MOL0     H77650  12.956   9.573   2.425  0.3636  0.4281 -1.3809
  563MOL0     H77651  12.878   9.732   2.394 -1.4479 -0.3170  0.1139
  563MOL0     H77652  12.970   9.819   2.801  1.2579 -1.4296  1.3685
  563MOL0     H77653  13.297   9.864   2.975 -0.9893  0.2306  1.7789
  563MOL0     H77654  13.124   9.839   2.983  1.2181 -0.7708  0.2635
  563MOL0     H77655  13.184  10.006   2.957 -2.3599 -0.0807 -1.3825
  563MOL0     H77656  13.498  10.231   2.575 -1.1921 -1.8807  1.9766
  563MOL0     H77657  13.687  10.378   2.549 -0.0993  0.8761  2.1335
  563MOL0     H77658  13.948  10.425   2.452 -0.3361 -1.3051 -0.2200
  563MOL0     H77659  13.884  10.486   2.606 -0.7506 -0.5979  0.1170
  563MOL0     H77660  14.106  10.590   2.577 -0.7613 -0.1699 -0.5100
  563MOL0     H77661  14.130  10.461   2.696 -1.0614 -0.9928  0.8314
  563MOL0     H77662  14.174  10.395   2.392  3.3374 -2.9541  0.1191
  563MOL0     H77663  14.255  10.320   2.525  0.4636 -1.7549 -2.5466
  563MOL0     H77664  14.369  10.539   2.576  2.6687  0.1960 -1.2863
  563MOL0     H77665  14.296  10.608   2.435  1.7080  0.8650 -0.7236
  563MOL0     H77666  14.485  10.373   2.437  4.4908  3.0065  2.3584
  563MOL0     H77667  14.411  10.440   2.289  1.1251 -1.3209 -0.5726
  563MOL0     H77668  14.509  10.666   2.333  0.8409  1.6214  1.8042
  563MOL0     H77669  14.613  10.532   2.282 -0.3342 -1.4765  0.7171
  563MOL0     H77670  14.734  10.550   2.495  1.2871  1.7483 -1.3402
  563MOL0     H77671  14.586  10.590   2.581  0.0121 -0.6509 -0.0673
  563MOL0     H77672  14.744  10.791   2.408 -1.3732  1.5763 -0.9043
  563MOL0     H77673  14.761  10.777   2.583 -0.5576 -2.2895  1.4435
  563MOL0     H77674  13.955  10.048   2.598  0.6757  1.3575 -3.4065
  563MOL0     H77675  13.737   9.894   2.632 -4.7274 -0.9600  0.1862
  563MOL0     H77676  13.335   9.852   2.482  0.3165 -1.4869  0.1110
  563MOL0     H77677  13.144   9.735   2.427  1.5369 -0.5853 -0.3362
  563MOL0     H77678  11.071   9.453   2.240 -2.6067 -0.0792 -0.2371
  563MOL0     H77679  10.850   9.521   2.295  1.5556 -2.6355  0.0169
  563MOL0     H77680  10.588   9.857   2.433  0.7205  0.2556  0.2888
  563MOL0     H77681  10.395   9.967   2.462 -2.1463  0.5158  1.4855
  563MOL0     H77682  10.185  10.093   2.527  2.3471 -0.3232  0.4818
  563MOL0     H77683  10.156   9.926   2.469  0.4747 -1.6374  0.8156
  563MOL0     H77684   9.945  10.049   2.521  2.9571  2.6209  0.1178
  563MOL0     H77685   9.998  10.076   2.684 -2.0663 -2.3835  2.9094
  563MOL0     H77686   9.966   9.791   2.587  0.1517  0.1603 -0.6532
  563MOL0     H77687   9.989   9.839   2.752 -0.3126  2.3568  0.8370
  563MOL0     H77688   9.738   9.910   2.596 -1.5112  0.5434  1.5586
  563MOL0     H77689   9.781   9.982   2.735 -1.5268 -0.8067  0.8054
  563MOL0     H77690   9.652   9.584   2.835  1.2010 -0.3540  0.1866
  563MOL0     H77691  10.315   9.745   2.819  2.6306 -0.1264  2.1535
  563MOL0     H77692  10.543   9.502   2.756 -0.5452  0.4300 -1.1341
  563MOL0     H77693  10.608   9.603   2.879  0.2824 -2.6092 -0.5029
  563MOL0     H77694  10.432   9.582   2.872 -0.2947  3.0005 -0.9080
  564MOL0     O77695   1.180   3.383   3.919  0.3304 -0.4246  0.0110
  564MOL0     C77696   1.130   3.275   3.940 -0.2575  0.0975 -0.0668
  564MOL0     O77697   1.201   3.159   3.927  0.1371 -0.3945 -0.2550
  564MOL0     C77698   1.333   3.177   3.924  0.5548  0.0617  0.0872
  564MOL0     C77699   1.394   3.191   3.803 -0.2041  0.1185  0.8479
  564MOL0     C77700   1.540   3.208   3.796 -0.3055  0.0052 -0.5363
  564MOL0     C77701   1.614   3.185   3.914  0.3526  0.0106 -0.0987
  564MOL0     O77702   1.747   3.191   3.897  0.1544 -0.6484  0.4972
  564MOL0     C77703   1.838   3.179   4.010 -1.0486  1.4182 -0.0796
  564MOL0     C77704   1.954   3.093   3.957  0.0039 -0.5266  0.5184
  564MOL0     C77705   1.921   2.947   3.916  0.3402  1.2596 -0.3851
  564MOL0     C77706   2.047   2.867   3.870 -0.5005  0.3075  0.0953
  564MOL0     C77707   2.081   2.888   3.733 -0.6327 -0.4009  0.0897
  564MOL0     C77708   1.972   2.842   3.630 -0.0243 -0.0438 -0.1840
  564MOL0     C77709   1.934   2.690   3.646 -0.0044  0.3174 -0.2078
  564MOL0     C77710   1.848   2.644   3.523 -0.2357  0.4619 -1.3138
  564MOL0     N77711   1.924   2.591   3.417  0.1362  0.6070 -0.2031
  564MOL0     C77712   2.003   2.664   3.332  0.1859 -0.2902 -0.4329
  564MOL0     C77713   2.074   2.563   3.268  0.7544  0.0292 -0.3921
  564MOL0     C77714   2.175   2.589   3.151 -0.2152 -0.8973  0.4402
  564MOL0     C77715   2.313   2.549   3.186 -0.3760  0.2661 -0.7294
  564MOL0     C77716   2.368   2.626   3.303 -0.1373  0.1709  0.1082
  564MOL0     C77717   2.517   2.603   3.319 -0.4752 -0.6613  0.1540
  564MOL0     O77718   2.546   2.686   3.434  0.8605 -0.3557 -0.0907
  564MOL0     C77719   2.671   2.689   3.489  0.4013 -0.1794  0.7459
  564MOL0     C77720   2.772   2.595   3.455  0.2368 -0.4674  0.5286
  564MOL0     C77721   2.895   2.600   3.515 -0.4492  0.3438  0.6822
  564MOL0     C77722   2.991   2.483   3.478 -0.1141 -0.4530 -0.4700
  564MOL0     C77723   2.933   2.704   3.601 -0.1370  0.4717  0.1816
  564MOL0     C77724   3.068   2.715   3.659 -0.4767 -0.5785  0.1080
  564MOL0     O77725   3.176   2.679   3.582 -0.1656  0.3459 -0.4037
  564MOL0     C77726   3.300   2.707   3.631 -0.0721  0.5305 -0.2955
  564MOL0     C77727   3.350   2.662   3.746 -0.4035  0.0181 -0.3235
  564MOL0     C77728   3.486   2.676   3.783  0.9955 -0.0355 -0.0170
  564MOL0     C77729   3.577   2.739   3.697  0.3746  0.7869 -0.5049
  564MOL0     O77730   3.715   2.738   3.726 -0.1108  0.4787  0.1440
  564MOL0     C77731   3.804   2.808   3.637 -0.5094 -0.8010  0.6469
  564MOL0     C77732   3.800   2.953   3.682  0.7644 -0.8957  0.1989
  564MOL0     C77733   3.841   2.978   3.836 -0.0312  0.6095 -0.4978
  564MOL0     C77734   3.982   2.939   3.879 -0.4680 -0.2310 -1.0821
  564MOL0     C77735   4.020   3.011   4.006  0.2372  0.5721 -0.5089
  564MOL0     C77736   3.948   2.971   4.132  0.2419 -0.2862  0.9368
  564MOL0     C77737   3.999   3.039   4.258 -0.1792 -0.1852  0.2216
  564MOL0     C77738   4.144   3.008   4.297  0.2621  0.3327 -0.4167
  564MOL0    Cl77739   4.183   3.084   4.460  0.1904 -0.4291  0.2689
  564MOL0     C77740   3.524   2.793   3.580 -0.0461  0.2586  0.2475
  564MOL0     C77741   3.392   2.765   3.539  0.0187 -0.3379 -0.2192
  564MOL0     O77742   3.078   2.777   3.768  0.4699 -0.3970 -0.1743
  564MOL0     C77743   2.832   2.796   3.641 -0.1004  0.2596  0.3130
  564MOL0     C77744   2.701   2.784   3.590 -0.4914 -0.6847 -0.1452
  564MOL0     N77745   2.032   2.442   3.303  0.4729  0.7299 -0.6125
  564MOL0     N77746   1.935   2.456   3.385  0.2146 -0.3166 -0.0838
  564MOL0     C77747   1.544   3.183   4.039  0.2083  0.4213  0.1495
  564MOL0     C77748   1.404   3.178   4.046 -0.4972  0.5499  0.0145
  564MOL0     C77749   0.990   3.266   3.983  0.3667  0.5761 -0.5455
  564MOL0     C77750   0.924   3.143   4.008  0.5460  0.0299  1.0992
  564MOL0     C77751   0.793   3.126   4.044 -0.5353 -0.5800  0.0289
  564MOL0     C77752   0.719   3.242   4.062 -0.2845 -0.1973 -0.4065
  564MOL0     O77753   0.585   3.225   4.092 -0.3020  0.3629 -0.5257
  564MOL0     C77754   0.558   3.240   4.234 -0.5936 -0.5142  0.3402
  564MOL0     C77755   0.469   3.362   4.256  0.4379  0.2972  0.3563
  564MOL0     C77756   0.348   3.353   4.168  1.0551  1.0478 -0.1688
  564MOL0     C77757   0.261   3.238   4.205  0.8851  0.4081  0.0307
  564MOL0     C77758   0.121   3.260   4.177 -0.4339 -0.7604 -0.9353
  564MOL0     C77759   0.004   3.278   4.152 -0.1352 -1.2797 -0.1074
  564MOL0     C77760   0.772   3.369   4.045 -0.4051 -0.5440  0.1593
  564MOL0     C77761   0.908   3.382   4.014  0.2089  0.9629  0.4916
  564MOL0     C77762   0.958   3.524   3.995  0.1081  0.3303  0.1154
  564MOL0     H77763   1.332   3.213   3.717  0.6803 -3.8901 -1.0526
  564MOL0     H77764   1.600   3.224   3.707  1.6184 -2.6545  0.1531
  564MOL0     H77765   1.799   3.131   4.100  3.1469  0.5578  1.4913
  564MOL0     H77766   1.874   3.281   4.029  0.6762  1.1437 -1.6033
  564MOL0     H77767   1.990   3.145   3.867  1.0936 -0.7251  0.8222
  564MOL0     H77768   2.039   3.094   4.026  0.1946 -0.8512  0.2937
  564MOL0     H77769   1.890   2.887   4.003  1.1150  0.9839 -0.2863
  564MOL0     H77770   1.844   2.959   3.840 -0.1591 -0.9634 -0.3087
  564MOL0     H77771   2.128   2.893   3.939 -1.8908  1.3983  1.3779
  564MOL0     H77772   2.026   2.760   3.876  3.5917 -0.5851  1.9434
  564MOL0     H77773   2.172   2.830   3.712 -0.1829 -0.2295  1.4459
  564MOL0     H77774   2.115   2.988   3.705  0.4871 -1.1489 -1.3498
  564MOL0     H77775   1.886   2.910   3.637 -1.2123 -1.3168 -1.6302
  564MOL0     H77776   2.014   2.859   3.531 -0.7153 -1.3330 -0.7252
  564MOL0     H77777   1.886   2.690   3.745 -2.6344  4.0341 -1.2659
  564MOL0     H77778   2.021   2.625   3.652  0.2003  0.6339  0.3301
  564MOL0     H77779   1.777   2.565   3.548  1.8276 -1.2061 -0.4345
  564MOL0     H77780   1.803   2.736   3.485  0.5622  1.7582  0.6820
  564MOL0     H77781   2.000   2.769   3.306 -1.2902 -0.7941 -2.5201
  564MOL0     H77782   2.172   2.698   3.137  3.9417 -0.6385  0.4938
  564MOL0     H77783   2.147   2.550   3.053 -1.1904  2.1555 -0.6296
  564MOL0     H77784   2.325   2.440   3.183  0.2429  0.2230  1.4723
  564MOL0     H77785   2.371   2.578   3.097  0.0729  1.8935  0.0569
  564MOL0     H77786   2.365   2.732   3.275  0.7988  0.4350  0.9703
  564MOL0     H77787   2.311   2.616   3.396  0.3766 -1.2448  0.2804
  564MOL0     H77788   2.550   2.500   3.333  1.4373  0.1343  2.3030
  564MOL0     H77789   2.565   2.631   3.225 -0.5161  2.6332  0.9883
  564MOL0     H77790   2.756   2.520   3.378 -1.5816  0.3048  0.1050
  564MOL0     H77791   3.053   2.532   3.403 -1.1335 -0.5622 -1.3987
  564MOL0     H77792   2.926   2.406   3.435 -1.1366 -0.2320  0.6052
  564MOL0     H77793   3.048   2.465   3.570 -2.9594 -2.5444  1.0559
  564MOL0     H77794   3.287   2.595   3.805 -1.0337 -0.1005 -1.1161
  564MOL0     H77795   3.515   2.639   3.881 -2.4788 -0.9776  0.7984
  564MOL0     H77796   3.907   2.776   3.656  0.6184  0.4249 -2.7441
  564MOL0     H77797   3.794   2.788   3.530  2.6133 -0.0453  0.1088
  564MOL0     H77798   3.873   3.019   3.634 -0.1412  1.9437  2.3709
  564MOL0     H77799   3.704   2.994   3.649  2.3322  2.3305 -0.8281
  564MOL0     H77800   3.768   2.917   3.891 -0.4080  1.7375  0.2787
  564MOL0     H77801   3.829   3.083   3.865  3.0428  1.1859 -0.9975
  564MOL0     H77802   4.050   2.967   3.797  0.8510  1.6343  0.5463
  564MOL0     H77803   3.989   2.831   3.893  0.5480 -0.2772 -1.8496
  564MOL0     H77804   4.127   2.991   4.020  0.7251  2.0601 -1.8940
  564MOL0     H77805   4.000   3.118   4.013  0.8985  0.8145 -1.9462
  564MOL0     H77806   3.939   2.863   4.144 -1.8656 -0.6190 -2.3786
  564MOL0     H77807   3.846   3.008   4.115  0.3754 -0.1722  0.3662
  564MOL0     H77808   3.941   3.012   4.347  0.5585  1.7755  1.3508
  564MOL0     H77809   3.985   3.147   4.253 -0.6483 -0.1630  1.7463
  564MOL0     H77810   4.204   3.057   4.220  1.9943 -1.3285 -0.1854
  564MOL0     H77811   4.170   2.902   4.290  0.7489  0.2965  1.5677
  564MOL0     H77812   3.578   2.864   3.517 -0.6179  1.2055  0.7906
  564MOL0     H77813   3.366   2.806   3.442  3.0588  0.0659 -0.9950
  564MOL0     H77814   2.863   2.866   3.717  1.1966  0.8511 -0.7144
  564MOL0     H77815   2.621   2.854   3.608  1.5109  1.8808 -0.5833
  564MOL0     H77816   1.601   3.188   4.130  0.9895  1.3055 -0.3710
  564MOL0     H77817   1.350   3.183   4.140 -1.7148  0.5208 -0.6574
  564MOL0     H77818   0.987   3.055   3.998  0.4313 -0.3826  3.4046
  564MOL0     H77819   0.749   3.027   4.056 -0.5434 -1.0580 -3.1404
  564MOL0     H77820   0.509   3.148   4.267 -0.3394 -1.9039 -2.7842
  564MOL0     H77821   0.646   3.250   4.298  0.4983  0.2044 -1.1835
  564MOL0     H77822   0.531   3.450   4.236  0.1549  2.1469  5.9085
  564MOL0     H77823   0.440   3.364   4.361 -0.5329 -0.0535  0.1051
  564MOL0     H77824   0.294   3.447   4.185 -2.5711 -0.7869 -0.5948
  564MOL0     H77825   0.373   3.357   4.062  2.6799  0.0703  0.1466
  564MOL0     H77826   0.266   3.212   4.311 -2.2171 -0.9939 -0.0594
  564MOL0     H77827   0.313   3.154   4.158 -1.6309 -1.6118  0.6149
  564MOL0     H77828  -0.086   3.296   4.097  1.8513 -0.1897 -3.2671
  564MOL0     H77829   0.702   3.447   4.074  0.1990 -0.3886  1.2554
  564MOL0     H77830   0.978   3.541   3.889 -1.0375  0.9382 -0.0119
  564MOL0     H77831   0.880   3.598   4.014 -0.3975 -0.3172  0.5877
  564MOL0     H77832   1.035   3.545   4.071  0.2335  1.1448 -0.2223
  565MOL0     O77833   6.191   5.547   5.545  0.5697  0.3611 -0.3478
  565MOL0     C77834   6.231   5.489   5.438 -0.4785  0.0348 -0.3134
  565MOL0     O77835   6.363   5.457   5.412 -0.0761  0.3562  0.3971
  565MOL0     C77836   6.455   5.490   5.503  0.2835  0.4065 -0.0294
  565MOL0     C77837   6.483   5.414   5.622 -0.3285  0.3468  0.4381
  565MOL0     C77838   6.577   5.461   5.708 -0.0904 -0.2755  0.8744
  565MOL0     C77839   6.633   5.594   5.700 -1.2514  0.4880 -0.4329
  565MOL0     O77840   6.740   5.624   5.786 -0.2361 -0.4598 -0.4349
  565MOL0     C77841   6.718   5.736   5.871  0.5372 -0.1681 -1.4070
  565MOL0     C77842   6.837   5.745   5.964  0.5767  0.4199 -0.7831
  565MOL0     C77843   6.856   5.896   5.993  0.7447  0.5930 -0.0374
  565MOL0     C77844   6.997   5.913   6.063 -0.3583  0.3397 -0.0196
  565MOL0     C77845   7.020   6.063   6.098 -0.1438 -0.3552  0.5172
  565MOL0     C77846   6.945   6.120   6.215  0.3963 -0.7290 -0.9080
  565MOL0     C77847   7.010   6.258   6.256 -0.0802 -0.3030  0.8105
  565MOL0     C77848   6.940   6.346   6.366 -0.2785  0.7995 -0.0077
  565MOL0     N77849   6.986   6.487   6.353  0.2326  0.1572  0.0242
  565MOL0     C77850   7.116   6.541   6.361  0.2949 -0.0439  0.3923
  565MOL0     C77851   7.097   6.678   6.350 -0.4689 -0.1774 -0.1643
  565MOL0     C77852   7.206   6.787   6.361  1.1258 -0.1713 -0.1124
  565MOL0     C77853   7.241   6.840   6.504 -0.1252  0.0654  0.2913
  565MOL0     C77854   7.302   6.735   6.605  0.0546  0.5090  0.1548
  565MOL0     C77855   7.445   6.692   6.562  0.0036 -0.9329  0.0396
  565MOL0     O77856   7.499   6.590   6.647 -0.9060  0.0355 -0.1744
  565MOL0     C77857   7.556   6.641   6.763  0.0006  0.4494 -0.1901
  565MOL0     C77858   7.543   6.775   6.822 -0.8538  1.5782  0.5520
  565MOL0     C77859   7.597   6.805   6.949 -0.0373  1.0298 -0.4322
  565MOL0     C77860   7.582   6.949   7.005 -0.1091  0.7061  0.3220
  565MOL0     C77861   7.670   6.698   7.021 -0.5276 -0.3426 -0.3188
  565MOL0     C77862   7.717   6.706   7.173 -0.5754  0.3010  0.1311
  565MOL0     O77863   7.773   6.592   7.230  0.2148  0.2191 -0.7032
  565MOL0     C77864   7.835   6.609   7.358  0.4878 -0.2613 -0.4581
  565MOL0     C77865   7.972   6.588   7.369  0.2732 -0.3590  0.0883
  565MOL0     C77866   8.040   6.595   7.489  0.1328 -0.3084  0.0542
  565MOL0     C77867   7.959   6.629   7.605  0.2036 -0.6128  0.8633
  565MOL0     O77868   8.010   6.655   7.737  0.0668 -0.4729  0.0565
  565MOL0     C77869   8.146   6.616   7.775 -0.2496  0.1415  0.0064
  565MOL0     C77870   8.193   6.691   7.907 -0.4739  0.5969  0.4684
  565MOL0     C77871   8.308   6.623   7.989  0.1033  0.1310 -0.1296
  565MOL0     C77872   8.432   6.604   7.893  0.1457  0.2269  0.2242
  565MOL0     C77873   8.543   6.554   7.984  0.3981  0.4433 -0.0818
  565MOL0     C77874   8.508   6.433   8.074  0.0228 -0.0675 -0.1551
  565MOL0     C77875   8.632   6.378   8.146 -0.3818 -0.1323 -0.2957
  565MOL0     C77876   8.693   6.489   8.241  0.5019  0.5061 -0.8593
  565MOL0    Cl77877   8.566   6.565   8.350  0.0259 -0.3697  0.3918
  565MOL0     C77878   7.822   6.657   7.591 -0.6639 -0.4653 -0.5189
  565MOL0     C77879   7.759   6.633   7.474  0.0099  0.1337  0.0768
  565MOL0     O77880   7.697   6.807   7.233 -0.3059 -0.3431  0.4404
  565MOL0     C77881   7.671   6.570   6.962  0.8024 -0.6185  0.7150
  565MOL0     C77882   7.612   6.543   6.838  0.5635  1.2115  0.2820
  565MOL0     N77883   6.960   6.702   6.346 -0.3771 -0.0712  0.2593
  565MOL0     N77884   6.895   6.591   6.346  0.1553  0.2704 -0.1836
  565MOL0     C77885   6.590   5.677   5.601  0.1708  0.2036  0.7290
  565MOL0     C77886   6.517   5.615   5.491 -0.4481 -0.1107  0.4394
  565MOL0     C77887   6.126   5.467   5.331 -0.3793 -0.0564 -0.0417
  565MOL0     C77888   6.165   5.481   5.196  0.2974 -0.2362  1.0360
  565MOL0     C77889   6.069   5.468   5.090 -0.6746  0.5074 -1.3408
  565MOL0     C77890   5.941   5.433   5.124  0.1750 -0.7342  0.5401
  565MOL0     O77891   5.839   5.422   5.032  0.8859  0.1712 -0.5356
  565MOL0     C77892   5.833   5.295   4.974 -0.5755 -0.0736  0.2368
  565MOL0     C77893   5.906   5.309   4.845 -0.3569 -0.2199  0.3891
  565MOL0     C77894   5.834   5.236   4.726 -0.8384  0.2205  0.6520
  565MOL0     C77895   5.924   5.221   4.601 -0.8075 -1.0716  0.4403
  565MOL0     C77896   5.856   5.138   4.504 -0.7357 -0.2613 -0.2272
  565MOL0     C77897   5.798   5.078   4.422  0.0108  0.3542  0.9435
  565MOL0     C77898   5.903   5.431   5.256 -0.3937  0.2395  0.0240
  565MOL0     C77899   5.995   5.437   5.364 -0.0479  0.0054 -0.7498
  565MOL0     C77900   5.943   5.440   5.500 -0.0472 -0.5788 -1.6462
  565MOL0     H77901   6.440   5.314   5.627 -0.4419  0.4526  1.6251
  565MOL0     H77902   6.604   5.391   5.787  0.1968 -0.5839  0.5044
  565MOL0     H77903   6.631   5.716   5.934  0.2345 -4.4708 -2.8722
  565MOL0     H77904   6.705   5.826   5.811  0.9534 -1.5806 -3.7561
  565MOL0     H77905   6.830   5.689   6.058 -0.7126  2.2935  0.2901
  565MOL0     H77906   6.928   5.717   5.911  0.3491 -1.9854 -0.0288
  565MOL0     H77907   6.851   5.958   5.903  0.5473 -1.5346 -1.5750
  565MOL0     H77908   6.778   5.935   6.060  1.3173  2.6376 -0.5239
  565MOL0     H77909   6.998   5.846   6.149  1.2508 -1.6094 -1.4678
  565MOL0     H77910   7.081   5.883   6.000 -1.4075 -0.4902 -1.0610
  565MOL0     H77911   7.004   6.129   6.012  1.2663 -0.8624 -0.1675
  565MOL0     H77912   7.127   6.072   6.117  0.4821 -0.8735 -2.3835
  565MOL0     H77913   6.843   6.135   6.179 -0.3960 -1.8446  0.7616
  565MOL0     H77914   6.935   6.064   6.308 -1.9226 -1.5301 -1.5935
  565MOL0     H77915   6.998   6.317   6.164  0.3083 -1.1915  0.1759
  565MOL0     H77916   7.116   6.254   6.282  0.4887  2.2421 -0.6754
  565MOL0     H77917   6.832   6.333   6.358 -0.1382  0.1342 -1.0746
  565MOL0     H77918   6.964   6.309   6.466 -0.4252 -0.9938 -0.5895
  565MOL0     H77919   7.204   6.481   6.384 -0.6019 -2.4312 -1.8401
  565MOL0     H77920   7.170   6.877   6.310  0.4102  1.1032  2.4792
  565MOL0     H77921   7.299   6.759   6.312  0.8708  1.6655 -1.7688
  565MOL0     H77922   7.325   6.908   6.487 -1.2925  1.5218  0.1862
  565MOL0     H77923   7.159   6.893   6.553 -1.3023 -0.5841 -0.8935
  565MOL0     H77924   7.312   6.780   6.704 -0.6200  0.4714  0.2433
  565MOL0     H77925   7.240   6.644   6.601 -0.7088  0.8735  2.2904
  565MOL0     H77926   7.438   6.645   6.463 -1.4981 -1.6533  0.4511
  565MOL0     H77927   7.506   6.783   6.553 -3.5577  1.5031 -1.8434
  565MOL0     H77928   7.506   6.853   6.757  1.3955  0.3465 -2.4487
  565MOL0     H77929   7.592   7.015   6.918 -0.1082 -0.6643 -0.7489
  565MOL0     H77930   7.663   6.982   7.071  1.6623  0.4466 -1.6433
  565MOL0     H77931   7.479   6.965   7.039 -0.2825 -1.7840  1.1980
  565MOL0     H77932   8.019   6.558   7.275 -2.1823 -0.1372 -1.2917
  565MOL0     H77933   8.147   6.579   7.492  0.3010  0.7838  2.3830
  565MOL0     H77934   8.148   6.509   7.797  4.6423  0.1757  0.9009
  565MOL0     H77935   8.215   6.638   7.692 -0.3228  0.4854  0.0341
  565MOL0     H77936   8.232   6.789   7.879  0.3299  0.2747  0.4296
  565MOL0     H77937   8.109   6.706   7.975 -0.6802  0.4829  0.2421
  565MOL0     H77938   8.265   6.529   8.024 -0.5410  0.9725  1.4196
  565MOL0     H77939   8.326   6.674   8.084  1.0647  2.8654 -1.6652
  565MOL0     H77940   8.472   6.696   7.849 -1.5261  1.1069  0.4637
  565MOL0     H77941   8.418   6.531   7.813 -0.1828  0.7713 -0.2226
  565MOL0     H77942   8.641   6.543   7.936  1.7142 -1.9263  2.7945
  565MOL0     H77943   8.578   6.636   8.048  0.2863  0.8274 -0.5080
  565MOL0     H77944   8.465   6.358   8.007 -0.8248  2.1453 -2.2052
  565MOL0     H77945   8.431   6.464   8.146  0.9957  2.6935 -0.1761
  565MOL0     H77946   8.706   6.349   8.070  0.0817 -1.8362  0.7383
  565MOL0     H77947   8.609   6.288   8.204 -0.8844  1.1245  1.5545
  565MOL0     H77948   8.756   6.568   8.199 -0.3206  1.5379 -0.1949
  565MOL0     H77949   8.759   6.421   8.295 -3.3738 -1.8833  1.3964
  565MOL0     H77950   7.765   6.666   7.683  1.6161 -3.5492  1.4194
  565MOL0     H77951   7.650   6.635   7.471  0.0455  0.5901 -1.1053
  565MOL0     H77952   7.722   6.487   7.011  0.2732 -1.1022  0.4680
  565MOL0     H77953   7.615   6.442   6.799  0.5025  0.7945  1.3481
  565MOL0     H77954   6.644   5.771   5.600  0.5260  0.0003  0.1748
  565MOL0     H77955   6.488   5.672   5.403 -0.4675 -0.0647  0.4757
  565MOL0     H77956   6.268   5.502   5.167  0.0391  0.0546  0.3091
  565MOL0     H77957   6.092   5.463   4.984  1.0786 -2.1242 -0.9444
  565MOL0     H77958   5.877   5.219   5.039  1.8611  1.7068  0.7816
  565MOL0     H77959   5.732   5.260   4.946  0.1750 -1.4028 -0.9851
  565MOL0     H77960   6.003   5.262   4.860 -0.3368 -0.3090 -0.0133
  565MOL0     H77961   5.920   5.412   4.810 -1.6774 -0.1769 -0.0711
  565MOL0     H77962   5.793   5.138   4.752  0.1764 -0.8838 -1.6845
  565MOL0     H77963   5.749   5.301   4.700  1.0052  2.3352 -0.4645
  565MOL0     H77964   6.023   5.176   4.616  0.3364  1.6507  1.7408
  565MOL0     H77965   5.947   5.317   4.555  2.8035 -2.9090 -2.1514
  565MOL0     H77966   5.719   5.029   4.369 -1.0218  2.6030  0.2729
  565MOL0     H77967   5.797   5.425   5.278 -0.4739  3.8742  1.3071
  565MOL0     H77968   5.945   5.544   5.535 -0.3383 -0.6939 -1.2788
  565MOL0     H77969   5.838   5.410   5.495 -0.8744  1.7612 -0.0081
  565MOL0     H77970   6.001   5.367   5.557 -0.8916 -2.0899 -2.6641
  566MOL0     O77971   1.304   0.459  10.127  0.5235  0.2527  0.0360
  566MOL0     C77972   1.229   0.360  10.114 -0.1297 -0.0870  0.5198
  566MOL0     O77973   1.263   0.260  10.026 -0.0229  0.3588 -0.0791
  566MOL0     C77974   1.343   0.291   9.925 -0.2704 -0.7095  0.2263
  566MOL0     C77975   1.295   0.349   9.806  0.3827  0.9181 -1.0615
  566MOL0     C77976   1.374   0.402   9.708 -0.3975 -0.7355  0.3779
  566MOL0     C77977   1.511   0.391   9.719 -0.1953  0.6157  0.4869
  566MOL0     O77978   1.589   0.459   9.627  0.0047 -0.0969  0.0888
  566MOL0     C77979   1.738   0.443   9.641 -0.0329  0.6171  0.3377
  566MOL0     C77980   1.782   0.304   9.587  0.3957  1.2120 -0.5171
  566MOL0     C77981   1.933   0.289   9.572 -0.1941 -0.4628 -0.0277
  566MOL0     C77982   2.020   0.339   9.690  0.1385 -0.7547 -0.7289
  566MOL0     C77983   2.165   0.290   9.684  0.1220 -0.7427  0.3606
  566MOL0     C77984   2.250   0.331   9.797 -0.3217  0.0012  0.4416
  566MOL0     C77985   2.401   0.294   9.783  0.5883 -0.1495  0.2931
  566MOL0     C77986   2.471   0.292   9.919  0.0022  0.0147 -0.6445
  566MOL0     N77987   2.626   0.296   9.898 -0.1847  1.0861 -0.2606
  566MOL0     C77988   2.697   0.213   9.813 -0.4376 -1.2942 -0.8588
  566MOL0     C77989   2.826   0.234   9.848  0.3003 -0.2250 -0.3458
  566MOL0     C77990   2.940   0.181   9.776 -0.3953  0.1804  0.2306
  566MOL0     C77991   3.082   0.194   9.841 -0.6187  1.1141  1.6802
  566MOL0     C77992   3.147   0.337   9.841 -0.6876 -0.3991  0.3297
  566MOL0     C77993   3.288   0.345   9.901 -0.6490  0.3825  0.3141
  566MOL0     O77994   3.288   0.307  10.041 -0.4524  0.3709  0.1343
  566MOL0     C77995   3.403   0.292  10.111 -0.4072 -0.6833 -0.0697
  566MOL0     C77996   3.525   0.350  10.081 -0.5936  0.4145  0.7385
  566MOL0     C77997   3.651   0.335  10.151  0.8232 -0.6770 -0.4829
  566MOL0     C77998   3.767   0.432  10.108 -0.6638 -0.3510  0.1415
  566MOL0     C77999   3.654   0.252  10.269  0.1585  0.2513  0.0271
  566MOL0     C78000   3.777   0.221  10.355  0.0938  0.1211 -0.0097
  566MOL0     O78001   3.760   0.127  10.452  0.2322  0.2206 -0.3999
  566MOL0     C78002   3.874   0.072  10.506 -0.7243 -0.0693  0.6419
  566MOL0     C78003   3.920  -0.062  10.469 -0.0881  0.3217  0.1292
  566MOL0     C78004   4.041  -0.109  10.514  0.1976 -1.4690 -0.2740
  566MOL0     C78005   4.118  -0.033  10.603 -0.3482  0.3039 -0.1944
  566MOL0     O78006   4.237  -0.075  10.649  0.2640 -0.6039 -0.5548
  566MOL0     C78007   4.267  -0.212  10.668 -0.9730  0.6076  0.0811
  566MOL0     C78008   4.264  -0.230  10.823  0.5735  0.2236 -0.0748
  566MOL0     C78009   4.286  -0.382  10.868 -0.2238 -0.4218  0.9939
  566MOL0     C78010   4.309  -0.384  11.018  0.1008 -0.1430 -0.2208
  566MOL0     C78011   4.454  -0.374  11.063  0.5811 -0.5132  0.1868
  566MOL0     C78012   4.451  -0.343  11.221 -0.5146  0.6875  0.3335
  566MOL0     C78013   4.589  -0.331  11.277 -0.1518 -0.3889  0.3539
  566MOL0     C78014   4.602  -0.303  11.427 -0.9999  0.4631  0.0334
  566MOL0    Cl78015   4.502  -0.167  11.491 -0.1682 -0.0339 -0.0295
  566MOL0     C78016   4.083   0.101  10.622 -0.2338 -0.0203 -0.1489
  566MOL0     C78017   3.961   0.145  10.587  0.0416  0.2089  0.0146
  566MOL0     O78018   3.884   0.281  10.337 -0.1756  0.1624  0.0269
  566MOL0     C78019   3.527   0.189  10.296  0.3166  0.2029 -0.2783
  566MOL0     C78020   3.405   0.202  10.223 -0.3201  0.2264  0.2598
  566MOL0     N78021   2.832   0.328   9.957  0.8517  0.1236 -0.3664
  566MOL0     N78022   2.710   0.352   9.987  0.3334  0.0873 -0.1393
  566MOL0     C78023   1.565   0.327   9.834  0.0493  1.0203 -0.1841
  566MOL0     C78024   1.487   0.294   9.945  0.3268  0.2873  0.5546
  566MOL0     C78025   1.099   0.344  10.189  0.0672 -0.8230  0.2828
  566MOL0     C78026   1.019   0.234  10.157 -0.5552 -0.0669 -0.0786
  566MOL0     C78027   0.896   0.209  10.223 -0.3143 -0.1532 -1.0215
  566MOL0     C78028   0.846   0.302  10.313 -0.2786  0.0545 -0.6539
  566MOL0     O78029   0.717   0.283  10.362  0.3278 -0.1986 -0.5208
  566MOL0     C78030   0.670   0.345  10.480 -0.4472 -0.6681  0.4795
  566MOL0     C78031   0.541   0.286  10.502 -0.4510  0.1540 -0.1636
  566MOL0     C78032   0.506   0.324  10.647  0.1295 -0.5101 -0.2247
  566MOL0     C78033   0.391   0.221  10.697 -0.4469 -0.2189 -0.0744
  566MOL0     C78034   0.333   0.274  10.821  0.5102  1.0851  0.7158
  566MOL0     C78035   0.277   0.317  10.921  0.4033  0.1111 -0.0691
  566MOL0     C78036   0.932   0.412  10.352 -0.0611  0.5620  0.5399
  566MOL0     C78037   1.051   0.436  10.290  0.2762  0.3929 -0.0776
  566MOL0     C78038   1.118   0.568  10.323  0.1347 -0.1502  0.7012
  566MOL0     H78039   1.188   0.367   9.811  0.4263  0.9962  2.4425
  566MOL0     H78040   1.344   0.449   9.615  1.9173 -1.9810 -1.1061
  566MOL0     H78041   1.770   0.459   9.744 -0.9879  0.7197  0.6371
  566MOL0     H78042   1.791   0.514   9.577  0.3337 -0.0425 -0.1096
  566MOL0     H78043   1.748   0.222   9.652  0.1879 -0.9349 -3.1665
  566MOL0     H78044   1.732   0.295   9.491 -1.4823 -1.6426  0.5704
  566MOL0     H78045   1.968   0.191   9.539 -1.5759 -0.2280 -2.4484
  566MOL0     H78046   1.955   0.358   9.490 -1.9961  2.7412  1.9977
  566MOL0     H78047   2.019   0.448   9.700 -2.1770 -0.9018  1.6577
  566MOL0     H78048   1.978   0.302   9.784  0.4109  1.0868  0.1691
  566MOL0     H78049   2.218   0.315   9.591 -0.9560  1.4377  0.2831
  566MOL0     H78050   2.168   0.181   9.698  1.4762 -0.6528  0.9708
  566MOL0     H78051   2.244   0.439   9.814  0.1581 -0.1758  1.8531
  566MOL0     H78052   2.219   0.286   9.892 -1.5492 -0.7943 -0.2992
  566MOL0     H78053   2.459   0.362   9.720  2.5244 -4.3248 -2.9910
  566MOL0     H78054   2.395   0.192   9.742  1.3674 -0.4795  0.9817
  566MOL0     H78055   2.440   0.381   9.976 -0.3252 -0.7108  0.3416
  566MOL0     H78056   2.440   0.201   9.972  0.8429 -0.7965 -1.5206
  566MOL0     H78057   2.657   0.142   9.741  1.8045 -2.0669 -1.4480
  566MOL0     H78058   2.943   0.232   9.679 -2.4240  2.8499  1.4778
  566MOL0     H78059   2.917   0.077   9.750 -1.3162  0.6054 -0.7323
  566MOL0     H78060   3.075   0.152   9.942 -1.2166  1.3145  1.7241
  566MOL0     H78061   3.149   0.133   9.780  1.5418  3.0377  1.9643
  566MOL0     H78062   3.156   0.381   9.741  3.1739  0.0503  0.7315
  566MOL0     H78063   3.083   0.394   9.910  0.7306 -0.1272  1.4564
  566MOL0     H78064   3.363   0.277   9.858 -0.3270  0.4421  0.7702
  566MOL0     H78065   3.318   0.450   9.893 -1.9413  0.6548 -1.6440
  566MOL0     H78066   3.528   0.411   9.992  4.0633  0.0556  0.3771
  566MOL0     H78067   3.865   0.386  10.127 -1.3455 -1.8790  0.1139
  566MOL0     H78068   3.765   0.528  10.161 -1.0364 -0.6905  0.7580
  566MOL0     H78069   3.765   0.458  10.002 -0.1371 -0.7183  0.0368
  566MOL0     H78070   3.865  -0.111  10.389 -0.6443  1.7369 -0.3962
  566MOL0     H78071   4.085  -0.204  10.487  1.7460 -1.1663  1.0377
  566MOL0     H78072   4.209  -0.292  10.621  2.2810 -1.5112 -0.7106
  566MOL0     H78073   4.366  -0.234  10.627 -1.4064 -0.5255 -0.3986
  566MOL0     H78074   4.336  -0.162  10.871  0.5142 -0.2823  0.7562
  566MOL0     H78075   4.169  -0.192  10.861  1.2400 -0.1042  2.0698
  566MOL0     H78076   4.369  -0.431  10.817 -1.5467 -1.0751 -0.6695
  566MOL0     H78077   4.214  -0.459  10.837  0.9013 -0.5103 -1.6146
  566MOL0     H78078   4.262  -0.478  11.047  1.6876  0.0020  3.4005
  566MOL0     H78079   4.247  -0.308  11.068  0.1565 -0.9954  1.2073
  566MOL0     H78080   4.498  -0.470  11.035  1.1034 -0.1294 -0.3175
  566MOL0     H78081   4.504  -0.300  11.000  1.3948 -1.4833 -0.3223
  566MOL0     H78082   4.396  -0.429  11.261  3.1277 -1.9089  0.3259
  566MOL0     H78083   4.401  -0.248  11.239 -0.1668  1.6109 -2.8270
  566MOL0     H78084   4.646  -0.250  11.229  2.3653 -1.4245  1.3839
  566MOL0     H78085   4.640  -0.423  11.247  1.3895  1.1054 -1.9792
  566MOL0     H78086   4.708  -0.281  11.445 -0.3650 -0.7681 -1.8522
  566MOL0     H78087   4.570  -0.396  11.476 -1.0266  0.6095  0.2955
  566MOL0     H78088   4.148   0.170  10.675 -1.2474 -0.3520  1.5732
  566MOL0     H78089   3.928   0.246  10.611 -0.0310  0.4604 -1.0946
  566MOL0     H78090   3.508   0.111  10.369  1.4558 -0.6341 -0.8410
  566MOL0     H78091   3.319   0.143  10.251 -0.0694 -1.6508 -2.5603
  566MOL0     H78092   1.673   0.318   9.845 -0.1856  0.4808  2.2039
  566MOL0     H78093   1.525   0.249  10.037 -1.5063 -1.4730  0.5223
  566MOL0     H78094   1.046   0.160  10.081  1.5937  0.0254  0.5130
  566MOL0     H78095   0.816   0.138  10.207 -0.2070 -1.3835  2.7848
  566MOL0     H78096   0.741   0.320  10.560 -0.0562  0.8135  0.6261
  566MOL0     H78097   0.671   0.454  10.477 -0.4543 -0.6773  0.1508
  566MOL0     H78098   0.551   0.178  10.495 -1.2693  0.0065  0.7068
  566MOL0     H78099   0.464   0.325  10.435  0.7674 -0.5250 -2.0223
  566MOL0     H78100   0.588   0.340  10.718 -0.3837  0.1403  0.2377
  566MOL0     H78101   0.450   0.418  10.647 -1.5860 -1.4686  1.5822
  566MOL0     H78102   0.433   0.122  10.718  3.7497  0.9675 -1.8236
  566MOL0     H78103   0.315   0.207  10.620 -2.3954  3.0164  1.0760
  566MOL0     H78104   0.232   0.353  11.011  0.9001  1.1958 -0.2334
  566MOL0     H78105   0.882   0.480  10.421 -1.6530  0.0528 -0.0550
  566MOL0     H78106   1.118   0.636  10.237 -1.0988 -0.0291  0.7753
  566MOL0     H78107   1.079   0.615  10.414  0.9132  2.0071 -0.0018
  566MOL0     H78108   1.222   0.557  10.354  0.8786 -0.0097 -1.5663
  567MOL0     O78109  10.813   7.938   7.267 -0.8790  0.7773  0.2737
  567MOL0     C78110  10.830   7.827   7.215 -0.3422 -1.0318  0.1097
  567MOL0     O78111  10.944   7.753   7.239 -0.3900  0.1295  0.3017
  567MOL0     C78112  11.027   7.774   7.342 -1.1477 -0.5122  0.0458
  567MOL0     C78113  11.007   7.824   7.471  0.5693 -0.6491  0.2189
  567MOL0     C78114  11.113   7.836   7.562  0.1748 -0.3149  0.1887
  567MOL0     C78115  11.244   7.799   7.534  0.4786  0.7915 -0.1838
  567MOL0     O78116  11.339   7.830   7.622  0.5712  0.3651 -0.3975
  567MOL0     C78117  11.472   7.798   7.589  0.2329  0.0823  0.3334
  567MOL0     C78118  11.558   7.857   7.704 -0.0753  0.4114  0.3826
  567MOL0     C78119  11.713   7.832   7.685 -0.8256  0.4039  0.3154
  567MOL0     C78120  11.793   7.895   7.799 -0.1598  0.1610 -0.5904
  567MOL0     C78121  11.944   7.901   7.777  0.5189  0.4735  0.3527
  567MOL0     C78122  12.022   7.991   7.880 -0.1362  0.3396  0.0980
  567MOL0     C78123  12.175   7.967   7.884 -0.2317 -0.1138  0.7844
  567MOL0     C78124  12.211   7.846   7.981  0.3537 -1.0077  0.2414
  567MOL0     N78125  12.354   7.821   7.972 -0.2307 -0.2241  0.5626
  567MOL0     C78126  12.417   7.724   7.899  0.7075  0.9936  1.6540
  567MOL0     C78127  12.551   7.753   7.904 -0.2916 -0.3233 -0.5848
  567MOL0     C78128  12.660   7.680   7.818 -0.3015  0.1555  1.1817
  567MOL0     C78129  12.809   7.704   7.854  0.5961 -0.4651 -0.3629
  567MOL0     C78130  12.852   7.679   7.998  0.4126 -1.1133  0.1504
  567MOL0     C78131  13.006   7.710   8.006 -0.6455 -0.0521 -0.2244
  567MOL0     O78132  13.057   7.683   8.140  0.0171  0.0303 -0.0305
  567MOL0     C78133  13.183   7.724   8.175  0.8636  0.1656 -0.5118
  567MOL0     C78134  13.207   7.771   8.309  0.2680  0.4334 -0.2553
  567MOL0     C78135  13.334   7.808   8.355  0.4687 -1.0576 -0.4774
  567MOL0     C78136  13.353   7.845   8.501  0.3786  0.0872 -0.0564
  567MOL0     C78137  13.439   7.817   8.263 -0.9586 -0.8191 -0.0718
  567MOL0     C78138  13.579   7.873   8.283  0.0867 -0.4950 -0.3380
  567MOL0     O78139  13.670   7.888   8.179 -0.3832  0.7266  0.4886
  567MOL0     C78140  13.799   7.928   8.196  0.4522 -0.1294  1.1499
  567MOL0     C78141  13.887   7.841   8.266  0.0004 -0.3231 -0.4457
  567MOL0     C78142  14.014   7.886   8.276  0.2250  1.0075 -0.3607
  567MOL0     C78143  14.064   8.008   8.224  0.1809 -0.3571 -0.0643
  567MOL0     O78144  14.189   8.066   8.228 -0.3200  0.7798  0.2824
  567MOL0     C78145  14.293   7.996   8.306  0.6015  0.2316 -0.1636
  567MOL0     C78146  14.431   8.056   8.264  0.2467  0.3879 -0.4726
  567MOL0     C78147  14.483   8.152   8.378 -0.6848  0.1170 -0.1078
  567MOL0     C78148  14.634   8.145   8.413  0.6432  0.0447 -0.4802
  567MOL0     C78149  14.665   8.258   8.515  0.3006  0.5908  0.1831
  567MOL0     C78150  14.811   8.237   8.564  0.5460 -0.5867 -0.2804
  567MOL0     C78151  14.849   8.358   8.648  0.4963  0.6697 -0.2247
  567MOL0     C78152  14.962   8.318   8.749 -0.4834 -0.3795 -0.7052
  567MOL0    Cl78153  14.961   8.445   8.878 -0.1746  0.0999 -0.0455
  567MOL0     C78154  13.975   8.085   8.141 -0.3472  0.5243  0.5649
  567MOL0     C78155  13.845   8.048   8.135 -0.5657  0.2672 -0.3236
  567MOL0     O78156  13.607   7.901   8.399 -0.0790  0.6647 -0.8197
  567MOL0     C78157  13.408   7.777   8.129 -0.8245 -0.1693  0.6975
  567MOL0     C78158  13.288   7.730   8.080  0.8229  0.5711 -0.4502
  567MOL0     N78159  12.566   7.865   7.982 -0.2172  0.2418 -0.0155
  567MOL0     N78160  12.450   7.904   8.022 -0.3601 -0.2362  0.9766
  567MOL0     C78161  11.261   7.746   7.411 -0.5050  0.5750 -0.2777
  567MOL0     C78162  11.160   7.731   7.314  0.7107 -0.1011 -0.6354
  567MOL0     C78163  10.735   7.781   7.112 -0.3257 -1.0281  0.1864
  567MOL0     C78164  10.775   7.699   7.001 -0.7762 -0.5608  0.0803
  567MOL0     C78165  10.686   7.668   6.895  0.0075  0.3565 -0.6791
  567MOL0     C78166  10.553   7.721   6.899 -0.9342 -0.0144 -0.7466
  567MOL0     O78167  10.469   7.686   6.802  0.6220  0.4133 -0.1446
  567MOL0     C78168  10.389   7.795   6.747 -0.9774  0.0490 -0.9813
  567MOL0     C78169  10.338   7.773   6.604 -0.1852 -0.9286  0.3784
  567MOL0     C78170  10.230   7.662   6.602  0.2272 -0.6286  0.1285
  567MOL0     C78171  10.177   7.657   6.453 -0.0261  0.0211 -1.1894
  567MOL0     C78172  10.041   7.714   6.440  0.1407  0.1509  0.8778
  567MOL0     C78173   9.933   7.762   6.417 -0.7831 -0.3729 -0.2023
  567MOL0     C78174  10.513   7.787   7.011 -0.8112  0.8078  0.0564
  567MOL0     C78175  10.595   7.811   7.121  0.7026  0.1258  0.3103
  567MOL0     C78176  10.521   7.867   7.243 -1.0672 -0.2621 -0.0440
  567MOL0     H78177  10.913   7.870   7.500  1.7733  2.5132 -0.5678
  567MOL0     H78178  11.082   7.883   7.655 -0.0488  2.9243 -1.3682
  567MOL0     H78179  11.491   7.845   7.492 -0.4718 -1.3650 -0.5473
  567MOL0     H78180  11.483   7.689   7.585  0.2580  0.1201 -1.8337
  567MOL0     H78181  11.535   7.962   7.726  1.1057  0.4278  1.7483
  567MOL0     H78182  11.524   7.799   7.790  1.8352  0.8446  1.4975
  567MOL0     H78183  11.730   7.726   7.665  1.7059  1.0448 -1.4502
  567MOL0     H78184  11.758   7.870   7.592 -2.0203  1.8803  0.3096
  567MOL0     H78185  11.757   7.998   7.810 -0.5998  0.2391 -2.3857
  567MOL0     H78186  11.771   7.835   7.888  0.1636 -2.5809 -2.2374
  567MOL0     H78187  11.965   7.924   7.672  1.6470 -0.9241  0.2437
  567MOL0     H78188  11.978   7.797   7.787  1.2782  0.4387 -2.0087
  567MOL0     H78189  11.998   8.096   7.865  2.4302  0.6666 -2.6164
  567MOL0     H78190  11.984   7.967   7.980  1.1155 -3.0137 -0.0933
  567MOL0     H78191  12.223   8.061   7.913 -1.9270  0.3666  2.2129
  567MOL0     H78192  12.198   7.954   7.778 -1.4119  1.7076  0.2519
  567MOL0     H78193  12.186   7.869   8.085 -0.6287 -2.5566  0.3843
  567MOL0     H78194  12.150   7.760   7.955  0.7586 -0.5697 -2.5067
  567MOL0     H78195  12.377   7.639   7.844  3.0736 -1.2857  3.2129
  567MOL0     H78196  12.637   7.697   7.712  0.5149 -1.0531  0.7879
  567MOL0     H78197  12.652   7.572   7.834  2.5172 -0.7200 -2.0690
  567MOL0     H78198  12.878   7.647   7.792  1.0867  0.1963 -0.4299
  567MOL0     H78199  12.829   7.808   7.827  1.0368 -0.1467  1.1360
  567MOL0     H78200  12.791   7.741   8.065  1.4254 -0.1645  0.2230
  567MOL0     H78201  12.846   7.575   8.031  0.6853 -1.1370  0.1290
  567MOL0     H78202  13.052   7.649   7.928  0.0581 -0.0882  0.2045
  567MOL0     H78203  13.027   7.814   7.977  2.2808 -0.3282  0.5620
  567MOL0     H78204  13.129   7.763   8.384  1.8063 -0.6422  1.3258
  567MOL0     H78205  13.348   7.954   8.510  3.9453  0.1930  3.3970
  567MOL0     H78206  13.447   7.808   8.542  0.1212  1.0774  1.5153
  567MOL0     H78207  13.263   7.803   8.548  0.8883  0.6209  1.4430
  567MOL0     H78208  13.865   7.740   8.300  1.5032 -0.3530  0.5450
  567MOL0     H78209  14.087   7.813   8.311  0.3062  1.0017 -0.5417
  567MOL0     H78210  14.287   8.002   8.415  3.2114 -0.6387  0.0826
  567MOL0     H78211  14.292   7.890   8.280  1.7275 -0.4920  2.4704
  567MOL0     H78212  14.495   7.968   8.254 -0.1489  0.0265  0.1126
  567MOL0     H78213  14.435   8.119   8.175 -0.0335  1.5252  0.2937
  567MOL0     H78214  14.427   8.145   8.472  2.4062  2.6754  2.1591
  567MOL0     H78215  14.463   8.254   8.346 -0.6343 -0.6780 -2.9066
  567MOL0     H78216  14.693   8.144   8.321 -0.9887  1.9686 -1.6288
  567MOL0     H78217  14.654   8.051   8.466  0.5295 -0.3046 -1.0444
  567MOL0     H78218  14.660   8.357   8.470 -2.1791  1.2601  1.7434
  567MOL0     H78219  14.600   8.253   8.603  1.0373 -1.9147  0.6892
  567MOL0     H78220  14.871   8.225   8.473  0.9977  0.4249 -0.1250
  567MOL0     H78221  14.829   8.145   8.620  1.0064 -0.1277  0.3321
  567MOL0     H78222  14.761   8.405   8.694  0.1464  0.3875 -0.6013
  567MOL0     H78223  14.893   8.441   8.592 -0.2115  0.2784 -1.3972
  567MOL0     H78224  15.062   8.301   8.708  1.3674  4.4176  1.0988
  567MOL0     H78225  14.943   8.231   8.813 -1.2250 -0.1096 -0.5399
  567MOL0     H78226  14.018   8.177   8.103  3.0614 -1.0783  0.1725
  567MOL0     H78227  13.780   8.104   8.069  0.2143 -0.5253 -1.7950
  567MOL0     H78228  13.490   7.786   8.059  0.6993 -3.3095  1.9085
  567MOL0     H78229  13.268   7.697   7.978  2.0566 -1.9118  0.0081
  567MOL0     H78230  11.360   7.710   7.386 -1.0125 -0.6852 -0.5550
  567MOL0     H78231  11.167   7.701   7.210 -1.2185  0.9219 -1.1068
  567MOL0     H78232  10.877   7.664   7.011 -0.6514  0.3818  2.7720
  567MOL0     H78233  10.717   7.601   6.816 -2.1756  0.7641 -1.9751
  567MOL0     H78234  10.306   7.824   6.812 -0.3414 -2.0684  0.8591
  567MOL0     H78235  10.457   7.880   6.738  0.2615 -0.4052  2.6320
  567MOL0     H78236  10.425   7.763   6.539 -0.2414  3.7526 -0.7591
  567MOL0     H78237  10.300   7.869   6.569  1.0264 -1.8181 -3.9119
  567MOL0     H78238  10.285   7.568   6.611 -0.6146 -1.2743 -1.0769
  567MOL0     H78239  10.141   7.670   6.665 -0.7297  1.5781 -1.3900
  567MOL0     H78240  10.164   7.553   6.420 -1.5923 -0.1263 -0.2007
  567MOL0     H78241  10.247   7.711   6.388 -0.6286  1.3941 -0.7293
  567MOL0     H78242   9.836   7.805   6.402 -0.5917  0.0217 -0.3362
  567MOL0     H78243  10.409   7.817   7.009 -0.8750  0.6175  0.3834
  567MOL0     H78244  10.508   7.782   7.311  2.0870 -1.7458 -1.1181
  567MOL0     H78245  10.568   7.954   7.290 -1.6360  0.3881 -0.6603
  567MOL0     H78246  10.429   7.918   7.211 -0.1033  1.1638 -0.6318
  568MOL0     O78247  10.407   7.843   7.736  0.0311 -0.2028 -0.3665
  568MOL0     C78248  10.351   7.780   7.650 -0.0777  0.5881 -0.4369
  568MOL0     O78249  10.387   7.651   7.617 -0.2710 -0.4913 -0.2037
  568MOL0     C78250  10.502   7.590   7.672 -0.7206  0.1371 -0.1315
  568MOL0     C78251  10.624   7.582   7.598 -0.2097 -0.2242 -0.3776
  568MOL0     C78252  10.739   7.542   7.659 -0.2925 -0.1216  0.3301
  568MOL0     C78253  10.736   7.479   7.784 -0.0502 -0.0423  0.4559
  568MOL0     O78254  10.855   7.429   7.836  0.3440 -0.2142 -0.1701
  568MOL0     C78255  10.846   7.354   7.958  0.5418  0.4852  0.2671
  568MOL0     C78256  10.966   7.261   7.976  0.6035  0.4542  0.7144
  568MOL0     C78257  10.961   7.133   7.881  0.0638  0.4591 -0.0672
  568MOL0     C78258  11.103   7.061   7.897  0.2672  0.0670  0.4785
  568MOL0     C78259  11.126   6.963   7.786 -0.0211 -0.1995  0.2873
  568MOL0     C78260  11.231   6.852   7.806  0.9310 -0.0963  0.8617
  568MOL0     C78261  11.369   6.908   7.815  0.1996 -0.7690 -0.3865
  568MOL0     C78262  11.481   6.803   7.852  0.5901 -0.5355 -0.1360
  568MOL0     N78263  11.596   6.805   7.765 -0.6020  0.3987 -0.6717
  568MOL0     C78264  11.697   6.900   7.764  0.1059 -0.0465 -0.3130
  568MOL0     C78265  11.776   6.847   7.664  0.3428 -0.3262  0.1880
  568MOL0     C78266  11.906   6.917   7.628  0.0360  0.3853  0.4400
  568MOL0     C78267  12.022   6.826   7.679 -0.4501 -0.3998 -0.3876
  568MOL0     C78268  12.161   6.875   7.630  0.5864 -0.4057 -0.3680
  568MOL0     C78269  12.227   6.977   7.711 -0.1407 -0.0161  1.0308
  568MOL0     O78270  12.271   6.941   7.845 -0.0194  0.4975  0.0587
  568MOL0     C78271  12.404   6.922   7.867  0.2201  0.7401 -0.5370
  568MOL0     C78272  12.440   6.911   8.000 -0.2388  0.4341  0.0385
  568MOL0     C78273  12.578   6.906   8.037 -0.1087  0.2979 -0.1702
  568MOL0     C78274  12.606   6.910   8.182  0.2931 -0.3101  0.2339
  568MOL0     C78275  12.678   6.890   7.936  0.0701  0.5402 -0.4267
  568MOL0     C78276  12.819   6.870   7.952  0.6063 -0.8275 -0.5526
  568MOL0     O78277  12.867   6.822   8.078  0.2491  0.1238 -0.2366
  568MOL0     C78278  13.005   6.818   8.106 -0.4004 -0.0354  0.8898
  568MOL0     C78279  13.104   6.749   8.025 -0.7386 -0.5543  0.6292
  568MOL0     C78280  13.237   6.741   8.062  0.4663  0.5250 -0.0741
  568MOL0     C78281  13.284   6.800   8.177 -0.1375 -0.9009 -0.0800
  568MOL0     O78282  13.414   6.781   8.215 -0.1362  0.2059 -0.2529
  568MOL0     C78283  13.441   6.802   8.352 -0.6773  0.6617 -0.3599
  568MOL0     C78284  13.574   6.726   8.371  0.0962  0.4764  0.7229
  568MOL0     C78285  13.698   6.781   8.307  0.4277  0.0366 -0.2066
  568MOL0     C78286  13.779   6.866   8.402 -0.5775 -0.7427  0.4510
  568MOL0     C78287  13.893   6.936   8.333 -0.1585 -0.3068  0.4034
  568MOL0     C78288  13.985   7.008   8.439 -0.0281 -0.6239 -0.2947
  568MOL0     C78289  14.069   7.117   8.373  1.3722 -0.5581 -0.0238
  568MOL0     C78290  14.178   7.059   8.282 -0.2359  0.0695  0.3308
  568MOL0    Cl78291  14.268   6.942   8.378  0.0173 -0.0907  0.3223
  568MOL0     C78292  13.193   6.885   8.248 -0.4444 -0.6839  0.3589
  568MOL0     C78293  13.054   6.883   8.217 -0.3444  0.1168  0.3742
  568MOL0     O78294  12.889   6.890   7.849 -0.1451  0.2099 -0.2360
  568MOL0     C78295  12.637   6.893   7.803 -0.2439 -0.3215  0.3661
  568MOL0     C78296  12.500   6.899   7.772 -0.4746 -0.8393  0.0368
  568MOL0     N78297  11.731   6.731   7.611 -0.0174 -0.2946 -0.2007
  568MOL0     N78298  11.623   6.710   7.671 -0.3737  0.0935 -0.4597
  568MOL0     C78299  10.610   7.474   7.846 -0.8081  0.1122  0.2552
  568MOL0     C78300  10.498   7.533   7.799 -0.3516  0.0794  0.0483
  568MOL0     C78301  10.246   7.847   7.568  0.6377  0.1577 -0.4379
  568MOL0     C78302  10.242   7.810   7.430 -0.2704  0.6326 -0.5050
  568MOL0     C78303  10.150   7.868   7.337  0.0576  0.5524 -0.1199
  568MOL0     C78304  10.057   7.961   7.387 -0.5538  0.5212 -1.0357
  568MOL0     O78305   9.971   8.017   7.294  0.1801 -0.2842 -0.5003
  568MOL0     C78306   9.870   8.111   7.337 -0.1987 -0.1206  0.9633
  568MOL0     C78307   9.751   8.032   7.390  0.3119 -0.4088  0.0419
  568MOL0     C78308   9.633   8.110   7.446  0.4875 -0.0672  0.6236
  568MOL0     C78309   9.553   8.025   7.556 -0.6317 -1.0075  0.0863
  568MOL0     C78310   9.431   8.080   7.611  0.7538 -0.1763  0.4051
  568MOL0     C78311   9.339   8.126   7.677  0.2765 -0.3144 -0.9513
  568MOL0     C78312  10.057   7.989   7.524 -0.1180 -0.3512 -0.1193
  568MOL0     C78313  10.149   7.937   7.617  0.0991 -0.3014 -1.3376
  568MOL0     C78314  10.138   7.980   7.764  0.3833  0.2295  0.5970
  568MOL0     H78315  10.627   7.619   7.496 -1.3086  0.5228 -0.1596
  568MOL0     H78316  10.831   7.554   7.603 -0.5729 -1.7490 -0.5426
  568MOL0     H78317  10.765   7.280   7.957 -1.6485  2.6989  1.8307
  568MOL0     H78318  10.826   7.418   8.044 -1.0903  0.4904 -0.0805
  568MOL0     H78319  11.058   7.319   7.960  0.1292  0.3056 -4.4015
  568MOL0     H78320  10.949   7.225   8.078 -2.5648 -0.6999 -0.1075
  568MOL0     H78321  10.876   7.067   7.901  1.8545 -2.0474 -0.2351
  568MOL0     H78322  10.958   7.161   7.776 -0.6556  0.5549 -0.0294
  568MOL0     H78323  11.181   7.138   7.888  1.6170 -1.1265  1.5451
  568MOL0     H78324  11.103   7.011   7.994  2.7900  0.2854  0.6744
  568MOL0     H78325  11.159   7.020   7.699 -0.3343 -0.4764 -0.0148
  568MOL0     H78326  11.032   6.911   7.768  0.1203  0.2046 -1.9341
  568MOL0     H78327  11.211   6.807   7.905 -0.8442  1.9868  1.5311
  568MOL0     H78328  11.236   6.774   7.729 -1.0035 -0.3535  0.9428
  568MOL0     H78329  11.372   6.988   7.889  1.7267  1.5071 -2.7115
  568MOL0     H78330  11.393   6.954   7.718 -2.5301  0.9202 -0.3536
  568MOL0     H78331  11.515   6.824   7.954 -0.6564 -0.4273  0.2791
  568MOL0     H78332  11.429   6.706   7.849 -2.1044  0.7320  1.4991
  568MOL0     H78333  11.716   6.993   7.816  0.2871  1.0010 -2.1736
  568MOL0     H78334  11.903   7.017   7.673 -4.0318  1.4878 -1.8331
  568MOL0     H78335  11.919   6.934   7.521 -1.5528  2.2305  0.4860
  568MOL0     H78336  12.020   6.824   7.789 -1.9897  1.8596 -0.3004
  568MOL0     H78337  12.010   6.724   7.643 -0.4359  0.9436 -4.7958
  568MOL0     H78338  12.237   6.797   7.631  3.2689  2.0377  1.1099
  568MOL0     H78339  12.150   6.899   7.524  0.4533 -2.9266 -0.9822
  568MOL0     H78340  12.309   7.021   7.653  1.6569  1.5930  4.4859
  568MOL0     H78341  12.148   7.050   7.733 -0.4512  0.8369 -2.4086
  568MOL0     H78342  12.359   6.929   8.070 -0.5329 -0.8487  0.0556
  568MOL0     H78343  12.683   6.985   8.200  1.8932 -1.1320 -2.5270
  568MOL0     H78344  12.639   6.813   8.221  1.7518 -0.4019 -1.1688
  568MOL0     H78345  12.514   6.939   8.235 -0.8985  3.4136 -3.3494
  568MOL0     H78346  13.065   6.699   7.937 -0.5675 -0.7331  0.6534
  568MOL0     H78347  13.311   6.686   8.005 -1.9807 -2.8606 -0.2654
  568MOL0     H78348  13.466   6.906   8.376 -2.1919  1.2473 -1.1734
  568MOL0     H78349  13.368   6.758   8.421  1.2607 -0.7241  0.8962
  568MOL0     H78350  13.595   6.709   8.477 -2.8066  0.0793  1.3047
  568MOL0     H78351  13.570   6.626   8.327  2.1553  1.5231 -2.1686
  568MOL0     H78352  13.664   6.853   8.231 -1.4295  0.9307  1.3826
  568MOL0     H78353  13.759   6.704   8.259  1.7411  0.6379  0.4430
  568MOL0     H78354  13.826   6.808   8.482 -0.7977 -0.3201  0.8940
  568MOL0     H78355  13.712   6.941   8.445  1.1179  1.4635 -0.5354
  568MOL0     H78356  13.939   6.853   8.278 -1.4707  0.2880 -1.7174
  568MOL0     H78357  13.861   7.012   8.262 -0.4530 -1.6758 -0.9779
  568MOL0     H78358  14.052   6.930   8.475  1.5613 -1.6637 -4.8163
  568MOL0     H78359  13.926   7.061   8.515  0.5815  1.9666 -1.5048
  568MOL0     H78360  14.111   7.190   8.443  1.0212  0.0716 -0.4626
  568MOL0     H78361  14.011   7.186   8.312  2.6646 -0.4655 -1.1729
  568MOL0     H78362  14.249   7.139   8.257 -1.3937  0.8061 -0.6931
  568MOL0     H78363  14.136   7.013   8.192 -2.7536 -2.6962  2.7224
  568MOL0     H78364  13.229   6.951   8.326 -1.5307  1.5480 -0.9160
  568MOL0     H78365  12.988   6.955   8.264 -1.5096  0.0580 -1.1207
  568MOL0     H78366  12.700   6.885   7.715 -1.1399  1.6278 -0.5058
  568MOL0     H78367  12.472   6.919   7.670  0.0126  3.9792  0.6109
  568MOL0     H78368  10.609   7.428   7.944  2.4987 -1.7079 -0.4378
  568MOL0     H78369  10.415   7.528   7.869  0.1597  1.1227  0.7555
  568MOL0     H78370  10.318   7.739   7.399 -0.3387  0.9691 -1.4904
  568MOL0     H78371  10.140   7.847   7.231  1.8641 -1.8414  0.1128
  568MOL0     H78372   9.908   8.189   7.405  3.3319 -1.4364  0.6912
  568MOL0     H78373   9.835   8.166   7.249  0.9806 -1.8444 -0.6389
  568MOL0     H78374   9.787   7.981   7.480  0.8781 -1.1749 -0.6019
  568MOL0     H78375   9.711   7.951   7.329  0.4183 -0.2882 -0.1857
  568MOL0     H78376   9.659   8.206   7.491 -1.7806 -0.4740  3.1156
  568MOL0     H78377   9.566   8.133   7.363  1.9805  1.9615 -0.1135
  568MOL0     H78378   9.628   8.018   7.636 -1.4719  0.9539  1.1062
  568MOL0     H78379   9.539   7.921   7.523  0.3742 -2.1147  2.8713
  568MOL0     H78380   9.261   8.165   7.739  1.6245 -0.5367  0.9638
  568MOL0     H78381   9.996   8.073   7.556  1.5750  1.7005 -1.8861
  568MOL0     H78382  10.167   7.893   7.825 -0.9870  0.5769  1.8136
  568MOL0     H78383  10.214   8.053   7.791 -1.6139  2.1903  1.1732
  568MOL0     H78384  10.036   8.011   7.789 -0.7708 -0.9273 -2.1835
  569MOL0     O78385   6.332   3.456   8.911 -0.1910  0.2782  0.5160
  569MOL0     C78386   6.407   3.527   8.981 -0.5738 -0.7311 -0.6613
  569MOL0     O78387   6.478   3.639   8.946 -0.0337  0.3670  0.7829
  569MOL0     C78388   6.447   3.709   8.827 -0.5379 -0.2072 -0.3015
  569MOL0     C78389   6.318   3.748   8.797 -0.0867 -0.5134  0.1886
  569MOL0     C78390   6.301   3.846   8.690 -0.5486 -0.2797 -0.1445
  569MOL0     C78391   6.404   3.898   8.615  0.1413  0.1556 -1.5113
  569MOL0     O78392   6.370   3.981   8.515  0.8088  0.0667 -0.5951
  569MOL0     C78393   6.466   4.011   8.408  0.4669  0.0965  0.6706
  569MOL0     C78394   6.390   4.094   8.300  0.3218 -0.3339 -1.4916
  569MOL0     C78395   6.291   4.018   8.207  0.1551 -0.2409  0.6868
  569MOL0     C78396   6.213   4.122   8.134 -0.2726  0.0878 -0.2651
  569MOL0     C78397   6.120   4.051   8.037 -0.0930 -0.3458  0.0934
  569MOL0     C78398   6.042   4.154   7.961 -0.2402  0.5199  0.6845
  569MOL0     C78399   5.949   4.086   7.866 -0.5918 -0.3541 -0.0505
  569MOL0     C78400   5.994   4.096   7.725 -0.1566  0.1038  0.4191
  569MOL0     N78401   6.119   4.031   7.705  0.0710  0.1431 -0.3692
  569MOL0     C78402   6.145   3.898   7.700  0.7538  0.1721  0.8304
  569MOL0     C78403   6.279   3.890   7.685 -0.2286  0.7411  0.2148
  569MOL0     C78404   6.355   3.762   7.669 -0.1787  1.0302 -0.0151
  569MOL0     C78405   6.453   3.733   7.789 -0.5708  0.6609 -0.2966
  569MOL0     C78406   6.490   3.852   7.876  0.9033 -0.8184 -0.5990
  569MOL0     C78407   6.597   3.830   7.979 -0.3249  0.2200  0.4813
  569MOL0     O78408   6.540   3.734   8.078  0.0732  0.5562  0.1903
  569MOL0     C78409   6.606   3.723   8.197 -0.4201  0.7856  0.5624
  569MOL0     C78410   6.726   3.789   8.232 -0.5491  0.2336 -0.5025
  569MOL0     C78411   6.795   3.768   8.353 -0.2346 -0.2070 -0.9712
  569MOL0     C78412   6.924   3.850   8.383  0.1033 -0.0959  0.2222
  569MOL0     C78413   6.740   3.671   8.445  0.3693  0.8512  0.8582
  569MOL0     C78414   6.807   3.622   8.571 -0.5403  0.3948  0.0728
  569MOL0     O78415   6.748   3.518   8.641 -0.7542  0.2845 -0.3281
  569MOL0     C78416   6.809   3.479   8.758  0.0520  0.4483 -0.0934
  569MOL0     C78417   6.731   3.406   8.849  0.2628  0.2887 -0.8081
  569MOL0     C78418   6.773   3.374   8.979 -0.4305 -0.7992 -0.4412
  569MOL0     C78419   6.907   3.388   9.011  0.7194  0.0393 -1.2814
  569MOL0     O78420   6.953   3.343   9.129  0.5052  0.2286 -0.2743
  569MOL0     C78421   6.894   3.400   9.240  0.1326 -0.7801 -0.1723
  569MOL0     C78422   6.982   3.523   9.281  0.0761  1.1809 -0.4217
  569MOL0     C78423   6.903   3.595   9.398 -0.2660  0.1864  0.1564
  569MOL0     C78424   6.978   3.715   9.452 -0.4712  0.7860  0.1245
  569MOL0     C78425   6.889   3.793   9.550  0.2878  0.4727  0.6410
  569MOL0     C78426   6.811   3.904   9.487  0.1712  0.2398 -0.5952
  569MOL0     C78427   6.707   3.966   9.585  0.1942  0.1732 -0.1098
  569MOL0     C78428   6.571   3.901   9.583  0.4961 -0.0926  1.4038
  569MOL0    Cl78429   6.504   3.910   9.418 -0.1318 -0.4443  0.2437
  569MOL0     C78430   6.995   3.449   8.923  0.7492  0.0724  0.3669
  569MOL0     C78431   6.944   3.487   8.794  0.4444 -0.9820  0.3987
  569MOL0     O78432   6.906   3.693   8.611  0.4927  0.4137 -0.8135
  569MOL0     C78433   6.635   3.592   8.399  0.7305  0.0103 -0.1308
  569MOL0     C78434   6.560   3.625   8.280 -0.1366  0.7301  0.1911
  569MOL0     N78435   6.334   4.014   7.679 -0.1760  0.4717  0.4256
  569MOL0     N78436   6.237   4.098   7.677 -0.0828  0.2891 -0.0027
  569MOL0     C78437   6.538   3.864   8.648 -0.2031  0.6747 -0.1351
  569MOL0     C78438   6.556   3.776   8.760  0.1084  0.5831 -0.1152
  569MOL0     C78439   6.412   3.497   9.136 -0.2972 -0.0457  1.1977
  569MOL0     C78440   6.461   3.599   9.221  0.1363 -0.0385  0.3126
  569MOL0     C78441   6.475   3.585   9.359  0.2800  0.0115 -0.8066
  569MOL0     C78442   6.414   3.467   9.416 -1.0605 -0.0245 -0.0531
  569MOL0     O78443   6.420   3.454   9.554  0.5363  0.4611 -0.0832
  569MOL0     C78444   6.405   3.336   9.627  0.1935  0.3065 -0.4063
  569MOL0     C78445   6.494   3.213   9.579  0.8407  0.3453 -0.5586
  569MOL0     C78446   6.632   3.218   9.643  0.1010  0.0521 -0.0551
  569MOL0     C78447   6.708   3.352   9.630  0.0802 -0.3467  0.7920
  569MOL0     C78448   6.835   3.354   9.704 -0.3628  0.0077  0.3034
  569MOL0     C78449   6.946   3.360   9.747  0.3711 -0.1156  0.0515
  569MOL0     C78450   6.359   3.367   9.331  0.2054 -0.6388  0.4678
  569MOL0     C78451   6.358   3.376   9.192  0.6976 -0.2261  0.6117
  569MOL0     C78452   6.306   3.254   9.119 -1.0346  0.2657  0.7816
  569MOL0     H78453   6.225   3.717   8.844 -1.3880  1.6303 -0.8478
  569MOL0     H78454   6.200   3.874   8.661 -1.4387 -3.1479 -0.1195
  569MOL0     H78455   6.492   3.915   8.362 -1.5609  0.1710 -0.7339
  569MOL0     H78456   6.553   4.064   8.450 -0.3788  0.1551  2.4528
  569MOL0     H78457   6.335   4.173   8.353 -0.2419 -2.4754  1.3719
  569MOL0     H78458   6.470   4.143   8.245  0.8130 -1.4070 -1.7563
  569MOL0     H78459   6.354   3.953   8.145  0.2430  0.4670  0.0183
  569MOL0     H78460   6.220   3.955   8.262 -1.0572  0.6219  0.1292
  569MOL0     H78461   6.157   4.170   8.215  0.5476 -1.3650  1.2474
  569MOL0     H78462   6.279   4.193   8.085  0.6383  1.0111  2.1407
  569MOL0     H78463   6.050   3.986   8.091 -0.1188 -2.2981 -2.1013
  569MOL0     H78464   6.180   3.992   7.967 -2.3420  1.4367 -3.6428
  569MOL0     H78465   5.986   4.218   8.029 -0.4092 -0.2771  1.3129
  569MOL0     H78466   6.109   4.215   7.899 -0.4455  0.3250  0.2627
  569MOL0     H78467   5.850   4.131   7.879 -0.8149 -1.3572  2.3098
  569MOL0     H78468   5.928   3.983   7.895  0.0145 -1.1722 -2.3469
  569MOL0     H78469   5.927   4.050   7.652  0.1629  0.5762 -0.1790
  569MOL0     H78470   6.013   4.201   7.700  1.1567 -0.0612  0.6102
  569MOL0     H78471   6.078   3.813   7.691  2.5864 -1.2806  0.2073
  569MOL0     H78472   6.410   3.774   7.574 -1.2625 -2.1501 -1.1655
  569MOL0     H78473   6.278   3.686   7.654  0.5638  0.3401 -0.4259
  569MOL0     H78474   6.417   3.642   7.838 -0.5498 -0.2112 -1.8265
  569MOL0     H78475   6.551   3.704   7.749 -0.7910  0.3925 -0.6492
  569MOL0     H78476   6.530   3.937   7.819 -1.2301  0.8199  0.2336
  569MOL0     H78477   6.399   3.884   7.926  1.2942  0.5821 -0.7432
  569MOL0     H78478   6.696   3.807   7.937 -1.8230 -2.7509 -1.8208
  569MOL0     H78479   6.614   3.925   8.031  0.3763 -0.0737  0.7902
  569MOL0     H78480   6.758   3.869   8.166  0.5798  2.3945  2.4096
  569MOL0     H78481   6.920   3.903   8.479  0.4574  0.9252 -0.3088
  569MOL0     H78482   6.931   3.927   8.305 -0.5306 -0.9085 -0.6540
  569MOL0     H78483   7.016   3.792   8.377  1.7232  2.1122  1.7730
  569MOL0     H78484   6.626   3.396   8.826 -0.2336  4.3905 -1.1829
  569MOL0     H78485   6.704   3.310   9.032 -0.9068 -1.6896 -2.0575
  569MOL0     H78486   6.794   3.442   9.223  0.7844  0.7279 -0.4974
  569MOL0     H78487   6.893   3.327   9.321 -2.1462 -1.3234 -0.6168
  569MOL0     H78488   7.080   3.496   9.322 -0.5283 -0.3917  0.0613
  569MOL0     H78489   6.995   3.596   9.201 -0.6407  1.8853  0.0954
  569MOL0     H78490   6.894   3.520   9.477 -1.3909  1.8515  1.6972
  569MOL0     H78491   6.805   3.620   9.358 -0.3103 -0.3278 -0.0682
  569MOL0     H78492   7.020   3.784   9.378  3.5695  1.2735  2.5258
  569MOL0     H78493   7.066   3.677   9.506 -1.3154 -0.5001  0.6395
  569MOL0     H78494   6.824   3.721   9.600  1.3669  0.8466  2.7401
  569MOL0     H78495   6.953   3.852   9.617 -1.4930  1.1601  1.8044
  569MOL0     H78496   6.770   3.858   9.396 -0.3851  0.1860 -0.3201
  569MOL0     H78497   6.877   3.987   9.462  0.6385  0.2660  0.6760
  569MOL0     H78498   6.705   4.074   9.566  1.0717  0.2455  0.1776
  569MOL0     H78499   6.749   3.956   9.685 -0.5844  2.5399  0.5222
  569MOL0     H78500   6.510   3.956   9.654 -0.1973  0.7442  0.1936
  569MOL0     H78501   6.583   3.799   9.621  0.1769 -0.5578  0.2891
  569MOL0     H78502   7.095   3.473   8.956  1.9030 -0.5215 -2.3702
  569MOL0     H78503   7.024   3.530   8.735  0.6339  1.3597  2.1910
  569MOL0     H78504   6.591   3.512   8.457  4.0367 -1.3448  0.7439
  569MOL0     H78505   6.472   3.564   8.261  2.1593 -3.5743  2.0278
  569MOL0     H78506   6.622   3.904   8.594  1.8833 -2.1745  0.7460
  569MOL0     H78507   6.658   3.757   8.790  0.2528 -0.8618 -1.4016
  569MOL0     H78508   6.487   3.692   9.171 -0.9646 -0.0844 -0.3679
  569MOL0     H78509   6.514   3.670   9.414  0.3207  1.3873 -2.8395
  569MOL0     H78510   6.430   3.360   9.730  0.3445 -0.7451 -0.1844
  569MOL0     H78511   6.299   3.307   9.624 -0.2446  1.8599 -0.8308
  569MOL0     H78512   6.497   3.201   9.470  0.9294 -1.0779 -0.4190
  569MOL0     H78513   6.443   3.127   9.623  1.4234 -0.4031 -1.3033
  569MOL0     H78514   6.614   3.188   9.747 -2.9209  2.9463  0.4095
  569MOL0     H78515   6.703   3.148   9.597  0.2317  0.5110 -0.5642
  569MOL0     H78516   6.648   3.428   9.682 -0.8396 -0.2088 -0.4346
  569MOL0     H78517   6.728   3.375   9.525 -1.4278  2.0231  0.9455
  569MOL0     H78518   7.049   3.385   9.766 -0.2309  1.2008  1.9541
  569MOL0     H78519   6.321   3.280   9.383  0.9141 -0.2619  1.6577
  569MOL0     H78520   6.398   3.199   9.098 -0.7783  0.6631  0.8556
  569MOL0     H78521   6.242   3.193   9.183 -0.7481  1.3551  2.1674
  569MOL0     H78522   6.241   3.278   9.035 -0.2292 -0.3398 -0.0438
  570MOL0     O78523   4.795   9.590   1.131  0.5193  0.1720 -0.3714
  570MOL0     C78524   4.705   9.580   1.050 -0.9180 -0.0163 -0.2568
  570MOL0     O78525   4.730   9.576   0.916  0.7664 -0.0468  0.2043
  570MOL0     C78526   4.843   9.639   0.870  0.3497  0.6426 -0.5918
  570MOL0     C78527   4.831   9.744   0.780 -0.1736  0.1637  0.3094
  570MOL0     C78528   4.943   9.798   0.718 -0.3295  0.8679 -0.3892
  570MOL0     C78529   5.076   9.741   0.734  0.4459 -0.0791 -0.1044
  570MOL0     O78530   5.175   9.802   0.664 -0.2402 -1.3521 -0.4562
  570MOL0     C78531   5.290   9.841   0.745 -0.6972  0.2762  1.2414
  570MOL0     C78532   5.382   9.923   0.654 -0.5156  0.7412  0.5001
  570MOL0     C78533   5.511   9.981   0.726 -0.2041 -0.6679 -0.4656
  570MOL0     C78534   5.624   9.872   0.774  0.7670  0.0440 -0.0323
  570MOL0     C78535   5.759   9.940   0.794  0.6188 -0.4820 -0.7751
  570MOL0     C78536   5.874   9.835   0.824 -0.6983  0.3750 -0.3699
  570MOL0     C78537   6.003   9.882   0.791 -0.0371  0.0225 -0.4678
  570MOL0     C78538   6.065   9.958   0.911 -0.1323  0.4076  0.3577
  570MOL0     N78539   6.205   9.985   0.906 -0.3629 -0.6075  0.5321
  570MOL0     C78540   6.292  10.003   1.012  0.2101  0.2277  0.9320
  570MOL0     C78541   6.409  10.029   0.956 -0.5301  1.5411 -0.4707
  570MOL0     C78542   6.537  10.048   1.040  0.2340 -0.6704  0.7812
  570MOL0     C78543   6.665  10.017   0.965 -0.1868  0.0076  0.4711
  570MOL0     C78544   6.793  10.020   1.052  0.5729 -0.0057 -0.4873
  570MOL0     C78545   6.910   9.990   0.965  0.0110  0.2142  0.0492
  570MOL0     O78546   7.033  10.051   1.016 -0.3364 -0.8119 -0.0189
  570MOL0     C78547   7.148  10.029   0.950  0.0191  0.2409 -0.5312
  570MOL0     C78548   7.258  10.102   0.986 -0.9231 -0.4179  0.5361
  570MOL0     C78549   7.386  10.079   0.934  0.3328  0.1091  0.4500
  570MOL0     C78550   7.494  10.168   0.994  0.0037  0.3634 -1.2952
  570MOL0     C78551   7.411   9.979   0.831 -0.1203 -0.4576  0.3688
  570MOL0     C78552   7.547   9.941   0.783 -0.1196  0.7277 -0.2693
  570MOL0     O78553   7.645  10.027   0.812 -0.4351 -0.5979  0.5600
  570MOL0     C78554   7.776   9.999   0.789  0.5825  0.1722  0.1828
  570MOL0     C78555   7.867  10.007   0.899 -0.9108 -0.0741 -0.1672
  570MOL0     C78556   7.998   9.975   0.881  0.0670 -0.6024  0.3641
  570MOL0     C78557   8.046   9.937   0.754 -0.1346 -0.3125  0.3354
  570MOL0     O78558   8.174   9.914   0.722 -0.1020 -0.3994  0.3485
  570MOL0     C78559   8.278   9.968   0.812 -0.1648 -0.3354  0.3315
  570MOL0     C78560   8.418   9.934   0.756  0.6518  0.7469 -0.4643
  570MOL0     C78561   8.441   9.785   0.787 -0.1321 -0.0193  1.3668
  570MOL0     C78562   8.584   9.760   0.798 -0.9715 -0.0359 -0.0629
  570MOL0     C78563   8.653   9.824   0.924  0.3548  0.0330 -0.0457
  570MOL0     C78564   8.761   9.739   0.974 -0.2980  1.0700  0.1080
  570MOL0     C78565   8.834   9.813   1.085  0.7496  0.0928  0.5282
  570MOL0     C78566   8.979   9.769   1.088  0.5609 -0.4586 -1.1951
  570MOL0    Cl78567   9.063   9.846   1.225 -0.1026  0.4173 -0.1241
  570MOL0     C78568   7.958   9.927   0.653  0.0698  0.6106 -0.3543
  570MOL0     C78569   7.824   9.950   0.673 -0.1402 -0.1121  0.6415
  570MOL0     O78570   7.563   9.844   0.710  0.6189  0.1114  0.2222
  570MOL0     C78571   7.299   9.908   0.789  0.3544  0.6563  0.1446
  570MOL0     C78572   7.169   9.932   0.839  0.2360  0.2366 -0.2232
  570MOL0     N78573   6.402  10.035   0.814 -0.0929 -0.3546  0.1063
  570MOL0     N78574   6.274  10.011   0.792 -0.3535  0.5625  0.7417
  570MOL0     C78575   5.088   9.641   0.834  0.0181 -0.0366  1.0131
  570MOL0     C78576   4.976   9.580   0.885 -0.1821  0.8003 -0.0528
  570MOL0     C78577   4.568   9.544   1.101  0.1346  0.6697 -0.3521
  570MOL0     C78578   4.473   9.499   1.011  0.5907 -0.8363 -0.2187
  570MOL0     C78579   4.349   9.452   1.046 -0.0138 -0.0871  0.3925
  570MOL0     C78580   4.310   9.473   1.177  0.3778 -0.9667  0.1727
  570MOL0     O78581   4.188   9.431   1.206 -0.3864  0.4538 -0.1301
  570MOL0     C78582   4.182   9.341   1.321 -0.3696  0.0354 -0.1049
  570MOL0     C78583   4.125   9.411   1.443 -0.4977  0.3747  0.0673
  570MOL0     C78584   4.114   9.310   1.554 -0.5932  0.0025  0.0064
  570MOL0     C78585   4.046   9.362   1.683 -0.5681  0.0701 -0.3140
  570MOL0     C78586   4.110   9.481   1.736 -0.1151  0.6653  1.0050
  570MOL0     C78587   4.181   9.571   1.770 -0.9812 -0.7629  0.2475
  570MOL0     C78588   4.398   9.520   1.273 -0.3427  1.1633 -0.2047
  570MOL0     C78589   4.530   9.564   1.237  0.6287 -0.5781 -0.5255
  570MOL0     C78590   4.614   9.617   1.349  0.1717  0.1889  0.4750
  570MOL0     H78591   4.732   9.777   0.752 -1.5101 -0.9690  3.2145
  570MOL0     H78592   4.936   9.886   0.654  1.9554  1.4387  0.0542
  570MOL0     H78593   5.341   9.749   0.777 -1.0353 -0.2051  0.4134
  570MOL0     H78594   5.261   9.907   0.827  2.2673 -0.0130  2.6691
  570MOL0     H78595   5.422   9.858   0.576 -1.5663 -0.5290  0.9935
  570MOL0     H78596   5.330  10.001   0.598 -2.3710 -2.6427 -2.9056
  570MOL0     H78597   5.553  10.041   0.645 -0.2853 -0.0662 -0.0663
  570MOL0     H78598   5.488  10.051   0.806  1.5678 -0.6349  0.0563
  570MOL0     H78599   5.599   9.829   0.872 -0.9037  0.7079 -0.1369
  570MOL0     H78600   5.617   9.801   0.691  2.5682  0.3262 -0.4643
  570MOL0     H78601   5.740  10.017   0.869 -2.9358 -0.7716 -1.2044
  570MOL0     H78602   5.772   9.997   0.701  1.0092 -1.8497 -1.5856
  570MOL0     H78603   5.869   9.802   0.928  0.9816  1.7892  0.2110
  570MOL0     H78604   5.855   9.752   0.755  1.0859  0.9074 -1.5964
  570MOL0     H78605   5.995   9.937   0.696  3.0650 -0.0659 -0.8918
  570MOL0     H78606   6.067   9.797   0.767  0.7765  0.4850  0.0176
  570MOL0     H78607   6.018  10.056   0.928  1.1980  1.0055  0.6998
  570MOL0     H78608   6.046   9.890   0.994  3.1224 -1.4863 -0.2711
  570MOL0     H78609   6.265   9.984   1.116 -0.4195  0.2515  0.7760
  570MOL0     H78610   6.525   9.995   1.134 -1.8306  0.9256  1.4998
  570MOL0     H78611   6.541  10.152   1.075  0.8265 -0.5868  0.4780
  570MOL0     H78612   6.643   9.920   0.919 -1.5451  0.7911 -0.5641
  570MOL0     H78613   6.657  10.087   0.882 -0.0271  0.9448  1.2265
  570MOL0     H78614   6.814  10.116   1.100  2.9118 -0.1312 -1.1229
  570MOL0     H78615   6.788   9.941   1.127  0.5651 -1.8395 -2.3113
  570MOL0     H78616   6.929   9.883   0.957 -0.8574 -0.2158  2.7517
  570MOL0     H78617   6.891  10.024   0.863  2.5072 -2.9774 -1.6641
  570MOL0     H78618   7.240  10.180   1.059 -0.9515  0.5892 -0.5178
  570MOL0     H78619   7.582  10.107   1.015 -0.3386  0.1145 -0.5173
  570MOL0     H78620   7.453  10.193   1.093 -1.8158 -0.2240 -1.8550
  570MOL0     H78621   7.509  10.259   0.936  0.6454 -0.0164 -1.7285
  570MOL0     H78622   7.838  10.036   0.999  0.5149 -1.0827  0.5742
  570MOL0     H78623   8.064   9.996   0.964 -1.1495 -0.8750  1.4306
  570MOL0     H78624   8.267  10.077   0.806  0.7363 -0.2033  0.8349
  570MOL0     H78625   8.273   9.939   0.918  1.3132 -1.6839  0.0686
  570MOL0     H78626   8.420   9.942   0.647 -1.2584 -0.6074 -0.6653
  570MOL0     H78627   8.496   9.997   0.799 -1.7737  2.1130  2.3163
  570MOL0     H78628   8.400   9.714   0.714  0.7898 -0.0332  0.8502
  570MOL0     H78629   8.402   9.756   0.885 -2.8295 -2.7007 -0.3156
  570MOL0     H78630   8.631   9.800   0.707  1.0913 -1.1399  0.4666
  570MOL0     H78631   8.601   9.652   0.800 -1.4222 -0.1532 -1.4852
  570MOL0     H78632   8.688   9.922   0.891  0.2864 -0.2263 -0.8915
  570MOL0     H78633   8.575   9.841   0.999 -1.1814  3.2770 -2.2009
  570MOL0     H78634   8.826   9.715   0.889 -1.1796 -0.1439 -0.2578
  570MOL0     H78635   8.723   9.649   1.023  0.9602 -2.0937 -4.0990
  570MOL0     H78636   8.793   9.802   1.185  1.4839  0.3505  0.8676
  570MOL0     H78637   8.832   9.922   1.075  0.5927  0.1023  0.6644
  570MOL0     H78638   9.035   9.799   0.999  2.2490  1.4231  0.3963
  570MOL0     H78639   8.976   9.660   1.096 -0.6945 -0.5121 -2.1657
  570MOL0     H78640   7.994   9.899   0.554 -0.3113  0.2506 -0.3923
  570MOL0     H78641   7.766   9.951   0.581  1.0625 -1.5479 -0.1774
  570MOL0     H78642   7.310   9.819   0.729 -0.7645 -0.9412  2.1703
  570MOL0     H78643   7.097   9.855   0.812  1.4924 -1.0611 -0.0170
  570MOL0     H78644   5.175   9.579   0.855 -1.5442 -1.3603  4.1978
  570MOL0     H78645   4.993   9.490   0.943 -2.6665  0.8090  0.8487
  570MOL0     H78646   4.510   9.472   0.913  4.1197  0.8277  0.5022
  570MOL0     H78647   4.281   9.407   0.974  0.1076  1.5634 -0.8024
  570MOL0     H78648   4.114   9.261   1.293  1.1325 -2.6500  3.2503
  570MOL0     H78649   4.270   9.280   1.342  0.2455  1.0495  0.3404
  570MOL0     H78650   4.026   9.452   1.420 -0.9064  0.4446  1.8697
  570MOL0     H78651   4.190   9.493   1.474 -0.5541 -0.1727  1.6895
  570MOL0     H78652   4.059   9.227   1.509 -1.3368  0.6408 -0.2894
  570MOL0     H78653   4.210   9.265   1.582  0.5380  1.3030 -1.6230
  570MOL0     H78654   4.053   9.284   1.759 -0.0380  0.6083  0.1962
  570MOL0     H78655   3.937   9.376   1.686 -0.4503  1.3600 -1.1035
  570MOL0     H78656   4.258   9.643   1.787  1.9045 -4.0438  2.4250
  570MOL0     H78657   4.370   9.539   1.376 -1.8888  2.0488 -0.7634
  570MOL0     H78658   4.710   9.564   1.359 -0.8084 -1.7395  0.0256
  570MOL0     H78659   4.628   9.724   1.332 -1.6610  0.2413 -1.0279
  570MOL0     H78660   4.561   9.604   1.444 -1.6218 -2.1410 -0.7490
  571MOL0     O78661   8.737   6.829   3.309  0.6164 -0.3841 -0.6033
  571MOL0     C78662   8.717   6.944   3.336 -0.2074 -0.0651 -0.5292
  571MOL0     O78663   8.819   7.031   3.371  0.7499  0.2380 -0.2529
  571MOL0     C78664   8.948   7.006   3.345 -0.2062  0.5285 -0.5090
  571MOL0     C78665   9.016   6.897   3.414  0.8098 -0.2625 -0.3179
  571MOL0     C78666   9.141   6.856   3.384 -0.0876  0.0601  0.4954
  571MOL0     C78667   9.227   6.926   3.299 -0.1765 -0.3550 -0.0751
  571MOL0     O78668   9.348   6.867   3.271  0.0026  0.1975 -0.2185
  571MOL0     C78669   9.453   6.959   3.214  0.2147  0.6889 -0.2991
  571MOL0     C78670   9.462   6.966   3.060  0.1743 -0.3431 -0.4003
  571MOL0     C78671   9.581   6.887   3.014 -1.0430 -0.2337  0.7477
  571MOL0     C78672   9.718   6.972   3.012  0.7639  0.2146 -0.3371
  571MOL0     C78673   9.828   6.923   2.920  0.8015  0.8812 -0.1326
  571MOL0     C78674   9.868   6.773   2.934  0.2113 -0.9012  0.3307
  571MOL0     C78675   9.985   6.748   2.841 -0.1969 -1.1414 -0.2686
  571MOL0     C78676  10.022   6.603   2.822 -0.5292 -0.2727  0.0855
  571MOL0     N78677  10.078   6.542   2.944 -0.6956 -0.2197 -0.6836
  571MOL0     C78678  10.024   6.433   3.006 -0.4445  0.2624  0.3717
  571MOL0     C78679  10.096   6.424   3.121  0.1912 -0.1856 -0.0593
  571MOL0     C78680  10.059   6.333   3.238 -0.0643 -0.9259 -0.0954
  571MOL0     C78681   9.932   6.375   3.315 -0.3554 -0.0209 -0.1673
  571MOL0     C78682   9.947   6.511   3.387 -0.3040  0.0489 -0.0514
  571MOL0     C78683   9.849   6.530   3.508 -0.2167 -0.6652  0.3884
  571MOL0     O78684   9.713   6.513   3.472  0.2597 -0.2974  0.5467
  571MOL0     C78685   9.602   6.542   3.554  0.4139  0.5835 -0.5984
  571MOL0     C78686   9.615   6.595   3.684 -0.1788  0.3403  1.1136
  571MOL0     C78687   9.501   6.608   3.766  0.2431  0.4154 -0.3900
  571MOL0     C78688   9.539   6.643   3.907  0.6015  0.3090  0.9316
  571MOL0     C78689   9.366   6.578   3.710  0.9003 -0.5300  0.1343
  571MOL0     C78690   9.234   6.618   3.784  0.2450 -0.1683 -0.4773
  571MOL0     O78691   9.126   6.636   3.707  0.3066  0.6553 -0.1044
  571MOL0     C78692   9.007   6.683   3.758  0.9187  0.2210 -0.0587
  571MOL0     C78693   8.898   6.667   3.670 -0.1446  0.4964  0.7087
  571MOL0     C78694   8.775   6.712   3.710 -0.5796  0.2898  0.4940
  571MOL0     C78695   8.760   6.794   3.823 -0.0395 -0.0816 -0.6356
  571MOL0     O78696   8.645   6.852   3.857  0.0733  0.3248  0.4206
  571MOL0     C78697   8.527   6.854   3.779  0.0881  0.0600  0.2371
  571MOL0     C78698   8.421   6.949   3.840  0.4104  0.1851 -0.0240
  571MOL0     C78699   8.339   7.009   3.730 -0.3506  0.5154 -0.0830
  571MOL0     C78700   8.235   7.100   3.791  0.0577 -0.1218 -0.5805
  571MOL0     C78701   8.137   7.145   3.680 -0.4325  0.0969  0.0145
  571MOL0     C78702   8.021   7.226   3.738 -0.1296  0.3320  0.5256
  571MOL0     C78703   7.927   7.276   3.624  0.4279 -1.2710  0.5611
  571MOL0     C78704   7.883   7.423   3.659 -0.1603 -0.0934 -0.4659
  571MOL0    Cl78705   7.775   7.492   3.546  0.4182  0.1599 -0.3076
  571MOL0     C78706   8.868   6.829   3.899 -0.2185 -0.4802 -0.1752
  571MOL0     C78707   8.992   6.778   3.862 -0.7820 -0.1988  0.5500
  571MOL0     O78708   9.244   6.628   3.905  0.2188 -0.6403 -0.3121
  571MOL0     C78709   9.356   6.517   3.593 -0.6892  0.1958  0.2362
  571MOL0     C78710   9.474   6.502   3.505 -0.1029  0.4642  0.4032
  571MOL0     N78711  10.183   6.527   3.120  0.0383 -1.0134 -0.3245
  571MOL0     N78712  10.189   6.584   3.003  0.2717  0.0477 -0.7991
  571MOL0     C78713   9.172   7.044   3.238 -0.1609  0.4189 -0.3254
  571MOL0     C78714   9.036   7.079   3.263 -0.1119 -0.4498  0.0069
  571MOL0     C78715   8.582   7.001   3.314 -0.8631  0.3655  0.3400
  571MOL0     C78716   8.570   7.142   3.348 -1.1211 -0.5718 -0.0675
  571MOL0     C78717   8.441   7.195   3.346  0.1618  0.1568  0.0094
  571MOL0     C78718   8.321   7.129   3.309 -0.0355  0.5359 -0.0233
  571MOL0     O78719   8.192   7.182   3.290 -0.5300 -0.1796  0.0953
  571MOL0     C78720   8.173   7.323   3.309 -0.2636 -0.4950  0.5768
  571MOL0     C78721   8.029   7.381   3.287 -0.3748  0.5765  0.6303
  571MOL0     C78722   7.995   7.395   3.138 -0.6390 -0.4179 -0.5025
  571MOL0     C78723   7.852   7.439   3.112  0.0607  0.0491  0.6643
  571MOL0     C78724   7.800   7.545   3.192 -1.3125  0.3852 -0.0563
  571MOL0     C78725   7.752   7.644   3.244 -0.2455 -0.5315  0.6353
  571MOL0     C78726   8.340   6.998   3.273 -0.0483 -0.0004  0.4873
  571MOL0     C78727   8.464   6.931   3.274 -0.5845 -0.5224  0.5894
  571MOL0     C78728   8.473   6.789   3.244  0.0907 -0.1626 -0.3094
  571MOL0     H78729   8.964   6.832   3.484  2.3004 -1.0991  0.0465
  571MOL0     H78730   9.181   6.771   3.440 -1.4447 -1.1559 -0.3277
  571MOL0     H78731   9.550   6.920   3.248  0.6036 -0.1562 -2.2206
  571MOL0     H78732   9.438   7.060   3.253 -1.0372  0.2748  0.3580
  571MOL0     H78733   9.373   6.915   3.024 -0.0242 -0.0653 -0.3013
  571MOL0     H78734   9.466   7.070   3.024  1.3221  0.1440  0.9968
  571MOL0     H78735   9.598   6.796   3.073  2.9471 -0.2550 -0.1047
  571MOL0     H78736   9.552   6.862   2.911 -1.7956  0.9786  0.6496
  571MOL0     H78737   9.698   7.073   2.975  2.2875  1.3040  1.6130
  571MOL0     H78738   9.765   6.973   3.111  1.9817 -1.2400 -0.8704
  571MOL0     H78739   9.907   6.993   2.949 -0.6616  2.5974 -0.1337
  571MOL0     H78740   9.806   6.948   2.816 -2.2850 -1.6481 -0.2274
  571MOL0     H78741   9.894   6.753   3.038 -0.0573  2.1762  1.0950
  571MOL0     H78742   9.787   6.708   2.902 -0.8208 -0.4354  1.8884
  571MOL0     H78743  10.072   6.794   2.889  0.0642  1.0487 -2.6161
  571MOL0     H78744   9.967   6.787   2.741 -0.3352  0.8081  0.4636
  571MOL0     H78745   9.936   6.552   2.777 -0.9298  0.3951  0.0726
  571MOL0     H78746  10.103   6.594   2.749  0.0535  0.7862  0.5748
  571MOL0     H78747   9.948   6.362   2.974  0.2624  0.4601 -1.8970
  571MOL0     H78748  10.144   6.338   3.307  0.7989  0.0344 -1.1782
  571MOL0     H78749  10.046   6.230   3.204 -0.8990 -0.5663 -0.9170
  571MOL0     H78750   9.854   6.381   3.239  0.4457  1.0450 -0.9282
  571MOL0     H78751   9.908   6.297   3.388  1.7188 -1.8448 -1.3053
  571MOL0     H78752  10.052   6.518   3.419  0.3945  2.5834 -2.4304
  571MOL0     H78753   9.935   6.580   3.302  2.2971 -0.9593 -1.3641
  571MOL0     H78754   9.878   6.472   3.596  1.1809 -1.6880 -0.6966
  571MOL0     H78755   9.862   6.634   3.539 -2.6319 -0.0944 -0.3253
  571MOL0     H78756   9.715   6.618   3.717 -0.0185  2.1282 -0.4506
  571MOL0     H78757   9.492   6.585   3.987  3.1598 -1.2162  1.4372
  571MOL0     H78758   9.512   6.746   3.933 -0.2774  0.2938  0.1006
  571MOL0     H78759   9.648   6.647   3.923  0.2922  2.3397  3.2182
  571MOL0     H78760   8.913   6.616   3.576  1.3858 -3.5312  2.9122
  571MOL0     H78761   8.697   6.698   3.636  0.1767  0.8274 -0.4282
  571MOL0     H78762   8.553   6.894   3.681 -0.4805 -1.6674 -0.6610
  571MOL0     H78763   8.489   6.751   3.785 -1.2915  0.3776 -2.1987
  571MOL0     H78764   8.361   6.905   3.920  1.8773  1.4676  1.8612
  571MOL0     H78765   8.470   7.030   3.896  0.3241 -1.7324  3.0734
  571MOL0     H78766   8.281   6.931   3.681 -1.8409  2.1709 -1.0972
  571MOL0     H78767   8.414   7.061   3.668 -0.1581 -1.1237 -1.2938
  571MOL0     H78768   8.278   7.186   3.843 -1.6512  1.3092 -1.4390
  571MOL0     H78769   8.172   7.042   3.860 -1.1806  0.6969 -1.0142
  571MOL0     H78770   8.187   7.208   3.606  1.0315 -0.8624  0.1519
  571MOL0     H78771   8.102   7.056   3.626  0.9657  0.5831 -1.8114
  571MOL0     H78772   8.057   7.309   3.799  0.8783 -1.1606  2.0706
  571MOL0     H78773   7.966   7.158   3.803 -2.7853 -0.0886 -1.9560
  571MOL0     H78774   7.835   7.219   3.635 -1.1994  0.8192 -1.2639
  571MOL0     H78775   7.969   7.265   3.524  1.5438  1.4814  0.6257
  571MOL0     H78776   7.973   7.485   3.669 -1.4574  2.0503 -1.2408
  571MOL0     H78777   7.843   7.427   3.761  0.7193  3.0464 -0.1425
  571MOL0     H78778   8.864   6.884   3.992 -1.6888 -1.3729  0.3189
  571MOL0     H78779   9.081   6.802   3.920  0.7687  2.3374 -2.5967
  571MOL0     H78780   9.255   6.508   3.552 -1.2312  1.6667  1.1782
  571MOL0     H78781   9.449   6.473   3.403  1.7203 -1.5256  0.4454
  571MOL0     H78782   9.239   7.096   3.169  2.5639  0.3040  2.0489
  571MOL0     H78783   8.992   7.163   3.210  0.7876  0.4042  0.5821
  571MOL0     H78784   8.656   7.200   3.380 -1.7510  0.0980  0.4279
  571MOL0     H78785   8.423   7.298   3.376 -0.4695  0.2261 -0.5698
  571MOL0     H78786   8.194   7.358   3.410  0.6795  1.5545 -0.2645
  571MOL0     H78787   8.236   7.378   3.239 -0.8881  1.4603  1.4918
  571MOL0     H78788   8.014   7.472   3.344  1.3288  0.6053  1.0932
  571MOL0     H78789   7.969   7.299   3.328  0.5917 -0.3741  0.2247
  571MOL0     H78790   8.063   7.469   3.097  1.2860 -1.1299  1.2664
  571MOL0     H78791   8.007   7.297   3.091  0.6244 -0.5306  0.0341
  571MOL0     H78792   7.780   7.357   3.118 -0.3464 -0.2499 -4.1880
  571MOL0     H78793   7.845   7.468   3.006  1.6077  1.9700  1.0330
  571MOL0     H78794   7.684   7.725   3.262 -0.5065 -0.9030  1.3603
  571MOL0     H78795   8.254   6.944   3.234  1.8793 -1.9921 -1.2677
  571MOL0     H78796   8.527   6.738   3.324  0.2073 -1.4858 -1.1943
  571MOL0     H78797   8.377   6.743   3.217  1.0092 -1.0195 -2.3537
  571MOL0     H78798   8.531   6.778   3.151  0.4287  1.3932 -0.3030
  572MOL0     O78799  10.952   6.197   3.855  0.0616  0.5134 -0.1937
  572MOL0     C78800  10.940   6.074   3.867  0.4024  0.1924  0.0286
  572MOL0     O78801  11.040   5.987   3.912 -0.2367  0.0693  0.2346
  572MOL0     C78802  11.176   6.014   3.916  0.2625 -0.3382 -0.0151
  572MOL0     C78803  11.253   5.935   3.996 -0.1514 -0.5032 -0.1950
  572MOL0     C78804  11.393   5.944   3.982 -0.8204  0.4480 -0.4308
  572MOL0     C78805  11.452   6.028   3.888  0.1932 -0.1244  0.1966
  572MOL0     O78806  11.581   6.047   3.861 -0.1221 -0.9954  0.4690
  572MOL0     C78807  11.670   5.998   3.959  0.1174  0.0214  0.1608
  572MOL0     C78808  11.806   6.042   3.945 -0.1406 -0.1037 -0.1537
  572MOL0     C78809  11.871   5.994   3.824  0.1876  0.5192 -0.1568
  572MOL0     C78810  12.015   6.058   3.812 -0.0375  0.0024 -0.8488
  572MOL0     C78811  12.119   5.946   3.786  0.0844 -0.3599  0.2497
  572MOL0     C78812  12.270   5.992   3.779  0.2895  0.7381  0.1614
  572MOL0     C78813  12.329   5.968   3.917 -0.2398 -0.5877  0.3898
  572MOL0     C78814  12.469   6.018   3.918 -0.3631 -0.7288 -1.2461
  572MOL0     N78815  12.548   5.973   3.808 -0.1251  0.3619 -0.7368
  572MOL0     C78816  12.583   5.839   3.790 -0.6747  0.2139 -0.5634
  572MOL0     C78817  12.646   5.834   3.674 -0.2061 -0.5547  0.0148
  572MOL0     C78818  12.698   5.716   3.610 -0.2685  0.9605 -0.0529
  572MOL0     C78819  12.855   5.711   3.597  0.2785 -0.2049  0.8685
  572MOL0     C78820  12.925   5.673   3.727  0.0162  0.3213 -0.4491
  572MOL0     C78821  13.077   5.652   3.721 -0.0206  1.6247 -0.1373
  572MOL0     O78822  13.127   5.759   3.644 -0.2334  0.1702 -0.8126
  572MOL0     C78823  13.256   5.761   3.602 -0.4123  0.0478  0.4074
  572MOL0     C78824  13.289   5.870   3.524 -0.6202 -0.3145  0.1492
  572MOL0     C78825  13.411   5.891   3.459  0.4000 -0.2859  0.5784
  572MOL0     C78826  13.421   6.010   3.365  0.3389 -1.1010 -0.3563
  572MOL0     C78827  13.512   5.795   3.479  0.1331  0.3785  0.9098
  572MOL0     C78828  13.652   5.808   3.420  0.5170 -0.4041 -0.0746
  572MOL0     O78829  13.726   5.688   3.418 -0.2268 -0.4593 -0.2602
  572MOL0     C78830  13.863   5.680   3.395  0.4023  0.1245 -0.1716
  572MOL0     C78831  13.954   5.783   3.424 -0.2492  0.0001  0.8280
  572MOL0     C78832  14.088   5.760   3.396  0.7468 -0.5569 -0.3516
  572MOL0     C78833  14.137   5.640   3.350 -0.5350  0.1592  0.1033
  572MOL0     O78834  14.274   5.626   3.333  0.0906  0.4603  0.2115
  572MOL0     C78835  14.337   5.505   3.287  0.1779  0.5602  0.7827
  572MOL0     C78836  14.490   5.522   3.304  0.2286 -0.4220 -0.3303
  572MOL0     C78837  14.511   5.537   3.455 -0.6026  0.5703  0.6759
  572MOL0     C78838  14.537   5.684   3.489 -0.4557  0.1838 -0.4283
  572MOL0     C78839  14.686   5.723   3.480  0.0125  0.2161 -0.1824
  572MOL0     C78840  14.774   5.651   3.591  0.4003 -0.2470 -0.5703
  572MOL0     C78841  14.899   5.742   3.616 -0.8152  0.1667 -0.1524
  572MOL0     C78842  14.997   5.675   3.713 -0.5466 -0.6754 -0.2389
  572MOL0    Cl78843  15.083   5.555   3.592  0.4474 -0.0105  0.2807
  572MOL0     C78844  14.045   5.535   3.324 -0.1872 -0.1935 -0.4874
  572MOL0     C78845  13.904   5.561   3.331 -0.1042  0.6207  0.3660
  572MOL0     O78846  13.691   5.914   3.373 -0.6026  0.3048 -0.3056
  572MOL0     C78847  13.479   5.684   3.564  0.8211  0.2599 -0.6912
  572MOL0     C78848  13.355   5.671   3.623  0.9010  0.2517  0.0834
  572MOL0     N78849  12.662   5.962   3.626 -0.5550  0.5491 -0.2431
  572MOL0     N78850  12.592   6.039   3.696  0.1595 -0.1058  0.3510
  572MOL0     C78851  11.372   6.121   3.816  0.3975 -0.5425  0.2464
  572MOL0     C78852  11.234   6.106   3.829 -0.0661  0.4481 -0.4954
  572MOL0     C78853  10.805   6.005   3.853  0.2440 -0.6143 -0.4282
  572MOL0     C78854  10.780   5.888   3.928 -0.5732 -0.6706 -0.0053
  572MOL0     C78855  10.662   5.826   3.920  0.1167  1.0807  0.3903
  572MOL0     C78856  10.559   5.871   3.845 -0.8845 -0.0827 -0.3074
  572MOL0     O78857  10.440   5.796   3.826  0.1747  0.1177 -0.0869
  572MOL0     C78858  10.398   5.697   3.927 -0.8137 -0.1617  0.3687
  572MOL0     C78859  10.274   5.623   3.865  0.3336 -0.3998 -0.2727
  572MOL0     C78860  10.154   5.716   3.851 -0.7856 -0.5190  0.1552
  572MOL0     C78861  10.049   5.686   3.962  0.3690 -0.0557 -0.1500
  572MOL0     C78862   9.938   5.790   3.953  0.0107  0.3691 -0.0110
  572MOL0     C78863   9.857   5.884   3.950  0.9455 -0.3879  0.7081
  572MOL0     C78864  10.577   5.990   3.770 -0.4517  0.0849 -0.3242
  572MOL0     C78865  10.699   6.060   3.770  0.6674 -0.2168  0.4106
  572MOL0     C78866  10.716   6.186   3.688 -0.0684  0.4503  0.1538
  572MOL0     H78867  11.198   5.864   4.056 -0.3695 -1.1716 -1.1757
  572MOL0     H78868  11.460   5.887   4.045  0.0364  2.2885  0.3861
  572MOL0     H78869  11.671   5.889   3.975  0.7673 -0.0573 -0.3952
  572MOL0     H78870  11.640   6.031   4.059 -0.0355 -2.4207  0.9864
  572MOL0     H78871  11.802   6.152   3.948  1.0210 -0.0082 -1.3639
  572MOL0     H78872  11.861   5.993   4.026 -0.4873 -3.5208 -1.8274
  572MOL0     H78873  11.889   5.886   3.836 -2.2916  0.1870  1.4948
  572MOL0     H78874  11.809   6.015   3.736  0.2833 -0.8645 -0.5875
  572MOL0     H78875  12.016   6.138   3.737  2.5636  1.9797  1.0843
  572MOL0     H78876  12.041   6.108   3.906 -1.0020  2.2994 -1.7347
  572MOL0     H78877  12.096   5.901   3.689 -1.2531  0.8012 -0.0095
  572MOL0     H78878  12.108   5.863   3.856 -0.8021  0.9590  1.7338
  572MOL0     H78879  12.320   5.936   3.699  1.8553  0.7990  1.0514
  572MOL0     H78880  12.286   6.097   3.756  1.6474  0.4029 -0.5246
  572MOL0     H78881  12.325   5.860   3.938  1.6899 -0.8949 -0.6119
  572MOL0     H78882  12.271   6.023   3.991 -0.7186 -0.9377  0.2782
  572MOL0     H78883  12.460   6.127   3.916 -1.2386 -0.8124 -2.3281
  572MOL0     H78884  12.520   5.978   4.007  0.8205  1.2091 -0.9932
  572MOL0     H78885  12.570   5.755   3.858  0.7725  2.4950  2.8202
  572MOL0     H78886  12.660   5.699   3.509  1.3353  0.6292 -0.6333
  572MOL0     H78887  12.656   5.639   3.676  1.3038  0.5226  0.4757
  572MOL0     H78888  12.889   5.636   3.524  0.7699  0.0321  0.8424
  572MOL0     H78889  12.895   5.805   3.557  0.9967 -0.7331  0.3041
  572MOL0     H78890  12.917   5.755   3.799  1.2153 -0.3371  0.4626
  572MOL0     H78891  12.889   5.577   3.767 -2.5039  2.6284  3.4947
  572MOL0     H78892  13.122   5.650   3.821 -4.2954  1.3872  2.0312
  572MOL0     H78893  13.099   5.555   3.675 -0.3360  2.1161 -1.3502
  572MOL0     H78894  13.201   5.930   3.505 -0.9536 -1.1945 -1.1838
  572MOL0     H78895  13.440   5.973   3.264  0.9224  1.0285 -1.0670
  572MOL0     H78896  13.500   6.076   3.403 -1.0947  0.4166  0.0910
  572MOL0     H78897  13.333   6.073   3.349  1.5193  1.1610  1.4451
  572MOL0     H78898  13.921   5.877   3.468  2.2945  0.5992  1.5998
  572MOL0     H78899  14.171   5.827   3.416  1.0881 -1.1651  0.3615
  572MOL0     H78900  14.309   5.418   3.348  3.1911  0.0646  1.5900
  572MOL0     H78901  14.319   5.477   3.183  1.8807 -1.9458  1.0815
  572MOL0     H78902  14.536   5.433   3.261 -0.8440 -0.6338 -1.0718
  572MOL0     H78903  14.526   5.610   3.250 -1.3760 -0.0401 -0.8238
  572MOL0     H78904  14.591   5.474   3.496 -0.3584  0.1781 -0.3675
  572MOL0     H78905  14.423   5.502   3.509 -1.1150 -3.7203 -2.3892
  572MOL0     H78906  14.500   5.684   3.592  0.7829 -3.6557  0.1682
  572MOL0     H78907  14.483   5.757   3.427 -2.4131 -1.1595 -0.3931
  572MOL0     H78908  14.728   5.707   3.380 -0.0486  0.3619 -0.2314
  572MOL0     H78909  14.691   5.832   3.494  3.5151  0.2270 -0.5452
  572MOL0     H78910  14.803   5.553   3.550  0.9516  1.1516 -3.9141
  572MOL0     H78911  14.717   5.644   3.684  0.9240  2.3011  0.0022
  572MOL0     H78912  14.861   5.835   3.661 -0.5323 -0.6346  1.8298
  572MOL0     H78913  14.948   5.765   3.521 -1.6937  1.9392 -0.2242
  572MOL0     H78914  14.949   5.634   3.803  0.5686  3.6199  2.6421
  572MOL0     H78915  15.074   5.743   3.752  0.5778 -0.2609 -2.9847
  572MOL0     H78916  14.082   5.437   3.293  0.1198 -0.2524  0.0521
  572MOL0     H78917  13.839   5.477   3.307  0.0756  0.0436  1.7970
  572MOL0     H78918  13.552   5.606   3.582 -0.1936 -0.5136  0.1807
  572MOL0     H78919  13.347   5.588   3.692  0.0839  0.6345  0.4792
  572MOL0     H78920  11.414   6.198   3.752  3.2946 -1.4132  0.9735
  572MOL0     H78921  11.180   6.172   3.761 -1.3130  0.4024  0.4308
  572MOL0     H78922  10.862   5.853   3.991  2.5283 -1.5618 -4.1220
  572MOL0     H78923  10.648   5.735   3.977 -0.4144 -0.2412 -1.7396
  572MOL0     H78924  10.479   5.625   3.944 -1.7122 -0.7122  2.7649
  572MOL0     H78925  10.363   5.741   4.021 -3.9368 -0.0329 -0.7406
  572MOL0     H78926  10.245   5.534   3.921  2.1876 -2.3469 -2.1964
  572MOL0     H78927  10.309   5.583   3.769 -0.3146 -3.4404  0.6403
  572MOL0     H78928  10.191   5.818   3.861  0.7255 -1.0953  0.9290
  572MOL0     H78929  10.103   5.706   3.755 -1.1126  0.9931  0.1553
  572MOL0     H78930  10.090   5.684   4.063  1.2958 -0.0250 -0.5235
  572MOL0     H78931  10.005   5.588   3.942 -0.0090 -0.5373  2.5940
  572MOL0     H78932   9.786   5.964   3.956  0.5935 -0.2856 -2.5345
  572MOL0     H78933  10.494   6.042   3.723 -1.4415  0.0696  1.3210
  572MOL0     H78934  10.704   6.265   3.762 -0.0771  0.7332 -0.1462
  572MOL0     H78935  10.813   6.185   3.636 -0.3485  0.4651 -0.3780
  572MOL0     H78936  10.638   6.191   3.612  0.1929 -2.5242 -0.4213
  573MOL0     O78937   6.559   6.091   8.998 -0.1780  0.4545  0.3320
  573MOL0     C78938   6.582   6.076   9.122  0.1358  0.5868 -0.6364
  573MOL0     O78939   6.712   6.085   9.173  0.2088  0.4877  0.5837
  573MOL0     C78940   6.826   6.102   9.098 -0.3172  0.0777  1.4720
  573MOL0     C78941   6.912   6.188   9.165  0.0610  0.1436 -1.1933
  573MOL0     C78942   7.023   6.230   9.105  0.5366  0.2348  1.1677
  573MOL0     C78943   7.057   6.194   8.973 -0.0383  0.2752  0.6761
  573MOL0     O78944   7.167   6.240   8.913  0.3454 -0.4677  0.5038
  573MOL0     C78945   7.277   6.148   8.917 -0.2510 -0.3774 -0.0324
  573MOL0     C78946   7.399   6.216   8.965  0.2137 -0.2937  0.0295
  573MOL0     C78947   7.523   6.128   8.962  0.9815 -0.0472  1.0990
  573MOL0     C78948   7.650   6.208   8.959  0.4881  0.6210 -0.4322
  573MOL0     C78949   7.769   6.108   8.951 -0.0784  0.1037 -0.0003
  573MOL0     C78950   7.904   6.170   8.980  0.0929 -0.0216 -0.6943
  573MOL0     C78951   8.023   6.084   8.928 -0.2994 -0.3264  0.1320
  573MOL0     C78952   8.158   6.133   8.961  0.9580  0.3009  0.4168
  573MOL0     N78953   8.275   6.064   8.906 -0.7690 -0.4723 -0.2771
  573MOL0     C78954   8.339   5.955   8.968 -1.0968  0.2890  0.1881
  573MOL0     C78955   8.452   5.935   8.895  0.0292  0.8155 -0.0070
  573MOL0     C78956   8.536   5.799   8.910 -0.1840 -0.6432 -0.0399
  573MOL0     C78957   8.593   5.775   9.046  0.1597  0.5441 -0.4958
  573MOL0     C78958   8.695   5.882   9.089 -0.6616 -0.3000  0.0248
  573MOL0     C78959   8.763   5.848   9.227  0.3316  0.3015 -0.8045
  573MOL0     O78960   8.842   5.726   9.204 -0.0257 -0.8898 -0.1846
  573MOL0     C78961   8.960   5.760   9.136 -0.2259  0.0713 -0.2582
  573MOL0     C78962   9.070   5.795   9.213  0.5819  0.9002  1.2307
  573MOL0     C78963   9.187   5.825   9.147  0.4468  0.3625  0.0117
  573MOL0     C78964   9.296   5.851   9.244 -0.0505 -0.5037  0.1698
  573MOL0     C78965   9.203   5.817   9.008  0.3184 -1.3188  1.0168
  573MOL0     C78966   9.319   5.860   8.932 -0.5718  0.4417 -0.2424
  573MOL0     O78967   9.334   5.817   8.801  0.0126  0.4236 -0.0078
  573MOL0     C78968   9.437   5.875   8.733 -0.0978  0.3557 -0.6129
  573MOL0     C78969   9.409   5.915   8.599  0.0612 -0.7677  0.2613
  573MOL0     C78970   9.503   5.945   8.510 -0.8865 -0.3888  0.0803
  573MOL0     C78971   9.639   5.954   8.560  0.1445  0.0686  0.7404
  573MOL0     O78972   9.743   5.977   8.471 -0.3417  0.1227 -0.1596
  573MOL0     C78973   9.733   5.918   8.334  0.3028  0.1041  0.4183
  573MOL0     C78974   9.847   5.955   8.243 -0.0577 -0.1661 -0.8558
  573MOL0     C78975   9.972   5.877   8.285 -0.8218  0.3629  0.0815
  573MOL0     C78976  10.089   5.917   8.199 -0.0907  0.2366  0.7244
  573MOL0     C78977  10.217   5.849   8.254  0.6168  0.1120  0.1228
  573MOL0     C78978  10.331   5.876   8.147 -0.1609  0.3507  0.9579
  573MOL0     C78979  10.460   5.796   8.184  0.4475  0.7173 -0.4412
  573MOL0     C78980  10.584   5.812   8.090  0.7807  0.1875  0.0093
  573MOL0    Cl78981  10.622   5.983   8.121 -0.0547  0.4850 -0.1599
  573MOL0     C78982   9.675   5.921   8.690  0.1617  0.4120 -0.7486
  573MOL0     C78983   9.572   5.873   8.779 -0.7408 -0.0353  0.1621
  573MOL0     O78984   9.378   5.953   8.983 -0.5214  0.2874 -0.8425
  573MOL0     C78985   9.088   5.760   8.932 -0.7174 -0.2679 -0.0248
  573MOL0     C78986   8.967   5.745   9.000  0.3616  0.4759  0.2074
  573MOL0     N78987   8.447   6.012   8.784 -0.6225  0.0676 -0.4195
  573MOL0     N78988   8.354   6.097   8.804  0.2957 -0.1715  0.6630
  573MOL0     C78989   6.971   6.095   8.906  0.0809  0.2723  0.6675
  573MOL0     C78990   6.847   6.055   8.967 -0.7134 -0.2972 -0.0085
  573MOL0     C78991   6.471   6.060   9.216 -0.3961 -0.6058 -1.1205
  573MOL0     C78992   6.501   6.012   9.351  0.0401 -0.0218  0.6253
  573MOL0     C78993   6.406   6.025   9.450  0.5324 -0.2204 -0.0057
  573MOL0     C78994   6.282   6.082   9.427 -0.0294  0.8014 -0.2333
  573MOL0     O78995   6.199   6.065   9.542  0.1799 -0.7791 -1.1851
  573MOL0     C78996   6.060   6.106   9.524  0.3242 -0.0279  0.0458
  573MOL0     C78997   5.974   6.045   9.637 -0.7805  0.0975 -0.3830
  573MOL0     C78998   5.846   6.127   9.639  0.2912  0.0658  0.3805
  573MOL0     C78999   5.737   6.084   9.732 -1.1714  0.9113 -0.6246
  573MOL0     C79000   5.761   6.117   9.878  0.9734  0.0967 -0.1862
  573MOL0     C79001   5.756   6.138  10.002 -0.3164  0.0701  0.4424
  573MOL0     C79002   6.247   6.118   9.298 -0.0296 -0.5562 -0.2631
  573MOL0     C79003   6.341   6.120   9.191  0.2885 -0.3343  0.6478
  573MOL0     C79004   6.309   6.199   9.063  0.4543  0.9694 -0.2418
  573MOL0     H79005   6.876   6.250   9.247  0.0154  1.2148 -1.9965
  573MOL0     H79006   7.086   6.310   9.143 -0.4521  1.0804  1.0700
  573MOL0     H79007   7.287   6.095   8.822 -0.8299 -1.4026  0.4677
  573MOL0     H79008   7.255   6.066   8.985  0.2903  0.0113  0.6283
  573MOL0     H79009   7.418   6.302   8.900  1.9703 -0.1842  0.6200
  573MOL0     H79010   7.381   6.245   9.069  0.7692 -1.6519  0.5272
  573MOL0     H79011   7.520   6.075   9.058  0.1299  0.1219  1.1777
  573MOL0     H79012   7.529   6.068   8.871 -5.7721  2.9637 -2.0806
  573MOL0     H79013   7.648   6.269   8.869 -0.5163 -0.8034 -1.4070
  573MOL0     H79014   7.661   6.270   9.049  3.6053  0.0098 -0.2856
  573MOL0     H79015   7.772   6.053   8.857  1.7110 -2.8080  1.6050
  573MOL0     H79016   7.763   6.026   9.023  2.2231 -3.3042 -3.3125
  573MOL0     H79017   7.903   6.267   8.930  3.3598 -0.4624 -1.8656
  573MOL0     H79018   7.913   6.194   9.086 -1.0505  1.9041 -0.9938
  573MOL0     H79019   8.013   6.076   8.819 -1.2568  0.2197  0.1702
  573MOL0     H79020   8.020   5.980   8.960 -1.3484 -0.2746  0.2424
  573MOL0     H79021   8.155   6.239   8.934  0.7766  0.0564 -0.5860
  573MOL0     H79022   8.176   6.120   9.068  0.3852  1.2341  0.6447
  573MOL0     H79023   8.299   5.901   9.053 -0.8931 -1.0515 -0.5412
  573MOL0     H79024   8.611   5.815   8.832 -1.7093  1.6922 -1.1460
  573MOL0     H79025   8.474   5.713   8.882 -0.0223 -0.4958 -0.9009
  573MOL0     H79026   8.510   5.765   9.117  0.2873 -2.5543 -0.6886
  573MOL0     H79027   8.649   5.682   9.055  0.6616  0.9432  0.6936
  573MOL0     H79028   8.770   5.905   9.012  0.9965 -2.8052  0.7465
  573MOL0     H79029   8.645   5.978   9.106 -0.0979  0.5620 -2.6935
  573MOL0     H79030   8.823   5.933   9.263 -2.0611  2.4423 -1.5759
  573MOL0     H79031   8.696   5.825   9.310  0.5465  3.1894  0.2872
  573MOL0     H79032   9.071   5.802   9.322 -2.1321 -1.0661  1.4912
  573MOL0     H79033   9.399   5.852   9.207 -0.4157  0.2260 -0.8936
  573MOL0     H79034   9.298   5.778   9.325 -1.5642  1.5164  2.1635
  573MOL0     H79035   9.266   5.948   9.286 -0.4296 -0.1404 -0.9036
  573MOL0     H79036   9.311   5.888   8.559  0.6963 -2.7893 -0.0018
  573MOL0     H79037   9.472   5.954   8.406 -0.5419 -2.4993 -0.2412
  573MOL0     H79038   9.726   5.809   8.336 -1.2554  0.1924  0.7909
  573MOL0     H79039   9.646   5.964   8.287 -0.8468 -0.3655  2.0150
  573MOL0     H79040   9.820   5.923   8.142  0.0619  0.8214 -1.2154
  573MOL0     H79041   9.872   6.062   8.246  3.1436 -0.8308  0.0946
  573MOL0     H79042   9.945   5.772   8.266 -1.7905  0.9576 -2.1385
  573MOL0     H79043  10.005   5.890   8.389  2.9181  3.6419 -1.2820
  573MOL0     H79044  10.104   6.025   8.191  1.1295 -0.0555 -2.6877
  573MOL0     H79045  10.072   5.875   8.099 -2.5547  1.1333  0.6861
  573MOL0     H79046  10.243   5.899   8.348 -1.1377 -1.2097  1.3661
  573MOL0     H79047  10.204   5.743   8.276 -1.5039  0.2706 -0.1653
  573MOL0     H79048  10.347   5.983   8.133  1.1718  0.3718  2.2882
  573MOL0     H79049  10.307   5.837   8.048 -0.4392  3.1461 -0.1672
  573MOL0     H79050  10.440   5.691   8.207  0.0326  1.1463  1.2694
  573MOL0     H79051  10.499   5.829   8.280 -0.7931  0.7904  0.0556
  573MOL0     H79052  10.555   5.794   7.986 -0.1246 -2.5151  0.6465
  573MOL0     H79053  10.670   5.753   8.119  0.0763 -1.5189 -1.2143
  573MOL0     H79054   9.779   5.923   8.722  0.3546  1.0653 -1.3855
  573MOL0     H79055   9.593   5.844   8.881  0.4782 -0.7875 -0.2839
  573MOL0     H79056   9.093   5.741   8.826 -0.8900 -0.0232 -0.0764
  573MOL0     H79057   8.870   5.722   8.955  1.7352  0.6911 -3.1472
  573MOL0     H79058   6.997   6.058   8.808 -0.8443  0.7809  0.2159
  573MOL0     H79059   6.777   5.985   8.924  0.0790 -1.7037  0.9091
  573MOL0     H79060   6.600   5.971   9.368  1.2128  0.9218 -3.0489
  573MOL0     H79061   6.419   5.999   9.554 -2.1349 -1.0231  0.1968
  573MOL0     H79062   6.052   6.214   9.530 -2.3905 -0.1863  0.2144
  573MOL0     H79063   6.029   6.070   9.425  0.6353  0.3674 -0.2036
  573MOL0     H79064   6.033   6.060   9.728  0.9250 -0.4099 -1.3609
  573MOL0     H79065   5.949   5.939   9.630  0.0224 -0.1518  0.3673
  573MOL0     H79066   5.865   6.234   9.654  2.3081  0.2400 -2.6338
  573MOL0     H79067   5.817   6.117   9.534 -1.3535  0.3611  0.7633
  573MOL0     H79068   5.713   5.978   9.727 -0.6542  0.8568 -3.1137
  573MOL0     H79069   5.652   6.146   9.701 -0.4048  2.6150  0.4842
  573MOL0     H79070   5.753   6.149  10.108  1.1611 -2.1749  0.7655
  573MOL0     H79071   6.151   6.161   9.268  0.5605  1.2520  0.3264
  573MOL0     H79072   6.366   6.291   9.045  0.8747  0.3660 -2.2640
  573MOL0     H79073   6.318   6.127   8.981  0.5315 -1.5222  1.8411
  573MOL0     H79074   6.203   6.224   9.062  0.2431  0.6826 -4.6080
  574MOL0     O79075   2.767   8.272   1.601  0.4088 -0.0609  0.0490
  574MOL0     C79076   2.687   8.198   1.548  0.0326  0.1058 -0.3661
  574MOL0     O79077   2.712   8.082   1.489  0.0482 -0.5939  0.3424
  574MOL0     C79078   2.846   8.043   1.480  0.7633  0.9114  0.3352
  574MOL0     C79079   2.882   7.927   1.548 -0.6026  0.8094  0.0223
  574MOL0     C79080   3.016   7.880   1.528  0.5079 -0.5045  0.1108
  574MOL0     C79081   3.110   7.946   1.445  0.7794 -0.9291 -1.0963
  574MOL0     O79082   3.245   7.911   1.428 -0.3938 -0.1091 -0.1626
  574MOL0     C79083   3.278   7.779   1.479 -0.7042  0.3162  0.2410
  574MOL0     C79084   3.426   7.756   1.450 -0.4494 -0.7416 -0.2968
  574MOL0     C79085   3.446   7.726   1.303  0.8684 -0.2583 -0.2268
  574MOL0     C79086   3.588   7.698   1.271 -0.1263  1.0164 -0.1330
  574MOL0     C79087   3.606   7.666   1.120 -0.0252  1.1698  0.3101
  574MOL0     C79088   3.757   7.665   1.087  0.5767 -1.2611 -0.3040
  574MOL0     C79089   3.789   7.622   0.935  0.2451 -0.0123 -0.5833
  574MOL0     C79090   3.742   7.484   0.892 -0.1343 -0.0468  0.4107
  574MOL0     N79091   3.828   7.376   0.938  0.2845  0.6295 -0.0763
  574MOL0     C79092   3.960   7.362   0.915 -0.3247 -0.2729 -0.3362
  574MOL0     C79093   3.992   7.240   0.947 -0.1499 -0.5766  0.0947
  574MOL0     C79094   4.132   7.189   0.949 -1.3601  0.2042 -0.3957
  574MOL0     C79095   4.244   7.289   0.998  0.4709  0.7987  0.3281
  574MOL0     C79096   4.378   7.221   1.024 -0.3226 -0.0671 -0.4131
  574MOL0     C79097   4.495   7.318   1.028 -0.1925  0.2903 -0.0008
  574MOL0     O79098   4.465   7.426   1.117 -0.5195  0.6356  0.2809
  574MOL0     C79099   4.555   7.523   1.137 -0.9056 -0.2727 -0.2357
  574MOL0     C79100   4.522   7.633   1.209 -0.0868 -0.5841  0.0372
  574MOL0     C79101   4.613   7.740   1.241 -0.0501  0.7267 -0.1789
  574MOL0     C79102   4.567   7.835   1.356 -0.4799 -0.7138 -0.0203
  574MOL0     C79103   4.747   7.733   1.194  0.1851  0.4226  0.0542
  574MOL0     C79104   4.853   7.844   1.195  0.3256  0.1397  0.7182
  574MOL0     O79105   4.979   7.801   1.167 -0.2875 -0.1852 -0.3277
  574MOL0     C79106   5.089   7.872   1.212 -0.6544 -0.2048  0.8918
  574MOL0     C79107   5.212   7.838   1.162 -0.0832  0.4701  0.3033
  574MOL0     C79108   5.329   7.905   1.219 -0.2454 -0.4662 -0.3512
  574MOL0     C79109   5.318   8.001   1.318 -0.9223 -0.1474  0.3448
  574MOL0     O79110   5.443   8.060   1.355  0.3694 -0.7538  0.7240
  574MOL0     C79111   5.449   8.108   1.485  1.1230 -0.0952  0.0510
  574MOL0     C79112   5.587   8.174   1.506  0.5253  0.3956 -0.9131
  574MOL0     C79113   5.605   8.227   1.648  0.4250  0.1477  0.1516
  574MOL0     C79114   5.748   8.279   1.662 -0.7804 -0.4249 -0.3878
  574MOL0     C79115   5.765   8.354   1.798  0.3098  0.4982 -1.2053
  574MOL0     C79116   5.906   8.408   1.815  0.5684 -1.2559  0.2561
  574MOL0     C79117   5.909   8.548   1.760  0.7191 -0.4846 -0.1608
  574MOL0     C79118   5.817   8.653   1.819 -0.0150 -0.5054  0.0226
  574MOL0    Cl79119   5.855   8.822   1.787 -0.0159  0.1515 -0.0075
  574MOL0     C79120   5.197   8.011   1.379 -0.4629  0.0658 -0.2779
  574MOL0     C79121   5.079   7.961   1.318 -0.3327  0.1460  0.1223
  574MOL0     O79122   4.815   7.960   1.206  0.1707  0.1308  0.1894
  574MOL0     C79123   4.774   7.626   1.110 -0.5210  0.5020  0.1813
  574MOL0     C79124   4.682   7.523   1.084  0.3416  0.6062 -0.2427
  574MOL0     N79125   3.882   7.180   0.991 -0.4950  0.5227 -0.4199
  574MOL0     N79126   3.782   7.261   0.995 -0.5245 -0.6795  0.5093
  574MOL0     C79127   3.061   8.056   1.375 -0.6456 -0.0087  0.4278
  574MOL0     C79128   2.928   8.102   1.389  0.1734 -0.8000 -0.2237
  574MOL0     C79129   2.537   8.226   1.568  0.3572 -0.0915  0.3984
  574MOL0     C79130   2.456   8.173   1.473 -0.0745  0.2643  0.0257
  574MOL0     C79131   2.313   8.187   1.475  0.3313 -0.2810 -0.1985
  574MOL0     C79132   2.250   8.257   1.571  0.4844 -0.5240 -0.7551
  574MOL0     O79133   2.117   8.270   1.601 -0.2820 -0.9087  0.3167
  574MOL0     C79134   2.034   8.167   1.537 -0.1089  0.4565 -0.4483
  574MOL0     C79135   1.896   8.162   1.590  0.1829  0.5309 -0.8122
  574MOL0     C79136   1.903   8.180   1.747  0.7652 -0.1799 -0.6038
  574MOL0     C79137   1.778   8.225   1.816  0.0514 -0.8815 -0.0355
  574MOL0     C79138   1.791   8.208   1.963  0.3785 -1.0321  0.7338
  574MOL0     C79139   1.797   8.212   2.085  0.7259  0.1478 -0.4007
  574MOL0     C79140   2.335   8.310   1.669 -0.4767  0.7183 -0.4677
  574MOL0     C79141   2.479   8.298   1.669  0.3265  0.6187 -0.0751
  574MOL0     C79142   2.554   8.357   1.784  0.5833  0.5452 -1.0154
  574MOL0     H79143   2.814   7.869   1.609  0.8079 -1.3821 -0.3640
  574MOL0     H79144   3.059   7.797   1.583  0.6654 -1.1525 -0.9804
  574MOL0     H79145   3.216   7.701   1.433  1.3880 -1.7197  0.6491
  574MOL0     H79146   3.255   7.771   1.586 -1.8479  2.6116  0.2232
  574MOL0     H79147   3.481   7.846   1.477 -0.2165 -1.0364  0.2169
  574MOL0     H79148   3.446   7.666   1.510 -0.7260 -0.8317 -0.3383
  574MOL0     H79149   3.381   7.642   1.275  0.0599  0.5201 -0.6996
  574MOL0     H79150   3.407   7.806   1.241  1.0010  0.0369  0.0667
  574MOL0     H79151   3.651   7.786   1.281  1.0955  0.0078  1.6132
  574MOL0     H79152   3.633   7.618   1.330  1.8375  1.2668 -1.2343
  574MOL0     H79153   3.550   7.739   1.060 -1.2235  0.4859  0.5595
  574MOL0     H79154   3.560   7.569   1.100  0.2935  0.7279  1.6094
  574MOL0     H79155   3.792   7.765   1.115 -0.5000 -1.8304  3.5943
  574MOL0     H79156   3.796   7.590   1.157  0.2035 -1.4067 -0.2511
  574MOL0     H79157   3.892   7.638   0.901  0.7035 -2.7768 -0.7274
  574MOL0     H79158   3.726   7.691   0.878  1.5270  2.0491  0.3640
  574MOL0     H79159   3.636   7.469   0.913 -0.7444  0.7481 -1.8397
  574MOL0     H79160   3.745   7.483   0.783 -1.0007  0.2422  0.3766
  574MOL0     H79161   4.022   7.442   0.877  0.7211 -0.0819  1.6124
  574MOL0     H79162   4.160   7.142   0.855 -0.3584 -1.7062  0.7962
  574MOL0     H79163   4.138   7.112   1.026 -2.4654 -0.4853 -0.9756
  574MOL0     H79164   4.255   7.360   0.916 -2.4841 -0.7169 -1.5950
  574MOL0     H79165   4.217   7.345   1.088 -0.9286  0.8213 -0.0694
  574MOL0     H79166   4.378   7.165   1.118 -0.6254 -1.4008 -1.1711
  574MOL0     H79167   4.389   7.160   0.934  0.3951 -0.5617  0.0003
  574MOL0     H79168   4.575   7.249   1.056 -0.6481 -0.5899 -0.7833
  574MOL0     H79169   4.514   7.351   0.925 -0.7042  1.3087  0.2146
  574MOL0     H79170   4.421   7.634   1.246  0.5411 -1.0169  1.8346
  574MOL0     H79171   4.540   7.795   1.454 -1.1376 -1.5570 -0.5378
  574MOL0     H79172   4.484   7.890   1.311  1.9597  1.6505 -1.9937
  574MOL0     H79173   4.641   7.914   1.370 -1.6907  0.4368  0.0881
  574MOL0     H79174   5.210   7.764   1.083 -1.8442  1.9352 -1.1403
  574MOL0     H79175   5.429   7.891   1.181  1.5155  3.6290  2.1417
  574MOL0     H79176   5.381   8.190   1.510  0.8791  0.2158 -1.5401
  574MOL0     H79177   5.424   8.029   1.556  1.2813 -0.0115  0.2007
  574MOL0     H79178   5.661   8.095   1.488 -0.0425  0.0939 -2.0145
  574MOL0     H79179   5.598   8.254   1.433  0.7348  1.1246 -0.1049
  574MOL0     H79180   5.583   8.146   1.719 -4.9451 -1.6464 -2.9761
  574MOL0     H79181   5.543   8.317   1.652  0.6455  0.2929  0.2931
  574MOL0     H79182   5.769   8.353   1.584  1.7949 -1.0917 -0.4295
  574MOL0     H79183   5.817   8.197   1.640  2.2533  1.6969  0.5634
  574MOL0     H79184   5.686   8.429   1.802  0.1284  0.2626  1.4854
  574MOL0     H79185   5.758   8.285   1.883  0.6639  0.4936 -1.1770
  574MOL0     H79186   5.976   8.338   1.768  1.9984  0.8481 -0.9387
  574MOL0     H79187   5.947   8.412   1.916  0.4163  0.0065  0.2832
  574MOL0     H79188   5.883   8.536   1.654 -1.2678 -2.2031  0.4657
  574MOL0     H79189   6.015   8.574   1.763  0.6908 -0.4978  1.6949
  574MOL0     H79190   5.815   8.631   1.926  1.6965  1.1529  0.4520
  574MOL0     H79191   5.719   8.639   1.772 -0.1027 -2.3147  0.6654
  574MOL0     H79192   5.179   8.071   1.467 -1.7250 -2.6845  1.4750
  574MOL0     H79193   4.984   7.989   1.361 -1.4623  0.1842 -2.2192
  574MOL0     H79194   4.866   7.615   1.053 -1.1627 -1.7333 -0.4885
  574MOL0     H79195   4.704   7.441   1.017 -2.8373  0.2291 -1.0042
  574MOL0     H79196   3.117   8.120   1.309 -2.5409  1.2360 -0.0535
  574MOL0     H79197   2.893   8.188   1.333 -2.4887 -1.0786  0.8563
  574MOL0     H79198   2.510   8.128   1.390  0.7222 -0.5217  0.9472
  574MOL0     H79199   2.257   8.153   1.389  0.7741 -0.6304 -0.3560
  574MOL0     H79200   2.022   8.194   1.432 -1.6578  0.4705 -0.2891
  574MOL0     H79201   2.081   8.071   1.560  0.8278  1.5642  2.7929
  574MOL0     H79202   1.860   8.060   1.570  0.0234  0.6324 -1.0488
  574MOL0     H79203   1.823   8.232   1.548 -1.1501  0.2137  0.8379
  574MOL0     H79204   1.932   8.077   1.772  1.2568  0.1025  0.0273
  574MOL0     H79205   1.981   8.242   1.793 -2.4157  2.4055  1.7978
  574MOL0     H79206   1.708   8.154   1.772 -0.2956  0.4288 -1.7228
  574MOL0     H79207   1.757   8.331   1.799 -1.7240 -0.9391  1.4980
  574MOL0     H79208   1.804   8.199   2.191  0.8119 -6.0511 -0.8151
  574MOL0     H79209   2.295   8.369   1.751 -1.2152 -0.5329  0.1027
  574MOL0     H79210   2.492   8.383   1.871  1.9808  1.4283 -0.2552
  574MOL0     H79211   2.621   8.277   1.818  0.9526  0.9371 -0.8129
  574MOL0     H79212   2.616   8.444   1.763  0.0466  1.6586  1.5661
  575MOL0     O79213  10.657   3.017   3.629  0.8281 -0.5387  0.4263
  575MOL0     C79214  10.575   3.014   3.719  0.0903 -0.6176 -0.6026
  575MOL0     O79215  10.600   2.969   3.847  0.0754  0.2449  0.1820
  575MOL0     C79216  10.674   2.855   3.867  0.3758  0.0150 -0.0013
  575MOL0     C79217  10.720   2.757   3.776  0.4351 -0.2244  0.0189
  575MOL0     C79218  10.783   2.642   3.813  0.8323  0.3097 -0.6220
  575MOL0     C79219  10.803   2.617   3.953  0.1588  0.8687 -0.4419
  575MOL0     O79220  10.845   2.503   4.023  0.0451 -0.1220  0.8389
  575MOL0     C79221  10.867   2.380   3.949  0.6089 -1.1729 -0.1058
  575MOL0     C79222  11.012   2.386   3.891  0.4989 -0.0323 -0.2051
  575MOL0     C79223  11.060   2.248   3.836  0.7457 -0.5434  0.5777
  575MOL0     C79224  11.212   2.239   3.826  0.1371 -0.2386  0.1990
  575MOL0     C79225  11.249   2.135   3.717 -0.1620  0.6904  0.5866
  575MOL0     C79226  11.405   2.133   3.691  0.4840  0.5792  0.1597
  575MOL0     C79227  11.443   2.024   3.582 -0.1383 -0.9147 -0.4166
  575MOL0     C79228  11.500   1.902   3.639  0.1869  0.1577  0.1660
  575MOL0     N79229  11.644   1.913   3.672 -0.0343  0.4098  0.1087
  575MOL0     C79230  11.695   1.972   3.783  0.9269 -0.3297  0.1516
  575MOL0     C79231  11.833   1.969   3.766 -0.5898  0.7995  0.2935
  575MOL0     C79232  11.929   2.020   3.862 -0.3425 -0.6209 -0.6215
  575MOL0     C79233  12.064   2.056   3.789  0.0102  0.3490 -0.1080
  575MOL0     C79234  12.167   2.120   3.880 -0.2810  0.4400  0.3095
  575MOL0     C79235  12.292   2.168   3.805  0.3693  0.4010 -1.0105
  575MOL0     O79236  12.399   2.188   3.899  0.0989  0.0670 -0.7470
  575MOL0     C79237  12.512   2.252   3.863 -0.0497  0.2044  0.4363
  575MOL0     C79238  12.547   2.287   3.723 -1.0030  0.2242 -0.7468
  575MOL0     C79239  12.673   2.338   3.702  0.4454 -0.3556  0.1344
  575MOL0     C79240  12.716   2.369   3.558 -0.3826  0.6051 -0.0720
  575MOL0     C79241  12.752   2.373   3.812  0.4906  0.0721 -0.3904
  575MOL0     C79242  12.896   2.420   3.805 -0.3765 -0.2177  0.4538
  575MOL0     O79243  12.985   2.390   3.897  0.0057  0.1769 -0.6120
  575MOL0     C79244  13.122   2.377   3.871  0.4919 -0.1855  0.3839
  575MOL0     C79245  13.211   2.411   3.972  0.5396  1.1414  0.7015
  575MOL0     C79246  13.351   2.423   3.950  0.6877 -0.1306 -0.0379
  575MOL0     C79247  13.404   2.391   3.828  0.8171  0.0899  0.2910
  575MOL0     O79248  13.538   2.407   3.809 -0.3199  0.1888  0.8283
  575MOL0     C79249  13.600   2.365   3.681  0.8573  0.3468 -0.0409
  575MOL0     C79250  13.735   2.419   3.687  0.1115 -0.0363  0.6006
  575MOL0     C79251  13.821   2.362   3.796  0.3026  0.2595 -0.4338
  575MOL0     C79252  13.958   2.418   3.779 -0.0196  0.2228 -0.4483
  575MOL0     C79253  14.060   2.370   3.881  0.2463 -0.4548  0.2033
  575MOL0     C79254  14.193   2.436   3.850 -0.0609  0.5550 -0.2345
  575MOL0     C79255  14.289   2.399   3.965  0.7463 -0.3774  0.1307
  575MOL0     C79256  14.415   2.449   3.920 -0.7774 -0.9234 -0.0275
  575MOL0    Cl79257  14.540   2.454   4.049 -0.0868  0.0593 -0.1872
  575MOL0     C79258  13.317   2.352   3.724  0.7902  0.3028  0.5856
  575MOL0     C79259  13.177   2.346   3.744 -0.5003  0.1243  0.4355
  575MOL0     O79260  12.914   2.500   3.711 -0.1472  1.2350 -0.1665
  575MOL0     C79261  12.705   2.353   3.947  0.0867 -0.4863  0.4609
  575MOL0     C79262  12.589   2.287   3.975  0.4131 -0.0370  0.3988
  575MOL0     N79263  11.860   1.898   3.648 -0.0651 -0.0346  0.4445
  575MOL0     N79264  11.751   1.861   3.594  0.3028 -0.7827  0.3428
  575MOL0     C79265  10.782   2.720   4.040  0.1656  0.1333  0.4616
  575MOL0     C79266  10.718   2.841   3.995  0.6061  0.1926  0.3413
  575MOL0     C79267  10.448   3.103   3.719 -0.3661  0.4232  0.6916
  575MOL0     C79268  10.421   3.190   3.824  0.3668 -0.1998 -0.5552
  575MOL0     C79269  10.307   3.263   3.834  0.1373 -0.0097 -0.0058
  575MOL0     C79270  10.218   3.261   3.721  0.5322  0.0189 -0.6986
  575MOL0     O79271  10.096   3.337   3.739  0.1305 -0.1809 -0.6996
  575MOL0     C79272   9.981   3.297   3.656  0.2972 -0.4004 -0.8679
  575MOL0     C79273   9.857   3.358   3.720 -0.5202 -1.1991 -0.2759
  575MOL0     C79274   9.759   3.389   3.606 -0.1666 -0.6544 -0.9561
  575MOL0     C79275   9.629   3.442   3.664 -0.1305  1.1790 -0.0438
  575MOL0     C79276   9.523   3.427   3.565  0.4394  0.1633 -0.0166
  575MOL0     C79277   9.425   3.397   3.497 -0.7355 -0.2781 -0.5388
  575MOL0     C79278  10.242   3.175   3.615  0.2649  0.3687  0.6669
  575MOL0     C79279  10.362   3.103   3.604  0.2272 -0.4205  0.3597
  575MOL0     C79280  10.381   3.019   3.480 -0.0073 -0.1960 -0.8026
  575MOL0     H79281  10.702   2.767   3.669  2.2184 -2.6197 -0.6036
  575MOL0     H79282  10.800   2.576   3.729 -1.3804 -0.8168 -0.2592
  575MOL0     H79283  10.792   2.388   3.870 -1.1088  1.8637  1.5891
  575MOL0     H79284  10.849   2.290   4.009 -2.0640 -1.3262 -0.9822
  575MOL0     H79285  11.013   2.468   3.819 -1.9331  0.1185 -0.1648
  575MOL0     H79286  11.082   2.403   3.973  0.1488  2.5823 -0.3751
  575MOL0     H79287  11.012   2.167   3.892  2.4889 -1.2100  1.1764
  575MOL0     H79288  11.023   2.238   3.733 -1.0712  0.1309  1.1158
  575MOL0     H79289  11.248   2.340   3.806  0.9434 -0.9317 -2.1421
  575MOL0     H79290  11.256   2.225   3.925  1.9761  2.2996 -0.1792
  575MOL0     H79291  11.205   2.157   3.619 -1.2897 -0.4889  0.7946
  575MOL0     H79292  11.220   2.034   3.748  1.9367 -0.5929 -1.3263
  575MOL0     H79293  11.442   2.225   3.646 -0.2930 -0.5195 -3.0087
  575MOL0     H79294  11.460   2.112   3.783 -0.5028  0.6306  0.7777
  575MOL0     H79295  11.522   2.073   3.524  0.4790  1.1754  1.9750
  575MOL0     H79296  11.357   2.007   3.516 -0.3489 -0.3737 -0.2930
  575MOL0     H79297  11.441   1.863   3.724  0.2120  0.0939  0.1542
  575MOL0     H79298  11.483   1.824   3.564  0.2519 -0.4376  0.7640
  575MOL0     H79299  11.649   2.020   3.869  0.1642  0.0750 -0.4734
  575MOL0     H79300  11.941   1.954   3.947 -2.3096  1.7245  1.6592
  575MOL0     H79301  11.889   2.116   3.897  1.6171  0.1424 -0.3364
  575MOL0     H79302  12.110   1.966   3.747 -0.9579 -0.7051  0.9948
  575MOL0     H79303  12.036   2.126   3.711 -2.2821  0.3490  0.6399
  575MOL0     H79304  12.132   2.206   3.938  2.1473 -0.2843  3.1002
  575MOL0     H79305  12.195   2.046   3.956 -0.4496 -0.6372 -0.6555
  575MOL0     H79306  12.335   2.096   3.734  1.2611 -1.2576  1.0996
  575MOL0     H79307  12.272   2.266   3.760 -2.9377  2.2810  3.7136
  575MOL0     H79308  12.487   2.254   3.639  0.3449  0.3272 -1.7841
  575MOL0     H79309  12.800   2.304   3.533 -1.7244 -0.9579 -0.7784
  575MOL0     H79310  12.745   2.474   3.548 -0.9717  0.8456  0.6853
  575MOL0     H79311  12.631   2.340   3.494  1.8603 -0.4630 -2.8062
  575MOL0     H79312  13.155   2.441   4.060 -1.4401  2.7378 -1.0042
  575MOL0     H79313  13.408   2.474   4.026 -3.3929  2.0748  1.8612
  575MOL0     H79314  13.599   2.256   3.672  3.2900 -0.0092  2.5879
  575MOL0     H79315  13.550   2.409   3.594 -0.8563  1.1812  1.3005
  575MOL0     H79316  13.783   2.413   3.589 -0.0351  0.8462  0.4657
  575MOL0     H79317  13.715   2.525   3.705 -2.1564 -0.8236  3.5693
  575MOL0     H79318  13.819   2.253   3.793  1.7146  0.0237  3.0443
  575MOL0     H79319  13.778   2.398   3.890  0.4268 -0.7892  0.0292
  575MOL0     H79320  13.957   2.527   3.776 -2.1872  0.3557  1.8608
  575MOL0     H79321  13.988   2.390   3.677  1.4057  1.0387 -0.2853
  575MOL0     H79322  14.027   2.399   3.981 -1.2246 -3.7118  0.7846
  575MOL0     H79323  14.062   2.261   3.874  0.5933 -0.3725 -1.6344
  575MOL0     H79324  14.184   2.545   3.843  1.0357  0.7804  1.2720
  575MOL0     H79325  14.231   2.405   3.753 -2.5120  0.9865 -1.4008
  575MOL0     H79326  14.301   2.291   3.978  1.4960 -0.1946  1.0489
  575MOL0     H79327  14.260   2.452   4.056 -0.3120  1.1662 -1.0455
  575MOL0     H79328  14.400   2.554   3.892 -0.0130 -0.2468  1.8805
  575MOL0     H79329  14.448   2.400   3.828 -2.6339 -2.6151  0.1574
  575MOL0     H79330  13.360   2.332   3.626  0.0959 -2.2776  0.7330
  575MOL0     H79331  13.113   2.332   3.658 -0.0352  1.3474 -0.1326
  575MOL0     H79332  12.759   2.377   4.038 -2.8735  3.3477  1.4539
  575MOL0     H79333  12.566   2.273   4.080  2.1805 -3.5913  0.4271
  575MOL0     H79334  10.806   2.706   4.144 -0.4616 -0.1669  0.5652
  575MOL0     H79335  10.684   2.916   4.066 -3.2528  1.4129 -2.4662
  575MOL0     H79336  10.493   3.201   3.904 -1.0666  0.4170  0.6914
  575MOL0     H79337  10.266   3.311   3.922 -0.9779  1.1879 -1.1375
  575MOL0     H79338   9.998   3.329   3.553  0.8172 -2.0182 -1.3128
  575MOL0     H79339   9.966   3.189   3.647 -1.4437 -0.2362 -0.2610
  575MOL0     H79340   9.889   3.450   3.769  2.0989 -2.4259  0.4931
  575MOL0     H79341   9.814   3.294   3.798  2.6358 -1.7830  1.1382
  575MOL0     H79342   9.802   3.459   3.534 -0.8817  2.0698  1.1226
  575MOL0     H79343   9.739   3.288   3.569 -0.8335 -1.2037  0.7829
  575MOL0     H79344   9.632   3.546   3.698  0.0219  0.3512  2.7837
  575MOL0     H79345   9.594   3.381   3.748 -0.3027 -0.2730 -1.1341
  575MOL0     H79346   9.340   3.387   3.433  0.0398 -0.6880 -1.5257
  575MOL0     H79347  10.179   3.162   3.527  1.0468  0.8302  0.0179
  575MOL0     H79348  10.366   2.915   3.512  0.3219 -0.4140 -1.3532
  575MOL0     H79349  10.314   3.053   3.401 -1.0871 -1.7498 -0.6114
  575MOL0     H79350  10.484   3.016   3.444  0.7078 -2.7163  1.1383
  576MOL0     O79351   9.786   9.292   3.465  0.8991 -0.2674  0.3065
  576MOL0     C79352   9.704   9.371   3.517 -0.2993 -0.8582  0.1996
  576MOL0     O79353   9.749   9.488   3.578  0.8751 -0.6626  0.1427
  576MOL0     C79354   9.885   9.505   3.604 -0.1301  0.0236 -0.0279
  576MOL0     C79355   9.913   9.550   3.731  0.1620 -0.6186 -0.0989
  576MOL0     C79356  10.043   9.591   3.766 -0.4338  0.3205  0.1497
  576MOL0     C79357  10.143   9.613   3.667 -0.0314 -0.5526 -0.3549
  576MOL0     O79358  10.268   9.657   3.713 -1.0236 -0.7376 -0.1534
  576MOL0     C79359  10.344   9.754   3.628  0.1955 -0.2983 -0.3927
  576MOL0     C79360  10.272   9.883   3.656  0.0458 -0.4344  0.2922
  576MOL0     C79361  10.304   9.947   3.798 -0.2348 -0.8811 -0.0225
  576MOL0     C79362  10.258   9.879   3.924  0.4621 -0.7920 -0.2870
  576MOL0     C79363  10.295   9.957   4.050  0.2457  0.2396  0.1504
  576MOL0     C79364  10.240   9.886   4.172 -0.3194 -0.9798 -0.1642
  576MOL0     C79365  10.290   9.962   4.295 -0.0602  0.6267 -0.0321
  576MOL0     C79366  10.264   9.875   4.417  0.1824 -0.2819 -0.2246
  576MOL0     N79367  10.304   9.958   4.541 -0.0037 -0.2862  0.7890
  576MOL0     C79368  10.438   9.981   4.575  0.4474  0.1502 -0.8994
  576MOL0     C79369  10.429  10.030   4.701 -0.4382 -0.1203 -0.1512
  576MOL0     C79370  10.554  10.062   4.782  0.1869 -0.6480  0.2678
  576MOL0     C79371  10.564  10.221   4.795 -0.0395 -0.4405  0.6463
  576MOL0     C79372  10.685  10.283   4.871  0.1614  0.4676 -0.3554
  576MOL0     C79373  10.700  10.235   5.013  0.1589  0.0564  0.1624
  576MOL0     O79374  10.805  10.314   5.074  0.2184 -0.3202 -0.0122
  576MOL0     C79375  10.933  10.267   5.072 -0.0154 -0.2984 -0.1368
  576MOL0     C79376  10.971  10.150   5.004  0.5451 -1.3247  0.3011
  576MOL0     C79377  11.103  10.093   5.006  0.9159 -0.2472 -0.2452
  576MOL0     C79378  11.135   9.966   4.937  0.4045 -0.0089  0.2586
  576MOL0     C79379  11.200  10.173   5.067 -0.9106  0.5778  0.0034
  576MOL0     C79380  11.345  10.142   5.069 -0.1254  0.0834  1.1436
  576MOL0     O79381  11.417  10.211   5.156 -0.1000 -0.2791 -0.3444
  576MOL0     C79382  11.546  10.199   5.126 -0.3632 -1.2041 -0.6607
  576MOL0     C79383  11.595  10.266   5.007  0.3906 -0.0099  0.7063
  576MOL0     C79384  11.732  10.276   4.977  0.0605 -0.8566 -0.9929
  576MOL0     C79385  11.829  10.223   5.070 -0.0548  0.2272  0.5460
  576MOL0     O79386  11.967  10.243   5.055  0.8545  0.3375  0.1314
  576MOL0     C79387  12.013  10.248   4.918 -0.3577 -0.5097  0.5163
  576MOL0     C79388  12.167  10.222   4.899 -0.2721  0.0106  0.1734
  576MOL0     C79389  12.250  10.315   4.991  0.7230  0.5295  0.2381
  576MOL0     C79390  12.390  10.256   5.013 -0.7723 -0.3970  0.2343
  576MOL0     C79391  12.478  10.356   5.090 -0.8696  0.2176 -0.5724
  576MOL0     C79392  12.626  10.325   5.090  0.8027 -0.0780 -1.1314
  576MOL0     C79393  12.707  10.430   5.171  0.8932  0.4237 -0.1032
  576MOL0     C79394  12.859  10.414   5.158  0.3631  0.6787 -0.8267
  576MOL0    Cl79395  12.922  10.271   5.238  0.2029  0.0538 -0.2864
  576MOL0     C79396  11.785  10.153   5.189  0.2595 -0.0269  0.2401
  576MOL0     C79397  11.646  10.144   5.213  0.3443  0.2463  0.3498
  576MOL0     O79398  11.389  10.051   4.995  0.2585 -0.1520 -0.5778
  576MOL0     C79399  11.165  10.295   5.128 -0.0304 -0.3132  0.4534
  576MOL0     C79400  11.034  10.345   5.128 -0.5085  0.3325  0.0286
  576MOL0     N79401  10.297  10.050   4.737 -0.3244 -0.1872  0.1379
  576MOL0     N79402  10.221  10.011   4.636  0.5111  1.0441 -0.1601
  576MOL0     C79403  10.109   9.565   3.538 -0.1807  0.5552 -0.5311
  576MOL0     C79404   9.982   9.511   3.503 -0.3649 -0.3413 -0.7026
  576MOL0     C79405   9.562   9.352   3.500 -0.7491 -0.2171  0.4161
  576MOL0     C79406   9.481   9.464   3.490  0.4252 -0.7399  0.5269
  576MOL0     C79407   9.343   9.440   3.468  0.4893  0.0905 -0.7201
  576MOL0     C79408   9.287   9.316   3.467 -1.3598  0.4100 -0.0509
  576MOL0     O79409   9.155   9.289   3.461  0.5947 -0.3431  0.1431
  576MOL0     C79410   9.056   9.396   3.476  0.1131  0.0904 -0.3564
  576MOL0     C79411   8.906   9.349   3.457 -1.0615 -0.4414  0.0238
  576MOL0     C79412   8.866   9.310   3.312 -0.0251 -0.0654 -0.1782
  576MOL0     C79413   8.737   9.385   3.284  0.0884 -0.5220 -0.4386
  576MOL0     C79414   8.746   9.529   3.269 -0.5809 -0.2337  0.1287
  576MOL0     C79415   8.745   9.647   3.262 -0.4192 -0.0497 -0.6458
  576MOL0     C79416   9.367   9.202   3.491 -0.2823 -0.2907  0.7340
  576MOL0     C79417   9.506   9.221   3.507 -0.2048 -0.1906  0.0007
  576MOL0     C79418   9.587   9.092   3.525  0.8152 -0.0041 -0.6710
  576MOL0     H79419   9.829   9.543   3.799  2.1580 -0.2503  2.5270
  576MOL0     H79420  10.062   9.630   3.865  0.1611  2.5509 -0.7959
  576MOL0     H79421  10.332   9.731   3.522 -2.4020  0.0138 -0.2172
  576MOL0     H79422  10.451   9.758   3.653  0.3198 -1.0232 -0.7917
  576MOL0     H79423  10.296   9.949   3.572  1.2724 -0.3900  0.6536
  576MOL0     H79424  10.165   9.864   3.643  0.4854 -1.1714 -2.9540
  576MOL0     H79425  10.413   9.948   3.805 -0.2048 -1.1868 -0.4359
  576MOL0     H79426  10.263  10.048   3.788 -0.7011 -1.1191 -0.5418
  576MOL0     H79427  10.152   9.857   3.915  0.6409 -1.9595  0.2504
  576MOL0     H79428  10.299   9.781   3.951  0.6478 -0.1444  1.9434
  576MOL0     H79429  10.257  10.059   4.056 -0.0464  0.1231  0.2536
  576MOL0     H79430  10.404   9.953   4.039  0.0672 -2.3518 -1.4250
  576MOL0     H79431  10.131   9.890   4.176 -0.2680  0.6308  2.9237
  576MOL0     H79432  10.267   9.780   4.174  2.6315 -0.3550 -1.4338
  576MOL0     H79433  10.235  10.056   4.298 -2.0561 -0.4498 -1.1401
  576MOL0     H79434  10.397   9.984   4.285  1.0678 -4.0725 -0.5048
  576MOL0     H79435  10.156   9.861   4.422 -0.0175  1.2011  0.2190
  576MOL0     H79436  10.324   9.784   4.421 -0.2678 -0.5508  1.5068
  576MOL0     H79437  10.530   9.968   4.518 -0.6060 -1.9042 -2.2666
  576MOL0     H79438  10.641  10.021   4.730  0.7352  2.2456 -1.3675
  576MOL0     H79439  10.557  10.018   4.881 -1.2522 -1.2262  0.0841
  576MOL0     H79440  10.561  10.266   4.695 -0.6504 -0.5749  0.6013
  576MOL0     H79441  10.473  10.259   4.841  0.2326  0.4313  0.4676
  576MOL0     H79442  10.777  10.251   4.821 -0.1082 -1.4951  0.3199
  576MOL0     H79443  10.671  10.391   4.865  0.6165  0.4559 -2.4138
  576MOL0     H79444  10.609  10.260   5.068  0.2676  0.8858 -0.0192
  576MOL0     H79445  10.714  10.127   5.021  0.9641  0.1728  0.4420
  576MOL0     H79446  10.907  10.100   4.933  1.1839 -0.3798 -0.9781
  576MOL0     H79447  11.188   9.898   5.003 -0.1078 -3.2521 -2.4126
  576MOL0     H79448  11.187   9.994   4.844 -2.6592  1.2874 -1.1958
  576MOL0     H79449  11.042   9.912   4.921 -0.8854  1.6332  1.8087
  576MOL0     H79450  11.524  10.310   4.937 -0.4703 -1.6900  0.4696
  576MOL0     H79451  11.761  10.331   4.888 -0.4123 -0.5024 -0.9338
  576MOL0     H79452  11.954  10.176   4.861  2.2386 -2.0132 -0.4309
  576MOL0     H79453  11.992  10.348   4.877 -1.1003 -0.6730  0.4758
  576MOL0     H79454  12.178  10.115   4.919 -1.2038 -0.1826 -0.2828
  576MOL0     H79455  12.203  10.233   4.796 -1.7465  0.5748 -0.3130
  576MOL0     H79456  12.203  10.323   5.089 -2.0480  1.7260 -1.0715
  576MOL0     H79457  12.253  10.415   4.945  1.2219  0.7636  0.7647
  576MOL0     H79458  12.429  10.246   4.912 -2.0968  1.0810 -0.4637
  576MOL0     H79459  12.391  10.159   5.065  1.8868 -0.8192 -0.4590
  576MOL0     H79460  12.459  10.456   5.050  0.1307  0.2263 -1.0581
  576MOL0     H79461  12.455  10.351   5.197  1.4947 -0.2080 -0.0279
  576MOL0     H79462  12.666  10.305   4.990  0.5698 -2.4181 -0.8221
  576MOL0     H79463  12.626  10.235   5.152  0.2521  1.0630  0.6091
  576MOL0     H79464  12.675  10.433   5.275 -1.2953 -1.0833 -0.6664
  576MOL0     H79465  12.688  10.525   5.119 -1.6474 -0.3851 -0.8079
  576MOL0     H79466  12.904  10.503   5.202  0.9533 -0.0896  0.1774
  576MOL0     H79467  12.889  10.413   5.052  0.8043  1.8463 -0.7234
  576MOL0     H79468  11.861  10.107   5.252  0.0512 -0.0367  0.4838
  576MOL0     H79469  11.605  10.119   5.310 -0.6019 -1.0840 -0.3587
  576MOL0     H79470  11.235  10.369   5.166 -2.1137  2.7544 -1.1964
  576MOL0     H79471  11.015  10.439   5.178 -2.2770 -0.3726  0.7554
  576MOL0     H79472  10.185   9.566   3.461  1.1692  0.3738  0.7520
  576MOL0     H79473   9.964   9.473   3.403  0.8303 -3.5156  0.1387
  576MOL0     H79474   9.522   9.564   3.501  0.2668 -0.5776 -0.2975
  576MOL0     H79475   9.272   9.521   3.476  0.7523  0.1712  1.7834
  576MOL0     H79476   9.068   9.434   3.578  1.0852  1.6065 -0.9989
  576MOL0     H79477   9.082   9.479   3.410  2.9032 -2.0786 -2.2064
  576MOL0     H79478   8.833   9.420   3.498 -1.5655  1.8165 -4.2420
  576MOL0     H79479   8.905   9.258   3.518  0.9795  0.3131  1.2734
  576MOL0     H79480   8.937   9.336   3.233 -1.4006  1.7434 -0.9045
  576MOL0     H79481   8.836   9.205   3.308 -0.7721 -0.0125  2.4903
  576MOL0     H79482   8.665   9.361   3.363 -2.0691  1.2013 -1.7602
  576MOL0     H79483   8.683   9.346   3.197 -0.1024  0.5888 -0.8352
  576MOL0     H79484   8.740   9.754   3.270  0.2821 -0.1187  1.0053
  576MOL0     H79485   9.333   9.100   3.482  1.1735 -0.8178  0.8760
  576MOL0     H79486   9.521   9.006   3.533 -0.2061  0.9285  3.4246
  576MOL0     H79487   9.660   9.078   3.445  4.2148 -0.2263  2.1895
  576MOL0     H79488   9.647   9.101   3.616  2.3072  1.2949 -1.7054
  577MOL0     O79489   7.092   5.970   0.254  0.3248 -0.1515  0.1296
  577MOL0     C79490   7.073   6.082   0.216 -0.0647  0.5034 -0.4159
  577MOL0     O79491   7.159   6.159   0.144 -0.1037 -0.4820  0.8190
  577MOL0     C79492   7.279   6.091   0.106  0.7920 -0.2000  0.0518
  577MOL0     C79493   7.401   6.143   0.151  0.2936  0.2804  0.3530
  577MOL0     C79494   7.521   6.085   0.117 -0.4585 -0.1386  0.1472
  577MOL0     C79495   7.527   5.974   0.034  0.5050  0.1445 -0.4297
  577MOL0     O79496   7.659   5.945   0.002  0.2446  0.1670  0.1453
  577MOL0     C79497   7.683   5.817  -0.057  0.5802  0.3344 -0.9216
  577MOL0     C79498   7.818   5.817  -0.147  0.0784 -0.0851 -0.4147
  577MOL0     C79499   7.872   5.677  -0.163 -0.3096 -0.4660  0.6067
  577MOL0     C79500   7.987   5.682  -0.258  0.7389  0.0836  0.5215
  577MOL0     C79501   8.037   5.536  -0.269  0.5566 -0.1070  0.6753
  577MOL0     C79502   8.164   5.524  -0.357  0.1347  0.3286  0.3080
  577MOL0     C79503   8.211   5.383  -0.383  0.7238  0.3229 -0.2223
  577MOL0     C79504   8.341   5.378  -0.452 -0.5373 -0.2327  0.1288
  577MOL0     N79505   8.354   5.235  -0.508 -0.6749 -1.3166 -0.1351
  577MOL0     C79506   8.463   5.160  -0.476  0.2290  1.1351  0.8847
  577MOL0     C79507   8.442   5.040  -0.541 -0.5986 -0.1667 -1.0949
  577MOL0     C79508   8.536   4.923  -0.541  0.1603 -0.1041  0.1663
  577MOL0     C79509   8.680   4.954  -0.581 -0.3021 -0.5049  0.2607
  577MOL0     C79510   8.689   5.036  -0.714 -0.1443 -0.3251  0.0146
  577MOL0     C79511   8.830   5.095  -0.734 -0.1228  0.7544 -0.1820
  577MOL0     O79512   8.915   4.993  -0.794  0.0439 -0.7917  0.1801
  577MOL0     C79513   9.044   4.973  -0.757  0.5940 -0.0831 -0.4021
  577MOL0     C79514   9.125   5.069  -0.695  0.2868  0.0623  0.1985
  577MOL0     C79515   9.259   5.036  -0.668  0.7740 -0.1916  0.3007
  577MOL0     C79516   9.343   5.165  -0.635  0.1383  0.5937 -0.2635
  577MOL0     C79517   9.320   4.913  -0.699  0.0184  0.2737 -0.4833
  577MOL0     C79518   9.467   4.887  -0.692 -0.5253 -0.4412 -0.1291
  577MOL0     O79519   9.501   4.768  -0.637 -0.8761 -0.9703  0.0905
  577MOL0     C79520   9.625   4.737  -0.587 -0.4719 -0.8081 -0.0921
  577MOL0     C79521   9.701   4.638  -0.647 -0.0879 -0.7652  0.0256
  577MOL0     C79522   9.831   4.598  -0.613  0.2588 -0.3575 -0.2698
  577MOL0     C79523   9.885   4.672  -0.507  0.2522 -0.6443 -0.4546
  577MOL0     O79524  10.013   4.642  -0.482  0.0028  0.0037 -0.3121
  577MOL0     C79525  10.052   4.634  -0.342 -0.4603  0.3981  0.1159
  577MOL0     C79526  10.184   4.567  -0.322  0.2838  0.2835 -0.3711
  577MOL0     C79527  10.293   4.647  -0.381 -0.4667  0.0501  0.1084
  577MOL0     C79528  10.434   4.592  -0.345 -0.2502  0.0386  0.6368
  577MOL0     C79529  10.542   4.692  -0.385  0.4920  0.1010 -0.4439
  577MOL0     C79530  10.696   4.664  -0.349  0.7874  0.0172 -0.1265
  577MOL0     C79531  10.796   4.763  -0.416 -0.1151  0.2027 -0.1022
  577MOL0     C79532  10.948   4.751  -0.367  0.0539  0.4956  0.8909
  577MOL0    Cl79533  11.007   4.574  -0.344 -0.5217  0.0247  0.3650
  577MOL0     C79534   9.821   4.775  -0.444  0.1097 -0.7806 -0.1024
  577MOL0     C79535   9.689   4.803  -0.479  0.0484 -0.0543  0.8329
  577MOL0     O79536   9.546   4.979  -0.706 -0.0680 -0.1204 -0.1849
  577MOL0     C79537   9.236   4.829  -0.764  1.1058 -0.2423 -0.0954
  577MOL0     C79538   9.101   4.854  -0.789  0.5949 -0.3192  0.0152
  577MOL0     N79539   8.315   5.045  -0.600  0.0093 -0.1460  0.2203
  577MOL0     N79540   8.265   5.162  -0.579 -0.9200 -0.0801 -0.1290
  577MOL0     C79541   7.404   5.918  -0.016 -0.9358 -0.1620  0.2750
  577MOL0     C79542   7.283   5.976   0.019  0.9366  0.3466  0.4549
  577MOL0     C79543   6.954   6.160   0.250 -0.4384 -0.1832 -0.2200
  577MOL0     C79544   6.920   6.280   0.188 -0.0814  0.3331  0.0052
  577MOL0     C79545   6.804   6.347   0.218  0.5765  0.3657  0.5203
  577MOL0     C79546   6.709   6.292   0.305  0.2249  0.3408 -0.3281
  577MOL0     O79547   6.599   6.357   0.351  0.6513 -0.7683  0.4829
  577MOL0     C79548   6.570   6.487   0.293 -1.0587  0.5532  0.2950
  577MOL0     C79549   6.515   6.477   0.150  0.5541  0.4491 -0.1846
  577MOL0     C79550   6.411   6.361   0.134  0.0318 -0.2366 -0.2096
  577MOL0     C79551   6.288   6.372   0.230  0.8651 -0.5225  0.6565
  577MOL0     C79552   6.195   6.477   0.189 -0.0721  0.3021  0.1160
  577MOL0     C79553   6.125   6.570   0.158 -0.1687  0.1500 -0.6742
  577MOL0     C79554   6.744   6.166   0.368  0.5097  0.0659 -0.0974
  577MOL0     C79555   6.861   6.103   0.344  0.2742 -0.5043 -0.6241
  577MOL0     C79556   6.880   5.969   0.423  0.0414  0.8414  0.1999
  577MOL0     H79557   7.389   6.236   0.207 -2.1239 -0.3238  0.9511
  577MOL0     H79558   7.616   6.128   0.147 -1.4452  1.4464  1.1511
  577MOL0     H79559   7.601   5.783  -0.121  0.2585 -1.0507  0.1537
  577MOL0     H79560   7.680   5.746   0.026  1.5819 -1.2497 -2.1611
  577MOL0     H79561   7.800   5.855  -0.248  1.5226 -1.7367 -1.3320
  577MOL0     H79562   7.901   5.874  -0.105 -0.4962  0.0828  0.5208
  577MOL0     H79563   7.902   5.635  -0.067 -1.1677  0.5169  1.3241
  577MOL0     H79564   7.800   5.607  -0.206  1.8550 -2.9107  0.6505
  577MOL0     H79565   7.955   5.718  -0.356 -0.2098 -1.2918  0.2926
  577MOL0     H79566   8.060   5.755  -0.223  0.4796  0.8570 -0.4950
  577MOL0     H79567   7.963   5.475  -0.320  0.6873 -0.3096  0.7280
  577MOL0     H79568   8.056   5.490  -0.172  0.7927 -0.3611  0.5078
  577MOL0     H79569   8.145   5.586  -0.445 -1.6545  1.0665  1.1735
  577MOL0     H79570   8.244   5.575  -0.303  1.2656 -0.3179 -0.7290
  577MOL0     H79571   8.130   5.342  -0.445  2.6882 -0.7224 -2.2266
  577MOL0     H79572   8.218   5.341  -0.282  1.3166  1.1649  0.0987
  577MOL0     H79573   8.330   5.453  -0.531 -1.0247  1.5959  1.8603
  577MOL0     H79574   8.422   5.404  -0.383 -0.8806 -0.2296  0.5372
  577MOL0     H79575   8.558   5.176  -0.426  0.1652  0.1725  1.3404
  577MOL0     H79576   8.486   4.849  -0.604 -1.5678  3.3529 -2.9448
  577MOL0     H79577   8.557   4.874  -0.446  4.4229  2.3096  0.7126
  577MOL0     H79578   8.732   5.002  -0.497 -1.3093 -1.0159  1.2068
  577MOL0     H79579   8.730   4.857  -0.589 -2.3171 -1.6261  0.5862
  577MOL0     H79580   8.660   4.971  -0.797 -0.8457 -0.8095  0.6263
  577MOL0     H79581   8.621   5.122  -0.710 -0.5283 -0.5909 -0.6199
  577MOL0     H79582   8.821   5.178  -0.804  1.0121 -0.8593 -2.4073
  577MOL0     H79583   8.867   5.135  -0.639 -0.5801 -0.5156  0.5645
  577MOL0     H79584   9.079   5.164  -0.671 -0.1887 -0.3721  1.0415
  577MOL0     H79585   9.272   5.233  -0.587 -3.0225 -2.9588  0.6325
  577MOL0     H79586   9.396   5.214  -0.717 -1.4561  2.4122 -0.2765
  577MOL0     H79587   9.417   5.129  -0.563 -1.9514 -1.7786  0.8506
  577MOL0     H79588   9.651   4.594  -0.733 -0.8425 -0.9111  0.5263
  577MOL0     H79589   9.879   4.513  -0.660  0.5401  0.3738 -1.3557
  577MOL0     H79590  10.048   4.737  -0.305  0.8439  1.1722 -1.7100
  577MOL0     H79591   9.976   4.575  -0.289 -0.9177 -0.3674 -1.3320
  577MOL0     H79592  10.198   4.552  -0.214  0.3544 -1.1851 -0.5604
  577MOL0     H79593  10.173   4.463  -0.354 -0.8859  0.2704  0.0015
  577MOL0     H79594  10.286   4.750  -0.345 -0.1760  0.8843 -2.0484
  577MOL0     H79595  10.284   4.642  -0.490  1.3550 -3.7415 -0.0206
  577MOL0     H79596  10.460   4.494  -0.387 -2.9465 -1.7027  2.6719
  577MOL0     H79597  10.443   4.582  -0.236  1.6416 -1.8461  0.3866
  577MOL0     H79598  10.532   4.708  -0.493  0.7841 -0.9120 -0.6358
  577MOL0     H79599  10.515   4.788  -0.342  0.6269 -0.6860  1.4919
  577MOL0     H79600  10.725   4.560  -0.362  2.4369  0.4780 -0.3876
  577MOL0     H79601  10.704   4.685  -0.242 -1.4759  0.7965 -0.0507
  577MOL0     H79602  10.757   4.862  -0.394 -0.7078 -0.4021  1.7805
  577MOL0     H79603  10.781   4.754  -0.524 -0.5270 -3.2225  0.1090
  577MOL0     H79604  10.944   4.798  -0.268 -0.0065  0.7476  0.7704
  577MOL0     H79605  11.012   4.808  -0.435 -0.0643 -1.6580 -1.1680
  577MOL0     H79606   9.870   4.846  -0.379  2.0825  0.1536 -2.4675
  577MOL0     H79607   9.628   4.886  -0.446  1.4660  1.9988 -1.3578
  577MOL0     H79608   9.276   4.740  -0.810 -2.5424 -1.8814 -0.4553
  577MOL0     H79609   9.030   4.790  -0.841 -1.5437  0.3437  1.9064
  577MOL0     H79610   7.408   5.828  -0.076 -1.1983 -1.0253  1.5005
  577MOL0     H79611   7.189   5.933  -0.016  1.4526  0.0055 -0.5171
  577MOL0     H79612   6.985   6.344   0.128  2.4652 -2.4635 -0.4416
  577MOL0     H79613   6.796   6.445   0.173  0.6699 -0.0255 -0.3548
  577MOL0     H79614   6.497   6.533   0.360 -1.2760  1.8355 -0.7799
  577MOL0     H79615   6.658   6.552   0.300 -0.8210  0.4962 -1.6922
  577MOL0     H79616   6.585   6.461   0.068 -2.0207  0.2657 -2.5280
  577MOL0     H79617   6.461   6.569   0.126 -0.1224  0.1129  0.0237
  577MOL0     H79618   6.361   6.361   0.037  0.7698  0.3035 -0.6011
  577MOL0     H79619   6.461   6.265   0.144  1.5428  0.4672 -0.7427
  577MOL0     H79620   6.316   6.365   0.336  0.4618 -1.8098  0.6936
  577MOL0     H79621   6.233   6.280   0.210 -0.7773  0.1567  1.8454
  577MOL0     H79622   6.069   6.655   0.127 -2.3863 -0.6244  0.8915
  577MOL0     H79623   6.688   6.128   0.453 -0.4626  0.9534 -0.3150
  577MOL0     H79624   6.857   5.883   0.360 -3.2927  1.2128  0.7427
  577MOL0     H79625   6.982   5.959   0.463 -0.2251  1.6150  1.1034
  577MOL0     H79626   6.815   5.959   0.510  1.3493 -1.8419  0.9873
  578MOL0     O79627   0.743   8.780   8.200  0.0558  0.1828 -0.5227
  578MOL0     C79628   0.749   8.679   8.128 -0.7403  0.5361 -0.0861
  578MOL0     O79629   0.865   8.622   8.080 -0.1768 -0.2631  0.2055
  578MOL0     C79630   0.978   8.701   8.082  0.5763 -0.9283 -0.3003
  578MOL0     C79631   1.093   8.649   8.147  0.2519 -0.2962 -0.0812
  578MOL0     C79632   1.212   8.725   8.151  0.2233 -0.2795  0.3568
  578MOL0     C79633   1.226   8.849   8.082 -0.6619 -0.4473 -0.3861
  578MOL0     O79634   1.350   8.911   8.076 -0.4378 -0.6103 -0.8921
  578MOL0     C79635   1.439   8.911   8.190 -0.3985  0.4441 -0.2584
  578MOL0     C79636   1.521   9.034   8.206  0.2691 -0.0206 -0.2144
  578MOL0     C79637   1.596   9.076   8.078 -0.3072  0.7302 -0.5460
  578MOL0     C79638   1.724   8.988   8.046  0.6300  0.0002  0.3840
  578MOL0     C79639   1.792   9.039   7.916  0.2981  0.2905  0.5247
  578MOL0     C79640   1.849   9.181   7.939  0.2192  0.4805 -0.2770
  578MOL0     C79641   1.943   9.233   7.828 -0.5192 -0.0243 -0.4246
  578MOL0     C79642   2.000   9.365   7.863 -0.8345 -0.7431  0.8147
  578MOL0     N79643   2.118   9.408   7.798  0.8633 -0.4791 -0.0882
  578MOL0     C79644   2.136   9.418   7.660  0.3655  0.1917  0.6643
  578MOL0     C79645   2.263   9.462   7.640  0.1103 -0.1132  0.1020
  578MOL0     C79646   2.326   9.513   7.516  0.8943 -0.1526  0.2700
  578MOL0     C79647   2.476   9.499   7.524 -0.2590  0.3952  0.5478
  578MOL0     C79648   2.516   9.358   7.488  0.7130  0.3326  0.2277
  578MOL0     C79649   2.657   9.338   7.538 -0.6800  0.1563  0.2604
  578MOL0     O79650   2.666   9.298   7.677  0.4143 -0.0829  1.0032
  578MOL0     C79651   2.777   9.278   7.743 -0.4751 -0.0193 -0.1565
  578MOL0     C79652   2.760   9.257   7.882 -0.3324 -0.0958 -0.0448
  578MOL0     C79653   2.874   9.238   7.965  0.0283  0.1123 -0.1916
  578MOL0     C79654   2.842   9.221   8.111  0.3204  0.3376 -1.0286
  578MOL0     C79655   3.005   9.235   7.909 -0.2444 -0.7606 -0.3562
  578MOL0     C79656   3.134   9.226   7.979 -0.8588  0.3133  0.3000
  578MOL0     O79657   3.246   9.183   7.914  0.0208 -1.3439  0.6115
  578MOL0     C79658   3.376   9.182   7.955  0.1067  0.0776 -0.8250
  578MOL0     C79659   3.423   9.208   8.086 -0.2671  0.1332 -0.5646
  578MOL0     C79660   3.559   9.200   8.125  0.1016  1.3334  0.4868
  578MOL0     C79661   3.652   9.160   8.023  0.8431  0.4041  0.5798
  578MOL0     O79662   3.784   9.155   8.054  0.0066  0.5316  0.1312
  578MOL0     C79663   3.811   9.114   8.198 -0.2674  0.5342  0.3312
  578MOL0     C79664   3.957   9.056   8.189  0.0569 -0.7869 -0.1698
  578MOL0     C79665   3.960   8.928   8.105 -0.0033  0.3082 -0.4330
  578MOL0     C79666   4.097   8.847   8.097  0.0527  0.2102 -0.4488
  578MOL0     C79667   4.111   8.758   8.227 -0.5740  0.4649  0.7291
  578MOL0     C79668   4.210   8.642   8.211  0.5007  0.5446 -0.0300
  578MOL0     C79669   4.357   8.688   8.195 -0.2911  0.8411  0.7352
  578MOL0     C79670   4.447   8.573   8.170 -0.0393  0.4436 -0.2483
  578MOL0    Cl79671   4.407   8.481   8.025 -0.1501 -0.3365  0.2572
  578MOL0     C79672   3.605   9.134   7.893 -0.0991 -0.1593 -0.1218
  578MOL0     C79673   3.466   9.136   7.862  0.5752 -0.6381 -0.4465
  578MOL0     O79674   3.134   9.257   8.098  0.6825  0.0626 -0.9632
  578MOL0     C79675   3.017   9.248   7.762 -0.0705 -0.0462  0.8675
  578MOL0     C79676   2.903   9.272   7.679 -0.0484  1.1891  0.0321
  578MOL0     N79677   2.317   9.472   7.768  0.3318  0.8875 -1.0702
  578MOL0     N79678   2.226   9.447   7.861 -0.1257  0.4097  0.4393
  578MOL0     C79679   1.122   8.892   7.999  0.2863 -0.2724  0.1036
  578MOL0     C79680   0.995   8.826   8.006  0.1185 -1.1301  0.2099
  578MOL0     C79681   0.616   8.614   8.114  0.9280  0.4027 -0.5802
  578MOL0     C79682   0.500   8.663   8.184 -0.6135 -0.4160  1.1084
  578MOL0     C79683   0.373   8.604   8.170  0.4106  0.6259  0.0920
  578MOL0     C79684   0.354   8.510   8.072  0.9504 -0.1475 -0.1084
  578MOL0     O79685   0.241   8.449   8.031  0.5350  0.0059  0.0732
  578MOL0     C79686   0.114   8.454   8.102  0.8107  0.0956 -0.1623
  578MOL0     C79687  -0.006   8.488   8.005 -0.0241 -0.3876 -0.2641
  578MOL0     C79688  -0.008   8.637   7.952  0.0479 -0.1091  0.3582
  578MOL0     C79689   0.003   8.750   8.054  0.6282  0.4615 -0.7695
  578MOL0     C79690   0.009   8.880   7.990 -0.5290  0.1749 -0.2443
  578MOL0     C79691   0.018   8.995   7.946  0.1285  0.1155 -0.1183
  578MOL0     C79692   0.463   8.465   8.002 -0.7147 -0.5696 -0.0189
  578MOL0     C79693   0.590   8.521   8.011 -0.4484  0.8628  0.0279
  578MOL0     C79694   0.691   8.484   7.908 -0.2171  0.6728  0.1166
  578MOL0     H79695   1.089   8.546   8.180  1.3151 -1.0631 -2.1769
  578MOL0     H79696   1.294   8.682   8.207  2.5566  4.0543  0.6977
  578MOL0     H79697   1.515   8.833   8.177  0.2608  1.2733 -1.6275
  578MOL0     H79698   1.385   8.895   8.284  0.9422  1.5442  0.7347
  578MOL0     H79699   1.447   9.110   8.232  0.3537 -0.8293  2.8126
  578MOL0     H79700   1.590   9.025   8.291  0.9326  1.2892 -0.5878
  578MOL0     H79701   1.538   9.059   7.987 -2.0498 -0.4821  0.7289
  578MOL0     H79702   1.612   9.183   8.093  2.6602  0.5355 -1.6025
  578MOL0     H79703   1.794   9.000   8.129  0.0538  0.6775  0.7772
  578MOL0     H79704   1.697   8.882   8.033  2.4285 -0.6563  1.5791
  578MOL0     H79705   1.720   9.043   7.834 -2.5779  0.8111  2.9080
  578MOL0     H79706   1.868   8.965   7.888 -2.0866 -1.4336 -1.9365
  578MOL0     H79707   1.764   9.248   7.954 -1.3605 -0.6585 -3.3010
  578MOL0     H79708   1.920   9.175   8.022  0.1308 -1.8607 -0.3092
  578MOL0     H79709   1.888   9.235   7.733 -0.2312 -1.7106 -0.6631
  578MOL0     H79710   2.024   9.164   7.805  1.9731  3.3467 -2.6659
  578MOL0     H79711   1.924   9.441   7.844  1.0710  1.1889  0.4818
  578MOL0     H79712   2.023   9.372   7.970  0.1794  3.4678  0.4839
  578MOL0     H79713   2.048   9.401   7.598 -0.6264  0.0619  2.0500
  578MOL0     H79714   2.303   9.620   7.510  1.2808 -0.1472 -2.4262
  578MOL0     H79715   2.275   9.460   7.434  0.8228 -1.4564  1.1277
  578MOL0     H79716   2.528   9.562   7.451 -1.8740  0.7329 -0.3611
  578MOL0     H79717   2.513   9.532   7.622 -1.1335  2.7037  0.1600
  578MOL0     H79718   2.457   9.277   7.532  1.8309  0.6262  2.4067
  578MOL0     H79719   2.507   9.335   7.382 -0.4070 -1.7797  0.7234
  578MOL0     H79720   2.700   9.264   7.469  2.2742  1.7407  0.2294
  578MOL0     H79721   2.722   9.424   7.520  2.0740 -1.9669 -0.8050
  578MOL0     H79722   2.662   9.267   7.927 -0.3600  0.4274 -0.2167
  578MOL0     H79723   2.909   9.156   8.168 -1.6673 -0.6121  0.3475
  578MOL0     H79724   2.758   9.151   8.117  1.6685 -1.2719 -0.0749
  578MOL0     H79725   2.833   9.317   8.162  1.5656  0.0755 -0.2892
  578MOL0     H79726   3.354   9.226   8.168 -1.0607  1.3224 -1.4639
  578MOL0     H79727   3.582   9.204   8.231 -0.3992 -1.3660  0.7592
  578MOL0     H79728   3.802   9.198   8.267  0.5363  0.2130  0.8391
  578MOL0     H79729   3.743   9.037   8.236 -0.7836  0.9453  0.2510
  578MOL0     H79730   4.015   9.142   8.152 -3.0666  1.4639 -0.2625
  578MOL0     H79731   3.996   9.028   8.287  0.0041 -0.9666 -0.2003
  578MOL0     H79732   3.921   8.943   8.004  1.7636 -0.4002 -1.2809
  578MOL0     H79733   3.885   8.858   8.143 -0.1638  0.7233  0.0171
  578MOL0     H79734   4.185   8.909   8.079  0.5323 -0.2817  0.1810
  578MOL0     H79735   4.095   8.775   8.014  3.1331 -0.8770  0.3055
  578MOL0     H79736   4.128   8.804   8.324 -0.3367  0.6734  0.5913
  578MOL0     H79737   4.014   8.708   8.232 -0.5969  0.1210 -1.8276
  578MOL0     H79738   4.189   8.573   8.129  1.0455 -1.3581  1.3483
  578MOL0     H79739   4.201   8.579   8.300 -0.7845  0.1280 -0.4412
  578MOL0     H79740   4.388   8.749   8.280 -0.5106  1.1337  0.6051
  578MOL0     H79741   4.361   8.737   8.097  1.6946 -1.1224 -0.2619
  578MOL0     H79742   4.446   8.510   8.260 -1.2295 -1.7827 -1.7281
  578MOL0     H79743   4.550   8.611   8.174  1.1064 -2.4805  2.3803
  578MOL0     H79744   3.674   9.100   7.817 -0.3332 -0.1865 -0.3267
  578MOL0     H79745   3.431   9.129   7.759  0.4972 -0.8251 -0.4064
  578MOL0     H79746   3.110   9.235   7.708 -1.0981 -0.7421 -0.8299
  578MOL0     H79747   2.907   9.282   7.571  3.4776  3.5111  0.2236
  578MOL0     H79748   1.131   8.979   7.935  0.4300  0.5612  1.2322
  578MOL0     H79749   0.910   8.854   7.945  1.0831 -0.0768 -0.6766
  578MOL0     H79750   0.521   8.743   8.254  4.5777 -0.0307 -0.4623
  578MOL0     H79751   0.295   8.641   8.235  1.0322  2.6727 -0.2806
  578MOL0     H79752   0.105   8.354   8.146  1.3307 -0.5316 -1.4277
  578MOL0     H79753   0.128   8.522   8.186  1.1403  2.4882 -2.0341
  578MOL0     H79754  -0.100   8.462   8.056 -0.2321  0.3169 -0.2765
  578MOL0     H79755  -0.006   8.420   7.920 -0.4683  0.6562 -1.1222
  578MOL0     H79756   0.069   8.642   7.875  0.8150  0.7275  1.1708
  578MOL0     H79757  -0.103   8.652   7.898  1.1736  1.2345 -1.3672
  578MOL0     H79758   0.084   8.736   8.126  0.3030 -1.6707 -0.7628
  578MOL0     H79759  -0.093   8.738   8.105  1.5814 -1.8073  0.6408
  578MOL0     H79760   0.040   9.097   7.919  0.4197  1.5018  4.5457
  578MOL0     H79761   0.449   8.391   7.924  0.1061 -0.2884 -0.4442
  578MOL0     H79762   0.751   8.396   7.934 -0.9515 -1.7214 -5.1044
  578MOL0     H79763   0.639   8.441   7.822  1.4719 -2.4542  0.4947
  578MOL0     H79764   0.749   8.562   7.858  1.9786 -1.2695 -0.5615
  579MOL0     O79765   2.859   3.938   3.940 -0.1420  0.0485  0.0030
  579MOL0     C79766   2.783   4.022   3.893 -0.1960  0.1842  0.1117
  579MOL0     O79767   2.822   4.137   3.827 -0.6188  0.2432 -0.5061
  579MOL0     C79768   2.961   4.167   3.816 -0.4782 -0.5432  0.2808
  579MOL0     C79769   3.009   4.172   3.686  0.0069  0.0169  0.6276
  579MOL0     C79770   3.144   4.213   3.670  1.5146  0.6182 -0.0785
  579MOL0     C79771   3.222   4.238   3.782 -0.4566  0.2618 -0.0801
  579MOL0     O79772   3.351   4.276   3.779  0.1356  0.5749 -0.5936
  579MOL0     C79773   3.432   4.206   3.688  0.2905  0.7157  0.2389
  579MOL0     C79774   3.587   4.242   3.710  0.1524 -0.3440 -0.2925
  579MOL0     C79775   3.667   4.185   3.591  0.5685  0.4047 -0.4424
  579MOL0     C79776   3.822   4.193   3.600  0.1119 -0.2427 -0.0542
  579MOL0     C79777   3.894   4.109   3.495  0.5507  0.7990 -0.5562
  579MOL0     C79778   4.042   4.089   3.511  1.0879  0.3298 -1.2036
  579MOL0     C79779   4.099   4.227   3.482 -0.8938  0.0335  1.0307
  579MOL0     C79780   4.257   4.215   3.462 -0.0404 -0.8973  0.3626
  579MOL0     N79781   4.305   4.355   3.458  0.3414  1.0134 -0.1300
  579MOL0     C79782   4.334   4.425   3.575  0.3216 -0.0596 -0.2288
  579MOL0     C79783   4.369   4.541   3.519 -0.0284 -1.0483 -0.0567
  579MOL0     C79784   4.424   4.672   3.591 -0.5782 -0.5627 -0.3651
  579MOL0     C79785   4.332   4.791   3.564  0.0683 -1.2439 -0.2202
  579MOL0     C79786   4.385   4.938   3.600  0.5196  0.1163 -0.1116
  579MOL0     C79787   4.440   4.967   3.740 -0.1826 -0.2287 -0.0668
  579MOL0     O79788   4.576   4.912   3.759  0.5916  0.1082  0.0291
  579MOL0     C79789   4.633   4.919   3.886  0.3555 -0.1108 -0.1612
  579MOL0     C79790   4.577   5.000   3.987  0.6141 -0.4887  0.5913
  579MOL0     C79791   4.626   4.999   4.118 -0.5060 -0.5116  0.3379
  579MOL0     C79792   4.559   5.080   4.228  0.2662 -0.1012 -0.1621
  579MOL0     C79793   4.742   4.923   4.155 -0.1688 -0.6409  0.1079
  579MOL0     C79794   4.819   4.943   4.286  0.6146  0.3281 -0.0689
  579MOL0     O79795   4.756   4.963   4.407  0.0395  0.7019 -0.4549
  579MOL0     C79796   4.836   4.978   4.517  0.6001 -0.2933 -0.0508
  579MOL0     C79797   4.948   5.056   4.523 -0.3971  0.4382  0.6566
  579MOL0     C79798   5.030   5.066   4.628  0.3041  0.2962 -0.8722
  579MOL0     C79799   4.998   4.986   4.740 -0.0826 -0.4126 -0.3799
  579MOL0     O79800   5.076   4.965   4.850 -0.1122  0.1137  0.0317
  579MOL0     C79801   5.104   5.084   4.927  0.0252 -0.3165 -0.3630
  579MOL0     C79802   5.086   5.028   5.066  0.1837 -0.4502  0.2377
  579MOL0     C79803   4.938   5.015   5.105  0.6885 -0.6914 -0.5923
  579MOL0     C79804   4.917   5.063   5.246  0.3405  0.5851  0.3063
  579MOL0     C79805   4.777   5.029   5.291  0.2472  0.1479 -0.0755
  579MOL0     C79806   4.759   4.883   5.342 -0.2669  0.1241  0.5504
  579MOL0     C79807   4.613   4.851   5.390 -0.2920  0.2901  0.6406
  579MOL0     C79808   4.615   4.716   5.450 -0.4753 -0.0535 -0.5582
  579MOL0    Cl79809   4.684   4.734   5.615  0.2781 -0.2417  0.1323
  579MOL0     C79810   4.878   4.918   4.741  0.1146 -0.9030  0.4172
  579MOL0     C79811   4.799   4.909   4.627 -0.8693 -0.5585 -0.0249
  579MOL0     O79812   4.938   4.947   4.262  0.0387  0.4395  0.6420
  579MOL0     C79813   4.798   4.847   4.046  0.2944  0.3478 -0.5626
  579MOL0     C79814   4.744   4.849   3.914 -0.1580  0.6349  0.4665
  579MOL0     N79815   4.369   4.532   3.386  0.2234 -0.5401  1.2247
  579MOL0     N79816   4.325   4.416   3.346  0.3992 -0.2527  0.2034
  579MOL0     C79817   3.163   4.240   3.911 -0.8425 -1.2435  0.4356
  579MOL0     C79818   3.039   4.202   3.928  0.5970 -0.4525  0.4189
  579MOL0     C79819   2.644   3.992   3.881 -0.0221 -0.0302  0.3773
  579MOL0     C79820   2.576   4.050   3.776 -0.4709  0.4195  0.2409
  579MOL0     C79821   2.446   4.036   3.760 -0.0350  0.7858 -0.2854
  579MOL0     C79822   2.372   3.950   3.841 -0.6044 -0.6574 -0.5480
  579MOL0     O79823   2.250   3.893   3.821  0.7447 -0.6786  0.6112
  579MOL0     C79824   2.178   3.925   3.699  0.6424 -0.5281 -0.9114
  579MOL0     C79825   2.102   3.800   3.663  0.1837 -0.2073  0.5094
  579MOL0     C79826   1.955   3.797   3.712 -0.0435  0.2313 -0.0374
  579MOL0     C79827   1.869   3.896   3.631 -0.0601  1.0528 -0.8595
  579MOL0     C79828   1.858   3.861   3.484  0.4302  0.1235  0.4149
  579MOL0     C79829   1.843   3.810   3.371 -0.0248  0.7215  0.3219
  579MOL0     C79830   2.440   3.898   3.954 -0.1462  0.8725  0.6563
  579MOL0     C79831   2.567   3.926   3.981 -0.2424  0.7936 -0.4926
  579MOL0     C79832   2.613   3.869   4.110  0.0618 -0.6000  0.0818
  579MOL0     H79833   2.939   4.154   3.604  1.7223  0.3583 -0.9748
  579MOL0     H79834   3.178   4.243   3.572  1.7277  2.0733  0.4155
  579MOL0     H79835   3.397   4.250   3.594 -0.8385 -0.4280  0.1005
  579MOL0     H79836   3.407   4.099   3.685 -1.2093  1.0552 -2.1995
  579MOL0     H79837   3.614   4.347   3.716  0.1587 -0.4346  2.5640
  579MOL0     H79838   3.622   4.199   3.804  0.6867  2.1161  0.6829
  579MOL0     H79839   3.634   4.084   3.567 -2.3148  1.0754  0.3543
  579MOL0     H79840   3.642   4.235   3.498 -2.9650 -0.2808  0.0015
  579MOL0     H79841   3.838   4.301   3.589 -0.7599 -0.3042 -2.6588
  579MOL0     H79842   3.852   4.158   3.699  0.2477 -1.3179 -0.4642
  579MOL0     H79843   3.872   4.147   3.395 -3.1358  3.7798  1.1252
  579MOL0     H79844   3.848   4.011   3.511 -2.7002  2.3733  0.6948
  579MOL0     H79845   4.064   4.069   3.616  0.6855  1.6579 -0.8403
  579MOL0     H79846   4.079   4.011   3.444  0.6054  0.3822 -1.5394
  579MOL0     H79847   4.069   4.299   3.560 -0.0700  1.1245  0.3745
  579MOL0     H79848   4.062   4.267   3.387 -1.5789  2.7512  2.3177
  579MOL0     H79849   4.311   4.158   3.538 -0.2425 -0.7030  0.6524
  579MOL0     H79850   4.279   4.171   3.364  0.7951 -0.0699  0.1594
  579MOL0     H79851   4.337   4.393   3.679 -0.5266  0.9525  0.1378
  579MOL0     H79852   4.523   4.697   3.554  0.0068 -0.0564  1.4715
  579MOL0     H79853   4.428   4.650   3.698  1.6600 -2.7499 -0.8205
  579MOL0     H79854   4.313   4.797   3.456 -0.8074  2.4556 -0.0078
  579MOL0     H79855   4.233   4.768   3.605  0.1832 -2.9215 -0.8079
  579MOL0     H79856   4.463   4.971   3.530 -0.6590  4.6064  0.4295
  579MOL0     H79857   4.308   5.015   3.593  1.7926  1.3413 -1.2771
  579MOL0     H79858   4.431   5.076   3.753 -0.1931 -0.3343  0.8732
  579MOL0     H79859   4.365   4.918   3.803 -1.4046 -0.0756 -1.3453
  579MOL0     H79860   4.478   5.040   3.969  1.4851  0.9912 -1.2832
  579MOL0     H79861   4.500   5.015   4.294 -0.5465 -0.1122 -0.8737
  579MOL0     H79862   4.487   5.150   4.183  0.3542 -0.6589 -1.2129
  579MOL0     H79863   4.636   5.130   4.287  2.4834 -0.2060 -2.7534
  579MOL0     H79864   4.958   5.118   4.434  2.6683  0.1051  0.6545
  579MOL0     H79865   5.113   5.136   4.625  1.3942 -0.9640 -2.6483
  579MOL0     H79866   5.206   5.120   4.909 -1.2464  2.5090 -2.8167
  579MOL0     H79867   5.034   5.164   4.900  3.6049  2.1666 -3.3534
  579MOL0     H79868   5.143   4.936   5.073 -0.5761 -1.0324 -1.0307
  579MOL0     H79869   5.131   5.103   5.133  0.8426  1.3311 -2.0718
  579MOL0     H79870   4.910   4.910   5.103 -1.2460 -0.2316  0.3613
  579MOL0     H79871   4.867   5.075   5.047 -0.3553 -0.5279  0.7947
  579MOL0     H79872   4.918   5.172   5.258 -1.2515  0.6065  0.4415
  579MOL0     H79873   4.989   5.014   5.313  0.2236 -1.0582 -0.6980
  579MOL0     H79874   4.758   5.098   5.373 -0.6652  0.8786 -0.8710
  579MOL0     H79875   4.708   5.042   5.207 -0.9679 -1.6677  0.5616
  579MOL0     H79876   4.848   4.864   5.402  0.1600 -1.0120 -0.4072
  579MOL0     H79877   4.765   4.812   5.259  2.3005  1.6132 -0.6510
  579MOL0     H79878   4.542   4.852   5.306 -1.7141 -2.1480  1.7303
  579MOL0     H79879   4.581   4.933   5.455 -1.3834 -0.0337  0.5335
  579MOL0     H79880   4.676   4.643   5.395 -1.1031 -1.5447  0.6654
  579MOL0     H79881   4.519   4.662   5.450  0.1808 -1.2609 -0.1225
  579MOL0     H79882   4.845   4.859   4.825 -2.8598 -2.8377 -1.9206
  579MOL0     H79883   4.719   4.837   4.626 -0.6784 -0.8494 -2.8543
  579MOL0     H79884   4.892   4.796   4.061  0.0447 -0.0770 -0.4311
  579MOL0     H79885   4.772   4.794   3.825  0.4737  1.9095 -0.1593
  579MOL0     H79886   3.224   4.275   3.994 -1.5757  2.3823 -0.4012
  579MOL0     H79887   3.000   4.182   4.027  2.4346 -1.9509  0.8983
  579MOL0     H79888   2.629   4.105   3.699 -1.3712 -1.4791 -1.8378
  579MOL0     H79889   2.396   4.088   3.679 -0.3472 -0.2482 -0.7834
  579MOL0     H79890   2.120   4.017   3.711  1.6679  0.0774 -0.5461
  579MOL0     H79891   2.245   3.947   3.616  0.2934  0.6903 -0.8938
  579MOL0     H79892   2.166   3.728   3.714 -1.0434 -0.7931  1.2596
  579MOL0     H79893   2.116   3.788   3.555  1.4690  0.7922  0.5368
  579MOL0     H79894   1.917   3.695   3.694  1.1603  0.0638 -1.9864
  579MOL0     H79895   1.943   3.836   3.813  1.0074  0.0770  0.1598
  579MOL0     H79896   1.894   4.002   3.640  0.9044  1.2254 -4.3691
  579MOL0     H79897   1.771   3.884   3.678  0.8681 -2.3146  0.5176
  579MOL0     H79898   1.842   3.765   3.274 -1.1741 -1.6540  1.3659
  579MOL0     H79899   2.370   3.850   4.022 -0.6536 -0.4492 -0.7458
  579MOL0     H79900   2.532   3.871   4.183 -0.3426  1.0010 -0.3556
  579MOL0     H79901   2.641   3.766   4.088 -1.2765 -0.5423 -2.1660
  579MOL0     H79902   2.699   3.921   4.154 -0.8973  1.7032 -0.6023
  580MOL0     O79903   9.343   8.602   4.845 -0.6740 -0.0360  0.4469
  580MOL0     C79904   9.268   8.503   4.852  0.4526 -0.7285  0.2548
  580MOL0     O79905   9.301   8.377   4.818  0.4498  0.4311  0.0901
  580MOL0     C79906   9.418   8.369   4.745  0.3008 -0.7928  0.1808
  580MOL0     C79907   9.538   8.374   4.813  0.4653  0.3563  0.1226
  580MOL0     C79908   9.653   8.390   4.741  0.3182 -0.3593 -0.7568
  580MOL0     C79909   9.646   8.385   4.599 -0.0585  0.0660 -0.9109
  580MOL0     O79910   9.768   8.402   4.529 -0.0160 -0.2000 -0.3477
  580MOL0     C79911   9.778   8.384   4.384 -0.0077  0.7237 -0.4579
  580MOL0     C79912   9.921   8.391   4.351  0.4265 -0.4845 -0.3254
  580MOL0     C79913  10.001   8.517   4.409  0.3288  0.5968 -0.3789
  580MOL0     C79914  10.138   8.517   4.340  0.1938 -0.4535  0.0161
  580MOL0     C79915  10.225   8.637   4.354 -0.4741  0.9412 -0.2217
  580MOL0     C79916  10.363   8.623   4.299  0.0735  0.8659  0.6444
  580MOL0     C79917  10.449   8.749   4.333 -0.5108  0.6225 -0.4254
  580MOL0     C79918  10.604   8.716   4.306  0.4770  0.7622 -0.6869
  580MOL0     N79919  10.674   8.639   4.402  0.5170  0.0974 -0.4456
  580MOL0     C79920  10.684   8.673   4.538  0.1926 -0.1790 -0.6086
  580MOL0     C79921  10.753   8.567   4.591 -0.6637  0.0242  0.1353
  580MOL0     C79922  10.798   8.539   4.732 -0.0442 -0.0334  1.4229
  580MOL0     C79923  10.919   8.622   4.774 -0.0873 -0.4381  0.2802
  580MOL0     C79924  11.043   8.550   4.737 -0.5800 -0.5830  0.1168
  580MOL0     C79925  11.095   8.452   4.842 -0.0522 -0.1611  0.1977
  580MOL0     O79926  11.224   8.410   4.806 -1.2645  0.1438  0.1584
  580MOL0     C79927  11.301   8.339   4.898  0.7207 -0.2195  0.0992
  580MOL0     C79928  11.441   8.328   4.878 -0.3051 -0.6476 -0.2430
  580MOL0     C79929  11.522   8.272   4.979 -0.2579 -0.0112 -0.5537
  580MOL0     C79930  11.670   8.261   4.961  0.0767  0.5083 -0.0034
  580MOL0     C79931  11.466   8.220   5.094  0.2815 -0.2268  0.1472
  580MOL0     C79932  11.541   8.159   5.212  0.5981  0.6123  0.3989
  580MOL0     O79933  11.674   8.180   5.225  0.7825  0.0504 -0.2888
  580MOL0     C79934  11.749   8.139   5.331 -0.6028 -0.0601 -0.0842
  580MOL0     C79935  11.695   8.150   5.457 -0.8780  0.3880 -0.0986
  580MOL0     C79936  11.778   8.091   5.558  0.2290 -0.0239  0.9939
  580MOL0     C79937  11.912   8.041   5.538  0.5701 -0.0031  0.0119
  580MOL0     O79938  11.996   7.985   5.632  0.4425 -0.1715  0.2299
  580MOL0     C79939  11.999   8.034   5.771 -0.0122 -0.2960  0.2740
  580MOL0     C79940  12.117   7.972   5.846  0.1729  0.5760 -0.6338
  580MOL0     C79941  12.251   7.996   5.779  0.2704 -0.2545 -0.2262
  580MOL0     C79942  12.363   8.045   5.864  0.5955  0.6556  0.3367
  580MOL0     C79943  12.404   7.940   5.961  0.0197 -0.4766  0.9367
  580MOL0     C79944  12.535   7.973   6.019  0.2123 -0.0100 -0.0513
  580MOL0     C79945  12.652   7.936   5.925 -0.0174 -0.2112  0.3614
  580MOL0     C79946  12.786   7.960   5.998  0.3042 -0.2775  0.5467
  580MOL0    Cl79947  12.934   7.953   5.897 -0.2191 -0.0983  0.0271
  580MOL0     C79948  11.956   8.054   5.403  0.3982  0.0901 -0.1554
  580MOL0     C79949  11.869   8.091   5.299 -0.5117  0.3262 -0.2551
  580MOL0     O79950  11.473   8.096   5.288 -0.8027  0.7903 -0.3383
  580MOL0     C79951  11.325   8.224   5.100  0.1808  0.3800  0.6470
  580MOL0     C79952  11.240   8.282   5.010  0.2265  0.0844 -0.0677
  580MOL0     N79953  10.778   8.477   4.487 -0.4151  0.8153 -0.8946
  580MOL0     N79954  10.726   8.512   4.376 -0.0702 -0.0236 -0.3864
  580MOL0     C79955   9.521   8.371   4.530 -0.5098  0.5152 -0.5466
  580MOL0     C79956   9.404   8.360   4.605 -0.4075 -0.6094 -0.1234
  580MOL0     C79957   9.125   8.514   4.885 -0.6303  0.6023 -0.8443
  580MOL0     C79958   9.034   8.415   4.846 -0.9974  0.4247  0.0428
  580MOL0     C79959   8.899   8.420   4.887  0.6474  0.2300 -0.1025
  580MOL0     C79960   8.852   8.518   4.973 -0.0809  0.2556 -0.4772
  580MOL0     O79961   8.734   8.517   5.043 -0.2294  1.1239  0.1503
  580MOL0     C79962   8.628   8.439   4.983 -0.0250  0.2037 -0.4425
  580MOL0     C79963   8.506   8.450   5.081 -0.3200  0.2203  0.5272
  580MOL0     C79964   8.381   8.389   5.032  0.6291  0.8203  0.0704
  580MOL0     C79965   8.383   8.246   4.985  1.1997 -0.0643 -0.3790
  580MOL0     C79966   8.262   8.214   4.916  0.4119  0.0757  0.5937
  580MOL0     C79967   8.179   8.188   4.832 -0.6273  0.8930 -0.0416
  580MOL0     C79968   8.942   8.613   5.012  0.6744  0.0358 -0.1415
  580MOL0     C79969   9.074   8.625   4.962 -0.3324  0.4680  0.4962
  580MOL0     C79970   9.162   8.742   5.011  0.4739  0.0478 -0.3383
  580MOL0     H79971   9.546   8.358   4.920 -0.5570  0.2837  0.1963
  580MOL0     H79972   9.750   8.380   4.789  0.9732 -0.4451 -2.0457
  580MOL0     H79973   9.726   8.453   4.318 -0.1490 -1.4715 -2.7847
  580MOL0     H79974   9.745   8.281   4.364 -2.1480  1.2639  0.0142
  580MOL0     H79975   9.979   8.307   4.391  0.0231 -0.9467 -0.7066
  580MOL0     H79976   9.923   8.382   4.242 -1.0026 -0.4388 -0.3661
  580MOL0     H79977   9.943   8.609   4.402 -2.7178 -0.7454  3.2853
  580MOL0     H79978  10.012   8.520   4.518 -0.9033  3.1443 -0.2543
  580MOL0     H79979  10.201   8.432   4.371  0.1970 -0.6553 -0.5325
  580MOL0     H79980  10.122   8.498   4.233  2.8227  1.5984 -0.8374
  580MOL0     H79981  10.227   8.669   4.458 -0.1671 -2.0380  0.7772
  580MOL0     H79982  10.176   8.710   4.289 -0.1146  0.3788 -1.1529
  580MOL0     H79983  10.415   8.534   4.334 -2.5474 -1.6152 -1.2688
  580MOL0     H79984  10.354   8.607   4.191 -0.4234  1.0681  0.6502
  580MOL0     H79985  10.432   8.770   4.439 -0.8037 -2.5650  0.2583
  580MOL0     H79986  10.415   8.835   4.275 -4.5958 -0.3996  0.1597
  580MOL0     H79987  10.631   8.669   4.210  1.3301  3.8090 -2.0649
  580MOL0     H79988  10.648   8.816   4.309  0.0380  0.9312  1.0973
  580MOL0     H79989  10.635   8.757   4.586  1.9304 -0.6913  2.2514
  580MOL0     H79990  10.818   8.433   4.749  3.2300  0.6083  2.2886
  580MOL0     H79991  10.713   8.564   4.796 -2.3024 -4.5989  0.6310
  580MOL0     H79992  10.913   8.713   4.713  1.7731 -0.5321 -0.0909
  580MOL0     H79993  10.912   8.658   4.877  0.3608 -0.6850  0.3971
  580MOL0     H79994  11.033   8.500   4.640 -1.5728  0.5710 -0.4084
  580MOL0     H79995  11.121   8.624   4.714  0.3383 -2.0758 -1.9388
  580MOL0     H79996  11.093   8.495   4.943 -2.3181 -0.5017  0.3594
  580MOL0     H79997  11.025   8.369   4.830  1.3361 -1.1387 -1.5521
  580MOL0     H79998  11.489   8.354   4.784  0.2348  1.6976  0.6125
  580MOL0     H79999  11.702   8.156   4.963 -0.4893  0.3403  1.4557
  580MOL0     H80000  11.722   8.328   5.030  1.5120  0.4346 -0.9513
  580MOL0     H80001  11.707   8.305   4.868  1.0394 -0.4352 -0.0887
  580MOL0     H80002  11.594   8.175   5.486 -0.1038  1.6438  1.6396
  580MOL0     H80003  11.739   8.081   5.659 -2.0346  0.6492  0.2515
  580MOL0     H80004  11.988   8.142   5.781 -2.6959 -0.6176  1.4986
  580MOL0     H80005  11.904   7.997   5.810 -0.7211  0.2992 -0.8225
  580MOL0     H80006  12.107   8.012   5.947  1.8665 -4.5956  1.9132
  580MOL0     H80007  12.093   7.866   5.860  1.1754  0.3809 -0.3110
  580MOL0     H80008  12.249   8.065   5.694  1.4942 -1.1867 -1.0467
  580MOL0     H80009  12.282   7.904   5.728  2.9824 -1.3418  2.9919
  580MOL0     H80010  12.319   8.132   5.915 -0.6923  0.8331 -1.0074
  580MOL0     H80011  12.450   8.086   5.812  1.8495  0.7538  2.4002
  580MOL0     H80012  12.328   7.935   6.040  0.0370  0.6714  1.0407
  580MOL0     H80013  12.398   7.842   5.912  0.7821 -0.7324  1.3483
  580MOL0     H80014  12.553   7.919   6.113 -0.3537  0.1105  0.1311
  580MOL0     H80015  12.531   8.078   6.048  0.3582  0.9447 -3.1339
  580MOL0     H80016  12.639   7.996   5.834  2.0184 -0.3002 -0.0485
  580MOL0     H80017  12.642   7.831   5.896 -1.6428  0.7605 -3.1462
  580MOL0     H80018  12.802   7.892   6.082 -1.1438  0.0810  1.1482
  580MOL0     H80019  12.789   8.059   6.044  1.2807 -1.2063  2.5923
  580MOL0     H80020  12.056   8.016   5.384  1.2054  0.1404  3.2904
  580MOL0     H80021  11.907   8.081   5.198  0.9635 -1.1684  0.4017
  580MOL0     H80022  11.284   8.190   5.195  1.1976  0.7439  1.2373
  580MOL0     H80023  11.138   8.293   5.047  0.5873 -0.0677  1.0007
  580MOL0     H80024   9.513   8.341   4.426 -2.1672  1.9012 -0.8703
  580MOL0     H80025   9.303   8.352   4.567 -0.4568 -3.9049  0.4625
  580MOL0     H80026   9.065   8.334   4.781  0.5021  0.5872  0.5189
  580MOL0     H80027   8.827   8.345   4.857 -0.5350 -0.0565  3.0859
  580MOL0     H80028   8.605   8.479   4.884 -0.6076  2.6049  0.5899
  580MOL0     H80029   8.657   8.334   4.973  0.8377  0.6600 -4.6272
  580MOL0     H80030   8.493   8.558   5.085 -0.1695  0.3541 -1.4751
  580MOL0     H80031   8.528   8.411   5.181 -0.5747 -0.7697  0.2102
  580MOL0     H80032   8.305   8.404   5.109  0.3299  1.5663 -0.3549
  580MOL0     H80033   8.351   8.445   4.943  1.2694  1.5588  0.2966
  580MOL0     H80034   8.391   8.184   5.075  1.0854  0.3572 -0.0754
  580MOL0     H80035   8.457   8.227   4.907  1.2482  1.7524 -0.8296
  580MOL0     H80036   8.115   8.173   4.748 -1.7951  1.7709  0.6476
  580MOL0     H80037   8.903   8.679   5.088  0.8734  1.5979 -1.3525
  580MOL0     H80038   9.102   8.804   5.078 -0.7999 -2.1823  0.6827
  580MOL0     H80039   9.253   8.710   5.061  1.2748  0.5560 -1.4420
  580MOL0     H80040   9.190   8.807   4.927 -2.0994  1.5012 -0.2055
  581MOL0     O80041   9.130   7.630   5.479 -0.1560  0.7243  0.1619
  581MOL0     C80042   9.101   7.573   5.587  0.0436  0.4130 -0.6532
  581MOL0     O80043   9.121   7.628   5.709  0.1082 -0.3319 -0.3356
  581MOL0     C80044   9.179   7.746   5.716 -0.6008  0.1883  0.3559
  581MOL0     C80045   9.134   7.855   5.795 -0.1919  0.7927 -0.5080
  581MOL0     C80046   9.206   7.976   5.804 -0.0657 -0.4054 -0.4625
  581MOL0     C80047   9.331   7.990   5.735  0.0263  0.3360 -0.4494
  581MOL0     O80048   9.396   8.113   5.750 -0.2025 -0.6177  0.0399
  581MOL0     C80049   9.526   8.107   5.805  0.0040 -0.8996 -0.2661
  581MOL0     C80050   9.637   8.128   5.707 -0.3748 -1.0251  0.2605
  581MOL0     C80051   9.654   8.273   5.665  0.2140 -0.2621  0.8509
  581MOL0     C80052   9.704   8.378   5.763  0.0348  0.5222 -0.1628
  581MOL0     C80053   9.845   8.345   5.827 -0.2811  0.4734 -0.6399
  581MOL0     C80054   9.966   8.353   5.719  0.7797 -0.1889  0.9898
  581MOL0     C80055  10.107   8.384   5.776  0.2785  0.0837 -0.1767
  581MOL0     C80056  10.161   8.259   5.839  0.0888 -0.4589  0.2710
  581MOL0     N80057  10.309   8.254   5.833 -0.1446  0.7481 -0.5866
  581MOL0     C80058  10.393   8.234   5.943 -0.3032 -0.2038  0.4796
  581MOL0     C80059  10.524   8.249   5.886  0.9127 -0.0718 -1.5277
  581MOL0     C80060  10.634   8.253   5.986 -0.4824  0.5063 -0.4214
  581MOL0     C80061  10.767   8.265   5.917 -0.3338  0.5423 -0.5055
  581MOL0     C80062  10.893   8.238   6.011  0.1122 -0.3522 -0.7087
  581MOL0     C80063  11.026   8.244   5.931  0.2907  0.2627  0.0292
  581MOL0     O80064  11.121   8.226   6.036  0.2407  0.4407 -0.8235
  581MOL0     C80065  11.256   8.246   6.011  0.2520 -0.2559  0.2354
  581MOL0     C80066  11.311   8.282   5.889 -0.1704  0.7184 -0.0725
  581MOL0     C80067  11.454   8.281   5.880 -0.1157 -0.7539  0.9559
  581MOL0     C80068  11.504   8.323   5.745 -0.8510 -0.1566 -0.4086
  581MOL0     C80069  11.541   8.253   5.992  0.4223  0.9623  0.4098
  581MOL0     C80070  11.687   8.252   5.997 -0.0532  0.3440  0.4163
  581MOL0     O80071  11.746   8.253   6.121  0.2576  0.2296 -0.1292
  581MOL0     C80072  11.880   8.233   6.134  0.3364 -0.7813  1.0769
  581MOL0     C80073  11.974   8.302   6.054 -0.2473  0.7775 -0.0144
  581MOL0     C80074  12.105   8.290   6.100 -0.1465 -0.6490  0.3058
  581MOL0     C80075  12.149   8.226   6.214 -0.9663  0.1183  0.0577
  581MOL0     O80076  12.277   8.243   6.265 -0.0508  0.5902  0.7778
  581MOL0     C80077  12.290   8.352   6.360 -0.3975 -0.6761 -0.5181
  581MOL0     C80078  12.300   8.302   6.502 -0.4306  0.3016  0.3797
  581MOL0     C80079  12.437   8.248   6.543 -0.0837 -0.6894 -0.2956
  581MOL0     C80080  12.460   8.252   6.699  0.3641 -0.6179  0.1023
  581MOL0     C80081  12.594   8.196   6.752  0.1273  0.3442  0.5987
  581MOL0     C80082  12.721   8.279   6.714  0.1361 -0.1010  0.0732
  581MOL0     C80083  12.829   8.215   6.787  0.0240 -0.1970 -0.1253
  581MOL0     C80084  12.960   8.290   6.755 -0.5870 -0.4032 -0.8775
  581MOL0    Cl80085  13.092   8.171   6.773  0.2067  0.0747 -0.2538
  581MOL0     C80086  12.049   8.160   6.288 -0.2846  0.5907  0.9939
  581MOL0     C80087  11.918   8.166   6.239 -0.8885 -0.4572 -0.2580
  581MOL0     O80088  11.754   8.240   5.890  0.6612 -0.5115 -0.1510
  581MOL0     C80089  11.477   8.221   6.113  0.2390  0.5065  0.1224
  581MOL0     C80090  11.340   8.218   6.122  0.1976 -0.1261  0.1052
  581MOL0     N80091  10.511   8.269   5.749 -0.1477  0.3234 -0.5551
  581MOL0     N80092  10.385   8.263   5.721  0.5733  0.1149  0.1647
  581MOL0     C80093   9.374   7.885   5.659 -0.1914  0.7728  0.4786
  581MOL0     C80094   9.305   7.764   5.652  0.2679  0.2181  0.5169
  581MOL0     C80095   9.058   7.429   5.595  0.2423  0.0281 -0.3123
  581MOL0     C80096   9.053   7.357   5.720 -0.8755 -0.0875 -0.0798
  581MOL0     C80097   9.013   7.224   5.723 -0.5100  0.9450 -0.0716
  581MOL0     C80098   9.002   7.145   5.607  0.6131 -0.6522  0.2963
  581MOL0     O80099   8.967   7.016   5.604  0.6917 -0.5958  0.7088
  581MOL0     C80100   8.945   6.925   5.712  0.5240  0.2248  0.1970
  581MOL0     C80101   9.067   6.832   5.749  0.8375  0.4548  0.4200
  581MOL0     C80102   9.210   6.906   5.735  0.6421 -0.1787  0.1709
  581MOL0     C80103   9.317   6.800   5.741  0.0627  0.6169 -0.2794
  581MOL0     C80104   9.438   6.870   5.794 -0.4568  0.3036 -0.3085
  581MOL0     C80105   9.538   6.915   5.851  0.1445 -1.0176 -0.2204
  581MOL0     C80106   9.003   7.215   5.487 -1.0981  0.3090  0.2075
  581MOL0     C80107   9.026   7.357   5.476 -0.0514  0.4034 -0.0229
  581MOL0     C80108   9.033   7.410   5.333 -0.2185  0.5848 -0.5107
  581MOL0     H80109   9.045   7.840   5.854 -0.2335  1.1420 -0.4841
  581MOL0     H80110   9.161   8.062   5.853 -0.1643 -0.2423 -0.8290
  581MOL0     H80111   9.555   8.014   5.856  2.8719  0.9059  1.7076
  581MOL0     H80112   9.523   8.192   5.874 -0.0009 -0.9152 -0.2471
  581MOL0     H80113   9.730   8.094   5.755  1.1459  1.9673 -0.3490
  581MOL0     H80114   9.613   8.063   5.623 -0.0169 -0.1605 -0.5272
  581MOL0     H80115   9.728   8.264   5.585  0.1891  1.5430  0.5921
  581MOL0     H80116   9.554   8.295   5.626  1.3850 -0.4395 -2.6346
  581MOL0     H80117   9.713   8.475   5.715 -1.3756  1.1311  0.7198
  581MOL0     H80118   9.628   8.399   5.840  0.0603  1.6807 -0.4470
  581MOL0     H80119   9.849   8.254   5.888  1.0726  2.1271  1.8939
  581MOL0     H80120   9.869   8.425   5.897  2.5501 -1.3803  0.6992
  581MOL0     H80121   9.963   8.266   5.653 -1.5084 -0.1838  0.9857
  581MOL0     H80122   9.944   8.437   5.652  1.6208  0.8570  1.9795
  581MOL0     H80123  10.103   8.464   5.850 -2.2422 -1.0784  1.0861
  581MOL0     H80124  10.171   8.425   5.698 -2.3024  0.7071 -2.1106
  581MOL0     H80125  10.121   8.239   5.938 -1.9375 -0.4566 -0.4952
  581MOL0     H80126  10.126   8.173   5.780 -0.6128  0.4114 -0.6360
  581MOL0     H80127  10.357   8.216   6.044  0.1240  1.4616  0.9654
  581MOL0     H80128  10.627   8.171   6.058 -1.3379  0.6731 -0.3041
  581MOL0     H80129  10.615   8.346   6.040 -0.5723  1.7854 -2.5625
  581MOL0     H80130  10.774   8.187   5.841  2.3633  1.2322 -1.0803
  581MOL0     H80131  10.769   8.362   5.867  0.9137  1.3042  0.9257
  581MOL0     H80132  10.898   8.302   6.099  0.9100  0.4969 -1.3431
  581MOL0     H80133  10.888   8.139   6.057 -0.6821  0.4152  0.9283
  581MOL0     H80134  11.024   8.168   5.852 -2.9066 -2.5998  2.5820
  581MOL0     H80135  11.034   8.345   5.889 -1.5287  0.1461 -0.7115
  581MOL0     H80136  11.252   8.307   5.801  1.9452 -1.8102 -2.3820
  581MOL0     H80137  11.427   8.333   5.668 -1.5366 -2.3453 -0.0744
  581MOL0     H80138  11.579   8.251   5.711  2.4978  2.1166  1.5994
  581MOL0     H80139  11.552   8.421   5.749 -0.8148 -0.2045  0.7205
  581MOL0     H80140  11.941   8.362   5.970  1.5420  0.2701 -1.1382
  581MOL0     H80141  12.186   8.347   6.056  0.2910  0.1110  2.0426
  581MOL0     H80142  12.383   8.406   6.341  0.5730 -1.9057  0.5888
  581MOL0     H80143  12.205   8.421   6.353 -0.4535 -0.6816  0.0282
  581MOL0     H80144  12.267   8.383   6.569  0.3518  0.7205  0.2655
  581MOL0     H80145  12.225   8.223   6.513  0.7726 -1.8917 -4.5359
  581MOL0     H80146  12.516   8.306   6.495  1.7995 -3.7476 -1.1716
  581MOL0     H80147  12.435   8.147   6.501 -0.8361 -0.6188 -0.4597
  581MOL0     H80148  12.380   8.200   6.753  0.5280 -4.2499 -2.7517
  581MOL0     H80149  12.459   8.358   6.723 -1.6467 -0.6114  0.1198
  581MOL0     H80150  12.598   8.202   6.861 -0.1370  2.2607  0.5415
  581MOL0     H80151  12.604   8.094   6.714 -0.3599  0.5972 -0.2397
  581MOL0     H80152  12.710   8.382   6.749 -1.7036  0.9050 -3.0598
  581MOL0     H80153  12.742   8.276   6.607  0.5480 -0.7241  0.1705
  581MOL0     H80154  12.839   8.110   6.759  1.1662 -0.1152 -0.0659
  581MOL0     H80155  12.816   8.219   6.895  0.1158  2.1610 -0.1365
  581MOL0     H80156  12.983   8.379   6.815  1.1399 -0.1613 -1.8296
  581MOL0     H80157  12.961   8.333   6.655  3.1643  1.6046 -0.1828
  581MOL0     H80158  12.067   8.099   6.377  2.2694  1.7985  1.4146
  581MOL0     H80159  11.844   8.126   6.307  0.8428  2.0772  3.4603
  581MOL0     H80160  11.523   8.188   6.206 -0.4525 -2.1730 -0.4101
  581MOL0     H80161  11.297   8.190   6.218  0.0396  0.1242  0.1076
  581MOL0     H80162   9.462   7.893   5.597 -1.2643 -1.7822 -1.5436
  581MOL0     H80163   9.345   7.682   5.593 -1.2422  1.4943 -2.4690
  581MOL0     H80164   9.087   7.410   5.808 -0.8135 -2.1438  1.2002
  581MOL0     H80165   8.999   7.171   5.817 -0.7105 -0.6787 -0.9764
  581MOL0     H80166   8.910   6.967   5.806 -1.7719 -2.1929  0.5484
  581MOL0     H80167   8.861   6.859   5.686  0.8796  0.4786 -1.7342
  581MOL0     H80168   9.067   6.754   5.673 -1.3551  1.2879 -0.5164
  581MOL0     H80169   9.054   6.794   5.851 -3.1138  0.8226  0.1856
  581MOL0     H80170   9.209   6.955   5.637 -1.6697  3.0751  1.6688
  581MOL0     H80171   9.223   6.979   5.815  0.6711 -0.5876  0.5450
  581MOL0     H80172   9.343   6.747   5.648  0.9196 -0.3485  0.4830
  581MOL0     H80173   9.275   6.719   5.802 -2.9829 -0.1563 -3.1298
  581MOL0     H80174   9.630   6.960   5.883 -0.7553  0.7592  0.0131
  581MOL0     H80175   8.975   7.161   5.397 -3.0122 -0.2834  1.1074
  581MOL0     H80176   9.009   7.330   5.262  0.7753  1.6388 -2.1028
  581MOL0     H80177   8.967   7.495   5.318 -1.4577 -0.5755 -1.9690
  581MOL0     H80178   9.136   7.442   5.314  0.5447 -1.6019 -0.4400
  582MOL0     O80179   3.377   1.678   9.426  0.4354  0.4430 -0.5243
  582MOL0     C80180   3.393   1.559   9.469  0.5240 -0.4471  0.0290
  582MOL0     O80181   3.513   1.492   9.483  0.4198 -0.4715  0.4547
  582MOL0     C80182   3.631   1.554   9.457 -0.3151 -0.1519  0.8854
  582MOL0     C80183   3.669   1.681   9.520 -0.0372 -0.1187 -1.2605
  582MOL0     C80184   3.799   1.737   9.510 -0.3091 -0.1592 -0.9070
  582MOL0     C80185   3.896   1.685   9.423  1.1104  0.2153 -0.7535
  582MOL0     O80186   4.012   1.754   9.412  0.1553 -0.2948 -0.3856
  582MOL0     C80187   4.092   1.742   9.291  0.2293 -0.1815  0.1117
  582MOL0     C80188   4.209   1.656   9.326 -0.2591 -0.7072 -0.1712
  582MOL0     C80189   4.292   1.703   9.453  0.0239  0.5048 -0.3827
  582MOL0     C80190   4.348   1.842   9.445 -0.0301  0.7587 -0.6885
  582MOL0     C80191   4.440   1.869   9.563 -0.1037 -0.3997  0.2692
  582MOL0     C80192   4.500   2.015   9.563 -0.5459 -0.2770  0.1105
  582MOL0     C80193   4.505   2.083   9.699 -0.5380  0.9851  0.5253
  582MOL0     C80194   4.643   2.151   9.731  0.7390  0.2941  0.5733
  582MOL0     N80195   4.738   2.062   9.806 -0.2559  0.2264 -0.3573
  582MOL0     C80196   4.761   2.076   9.939  0.1540  0.3731 -0.0534
  582MOL0     C80197   4.867   1.996   9.961 -0.0565 -1.0717 -0.0709
  582MOL0     C80198   4.939   1.990  10.092 -0.0324 -0.0684  0.1384
  582MOL0     C80199   5.065   2.082  10.108  0.6346  0.4837 -0.5965
  582MOL0     C80200   5.186   2.025  10.037 -0.8607 -0.3449 -0.6589
  582MOL0     C80201   5.297   2.007  10.142  0.1595  0.1011 -0.2591
  582MOL0     O80202   5.333   2.133  10.202  0.0455 -0.2997 -0.3545
  582MOL0     C80203   5.442   2.136  10.277 -1.0372  0.5542  0.9722
  582MOL0     C80204   5.509   2.023  10.337  0.2737 -0.4076 -0.5933
  582MOL0     C80205   5.618   2.027  10.421 -0.6152  0.4293 -0.1814
  582MOL0     C80206   5.666   1.898  10.494  0.2338 -0.0897 -1.3095
  582MOL0     C80207   5.662   2.154  10.460 -0.6649  0.3698  0.7693
  582MOL0     C80208   5.764   2.184  10.557 -0.8111  0.0304 -0.2831
  582MOL0     O80209   5.773   2.320  10.590  0.0074 -0.0043  0.3009
  582MOL0     C80210   5.860   2.357  10.697  0.2818  0.6295  0.7220
  582MOL0     C80211   5.873   2.294  10.821  0.3235 -0.0379 -0.0965
  582MOL0     C80212   5.967   2.336  10.909  0.7300  0.6195  0.3634
  582MOL0     C80213   6.050   2.440  10.877 -0.4938 -0.4186  0.4467
  582MOL0     O80214   6.139   2.473  10.973  0.9862 -0.3902 -0.4129
  582MOL0     C80215   6.236   2.573  10.935 -0.3889  0.3745 -0.2919
  582MOL0     C80216   6.349   2.583  11.040  0.4157  0.5161  0.4636
  582MOL0     C80217   6.490   2.587  10.974 -0.9270 -0.7733 -1.0333
  582MOL0     C80218   6.610   2.627  11.059  0.4749  0.3402  0.2879
  582MOL0     C80219   6.743   2.642  10.985 -0.2917 -0.6337 -0.0078
  582MOL0     C80220   6.863   2.656  11.083 -0.0234 -0.6054 -0.4244
  582MOL0     C80221   6.975   2.704  10.996  0.6322  0.8257  0.0688
  582MOL0     C80222   7.095   2.735  11.073 -1.9368  0.1644 -0.3281
  582MOL0    Cl80223   7.195   2.588  11.113 -0.1070  0.0502 -0.0680
  582MOL0     C80224   6.035   2.510  10.759  0.4890  0.2265 -0.0766
  582MOL0     C80225   5.936   2.465  10.665 -0.0925  0.5142 -0.6976
  582MOL0     O80226   5.845   2.103  10.602 -0.7109  0.1624 -0.2776
  582MOL0     C80227   5.599   2.269  10.398  0.3872 -0.3117  0.0520
  582MOL0     C80228   5.489   2.262  10.305 -0.0437  0.4646 -0.2086
  582MOL0     N80229   4.907   1.934   9.847  0.7799 -0.3749  0.3819
  582MOL0     N80230   4.831   1.975   9.752  0.5743 -0.1081 -0.6318
  582MOL0     C80231   3.852   1.560   9.360  0.6166 -0.3561  0.4367
  582MOL0     C80232   3.732   1.498   9.380  0.9653 -0.1367  0.7384
  582MOL0     C80233   3.274   1.497   9.517  0.0044 -0.1027  0.3446
  582MOL0     C80234   3.275   1.428   9.644 -0.3731  0.3412 -0.0611
  582MOL0     C80235   3.159   1.382   9.712  0.4053 -1.0323 -0.9238
  582MOL0     C80236   3.033   1.389   9.653  0.3271  0.1425  0.6682
  582MOL0     O80237   2.925   1.336   9.724 -0.7831 -0.1325  0.2233
  582MOL0     C80238   2.796   1.298   9.664  0.0456  0.7292  0.1138
  582MOL0     C80239   2.695   1.412   9.680 -0.6184 -0.1100 -0.0593
  582MOL0     C80240   2.543   1.369   9.670 -1.7946  0.0384 -0.5803
  582MOL0     C80241   2.453   1.457   9.753 -0.3998  0.1604  0.3120
  582MOL0     C80242   2.313   1.444   9.734 -0.5733  0.7039  0.3657
  582MOL0     C80243   2.198   1.431   9.745  0.7862  0.2202 -0.2291
  582MOL0     C80244   3.033   1.449   9.523 -0.6638 -0.6738  0.5744
  582MOL0     C80245   3.145   1.508   9.459  0.5323 -0.4033 -0.0091
  582MOL0     C80246   3.122   1.587   9.328  0.2439 -0.6171  0.1390
  582MOL0     H80247   3.600   1.737   9.582  0.1698  0.4508 -1.5339
  582MOL0     H80248   3.826   1.827   9.564 -2.6144 -1.1162  2.1210
  582MOL0     H80249   4.125   1.844   9.270  1.8811 -0.6924  0.0988
  582MOL0     H80250   4.039   1.709   9.201  1.4426 -0.1368 -0.6352
  582MOL0     H80251   4.175   1.554   9.342 -0.5496 -0.5763  0.0603
  582MOL0     H80252   4.271   1.648   9.237 -2.4340 -1.2620 -1.7218
  582MOL0     H80253   4.239   1.679   9.545  1.1176 -3.0827 -0.5260
  582MOL0     H80254   4.378   1.635   9.449 -0.6746 -0.3501 -1.6967
  582MOL0     H80255   4.406   1.851   9.353  0.0671  0.5224 -0.6513
  582MOL0     H80256   4.266   1.914   9.437  0.0723  1.5218  3.0696
  582MOL0     H80257   4.520   1.795   9.579 -0.9911 -0.9383  2.6475
  582MOL0     H80258   4.381   1.852   9.653  0.2478 -1.3399  0.3337
  582MOL0     H80259   4.598   2.013   9.515 -0.5796 -1.1890  0.0538
  582MOL0     H80260   4.439   2.090   9.511 -2.1054 -0.8549  1.0341
  582MOL0     H80261   4.495   2.012   9.782  2.0660  0.0913  0.1573
  582MOL0     H80262   4.424   2.157   9.700  0.8673  2.6190  0.1297
  582MOL0     H80263   4.684   2.202   9.643 -0.2179  1.2372  0.6440
  582MOL0     H80264   4.617   2.239   9.790  1.2973  2.6851 -2.4747
  582MOL0     H80265   4.715   2.149  10.006  1.3176  1.1966 -0.1415
  582MOL0     H80266   4.977   1.887  10.101  0.3095 -0.1333 -1.7636
  582MOL0     H80267   4.869   2.011  10.173 -0.7004 -2.5938  0.3098
  582MOL0     H80268   5.025   2.176  10.067 -1.2834 -0.4692 -1.0306
  582MOL0     H80269   5.079   2.101  10.215 -2.2399  0.6421 -0.1706
  582MOL0     H80270   5.176   1.926   9.991  1.5866 -1.1888  0.4579
  582MOL0     H80271   5.211   2.100   9.960 -1.5839  1.8392  1.1224
  582MOL0     H80272   5.257   1.948  10.225 -1.4562  2.3899  0.7244
  582MOL0     H80273   5.387   1.961  10.102 -0.9491 -2.1087 -0.3519
  582MOL0     H80274   5.469   1.925  10.315  0.8968 -0.6920 -0.4705
  582MOL0     H80275   5.670   1.901  10.603  0.2237  0.8258 -1.3194
  582MOL0     H80276   5.769   1.872  10.470  0.5654 -0.3983  0.3187
  582MOL0     H80277   5.605   1.814  10.462  0.2710 -0.0393 -1.5131
  582MOL0     H80278   5.809   2.213  10.856  0.9849 -0.5947 -0.1654
  582MOL0     H80279   5.989   2.292  11.006  0.7282 -1.4100 -0.5023
  582MOL0     H80280   6.280   2.549  10.838  1.8680  0.3805  0.6705
  582MOL0     H80281   6.184   2.669  10.928  1.1014  1.1115 -1.8546
  582MOL0     H80282   6.325   2.672  11.099  0.3375  2.6660 -2.5974
  582MOL0     H80283   6.348   2.501  11.112  3.3854  0.0183  0.0685
  582MOL0     H80284   6.496   2.651  10.885  1.8629  0.7206  0.0993
  582MOL0     H80285   6.506   2.490  10.925 -1.6317 -0.2038 -2.4455
  582MOL0     H80286   6.624   2.547  11.132 -0.9047 -0.3671 -0.1856
  582MOL0     H80287   6.599   2.722  11.112  2.0384 -1.5571  4.4481
  582MOL0     H80288   6.762   2.554  10.923  2.7081  0.1063 -0.2618
  582MOL0     H80289   6.739   2.733  10.924  0.6743 -1.7171 -1.7793
  582MOL0     H80290   6.877   2.560  11.134  2.0379 -0.5396 -0.7643
  582MOL0     H80291   6.841   2.731  11.159  3.1647 -0.4685  0.5111
  582MOL0     H80292   6.936   2.794  10.947 -1.1756  1.1432  1.9769
  582MOL0     H80293   7.000   2.624  10.926  0.2147  0.6905  0.0723
  582MOL0     H80294   7.065   2.795  11.159  0.6250  0.6255  0.3442
  582MOL0     H80295   7.160   2.800  11.013 -1.4903  1.1369  1.1484
  582MOL0     H80296   6.094   2.599  10.738 -0.7730  1.3703  1.0422
  582MOL0     H80297   5.929   2.514  10.568 -1.1851 -1.3780 -1.6263
  582MOL0     H80298   5.634   2.369  10.422 -1.0974  0.0501  0.8687
  582MOL0     H80299   5.444   2.349  10.257 -3.1076 -0.0003  1.5220
  582MOL0     H80300   3.898   1.509   9.276 -2.6856 -0.8071 -1.2347
  582MOL0     H80301   3.718   1.405   9.325 -0.3969  1.4487 -1.7695
  582MOL0     H80302   3.373   1.414   9.689 -0.9723 -0.3856  1.0435
  582MOL0     H80303   3.164   1.330   9.807  0.7047  1.0479  0.2460
  582MOL0     H80304   2.792   1.269   9.559 -0.8212 -1.6270  0.7269
  582MOL0     H80305   2.756   1.210   9.716  1.4659  0.4216  0.7466
  582MOL0     H80306   2.714   1.501   9.620 -1.0219 -0.3275 -0.5121
  582MOL0     H80307   2.715   1.442   9.784 -2.3106 -0.8075  0.4930
  582MOL0     H80308   2.516   1.373   9.564 -0.7259  0.7600 -0.8370
  582MOL0     H80309   2.530   1.264   9.697  0.8761 -1.0004 -2.8712
  582MOL0     H80310   2.465   1.556   9.707 -2.0368  0.2649  0.0815
  582MOL0     H80311   2.490   1.465   9.856  2.1125  0.0674 -0.5029
  582MOL0     H80312   2.092   1.427   9.761  0.6849  0.0834 -0.9155
  582MOL0     H80313   2.930   1.456   9.489 -1.5052  1.8852  3.1902
  582MOL0     H80314   3.189   1.552   9.248 -2.0205 -1.1791 -1.6132
  582MOL0     H80315   3.017   1.582   9.298 -0.1436  2.2607  0.6928
  582MOL0     H80316   3.140   1.694   9.343 -3.0676  0.2789 -1.4965
  583MOL0     O80317   1.106   9.305   5.345  0.4219 -0.0310 -0.3071
  583MOL0     C80318   1.109   9.426   5.333 -0.1243  0.5402  0.6343
  583MOL0     O80319   1.223   9.496   5.312 -0.6491 -0.1340  0.0353
  583MOL0     C80320   1.353   9.446   5.328  0.4216  0.6044  0.0083
  583MOL0     C80321   1.381   9.338   5.414 -0.2246  0.6927  0.4639
  583MOL0     C80322   1.513   9.296   5.437  0.2579  0.1410 -0.6986
  583MOL0     C80323   1.622   9.359   5.368  0.1716 -0.1833  0.0045
  583MOL0     O80324   1.750   9.322   5.385 -0.1609 -0.1511 -0.1952
  583MOL0     C80325   1.857   9.374   5.302 -0.0926 -0.6035  0.5106
  583MOL0     C80326   2.002   9.329   5.326  0.3494 -0.3483  0.2225
  583MOL0     C80327   2.049   9.371   5.467 -0.6301  0.0478  0.8505
  583MOL0     C80328   2.184   9.310   5.497  0.7126  0.6671  0.5272
  583MOL0     C80329   2.232   9.363   5.626  0.4252  0.1248 -0.1411
  583MOL0     C80330   2.383   9.335   5.662  0.2563  0.0337 -0.7159
  583MOL0     C80331   2.444   9.194   5.635 -0.1130  0.2635  0.4390
  583MOL0     C80332   2.600   9.192   5.659 -0.1409  0.3274 -0.6496
  583MOL0     N80333   2.664   9.064   5.657 -0.1857 -0.0073  0.6504
  583MOL0     C80334   2.793   9.047   5.678 -0.5938 -0.5381  0.6438
  583MOL0     C80335   2.819   8.920   5.640  0.7304 -0.6065 -0.6516
  583MOL0     C80336   2.958   8.860   5.618  0.7149  0.1253 -0.3622
  583MOL0     C80337   3.062   8.956   5.571  0.2099 -0.0082 -0.3214
  583MOL0     C80338   3.202   8.888   5.557  0.6115 -0.5603 -0.2245
  583MOL0     C80339   3.211   8.771   5.450 -0.5200 -0.2421  0.1691
  583MOL0     O80340   3.343   8.731   5.415 -0.3776 -0.6420 -0.4688
  583MOL0     C80341   3.434   8.819   5.356 -0.3187  0.3068  0.3417
  583MOL0     C80342   3.394   8.933   5.284 -0.2583 -0.6166  0.7784
  583MOL0     C80343   3.489   9.014   5.215  0.7495 -0.1758  0.1391
  583MOL0     C80344   3.433   9.129   5.133 -0.1690 -0.3528 -0.4126
  583MOL0     C80345   3.628   8.980   5.208  0.4754  0.0434 -0.3464
  583MOL0     C80346   3.730   9.043   5.115 -1.0712  0.3451 -0.7842
  583MOL0     O80347   3.849   8.972   5.114  0.3252  0.6093  0.3240
  583MOL0     C80348   3.950   9.014   5.031  0.2555 -0.1667 -0.4533
  583MOL0     C80349   4.030   8.920   4.963  0.1068 -0.3798  0.0932
  583MOL0     C80350   4.124   8.965   4.872  0.6392 -0.0021  0.5095
  583MOL0     C80351   4.161   9.099   4.860  0.2440 -0.2437  0.2425
  583MOL0     O80352   4.269   9.149   4.792 -0.3590 -0.0043  0.3071
  583MOL0     C80353   4.234   9.204   4.661 -0.2425 -0.3451 -0.0617
  583MOL0     C80354   4.168   9.109   4.569 -0.2303  0.0682  0.6215
  583MOL0     C80355   4.250   8.979   4.547 -0.0262  0.4351  0.6079
  583MOL0     C80356   4.388   9.000   4.494 -0.2394 -0.9289  0.0747
  583MOL0     C80357   4.444   8.871   4.426  0.4307 -0.4105  0.8510
  583MOL0     C80358   4.592   8.893   4.402  0.3216  0.3567  0.4860
  583MOL0     C80359   4.641   8.750   4.354  0.6155 -0.8216 -0.3022
  583MOL0     C80360   4.794   8.728   4.335  0.5441  0.1489  0.3588
  583MOL0    Cl80361   4.838   8.800   4.187  0.0350 -0.1302  0.3579
  583MOL0     C80362   4.089   9.188   4.935  0.0818 -0.2684 -0.3315
  583MOL0     C80363   3.988   9.153   5.019  0.2323  0.3835 -0.2832
  583MOL0     O80364   3.711   9.157   5.064 -0.0970  0.9826  0.5082
  583MOL0     C80365   3.665   8.863   5.277 -0.7466  0.3843 -0.3585
  583MOL0     C80366   3.574   8.786   5.348 -0.5874  0.8175  0.2895
  583MOL0     N80367   2.705   8.859   5.591 -0.2453  0.2704 -0.1548
  583MOL0     N80368   2.611   8.942   5.602 -0.0860  0.0391  0.0120
  583MOL0     C80369   1.591   9.452   5.273  0.7162  0.2286  0.0686
  583MOL0     C80370   1.461   9.503   5.256  0.1118 -0.0374 -0.3328
  583MOL0     C80371   0.980   9.502   5.325 -0.3642 -0.7091  0.4972
  583MOL0     C80372   0.987   9.636   5.373  0.9969  0.4949  0.2004
  583MOL0     C80373   0.868   9.717   5.370 -0.3294  0.4354  0.3656
  583MOL0     C80374   0.747   9.660   5.315  0.0650 -0.4518 -0.4911
  583MOL0     O80375   0.642   9.734   5.293 -0.3086  0.2590  0.2516
  583MOL0     C80376   0.616   9.842   5.383  0.5108 -0.0843 -0.0991
  583MOL0     C80377   0.469   9.869   5.387 -0.2322  0.8988 -0.3586
  583MOL0     C80378   0.383   9.756   5.455  0.0068 -0.2070  0.5445
  583MOL0     C80379   0.247   9.821   5.488 -0.2983 -1.0185  0.0716
  583MOL0     C80380   0.174   9.831   5.356  0.2392 -0.0578  0.3676
  583MOL0     C80381   0.110   9.848   5.256 -0.2145 -0.6938  1.0910
  583MOL0     C80382   0.744   9.528   5.271 -0.0501  0.2806 -0.3887
  583MOL0     C80383   0.855   9.443   5.279 -0.1978 -0.3373 -0.2346
  583MOL0     C80384   0.834   9.298   5.236  0.6556  0.3996  0.0296
  583MOL0     H80385   1.298   9.305   5.475 -0.8468  1.2284 -0.0841
  583MOL0     H80386   1.542   9.227   5.515  0.8394 -1.3441 -2.1694
  583MOL0     H80387   1.865   9.483   5.307  5.6340 -0.6162 -0.8746
  583MOL0     H80388   1.839   9.351   5.196  0.6668 -0.1079  0.2646
  583MOL0     H80389   2.023   9.223   5.309  0.6378 -0.4079  0.8964
  583MOL0     H80390   2.055   9.398   5.260  1.1820  0.8774  2.0680
  583MOL0     H80391   2.064   9.479   5.460 -0.5261 -0.0627 -1.5381
  583MOL0     H80392   1.973   9.349   5.542 -2.6757  1.5466 -0.6603
  583MOL0     H80393   2.168   9.202   5.502  0.3170  0.7301  0.6769
  583MOL0     H80394   2.256   9.335   5.418 -0.3331  0.5515 -0.4909
  583MOL0     H80395   2.180   9.323   5.714  2.0359 -2.4768 -0.2689
  583MOL0     H80396   2.238   9.472   5.641  1.9690 -0.2063  2.2141
  583MOL0     H80397   2.443   9.413   5.615 -0.1828  1.5228  1.0787
  583MOL0     H80398   2.379   9.346   5.771  0.2217  1.1811 -0.8208
  583MOL0     H80399   2.419   9.178   5.529 -5.2467 -1.3971  1.6441
  583MOL0     H80400   2.396   9.120   5.698 -2.2622  0.5787 -0.7254
  583MOL0     H80401   2.654   9.262   5.594  0.2157 -1.1368 -1.9834
  583MOL0     H80402   2.606   9.220   5.764  0.5261  2.7074 -1.2463
  583MOL0     H80403   2.867   9.124   5.699  0.0074 -1.3450  1.5711
  583MOL0     H80404   2.949   8.789   5.535 -2.1758  0.3948 -0.3602
  583MOL0     H80405   2.991   8.808   5.708  0.1483  1.9880  0.9790
  583MOL0     H80406   3.032   8.992   5.472 -1.4720  3.7938  1.3664
  583MOL0     H80407   3.058   9.035   5.647 -3.6232 -1.4012  1.1880
  583MOL0     H80408   3.274   8.964   5.523  1.2174 -1.8235 -1.8760
  583MOL0     H80409   3.230   8.840   5.651 -1.0465 -2.6128 -0.7208
  583MOL0     H80410   3.157   8.681   5.480 -1.6871  0.3023 -0.2262
  583MOL0     H80411   3.158   8.811   5.363 -2.2997  1.7582  2.0588
  583MOL0     H80412   3.293   8.973   5.285 -0.4001 -0.9389 -0.1552
  583MOL0     H80413   3.327   9.132   5.158 -0.4130  0.0969 -1.4445
  583MOL0     H80414   3.434   9.105   5.026  1.9786  1.8752 -0.9851
  583MOL0     H80415   3.470   9.229   5.157  2.3718 -0.6021 -2.7980
  583MOL0     H80416   4.002   8.815   4.977 -1.7339 -0.0528 -0.7546
  583MOL0     H80417   4.190   8.892   4.827 -0.5610  0.9384 -3.1732
  583MOL0     H80418   4.172   9.291   4.682  1.9188  1.0264  0.9012
  583MOL0     H80419   4.325   9.247   4.619  0.2356 -0.8335  0.4700
  583MOL0     H80420   4.074   9.090   4.620 -1.2859  2.7804 -0.1768
  583MOL0     H80421   4.143   9.158   4.475 -1.2393 -0.0713  0.8139
  583MOL0     H80422   4.200   8.918   4.471  2.7690 -1.7093  0.3313
  583MOL0     H80423   4.268   8.925   4.641  1.5497  3.1360  2.0104
  583MOL0     H80424   4.450   9.050   4.569  0.2585 -0.3844 -0.6790
  583MOL0     H80425   4.387   9.075   4.415  6.6846  0.7205  0.9299
  583MOL0     H80426   4.426   8.783   4.488 -5.5740 -0.7071 -0.7228
  583MOL0     H80427   4.385   8.868   4.334  0.6487 -0.9979  0.7326
  583MOL0     H80428   4.640   8.917   4.497  1.5774 -1.4648  0.3524
  583MOL0     H80429   4.614   8.969   4.327 -0.4667 -0.8028 -0.9694
  583MOL0     H80430   4.596   8.744   4.255 -1.0192  0.4933  0.3133
  583MOL0     H80431   4.618   8.674   4.430  0.7379  0.2717  0.8770
  583MOL0     H80432   4.814   8.621   4.338  2.9415  0.5654  1.3446
  583MOL0     H80433   4.846   8.779   4.417  3.2095 -2.2132  0.2862
  583MOL0     H80434   4.124   9.289   4.917  0.5271  0.0382  1.9109
  583MOL0     H80435   3.944   9.232   5.079 -1.0233  0.2152 -0.9425
  583MOL0     H80436   3.765   8.823   5.277 -1.2183 -0.8282 -0.2844
  583MOL0     H80437   3.604   8.690   5.389  0.9017  0.4957 -1.4420
  583MOL0     H80438   1.664   9.506   5.213 -0.2584  4.1350  2.1034
  583MOL0     H80439   1.434   9.572   5.177  1.1915  1.0590  0.2052
  583MOL0     H80440   1.082   9.663   5.417  0.9066 -0.1316  0.8044
  583MOL0     H80441   0.874   9.821   5.400 -0.7934 -0.0254  2.1559
  583MOL0     H80442   0.640   9.821   5.488  0.7577  1.5244  0.1930
  583MOL0     H80443   0.671   9.931   5.351  1.8259  1.1393  4.7457
  583MOL0     H80444   0.437   9.875   5.283 -0.7169 -0.8880 -0.3379
  583MOL0     H80445   0.453   9.964   5.440 -2.4038  0.1040  0.4984
  583MOL0     H80446   0.378   9.670   5.387  0.1174  0.4683 -0.3355
  583MOL0     H80447   0.430   9.722   5.548  0.1184  4.5608  2.4933
  583MOL0     H80448   0.253   9.921   5.533 -0.5565 -0.2947 -1.4291
  583MOL0     H80449   0.201   9.744   5.550 -0.3869 -1.5993 -0.7058
  583MOL0     H80450   0.058   9.855   5.162 -1.1217 -0.1973  1.6157
  583MOL0     H80451   0.646   9.492   5.242 -1.3270  2.6970  0.6234
  583MOL0     H80452   0.729   9.287   5.205  0.8375 -0.6578 -0.2371
  583MOL0     H80453   0.912   9.261   5.169  3.7263  2.8275  2.0057
  583MOL0     H80454   0.850   9.246   5.331  1.4339 -1.3336 -1.0082
  584MOL0     O80455   0.407   1.934  10.200  0.2179  0.0809 -0.2241
  584MOL0     C80456   0.319   2.023  10.174  0.3042 -0.1709  0.0908
  584MOL0     O80457   0.349   2.148  10.140 -0.3936  0.4899  0.7656
  584MOL0     C80458   0.469   2.195  10.163 -0.1935  0.0719 -0.1206
  584MOL0     C80459   0.569   2.201  10.058  0.1539  0.9495 -0.4003
  584MOL0     C80460   0.704   2.249  10.074  0.9240 -0.3188  0.3423
  584MOL0     C80461   0.732   2.283  10.205  0.4746 -0.1468 -0.5988
  584MOL0     O80462   0.864   2.316  10.230  0.0590 -0.3017  0.2256
  584MOL0     C80463   0.890   2.383  10.354 -0.0664  0.0691 -0.6975
  584MOL0     C80464   1.047   2.386  10.377 -0.8597  0.5710  0.3806
  584MOL0     C80465   1.102   2.470  10.268  0.1770  0.6716  0.1204
  584MOL0     C80466   1.248   2.473  10.282 -0.3216 -0.3629 -0.6307
  584MOL0     C80467   1.308   2.568  10.180 -0.1651  0.1251  0.0253
  584MOL0     C80468   1.457   2.576  10.177  1.7587 -0.0035 -0.2655
  584MOL0     C80469   1.510   2.616  10.036 -0.1635  0.4040  0.3839
  584MOL0     C80470   1.539   2.493   9.937  0.3087 -0.5150 -0.2869
  584MOL0     N80471   1.601   2.533   9.806 -0.4162  0.5200 -0.3790
  584MOL0     C80472   1.637   2.439   9.717  0.4447 -0.2662 -0.1897
  584MOL0     C80473   1.718   2.504   9.625  0.3396  0.7590 -0.2393
  584MOL0     C80474   1.791   2.444   9.504  0.4728 -0.1602 -0.2103
  584MOL0     C80475   1.935   2.386   9.541  0.4802 -0.3755 -0.7244
  584MOL0     C80476   2.038   2.499   9.556 -0.0888 -0.6650  0.5205
  584MOL0     C80477   2.170   2.441   9.602  0.8320  0.1890  1.2611
  584MOL0     O80478   2.281   2.530   9.574 -0.0399  0.6520 -0.0321
  584MOL0     C80479   2.403   2.487   9.608  0.4428 -0.1972 -0.0287
  584MOL0     C80480   2.511   2.586   9.602  0.7799  1.1206 -0.1142
  584MOL0     C80481   2.645   2.547   9.628  0.2317 -0.5213 -0.8513
  584MOL0     C80482   2.750   2.656   9.623 -0.7183 -0.2842 -0.4225
  584MOL0     C80483   2.676   2.411   9.652  0.3774  0.4580 -0.1659
  584MOL0     C80484   2.814   2.371   9.673  0.3152 -0.1503  0.3441
  584MOL0     O80485   2.894   2.451   9.739 -0.0670 -0.0034  0.1251
  584MOL0     C80486   3.020   2.402   9.761 -0.0958 -0.2987 -0.3143
  584MOL0     C80487   3.119   2.403   9.667  0.0986  0.2362  0.0862
  584MOL0     C80488   3.241   2.337   9.683  0.1951  0.2624  0.0981
  584MOL0     C80489   3.269   2.280   9.808 -0.3144  0.5207  0.6558
  584MOL0     O80490   3.391   2.207   9.815  0.4527  0.5330  0.7255
  584MOL0     C80491   3.414   2.125   9.923  0.3194 -0.1873  0.2200
  584MOL0     C80492   3.560   2.077   9.898  0.0325  0.8259  0.2154
  584MOL0     C80493   3.606   1.978  10.010 -0.9124 -0.3556  0.1229
  584MOL0     C80494   3.735   1.910   9.973  0.7095 -0.7964 -0.7492
  584MOL0     C80495   3.715   1.816   9.856  0.1286  0.1967  0.0516
  584MOL0     C80496   3.840   1.725   9.839  0.5984  0.1689  0.0283
  584MOL0     C80497   3.977   1.784   9.847  0.3564  0.8008 -0.6779
  584MOL0     C80498   4.083   1.669   9.823 -0.3286  0.8195 -0.1500
  584MOL0    Cl80499   4.237   1.725   9.850 -0.1871  0.3568 -0.0501
  584MOL0     C80500   3.166   2.275   9.910  0.1885  0.1870  0.1594
  584MOL0     C80501   3.050   2.345   9.885  0.4529  0.7374  0.2032
  584MOL0     O80502   2.835   2.255   9.646 -0.1118  0.5617  0.3325
  584MOL0     C80503   2.571   2.318   9.656  0.7785  0.1918  0.5101
  584MOL0     C80504   2.433   2.356   9.639 -0.8419  0.9005  0.2281
  584MOL0     N80505   1.724   2.631   9.666  0.7560 -0.8083 -0.2419
  584MOL0     N80506   1.650   2.658   9.778  0.2555  0.2287  0.2888
  584MOL0     C80507   0.635   2.288  10.308  0.4637  0.5841  0.0824
  584MOL0     C80508   0.506   2.234  10.286  0.2546  0.8134  0.9402
  584MOL0     C80509   0.173   1.989  10.189 -0.4102 -0.6936 -0.2689
  584MOL0     C80510   0.077   2.051  10.099  0.2061 -0.2545 -0.0631
  584MOL0     C80511  -0.052   2.013  10.104  1.1680 -0.5814  0.0162
  584MOL0     C80512  -0.095   1.914  10.192 -0.7685 -0.5344 -0.3994
  584MOL0     O80513  -0.226   1.882  10.212  0.2499  0.1622  0.6629
  584MOL0     C80514  -0.313   1.882  10.095 -0.3862 -0.0457 -0.2452
  584MOL0     C80515  -0.454   1.849  10.142 -0.1572  0.2490  0.0810
  584MOL0     C80516  -0.512   1.952  10.232  0.5105 -0.4471 -0.4965
  584MOL0     C80517  -0.549   2.090  10.161 -0.3281  0.0037  0.5040
  584MOL0     C80518  -0.654   2.161  10.229 -0.2463 -0.1173  0.2880
  584MOL0     C80519  -0.745   2.215  10.286  0.7991  0.5962  0.5294
  584MOL0     C80520  -0.006   1.842  10.276  0.0807  0.7956 -0.5620
  584MOL0     C80521   0.132   1.885  10.281  0.6122 -0.7911  0.2755
  584MOL0     C80522   0.225   1.806  10.372  0.2938  0.6181  0.0124
  584MOL0     H80523   0.542   2.159   9.961  0.4292 -2.2060  0.7740
  584MOL0     H80524   0.775   2.254   9.992 -0.1792  0.5664 -0.5992
  584MOL0     H80525   0.852   2.342  10.448 -1.9808  1.8919 -0.5964
  584MOL0     H80526   0.853   2.486  10.350 -0.1893  0.1448  1.4916
  584MOL0     H80527   1.066   2.435  10.472 -1.5863  3.0476 -0.6660
  584MOL0     H80528   1.091   2.287  10.386  0.7659  1.0132 -1.8912
  584MOL0     H80529   1.086   2.428  10.168  2.6473  0.1569 -0.1108
  584MOL0     H80530   1.057   2.569  10.282 -0.6118  0.2142  0.9244
  584MOL0     H80531   1.279   2.503  10.382 -1.1714  1.5492 -0.8942
  584MOL0     H80532   1.290   2.371  10.278  0.2939 -0.3010  2.0219
  584MOL0     H80533   1.263   2.667  10.193  0.9024  0.7250 -0.7421
  584MOL0     H80534   1.273   2.539  10.081 -0.3414  0.1123  0.0902
  584MOL0     H80535   1.488   2.649  10.252 -2.6869 -0.2604  2.1775
  584MOL0     H80536   1.499   2.479  10.204  0.6071  0.1559  2.4548
  584MOL0     H80537   1.602   2.675  10.034  1.1224 -1.4872  0.5371
  584MOL0     H80538   1.431   2.672   9.987 -0.0511 -0.5726 -0.9668
  584MOL0     H80539   1.615   2.439   9.995 -3.0372 -0.2593  5.0002
  584MOL0     H80540   1.456   2.424   9.919  0.3989 -0.4595 -0.9475
  584MOL0     H80541   1.604   2.337   9.704  0.2841 -0.3271  0.6607
  584MOL0     H80542   1.802   2.510   9.418  0.4311 -1.7746 -1.5027
  584MOL0     H80543   1.721   2.376   9.455 -2.3866  0.0403  3.2170
  584MOL0     H80544   1.924   2.323   9.630  0.5916 -3.4636 -2.7546
  584MOL0     H80545   1.954   2.319   9.457 -4.1067 -1.3898 -1.1896
  584MOL0     H80546   2.044   2.559   9.465  0.2758  2.0259  2.2068
  584MOL0     H80547   2.013   2.568   9.637  0.1141 -0.0302  0.0500
  584MOL0     H80548   2.156   2.418   9.707  0.5333 -0.9829  0.9735
  584MOL0     H80549   2.189   2.351   9.543 -1.6266 -0.3734  1.2417
  584MOL0     H80550   2.492   2.691   9.582  1.4216  1.6421  1.8325
  584MOL0     H80551   2.726   2.718   9.536 -0.0197 -1.0501 -1.1839
  584MOL0     H80552   2.854   2.626   9.610  0.7220  3.1167  1.8142
  584MOL0     H80553   2.754   2.714   9.715  1.6787 -1.8574  0.5609
  584MOL0     H80554   3.091   2.458   9.578 -0.1058 -0.2261 -0.1378
  584MOL0     H80555   3.304   2.312   9.598 -1.8708 -1.5876 -0.9918
  584MOL0     H80556   3.406   2.178  10.018  2.2460  0.0166  0.3031
  584MOL0     H80557   3.346   2.040   9.926  2.3522 -1.9072 -0.0820
  584MOL0     H80558   3.571   2.034   9.798 -0.8775 -1.7447  1.1496
  584MOL0     H80559   3.631   2.160   9.903  0.5311  0.4733 -0.7931
  584MOL0     H80560   3.538   1.892  10.009  2.2447 -3.1058 -2.5663
  584MOL0     H80561   3.620   2.028  10.107 -0.3565 -0.4145  0.0758
  584MOL0     H80562   3.771   1.850  10.056 -0.5694 -0.4388  0.0862
  584MOL0     H80563   3.818   1.980   9.956  0.4483  0.0397  1.2293
  584MOL0     H80564   3.630   1.747   9.860  0.6785 -0.5185 -0.3286
  584MOL0     H80565   3.705   1.886   9.772  2.8141  2.5100  1.4918
  584MOL0     H80566   3.817   1.664   9.751 -1.5045  2.1625 -0.9038
  584MOL0     H80567   3.838   1.647   9.916 -1.9307  0.9451  0.8406
  584MOL0     H80568   4.005   1.820   9.946  1.4002 -1.2932 -0.1638
  584MOL0     H80569   3.991   1.867   9.778 -0.1209  0.7485 -0.8412
  584MOL0     H80570   4.066   1.635   9.721 -1.0017  1.1352 -0.1506
  584MOL0     H80571   4.055   1.580   9.880  1.4580 -0.0323 -0.5486
  584MOL0     H80572   3.192   2.238  10.008 -0.1795 -0.2669  0.0897
  584MOL0     H80573   2.964   2.344   9.952 -1.1346  2.0108 -1.7033
  584MOL0     H80574   2.599   2.219   9.690  5.6462  0.1244 -2.7548
  584MOL0     H80575   2.355   2.283   9.653  1.1767 -1.0308  2.2874
  584MOL0     H80576   0.656   2.332  10.405  0.2480  2.1299 -0.5419
  584MOL0     H80577   0.445   2.229  10.376  0.9349  1.7555  1.4817
  584MOL0     H80578   0.121   2.127  10.036  0.6639 -0.6874 -0.2679
  584MOL0     H80579  -0.121   2.080  10.053  2.8077  1.3946  0.2684
  584MOL0     H80580  -0.315   1.984  10.055 -2.3132  0.1511  0.2648
  584MOL0     H80581  -0.278   1.809  10.021  4.1333  0.3957  1.1427
  584MOL0     H80582  -0.451   1.757  10.202  1.1026  0.0488 -0.2533
  584MOL0     H80583  -0.518   1.818  10.059 -0.1035 -0.8320  0.4214
  584MOL0     H80584  -0.599   1.902  10.276 -1.1231  0.7531 -2.1913
  584MOL0     H80585  -0.451   1.960  10.322 -0.3489  0.6506  0.0210
  584MOL0     H80586  -0.586   2.066  10.061  0.3085 -2.8746  0.8688
  584MOL0     H80587  -0.460   2.152  10.147 -0.7233  0.1289 -1.7456
  584MOL0     H80588  -0.833   2.258  10.330  2.0867  0.5921  3.2843
  584MOL0     H80589  -0.037   1.758  10.337  1.5610 -1.4733 -2.7232
  584MOL0     H80590   0.278   1.728  10.317 -1.7764  0.9867 -2.7405
  584MOL0     H80591   0.287   1.878  10.425 -0.5344 -0.9096  3.3280
  584MOL0     H80592   0.176   1.753  10.454  1.8001  1.2601  1.3686
  585MOL0     O80593   0.620  10.460   4.652 -0.0338  0.0181  0.6308
  585MOL0     C80594   0.684  10.453   4.544  0.3940 -0.6492 -0.5712
  585MOL0     O80595   0.633  10.455   4.414  0.2846  0.1537 -0.3630
  585MOL0     C80596   0.490  10.453   4.395  0.1468 -0.4074  0.2777
  585MOL0     C80597   0.405  10.530   4.471 -0.0374  0.1106 -0.0630
  585MOL0     C80598   0.270  10.513   4.455 -0.1896  0.3248 -0.4100
  585MOL0     C80599   0.211  10.430   4.356 -0.3397 -0.1063  0.4072
  585MOL0     O80600   0.082  10.403   4.326 -0.4920 -0.2096  0.1650
  585MOL0     C80601  -0.019  10.439   4.426  0.1420 -0.0042  0.2974
  585MOL0     C80602  -0.147  10.360   4.391  0.4226  0.2414 -0.1592
  585MOL0     C80603  -0.253  10.385   4.489 -0.2815  1.1005  0.0150
  585MOL0     C80604  -0.319  10.526   4.481 -0.5479  0.5326 -0.1989
  585MOL0     C80605  -0.432  10.533   4.574  0.8779 -0.7719 -0.5401
  585MOL0     C80606  -0.519  10.648   4.528 -0.5900  0.4091  0.0297
  585MOL0     C80607  -0.655  10.645   4.616  0.1150 -0.4266 -0.3241
  585MOL0     C80608  -0.728  10.783   4.630 -0.0196  1.3296  0.0756
  585MOL0     N80609  -0.668  10.896   4.700 -0.2209 -0.4916  0.4567
  585MOL0     C80610  -0.585  10.893   4.811  0.4343  0.2145  0.4026
  585MOL0     C80611  -0.530  11.012   4.819 -0.6120 -0.3002  0.4315
  585MOL0     C80612  -0.441  11.056   4.924  0.1444 -0.6099  1.3404
  585MOL0     C80613  -0.303  11.092   4.856  0.3434  1.0244  0.2230
  585MOL0     C80614  -0.201  11.062   4.962 -0.8035 -0.6491 -1.0150
  585MOL0     C80615  -0.068  11.066   4.897  0.2537  0.7368 -0.0098
  585MOL0     O80616   0.036  11.039   4.991  0.1789  0.3777  0.2808
  585MOL0     C80617   0.165  11.064   4.956 -0.2637 -0.2385 -1.0564
  585MOL0     C80618   0.264  11.037   5.050 -0.5697  0.1049 -0.3164
  585MOL0     C80619   0.398  11.068   5.029 -0.4369 -0.6452 -0.1457
  585MOL0     C80620   0.484  11.036   5.153 -0.3745 -0.8809 -0.0912
  585MOL0     C80621   0.431  11.126   4.906 -0.4603  0.1457 -0.0801
  585MOL0     C80622   0.572  11.166   4.871 -0.4531  0.0278 -0.4016
  585MOL0     O80623   0.668  11.107   4.943  0.0274  0.1481  0.6105
  585MOL0     C80624   0.796  11.096   4.899 -0.0433  0.2593 -0.5316
  585MOL0     C80625   0.826  11.053   4.772 -0.0749  0.1782 -0.5851
  585MOL0     C80626   0.953  11.062   4.723 -0.7591  0.0126 -0.0303
  585MOL0     C80627   1.052  11.112   4.807  0.4014  0.3929 -0.3648
  585MOL0     O80628   1.176  11.152   4.770  0.1018  0.4085  0.3103
  585MOL0     C80629   1.235  11.103   4.652  0.0733  0.5746  0.5409
  585MOL0     C80630   1.388  11.111   4.675  0.1604  0.2858 -0.1005
  585MOL0     C80631   1.434  11.255   4.674  0.1579  0.0258  0.3580
  585MOL0     C80632   1.580  11.268   4.652 -0.7207 -0.0256 -0.1377
  585MOL0     C80633   1.652  11.239   4.789  0.2249  0.6152  0.2117
  585MOL0     C80634   1.803  11.246   4.778 -0.4014  0.1541  0.0741
  585MOL0     C80635   1.874  11.210   4.912  0.3475 -0.4653  0.9286
  585MOL0     C80636   2.011  11.147   4.890 -0.0845  0.3249  0.2532
  585MOL0    Cl80637   2.114  11.259   4.806 -0.5082  0.3489 -0.1064
  585MOL0     C80638   1.027  11.139   4.940  0.6996  0.3465 -0.7670
  585MOL0     C80639   0.895  11.148   4.988  0.0803 -0.3032  0.6318
  585MOL0     O80640   0.591  11.251   4.793 -0.2062 -1.0081  0.3451
  585MOL0     C80641   0.328  11.156   4.821  0.4303  0.1773 -0.6199
  585MOL0     C80642   0.196  11.125   4.834  0.5103 -0.1764  0.1986
  585MOL0     N80643  -0.585  11.096   4.726 -0.0340  0.2660 -0.4061
  585MOL0     N80644  -0.665  11.026   4.653 -0.1532 -0.3933 -0.6015
  585MOL0     C80645   0.305  10.379   4.258  0.0359  0.3385 -0.1532
  585MOL0     C80646   0.440  10.383   4.282 -0.1891  0.4234  0.4635
  585MOL0     C80647   0.830  10.453   4.563  0.1324  0.1078  0.1866
  585MOL0     C80648   0.917  10.349   4.511  0.0784  1.1750 -0.2381
  585MOL0     C80649   1.060  10.347   4.529  1.6012 -0.2363 -0.1131
  585MOL0     C80650   1.113  10.449   4.611 -0.0777  0.3931  0.5360
  585MOL0     O80651   1.248  10.461   4.622  0.0900 -0.1939 -0.7632
  585MOL0     C80652   1.334  10.368   4.555  0.2938  0.3319  0.1941
  585MOL0     C80653   1.471  10.390   4.625  0.5629 -0.2942  0.4750
  585MOL0     C80654   1.576  10.293   4.574 -0.2828  0.4905  0.1892
  585MOL0     C80655   1.710  10.343   4.623 -0.1139  0.7221  0.4735
  585MOL0     C80656   1.833  10.300   4.553 -0.2271  0.4485 -0.1002
  585MOL0     C80657   1.937  10.286   4.487 -0.1379 -0.8174 -0.9260
  585MOL0     C80658   1.032  10.551   4.650 -0.8165  0.7644 -1.0331
  585MOL0     C80659   0.897  10.550   4.640  1.0110  0.5342 -0.1430
  585MOL0     C80660   0.827  10.666   4.711 -0.5903 -0.1798  0.0129
  585MOL0     H80661   0.449  10.599   4.542  0.6487  0.0014 -0.3743
  585MOL0     H80662   0.210  10.572   4.524  2.2260  1.8147  0.5652
  585MOL0     H80663  -0.046  10.544   4.416  0.7637  0.3190  1.7927
  585MOL0     H80664   0.015  10.434   4.530  3.2191  2.3464 -0.4474
  585MOL0     H80665  -0.180  10.393   4.292  1.6055 -1.9315 -1.3498
  585MOL0     H80666  -0.138  10.251   4.394  1.1836  0.2884 -0.5281
  585MOL0     H80667  -0.335  10.318   4.459 -0.6056  0.4919  2.0795
  585MOL0     H80668  -0.229  10.367   4.595 -2.3689 -1.5119  0.1696
  585MOL0     H80669  -0.249  10.606   4.506 -0.0520 -0.2314  0.9749
  585MOL0     H80670  -0.372  10.530   4.385 -0.3078 -2.1372 -0.5244
  585MOL0     H80671  -0.393  10.564   4.671 -0.4183 -0.2428 -0.1564
  585MOL0     H80672  -0.489  10.440   4.576 -0.2624 -0.0925 -0.4487
  585MOL0     H80673  -0.467  10.740   4.556  0.0542 -0.2920  1.2056
  585MOL0     H80674  -0.541  10.631   4.422 -3.2730  1.2116  0.3702
  585MOL0     H80675  -0.633  10.602   4.714  3.4812  3.7311  1.0316
  585MOL0     H80676  -0.728  10.574   4.576  0.2461 -0.0990 -1.1707
  585MOL0     H80677  -0.755  10.812   4.528  0.4573 -1.8678 -1.0618
  585MOL0     H80678  -0.822  10.772   4.684 -1.2497  1.8535 -1.8498
  585MOL0     H80679  -0.575  10.817   4.887  1.3657  0.6181  0.7061
  585MOL0     H80680  -0.439  10.980   5.002 -1.5443  0.3721  2.4086
  585MOL0     H80681  -0.489  11.144   4.970  1.2774  0.8231 -0.0821
  585MOL0     H80682  -0.285  11.036   4.764 -2.3597 -1.1836  0.8936
  585MOL0     H80683  -0.298  11.190   4.807 -0.2798  0.2191 -1.5298
  585MOL0     H80684  -0.199  11.141   5.037 -0.4477  0.2436 -1.9486
  585MOL0     H80685  -0.210  10.970   5.022  0.8690  0.6415  1.3975
  585MOL0     H80686  -0.064  10.997   4.813  0.1681 -0.8416  1.2245
  585MOL0     H80687  -0.060  11.169   4.863 -3.4536  0.4535 -2.2192
  585MOL0     H80688   0.223  11.003   5.145  0.2335  1.3576  0.5107
  585MOL0     H80689   0.433  10.998   5.242 -1.1735 -0.0111 -0.1665
  585MOL0     H80690   0.534  11.131   5.171 -1.3184 -0.0260 -1.7502
  585MOL0     H80691   0.560  10.959   5.138  2.8550  1.6449  1.9172
  585MOL0     H80692   0.749  11.018   4.704  0.9976  1.1324 -2.3380
  585MOL0     H80693   0.970  11.036   4.619  1.4995  4.9740 -1.2269
  585MOL0     H80694   1.207  10.997   4.650 -0.1070  0.5436  2.5917
  585MOL0     H80695   1.187  11.151   4.566 -2.8365 -0.8470  1.2673
  585MOL0     H80696   1.417  11.061   4.768 -0.1748 -3.1975 -1.7241
  585MOL0     H80697   1.445  11.055   4.600  1.3265 -2.0143  2.3561
  585MOL0     H80698   1.400  11.318   4.757 -2.1890 -1.3491  0.5445
  585MOL0     H80699   1.381  11.297   4.589  1.6083  0.6185 -0.2892
  585MOL0     H80700   1.602  11.373   4.631 -3.1856  0.5388 -0.1457
  585MOL0     H80701   1.614  11.201   4.573 -0.4263 -0.0376 -0.0021
  585MOL0     H80702   1.616  11.323   4.849  1.0495 -0.0952  1.7457
  585MOL0     H80703   1.617  11.149   4.841  2.1485  0.3534  1.1635
  585MOL0     H80704   1.839  11.346   4.754  0.6697 -0.4822 -1.0524
  585MOL0     H80705   1.836  11.185   4.694  1.9180  1.5784 -0.1331
  585MOL0     H80706   1.810  11.148   4.975 -0.9693 -0.7323 -0.6106
  585MOL0     H80707   1.887  11.306   4.962 -1.7073  1.0878 -1.2822
  585MOL0     H80708   1.997  11.051   4.840 -0.2388  0.8628 -0.7642
  585MOL0     H80709   2.058  11.125   4.986 -1.5601  0.4601  1.0339
  585MOL0     H80710   1.105  11.181   5.004 -0.5004  2.3813 -0.5459
  585MOL0     H80711   0.877  11.185   5.089  5.2056 -2.2681  2.6054
  585MOL0     H80712   0.359  11.199   4.726 -1.8779 -0.4593 -1.7228
  585MOL0     H80713   0.124  11.149   4.757 -0.0924  2.5686  1.5087
  585MOL0     H80714   0.274  10.330   4.166 -0.2594 -0.8295  0.5367
  585MOL0     H80715   0.512  10.346   4.209 -1.2723  0.5435 -0.7116
  585MOL0     H80716   0.872  10.276   4.445  1.1363  2.9837 -3.1639
  585MOL0     H80717   1.119  10.276   4.472 -0.0412 -1.1214 -0.8029
  585MOL0     H80718   1.306  10.265   4.576 -3.0662  0.8550 -1.2258
  585MOL0     H80719   1.341  10.382   4.447 -0.0052 -0.2966  0.0900
  585MOL0     H80720   1.467  10.377   4.734  0.5552 -3.2426  0.1959
  585MOL0     H80721   1.502  10.491   4.597 -1.3560  0.1318 -0.2172
  585MOL0     H80722   1.561  10.194   4.618 -2.6951  0.7996  0.1997
  585MOL0     H80723   1.575  10.280   4.466  3.1325 -2.6546  0.3668
  585MOL0     H80724   1.726  10.333   4.731  3.0112 -1.8057 -0.0518
  585MOL0     H80725   1.706  10.451   4.612 -1.7764  0.7330  0.9317
  585MOL0     H80726   2.024  10.262   4.429  0.2181  0.1908 -0.8191
  585MOL0     H80727   1.075  10.635   4.705 -1.8128 -0.8159  2.4353
  585MOL0     H80728   0.735  10.691   4.659 -1.5816 -2.7963  0.3702
  585MOL0     H80729   0.796  10.642   4.813 -0.8309  2.4943  0.6471
  585MOL0     H80730   0.900  10.748   4.721  0.5976 -0.9504 -1.7701
  586MOL0     O80731  10.191   6.415   6.658  0.7894  0.1730 -1.3593
  586MOL0     C80732  10.077   6.367   6.668 -0.0989 -0.1355  0.9528
  586MOL0     O80733  10.033   6.280   6.765  1.0173 -0.3501  0.2287
  586MOL0     C80734  10.106   6.242   6.879  0.1703 -0.8144 -0.1508
  586MOL0     C80735  10.215   6.322   6.931  0.1944 -0.7571  0.3909
  586MOL0     C80736  10.282   6.295   7.050 -0.5012  0.4104 -0.1132
  586MOL0     C80737  10.232   6.200   7.135 -0.0411  0.4317  0.1431
  586MOL0     O80738  10.293   6.205   7.253 -0.2302  0.3582  0.3947
  586MOL0     C80739  10.221   6.144   7.362  0.2889  0.0646  0.2742
  586MOL0     C80740  10.280   6.003   7.369 -0.1393 -0.6463 -0.0748
  586MOL0     C80741  10.436   5.988   7.383  0.0102 -0.1658  0.6345
  586MOL0     C80742  10.468   5.837   7.410 -0.1413 -0.6153 -0.9498
  586MOL0     C80743  10.624   5.822   7.388  0.2123  0.7986  0.4832
  586MOL0     C80744  10.666   5.683   7.444  0.2270  0.1159  0.2118
  586MOL0     C80745  10.814   5.660   7.445  0.4489 -0.0278  0.6537
  586MOL0     C80746  10.857   5.505   7.441 -0.8759 -0.3177  0.2923
  586MOL0     N80747  10.857   5.449   7.574 -0.2330 -1.0151  0.1208
  586MOL0     C80748  10.951   5.479   7.668  0.0353 -1.2014  0.7468
  586MOL0     C80749  10.926   5.396   7.772 -0.6501 -0.1460  0.9492
  586MOL0     C80750  11.011   5.386   7.903  0.0698  0.2351 -0.4612
  586MOL0     C80751  11.157   5.345   7.888  0.2311  0.4939  0.4832
  586MOL0     C80752  11.219   5.302   8.027  0.2150 -0.4322  0.7724
  586MOL0     C80753  11.375   5.301   8.025  1.0500 -0.5276 -0.2868
  586MOL0     O80754  11.425   5.226   7.914 -0.6812 -0.1118 -0.0000
  586MOL0     C80755  11.552   5.174   7.930  0.1100 -0.4738  0.0497
  586MOL0     C80756  11.587   5.070   7.849 -0.7215  0.4331  0.6165
  586MOL0     C80757  11.715   5.015   7.845 -0.4416  0.0704  0.5708
  586MOL0     C80758  11.744   4.901   7.750  0.4973  0.4772  0.4642
  586MOL0     C80759  11.816   5.067   7.934 -0.6618  0.1644  0.2757
  586MOL0     C80760  11.960   5.009   7.948  0.1984 -0.1347  0.6311
  586MOL0     O80761  12.042   5.068   8.032  0.4785 -0.5968  0.2251
  586MOL0     C80762  12.182   5.054   8.027  0.2347 -0.2690  0.2035
  586MOL0     C80763  12.252   5.089   8.143  0.0305  0.3904  0.1509
  586MOL0     C80764  12.393   5.077   8.144  0.8869 -1.4495  0.3779
  586MOL0     C80765  12.470   5.038   8.036  0.3111 -0.0131  0.5838
  586MOL0     O80766  12.603   5.036   8.059  0.3466  0.4321  0.1500
  586MOL0     C80767  12.684   5.026   7.938  0.6566 -0.0323 -0.1805
  586MOL0     C80768  12.834   5.026   7.978 -0.3131 -0.2052  0.1284
  586MOL0     C80769  12.923   5.006   7.851 -0.2676  0.3968  0.5242
  586MOL0     C80770  13.069   5.011   7.875  0.2411 -0.0433  0.0804
  586MOL0     C80771  13.155   4.984   7.750  0.3265 -0.0040  1.0742
  586MOL0     C80772  13.308   4.999   7.767  0.3554 -0.2411  0.0757
  586MOL0     C80773  13.370   4.945   7.643  1.1161  0.3334 -0.7206
  586MOL0     C80774  13.526   4.931   7.660 -1.0066 -0.4886  0.0745
  586MOL0    Cl80775  13.608   4.878   7.508 -0.1239  0.1663 -0.6033
  586MOL0     C80776  12.395   5.012   7.917  0.0163  0.0891 -0.7729
  586MOL0     C80777  12.256   5.015   7.914  0.3543  0.8358  0.4764
  586MOL0     O80778  11.987   4.907   7.892 -0.3766  1.1419  0.4484
  586MOL0     C80779  11.790   5.178   8.010  0.0008 -0.0665 -0.0426
  586MOL0     C80780  11.659   5.227   8.016  0.1166 -0.1171 -0.3754
  586MOL0     N80781  10.815   5.321   7.732 -0.3967  0.1663  0.4769
  586MOL0     N80782  10.771   5.358   7.619 -0.3286 -0.3606  0.8974
  586MOL0     C80783  10.134   6.114   7.083 -0.2261  0.1011 -0.6145
  586MOL0     C80784  10.073   6.131   6.956  0.7433  0.6519  0.1493
  586MOL0     C80785   9.998   6.378   6.542  0.7734  0.4424 -0.6167
  586MOL0     C80786  10.038   6.325   6.417 -0.1345  0.7498  1.0288
  586MOL0     C80787   9.952   6.319   6.302 -0.4510 -0.0413 -0.6722
  586MOL0     C80788   9.814   6.350   6.320 -0.2813 -0.0597  0.1675
  586MOL0     O80789   9.718   6.335   6.226  0.1694  0.6279  0.3275
  586MOL0     C80790   9.757   6.323   6.083  0.6562  0.0800  0.3592
  586MOL0     C80791   9.759   6.463   6.028  0.2571 -0.5363 -0.5223
  586MOL0     C80792   9.816   6.481   5.886  0.8684  0.5721 -1.1836
  586MOL0     C80793   9.793   6.625   5.831  0.3027  0.3881  0.3055
  586MOL0     C80794   9.868   6.729   5.904  0.3383  0.1250 -0.3087
  586MOL0     C80795   9.927   6.811   5.966 -0.8528 -0.6059  0.3931
  586MOL0     C80796   9.773   6.388   6.444  0.9651 -0.0681  0.0754
  586MOL0     C80797   9.865   6.410   6.551  0.4175 -0.0185  0.1131
  586MOL0     C80798   9.801   6.457   6.678 -0.1420  0.1229 -0.2812
  586MOL0     H80799  10.247   6.410   6.876 -1.3928 -1.0910 -1.1570
  586MOL0     H80800  10.378   6.340   7.069 -0.0594 -1.0218  1.2805
  586MOL0     H80801  10.115   6.144   7.337  0.7754 -0.6460 -2.0776
  586MOL0     H80802  10.217   6.198   7.457  0.5904 -0.4529  0.5866
  586MOL0     H80803  10.227   5.956   7.453 -2.6816  1.7809 -0.1570
  586MOL0     H80804  10.246   5.945   7.283 -0.0297 -1.7292  0.6025
  586MOL0     H80805  10.474   6.019   7.285 -2.4103 -1.8994 -0.9596
  586MOL0     H80806  10.477   6.051   7.462 -0.4162 -0.8200  1.3884
  586MOL0     H80807  10.434   5.820   7.513  1.8435 -3.0230 -0.6105
  586MOL0     H80808  10.411   5.768   7.348 -1.1442 -0.6177 -0.0601
  586MOL0     H80809  10.674   5.906   7.437 -2.0692  1.3823  1.9922
  586MOL0     H80810  10.648   5.821   7.281 -1.5741  0.7963  0.0405
  586MOL0     H80811  10.634   5.676   7.549 -1.3809  2.7575  0.0037
  586MOL0     H80812  10.615   5.605   7.386 -1.3145  2.7296 -2.2039
  586MOL0     H80813  10.857   5.707   7.534  0.6607  0.2337  0.4155
  586MOL0     H80814  10.856   5.709   7.356 -1.0313  0.5890  0.2634
  586MOL0     H80815  10.798   5.439   7.377  0.6543  0.3263 -1.9084
  586MOL0     H80816  10.955   5.496   7.394 -0.1602  0.9368  1.4548
  586MOL0     H80817  11.026   5.557   7.662 -0.8794 -0.4084 -1.5927
  586MOL0     H80818  10.955   5.323   7.972  1.8622 -1.3973 -0.4207
  586MOL0     H80819  11.016   5.481   7.958 -0.4551 -1.5000  2.8416
  586MOL0     H80820  11.175   5.264   7.816 -1.2876 -1.5105  2.2287
  586MOL0     H80821  11.217   5.430   7.855  1.1559 -0.8585 -1.5028
  586MOL0     H80822  11.194   5.374   8.106  2.3866  0.0532  1.0767
  586MOL0     H80823  11.174   5.204   8.049  0.0384 -0.6893 -0.6812
  586MOL0     H80824  11.421   5.400   8.024  1.1645 -0.5133  1.7902
  586MOL0     H80825  11.413   5.258   8.118  1.7409 -0.3264 -0.4649
  586MOL0     H80826  11.511   5.032   7.781 -0.7827  0.4000  0.7038
  586MOL0     H80827  11.658   4.888   7.685 -1.0487 -1.5382  2.7365
  586MOL0     H80828  11.771   4.811   7.806  3.5626  0.4676 -0.8117
  586MOL0     H80829  11.834   4.923   7.691  0.5272  1.6458  0.9175
  586MOL0     H80830  12.198   5.117   8.233  1.6636 -0.1376  1.3559
  586MOL0     H80831  12.440   5.098   8.240 -1.7422 -0.2834  1.4960
  586MOL0     H80832  12.660   4.939   7.876  2.1566 -1.2938  0.9455
  586MOL0     H80833  12.666   5.114   7.877  0.2334  0.2772  0.3730
  586MOL0     H80834  12.853   5.122   8.027 -0.7658 -1.7075  3.5846
  586MOL0     H80835  12.856   4.946   8.049 -3.0690 -2.1375 -1.0110
  586MOL0     H80836  12.909   5.094   7.788  1.7365  0.9985  0.8406
  586MOL0     H80837  12.897   4.917   7.793  0.2471 -1.0593  2.4374
  586MOL0     H80838  13.096   4.937   7.951 -0.0759  0.8580  1.0953
  586MOL0     H80839  13.097   5.107   7.920  2.8984  1.1200 -3.5870
  586MOL0     H80840  13.128   4.883   7.720 -1.6984 -0.3616  3.7176
  586MOL0     H80841  13.123   5.052   7.671 -3.6176  0.3965  2.7558
  586MOL0     H80842  13.345   4.938   7.850  1.2818  0.9803  0.5861
  586MOL0     H80843  13.333   5.103   7.790 -1.9660  0.1747  0.9022
  586MOL0     H80844  13.357   5.010   7.557  3.9063 -0.7978 -2.1249
  586MOL0     H80845  13.330   4.846   7.619  0.4448  0.3115  0.4038
  586MOL0     H80846  13.551   4.858   7.738 -1.0297 -1.4711 -0.8254
  586MOL0     H80847  13.569   5.026   7.693  2.2045 -2.1491  1.0896
  586MOL0     H80848  12.448   4.996   7.824 -0.4102 -1.0945 -0.8303
  586MOL0     H80849  12.208   4.992   7.819 -0.4442 -1.1588  1.3099
  586MOL0     H80850  11.866   5.226   8.071  1.5263  1.6577 -3.0627
  586MOL0     H80851  11.647   5.315   8.078 -2.3651  1.0432 -2.3096
  586MOL0     H80852  10.096   6.027   7.136 -1.1843  0.7701 -0.1696
  586MOL0     H80853   9.990   6.071   6.920 -1.2500  2.4143  1.5801
  586MOL0     H80854  10.142   6.295   6.418 -0.9580 -2.4320  1.4889
  586MOL0     H80855  10.001   6.301   6.207 -0.2978  0.1926 -0.6376
  586MOL0     H80856   9.857   6.281   6.065  0.0025 -1.3826 -0.0696
  586MOL0     H80857   9.680   6.263   6.034 -0.9018  1.1553  1.4319
  586MOL0     H80858   9.804   6.533   6.098  0.4878  0.2276 -1.4154
  586MOL0     H80859   9.652   6.486   6.023  0.0289 -0.1121  3.3485
  586MOL0     H80860   9.925   6.473   5.889  0.8038 -0.4935 -1.3789
  586MOL0     H80861   9.768   6.401   5.829 -0.8081  0.5068  0.2690
  586MOL0     H80862   9.688   6.653   5.848 -0.2774 -1.2699 -0.3098
  586MOL0     H80863   9.819   6.635   5.725  2.6167 -0.4150  0.7352
  586MOL0     H80864   9.982   6.884   6.022 -0.2670  0.1420 -1.1133
  586MOL0     H80865   9.667   6.393   6.464  0.3813  0.9183 -2.8817
  586MOL0     H80866   9.880   6.488   6.746  1.7875 -0.8828 -1.9628
  586MOL0     H80867   9.741   6.548   6.669 -0.3175  0.0729  0.3199
  586MOL0     H80868   9.745   6.377   6.728  1.7206 -0.4647  0.9755
  587MOL0     O80869   5.034  10.636   4.219  0.5653 -0.3054  0.2157
  587MOL0     C80870   4.918  10.604   4.229  0.7066 -0.1050 -0.4832
  587MOL0     O80871   4.845  10.611   4.355 -0.6985  0.1848  0.0285
  587MOL0     C80872   4.900  10.611   4.484 -0.6625  0.7434 -1.2174
  587MOL0     C80873   5.038  10.576   4.508  0.4700  0.1782  0.0974
  587MOL0     C80874   5.072  10.542   4.638  0.4886  0.5289  0.0088
  587MOL0     C80875   4.981  10.566   4.743  0.9459  0.5512 -0.1418
  587MOL0     O80876   5.000  10.540   4.882 -0.2839 -0.2968 -0.1360
  587MOL0     C80877   5.131  10.539   4.936  0.0298  0.1363 -0.3162
  587MOL0     C80878   5.185  10.677   4.990  1.0508 -0.7198 -0.3319
  587MOL0     C80879   5.083  10.750   5.077  0.6731  0.0837 -0.2330
  587MOL0     C80880   5.137  10.872   5.155 -0.2434 -0.8282  0.3499
  587MOL0     C80881   5.039  10.923   5.256 -0.7208 -0.0769 -0.0241
  587MOL0     C80882   4.906  10.961   5.177  0.0278 -0.3608 -0.4988
  587MOL0     C80883   4.801  11.040   5.252 -0.6675  0.1542  0.3567
  587MOL0     C80884   4.778  11.172   5.192  0.7889 -0.1111 -0.2752
  587MOL0     N80885   4.855  11.287   5.228 -0.1831  0.6059  0.1576
  587MOL0     C80886   4.830  11.361   5.339 -0.7593 -0.3357 -0.3591
  587MOL0     C80887   4.924  11.461   5.329  0.8514  0.4300 -0.7077
  587MOL0     C80888   4.932  11.578   5.421 -0.1410 -0.5048 -0.4958
  587MOL0     C80889   5.072  11.576   5.485 -0.0721  0.1813 -0.0431
  587MOL0     C80890   5.090  11.662   5.613 -1.0699 -0.0335 -0.6437
  587MOL0     C80891   5.235  11.647   5.674 -0.1517 -0.8582 -0.2095
  587MOL0     O80892   5.342  11.635   5.576  0.7576 -0.3552  0.0300
  587MOL0     C80893   5.471  11.654   5.620  0.1496  0.3046 -0.4615
  587MOL0     C80894   5.517  11.637   5.756  0.1742  0.2555 -0.0911
  587MOL0     C80895   5.646  11.678   5.795 -0.4927 -0.0641  0.3729
  587MOL0     C80896   5.680  11.660   5.944 -0.4408  0.4730 -0.2002
  587MOL0     C80897   5.729  11.739   5.702 -0.0563 -0.8953  0.0408
  587MOL0     C80898   5.870  11.777   5.734  0.5427  0.0265  0.3895
  587MOL0     O80899   5.900  11.800   5.858 -0.3949  0.0616 -0.4926
  587MOL0     C80900   6.021  11.852   5.904  0.7930  0.2214  0.2858
  587MOL0     C80901   6.145  11.830   5.839  0.5274  0.4761  0.1302
  587MOL0     C80902   6.266  11.887   5.889 -0.4058 -0.4326  0.5567
  587MOL0     C80903   6.265  11.958   6.008  0.1452  0.5213 -0.2381
  587MOL0     O80904   6.365  12.015   6.076  0.1887  0.1540  0.2763
  587MOL0     C80905   6.473  12.070   5.995  0.5788  0.4503 -0.9522
  587MOL0     C80906   6.596  11.979   6.021  0.3830 -0.3494 -0.7317
  587MOL0     C80907   6.733  12.048   5.988 -0.1060  0.3239  0.4377
  587MOL0     C80908   6.835  11.996   6.089 -0.3742  0.1213  0.1876
  587MOL0     C80909   6.973  12.049   6.060 -0.2141  0.0979  0.7188
  587MOL0     C80910   7.094  11.990   6.127 -1.0150 -0.0759  0.2198
  587MOL0     C80911   7.224  12.060   6.087 -1.3107 -0.1815 -0.4789
  587MOL0     C80912   7.269  12.048   5.943 -1.1835  0.2344 -0.1051
  587MOL0    Cl80913   7.289  11.891   5.876  0.1231  0.0012 -0.1604
  587MOL0     C80914   6.142  11.983   6.070 -0.6803 -0.2615  0.8258
  587MOL0     C80915   6.024  11.929   6.022  0.1441  0.1948 -0.0777
  587MOL0     O80916   5.937  11.813   5.639  0.0202  0.3687 -0.7257
  587MOL0     C80917   5.689  11.745   5.567 -0.4674  0.6709 -0.3225
  587MOL0     C80918   5.565  11.695   5.529 -0.0182  0.1125  0.1791
  587MOL0     N80919   4.997  11.442   5.214  0.7405  0.5474  0.8474
  587MOL0     N80920   4.962  11.333   5.161 -0.0777  0.4473  0.7959
  587MOL0     C80921   4.856  10.603   4.711  0.8058  0.4358 -0.7445
  587MOL0     C80922   4.812  10.626   4.586 -0.2899 -0.6137  0.5172
  587MOL0     C80923   4.845  10.578   4.107  0.2168  0.1614 -0.2299
  587MOL0     C80924   4.701  10.568   4.118  0.1529 -0.0921  0.3124
  587MOL0     C80925   4.613  10.535   4.009 -0.8025 -0.1462  0.4463
  587MOL0     C80926   4.671  10.531   3.882  1.4218  0.5064  0.5337
  587MOL0     O80927   4.588  10.506   3.778 -0.3400 -0.3555  0.3198
  587MOL0     C80928   4.637  10.528   3.642  0.2527 -0.3786  0.0028
  587MOL0     C80929   4.527  10.469   3.555  0.2090  0.3232 -0.4121
  587MOL0     C80930   4.543  10.490   3.399  0.1046 -0.5114 -0.0398
  587MOL0     C80931   4.555  10.637   3.354  0.2154  0.0798  0.0918
  587MOL0     C80932   4.473  10.737   3.430  0.0897  0.0041  0.5378
  587MOL0     C80933   4.415  10.817   3.501 -0.2964  0.9612  0.1718
  587MOL0     C80934   4.809  10.542   3.867  0.1157  0.6023 -0.0665
  587MOL0     C80935   4.898  10.549   3.980 -0.5814  0.1112  0.2776
  587MOL0     C80936   5.042  10.539   3.938 -0.5874 -0.2476  0.3786
  587MOL0     H80937   5.122  10.577   4.440  0.1946 -2.5602 -0.4116
  587MOL0     H80938   5.174  10.523   4.670  1.1573 -0.8596 -2.6886
  587MOL0     H80939   5.208  10.497   4.871  0.6138  0.0612  0.4160
  587MOL0     H80940   5.127  10.471   5.021 -1.2086  2.4060  1.5494
  587MOL0     H80941   5.286  10.678   5.034  0.3071  0.4778  1.4574
  587MOL0     H80942   5.197  10.746   4.907 -2.6501  1.5041  0.7553
  587MOL0     H80943   5.003  10.786   5.011 -1.0685 -1.4971  0.9115
  587MOL0     H80944   5.040  10.687   5.156 -0.1321  1.6027  0.5942
  587MOL0     H80945   5.227  10.852   5.213 -0.1921 -0.1438  0.5163
  587MOL0     H80946   5.160  10.951   5.084 -0.6985 -1.2711 -0.3054
  587MOL0     H80947   5.083  11.013   5.299 -0.2888 -0.6705  0.7784
  587MOL0     H80948   5.024  10.847   5.333  0.6497 -2.0445 -1.6027
  587MOL0     H80949   4.930  11.019   5.088 -0.3763  0.0115 -0.3709
  587MOL0     H80950   4.851  10.871   5.148 -1.4439 -0.7464  2.9119
  587MOL0     H80951   4.820  11.053   5.359 -0.4290 -0.5688  0.4126
  587MOL0     H80952   4.708  10.985   5.237  0.6527 -1.9068 -0.8736
  587MOL0     H80953   4.779  11.157   5.083  2.0858 -1.5671 -0.1005
  587MOL0     H80954   4.673  11.199   5.205  1.3409  0.6243  4.2908
  587MOL0     H80955   4.751  11.344   5.411 -1.8400  0.6587 -1.2699
  587MOL0     H80956   4.852  11.564   5.495 -0.3600  2.7086  0.0118
  587MOL0     H80957   4.924  11.680   5.383  1.1199 -0.3938 -0.5039
  587MOL0     H80958   5.090  11.471   5.511 -1.2767 -0.4772 -1.6706
  587MOL0     H80959   5.138  11.615   5.407 -0.8267 -0.1057 -0.8368
  587MOL0     H80960   5.058  11.765   5.591 -0.5744  0.4680  0.8000
  587MOL0     H80961   5.022  11.624   5.690  0.2816  0.5352  0.8905
  587MOL0     H80962   5.253  11.735   5.735 -0.8243 -0.1739 -0.9711
  587MOL0     H80963   5.230  11.553   5.731 -0.6923 -1.8903 -1.8720
  587MOL0     H80964   5.444  11.606   5.829  1.0696  0.7123  1.0262
  587MOL0     H80965   5.668  11.749   6.007 -2.2117  1.5821 -1.9766
  587MOL0     H80966   5.779  11.620   5.966 -0.9267  0.1038  1.5150
  587MOL0     H80967   5.610  11.583   5.979  0.4898 -2.0413 -3.4234
  587MOL0     H80968   6.152  11.757   5.759  3.0941 -0.3520  0.9875
  587MOL0     H80969   6.364  11.869   5.847 -0.4195 -0.9360  0.7401
  587MOL0     H80970   6.450  12.077   5.889 -1.0768  1.2426 -0.5774
  587MOL0     H80971   6.497  12.168   6.037 -1.1770 -0.1262  1.7088
  587MOL0     H80972   6.606  11.955   6.127  0.4379  0.5568 -0.5225
  587MOL0     H80973   6.586  11.893   5.954 -1.9377 -0.3060 -0.5192
  587MOL0     H80974   6.726  12.156   6.000 -1.1838  0.2919  0.2116
  587MOL0     H80975   6.766  12.022   5.887 -2.9033 -1.9658 -0.0388
  587MOL0     H80976   6.832  11.887   6.084 -1.1714  0.1800 -2.4084
  587MOL0     H80977   6.810  12.038   6.187  0.8139 -1.3348  1.1501
  587MOL0     H80978   6.990  12.045   5.952 -1.6883 -2.4267  0.4900
  587MOL0     H80979   6.977  12.156   6.080 -0.4102  0.1923  0.2550
  587MOL0     H80980   7.110  11.882   6.126 -1.2132 -0.1163  0.8912
  587MOL0     H80981   7.069  12.013   6.231 -2.6473 -0.2624 -0.0960
  587MOL0     H80982   7.303  12.027   6.155 -2.6220  0.9948  1.7436
  587MOL0     H80983   7.200  12.165   6.105 -1.2459 -0.0800 -0.9940
  587MOL0     H80984   7.368  12.095   5.951  0.0314 -1.8859 -1.5844
  587MOL0     H80985   7.212  12.114   5.877 -0.8465  0.2503 -0.3865
  587MOL0     H80986   6.131  12.048   6.156 -2.7302 -1.4394  1.5291
  587MOL0     H80987   5.935  11.942   6.083 -1.1323  1.7177 -2.0945
  587MOL0     H80988   5.745  11.786   5.483  0.8934  1.9223  1.1247
  587MOL0     H80989   5.525  11.702   5.428 -1.1700 -1.0807  0.5181
  587MOL0     H80990   4.787  10.598   4.794 -0.1379 -1.0811 -1.5706
  587MOL0     H80991   4.705  10.627   4.567 -0.8931  0.8850  3.5517
  587MOL0     H80992   4.646  10.585   4.209  1.9071  0.0824  1.3886
  587MOL0     H80993   4.505  10.524   4.018 -0.9852  0.9909 -0.0610
  587MOL0     H80994   4.654  10.634   3.619  0.9894  0.0185  2.1823
  587MOL0     H80995   4.733  10.484   3.614  0.6009 -1.1864  2.3126
  587MOL0     H80996   4.426  10.507   3.574 -1.0131 -1.3266 -2.9229
  587MOL0     H80997   4.530  10.362   3.575  4.0094  0.4646  0.4354
  587MOL0     H80998   4.626  10.427   3.365 -0.1357 -0.5786 -0.5212
  587MOL0     H80999   4.455  10.446   3.350  0.1931  0.2514 -0.9033
  587MOL0     H81000   4.525  10.649   3.250 -3.9364  1.1148  1.2245
  587MOL0     H81001   4.660  10.667   3.350  0.7496 -1.4308  1.6471
  587MOL0     H81002   4.360  10.897   3.547 -1.9701  0.9248 -1.6084
  587MOL0     H81003   4.849  10.526   3.768 -0.8381 -0.2999 -0.3226
  587MOL0     H81004   5.104  10.476   4.003  1.2497  1.3829  0.3117
  587MOL0     H81005   5.055  10.505   3.835  3.2477 -0.2688  0.7208
  587MOL0     H81006   5.085  10.637   3.962 -1.8608  0.1923  0.9291
  588MOL0     O81007   9.787  10.715   0.499  0.5697  0.2507  0.2094
  588MOL0     C81008   9.833  10.607   0.470  0.4689  0.1037  0.0466
  588MOL0     O81009   9.939  10.540   0.532 -0.8864 -0.6839 -0.4241
  588MOL0     C81010  10.001  10.612   0.632  0.7907  0.1972 -0.1801
  588MOL0     C81011   9.992  10.569   0.759 -0.3893 -0.1169 -0.4220
  588MOL0     C81012  10.052  10.634   0.874  0.3008  0.1211  1.1171
  588MOL0     C81013  10.133  10.746   0.845  0.0298 -0.1784  0.5068
  588MOL0     O81014  10.192  10.804   0.955  0.3145  0.0512  0.1830
  588MOL0     C81015  10.324  10.868   0.939  0.1045  0.7295  0.9045
  588MOL0     C81016  10.383  10.887   1.081  0.4909 -0.2080  0.0213
  588MOL0     C81017  10.425  10.757   1.153  0.2589  0.1526 -0.2977
  588MOL0     C81018  10.435  10.784   1.304 -0.0277 -0.4429  0.0430
  588MOL0     C81019  10.434  10.659   1.383  0.0009  0.1493 -1.0107
  588MOL0     C81020  10.500  10.677   1.521  0.1756 -0.9285 -0.1969
  588MOL0     C81021  10.423  10.774   1.616  0.0621  0.7857 -0.3331
  588MOL0     C81022  10.476  10.768   1.756 -0.5931  1.0967 -0.5523
  588MOL0     N81023  10.613  10.823   1.749 -0.0669 -0.6913  0.9180
  588MOL0     C81024  10.648  10.946   1.798 -0.0978  0.0614 -0.6438
  588MOL0     C81025  10.783  10.938   1.822  0.3641 -0.3997 -0.5175
  588MOL0     C81026  10.874  11.037   1.878  0.2617 -0.2080 -0.6003
  588MOL0     C81027  10.916  11.154   1.777  0.1867  0.1421 -0.0374
  588MOL0     C81028  10.835  11.281   1.797  0.4998 -0.2886 -1.2911
  588MOL0     C81029  10.887  11.408   1.731 -0.2580  0.1778 -0.1964
  588MOL0     O81030  10.788  11.480   1.655  0.2737 -0.2997  0.0960
  588MOL0     C81031  10.737  11.439   1.533  0.7725  0.2706 -0.4081
  588MOL0     C81032  10.796  11.339   1.450 -0.4136 -0.4986 -0.0365
  588MOL0     C81033  10.749  11.305   1.329 -1.3016 -0.1603 -0.1370
  588MOL0     C81034  10.837  11.207   1.252  0.2672 -0.4118  0.1710
  588MOL0     C81035  10.619  11.358   1.295 -0.7236  1.2947  0.0091
  588MOL0     C81036  10.551  11.309   1.178  0.6687  0.5402 -0.1669
  588MOL0     O81037  10.486  11.395   1.089 -0.1070  0.1860 -1.0332
  588MOL0     C81038  10.461  11.344   0.968 -1.1262  0.6542  0.2970
  588MOL0     C81039  10.335  11.340   0.926 -1.2392 -0.9635  0.1312
  588MOL0     C81040  10.287  11.278   0.814  0.4451 -0.4265  0.3612
  588MOL0     C81041  10.372  11.210   0.732 -0.3380 -0.2617  0.6160
  588MOL0     O81042  10.335  11.147   0.607  0.1582  0.1251 -0.1165
  588MOL0     C81043  10.198  11.138   0.562 -0.6298 -0.5228 -0.8224
  588MOL0     C81044  10.188  11.050   0.431 -0.6691  0.5272 -0.7339
  588MOL0     C81045  10.040  11.026   0.397 -0.5367 -0.0368  0.1453
  588MOL0     C81046  10.030  10.938   0.279 -0.5465 -0.4068  0.7329
  588MOL0     C81047   9.887  10.933   0.224 -0.3246  0.1281  0.4250
  588MOL0     C81048   9.876  10.855   0.092 -0.8475 -0.0196 -0.8168
  588MOL0     C81049   9.727  10.857   0.045 -0.3753  0.7507  0.5341
  588MOL0     C81050   9.698  10.775  -0.079  0.2654  0.4478  0.4571
  588MOL0    Cl81051   9.813  10.813  -0.216 -0.2501 -0.0712  0.2435
  588MOL0     C81052  10.505  11.198   0.766 -0.2742  0.3215 -0.0329
  588MOL0     C81053  10.552  11.268   0.883  0.5001 -1.6268  0.2706
  588MOL0     O81054  10.550  11.184   1.169 -0.1156 -0.3515  0.0121
  588MOL0     C81055  10.551  11.453   1.371  0.1246  0.3236  0.1098
  588MOL0     C81056  10.613  11.497   1.490 -0.5588 -0.3561 -0.4727
  588MOL0     N81057  10.825  10.810   1.783 -0.7242 -0.8435  0.5285
  588MOL0     N81058  10.727  10.745   1.739 -0.7732 -0.1959  0.2518
  588MOL0     C81059  10.143  10.795   0.711 -0.3067 -0.9947 -0.6372
  588MOL0     C81060  10.072  10.730   0.607  0.5154  0.5888  0.1021
  588MOL0     C81061   9.788  10.527   0.354 -0.5162  0.2625 -0.2727
  588MOL0     C81062   9.890  10.473   0.270  1.0327  0.0486 -1.1123
  588MOL0     C81063   9.854  10.417   0.145  0.1177  0.4607  0.4955
  588MOL0     C81064   9.721  10.419   0.095  0.0656 -0.7094  0.0632
  588MOL0     O81065   9.694  10.380  -0.037  0.6775 -0.1073 -1.2680
  588MOL0     C81066   9.554  10.388  -0.083 -0.1531  0.3563  0.3507
  588MOL0     C81067   9.557  10.363  -0.234 -0.2690  0.8953  0.0698
  588MOL0     C81068   9.651  10.459  -0.319  0.0750 -0.2216 -0.0848
  588MOL0     C81069   9.689  10.388  -0.457 -0.2786 -0.0990 -1.6792
  588MOL0     C81070   9.789  10.281  -0.438 -0.7632 -0.2759  0.6225
  588MOL0     C81071   9.862  10.187  -0.407  0.4379 -0.2318  0.4046
  588MOL0     C81072   9.625  10.464   0.186  0.6234  0.0748 -0.0598
  588MOL0     C81073   9.650  10.527   0.311 -0.0134 -0.3041 -0.0089
  588MOL0     C81074   9.547  10.612   0.381  0.0319  0.4400 -0.9856
  588MOL0     H81075   9.938  10.477   0.779  0.7794 -0.4705  1.3311
  588MOL0     H81076  10.050  10.596   0.975  1.4142  1.6207  1.7326
  588MOL0     H81077  10.314  10.962   0.884  2.6149  1.8328  2.1713
  588MOL0     H81078  10.390  10.801   0.884 -1.8790  0.2120 -0.9817
  588MOL0     H81079  10.471  10.950   1.067 -1.1891  1.6219 -3.6537
  588MOL0     H81080  10.310  10.936   1.146  0.6296  1.3380 -0.9366
  588MOL0     H81081  10.358  10.672   1.140  3.5169 -2.4468 -1.5634
  588MOL0     H81082  10.521  10.730   1.109 -0.1264 -0.4150 -0.8044
  588MOL0     H81083  10.520  10.851   1.321 -2.0819  2.1432  0.7330
  588MOL0     H81084  10.350  10.843   1.340  0.8948 -0.1023  1.7781
  588MOL0     H81085  10.492  10.582   1.332  0.8889 -1.9220  2.7819
  588MOL0     H81086  10.336  10.615   1.399  1.5574 -3.3536 -0.2312
  588MOL0     H81087  10.524  10.577   1.558 -0.1198 -2.2146 -3.1762
  588MOL0     H81088  10.599  10.720   1.505  0.6131 -1.5859  0.6246
  588MOL0     H81089  10.315  10.756   1.624  0.0170  1.0188 -0.3957
  588MOL0     H81090  10.442  10.875   1.579 -1.0283  0.5657 -1.5950
  588MOL0     H81091  10.415  10.839   1.813 -1.1198  0.4274 -0.2636
  588MOL0     H81092  10.465  10.668   1.798 -1.6650  0.4511 -2.2713
  588MOL0     H81093  10.593  11.038   1.813  0.6320  0.9553 -2.9613
  588MOL0     H81094  10.968  10.990   1.906  0.4435 -1.8907 -3.6422
  588MOL0     H81095  10.828  11.074   1.971 -0.4187 -1.7146 -0.2981
  588MOL0     H81096  11.017  11.189   1.801  0.4219 -0.1723 -0.5690
  588MOL0     H81097  10.918  11.120   1.673  1.3440  0.3175 -0.0861
  588MOL0     H81098  10.732  11.260   1.767 -0.8142  0.4003  2.2872
  588MOL0     H81099  10.811  11.316   1.897 -1.5549  1.4560 -2.3031
  588MOL0     H81100  10.909  11.481   1.809 -1.2450  2.7173 -2.1265
  588MOL0     H81101  10.982  11.388   1.680 -0.2922 -2.5798  0.6641
  588MOL0     H81102  10.876  11.275   1.486  0.3818 -0.7078 -2.0310
  588MOL0     H81103  10.944  11.228   1.254  0.5572 -1.7927 -0.2159
  588MOL0     H81104  10.813  11.209   1.145  0.9714 -0.0170  0.0152
  588MOL0     H81105  10.826  11.102   1.280 -0.4444 -0.4619 -0.2580
  588MOL0     H81106  10.269  11.399   0.988  2.1375  0.3914  2.8062
  588MOL0     H81107  10.180  11.289   0.795  0.7598 -0.2237 -1.5048
  588MOL0     H81108  10.140  11.084   0.637 -2.3144 -1.7940 -2.9347
  588MOL0     H81109  10.155  11.239   0.556  2.8217  1.1936  0.5657
  588MOL0     H81110  10.242  11.097   0.349 -1.5193  1.7882 -0.5985
  588MOL0     H81111  10.227  10.950   0.452 -1.6556  0.8744  3.7693
  588MOL0     H81112   9.987  11.122   0.386 -1.7140 -0.5065  1.3336
  588MOL0     H81113   9.992  10.977   0.483 -0.8018 -0.1988 -0.0927
  588MOL0     H81114  10.061  10.835   0.300  1.5827 -0.5770 -2.6646
  588MOL0     H81115  10.094  10.983   0.203 -0.6318 -1.1619  0.2111
  588MOL0     H81116   9.809  10.906   0.296 -1.3931  1.5367 -0.1486
  588MOL0     H81117   9.863  11.036   0.195 -1.6859 -0.7073 -1.7074
  588MOL0     H81118   9.902  10.749   0.107  0.6411  0.3840 -0.3854
  588MOL0     H81119   9.945  10.899   0.019 -2.2256  0.0486 -2.1142
  588MOL0     H81120   9.691  10.960   0.037 -0.7481  0.7152  1.6408
  588MOL0     H81121   9.663  10.807   0.118 -1.4885  1.4295  0.0438
  588MOL0     H81122   9.597  10.806  -0.107 -0.2224 -1.2718  0.2195
  588MOL0     H81123   9.708  10.669  -0.053 -0.5148 -0.3023 -2.0776
  588MOL0     H81124  10.573  11.148   0.699  0.8733  1.7792 -0.0259
  588MOL0     H81125  10.656  11.270   0.912  0.6751  1.7375 -0.1314
  588MOL0     H81126  10.452  11.483   1.337 -0.4706 -3.5385 -2.1358
  588MOL0     H81127  10.565  11.572   1.551  0.6199 -1.1587  1.5524
  588MOL0     H81128  10.212  10.871   0.677  0.9404 -1.9697 -0.3590
  588MOL0     H81129  10.098  10.762   0.507 -0.0870 -1.5116 -0.7849
  588MOL0     H81130   9.997  10.478   0.292  1.3524  1.5389 -2.7363
  588MOL0     H81131   9.936  10.379   0.084 -2.1975 -0.8621 -2.0063
  588MOL0     H81132   9.487  10.312  -0.043 -0.8741 -1.5219 -3.8964
  588MOL0     H81133   9.516  10.488  -0.059  2.5517  0.9971  2.5733
  588MOL0     H81134   9.451  10.375  -0.262 -1.0010 -0.0325  2.2304
  588MOL0     H81135   9.577  10.257  -0.248 -1.2098  0.3689  2.3631
  588MOL0     H81136   9.599  10.553  -0.342 -1.6061 -1.5189 -2.0003
  588MOL0     H81137   9.740  10.485  -0.262 -1.1560  1.0236  1.3754
  588MOL0     H81138   9.737  10.450  -0.533 -0.5350  0.0051 -1.7568
  588MOL0     H81139   9.604  10.347  -0.512 -1.1453  1.5255 -1.6173
  588MOL0     H81140   9.911  10.095  -0.381 -0.7007 -0.6021  1.3580
  588MOL0     H81141   9.523  10.463   0.149  0.5599  0.1380  0.1112
  588MOL0     H81142   9.551  10.719   0.359 -1.0215  1.6489  3.7797
  588MOL0     H81143   9.450  10.577   0.344 -0.7623  0.9497  0.5626
  588MOL0     H81144   9.551  10.610   0.490  2.9790  2.9005 -0.9213
  589MOL0     O81145   6.032   4.798   0.881  0.9804  0.2716  1.3337
  589MOL0     C81146   5.961   4.880   0.936 -0.0939 -0.0125 -0.0314
  589MOL0     O81147   5.994   4.946   1.051  0.1332 -0.1560  0.4615
  589MOL0     C81148   6.097   4.897   1.122  0.1490  0.2046  0.4295
  589MOL0     C81149   6.228   4.949   1.088  0.4594  0.7677  0.2743
  589MOL0     C81150   6.344   4.916   1.159  0.9863 -0.6641 -0.3600
  589MOL0     C81151   6.332   4.807   1.253  0.0690 -0.4612  0.0119
  589MOL0     O81152   6.448   4.765   1.313  0.0506  0.0406  0.1342
  589MOL0     C81153   6.430   4.646   1.392  0.2047 -0.3461 -0.2144
  589MOL0     C81154   6.572   4.607   1.443  0.0552 -1.3286 -0.8718
  589MOL0     C81155   6.615   4.467   1.449  0.5779  0.6745 -0.0447
  589MOL0     C81156   6.741   4.442   1.534 -0.2966 -0.1763 -1.7123
  589MOL0     C81157   6.767   4.289   1.551  0.7379 -0.6191 -0.6152
  589MOL0     C81158   6.854   4.234   1.436 -1.5043 -0.1366  0.6214
  589MOL0     C81159   6.914   4.096   1.459  0.2339  0.5079  0.3043
  589MOL0     C81160   6.947   4.021   1.336 -0.5121  0.2402  0.0514
  589MOL0     N81161   7.040   4.096   1.252  0.6682  0.2249 -0.0675
  589MOL0     C81162   7.169   4.138   1.274  0.2903 -0.2229  0.1245
  589MOL0     C81163   7.203   4.213   1.164  0.9031  0.7135  1.1262
  589MOL0     C81164   7.326   4.293   1.152  0.4103 -0.9484  0.0198
  589MOL0     C81165   7.449   4.209   1.116 -0.7713 -0.1705 -0.5406
  589MOL0     C81166   7.570   4.277   1.163 -0.2637  0.2004  0.5033
  589MOL0     C81167   7.697   4.194   1.111 -0.0811  0.3351 -0.1633
  589MOL0     O81168   7.814   4.273   1.114  0.3764 -0.8797  0.4152
  589MOL0     C81169   7.938   4.219   1.081  0.2327  0.4818 -0.2782
  589MOL0     C81170   8.056   4.290   1.099  0.3068  0.1111 -0.9691
  589MOL0     C81171   8.182   4.253   1.055  0.6265  0.0206  0.1694
  589MOL0     C81172   8.303   4.338   1.092  0.2380 -0.4492  0.3181
  589MOL0     C81173   8.203   4.121   0.993  0.3481 -0.0252  0.1211
  589MOL0     C81174   8.330   4.074   0.923  0.0747  0.7325  0.5335
  589MOL0     O81175   8.310   3.970   0.841 -0.6508 -0.1406  0.8117
  589MOL0     C81176   8.414   3.939   0.758 -0.4823  0.0778  0.8988
  589MOL0     C81177   8.514   3.854   0.798  0.6569 -0.1830 -0.1396
  589MOL0     C81178   8.620   3.830   0.719 -0.0323 -0.5975  0.4630
  589MOL0     C81179   8.631   3.893   0.595 -0.4422  1.2388  0.0946
  589MOL0     O81180   8.733   3.868   0.511  0.1182  0.3920  0.2895
  589MOL0     C81181   8.788   3.739   0.495  0.0023  0.0378 -0.1276
  589MOL0     C81182   8.945   3.748   0.504 -0.1486 -0.1411 -0.6105
  589MOL0     C81183   9.006   3.824   0.618 -0.1199  0.3293 -0.5816
  589MOL0     C81184   9.057   3.737   0.743 -0.0096 -0.9469 -0.6251
  589MOL0     C81185   9.134   3.822   0.857 -0.1973 -0.6678 -0.1079
  589MOL0     C81186   9.181   3.727   0.962 -0.2204 -0.3891 -1.0473
  589MOL0     C81187   9.268   3.786   1.080 -0.3286  0.2870  0.0057
  589MOL0     C81188   9.176   3.852   1.183 -0.7746  0.7561  0.4054
  589MOL0    Cl81189   9.279   3.917   1.305  0.0512  0.3145  0.2878
  589MOL0     C81190   8.530   3.979   0.557  0.5336 -0.1727  0.5553
  589MOL0     C81191   8.424   4.001   0.641 -0.3965  0.0182 -0.1069
  589MOL0     O81192   8.438   4.124   0.956 -0.1683  0.2021  0.6341
  589MOL0     C81193   8.084   4.044   0.979 -0.1270  0.1930  0.3559
  589MOL0     C81194   7.959   4.089   1.023 -0.0728 -0.1443 -0.4306
  589MOL0     N81195   7.095   4.218   1.082 -0.4009  0.5065  0.5072
  589MOL0     N81196   7.003   4.153   1.137  0.5790  0.4490 -0.0977
  589MOL0     C81197   6.203   4.757   1.281  0.9630 -0.3376  0.3338
  589MOL0     C81198   6.086   4.804   1.224  0.0564 -0.6171 -0.2633
  589MOL0     C81199   5.834   4.906   0.866  0.6659 -0.8443  0.6081
  589MOL0     C81200   5.811   4.847   0.740  0.1940  0.7796  0.6950
  589MOL0     C81201   5.694   4.877   0.662 -0.6420  0.3151  0.0881
  589MOL0     C81202   5.604   4.970   0.707  0.4070  0.5542 -0.9960
  589MOL0     O81203   5.486   5.014   0.650  0.1483 -0.4720 -0.3722
  589MOL0     C81204   5.433   4.949   0.529 -0.3002  0.6887  0.3808
  589MOL0     C81205   5.294   4.884   0.551  0.1298  0.0981 -0.3061
  589MOL0     C81206   5.191   4.996   0.582 -0.7161 -0.2827 -0.3771
  589MOL0     C81207   5.049   4.929   0.588 -0.0467 -0.1333 -0.2371
  589MOL0     C81208   4.957   4.971   0.694  0.4079 -0.6773  0.3214
  589MOL0     C81209   4.890   5.007   0.787 -1.1469  0.3036  0.5271
  589MOL0     C81210   5.629   5.029   0.827  0.4985  1.1035 -0.1792
  589MOL0     C81211   5.749   5.017   0.900 -0.1418 -0.0499  0.3316
  589MOL0     C81212   5.750   5.105   1.018  0.1487  0.7522  0.1237
  589MOL0     H81213   6.239   5.015   1.002  2.3195 -2.2222 -1.9632
  589MOL0     H81214   6.434   4.971   1.137 -0.2170  1.2012 -0.8148
  589MOL0     H81215   6.398   4.563   1.328  0.1349  0.4028 -1.1729
  589MOL0     H81216   6.363   4.654   1.477  2.2020  2.2851  1.2736
  589MOL0     H81217   6.647   4.657   1.382  2.6197 -3.1198  0.6056
  589MOL0     H81218   6.581   4.648   1.544 -3.3393  1.5708 -1.5324
  589MOL0     H81219   6.537   4.397   1.481 -1.2506  2.0510 -1.2438
  589MOL0     H81220   6.630   4.425   1.349  1.1436 -0.5664  0.5444
  589MOL0     H81221   6.831   4.499   1.510  0.8756 -0.6825  1.0942
  589MOL0     H81222   6.725   4.480   1.636  1.3910 -0.7563 -1.1838
  589MOL0     H81223   6.670   4.239   1.544  1.2214 -1.8160  0.7839
  589MOL0     H81224   6.820   4.268   1.644  0.2654  0.3051 -0.1190
  589MOL0     H81225   6.796   4.226   1.343  0.3761  0.2288 -0.6387
  589MOL0     H81226   6.937   4.302   1.413 -1.6401 -0.2455 -0.2288
  589MOL0     H81227   6.839   4.035   1.512 -1.4536  2.2924  0.0618
  589MOL0     H81228   7.001   4.101   1.524  0.3939 -2.9800  0.5906
  589MOL0     H81229   6.991   3.928   1.372 -0.4042  0.9313  1.8065
  589MOL0     H81230   6.850   3.993   1.294 -1.0967  1.9155  0.2103
  589MOL0     H81231   7.224   4.118   1.366 -1.8669  1.0294  1.7825
  589MOL0     H81232   7.349   4.348   1.244  1.8949 -0.0156 -0.8639
  589MOL0     H81233   7.318   4.361   1.066  0.6858 -0.2198  0.5631
  589MOL0     H81234   7.443   4.115   1.173  1.6655 -0.7425 -1.1096
  589MOL0     H81235   7.454   4.196   1.008  1.2181 -0.1234 -0.4777
  589MOL0     H81236   7.575   4.381   1.131 -0.9981 -0.4814 -2.0645
  589MOL0     H81237   7.566   4.277   1.272 -2.1827 -0.7289  0.4912
  589MOL0     H81238   7.707   4.112   1.182  1.1233  1.0751  0.5615
  589MOL0     H81239   7.683   4.151   1.011  1.5301  1.5494 -0.9521
  589MOL0     H81240   8.037   4.380   1.155 -2.2630 -0.4252 -0.8835
  589MOL0     H81241   8.353   4.371   1.000  0.6383 -1.3545  0.1976
  589MOL0     H81242   8.371   4.271   1.145  0.6700 -2.0298 -2.0751
  589MOL0     H81243   8.265   4.423   1.149 -0.9746  0.0268 -1.1388
  589MOL0     H81244   8.501   3.814   0.898 -1.8424  3.6220  1.2536
  589MOL0     H81245   8.703   3.767   0.747  1.0835 -1.4550 -3.9380
  589MOL0     H81246   8.750   3.668   0.569 -2.8491  0.9315 -0.6141
  589MOL0     H81247   8.758   3.702   0.396  0.7245  3.5669 -1.8058
  589MOL0     H81248   8.987   3.647   0.504  0.7097  0.2085 -0.1494
  589MOL0     H81249   8.992   3.795   0.417  1.3259 -1.2891 -0.4758
  589MOL0     H81250   8.941   3.898   0.664 -0.6207 -0.9358  0.8323
  589MOL0     H81251   9.089   3.885   0.580 -1.7272  3.6100  0.8144
  589MOL0     H81252   9.129   3.660   0.713  0.0080 -1.3401  0.3807
  589MOL0     H81253   8.969   3.693   0.791 -2.5220  3.1078 -1.0363
  589MOL0     H81254   9.220   3.872   0.812  0.0043  2.2997  3.1901
  589MOL0     H81255   9.068   3.897   0.901 -1.8077  0.4782 -4.0098
  589MOL0     H81256   9.233   3.649   0.906  3.1558  1.1321 -0.2990
  589MOL0     H81257   9.089   3.686   1.005  0.1957  0.9671  1.3116
  589MOL0     H81258   9.338   3.862   1.045 -0.8066  0.4572 -0.5837
  589MOL0     H81259   9.336   3.706   1.114  0.6019  0.1303 -2.0829
  589MOL0     H81260   9.103   3.787   1.232 -0.3120 -0.9015 -1.0121
  589MOL0     H81261   9.128   3.933   1.126  2.0172  2.5991  0.4397
  589MOL0     H81262   8.542   4.026   0.459  2.0704  2.2942  1.8073
  589MOL0     H81263   8.350   4.077   0.613  0.3393  1.0039  0.5527
  589MOL0     H81264   8.092   3.943   0.940 -1.3553 -0.1087  0.8288
  589MOL0     H81265   7.884   4.012   1.011 -3.6890  2.3969  3.1780
  589MOL0     H81266   6.186   4.684   1.360 -0.7778 -0.2418  0.0809
  589MOL0     H81267   5.987   4.774   1.258 -0.5510  0.4866 -0.9762
  589MOL0     H81268   5.878   4.779   0.689 -1.6762  0.2216 -1.1701
  589MOL0     H81269   5.676   4.834   0.564 -1.3936  0.5128  0.1332
  589MOL0     H81270   5.416   5.030   0.459 -0.3816  0.2249 -0.1433
  589MOL0     H81271   5.506   4.884   0.480 -0.0325  0.4352  1.0951
  589MOL0     H81272   5.304   4.811   0.632  3.5469  1.2683  0.4827
  589MOL0     H81273   5.263   4.830   0.461  0.5560  0.7209 -0.8382
  589MOL0     H81274   5.213   5.030   0.683  0.8764 -0.5391 -0.6016
  589MOL0     H81275   5.193   5.080   0.512  3.2043  0.5970  0.5477
  589MOL0     H81276   5.063   4.821   0.595 -0.6171 -0.1885  0.0958
  589MOL0     H81277   4.999   4.945   0.492  1.1389 -0.4759 -0.9312
  589MOL0     H81278   4.832   5.052   0.866 -2.1362  1.2296 -0.6849
  589MOL0     H81279   5.550   5.094   0.865 -2.3532 -1.5700 -1.0827
  589MOL0     H81280   5.742   5.044   1.108  1.6618  0.3692  0.0163
  589MOL0     H81281   5.848   5.151   1.033 -0.2088  1.4016  0.5420
  589MOL0     H81282   5.676   5.186   1.015  0.6407  1.2265  0.4830
  590MOL0     O81283   9.355   6.729   7.823 -0.3066 -0.4176  0.1499
  590MOL0     C81284   9.358   6.693   7.702 -0.7365 -0.2194  0.5839
  590MOL0     O81285   9.462   6.637   7.633 -0.0194 -0.6475 -0.1246
  590MOL0     C81286   9.589   6.661   7.676 -0.5333  0.0356 -0.4664
  590MOL0     C81287   9.684   6.558   7.650  1.1261  0.2321 -0.4321
  590MOL0     C81288   9.824   6.576   7.686 -0.1372  0.4733 -0.2997
  590MOL0     C81289   9.864   6.697   7.748 -0.2972  0.2766 -0.0207
  590MOL0     O81290  10.000   6.729   7.771  0.3463 -0.8782  0.0049
  590MOL0     C81291  10.095   6.635   7.744 -0.8991 -0.1458  0.6348
  590MOL0     C81292  10.234   6.689   7.752  0.2344  0.3580 -0.8546
  590MOL0     C81293  10.347   6.608   7.701 -0.0362  0.1574  0.3393
  590MOL0     C81294  10.479   6.678   7.739  0.4278  0.1600  0.1910
  590MOL0     C81295  10.603   6.598   7.701  0.4277 -0.5127 -0.4917
  590MOL0     C81296  10.728   6.687   7.712  0.5904 -0.0437  0.7277
  590MOL0     C81297  10.856   6.614   7.669  0.4973  0.3519  0.5024
  590MOL0     C81298  10.889   6.506   7.771 -0.3723  0.6213  0.0613
  590MOL0     N81299  11.013   6.439   7.726  0.3426  0.3455 -0.0182
  590MOL0     C81300  11.023   6.339   7.631  0.5748  0.0243  0.9399
  590MOL0     C81301  11.150   6.304   7.635 -0.2676 -0.2990 -0.1119
  590MOL0     C81302  11.203   6.192   7.546 -0.5810  0.3190 -0.2237
  590MOL0     C81303  11.356   6.208   7.524  0.2185  0.0515  0.5008
  590MOL0     C81304  11.422   6.099   7.438  0.2302  0.2402  0.4447
  590MOL0     C81305  11.573   6.107   7.445 -0.5203  0.2355  0.9789
  590MOL0     O81306  11.640   6.223   7.424 -0.0742 -0.7061  0.0968
  590MOL0     C81307  11.773   6.222   7.462  0.9328 -0.5581  0.2954
  590MOL0     C81308  11.850   6.107   7.446  0.1066 -0.3038 -0.4412
  590MOL0     C81309  11.981   6.119   7.499  0.3205  1.1454  0.3719
  590MOL0     C81310  12.060   5.989   7.500 -0.4098 -0.2331  0.2107
  590MOL0     C81311  12.027   6.233   7.566 -0.9376  0.0996  0.0449
  590MOL0     C81312  12.165   6.255   7.625  0.2029 -0.5169  0.3698
  590MOL0     O81313  12.177   6.373   7.699 -0.0730 -0.1331  0.3008
  590MOL0     C81314  12.297   6.396   7.759 -0.2026  0.9096 -0.8876
  590MOL0     C81315  12.393   6.481   7.701 -1.1480  0.1839 -0.1192
  590MOL0     C81316  12.519   6.491   7.769  0.8315 -0.1882 -0.1498
  590MOL0     C81317  12.544   6.428   7.891  0.0548  0.3399  0.5378
  590MOL0     O81318  12.672   6.451   7.936  0.8233  0.6618  0.6682
  590MOL0     C81319  12.725   6.390   8.052  0.8145  0.0752 -0.3422
  590MOL0     C81320  12.851   6.471   8.071 -0.0671  0.2317  0.1376
  590MOL0     C81321  12.918   6.430   8.205  0.3337  0.2718  0.4126
  590MOL0     C81322  12.970   6.286   8.210 -0.6361  0.4240  0.2527
  590MOL0     C81323  13.096   6.262   8.139 -1.0922  0.7017  0.4786
  590MOL0     C81324  13.215   6.319   8.214  0.5426  0.1206  1.2364
  590MOL0     C81325  13.344   6.268   8.144 -0.2212 -0.3858 -0.0201
  590MOL0     C81326  13.470   6.341   8.188  0.1627  0.7073 -0.0029
  590MOL0    Cl81327  13.498   6.297   8.353 -0.2454  0.2632 -0.1284
  590MOL0     C81328  12.444   6.355   7.957 -0.1496 -1.0502  0.1046
  590MOL0     C81329  12.329   6.326   7.878  0.1829 -0.6498  0.3978
  590MOL0     O81330  12.252   6.180   7.591 -0.2897  0.5817 -0.4348
  590MOL0     C81331  11.943   6.341   7.577 -0.4401 -0.1506  0.8465
  590MOL0     C81332  11.817   6.340   7.524 -0.6170  0.1129 -0.7114
  590MOL0     N81333  11.215   6.388   7.723 -0.7182 -0.4686  0.6057
  590MOL0     N81334  11.139   6.472   7.772  0.0768  0.2335  0.2206
  590MOL0     C81335   9.773   6.798   7.760 -0.1014 -1.0224  0.5937
  590MOL0     C81336   9.637   6.782   7.737  1.0001  0.2176 -0.0883
  590MOL0     C81337   9.228   6.678   7.639 -0.2671  0.4745 -0.7563
  590MOL0     C81338   9.116   6.757   7.681  0.2527 -0.6861 -0.8911
  590MOL0     C81339   8.990   6.747   7.626 -0.6115 -0.2595  0.6028
  590MOL0     C81340   8.958   6.650   7.535 -0.6109  0.3176  0.6042
  590MOL0     O81341   8.828   6.647   7.484  0.2490 -0.0271 -0.0381
  590MOL0     C81342   8.779   6.557   7.383  0.8827  0.6707  0.6894
  590MOL0     C81343   8.630   6.541   7.402  0.6140  1.1012  0.1446
  590MOL0     C81344   8.564   6.680   7.408  0.6287 -0.1015 -0.7444
  590MOL0     C81345   8.416   6.675   7.382 -0.1004  0.2169  0.9332
  590MOL0     C81346   8.373   6.771   7.275  0.1993 -0.4022 -0.0534
  590MOL0     C81347   8.335   6.842   7.186 -0.0537  0.6539 -0.5584
  590MOL0     C81348   9.063   6.563   7.507  0.4652  0.0472 -0.9099
  590MOL0     C81349   9.192   6.564   7.564 -0.7552  0.6785  0.8485
  590MOL0     C81350   9.289   6.455   7.508  0.8787 -0.3751 -0.2908
  590MOL0     H81351   9.652   6.458   7.622 -0.5160 -0.5561  3.6372
  590MOL0     H81352   9.896   6.501   7.654 -2.1826 -0.5632 -2.7814
  590MOL0     H81353  10.084   6.604   7.639  1.3889 -1.2620  0.6720
  590MOL0     H81354  10.078   6.545   7.805  2.1620 -1.1089  0.2464
  590MOL0     H81355  10.224   6.781   7.694 -0.4716 -1.1538 -3.2683
  590MOL0     H81356  10.253   6.716   7.857 -0.7811  1.7110 -1.0032
  590MOL0     H81357  10.362   6.506   7.738  0.1898 -0.2451 -0.8193
  590MOL0     H81358  10.341   6.609   7.591  4.0613  1.9845 -0.0230
  590MOL0     H81359  10.486   6.778   7.694  1.3191 -0.4654 -1.1321
  590MOL0     H81360  10.478   6.696   7.847 -0.9844  2.6896 -0.1663
  590MOL0     H81361  10.598   6.569   7.596 -0.4904  0.8103 -0.8388
  590MOL0     H81362  10.612   6.511   7.767  2.1384 -0.6728 -0.8755
  590MOL0     H81363  10.717   6.780   7.655 -0.2386 -0.6667 -0.1547
  590MOL0     H81364  10.741   6.720   7.815  1.6799  2.0016  0.0017
  590MOL0     H81365  10.938   6.686   7.666  0.2464  0.6267 -1.9438
  590MOL0     H81366  10.839   6.569   7.570 -0.3218 -3.7907  2.3118
  590MOL0     H81367  10.891   6.550   7.871 -0.9885  0.6507  0.0633
  590MOL0     H81368  10.818   6.423   7.778  1.5141 -1.0774 -0.0810
  590MOL0     H81369  10.938   6.306   7.573 -0.4138  1.6463  1.4047
  590MOL0     H81370  11.146   6.217   7.456 -0.5183 -2.1466 -1.0314
  590MOL0     H81371  11.177   6.094   7.586  0.9989 -0.5181 -1.1450
  590MOL0     H81372  11.387   6.307   7.489 -2.3807  0.1635 -1.7701
  590MOL0     H81373  11.405   6.196   7.621 -0.6063  0.4878  0.9820
  590MOL0     H81374  11.374   6.015   7.487 -0.3073  0.5583  0.4660
  590MOL0     H81375  11.380   6.116   7.339 -1.2293  3.1884  1.4661
  590MOL0     H81376  11.610   6.061   7.537 -0.6578  0.9704  1.4038
  590MOL0     H81377  11.601   6.038   7.365 -2.1501 -2.2625  2.4313
  590MOL0     H81378  11.811   6.017   7.400 -2.0772  0.2692  0.1491
  590MOL0     H81379  12.128   5.974   7.416 -1.5257  0.5254 -0.8748
  590MOL0     H81380  11.993   5.902   7.505 -2.8028  1.4911  0.3493
  590MOL0     H81381  12.116   5.981   7.593  0.4360  0.0703 -0.2667
  590MOL0     H81382  12.379   6.540   7.611  1.3773  1.8908  0.5022
  590MOL0     H81383  12.589   6.561   7.723 -1.3109  1.2679 -1.3821
  590MOL0     H81384  12.653   6.411   8.131 -0.5320 -0.1123 -1.4778
  590MOL0     H81385  12.737   6.282   8.043  0.8181  0.1328 -1.0828
  590MOL0     H81386  12.919   6.464   7.986  1.1574  0.7207  1.0462
  590MOL0     H81387  12.825   6.577   8.067 -0.4957  0.0939 -1.3353
  590MOL0     H81388  12.838   6.436   8.280  0.5351  1.5470  0.5451
  590MOL0     H81389  12.990   6.506   8.235 -0.7830  1.2820  0.6165
  590MOL0     H81390  12.895   6.214   8.175  0.3986 -0.4929 -0.1045
  590MOL0     H81391  12.977   6.262   8.316 -0.7664  0.2794  0.2296
  590MOL0     H81392  13.112   6.154   8.132 -1.6914  0.5871  0.8042
  590MOL0     H81393  13.095   6.306   8.039 -0.1077 -2.0097 -0.8334
  590MOL0     H81394  13.213   6.286   8.318  0.2253 -1.0187  0.8856
  590MOL0     H81395  13.199   6.427   8.216 -2.4079 -0.1415 -0.8354
  590MOL0     H81396  13.336   6.292   8.038  0.5615 -1.1489 -0.2688
  590MOL0     H81397  13.350   6.159   8.148  0.2293 -0.3571  4.4094
  590MOL0     H81398  13.448   6.445   8.164 -1.1721  0.3561 -0.4055
  590MOL0     H81399  13.560   6.310   8.134 -0.5156  2.7870 -2.5971
  590MOL0     H81400  12.461   6.310   8.054 -2.2276 -1.5794  0.2839
  590MOL0     H81401  12.259   6.255   7.920 -3.8796  2.7991  0.0508
  590MOL0     H81402  11.973   6.425   7.638  0.9913 -1.9349  2.7440
  590MOL0     H81403  11.746   6.421   7.531  0.4045  0.9054  1.9406
  590MOL0     H81404   9.803   6.894   7.802 -0.8447 -0.8114  0.6492
  590MOL0     H81405   9.571   6.866   7.756  0.9997  0.0124  0.8526
  590MOL0     H81406   9.126   6.828   7.762  0.4974 -1.3880 -0.2892
  590MOL0     H81407   8.911   6.818   7.649 -0.3116  1.4021 -2.7514
  590MOL0     H81408   8.806   6.586   7.281 -0.7925 -1.1765 -0.3688
  590MOL0     H81409   8.829   6.460   7.395  0.6526  0.5162  0.4004
  590MOL0     H81410   8.613   6.483   7.494  1.4361  1.4455  0.5255
  590MOL0     H81411   8.594   6.481   7.318  1.2806 -0.1267  0.7019
  590MOL0     H81412   8.583   6.731   7.502 -0.2773 -0.5523 -0.3048
  590MOL0     H81413   8.604   6.732   7.320 -0.1644  1.1538 -0.3899
  590MOL0     H81414   8.375   6.704   7.479  0.6448 -0.3314  1.4279
  590MOL0     H81415   8.386   6.574   7.353  0.1098  0.7885 -1.4703
  590MOL0     H81416   8.316   6.905   7.101  0.1419  0.6106 -0.6351
  590MOL0     H81417   9.046   6.484   7.434  0.7244 -2.3143  1.4183
  590MOL0     H81418   9.364   6.494   7.439  0.0704  1.4327 -0.1947
  590MOL0     H81419   9.351   6.423   7.593 -0.2050  0.2574  0.7701
  590MOL0     H81420   9.230   6.383   7.451  1.5490  0.0751 -1.5834
  591MOL0     O81421   5.145   8.529   4.972 -0.0985 -0.6019  0.3320
  591MOL0     C81422   5.143   8.514   4.850 -0.0599 -1.3653 -0.6746
  591MOL0     O81423   5.257   8.505   4.772  0.1983 -0.0538  0.4400
  591MOL0     C81424   5.378   8.524   4.827 -0.4816  0.0077  0.4139
  591MOL0     C81425   5.474   8.430   4.810 -0.8888  0.3250 -0.8937
  591MOL0     C81426   5.603   8.449   4.862  0.5865  0.5244 -0.0883
  591MOL0     C81427   5.642   8.561   4.929 -0.1247  0.4270  0.0874
  591MOL0     O81428   5.766   8.574   4.975 -0.9669 -0.5464  0.4585
  591MOL0     C81429   5.831   8.705   4.963 -0.3285  0.2267 -0.1466
  591MOL0     C81430   5.830   8.779   5.097  0.1705 -0.1427 -0.7328
  591MOL0     C81431   5.952   8.728   5.188 -0.0720  1.2400  0.3731
  591MOL0     C81432   5.955   8.786   5.336  0.1576 -0.6260 -0.0708
  591MOL0     C81433   6.071   8.732   5.420  0.0166 -0.4960  0.5590
  591MOL0     C81434   6.137   8.840   5.515  0.3665 -0.3102 -0.6653
  591MOL0     C81435   6.039   8.905   5.614  0.1610  0.6551 -0.1565
  591MOL0     C81436   6.113   8.995   5.711 -0.6092 -0.1186 -0.3393
  591MOL0     N81437   6.217   9.088   5.656  0.3145 -0.3458  0.3583
  591MOL0     C81438   6.182   9.191   5.573 -0.7680  0.4207 -0.3987
  591MOL0     C81439   6.280   9.282   5.599  0.3022 -0.2544  0.1416
  591MOL0     C81440   6.281   9.419   5.523  0.6342 -0.0434 -0.0741
  591MOL0     C81441   6.299   9.407   5.371  0.2273  1.3863 -0.0564
  591MOL0     C81442   6.421   9.328   5.319  0.0043 -0.4756  0.5505
  591MOL0     C81443   6.551   9.410   5.341  0.4747  0.0957 -0.3960
  591MOL0     O81444   6.647   9.355   5.244 -0.7604  0.0609  0.6267
  591MOL0     C81445   6.770   9.418   5.223  0.0822  0.2034  0.1714
  591MOL0     C81446   6.808   9.552   5.258  0.3714 -0.9100  0.8950
  591MOL0     C81447   6.929   9.608   5.223 -0.4249  0.1267 -0.5745
  591MOL0     C81448   6.935   9.756   5.240 -0.1736 -0.4433 -0.4874
  591MOL0     C81449   7.026   9.527   5.158  0.3406 -0.2623  0.5871
  591MOL0     C81450   7.159   9.574   5.112 -0.4159  0.1872 -0.4549
  591MOL0     O81451   7.228   9.503   5.015 -0.3516  0.1894  0.0410
  591MOL0     C81452   7.364   9.513   5.009  0.1108 -0.5847 -0.0576
  591MOL0     C81453   7.445   9.626   5.024  0.3046 -0.2005 -0.2819
  591MOL0     C81454   7.586   9.621   5.013 -0.0767 -0.6092  0.0021
  591MOL0     C81455   7.651   9.495   4.984  0.7430 -1.0184 -0.1230
  591MOL0     O81456   7.779   9.458   4.977 -0.9506  0.0862  0.4778
  591MOL0     C81457   7.877   9.540   5.040  0.2595  0.3065  0.2521
  591MOL0     C81458   8.008   9.462   5.028 -0.5614  0.0926 -0.0872
  591MOL0     C81459   8.087   9.495   4.904  0.1055 -0.0426  0.5345
  591MOL0     C81460   8.224   9.437   4.916 -0.2132  0.2958  0.1805
  591MOL0     C81461   8.226   9.284   4.922 -0.4559  0.7398  0.1590
  591MOL0     C81462   8.378   9.236   4.932 -0.1361  0.7985 -0.1163
  591MOL0     C81463   8.451   9.240   4.801  0.4490 -0.2371  1.4694
  591MOL0     C81464   8.429   9.130   4.698  0.0525  0.3809 -0.1804
  591MOL0    Cl81465   8.565   9.150   4.576  0.1863  0.7757 -0.0029
  591MOL0     C81466   7.569   9.388   4.961 -0.2442 -0.5318  0.3211
  591MOL0     C81467   7.430   9.398   4.970  0.2144  0.3880 -0.1113
  591MOL0     O81468   7.195   9.679   5.164 -0.0200  0.0915  0.2995
  591MOL0     C81469   6.997   9.391   5.127  0.4223 -0.5298  0.1662
  591MOL0     C81470   6.863   9.343   5.163 -0.3326 -0.1688  0.4207
  591MOL0     N81471   6.387   9.233   5.677  0.2651  0.5273  0.5942
  591MOL0     N81472   6.327   9.126   5.727  0.1856 -0.6172 -0.0563
  591MOL0     C81473   5.548   8.667   4.940  0.4377  0.4941 -0.0888
  591MOL0     C81474   5.416   8.651   4.880 -0.0359  0.1365  0.3829
  591MOL0     C81475   5.016   8.499   4.775 -0.5899 -0.5703  0.1908
  591MOL0     C81476   5.032   8.467   4.634 -0.1374 -0.1651  0.0839
  591MOL0     C81477   4.923   8.445   4.551  0.7267 -0.2097  0.8770
  591MOL0     C81478   4.799   8.453   4.605 -0.5679 -0.2992  0.3430
  591MOL0     O81479   4.705   8.435   4.508 -0.0558 -0.5429  0.0487
  591MOL0     C81480   4.576   8.424   4.550  0.4079  0.4322 -0.2294
  591MOL0     C81481   4.476   8.392   4.433  0.2123 -0.1709 -0.3235
  591MOL0     C81482   4.338   8.384   4.505  0.2414 -0.4742  0.2577
  591MOL0     C81483   4.228   8.323   4.422 -0.4576  0.3523 -0.0551
  591MOL0     C81484   4.189   8.410   4.308  0.0951  0.4288 -0.5945
  591MOL0     C81485   4.156   8.477   4.211 -0.1145  0.2378 -0.0777
  591MOL0     C81486   4.773   8.497   4.739 -0.9639 -0.8057 -0.5702
  591MOL0     C81487   4.882   8.511   4.829  0.2566 -0.6839 -0.4771
  591MOL0     C81488   4.861   8.550   4.969  0.3338  0.5537  0.8467
  591MOL0     H81489   5.455   8.336   4.759  0.8057  0.5779 -2.1021
  591MOL0     H81490   5.663   8.359   4.861 -2.5943 -1.7895  1.3339
  591MOL0     H81491   5.792   8.769   4.883 -0.3748  2.4217  1.5250
  591MOL0     H81492   5.933   8.691   4.926 -0.2916  0.5192 -0.1628
  591MOL0     H81493   5.845   8.886   5.082  1.9025 -0.1901  0.2897
  591MOL0     H81494   5.729   8.768   5.137 -0.4601  1.6363 -1.7509
  591MOL0     H81495   5.956   8.619   5.186  1.8297  1.2800 -1.3728
  591MOL0     H81496   6.047   8.754   5.141  1.1711 -0.5281  1.7965
  591MOL0     H81497   5.972   8.894   5.333  2.3475 -0.9321 -0.4307
  591MOL0     H81498   5.859   8.771   5.385 -1.8826  1.6596 -2.9798
  591MOL0     H81499   6.149   8.689   5.357 -1.8932 -0.6925 -1.8398
  591MOL0     H81500   6.021   8.648   5.469 -1.9123 -1.1419 -2.2759
  591MOL0     H81501   6.223   8.802   5.571  0.5483  1.6697  0.5130
  591MOL0     H81502   6.166   8.915   5.441 -3.1429  1.2698 -0.6095
  591MOL0     H81503   5.987   8.832   5.677 -0.8226  2.1601  0.8482
  591MOL0     H81504   5.960   8.961   5.563 -0.8220 -0.6413 -0.1158
  591MOL0     H81505   6.048   9.044   5.784 -0.0596 -1.0168  0.7779
  591MOL0     H81506   6.175   8.926   5.768 -0.8496 -1.4458 -1.6237
  591MOL0     H81507   6.100   9.210   5.505  0.2628  0.0211 -1.8038
  591MOL0     H81508   6.357   9.487   5.562 -0.1103  0.2784  0.8602
  591MOL0     H81509   6.191   9.473   5.555  0.4833 -1.8650  2.9975
  591MOL0     H81510   6.208   9.362   5.331 -0.1295 -0.5025  2.5512
  591MOL0     H81511   6.308   9.510   5.336 -1.0363  1.2444 -0.8776
  591MOL0     H81512   6.430   9.230   5.366 -2.0760 -0.4179  1.1764
  591MOL0     H81513   6.397   9.311   5.213 -1.6856 -0.4506  0.8938
  591MOL0     H81514   6.525   9.509   5.302 -2.0764 -0.4204 -0.2057
  591MOL0     H81515   6.581   9.415   5.446 -1.4789 -4.0042  0.5779
  591MOL0     H81516   6.731   9.616   5.299 -1.0149  0.3952 -3.2037
  591MOL0     H81517   6.954   9.796   5.140  0.6968 -1.0852 -0.5928
  591MOL0     H81518   7.023   9.788   5.297 -0.6015  2.3236 -1.2485
  591MOL0     H81519   6.847   9.808   5.279  0.6554 -0.1026  1.0235
  591MOL0     H81520   7.402   9.723   5.046  0.3849  0.0894 -1.3371
  591MOL0     H81521   7.652   9.704   5.038  1.0526 -0.8878 -1.8140
  591MOL0     H81522   7.876   9.639   4.994  0.9939  0.6251  0.9113
  591MOL0     H81523   7.848   9.549   5.145 -0.3819  0.5075  0.0629
  591MOL0     H81524   8.068   9.479   5.118  1.8917  0.6300 -1.7180
  591MOL0     H81525   7.983   9.356   5.018  0.8741 -0.2730 -0.0433
  591MOL0     H81526   8.091   9.604   4.894  0.2767 -0.0763  0.2351
  591MOL0     H81527   8.041   9.455   4.813 -0.2180  1.0249  0.2165
  591MOL0     H81528   8.279   9.472   5.004  0.6758 -2.0288  0.6139
  591MOL0     H81529   8.277   9.470   4.826 -0.8405 -1.2206 -0.7775
  591MOL0     H81530   8.171   9.261   5.013 -0.9844  3.1498  0.5149
  591MOL0     H81531   8.183   9.232   4.836  0.3178 -0.0394  0.2316
  591MOL0     H81532   8.364   9.133   4.968 -3.4501  1.4277  0.7744
  591MOL0     H81533   8.432   9.286   5.013  0.4999  0.1162 -0.1032
  591MOL0     H81534   8.558   9.232   4.823  0.9232 -0.8813 -0.7877
  591MOL0     H81535   8.423   9.339   4.762 -2.0047  0.1946  4.0092
  591MOL0     H81536   8.336   9.137   4.641  0.6727 -0.0936 -1.3018
  591MOL0     H81537   8.437   9.038   4.756  3.6372  1.7796  1.8483
  591MOL0     H81538   7.616   9.298   4.922 -1.8789 -1.6453  0.8180
  591MOL0     H81539   7.375   9.311   4.936  1.9608 -1.7299  2.1793
  591MOL0     H81540   7.068   9.326   5.075 -0.9541 -1.1269 -1.0259
  591MOL0     H81541   6.845   9.240   5.135  2.9557 -0.6686 -0.3417
  591MOL0     H81542   5.568   8.768   4.975 -0.2306  1.1944 -1.6534
  591MOL0     H81543   5.334   8.723   4.884 -0.7612 -0.4315 -2.2071
  591MOL0     H81544   5.123   8.442   4.580 -0.0060  0.1100  0.1773
  591MOL0     H81545   4.927   8.417   4.446  1.9830 -1.1732  1.1529
  591MOL0     H81546   4.566   8.337   4.615  4.1685 -1.7871 -2.2549
  591MOL0     H81547   4.552   8.522   4.591  3.7341  0.2446  2.5760
  591MOL0     H81548   4.503   8.296   4.388  2.7895  0.9477 -1.3725
  591MOL0     H81549   4.485   8.475   4.362 -0.3033  0.2610  0.1065
  591MOL0     H81550   4.341   8.332   4.602  2.1418  2.3874  1.8733
  591MOL0     H81551   4.301   8.484   4.530 -2.2258 -1.4889  1.0299
  591MOL0     H81552   4.146   8.315   4.494  1.0929  2.3660  2.0910
  591MOL0     H81553   4.252   8.219   4.397 -0.7144 -0.3786  2.4240
  591MOL0     H81554   4.137   8.554   4.139  4.3750  0.7401 -1.0194
  591MOL0     H81555   4.670   8.510   4.769 -1.2879  0.3038 -2.0575
  591MOL0     H81556   4.755   8.554   4.997  0.7295 -0.9830  2.7437
  591MOL0     H81557   4.901   8.471   5.033 -0.0642 -0.6231 -0.3227
  591MOL0     H81558   4.889   8.654   4.985 -3.1006  1.4364  1.8921
  592MOL0     O81559   9.366   6.414   0.586  0.2055  0.2663  0.2786
  592MOL0     C81560   9.448   6.482   0.521  0.2719 -1.0535 -0.2634
  592MOL0     O81561   9.429   6.516   0.383  0.4207  0.7149  0.0266
  592MOL0     C81562   9.315   6.478   0.323  0.4816 -1.0406 -0.1597
  592MOL0     C81563   9.231   6.583   0.276  0.1967  0.5690  0.3917
  592MOL0     C81564   9.114   6.550   0.198  0.1300 -0.0070 -0.7890
  592MOL0     C81565   9.077   6.410   0.187 -0.4159  0.0273  0.0907
  592MOL0     O81566   8.964   6.388   0.116 -0.9564 -0.0874 -0.0323
  592MOL0     C81567   8.894   6.260   0.122 -0.2733  0.8041  0.1692
  592MOL0     C81568   8.760   6.269   0.052  0.0349  0.7586  0.4244
  592MOL0     C81569   8.657   6.370   0.124  0.6084 -0.3692 -0.3898
  592MOL0     C81570   8.521   6.304   0.112  0.8104  0.4401  0.1636
  592MOL0     C81571   8.411   6.405   0.151  0.2075 -0.3735 -0.1411
  592MOL0     C81572   8.269   6.354   0.122 -0.7934  0.9880  0.5497
  592MOL0     C81573   8.160   6.467   0.134 -0.0100  0.5571  0.5721
  592MOL0     C81574   8.014   6.434   0.094  0.2405 -0.2112 -0.1807
  592MOL0     N81575   8.006   6.381  -0.042 -0.0635  0.7519 -0.6663
  592MOL0     C81576   8.032   6.252  -0.077  0.6503  0.0360 -0.0088
  592MOL0     C81577   8.024   6.259  -0.217  0.3115 -0.2943 -0.1725
  592MOL0     C81578   8.079   6.152  -0.307 -0.2352 -0.1207 -0.2862
  592MOL0     C81579   8.215   6.086  -0.274  0.2997  0.1072  0.1068
  592MOL0     C81580   8.325   6.195  -0.304 -0.9452  0.0642  0.5923
  592MOL0     C81581   8.469   6.145  -0.320  0.3426 -0.3631  0.8885
  592MOL0     O81582   8.504   6.071  -0.199  0.4276 -0.5577 -0.4723
  592MOL0     C81583   8.615   5.996  -0.198 -0.3991  0.6269 -0.0922
  592MOL0     C81584   8.643   5.910  -0.085  0.7762 -0.0815 -0.0910
  592MOL0     C81585   8.774   5.858  -0.063 -0.2185  0.5784  0.8819
  592MOL0     C81586   8.799   5.784   0.065 -0.0418  0.0868  0.0406
  592MOL0     C81587   8.879   5.880  -0.161  0.3140  0.3322 -1.4174
  592MOL0     C81588   9.023   5.841  -0.136 -0.4261 -0.3843 -0.2125
  592MOL0     O81589   9.070   5.842  -0.011  0.3401  0.3217 -0.3313
  592MOL0     C81590   9.194   5.793   0.015 -0.3079 -0.5493 -0.7776
  592MOL0     C81591   9.305   5.868  -0.009 -0.2217  0.0646 -0.2260
  592MOL0     C81592   9.434   5.814  -0.010 -0.0644 -0.0512  0.8405
  592MOL0     C81593   9.459   5.684   0.036  1.3367  0.5545  0.0725
  592MOL0     O81594   9.577   5.622   0.041  0.4640  0.3108 -0.0593
  592MOL0     C81595   9.692   5.685  -0.024  0.2455  0.7840  0.7276
  592MOL0     C81596   9.809   5.598   0.015  0.2651  0.1879 -0.7745
  592MOL0     C81597   9.938   5.685   0.006  0.5835 -0.2603 -0.4791
  592MOL0     C81598  10.019   5.678   0.143 -0.1499  0.2206 -0.1389
  592MOL0     C81599  10.107   5.566   0.141 -0.1061 -0.2237  0.1903
  592MOL0     C81600  10.188   5.550   0.269 -0.8310  0.4003 -0.2666
  592MOL0     C81601  10.263   5.416   0.275 -0.6981  0.0604 -0.7386
  592MOL0     C81602  10.330   5.394   0.408  0.6085  1.1388 -0.2900
  592MOL0    Cl81603  10.476   5.491   0.418  0.0981  0.1222 -0.3246
  592MOL0     C81604   9.343   5.613   0.070  0.1519  0.2150  0.5852
  592MOL0     C81605   9.214   5.661   0.051  0.1933  0.0951  0.2280
  592MOL0     O81606   9.089   5.821  -0.237  0.6355 -0.2378 -0.1145
  592MOL0     C81607   8.845   5.950  -0.277  0.1483  0.8089  1.3027
  592MOL0     C81608   8.716   6.012  -0.296  0.0247 -0.1563 -0.2146
  592MOL0     N81609   7.995   6.387  -0.252 -0.2941  0.1806 -0.1370
  592MOL0     N81610   7.988   6.460  -0.149  0.5004 -0.8779 -0.7310
  592MOL0     C81611   9.160   6.310   0.232  0.7287  0.2203  0.3542
  592MOL0     C81612   9.281   6.346   0.288  0.3311 -0.1749 -0.0941
  592MOL0     C81613   9.564   6.538   0.584  0.2753  0.3486 -0.9599
  592MOL0     C81614   9.571   6.680   0.610  0.7154 -0.5815  0.0768
  592MOL0     C81615   9.689   6.728   0.663 -0.3696  0.4918  0.4500
  592MOL0     C81616   9.796   6.647   0.696  0.9179 -0.8649 -0.3912
  592MOL0     O81617   9.913   6.697   0.747  0.4693 -0.3473 -0.5288
  592MOL0     C81618   9.891   6.813   0.833  0.2456 -0.1367  0.1455
  592MOL0     C81619  10.008   6.829   0.931 -0.1819  0.1344  0.9163
  592MOL0     C81620  10.146   6.850   0.857  0.8017 -0.5845  0.1441
  592MOL0     C81621  10.269   6.873   0.936 -0.7462 -0.4865  0.5374
  592MOL0     C81622  10.261   6.998   1.007  0.6832 -0.6511  0.1154
  592MOL0     C81623  10.241   7.104   1.061 -0.0904  0.4511  0.0631
  592MOL0     C81624   9.784   6.508   0.683 -0.0699  0.2678  0.0998
  592MOL0     C81625   9.674   6.457   0.616  0.2839 -0.5156 -0.0326
  592MOL0     C81626   9.658   6.301   0.604 -0.3478  0.4004  0.0263
  592MOL0     H81627   9.248   6.689   0.292  0.2500  1.1621 -2.9707
  592MOL0     H81628   9.053   6.630   0.156  0.3040  0.0504 -0.9302
  592MOL0     H81629   8.888   6.233   0.227 -1.2826  2.0633  0.4598
  592MOL0     H81630   8.952   6.181   0.074 -0.9079  0.4626 -0.0304
  592MOL0     H81631   8.774   6.292  -0.055 -1.3646 -2.4292 -0.5680
  592MOL0     H81632   8.719   6.168   0.060 -0.1203  0.9934  3.2950
  592MOL0     H81633   8.682   6.396   0.228  3.1043 -3.3671 -0.1083
  592MOL0     H81634   8.654   6.464   0.068 -1.2373  0.5633  1.1559
  592MOL0     H81635   8.509   6.273   0.008  1.3232 -1.7158  0.6740
  592MOL0     H81636   8.513   6.214   0.175 -0.4639  1.7224  1.9416
  592MOL0     H81637   8.418   6.500   0.098 -2.1183  0.7226  1.3163
  592MOL0     H81638   8.422   6.441   0.254 -2.3665 -0.3556  0.1945
  592MOL0     H81639   8.256   6.314   0.020 -0.7505  0.6234  0.6837
  592MOL0     H81640   8.250   6.273   0.193 -0.9492  1.6462  1.2730
  592MOL0     H81641   8.197   6.539   0.061  2.6500  1.0416  2.2766
  592MOL0     H81642   8.169   6.508   0.235 -0.8096 -0.5847  1.1340
  592MOL0     H81643   7.988   6.356   0.165  0.7838  0.5977  0.9423
  592MOL0     H81644   7.956   6.525   0.110  2.2055  1.1500 -0.3827
  592MOL0     H81645   8.050   6.153  -0.036  0.2986 -1.5814 -3.3670
  592MOL0     H81646   8.069   6.181  -0.412  1.3020 -1.5093 -0.8660
  592MOL0     H81647   8.008   6.070  -0.294  0.5186 -1.0614 -1.7711
  592MOL0     H81648   8.222   6.060  -0.168  3.2203 -0.8323 -0.2093
  592MOL0     H81649   8.228   5.992  -0.328  2.4755 -0.9974  2.3635
  592MOL0     H81650   8.293   6.249  -0.393  1.4673 -1.3817 -1.2636
  592MOL0     H81651   8.334   6.258  -0.215  0.1211 -0.2240  0.6952
  592MOL0     H81652   8.475   6.091  -0.415  0.1149 -0.9313  1.1904
  592MOL0     H81653   8.537   6.229  -0.334  2.5437 -2.5732 -4.0843
  592MOL0     H81654   8.563   5.910  -0.011  0.8010  0.5482 -0.0605
  592MOL0     H81655   8.856   5.847   0.134  0.5631 -1.0244  0.5910
  592MOL0     H81656   8.845   5.689   0.037  0.8471  1.7278 -5.1889
  592MOL0     H81657   8.703   5.752   0.107  0.1793 -1.1904 -0.3661
  592MOL0     H81658   9.292   5.974  -0.031  2.5580  0.5510  0.0755
  592MOL0     H81659   9.516   5.872  -0.051 -1.3799  1.1328 -0.2042
  592MOL0     H81660   9.675   5.689  -0.132 -2.0772  0.2804  1.0075
  592MOL0     H81661   9.702   5.788   0.011  1.7296  1.4809 -1.5634
  592MOL0     H81662   9.792   5.561   0.116 -0.8449  0.8411 -0.7101
  592MOL0     H81663   9.818   5.511  -0.051 -3.3722  0.7398 -2.2195
  592MOL0     H81664   9.911   5.790  -0.010  1.0935 -0.3607 -2.3216
  592MOL0     H81665   9.994   5.655  -0.083  1.4225  0.1882 -0.1150
  592MOL0     H81666   9.959   5.676   0.234  0.8988 -0.0898  0.5716
  592MOL0     H81667  10.082   5.768   0.147  2.2724 -1.4080  0.9811
  592MOL0     H81668  10.044   5.479   0.116  0.7234 -0.8782  0.3399
  592MOL0     H81669  10.169   5.576   0.052  0.7155 -3.6703  0.2240
  592MOL0     H81670  10.121   5.564   0.354 -0.6980 -1.1928  0.1345
  592MOL0     H81671  10.264   5.629   0.271 -1.8344  1.3682  0.1960
  592MOL0     H81672  10.335   5.427   0.194  0.7651  2.7009  0.7931
  592MOL0     H81673  10.181   5.344   0.264 -1.8390  1.2125 -0.2145
  592MOL0     H81674  10.370   5.292   0.414  3.5097  2.2216  0.8097
  592MOL0     H81675  10.261   5.418   0.490  0.1607 -0.1986 -0.2528
  592MOL0     H81676   9.364   5.514   0.108  1.3854  0.5277  0.7554
  592MOL0     H81677   9.125   5.604   0.077 -1.7208  3.0658  0.7547
  592MOL0     H81678   8.917   5.969  -0.356 -0.9048  1.7209  0.5102
  592MOL0     H81679   8.704   6.073  -0.386 -2.5571  0.1527  0.2867
  592MOL0     H81680   9.130   6.205   0.235  1.2539 -0.0116 -1.3059
  592MOL0     H81681   9.345   6.261   0.310 -3.1204 -2.9339  0.1772
  592MOL0     H81682   9.486   6.739   0.575  1.6545 -1.5585 -4.5254
  592MOL0     H81683   9.681   6.835   0.675  1.4957  1.2310 -3.3400
  592MOL0     H81684   9.873   6.903   0.773  2.5988  1.1535  1.2339
  592MOL0     H81685   9.807   6.803   0.903  1.5841  1.1482  2.0297
  592MOL0     H81686  10.008   6.747   1.003 -1.0839 -0.9149 -0.2485
  592MOL0     H81687   9.991   6.909   1.004  0.1832  0.2505  0.8811
  592MOL0     H81688  10.167   6.776   0.779  1.0262 -1.1703  0.7485
  592MOL0     H81689  10.131   6.943   0.803 -0.8422 -0.8897  0.0023
  592MOL0     H81690  10.355   6.892   0.871 -2.3167  2.9487 -0.7985
  592MOL0     H81691  10.301   6.792   1.001  1.0692  1.0189  1.6503
  592MOL0     H81692  10.230   7.197   1.113  0.8468 -0.0946  1.2842
  592MOL0     H81693   9.863   6.443   0.720 -1.5983  0.0136  3.2984
  592MOL0     H81694   9.633   6.259   0.506 -2.3684 -1.1617  1.1361
  592MOL0     H81695   9.746   6.242   0.632 -1.3706 -0.4512  1.5709
  592MOL0     H81696   9.588   6.268   0.681 -0.8814  0.6630 -0.3446
  593MOL0     O81697  10.582   6.790   0.701 -0.1622 -0.3337  0.1954
  593MOL0     C81698  10.563   6.905   0.654  0.0763  0.2847  1.0237
  593MOL0     O81699  10.658   7.005   0.636 -0.1420  0.0289  0.0018
  593MOL0     C81700  10.789   6.989   0.672 -0.9561 -0.1686 -0.2136
  593MOL0     C81701  10.874   7.098   0.632 -0.6407  0.1800 -0.7852
  593MOL0     C81702  11.013   7.107   0.675 -0.6829 -0.0493  0.0726
  593MOL0     C81703  11.071   7.004   0.747  0.3870 -0.0957  0.6819
  593MOL0     O81704  11.199   7.000   0.794  0.7134 -0.2831 -0.1268
  593MOL0     C81705  11.285   7.110   0.755 -0.1332 -0.3428 -0.8600
  593MOL0     C81706  11.366   7.085   0.623  0.3041 -0.0976 -0.6517
  593MOL0     C81707  11.446   7.211   0.581  0.4365  0.3900  0.3532
  593MOL0     C81708  11.497   7.198   0.435  0.4962 -0.3495 -1.0035
  593MOL0     C81709  11.582   7.315   0.388 -0.1881 -0.2940 -0.4256
  593MOL0     C81710  11.590   7.317   0.242 -0.8075  0.1029  0.0366
  593MOL0     C81711  11.649   7.449   0.186  0.1344 -0.5861  0.5311
  593MOL0     C81712  11.682   7.450   0.044 -0.6812  0.3115 -0.4102
  593MOL0     N81713  11.748   7.570  -0.009 -0.5740 -0.3097 -0.8031
  593MOL0     C81714  11.876   7.615   0.023  0.1840  0.5430  0.2889
  593MOL0     C81715  11.904   7.702  -0.079 -0.1494  0.3124  1.1950
  593MOL0     C81716  12.017   7.796  -0.101 -0.4407 -0.1259  0.1129
  593MOL0     C81717  12.048   7.872   0.032  0.8382 -0.1436  0.2557
  593MOL0     C81718  12.136   7.994  -0.003 -0.7197 -0.1815  0.2281
  593MOL0     C81719  12.285   7.966  -0.026 -0.1142  0.2670  0.3191
  593MOL0     O81720  12.332   7.832   0.006 -0.2531 -0.1153  0.5309
  593MOL0     C81721  12.470   7.824   0.006 -0.6382 -0.2400 -0.9743
  593MOL0     C81722  12.536   7.797   0.127 -0.2944  0.1363 -0.0046
  593MOL0     C81723  12.677   7.788   0.135 -0.0090 -0.3140 -0.4493
  593MOL0     C81724  12.731   7.753   0.275 -0.7711  0.0702  0.4436
  593MOL0     C81725  12.762   7.835   0.026  0.2480 -0.1500  0.2133
  593MOL0     C81726  12.911   7.848   0.020 -0.2921 -0.6412 -0.2294
  593MOL0     O81727  12.980   7.814   0.136  0.2690  0.5996  0.8431
  593MOL0     C81728  13.114   7.771   0.137 -0.6207 -0.9683  0.0835
  593MOL0     C81729  13.192   7.739   0.024 -0.3278 -0.0407 -0.1293
  593MOL0     C81730  13.323   7.685   0.046  0.0879 -0.2214 -0.2883
  593MOL0     C81731  13.381   7.689   0.178  0.4478 -0.2431 -0.5000
  593MOL0     O81732  13.502   7.640   0.214 -0.1065 -0.3317  0.7310
  593MOL0     C81733  13.592   7.608   0.106 -0.4780 -0.3085  0.0284
  593MOL0     C81734  13.726   7.632   0.166 -0.7480  0.0715  0.1727
  593MOL0     C81735  13.839   7.628   0.068  0.3306 -0.7289  0.7197
  593MOL0     C81736  13.986   7.642   0.131 -0.5500  0.1302 -0.3085
  593MOL0     C81737  14.099   7.638   0.025 -0.4795  0.7703 -0.1983
  593MOL0     C81738  14.241   7.676   0.080  0.6834 -0.1765  0.8776
  593MOL0     C81739  14.309   7.580   0.181  0.2529 -0.1959 -0.0222
  593MOL0     C81740  14.440   7.645   0.217 -0.0078 -0.6438  0.8136
  593MOL0    Cl81741  14.562   7.604   0.085 -0.5451  0.1199 -0.2906
  593MOL0     C81742  13.302   7.728   0.283  1.3170  0.2778 -0.0167
  593MOL0     C81743  13.168   7.760   0.265 -0.0904  0.2797  0.3953
  593MOL0     O81744  12.965   7.885  -0.083 -0.4304 -0.2674  0.5071
  593MOL0     C81745  12.693   7.869  -0.097  0.0799  0.0823  0.4943
  593MOL0     C81746  12.552   7.856  -0.109  0.0662 -0.8878  0.1664
  593MOL0     N81747  11.801   7.701  -0.166  0.2605 -0.1174  0.3320
  593MOL0     N81748  11.712   7.624  -0.125  0.9081  0.5018  0.3834
  593MOL0     C81749  10.990   6.890   0.789  0.1680  0.1870  0.0842
  593MOL0     C81750  10.851   6.884   0.746  0.1189  1.2119 -0.6419
  593MOL0     C81751  10.420   6.920   0.607 -0.1025 -0.7855 -0.5760
  593MOL0     C81752  10.351   6.811   0.540 -0.2130 -0.8053  0.4066
  593MOL0     C81753  10.214   6.834   0.504 -0.0916  0.3747  0.3153
  593MOL0     C81754  10.154   6.954   0.521  0.3583 -0.3763  0.5499
  593MOL0     O81755  10.030   6.998   0.482  0.2809 -0.1475 -0.0525
  593MOL0     C81756   9.949   6.896   0.419  1.0569  0.0478  0.5401
  593MOL0     C81757   9.807   6.955   0.408  0.7441  0.1766 -0.3138
  593MOL0     C81758   9.697   6.893   0.319 -0.4386  0.0178 -0.3396
  593MOL0     C81759   9.569   6.983   0.304 -0.2066 -0.0192  0.1851
  593MOL0     C81760   9.482   6.997   0.420  0.9161  0.8292  0.3687
  593MOL0     C81761   9.390   7.009   0.505  0.5967 -0.1206 -0.0742
  593MOL0     C81762  10.227   7.061   0.570  0.7957  0.8223 -1.2104
  593MOL0     C81763  10.355   7.043   0.625 -0.8736 -0.0234 -0.1496
  593MOL0     C81764  10.420   7.164   0.696 -0.5034 -0.2427  0.0455
  593MOL0     H81765  10.830   7.185   0.584 -0.1223  1.8246  1.5002
  593MOL0     H81766  11.065   7.195   0.641  0.4062 -0.1267  1.4822
  593MOL0     H81767  11.362   7.098   0.832 -1.8857 -1.6775  0.7971
  593MOL0     H81768  11.255   7.214   0.766 -0.5668 -0.6650  1.7625
  593MOL0     H81769  11.428   6.998   0.645 -0.7675 -0.1522  2.8493
  593MOL0     H81770  11.289   7.061   0.549  0.7897 -1.8277 -0.6482
  593MOL0     H81771  11.379   7.296   0.596 -1.3843 -1.3455  2.8368
  593MOL0     H81772  11.527   7.217   0.653 -0.5379 -1.0953  1.6267
  593MOL0     H81773  11.560   7.109   0.422 -0.9258 -0.9793 -5.0709
  593MOL0     H81774  11.416   7.166   0.370  0.6901 -2.6748 -0.1842
  593MOL0     H81775  11.681   7.300   0.432 -1.1062  0.8119  2.2174
  593MOL0     H81776  11.549   7.414   0.420 -1.8895 -1.3181  1.1573
  593MOL0     H81777  11.654   7.233   0.213 -1.7687 -1.0390  1.1225
  593MOL0     H81778  11.496   7.304   0.188 -1.3242 -0.3185  1.0140
  593MOL0     H81779  11.748   7.464   0.231  1.2042 -0.7957 -1.6302
  593MOL0     H81780  11.581   7.529   0.217  0.3389 -0.5409  0.8711
  593MOL0     H81781  11.750   7.365   0.033 -1.0504 -0.3289  1.6792
  593MOL0     H81782  11.590   7.425  -0.008 -0.5031  1.1517 -1.1412
  593MOL0     H81783  11.933   7.610   0.115  0.6772  1.4611  0.0436
  593MOL0     H81784  11.977   7.873  -0.167 -1.1130 -2.2928 -2.1591
  593MOL0     H81785  12.102   7.743  -0.145 -1.1320  0.5844 -2.2329
  593MOL0     H81786  11.964   7.905   0.094  0.8682  1.3166 -0.4381
  593MOL0     H81787  12.101   7.807   0.102 -1.0386 -2.9738 -0.7691
  593MOL0     H81788  12.093   8.048  -0.088 -0.3550  1.5674  1.1046
  593MOL0     H81789  12.126   8.067   0.078 -0.2774 -1.3266  1.3445
  593MOL0     H81790  12.308   7.987  -0.131  2.1229  0.1528  0.7182
  593MOL0     H81791  12.346   8.029   0.040 -0.3909  0.1298  0.7061
  593MOL0     H81792  12.475   7.786   0.216 -2.2646  1.2842 -1.1479
  593MOL0     H81793  12.650   7.702   0.328 -1.9153  1.0281 -0.3159
  593MOL0     H81794  12.767   7.843   0.325 -1.8069  0.4089  0.5972
  593MOL0     H81795  12.811   7.678   0.274 -0.8506 -0.0168 -0.3607
  593MOL0     H81796  13.144   7.745  -0.073  2.2698 -0.6160 -1.5231
  593MOL0     H81797  13.374   7.644  -0.041  0.3206  0.6462 -0.5752
  593MOL0     H81798  13.581   7.506   0.068  0.5539 -0.8575  1.1489
  593MOL0     H81799  13.585   7.681   0.024  2.3413  0.8017  0.6526
  593MOL0     H81800  13.728   7.727   0.221 -1.1544 -1.6029  3.2806
  593MOL0     H81801  13.744   7.555   0.241 -1.7521  0.3505  0.7225
  593MOL0     H81802  13.811   7.699  -0.011  0.0697 -0.7626  0.7832
  593MOL0     H81803  13.838   7.531   0.018 -0.5350  1.3983 -3.9414
  593MOL0     H81804  13.998   7.560   0.203 -1.5211 -0.2667 -0.5714
  593MOL0     H81805  13.997   7.732   0.192  0.3526  0.4382 -0.9016
  593MOL0     H81806  14.100   7.546  -0.034 -0.5805  1.5139 -1.3828
  593MOL0     H81807  14.081   7.716  -0.050  0.0127 -0.3654 -1.5444
  593MOL0     H81808  14.228   7.776   0.122 -2.3791 -0.7458  1.5343
  593MOL0     H81809  14.301   7.688  -0.010 -1.4068  2.1597 -0.3620
  593MOL0     H81810  14.332   7.484   0.134  1.7762  1.3348 -2.6523
  593MOL0     H81811  14.256   7.561   0.275 -1.7305  0.7305 -0.8915
  593MOL0     H81812  14.465   7.600   0.314  0.8288 -1.8699  0.0607
  593MOL0     H81813  14.429   7.752   0.237 -0.3429  0.3562 -3.7233
  593MOL0     H81814  13.340   7.722   0.384  2.1591 -0.8648 -0.3755
  593MOL0     H81815  13.094   7.778   0.343 -0.0934 -1.9031  0.9569
  593MOL0     H81816  12.750   7.873  -0.189  0.5624 -4.6593  0.3384
  593MOL0     H81817  12.485   7.874  -0.193  0.7613 -0.3635 -0.2823
  593MOL0     H81818  11.035   6.815   0.853  0.3726  1.5020  1.5398
  593MOL0     H81819  10.800   6.795   0.780 -0.2785 -0.1503 -4.3586
  593MOL0     H81820  10.398   6.715   0.520  3.6615  0.8260  0.7202
  593MOL0     H81821  10.156   6.757   0.455  0.0772  1.2940 -1.3792
  593MOL0     H81822   9.987   6.869   0.321  1.4706 -1.6813  1.1364
  593MOL0     H81823   9.948   6.803   0.478  1.2761 -0.5389 -0.3713
  593MOL0     H81824   9.823   7.059   0.379 -0.7756  1.7333  3.6546
  593MOL0     H81825   9.770   6.946   0.511 -2.0783 -3.4241 -1.4096
  593MOL0     H81826   9.746   6.874   0.223  1.9441  0.0933  0.7905
  593MOL0     H81827   9.677   6.789   0.345  1.9301 -0.4794 -0.3253
  593MOL0     H81828   9.513   6.931   0.225  1.8618 -1.0944 -0.6526
  593MOL0     H81829   9.594   7.082   0.267  2.5773  0.0339  1.9447
  593MOL0     H81830   9.303   7.014   0.567  0.8929  3.1626  0.2119
  593MOL0     H81831  10.184   7.160   0.573 -2.1997 -0.3761  1.4123
  593MOL0     H81832  10.486   7.128   0.775 -0.3132 -0.9013 -0.4015
  593MOL0     H81833  10.483   7.221   0.626 -0.9252  0.3242  0.1146
  593MOL0     H81834  10.345   7.234   0.735 -0.4168  1.0255 -1.8904
  594MOL0     O81835   6.369   2.272   2.765 -0.0269 -0.1437  0.1557
  594MOL0     C81836   6.362   2.205   2.867 -0.3833 -0.7238 -1.0129
  594MOL0     O81837   6.468   2.170   2.939  0.0231 -0.1441 -0.2670
  594MOL0     C81838   6.593   2.184   2.887  0.4624  0.0169  0.2468
  594MOL0     C81839   6.630   2.097   2.794 -0.5739  0.2170 -0.5558
  594MOL0     C81840   6.763   2.101   2.744  0.0040 -0.3445 -0.6674
  594MOL0     C81841   6.856   2.188   2.799  0.1026  0.1767  0.1209
  594MOL0     O81842   6.982   2.171   2.752 -0.3487 -1.0646  0.0257
  594MOL0     C81843   7.091   2.249   2.795  0.8160  0.0569 -1.2441
  594MOL0     C81844   7.205   2.264   2.690  0.2702  0.1219  0.4472
  594MOL0     C81845   7.281   2.140   2.635  0.0043 -0.8255  0.3882
  594MOL0     C81846   7.376   2.167   2.518 -0.2005  0.8558  1.0158
  594MOL0     C81847   7.504   2.227   2.570 -0.2451 -0.3311 -0.5889
  594MOL0     C81848   7.602   2.252   2.458 -0.5936 -0.5980  1.0656
  594MOL0     C81849   7.735   2.301   2.514 -0.4362 -0.6364  0.5064
  594MOL0     C81850   7.829   2.315   2.400 -0.2534 -0.0494  0.1661
  594MOL0     N81851   7.962   2.363   2.442 -0.6623  0.7676 -0.3657
  594MOL0     C81852   8.005   2.491   2.451 -0.5013  0.2369  0.6919
  594MOL0     C81853   8.125   2.484   2.508  0.0717 -0.8739  0.3761
  594MOL0     C81854   8.211   2.602   2.533  0.5969 -0.2709  0.1176
  594MOL0     C81855   8.311   2.621   2.415 -0.9507  0.2708 -0.5305
  594MOL0     C81856   8.394   2.755   2.438 -0.0047  0.0052 -0.0840
  594MOL0     C81857   8.490   2.792   2.321 -0.4883  0.0950 -0.3027
  594MOL0     O81858   8.603   2.699   2.327 -0.4423  0.4779 -0.2111
  594MOL0     C81859   8.700   2.692   2.224 -0.2914  0.1188 -0.5254
  594MOL0     C81860   8.667   2.712   2.089  0.5768 -0.4234  0.0817
  594MOL0     C81861   8.772   2.712   1.988  0.6101 -1.2847  0.1664
  594MOL0     C81862   8.718   2.752   1.849  0.2235  0.5815  0.0435
  594MOL0     C81863   8.910   2.678   2.024 -0.6521 -0.3218  0.1951
  594MOL0     C81864   9.016   2.663   1.923  0.3082  0.7545 -0.6828
  594MOL0     O81865   9.114   2.573   1.965  0.1390 -0.2092  0.5035
  594MOL0     C81866   9.234   2.572   1.902 -0.0477  0.1220  0.3657
  594MOL0     C81867   9.299   2.689   1.870  0.7938 -0.5552  0.2387
  594MOL0     C81868   9.423   2.682   1.802 -0.2826  0.0456  0.2445
  594MOL0     C81869   9.484   2.559   1.772 -0.0435 -0.5089  0.3002
  594MOL0     O81870   9.611   2.560   1.729  0.3031  0.6589  0.1782
  594MOL0     C81871   9.642   2.441   1.650 -0.4781 -0.1749 -0.3859
  594MOL0     C81872   9.749   2.358   1.720  0.5389 -0.4270  0.1758
  594MOL0     C81873   9.688   2.275   1.834  0.2281  0.4682  0.1747
  594MOL0     C81874   9.789   2.182   1.898 -0.0257  0.2798  0.7051
  594MOL0     C81875   9.904   2.266   1.962  0.1561 -0.3176  0.4625
  594MOL0     C81876   9.999   2.177   2.036  0.3178  0.0210 -0.7787
  594MOL0     C81877  10.082   2.230   2.147 -0.2981 -0.7509 -0.7031
  594MOL0     C81878  10.187   2.329   2.103 -0.0448 -0.4550  0.2548
  594MOL0    Cl81879  10.323   2.261   2.006  0.0602  0.3991 -0.2021
  594MOL0     C81880   9.409   2.448   1.809 -0.6201  0.1387 -0.1286
  594MOL0     C81881   9.288   2.452   1.876  0.5802  0.7207  0.3745
  594MOL0     O81882   9.017   2.725   1.819  0.5605 -0.0683 -0.3537
  594MOL0     C81883   8.937   2.661   2.164  0.3999 -0.1061 -0.7903
  594MOL0     C81884   8.837   2.670   2.263 -0.5833 -0.4755  0.4312
  594MOL0     N81885   8.147   2.351   2.541 -0.6309 -0.2142  0.0306
  594MOL0     N81886   8.053   2.275   2.507  0.2967  0.0047  0.0141
  594MOL0     C81887   6.810   2.282   2.887 -0.0618  0.5460 -0.1698
  594MOL0     C81888   6.681   2.282   2.927  0.0221 -0.1636  0.9381
  594MOL0     C81889   6.227   2.177   2.913  0.1339 -0.0417 -0.2312
  594MOL0     C81890   6.206   2.119   3.033  0.0212  0.2805  0.5152
  594MOL0     C81891   6.078   2.080   3.080 -0.1837 -0.5489 -0.3457
  594MOL0     C81892   5.967   2.119   3.006 -0.0261 -0.5837  0.1109
  594MOL0     O81893   5.842   2.095   3.061 -0.8387  0.3374 -0.4032
  594MOL0     C81894   5.799   2.199   3.143 -0.0582  0.4498 -0.9679
  594MOL0     C81895   5.756   2.320   3.067  0.7226  0.3447 -0.0692
  594MOL0     C81896   5.654   2.408   3.136 -0.5022  0.4801 -1.1053
  594MOL0     C81897   5.512   2.347   3.154 -1.3006  0.6704  0.5482
  594MOL0     C81898   5.427   2.444   3.212 -0.1586 -0.5606 -0.3924
  594MOL0     C81899   5.369   2.534   3.270 -0.6537  0.1673 -0.1168
  594MOL0     C81900   5.988   2.167   2.879 -0.3804  0.6801  0.4335
  594MOL0     C81901   6.114   2.202   2.828  0.6866 -0.0291 -0.0509
  594MOL0     C81902   6.114   2.262   2.690 -0.4455 -0.5907 -0.3798
  594MOL0     H81903   6.565   2.018   2.759  0.9890 -1.0674 -0.6792
  594MOL0     H81904   6.784   2.024   2.671  0.0039  0.6578 -1.7585
  594MOL0     H81905   7.140   2.181   2.866  1.2299  0.3676 -1.2295
  594MOL0     H81906   7.077   2.349   2.836  3.4315  0.2884 -0.7335
  594MOL0     H81907   7.162   2.310   2.600  0.1759  2.8963  1.7865
  594MOL0     H81908   7.276   2.333   2.736  1.4124 -1.0816  0.5400
  594MOL0     H81909   7.327   2.096   2.724 -4.2979 -1.6310  2.4540
  594MOL0     H81910   7.198   2.078   2.601 -0.9394  1.9266 -2.9287
  594MOL0     H81911   7.397   2.081   2.453 -0.3661  1.3281  0.3349
  594MOL0     H81912   7.328   2.236   2.448  1.6921  1.3610  0.1704
  594MOL0     H81913   7.552   2.164   2.646  0.2553  1.0131  0.2360
  594MOL0     H81914   7.473   2.323   2.611 -0.8481 -0.7002 -0.1734
  594MOL0     H81915   7.613   2.156   2.408  2.5458  1.4737 -2.7980
  594MOL0     H81916   7.561   2.322   2.384  0.8415 -2.5439 -1.7018
  594MOL0     H81917   7.778   2.229   2.584 -1.5235 -0.6275  1.2008
  594MOL0     H81918   7.724   2.401   2.557  1.9272 -0.9393  2.0103
  594MOL0     H81919   7.833   2.229   2.332 -1.7076  1.7878 -2.4454
  594MOL0     H81920   7.788   2.388   2.329 -0.4564  0.5731  0.9102
  594MOL0     H81921   7.947   2.577   2.421 -2.5760 -0.3791  2.6264
  594MOL0     H81922   8.269   2.578   2.623  1.0053 -3.4288 -0.8566
  594MOL0     H81923   8.146   2.689   2.549 -2.7729 -2.1474 -2.0071
  594MOL0     H81924   8.385   2.541   2.412 -1.1212  0.1404 -1.5117
  594MOL0     H81925   8.253   2.609   2.323 -0.3030 -2.5987 -0.6466
  594MOL0     H81926   8.316   2.832   2.448 -0.4366 -0.5622  1.2380
  594MOL0     H81927   8.451   2.737   2.529 -0.9225  1.4104  0.8066
  594MOL0     H81928   8.433   2.783   2.228  1.0086  0.6267 -1.3216
  594MOL0     H81929   8.528   2.895   2.317  2.1048 -0.7324  1.0464
  594MOL0     H81930   8.567   2.748   2.066  0.6979  1.2990  1.8906
  594MOL0     H81931   8.789   2.824   1.806 -1.0993  1.7935 -0.2124
  594MOL0     H81932   8.623   2.806   1.848  0.2186  0.5926  0.6847
  594MOL0     H81933   8.713   2.669   1.778  1.9032 -1.7208  2.4248
  594MOL0     H81934   9.252   2.781   1.902  1.0686 -0.3871  0.1692
  594MOL0     H81935   9.469   2.772   1.762 -2.2869  0.4078 -1.3557
  594MOL0     H81936   9.556   2.379   1.622 -1.5440  0.7766  0.6999
  594MOL0     H81937   9.686   2.480   1.557 -1.0001 -0.2778 -0.6808
  594MOL0     H81938   9.808   2.302   1.647  0.5094  1.2910 -1.2383
  594MOL0     H81939   9.824   2.424   1.766  3.1650 -1.7342 -1.9473
  594MOL0     H81940   9.610   2.207   1.800  0.2704  0.9033 -0.8229
  594MOL0     H81941   9.651   2.345   1.910  0.5985 -0.3440  1.1333
  594MOL0     H81942   9.822   2.111   1.822  0.5160 -0.1179  1.3043
  594MOL0     H81943   9.735   2.120   1.970  0.7309  0.5331  1.5058
  594MOL0     H81944   9.963   2.317   1.885  1.4149 -2.7350 -0.2528
  594MOL0     H81945   9.862   2.333   2.038 -0.1933 -0.3735  0.3208
  594MOL0     H81946  10.058   2.117   1.965 -1.0580 -1.2206 -0.9298
  594MOL0     H81947   9.936   2.096   2.074 -1.0862 -0.7911 -4.3678
  594MOL0     H81948  10.127   2.144   2.197  0.0482 -0.2529 -0.1448
  594MOL0     H81949  10.030   2.285   2.225  0.8026 -3.4762  2.1494
  594MOL0     H81950  10.222   2.376   2.196 -3.1174  0.1875  1.2154
  594MOL0     H81951  10.137   2.404   2.040 -1.1258 -1.1444  0.2676
  594MOL0     H81952   9.446   2.350   1.784 -1.9026 -0.7053  1.1601
  594MOL0     H81953   9.234   2.364   1.911 -0.5269  0.8465 -0.9353
  594MOL0     H81954   9.030   2.629   2.209  0.5129  1.5003  0.2031
  594MOL0     H81955   8.868   2.647   2.364 -0.3436 -0.8306  0.2808
  594MOL0     H81956   6.871   2.357   2.936 -0.0626  1.4472 -1.5015
  594MOL0     H81957   6.645   2.366   2.985 -0.0943  0.9517 -0.6846
  594MOL0     H81958   6.291   2.085   3.090  0.7445 -0.2262 -0.8246
  594MOL0     H81959   6.052   2.036   3.176 -2.0823  3.0153  0.9774
  594MOL0     H81960   5.722   2.161   3.211  0.0722 -0.2056 -1.1821
  594MOL0     H81961   5.871   2.228   3.219 -2.6437  1.3113  1.2985
  594MOL0     H81962   5.715   2.288   2.971 -1.7764  0.0288  1.0259
  594MOL0     H81963   5.848   2.375   3.043  1.9341 -1.7775 -0.6032
  594MOL0     H81964   5.694   2.431   3.236 -3.4060 -1.1586  0.5724
  594MOL0     H81965   5.661   2.501   3.080  1.6999  1.6143  0.8477
  594MOL0     H81966   5.517   2.257   3.216 -1.5213  1.0966  1.1931
  594MOL0     H81967   5.476   2.328   3.052  1.9164  1.8379 -0.9689
  594MOL0     H81968   5.313   2.608   3.322 -3.2778 -2.7038  1.4342
  594MOL0     H81969   5.899   2.196   2.824 -0.0783  0.8205  0.0143
  594MOL0     H81970   6.149   2.186   2.619  0.0235 -1.0541  0.3399
  594MOL0     H81971   6.011   2.282   2.660 -0.7697 -2.3096 -0.5045
  594MOL0     H81972   6.164   2.359   2.677  0.6741 -1.0004  0.6629
  595MOL0     O81973   6.567   2.873  10.786  0.1213  0.0901  0.3791
  595MOL0     C81974   6.500   2.951  10.849 -0.3004 -0.6797 -0.1945
  595MOL0     O81975   6.553   3.063  10.913 -0.5729  0.2811  0.4044
  595MOL0     C81976   6.687   3.065  10.942  0.1255  0.2276  0.1129
  595MOL0     C81977   6.768   3.146  10.870 -0.8962  0.0705  1.4066
  595MOL0     C81978   6.902   3.157  10.908  0.2291  0.2247  0.8371
  595MOL0     C81979   6.944   3.112  11.028 -0.1253 -0.1269 -0.4471
  595MOL0     O81980   7.072   3.132  11.072  0.0386  0.5649  0.6203
  595MOL0     C81981   7.088   3.216  11.185 -0.1561 -0.1320 -0.2082
  595MOL0     C81982   7.235   3.238  11.199  0.2719 -0.6819  0.4358
  595MOL0     C81983   7.294   3.330  11.089  0.4378 -0.0531  0.2679
  595MOL0     C81984   7.444   3.360  11.118 -0.6179  0.5920  1.1236
  595MOL0     C81985   7.481   3.441  11.242 -0.3418 -0.0860 -0.4057
  595MOL0     C81986   7.628   3.475  11.251 -0.1707 -0.2484 -0.0168
  595MOL0     C81987   7.672   3.522  11.395 -0.0947  0.4726 -0.1955
  595MOL0     C81988   7.697   3.398  11.495 -0.0305 -0.0267  0.7419
  595MOL0     N81989   7.841   3.369  11.502 -0.8478 -0.1970  0.0195
  595MOL0     C81990   7.937   3.323  11.407  0.3539 -0.2130  0.0143
  595MOL0     C81991   8.060   3.339  11.468  0.5219  0.1675  1.0061
  595MOL0     C81992   8.189   3.316  11.391  0.0339  0.0842  0.3482
  595MOL0     C81993   8.206   3.164  11.316 -0.5983 -0.0078  0.0323
  595MOL0     C81994   8.217   3.055  11.423  0.1902  0.0125  0.4099
  595MOL0     C81995   8.330   3.070  11.539  0.3459 -0.0524 -0.2898
  595MOL0     O81996   8.455   3.099  11.469  0.2395  0.5348 -0.1411
  595MOL0     C81997   8.558   3.146  11.549  0.5027 -0.2885 -0.2850
  595MOL0     C81998   8.650   3.236  11.490  0.1742  0.4948 -0.6024
  595MOL0     C81999   8.747   3.307  11.566 -0.9900 -0.6380  0.1105
  595MOL0     C82000   8.830   3.401  11.484 -1.0898  0.3024  0.8799
  595MOL0     C82001   8.770   3.268  11.701 -0.9412 -0.3903 -0.4046
  595MOL0     C82002   8.865   3.338  11.788 -0.5654 -0.0288  1.0424
  595MOL0     O82003   8.867   3.292  11.916  0.1567 -0.3983  0.3640
  595MOL0     C82004   8.975   3.306  11.998 -0.8638  0.1971 -0.1161
  595MOL0     C82005   9.104   3.263  11.967 -0.7234 -0.5488  0.3693
  595MOL0     C82006   9.214   3.266  12.063 -0.2130 -2.1596 -0.2455
  595MOL0     C82007   9.195   3.308  12.196  0.5313 -0.4066  0.7480
  595MOL0     O82008   9.290   3.310  12.292 -0.5116 -0.2445 -0.4093
  595MOL0     C82009   9.417   3.367  12.267  0.0822 -0.0935 -0.4054
  595MOL0     C82010   9.531   3.307  12.344  0.6821 -0.2935  0.5811
  595MOL0     C82011   9.548   3.162  12.299  1.0390 -0.8476  0.7815
  595MOL0     C82012   9.683   3.102  12.336  0.3894 -0.0918 -0.4172
  595MOL0     C82013   9.692   2.955  12.293 -0.0411 -0.2636  1.1445
  595MOL0     C82014   9.805   2.879  12.350 -1.0863  0.6998  0.5899
  595MOL0     C82015   9.813   2.737  12.298  0.2392 -0.2969 -0.4429
  595MOL0     C82016   9.927   2.658  12.367 -0.3435  0.2064 -0.4720
  595MOL0    Cl82017   9.976   2.523  12.261  0.2833  0.1163 -0.2842
  595MOL0     C82018   9.062   3.346  12.227  0.1520  0.6113  0.0860
  595MOL0     C82019   8.959   3.352  12.135  0.0372  0.9181  1.0211
  595MOL0     O82020   8.933   3.426  11.747  0.2736 -1.0432 -0.1309
  595MOL0     C82021   8.691   3.175  11.758  1.3396 -0.1220  0.0458
  595MOL0     C82022   8.580   3.116  11.679 -0.7860  0.2782 -0.2874
  595MOL0     N82023   8.034   3.386  11.592  0.1148  0.7177 -0.3401
  595MOL0     N82024   7.917   3.410  11.604  0.4233  0.4103 -0.5204
  595MOL0     C82025   6.860   3.026  11.107  1.3880  0.4125  0.1732
  595MOL0     C82026   6.734   3.003  11.056 -0.8757  0.4493  0.2296
  595MOL0     C82027   6.357   2.930  10.837  0.5995  0.4952 -0.2596
  595MOL0     C82028   6.298   2.888  10.711  0.5093  0.0151 -0.5288
  595MOL0     C82029   6.158   2.881  10.701 -0.3245 -0.9971 -0.1665
  595MOL0     C82030   6.073   2.922  10.800  0.8710  0.3460  0.1062
  595MOL0     O82031   5.940   2.910  10.764 -0.3056 -0.4307  0.0719
  595MOL0     C82032   5.855   2.966  10.859 -0.4096 -0.1121 -0.2730
  595MOL0     C82033   5.845   3.119  10.861  0.0190  0.2870 -0.2301
  595MOL0     C82034   5.813   3.186  10.734 -0.3020 -1.5946  0.3951
  595MOL0     C82035   5.931   3.199  10.637  0.1046  0.4911 -0.3003
  595MOL0     C82036   5.959   3.338  10.605  0.0431  0.8827 -0.1572
  595MOL0     C82037   5.992   3.449  10.575 -0.8085 -0.1421  0.8524
  595MOL0     C82038   6.131   2.950  10.923 -0.1592 -0.5474  0.0860
  595MOL0     C82039   6.266   2.954  10.949  0.1289  0.0437 -0.5676
  595MOL0     C82040   6.316   2.975  11.094 -1.4889  0.3546 -0.5747
  595MOL0     H82041   6.726   3.194  10.782 -0.4841  0.2389  1.3027
  595MOL0     H82042   6.974   3.212  10.850  0.5506 -1.2183 -0.2107
  595MOL0     H82043   7.058   3.167  11.278  2.4913 -2.5509 -0.5025
  595MOL0     H82044   7.035   3.310  11.167 -0.8396 -0.3006  0.8219
  595MOL0     H82045   7.253   3.286  11.296 -0.4010  0.5453 -0.0183
  595MOL0     H82046   7.278   3.138  11.214  2.7001  0.6695  3.6977
  595MOL0     H82047   7.269   3.298  10.988 -1.0529  0.9198  0.3057
  595MOL0     H82048   7.245   3.428  11.097  1.1151  0.5583 -2.1396
  595MOL0     H82049   7.501   3.267  11.107  0.2632  1.3865 -2.4816
  595MOL0     H82050   7.479   3.422  11.035 -0.4384 -2.0332 -0.9061
  595MOL0     H82051   7.439   3.394  11.331 -2.8970 -0.2212 -1.5854
  595MOL0     H82052   7.428   3.536  11.228 -1.1626 -0.5582 -0.5434
  595MOL0     H82053   7.693   3.392  11.222 -1.3903 -0.7332 -1.4599
  595MOL0     H82054   7.653   3.558  11.184 -1.0505 -0.8917 -1.1720
  595MOL0     H82055   7.595   3.584  11.440 -0.7149 -1.5844  1.7476
  595MOL0     H82056   7.766   3.572  11.370  0.3237  0.3692  1.1200
  595MOL0     H82057   7.658   3.423  11.594 -1.7792  2.0691 -0.3783
  595MOL0     H82058   7.645   3.312  11.452 -0.1393  0.4069 -0.0141
  595MOL0     H82059   7.920   3.289  11.305 -0.8569  0.1315  0.0911
  595MOL0     H82060   8.270   3.332  11.463  0.0207  2.0783 -0.0372
  595MOL0     H82061   8.193   3.394  11.315  0.2769  1.2310  1.5057
  595MOL0     H82062   8.121   3.147  11.249  0.7063 -1.5296 -1.3266
  595MOL0     H82063   8.297   3.164  11.255  1.2325 -1.0485  2.5741
  595MOL0     H82064   8.119   3.045  11.470  0.4006  1.0397  1.0906
  595MOL0     H82065   8.227   2.962  11.365 -0.8695 -0.6988  1.3293
  595MOL0     H82066   8.300   3.143  11.615 -0.7431 -1.6915  0.9111
  595MOL0     H82067   8.331   2.975  11.592  0.2204  1.2240  2.1853
  595MOL0     H82068   8.650   3.256  11.383  2.9623 -0.6775 -0.8996
  595MOL0     H82069   8.779   3.422  11.390  1.5082 -3.4620 -1.6373
  595MOL0     H82070   8.932   3.366  11.469 -0.3253  1.9593  1.9941
  595MOL0     H82071   8.842   3.499  11.531  0.3835 -0.7127  2.7707
  595MOL0     H82072   9.119   3.233  11.864 -0.4983 -0.6771  0.4390
  595MOL0     H82073   9.314   3.254  12.023 -0.1858  1.4215 -1.5967
  595MOL0     H82074   9.445   3.364  12.161  2.4808 -1.5973  0.2090
  595MOL0     H82075   9.395   3.474  12.280 -2.2070  0.0348 -3.9391
  595MOL0     H82076   9.619   3.372  12.334  0.6014 -0.2698 -0.0702
  595MOL0     H82077   9.512   3.300  12.451 -3.2613  0.1544  0.0769
  595MOL0     H82078   9.546   3.157  12.189  0.7409  2.3874  0.5576
  595MOL0     H82079   9.455   3.109  12.324 -0.1656 -0.4486 -2.3024
  595MOL0     H82080   9.707   3.106  12.443 -1.3747 -1.9927  0.0981
  595MOL0     H82081   9.757   3.164  12.283 -0.1412  0.3639 -0.6299
  595MOL0     H82082   9.599   2.909  12.327 -0.3863  1.7580  3.1048
  595MOL0     H82083   9.693   2.949  12.183 -0.4958  0.8070  1.0738
  595MOL0     H82084   9.797   2.880  12.460 -2.2898 -2.5475  0.6444
  595MOL0     H82085   9.897   2.926  12.314  0.2888 -2.1547  0.0887
  595MOL0     H82086   9.836   2.741  12.191 -0.5580  2.8078 -0.6065
  595MOL0     H82087   9.715   2.691  12.311  0.2015 -0.7340 -2.0206
  595MOL0     H82088   9.900   2.617  12.464  1.2742 -0.7259 -0.3892
  595MOL0     H82089  10.016   2.720  12.385  0.0476 -0.5132  0.1037
  595MOL0     H82090   9.024   3.355  12.328 -0.4887  0.3365 -0.1299
  595MOL0     H82091   8.860   3.386  12.164 -0.8028 -1.0206  0.5688
  595MOL0     H82092   8.710   3.138  11.858  0.5541 -1.9023 -0.4132
  595MOL0     H82093   8.510   3.048  11.726  1.0947 -1.8102 -0.3433
  595MOL0     H82094   6.881   2.978  11.202 -2.2759  3.4147  2.8219
  595MOL0     H82095   6.670   2.936  11.113  0.0321  1.1939  2.2145
  595MOL0     H82096   6.357   2.874  10.621 -0.3302 -2.9224 -0.7094
  595MOL0     H82097   6.117   2.852  10.605 -1.6495  1.7334 -0.5221
  595MOL0     H82098   5.760   2.931  10.815  1.0463 -2.1769 -1.9998
  595MOL0     H82099   5.867   2.933  10.963 -1.1176 -0.8231 -0.4069
  595MOL0     H82100   5.931   3.166  10.910 -0.2072  1.7711 -1.2171
  595MOL0     H82101   5.763   3.132  10.932 -1.6000 -1.6384 -1.6247
  595MOL0     H82102   5.729   3.137  10.684 -0.9798 -0.8449  0.7913
  595MOL0     H82103   5.774   3.287  10.750 -0.8218 -1.8361  0.6674
  595MOL0     H82104   5.919   3.136  10.549  1.6474 -1.4097  0.7779
  595MOL0     H82105   6.018   3.149  10.680 -0.2577  0.5468  0.5097
  595MOL0     H82106   6.015   3.544  10.532  1.2027 -0.4542  1.1551
  595MOL0     H82107   6.059   2.971  11.002 -0.2670  0.2193 -0.2141
  595MOL0     H82108   6.282   2.893  11.158  1.8042 -0.6151  0.1662
  595MOL0     H82109   6.426   2.977  11.101 -1.3135 -3.7241  0.8640
  595MOL0     H82110   6.288   3.074  11.129  3.8808  2.6539 -1.8160
  596MOL0     O82111   0.215   6.931   8.202 -0.8356  1.1480  0.5818
  596MOL0     C82112   0.251   6.909   8.317  0.6819  0.3211 -0.3164
  596MOL0     O82113   0.178   6.956   8.430  0.2643  0.6167 -0.1890
  596MOL0     C82114   0.061   7.020   8.411  0.8396 -0.4895 -0.4753
  596MOL0     C82115   0.044   7.147   8.453 -0.1040 -0.2365 -0.2675
  596MOL0     C82116  -0.070   7.216   8.438 -0.0826  0.2710  0.4810
  596MOL0     C82117  -0.185   7.156   8.389  0.0264 -0.2429  1.0516
  596MOL0     O82118  -0.306   7.212   8.372  0.1586 -0.7409 -0.0810
  596MOL0     C82119  -0.316   7.346   8.319 -0.5681  0.0450  0.7327
  596MOL0     C82120  -0.334   7.437   8.439  0.3176  0.0139  0.0188
  596MOL0     C82121  -0.389   7.575   8.400  0.6012  0.4029 -0.1171
  596MOL0     C82122  -0.345   7.682   8.499  0.2219 -0.7147  0.6498
  596MOL0     C82123  -0.416   7.813   8.451 -0.0189 -0.5499 -0.2703
  596MOL0     C82124  -0.379   7.939   8.523 -0.6775  0.0170  1.0642
  596MOL0     C82125  -0.238   7.991   8.490 -0.2648  0.0120  0.2134
  596MOL0     C82126  -0.158   7.988   8.622  0.1050  0.5910 -0.0816
  596MOL0     N82127  -0.025   8.037   8.596 -0.2875 -0.7292 -0.1814
  596MOL0     C82128   0.019   8.175   8.613 -0.4896  0.5406 -0.4858
  596MOL0     C82129   0.131   8.179   8.536  0.2516 -0.3377  0.0661
  596MOL0     C82130   0.216   8.301   8.508 -0.4795  0.7838  0.6341
  596MOL0     C82131   0.364   8.289   8.556 -0.6632 -0.4614  0.1537
  596MOL0     C82132   0.446   8.410   8.525 -0.8550 -0.2325 -0.6467
  596MOL0     C82133   0.581   8.395   8.602  0.3502 -0.3214 -0.3232
  596MOL0     O82134   0.657   8.513   8.561 -0.0351  1.1032  0.7066
  596MOL0     C82135   0.791   8.503   8.567 -0.1978 -0.2929  0.9920
  596MOL0     C82136   0.855   8.405   8.632 -0.7163 -0.4998  0.0868
  596MOL0     C82137   0.998   8.421   8.635 -0.3052 -0.0868 -0.8228
  596MOL0     C82138   1.069   8.307   8.717  0.2727  0.2556 -0.3318
  596MOL0     C82139   1.064   8.521   8.573 -0.0137  0.4362 -0.4296
  596MOL0     C82140   1.210   8.529   8.572 -0.0832  0.1846 -0.4841
  596MOL0     O82141   1.287   8.478   8.474 -0.5819 -0.7148  0.2218
  596MOL0     C82142   1.424   8.520   8.478  0.3551 -0.1277 -0.2617
  596MOL0     C82143   1.457   8.657   8.461  0.5338  0.4054  0.4402
  596MOL0     C82144   1.590   8.703   8.442  0.3540  0.3354 -0.6427
  596MOL0     C82145   1.697   8.621   8.445  0.1504  0.3788  0.7866
  596MOL0     O82146   1.820   8.664   8.417 -0.1065 -0.6089 -0.6928
  596MOL0     C82147   1.894   8.566   8.350  0.6427  0.8290 -0.0352
  596MOL0     C82148   2.034   8.598   8.305 -0.6666  0.5420  0.1408
  596MOL0     C82149   2.040   8.697   8.188 -0.0261 -0.3028  0.6909
  596MOL0     C82150   2.136   8.644   8.083  0.1903 -0.3133  0.1315
  596MOL0     C82151   2.135   8.743   7.968 -0.7082  0.7198  0.1964
  596MOL0     C82152   2.258   8.742   7.876 -0.6326 -0.6371 -0.2994
  596MOL0     C82153   2.242   8.828   7.753  0.9275  0.1810 -0.3119
  596MOL0     C82154   2.353   8.839   7.648 -0.3578 -0.4721  1.2028
  596MOL0    Cl82155   2.341   8.710   7.526  0.2944 -0.1265  0.0293
  596MOL0     C82156   1.666   8.488   8.471 -0.2246 -0.3824 -0.7639
  596MOL0     C82157   1.534   8.434   8.476 -0.0751 -0.0679 -0.3315
  596MOL0     O82158   1.248   8.590   8.672 -0.1648 -0.4658 -0.2310
  596MOL0     C82159   0.990   8.614   8.506  0.0485  0.2313  0.7068
  596MOL0     C82160   0.856   8.605   8.499  0.6534  0.1188 -1.1286
  596MOL0     N82161   0.157   8.045   8.493 -0.0056 -0.6404  0.5315
  596MOL0     N82162   0.066   7.961   8.530 -1.2346  0.1761  0.1675
  596MOL0     C82163  -0.183   7.018   8.353 -0.1143  0.6227  1.0611
  596MOL0     C82164  -0.053   6.953   8.367  0.9237 -0.4941  0.2954
  596MOL0     C82165   0.369   6.819   8.333 -0.3063 -0.1118 -0.7664
  596MOL0     C82166   0.403   6.798   8.469  0.5741  0.6064  0.2168
  596MOL0     C82167   0.515   6.714   8.492 -0.3961 -0.6108 -0.6518
  596MOL0     C82168   0.591   6.655   8.390 -0.1827  0.1162  0.1525
  596MOL0     O82169   0.701   6.572   8.423  0.2118 -0.2599 -0.9501
  596MOL0     C82170   0.670   6.439   8.463 -0.5640  0.8453 -0.6723
  596MOL0     C82171   0.625   6.346   8.356 -0.5493  0.4660 -0.1014
  596MOL0     C82172   0.753   6.294   8.280  0.5234 -0.2270 -0.0807
  596MOL0     C82173   0.724   6.243   8.144  0.5766  0.4776  0.4080
  596MOL0     C82174   0.689   6.344   8.048 -0.3577 -0.7472  0.7470
  596MOL0     C82175   0.651   6.433   7.969 -0.3076  0.1513 -0.3542
  596MOL0     C82176   0.547   6.672   8.262 -0.0549  1.2755  0.2463
  596MOL0     C82177   0.448   6.764   8.227 -0.1064 -0.5897  0.7751
  596MOL0     C82178   0.412   6.788   8.072  0.0756  0.3327 -0.7423
  596MOL0     H82179   0.138   7.187   8.491 -0.5678 -1.4686  2.3930
  596MOL0     H82180  -0.063   7.323   8.455  0.9145  0.1031  1.2176
  596MOL0     H82181  -0.403   7.354   8.253  0.5511  1.5087 -0.6381
  596MOL0     H82182  -0.232   7.374   8.255 -0.4413  0.6852  1.1628
  596MOL0     H82183  -0.401   7.390   8.511 -0.7757  0.3169 -0.7826
  596MOL0     H82184  -0.239   7.456   8.491 -0.5580  0.0281  1.6816
  596MOL0     H82185  -0.353   7.598   8.299 -0.2454  0.5042 -0.4016
  596MOL0     H82186  -0.497   7.572   8.390  0.6862  1.5275 -1.7388
  596MOL0     H82187  -0.362   7.660   8.605  1.5913  3.7866  2.0392
  596MOL0     H82188  -0.238   7.703   8.495  0.0952 -0.1710 -0.3438
  596MOL0     H82189  -0.525   7.799   8.453  0.2461 -3.4650 -1.3572
  596MOL0     H82190  -0.393   7.833   8.346  1.1699  0.1569  0.1061
  596MOL0     H82191  -0.441   8.014   8.474  0.5700  0.9014  0.7758
  596MOL0     H82192  -0.406   7.929   8.628 -1.2776 -2.9206  0.7139
  596MOL0     H82193  -0.234   8.095   8.456  0.0772  0.5056  1.6947
  596MOL0     H82194  -0.185   7.934   8.414  1.0325  1.3391  0.0733
  596MOL0     H82195  -0.210   8.060   8.686  1.3140  0.3329  1.2458
  596MOL0     H82196  -0.141   7.890   8.666  2.5765 -0.9557 -3.9497
  596MOL0     H82197  -0.038   8.252   8.664 -0.9849 -0.7488  1.0004
  596MOL0     H82198   0.169   8.391   8.549  0.5080  3.9483 -4.3547
  596MOL0     H82199   0.219   8.307   8.399  0.4457  4.6101  0.7271
  596MOL0     H82200   0.363   8.269   8.664  0.3826 -1.4287  0.0110
  596MOL0     H82201   0.418   8.205   8.511  1.3962  0.6001  0.5224
  596MOL0     H82202   0.461   8.422   8.418 -1.2109 -1.9702 -0.9160
  596MOL0     H82203   0.385   8.492   8.563 -2.2763 -1.9069  0.9008
  596MOL0     H82204   0.569   8.395   8.710  0.8039  0.9659 -0.2550
  596MOL0     H82205   0.625   8.297   8.580  2.0644 -0.1667  2.0682
  596MOL0     H82206   0.808   8.324   8.688  0.1210 -1.7942 -1.0164
  596MOL0     H82207   1.090   8.211   8.669 -1.5590 -0.0750 -0.5718
  596MOL0     H82208   0.999   8.278   8.796  1.6144 -1.9833  0.1225
  596MOL0     H82209   1.159   8.349   8.763 -1.1969  1.3010  1.7260
  596MOL0     H82210   1.378   8.731   8.462 -0.5683 -0.6643 -1.4045
  596MOL0     H82211   1.602   8.811   8.443 -0.0743  0.5001  3.7734
  596MOL0     H82212   1.908   8.483   8.421  1.3746  1.8742  1.0938
  596MOL0     H82213   1.835   8.533   8.265 -2.1057  0.7058  1.7808
  596MOL0     H82214   2.091   8.627   8.393 -2.7220  1.1940  1.3274
  596MOL0     H82215   2.074   8.500   8.275  0.6394  0.6309  1.4873
  596MOL0     H82216   2.078   8.792   8.226 -2.6493  0.0589  2.6557
  596MOL0     H82217   1.943   8.719   8.144 -0.2052  1.4712  1.8462
  596MOL0     H82218   2.096   8.550   8.044 -1.7422  1.1433 -1.6321
  596MOL0     H82219   2.233   8.629   8.130  0.4564  0.3640 -0.1809
  596MOL0     H82220   2.047   8.738   7.903 -1.0305  0.2325  0.6695
  596MOL0     H82221   2.136   8.844   8.010  0.7733  1.4084 -1.3652
  596MOL0     H82222   2.272   8.635   7.857 -0.8919 -1.1517  2.1044
  596MOL0     H82223   2.347   8.784   7.922 -0.5680  0.1113 -1.0841
  596MOL0     H82224   2.227   8.931   7.788  0.4133  0.0896 -0.2498
  596MOL0     H82225   2.150   8.800   7.701  0.6081  1.3191 -0.3767
  596MOL0     H82226   2.452   8.832   7.693 -0.6549 -2.3584  1.6552
  596MOL0     H82227   2.341   8.935   7.598  1.0735 -0.5799  0.6020
  596MOL0     H82228   1.749   8.421   8.489  0.0575 -0.2060 -1.3546
  596MOL0     H82229   1.506   8.331   8.496  1.9950 -0.6620 -0.2506
  596MOL0     H82230   1.051   8.694   8.465  1.1996 -0.4759  1.0052
  596MOL0     H82231   0.799   8.681   8.446 -0.3883  0.8271  0.8993
  596MOL0     H82232  -0.271   6.966   8.317  1.2806 -1.4619  0.5242
  596MOL0     H82233  -0.049   6.848   8.343  0.2838 -0.3364 -0.5797
  596MOL0     H82234   0.355   6.852   8.550  1.4437  0.9459  0.5140
  596MOL0     H82235   0.547   6.702   8.595  0.3431 -0.9068 -0.9085
  596MOL0     H82236   0.754   6.403   8.523  0.0790  2.3631 -0.6174
  596MOL0     H82237   0.591   6.448   8.538 -0.6959 -2.0637 -0.3586
  596MOL0     H82238   0.553   6.391   8.287 -0.1641 -1.2696 -1.7243
  596MOL0     H82239   0.580   6.256   8.399  1.6054 -1.7876 -2.2486
  596MOL0     H82240   0.833   6.368   8.278  0.3338 -0.0406 -1.6149
  596MOL0     H82241   0.801   6.207   8.327  2.0260 -0.3782 -1.8043
  596MOL0     H82242   0.641   6.172   8.145  3.1575 -2.7938  0.6037
  596MOL0     H82243   0.806   6.188   8.096 -1.0268 -1.8651  0.2007
  596MOL0     H82244   0.617   6.522   7.920 -1.3622 -1.0631 -1.9434
  596MOL0     H82245   0.596   6.617   8.182  0.5793  2.2814 -0.0804
  596MOL0     H82246   0.313   6.751   8.044 -0.5390  0.3602  1.2101
  596MOL0     H82247   0.424   6.895   8.050  0.1892  0.3821 -0.4505
  596MOL0     H82248   0.484   6.739   8.006  2.0095  2.4696 -0.3599
  597MOL0     O82249   9.428   4.674   5.554  0.2118  0.3412 -0.1518
  597MOL0     C82250   9.434   4.550   5.538 -0.1062 -0.0375  1.6778
  597MOL0     O82251   9.548   4.482   5.552 -0.4382 -0.1164 -0.2501
  597MOL0     C82252   9.669   4.540   5.594  0.3614  0.9325  0.1962
  597MOL0     C82253   9.786   4.491   5.531 -0.2526 -0.7017 -0.7188
  597MOL0     C82254   9.914   4.529   5.572  0.1190 -0.3429 -0.1296
  597MOL0     C82255   9.925   4.623   5.671 -0.2364 -0.2531 -0.5715
  597MOL0     O82256  10.050   4.660   5.717 -0.1326  0.1206 -0.5655
  597MOL0     C82257  10.064   4.799   5.762  0.6690  0.6772  0.2100
  597MOL0     C82258  10.215   4.827   5.747 -0.0361  0.3403 -0.9361
  597MOL0     C82259  10.274   4.819   5.601 -0.4331  0.5196  0.0797
  597MOL0     C82260  10.425   4.790   5.602  0.5169  0.3700  0.7484
  597MOL0     C82261  10.461   4.672   5.693 -0.1914  0.1242  0.1328
  597MOL0     C82262  10.583   4.597   5.648  0.3335 -0.2535 -0.6574
  597MOL0     C82263  10.701   4.690   5.611 -0.6488 -0.3479  0.0063
  597MOL0     C82264  10.835   4.617   5.613  0.1527  0.3471 -0.0632
  597MOL0     N82265  10.948   4.703   5.567  0.0644  0.2926 -0.0416
  597MOL0     C82266  11.027   4.678   5.454  0.4640  0.4131  0.0161
  597MOL0     C82267  11.120   4.771   5.450 -0.1359  0.1316 -1.0220
  597MOL0     C82268  11.212   4.797   5.332  0.2011 -0.1437 -0.6941
  597MOL0     C82269  11.332   4.880   5.360 -0.0710  1.1170  0.4231
  597MOL0     C82270  11.419   4.883   5.233 -0.1153 -0.8761  0.1844
  597MOL0     C82271  11.531   4.986   5.248  0.5898  0.0012 -0.5670
  597MOL0     O82272  11.610   4.958   5.134 -0.5167  0.5799 -0.4064
  597MOL0     C82273  11.744   4.993   5.140  0.0515 -0.0098  0.0312
  597MOL0     C82274  11.797   5.094   5.227  0.1306 -0.1508  0.0505
  597MOL0     C82275  11.930   5.131   5.217  0.0500 -0.0953 -0.1251
  597MOL0     C82276  11.976   5.226   5.331 -0.0331 -0.0725  0.3388
  597MOL0     C82277  12.015   5.069   5.119  0.4589  0.5512  0.3913
  597MOL0     C82278  12.159   5.109   5.109  0.2269  0.6289  0.2331
  597MOL0     O82279  12.243   5.030   5.043  1.2064 -0.4953  0.8657
  597MOL0     C82280  12.374   5.059   5.024 -0.1057  0.3766 -0.5586
  597MOL0     C82281  12.426   5.078   4.893  0.2495 -0.4672 -0.0520
  597MOL0     C82282  12.560   5.109   4.869  0.9356 -0.5460  0.1646
  597MOL0     C82283  12.648   5.134   4.977 -0.8424 -0.0701 -0.2406
  597MOL0     O82284  12.781   5.155   4.957 -0.1652 -0.2246 -0.2253
  597MOL0     C82285  12.834   5.098   4.839 -0.1047  0.2696 -0.0445
  597MOL0     C82286  12.979   5.072   4.852 -0.1088 -0.2267  0.5248
  597MOL0     C82287  13.071   5.202   4.877  0.9861  0.5375  0.2270
  597MOL0     C82288  13.220   5.180   4.880  0.1224 -0.4079 -0.6906
  597MOL0     C82289  13.299   5.260   4.777 -0.4347 -0.4031  0.6346
  597MOL0     C82290  13.264   5.231   4.629 -0.1544  0.2852 -0.0899
  597MOL0     C82291  13.324   5.333   4.531  0.6802 -0.2025 -0.3721
  597MOL0     C82292  13.284   5.290   4.391  0.3431 -0.7495 -0.0867
  597MOL0    Cl82293  13.105   5.306   4.368  0.2686  0.4205 -0.3189
  597MOL0     C82294  12.597   5.120   5.108  0.6722  0.5361 -0.6442
  597MOL0     C82295  12.467   5.087   5.129  0.1435  0.6551  0.1606
  597MOL0     O82296  12.207   5.210   5.169  0.3571 -0.8159 -0.4310
  597MOL0     C82297  11.960   4.973   5.036  0.0601 -0.2542 -0.0165
  597MOL0     C82298  11.825   4.938   5.040 -0.2318  0.4921  0.6106
  597MOL0     N82299  11.107   4.855   5.562 -0.8913 -0.0166  0.1746
  597MOL0     N82300  10.997   4.821   5.621 -0.0970 -0.7300  0.7440
  597MOL0     C82301   9.804   4.687   5.723  0.0416 -0.8940  0.3943
  597MOL0     C82302   9.683   4.646   5.684  0.9530  0.7039  0.2273
  597MOL0     C82303   9.300   4.472   5.536  0.5182 -0.5835 -0.3186
  597MOL0     C82304   9.315   4.337   5.540  0.2843  0.1923 -0.8732
  597MOL0     C82305   9.206   4.244   5.537 -0.1053  0.5915  0.0352
  597MOL0     C82306   9.073   4.293   5.545 -0.8193 -0.4530  0.1211
  597MOL0     O82307   8.964   4.216   5.562  0.2360  0.0157  0.0011
  597MOL0     C82308   8.977   4.071   5.556 -0.0498 -0.0133 -0.2028
  597MOL0     C82309   8.834   4.018   5.585 -1.7403  0.6918  1.0111
  597MOL0     C82310   8.745   4.041   5.461  0.3904 -0.1022  0.0723
  597MOL0     C82311   8.598   4.013   5.478  0.5847 -0.1263  0.0009
  597MOL0     C82312   8.522   4.031   5.349 -0.0973  0.2669 -0.7289
  597MOL0     C82313   8.450   4.052   5.259 -0.6311 -0.7303 -0.2921
  597MOL0     C82314   9.063   4.429   5.527  0.8801 -0.1139 -0.0816
  597MOL0     C82315   9.171   4.520   5.524 -2.0378 -0.0130  0.6870
  597MOL0     C82316   9.138   4.662   5.495  0.0410 -0.5772  0.4837
  597MOL0     H82317   9.765   4.410   5.461 -1.6858 -0.6807 -0.3479
  597MOL0     H82318  10.002   4.485   5.527 -0.9790 -1.3867 -1.3545
  597MOL0     H82319  10.028   4.804   5.865 -3.6480  1.9133 -1.1280
  597MOL0     H82320  10.008   4.868   5.699 -0.6860 -1.7502 -1.4027
  597MOL0     H82321  10.228   4.924   5.797 -0.7097  0.1636 -0.3994
  597MOL0     H82322  10.260   4.752   5.813 -0.5694  0.5465 -0.3324
  597MOL0     H82323  10.218   4.745   5.543 -0.8281  0.6126  0.3389
  597MOL0     H82324  10.262   4.912   5.546 -1.1607  0.6583  0.4645
  597MOL0     H82325  10.452   4.774   5.497  1.0894 -0.6596  1.0407
  597MOL0     H82326  10.484   4.877   5.631 -0.5760  1.2590  0.3767
  597MOL0     H82327  10.376   4.605   5.676 -0.3186 -0.2070  1.9178
  597MOL0     H82328  10.455   4.692   5.800 -1.6686 -2.9464  0.7199
  597MOL0     H82329  10.614   4.535   5.732 -1.9471 -0.4147  0.1312
  597MOL0     H82330  10.552   4.532   5.566 -0.9729  0.3836 -0.7013
  597MOL0     H82331  10.714   4.771   5.683  1.9673 -0.9898  0.3331
  597MOL0     H82332  10.690   4.725   5.507 -1.9603  0.4094  0.3760
  597MOL0     H82333  10.846   4.577   5.714 -1.4902 -1.6601 -0.6235
  597MOL0     H82334  10.826   4.530   5.548  0.0875  0.0688  0.3224
  597MOL0     H82335  11.000   4.601   5.381  1.0912 -0.7271  0.9543
  597MOL0     H82336  11.143   4.846   5.263 -1.0608 -1.7425 -0.6337
  597MOL0     H82337  11.238   4.696   5.299 -1.0158 -0.6970 -0.0188
  597MOL0     H82338  11.294   4.979   5.388 -0.4155  0.5594  2.0508
  597MOL0     H82339  11.395   4.843   5.441  3.1448  1.7264 -1.6216
  597MOL0     H82340  11.462   4.785   5.212  0.1103 -1.1217  1.7118
  597MOL0     H82341  11.365   4.909   5.141  1.0654  1.3070  0.0409
  597MOL0     H82342  11.497   5.091   5.248 -3.2631 -1.0786 -0.4448
  597MOL0     H82343  11.578   4.961   5.343 -0.9223 -1.3110 -0.1119
  597MOL0     H82344  11.731   5.134   5.303  1.0530 -0.5099  1.0569
  597MOL0     H82345  11.897   5.256   5.402 -0.2712 -0.2839  0.1676
  597MOL0     H82346  12.020   5.317   5.290  1.5559 -0.9926 -0.0867
  597MOL0     H82347  12.049   5.171   5.392  1.2694  0.4595 -0.7074
  597MOL0     H82348  12.353   5.066   4.813 -0.9748 -0.8636  1.0783
  597MOL0     H82349  12.592   5.113   4.765 -0.8261 -1.0660 -0.4442
  597MOL0     H82350  12.784   5.002   4.821  0.8893  0.0257 -1.6908
  597MOL0     H82351  12.810   5.161   4.754  2.5852  1.3416 -0.0913
  597MOL0     H82352  12.995   4.996   4.929 -0.4158 -1.3297 -0.4884
  597MOL0     H82353  13.009   5.021   4.760  3.0034 -0.3496  1.4918
  597MOL0     H82354  13.049   5.226   4.981  0.8819 -1.9212  0.8334
  597MOL0     H82355  13.039   5.277   4.803 -1.4822 -2.2179 -1.7361
  597MOL0     H82356  13.243   5.073   4.890 -2.1005 -0.9865 -1.2153
  597MOL0     H82357  13.254   5.229   4.971  2.2453  1.6022 -2.4425
  597MOL0     H82358  13.290   5.364   4.812  0.7671 -0.5429  1.4200
  597MOL0     H82359  13.406   5.239   4.789 -0.7429 -1.8133  1.0246
  597MOL0     H82360  13.155   5.226   4.619 -0.1827  1.4569 -0.5635
  597MOL0     H82361  13.297   5.131   4.602 -1.7915 -0.2395 -0.2913
  597MOL0     H82362  13.432   5.337   4.545  0.2283  2.4740  4.7383
  597MOL0     H82363  13.289   5.435   4.548  1.0524 -0.1574  0.1237
  597MOL0     H82364  13.308   5.184   4.378  1.9436 -0.7401  2.1853
  597MOL0     H82365  13.339   5.343   4.313 -0.7469 -0.9782 -1.0432
  597MOL0     H82366  12.655   5.136   5.198 -1.2409 -0.6695  0.8905
  597MOL0     H82367  12.427   5.077   5.229 -0.2349  0.8555  0.0280
  597MOL0     H82368  12.020   4.926   4.959 -2.3170 -0.5195 -1.8143
  597MOL0     H82369  11.783   4.865   4.972 -1.1398  2.1856 -0.7213
  597MOL0     H82370   9.814   4.755   5.807 -1.3377 -0.6204  0.3619
  597MOL0     H82371   9.599   4.686   5.740  1.0392 -1.1139  1.7645
  597MOL0     H82372   9.412   4.289   5.549 -0.3382 -1.3295 -1.7770
  597MOL0     H82373   9.231   4.139   5.536  0.0078  0.5929 -2.6789
  597MOL0     H82374   9.024   4.032   5.465 -1.2861  1.5092 -1.5479
  597MOL0     H82375   9.045   4.030   5.631  1.7660  1.3655 -1.0175
  597MOL0     H82376   8.796   4.061   5.678 -0.3569  1.3064  1.3161
  597MOL0     H82377   8.841   3.913   5.614  1.2542 -0.0510 -1.7846
  597MOL0     H82378   8.756   4.149   5.444 -1.7349  0.8140  3.5453
  597MOL0     H82379   8.790   3.977   5.384  0.4621 -1.4617  1.2151
  597MOL0     H82380   8.556   4.083   5.551 -0.0511  0.8721 -1.2782
  597MOL0     H82381   8.584   3.911   5.516 -0.6383 -0.1373 -0.4348
  597MOL0     H82382   8.389   4.071   5.173 -0.0553  1.2553 -0.3213
  597MOL0     H82383   8.961   4.465   5.521  0.9792  0.2404  0.3171
  597MOL0     H82384   9.183   4.682   5.397 -0.4824 -0.3808  0.2815
  597MOL0     H82385   9.033   4.690   5.490  0.3277  0.6663  1.0686
  597MOL0     H82386   9.187   4.734   5.561  2.9189  0.1234 -2.1439
  598MOL0     O82387   0.737   0.169   9.201  0.0626 -0.3367 -0.4109
  598MOL0     C82388   0.762   0.103   9.298 -0.5710 -0.3294 -0.0026
  598MOL0     O82389   0.836   0.149   9.413  0.5972  0.1715 -0.0534
  598MOL0     C82390   0.924   0.253   9.399 -0.5582  0.2594  0.2277
  598MOL0     C82391   0.985   0.297   9.278  0.0209 -0.4815 -0.3440
  598MOL0     C82392   1.092   0.386   9.284 -0.5422 -0.0747  0.5601
  598MOL0     C82393   1.131   0.448   9.403 -0.1592  0.6335 -1.3596
  598MOL0     O82394   1.219   0.549   9.396  0.3862  0.1415 -0.6062
  598MOL0     C82395   1.168   0.665   9.328 -0.3767 -0.1053  0.3862
  598MOL0     C82396   1.240   0.792   9.381  0.2544 -0.3307  0.1757
  598MOL0     C82397   1.197   0.919   9.304 -0.0849  0.2176  0.7665
  598MOL0     C82398   1.316   1.024   9.312  0.2189 -0.4631  0.1232
  598MOL0     C82399   1.279   1.151   9.236  0.2092 -0.2618  0.1060
  598MOL0     C82400   1.351   1.271   9.287  0.2226 -0.2636  0.2884
  598MOL0     C82401   1.504   1.256   9.253  0.4635 -0.6326 -0.5010
  598MOL0     C82402   1.570   1.385   9.297 -0.5266 -0.6928  0.7722
  598MOL0     N82403   1.714   1.394   9.278 -0.6179  0.9257  0.2252
  598MOL0     C82404   1.808   1.396   9.381 -0.9258  0.3007  0.3690
  598MOL0     C82405   1.924   1.438   9.326  0.2177 -0.0286  0.0284
  598MOL0     C82406   2.054   1.456   9.394  0.8733 -0.0331  0.1947
  598MOL0     C82407   2.109   1.602   9.396 -0.1056 -1.3481  0.0628
  598MOL0     C82408   2.131   1.661   9.252 -0.2718 -0.2544  0.0181
  598MOL0     C82409   2.240   1.764   9.241  0.4203 -0.4982  0.0915
  598MOL0     O82410   2.284   1.780   9.100 -0.3147  0.5479 -0.2281
  598MOL0     C82411   2.371   1.690   9.047 -0.6352  0.4703 -0.1764
  598MOL0     C82412   2.387   1.697   8.908  0.7874 -0.3263  0.3402
  598MOL0     C82413   2.492   1.629   8.849  0.3586  0.7192  0.2846
  598MOL0     C82414   2.520   1.652   8.701  0.7063  0.5810  0.2037
  598MOL0     C82415   2.577   1.541   8.921  0.2531 -0.2704  0.2498
  598MOL0     C82416   2.679   1.447   8.870 -0.1316 -0.7161  0.7113
  598MOL0     O82417   2.717   1.336   8.938 -0.2405 -0.0930 -0.2887
  598MOL0     C82418   2.851   1.297   8.919  0.0503 -0.4382 -1.0108
  598MOL0     C82419   2.940   1.334   9.020  0.5797 -0.4554  0.7812
  598MOL0     C82420   3.071   1.290   9.015 -0.7256 -0.0151 -0.1705
  598MOL0     C82421   3.111   1.224   8.894  0.0710 -0.3486 -0.4498
  598MOL0     O82422   3.243   1.177   8.872  0.9244 -0.9065  0.0581
  598MOL0     C82423   3.349   1.272   8.897 -0.4477 -0.8116 -0.3567
  598MOL0     C82424   3.466   1.185   8.942 -0.1368  0.0613 -0.8461
  598MOL0     C82425   3.587   1.261   8.984 -0.5733 -0.2851 -0.0601
  598MOL0     C82426   3.687   1.160   9.041  0.2835 -0.1477 -0.9056
  598MOL0     C82427   3.828   1.221   9.052  0.5488 -0.7917  0.4051
  598MOL0     C82428   3.923   1.133   9.132  0.0396 -0.1361  0.1729
  598MOL0     C82429   4.064   1.126   9.066 -0.5923  0.5510 -0.2157
  598MOL0     C82430   4.133   1.253   9.094  0.1705 -0.7775 -0.0427
  598MOL0    Cl82431   4.172   1.274   9.267 -0.0834 -0.1639 -0.1274
  598MOL0     C82432   3.023   1.204   8.785 -0.1997  0.5314 -0.4521
  598MOL0     C82433   2.898   1.238   8.796  0.6636  0.5384 -0.2939
  598MOL0     O82434   2.721   1.475   8.761  0.2793  0.3352  0.9927
  598MOL0     C82435   2.551   1.534   9.057 -0.2564 -0.1539  0.0204
  598MOL0     C82436   2.457   1.609   9.120 -0.6033 -0.2837  0.2910
  598MOL0     N82437   1.909   1.439   9.189  0.3299 -0.2294 -0.1176
  598MOL0     N82438   1.787   1.416   9.160 -0.2980  0.4873  0.0733
  598MOL0     C82439   1.067   0.413   9.521  0.2158  0.5364 -0.3551
  598MOL0     C82440   0.960   0.321   9.518  0.1347  0.7542 -0.1500
  598MOL0     C82441   0.711  -0.037   9.313 -0.6075 -0.2985  0.6925
  598MOL0     C82442   0.638  -0.080   9.424 -0.6933  0.8589  0.1421
  598MOL0     C82443   0.575  -0.199   9.427  0.1393 -0.2189  0.0568
  598MOL0     C82444   0.596  -0.293   9.322 -0.7144  0.3200 -1.0939
  598MOL0     O82445   0.524  -0.401   9.299  0.7352  0.0487  0.2078
  598MOL0     C82446   0.482  -0.468   9.423 -1.0873 -0.0008  0.3707
  598MOL0     C82447   0.399  -0.583   9.387  0.8171  0.1057 -0.3951
  598MOL0     C82448   0.371  -0.674   9.505  0.8674  0.0873  0.0477
  598MOL0     C82449   0.259  -0.604   9.594 -0.2457 -0.2310  0.2162
  598MOL0     C82450   0.238  -0.683   9.711  0.8558 -0.0456 -0.1031
  598MOL0     C82451   0.211  -0.740   9.816 -0.1284 -0.5180  0.7381
  598MOL0     C82452   0.673  -0.256   9.216  0.1198 -1.2690 -0.5452
  598MOL0     C82453   0.731  -0.127   9.202  1.9048  0.4069 -0.9075
  598MOL0     C82454   0.815  -0.099   9.087 -0.2284  0.3271 -0.1302
  598MOL0     H82455   0.968   0.251   9.182 -0.0045 -2.2846  0.4798
  598MOL0     H82456   1.142   0.401   9.189 -1.6271  0.8984  0.1204
  598MOL0     H82457   1.063   0.690   9.341 -0.2775  0.9914 -0.6535
  598MOL0     H82458   1.191   0.645   9.223  1.1930  0.4833  0.5816
  598MOL0     H82459   1.234   0.816   9.487  0.5291  1.3323 -0.1524
  598MOL0     H82460   1.346   0.770   9.364 -0.1171 -0.2898 -2.7011
  598MOL0     H82461   1.189   0.900   9.196  0.4712  1.7032  0.4365
  598MOL0     H82462   1.101   0.963   9.330  0.2624  0.9498  0.8510
  598MOL0     H82463   1.328   1.061   9.415 -1.0213  0.4933 -0.0487
  598MOL0     H82464   1.414   0.989   9.278 -0.1527  0.2988 -1.8535
  598MOL0     H82465   1.171   1.169   9.237  0.1206 -0.7625 -0.1687
  598MOL0     H82466   1.306   1.143   9.130 -0.0486 -0.1717  0.0325
  598MOL0     H82467   1.315   1.366   9.246  1.2986 -0.5903 -1.5362
  598MOL0     H82468   1.336   1.283   9.395  0.5913  0.6894  0.2411
  598MOL0     H82469   1.514   1.242   9.145  2.9301  0.2838 -0.4567
  598MOL0     H82470   1.557   1.176   9.306  1.2753  0.2981  0.1265
  598MOL0     H82471   1.518   1.465   9.243 -0.1262 -0.4262  0.7740
  598MOL0     H82472   1.558   1.396   9.405 -1.2900  1.2049  0.5304
  598MOL0     H82473   1.803   1.358   9.483  1.2195 -0.9374  0.0851
  598MOL0     H82474   2.135   1.397   9.351  1.5105  0.2469  0.9885
  598MOL0     H82475   2.035   1.420   9.495 -0.8804 -3.4189 -1.1758
  598MOL0     H82476   2.044   1.670   9.451  0.6874 -1.5542  1.3004
  598MOL0     H82477   2.210   1.606   9.439 -0.5266 -2.9807  1.3079
  598MOL0     H82478   2.145   1.587   9.172 -1.7622  0.4606 -0.9315
  598MOL0     H82479   2.035   1.704   9.225 -0.4119 -0.9591 -0.6213
  598MOL0     H82480   2.198   1.863   9.257  1.2435  0.1619 -1.5585
  598MOL0     H82481   2.325   1.751   9.308  0.8035 -6.9759 -1.0156
  598MOL0     H82482   2.332   1.768   8.846  0.5452 -0.8493 -0.0446
  598MOL0     H82483   2.472   1.737   8.651 -1.1703 -1.0550 -0.9550
  598MOL0     H82484   2.478   1.564   8.651 -1.7617  2.1374 -0.6658
  598MOL0     H82485   2.624   1.675   8.676  0.9125 -2.1254 -2.0012
  598MOL0     H82486   2.899   1.369   9.115  1.3256 -0.0870  0.9742
  598MOL0     H82487   3.135   1.299   9.103 -1.1562 -1.3407  0.2981
  598MOL0     H82488   3.392   1.317   8.807  1.4870 -1.6800  0.0879
  598MOL0     H82489   3.324   1.349   8.970 -1.4755 -0.3670 -1.1403
  598MOL0     H82490   3.441   1.115   9.022  3.2343 -1.7084 -1.1677
  598MOL0     H82491   3.489   1.117   8.859 -1.7462  0.5919 -1.7763
  598MOL0     H82492   3.564   1.343   9.052 -1.6585 -0.1223 -0.5981
  598MOL0     H82493   3.627   1.315   8.897  0.2039 -1.5420 -0.5257
  598MOL0     H82494   3.692   1.072   8.976  1.3970 -0.0153 -1.0175
  598MOL0     H82495   3.644   1.119   9.133 -1.0936 -0.1520 -1.5305
  598MOL0     H82496   3.860   1.247   8.950  3.1313  1.2528  1.6065
  598MOL0     H82497   3.820   1.315   9.108 -1.3540 -0.3450 -0.5327
  598MOL0     H82498   3.885   1.031   9.128 -0.5452  0.1200 -1.4756
  598MOL0     H82499   3.922   1.170   9.235 -0.7834  3.0768 -0.8591
  598MOL0     H82500   4.046   1.111   8.960  1.6619 -0.1470 -0.5385
  598MOL0     H82501   4.116   1.039   9.107  1.5387  2.4452  1.3526
  598MOL0     H82502   4.067   1.336   9.069  0.9802 -0.9802 -3.3364
  598MOL0     H82503   4.228   1.267   9.041  0.2295  0.4760  0.3630
  598MOL0     H82504   3.058   1.163   8.691  0.3532 -1.2853  0.4919
  598MOL0     H82505   2.832   1.201   8.718 -0.5971 -0.6302  1.2621
  598MOL0     H82506   2.618   1.477   9.121 -0.7587 -1.3110 -0.4586
  598MOL0     H82507   2.449   1.598   9.227  1.6478 -0.7379  0.4592
  598MOL0     H82508   1.091   0.464   9.614 -0.0830 -2.1102  1.2968
  598MOL0     H82509   0.904   0.295   9.607  0.9252  2.8603  1.0446
  598MOL0     H82510   0.613  -0.007   9.500  0.9839  1.0506  0.5494
  598MOL0     H82511   0.504  -0.217   9.507  0.9150  0.1063  0.8325
  598MOL0     H82512   0.569  -0.501   9.480  0.2994  2.8963  0.0899
  598MOL0     H82513   0.430  -0.400   9.490 -1.9864 -0.7980  0.5105
  598MOL0     H82514   0.450  -0.644   9.312  0.0843  0.1197 -0.9209
  598MOL0     H82515   0.303  -0.548   9.349 -0.0204 -1.1046  0.5030
  598MOL0     H82516   0.336  -0.768   9.461  0.8007  1.4074 -3.0156
  598MOL0     H82517   0.454  -0.695   9.574  0.1339 -0.0229  0.9075
  598MOL0     H82518   0.167  -0.599   9.535 -0.4248  2.6439  0.5861
  598MOL0     H82519   0.286  -0.503   9.626  1.9625 -0.6238 -0.2295
  598MOL0     H82520   0.172  -0.803   9.893 -2.2364 -1.7584 -1.1951
  598MOL0     H82521   0.666  -0.329   9.136  0.0267 -2.1024  0.2105
  598MOL0     H82522   0.788  -0.166   9.005 -2.3377  1.8216 -0.7243
  598MOL0     H82523   0.789  -0.003   9.041 -0.3026  0.5786  0.4226
  598MOL0     H82524   0.921  -0.107   9.116 -1.0107 -0.2392  3.0065
  599MOL0     O82525   3.261   6.286   8.128 -0.1898 -0.5193  0.2608
  599MOL0     C82526   3.279   6.167   8.149 -0.1358  0.9832  0.0409
  599MOL0     O82527   3.397   6.097   8.118 -0.0313  0.0582 -0.2485
  599MOL0     C82528   3.479   6.169   8.032  0.1694  0.1209  0.3086
  599MOL0     C82529   3.476   6.141   7.896 -0.0431 -0.4487 -0.3176
  599MOL0     C82530   3.564   6.204   7.808 -0.1469 -0.0411  0.4049
  599MOL0     C82531   3.664   6.296   7.855 -0.1857  0.1075  0.1324
  599MOL0     O82532   3.755   6.364   7.772 -0.0018  0.0451  0.8477
  599MOL0     C82533   3.782   6.301   7.640 -0.8281 -0.2453 -0.6971
  599MOL0     C82534   3.906   6.360   7.573  0.5838  0.3745  0.5235
  599MOL0     C82535   3.952   6.262   7.468  0.2711  0.5823  0.3715
  599MOL0     C82536   4.054   6.330   7.373  0.4348  1.3225  0.0570
  599MOL0     C82537   4.197   6.319   7.433 -0.4794  0.1674 -0.2461
  599MOL0     C82538   4.278   6.446   7.393  0.1113  0.6793  0.1281
  599MOL0     C82539   4.407   6.471   7.467  0.2227  0.5102  0.8361
  599MOL0     C82540   4.429   6.626   7.482  0.1242  0.5878  0.0733
  599MOL0     N82541   4.573   6.656   7.463  0.5253  0.3552  0.0739
  599MOL0     C82542   4.665   6.670   7.556  0.4472 -0.7797 -0.4237
  599MOL0     C82543   4.778   6.712   7.492  0.3339  0.6625  0.5728
  599MOL0     C82544   4.911   6.722   7.567  0.5323  0.2070  0.6728
  599MOL0     C82545   4.982   6.587   7.562 -0.0556 -0.1961  0.2568
  599MOL0     C82546   5.109   6.580   7.647  0.5906 -0.4505  0.5969
  599MOL0     C82547   5.228   6.655   7.594  0.1291  1.0858 -0.2004
  599MOL0     O82548   5.335   6.648   7.689 -0.2071  0.5692 -0.0175
  599MOL0     C82549   5.460   6.677   7.653 -0.3791 -0.0100  0.1064
  599MOL0     C82550   5.557   6.673   7.754 -0.0885  0.1589  0.1027
  599MOL0     C82551   5.692   6.719   7.733 -0.5197 -0.0846 -0.3910
  599MOL0     C82552   5.791   6.708   7.852 -0.4626 -0.3343  0.6068
  599MOL0     C82553   5.735   6.744   7.600 -0.8497 -0.5655 -0.1735
  599MOL0     C82554   5.879   6.798   7.569  0.5391 -0.6254 -0.4040
  599MOL0     O82555   5.897   6.806   7.437  0.1375 -0.3800 -0.3149
  599MOL0     C82556   6.010   6.870   7.395 -0.5878 -0.0425  0.0621
  599MOL0     C82557   6.004   7.002   7.342 -0.2236  0.0221 -0.3352
  599MOL0     C82558   6.121   7.073   7.314 -0.3046  0.3597 -0.9003
  599MOL0     C82559   6.242   7.008   7.318 -0.1971 -0.3745 -0.3152
  599MOL0     O82560   6.352   7.069   7.264 -0.4640 -0.1449 -1.3768
  599MOL0     C82561   6.486   7.019   7.273  0.3814  0.8971  0.4327
  599MOL0     C82562   6.597   7.099   7.195 -0.4455  0.2778 -0.5042
  599MOL0     C82563   6.738   7.034   7.204 -0.2698 -0.7245 -0.5799
  599MOL0     C82564   6.858   7.120   7.162 -0.4834 -0.2046  1.0373
  599MOL0     C82565   6.991   7.051   7.210 -0.9276 -0.0606  0.3788
  599MOL0     C82566   7.121   7.096   7.139 -0.3433  0.2876  0.1787
  599MOL0     C82567   7.138   7.066   6.986 -0.4960  0.6386  0.2954
  599MOL0     C82568   7.234   7.152   6.911 -0.0169  0.3588  0.3323
  599MOL0    Cl82569   7.253   7.093   6.752  0.3064 -0.0918  0.0726
  599MOL0     C82570   6.254   6.883   7.382 -0.6113  0.3232  0.0585
  599MOL0     C82571   6.137   6.816   7.415 -0.2103  0.2814 -0.2658
  599MOL0     O82572   5.954   6.839   7.657  0.1564  0.0751 -0.5459
  599MOL0     C82573   5.640   6.739   7.496 -0.5606  0.3831 -0.0441
  599MOL0     C82574   5.506   6.711   7.525 -0.7169 -0.2682  0.7330
  599MOL0     N82575   4.749   6.718   7.360 -0.1591 -0.0153  0.6230
  599MOL0     N82576   4.625   6.683   7.346  0.9679 -0.7411 -0.0534
  599MOL0     C82577   3.659   6.330   7.994 -0.2550 -0.2196  0.2857
  599MOL0     C82578   3.571   6.259   8.083  0.2746  0.7797 -0.3704
  599MOL0     C82579   3.179   6.091   8.223 -0.0399 -0.3021  0.2434
  599MOL0     C82580   3.168   5.956   8.192 -0.0493 -0.0995  0.7081
  599MOL0     C82581   3.068   5.884   8.244 -0.1585  0.7366 -0.4630
  599MOL0     C82582   2.975   5.935   8.326  0.8902  0.4938  0.3181
  599MOL0     O82583   2.875   5.867   8.387  0.3314 -0.0032  0.1970
  599MOL0     C82584   2.848   5.730   8.360  0.3229  0.6408 -0.1127
  599MOL0     C82585   2.741   5.671   8.439  0.5479  0.2789  1.1186
  599MOL0     C82586   2.610   5.740   8.407 -0.1661 -0.5396  0.8198
  599MOL0     C82587   2.572   5.735   8.257  0.7595  0.3134  0.0973
  599MOL0     C82588   2.557   5.595   8.203  0.2508 -0.2583 -0.7102
  599MOL0     C82589   2.576   5.485   8.147 -0.1950 -0.0859 -0.4597
  599MOL0     C82590   2.977   6.070   8.349 -0.2926 -0.0507 -0.5518
  599MOL0     C82591   3.085   6.148   8.311  0.1536  0.1637  0.5702
  599MOL0     C82592   3.089   6.288   8.363  0.3078 -0.4759 -0.3461
  599MOL0     H82593   3.412   6.063   7.856 -1.4925 -0.0829  1.2195
  599MOL0     H82594   3.557   6.174   7.703 -0.8748  1.2826  0.0531
  599MOL0     H82595   3.696   6.305   7.573 -0.1324 -3.7759 -2.0497
  599MOL0     H82596   3.798   6.197   7.668  2.6695  0.7933  1.8880
  599MOL0     H82597   3.864   6.453   7.535  4.5975  1.4954 -1.7470
  599MOL0     H82598   3.990   6.373   7.641  0.1614 -1.0598  1.3654
  599MOL0     H82599   3.998   6.173   7.512  0.6559  0.4524 -0.2793
  599MOL0     H82600   3.866   6.225   7.410 -0.7142 -3.3730  3.8180
  599MOL0     H82601   4.051   6.298   7.269 -1.7171  3.6215 -0.6901
  599MOL0     H82602   4.028   6.436   7.367  2.3082  1.7978 -0.2768
  599MOL0     H82603   4.244   6.228   7.396  1.2959  1.8134 -2.2777
  599MOL0     H82604   4.207   6.324   7.541  0.7942 -2.0179 -0.2069
  599MOL0     H82605   4.309   6.442   7.288  3.0830  0.5008  0.9076
  599MOL0     H82606   4.205   6.526   7.397 -2.5877 -1.6697  1.1570
  599MOL0     H82607   4.487   6.427   7.408 -0.1031 -0.7201  1.2854
  599MOL0     H82608   4.417   6.424   7.565  2.2028  3.0328  1.9545
  599MOL0     H82609   4.376   6.678   7.402 -1.9745 -0.1817  0.9048
  599MOL0     H82610   4.377   6.645   7.576 -0.8594  0.3860 -0.4133
  599MOL0     H82611   4.671   6.637   7.659  4.4965 -0.6488 -0.4683
  599MOL0     H82612   4.894   6.767   7.665  0.0097  0.4448  0.4794
  599MOL0     H82613   4.975   6.791   7.511  1.2196 -2.6638 -2.4044
  599MOL0     H82614   4.915   6.517   7.612 -1.3483  1.8058  1.4501
  599MOL0     H82615   5.004   6.553   7.460  0.2566  1.3938 -0.2343
  599MOL0     H82616   5.078   6.617   7.745  1.3743 -0.0800  0.7084
  599MOL0     H82617   5.138   6.475   7.657 -0.9548 -0.8005  1.8640
  599MOL0     H82618   5.262   6.608   7.502  1.7311 -2.3376  1.9389
  599MOL0     H82619   5.200   6.760   7.585 -2.9210  0.3156 -0.8360
  599MOL0     H82620   5.530   6.629   7.849 -1.1979 -2.6735 -1.3944
  599MOL0     H82621   5.739   6.668   7.940  2.1718 -1.6086  1.7155
  599MOL0     H82622   5.827   6.808   7.878  0.4941 -0.4097 -0.3323
  599MOL0     H82623   5.882   6.656   7.819 -0.0631  1.1917 -0.8549
  599MOL0     H82624   5.908   7.052   7.342 -0.6031 -0.6882 -0.3135
  599MOL0     H82625   6.107   7.172   7.271  1.0438  0.6987 -0.5995
  599MOL0     H82626   6.517   6.996   7.376  0.7389 -0.7827 -0.0120
  599MOL0     H82627   6.488   6.918   7.229 -1.6702  1.2062 -0.5184
  599MOL0     H82628   6.580   7.094   7.087  0.5100 -2.1187 -0.6091
  599MOL0     H82629   6.602   7.203   7.227 -0.0497 -0.0354  0.5179
  599MOL0     H82630   6.736   6.944   7.140  0.4154  0.9196 -3.0691
  599MOL0     H82631   6.748   6.998   7.306  1.9422 -2.3670 -1.3074
  599MOL0     H82632   6.854   7.219   7.208 -0.6076 -0.6117  1.9269
  599MOL0     H82633   6.848   7.130   7.053  0.4592 -4.4666  0.3665
  599MOL0     H82634   7.002   7.067   7.318 -0.9598 -0.9217  0.5174
  599MOL0     H82635   6.981   6.943   7.193  2.9441 -0.6321  0.7623
  599MOL0     H82636   7.204   7.047   7.191  0.3417 -2.3606 -3.0549
  599MOL0     H82637   7.133   7.201   7.169  2.6730 -0.3032  1.4474
  599MOL0     H82638   7.044   7.074   6.930  0.6228 -0.4255 -1.8907
  599MOL0     H82639   7.169   6.963   6.965  0.6883  1.4307 -2.3130
  599MOL0     H82640   7.332   7.155   6.960  0.2742  3.4642 -0.2343
  599MOL0     H82641   7.206   7.258   6.908  2.1996  0.9635 -1.4967
  599MOL0     H82642   6.344   6.825   7.400 -1.2408 -0.5204  0.5670
  599MOL0     H82643   6.149   6.718   7.460 -0.8211  1.1681  1.9603
  599MOL0     H82644   5.670   6.752   7.393 -1.4229 -0.0811 -0.3618
  599MOL0     H82645   5.445   6.719   7.435  0.8522  0.1991 -0.3161
  599MOL0     H82646   3.734   6.396   8.035  0.6183 -1.5534  0.9250
  599MOL0     H82647   3.564   6.282   8.189  1.4521  1.4646 -0.4284
  599MOL0     H82648   3.235   5.900   8.128  0.6623 -1.8980  2.8902
  599MOL0     H82649   3.069   5.776   8.226  1.0180  0.6379  0.0803
  599MOL0     H82650   2.833   5.709   8.254  0.5531 -4.1393  0.5692
  599MOL0     H82651   2.931   5.669   8.399 -0.3815 -0.3204 -0.0692
  599MOL0     H82652   2.758   5.678   8.547  1.2377  2.5032  0.9166
  599MOL0     H82653   2.742   5.564   8.414  0.7776  0.9385 -2.1777
  599MOL0     H82654   2.538   5.677   8.459  2.2475 -2.1196  2.4589
  599MOL0     H82655   2.596   5.838   8.452 -0.8035 -0.9702  1.5799
  599MOL0     H82656   2.648   5.784   8.195  1.4297 -1.8498 -0.8848
  599MOL0     H82657   2.474   5.782   8.246  0.4785 -0.3448 -0.2567
  599MOL0     H82658   2.588   5.390   8.098 -1.7280 -2.1439  2.7902
  599MOL0     H82659   2.908   6.123   8.415  0.7100 -0.3805  0.8024
  599MOL0     H82660   3.037   6.351   8.290 -0.7176  0.7431  1.3430
  599MOL0     H82661   3.040   6.298   8.461  1.1214  1.2218 -0.0803
  599MOL0     H82662   3.190   6.326   8.382 -0.4600  1.9121 -0.6991
  600MOL0     O82663   6.011   3.262   8.068 -0.1524  0.1447  0.1527
  600MOL0     C82664   5.928   3.205   8.139  0.0422  0.3037 -0.6025
  600MOL0     O82665   5.947   3.197   8.279  0.4155 -0.2705  0.4818
  600MOL0     C82666   6.072   3.186   8.332  0.4460  0.4905 -0.5937
  600MOL0     C82667   6.079   3.177   8.472  0.4932 -0.2506 -0.4409
  600MOL0     C82668   6.202   3.150   8.539  0.9463 -0.0862 -0.2197
  600MOL0     C82669   6.317   3.152   8.465  0.4803 -1.0860  0.5553
  600MOL0     O82670   6.444   3.151   8.522 -0.3877 -0.2486 -0.2967
  600MOL0     C82671   6.562   3.179   8.453 -0.2042  0.4764  0.2234
  600MOL0     C82672   6.678   3.169   8.553 -0.5717 -0.7667  0.0752
  600MOL0     C82673   6.803   3.202   8.473 -0.0250  0.2238  0.7802
  600MOL0     C82674   6.935   3.168   8.538  0.2244 -0.1185 -0.0768
  600MOL0     C82675   7.066   3.192   8.453  0.0626  0.3053  0.9061
  600MOL0     C82676   7.197   3.147   8.528  1.0172 -0.1369 -0.4423
  600MOL0     C82677   7.317   3.177   8.437  0.2170 -0.0628 -0.6292
  600MOL0     C82678   7.452   3.131   8.495  0.1464  0.1386 -0.1829
  600MOL0     N82679   7.558   3.133   8.400  0.2749 -0.3967  0.1756
  600MOL0     C82680   7.656   3.232   8.373 -0.2008 -0.4456  0.1888
  600MOL0     C82681   7.732   3.173   8.281  0.1057 -0.5519 -0.2420
  600MOL0     C82682   7.840   3.256   8.216 -0.8499 -0.7727  0.2012
  600MOL0     C82683   7.951   3.282   8.313  0.6766  0.0136 -0.4012
  600MOL0     C82684   7.944   3.418   8.387 -1.4063  0.1605 -0.1525
  600MOL0     C82685   8.054   3.437   8.502  0.1217 -0.0168 -0.1520
  600MOL0     O82686   8.181   3.465   8.433  0.5099 -0.9718  0.6685
  600MOL0     C82687   8.292   3.439   8.498 -0.1055  0.4550  1.0283
  600MOL0     C82688   8.399   3.381   8.430 -1.0462  1.2528  0.5601
  600MOL0     C82689   8.520   3.355   8.487 -0.6648 -0.2077  0.6102
  600MOL0     C82690   8.630   3.296   8.404  0.4868 -0.2495  0.7167
  600MOL0     C82691   8.537   3.367   8.625  0.8768  0.0557 -1.2567
  600MOL0     C82692   8.648   3.330   8.716 -0.2541 -0.0328  0.2422
  600MOL0     O82693   8.618   3.313   8.849 -0.0527 -0.0685  0.3833
  600MOL0     C82694   8.720   3.252   8.927 -0.1065  0.2221 -0.7190
  600MOL0     C82695   8.797   3.331   9.014  0.2327  0.1851  0.6370
  600MOL0     C82696   8.899   3.276   9.097 -0.2245  0.7221 -0.1398
  600MOL0     C82697   8.913   3.142   9.100  0.3328  0.3048 -0.6079
  600MOL0     O82698   8.999   3.078   9.184 -0.6577  0.2017  0.1918
  600MOL0     C82699   9.116   3.154   9.219 -0.3521 -0.1262 -0.0135
  600MOL0     C82700   9.217   3.059   9.289 -0.7549  0.9190  0.0760
  600MOL0     C82701   9.303   2.990   9.176  0.0227  0.3235 -0.4860
  600MOL0     C82702   9.444   2.949   9.233 -0.3048 -0.4108  0.7612
  600MOL0     C82703   9.555   2.902   9.133 -0.1431  0.1510  0.5363
  600MOL0     C82704   9.673   2.840   9.204  0.4115 -0.6939  0.3433
  600MOL0     C82705   9.746   2.728   9.119  0.6064  0.6361  0.7043
  600MOL0     C82706   9.770   2.762   8.966 -0.3021 -0.0054 -0.0648
  600MOL0    Cl82707   9.843   2.627   8.878 -0.2690 -0.1970 -0.1465
  600MOL0     C82708   8.836   3.061   9.025 -0.5312  0.8301  0.2450
  600MOL0     C82709   8.732   3.109   8.937  0.3135  0.2328 -0.2536
  600MOL0     O82710   8.759   3.308   8.668 -0.3205  0.1303 -0.1589
  600MOL0     C82711   8.428   3.438   8.697 -0.8347  0.4190 -0.2815
  600MOL0     C82712   8.313   3.475   8.625 -0.3183 -0.1010  0.1171
  600MOL0     N82713   7.697   3.044   8.259 -0.1773  0.7582 -0.3026
  600MOL0     N82714   7.592   3.028   8.325 -0.7834 -0.1159  0.0009
  600MOL0     C82715   6.306   3.160   8.329  0.1282  0.1511 -0.4353
  600MOL0     C82716   6.183   3.180   8.259 -0.1590  0.0898  0.2556
  600MOL0     C82717   5.803   3.164   8.069 -0.2798 -0.1576 -0.1895
  600MOL0     C82718   5.687   3.182   8.144 -0.3681  0.3723 -0.7209
  600MOL0     C82719   5.569   3.175   8.074  0.6503  0.2826 -0.0053
  600MOL0     C82720   5.558   3.116   7.954 -0.0681 -0.4153 -0.2532
  600MOL0     O82721   5.434   3.106   7.894 -0.5584  0.3726 -0.3791
  600MOL0     C82722   5.418   2.997   7.806  0.3404  0.9867 -0.1422
  600MOL0     C82723   5.269   2.963   7.761 -0.1844  0.3100  0.2636
  600MOL0     C82724   5.172   2.993   7.875  0.9596 -0.1774  0.7690
  600MOL0     C82725   5.034   2.963   7.837 -0.3824 -0.4802  0.2210
  600MOL0     C82726   4.985   3.031   7.720  0.3408 -0.0041 -0.0175
  600MOL0     C82727   4.920   3.092   7.633  0.3848 -0.0357 -0.5258
  600MOL0     C82728   5.677   3.098   7.883  0.8425  0.7115 -0.5185
  600MOL0     C82729   5.797   3.111   7.941  0.0295 -0.7511 -0.2857
  600MOL0     C82730   5.921   3.076   7.862 -0.8355 -0.1448 -0.2474
  600MOL0     H82731   5.983   3.179   8.523  1.8318 -1.0076  2.3545
  600MOL0     H82732   6.214   3.145   8.647 -2.4291 -3.4007  0.2112
  600MOL0     H82733   6.568   3.276   8.402 -2.0700  0.6181  0.1899
  600MOL0     H82734   6.584   3.093   8.389 -1.1916 -0.5520  1.2183
  600MOL0     H82735   6.674   3.240   8.636  0.2957  0.2694 -0.7468
  600MOL0     H82736   6.695   3.066   8.588  3.0014 -0.5878 -0.6902
  600MOL0     H82737   6.804   3.140   8.383  2.5633 -1.3455  1.7872
  600MOL0     H82738   6.793   3.301   8.428  0.2961 -0.2685 -0.4226
  600MOL0     H82739   6.938   3.232   8.626 -1.2865  2.9467 -2.0629
  600MOL0     H82740   6.924   3.060   8.555 -3.8205  0.4760  2.4923
  600MOL0     H82741   7.063   3.298   8.426  2.6775  0.0373 -0.8900
  600MOL0     H82742   7.062   3.132   8.361  0.1128  1.1164  0.3724
  600MOL0     H82743   7.204   3.182   8.631  1.5496  0.0818 -0.5513
  600MOL0     H82744   7.173   3.041   8.543 -0.3349  0.1238 -0.6411
  600MOL0     H82745   7.324   3.286   8.429 -0.6773  0.2298  1.7870
  600MOL0     H82746   7.307   3.124   8.342  0.1232 -0.6396 -0.2987
  600MOL0     H82747   7.472   3.199   8.579  1.5925  0.6916 -0.9393
  600MOL0     H82748   7.438   3.026   8.521 -2.5222  0.5092  0.2361
  600MOL0     H82749   7.663   3.334   8.408  1.2210 -0.7286  0.7836
  600MOL0     H82750   7.808   3.355   8.185 -1.3565 -1.4896 -1.6735
  600MOL0     H82751   7.882   3.202   8.131 -2.0045  0.0114 -0.8821
  600MOL0     H82752   7.958   3.200   8.386 -0.1467  0.6804  0.4484
  600MOL0     H82753   8.043   3.287   8.254  0.2278  0.5507 -1.0585
  600MOL0     H82754   7.959   3.493   8.309  4.4106  0.1658  0.5079
  600MOL0     H82755   7.847   3.430   8.436 -1.1959  1.0078  0.0694
  600MOL0     H82756   8.020   3.527   8.555  1.1648  0.4028 -0.1684
  600MOL0     H82757   8.070   3.349   8.565 -2.8934  0.3080  1.2648
  600MOL0     H82758   8.377   3.358   8.326  1.2062  0.4525  0.2207
  600MOL0     H82759   8.705   3.373   8.382  0.5513 -0.1038  1.4259
  600MOL0     H82760   8.593   3.262   8.307  0.4008  0.5977  0.4394
  600MOL0     H82761   8.672   3.209   8.454  1.4241 -0.8924 -1.0966
  600MOL0     H82762   8.785   3.439   9.009  1.4619  0.2997 -0.5383
  600MOL0     H82763   8.958   3.339   9.162  0.2132  2.2369 -1.8958
  600MOL0     H82764   9.164   3.205   9.135  0.7978  2.3153  2.0144
  600MOL0     H82765   9.081   3.231   9.289 -2.6223  0.9332 -2.1688
  600MOL0     H82766   9.272   3.119   9.361  0.2136  1.6380 -1.2136
  600MOL0     H82767   9.165   2.980   9.344 -1.6171 -0.5361 -2.6184
  600MOL0     H82768   9.321   3.043   9.082  1.5844 -2.2907 -1.7611
  600MOL0     H82769   9.251   2.898   9.151  1.3086 -0.4039 -0.5840
  600MOL0     H82770   9.424   2.868   9.303 -0.7552  0.0964  1.2346
  600MOL0     H82771   9.494   3.026   9.292 -1.0839 -0.7004  1.8186
  600MOL0     H82772   9.503   2.823   9.078  1.3064 -0.6716  0.2965
  600MOL0     H82773   9.584   2.983   9.065 -2.7650  1.9234  1.3528
  600MOL0     H82774   9.640   2.803   9.301  0.5531 -2.0944 -0.1252
  600MOL0     H82775   9.748   2.918   9.221  0.4046 -0.1008 -1.9838
  600MOL0     H82776   9.684   2.638   9.122 -0.7579  1.5476  0.9002
  600MOL0     H82777   9.832   2.709   9.184  0.8511  1.5554  0.6549
  600MOL0     H82778   9.848   2.839   8.963  0.4005 -0.7364 -2.0177
  600MOL0     H82779   9.682   2.801   8.915  0.5016  1.7066 -0.2206
  600MOL0     H82780   8.851   2.953   9.033 -1.0946  0.4274 -2.8385
  600MOL0     H82781   8.684   3.043   8.866 -0.1561 -0.4035  0.6381
  600MOL0     H82782   8.436   3.468   8.801  3.7607  1.6364 -0.7531
  600MOL0     H82783   8.235   3.535   8.671  2.2221  2.8858  0.8070
  600MOL0     H82784   6.395   3.152   8.267 -1.5161 -1.9796 -2.7017
  600MOL0     H82785   6.190   3.174   8.151 -1.7628  1.3493  0.0301
  600MOL0     H82786   5.689   3.215   8.247 -1.7180 -1.4608 -0.0394
  600MOL0     H82787   5.479   3.211   8.123  0.7666  2.6654 -1.4102
  600MOL0     H82788   5.481   3.003   7.717  1.0943  2.4198  0.4650
  600MOL0     H82789   5.467   2.910   7.850 -0.3633  0.1890 -0.8859
  600MOL0     H82790   5.263   2.861   7.723  0.4451 -0.2396  1.5883
  600MOL0     H82791   5.250   3.033   7.678 -0.2037  1.2473  1.0458
  600MOL0     H82792   5.198   2.929   7.960 -0.3093 -1.6070  0.1360
  600MOL0     H82793   5.184   3.101   7.892 -0.6291  0.1381  0.1193
  600MOL0     H82794   4.969   2.977   7.924  3.2306  0.5979  2.9633
  600MOL0     H82795   5.037   2.854   7.823  1.2788 -0.6148  1.4456
  600MOL0     H82796   4.854   3.139   7.563 -1.0975 -1.2235  0.0292
  600MOL0     H82797   5.678   3.050   7.786  0.4966 -0.6968  0.1498
  600MOL0     H82798   5.983   3.013   7.926 -1.8798  0.3241  1.2850
  600MOL0     H82799   5.891   3.024   7.771 -1.6380  0.1421 -0.1571
  600MOL0     H82800   5.963   3.174   7.837 -0.1129 -0.3315  0.2008
  601MOL0     O82801   2.788   3.838   5.689 -0.3269  0.2038  0.1919
  601MOL0     C82802   2.715   3.786   5.601  0.0758 -0.2195 -0.6140
  601MOL0     O82803   2.757   3.700   5.505  0.2420  0.4499  0.1977
  601MOL0     C82804   2.860   3.614   5.532 -0.0855  0.0674 -0.3484
  601MOL0     C82805   2.890   3.560   5.657  0.3273 -0.0838  1.0568
  601MOL0     C82806   3.006   3.488   5.675 -0.4743  0.2084 -0.2566
  601MOL0     C82807   3.101   3.468   5.573 -0.6284  0.8876  0.4551
  601MOL0     O82808   3.213   3.388   5.590  0.5572 -0.4303  0.2530
  601MOL0     C82809   3.271   3.368   5.723  0.3854 -0.4108  0.4053
  601MOL0     C82810   3.413   3.321   5.716 -0.1913  1.0039  0.1403
  601MOL0     C82811   3.510   3.432   5.668  0.0008  0.1939 -0.6065
  601MOL0     C82812   3.659   3.384   5.674 -0.0314 -0.0828 -0.2382
  601MOL0     C82813   3.762   3.491   5.654  0.6388  0.4452  0.3546
  601MOL0     C82814   3.901   3.443   5.696  0.4684  0.1151  0.2466
  601MOL0     C82815   3.965   3.543   5.784  0.5482 -0.2905  0.0027
  601MOL0     C82816   3.982   3.680   5.731  0.5058  0.2270 -0.1259
  601MOL0     N82817   4.083   3.754   5.799  0.0501 -0.7871  0.3052
  601MOL0     C82818   4.079   3.890   5.812  0.0644 -0.0242 -0.1904
  601MOL0     C82819   4.187   3.910   5.897  0.3189 -0.6436 -0.0087
  601MOL0     C82820   4.234   4.041   5.944  1.5039 -0.2027 -0.1124
  601MOL0     C82821   4.373   4.048   5.995  0.0241 -0.4193  0.2021
  601MOL0     C82822   4.417   4.198   5.989 -0.1060 -0.1130  0.1617
  601MOL0     C82823   4.552   4.228   6.064 -0.3030  0.3134  0.2876
  601MOL0     O82824   4.640   4.117   6.043  0.0235 -0.4131 -0.6998
  601MOL0     C82825   4.764   4.110   6.104  0.4322 -0.4246  0.2124
  601MOL0     C82826   4.818   4.210   6.183 -0.7578  0.0338 -0.4765
  601MOL0     C82827   4.947   4.200   6.246 -0.0111 -0.0041  0.2103
  601MOL0     C82828   4.995   4.320   6.325 -0.9660  0.0149  0.4010
  601MOL0     C82829   5.021   4.083   6.225 -0.0890  0.3536  1.6876
  601MOL0     C82830   5.160   4.060   6.274  1.5310  0.9811  0.3535
  601MOL0     O82831   5.237   3.975   6.191  0.4890 -0.3415 -0.7902
  601MOL0     C82832   5.359   3.942   6.228 -0.4530 -0.4433  0.4247
  601MOL0     C82833   5.474   4.014   6.174  0.5905  0.2988 -0.4803
  601MOL0     C82834   5.598   3.990   6.232  0.7507 -0.5024  0.1317
  601MOL0     C82835   5.616   3.891   6.326  0.0010  0.5638 -0.4612
  601MOL0     O82836   5.743   3.881   6.376 -0.2267 -0.1227  0.0292
  601MOL0     C82837   5.760   3.858   6.518 -0.0284  0.3905 -0.5968
  601MOL0     C82838   5.816   3.716   6.530 -0.8449  0.8624 -0.2656
  601MOL0     C82839   5.958   3.691   6.474  0.1763 -0.8070  0.7091
  601MOL0     C82840   6.064   3.759   6.563  0.6079 -0.7383 -0.4437
  601MOL0     C82841   6.200   3.724   6.498  0.1214  0.1132 -0.1021
  601MOL0     C82842   6.313   3.790   6.577 -0.0715  0.4376  0.4297
  601MOL0     C82843   6.291   3.941   6.593 -0.6375  0.0931  0.2020
  601MOL0     C82844   6.397   4.016   6.675 -0.5208  0.0803  0.2814
  601MOL0    Cl82845   6.384   3.959   6.839 -0.0468 -0.0749  0.3247
  601MOL0     C82846   5.507   3.820   6.376 -0.1077 -0.7430 -0.2589
  601MOL0     C82847   5.380   3.848   6.327  0.5736  0.4144  0.0824
  601MOL0     O82848   5.199   4.122   6.370  0.4046 -0.0642  0.4784
  601MOL0     C82849   4.961   3.984   6.144 -0.3730  0.2229  0.2945
  601MOL0     C82850   4.835   3.993   6.078 -0.1691  0.4515 -0.1166
  601MOL0     N82851   4.253   3.793   5.927 -0.0789 -0.5497  0.5508
  601MOL0     N82852   4.178   3.698   5.879  0.1895 -0.4386  0.3084
  601MOL0     C82853   3.072   3.520   5.450  0.8770 -0.5734 -0.0465
  601MOL0     C82854   2.951   3.595   5.426 -0.2084  0.3260  0.2986
  601MOL0     C82855   2.569   3.808   5.602 -0.6554 -0.4759 -0.2468
  601MOL0     C82856   2.491   3.713   5.529 -0.0538 -1.0586 -0.1028
  601MOL0     C82857   2.351   3.722   5.532 -0.0841  0.3837  0.0969
  601MOL0     C82858   2.279   3.820   5.605 -0.1165  0.1711  0.0610
  601MOL0     O82859   2.147   3.833   5.626  0.6293  0.3768  0.1560
  601MOL0     C82860   2.055   3.739   5.555 -0.3394 -0.0141 -0.4160
  601MOL0     C82861   1.909   3.779   5.612 -0.6837  0.3607 -0.1733
  601MOL0     C82862   1.892   3.771   5.767  0.3435 -0.2631 -0.2122
  601MOL0     C82863   1.944   3.643   5.839 -0.1177 -0.3272 -0.1154
  601MOL0     C82864   1.918   3.631   5.986  0.3479  0.5982 -0.1967
  601MOL0     C82865   1.896   3.609   6.108  0.8569 -0.2286  0.6561
  601MOL0     C82866   2.367   3.904   5.678 -0.0482  0.0326 -0.2676
  601MOL0     C82867   2.505   3.905   5.673 -0.3854 -0.5380 -0.5970
  601MOL0     C82868   2.573   4.010   5.758  0.2580 -0.8989  0.7930
  601MOL0     H82869   2.830   3.574   5.746  0.3714  1.2487  0.8946
  601MOL0     H82870   3.022   3.436   5.769 -1.4476 -3.3321 -1.8380
  601MOL0     H82871   3.209   3.289   5.767 -0.4720 -1.1937 -2.0662
  601MOL0     H82872   3.263   3.453   5.792 -1.6444 -0.4431  0.2918
  601MOL0     H82873   3.444   3.284   5.814 -0.1537 -1.2606 -0.6729
  601MOL0     H82874   3.425   3.230   5.657 -1.1242  0.3482  0.9255
  601MOL0     H82875   3.490   3.448   5.562 -2.3443  0.0603 -0.2239
  601MOL0     H82876   3.500   3.516   5.737 -0.9968 -0.0940 -0.3911
  601MOL0     H82877   3.671   3.359   5.780 -1.1321  0.1941 -0.0443
  601MOL0     H82878   3.680   3.298   5.609 -0.2851 -0.5578  0.2913
  601MOL0     H82879   3.730   3.581   5.709 -0.7823  0.4704 -0.4722
  601MOL0     H82880   3.766   3.525   5.551  0.7565 -0.5610  0.0146
  601MOL0     H82881   3.882   3.357   5.761 -1.8510  0.2571 -0.1527
  601MOL0     H82882   3.951   3.406   5.605 -1.9971 -2.8804 -0.0565
  601MOL0     H82883   4.061   3.496   5.811  1.0255 -0.4415 -1.7817
  601MOL0     H82884   3.912   3.546   5.879  0.7330 -0.6830  0.1202
  601MOL0     H82885   4.005   3.690   5.625 -1.4947  2.4662 -0.4467
  601MOL0     H82886   3.887   3.732   5.747  0.6549 -0.1774  2.4878
  601MOL0     H82887   4.003   3.960   5.780  0.9605  1.1228  0.1076
  601MOL0     H82888   4.172   4.059   6.032 -0.3182  1.0292 -1.5569
  601MOL0     H82889   4.208   4.124   5.877 -0.3898 -2.2209 -2.0541
  601MOL0     H82890   4.387   4.007   6.096 -0.2285 -0.5086  0.1995
  601MOL0     H82891   4.452   4.003   5.934  1.3294 -0.5677  1.9264
  601MOL0     H82892   4.422   4.225   5.883 -0.9818  1.8759  0.5869
  601MOL0     H82893   4.346   4.271   6.029  1.8105  1.8705  0.1337
  601MOL0     H82894   4.601   4.318   6.025  0.3895  1.9754  4.4304
  601MOL0     H82895   4.540   4.230   6.173  1.4216  0.0581  0.5181
  601MOL0     H82896   4.771   4.307   6.189 -0.3804  0.2744 -1.2571
  601MOL0     H82897   4.931   4.406   6.304  0.4244  0.9843 -0.0447
  601MOL0     H82898   5.094   4.353   6.291 -0.5596 -0.2782  1.2744
  601MOL0     H82899   4.999   4.307   6.433 -0.1783 -0.6261  0.2992
  601MOL0     H82900   5.454   4.081   6.090  0.3327  1.5951  0.5782
  601MOL0     H82901   5.687   4.048   6.208  1.1366 -0.8065  0.7892
  601MOL0     H82902   5.834   3.934   6.545  0.5282  0.3486 -1.9243
  601MOL0     H82903   5.674   3.883   6.581  0.2471  2.5557 -0.9824
  601MOL0     H82904   5.812   3.686   6.635  0.4325 -0.1954 -0.4828
  601MOL0     H82905   5.749   3.657   6.466  2.2371 -0.2170 -2.7673
  601MOL0     H82906   5.961   3.725   6.370  3.4378 -2.6284  0.0603
  601MOL0     H82907   5.972   3.583   6.475 -0.4372 -0.8878  1.5304
  601MOL0     H82908   6.061   3.722   6.666 -1.1067  1.9147  0.5537
  601MOL0     H82909   6.032   3.863   6.574 -2.4321 -1.4884 -1.4410
  601MOL0     H82910   6.211   3.616   6.493  1.0360  0.1786  0.3910
  601MOL0     H82911   6.195   3.761   6.395 -1.4235 -0.4497 -0.2488
  601MOL0     H82912   6.407   3.773   6.523  1.0118 -0.8670  2.5807
  601MOL0     H82913   6.321   3.734   6.671  1.7055  2.1518  1.3665
  601MOL0     H82914   6.199   3.964   6.648 -1.2607  0.6937 -1.0491
  601MOL0     H82915   6.277   3.979   6.491 -0.7795 -0.6957 -0.0846
  601MOL0     H82916   6.375   4.123   6.683 -2.0923 -0.2582  0.9438
  601MOL0     H82917   6.500   4.005   6.640  0.2767  1.6569  2.0289
  601MOL0     H82918   5.526   3.757   6.463  1.0609 -0.7978 -0.5381
  601MOL0     H82919   5.294   3.806   6.379 -1.8079  3.3169 -1.1996
  601MOL0     H82920   5.025   3.900   6.119  0.1859  0.9157 -0.6847
  601MOL0     H82921   4.793   3.917   6.012  0.7345  1.3842 -1.8384
  601MOL0     H82922   3.134   3.505   5.362  0.4383 -0.2568 -0.4121
  601MOL0     H82923   2.919   3.636   5.331 -2.6820  1.9490  1.6948
  601MOL0     H82924   2.534   3.633   5.469  0.1790 -1.0736  0.0798
  601MOL0     H82925   2.289   3.647   5.485  2.3091 -1.2727 -0.5871
  601MOL0     H82926   2.052   3.752   5.446  0.3323  0.7207 -0.3565
  601MOL0     H82927   2.065   3.631   5.569 -0.8355  0.1962  1.9201
  601MOL0     H82928   1.835   3.717   5.560  1.0259  1.4067 -4.2541
  601MOL0     H82929   1.888   3.873   5.561 -0.1106 -0.6109 -2.3287
  601MOL0     H82930   1.928   3.865   5.809  0.0428 -0.2882  0.1048
  601MOL0     H82931   1.784   3.775   5.786  0.3526  1.4084 -0.4337
  601MOL0     H82932   2.053   3.645   5.831  0.1473 -1.8390  2.0956
  601MOL0     H82933   1.904   3.548   5.804  1.2178 -0.5605 -1.0743
  601MOL0     H82934   1.870   3.590   6.211  1.3005  2.0383  1.2303
  601MOL0     H82935   2.318   3.988   5.728  1.8626  0.0140  1.7940
  601MOL0     H82936   2.560   3.970   5.859 -1.5258 -1.0495  0.5360
  601MOL0     H82937   2.678   4.026   5.734  0.0966 -1.2957 -0.2260
  601MOL0     H82938   2.529   4.109   5.747  0.1513 -1.1276 -1.0010
  602MOL0     O82939   0.230   6.499   0.272 -0.6274 -0.5239  0.4046
  602MOL0     C82940   0.234   6.404   0.201  0.3204  0.4841  0.6640
  602MOL0     O82941   0.314   6.386   0.086 -1.1418 -0.4449  0.0363
  602MOL0     C82942   0.395   6.483   0.043 -0.0941  0.3726 -0.4513
  602MOL0     C82943   0.415   6.492  -0.096 -0.5492  0.4768 -0.5604
  602MOL0     C82944   0.516   6.578  -0.140  0.1109  0.0811 -0.0800
  602MOL0     C82945   0.591   6.660  -0.050 -0.1390  1.5638 -0.4355
  602MOL0     O82946   0.686   6.746  -0.089 -0.2847 -0.3234  0.9650
  602MOL0     C82947   0.636   6.848  -0.177 -0.5001 -0.4040  0.0102
  602MOL0     C82948   0.691   6.990  -0.142 -0.7024 -0.5482 -0.6701
  602MOL0     C82949   0.664   7.032   0.002  0.5260 -0.5419  0.0683
  602MOL0     C82950   0.716   7.169   0.024 -0.0674 -0.4007  0.2882
  602MOL0     C82951   0.689   7.238   0.160  0.6328 -0.1620 -0.1083
  602MOL0     C82952   0.756   7.373   0.155 -0.3337 -0.1653 -0.4020
  602MOL0     C82953   0.760   7.433   0.294  0.0568 -0.4971 -0.1951
  602MOL0     C82954   0.857   7.556   0.287  0.2074  0.7511  0.3587
  602MOL0     N82955   0.998   7.523   0.325 -0.0006 -0.2410 -0.3330
  602MOL0     C82956   1.088   7.449   0.248  0.1169 -1.0388 -1.0546
  602MOL0     C82957   1.190   7.431   0.337  0.1829 -0.1296 -0.3029
  602MOL0     C82958   1.292   7.323   0.316 -1.1724 -0.3333 -0.6448
  602MOL0     C82959   1.441   7.367   0.316  0.2523  0.1148 -0.1951
  602MOL0     C82960   1.489   7.415   0.454  0.6179  0.0602  0.8476
  602MOL0     C82961   1.632   7.453   0.464 -0.8655 -0.1851  0.1770
  602MOL0     O82962   1.720   7.355   0.408  0.7023 -0.2561 -0.0749
  602MOL0     C82963   1.858   7.367   0.422 -0.2513 -0.6207  0.4617
  602MOL0     C82964   1.927   7.459   0.496  0.3506 -0.3733  0.1328
  602MOL0     C82965   2.066   7.459   0.520 -0.9851  0.1855  0.3778
  602MOL0     C82966   2.137   7.568   0.606  0.0657  0.1620  0.3328
  602MOL0     C82967   2.142   7.358   0.451 -0.8175 -0.4722 -0.1468
  602MOL0     C82968   2.282   7.327   0.473 -0.8153  0.6035  0.1993
  602MOL0     O82969   2.316   7.192   0.452  0.1974  0.1001 -0.1904
  602MOL0     C82970   2.453   7.166   0.472 -0.1929  0.7365 -0.7409
  602MOL0     C82971   2.541   7.208   0.372  0.2654 -0.0822 -0.8995
  602MOL0     C82972   2.682   7.206   0.389  0.8135 -0.7134  0.4411
  602MOL0     C82973   2.738   7.155   0.510 -0.4057  1.0130  0.2509
  602MOL0     O82974   2.872   7.149   0.532 -0.0769 -0.7266  0.8385
  602MOL0     C82975   2.950   7.200   0.423 -0.0168  0.4155 -0.1205
  602MOL0     C82976   3.101   7.206   0.458  1.1275 -0.2827  0.0022
  602MOL0     C82977   3.177   7.263   0.335  0.5070 -1.0531 -0.3554
  602MOL0     C82978   3.320   7.277   0.375 -0.9715 -0.2665  0.8781
  602MOL0     C82979   3.397   7.285   0.241  0.1411  0.8625  0.0669
  602MOL0     C82980   3.555   7.294   0.266  0.2680  0.1206 -0.0876
  602MOL0     C82981   3.643   7.315   0.145 -0.0283  0.2702  0.2214
  602MOL0     C82982   3.609   7.449   0.075  0.6303 -0.0732 -0.6468
  602MOL0    Cl82983   3.489   7.428  -0.061  0.2831 -0.4305 -0.0196
  602MOL0     C82984   2.647   7.100   0.600 -0.1581 -0.3088 -0.3901
  602MOL0     C82985   2.509   7.105   0.585 -0.5906  0.3920  0.4433
  602MOL0     O82986   2.361   7.413   0.503  0.3326 -0.4913  0.3097
  602MOL0     C82987   2.069   7.270   0.370 -0.3736 -0.2114  0.4990
  602MOL0     C82988   1.929   7.267   0.362 -1.1896  0.4282 -0.1643
  602MOL0     N82989   1.167   7.499   0.457 -0.3396 -0.1090 -0.0025
  602MOL0     N82990   1.048   7.548   0.449 -0.3481 -0.0494  0.7840
  602MOL0     C82991   0.583   6.623   0.086 -0.1625 -0.4771  0.7365
  602MOL0     C82992   0.489   6.535   0.136  0.1719 -0.6300 -0.2034
  602MOL0     C82993   0.136   6.300   0.229  0.3290 -0.0132  0.6139
  602MOL0     C82994   0.063   6.250   0.117 -0.5342  0.1735 -0.1747
  602MOL0     C82995  -0.034   6.154   0.141  0.2164  0.1217 -0.3641
  602MOL0     C82996  -0.070   6.108   0.266  0.5036 -0.5685  0.5400
  602MOL0     O82997  -0.171   6.014   0.279 -0.0664 -0.6447 -0.0618
  602MOL0     C82998  -0.140   5.876   0.251 -0.2522 -0.3345  0.3381
  602MOL0     C82999  -0.081   5.792   0.366  0.0295 -0.2087  0.1859
  602MOL0     C83000  -0.061   5.650   0.326  0.0186 -0.0106  0.6365
  602MOL0     C83001   0.025   5.570   0.426  0.7765 -0.4952  0.2702
  602MOL0     C83002  -0.039   5.555   0.552  0.3334  0.2517 -0.0429
  602MOL0     C83003  -0.092   5.547   0.664 -0.2027  0.8220  0.3686
  602MOL0     C83004  -0.007   6.161   0.378  0.7877 -0.2058  0.1649
  602MOL0     C83005   0.090   6.259   0.360  0.1829 -0.0899  0.2492
  602MOL0     C83006   0.152   6.321   0.488 -0.3345 -0.6767  0.5832
  602MOL0     H83007   0.364   6.419  -0.158  0.4348 -2.1580  1.5571
  602MOL0     H83008   0.527   6.590  -0.247 -0.9518 -2.0567 -0.4739
  602MOL0     H83009   0.526   6.847  -0.178 -0.6301  2.9271  0.0169
  602MOL0     H83010   0.671   6.819  -0.276  1.2249 -0.0793  0.5029
  602MOL0     H83011   0.798   6.992  -0.164 -0.8711 -1.1183 -1.5951
  602MOL0     H83012   0.644   7.056  -0.215 -2.1601 -0.9302 -0.1034
  602MOL0     H83013   0.556   7.038   0.020  0.3131  2.9796 -1.5944
  602MOL0     H83014   0.716   6.967   0.074  0.1983 -0.8576  0.0253
  602MOL0     H83015   0.825   7.162   0.015  0.8926  3.5717  4.7076
  602MOL0     H83016   0.685   7.239  -0.055  0.2610 -0.1750  0.3562
  602MOL0     H83017   0.729   7.176   0.240  1.7786 -2.4569 -2.3056
  602MOL0     H83018   0.581   7.243   0.176  0.2586 -1.3216 -1.8741
  602MOL0     H83019   0.858   7.352   0.120 -1.0518  0.1049 -2.7959
  602MOL0     H83020   0.708   7.428   0.074  0.8655  1.1408 -0.2646
  602MOL0     H83021   0.794   7.360   0.368  1.5902 -0.6476 -0.9881
  602MOL0     H83022   0.660   7.466   0.323 -0.0156  0.5988 -1.5492
  602MOL0     H83023   0.856   7.606   0.190 -1.0674 -0.8603 -0.5007
  602MOL0     H83024   0.811   7.628   0.356 -0.3279 -0.6898  1.5612
  602MOL0     H83025   1.077   7.399   0.153  0.3076 -2.5507 -0.3002
  602MOL0     H83026   1.272   7.266   0.225 -2.6879 -1.9066  0.6102
  602MOL0     H83027   1.276   7.258   0.402 -1.2376 -0.5666 -0.8328
  602MOL0     H83028   1.507   7.285   0.285  0.6978 -0.3015  1.7430
  602MOL0     H83029   1.445   7.448   0.243 -0.4085  0.7687  0.4797
  602MOL0     H83030   1.434   7.503   0.488  0.7474  0.3730  0.2609
  602MOL0     H83031   1.480   7.336   0.529  2.0783 -1.0084 -0.0558
  602MOL0     H83032   1.629   7.544   0.403 -0.3501 -1.6976 -2.2400
  602MOL0     H83033   1.655   7.467   0.570 -1.1373  0.5143  0.1468
  602MOL0     H83034   1.871   7.534   0.551  0.1874 -0.3538 -0.0591
  602MOL0     H83035   2.197   7.510   0.677 -0.3202 -0.0684  0.4773
  602MOL0     H83036   2.068   7.636   0.656  0.6419  1.5026 -0.6530
  602MOL0     H83037   2.199   7.624   0.535  1.0531  1.0975  1.8874
  602MOL0     H83038   2.502   7.245   0.278 -0.0474  1.0695 -0.3380
  602MOL0     H83039   2.735   7.243   0.302 -3.0907  2.5901 -0.8443
  602MOL0     H83040   2.932   7.142   0.332 -1.3834  0.9336 -0.1980
  602MOL0     H83041   2.924   7.305   0.409  0.8579  0.6997  0.3211
  602MOL0     H83042   3.119   7.263   0.549 -1.7782 -1.7577  1.6455
  602MOL0     H83043   3.135   7.105   0.483  1.1098 -0.0920  0.8214
  602MOL0     H83044   3.136   7.355   0.292 -0.2299 -0.9839  0.4688
  602MOL0     H83045   3.166   7.186   0.258  0.1810  0.3452 -1.7741
  602MOL0     H83046   3.349   7.190   0.435 -0.3660 -2.5408 -2.4390
  602MOL0     H83047   3.338   7.366   0.435  2.4862 -2.1480  2.9287
  602MOL0     H83048   3.376   7.201   0.176  0.2745  1.5515 -0.8870
  602MOL0     H83049   3.367   7.376   0.188  0.6671 -0.3652 -2.4918
  602MOL0     H83050   3.591   7.202   0.314 -0.1503  1.0446  2.1028
  602MOL0     H83051   3.575   7.367   0.345  1.8243 -0.0725 -0.2744
  602MOL0     H83052   3.634   7.226   0.083 -2.5381 -0.8463  2.0055
  602MOL0     H83053   3.747   7.316   0.177 -0.5351  1.3704  2.0113
  602MOL0     H83054   3.700   7.491   0.033  0.8488  1.0298  0.8361
  602MOL0     H83055   3.568   7.526   0.141  1.0880 -1.2810  1.1229
  602MOL0     H83056   2.682   7.050   0.690 -0.5484  1.6447  0.9115
  602MOL0     H83057   2.442   7.066   0.660  0.0301  0.6333  1.1337
  602MOL0     H83058   2.116   7.182   0.327  0.0812 -1.6881  3.7238
  602MOL0     H83059   1.870   7.183   0.326 -0.9386 -0.4032  1.2953
  602MOL0     H83060   0.653   6.666   0.157 -0.2544  0.3055  0.3693
  602MOL0     H83061   0.488   6.509   0.241  2.2057 -3.4124 -0.7793
  602MOL0     H83062   0.087   6.287   0.018  1.8808  1.2413  0.7342
  602MOL0     H83063  -0.072   6.097   0.057 -0.0045 -1.1718  0.5767
  602MOL0     H83064  -0.230   5.825   0.217  1.0195 -1.3626 -1.7146
  602MOL0     H83065  -0.065   5.870   0.172  1.7021 -2.1107  2.1961
  602MOL0     H83066  -0.156   5.794   0.446 -1.3271 -0.1840 -1.0309
  602MOL0     H83067   0.009   5.841   0.404 -1.7708  3.2420  0.4355
  602MOL0     H83068  -0.162   5.613   0.309  0.0054 -0.1073  0.9364
  602MOL0     H83069  -0.019   5.651   0.225 -0.1721  0.4510  0.5587
  602MOL0     H83070   0.121   5.624   0.435  0.1777  0.4206  1.5284
  602MOL0     H83071   0.047   5.470   0.388  1.3034 -0.3184  0.0916
  602MOL0     H83072  -0.116   5.540   0.769 -0.0579 -0.9799  0.3136
  602MOL0     H83073  -0.049   6.130   0.473 -1.3616  0.1626 -0.6200
  602MOL0     H83074   0.148   6.430   0.494 -0.3209 -0.7776  3.8192
  602MOL0     H83075   0.097   6.280   0.573 -2.1570  1.5774  0.5754
  602MOL0     H83076   0.255   6.283   0.483  1.2841  3.4120 -1.3390
  603MOL0     O83077   2.588   7.460   5.956  0.3998  0.9145 -0.0850
  603MOL0     C83078   2.580   7.336   5.948  0.3725 -0.5942 -0.2005
  603MOL0     O83079   2.664   7.248   6.016 -0.1696  0.3822  0.0750
  603MOL0     C83080   2.751   7.293   6.108 -0.8261 -0.3305 -0.6135
  603MOL0     C83081   2.875   7.225   6.114  0.2055 -0.4376 -0.0957
  603MOL0     C83082   2.965   7.253   6.219  0.2768 -0.1748 -0.3895
  603MOL0     C83083   2.932   7.341   6.315 -0.5512 -0.6482  0.1364
  603MOL0     O83084   3.021   7.371   6.423  0.1624  0.5888  0.2597
  603MOL0     C83085   3.162   7.337   6.407  0.5196 -0.0724  0.0436
  603MOL0     C83086   3.240   7.397   6.524 -1.1476  1.0578  0.5732
  603MOL0     C83087   3.391   7.341   6.520  0.4544  1.1613 -0.6509
  603MOL0     C83088   3.488   7.424   6.431  0.5492 -0.5356  0.4505
  603MOL0     C83089   3.628   7.379   6.420 -0.0948 -0.2912 -0.2666
  603MOL0     C83090   3.696   7.342   6.555 -0.0254 -0.7482 -0.3626
  603MOL0     C83091   3.852   7.332   6.550  1.4256  0.2777  0.2098
  603MOL0     C83092   3.909   7.225   6.459  0.4483 -0.3880 -0.6905
  603MOL0     N83093   4.047   7.270   6.418 -0.4053  0.6853 -0.1788
  603MOL0     C83094   4.169   7.246   6.478 -1.2602 -1.2448 -0.2417
  603MOL0     C83095   4.256   7.317   6.398 -0.7189  0.4990  0.2496
  603MOL0     C83096   4.408   7.318   6.408 -0.7033 -0.2349  0.0795
  603MOL0     C83097   4.484   7.188   6.414  0.5909 -1.1999 -0.0963
  603MOL0     C83098   4.625   7.198   6.471  0.3606  0.5541  0.8158
  603MOL0     C83099   4.704   7.308   6.405 -0.1342 -0.2967  0.1174
  603MOL0     O83100   4.837   7.286   6.439  0.3215  0.4134 -0.3709
  603MOL0     C83101   4.936   7.364   6.387 -0.5134 -0.0602 -0.0297
  603MOL0     C83102   5.055   7.347   6.446 -0.3713  0.7743  0.2701
  603MOL0     C83103   5.176   7.409   6.399 -0.0483 -1.2523  0.3938
  603MOL0     C83104   5.292   7.375   6.480  0.6115  0.2911 -0.2272
  603MOL0     C83105   5.172   7.482   6.275  0.0964  0.1317  0.8975
  603MOL0     C83106   5.293   7.548   6.208  0.4405 -0.7561 -0.3666
  603MOL0     O83107   5.281   7.642   6.112 -0.1075 -0.6047 -0.8903
  603MOL0     C83108   5.390   7.689   6.051  0.6222  0.2918  0.0581
  603MOL0     C83109   5.462   7.618   5.955 -0.2947 -0.3850  0.1707
  603MOL0     C83110   5.556   7.672   5.874  0.4310  0.4164  0.1791
  603MOL0     C83111   5.589   7.808   5.891  0.3565 -0.3543 -0.2094
  603MOL0     O83112   5.687   7.872   5.818  0.3809  0.1131  0.8504
  603MOL0     C83113   5.773   7.950   5.897 -0.1785  0.1413 -0.2442
  603MOL0     C83114   5.880   7.991   5.810  0.2949  0.1080  0.7698
  603MOL0     C83115   5.985   8.057   5.894 -0.2760 -0.3052  0.2007
  603MOL0     C83116   6.113   8.061   5.800  0.1410  0.0446  0.2200
  603MOL0     C83117   6.225   8.167   5.836  0.2630  0.4039 -0.3711
  603MOL0     C83118   6.362   8.116   5.776 -0.4139  0.1430 -0.5578
  603MOL0     C83119   6.466   8.221   5.798 -1.5642  0.5179 -0.4663
  603MOL0     C83120   6.605   8.178   5.743  0.3994 -0.8279  0.1041
  603MOL0    Cl83121   6.666   8.041   5.843  0.4076 -0.3910 -0.0171
  603MOL0     C83122   5.526   7.874   6.006 -0.0526  0.3311  0.2878
  603MOL0     C83123   5.422   7.825   6.080 -0.8408  1.0474 -0.0917
  603MOL0     O83124   5.403   7.523   6.261 -0.0048 -0.4127 -0.1987
  603MOL0     C83125   5.044   7.504   6.215  0.2344  0.2848  1.1909
  603MOL0     C83126   4.926   7.447   6.274 -0.2605  0.2037  0.5111
  603MOL0     N83127   4.188   7.374   6.297  0.1173 -0.0499  0.5336
  603MOL0     N83128   4.062   7.340   6.299  0.1048 -0.7091 -0.1081
  603MOL0     C83129   2.812   7.408   6.311  0.5197  0.2232  0.3122
  603MOL0     C83130   2.719   7.385   6.211  0.0659  0.5570  0.1460
  603MOL0     C83131   2.476   7.282   5.862  0.0855  0.2423  1.3448
  603MOL0     C83132   2.423   7.348   5.761  0.6655 -0.8124  0.6696
  603MOL0     C83133   2.323   7.295   5.676  0.4586 -1.0383 -0.0095
  603MOL0     C83134   2.262   7.176   5.708 -0.3825 -0.5708 -0.6004
  603MOL0     O83135   2.149   7.154   5.637 -1.5098 -0.7695  0.4622
  603MOL0     C83136   2.072   7.047   5.657  0.2933  0.5321 -0.1755
  603MOL0     C83137   1.941   7.070   5.585  0.0769  0.2090  0.1872
  603MOL0     C83138   1.879   6.936   5.534 -0.5883  0.1835 -0.7618
  603MOL0     C83139   1.733   6.941   5.503  0.2604  0.1999 -0.0602
  603MOL0     C83140   1.670   6.813   5.468 -0.2656 -0.3878 -0.1033
  603MOL0     C83141   1.641   6.699   5.437  0.2821 -0.3006  0.8049
  603MOL0     C83142   2.314   7.106   5.811 -0.0246 -0.1090 -0.8789
  603MOL0     C83143   2.415   7.157   5.890 -0.5356  0.1368 -0.3690
  603MOL0     C83144   2.457   7.062   6.002  0.0279 -0.0853  0.3070
  603MOL0     H83145   2.896   7.153   6.036  1.2813 -0.1891 -0.0492
  603MOL0     H83146   3.056   7.195   6.227  0.5677  0.3939  0.5274
  603MOL0     H83147   3.203   7.371   6.311  1.0328  2.4261  1.0643
  603MOL0     H83148   3.155   7.229   6.413 -0.7245 -0.0509 -0.6538
  603MOL0     H83149   3.240   7.506   6.526  1.1649  1.1742 -1.2011
  603MOL0     H83150   3.197   7.349   6.613  2.8179  0.7076  2.5339
  603MOL0     H83151   3.427   7.350   6.623 -0.7723 -1.3881  0.0823
  603MOL0     H83152   3.391   7.234   6.496  0.3755  1.3195 -1.3776
  603MOL0     H83153   3.441   7.437   6.333  1.7189 -1.3368 -0.2468
  603MOL0     H83154   3.484   7.523   6.477  3.3984 -0.9067  1.7320
  603MOL0     H83155   3.691   7.462   6.387 -0.2557 -0.6051 -1.4278
  603MOL0     H83156   3.638   7.295   6.350 -0.3072  0.4994 -1.2625
  603MOL0     H83157   3.668   7.414   6.633  0.4983 -0.2489 -0.6268
  603MOL0     H83158   3.651   7.250   6.594  2.2523 -1.5668  0.4606
  603MOL0     H83159   3.883   7.310   6.652 -1.0492  1.4135  1.2541
  603MOL0     H83160   3.892   7.427   6.511 -1.0638  2.1452  1.9694
  603MOL0     H83161   3.904   7.125   6.503  2.3539 -0.9642 -1.6580
  603MOL0     H83162   3.849   7.227   6.367 -3.0328 -0.5683  1.4231
  603MOL0     H83163   4.193   7.183   6.564  1.0780 -1.3134 -0.8845
  603MOL0     H83164   4.439   7.372   6.498  0.0062 -0.9159  0.2613
  603MOL0     H83165   4.444   7.361   6.314 -0.8220 -1.0365 -0.3483
  603MOL0     H83166   4.437   7.124   6.489  0.2374 -0.5747  0.2245
  603MOL0     H83167   4.468   7.124   6.326 -0.1975  0.4648 -1.2281
  603MOL0     H83168   4.625   7.223   6.578  0.1805  0.7212  0.7772
  603MOL0     H83169   4.664   7.096   6.467 -0.3561  0.3002 -2.7985
  603MOL0     H83170   4.685   7.315   6.298 -1.7889 -0.1189  0.4011
  603MOL0     H83171   4.670   7.403   6.446 -1.1953  0.1619 -1.7084
  603MOL0     H83172   5.048   7.282   6.532 -1.4956  0.0457 -0.3475
  603MOL0     H83173   5.278   7.321   6.575  0.8252 -0.2260 -0.4864
  603MOL0     H83174   5.340   7.462   6.525 -0.3283  0.2883  0.8256
  603MOL0     H83175   5.369   7.322   6.424  0.0053  0.5123 -1.2845
  603MOL0     H83176   5.440   7.512   5.952  1.2409 -0.7181 -0.1218
  603MOL0     H83177   5.599   7.623   5.788  0.3734 -2.0296  1.4545
  603MOL0     H83178   5.718   8.042   5.920 -3.0024 -0.8053 -2.6199
  603MOL0     H83179   5.816   7.892   5.979  0.4252 -0.3246 -0.8814
  603MOL0     H83180   5.914   7.902   5.755 -0.0426 -0.2118  1.0728
  603MOL0     H83181   5.848   8.060   5.732  2.4004  1.1550  0.7723
  603MOL0     H83182   6.001   8.003   5.988 -4.7945  0.7669  1.8375
  603MOL0     H83183   5.947   8.158   5.915 -2.9537 -1.5201  1.7266
  603MOL0     H83184   6.080   8.069   5.696 -2.5377 -2.1552  0.7686
  603MOL0     H83185   6.152   7.959   5.805 -1.3608 -0.5898 -0.3992
  603MOL0     H83186   6.192   8.268   5.812  0.1617  0.8321  1.4323
  603MOL0     H83187   6.235   8.167   5.945 -0.9874  1.1118 -0.2435
  603MOL0     H83188   6.353   8.105   5.668 -2.1978  2.2133 -0.7085
  603MOL0     H83189   6.394   8.020   5.816 -1.3421 -0.4157 -1.1256
  603MOL0     H83190   6.485   8.235   5.905  1.2135 -2.3896 -0.3994
  603MOL0     H83191   6.439   8.319   5.758 -1.0075  0.6089 -0.6435
  603MOL0     H83192   6.686   8.251   5.754 -1.4418  1.3157  0.1630
  603MOL0     H83193   6.590   8.148   5.639 -2.6459 -2.0665  0.7932
  603MOL0     H83194   5.561   7.972   6.035 -0.5156  1.2991 -2.1717
  603MOL0     H83195   5.393   7.879   6.170 -0.2832  2.0393 -0.4884
  603MOL0     H83196   5.033   7.573   6.132 -0.3604 -1.6274 -0.3978
  603MOL0     H83197   4.834   7.484   6.231  0.4756  0.9043 -0.4939
  603MOL0     H83198   2.788   7.476   6.392 -3.7106 -0.9942  0.3414
  603MOL0     H83199   2.616   7.418   6.216  0.2888  1.3913 -0.4135
  603MOL0     H83200   2.459   7.448   5.741  2.1803 -0.8448  2.8205
  603MOL0     H83201   2.274   7.342   5.591  0.2794 -1.5130 -0.1692
  603MOL0     H83202   2.123   6.962   5.611 -1.7488  0.6503 -2.9909
  603MOL0     H83203   2.045   7.036   5.762  1.3436  0.3059  0.0764
  603MOL0     H83204   1.960   7.136   5.499  1.2826  0.1453  0.3797
  603MOL0     H83205   1.881   7.125   5.659  2.9196  3.5122  0.3200
  603MOL0     H83206   1.935   6.907   5.444  0.9724  1.6905 -0.3264
  603MOL0     H83207   1.885   6.854   5.607 -0.2980  0.1599 -0.8133
  603MOL0     H83208   1.727   7.006   5.415  2.0260  1.2885  0.5746
  603MOL0     H83209   1.682   6.992   5.586 -0.7192  0.0312 -0.5419
  603MOL0     H83210   1.613   6.598   5.414 -0.0640  0.1412 -0.8777
  603MOL0     H83211   2.268   7.010   5.832 -0.6012  0.7102  2.0759
  603MOL0     H83212   2.384   6.981   6.014  1.2823 -1.2172  0.5340
  603MOL0     H83213   2.552   7.011   5.982  0.3422  0.8052 -0.5383
  603MOL0     H83214   2.453   7.125   6.091  0.4541 -0.9976  0.9841
  604MOL0     O83215   4.801   0.788   6.565  0.2561  0.1372 -0.3434
  604MOL0     C83216   4.783   0.665   6.557 -0.2227  0.8875 -0.4716
  604MOL0     O83217   4.887   0.574   6.557 -0.1944  0.3045  0.1608
  604MOL0     C83218   5.013   0.625   6.577  0.2964 -0.8379  0.7904
  604MOL0     C83219   5.074   0.718   6.487 -0.1584 -0.1139  0.7285
  604MOL0     C83220   5.213   0.750   6.493  0.3559  0.7904  0.1727
  604MOL0     C83221   5.292   0.694   6.594 -0.2302  0.4919  0.3500
  604MOL0     O83222   5.414   0.759   6.599  0.5285  0.6245 -0.0639
  604MOL0     C83223   5.504   0.737   6.710 -0.3897  0.0404  0.0586
  604MOL0     C83224   5.623   0.834   6.717 -0.1339 -0.1874 -0.4907
  604MOL0     C83225   5.681   0.804   6.853  0.4845 -0.1885 -0.0685
  604MOL0     C83226   5.828   0.856   6.877 -0.1206  0.0353  0.2039
  604MOL0     C83227   5.893   0.831   7.023  0.7575  0.4125  0.5073
  604MOL0     C83228   6.034   0.894   7.060 -0.4251 -0.0100  0.3548
  604MOL0     C83229   6.134   0.824   6.976 -0.1159  0.5430 -0.0855
  604MOL0     C83230   6.264   0.918   6.959 -0.7866 -0.3930  0.3125
  604MOL0     N83231   6.351   0.922   7.081  0.4573  0.5882 -0.2012
  604MOL0     C83232   6.462   0.847   7.108 -0.6728 -0.3383 -0.3570
  604MOL0     C83233   6.499   0.880   7.228 -0.0492 -0.7192  0.6373
  604MOL0     C83234   6.625   0.835   7.307 -0.5535 -0.2380 -0.1337
  604MOL0     C83235   6.755   0.896   7.260 -0.5311  0.1076  0.6579
  604MOL0     C83236   6.806   1.003   7.360  0.2189 -0.7420 -0.6651
  604MOL0     C83237   6.945   1.049   7.324 -0.3985  0.2568  0.7364
  604MOL0     O83238   6.953   1.115   7.192 -0.1820 -0.6683  0.4606
  604MOL0     C83239   7.075   1.143   7.135 -0.0362  0.5894 -0.2805
  604MOL0     C83240   7.074   1.209   7.013  0.2622  0.2491  0.0409
  604MOL0     C83241   7.185   1.223   6.929  0.6480  0.1566 -0.6242
  604MOL0     C83242   7.165   1.268   6.783 -0.7530  0.0137  0.2040
  604MOL0     C83243   7.311   1.189   6.989 -0.0904 -0.2906 -0.4741
  604MOL0     C83244   7.439   1.191   6.911  0.3997  0.0837  0.5825
  604MOL0     O83245   7.551   1.175   6.986  0.5151  0.0841  0.2558
  604MOL0     C83246   7.677   1.167   6.927 -0.7323  0.2883  1.6090
  604MOL0     C83247   7.724   1.252   6.818  0.3552  0.6335 -0.0737
  604MOL0     C83248   7.858   1.252   6.780 -0.4234 -0.5190 -0.0398
  604MOL0     C83249   7.953   1.159   6.838  0.4873  0.3309  1.0635
  604MOL0     O83250   8.070   1.140   6.778 -0.6585 -0.0588  0.1668
  604MOL0     C83251   8.185   1.076   6.848  0.6749  1.0676 -0.0721
  604MOL0     C83252   8.319   1.107   6.780 -0.0803  0.1405 -0.8775
  604MOL0     C83253   8.444   1.086   6.871  0.3631 -0.4579  0.3818
  604MOL0     C83254   8.576   1.116   6.797  0.6503 -0.6920  0.1624
  604MOL0     C83255   8.698   1.108   6.890  0.1152 -0.0619  0.4256
  604MOL0     C83256   8.709   1.223   6.988 -0.0781  0.6551 -0.4789
  604MOL0     C83257   8.839   1.194   7.066  0.1133 -0.8987 -0.7549
  604MOL0     C83258   8.916   1.322   7.098 -1.3002 -0.2199 -0.2468
  604MOL0    Cl83259   9.036   1.296   7.239 -0.3470 -0.1994 -0.0031
  604MOL0     C83260   7.903   1.070   6.930 -0.3428  0.1056  0.1681
  604MOL0     C83261   7.774   1.077   6.978 -0.8445 -1.0196  0.3006
  604MOL0     O83262   7.438   1.204   6.785  0.4096  0.2670 -0.5440
  604MOL0     C83263   7.314   1.139   7.122 -0.3786  0.4384 -0.3844
  604MOL0     C83264   7.199   1.109   7.193  0.0347 -0.0747  0.5614
  604MOL0     N83265   6.417   0.982   7.272  0.5031 -0.7202 -0.5109
  604MOL0     N83266   6.327   1.006   7.187  0.2888  0.3362 -0.4474
  604MOL0     C83267   5.229   0.614   6.689  0.3117  0.5117  0.1273
  604MOL0     C83268   5.090   0.580   6.680 -0.4910 -0.5355  0.6072
  604MOL0     C83269   4.645   0.609   6.572 -0.4265 -0.2948 -0.1951
  604MOL0     C83270   4.634   0.468   6.574  0.4251  0.5085  0.2965
  604MOL0     C83271   4.507   0.411   6.561  0.0179 -0.6370 -0.1845
  604MOL0     C83272   4.386   0.485   6.547 -0.6606 -0.0670  0.3071
  604MOL0     O83273   4.258   0.432   6.544 -0.2402  0.0972  0.2732
  604MOL0     C83274   4.241   0.290   6.520 -0.2509 -0.1144  0.7252
  604MOL0     C83275   4.095   0.271   6.491 -0.6697 -1.2444  0.3507
  604MOL0     C83276   4.055   0.340   6.360  0.2657 -0.1188  0.8465
  604MOL0     C83277   3.908   0.294   6.336  0.4578  0.0453  0.0853
  604MOL0     C83278   3.882   0.291   6.191 -0.1347 -0.1514 -0.6182
  604MOL0     C83279   3.844   0.297   6.083 -0.6702 -0.3017  0.2384
  604MOL0     C83280   4.406   0.621   6.554  0.6871 -0.4827  0.4111
  604MOL0     C83281   4.528   0.690   6.555  0.6884  0.2536  0.0956
  604MOL0     C83282   4.528   0.844   6.540 -0.2453  0.7657  0.2985
  604MOL0     H83283   5.007   0.754   6.410  0.9785 -1.1289 -0.7913
  604MOL0     H83284   5.264   0.820   6.428  2.6101 -0.9667 -0.0814
  604MOL0     H83285   5.554   0.640   6.694  0.2963  0.5557 -1.0930
  604MOL0     H83286   5.453   0.721   6.805  1.7313 -1.2779  1.0692
  604MOL0     H83287   5.703   0.824   6.643 -0.2098  0.5481 -0.6870
  604MOL0     H83288   5.582   0.936   6.717 -5.4176 -1.9890 -0.0217
  604MOL0     H83289   5.623   0.857   6.928 -0.7784 -0.6683 -0.6854
  604MOL0     H83290   5.684   0.699   6.885  2.8461  0.4234  2.0795
  604MOL0     H83291   5.891   0.797   6.809 -1.5677 -3.0209  1.3050
  604MOL0     H83292   5.845   0.961   6.854  0.3055  0.1505  1.0061
  604MOL0     H83293   5.899   0.722   7.023 -0.9741  0.1025 -3.7252
  604MOL0     H83294   5.813   0.859   7.093 -1.9129  0.2508 -2.2699
  604MOL0     H83295   6.038   1.002   7.044  2.0357 -0.2333 -0.9605
  604MOL0     H83296   6.060   0.878   7.164 -1.9485 -0.6100  0.6725
  604MOL0     H83297   6.092   0.811   6.875  2.2171  3.0396 -1.5094
  604MOL0     H83298   6.152   0.721   7.008 -0.5180  1.0815  2.0061
  604MOL0     H83299   6.330   0.883   6.879  0.9933 -0.5590  1.7915
  604MOL0     H83300   6.236   1.022   6.942 -0.5009 -0.5395 -1.1929
  604MOL0     H83301   6.493   0.759   7.053 -2.6100 -1.8182  0.8098
  604MOL0     H83302   6.632   0.726   7.302 -0.9901 -0.3165  0.7465
  604MOL0     H83303   6.603   0.853   7.413 -1.4915  2.3577 -0.6868
  604MOL0     H83304   6.831   0.818   7.254 -1.9826 -1.3913  1.0815
  604MOL0     H83305   6.752   0.939   7.160  1.7332 -0.5535  0.2696
  604MOL0     H83306   6.729   1.080   7.354 -0.0279 -0.8228  1.0673
  604MOL0     H83307   6.801   0.962   7.461 -3.0005  0.2638 -0.3126
  604MOL0     H83308   6.992   1.115   7.397  0.8097  0.0728  0.1311
  604MOL0     H83309   7.005   0.958   7.313 -1.9573 -0.8311  0.8251
  604MOL0     H83310   6.975   1.246   6.988 -1.8315 -4.9191 -0.7295
  604MOL0     H83311   7.246   1.336   6.757  0.2293 -1.4717 -0.7562
  604MOL0     H83312   7.073   1.326   6.771 -0.4848  0.3721 -0.1239
  604MOL0     H83313   7.153   1.184   6.713 -1.4959  0.9847 -0.8638
  604MOL0     H83314   7.651   1.311   6.763 -1.1843 -0.8119  0.3146
  604MOL0     H83315   7.887   1.322   6.702 -1.5230  1.9779  1.6569
  604MOL0     H83316   8.180   1.118   6.949 -0.6468 -3.0815  1.7873
  604MOL0     H83317   8.173   0.968   6.855 -0.2476  1.0684 -1.3144
  604MOL0     H83318   8.317   1.046   6.690  0.1541 -0.9882 -0.1356
  604MOL0     H83319   8.322   1.211   6.744  0.6352  0.7819  0.9023
  604MOL0     H83320   8.443   0.985   6.914  3.4397  0.1596  2.2672
  604MOL0     H83321   8.440   1.155   6.956 -0.0066 -0.0581  0.0410
  604MOL0     H83322   8.567   1.208   6.738 -2.0725  0.4884  2.1681
  604MOL0     H83323   8.596   1.037   6.724 -0.4244 -0.4244 -0.4320
  604MOL0     H83324   8.701   1.014   6.946  2.3978 -0.8508 -0.9119
  604MOL0     H83325   8.784   1.112   6.824 -1.3309  1.7993 -1.4939
  604MOL0     H83326   8.623   1.230   7.054  0.6971  2.9296  0.3887
  604MOL0     H83327   8.718   1.317   6.932 -0.1236  0.7908 -0.2568
  604MOL0     H83328   8.915   1.136   7.013  1.5209  1.3998 -1.3963
  604MOL0     H83329   8.806   1.138   7.154 -0.7900  0.7243 -0.0300
  604MOL0     H83330   8.849   1.406   7.124  0.3282  1.5486 -1.4962
  604MOL0     H83331   8.975   1.349   7.011  1.0802  1.5033  1.7599
  604MOL0     H83332   7.961   0.990   6.975 -0.4134 -0.4755 -0.7632
  604MOL0     H83333   7.744   1.013   7.061  1.4707  1.4353  3.2694
  604MOL0     H83334   7.405   1.133   7.179 -0.8124 -0.0844  0.2562
  604MOL0     H83335   7.209   1.070   7.293 -0.7119 -2.1206 -0.1058
  604MOL0     H83336   5.295   0.570   6.763 -1.1077 -2.1590 -0.0824
  604MOL0     H83337   5.043   0.505   6.744  0.3256 -1.6744 -0.0909
  604MOL0     H83338   4.715   0.396   6.571  1.2360  1.4073 -2.2600
  604MOL0     H83339   4.498   0.303   6.571 -1.6254 -0.6889 -1.7996
  604MOL0     H83340   4.303   0.264   6.434  0.3425  1.6527  0.5842
  604MOL0     H83341   4.276   0.238   6.610  2.1915  0.9420  0.4525
  604MOL0     H83342   4.051   0.325   6.575  1.9930  2.2418 -0.2581
  604MOL0     H83343   4.075   0.164   6.496 -1.2109 -1.1087  1.6129
  604MOL0     H83344   4.067   0.448   6.358  1.3783 -0.2364  0.4844
  604MOL0     H83345   4.116   0.290   6.284 -0.9577 -3.6018  1.9638
  604MOL0     H83346   3.839   0.369   6.377  0.7416  0.1629  0.3575
  604MOL0     H83347   3.882   0.192   6.365 -0.4902 -0.3035 -1.8415
  604MOL0     H83348   3.800   0.293   5.985 -2.3021  1.2913  0.8276
  604MOL0     H83349   4.318   0.684   6.557  0.8759 -0.0923 -1.2656
  604MOL0     H83350   4.424   0.879   6.536 -1.5003 -2.7391 -1.7120
  604MOL0     H83351   4.580   0.900   6.618  2.2313 -1.1598  0.1552
  604MOL0     H83352   4.572   0.874   6.444  1.4876  1.1594  1.1805
  605MOL0     O83353   8.727   0.024   6.581 -0.2402  1.2624 -0.7947
  605MOL0     C83354   8.653   0.116   6.556 -0.5159 -0.5892  0.2675
  605MOL0     O83355   8.685   0.248   6.530 -0.1524 -0.4590  0.0130
  605MOL0     C83356   8.806   0.277   6.578 -0.3285  0.1597 -0.1249
  605MOL0     C83357   8.821   0.295   6.721  0.1342 -0.1247 -0.4473
  605MOL0     C83358   8.948   0.339   6.766 -0.3762 -0.3342  0.7390
  605MOL0     C83359   9.058   0.364   6.680  0.4678  0.3796 -1.0738
  605MOL0     O83360   9.173   0.428   6.735 -0.1900  0.3499 -0.0013
  605MOL0     C83361   9.305   0.423   6.672  0.2838 -0.4709 -0.5008
  605MOL0     C83362   9.419   0.467   6.765 -0.6688 -0.3027 -0.8310
  605MOL0     C83363   9.415   0.611   6.816 -0.8457  0.2571 -0.2858
  605MOL0     C83364   9.446   0.711   6.708  0.1793  0.2136  0.4554
  605MOL0     C83365   9.449   0.857   6.761 -0.6631  0.1542  0.5429
  605MOL0     C83366   9.481   0.956   6.653 -1.0422 -0.2291 -0.0469
  605MOL0     C83367   9.485   1.100   6.706  0.2079  0.6660 -0.2861
  605MOL0     C83368   9.344   1.154   6.693 -0.3467 -0.9822 -0.2949
  605MOL0     N83369   9.348   1.281   6.770 -0.1954 -0.0592 -0.2652
  605MOL0     C83370   9.420   1.391   6.739 -0.0844 -0.0006 -0.7405
  605MOL0     C83371   9.408   1.480   6.836  0.6314  0.2791 -0.5070
  605MOL0     C83372   9.466   1.616   6.846 -1.0727  0.7043  0.5517
  605MOL0     C83373   9.365   1.726   6.870  0.4065 -0.1075 -0.1952
  605MOL0     C83374   9.243   1.731   6.782 -0.1225  0.0029  0.2397
  605MOL0     C83375   9.279   1.723   6.631  0.3101 -0.1989 -0.3041
  605MOL0     O83376   9.380   1.822   6.601  0.9899  0.1773 -0.0613
  605MOL0     C83377   9.457   1.812   6.489 -0.0280  0.1752  0.3583
  605MOL0     C83378   9.514   1.936   6.453 -0.7187  1.4700  0.1491
  605MOL0     C83379   9.602   1.942   6.339  1.0138 -0.6882 -0.2498
  605MOL0     C83380   9.656   2.076   6.305 -0.9255 -0.1066  0.0432
  605MOL0     C83381   9.638   1.823   6.269 -0.1149 -0.6192  0.6502
  605MOL0     C83382   9.720   1.822   6.144 -0.3833  0.1381 -0.7076
  605MOL0     O83383   9.767   1.692   6.118  0.2754 -0.2476 -0.4777
  605MOL0     C83384   9.844   1.675   6.007 -0.6262  0.3865  0.3598
  605MOL0     C83385   9.785   1.639   5.888  0.2094 -0.3450  0.0015
  605MOL0     C83386   9.865   1.619   5.779  0.5818 -0.0895  0.0643
  605MOL0     C83387  10.001   1.646   5.775  0.0959 -0.3020 -0.3996
  605MOL0     O83388  10.060   1.628   5.652  0.5078  0.4834  0.6786
  605MOL0     C83389  10.164   1.720   5.608  0.2512 -0.2218 -0.0463
  605MOL0     C83390  10.292   1.645   5.600 -0.7163 -0.0697  0.9513
  605MOL0     C83391  10.407   1.729   5.549 -0.3532 -0.3269 -0.4405
  605MOL0     C83392  10.537   1.647   5.535 -0.5668  1.3454  0.6076
  605MOL0     C83393  10.657   1.719   5.600  0.5719  0.7651  0.2103
  605MOL0     C83394  10.670   1.740   5.748  0.4342  0.0656 -0.0559
  605MOL0     C83395  10.792   1.832   5.784  0.1007  0.0843 -0.2686
  605MOL0     C83396  10.868   1.774   5.909 -0.9721 -0.4733  0.5677
  605MOL0    Cl83397  11.008   1.874   5.936 -0.2935 -0.1347 -0.2762
  605MOL0     C83398  10.059   1.684   5.893  0.0315  0.2045  0.0250
  605MOL0     C83399   9.981   1.698   6.008  0.0062 -0.2954  0.3226
  605MOL0     O83400   9.744   1.922   6.076 -0.0655 -0.7715 -0.1607
  605MOL0     C83401   9.573   1.700   6.301  0.1038  0.3350  0.8604
  605MOL0     C83402   9.494   1.699   6.418  1.0982  0.8361 -0.2510
  605MOL0     N83403   9.331   1.420   6.935  0.0836  0.0898 -0.6037
  605MOL0     N83404   9.296   1.305   6.897 -0.2592  0.3707  0.6214
  605MOL0     C83405   9.042   0.333   6.554  0.1645 -0.7020  0.7646
  605MOL0     C83406   8.919   0.288   6.498  0.0723  0.0457  0.3498
  605MOL0     C83407   8.514   0.097   6.561  0.7992  0.3234  0.7758
  605MOL0     C83408   8.432   0.195   6.619  0.4568  0.6983 -0.8955
  605MOL0     C83409   8.292   0.185   6.633  0.0041  0.0592  0.3354
  605MOL0     C83410   8.224   0.071   6.588 -0.8638  0.2073 -0.1099
  605MOL0     O83411   8.098   0.043   6.611  0.0571 -0.2713  0.0643
  605MOL0     C83412   8.041   0.104   6.722  0.5872  0.9057 -0.3029
  605MOL0     C83413   7.915   0.037   6.772 -0.1084  0.0042 -0.4455
  605MOL0     C83414   7.801   0.130   6.808  0.6526 -0.2999  0.2841
  605MOL0     C83415   7.673   0.065   6.870  0.8326  0.0347 -0.1552
  605MOL0     C83416   7.707   0.018   7.003 -0.0604  0.8903  0.0714
  605MOL0     C83417   7.721  -0.032   7.111  0.2454 -0.1333  0.0144
  605MOL0     C83418   8.302  -0.024   6.521  0.1532 -0.4708 -0.7155
  605MOL0     C83419   8.443  -0.011   6.503 -0.3717 -0.4945  0.2069
  605MOL0     C83420   8.520  -0.129   6.436  0.4556 -0.6394  0.1936
  605MOL0     H83421   8.741   0.281   6.793 -1.1202  0.8627 -1.5939
  605MOL0     H83422   8.961   0.361   6.872  1.7725 -0.2370  0.5045
  605MOL0     H83423   9.299   0.502   6.597  1.7191  0.6835  0.5504
  605MOL0     H83424   9.324   0.321   6.639 -1.1353 -0.9910  0.1794
  605MOL0     H83425   9.415   0.400   6.852 -0.0570  0.2180 -0.3897
  605MOL0     H83426   9.516   0.457   6.716 -0.9155 -2.2101 -1.0011
  605MOL0     H83427   9.319   0.633   6.865 -1.8099 -2.1401 -0.9638
  605MOL0     H83428   9.493   0.631   6.890  0.1115 -0.0650 -1.1877
  605MOL0     H83429   9.535   0.680   6.652  0.6293 -1.0172  1.7829
  605MOL0     H83430   9.362   0.703   6.638 -2.1789 -0.3326  3.1747
  605MOL0     H83431   9.521   0.865   6.843 -0.0082  0.5879 -0.0672
  605MOL0     H83432   9.351   0.880   6.805 -0.9330 -2.6506  1.6384
  605MOL0     H83433   9.571   0.914   6.607 -0.8134  0.4189 -0.1966
  605MOL0     H83434   9.397   0.948   6.584 -0.3057 -2.1483 -0.7883
  605MOL0     H83435   9.554   1.151   6.639  0.1350  0.7199 -0.3195
  605MOL0     H83436   9.525   1.110   6.808  0.6526  4.2218 -0.6833
  605MOL0     H83437   9.325   1.181   6.588  0.6869  1.2159  0.0304
  605MOL0     H83438   9.259   1.091   6.722 -3.1024  1.4557 -2.5155
  605MOL0     H83439   9.476   1.407   6.647  2.3513 -1.7829  0.3113
  605MOL0     H83440   9.523   1.636   6.755  0.5310  0.0356  1.3499
  605MOL0     H83441   9.528   1.621   6.937  0.1267  1.1708 -0.2649
  605MOL0     H83442   9.331   1.715   6.974  4.3193  0.5103  1.3316
  605MOL0     H83443   9.408   1.826   6.859  0.3852 -0.3291 -2.9733
  605MOL0     H83444   9.169   1.661   6.821  0.9461 -0.3644  1.7241
  605MOL0     H83445   9.197   1.828   6.802 -0.2310  0.2252 -1.0324
  605MOL0     H83446   9.317   1.622   6.612  0.2620 -0.5391  1.3343
  605MOL0     H83447   9.195   1.751   6.567  0.7180  0.0888 -0.7305
  605MOL0     H83448   9.498   2.025   6.513 -0.9513  1.4641  0.0954
  605MOL0     H83449   9.765   2.075   6.315 -0.9239  1.3135  0.3909
  605MOL0     H83450   9.615   2.153   6.371 -0.9207  0.9967 -1.2020
  605MOL0     H83451   9.628   2.108   6.204 -0.1799  0.4340 -0.0042
  605MOL0     H83452   9.679   1.618   5.892 -0.5248  2.7711 -0.2317
  605MOL0     H83453   9.813   1.576   5.694 -1.9831  1.5123  0.7148
  605MOL0     H83454  10.142   1.766   5.512  0.6395  4.4576  1.8444
  605MOL0     H83455  10.187   1.802   5.676  0.1969  0.1495 -0.4717
  605MOL0     H83456  10.324   1.604   5.697  0.6090 -1.7442 -0.1162
  605MOL0     H83457  10.275   1.560   5.533 -1.8242  1.3415 -0.6127
  605MOL0     H83458  10.430   1.806   5.623 -0.4606  0.8156 -1.5535
  605MOL0     H83459  10.378   1.767   5.450  1.6391  0.0247 -0.9416
  605MOL0     H83460  10.550   1.613   5.432 -1.5992  1.2435  0.5031
  605MOL0     H83461  10.521   1.550   5.582 -3.4020  0.3408 -2.1267
  605MOL0     H83462  10.748   1.668   5.567  1.6513  3.5627 -1.5676
  605MOL0     H83463  10.657   1.821   5.559  0.4668  1.6544  2.3041
  605MOL0     H83464  10.676   1.650   5.810  0.1554 -0.9807 -1.5129
  605MOL0     H83465  10.585   1.792   5.793 -0.1245  0.4118 -1.4655
  605MOL0     H83466  10.753   1.934   5.781  2.1867  0.8930 -1.6221
  605MOL0     H83467  10.868   1.836   5.706 -1.0777  1.3335 -1.4025
  605MOL0     H83468  10.897   1.672   5.884  1.2471 -0.3481  2.3052
  605MOL0     H83469  10.801   1.775   5.996 -1.3685  0.4323  0.2775
  605MOL0     H83470  10.166   1.697   5.906 -0.0652 -0.9173  2.7545
  605MOL0     H83471  10.020   1.731   6.104 -2.3878 -2.9498  2.3679
  605MOL0     H83472   9.591   1.611   6.242  2.6161  0.5546  1.2011
  605MOL0     H83473   9.468   1.601   6.458  1.7510  0.4871 -0.6683
  605MOL0     H83474   9.121   0.372   6.491 -1.0127  1.2829  0.4380
  605MOL0     H83475   8.920   0.284   6.390  3.0106 -2.4304  0.3448
  605MOL0     H83476   8.482   0.278   6.668  4.1934 -1.2678 -1.0816
  605MOL0     H83477   8.247   0.277   6.666 -1.2883  0.9910 -3.4864
  605MOL0     H83478   8.109   0.111   6.807  2.7273  0.6588 -1.9150
  605MOL0     H83479   8.011   0.206   6.699  0.9451  1.1334  0.2279
  605MOL0     H83480   7.948  -0.010   6.865 -0.1188  2.5348  0.9073
  605MOL0     H83481   7.881  -0.036   6.698  0.4207 -1.4890  0.7407
  605MOL0     H83482   7.835   0.220   6.861 -0.9466  0.1968  0.5236
  605MOL0     H83483   7.767   0.169   6.711  1.6369 -0.0270  0.0396
  605MOL0     H83484   7.643  -0.021   6.809  1.2144 -0.0371 -0.2477
  605MOL0     H83485   7.596   0.142   6.878  0.2763 -0.7480  3.3199
  605MOL0     H83486   7.718  -0.090   7.201  0.3316  0.7778  0.6224
  605MOL0     H83487   8.253  -0.115   6.487  1.4101 -1.2917 -0.3757
  605MOL0     H83488   8.581  -0.090   6.354 -1.8677  0.7680 -0.9723
  605MOL0     H83489   8.571  -0.190   6.511 -1.1214  0.0284  1.8920
  605MOL0     H83490   8.443  -0.191   6.389 -1.9984  2.4042 -0.1140
  606MOL0     O83491   1.022   9.022   4.675 -0.2017 -1.3292 -0.0121
  606MOL0     C83492   0.994   8.922   4.608  0.1678 -0.0934  0.6968
  606MOL0     O83493   1.082   8.836   4.558 -0.0176  0.3051  0.5095
  606MOL0     C83494   1.220   8.869   4.562  0.0912  0.0703 -0.2153
  606MOL0     C83495   1.313   8.769   4.611  0.4814  0.4622 -0.6120
  606MOL0     C83496   1.445   8.803   4.631 -0.2317 -0.4473 -0.3891
  606MOL0     C83497   1.494   8.921   4.584  0.0180 -0.7121 -0.4352
  606MOL0     O83498   1.632   8.932   4.596  0.3959  0.3496 -0.4421
  606MOL0     C83499   1.712   9.012   4.505  0.3368 -0.3368 -0.0662
  606MOL0     C83500   1.844   8.940   4.459  0.2345  0.2447 -0.0439
  606MOL0     C83501   1.945   8.977   4.559 -0.0626 -0.3171  0.5627
  606MOL0     C83502   2.064   8.871   4.566  0.6304 -0.3748  0.1471
  606MOL0     C83503   2.189   8.906   4.643  0.0070  0.5433 -0.2405
  606MOL0     C83504   2.273   9.025   4.583 -1.4482  0.1758 -0.4814
  606MOL0     C83505   2.405   9.052   4.667  0.2174  0.5950 -0.1994
  606MOL0     C83506   2.479   9.170   4.614  0.6544  0.3876  0.4835
  606MOL0     N83507   2.610   9.189   4.682  0.2747  0.2414  0.5962
  606MOL0     C83508   2.720   9.106   4.671 -0.3388 -0.4383  0.2792
  606MOL0     C83509   2.823   9.165   4.738  0.0648  0.4034 -0.4049
  606MOL0     C83510   2.957   9.105   4.759 -0.6718  0.3127  0.1390
  606MOL0     C83511   3.064   9.230   4.754  0.5837 -0.2502 -0.4246
  606MOL0     C83512   3.209   9.180   4.764 -0.6750 -0.5100 -0.1657
  606MOL0     C83513   3.305   9.310   4.782 -0.2275  0.3041 -0.0032
  606MOL0     O83514   3.438   9.266   4.819 -0.5685 -0.0945 -0.4291
  606MOL0     C83515   3.536   9.368   4.820  0.2793  0.5840 -0.6216
  606MOL0     C83516   3.511   9.503   4.799 -0.5372  0.1024  0.2022
  606MOL0     C83517   3.611   9.599   4.808  0.3009  0.3549  0.0877
  606MOL0     C83518   3.544   9.739   4.806 -0.5948 -1.0302  0.6788
  606MOL0     C83519   3.746   9.557   4.827 -0.9800  0.8078 -0.1941
  606MOL0     C83520   3.858   9.653   4.839 -0.7206  0.4210 -0.4243
  606MOL0     O83521   3.988   9.594   4.844  0.4864  0.4602  0.0596
  606MOL0     C83522   4.086   9.690   4.852 -0.2840  0.0977  1.2627
  606MOL0     C83523   4.149   9.709   4.970  0.6922 -0.3958  0.2449
  606MOL0     C83524   4.223   9.823   4.990 -0.1595  0.3308  0.3771
  606MOL0     C83525   4.255   9.911   4.888  0.8285 -0.2382 -0.2748
  606MOL0     O83526   4.330  10.028   4.909 -0.5674  0.2323  0.2256
  606MOL0     C83527   4.394  10.050   5.035 -0.7373  0.4378  0.4339
  606MOL0     C83528   4.437  10.204   5.043  0.4297  0.4813 -0.0300
  606MOL0     C83529   4.547  10.222   4.948  0.0294  0.4869 -0.4231
  606MOL0     C83530   4.575  10.365   4.901  0.6046 -0.0397  1.2212
  606MOL0     C83531   4.481  10.406   4.784 -0.6908  0.0667 -0.4440
  606MOL0     C83532   4.526  10.341   4.650 -0.1139  0.0357 -0.2638
  606MOL0     C83533   4.428  10.365   4.533 -1.1584  0.0534 -0.4216
  606MOL0     C83534   4.513  10.344   4.404  0.6090  0.0471  0.7183
  606MOL0    Cl83535   4.416  10.377   4.260 -0.1947 -0.2294  0.2706
  606MOL0     C83536   4.195   9.888   4.767  0.6190  0.3010  0.4151
  606MOL0     C83537   4.108   9.784   4.750 -0.4717  0.0496  0.2131
  606MOL0     O83538   3.836   9.771   4.820 -0.1478  0.2025  0.2027
  606MOL0     C83539   3.778   9.421   4.831  0.4978  0.2376 -0.2871
  606MOL0     C83540   3.674   9.324   4.822  0.2391 -0.2331  0.1148
  606MOL0     N83541   2.767   9.272   4.804 -0.5989  0.6015  0.1751
  606MOL0     N83542   2.643   9.295   4.759  0.0880 -0.3480 -1.8410
  606MOL0     C83543   1.411   9.019   4.531 -0.4261  0.4088 -0.0719
  606MOL0     C83544   1.276   8.998   4.525 -0.4255 -0.8054  0.6753
  606MOL0     C83545   0.858   8.876   4.619 -0.1927  0.2330 -0.1935
  606MOL0     C83546   0.839   8.731   4.602 -0.0413  0.5070 -0.7212
  606MOL0     C83547   0.704   8.686   4.612 -0.1066  0.1811 -0.6039
  606MOL0     C83548   0.600   8.774   4.635 -0.1085  0.3457 -1.6063
  606MOL0     O83549   0.468   8.745   4.648 -0.5808  0.0804 -0.8455
  606MOL0     C83550   0.440   8.610   4.651  0.5788  0.9801 -0.2545
  606MOL0     C83551   0.291   8.589   4.676  0.4095 -0.7411 -1.4603
  606MOL0     C83552   0.203   8.601   4.538  0.0705 -0.5849  0.0935
  606MOL0     C83553   0.251   8.703   4.436  0.3876  0.8655 -0.3901
  606MOL0     C83554   0.147   8.722   4.336  0.4855 -0.2220  0.0624
  606MOL0     C83555   0.066   8.742   4.243  0.4431  0.2394  0.0687
  606MOL0     C83556   0.614   8.912   4.655  0.0911  0.1413  0.1366
  606MOL0     C83557   0.744   8.961   4.647 -0.2256  0.7505  0.4702
  606MOL0     C83558   0.757   9.105   4.663  0.4094 -0.1998 -0.2008
  606MOL0     H83559   1.276   8.668   4.630 -2.0266  1.0524 -1.9022
  606MOL0     H83560   1.509   8.729   4.678 -2.4860 -0.7834  2.4669
  606MOL0     H83561   1.727   9.111   4.549 -2.8177  0.2089 -0.0285
  606MOL0     H83562   1.654   9.028   4.413 -1.6960 -0.8558  1.0600
  606MOL0     H83563   1.828   8.832   4.467 -0.1306  0.3519  0.7397
  606MOL0     H83564   1.874   8.960   4.356 -0.0074 -0.3083 -0.2234
  606MOL0     H83565   1.969   9.079   4.527 -2.5769 -0.0220 -0.6812
  606MOL0     H83566   1.894   8.977   4.656  0.8128 -0.4891  1.0310
  606MOL0     H83567   2.041   8.772   4.607  0.4173  0.2138  1.5068
  606MOL0     H83568   2.098   8.857   4.463  0.7778 -0.2904  0.1833
  606MOL0     H83569   2.250   8.815   4.650 -0.3699  0.3495  0.7049
  606MOL0     H83570   2.166   8.927   4.747 -0.0229 -0.3504 -0.0594
  606MOL0     H83571   2.304   9.001   4.481 -1.2323 -0.4536 -0.2765
  606MOL0     H83572   2.209   9.114   4.580 -1.6457  0.0801 -4.7283
  606MOL0     H83573   2.463   8.960   4.663 -1.6673 -0.5914 -1.7146
  606MOL0     H83574   2.382   9.069   4.773 -1.3300 -0.7394 -0.2759
  606MOL0     H83575   2.478   9.157   4.505 -1.1306 -6.6526  0.8157
  606MOL0     H83576   2.409   9.250   4.638 -1.5974 -1.7603  1.5306
  606MOL0     H83577   2.743   9.012   4.623  0.9892 -1.3475  2.5331
  606MOL0     H83578   2.985   9.024   4.691  0.8282  0.7022  0.2481
  606MOL0     H83579   2.957   9.065   4.861  1.0016  1.5819  0.6966
  606MOL0     H83580   3.046   9.290   4.665 -1.0138 -0.2757 -0.1461
  606MOL0     H83581   3.032   9.293   4.837  0.3609 -0.1615 -0.5770
  606MOL0     H83582   3.219   9.115   4.851  2.3419 -0.2303 -0.2158
  606MOL0     H83583   3.237   9.122   4.676  1.0628  2.8375 -2.0423
  606MOL0     H83584   3.301   9.362   4.686  1.0837 -0.8644 -0.7270
  606MOL0     H83585   3.265   9.358   4.871  1.7238  0.8651  0.6168
  606MOL0     H83586   3.407   9.535   4.794 -0.7206 -0.2725  1.2529
  606MOL0     H83587   3.438   9.738   4.780 -0.3177 -0.8929 -0.5369
  606MOL0     H83588   3.592   9.806   4.733 -0.5890  0.0957  1.6865
  606MOL0     H83589   3.568   9.775   4.907 -0.0645  1.6024 -0.2887
  606MOL0     H83590   4.143   9.632   5.046 -1.5496 -0.7963 -0.2465
  606MOL0     H83591   4.275   9.830   5.085  1.8760  0.6083 -0.6943
  606MOL0     H83592   4.329  10.045   5.123 -0.2058  0.5291  0.8343
  606MOL0     H83593   4.482   9.986   5.046 -0.8771  0.4394  1.6380
  606MOL0     H83594   4.352  10.270   5.020 -0.9679 -1.1227  0.2800
  606MOL0     H83595   4.471  10.233   5.143  1.1956  1.4580 -0.5597
  606MOL0     H83596   4.545  10.156   4.861 -0.1741 -2.5579  1.6961
  606MOL0     H83597   4.633  10.200   5.013 -0.3487  2.2059  0.7304
  606MOL0     H83598   4.681  10.375   4.876  0.3570  1.2399  0.6062
  606MOL0     H83599   4.553  10.435   4.983  1.5894 -1.2226  2.5338
  606MOL0     H83600   4.382  10.370   4.812 -0.9045 -0.3181 -1.6572
  606MOL0     H83601   4.478  10.515   4.776 -1.4650  0.0688 -0.1853
  606MOL0     H83602   4.527  10.231   4.651  1.7762  0.0080 -1.2789
  606MOL0     H83603   4.625  10.380   4.627 -0.3296  1.8507  1.6318
  606MOL0     H83604   4.392  10.468   4.542  0.3017  0.4296  1.5884
  606MOL0     H83605   4.343  10.296   4.533 -1.0105 -0.2035  2.3705
  606MOL0     H83606   4.543  10.239   4.402  0.0195 -0.1178 -0.0580
  606MOL0     H83607   4.596  10.416   4.408 -0.4727  1.4997 -1.1803
  606MOL0     H83608   4.221   9.959   4.690  2.9045  1.1750  1.8977
  606MOL0     H83609   4.064   9.771   4.652 -2.1009 -0.0420  0.9186
  606MOL0     H83610   3.883   9.399   4.848  1.0696  4.0029  2.2625
  606MOL0     H83611   3.702   9.219   4.818 -0.3833 -0.4030  0.1672
  606MOL0     H83612   1.443   9.118   4.500 -0.9152  1.2287  1.8925
  606MOL0     H83613   1.214   9.079   4.488  3.2075  2.2642  0.7713
  606MOL0     H83614   0.919   8.659   4.589 -1.4770 -0.7005 -3.6707
  606MOL0     H83615   0.670   8.583   4.611 -0.5430  0.2776  1.2939
  606MOL0     H83616   0.473   8.554   4.562  1.4939 -0.6015  1.0316
  606MOL0     H83617   0.507   8.567   4.725  3.0839  0.2136 -2.7784
  606MOL0     H83618   0.255   8.657   4.753  0.8740 -2.2048  0.1270
  606MOL0     H83619   0.264   8.492   4.720 -3.1338 -0.1930 -2.1477
  606MOL0     H83620   0.207   8.505   4.485  1.4362 -0.9569  0.8248
  606MOL0     H83621   0.100   8.611   4.573  0.2822 -1.7678  1.1638
  606MOL0     H83622   0.332   8.660   4.378 -0.6056 -0.0022 -1.1734
  606MOL0     H83623   0.270   8.800   4.483  0.8181  0.4745  0.2516
  606MOL0     H83624   0.011   8.771   4.156  0.5261 -2.0801 -0.8324
  606MOL0     H83625   0.525   8.973   4.661  0.0782  0.0794  0.5751
  606MOL0     H83626   0.663   9.160   4.665  1.0668  0.9845 -0.9664
  606MOL0     H83627   0.796   9.132   4.762 -0.0721  2.3050 -0.6405
  606MOL0     H83628   0.818   9.146   4.583  1.5913 -1.7076 -0.1193
  607MOL0     O83629   1.822   1.809   1.882  0.1001  0.4887 -0.2857
  607MOL0     C83630   1.786   1.740   1.976  0.0221 -0.0454 -0.6251
  607MOL0     O83631   1.857   1.716   2.093 -0.0254  0.4076 -0.2266
  607MOL0     C83632   1.992   1.711   2.081  0.2067 -0.4661  0.4529
  607MOL0     C83633   2.058   1.727   2.203  0.3038  0.5686 -0.3416
  607MOL0     C83634   2.196   1.721   2.206 -0.8041  0.5414  0.0412
  607MOL0     C83635   2.270   1.701   2.096  0.0593  0.5788 -1.0411
  607MOL0     O83636   2.407   1.707   2.112  0.1871  0.0824 -0.5730
  607MOL0     C83637   2.505   1.667   2.014  0.4149 -0.6792 -0.8360
  607MOL0     C83638   2.501   1.513   2.013 -0.7694 -0.4929 -0.1684
  607MOL0     C83639   2.632   1.461   1.941 -0.0904  0.5577 -0.5928
  607MOL0     C83640   2.601   1.396   1.810 -0.3400  0.3890 -0.0735
  607MOL0     C83641   2.734   1.333   1.746  0.6176  0.0821 -0.1659
  607MOL0     C83642   2.767   1.199   1.822  0.3014  0.3044 -0.1125
  607MOL0     C83643   2.888   1.148   1.751 -0.0320  0.7055 -0.1294
  607MOL0     C83644   2.951   1.004   1.786  0.3632 -0.3843  0.3211
  607MOL0     N83645   3.064   0.973   1.704  0.5576 -0.5405 -0.8007
  607MOL0     C83646   3.196   1.018   1.721 -0.0284  0.7464  0.1020
  607MOL0     C83647   3.261   0.988   1.605  0.2707  0.7098 -0.1956
  607MOL0     C83648   3.409   1.018   1.582 -0.2302 -0.1406  0.2718
  607MOL0     C83649   3.508   1.032   1.705  0.8064  0.4690  0.2603
  607MOL0     C83650   3.650   1.019   1.648 -0.1488 -0.6782  0.1975
  607MOL0     C83651   3.762   1.043   1.753 -0.2617  0.5032 -0.3923
  607MOL0     O83652   3.871   1.092   1.674 -0.6791 -0.5253 -0.0436
  607MOL0     C83653   3.992   1.113   1.730 -0.1957 -0.2234  0.3825
  607MOL0     C83654   4.029   1.069   1.867  0.6240 -0.1237  1.1896
  607MOL0     C83655   4.161   1.089   1.912  0.1106 -1.4704 -1.1553
  607MOL0     C83656   4.198   1.034   2.048 -0.4047 -0.0960  0.4909
  607MOL0     C83657   4.245   1.154   1.832 -0.1086  0.2839  0.2534
  607MOL0     C83658   4.386   1.186   1.881  0.0683  0.2926  0.3974
  607MOL0     O83659   4.487   1.179   1.787 -0.0695  0.4894  0.1312
  607MOL0     C83660   4.615   1.226   1.824 -0.3645  0.1721  0.1696
  607MOL0     C83661   4.699   1.234   1.707 -0.6411  0.1218  0.0993
  607MOL0     C83662   4.836   1.255   1.716  0.5027  0.2268 -0.0994
  607MOL0     C83663   4.907   1.281   1.836 -0.1843  0.0955 -0.5872
  607MOL0     O83664   5.042   1.289   1.843 -0.3824  0.1760 -0.1081
  607MOL0     C83665   5.106   1.323   1.965 -0.1739 -0.2795  0.1420
  607MOL0     C83666   5.247   1.370   1.915 -0.3281 -0.3453 -0.2330
  607MOL0     C83667   5.348   1.378   2.034 -0.0934  0.0594  0.3943
  607MOL0     C83668   5.486   1.401   1.971  0.2538  0.5475  0.6887
  607MOL0     C83669   5.596   1.415   2.069  0.0720 -0.5061  0.3302
  607MOL0     C83670   5.567   1.543   2.149 -0.4561 -0.0133  0.2328
  607MOL0     C83671   5.663   1.555   2.276  0.0748 -1.0788 -0.4505
  607MOL0     C83672   5.702   1.707   2.282  0.4503  0.3799 -0.3592
  607MOL0    Cl83673   5.573   1.796   2.363  0.1244  0.0619  0.4088
  607MOL0     C83674   4.821   1.284   1.949 -0.0617  0.8679 -0.5212
  607MOL0     C83675   4.683   1.260   1.946 -0.0039  0.1522  0.0924
  607MOL0     O83676   4.396   1.235   1.991  0.7155 -0.7155 -0.0749
  607MOL0     C83677   4.211   1.202   1.699  0.0627 -0.0181 -0.5464
  607MOL0     C83678   4.081   1.184   1.649 -0.1400  0.7293  0.1325
  607MOL0     N83679   3.169   0.925   1.525 -0.5486  0.0863  0.6329
  607MOL0     N83680   3.052   0.913   1.585 -0.2068  0.2398  0.6328
  607MOL0     C83681   2.205   1.683   1.975  0.2351 -0.8077 -1.2986
  607MOL0     C83682   2.070   1.689   1.966 -0.0584  0.7269 -0.3216
  607MOL0     C83683   1.647   1.683   1.959  0.5237 -0.6084  0.6321
  607MOL0     C83684   1.581   1.647   2.068  0.9365  0.1511 -0.4381
  607MOL0     C83685   1.449   1.593   2.063 -0.3395  0.3373  0.4796
  607MOL0     C83686   1.398   1.567   1.941  0.2216  1.1057 -0.5752
  607MOL0     O83687   1.276   1.498   1.934  0.3213 -0.5777 -0.1296
  607MOL0     C83688   1.185   1.508   2.043  0.6763  0.1846 -0.3006
  607MOL0     C83689   1.047   1.477   1.985 -0.2225  0.5204 -0.0096
  607MOL0     C83690   0.994   1.583   1.879 -1.3545 -0.6088 -0.4113
  607MOL0     C83691   0.845   1.568   1.846 -0.2687 -0.4801  0.0344
  607MOL0     C83692   0.755   1.628   1.952 -0.1732 -0.5294  0.3332
  607MOL0     C83693   0.685   1.696   2.035  0.2527 -0.0569  0.3215
  607MOL0     C83694   1.457   1.600   1.831  0.3431  0.6653  0.4203
  607MOL0     C83695   1.582   1.661   1.829 -0.3514 -0.0889  0.2491
  607MOL0     C83696   1.633   1.696   1.690 -0.2893 -0.5105  0.4438
  607MOL0     H83697   1.998   1.726   2.293 -0.0910 -2.7801 -0.5060
  607MOL0     H83698   2.243   1.731   2.304 -0.0425  2.4756 -0.4739
  607MOL0     H83699   2.604   1.705   2.041  0.5847 -0.6111 -1.5247
  607MOL0     H83700   2.485   1.707   1.914 -0.3929  1.1277 -0.0134
  607MOL0     H83701   2.487   1.471   2.114 -0.4068 -0.8890 -0.2776
  607MOL0     H83702   2.416   1.477   1.955  0.2978 -2.2000 -0.7379
  607MOL0     H83703   2.702   1.543   1.920  0.7063 -1.1112 -5.7426
  607MOL0     H83704   2.687   1.396   2.009  2.5839  2.6777 -0.5432
  607MOL0     H83705   2.532   1.314   1.830 -0.8818  1.0990  1.0775
  607MOL0     H83706   2.557   1.470   1.743  0.8040  0.8015 -0.3972
  607MOL0     H83707   2.825   1.394   1.750 -0.3796  1.5950  3.0190
  607MOL0     H83708   2.711   1.313   1.641 -0.4460  2.1454 -0.3829
  607MOL0     H83709   2.777   1.216   1.930 -0.1685 -0.5931  0.0777
  607MOL0     H83710   2.681   1.134   1.804  0.9591  0.0541 -2.7201
  607MOL0     H83711   2.971   1.219   1.747  1.7022 -1.1095  1.4062
  607MOL0     H83712   2.847   1.139   1.650  0.7286 -0.7960 -0.3275
  607MOL0     H83713   2.984   1.023   1.889  0.4803  1.3016  0.0140
  607MOL0     H83714   2.880   0.921   1.781  1.9721 -1.8493  0.8173
  607MOL0     H83715   3.259   1.062   1.798  3.7896 -0.4725 -2.0744
  607MOL0     H83716   3.407   1.111   1.524  2.8348 -0.1224  0.0484
  607MOL0     H83717   3.453   0.949   1.509  0.7016  2.7521 -2.0708
  607MOL0     H83718   3.496   1.122   1.764  0.9193 -0.3526  1.5682
  607MOL0     H83719   3.491   0.943   1.766  0.3587  1.3389  1.4340
  607MOL0     H83720   3.668   0.920   1.606  2.0792 -0.7359  1.1046
  607MOL0     H83721   3.663   1.089   1.566 -1.2403 -2.5646 -1.6811
  607MOL0     H83722   3.727   1.104   1.837 -0.6530 -3.3053  2.4479
  607MOL0     H83723   3.791   0.948   1.798  1.5197  0.0998 -2.2437
  607MOL0     H83724   3.960   1.018   1.934  2.1525 -2.6144  0.9862
  607MOL0     H83725   4.283   0.965   2.043  0.2520 -0.0692  5.5950
  607MOL0     H83726   4.120   0.975   2.097 -0.6742 -0.7136 -0.6435
  607MOL0     H83727   4.221   1.111   2.122 -1.1750 -0.8839  1.5840
  607MOL0     H83728   4.655   1.205   1.612  1.3208 -0.7370 -0.5980
  607MOL0     H83729   4.883   1.249   1.618 -2.1548  2.0937 -1.6275
  607MOL0     H83730   5.046   1.397   2.019 -1.7802  0.0880 -2.0107
  607MOL0     H83731   5.111   1.238   2.034  0.6008  0.9402  1.6456
  607MOL0     H83732   5.271   1.291   1.843 -1.1530 -0.6752 -0.1550
  607MOL0     H83733   5.250   1.464   1.859 -0.4302 -0.3919 -0.3151
  607MOL0     H83734   5.355   1.287   2.094 -2.2388 -0.3500  0.1186
  607MOL0     H83735   5.312   1.456   2.101  3.1845 -0.4920  3.0489
  607MOL0     H83736   5.474   1.494   1.913  0.0839 -0.2366 -0.5668
  607MOL0     H83737   5.511   1.318   1.905  0.6672  1.9370 -0.9889
  607MOL0     H83738   5.590   1.327   2.133 -2.5288 -2.0412 -1.8231
  607MOL0     H83739   5.698   1.424   2.030 -0.9651  2.2349 -2.1228
  607MOL0     H83740   5.463   1.551   2.182 -0.7724  0.1767 -0.7710
  607MOL0     H83741   5.584   1.628   2.083 -1.2889 -0.8851 -1.1669
  607MOL0     H83742   5.750   1.496   2.248 -1.0553 -1.8073 -2.7099
  607MOL0     H83743   5.627   1.523   2.374  1.8261 -1.2454  0.1659
  607MOL0     H83744   5.734   1.752   2.187 -0.7674  0.8052 -0.5832
  607MOL0     H83745   5.790   1.707   2.347  2.4655 -0.5549 -2.9189
  607MOL0     H83746   4.867   1.281   2.047 -0.0491 -1.1061 -0.5440
  607MOL0     H83747   4.631   1.258   2.041 -0.0923 -2.4229  0.0498
  607MOL0     H83748   4.286   1.250   1.637  0.2364 -0.6755 -0.8625
  607MOL0     H83749   4.042   1.217   1.552  3.3036  0.9425 -1.3029
  607MOL0     H83750   2.266   1.682   1.885  0.5838 -0.5820 -1.0688
  607MOL0     H83751   2.043   1.679   1.861  1.8228 -0.4533 -0.7446
  607MOL0     H83752   1.624   1.670   2.165  2.0178  0.2687 -0.9317
  607MOL0     H83753   1.411   1.558   2.158 -0.0440  1.7109  1.1380
  607MOL0     H83754   1.214   1.427   2.110 -0.8350 -1.4581 -1.5533
  607MOL0     H83755   1.181   1.605   2.093 -0.4105  0.3522 -0.6785
  607MOL0     H83756   0.979   1.466   2.070 -2.0916  0.7681 -1.4201
  607MOL0     H83757   1.048   1.381   1.933 -0.9429 -0.2127  1.2934
  607MOL0     H83758   1.015   1.682   1.920 -1.3969 -0.1724 -1.4067
  607MOL0     H83759   1.047   1.565   1.785 -1.7623  0.1266 -0.7930
  607MOL0     H83760   0.818   1.462   1.835  3.4995 -1.5454 -0.4681
  607MOL0     H83761   0.818   1.619   1.753  0.0121  1.1858  0.8469
  607MOL0     H83762   0.647   1.733   2.128  2.2615  0.7027  0.9020
  607MOL0     H83763   1.404   1.571   1.741 -0.0301 -1.0962  1.1583
  607MOL0     H83764   1.550   1.694   1.619 -0.1861  1.0562  0.2523
  607MOL0     H83765   1.675   1.797   1.688  1.0418 -1.0165 -2.2173
  607MOL0     H83766   1.704   1.624   1.648  1.2653  1.3612 -0.3017
  608MOL0     O83767   5.530   5.608   6.855 -0.3683 -0.5396  0.5444
  608MOL0     C83768   5.600   5.523   6.802 -0.9054  0.2611 -0.3257
  608MOL0     O83769   5.742   5.535   6.793  0.0507  0.0729 -0.7080
  608MOL0     C83770   5.822   5.630   6.857 -0.4591 -0.1874  0.2110
  608MOL0     C83771   5.952   5.636   6.814  0.3617  1.1792  0.4456
  608MOL0     C83772   6.046   5.724   6.868 -0.3343 -0.5688 -0.3253
  608MOL0     C83773   6.003   5.813   6.972 -0.1485  0.6466  0.0957
  608MOL0     O83774   6.106   5.888   7.021 -0.6468 -0.0974 -0.1136
  608MOL0     C83775   6.099   6.021   6.976  0.1717  0.3178 -0.1975
  608MOL0     C83776   6.229   6.094   7.015 -0.5029  0.1444  0.1787
  608MOL0     C83777   6.355   6.018   6.974  0.0726 -0.3038  0.0029
  608MOL0     C83778   6.477   6.124   6.985  0.4330 -0.3107  0.2359
  608MOL0     C83779   6.610   6.062   6.941  0.2000  0.9567 -0.5032
  608MOL0     C83780   6.726   6.156   6.935 -0.0005 -0.7112  0.1125
  608MOL0     C83781   6.722   6.263   6.818 -0.8042  0.5040 -1.0264
  608MOL0     C83782   6.751   6.198   6.675 -0.6917  0.1456 -0.1770
  608MOL0     N83783   6.878   6.135   6.671 -0.3050  0.0121 -0.2583
  608MOL0     C83784   6.901   5.999   6.677  0.4883  0.5954  0.4944
  608MOL0     C83785   7.030   5.972   6.665 -0.9639  0.0916 -0.1183
  608MOL0     C83786   7.094   5.837   6.651 -0.8230  0.0119  0.1801
  608MOL0     C83787   7.156   5.782   6.775  0.3502  0.2977  0.5347
  608MOL0     C83788   7.051   5.759   6.897  0.6536 -0.4828  0.8069
  608MOL0     C83789   6.920   5.677   6.863 -0.2481  0.1962 -0.0182
  608MOL0     O83790   6.965   5.539   6.836 -0.1727 -0.1768 -0.1592
  608MOL0     C83791   6.872   5.440   6.828 -0.8233 -0.5099 -0.6881
  608MOL0     C83792   6.731   5.464   6.844  0.1498  0.2140 -0.1950
  608MOL0     C83793   6.642   5.361   6.837 -0.0620 -0.6970  0.2369
  608MOL0     C83794   6.500   5.398   6.822  0.3815  0.1277  0.0845
  608MOL0     C83795   6.689   5.225   6.835 -0.3678  0.1131 -0.3485
  608MOL0     C83796   6.602   5.104   6.839  0.2788  0.1195 -0.3537
  608MOL0     O83797   6.479   5.120   6.869  0.6709  0.0100  0.4520
  608MOL0     C83798   6.397   5.005   6.867 -0.3441  0.3199 -0.0993
  608MOL0     C83799   6.422   4.902   6.965 -0.1548  0.2724 -0.4691
  608MOL0     C83800   6.317   4.810   6.992 -0.0502 -0.2396  0.7538
  608MOL0     C83801   6.201   4.809   6.916 -0.2557 -0.3400  0.5979
  608MOL0     O83802   6.103   4.713   6.945 -0.1976 -0.4714 -0.4146
  608MOL0     C83803   6.004   4.783   7.025 -0.0006  0.0041  0.2276
  608MOL0     C83804   5.950   4.701   7.130 -0.3198 -0.0497 -0.2069
  608MOL0     C83805   5.886   4.573   7.076 -0.3815 -0.2494 -0.9292
  608MOL0     C83806   5.883   4.466   7.192 -0.2826  0.3529 -0.1970
  608MOL0     C83807   5.792   4.352   7.160  0.0003  0.1172  0.7598
  608MOL0     C83808   5.749   4.259   7.278 -0.9748 -0.2824  0.6203
  608MOL0     C83809   5.687   4.118   7.237  0.1387  0.0297  0.2160
  608MOL0     C83810   5.548   4.138   7.172  0.2299  0.3419 -0.2517
  608MOL0    Cl83811   5.435   4.156   7.310  0.2595  0.3233  0.1236
  608MOL0     C83812   6.177   4.914   6.822  0.1551  0.2130  0.9790
  608MOL0     C83813   6.268   5.007   6.802  0.1144 -0.2981  0.5861
  608MOL0     O83814   6.663   4.999   6.802  0.3052 -0.5582 -0.1224
  608MOL0     C83815   6.830   5.207   6.809  0.3571  0.5610  0.1666
  608MOL0     C83816   6.920   5.307   6.809 -0.1215  0.4624 -0.0723
  608MOL0     N83817   7.100   6.092   6.669  0.0427 -0.1251  0.3756
  608MOL0     N83818   7.010   6.187   6.686  0.3333 -0.3350  0.4044
  608MOL0     C83819   5.874   5.799   7.029  0.2102 -0.2386  0.1544
  608MOL0     C83820   5.789   5.704   6.970 -0.2183 -0.2186  0.9385
  608MOL0     C83821   5.526   5.405   6.739 -0.7949  0.3331 -0.7424
  608MOL0     C83822   5.590   5.326   6.641 -0.2233 -0.7624  0.3635
  608MOL0     C83823   5.525   5.225   6.569  0.4670  0.4770  0.3180
  608MOL0     C83824   5.387   5.202   6.583  0.5015 -0.0428 -0.5572
  608MOL0     O83825   5.325   5.108   6.500 -0.2103  0.2686  0.7581
  608MOL0     C83826   5.220   5.025   6.553 -0.9220 -0.0867 -1.0525
  608MOL0     C83827   5.087   5.041   6.484 -0.3813  0.2915  0.8234
  608MOL0     C83828   5.095   5.045   6.327 -1.0439  0.5221 -0.0862
  608MOL0     C83829   5.139   4.918   6.260 -0.7980  0.4485 -0.5215
  608MOL0     C83830   5.042   4.809   6.281  0.3840 -0.0151 -0.7924
  608MOL0     C83831   4.960   4.718   6.304 -0.3843 -0.7208 -0.7571
  608MOL0     C83832   5.325   5.290   6.676 -0.2996 -0.1373 -0.0839
  608MOL0     C83833   5.387   5.381   6.762  0.3635 -0.4307  0.3001
  608MOL0     C83834   5.292   5.463   6.848 -0.4175  0.4768  0.2222
  608MOL0     H83835   5.980   5.559   6.742  0.6831  0.6249  1.1540
  608MOL0     H83836   6.149   5.718   6.836  0.0227 -0.2373  0.7305
  608MOL0     H83837   6.015   6.074   7.022  0.0893  1.0461 -1.1487
  608MOL0     H83838   6.082   6.031   6.868  1.8199  0.8099 -0.4337
  608MOL0     H83839   6.225   6.198   6.979  1.7712 -0.3334 -1.7867
  608MOL0     H83840   6.234   6.101   7.124  0.4208  1.3292  0.0944
  608MOL0     H83841   6.368   5.924   7.027  1.8840 -1.9493 -3.0489
  608MOL0     H83842   6.366   5.992   6.868  3.0389 -0.5016  0.2708
  608MOL0     H83843   6.457   6.214   6.926  1.2819  0.6516  1.3671
  608MOL0     H83844   6.480   6.160   7.089  0.8690 -2.2551  0.9477
  608MOL0     H83845   6.603   6.010   6.845  0.2627  0.8701 -0.4610
  608MOL0     H83846   6.635   5.980   7.009 -1.2081  1.6101  0.8651
  608MOL0     H83847   6.707   6.215   7.026 -3.4059 -1.3899 -0.0432
  608MOL0     H83848   6.818   6.098   6.949  1.6671  2.0332  1.5143
  608MOL0     H83849   6.790   6.347   6.838  0.1545 -0.6950  1.1848
  608MOL0     H83850   6.627   6.315   6.807 -0.2876  1.4309 -1.2555
  608MOL0     H83851   6.681   6.124   6.636  1.9045 -3.0444  0.6871
  608MOL0     H83852   6.756   6.278   6.601  0.6726  2.1530  1.9401
  608MOL0     H83853   6.816   5.933   6.688 -1.8147  3.1992 -0.5112
  608MOL0     H83854   7.172   5.845   6.575 -0.1013 -1.2630  0.7576
  608MOL0     H83855   7.025   5.761   6.611 -0.0590  0.1951 -1.6021
  608MOL0     H83856   7.193   5.680   6.759 -1.3823 -0.2824  0.0542
  608MOL0     H83857   7.239   5.842   6.814 -0.8027  1.6394  0.9531
  608MOL0     H83858   7.095   5.723   6.990 -1.3694 -0.1683  1.9503
  608MOL0     H83859   7.019   5.859   6.928  0.4899  0.7144 -2.7569
  608MOL0     H83860   6.863   5.677   6.957 -0.0452 -0.3134  0.1060
  608MOL0     H83861   6.849   5.733   6.801 -1.6590 -0.3704  1.0463
  608MOL0     H83862   6.694   5.566   6.850 -2.5278 -0.7621  2.5132
  608MOL0     H83863   6.492   5.502   6.787  1.2497 -0.1143 -0.8807
  608MOL0     H83864   6.443   5.391   6.915 -0.4646  0.3669 -0.4021
  608MOL0     H83865   6.449   5.339   6.746 -0.1465  0.3507  0.2590
  608MOL0     H83866   6.516   4.893   7.018 -0.6838 -1.8348  0.2172
  608MOL0     H83867   6.331   4.732   7.066 -1.4134 -1.6035 -0.3648
  608MOL0     H83868   6.038   4.870   7.081 -0.3735 -1.0011  2.0677
  608MOL0     H83869   5.923   4.828   6.966  0.1021 -1.0999 -0.7986
  608MOL0     H83870   6.030   4.683   7.202 -1.9047  0.5093  1.7956
  608MOL0     H83871   5.879   4.762   7.186  1.4694  1.2911  0.6814
  608MOL0     H83872   5.944   4.523   6.998 -0.7534  0.5957 -1.7670
  608MOL0     H83873   5.788   4.601   7.037  0.0317  0.7601 -1.2722
  608MOL0     H83874   5.850   4.519   7.281  2.3028 -0.1702  1.1763
  608MOL0     H83875   5.987   4.440   7.213  0.0763  2.8753  1.4593
  608MOL0     H83876   5.705   4.398   7.111  0.1804 -0.8661 -0.5421
  608MOL0     H83877   5.841   4.286   7.088 -0.7005 -0.5958  0.9248
  608MOL0     H83878   5.677   4.315   7.338 -2.7013  0.1926 -1.7629
  608MOL0     H83879   5.842   4.242   7.335 -0.9468 -4.4514 -0.3149
  608MOL0     H83880   5.678   4.056   7.327 -0.0684  2.3005  1.8352
  608MOL0     H83881   5.764   4.081   7.169  1.0491 -0.1572  1.3003
  608MOL0     H83882   5.516   4.043   7.128  0.7323  0.6853 -1.3911
  608MOL0     H83883   5.540   4.225   7.106  1.8829  2.4570  2.1334
  608MOL0     H83884   6.082   4.918   6.770  0.6823 -2.0884 -0.3537
  608MOL0     H83885   6.246   5.096   6.744 -2.4856 -2.1194 -1.5246
  608MOL0     H83886   6.867   5.107   6.790  0.5923 -0.0482  3.3113
  608MOL0     H83887   7.027   5.297   6.794  0.1596  0.9182  1.5251
  608MOL0     H83888   5.841   5.832   7.127 -1.7833 -3.6030  0.7567
  608MOL0     H83889   5.690   5.693   7.014 -0.6904 -1.3502 -0.3265
  608MOL0     H83890   5.697   5.339   6.632 -0.1397 -0.1399  1.9494
  608MOL0     H83891   5.583   5.161   6.503  0.8500  0.9873  0.1569
  608MOL0     H83892   5.254   4.921   6.550  0.7208  0.0362  3.9078
  608MOL0     H83893   5.207   5.052   6.659  0.4185  1.8312 -1.3391
  608MOL0     H83894   5.025   5.126   6.512 -0.4844  0.4019  0.2750
  608MOL0     H83895   5.029   4.957   6.524 -0.9542  0.2916  0.0174
  608MOL0     H83896   4.999   5.071   6.282 -0.5869  2.8039  0.1458
  608MOL0     H83897   5.163   5.127   6.304 -1.4504  1.8153  2.7589
  608MOL0     H83898   5.242   4.896   6.288 -1.9060 -0.8563  3.0490
  608MOL0     H83899   5.136   4.927   6.151 -1.6276 -0.4022 -0.5832
  608MOL0     H83900   4.892   4.639   6.331 -0.1259 -0.2389  1.5504
  608MOL0     H83901   5.218   5.273   6.678 -0.4172  0.4618 -0.8920
  608MOL0     H83902   5.260   5.553   6.796  0.8501  0.7214 -0.1746
  608MOL0     H83903   5.212   5.405   6.895  0.4128 -0.6249  0.3024
  608MOL0     H83904   5.350   5.490   6.937  0.7463 -0.8995 -0.0893
  609MOL0     O83905   2.966   2.679   1.852  0.1444  0.0755  0.2178
  609MOL0     C83906   2.952   2.577   1.924  0.6618  0.0188  0.0515
  609MOL0     O83907   2.969   2.450   1.880  0.3106 -0.0765  0.4543
  609MOL0     C83908   3.007   2.436   1.752 -0.9017  0.0084 -0.5894
  609MOL0     C83909   2.922   2.421   1.647 -0.1864 -0.2606 -0.2116
  609MOL0     C83910   2.976   2.393   1.523 -0.2334  0.3841  0.1316
  609MOL0     C83911   3.118   2.388   1.504  0.1520  0.2530 -0.0886
  609MOL0     O83912   3.165   2.364   1.376 -0.1736 -0.8152  0.2990
  609MOL0     C83913   3.306   2.380   1.349 -0.1542  0.1513  0.2809
  609MOL0     C83914   3.395   2.271   1.406  0.4096 -0.5375 -0.1422
  609MOL0     C83915   3.427   2.169   1.298 -0.4083  0.5272  0.0859
  609MOL0     C83916   3.558   2.090   1.327  0.1122 -0.1979  0.1916
  609MOL0     C83917   3.610   2.036   1.192  0.6365 -0.5555  1.1485
  609MOL0     C83918   3.703   1.911   1.215  0.2891 -0.1056 -0.0835
  609MOL0     C83919   3.766   1.850   1.088  0.7097 -0.2911 -0.4160
  609MOL0     C83920   3.894   1.774   1.133 -0.2630 -0.2886  0.2309
  609MOL0     N83921   3.984   1.724   1.027 -0.0766  0.6164 -0.5695
  609MOL0     C83922   4.070   1.614   1.035 -0.2339 -0.2386 -0.7425
  609MOL0     C83923   4.126   1.594   0.917 -0.5079 -0.5626  0.5594
  609MOL0     C83924   4.231   1.493   0.879 -0.2253  0.9207 -0.0130
  609MOL0     C83925   4.252   1.381   0.983  0.2607 -0.5058  1.1528
  609MOL0     C83926   4.366   1.298   0.924 -0.2570  0.0799 -0.4942
  609MOL0     C83927   4.388   1.164   0.999 -0.0693 -0.4755  0.1730
  609MOL0     O83928   4.476   1.070   0.929  0.5625  0.1203  0.0210
  609MOL0     C83929   4.553   0.983   1.007  0.3137  0.3682  0.6711
  609MOL0     C83930   4.509   0.908   1.113  1.3636  0.6251  0.0721
  609MOL0     C83931   4.594   0.826   1.184  0.5783  0.1129 -0.7438
  609MOL0     C83932   4.534   0.741   1.296  0.0387 -0.1787 -0.0310
  609MOL0     C83933   4.724   0.807   1.133 -0.7739  0.7894  0.4375
  609MOL0     C83934   4.821   0.714   1.192  0.7259  0.4939 -0.8266
  609MOL0     O83935   4.779   0.585   1.221 -0.5849 -0.5051  0.5852
  609MOL0     C83936   4.885   0.497   1.214 -0.3798  0.3517 -0.0975
  609MOL0     C83937   4.871   0.383   1.135  0.5761  0.1524 -0.6418
  609MOL0     C83938   4.962   0.274   1.140 -0.0817 -0.7427  0.2187
  609MOL0     C83939   5.071   0.286   1.224  0.1332 -0.3581 -0.2465
  609MOL0     O83940   5.167   0.185   1.227  0.2693  0.1763 -0.0313
  609MOL0     C83941   5.199   0.104   1.111 -0.7162 -0.3289  0.2878
  609MOL0     C83942   5.268  -0.031   1.151  0.7964 -0.8983 -0.5869
  609MOL0     C83943   5.415  -0.037   1.189  0.5280 -0.3405  0.3577
  609MOL0     C83944   5.513   0.027   1.078 -0.4444  0.4349 -0.5293
  609MOL0     C83945   5.652  -0.048   1.091  0.6433  0.8852  1.1332
  609MOL0     C83946   5.748  -0.003   0.978 -0.5115  0.4715  0.3214
  609MOL0     C83947   5.879  -0.073   0.962  0.5982  0.7859  0.1490
  609MOL0     C83948   5.979  -0.013   0.867  0.0172 -0.1201  0.3274
  609MOL0    Cl83949   5.913  -0.003   0.698 -0.0622 -0.6485 -0.3128
  609MOL0     C83950   5.079   0.395   1.314  0.3044 -0.4573  1.0151
  609MOL0     C83951   4.992   0.505   1.310  0.4852 -0.5081 -0.5408
  609MOL0     O83952   4.932   0.767   1.214  0.2432 -0.1270 -0.2842
  609MOL0     C83953   4.763   0.864   1.014  0.0279 -0.2673  0.1693
  609MOL0     C83954   4.670   0.953   0.953 -0.3609  0.6412 -0.7096
  609MOL0     N83955   4.066   1.686   0.832  0.5619  0.4856  0.3372
  609MOL0     N83956   3.984   1.762   0.891 -0.6473 -0.0708 -0.7647
  609MOL0     C83957   3.210   2.413   1.611 -1.0388 -0.5183  0.2430
  609MOL0     C83958   3.144   2.442   1.735 -0.6437  0.1775  0.2728
  609MOL0     C83959   2.910   2.598   2.065 -0.2323  0.4877 -0.1962
  609MOL0     C83960   2.911   2.487   2.152  0.3496 -0.2003 -0.7838
  609MOL0     C83961   2.860   2.495   2.284  0.9136 -0.0929  0.2423
  609MOL0     C83962   2.823   2.619   2.333  1.1244 -0.3572 -0.0891
  609MOL0     O83963   2.789   2.620   2.468 -0.0921 -0.5225  0.0016
  609MOL0     C83964   2.749   2.736   2.536  0.6858 -0.6437  0.1569
  609MOL0     C83965   2.689   2.689   2.672  0.2145 -0.4257 -0.0489
  609MOL0     C83966   2.587   2.583   2.664  1.2751 -0.3632  0.4802
  609MOL0     C83967   2.537   2.551   2.810  0.1319  0.4179 -0.2092
  609MOL0     C83968   2.647   2.513   2.909 -0.4484 -0.2848  0.4621
  609MOL0     C83969   2.738   2.492   2.990 -0.2646 -0.4401  0.6775
  609MOL0     C83970   2.835   2.733   2.254  0.3228 -0.1305  0.5199
  609MOL0     C83971   2.868   2.725   2.118 -0.0853 -0.0831 -1.1769
  609MOL0     C83972   2.832   2.853   2.039 -0.2707 -0.0052 -1.0230
  609MOL0     H83973   2.815   2.421   1.665 -0.2484 -0.6317 -0.5658
  609MOL0     H83974   2.915   2.378   1.435 -0.8938  2.0487  0.2664
  609MOL0     H83975   3.344   2.473   1.392  3.3485 -1.7803  1.7854
  609MOL0     H83976   3.319   2.387   1.240 -2.5552  0.3090 -0.0471
  609MOL0     H83977   3.478   2.331   1.445 -0.7945  1.0276  0.0960
  609MOL0     H83978   3.342   2.226   1.491 -2.1283  0.6152 -1.0080
  609MOL0     H83979   3.352   2.090   1.297 -0.9240  0.9774 -2.3165
  609MOL0     H83980   3.424   2.210   1.196  0.3641  1.3732  0.3869
  609MOL0     H83981   3.634   2.157   1.367  1.5210 -0.0852 -2.4330
  609MOL0     H83982   3.528   2.010   1.395 -3.0558  1.3374  0.7814
  609MOL0     H83983   3.656   2.120   1.139  0.0951 -0.6395  0.5275
  609MOL0     H83984   3.528   2.001   1.128 -0.2277  0.7914  1.4905
  609MOL0     H83985   3.780   1.945   1.285  3.2609 -2.5896 -1.8794
  609MOL0     H83986   3.652   1.827   1.263  0.6860  0.3964  1.2551
  609MOL0     H83987   3.798   1.934   1.026  3.4932 -0.6156  0.4334
  609MOL0     H83988   3.694   1.791   1.031  1.6498  0.5252 -2.5645
  609MOL0     H83989   3.952   1.839   1.199 -0.3902 -0.6124  0.6636
  609MOL0     H83990   3.852   1.689   1.187 -2.6371  0.4993 -0.2488
  609MOL0     H83991   4.077   1.557   1.127 -1.0112  0.5280 -0.1986
  609MOL0     H83992   4.323   1.552   0.877 -0.3790  1.2565  1.5943
  609MOL0     H83993   4.211   1.450   0.781 -2.0957 -0.3004  0.8465
  609MOL0     H83994   4.269   1.424   1.082 -2.3366  0.2310  1.3598
  609MOL0     H83995   4.159   1.325   0.997 -0.0739 -0.7738 -1.6411
  609MOL0     H83996   4.330   1.278   0.822 -1.2049  3.9998 -1.0757
  609MOL0     H83997   4.454   1.364   0.920  0.0741 -0.3677 -0.6808
  609MOL0     H83998   4.417   1.185   1.103 -1.5612 -3.1074  1.2464
  609MOL0     H83999   4.289   1.118   1.011 -1.4962  1.8875 -1.6237
  609MOL0     H84000   4.410   0.929   1.152  0.4833 -0.5781 -1.3831
  609MOL0     H84001   4.536   0.637   1.264  1.8380 -1.0691  2.6514
  609MOL0     H84002   4.432   0.772   1.320 -0.7284 -0.8086 -2.2680
  609MOL0     H84003   4.599   0.752   1.383 -0.8366  1.4288  0.4589
  609MOL0     H84004   4.783   0.382   1.071  1.0477  2.5917 -1.4305
  609MOL0     H84005   4.940   0.188   1.079 -0.5707 -1.5859  1.5380
  609MOL0     H84006   5.114   0.076   1.048 -0.3970  0.8793 -0.7399
  609MOL0     H84007   5.259   0.155   1.035 -2.2059  0.5901 -0.3401
  609MOL0     H84008   5.213  -0.074   1.235 -0.5035  0.9561 -0.4135
  609MOL0     H84009   5.268  -0.090   1.059 -0.7157  0.0850 -1.2579
  609MOL0     H84010   5.438  -0.143   1.199  0.4898 -0.4985 -1.0735
  609MOL0     H84011   5.429   0.015   1.284  3.1232  2.6398 -1.4536
  609MOL0     H84012   5.532   0.135   1.091 -0.2607  0.3866 -0.3885
  609MOL0     H84013   5.471   0.020   0.978 -2.5729  0.7338  0.2860
  609MOL0     H84014   5.700  -0.031   1.188  3.2039  0.4744  0.0081
  609MOL0     H84015   5.647  -0.157   1.090  0.3459  0.8982  1.2505
  609MOL0     H84016   5.757   0.105   0.986 -1.3998  0.5038  0.8946
  609MOL0     H84017   5.698  -0.024   0.882 -0.3192 -0.5824  0.4362
  609MOL0     H84018   5.853  -0.176   0.933 -0.4791  0.8457  0.8865
  609MOL0     H84019   5.935  -0.086   1.055 -2.5798  0.0207  2.0806
  609MOL0     H84020   6.075  -0.064   0.876 -0.4364 -1.1828 -0.5428
  609MOL0     H84021   6.001   0.089   0.901  0.9661 -1.0206  2.6060
  609MOL0     H84022   5.165   0.401   1.380 -0.0648  2.0190  1.3589
  609MOL0     H84023   5.004   0.591   1.376  3.8603 -1.2262 -0.0366
  609MOL0     H84024   4.866   0.860   0.981  0.9011  0.5042  2.5936
  609MOL0     H84025   4.692   1.011   0.865  0.4935  1.2977 -0.0772
  609MOL0     H84026   3.318   2.409   1.615 -0.8624  2.6293  2.4935
  609MOL0     H84027   3.208   2.480   1.815 -0.0618 -0.9014  0.3478
  609MOL0     H84028   2.932   2.390   2.106 -4.4583 -0.6662 -2.6146
  609MOL0     H84029   2.852   2.401   2.340  0.2733  0.3646  0.9415
  609MOL0     H84030   2.837   2.801   2.531  0.5923 -0.4782  0.5382
  609MOL0     H84031   2.668   2.791   2.487  1.1335  0.5242  0.6717
  609MOL0     H84032   2.640   2.767   2.731  1.3034 -0.7202  1.2763
  609MOL0     H84033   2.770   2.655   2.736 -2.2676 -2.3872  2.3137
  609MOL0     H84034   2.497   2.620   2.615  1.6919 -0.2099 -0.1821
  609MOL0     H84035   2.626   2.488   2.626 -2.8582 -2.1737  0.2720
  609MOL0     H84036   2.476   2.460   2.805  3.3549 -1.9250 -0.2887
  609MOL0     H84037   2.477   2.633   2.851 -0.3214 -0.5314  1.0993
  609MOL0     H84038   2.817   2.488   3.062  0.5240 -1.3715 -0.2191
  609MOL0     H84039   2.798   2.826   2.297 -1.0315  0.7992 -2.3827
  609MOL0     H84040   2.915   2.896   1.983  1.0467  0.1624  0.9409
  609MOL0     H84041   2.760   2.827   1.961 -0.0503 -1.3189 -0.8109
  609MOL0     H84042   2.789   2.940   2.090  0.2665 -1.1579  1.5680
  610MOL0     O84043   8.202   6.905   8.868  0.1381  0.3342  0.1878
  610MOL0     C84044   8.204   7.021   8.893  0.0337 -0.5172  0.1500
  610MOL0     O84045   8.319   7.088   8.899 -0.7110 -0.5714  0.2658
  610MOL0     C84046   8.443   7.032   8.925  1.1079  0.7495 -0.2835
  610MOL0     C84047   8.551   7.097   8.875 -0.2016  0.4712  0.0905
  610MOL0     C84048   8.680   7.045   8.906 -0.8641  0.5963  0.2788
  610MOL0     C84049   8.694   6.945   9.006 -0.4572 -0.2249  0.1326
  610MOL0     O84050   8.826   6.905   9.034 -0.3392 -0.2323  0.4795
  610MOL0     C84051   8.851   6.829   9.154  0.3512  0.6192  0.0456
  610MOL0     C84052   8.961   6.721   9.130  0.2201  0.4126  0.4480
  610MOL0     C84053   9.042   6.688   9.255 -0.2817  0.9427  0.1846
  610MOL0     C84054   9.120   6.802   9.323 -0.1142  0.6112  0.7762
  610MOL0     C84055   9.272   6.780   9.332  0.7975 -0.0765 -0.6432
  610MOL0     C84056   9.308   6.687   9.447  0.4665 -0.1187 -0.0846
  610MOL0     C84057   9.455   6.667   9.473  0.2668 -0.1714 -0.2463
  610MOL0     C84058   9.527   6.778   9.552  0.6810 -0.2308 -0.1854
  610MOL0     N84059   9.659   6.739   9.610 -0.5606 -0.6804  0.1849
  610MOL0     C84060   9.693   6.650   9.709 -0.1672  0.3999  0.4180
  610MOL0     C84061   9.825   6.670   9.730  0.8007  0.5688 -0.4727
  610MOL0     C84062   9.906   6.582   9.834  0.0755  0.5867  0.2786
  610MOL0     C84063  10.043   6.531   9.777  0.8806 -0.0276 -0.5427
  610MOL0     C84064  10.132   6.437   9.863 -0.1387  0.7670 -1.0066
  610MOL0     C84065  10.237   6.504   9.950 -0.3980  0.7605 -0.5976
  610MOL0     O84066  10.340   6.563   9.860  0.2564  0.8653 -0.8131
  610MOL0     C84067  10.462   6.572   9.914  0.4413 -0.7663 -0.6727
  610MOL0     C84068  10.488   6.604  10.052  0.0303  0.3720 -0.0597
  610MOL0     C84069  10.618   6.587  10.098 -0.3340 -0.3989  0.2853
  610MOL0     C84070  10.651   6.620  10.235  0.6567  0.6713  0.6942
  610MOL0     C84071  10.729   6.553  10.005  1.0000 -0.2192 -0.0637
  610MOL0     C84072  10.871   6.553  10.047 -0.0728 -0.3047 -0.4058
  610MOL0     O84073  10.958   6.610   9.953 -0.1488 -0.0209  0.3703
  610MOL0     C84074  11.082   6.571   9.960 -0.2839  0.3037 -0.4499
  610MOL0     C84075  11.168   6.623  10.052 -1.2648  0.4018 -0.2423
  610MOL0     C84076  11.302   6.577  10.072 -0.1470  0.6107  0.7409
  610MOL0     C84077  11.344   6.463   9.995  1.0895  0.1407  0.6029
  610MOL0     O84078  11.475   6.414  10.012  0.1159  0.5838 -0.1974
  610MOL0     C84079  11.522   6.303   9.934  0.0439 -0.5301 -0.3897
  610MOL0     C84080  11.666   6.239   9.965  0.3444 -0.0637 -0.0426
  610MOL0     C84081  11.677   6.103   9.899 -0.2850  0.2019 -0.5012
  610MOL0     C84082  11.817   6.043   9.928 -0.3386 -0.3676 -0.6088
  610MOL0     C84083  11.820   5.893   9.912 -0.2484 -0.1603  0.1895
  610MOL0     C84084  11.960   5.833   9.902  0.1335 -0.3364  0.4655
  610MOL0     C84085  11.957   5.685   9.861 -0.0139  0.4441  0.2061
  610MOL0     C84086  12.078   5.601   9.910 -0.1150  0.4409  0.2676
  610MOL0    Cl84087  12.237   5.670   9.879 -0.4121  0.2745  0.4337
  610MOL0     C84088  11.247   6.406   9.914  0.7701  0.0258 -0.4932
  610MOL0     C84089  11.118   6.459   9.895 -0.9366  0.3640 -0.5893
  610MOL0     O84090  10.907   6.498  10.154 -0.0695  0.0961 -0.0170
  610MOL0     C84091  10.695   6.536   9.865  0.8469  0.0930 -0.7004
  610MOL0     C84092  10.564   6.550   9.822  0.6553 -0.4144 -0.6091
  610MOL0     N84093   9.870   6.772   9.652  0.1983  0.1293  0.1788
  610MOL0     N84094   9.775   6.809   9.578  0.5616  0.9056 -0.0131
  610MOL0     C84095   8.581   6.877   9.050  0.0759 -0.0936 -0.0239
  610MOL0     C84096   8.452   6.924   9.020  0.1163  0.2942 -0.5196
  610MOL0     C84097   8.082   7.110   8.912 -0.4323  0.2937  0.4156
  610MOL0     C84098   8.110   7.242   8.947  0.4033 -0.0607  0.3360
  610MOL0     C84099   8.000   7.333   8.950  0.8251  0.1310  0.5360
  610MOL0     C84100   7.868   7.287   8.926  0.0875  0.6175  0.1274
  610MOL0     O84101   7.752   7.367   8.940 -0.1089  0.1558 -0.0182
  610MOL0     C84102   7.778   7.504   8.957 -0.3318 -0.0552  0.1802
  610MOL0     C84103   7.644   7.589   8.965 -0.1651 -0.2401  0.4931
  610MOL0     C84104   7.668   7.717   9.042  0.3255  0.0574  0.1853
  610MOL0     C84105   7.542   7.798   9.057  0.7329 -1.6593 -0.5076
  610MOL0     C84106   7.442   7.726   9.136 -0.3349 -0.1152 -0.1684
  610MOL0     C84107   7.374   7.659   9.210 -0.9550  0.3265  0.0612
  610MOL0     C84108   7.839   7.157   8.910 -0.0168 -0.3697 -0.0815
  610MOL0     C84109   7.950   7.068   8.895  0.8323  0.5321  0.6369
  610MOL0     C84110   7.916   6.924   8.860  0.6146 -0.4737  0.8026
  610MOL0     H84111   8.530   7.172   8.799 -1.9720  0.0262  0.0894
  610MOL0     H84112   8.766   7.099   8.867 -0.8545 -0.6675 -1.6126
  610MOL0     H84113   8.766   6.770   9.188 -0.1340  0.1660 -1.8037
  610MOL0     H84114   8.881   6.885   9.243 -0.5364  1.4139 -0.1445
  610MOL0     H84115   8.919   6.629   9.089  0.6631  1.6893 -3.2311
  610MOL0     H84116   9.033   6.748   9.053  1.7901 -1.1282  1.3221
  610MOL0     H84117   8.967   6.645   9.323  2.9237  0.6660  3.9021
  610MOL0     H84118   9.109   6.605   9.232 -2.3465 -0.3356 -1.6855
  610MOL0     H84119   9.104   6.890   9.260 -1.4641 -0.2330 -0.1196
  610MOL0     H84120   9.077   6.830   9.420 -0.1071  0.1624  0.9123
  610MOL0     H84121   9.321   6.877   9.343  1.4944 -0.2202 -2.2015
  610MOL0     H84122   9.305   6.743   9.234  1.2722  1.4634 -1.1018
  610MOL0     H84123   9.257   6.725   9.536 -0.4784  1.3420 -1.2001
  610MOL0     H84124   9.272   6.592   9.407 -2.4863  0.3601  1.2012
  610MOL0     H84125   9.503   6.650   9.376 -1.2365  3.0930 -1.7164
  610MOL0     H84126   9.452   6.577   9.536 -0.4968 -0.5379 -0.7992
  610MOL0     H84127   9.536   6.864   9.485 -1.7881 -0.4188 -0.8189
  610MOL0     H84128   9.467   6.813   9.637  2.7603  2.5927  0.2756
  610MOL0     H84129   9.626   6.577   9.752  1.0026 -2.0288 -1.6197
  610MOL0     H84130   9.852   6.492   9.863 -1.1769  1.4876  0.8423
  610MOL0     H84131   9.915   6.637   9.929 -0.0428  0.1499  0.5474
  610MOL0     H84132  10.017   6.465   9.694 -2.5019 -1.0710  1.1656
  610MOL0     H84133  10.102   6.617   9.744 -1.0164  1.3803 -0.3868
  610MOL0     H84134  10.069   6.368   9.919 -0.2453  0.4128 -1.5519
  610MOL0     H84135  10.189   6.382   9.787 -1.7332  2.2556 -3.4083
  610MOL0     H84136  10.190   6.573  10.021  0.3496  1.2915 -0.6192
  610MOL0     H84137  10.279   6.416  10.001  0.9814  1.0295 -1.2487
  610MOL0     H84138  10.398   6.623  10.110  0.8360 -1.5752  1.9556
  610MOL0     H84139  10.564   6.664  10.284  1.9444  2.0318  1.9208
  610MOL0     H84140  10.746   6.670  10.257  1.5481 -0.7814  0.3021
  610MOL0     H84141  10.670   6.524  10.283  1.4320  0.6910  0.4514
  610MOL0     H84142  11.142   6.702  10.122  0.2731 -2.1718  3.6090
  610MOL0     H84143  11.374   6.619  10.142  0.1961 -0.9933  1.3890
  610MOL0     H84144  11.459   6.217   9.959 -0.4460  0.1694  0.8341
  610MOL0     H84145  11.515   6.334   9.829 -0.7767  4.3639  0.8749
  610MOL0     H84146  11.750   6.303   9.936  0.4492 -0.0624  0.2578
  610MOL0     H84147  11.678   6.223  10.073 -2.1321  1.4685  0.5253
  610MOL0     H84148  11.657   6.104   9.791 -1.3863  0.7131 -0.3042
  610MOL0     H84149  11.600   6.041   9.945 -0.1164  0.9560  0.8502
  610MOL0     H84150  11.847   6.062  10.032  0.4210  1.0208 -1.0524
  610MOL0     H84151  11.903   6.085   9.873  0.7597  0.0295  1.3136
  610MOL0     H84152  11.768   5.847   9.997  0.0801  1.1602  1.1444
  610MOL0     H84153  11.764   5.870   9.821  0.0575  0.5685 -0.1948
  610MOL0     H84154  12.007   5.844  10.000 -0.7218  1.8364  0.6943
  610MOL0     H84155  12.020   5.888   9.829 -2.8322  1.4325 -0.8297
  610MOL0     H84156  11.948   5.680   9.753  1.6551  1.9366 -0.0517
  610MOL0     H84157  11.866   5.639   9.900  1.2422 -1.1978  1.3279
  610MOL0     H84158  12.067   5.523   9.834  0.3891  1.1733 -0.5683
  610MOL0     H84159  12.054   5.553  10.005 -2.6780  0.8526 -0.0938
  610MOL0     H84160  11.279   6.312   9.870  1.8397 -0.1529  0.5984
  610MOL0     H84161  11.057   6.401   9.828 -0.4988 -0.8024 -0.0028
  610MOL0     H84162  10.770   6.512   9.791  0.1121  1.7344 -2.0221
  610MOL0     H84163  10.527   6.536   9.721  0.1410 -1.5669 -0.2814
  610MOL0     H84164   8.580   6.786   9.109 -0.4168 -1.5725 -2.1885
  610MOL0     H84165   8.369   6.882   9.077 -0.5194  1.0557 -0.8740
  610MOL0     H84166   8.210   7.278   8.970  0.0594  1.4020 -0.3874
  610MOL0     H84167   8.012   7.440   8.967 -3.2768  1.2954 -2.2931
  610MOL0     H84168   7.828   7.522   9.053 -0.7581  1.1830  0.1881
  610MOL0     H84169   7.847   7.556   8.890 -0.9627  2.0010  1.0569
  610MOL0     H84170   7.575   7.515   9.006  0.8051 -1.4997 -0.0817
  610MOL0     H84171   7.607   7.610   8.864  0.3837 -0.6103  0.2105
  610MOL0     H84172   7.696   7.694   9.146  0.6183 -1.1014 -0.1307
  610MOL0     H84173   7.750   7.773   8.997 -1.0981 -0.1774 -2.9586
  610MOL0     H84174   7.502   7.836   8.962 -1.7286  1.8750  1.7222
  610MOL0     H84175   7.573   7.885   9.115  0.6661 -2.9655  1.5895
  610MOL0     H84176   7.303   7.606   9.270 -2.4360 -0.1935 -2.0491
  610MOL0     H84177   7.737   7.123   8.898 -0.7168  0.8634  1.8728
  610MOL0     H84178   7.903   6.865   8.951  0.3829  1.2667  1.9429
  610MOL0     H84179   7.827   6.903   8.799  1.7823 -1.2017 -0.7313
  610MOL0     H84180   7.993   6.884   8.793 -1.1378 -0.7822 -1.1372
  611MOL0     O84181   9.223   3.683   1.848  0.3834  0.5609 -0.9652
  611MOL0     C84182   9.193   3.593   1.928  0.6112 -0.1109 -0.1499
  611MOL0     O84183   9.283   3.533   2.008 -0.0431  0.1729  0.3946
  611MOL0     C84184   9.412   3.521   1.977 -0.6021  0.6091 -0.2921
  611MOL0     C84185   9.471   3.517   1.840  0.7653 -0.0718 -0.1247
  611MOL0     C84186   9.605   3.476   1.827 -0.5822 -0.3194 -0.9816
  611MOL0     C84187   9.691   3.461   1.934  0.3326 -0.2118 -0.2552
  611MOL0     O84188   9.823   3.410   1.920 -0.0495  0.2743  0.3525
  611MOL0     C84189   9.827   3.266   1.929  0.2629  0.8099 -0.3425
  611MOL0     C84190   9.971   3.216   1.909 -0.6397  0.3798  1.2666
  611MOL0     C84191  10.021   3.246   1.765 -0.0205 -0.6895  0.3154
  611MOL0     C84192  10.158   3.198   1.729 -0.1232  0.2147  1.3632
  611MOL0     C84193  10.177   3.048   1.747 -0.3699 -1.4796 -0.0542
  611MOL0     C84194  10.309   2.991   1.703 -0.8532  0.2667 -0.2135
  611MOL0     C84195  10.295   2.836   1.695 -0.1130  0.2528  0.8007
  611MOL0     C84196  10.417   2.765   1.622  1.2143  0.1112  0.8717
  611MOL0     N84197  10.552   2.794   1.657 -0.6383  0.3010 -0.7830
  611MOL0     C84198  10.635   2.880   1.592 -0.4081  0.3748  1.1288
  611MOL0     C84199  10.750   2.881   1.668 -0.0316  0.3472  0.1999
  611MOL0     C84200  10.867   2.966   1.654  0.2725  0.3864 -0.4724
  611MOL0     C84201  10.980   2.947   1.758 -0.2249  0.4923 -0.1285
  611MOL0     C84202  11.095   3.053   1.740 -0.0367  0.3206  0.0229
  611MOL0     C84203  11.197   3.040   1.852  0.0716  0.0203 -0.9392
  611MOL0     O84204  11.286   2.926   1.834 -0.3289 -0.4275  0.4770
  611MOL0     C84205  11.423   2.962   1.821  0.0259  0.6993 -0.1050
  611MOL0     C84206  11.473   3.053   1.732 -0.0699  0.3659  0.4045
  611MOL0     C84207  11.614   3.071   1.721  0.0017  0.4219 -0.3677
  611MOL0     C84208  11.665   3.183   1.633 -0.6158 -0.0922 -0.7041
  611MOL0     C84209  11.703   2.999   1.804 -0.5977 -0.0169 -0.8179
  611MOL0     C84210  11.855   3.019   1.812  0.6421 -0.2551 -0.3410
  611MOL0     O84211  11.920   2.972   1.925 -0.3446 -0.3463  0.0929
  611MOL0     C84212  12.044   3.006   1.969  0.2433 -0.3188 -0.7602
  611MOL0     C84213  12.087   2.953   2.096 -0.8000  0.5449  0.4309
  611MOL0     C84214  12.221   2.972   2.139 -0.1932 -0.2361  0.0121
  611MOL0     C84215  12.310   3.053   2.063  0.0707  0.2594  0.0196
  611MOL0     O84216  12.428   3.092   2.122 -0.9654  0.4008 -0.1547
  611MOL0     C84217  12.541   3.025   2.063  0.0725 -0.2600  0.1036
  611MOL0     C84218  12.571   2.895   2.150 -0.5066  0.3384 -0.1328
  611MOL0     C84219  12.711   2.831   2.116 -0.2785  0.2203  0.4545
  611MOL0     C84220  12.816   2.855   2.219  0.0133 -0.2225  0.4724
  611MOL0     C84221  12.934   2.777   2.167  0.0283 -0.2064 -0.6622
  611MOL0     C84222  13.049   2.767   2.269 -1.1910  0.4737  0.4537
  611MOL0     C84223  13.173   2.705   2.199 -0.0443  0.3847 -0.0215
  611MOL0     C84224  13.247   2.795   2.101 -1.0877 -0.2510  0.3430
  611MOL0    Cl84225  13.355   2.701   2.003  0.3524 -0.2755 -0.1649
  611MOL0     C84226  12.268   3.097   1.938 -0.2400  0.5085 -0.5863
  611MOL0     C84227  12.135   3.082   1.901 -1.1263 -0.4292  0.0029
  611MOL0     O84228  11.908   3.067   1.714 -0.0958  0.2714 -0.5518
  611MOL0     C84229  11.653   2.900   1.891 -0.1884 -0.4453  0.0956
  611MOL0     C84230  11.513   2.885   1.896  0.3675 -0.8096 -0.5601
  611MOL0     N84231  10.734   2.789   1.768 -0.6888 -0.3303  0.2347
  611MOL0     N84232  10.614   2.741   1.767 -0.3956 -0.0781  0.5013
  611MOL0     C84233   9.632   3.462   2.062  0.2548 -0.6789 -0.8517
  611MOL0     C84234   9.502   3.496   2.088 -0.2437  0.4519 -0.0301
  611MOL0     C84235   9.056   3.571   1.979 -0.4630  0.9305  0.0053
  611MOL0     C84236   9.034   3.459   2.060  0.0081  0.3639  0.1969
  611MOL0     C84237   8.913   3.423   2.108  0.5541  0.3826  0.4954
  611MOL0     C84238   8.797   3.492   2.065 -0.6173  0.2558  0.0053
  611MOL0     O84239   8.671   3.448   2.102  0.4630  0.2361 -0.2570
  611MOL0     C84240   8.551   3.515   2.060  0.5252  0.0977 -0.6813
  611MOL0     C84241   8.520   3.651   2.136 -0.5710 -0.7236  0.6458
  611MOL0     C84242   8.384   3.717   2.103 -0.2251  0.8599  0.1095
  611MOL0     C84243   8.358   3.736   1.949 -0.8148  0.3194 -0.1688
  611MOL0     C84244   8.223   3.781   1.932 -0.1153 -0.0284 -0.0466
  611MOL0     C84245   8.108   3.821   1.923  0.0886  0.2686 -0.7698
  611MOL0     C84246   8.822   3.601   1.984  0.2244 -0.8551 -0.1081
  611MOL0     C84247   8.948   3.652   1.941  0.7065  0.3706 -0.0491
  611MOL0     C84248   8.961   3.769   1.853 -0.3500 -0.2559 -0.3188
  611MOL0     H84249   9.405   3.539   1.757  0.6999 -2.6146 -0.8295
  611MOL0     H84250   9.654   3.441   1.736 -0.1018 -0.2766 -0.7409
  611MOL0     H84251   9.769   3.215   1.852  0.6562 -0.1011 -0.0487
  611MOL0     H84252   9.791   3.230   2.026  3.3535 -0.4730  0.4447
  611MOL0     H84253  10.049   3.258   1.973  0.4823  0.7020 -0.2532
  611MOL0     H84254   9.966   3.109   1.929  0.1271 -0.1641 -1.1211
  611MOL0     H84255   9.947   3.213   1.691 -0.0129  0.8692 -0.4259
  611MOL0     H84256  10.031   3.355   1.761  1.9743 -0.8623 -2.7061
  611MOL0     H84257  10.187   3.225   1.627 -1.2061  3.1876  1.7389
  611MOL0     H84258  10.220   3.241   1.808  0.4458  1.5329  0.2343
  611MOL0     H84259  10.098   2.993   1.693 -1.1374 -0.3993 -0.0592
  611MOL0     H84260  10.161   3.014   1.850 -2.1115 -0.7070 -0.0250
  611MOL0     H84261  10.356   3.031   1.612  0.5577  0.9332  0.7619
  611MOL0     H84262  10.380   3.018   1.782  0.3921 -0.6338 -0.9890
  611MOL0     H84263  10.210   2.811   1.631 -0.4271  3.9217 -0.5002
  611MOL0     H84264  10.271   2.796   1.794 -0.8090  1.4575  1.1524
  611MOL0     H84265  10.403   2.657   1.633 -0.4002  0.2866  0.7256
  611MOL0     H84266  10.403   2.788   1.516  3.4508 -3.6492 -0.4508
  611MOL0     H84267  10.621   2.938   1.501  1.6936 -0.9360 -0.1281
  611MOL0     H84268  10.839   3.072   1.644  0.4847  0.6891  1.5905
  611MOL0     H84269  10.901   2.924   1.559 -0.3936 -3.0560  0.6793
  611MOL0     H84270  10.939   2.965   1.858 -1.1993 -0.3660 -0.3621
  611MOL0     H84271  11.010   2.843   1.750  0.3656  0.7004 -0.7134
  611MOL0     H84272  11.144   3.047   1.642 -0.3990 -3.1035 -0.0493
  611MOL0     H84273  11.058   3.156   1.747  2.8090  1.5960 -1.6342
  611MOL0     H84274  11.250   3.134   1.861 -0.4784  0.3301 -0.8570
  611MOL0     H84275  11.144   3.026   1.947  1.5996  0.5766  0.0330
  611MOL0     H84276  11.410   3.108   1.664 -0.4065 -0.4299  0.0666
  611MOL0     H84277  11.586   3.254   1.605  0.3923  1.0687 -0.6610
  611MOL0     H84278  11.712   3.147   1.541  1.1408 -0.5030  0.3201
  611MOL0     H84279  11.742   3.249   1.674  1.8223 -0.4546 -4.2300
  611MOL0     H84280  12.018   2.892   2.153 -2.1777  2.5117  0.9616
  611MOL0     H84281  12.266   2.919   2.223  3.3011 -0.5114 -1.8688
  611MOL0     H84282  12.523   3.003   1.958  1.0511 -1.8896  0.2554
  611MOL0     H84283  12.628   3.091   2.070 -0.1641  0.1237 -0.4984
  611MOL0     H84284  12.579   2.927   2.254 -1.2294  0.7506 -0.1968
  611MOL0     H84285  12.495   2.817   2.140 -1.2820  1.0070  0.4191
  611MOL0     H84286  12.742   2.876   2.022 -0.6905 -3.5131 -1.6373
  611MOL0     H84287  12.696   2.726   2.089  1.7920  0.2957 -1.2036
  611MOL0     H84288  12.780   2.813   2.314 -2.9994  0.1556 -0.3789
  611MOL0     H84289  12.838   2.962   2.223 -1.7971  0.2203 -0.2568
  611MOL0     H84290  12.899   2.674   2.156 -0.2542 -0.3230  1.0983
  611MOL0     H84291  12.952   2.831   2.073 -3.8544  2.1831 -0.2838
  611MOL0     H84292  13.022   2.703   2.353 -3.4015 -1.2530 -1.4472
  611MOL0     H84293  13.086   2.862   2.310  3.0663  0.0012 -1.7816
  611MOL0     H84294  13.136   2.618   2.145  0.2670  0.2987 -0.0966
  611MOL0     H84295  13.246   2.672   2.273  0.9022  0.8910 -0.7144
  611MOL0     H84296  13.301   2.878   2.147 -4.4018  2.5954 -0.4750
  611MOL0     H84297  13.176   2.846   2.035  0.3289  1.5193  0.1115
  611MOL0     H84298  12.340   3.157   1.884 -0.4973 -0.7177 -2.3853
  611MOL0     H84299  12.111   3.133   1.808  1.3692  3.5558  1.2976
  611MOL0     H84300  11.722   2.837   1.946 -2.8323 -4.2048 -0.4925
  611MOL0     H84301  11.465   2.816   1.965 -1.0264  0.3101 -0.3612
  611MOL0     H84302   9.699   3.438   2.144 -1.8812 -1.4738  0.7853
  611MOL0     H84303   9.471   3.498   2.192  0.4258  0.2143  0.1755
  611MOL0     H84304   9.118   3.400   2.096  0.3048 -0.2170 -1.3475
  611MOL0     H84305   8.902   3.331   2.166  1.2578 -0.5335 -0.7684
  611MOL0     H84306   8.541   3.519   1.951  0.1668 -2.9422 -0.8566
  611MOL0     H84307   8.468   3.448   2.084 -0.9899  1.1613 -2.6621
  611MOL0     H84308   8.604   3.718   2.117 -0.4073 -1.4571 -1.4632
  611MOL0     H84309   8.513   3.621   2.241  2.6892  0.1972  1.2379
  611MOL0     H84310   8.303   3.660   2.150  1.3442 -0.4209  1.3742
  611MOL0     H84311   8.381   3.821   2.137  2.4303  1.5639 -1.5029
  611MOL0     H84312   8.360   3.638   1.903  1.3411  0.0946  0.3096
  611MOL0     H84313   8.432   3.802   1.903  0.0749  0.5002  1.4179
  611MOL0     H84314   8.005   3.849   1.911 -0.0686 -0.0414 -0.1534
  611MOL0     H84315   8.732   3.650   1.949  1.4458 -0.6441 -3.3036
  611MOL0     H84316   8.866   3.823   1.846 -0.4678 -0.3630  0.4120
  611MOL0     H84317   9.028   3.849   1.888  0.2701 -0.3854 -1.1590
  611MOL0     H84318   8.996   3.735   1.755  0.0899 -0.3420 -0.1354
  612MOL0     O84319   0.537   4.243   6.180 -0.6814  0.3172 -0.2429
  612MOL0     C84320   0.480   4.140   6.150  0.0914 -0.3575 -0.3928
  612MOL0     O84321   0.519   4.073   6.038  0.0423  0.8251 -0.7598
  612MOL0     C84322   0.605   4.134   5.954 -0.0795  0.5976  0.6495
  612MOL0     C84323   0.559   4.248   5.887  0.4937  0.5053 -0.0417
  612MOL0     C84324   0.626   4.322   5.794 -0.7999  0.4286  0.1380
  612MOL0     C84325   0.757   4.283   5.769  0.5373 -0.3292  0.1654
  612MOL0     O84326   0.822   4.356   5.677  0.1142  0.9859  0.8061
  612MOL0     C84327   0.965   4.366   5.675 -0.2433  0.0795 -0.3434
  612MOL0     C84328   0.994   4.471   5.572 -0.5307 -0.2958 -0.0082
  612MOL0     C84329   1.142   4.466   5.536  0.6233 -0.3878  0.3024
  612MOL0     C84330   1.189   4.331   5.476  0.0098  0.2661  0.1864
  612MOL0     C84331   1.316   4.346   5.404  0.0544 -0.5039  0.6923
  612MOL0     C84332   1.352   4.207   5.348  0.0496 -0.2606  0.5138
  612MOL0     C84333   1.484   4.220   5.265 -0.4851 -0.4505  0.7797
  612MOL0     C84334   1.505   4.350   5.179 -0.7524  0.0328 -0.5008
  612MOL0     N84335   1.612   4.328   5.086  0.0613  0.4481  0.0839
  612MOL0     C84336   1.597   4.269   4.964  0.3709  0.2935  0.1727
  612MOL0     C84337   1.724   4.256   4.918  0.5792 -0.2025 -0.1768
  612MOL0     C84338   1.781   4.195   4.799  0.2787  0.8196  0.2720
  612MOL0     C84339   1.819   4.051   4.830 -0.2933  0.0950  0.2853
  612MOL0     C84340   1.877   3.981   4.713  0.1427  0.3783 -1.1488
  612MOL0     C84341   1.930   3.843   4.748  0.5157  0.2401 -0.1885
  612MOL0     O84342   1.985   3.775   4.634 -0.6992  0.0844 -0.0164
  612MOL0     C84343   2.117   3.792   4.599  0.2666  0.1509  0.1263
  612MOL0     C84344   2.184   3.703   4.508  0.5329  0.2876 -0.1132
  612MOL0     C84345   2.319   3.715   4.482  0.3351  0.0390  0.0344
  612MOL0     C84346   2.376   3.619   4.376  0.3004  0.4586  0.2335
  612MOL0     C84347   2.400   3.825   4.533 -0.0372  0.6755 -0.4208
  612MOL0     C84348   2.545   3.854   4.507  0.1075  0.2220 -0.3416
  612MOL0     O84349   2.595   3.950   4.585  0.0400 -0.8431  0.0810
  612MOL0     C84350   2.722   3.924   4.638 -0.3919 -0.8840 -0.4309
  612MOL0     C84351   2.784   3.799   4.661 -0.3309  0.1637 -0.5771
  612MOL0     C84352   2.916   3.793   4.712  0.4175  0.1567  1.3086
  612MOL0     C84353   2.984   3.917   4.742 -0.2653  0.7085 -0.0425
  612MOL0     O84354   3.119   3.928   4.779  0.6056  0.3598 -0.9196
  612MOL0     C84355   3.213   3.973   4.687  0.3154  0.1998 -0.4405
  612MOL0     C84356   3.324   3.886   4.685  0.2901 -0.5848  0.0168
  612MOL0     C84357   3.444   3.938   4.609 -0.5669 -0.1021  0.3857
  612MOL0     C84358   3.554   3.830   4.606  0.0494 -0.3718  0.4504
  612MOL0     C84359   3.685   3.892   4.568 -0.1893  0.4395 -0.2281
  612MOL0     C84360   3.794   3.785   4.554  1.0690  0.1811  0.7345
  612MOL0     C84361   3.928   3.832   4.607 -0.7561  0.2046 -0.2773
  612MOL0     C84362   4.030   3.721   4.622  0.7030  0.1433  0.7487
  612MOL0    Cl84363   4.097   3.680   4.464 -0.0649 -0.3033  0.3177
  612MOL0     C84364   2.913   4.041   4.719 -0.0566 -0.5422 -0.8334
  612MOL0     C84365   2.786   4.046   4.662  0.2928 -0.4444  0.2655
  612MOL0     O84366   2.607   3.795   4.424 -0.5201 -0.2053 -0.0196
  612MOL0     C84367   2.333   3.907   4.633 -0.7596  0.8696 -0.3958
  612MOL0     C84368   2.197   3.879   4.666 -0.2893 -1.0082  0.0580
  612MOL0     N84369   1.805   4.306   5.015  0.1742  0.2231 -0.7631
  612MOL0     N84370   1.743   4.355   5.122  0.5630  0.0708  0.7895
  612MOL0     C84371   0.811   4.172   5.836 -0.4152  0.4629 -0.1383
  612MOL0     C84372   0.733   4.093   5.929 -0.4895 -0.2733  0.2621
  612MOL0     C84373   0.377   4.079   6.242  0.3461 -0.4662 -0.0183
  612MOL0     C84374   0.307   3.975   6.179 -0.2102  0.2999  0.1718
  612MOL0     C84375   0.183   3.928   6.232 -0.0050  0.9119  0.3572
  612MOL0     C84376   0.158   3.959   6.367  0.0949 -0.0789  0.0631
  612MOL0     O84377   0.048   3.915   6.437 -0.0958  0.2147  0.2575
  612MOL0     C84378  -0.059   3.870   6.351  0.4564 -0.1214 -0.5602
  612MOL0     C84379  -0.162   3.831   6.455 -0.2709 -0.0646 -0.5569
  612MOL0     C84380  -0.291   3.806   6.380 -0.1745  0.3191  0.5115
  612MOL0     C84381  -0.409   3.803   6.476 -0.0459 -0.6698  0.5007
  612MOL0     C84382  -0.409   3.690   6.573 -0.0691  0.4689  0.5883
  612MOL0     C84383  -0.421   3.598   6.651 -0.6912 -0.1045  0.8917
  612MOL0     C84384   0.243   4.040   6.441  0.0136  0.5656 -0.0754
  612MOL0     C84385   0.351   4.119   6.382  0.0294  0.9817 -0.2306
  612MOL0     C84386   0.436   4.207   6.465 -0.2375  0.5012 -0.6185
  612MOL0     H84387   0.455   4.281   5.890 -0.1381 -1.3593 -0.3748
  612MOL0     H84388   0.581   4.411   5.752 -1.7934 -0.3477 -0.4844
  612MOL0     H84389   1.002   4.264   5.656 -0.8162 -0.0206 -0.9527
  612MOL0     H84390   1.008   4.392   5.773 -1.1756  0.2870  0.0152
  612MOL0     H84391   0.933   4.447   5.485  2.1764 -0.2967 -2.0238
  612MOL0     H84392   0.974   4.573   5.606  0.2862 -0.0964 -0.0956
  612MOL0     H84393   1.158   4.541   5.458  2.2787  0.9334  1.8417
  612MOL0     H84394   1.205   4.488   5.623  0.6863 -2.2557  0.7734
  612MOL0     H84395   1.200   4.250   5.549 -1.4395 -0.4983 -0.4050
  612MOL0     H84396   1.115   4.290   5.406  0.9268  2.3013 -2.1036
  612MOL0     H84397   1.379   4.397   5.476 -0.0019  0.0596  0.3436
  612MOL0     H84398   1.313   4.421   5.325 -2.7695 -2.2618 -1.0854
  612MOL0     H84399   1.359   4.131   5.426  0.5292  0.5714  1.3032
  612MOL0     H84400   1.273   4.171   5.282  0.5718  0.3087 -0.4482
  612MOL0     H84401   1.496   4.135   5.197  1.1195  0.1300  0.2924
  612MOL0     H84402   1.572   4.214   5.330  3.1108  0.2388 -3.5482
  612MOL0     H84403   1.420   4.379   5.116 -1.2151  0.6839  0.4059
  612MOL0     H84404   1.538   4.431   5.244 -0.0416 -0.7761  0.1790
  612MOL0     H84405   1.513   4.237   4.902  0.3408 -0.4723  0.6033
  612MOL0     H84406   1.875   4.244   4.771  0.4962  0.3099  0.1163
  612MOL0     H84407   1.701   4.179   4.726  2.7861 -1.8243 -2.1570
  612MOL0     H84408   1.888   4.050   4.914 -1.4547  3.9844  1.5135
  612MOL0     H84409   1.728   3.998   4.861 -0.6367  0.7309  0.3877
  612MOL0     H84410   1.800   3.964   4.637 -1.1554  1.2399 -0.0660
  612MOL0     H84411   1.953   4.047   4.669  0.7568  0.1012 -0.5357
  612MOL0     H84412   1.994   3.852   4.836  0.5141  0.2138 -0.1850
  612MOL0     H84413   1.847   3.783   4.787 -1.0460  2.2722 -0.2163
  612MOL0     H84414   2.120   3.631   4.457  1.4093 -1.3209  0.9845
  612MOL0     H84415   2.445   3.669   4.309 -1.0657  0.2307 -1.4258
  612MOL0     H84416   2.291   3.588   4.314 -1.6696  1.0318  2.4850
  612MOL0     H84417   2.428   3.534   4.421  1.0661  0.6348 -0.3037
  612MOL0     H84418   2.729   3.707   4.649  0.3625 -0.0768 -2.1943
  612MOL0     H84419   2.972   3.703   4.735  0.1983 -0.3766 -0.1807
  612MOL0     H84420   3.176   3.996   4.587  2.0575  0.2103 -1.0984
  612MOL0     H84421   3.240   4.068   4.734  0.3397  0.9381 -1.9090
  612MOL0     H84422   3.355   3.878   4.790 -1.1714  1.5985  0.6985
  612MOL0     H84423   3.296   3.784   4.657  1.5993 -1.6342  2.2307
  612MOL0     H84424   3.485   4.025   4.661  0.1002 -1.7676  2.7972
  612MOL0     H84425   3.425   3.973   4.507  4.0468  0.3452 -0.5352
  612MOL0     H84426   3.536   3.748   4.535  0.6788  2.1995 -2.9276
  612MOL0     H84427   3.572   3.790   4.706  2.2257 -0.1819  0.1770
  612MOL0     H84428   3.673   3.923   4.464 -0.5765  1.0396 -0.0104
  612MOL0     H84429   3.716   3.976   4.631  0.3360  0.7083 -0.8341
  612MOL0     H84430   3.811   3.763   4.448 -2.2864 -0.0649  0.1214
  612MOL0     H84431   3.764   3.695   4.608  0.5053 -0.2531 -0.2787
  612MOL0     H84432   3.908   3.869   4.708 -1.6597  1.9360 -1.0522
  612MOL0     H84433   3.970   3.915   4.551 -0.7598  1.5805  1.6713
  612MOL0     H84434   3.983   3.635   4.671 -0.8371  0.5536  0.0422
  612MOL0     H84435   4.110   3.757   4.686  1.7447  0.2595 -0.5854
  612MOL0     H84436   2.966   4.134   4.739 -0.2310 -0.1594 -2.0537
  612MOL0     H84437   2.734   4.135   4.627  2.9510  0.8204 -0.6961
  612MOL0     H84438   2.386   3.990   4.678  2.4449 -0.9699 -0.4511
  612MOL0     H84439   2.166   3.941   4.749 -0.4677  0.5328 -1.1201
  612MOL0     H84440   0.912   4.133   5.826 -0.8526 -0.8623  0.3787
  612MOL0     H84441   0.753   4.007   5.992  0.4462 -1.3354 -1.4196
  612MOL0     H84442   0.336   3.926   6.087 -0.2884 -0.9953  0.8085
  612MOL0     H84443   0.130   3.849   6.181 -0.8971  0.3577  2.0470
  612MOL0     H84444  -0.108   3.947   6.291  0.4795  1.8441  1.8048
  612MOL0     H84445  -0.034   3.783   6.289 -0.6144 -0.4630 -0.5296
  612MOL0     H84446  -0.173   3.913   6.527 -0.0109 -0.3853 -0.1441
  612MOL0     H84447  -0.128   3.743   6.511 -0.6383  1.9730  3.2322
  612MOL0     H84448  -0.311   3.872   6.295 -2.3550 -1.7603 -0.6973
  612MOL0     H84449  -0.282   3.711   6.328  0.5552  0.7695 -0.2008
  612MOL0     H84450  -0.506   3.794   6.427 -1.1102 -2.0339  2.7114
  612MOL0     H84451  -0.424   3.892   6.538 -2.3915 -1.3849  1.0540
  612MOL0     H84452  -0.446   3.516   6.715  1.0678 -4.0896 -2.9531
  612MOL0     H84453   0.211   4.070   6.541  1.9972  2.2418  0.1225
  612MOL0     H84454   0.541   4.203   6.433 -0.3188  1.1788 -0.9754
  612MOL0     H84455   0.389   4.304   6.450 -4.0710 -1.4142 -2.2182
  612MOL0     H84456   0.441   4.165   6.566 -2.2550  0.5695 -0.4686
  613MOL0     O84457   3.170   9.738   6.510 -0.3704 -0.2369  0.1217
  613MOL0     C84458   3.080   9.660   6.534  0.3637 -0.1195  0.8584
  613MOL0     O84459   3.006   9.591   6.447  0.3164  0.4692 -0.1050
  613MOL0     C84460   3.026   9.619   6.315  0.7545 -0.4287  0.6813
  613MOL0     C84461   3.140   9.571   6.244 -0.4860 -0.3055  0.4888
  613MOL0     C84462   3.156   9.598   6.104 -0.0540 -0.1945 -0.6270
  613MOL0     C84463   3.072   9.688   6.043  0.5863  0.2664  0.0701
  613MOL0     O84464   3.081   9.721   5.911 -0.2894 -0.5942 -0.4492
  613MOL0     C84465   3.215   9.709   5.842  0.5176 -0.2805  0.1071
  613MOL0     C84466   3.198   9.728   5.693 -0.1375  0.5095  0.5531
  613MOL0     C84467   3.156   9.863   5.642 -0.4293  0.2451 -0.0616
  613MOL0     C84468   3.267   9.979   5.656 -0.3523 -0.2963 -0.2468
  613MOL0     C84469   3.376   9.974   5.550 -0.6438 -0.3560  0.4068
  613MOL0     C84470   3.465  10.090   5.559 -0.1502  0.2534 -0.2159
  613MOL0     C84471   3.600  10.057   5.492 -0.1463  0.1595 -0.1549
  613MOL0     C84472   3.688  10.178   5.494  0.1325 -0.6480  0.5460
  613MOL0     N84473   3.829  10.152   5.465  0.5770  0.1517  0.1165
  613MOL0     C84474   3.901  10.189   5.352 -0.1518  0.6688 -0.2833
  613MOL0     C84475   4.026  10.142   5.374  0.8574 -0.2809  1.2867
  613MOL0     C84476   4.156  10.182   5.309  0.3923  0.8342  0.2634
  613MOL0     C84477   4.175  10.334   5.308  0.1258 -0.0655  0.0811
  613MOL0     C84478   4.173  10.382   5.453 -0.7251  0.5190  0.3967
  613MOL0     C84479   4.268  10.504   5.472 -0.8779 -0.1816  0.2625
  613MOL0     O84480   4.223  10.625   5.412  0.6263  0.8492  1.1449
  613MOL0     C84481   4.284  10.749   5.407 -0.0395  0.1304  0.6304
  613MOL0     C84482   4.200  10.856   5.373  0.4364  0.6874 -0.5560
  613MOL0     C84483   4.251  10.982   5.376 -0.5350  0.2872  0.9506
  613MOL0     C84484   4.159  11.095   5.327  0.7534 -0.4301 -0.1553
  613MOL0     C84485   4.384  11.009   5.410  0.3596  0.8471  0.1847
  613MOL0     C84486   4.436  11.147   5.440  0.2046  0.3978  0.7595
  613MOL0     O84487   4.349  11.238   5.468 -0.3277 -0.8563  0.1198
  613MOL0     C84488   4.402  11.354   5.516 -0.9128  0.6489 -0.9041
  613MOL0     C84489   4.446  11.456   5.426 -0.1600  0.1563 -0.4794
  613MOL0     C84490   4.514  11.573   5.484 -0.0390  0.5928  0.2304
  613MOL0     C84491   4.527  11.584   5.621  0.6565  0.3001 -0.5609
  613MOL0     O84492   4.606  11.690   5.658  0.8310 -0.1657  0.1411
  613MOL0     C84493   4.598  11.758   5.778 -0.5753 -0.3904 -0.0682
  613MOL0     C84494   4.734  11.818   5.818 -0.8433  0.1456  0.5757
  613MOL0     C84495   4.780  11.903   5.693 -0.3815 -0.3840 -0.2496
  613MOL0     C84496   4.919  11.961   5.735  0.8872  0.6756 -0.6228
  613MOL0     C84497   4.895  12.068   5.842 -0.4087  0.8459  0.3244
  613MOL0     C84498   5.014  12.157   5.864 -0.3000 -0.0771  0.0535
  613MOL0     C84499   4.971  12.277   5.940  0.3070  0.1691  0.7718
  613MOL0     C84500   5.091  12.369   5.965 -0.2999  0.9506 -0.2736
  613MOL0    Cl84501   5.224  12.304   6.076 -0.1081  0.0356  0.5984
  613MOL0     C84502   4.472  11.490   5.706  0.5577  0.0590  0.2489
  613MOL0     C84503   4.409  11.369   5.657  0.1670 -0.9606  0.3605
  613MOL0     O84504   4.557  11.153   5.429  0.1304 -0.2325 -0.1456
  613MOL0     C84505   4.467  10.896   5.430 -0.7270  0.2322 -0.5222
  613MOL0     C84506   4.416  10.767   5.433 -0.3790  0.2614 -0.3163
  613MOL0     N84507   4.030  10.091   5.500  0.5361  0.5874 -0.0962
  613MOL0     N84508   3.913  10.102   5.560 -0.1279 -0.2854  0.5260
  613MOL0     C84509   2.961   9.747   6.115  1.0370 -0.2902 -0.2534
  613MOL0     C84510   2.935   9.710   6.252  0.6285  0.0052  0.5972
  613MOL0     C84511   3.052   9.623   6.673 -0.4269 -0.4426 -1.0472
  613MOL0     C84512   3.018   9.714   6.769 -0.6096  0.3876 -0.2625
  613MOL0     C84513   2.974   9.682   6.900 -0.3827  0.5511 -0.7406
  613MOL0     C84514   2.977   9.548   6.943  0.5229  0.1595 -0.2311
  613MOL0     O84515   2.941   9.519   7.073 -0.3158  0.3791  0.4910
  613MOL0     C84516   3.011   9.415   7.137 -0.1032  0.3752 -0.3818
  613MOL0     C84517   3.168   9.425   7.149 -0.0526 -0.9824 -0.1764
  613MOL0     C84518   3.215   9.537   7.244  0.9723 -0.4170 -0.0202
  613MOL0     C84519   3.366   9.575   7.240 -0.6938  0.3882  0.6649
  613MOL0     C84520   3.461   9.459   7.224  0.6885 -0.1977  0.1193
  613MOL0     C84521   3.515   9.357   7.200 -0.2125 -0.2291  0.7667
  613MOL0     C84522   3.007   9.453   6.846 -0.7921  0.6290  0.1676
  613MOL0     C84523   3.043   9.486   6.716  0.4021 -0.0651 -0.7039
  613MOL0     C84524   3.072   9.379   6.625 -0.7322  0.3397 -0.0952
  613MOL0     H84525   3.214   9.512   6.298  0.1690  0.9425  0.9922
  613MOL0     H84526   3.234   9.548   6.047  0.4173  1.7901 -1.7966
  613MOL0     H84527   3.257   9.609   5.846 -2.7182 -1.7377  0.7428
  613MOL0     H84528   3.281   9.786   5.883 -0.8963  2.1550 -1.8840
  613MOL0     H84529   3.290   9.696   5.644  0.1603  1.4239  0.4850
  613MOL0     H84530   3.128   9.648   5.666 -0.5898  1.3092 -0.7298
  613MOL0     H84531   3.124   9.851   5.538  0.2683 -0.3024 -0.2230
  613MOL0     H84532   3.064   9.885   5.698 -0.0548  2.0091 -0.0911
  613MOL0     H84533   3.219  10.076   5.641  0.7833  0.0302 -2.0885
  613MOL0     H84534   3.316   9.984   5.753  0.7192  0.3089 -0.8086
  613MOL0     H84535   3.337   9.971   5.448 -0.2915 -0.9651  0.2799
  613MOL0     H84536   3.432   9.881   5.566 -0.5787 -0.4440 -0.3229
  613MOL0     H84537   3.417  10.175   5.510 -2.4608 -0.7349  0.2181
  613MOL0     H84538   3.480  10.112   5.665  0.5234 -1.3587  0.0613
  613MOL0     H84539   3.581  10.003   5.399  0.3470 -0.9931  0.4003
  613MOL0     H84540   3.655   9.986   5.554 -0.8486 -0.2801 -0.0211
  613MOL0     H84541   3.646  10.243   5.417 -3.2258 -1.4150  1.5453
  613MOL0     H84542   3.666  10.234   5.585  0.0447 -0.9160  0.6914
  613MOL0     H84543   3.886  10.242   5.259  2.4959  1.7605 -0.1729
  613MOL0     H84544   4.140  10.142   5.208  2.9558  1.0818 -0.3040
  613MOL0     H84545   4.236  10.129   5.362 -1.2947 -1.0533  1.0817
  613MOL0     H84546   4.272  10.361   5.266  0.1747  0.4264  0.5098
  613MOL0     H84547   4.104  10.385   5.242  0.1501 -0.7551 -0.4908
  613MOL0     H84548   4.075  10.413   5.491 -1.5823 -0.6315 -0.7763
  613MOL0     H84549   4.205  10.303   5.522 -1.4560  0.2335  0.4240
  613MOL0     H84550   4.262  10.527   5.579 -2.1662  1.2171 -0.0694
  613MOL0     H84551   4.365  10.476   5.429 -1.2791  1.6324 -2.0938
  613MOL0     H84552   4.097  10.836   5.343  0.9359 -1.9729 -0.7521
  613MOL0     H84553   4.208  11.151   5.246  1.8158  2.2426  2.1695
  613MOL0     H84554   4.137  11.165   5.408 -2.2962 -0.8197 -0.5267
  613MOL0     H84555   4.065  11.056   5.286  2.1802 -4.6788  0.1057
  613MOL0     H84556   4.440  11.455   5.318  1.4537 -2.4791 -0.6452
  613MOL0     H84557   4.562  11.643   5.417 -0.6594 -0.4090 -1.3312
  613MOL0     H84558   4.531  11.844   5.778 -0.1793 -0.0738 -1.0304
  613MOL0     H84559   4.569  11.686   5.856 -0.9950 -1.5900 -1.2741
  613MOL0     H84560   4.721  11.871   5.912  2.0482  1.1248  0.5269
  613MOL0     H84561   4.813  11.742   5.828  1.3364  1.7164 -2.6499
  613MOL0     H84562   4.705  11.976   5.662 -0.4273 -0.7175 -0.9327
  613MOL0     H84563   4.802  11.843   5.605  0.4963  1.0385 -1.0370
  613MOL0     H84564   4.971  12.003   5.648  0.3360 -1.7963 -2.2600
  613MOL0     H84565   4.976  11.876   5.772 -0.3611 -0.2875 -0.8409
  613MOL0     H84566   4.803  12.120   5.813 -0.5848 -0.5690 -1.8418
  613MOL0     H84567   4.872  12.013   5.934 -0.6833 -1.1617 -0.9012
  613MOL0     H84568   5.052  12.191   5.768 -0.0116  1.3267  0.6501
  613MOL0     H84569   5.096  12.100   5.909  0.1509 -0.5368 -1.2963
  613MOL0     H84570   4.932  12.248   6.039  1.9883  1.3000  1.8256
  613MOL0     H84571   4.891  12.332   5.890 -1.6858 -1.9845  1.4070
  613MOL0     H84572   5.061  12.462   6.013 -0.1162 -0.2701  2.3573
  613MOL0     H84573   5.125  12.396   5.864 -1.3746  3.3285 -0.0577
  613MOL0     H84574   4.494  11.495   5.812 -1.2652  3.5499  0.6183
  613MOL0     H84575   4.370  11.293   5.723  0.2823 -1.3218  0.0153
  613MOL0     H84576   4.572  10.914   5.447 -0.5587 -0.4042 -0.8448
  613MOL0     H84577   4.486  10.684   5.430  0.7895  1.2397 -1.3591
  613MOL0     H84578   2.900   9.817   6.060  2.9920  0.7318 -1.2015
  613MOL0     H84579   2.853   9.753   6.308 -2.0784 -1.4553 -1.9628
  613MOL0     H84580   3.005   9.821   6.750 -4.7160 -0.3788 -3.0493
  613MOL0     H84581   2.917   9.750   6.963  0.1120  0.5959 -0.3391
  613MOL0     H84582   2.968   9.383   7.233  0.5443 -6.0902 -1.8078
  613MOL0     H84583   2.996   9.318   7.090 -2.9936  0.2419  0.6144
  613MOL0     H84584   3.210   9.435   7.049 -0.8841 -2.3755 -0.7042
  613MOL0     H84585   3.211   9.339   7.202  0.7285 -1.0719 -0.9402
  613MOL0     H84586   3.163   9.630   7.222  0.7150 -0.9193 -1.7436
  613MOL0     H84587   3.192   9.498   7.343  1.2309 -0.3130  0.0813
  613MOL0     H84588   3.396   9.628   7.331  1.1155  3.0964 -1.3542
  613MOL0     H84589   3.386   9.653   7.166  1.1289 -0.9157 -0.2871
  613MOL0     H84590   3.542   9.255   7.182 -1.3856 -0.2194 -1.3120
  613MOL0     H84591   3.002   9.348   6.873 -3.3490 -0.0279 -2.4441
  613MOL0     H84592   2.998   9.372   6.546  0.6879 -0.9467 -1.3948
  613MOL0     H84593   3.168   9.396   6.576 -1.1658 -0.2192 -1.1620
  613MOL0     H84594   3.074   9.285   6.681  0.9584  1.3984  1.7591
  614MOL0     O84595   5.635   6.721   2.726  0.5695 -0.1736  0.1029
  614MOL0     C84596   5.599   6.790   2.630 -0.1207 -0.1799 -1.0919
  614MOL0     O84597   5.472   6.812   2.591 -0.3036  0.0021  0.3777
  614MOL0     C84598   5.361   6.737   2.628  0.1379  0.6862  0.8275
  614MOL0     C84599   5.367   6.620   2.706 -0.4416 -0.3308 -0.5215
  614MOL0     C84600   5.256   6.541   2.731  0.6700  0.3369  0.1443
  614MOL0     C84601   5.131   6.579   2.679 -0.0163  0.0565 -0.8511
  614MOL0     O84602   5.015   6.500   2.701 -0.0539 -0.2777 -0.2115
  614MOL0     C84603   5.039   6.355   2.692 -0.7816 -1.2781  0.1718
  614MOL0     C84604   4.914   6.292   2.640 -0.6365  1.0192  0.5063
  614MOL0     C84605   4.794   6.322   2.721 -0.5982  0.0678 -0.0170
  614MOL0     C84606   4.683   6.235   2.676  0.1130  0.4482 -0.0671
  614MOL0     C84607   4.558   6.276   2.744  0.6905 -0.3506 -0.1395
  614MOL0     C84608   4.450   6.161   2.737 -0.2412 -0.5466  0.2468
  614MOL0     C84609   4.326   6.215   2.804  0.0224 -0.8037  0.3420
  614MOL0     C84610   4.205   6.122   2.767  1.0433  0.3655 -0.6786
  614MOL0     N84611   4.235   5.980   2.798 -0.0730  1.0464  0.1910
  614MOL0     C84612   4.242   5.925   2.922  0.4270 -0.4029  0.1373
  614MOL0     C84613   4.255   5.797   2.904 -0.4591 -0.2530 -1.1495
  614MOL0     C84614   4.274   5.705   3.020  0.4929  0.8465 -0.2889
  614MOL0     C84615   4.417   5.674   3.025 -0.7633  0.6250 -0.5322
  614MOL0     C84616   4.447   5.580   3.148 -0.0386  0.1916  0.8070
  614MOL0     C84617   4.572   5.495   3.119  0.2906  0.0779 -0.4510
  614MOL0     O84618   4.681   5.587   3.103 -0.2231  0.1135  0.1484
  614MOL0     C84619   4.806   5.529   3.099 -0.5451 -0.1145  1.2759
  614MOL0     C84620   4.830   5.396   3.058  0.7522 -0.4978 -0.5454
  614MOL0     C84621   4.964   5.345   3.059 -0.2831  0.9517 -0.6728
  614MOL0     C84622   4.988   5.196   3.024  0.7702  0.0095 -0.2411
  614MOL0     C84623   5.072   5.434   3.098 -0.5944 -0.2954 -0.2902
  614MOL0     C84624   5.211   5.390   3.135 -0.3650  0.1696  0.6099
  614MOL0     O84625   5.295   5.488   3.165  0.1217 -0.7509 -0.3972
  614MOL0     C84626   5.425   5.468   3.220 -0.4355  0.0611  0.1430
  614MOL0     C84627   5.467   5.542   3.343  0.7173 -0.0087  0.9358
  614MOL0     C84628   5.588   5.512   3.415  0.6004 -0.1565 -0.2438
  614MOL0     C84629   5.669   5.413   3.373  0.3513 -0.4878 -0.3725
  614MOL0     O84630   5.777   5.373   3.439  0.1873  0.3515 -0.4994
  614MOL0     C84631   5.774   5.380   3.585 -0.1945  0.8357 -0.0831
  614MOL0     C84632   5.800   5.244   3.646  0.0142 -0.2087  0.6704
  614MOL0     C84633   5.921   5.173   3.586  0.3969  0.7707 -0.6232
  614MOL0     C84634   6.047   5.227   3.656  0.4195 -0.8739  0.0551
  614MOL0     C84635   6.175   5.156   3.616 -0.5479 -0.0618 -0.5019
  614MOL0     C84636   6.185   5.018   3.677  0.2590 -0.5428  0.3003
  614MOL0     C84637   6.319   4.952   3.655  0.0487  0.0134 -0.0804
  614MOL0     C84638   6.322   4.884   3.513 -0.2038 -0.4174  0.1982
  614MOL0    Cl84639   6.175   4.782   3.473 -0.1614 -0.0109  0.1204
  614MOL0     C84640   5.640   5.351   3.247  0.2579  0.0092  0.5039
  614MOL0     C84641   5.522   5.381   3.174 -0.3309 -0.2678 -0.1553
  614MOL0     O84642   5.240   5.272   3.147 -0.3745 -0.4275 -0.0196
  614MOL0     C84643   5.040   5.569   3.132 -0.4343 -0.8512  0.6746
  614MOL0     C84644   4.909   5.609   3.127  0.1567  0.1191 -0.2010
  614MOL0     N84645   4.247   5.768   2.769 -0.5622 -0.1438  0.3316
  614MOL0     N84646   4.238   5.882   2.706 -1.5529  0.1639 -0.4465
  614MOL0     C84647   5.126   6.703   2.612  0.2730  1.2636  0.1366
  614MOL0     C84648   5.236   6.785   2.587 -0.0055 -0.4536  0.0921
  614MOL0     C84649   5.698   6.885   2.564 -0.0783  0.0504 -0.1582
  614MOL0     C84650   5.648   6.953   2.449 -0.2033 -0.0978  0.5817
  614MOL0     C84651   5.735   7.023   2.369 -0.9540 -0.3924 -0.0644
  614MOL0     C84652   5.870   7.030   2.393 -0.3979 -0.5029  0.8874
  614MOL0     O84653   5.949   7.087   2.298  0.3879 -0.0691  0.4451
  614MOL0     C84654   6.092   7.085   2.315 -0.0443  0.1201 -0.1761
  614MOL0     C84655   6.146   6.949   2.269  0.8014  0.2669  0.0270
  614MOL0     C84656   6.288   6.966   2.219 -0.4779  0.2370 -0.6214
  614MOL0     C84657   6.341   6.837   2.160 -0.9189  0.3347 -0.9005
  614MOL0     C84658   6.462   6.860   2.080 -0.7340  0.3047 -0.2083
  614MOL0     C84659   6.567   6.862   2.020  0.5261  0.2473 -0.2020
  614MOL0     C84660   5.919   6.964   2.512  0.2471 -0.1529 -0.3908
  614MOL0     C84661   5.837   6.892   2.592 -0.2249  1.1339 -0.2073
  614MOL0     C84662   5.903   6.850   2.715 -0.3901 -0.2034 -0.5119
  614MOL0     H84663   5.456   6.584   2.755  0.8019  2.5779 -0.4468
  614MOL0     H84664   5.277   6.449   2.784  2.9476  0.4830 -0.3833
  614MOL0     H84665   5.057   6.324   2.795 -0.6995  1.1983  0.9666
  614MOL0     H84666   5.127   6.329   2.632  0.6719  0.8557  1.2385
  614MOL0     H84667   4.905   6.321   2.535  0.2837  1.6930  0.6010
  614MOL0     H84668   4.928   6.183   2.637 -1.2983  0.8640  2.1508
  614MOL0     H84669   4.813   6.311   2.828 -2.0134  2.5883  0.5887
  614MOL0     H84670   4.777   6.429   2.706  1.9273  0.7535  1.5161
  614MOL0     H84671   4.656   6.241   2.570  1.1131  1.1125 -0.3012
  614MOL0     H84672   4.703   6.129   2.694 -0.0149  0.1599 -1.4866
  614MOL0     H84673   4.528   6.370   2.695  1.9168 -1.8485 -4.2003
  614MOL0     H84674   4.577   6.304   2.848  0.6611  0.0855 -0.2473
  614MOL0     H84675   4.427   6.134   2.633 -0.8970 -0.5008  0.3721
  614MOL0     H84676   4.482   6.070   2.787  1.5551 -0.9992 -1.6032
  614MOL0     H84677   4.303   6.319   2.782  0.9114 -0.3521  1.4880
  614MOL0     H84678   4.339   6.215   2.912  2.4240  0.6842  0.1148
  614MOL0     H84679   4.121   6.161   2.825  0.5029 -1.4682 -0.1685
  614MOL0     H84680   4.177   6.129   2.662 -0.4847  1.1068 -0.2441
  614MOL0     H84681   4.246   5.984   3.014  2.2813  1.2202 -0.9106
  614MOL0     H84682   4.225   5.608   3.007  2.5889 -0.3430  0.0843
  614MOL0     H84683   4.248   5.759   3.111 -2.5054 -0.8865  0.0130
  614MOL0     H84684   4.455   5.619   2.938 -0.2850 -1.1803  0.7583
  614MOL0     H84685   4.472   5.768   3.031 -1.0554  0.7106  1.7003
  614MOL0     H84686   4.469   5.647   3.232  2.7035 -0.2067  0.5230
  614MOL0     H84687   4.363   5.515   3.175 -0.0379  0.3229  1.1380
  614MOL0     H84688   4.602   5.415   3.187  1.1807 -0.6774 -1.6952
  614MOL0     H84689   4.559   5.433   3.030 -1.5720  0.1239 -0.2428
  614MOL0     H84690   4.759   5.322   3.022  1.9340 -0.7696 -2.4956
  614MOL0     H84691   5.072   5.195   2.953  0.0015 -0.9352 -1.1746
  614MOL0     H84692   4.905   5.149   2.971  2.0563 -2.5393 -0.1305
  614MOL0     H84693   4.997   5.134   3.113 -0.4515  0.3547  0.1368
  614MOL0     H84694   5.407   5.621   3.388  0.7244  1.2209 -1.0901
  614MOL0     H84695   5.618   5.572   3.500  1.3989 -1.0342  0.1098
  614MOL0     H84696   5.855   5.448   3.610 -0.7930  2.0282 -1.2495
  614MOL0     H84697   5.682   5.428   3.620 -2.1191 -2.0848 -0.7938
  614MOL0     H84698   5.807   5.249   3.755 -0.5384 -3.4678  0.9559
  614MOL0     H84699   5.718   5.177   3.616 -0.2349 -0.4526  1.8554
  614MOL0     H84700   5.948   5.181   3.480  1.8308 -3.2227 -0.7321
  614MOL0     H84701   5.901   5.068   3.607  0.6064  1.1962  1.9897
  614MOL0     H84702   6.030   5.218   3.764 -2.2305 -1.2176 -0.3251
  614MOL0     H84703   6.054   5.327   3.613 -2.1392 -1.7210 -2.7397
  614MOL0     H84704   6.185   5.148   3.508  1.2944 -1.3811 -0.2740
  614MOL0     H84705   6.264   5.214   3.643  0.2338 -1.6439  0.4915
  614MOL0     H84706   6.103   4.956   3.638 -0.0197 -1.9889  2.8909
  614MOL0     H84707   6.167   5.030   3.785 -0.6015 -2.6152  0.4481
  614MOL0     H84708   6.321   4.878   3.735 -2.0153  1.7524  1.7325
  614MOL0     H84709   6.403   5.019   3.676  1.7989 -1.8188 -0.9940
  614MOL0     H84710   6.407   4.818   3.493  0.5069  0.5334  0.0356
  614MOL0     H84711   6.329   4.963   3.438  3.1436 -1.7887 -1.1264
  614MOL0     H84712   5.712   5.285   3.199  0.9135 -0.0218  1.5107
  614MOL0     H84713   5.503   5.333   3.079  1.7064  0.3383 -0.9197
  614MOL0     H84714   5.112   5.648   3.151 -2.1327  0.9466  0.0247
  614MOL0     H84715   4.890   5.716   3.135  1.9920  0.3275  2.9107
  614MOL0     H84716   5.033   6.736   2.565  1.8267  2.1513 -2.5272
  614MOL0     H84717   5.228   6.879   2.533  1.9358  2.0308  3.7120
  614MOL0     H84718   5.545   6.943   2.415  0.2547 -0.5603 -0.7264
  614MOL0     H84719   5.697   7.062   2.274 -0.5688  2.0183  0.7024
  614MOL0     H84720   6.147   7.162   2.260 -0.5246  1.1701  0.7817
  614MOL0     H84721   6.122   7.110   2.417  0.8325  0.6101 -0.5452
  614MOL0     H84722   6.102   6.901   2.181  1.5471 -2.2455  0.9523
  614MOL0     H84723   6.147   6.879   2.353  1.0831  0.0433 -0.1642
  614MOL0     H84724   6.297   7.052   2.152 -2.0019  2.2615  1.6137
  614MOL0     H84725   6.369   6.983   2.289  1.3004  1.2929 -2.8171
  614MOL0     H84726   6.264   6.794   2.095 -1.8303 -2.6177  1.8844
  614MOL0     H84727   6.360   6.762   2.237  2.1683 -0.0284 -1.8730
  614MOL0     H84728   6.659   6.881   1.969  0.8218 -0.5055  0.0273
  614MOL0     H84729   6.023   6.978   2.539 -0.3285  2.4414  0.7803
  614MOL0     H84730   5.919   6.936   2.780  2.4253 -1.0514  0.0096
  614MOL0     H84731   5.855   6.770   2.772 -0.1997 -0.1589 -0.2929
  614MOL0     H84732   6.000   6.803   2.696 -0.4135 -0.2357 -0.5525
  615MOL0     O84733   6.725   4.093   4.489 -0.6014 -0.2248 -0.5624
  615MOL0     C84734   6.614   4.144   4.474 -0.7639  0.6004 -0.5561
  615MOL0     O84735   6.589   4.279   4.493 -0.2737  0.0413 -0.1844
  615MOL0     C84736   6.689   4.376   4.498  0.2975  0.1370 -0.3056
  615MOL0     C84737   6.826   4.364   4.450  0.4763 -0.8124  0.5272
  615MOL0     C84738   6.918   4.478   4.471 -0.1868  0.3013  0.1837
  615MOL0     C84739   6.877   4.595   4.527  0.7295 -0.3508  0.9348
  615MOL0     O84740   6.961   4.702   4.527 -0.3380 -0.1366  0.0038
  615MOL0     C84741   7.003   4.745   4.658 -0.1488  0.2875  0.2271
  615MOL0     C84742   7.123   4.668   4.718  0.4400 -0.3157  0.2271
  615MOL0     C84743   7.237   4.636   4.614  0.1475 -0.1656 -0.0621
  615MOL0     C84744   7.362   4.564   4.678 -0.4069 -1.4504  0.0589
  615MOL0     C84745   7.429   4.640   4.793 -0.9095 -0.5562  0.1885
  615MOL0     C84746   7.526   4.537   4.874  0.2164  0.0891  0.7394
  615MOL0     C84747   7.616   4.603   4.984  0.6076  0.2504  0.2726
  615MOL0     C84748   7.716   4.702   4.931 -0.5385 -0.4864 -1.0055
  615MOL0     N84749   7.801   4.750   5.044  0.5928 -0.1072  0.2661
  615MOL0     C84750   7.923   4.694   5.046 -0.3179 -0.8125 -0.1563
  615MOL0     C84751   7.982   4.764   5.149  0.9152 -0.3003  0.2209
  615MOL0     C84752   8.120   4.737   5.202 -0.1774  0.2346 -0.4161
  615MOL0     C84753   8.199   4.860   5.246  0.2924  0.7328  0.6453
  615MOL0     C84754   8.295   4.888   5.126 -0.6366 -0.1154  0.2389
  615MOL0     C84755   8.367   5.025   5.145 -0.4616 -0.1422  1.3249
  615MOL0     O84756   8.286   5.135   5.099 -0.4667  0.2871  0.5133
  615MOL0     C84757   8.340   5.262   5.122 -0.1982  0.8458 -0.0239
  615MOL0     C84758   8.468   5.291   5.167 -0.8396 -0.2012  0.4755
  615MOL0     C84759   8.504   5.422   5.203 -0.6358 -0.7830  0.5309
  615MOL0     C84760   8.643   5.432   5.272  0.5312 -0.4772 -0.0987
  615MOL0     C84761   8.402   5.532   5.200 -1.2494  0.1141  0.2110
  615MOL0     C84762   8.439   5.672   5.254  0.4353 -0.0722  0.1128
  615MOL0     O84763   8.524   5.676   5.358  0.6088  0.4699  0.3828
  615MOL0     C84764   8.582   5.791   5.411  0.8000  0.0199  0.2753
  615MOL0     C84765   8.676   5.771   5.512 -0.0401  0.2561  0.5284
  615MOL0     C84766   8.755   5.880   5.560  0.0659  0.1240 -1.0090
  615MOL0     C84767   8.747   5.999   5.500  0.7571  0.2254 -0.1596
  615MOL0     O84768   8.828   6.113   5.530 -0.4594  0.4351 -0.0133
  615MOL0     C84769   8.957   6.091   5.600 -0.5227 -0.1381  0.0278
  615MOL0     C84770   9.055   6.021   5.504 -0.5922 -0.0681  0.2938
  615MOL0     C84771   9.196   6.003   5.561 -0.0154 -0.1083 -0.4963
  615MOL0     C84772   9.287   5.941   5.455 -0.6421  0.1770  0.0057
  615MOL0     C84773   9.429   5.905   5.507 -0.3731  0.0942 -0.0512
  615MOL0     C84774   9.506   6.031   5.530 -0.6263 -0.3386  0.0567
  615MOL0     C84775   9.642   5.977   5.597  0.0217 -1.1047 -0.6732
  615MOL0     C84776   9.732   6.094   5.643  0.2387  0.7566 -0.5411
  615MOL0    Cl84777   9.834   6.031   5.779  0.2381 -0.1352 -0.4216
  615MOL0     C84778   8.657   6.027   5.394  0.0614 -0.7070 -0.3830
  615MOL0     C84779   8.567   5.929   5.359 -0.0681  0.1712  0.2101
  615MOL0     O84780   8.414   5.773   5.181  0.5818  0.3831  0.1115
  615MOL0     C84781   8.273   5.504   5.151 -0.1000 -0.6729  0.0637
  615MOL0     C84782   8.251   5.373   5.110 -0.5269  0.6024 -0.4807
  615MOL0     N84783   7.896   4.860   5.192 -0.4195  0.1441  0.4383
  615MOL0     N84784   7.788   4.844   5.134  0.9278  0.0814 -0.1262
  615MOL0     C84785   6.748   4.601   4.578 -0.0058 -0.6103  0.7104
  615MOL0     C84786   6.653   4.495   4.561 -0.0578 -0.1151 -1.4257
  615MOL0     C84787   6.498   4.062   4.441  0.1434  0.3199  0.6986
  615MOL0     C84788   6.395   4.126   4.373  0.1202  0.3519  0.6007
  615MOL0     C84789   6.276   4.070   4.331  0.3995  0.6557 -0.4246
  615MOL0     C84790   6.241   3.943   4.377 -0.2239 -0.7757  0.3041
  615MOL0     O84791   6.128   3.878   4.348  0.5384 -0.0265 -0.1889
  615MOL0     C84792   6.022   3.938   4.271 -0.9103  0.2522  0.0680
  615MOL0     C84793   5.950   4.024   4.368  0.4407  0.5283 -0.0184
  615MOL0     C84794   5.812   4.047   4.310  0.5325  0.8966 -0.2284
  615MOL0     C84795   5.706   4.087   4.415 -0.7588 -0.7414 -0.1473
  615MOL0     C84796   5.567   4.078   4.359 -0.7803  0.0014  0.1966
  615MOL0     C84797   5.458   4.084   4.314  1.2533 -0.0417  1.1329
  615MOL0     C84798   6.343   3.873   4.454  1.2285 -0.2485  0.5781
  615MOL0     C84799   6.474   3.929   4.479 -0.3571  0.1240  0.2644
  615MOL0     C84800   6.571   3.845   4.556 -0.3130 -0.4370 -0.1745
  615MOL0     H84801   6.861   4.275   4.400  3.6930  1.9599 -2.7578
  615MOL0     H84802   7.020   4.478   4.433 -0.8378  3.5064 -1.8924
  615MOL0     H84803   6.908   4.745   4.713 -0.3494  4.0125  0.1597
  615MOL0     H84804   7.031   4.848   4.635  1.4547 -0.2573 -0.3301
  615MOL0     H84805   7.165   4.727   4.799  1.2605  0.8750 -1.0315
  615MOL0     H84806   7.085   4.573   4.759 -0.7584 -0.6922 -1.6008
  615MOL0     H84807   7.196   4.565   4.541  2.5027 -2.3552  0.6089
  615MOL0     H84808   7.268   4.732   4.570 -0.0347 -0.1346 -0.1239
  615MOL0     H84809   7.325   4.470   4.722  2.9199 -2.8012  0.2174
  615MOL0     H84810   7.437   4.528   4.608 -0.8188 -0.8604 -0.7044
  615MOL0     H84811   7.357   4.665   4.871  1.2344  1.0701  1.7726
  615MOL0     H84812   7.487   4.725   4.756 -2.0772  0.5188  0.7648
  615MOL0     H84813   7.461   4.467   4.927 -1.3070  0.2584 -0.8071
  615MOL0     H84814   7.591   4.485   4.804  0.8795  0.9088  0.7387
  615MOL0     H84815   7.663   4.521   5.039 -2.0804 -0.1434  2.1685
  615MOL0     H84816   7.554   4.648   5.062  1.1867 -1.1678  1.6048
  615MOL0     H84817   7.783   4.648   4.864 -0.1723 -1.5290  0.1549
  615MOL0     H84818   7.656   4.786   4.895 -1.3672  0.6105  2.5086
  615MOL0     H84819   7.960   4.613   4.984  3.1311 -0.3383  1.0686
  615MOL0     H84820   8.178   4.667   5.141  0.7247  0.7971 -0.2299
  615MOL0     H84821   8.104   4.687   5.298 -0.4770  2.9090  1.0119
  615MOL0     H84822   8.130   4.944   5.262  0.8991  1.2927  0.3771
  615MOL0     H84823   8.252   4.845   5.341  0.2364 -1.3929  0.3890
  615MOL0     H84824   8.368   4.808   5.114 -0.8907 -0.2561 -0.3932
  615MOL0     H84825   8.230   4.900   5.039 -1.6047  2.5454  1.2123
  615MOL0     H84826   8.403   5.048   5.246  0.8615  0.5780  0.7031
  615MOL0     H84827   8.456   5.019   5.083 -0.5479 -0.5879  1.2383
  615MOL0     H84828   8.540   5.210   5.165  0.7404  1.1236  1.0263
  615MOL0     H84829   8.699   5.339   5.258 -2.0910 -2.1786  0.1010
  615MOL0     H84830   8.624   5.442   5.379  2.1495 -1.0484  0.2781
  615MOL0     H84831   8.693   5.522   5.232 -1.2836  1.6100  2.0672
  615MOL0     H84832   8.681   5.671   5.555 -0.6871  0.4785  1.1470
  615MOL0     H84833   8.823   5.871   5.644  2.6056  1.8795 -2.7513
  615MOL0     H84834   9.000   6.188   5.627  5.3422 -1.6050 -2.5807
  615MOL0     H84835   8.936   6.038   5.694 -3.5299  2.5678  1.0779
  615MOL0     H84836   9.015   5.921   5.486 -0.5863 -0.4126  2.0024
  615MOL0     H84837   9.059   6.076   5.409  2.9009 -1.2635 -0.4245
  615MOL0     H84838   9.203   5.944   5.653 -2.4614  0.0008 -0.1498
  615MOL0     H84839   9.238   6.101   5.585 -0.7623  1.2686 -4.1870
  615MOL0     H84840   9.314   6.013   5.376  0.8556  0.3801  0.6588
  615MOL0     H84841   9.246   5.852   5.406  1.2089 -0.6782 -0.0972
  615MOL0     H84842   9.415   5.858   5.605 -1.5274 -0.4921 -0.4811
  615MOL0     H84843   9.479   5.841   5.434 -3.2988 -1.4591 -0.8534
  615MOL0     H84844   9.459   6.102   5.599  0.2129 -0.0752  0.3739
  615MOL0     H84845   9.536   6.075   5.434  0.8485 -1.4509 -0.0372
  615MOL0     H84846   9.702   5.898   5.552  1.8981 -1.0895  1.6296
  615MOL0     H84847   9.600   5.935   5.689  3.4103 -3.2516  0.0371
  615MOL0     H84848   9.668   6.179   5.666  0.9176  0.6826  1.9173
  615MOL0     H84849   9.792   6.126   5.556 -0.0867 -1.0342 -1.4720
  615MOL0     H84850   8.657   6.121   5.341 -0.1609 -2.5239 -3.9269
  615MOL0     H84851   8.496   5.967   5.286 -0.9786 -1.2851  0.2975
  615MOL0     H84852   8.193   5.577   5.158  0.2991 -0.3074  1.0337
  615MOL0     H84853   8.150   5.350   5.080 -0.7188 -0.6189  0.9883
  615MOL0     H84854   6.721   4.696   4.622  0.7817  1.1099 -2.2809
  615MOL0     H84855   6.549   4.496   4.589  0.0164  2.6537 -0.9609
  615MOL0     H84856   6.390   4.231   4.346 -2.8431  0.0767 -0.3477
  615MOL0     H84857   6.210   4.126   4.266  0.9647  0.3140 -1.3095
  615MOL0     H84858   6.063   3.983   4.180  0.2698 -0.6093  0.1538
  615MOL0     H84859   5.956   3.857   4.238 -0.3199  0.3269 -1.3454
  615MOL0     H84860   6.006   4.115   4.389  0.3055  0.3694  1.1098
  615MOL0     H84861   5.942   3.960   4.456 -1.8187 -1.1977 -1.3650
  615MOL0     H84862   5.822   4.124   4.233  0.0194  2.9983  1.7019
  615MOL0     H84863   5.778   3.954   4.263 -0.7339  1.5645 -0.6965
  615MOL0     H84864   5.728   4.188   4.451  0.4142 -0.7177 -0.8785
  615MOL0     H84865   5.703   4.012   4.495 -2.5194  0.3481  0.8594
  615MOL0     H84866   5.361   4.112   4.277  1.6409  0.6876  0.6323
  615MOL0     H84867   6.325   3.767   4.471  0.7092 -0.5384 -1.4749
  615MOL0     H84868   6.573   3.888   4.657  1.3155 -1.1538  0.1349
  615MOL0     H84869   6.527   3.745   4.566 -0.2319 -0.5448 -0.8471
  615MOL0     H84870   6.672   3.839   4.514  0.1193  1.0825  0.5777
  616MOL0     O84871   9.561   4.861   7.117  0.0391 -0.1918 -0.5415
  616MOL0     C84872   9.564   4.950   7.027 -0.4197 -0.3257 -0.5180
  616MOL0     O84873   9.641   4.945   6.914  0.0137  0.3695  0.3169
  616MOL0     C84874   9.724   4.837   6.913  0.5170 -0.3487 -0.0591
  616MOL0     C84875   9.688   4.708   6.860 -0.2316  1.0023  0.3450
  616MOL0     C84876   9.779   4.598   6.875  1.2569  0.4872 -0.3292
  616MOL0     C84877   9.904   4.620   6.945 -0.4158 -0.3518  0.5199
  616MOL0     O84878   9.998   4.524   6.958  0.1529 -0.0044 -0.1093
  616MOL0     C84879   9.978   4.391   6.903 -0.1124 -1.0364 -0.6374
  616MOL0     C84880   9.948   4.294   7.027 -0.4310  0.3869  0.0907
  616MOL0     C84881   9.828   4.333   7.112 -0.3497 -0.3105  0.6943
  616MOL0     C84882   9.793   4.213   7.202  0.1070 -0.4822  0.9251
  616MOL0     C84883   9.666   4.233   7.287 -0.4080 -0.2157 -0.2168
  616MOL0     C84884   9.708   4.265   7.434 -0.3736 -0.7607 -0.2684
  616MOL0     C84885   9.599   4.305   7.530  0.2536  0.1433 -0.2604
  616MOL0     C84886   9.552   4.454   7.535  0.3606 -0.4194 -0.3496
  616MOL0     N84887   9.665   4.541   7.578  0.2800  0.0446 -0.0413
  616MOL0     C84888   9.758   4.605   7.503 -0.1364  0.1767 -0.7003
  616MOL0     C84889   9.817   4.695   7.583 -0.0584  0.1853 -0.0419
  616MOL0     C84890   9.929   4.790   7.539 -1.3230 -0.1601 -0.1675
  616MOL0     C84891  10.054   4.708   7.495  0.1807  0.3728 -0.1408
  616MOL0     C84892  10.051   4.690   7.342 -0.0892  0.2634  0.0805
  616MOL0     C84893  10.084   4.551   7.290  0.1142 -0.0763 -0.3054
  616MOL0     O84894  10.216   4.499   7.339 -0.2045 -0.1914  0.4221
  616MOL0     C84895  10.336   4.541   7.272  0.3350 -0.2113 -0.0430
  616MOL0     C84896  10.338   4.630   7.166  0.6222  0.4671  0.3975
  616MOL0     C84897  10.468   4.670   7.110  0.2284  0.4454  0.1058
  616MOL0     C84898  10.464   4.776   6.996 -0.3857  0.1003  0.0240
  616MOL0     C84899  10.585   4.623   7.166  0.6350 -0.3773 -0.0810
  616MOL0     C84900  10.723   4.647   7.123 -0.2351 -0.1601 -0.4546
  616MOL0     O84901  10.818   4.597   7.197 -0.2870  0.8457  0.6882
  616MOL0     C84902  10.945   4.642   7.175 -0.3215 -0.0664  0.1799
  616MOL0     C84903  11.022   4.610   7.059 -0.6917 -0.5062 -0.7692
  616MOL0     C84904  11.154   4.658   7.050 -0.1356 -0.2681  0.2069
  616MOL0     C84905  11.217   4.737   7.145 -0.7078  0.7845 -0.5068
  616MOL0     O84906  11.345   4.786   7.152 -0.4939 -0.2128 -0.3340
  616MOL0     C84907  11.442   4.744   7.061  0.4725  0.1594  0.0483
  616MOL0     C84908  11.579   4.817   7.096 -0.5859 -0.1490 -0.4389
  616MOL0     C84909  11.684   4.758   7.003  0.0252  0.9318  0.6533
  616MOL0     C84910  11.820   4.825   7.025 -0.9139 -0.3742 -0.1068
  616MOL0     C84911  11.922   4.787   6.911  0.3403  0.1315 -0.2518
  616MOL0     C84912  12.057   4.871   6.913 -0.2762 -0.0519 -0.5574
  616MOL0     C84913  12.128   4.854   7.051  0.9860 -0.2181 -0.0747
  616MOL0     C84914  12.283   4.835   7.065  0.7556  0.3975 -0.4151
  616MOL0    Cl84915  12.306   4.805   7.239 -0.1288  0.6985 -0.1302
  616MOL0     C84916  11.137   4.765   7.257 -0.3989 -0.0909  0.7121
  616MOL0     C84917  11.001   4.721   7.271 -0.3803 -0.2936  0.1323
  616MOL0     O84918  10.744   4.717   7.023  0.0989 -0.1376 -0.3651
  616MOL0     C84919  10.569   4.530   7.274 -0.0036 -0.7026  0.6173
  616MOL0     C84920  10.454   4.493   7.331 -0.4251 -0.1855 -0.1175
  616MOL0     N84921   9.772   4.669   7.708  0.1288 -0.3381  0.6471
  616MOL0     N84922   9.679   4.579   7.709  0.2606 -0.4532 -0.0007
  616MOL0     C84923   9.928   4.742   7.000 -0.8873  0.7650 -0.5588
  616MOL0     C84924   9.849   4.852   6.972 -0.4087  0.4767 -0.3417
  616MOL0     C84925   9.470   5.064   7.058 -0.9621  0.9277  0.8774
  616MOL0     C84926   9.426   5.085   7.189  0.2276 -0.2103 -0.4667
  616MOL0     C84927   9.339   5.186   7.214  0.0456 -0.3211  0.2146
  616MOL0     C84928   9.300   5.281   7.123  0.8304 -0.0710  0.6814
  616MOL0     O84929   9.212   5.380   7.164  0.3513  0.5527 -0.4946
  616MOL0     C84930   9.091   5.406   7.092  0.1982 -0.5049  0.3799
  616MOL0     C84931   8.986   5.290   7.085 -0.3434  0.0727 -0.7289
  616MOL0     C84932   8.902   5.306   7.209 -0.7211 -0.9642 -0.8996
  616MOL0     C84933   8.812   5.169   7.221 -0.5718  0.0290  0.6688
  616MOL0     C84934   8.731   5.186   7.337 -0.1227  0.3863 -0.4726
  616MOL0     C84935   8.660   5.190   7.442 -0.7354  0.4750  0.4433
  616MOL0     C84936   9.329   5.247   6.986  0.7538  0.0162  0.1328
  616MOL0     C84937   9.418   5.144   6.955 -1.0260 -0.9612 -0.0652
  616MOL0     C84938   9.453   5.134   6.807 -0.0484 -0.2501 -0.5716
  616MOL0     H84939   9.599   4.691   6.801  0.6132 -4.1380  0.0832
  616MOL0     H84940   9.749   4.509   6.821  1.1673  1.1568 -1.4228
  616MOL0     H84941  10.074   4.360   6.863 -1.4042 -1.3188 -3.8496
  616MOL0     H84942   9.901   4.383   6.825  1.2795  0.1709 -2.1874
  616MOL0     H84943   9.937   4.193   6.988  0.7670  0.1599  0.3060
  616MOL0     H84944  10.040   4.297   7.086  0.7590 -1.5048 -1.5377
  616MOL0     H84945   9.847   4.426   7.167  1.3200 -0.0196 -0.3149
  616MOL0     H84946   9.747   4.352   7.040 -0.5142  1.1026  1.2251
  616MOL0     H84947   9.779   4.129   7.134 -0.3738 -0.1685  0.6367
  616MOL0     H84948   9.876   4.184   7.268  0.9073  0.5638  0.4145
  616MOL0     H84949   9.619   4.134   7.290 -0.0239 -0.5087 -2.3010
  616MOL0     H84950   9.606   4.316   7.250  1.6503  1.5588  0.2062
  616MOL0     H84951   9.765   4.181   7.477  0.4327 -0.8536 -1.4578
  616MOL0     H84952   9.770   4.355   7.425 -2.8339  0.8616 -2.2626
  616MOL0     H84953   9.618   4.283   7.635 -2.3463  0.7451  0.3990
  616MOL0     H84954   9.517   4.239   7.501  0.6466  0.2740 -1.7410
  616MOL0     H84955   9.506   4.485   7.441 -2.5968  0.3367  1.2002
  616MOL0     H84956   9.475   4.465   7.613  0.5890 -1.2107  0.0003
  616MOL0     H84957   9.772   4.605   7.395 -0.4662 -1.0463 -0.7627
  616MOL0     H84958   9.949   4.856   7.624  0.5848 -0.9932  0.0851
  616MOL0     H84959   9.896   4.850   7.454  3.3033 -0.2780 -2.3202
  616MOL0     H84960  10.145   4.766   7.513  1.9083 -0.7418 -4.0441
  616MOL0     H84961  10.063   4.611   7.544 -0.4872  0.7486  0.7585
  616MOL0     H84962   9.952   4.722   7.308  0.4602  3.7114  1.3043
  616MOL0     H84963  10.120   4.765   7.301  2.9292 -0.8791  2.6005
  616MOL0     H84964  10.017   4.473   7.328  2.6171 -0.9429  2.7695
  616MOL0     H84965  10.077   4.558   7.181 -3.1672 -1.8685 -0.3344
  616MOL0     H84966  10.253   4.673   7.115  0.3573 -0.4152  0.0768
  616MOL0     H84967  10.358   4.793   6.975 -0.2994  1.3644  0.5267
  616MOL0     H84968  10.515   4.754   6.903 -0.4563  0.0235  0.0031
  616MOL0     H84969  10.498   4.874   7.033  0.4927  0.4398 -1.6177
  616MOL0     H84970  10.968   4.546   6.990 -2.1681 -1.3705  1.0775
  616MOL0     H84971  11.213   4.631   6.963  1.7633 -1.7320  1.8790
  616MOL0     H84972  11.447   4.635   7.069 -0.4368  0.1420  0.4820
  616MOL0     H84973  11.406   4.754   6.958 -1.1042 -0.0538  0.5539
  616MOL0     H84974  11.580   4.924   7.071 -2.1995 -0.1519 -0.5879
  616MOL0     H84975  11.609   4.807   7.201 -5.7046 -2.3839  1.0886
  616MOL0     H84976  11.650   4.774   6.901 -1.0278 -0.3061  0.7807
  616MOL0     H84977  11.703   4.651   7.017 -1.2253  1.1334  6.2185
  616MOL0     H84978  11.868   4.814   7.123 -0.2313  0.5129 -0.3291
  616MOL0     H84979  11.808   4.933   7.014  2.1383 -0.0754 -1.5544
  616MOL0     H84980  11.951   4.682   6.923 -1.2875 -0.3728 -0.5447
  616MOL0     H84981  11.878   4.788   6.811 -1.4992 -1.0064  0.4974
  616MOL0     H84982  12.038   4.977   6.894 -3.8487 -0.7846 -1.8501
  616MOL0     H84983  12.131   4.835   6.842  0.4460  1.5153 -0.6335
  616MOL0     H84984  12.103   4.757   7.095  1.7835 -0.9117 -1.1115
  616MOL0     H84985  12.083   4.933   7.112 -2.8679 -0.0268 -2.8380
  616MOL0     H84986  12.340   4.925   7.043  2.7973 -1.3560 -3.0011
  616MOL0     H84987  12.310   4.750   7.001  0.4757  0.9796 -1.3140
  616MOL0     H84988  11.177   4.825   7.338 -0.2342  1.8146 -0.7109
  616MOL0     H84989  10.944   4.756   7.357 -2.1952  0.5520 -1.3323
  616MOL0     H84990  10.660   4.490   7.317  0.3796  1.3834  1.8931
  616MOL0     H84991  10.441   4.424   7.414 -1.5928  1.2351  0.9298
  616MOL0     H84992  10.021   4.759   7.053 -0.7345 -0.5803 -0.3519
  616MOL0     H84993   9.876   4.951   7.007  2.6142 -1.0073  1.9524
  616MOL0     H84994   9.455   5.014   7.266 -0.6336 -0.8908 -0.7492
  616MOL0     H84995   9.301   5.189   7.316  0.3774  0.2600  0.3248
  616MOL0     H84996   9.050   5.497   7.138  3.8829  1.7391 -0.3051
  616MOL0     H84997   9.112   5.437   6.989 -0.8935  0.0233  0.3016
  616MOL0     H84998   9.042   5.196   7.085 -2.7304 -1.5493  2.5456
  616MOL0     H84999   8.911   5.296   7.006 -1.3858  0.5102  0.2600
  616MOL0     H85000   8.960   5.319   7.301 -2.0216  0.8570 -0.2969
  616MOL0     H85001   8.835   5.391   7.193  1.0272  0.2451 -2.1846
  616MOL0     H85002   8.878   5.082   7.227  1.1368  1.0791 -1.2670
  616MOL0     H85003   8.745   5.161   7.135 -1.4243  1.8732  1.1010
  616MOL0     H85004   8.604   5.195   7.533  1.8802  1.5031  2.1458
  616MOL0     H85005   9.285   5.305   6.906 -0.0263 -0.4192  0.2369
  616MOL0     H85006   9.559   5.116   6.786  0.6684  0.4252  2.1594
  616MOL0     H85007   9.394   5.051   6.767 -2.7052  1.0495  0.4018
  616MOL0     H85008   9.420   5.225   6.755  0.3167  0.6771  0.7834
  617MOL0     O85009   1.395   9.795   5.005  0.1161 -0.2235  0.3551
  617MOL0     C85010   1.352   9.868   4.920  0.3675 -0.8878 -0.4204
  617MOL0     O85011   1.419   9.969   4.863 -0.3269  0.4068 -0.5268
  617MOL0     C85012   1.551   9.979   4.864 -0.5844 -0.0922 -0.5777
  617MOL0     C85013   1.616  10.056   4.963  0.2300 -0.4725 -0.0962
  617MOL0     C85014   1.746  10.079   4.949  0.1896  0.1371 -0.1208
  617MOL0     C85015   1.828  10.023   4.846  0.7299  0.0247  0.7394
  617MOL0     O85016   1.968  10.046   4.841 -0.2319  0.2012 -0.6592
  617MOL0     C85017   2.028  10.091   4.966  0.1687 -0.3033 -0.7986
  617MOL0     C85018   2.176  10.093   4.944 -0.1610  0.2274  0.6849
  617MOL0     C85019   2.235  10.200   4.850  0.0777  0.0354  0.4470
  617MOL0     C85020   2.387  10.221   4.874  0.8646  0.0261 -0.4620
  617MOL0     C85021   2.442  10.334   4.797 -1.4088  0.3282 -0.0988
  617MOL0     C85022   2.592  10.363   4.846  0.4388 -0.0831 -0.3201
  617MOL0     C85023   2.691  10.244   4.839 -0.2797 -0.7502 -0.4772
  617MOL0     C85024   2.703  10.176   4.701  1.1465  1.1386  0.3721
  617MOL0     N85025   2.810  10.075   4.699 -0.4516  0.2274  0.8359
  617MOL0     C85026   2.950  10.094   4.714  0.0647 -0.8467  0.2551
  617MOL0     C85027   3.007   9.971   4.733  0.1744 -0.0412 -0.6432
  617MOL0     C85028   3.153   9.947   4.756 -0.1520  0.3052 -0.4713
  617MOL0     C85029   3.258  10.041   4.682  0.5252  0.6765 -0.4198
  617MOL0     C85030   3.268   9.995   4.534  0.0372  0.4653  1.0481
  617MOL0     C85031   3.397  10.040   4.463  0.0611 -0.7769  0.1185
  617MOL0     O85032   3.520  10.016   4.540  0.3046 -0.8033 -0.3919
  617MOL0     C85033   3.648  10.024   4.483 -0.4884 -0.0035 -0.4347
  617MOL0     C85034   3.668  10.059   4.352  0.2345  0.1163  0.1814
  617MOL0     C85035   3.795  10.070   4.301 -0.3741  1.0375  0.3581
  617MOL0     C85036   3.804  10.121   4.160  0.0823  0.0737  0.8956
  617MOL0     C85037   3.908  10.031   4.374 -0.5652  0.2449 -0.0606
  617MOL0     C85038   4.054  10.038   4.325  0.3246 -0.5359  0.1254
  617MOL0     O85039   4.140   9.955   4.384 -0.4491 -0.2678 -0.4811
  617MOL0     C85040   4.267   9.941   4.335 -0.0678  0.3752 -0.2101
  617MOL0     C85041   4.349   9.862   4.416 -0.6904  0.1286  0.1161
  617MOL0     C85042   4.477   9.820   4.374 -0.1191  0.0931  0.0873
  617MOL0     C85043   4.525   9.852   4.248  0.6591  0.1731 -0.0274
  617MOL0     O85044   4.646   9.797   4.204 -0.3074 -0.5903 -0.0925
  617MOL0     C85045   4.617   9.666   4.143  0.3216  0.1400 -0.7325
  617MOL0     C85046   4.736   9.583   4.110  0.4328 -0.4753  0.5632
  617MOL0     C85047   4.800   9.513   4.236 -0.2300 -0.0801  0.2116
  617MOL0     C85048   4.847   9.621   4.335 -0.3057 -0.5463 -0.0992
  617MOL0     C85049   4.947   9.572   4.438  0.9840 -0.6402 -0.0765
  617MOL0     C85050   4.955   9.685   4.540  0.5099 -0.3466  0.8319
  617MOL0     C85051   5.076   9.660   4.637  0.1181  0.2106 -0.0636
  617MOL0     C85052   5.082   9.507   4.686 -0.0788  0.5611  0.5280
  617MOL0    Cl85053   5.215   9.499   4.797  0.1782  0.1237  0.3377
  617MOL0     C85054   4.451   9.943   4.169  0.4971  0.8910  0.0542
  617MOL0     C85055   4.326   9.988   4.210 -0.2652  0.3237  0.5202
  617MOL0     O85056   4.082  10.132   4.251 -0.1464 -0.6703  0.2398
  617MOL0     C85057   3.885   9.990   4.508  0.4813 -0.4008 -0.1357
  617MOL0     C85058   3.754   9.989   4.560 -0.5576 -0.0031  0.3624
  617MOL0     N85059   2.909   9.876   4.705 -0.2725 -0.0771 -0.0776
  617MOL0     N85060   2.797   9.939   4.688 -0.3005  0.1698 -0.8115
  617MOL0     C85061   1.763   9.948   4.740 -1.0274  0.1774  0.2010
  617MOL0     C85062   1.626   9.927   4.753 -0.0029 -0.1443 -1.4941
  617MOL0     C85063   1.199   9.863   4.893 -1.3706 -0.4711  0.1748
  617MOL0     C85064   1.118   9.801   4.988  0.3874  0.0212 -0.5559
  617MOL0     C85065   0.976   9.804   4.968 -0.3287  0.6433 -0.5449
  617MOL0     C85066   0.921   9.867   4.853 -0.1911 -0.2943 -0.3344
  617MOL0     O85067   0.783   9.861   4.826 -0.9810  0.6870  0.1433
  617MOL0     C85068   0.694   9.850   4.928  0.2137 -0.9075  0.1981
  617MOL0     C85069   0.551   9.859   4.867 -0.1464  0.0379 -0.5302
  617MOL0     C85070   0.445   9.801   4.965 -0.4243 -0.8662 -0.0021
  617MOL0     C85071   0.300   9.840   4.941 -0.8102  0.1890 -0.9088
  617MOL0     C85072   0.249   9.794   4.811 -0.2374 -0.4657 -0.1351
  617MOL0     C85073   0.217   9.751   4.701 -0.8921  0.5525 -0.6650
  617MOL0     C85074   1.010   9.926   4.764 -1.1286 -0.1276  0.4842
  617MOL0     C85075   1.146   9.924   4.775 -0.9111  0.4878  0.7135
  617MOL0     C85076   1.223   9.993   4.663  0.8606  0.0361 -1.0304
  617MOL0     H85077   1.562  10.092   5.051 -0.1104  0.7581 -0.7806
  617MOL0     H85078   1.803  10.133   5.024 -0.6152  1.1200 -0.2007
  617MOL0     H85079   2.002  10.024   5.048 -0.2381 -0.1508 -0.8008
  617MOL0     H85080   2.005  10.195   4.987 -0.4188 -0.0749 -2.4448
  617MOL0     H85081   2.229  10.105   5.039  2.4348 -2.6216 -0.2357
  617MOL0     H85082   2.204   9.992   4.915 -1.0614  0.3594 -0.7540
  617MOL0     H85083   2.226  10.165   4.747  0.6905  0.5906  0.1990
  617MOL0     H85084   2.169  10.287   4.852  0.4205  0.3765 -1.2575
  617MOL0     H85085   2.399  10.241   4.981  0.9053  1.7796 -0.7612
  617MOL0     H85086   2.446  10.131   4.854  0.5165 -0.2861 -0.1157
  617MOL0     H85087   2.385  10.425   4.816  1.2533  1.8548  1.1035
  617MOL0     H85088   2.442  10.318   4.689 -1.9737 -1.1668  0.0945
  617MOL0     H85089   2.626  10.450   4.789 -2.1206  2.1624  1.3278
  617MOL0     H85090   2.589  10.399   4.949 -1.1275  0.3762 -0.5019
  617MOL0     H85091   2.661  10.172   4.915 -1.8436  1.3948  1.0439
  617MOL0     H85092   2.786  10.289   4.869 -1.0828 -0.1267  1.2288
  617MOL0     H85093   2.607  10.129   4.678  2.3029 -1.1450 -0.0398
  617MOL0     H85094   2.716  10.251   4.622 -0.4378 -1.2846 -2.4047
  617MOL0     H85095   2.997  10.191   4.719 -1.0042 -0.3699  2.6094
  617MOL0     H85096   3.177   9.843   4.736  2.7694  0.5411  1.2644
  617MOL0     H85097   3.178   9.964   4.861  1.1415  2.4437 -1.0526
  617MOL0     H85098   3.234  10.148   4.688 -3.0422  0.0050 -0.2356
  617MOL0     H85099   3.357  10.038   4.727  0.2597  0.7751  0.1826
  617MOL0     H85100   3.277   9.886   4.535  2.4017  0.5934  0.6669
  617MOL0     H85101   3.182  10.030   4.477 -0.2690 -3.5741 -1.3778
  617MOL0     H85102   3.392   9.995   4.363 -1.8929 -2.6604  1.0010
  617MOL0     H85103   3.396  10.148   4.443  0.6051 -0.8501 -0.3642
  617MOL0     H85104   3.584  10.099   4.296  0.6911 -0.3258 -0.8321
  617MOL0     H85105   3.797  10.230   4.149  1.9555  0.0557 -0.9462
  617MOL0     H85106   3.726  10.079   4.096  0.0264  2.0372 -0.4231
  617MOL0     H85107   3.898  10.089   4.115  0.8204  1.2846  1.5311
  617MOL0     H85108   4.324   9.825   4.516 -0.1712 -0.9332 -0.1311
  617MOL0     H85109   4.538   9.758   4.439 -0.0236  0.1223  0.0255
  617MOL0     H85110   4.568   9.597   4.213  0.5379 -1.5736 -2.1945
  617MOL0     H85111   4.552   9.678   4.056 -0.6142  3.0969  0.2356
  617MOL0     H85112   4.701   9.497   4.052  3.4700 -1.5468  0.1644
  617MOL0     H85113   4.808   9.634   4.047 -1.2882 -0.5373 -1.5870
  617MOL0     H85114   4.891   9.462   4.203  0.6910  0.5916  1.6430
  617MOL0     H85115   4.734   9.442   4.287 -0.0669  0.5692  1.3673
  617MOL0     H85116   4.763   9.651   4.398  2.0283 -0.0432  3.0259
  617MOL0     H85117   4.897   9.702   4.282 -0.6834 -1.9960 -2.8910
  617MOL0     H85118   4.913   9.478   4.484 -0.8429 -0.4866 -1.0306
  617MOL0     H85119   5.044   9.543   4.397  1.4671  1.9316 -0.9457
  617MOL0     H85120   4.857   9.692   4.589 -0.2005 -0.4167 -0.5456
  617MOL0     H85121   4.978   9.783   4.497  2.8835 -0.5022  1.6013
  617MOL0     H85122   5.075   9.723   4.726  3.3340 -0.0893  0.2759
  617MOL0     H85123   5.172   9.678   4.588  1.7176 -0.9982  2.4302
  617MOL0     H85124   5.114   9.438   4.607  1.3536  2.7765 -0.9403
  617MOL0     H85125   4.988   9.470   4.728  0.3075 -0.3666  0.6087
  617MOL0     H85126   4.481   9.978   4.071 -0.1123 -0.4471 -0.6501
  617MOL0     H85127   4.282  10.051   4.134 -1.1540  0.5219  1.1777
  617MOL0     H85128   3.975   9.967   4.564  0.1691 -0.1911  0.4608
  617MOL0     H85129   3.744   9.977   4.667  1.0443 -1.1768  0.4333
  617MOL0     H85130   1.816   9.922   4.649  0.3832  0.2737  0.9553
  617MOL0     H85131   1.554   9.879   4.688 -1.5001 -1.3868  0.9063
  617MOL0     H85132   1.158   9.757   5.079 -2.7856  0.6943  1.3206
  617MOL0     H85133   0.921   9.762   5.051  2.0438  0.4997  1.0377
  617MOL0     H85134   0.710   9.748   4.965  1.4787 -1.0496 -0.6775
  617MOL0     H85135   0.701   9.920   5.011 -0.7134 -1.1554  0.4970
  617MOL0     H85136   0.551   9.804   4.773 -1.4234  0.9238 -1.0838
  617MOL0     H85137   0.525   9.963   4.844  2.2049  1.3100  2.0101
  617MOL0     H85138   0.458   9.693   4.953  1.8783 -0.5863 -0.5007
  617MOL0     H85139   0.484   9.817   5.066 -0.1104 -0.8309 -0.1273
  617MOL0     H85140   0.301   9.949   4.948  1.4261  0.1131  2.1613
  617MOL0     H85141   0.252   9.801   5.031 -0.6460  2.6834  0.3450
  617MOL0     H85142   0.210   9.703   4.605  3.1234 -0.3077 -0.6897
  617MOL0     H85143   0.961   9.988   4.690  1.8046  1.1116 -0.5585
  617MOL0     H85144   1.269  10.086   4.696 -1.1962  0.8817 -0.3610
  617MOL0     H85145   1.297   9.923   4.624  0.3249 -1.5483  0.6443
  617MOL0     H85146   1.161  10.018   4.576  2.1207  1.1908 -1.6310
  618MOL0     O85147   6.680   7.550   5.920  0.0868 -0.1844 -0.5272
  618MOL0     C85148   6.643   7.462   6.000 -0.8634 -0.4809  0.5696
  618MOL0     O85149   6.670   7.455   6.127  0.0935  0.3517 -0.6814
  618MOL0     C85150   6.771   7.543   6.179  0.5753 -0.1209  0.2863
  618MOL0     C85151   6.908   7.566   6.122 -0.0865 -0.4819  0.4352
  618MOL0     C85152   7.005   7.646   6.186 -0.2272 -1.3668 -0.2686
  618MOL0     C85153   6.976   7.705   6.310 -0.5242  0.2098 -0.1866
  618MOL0     O85154   7.065   7.775   6.388 -0.3755  0.1687  0.0463
  618MOL0     C85155   7.186   7.830   6.338  0.8631  0.0301 -1.1968
  618MOL0     C85156   7.163   7.929   6.237 -0.2536 -0.4088  1.0088
  618MOL0     C85157   7.279   8.019   6.212 -1.0506  0.3013  0.2169
  618MOL0     C85158   7.232   8.135   6.123  0.5496  0.6645  0.0799
  618MOL0     C85159   7.342   8.241   6.094 -0.7376 -0.4912  0.8701
  618MOL0     C85160   7.441   8.200   5.987  0.0494 -0.0396 -0.0401
  618MOL0     C85161   7.567   8.285   5.996  0.3977  0.7364  0.2510
  618MOL0     C85162   7.654   8.244   6.110  0.4712 -0.5674 -0.5865
  618MOL0     N85163   7.786   8.281   6.079 -0.7607  0.5203  0.2630
  618MOL0     C85164   7.879   8.211   6.012  0.3439  0.8231  0.4521
  618MOL0     C85165   7.986   8.298   6.004  0.9539 -0.6300  0.3052
  618MOL0     C85166   8.110   8.263   5.931 -0.6740 -0.4676  0.1235
  618MOL0     C85167   8.212   8.193   6.024  0.2529  0.4104 -0.7862
  618MOL0     C85168   8.232   8.272   6.150 -1.1205 -0.3635  0.1491
  618MOL0     C85169   8.378   8.290   6.198  0.5934  0.1806 -0.1459
  618MOL0     O85170   8.443   8.160   6.200 -0.6267 -0.0386  0.4214
  618MOL0     C85171   8.580   8.171   6.177 -0.0554  0.2443  0.0375
  618MOL0     C85172   8.641   8.066   6.117 -0.1214  1.2815  0.6131
  618MOL0     C85173   8.778   8.053   6.122 -0.4748 -0.1362  0.8667
  618MOL0     C85174   8.844   7.927   6.073 -0.4062  0.2873  0.0262
  618MOL0     C85175   8.865   8.154   6.172  0.7417 -1.4459  0.2414
  618MOL0     C85176   9.009   8.146   6.193 -0.1507 -0.7543  0.4169
  618MOL0     O85177   9.065   8.264   6.206 -0.7341 -0.7230  0.2486
  618MOL0     C85178   9.201   8.275   6.222 -0.3205 -0.9459 -0.6558
  618MOL0     C85179   9.296   8.228   6.129 -0.4098  0.1506  0.6194
  618MOL0     C85180   9.435   8.252   6.151 -0.4864 -0.3835 -0.1014
  618MOL0     C85181   9.476   8.319   6.270  0.0884  0.3767  0.0724
  618MOL0     O85182   9.605   8.313   6.295  0.1133  0.3393  0.4394
  618MOL0     C85183   9.670   8.431   6.327  0.1260 -0.7420  0.5305
  618MOL0     C85184   9.818   8.422   6.361  0.5037 -0.0193  0.5977
  618MOL0     C85185   9.896   8.417   6.221  0.6124 -0.0174 -0.1063
  618MOL0     C85186  10.044   8.397   6.254  0.0908 -0.9461 -0.4957
  618MOL0     C85187  10.135   8.520   6.240 -0.4542 -0.2097  0.2627
  618MOL0     C85188  10.284   8.480   6.252  0.4181 -0.2330 -0.4886
  618MOL0     C85189  10.321   8.435   6.393 -0.0819 -0.5654 -0.8140
  618MOL0     C85190  10.471   8.464   6.418  0.6912  0.4822  0.7964
  618MOL0    Cl85191  10.557   8.379   6.289 -0.1292  0.5638  0.0931
  618MOL0     C85192   9.379   8.372   6.354 -0.7177 -0.2565 -0.9295
  618MOL0     C85193   9.244   8.349   6.336  1.6365 -0.2618  0.0984
  618MOL0     O85194   9.062   8.038   6.211  0.5053  0.0718  0.1487
  618MOL0     C85195   8.798   8.275   6.207  0.1164  0.0556 -0.1519
  618MOL0     C85196   8.659   8.285   6.216 -0.1072  0.5927 -0.7041
  618MOL0     N85197   7.950   8.417   6.066 -0.0440 -0.2822  0.1888
  618MOL0     N85198   7.832   8.403   6.119  0.1156 -0.2167  0.2048
  618MOL0     C85199   6.845   7.674   6.361 -0.6594 -0.9042 -0.3634
  618MOL0     C85200   6.744   7.607   6.299 -0.4520  0.0131  0.2252
  618MOL0     C85201   6.572   7.345   5.946  0.2910  0.2676 -0.7714
  618MOL0     C85202   6.593   7.222   6.020 -0.5391 -0.6417  0.0622
  618MOL0     C85203   6.546   7.105   5.963 -0.2648  1.2262  0.7545
  618MOL0     C85204   6.466   7.093   5.845  0.8178  0.2535  0.2234
  618MOL0     O85205   6.399   6.989   5.796 -0.1929  0.5206  0.0312
  618MOL0     C85206   6.426   6.861   5.855 -0.8703  0.0682 -0.3916
  618MOL0     C85207   6.385   6.747   5.759 -0.7615 -0.0364  0.4055
  618MOL0     C85208   6.483   6.735   5.641 -1.1983  0.3026  0.2737
  618MOL0     C85209   6.454   6.602   5.571 -0.1926 -0.4273  0.0791
  618MOL0     C85210   6.550   6.598   5.462 -0.3305 -1.0882  1.2795
  618MOL0     C85211   6.617   6.590   5.360  0.5864  0.5736  0.9488
  618MOL0     C85212   6.441   7.221   5.786 -0.3478  0.1246 -0.4831
  618MOL0     C85213   6.498   7.343   5.828  0.2154 -0.6152  0.3670
  618MOL0     C85214   6.462   7.466   5.745 -0.9020  0.3340 -0.6234
  618MOL0     H85215   6.942   7.515   6.032 -0.6416 -0.5849  0.2780
  618MOL0     H85216   7.105   7.654   6.144 -1.0131  0.1389 -2.0095
  618MOL0     H85217   7.255   7.754   6.298  0.4900 -0.5518 -0.7401
  618MOL0     H85218   7.237   7.877   6.422  0.8747 -2.2284  0.1295
  618MOL0     H85219   7.151   7.875   6.142  0.4485  0.0590  0.6436
  618MOL0     H85220   7.074   7.986   6.264 -0.0927  0.2415  0.2235
  618MOL0     H85221   7.313   8.055   6.310  1.3134 -0.4265 -0.2814
  618MOL0     H85222   7.355   7.961   6.160 -0.1874  1.6449 -0.0739
  618MOL0     H85223   7.185   8.091   6.035  3.1342 -2.2463 -0.0522
  618MOL0     H85224   7.157   8.186   6.184  0.1423  2.7856 -2.0480
  618MOL0     H85225   7.396   8.271   6.185  4.2651  1.1316 -2.1971
  618MOL0     H85226   7.294   8.330   6.052 -2.1905 -1.7145 -0.1442
  618MOL0     H85227   7.468   8.096   6.007  2.1623  0.5208  0.3099
  618MOL0     H85228   7.405   8.213   5.884 -0.4016 -1.3728 -0.0655
  618MOL0     H85229   7.556   8.394   5.991  0.0268  0.6837 -0.2153
  618MOL0     H85230   7.621   8.264   5.903 -0.0187 -0.5697  0.2884
  618MOL0     H85231   7.618   8.291   6.202  1.4750 -3.2777  1.2852
  618MOL0     H85232   7.655   8.138   6.137  0.7962  0.0681  2.1737
  618MOL0     H85233   7.868   8.110   5.974  4.4723  0.3747  0.0298
  618MOL0     H85234   8.149   8.345   5.869 -0.7261 -1.0754 -0.7210
  618MOL0     H85235   8.085   8.190   5.854  1.9357 -2.3477  0.9031
  618MOL0     H85236   8.173   8.094   6.051 -0.5981  1.5101  2.4163
  618MOL0     H85237   8.308   8.181   5.974  0.4120 -2.7268  0.0542
  618MOL0     H85238   8.200   8.377   6.149  2.7297  1.0273 -2.9751
  618MOL0     H85239   8.178   8.214   6.225 -0.4509 -0.6866  0.3864
  618MOL0     H85240   8.419   8.353   6.119  2.0356  0.3531  0.7058
  618MOL0     H85241   8.392   8.336   6.295  1.5570 -3.9495  1.9277
  618MOL0     H85242   8.582   7.987   6.073 -0.2458 -1.3668  4.9847
  618MOL0     H85243   8.846   7.859   6.159 -0.4697  0.9697  0.5746
  618MOL0     H85244   8.940   7.941   6.021  0.2597 -1.2245  0.7848
  618MOL0     H85245   8.777   7.871   6.007  0.0359  2.3385 -2.3428
  618MOL0     H85246   9.276   8.186   6.031  2.6751 -0.0769 -0.0106
  618MOL0     H85247   9.510   8.219   6.079 -0.4866 -2.4502  0.7713
  618MOL0     H85248   9.652   8.493   6.239 -0.6593 -0.3666  0.9411
  618MOL0     H85249   9.617   8.481   6.408  1.7294  3.2600 -0.6925
  618MOL0     H85250   9.854   8.514   6.409 -0.6286  0.0042  1.4695
  618MOL0     H85251   9.839   8.333   6.421 -1.0581 -0.2402  0.8631
  618MOL0     H85252   9.880   8.504   6.157 -1.2633 -0.0690  0.2541
  618MOL0     H85253   9.860   8.331   6.165  4.0007 -0.6933 -1.4896
  618MOL0     H85254  10.089   8.325   6.186  2.6879  0.2152 -0.1189
  618MOL0     H85255  10.063   8.371   6.358  1.1963 -2.5240 -1.0653
  618MOL0     H85256  10.120   8.557   6.138  1.5763 -1.3239 -0.4795
  618MOL0     H85257  10.106   8.592   6.317 -3.5144 -0.3170 -0.6341
  618MOL0     H85258  10.336   8.571   6.221  1.0708  0.4705  2.4045
  618MOL0     H85259  10.308   8.402   6.179 -1.5777  0.2923 -1.7660
  618MOL0     H85260  10.296   8.329   6.407 -0.6587 -0.7281 -2.7487
  618MOL0     H85261  10.271   8.486   6.475 -1.9464 -2.0088 -0.9813
  618MOL0     H85262  10.508   8.426   6.514  1.6039  2.7614  1.4196
  618MOL0     H85263  10.490   8.571   6.406  1.6405  0.2285 -0.0962
  618MOL0     H85264   9.412   8.433   6.438  2.7111 -2.2732 -0.6297
  618MOL0     H85265   9.173   8.398   6.402  0.9764 -0.6001 -0.3526
  618MOL0     H85266   8.853   8.366   6.226  0.7700 -0.2573 -0.5426
  618MOL0     H85267   8.607   8.375   6.248  0.4352 -0.1541  2.6979
  618MOL0     H85268   6.823   7.724   6.455  1.3793  1.3800 -1.0042
  618MOL0     H85269   6.651   7.596   6.355 -1.2741  0.5290 -1.0027
  618MOL0     H85270   6.663   7.230   6.103  1.0586  0.7070 -1.3322
  618MOL0     H85271   6.571   7.014   6.017  1.0171 -0.4064 -2.3326
  618MOL0     H85272   6.533   6.845   5.874 -1.5134 -1.9090  2.2571
  618MOL0     H85273   6.375   6.846   5.951 -0.1006  0.0360  0.0256
  618MOL0     H85274   6.287   6.771   5.718 -0.9211 -0.2234  0.6756
  618MOL0     H85275   6.386   6.658   5.822 -2.0044 -0.8330 -0.6407
  618MOL0     H85276   6.470   6.817   5.570  2.2088  1.1103  0.3726
  618MOL0     H85277   6.590   6.729   5.666 -0.3690  1.5590 -2.5645
  618MOL0     H85278   6.349   6.610   5.544  0.5267  1.7325 -2.5263
  618MOL0     H85279   6.469   6.513   5.633 -1.1953 -2.2372 -2.1055
  618MOL0     H85280   6.674   6.570   5.272 -0.5406  0.6561  0.1815
  618MOL0     H85281   6.369   7.221   5.705  1.8882 -1.1949 -2.6257
  618MOL0     H85282   6.384   7.443   5.672 -0.7328  0.5181 -0.8672
  618MOL0     H85283   6.431   7.548   5.810 -0.8701 -0.2832  0.1862
  618MOL0     H85284   6.544   7.503   5.682  0.2296  1.3060  1.3151
  619MOL0     O85285   8.871   6.849   2.401 -0.1008  0.1662  0.3412
  619MOL0     C85286   8.838   6.807   2.512  0.5215 -0.7664 -0.4720
  619MOL0     O85287   8.708   6.800   2.557 -0.2815  0.1145 -0.4012
  619MOL0     C85288   8.592   6.864   2.508 -1.5133 -0.0461  0.3444
  619MOL0     C85289   8.600   6.969   2.406 -0.0669  0.2613  0.4869
  619MOL0     C85290   8.483   7.027   2.359 -0.3841  0.6289  0.0283
  619MOL0     C85291   8.361   6.991   2.411  0.3814 -0.8389 -0.3856
  619MOL0     O85292   8.257   7.060   2.358 -0.7672 -0.3827  0.2017
  619MOL0     C85293   8.125   7.028   2.396  0.0427  0.6802 -0.0537
  619MOL0     C85294   8.045   7.155   2.353 -0.0869 -0.4893  0.1180
  619MOL0     C85295   7.894   7.142   2.388  0.3868 -0.5291  0.0494
  619MOL0     C85296   7.810   7.236   2.306 -0.0211  0.4060  0.5484
  619MOL0     C85297   7.669   7.235   2.348 -0.0582 -0.0206 -0.1748
  619MOL0     C85298   7.581   7.334   2.269 -0.1019 -0.1781 -0.7665
  619MOL0     C85299   7.433   7.294   2.236 -0.4945 -0.2073  1.3601
  619MOL0     C85300   7.372   7.397   2.148 -0.4269  0.0018  0.7596
  619MOL0     N85301   7.328   7.515   2.227 -0.2338 -0.0190  1.1508
  619MOL0     C85302   7.250   7.611   2.172  0.1469 -0.0036  0.0061
  619MOL0     C85303   7.238   7.711   2.262 -0.6193 -0.2405 -0.6584
  619MOL0     C85304   7.163   7.836   2.235 -1.2263  0.7172 -0.2593
  619MOL0     C85305   7.211   7.950   2.327  0.0952 -0.2574 -0.0573
  619MOL0     C85306   7.346   7.996   2.275 -0.8600  0.4246  1.5208
  619MOL0     C85307   7.421   8.084   2.368  0.3407  0.0357 -0.3585
  619MOL0     O85308   7.550   8.118   2.324 -0.4714  0.2384  0.2110
  619MOL0     C85309   7.659   8.042   2.323 -0.4869 -0.1910 -0.2556
  619MOL0     C85310   7.660   7.912   2.353 -0.5027 -0.0062 -0.2556
  619MOL0     C85311   7.772   7.831   2.336 -0.2590  1.1200 -0.4192
  619MOL0     C85312   7.758   7.681   2.360 -0.1084  0.3983 -0.1540
  619MOL0     C85313   7.893   7.891   2.295 -0.4542  0.0020  0.2155
  619MOL0     C85314   8.025   7.819   2.296 -0.0628 -0.4659 -0.5383
  619MOL0     O85315   8.045   7.707   2.376  0.0485  0.4827 -0.2636
  619MOL0     C85316   8.166   7.660   2.413 -0.4515  0.4401 -0.0016
  619MOL0     C85317   8.191   7.523   2.396  0.8250 -0.5345  0.1855
  619MOL0     C85318   8.304   7.468   2.451 -0.6005  0.2144 -0.3670
  619MOL0     C85319   8.405   7.550   2.501  1.0329  0.5018 -0.7022
  619MOL0     O85320   8.515   7.481   2.530  0.2263 -0.5976  0.2861
  619MOL0     C85321   8.630   7.557   2.564 -0.8798  0.3499  0.0648
  619MOL0     C85322   8.737   7.461   2.592  0.0560  0.3167  0.1678
  619MOL0     C85323   8.788   7.390   2.460 -0.3052  0.1688 -0.1595
  619MOL0     C85324   8.909   7.301   2.479 -0.5411 -0.1192  0.0747
  619MOL0     C85325   8.944   7.250   2.343  0.0845 -0.9449  0.2387
  619MOL0     C85326   9.062   7.155   2.357  0.1054 -0.5266  1.5517
  619MOL0     C85327   9.105   7.094   2.223  0.6630 -0.2988  0.6258
  619MOL0     C85328   9.141   7.201   2.108 -0.3870  0.5646 -0.5612
  619MOL0    Cl85329   9.285   7.288   2.152 -0.3724 -0.0826  0.1017
  619MOL0     C85330   8.385   7.684   2.505  0.5149 -0.1243 -0.4171
  619MOL0     C85331   8.262   7.740   2.470  0.6529 -0.0659 -0.4047
  619MOL0     O85332   8.115   7.866   2.229  0.1503  0.0086 -0.1193
  619MOL0     C85333   7.895   8.022   2.272 -1.0284  0.0493  0.0513
  619MOL0     C85334   7.774   8.097   2.284 -0.7969 -0.3739  0.5881
  619MOL0     N85335   7.296   7.661   2.376 -0.0360  0.3562  0.0303
  619MOL0     N85336   7.356   7.545   2.360 -0.5317 -0.3977  0.0876
  619MOL0     C85337   8.354   6.886   2.491 -0.1814  0.7878 -0.0037
  619MOL0     C85338   8.467   6.814   2.545 -0.4388 -0.6258  0.3474
  619MOL0     C85339   8.945   6.750   2.612 -0.5464  0.1492  0.2823
  619MOL0     C85340   8.901   6.710   2.735 -0.2868 -0.5255  0.2042
  619MOL0     C85341   8.986   6.664   2.828 -0.1367 -0.8058  0.1183
  619MOL0     C85342   9.125   6.642   2.795 -0.2298  0.5865 -1.5923
  619MOL0     O85343   9.220   6.607   2.884  0.0474  0.2594 -0.3495
  619MOL0     C85344   9.184   6.558   3.014  0.2661 -0.2041  0.8020
  619MOL0     C85345   9.297   6.556   3.103  0.1571 -0.0736 -0.9163
  619MOL0     C85346   9.410   6.468   3.047 -0.4167  0.3490  0.3027
  619MOL0     C85347   9.393   6.317   3.050  0.7609 -0.4051  0.2044
  619MOL0     C85348   9.403   6.255   3.184 -0.7150 -0.0742 -0.0176
  619MOL0     C85349   9.411   6.203   3.292  0.1158  0.5073 -0.1362
  619MOL0     C85350   9.172   6.679   2.674  0.0217  0.3273 -0.0828
  619MOL0     C85351   9.080   6.733   2.584  0.4485 -0.0726  0.7758
  619MOL0     C85352   9.149   6.791   2.462  0.5565  0.2044  0.2423
  619MOL0     H85353   8.692   7.016   2.372 -0.8407  1.1668 -0.4118
  619MOL0     H85354   8.481   7.112   2.291  1.1228  0.9635  0.3816
  619MOL0     H85355   8.105   7.010   2.502  0.1202 -1.4346 -0.3522
  619MOL0     H85356   8.086   6.944   2.338 -1.1714 -0.0595  1.7523
  619MOL0     H85357   8.087   7.243   2.403  1.9018 -0.3141 -1.7218
  619MOL0     H85358   8.069   7.179   2.249  2.0395  2.4987  1.1592
  619MOL0     H85359   7.859   7.042   2.362  1.6606 -1.4110  1.5209
  619MOL0     H85360   7.868   7.150   2.494 -1.9244 -1.1981 -0.4272
  619MOL0     H85361   7.847   7.335   2.333 -1.2203  0.5735  1.6434
  619MOL0     H85362   7.820   7.230   2.197 -0.3176  2.7004  0.3591
  619MOL0     H85363   7.658   7.261   2.454 -2.6466  2.3182 -0.9181
  619MOL0     H85364   7.624   7.137   2.329 -0.8854  0.7472 -2.6135
  619MOL0     H85365   7.575   7.426   2.329 -0.8482 -1.1043  0.6303
  619MOL0     H85366   7.629   7.342   2.171  2.1164 -0.0205  0.2921
  619MOL0     H85367   7.382   7.282   2.331 -1.3978 -0.7647  0.8206
  619MOL0     H85368   7.433   7.204   2.174  2.8033  1.4056 -1.3361
  619MOL0     H85369   7.451   7.429   2.080 -1.2326 -0.0794 -0.2343
  619MOL0     H85370   7.293   7.356   2.084 -0.6659  0.5311  0.7099
  619MOL0     H85371   7.200   7.608   2.076 -1.8828 -0.3589  1.0192
  619MOL0     H85372   7.057   7.812   2.250 -1.5874  1.5014 -1.4538
  619MOL0     H85373   7.183   7.870   2.133 -0.8815  3.4084  0.6328
  619MOL0     H85374   7.136   8.030   2.317 -0.6697 -1.0947 -1.3616
  619MOL0     H85375   7.207   7.914   2.430 -0.2672 -2.5863 -0.8353
  619MOL0     H85376   7.411   7.908   2.267 -0.8794  0.3918  1.7166
  619MOL0     H85377   7.344   8.045   2.177 -1.3694  0.4376  1.5382
  619MOL0     H85378   7.359   8.173   2.387 -0.8896 -1.5082  3.9779
  619MOL0     H85379   7.442   8.026   2.458  0.4158  0.4860 -0.0849
  619MOL0     H85380   7.575   7.860   2.398 -0.1271  1.6862  2.6214
  619MOL0     H85381   7.788   7.657   2.462 -1.0066 -3.0260 -0.6019
  619MOL0     H85382   7.827   7.625   2.296  0.2991  1.3243 -0.5528
  619MOL0     H85383   7.654   7.657   2.339 -0.1698  0.6833 -0.1839
  619MOL0     H85384   8.114   7.468   2.343  0.8076  0.0300 -0.3842
  619MOL0     H85385   8.329   7.365   2.432  2.3482  0.5958  0.9485
  619MOL0     H85386   8.652   7.620   2.478 -1.4526 -2.0936 -1.9868
  619MOL0     H85387   8.610   7.624   2.649  1.3904  2.7037 -1.1094
  619MOL0     H85388   8.827   7.515   2.622  0.8544  0.1240 -1.6987
  619MOL0     H85389   8.702   7.384   2.661 -1.1316 -1.2168 -2.0119
  619MOL0     H85390   8.802   7.466   2.383  0.6526  2.1957  1.8750
  619MOL0     H85391   8.701   7.330   2.429  0.2289  0.2720 -1.9626
  619MOL0     H85392   8.879   7.216   2.541 -0.2476 -3.7353 -4.2792
  619MOL0     H85393   8.988   7.363   2.523  1.0754 -0.3763 -2.3261
  619MOL0     H85394   8.859   7.197   2.300 -0.5799 -1.2381  1.8284
  619MOL0     H85395   8.968   7.334   2.278  2.6325 -1.3750  0.4819
  619MOL0     H85396   9.023   7.077   2.424  2.2587 -0.6267  2.7949
  619MOL0     H85397   9.149   7.198   2.409 -1.2624  1.2067  2.5265
  619MOL0     H85398   9.025   7.034   2.179  0.0185 -0.3739  1.8719
  619MOL0     H85399   9.184   7.021   2.248 -1.2337 -2.4340  0.7444
  619MOL0     H85400   9.059   7.268   2.081 -2.9292 -1.6673  1.0335
  619MOL0     H85401   9.162   7.147   2.015 -3.1497 -1.3408 -0.2113
  619MOL0     H85402   8.470   7.748   2.527 -0.4499  0.2897  2.5679
  619MOL0     H85403   8.244   7.847   2.470 -0.1636 -0.1502  2.0509
  619MOL0     H85404   7.978   8.084   2.241  0.4095 -1.2380  1.1454
  619MOL0     H85405   7.778   8.205   2.267  0.5341 -0.2460  1.5349
  619MOL0     H85406   8.257   6.857   2.531 -0.6465  2.5600  0.2187
  619MOL0     H85407   8.457   6.731   2.614  0.0629  0.3596  1.6283
  619MOL0     H85408   8.796   6.719   2.761 -0.0381 -0.6230  1.2749
  619MOL0     H85409   8.952   6.627   2.924 -0.7134 -1.8662 -0.4777
  619MOL0     H85410   9.105   6.620   3.058 -0.4989  0.5948 -1.5614
  619MOL0     H85411   9.133   6.461   3.010  1.7905 -1.0017 -0.8742
  619MOL0     H85412   9.261   6.521   3.201  1.4329 -1.3944 -0.8815
  619MOL0     H85413   9.336   6.658   3.114  2.5095 -1.1450  2.2044
  619MOL0     H85414   9.442   6.510   2.952 -0.3464  0.8597  0.5472
  619MOL0     H85415   9.497   6.477   3.114  0.6980  0.7720 -1.1541
  619MOL0     H85416   9.488   6.289   3.003  1.0401 -0.5752  0.8554
  619MOL0     H85417   9.314   6.266   2.994 -0.0812  1.3236 -0.2463
  619MOL0     H85418   9.427   6.152   3.385  6.0683 -1.2065 -1.6272
  619MOL0     H85419   9.279   6.677   2.659  0.1964 -0.2644  1.1802
  619MOL0     H85420   9.132   6.900   2.462  1.4402  0.3829 -2.1195
  619MOL0     H85421   9.258   6.780   2.460  0.4925 -0.2842 -1.4588
  619MOL0     H85422   9.114   6.744   2.371 -0.6410 -0.2145  0.9029
  620MOL0     O85423   3.884   9.635  10.438 -0.3876  0.7863  0.2358
  620MOL0     C85424   3.854   9.748  10.471 -1.4681 -0.1582  0.2446
  620MOL0     O85425   3.946   9.841  10.522 -0.1182 -0.1112  0.3178
  620MOL0     C85426   4.077   9.805  10.524 -0.5874 -0.5944 -0.0166
  620MOL0     C85427   4.147   9.777  10.407 -0.1628  0.5199 -0.5018
  620MOL0     C85428   4.282   9.731  10.405 -0.1030  0.7848  0.1407
  620MOL0     C85429   4.350   9.712  10.537  0.6815 -0.0452 -0.5738
  620MOL0     O85430   4.473   9.662  10.563  0.4099  0.9340  0.1189
  620MOL0     C85431   4.561   9.635  10.451 -0.3784  0.1077 -0.8674
  620MOL0     C85432   4.694   9.576  10.503  0.1005  0.3375 -0.6685
  620MOL0     C85433   4.814   9.661  10.479 -0.1470 -0.6699 -0.1089
  620MOL0     C85434   4.939   9.601  10.532 -0.1162 -0.4975  0.3051
  620MOL0     C85435   5.070   9.680  10.511 -0.3200 -0.3247  0.4394
  620MOL0     C85436   5.176   9.598  10.583  0.5924 -0.8117  0.4494
  620MOL0     C85437   5.312   9.675  10.581  0.4179  0.0030 -0.4327
  620MOL0     C85438   5.436   9.592  10.634  0.3838 -1.6821 -0.1460
  620MOL0     N85439   5.556   9.677  10.661 -0.2956 -0.2065  0.2923
  620MOL0     C85440   5.639   9.744  10.573 -0.2956  0.0271  0.1029
  620MOL0     C85441   5.710   9.826  10.655 -0.5843  0.3831 -0.0708
  620MOL0     C85442   5.817   9.917  10.595 -0.2716  0.8541  0.1196
  620MOL0     C85443   5.968   9.876  10.637 -0.0133  0.1733 -0.4155
  620MOL0     C85444   6.079   9.950  10.560 -0.3242 -0.1603  0.9720
  620MOL0     C85445   6.201   9.968  10.648 -0.1655  0.2327 -0.5241
  620MOL0     O85446   6.238   9.841  10.708  0.3510  0.1584 -0.0675
  620MOL0     C85447   6.336   9.844  10.810 -0.9284 -0.3137  0.2476
  620MOL0     C85448   6.379   9.960  10.880 -0.5431  0.8003  0.1119
  620MOL0     C85449   6.496   9.955  10.960 -0.1702  0.2734 -0.3787
  620MOL0     C85450   6.522  10.079  11.041  0.4884 -0.1155  0.9575
  620MOL0     C85451   6.559   9.826  10.991 -0.6220  0.0627  0.0923
  620MOL0     C85452   6.694   9.825  11.055  0.5327  0.1800 -0.6429
  620MOL0     O85453   6.728   9.699  11.105 -0.2249  0.5931 -0.3659
  620MOL0     C85454   6.845   9.688  11.182 -0.4066 -0.5479  0.0180
  620MOL0     C85455   6.894   9.785  11.273  0.2617 -0.4993 -0.2797
  620MOL0     C85456   7.031   9.770  11.326 -0.3790  0.2343 -0.5020
  620MOL0     C85457   7.104   9.650  11.292 -1.2993  0.4447  0.5453
  620MOL0     O85458   7.229   9.624  11.357 -0.5512  0.2847 -0.5895
  620MOL0     C85459   7.266   9.676  11.483  0.9573 -0.0422 -0.8006
  620MOL0     C85460   7.413   9.646  11.510 -0.1332 -0.0337  0.7255
  620MOL0     C85461   7.458   9.737  11.619 -0.0649 -0.5663  0.5638
  620MOL0     C85462   7.597   9.715  11.667 -0.5039  0.2135  0.1205
  620MOL0     C85463   7.720   9.716  11.567  0.6761 -0.3766 -0.1105
  620MOL0     C85464   7.839   9.681  11.647 -0.0250 -0.2902  0.1122
  620MOL0     C85465   7.961   9.665  11.564  0.2721  0.6910 -0.8592
  620MOL0     C85466   8.081   9.589  11.630 -0.7415  0.8833  0.1855
  620MOL0    Cl85467   8.109   9.655  11.785  0.3244  0.3289  0.1959
  620MOL0     C85468   7.052   9.551  11.212 -0.0411 -1.2295 -0.7134
  620MOL0     C85469   6.918   9.569  11.165 -0.6687 -0.1976 -0.7694
  620MOL0     O85470   6.774   9.915  11.038  0.4774 -0.2173 -0.4305
  620MOL0     C85471   6.511   9.710  10.928  0.1614 -0.3018 -0.0835
  620MOL0     C85472   6.404   9.727  10.835  0.0484  0.1047  0.6574
  620MOL0     N85473   5.678   9.800  10.783 -0.2106 -0.3260 -0.3592
  620MOL0     N85474   5.587   9.710  10.788 -0.1001 -0.1217  0.4962
  620MOL0     C85475   4.275   9.748  10.653 -0.3374 -0.8408  0.5068
  620MOL0     C85476   4.144   9.796  10.644  0.5555 -0.4205  0.8162
  620MOL0     C85477   3.723   9.806  10.442  0.8977  0.6579  0.3702
  620MOL0     C85478   3.667   9.899  10.538  0.7415 -0.2962 -0.3847
  620MOL0     C85479   3.540   9.950  10.533  0.0752 -0.0071  0.3668
  620MOL0     C85480   3.462   9.908  10.420 -0.6682 -0.1319 -0.1152
  620MOL0     O85481   3.330   9.944  10.426 -0.2227 -0.6057 -0.2262
  620MOL0     C85482   3.234   9.919  10.330  0.4585 -0.6525  0.1997
  620MOL0     C85483   3.182   9.769  10.348 -0.3452 -0.1754  0.6976
  620MOL0     C85484   3.038   9.753  10.289 -0.1087  0.5012 -0.0412
  620MOL0     C85485   2.993   9.607  10.276  0.1896 -0.1755  0.3986
  620MOL0     C85486   2.851   9.595  10.255 -0.1426 -0.2521 -0.4035
  620MOL0     C85487   2.738   9.585  10.225  0.0364 -0.8333  0.0124
  620MOL0     C85488   3.512   9.815  10.329  0.7771  0.1646  0.8463
  620MOL0     C85489   3.640   9.763  10.333 -0.0089 -0.0450  0.8918
  620MOL0     C85490   3.686   9.676  10.218 -0.1317 -0.8144  0.3587
  620MOL0     H85491   4.094   9.780  10.312  0.0667  0.0852 -0.6470
  620MOL0     H85492   4.343   9.708  10.318 -0.5063  0.2088  0.0051
  620MOL0     H85493   4.584   9.732  10.406  1.7465  1.3069  2.4531
  620MOL0     H85494   4.530   9.559  10.378 -3.0364 -0.1802  0.4539
  620MOL0     H85495   4.682   9.555  10.610 -1.6672 -0.2620 -0.9449
  620MOL0     H85496   4.690   9.482  10.447 -1.2635  0.5053 -0.8926
  620MOL0     H85497   4.828   9.674  10.371  0.4874 -0.5138 -0.0142
  620MOL0     H85498   4.794   9.755  10.533 -0.8604  0.1060 -1.6511
  620MOL0     H85499   4.925   9.577  10.637 -2.3082  0.2486  0.2401
  620MOL0     H85500   4.939   9.505  10.480  0.8512  0.0458 -0.7723
  620MOL0     H85501   5.074   9.781  10.552  2.8124 -1.3062  2.9362
  620MOL0     H85502   5.094   9.677  10.404  2.3410 -2.6507  0.9652
  620MOL0     H85503   5.151   9.584  10.689 -2.2764 -0.3641 -0.1060
  620MOL0     H85504   5.180   9.496  10.544  0.1896 -0.7597  0.2731
  620MOL0     H85505   5.296   9.764  10.642 -0.8419 -1.1182  0.9453
  620MOL0     H85506   5.331   9.721  10.484 -1.0173 -1.0411 -1.2380
  620MOL0     H85507   5.411   9.543  10.729 -0.3368 -0.1414  0.4817
  620MOL0     H85508   5.465   9.519  10.558  0.3372 -0.5642 -1.2585
  620MOL0     H85509   5.638   9.755  10.465  2.8354  4.8177  0.2554
  620MOL0     H85510   5.802  10.016  10.639  0.1898 -0.1751  2.7469
  620MOL0     H85511   5.814   9.913  10.486  1.5383  0.7241  0.0519
  620MOL0     H85512   5.980   9.895  10.744  2.1397 -0.5131 -0.5011
  620MOL0     H85513   5.991   9.771  10.621  1.5350  0.4250 -0.0099
  620MOL0     H85514   6.118   9.901  10.471  3.1192 -1.2963  2.8991
  620MOL0     H85515   6.042  10.050  10.536  0.1897  0.2238  1.7233
  620MOL0     H85516   6.290   9.995  10.591  1.3642 -1.1533  1.1030
  620MOL0     H85517   6.170  10.043  10.722  1.1779  1.4424 -1.1364
  620MOL0     H85518   6.316  10.049  10.882 -2.1365 -0.2515 -0.9117
  620MOL0     H85519   6.588  10.059  11.126  0.5358 -3.3929  0.2898
  620MOL0     H85520   6.426  10.124  11.069  0.5100  1.7073 -1.6010
  620MOL0     H85521   6.580  10.146  10.977 -0.7012 -0.7789 -0.8914
  620MOL0     H85522   6.835   9.873  11.299  1.5078  0.3729 -0.3208
  620MOL0     H85523   7.079   9.850  11.380 -2.5983  0.2362  1.6363
  620MOL0     H85524   7.251   9.784  11.486  1.6012  0.0448 -0.5513
  620MOL0     H85525   7.204   9.636  11.564  1.7768  0.4996  0.1085
  620MOL0     H85526   7.428   9.541  11.537 -2.2437 -0.3942  0.6167
  620MOL0     H85527   7.476   9.657  11.420 -1.3880 -0.4679 -0.2314
  620MOL0     H85528   7.375   9.742  11.691 -0.5880  0.9297 -0.0896
  620MOL0     H85529   7.463   9.842  11.586 -1.8334  0.1574  2.3474
  620MOL0     H85530   7.608   9.623  11.726 -1.4841 -0.1228 -0.2015
  620MOL0     H85531   7.611   9.795  11.740 -2.0487  2.7946 -2.2283
  620MOL0     H85532   7.705   9.644  11.486 -0.8663 -2.3691  1.7944
  620MOL0     H85533   7.729   9.818  11.530  0.5890  0.0661  1.0394
  620MOL0     H85534   7.821   9.589  11.703  2.2628  1.0695  3.4320
  620MOL0     H85535   7.843   9.759  11.724 -0.1801 -0.5386  0.3754
  620MOL0     H85536   7.996   9.764  11.534  0.0223  0.5108 -1.7611
  620MOL0     H85537   7.934   9.610  11.474 -0.6965 -0.7535  0.2700
  620MOL0     H85538   8.164   9.596  11.560 -1.7270  0.7630 -1.0422
  620MOL0     H85539   8.061   9.482  11.643  2.6751  0.3414  2.2275
  620MOL0     H85540   7.108   9.459  11.211  1.3901 -0.3814 -2.3016
  620MOL0     H85541   6.874   9.484  11.113 -0.1344 -1.8517  1.3701
  620MOL0     H85542   6.562   9.615  10.940 -0.0964 -0.3532  0.6740
  620MOL0     H85543   6.366   9.635  10.792 -1.7835 -0.3937  3.1271
  620MOL0     H85544   4.319   9.739  10.752 -0.3401 -0.3187  0.5576
  620MOL0     H85545   4.083   9.828  10.728  1.7752 -0.8970  1.9150
  620MOL0     H85546   3.723   9.923  10.628  1.8627 -0.5575 -0.9960
  620MOL0     H85547   3.483  10.014  10.600 -0.9436 -0.3855 -0.1079
  620MOL0     H85548   3.150   9.989  10.342 -2.1600 -3.5779  0.4416
  620MOL0     H85549   3.267   9.943  10.229 -2.5367  1.6516 -0.3768
  620MOL0     H85550   3.185   9.750  10.455 -2.1219  4.2912  1.7615
  620MOL0     H85551   3.252   9.696  10.305  0.2219  0.7852 -0.0397
  620MOL0     H85552   2.976   9.812  10.357  3.0637 -0.1956  3.8278
  620MOL0     H85553   3.035   9.801  10.190 -1.1088  1.4385  0.4250
  620MOL0     H85554   3.033   9.553  10.362 -1.4604  1.5587  2.3621
  620MOL0     H85555   3.037   9.566  10.184  1.6374 -0.1759  1.0587
  620MOL0     H85556   2.631   9.575  10.220  0.0759 -1.7414  0.6851
  620MOL0     H85557   3.447   9.788  10.246  1.1496 -0.4066  0.7409
  620MOL0     H85558   3.792   9.682  10.192 -0.4130  1.0652 -0.4868
  620MOL0     H85559   3.664   9.572  10.242  1.0194 -1.8219 -2.5368
  620MOL0     H85560   3.628   9.707  10.131 -2.4446  0.0760  2.1029
  621MOL0     O85561   0.563   4.596  11.197  0.1390  0.0117 -0.0381
  621MOL0     C85562   0.513   4.518  11.282  0.5753 -0.3541  0.5721
  621MOL0     O85563   0.577   4.458  11.389  0.5064  0.2695 -1.2373
  621MOL0     C85564   0.697   4.505  11.440 -0.1129 -0.2949 -0.8627
  621MOL0     C85565   0.811   4.423  11.458 -0.5336 -0.4591  0.1154
  621MOL0     C85566   0.929   4.477  11.514 -0.1861 -0.2790  0.1407
  621MOL0     C85567   0.932   4.612  11.528 -0.0282  0.2268  0.7126
  621MOL0     O85568   1.053   4.654  11.583  0.7623  0.7336  0.2511
  621MOL0     C85569   1.054   4.763  11.677  0.6173  0.3288  0.2832
  621MOL0     C85570   1.182   4.752  11.760  0.7152 -0.1746 -0.0428
  621MOL0     C85571   1.198   4.873  11.856 -0.7501 -0.0140 -0.2931
  621MOL0     C85572   1.094   4.876  11.970 -0.1971 -0.1557  0.7630
  621MOL0     C85573   1.117   5.007  12.044 -0.4817  0.6024  0.6019
  621MOL0     C85574   1.255   5.021  12.109 -0.3970 -0.2220  0.4684
  621MOL0     C85575   1.271   5.121  12.231 -0.4335  0.2961 -0.2109
  621MOL0     C85576   1.404   5.114  12.299 -0.9552 -0.2619 -0.4765
  621MOL0     N85577   1.518   5.146  12.216  0.3280 -0.2305 -0.1322
  621MOL0     C85578   1.598   5.053  12.152  0.0611 -0.3728  0.3167
  621MOL0     C85579   1.687   5.138  12.089 -0.0686  0.0782 -0.7123
  621MOL0     C85580   1.782   5.087  11.988 -1.2832 -0.4782 -1.0298
  621MOL0     C85581   1.811   5.182  11.873  0.0565  0.1385 -0.1551
  621MOL0     C85582   1.938   5.149  11.797 -0.4992  0.0200 -0.4797
  621MOL0     C85583   2.064   5.175  11.873  0.5662  0.1355 -0.0390
  621MOL0     O85584   2.177   5.160  11.794 -1.4919  0.0683 -0.0500
  621MOL0     C85585   2.296   5.217  11.833 -0.1945 -0.0200  0.0555
  621MOL0     C85586   2.329   5.252  11.960  0.2766  0.2348 -0.2746
  621MOL0     C85587   2.461   5.291  11.993  0.3511  0.1645 -0.1388
  621MOL0     C85588   2.487   5.330  12.138 -0.2537  0.5985  0.4289
  621MOL0     C85589   2.554   5.305  11.885  0.0165 -0.2612 -0.5171
  621MOL0     C85590   2.691   5.355  11.905  0.3830 -0.4869  0.0525
  621MOL0     O85591   2.728   5.458  11.822 -0.1771  0.7014  0.4669
  621MOL0     C85592   2.858   5.509  11.812 -0.3011  0.4109  0.1877
  621MOL0     C85593   2.883   5.644  11.796 -0.0850  0.4853 -1.1849
  621MOL0     C85594   3.002   5.700  11.823 -0.3502  0.5682 -0.5396
  621MOL0     C85595   3.119   5.617  11.850  0.4893 -0.0731  0.9088
  621MOL0     O85596   3.243   5.682  11.867  0.1904 -0.5164  0.5868
  621MOL0     C85597   3.293   5.682  12.001 -0.1188 -0.4442  0.0170
  621MOL0     C85598   3.442   5.707  11.993 -0.0374 -0.2562 -0.6160
  621MOL0     C85599   3.500   5.730  12.134  0.3481  0.5800  1.4240
  621MOL0     C85600   3.634   5.656  12.144 -0.2901 -0.0003 -0.0003
  621MOL0     C85601   3.699   5.649  12.275 -0.4726  0.0401 -0.3869
  621MOL0     C85602   3.838   5.579  12.270 -0.0351  0.5283 -0.9450
  621MOL0     C85603   3.825   5.426  12.271 -0.5413  0.4519  0.0977
  621MOL0     C85604   3.960   5.343  12.273 -0.5498 -0.3632  0.6198
  621MOL0    Cl85605   4.068   5.405  12.136 -0.0675 -0.0704 -0.2077
  621MOL0     C85606   3.098   5.479  11.858 -0.3372  0.8625  0.9438
  621MOL0     C85607   2.967   5.429  11.837  0.3412  1.0588  0.2820
  621MOL0     O85608   2.758   5.305  11.988 -0.1215  0.8698 -0.3809
  621MOL0     C85609   2.507   5.294  11.753 -0.4000  0.5937 -0.1322
  621MOL0     C85610   2.377   5.245  11.724 -0.1508 -0.2382  0.1314
  621MOL0     N85611   1.659   5.269  12.115 -0.0415  0.4487  0.2631
  621MOL0     N85612   1.556   5.277  12.192  0.3119 -0.4895 -0.2716
  621MOL0     C85613   0.824   4.687  11.511  0.8829  0.0891 -0.9664
  621MOL0     C85614   0.700   4.641  11.469 -0.8086  0.5247 -0.4575
  621MOL0     C85615   0.371   4.473  11.255 -0.3467  0.3359 -0.7115
  621MOL0     C85616   0.339   4.347  11.309  0.5299 -0.5280  0.8445
  621MOL0     C85617   0.202   4.309  11.302 -0.3235 -0.6603 -0.3767
  621MOL0     C85618   0.104   4.377  11.224 -1.2186  0.8017 -0.0155
  621MOL0     O85619  -0.020   4.333  11.215  0.5073 -0.1796 -0.4306
  621MOL0     C85620  -0.051   4.314  11.074  0.3206  0.1232 -0.3428
  621MOL0     C85621  -0.162   4.212  11.064 -0.6981  0.1765 -0.4904
  621MOL0     C85622  -0.103   4.071  11.094  0.1369  0.4555  0.1244
  621MOL0     C85623  -0.221   3.968  11.089  0.5018 -0.6844  0.8102
  621MOL0     C85624  -0.307   3.966  11.205  0.9950  0.1750  0.1463
  621MOL0     C85625  -0.381   3.978  11.302 -0.1521  0.1938  0.3841
  621MOL0     C85626   0.153   4.488  11.150 -0.1839 -0.3127 -0.7257
  621MOL0     C85627   0.276   4.542  11.178 -0.0410  0.2236  0.2267
  621MOL0     C85628   0.295   4.674  11.109 -0.5626 -0.6259 -0.4884
  621MOL0     H85629   0.816   4.318  11.432 -1.4757 -0.2899 -0.8430
  621MOL0     H85630   1.017   4.413  11.523  0.3535  0.3649 -0.3721
  621MOL0     H85631   0.963   4.750  11.736  0.3499  1.9643  0.2801
  621MOL0     H85632   1.036   4.858  11.626  1.3548  0.8207  0.9001
  621MOL0     H85633   1.171   4.656  11.812 -0.7201  0.6288  1.2159
  621MOL0     H85634   1.274   4.750  11.702  1.5946  0.4190  1.2914
  621MOL0     H85635   1.300   4.875  11.896 -0.5540  0.4378 -0.7987
  621MOL0     H85636   1.188   4.968  11.802  2.2475  0.4635 -0.2075
  621MOL0     H85637   0.991   4.884  11.935  0.1084  2.1633  0.2807
  621MOL0     H85638   1.102   4.798  12.047  0.8713 -1.0628 -0.2209
  621MOL0     H85639   1.033   5.016  12.113 -2.2027 -0.8725 -1.1337
  621MOL0     H85640   1.106   5.082  11.965  1.3144  1.4724  1.1369
  621MOL0     H85641   1.278   4.919  12.141  2.1761  0.1256 -0.0264
  621MOL0     H85642   1.326   5.049  12.030 -1.3878 -1.2668 -0.8442
  621MOL0     H85643   1.183   5.105  12.294 -2.5543  0.3018 -2.9540
  621MOL0     H85644   1.246   5.222  12.197  0.1317  0.8064  0.8399
  621MOL0     H85645   1.398   5.199  12.367  0.2827  0.2774 -1.0071
  621MOL0     H85646   1.422   5.021  12.355  2.7019 -0.2427 -1.3828
  621MOL0     H85647   1.595   4.946  12.135 -0.9753 -0.0969 -1.5678
  621MOL0     H85648   1.749   4.993  11.942  0.5856 -1.6909 -0.0245
  621MOL0     H85649   1.873   5.072  12.047 -2.5734 -0.7114  1.0337
  621MOL0     H85650   1.734   5.174  11.796 -1.4475  2.0899  1.0343
  621MOL0     H85651   1.821   5.286  11.908  0.3172  0.3122 -0.7432
  621MOL0     H85652   1.937   5.044  11.764 -2.6044 -0.3402  0.5625
  621MOL0     H85653   1.941   5.216  11.711  1.0139  3.3812  2.0054
  621MOL0     H85654   2.054   5.281  11.898 -2.5632 -0.2834  0.9496
  621MOL0     H85655   2.069   5.110  11.960  0.5457  0.5267  0.2562
  621MOL0     H85656   2.254   5.229  12.035 -0.2038  0.4393 -0.6908
  621MOL0     H85657   2.542   5.250  12.188 -0.6746  0.7235  1.1154
  621MOL0     H85658   2.394   5.332  12.196 -1.2128  0.0750 -1.0308
  621MOL0     H85659   2.545   5.423  12.138  0.8477 -0.0639  1.0569
  621MOL0     H85660   2.792   5.702  11.786 -0.3636  0.2335 -0.1786
  621MOL0     H85661   3.014   5.807  11.812  0.1179  0.6160  0.3920
  621MOL0     H85662   3.239   5.767  12.044  0.4882  0.8604 -1.7006
  621MOL0     H85663   3.275   5.593  12.061 -1.8112  0.3552  0.7489
  621MOL0     H85664   3.480   5.620  11.939 -0.0755 -0.4025 -0.4080
  621MOL0     H85665   3.469   5.790  11.927 -1.3311 -0.2267 -1.1337
  621MOL0     H85666   3.430   5.690  12.208 -0.9546 -1.4155 -0.7371
  621MOL0     H85667   3.521   5.835  12.157  2.4513  0.0361  2.1226
  621MOL0     H85668   3.700   5.704  12.071  0.7775 -1.0924  0.2086
  621MOL0     H85669   3.610   5.553  12.115 -1.6080  1.0231 -2.8725
  621MOL0     H85670   3.709   5.749  12.316 -1.2072 -1.6837  4.7189
  621MOL0     H85671   3.631   5.587  12.335  0.6321 -1.7447 -0.8842
  621MOL0     H85672   3.896   5.603  12.359 -0.5570  0.7279 -0.6553
  621MOL0     H85673   3.895   5.610  12.182  0.0045  2.4200 -0.2976
  621MOL0     H85674   3.785   5.394  12.175  0.4514  0.7292 -0.4234
  621MOL0     H85675   3.750   5.384  12.338 -1.6682  1.3318 -0.5899
  621MOL0     H85676   3.938   5.236  12.268 -0.9883 -0.2235 -1.5020
  621MOL0     H85677   4.012   5.362  12.367  1.2600 -0.1578 -0.3771
  621MOL0     H85678   3.170   5.401  11.879 -0.7417  0.2602  0.1432
  621MOL0     H85679   2.959   5.322  11.854  0.4473  0.7868 -1.2495
  621MOL0     H85680   2.578   5.317  11.674  2.1770 -0.5564  1.6784
  621MOL0     H85681   2.347   5.224  11.622  1.2517 -1.6690 -0.0165
  621MOL0     H85682   0.839   4.792  11.535  0.9251 -0.0361 -0.4254
  621MOL0     H85683   0.611   4.701  11.455 -0.9252  0.0633 -1.8286
  621MOL0     H85684   0.413   4.280  11.351 -0.3995 -2.8089 -0.9398
  621MOL0     H85685   0.170   4.213  11.342  0.7184 -1.2547 -0.9280
  621MOL0     H85686  -0.084   4.413  11.039 -1.8698 -0.7933 -1.0356
  621MOL0     H85687   0.038   4.290  11.015  0.0449  3.2676 -2.2912
  621MOL0     H85688  -0.194   4.217  10.959  3.8115 -0.2001 -2.1051
  621MOL0     H85689  -0.248   4.228  11.129 -0.6436  0.5426 -0.5042
  621MOL0     H85690  -0.023   4.034  11.030 -1.7223 -3.3672 -0.3137
  621MOL0     H85691  -0.067   4.067  11.197 -2.1957  2.6070  1.1232
  621MOL0     H85692  -0.179   3.867  11.094  0.0511 -0.8734  0.7681
  621MOL0     H85693  -0.283   3.982  11.000  0.9387 -1.8542  0.2931
  621MOL0     H85694  -0.433   3.999  11.393  2.6800 -0.2833  2.2462
  621MOL0     H85695   0.088   4.535  11.077 -0.3640 -0.1571 -0.4663
  621MOL0     H85696   0.354   4.743  11.170  0.7653 -0.6212 -1.7369
  621MOL0     H85697   0.371   4.664  11.032  0.2332 -0.8710  0.3060
  621MOL0     H85698   0.198   4.718  11.083 -0.6165 -0.8134 -0.6122
  622MOL0     O85699   8.089   8.935   6.609 -0.0679 -0.2979  0.2991
  622MOL0     C85700   8.072   9.055   6.582 -0.5879  0.9643  1.0960
  622MOL0     O85701   8.169   9.156   6.594 -0.5293  0.3514 -0.0669
  622MOL0     C85702   8.299   9.139   6.579 -0.7311  0.2387  0.3931
  622MOL0     C85703   8.371   9.260   6.571 -0.5772 -0.1065 -0.0058
  622MOL0     C85704   8.506   9.266   6.547 -0.2391  0.5389  0.6564
  622MOL0     C85705   8.582   9.145   6.530  0.2623 -0.6294 -0.0992
  622MOL0     O85706   8.716   9.149   6.500  0.7436  0.1442 -0.6281
  622MOL0     C85707   8.806   9.168   6.608 -0.8575 -0.9564 -0.3384
  622MOL0     C85708   8.936   9.202   6.550 -0.2362  1.3056 -0.4294
  622MOL0     C85709   9.043   9.212   6.662 -0.1755  0.7496  0.1393
  622MOL0     C85710   9.179   9.246   6.605  0.4505 -0.4317 -0.1247
  622MOL0     C85711   9.271   9.234   6.719 -0.2636 -0.0478 -0.3714
  622MOL0     C85712   9.426   9.254   6.692 -0.1377  0.1343  0.2697
  622MOL0     C85713   9.476   9.135   6.612 -0.4714  0.0437 -0.0978
  622MOL0     C85714   9.624   9.147   6.576  1.1694 -1.1315 -0.3974
  622MOL0     N85715   9.659   9.035   6.488  0.5264 -0.4819 -0.4457
  622MOL0     C85716   9.613   9.008   6.367  0.4528 -0.0703 -0.5159
  622MOL0     C85717   9.662   8.886   6.335 -0.4800 -0.4254 -0.1461
  622MOL0     C85718   9.645   8.800   6.211 -0.4038 -0.7837 -0.1824
  622MOL0     C85719   9.497   8.761   6.185  0.2584  0.3272  0.6008
  622MOL0     C85720   9.478   8.682   6.048  0.7481  0.4528 -0.0948
  622MOL0     C85721   9.336   8.621   6.041 -0.5972  0.1193  0.5647
  622MOL0     O85722   9.323   8.564   5.905 -0.2863 -0.1982  0.4622
  622MOL0     C85723   9.216   8.490   5.872 -0.5306 -0.0887  0.5080
  622MOL0     C85724   9.228   8.427   5.745  0.1268 -0.7267 -0.3883
  622MOL0     C85725   9.124   8.350   5.694  0.1555  0.5187  0.2697
  622MOL0     C85726   9.156   8.287   5.556  0.1919  0.7921 -1.2104
  622MOL0     C85727   9.004   8.340   5.767  0.4932  0.5585  0.7742
  622MOL0     C85728   8.892   8.268   5.716 -0.0255  0.5009  0.3810
  622MOL0     O85729   8.876   8.145   5.767  0.0049 -0.0674  0.3304
  622MOL0     C85730   8.761   8.075   5.726 -0.2913 -0.3583 -0.0992
  622MOL0     C85731   8.635   8.094   5.781 -0.2904  0.1782  0.0811
  622MOL0     C85732   8.531   8.012   5.746  0.0979  0.4540 -0.5356
  622MOL0     C85733   8.550   7.904   5.655 -0.5361  0.0142  0.4190
  622MOL0     O85734   8.452   7.825   5.602 -0.5797 -0.0995  0.5739
  622MOL0     C85735   8.338   7.805   5.684 -0.2190  0.1707 -0.0632
  622MOL0     C85736   8.245   7.688   5.633 -0.6680  0.2141  0.3300
  622MOL0     C85737   8.096   7.696   5.685  0.9352 -0.5764 -0.0885
  622MOL0     C85738   7.999   7.652   5.573 -0.1490  0.0001 -0.4888
  622MOL0     C85739   7.849   7.662   5.627  0.0506 -1.0189  0.0885
  622MOL0     C85740   7.741   7.617   5.524  0.0726  0.3315 -0.2131
  622MOL0     C85741   7.700   7.727   5.419  0.7787 -0.2526 -0.0577
  622MOL0     C85742   7.569   7.691   5.352 -0.6194 -0.3511 -0.7303
  622MOL0    Cl85743   7.544   7.796   5.204 -0.0752 -0.1826  0.1258
  622MOL0     C85744   8.678   7.874   5.611  0.3172 -0.4987  0.0230
  622MOL0     C85745   8.782   7.958   5.639 -0.2981  0.1542 -0.3931
  622MOL0     O85746   8.819   8.326   5.633  0.3391 -0.0477  0.1886
  622MOL0     C85747   8.999   8.403   5.890 -0.7577  0.1857 -0.2097
  622MOL0     C85748   9.099   8.479   5.949  1.1531 -0.0208 -0.0421
  622MOL0     N85749   9.744   8.854   6.442 -0.2870  0.1694 -0.2680
  622MOL0     N85750   9.740   8.940   6.537 -0.2362  0.1594  0.3892
  622MOL0     C85751   8.513   9.025   6.542  0.1774 -0.0478  0.8116
  622MOL0     C85752   8.370   9.023   6.561 -0.5432  0.2413 -0.2230
  622MOL0     C85753   7.943   9.096   6.517  0.4846  0.1752 -0.4394
  622MOL0     C85754   7.933   9.207   6.436 -0.8835 -0.3791 -0.2224
  622MOL0     C85755   7.815   9.257   6.378  0.1140 -1.0587 -0.2104
  622MOL0     C85756   7.695   9.192   6.403  0.3040 -0.5056  0.2376
  622MOL0     O85757   7.572   9.223   6.346 -0.1245 -0.7728 -0.5120
  622MOL0     C85758   7.576   9.330   6.242 -0.1044  0.1586  0.0118
  622MOL0     C85759   7.442   9.377   6.207  0.2454  0.8616  0.1193
  622MOL0     C85760   7.368   9.261   6.122 -0.1900 -0.2439 -0.6697
  622MOL0     C85761   7.240   9.308   6.059 -0.0132  0.6024  1.1356
  622MOL0     C85762   7.150   9.364   6.160 -0.7851 -1.4554  0.9263
  622MOL0     C85763   7.071   9.418   6.230  0.0897 -0.2972  0.0064
  622MOL0     C85764   7.700   9.077   6.488 -0.7649 -1.0187  0.0642
  622MOL0     C85765   7.821   9.032   6.538  0.3163 -0.6385  0.4151
  622MOL0     C85766   7.811   8.908   6.625 -0.2183  0.5129  0.8449
  622MOL0     H85767   8.311   9.349   6.586 -1.2192 -0.8239  2.2155
  622MOL0     H85768   8.550   9.365   6.545 -0.8233  0.8411 -2.3299
  622MOL0     H85769   8.818   9.067   6.649  1.5385 -0.4808  0.3285
  622MOL0     H85770   8.765   9.232   6.687 -0.0699 -0.3421 -0.4145
  622MOL0     H85771   8.968   9.119   6.486  1.9514  0.1645  1.9610
  622MOL0     H85772   8.926   9.294   6.493 -0.0247  1.1933 -0.6534
  622MOL0     H85773   9.020   9.293   6.732 -1.2896  0.7239 -0.1884
  622MOL0     H85774   9.055   9.119   6.718  2.0435 -0.0620 -1.5340
  622MOL0     H85775   9.207   9.185   6.519 -0.9607  1.2908 -1.9191
  622MOL0     H85776   9.184   9.349   6.569  1.3603 -0.0419  1.0379
  622MOL0     H85777   9.270   9.140   6.774  0.1599  0.8521  1.2396
  622MOL0     H85778   9.258   9.312   6.795  3.7156  0.0366  0.4474
  622MOL0     H85779   9.447   9.343   6.632 -0.8788 -0.6249 -1.1817
  622MOL0     H85780   9.485   9.268   6.783 -1.1765  2.9636  0.6106
  622MOL0     H85781   9.418   9.132   6.520  1.3666 -2.6537 -1.2847
  622MOL0     H85782   9.472   9.042   6.669  1.3220 -1.2970 -2.0105
  622MOL0     H85783   9.638   9.248   6.536  2.0462  1.0024  4.4981
  622MOL0     H85784   9.684   9.138   6.667  1.0558  1.2724 -0.0235
  622MOL0     H85785   9.549   9.075   6.311 -0.4488 -0.2944  0.2216
  622MOL0     H85786   9.715   8.716   6.222 -2.0926 -2.0569  1.3328
  622MOL0     H85787   9.674   8.861   6.125  1.0713  1.6540  1.9093
  622MOL0     H85788   9.451   8.699   6.263  0.7502 -1.7830 -0.6817
  622MOL0     H85789   9.440   8.853   6.192  2.1072  1.7089 -1.2404
  622MOL0     H85790   9.496   8.758   5.971  1.1622 -2.2600 -2.8784
  622MOL0     H85791   9.551   8.601   6.036 -0.7531 -1.3879  2.3077
  622MOL0     H85792   9.335   8.547   6.121  1.4005 -1.3190 -0.6354
  622MOL0     H85793   9.261   8.701   6.043 -0.2902  0.5482 -1.7775
  622MOL0     H85794   9.319   8.440   5.687  1.5583  0.2025  1.9010
  622MOL0     H85795   9.078   8.306   5.483 -1.5470 -1.9071 -0.2028
  622MOL0     H85796   9.164   8.179   5.570  0.2331  0.8549 -0.7052
  622MOL0     H85797   9.249   8.329   5.516  1.2768  0.7154  1.0480
  622MOL0     H85798   8.622   8.170   5.857  2.8203  1.1225 -0.2011
  622MOL0     H85799   8.436   8.016   5.797 -0.2675 -1.8854 -0.9634
  622MOL0     H85800   8.367   7.787   5.788 -3.6977  1.5911  1.3029
  622MOL0     H85801   8.278   7.896   5.694 -1.3964 -0.4898 -0.8457
  622MOL0     H85802   8.245   7.690   5.524 -0.4527 -0.7340  0.3063
  622MOL0     H85803   8.286   7.592   5.667 -2.7392 -1.0126 -0.4635
  622MOL0     H85804   8.073   7.799   5.714 -1.8907 -1.8230  2.6634
  622MOL0     H85805   8.076   7.641   5.778 -0.5111  1.5946  0.9827
  622MOL0     H85806   8.014   7.545   5.556 -0.3674 -0.0206 -0.5583
  622MOL0     H85807   8.013   7.717   5.487 -1.2069  2.0197  0.7919
  622MOL0     H85808   7.839   7.601   5.718 -2.5745 -0.0153  0.5807
  622MOL0     H85809   7.830   7.768   5.649  0.8366 -0.9515  0.4874
  622MOL0     H85810   7.650   7.597   5.582  0.4356 -0.5567  0.0739
  622MOL0     H85811   7.769   7.521   5.480  1.7049  0.1976  1.0564
  622MOL0     H85812   7.776   7.722   5.340  1.6897 -1.3095  0.8559
  622MOL0     H85813   7.696   7.831   5.454 -2.0742  0.6375 -2.5282
  622MOL0     H85814   7.496   7.721   5.427  0.6715  0.4954  0.2248
  622MOL0     H85815   7.562   7.586   5.323 -4.0829 -0.1346 -1.1160
  622MOL0     H85816   8.700   7.801   5.534 -2.0186 -0.7815 -0.4532
  622MOL0     H85817   8.883   7.941   5.604 -0.9236  0.2321 -2.3256
  622MOL0     H85818   8.908   8.407   5.949 -1.7052 -0.4116 -1.5698
  622MOL0     H85819   9.084   8.524   6.046  1.8628 -0.0724  0.0962
  622MOL0     H85820   8.574   8.935   6.535 -1.4615 -1.0676 -1.5134
  622MOL0     H85821   8.311   8.932   6.552  1.1703 -0.8592 -0.7002
  622MOL0     H85822   8.028   9.257   6.418  0.8346 -2.9576  1.1982
  622MOL0     H85823   7.826   9.338   6.306 -0.2197 -1.9599 -1.2890
  622MOL0     H85824   7.624   9.418   6.286  0.0952  0.3462 -0.5721
  622MOL0     H85825   7.634   9.292   6.157 -2.8198 -4.3513 -0.1666
  622MOL0     H85826   7.430   9.471   6.152 -1.9430  0.8130  0.4061
  622MOL0     H85827   7.388   9.398   6.300 -0.0758 -4.3685  1.4553
  622MOL0     H85828   7.440   9.216   6.054  0.3538  1.8876 -1.6087
  622MOL0     H85829   7.337   9.177   6.185 -0.0414  0.1247 -0.0924
  622MOL0     H85830   7.207   9.219   6.005  1.0396  0.7295  0.2343
  622MOL0     H85831   7.260   9.380   5.978 -0.6995  2.3411  2.4707
  622MOL0     H85832   6.999   9.466   6.292 -2.0894  1.6961 -3.7415
  622MOL0     H85833   7.604   9.031   6.509 -1.7974  1.4553  1.1928
  622MOL0     H85834   7.835   8.934   6.728 -0.5395 -0.3497  1.1447
  622MOL0     H85835   7.706   8.880   6.629 -1.1716  3.4957 -0.4544
  622MOL0     H85836   7.867   8.816   6.607  0.6647  1.0215  0.9133
  623MOL0     O85837   4.422   8.466   8.744 -0.2807  0.0385  0.4942
  623MOL0     C85838   4.377   8.539   8.652  0.1453 -0.0963  0.6878
  623MOL0     O85839   4.451   8.590   8.543  0.1861  0.2787  0.4305
  623MOL0     C85840   4.586   8.567   8.520  0.1153  0.2918  0.3867
  623MOL0     C85841   4.661   8.460   8.575  0.4536  0.1006  0.0974
  623MOL0     C85842   4.794   8.458   8.543 -0.6481 -0.5111  0.4863
  623MOL0     C85843   4.855   8.559   8.463  0.2441 -0.3440 -0.1794
  623MOL0     O85844   4.987   8.544   8.456  0.2416  0.3019  0.6890
  623MOL0     C85845   5.049   8.597   8.341  0.6826 -0.1771 -0.0384
  623MOL0     C85846   4.978   8.555   8.213  0.0481 -0.6811 -0.6222
  623MOL0     C85847   4.953   8.409   8.193  0.1437 -0.3654 -0.2189
  623MOL0     C85848   4.858   8.386   8.079  0.0061  0.1705 -0.7531
  623MOL0     C85849   4.917   8.285   7.975 -0.6004  0.0590 -0.4366
  623MOL0     C85850   4.927   8.140   8.031 -0.1567  0.2888 -0.3596
  623MOL0     C85851   5.025   8.056   7.952  0.1485 -0.4788  1.0977
  623MOL0     C85852   5.034   7.910   8.002 -1.1942 -0.0798  0.0293
  623MOL0     N85853   5.064   7.809   7.898  1.2410 -0.9804  1.2104
  623MOL0     C85854   5.136   7.836   7.786 -0.4473 -0.4825  0.5471
  623MOL0     C85855   5.129   7.712   7.719  0.0250 -0.5992 -0.2195
  623MOL0     C85856   5.196   7.667   7.586  0.2675 -0.2129 -0.5906
  623MOL0     C85857   5.353   7.683   7.595  1.0572 -0.0317 -0.3427
  623MOL0     C85858   5.426   7.637   7.467  0.5842  0.2252 -0.2581
  623MOL0     C85859   5.574   7.643   7.466  0.2001 -0.7518 -0.0708
  623MOL0     O85860   5.615   7.779   7.489 -1.0746 -0.1160  0.3838
  623MOL0     C85861   5.748   7.795   7.525  0.1179  0.5601  0.2471
  623MOL0     C85862   5.807   7.919   7.500  0.4502 -0.0734  0.2797
  623MOL0     C85863   5.942   7.949   7.541  0.7960 -0.1409 -0.2014
  623MOL0     C85864   6.006   8.087   7.500 -0.5049  0.3500  0.8871
  623MOL0     C85865   6.018   7.849   7.597 -0.6300  0.8316 -0.8004
  623MOL0     C85866   6.167   7.850   7.642  1.4807  0.0270  0.2408
  623MOL0     O85867   6.231   7.733   7.660  0.1319  0.0470 -0.2544
  623MOL0     C85868   6.357   7.746   7.699 -0.6472 -0.6599 -0.8975
  623MOL0     C85869   6.394   7.731   7.835 -0.3738 -0.0166  0.4823
  623MOL0     C85870   6.536   7.728   7.867  0.0388 -0.6545 -0.4782
  623MOL0     C85871   6.631   7.744   7.767 -0.1866 -1.5379 -0.0458
  623MOL0     O85872   6.757   7.744   7.815 -0.4833  0.2644  0.2666
  623MOL0     C85873   6.834   7.636   7.759 -0.3453  0.1674 -0.8865
  623MOL0     C85874   6.947   7.590   7.848 -0.3795  0.7351  0.1187
  623MOL0     C85875   7.062   7.693   7.864 -0.4895  0.4226  0.1611
  623MOL0     C85876   7.190   7.632   7.933 -0.2329 -0.2878 -0.0582
  623MOL0     C85877   7.329   7.692   7.916  0.1051 -0.2215  0.4408
  623MOL0     C85878   7.354   7.835   7.974 -0.0116 -0.5588 -0.3049
  623MOL0     C85879   7.480   7.834   8.057  0.0881  0.6237  0.3504
  623MOL0     C85880   7.495   7.975   8.121  0.3251  0.3045  0.1237
  623MOL0    Cl85881   7.648   7.977   8.211 -0.1949  0.4355  0.5195
  623MOL0     C85882   6.595   7.763   7.636 -0.3962  0.4897  0.8256
  623MOL0     C85883   6.460   7.766   7.602 -1.0444  0.1090  0.6654
  623MOL0     O85884   6.210   7.964   7.672  0.1013 -0.6222 -0.2312
  623MOL0     C85885   5.955   7.723   7.627  0.6514 -0.1949  0.2258
  623MOL0     C85886   5.824   7.708   7.598 -0.5251  0.7045 -0.5656
  623MOL0     N85887   5.054   7.619   7.794 -0.2309  0.7687  0.5929
  623MOL0     N85888   5.021   7.682   7.899 -0.7189  0.2423 -0.3141
  623MOL0     C85889   4.784   8.673   8.432 -0.3543  0.6307 -0.7389
  623MOL0     C85890   4.645   8.672   8.459 -0.0346 -0.4489 -0.2115
  623MOL0     C85891   4.240   8.589   8.660  0.0282  1.0554 -0.0545
  623MOL0     C85892   4.214   8.709   8.591  0.4524  0.7899 -0.1976
  623MOL0     C85893   4.095   8.775   8.607  0.1312  0.9674  0.6229
  623MOL0     C85894   3.999   8.734   8.706  0.0474  0.1459  0.3089
  623MOL0     O85895   3.879   8.808   8.716 -0.4496 -0.7517 -0.1051
  623MOL0     C85896   3.766   8.749   8.780 -0.3010 -0.3448  0.2922
  623MOL0     C85897   3.653   8.853   8.781  0.0835  0.3922 -1.1303
  623MOL0     C85898   3.529   8.804   8.864  0.0311  0.6700  0.2637
  623MOL0     C85899   3.402   8.884   8.826 -0.2313  0.3733 -0.4057
  623MOL0     C85900   3.325   8.912   8.946 -0.6214  0.7062  0.3821
  623MOL0     C85901   3.254   8.950   9.041 -0.3374  0.4225 -0.3567
  623MOL0     C85902   4.024   8.613   8.773 -0.5728 -0.9068 -1.2139
  623MOL0     C85903   4.141   8.544   8.751  0.1539 -0.9395 -0.0426
  623MOL0     C85904   4.150   8.422   8.831 -0.6488 -0.1473 -0.1972
  623MOL0     H85905   4.613   8.385   8.637  1.9515 -0.2195  0.9185
  623MOL0     H85906   4.865   8.380   8.569 -1.2384 -1.2781 -0.1630
  623MOL0     H85907   5.155   8.571   8.336  0.5263 -1.8510  3.2338
  623MOL0     H85908   5.043   8.706   8.349  0.0033 -0.1393 -0.8223
  623MOL0     H85909   4.884   8.611   8.212  0.7981  0.7122  0.7669
  623MOL0     H85910   5.036   8.594   8.128 -0.8826  0.3590 -0.8024
  623MOL0     H85911   5.048   8.355   8.185  0.8547  0.7977  0.1832
  623MOL0     H85912   4.893   8.382   8.280 -1.0224  2.2385 -0.1145
  623MOL0     H85913   4.758   8.359   8.115  0.1643  0.7391  0.1510
  623MOL0     H85914   4.834   8.478   8.027  1.0024  0.4480 -0.7478
  623MOL0     H85915   5.011   8.328   7.939 -1.6159  3.1122  0.2127
  623MOL0     H85916   4.841   8.281   7.895  1.5972  1.2325 -2.7336
  623MOL0     H85917   4.974   8.149   8.129 -0.5962  2.4645 -0.3153
  623MOL0     H85918   4.833   8.085   8.032  0.4259 -0.7402 -0.1587
  623MOL0     H85919   5.127   8.096   7.958  0.7647 -1.9218  0.8813
  623MOL0     H85920   4.999   8.064   7.846  3.3260  2.4753  0.3710
  623MOL0     H85921   5.107   7.911   8.083 -3.0414 -1.0028  1.8045
  623MOL0     H85922   4.945   7.884   8.060 -1.1978 -0.3855 -0.1092
  623MOL0     H85923   5.179   7.929   7.750  0.8679 -1.4963 -0.6049
  623MOL0     H85924   5.158   7.730   7.504  2.5349 -1.1692 -2.5243
  623MOL0     H85925   5.170   7.564   7.560  1.5846 -0.3111 -1.6671
  623MOL0     H85926   5.371   7.790   7.610  0.6936  0.2114 -1.5388
  623MOL0     H85927   5.394   7.626   7.679  0.7948  0.0643 -0.1494
  623MOL0     H85928   5.404   7.531   7.452 -0.6379  0.4681 -0.2563
  623MOL0     H85929   5.382   7.687   7.380  1.3838 -2.5633 -2.4182
  623MOL0     H85930   5.600   7.576   7.549 -1.8839  1.2164  2.3264
  623MOL0     H85931   5.598   7.596   7.370 -2.5170 -1.8255 -0.2949
  623MOL0     H85932   5.754   7.996   7.445  1.9936  0.1336 -1.0111
  623MOL0     H85933   5.933   8.154   7.453  0.0309  0.6944  0.5409
  623MOL0     H85934   6.084   8.072   7.425 -1.0781 -2.2072  0.7148
  623MOL0     H85935   6.050   8.145   7.581 -0.1690  1.4534 -0.0717
  623MOL0     H85936   6.317   7.717   7.910 -1.6352  1.7832 -0.4114
  623MOL0     H85937   6.567   7.700   7.967 -0.7573 -1.4015 -0.4291
  623MOL0     H85938   6.776   7.547   7.735  0.6485 -1.1041  1.1294
  623MOL0     H85939   6.882   7.678   7.670 -1.1103  2.6643 -0.2079
  623MOL0     H85940   6.903   7.569   7.945 -1.6556 -4.0623 -1.2165
  623MOL0     H85941   6.991   7.498   7.808  3.4757  2.2096  0.5690
  623MOL0     H85942   7.025   7.776   7.926 -1.1346 -0.8498  1.5319
  623MOL0     H85943   7.091   7.736   7.767 -1.0359  0.5965  0.0705
  623MOL0     H85944   7.188   7.526   7.907  0.2711 -0.8853  2.1319
  623MOL0     H85945   7.175   7.635   8.041 -1.7805  0.6808 -0.2657
  623MOL0     H85946   7.397   7.622   7.966  2.2848  1.8328  0.5444
  623MOL0     H85947   7.348   7.695   7.808 -2.0357  1.9712  0.0153
  623MOL0     H85948   7.264   7.856   8.033 -0.0509 -0.5673 -0.3608
  623MOL0     H85949   7.362   7.920   7.905  1.8483  1.6246  2.3706
  623MOL0     H85950   7.568   7.810   7.996  0.3440 -0.0765  0.9672
  623MOL0     H85951   7.474   7.754   8.132 -1.8460 -1.8852 -2.2538
  623MOL0     H85952   7.420   7.984   8.200 -2.0329  0.8218 -2.0693
  623MOL0     H85953   7.492   8.057   8.049 -4.0006  0.0424 -0.2032
  623MOL0     H85954   6.663   7.772   7.552 -1.5902  2.3440 -0.0271
  623MOL0     H85955   6.440   7.774   7.495  1.3046  2.4254  0.2926
  623MOL0     H85956   6.004   7.643   7.682  0.2968 -0.8340 -0.3733
  623MOL0     H85957   5.786   7.613   7.633 -0.4081  1.0894  0.6273
  623MOL0     H85958   4.828   8.758   8.381 -0.4500  0.7720 -0.5857
  623MOL0     H85959   4.586   8.756   8.422  1.2950 -0.2680 -2.0333
  623MOL0     H85960   4.289   8.762   8.533  1.7345  0.2126  0.9070
  623MOL0     H85961   4.072   8.870   8.560 -2.2147  0.7315  1.1641
  623MOL0     H85962   3.741   8.655   8.732  3.4721 -2.0369  1.2624
  623MOL0     H85963   3.785   8.721   8.884  2.5278  0.5316  0.1118
  623MOL0     H85964   3.627   8.881   8.678 -0.5526 -0.2089 -1.1384
  623MOL0     H85965   3.694   8.939   8.834  4.7440 -2.9112  1.4337
  623MOL0     H85966   3.505   8.701   8.834  0.4445  0.0042  2.1068
  623MOL0     H85967   3.551   8.806   8.971 -0.5391 -2.3280  0.5275
  623MOL0     H85968   3.344   8.826   8.754  1.1379  0.5338 -1.6752
  623MOL0     H85969   3.436   8.977   8.779  1.7759 -0.7142 -1.2134
  623MOL0     H85970   3.208   8.985   9.131  0.4468  0.7199 -0.0668
  623MOL0     H85971   3.955   8.592   8.854  0.5700  0.6437  0.2452
  623MOL0     H85972   4.191   8.446   8.929  1.8560  1.3122 -1.5033
  623MOL0     H85973   4.050   8.381   8.849 -0.3416 -0.3865  1.0907
  623MOL0     H85974   4.212   8.340   8.792 -1.5339 -1.9234  1.9010
  624MOL0     O85975  11.236   3.460  11.144  0.4179 -0.3915  0.4120
  624MOL0     C85976  11.187   3.377  11.080  0.3668  0.4818  0.8358
  624MOL0     O85977  11.252   3.298  10.985  0.9185 -1.1342 -0.2958
  624MOL0     C85978  11.382   3.288  10.948  0.4885  0.3612 -0.0916
  624MOL0     C85979  11.414   3.210  10.838 -0.0644  0.8478  0.2476
  624MOL0     C85980  11.541   3.220  10.778 -0.5831 -0.0705 -0.2642
  624MOL0     C85981  11.645   3.283  10.851 -0.3319 -0.0305 -0.0158
  624MOL0     O85982  11.776   3.272  10.818 -0.4991 -0.2111  0.3142
  624MOL0     C85983  11.820   3.210  10.703  0.4317 -0.3629 -0.1994
  624MOL0     C85984  11.971   3.221  10.692  0.0121 -0.4475  0.3419
  624MOL0     C85985  12.026   3.144  10.576  0.0699 -0.6489  0.7966
  624MOL0     C85986  12.165   3.107  10.595  0.1807  0.1168  0.5588
  624MOL0     C85987  12.266   3.220  10.608  0.1457  0.0262  0.3094
  624MOL0     C85988  12.405   3.171  10.647  0.4483  0.0320  1.0594
  624MOL0     C85989  12.510   3.280  10.666 -0.4727  0.4377  0.5537
  624MOL0     C85990  12.648   3.248  10.725 -0.7102 -0.3814 -0.1985
  624MOL0     N85991  12.757   3.353  10.691  0.0166  0.2277  0.4426
  624MOL0     C85992  12.758   3.482  10.717  0.6918  0.3541 -0.4129
  624MOL0     C85993  12.885   3.522  10.682  0.0433 -0.6580  0.5570
  624MOL0     C85994  12.933   3.664  10.692  0.7440  0.3748 -0.2429
  624MOL0     C85995  12.941   3.737  10.565 -0.5926  0.6423 -0.1274
  624MOL0     C85996  12.998   3.876  10.580 -0.7984 -0.2050  0.1105
  624MOL0     C85997  13.012   3.941  10.447  0.5677  0.7084 -0.7492
  624MOL0     O85998  13.078   4.071  10.448 -0.5341 -0.5617  0.2692
  624MOL0     C85999  13.083   4.142  10.332  0.6645 -0.1269  0.5541
  624MOL0     C86000  13.030   4.111  10.205  0.2731 -0.6786 -0.2360
  624MOL0     C86001  13.054   4.191  10.087  0.4930 -0.5762  0.9260
  624MOL0     C86002  12.999   4.139   9.960  0.4457 -0.0785  0.2555
  624MOL0     C86003  13.134   4.305  10.094  0.2351 -1.2566 -0.2403
  624MOL0     C86004  13.161   4.406   9.982 -0.1418  0.0340 -0.2973
  624MOL0     O86005  13.196   4.540  10.021  0.3312  0.3353  0.2228
  624MOL0     C86006  13.243   4.626   9.923 -0.8434  0.0870  0.0174
  624MOL0     C86007  13.236   4.765   9.939 -0.8831 -0.6680  0.2508
  624MOL0     C86008  13.260   4.857   9.835  0.4253  0.1756 -0.7193
  624MOL0     C86009  13.309   4.813   9.713 -0.3669 -0.6412  0.1449
  624MOL0     O86010  13.336   4.898   9.605  0.1378  0.4468  0.2544
  624MOL0     C86011  13.318   5.039   9.614 -0.3421  0.1986 -0.3071
  624MOL0     C86012  13.304   5.075   9.467  0.6294  0.2130 -0.5786
  624MOL0     C86013  13.291   5.229   9.450  0.3115  0.1219 -0.4390
  624MOL0     C86014  13.400   5.310   9.519  0.2975 -0.8060 -0.8078
  624MOL0     C86015  13.542   5.280   9.466  0.3320 -0.5245 -0.3937
  624MOL0     C86016  13.655   5.337   9.555 -0.5962  0.2898  0.3113
  624MOL0     C86017  13.643   5.283   9.697 -0.2940 -0.0167 -0.5110
  624MOL0     C86018  13.772   5.315   9.771 -0.9114 -0.1788 -0.4676
  624MOL0    Cl86019  13.825   5.490   9.767  0.1257  0.4649  0.2026
  624MOL0     C86020  13.349   4.675   9.702  0.5968 -0.0058  0.0551
  624MOL0     C86021  13.327   4.594   9.813  0.2800 -0.9483 -0.1200
  624MOL0     O86022  13.149   4.371   9.864  0.1738  0.0802  0.0107
  624MOL0     C86023  13.192   4.333  10.225  0.3462  1.0732 -0.5956
  624MOL0     C86024  13.164   4.255  10.340 -0.2462  0.9514  0.9953
  624MOL0     N86025  12.954   3.413  10.627 -0.6202 -0.5068 -0.3621
  624MOL0     N86026  12.871   3.317  10.621 -0.1358  0.9271  0.1665
  624MOL0     C86027  11.616   3.349  10.973  0.5182 -0.2689  0.0124
  624MOL0     C86028  11.478   3.358  11.015 -0.2582  0.0646  0.4254
  624MOL0     C86029  11.033   3.358  11.093  0.1211 -0.2607  0.1490
  624MOL0     C86030  10.977   3.245  11.038  0.1561 -0.6693  0.4458
  624MOL0     C86031  10.843   3.221  11.058 -0.4926  0.8301 -0.0777
  624MOL0     C86032  10.757   3.301  11.133  0.1747 -0.5653  0.1278
  624MOL0     O86033  10.624   3.262  11.130 -1.0483 -0.1989  0.2348
  624MOL0     C86034  10.530   3.347  11.185  0.4835  0.3130  0.3821
  624MOL0     C86035  10.527   3.317  11.335 -0.4904 -0.1330 -0.5054
  624MOL0     C86036  10.399   3.368  11.411 -0.3693  0.1993  0.0581
  624MOL0     C86037  10.420   3.504  11.472 -0.0253 -0.5019 -0.0109
  624MOL0     C86038  10.313   3.535  11.567  0.6916 -0.3221 -0.4848
  624MOL0     C86039  10.217   3.548  11.655  0.4512  0.4598 -0.1344
  624MOL0     C86040  10.818   3.410  11.197  0.8137 -0.2951  0.1810
  624MOL0     C86041  10.953   3.443  11.173 -0.0655  0.5741 -0.1143
  624MOL0     C86042  11.001   3.565  11.250  0.3447 -0.4756 -0.5660
  624MOL0     H86043  11.324   3.164  10.798 -0.3893 -0.3401  2.1864
  624MOL0     H86044  11.565   3.171  10.684  2.1518  1.0575 -0.2631
  624MOL0     H86045  11.765   3.257  10.621  1.0190  1.1316  0.2337
  624MOL0     H86046  11.783   3.108  10.715 -2.0895  0.6571  2.0059
  624MOL0     H86047  11.998   3.324  10.669  2.1133 -0.8831  0.6727
  624MOL0     H86048  12.021   3.195  10.786 -1.6634 -2.1494  0.8373
  624MOL0     H86049  11.969   3.051  10.574  2.2720 -2.0578  1.0922
  624MOL0     H86050  12.010   3.196  10.481  2.8196 -1.0890  0.0002
  624MOL0     H86051  12.166   3.042  10.683  2.1167 -0.2808  0.2760
  624MOL0     H86052  12.194   3.050  10.507  1.5795  0.9860  0.4348
  624MOL0     H86053  12.242   3.286  10.692 -3.1402 -0.9738  0.2825
  624MOL0     H86054  12.265   3.275  10.513  0.6572 -2.5917 -1.3236
  624MOL0     H86055  12.405   3.105  10.734 -2.1627  0.0403  1.1339
  624MOL0     H86056  12.436   3.104  10.566  1.0586  0.7332  0.6979
  624MOL0     H86057  12.462   3.352  10.734 -3.3261 -0.8484  0.0221
  624MOL0     H86058  12.533   3.323  10.568  1.5886 -0.1546  0.7311
  624MOL0     H86059  12.636   3.238  10.834 -1.2307 -2.3924 -0.4171
  624MOL0     H86060  12.669   3.150  10.683  0.4629 -0.8924  1.4834
  624MOL0     H86061  12.674   3.537  10.758  3.0336  2.3650  2.1566
  624MOL0     H86062  13.035   3.655  10.732  0.2606  3.9749  2.3475
  624MOL0     H86063  12.877   3.713  10.773  0.8382 -0.9238  0.6353
  624MOL0     H86064  13.008   3.678  10.501 -0.8998 -1.2126  1.1900
  624MOL0     H86065  12.845   3.745  10.513  0.0772 -0.4364 -1.6011
  624MOL0     H86066  12.925   3.928  10.643  0.2402  0.8287  0.4758
  624MOL0     H86067  13.096   3.874  10.627  0.9032  1.2095 -3.0331
  624MOL0     H86068  13.069   3.873  10.383  1.4748  0.9729 -0.2451
  624MOL0     H86069  12.910   3.946  10.407  0.6106  1.7811 -0.7570
  624MOL0     H86070  12.978   4.017  10.196  0.5834 -1.1589  2.2774
  624MOL0     H86071  12.927   4.059   9.981 -0.2226  0.1111 -1.1771
  624MOL0     H86072  13.079   4.104   9.895  0.4629 -1.4090  0.9647
  624MOL0     H86073  12.943   4.222   9.914 -0.9785 -1.4651 -0.6196
  624MOL0     H86074  13.191   4.803  10.031 -1.6147 -0.6623 -0.1016
  624MOL0     H86075  13.244   4.961   9.858  0.3163 -0.1872  0.9754
  624MOL0     H86076  13.231   5.074   9.669  0.2967  2.0099 -0.3730
  624MOL0     H86077  13.410   5.077   9.660 -1.4962 -0.2913  2.6514
  624MOL0     H86078  13.386   5.031   9.410  0.6940  0.2305 -0.4995
  624MOL0     H86079  13.218   5.022   9.426  1.4867 -1.8450  0.1764
  624MOL0     H86080  13.195   5.260   9.491 -0.4737 -1.3806 -1.0955
  624MOL0     H86081  13.292   5.250   9.342  2.4469  0.1843 -0.4587
  624MOL0     H86082  13.390   5.291   9.626  1.4649  1.8527 -0.1615
  624MOL0     H86083  13.385   5.418   9.507 -0.7378 -1.0673 -2.0988
  624MOL0     H86084  13.563   5.174   9.446  0.1956 -1.0179  1.8361
  624MOL0     H86085  13.541   5.332   9.370 -1.6526  2.3305  1.0439
  624MOL0     H86086  13.656   5.446   9.551  1.5164  0.3029 -0.0328
  624MOL0     H86087  13.754   5.306   9.521 -1.1418  0.4101 -1.5143
  624MOL0     H86088  13.634   5.174   9.691 -0.1648  0.0549 -3.6553
  624MOL0     H86089  13.551   5.313   9.749  0.1195 -2.0287  1.5164
  624MOL0     H86090  13.861   5.262   9.735  0.0259  1.3891 -0.5362
  624MOL0     H86091  13.757   5.281   9.874 -0.1188 -3.3934 -1.2951
  624MOL0     H86092  13.388   4.648   9.605 -0.4447  0.9222 -0.6475
  624MOL0     H86093  13.372   4.496   9.808  0.8089 -0.7561  0.7223
  624MOL0     H86094  13.253   4.417  10.256  0.3454  0.8245  0.1011
  624MOL0     H86095  13.213   4.281  10.433  0.9792 -0.3650  0.7631
  624MOL0     H86096  11.694   3.407  11.022 -0.8408  0.0400  1.9423
  624MOL0     H86097  11.450   3.409  11.107 -1.2321 -1.9802  1.3355
  624MOL0     H86098  11.035   3.178  10.976  1.0504 -1.3061  1.9247
  624MOL0     H86099  10.805   3.140  10.996 -1.6533  1.3454 -0.0612
  624MOL0     H86100  10.548   3.450  11.152  0.2776 -0.2264 -1.5795
  624MOL0     H86101  10.433   3.315  11.144  1.1303 -2.4395  0.8581
  624MOL0     H86102  10.615   3.361  11.384  0.7759 -0.3964 -2.4431
  624MOL0     H86103  10.541   3.211  11.356 -1.6772 -0.5238 -1.5732
  624MOL0     H86104  10.313   3.369  11.344 -0.7024 -0.2707  0.4784
  624MOL0     H86105  10.381   3.295  11.490 -2.4883 -1.4864 -1.8788
  624MOL0     H86106  10.433   3.577  11.391 -0.3800 -0.9374 -0.4661
  624MOL0     H86107  10.517   3.504  11.522  0.5346 -2.5660 -0.9862
  624MOL0     H86108  10.129   3.573  11.711  0.0865  2.0313 -1.3209
  624MOL0     H86109  10.764   3.471  11.269 -0.3660 -0.9502 -0.1170
  624MOL0     H86110  11.068   3.620  11.183  2.5442 -2.3833 -0.0981
  624MOL0     H86111  10.921   3.629  11.286 -2.5191 -2.6669 -2.5611
  624MOL0     H86112  11.066   3.536  11.333 -0.4552  4.1640  1.9604
  625MOL0     O86113   7.408   9.207   9.484  0.1584  0.1237 -0.2040
  625MOL0     C86114   7.392   9.253   9.599  0.0726 -0.4606  0.3859
  625MOL0     O86115   7.481   9.327   9.668 -0.4789 -0.2226  0.0719
  625MOL0     C86116   7.615   9.326   9.638 -0.2171 -0.4049 -0.0331
  625MOL0     C86117   7.690   9.442   9.673  0.2857 -0.7866  0.7232
  625MOL0     C86118   7.824   9.451   9.646  0.4747 -0.2909  0.8006
  625MOL0     C86119   7.886   9.342   9.574  0.4645 -0.8277 -1.2614
  625MOL0     O86120   8.015   9.368   9.535 -0.3974 -0.2372  0.4444
  625MOL0     C86121   8.104   9.267   9.576 -0.6490  0.0284 -0.4718
  625MOL0     C86122   8.169   9.206   9.457 -0.1428  0.2499  0.3641
  625MOL0     C86123   8.262   9.088   9.498 -0.2762  0.1475 -0.8208
  625MOL0     C86124   8.344   9.038   9.382  0.1180  0.4198  0.1169
  625MOL0     C86125   8.460   8.955   9.430 -0.5777 -0.4438 -0.1829
  625MOL0     C86126   8.563   8.926   9.321  0.3742 -0.3312  0.7018
  625MOL0     C86127   8.508   8.841   9.211 -0.0908  0.2108  0.3817
  625MOL0     C86128   8.452   8.916   9.085 -0.5890  0.1053 -0.9372
  625MOL0     N86129   8.562   8.950   8.987  0.4259 -0.1742 -0.8351
  625MOL0     C86130   8.618   8.865   8.897 -0.5234  0.3110  1.0869
  625MOL0     C86131   8.717   8.930   8.831  0.3479  0.4400 -0.0308
  625MOL0     C86132   8.808   8.866   8.727  0.2953  0.1495 -0.1373
  625MOL0     C86133   8.944   8.823   8.793  0.2438 -0.1628 -0.7354
  625MOL0     C86134   8.916   8.726   8.907  0.4250  0.6386  0.3969
  625MOL0     C86135   8.919   8.780   9.051 -0.2282 -0.3267 -0.7986
  625MOL0     O86136   9.058   8.814   9.084 -0.0891 -0.3480  0.6589
  625MOL0     C86137   9.150   8.727   9.131  0.1461 -0.1134  0.6119
  625MOL0     C86138   9.138   8.593   9.158 -0.8182  0.5099  0.7456
  625MOL0     C86139   9.245   8.525   9.199 -0.1620 -0.5758  0.4994
  625MOL0     C86140   9.227   8.385   9.231 -0.4929 -0.1746  0.0034
  625MOL0     C86141   9.374   8.586   9.209 -0.4100 -1.2353  0.0139
  625MOL0     C86142   9.497   8.512   9.252  0.6308 -0.4504  1.0248
  625MOL0     O86143   9.596   8.592   9.280 -0.7548 -0.4731  0.2513
  625MOL0     C86144   9.726   8.543   9.290 -0.7340  0.3560  0.2164
  625MOL0     C86145   9.817   8.544   9.190 -0.3244  0.2091  0.0201
  625MOL0     C86146   9.940   8.491   9.214  0.0694  0.2245 -0.3472
  625MOL0     C86147   9.978   8.458   9.346 -0.2786 -0.3360  0.2042
  625MOL0     O86148  10.108   8.417   9.350  0.0874 -0.0341  0.3658
  625MOL0     C86149  10.149   8.369   9.476 -0.1077 -0.0804  0.4635
  625MOL0     C86150  10.299   8.349   9.466  0.4263 -0.3411 -0.7983
  625MOL0     C86151  10.362   8.301   9.334  0.1482  0.1143 -0.2969
  625MOL0     C86152  10.516   8.275   9.339  1.0284  0.3519  0.0812
  625MOL0     C86153  10.613   8.394   9.336  0.0386 -0.4743 -0.1379
  625MOL0     C86154  10.757   8.358   9.316 -0.0804  0.6912 -0.3511
  625MOL0     C86155  10.852   8.476   9.313  0.0120  0.2159  0.3297
  625MOL0     C86156  10.977   8.436   9.240 -0.2704  0.6899 -0.0169
  625MOL0    Cl86157  11.099   8.557   9.222 -0.0923  0.2435  0.0053
  625MOL0     C86158   9.886   8.459   9.453  0.1182  0.9410  0.1354
  625MOL0     C86159   9.758   8.494   9.421 -0.1247  0.2973 -0.1160
  625MOL0     O86160   9.498   8.390   9.250  0.1947 -0.1945 -0.4157
  625MOL0     C86161   9.386   8.724   9.176  0.0245 -0.9280  0.1383
  625MOL0     C86162   9.271   8.794   9.151 -0.3552  0.9606 -0.1984
  625MOL0     N86163   8.713   9.057   8.879  0.1957  0.3660  0.4316
  625MOL0     N86164   8.621   9.069   8.960 -0.1954  0.4181 -0.3236
  625MOL0     C86165   7.817   9.217   9.555 -0.5284 -0.5326  0.2618
  625MOL0     C86166   7.680   9.209   9.588 -0.0232 -0.1821  0.7433
  625MOL0     C86167   7.262   9.240   9.675 -0.0872 -0.3250  0.4747
  625MOL0     C86168   7.259   9.284   9.809  0.0425 -0.2701 -0.3074
  625MOL0     C86169   7.144   9.283   9.873  0.2867 -0.2793 -0.4461
  625MOL0     C86170   7.019   9.235   9.815 -0.2499 -0.0219  0.0098
  625MOL0     O86171   6.893   9.229   9.875  0.3018 -1.1695  0.0207
  625MOL0     C86172   6.875   9.269  10.010 -0.6209 -0.2874 -0.1158
  625MOL0     C86173   6.730   9.266  10.046 -0.1519 -0.4135 -0.1863
  625MOL0     C86174   6.713   9.303  10.194  0.4794 -0.2660  0.0262
  625MOL0     C86175   6.580   9.248  10.250  0.2387 -0.5525  0.0570
  625MOL0     C86176   6.459   9.303  10.188 -0.0101  0.0434  0.4847
  625MOL0     C86177   6.366   9.355  10.129  0.0333 -1.5579  0.2717
  625MOL0     C86178   7.026   9.181   9.692 -0.0144  0.4972 -0.3292
  625MOL0     C86179   7.143   9.182   9.615  1.0114 -0.4121  0.0045
  625MOL0     C86180   7.137   9.121   9.476  0.5146  0.3730 -0.8233
  625MOL0     H86181   7.643   9.533   9.710 -0.9115 -1.6919  1.5204
  625MOL0     H86182   7.883   9.542   9.660 -0.8942  0.4606  1.9350
  625MOL0     H86183   8.060   9.189   9.638 -0.7293 -0.8174 -1.5500
  625MOL0     H86184   8.181   9.312   9.639 -2.5777  2.0837  0.5209
  625MOL0     H86185   8.091   9.169   9.391 -0.1223 -2.7178  1.8631
  625MOL0     H86186   8.230   9.283   9.409  0.6311  0.9674  2.3864
  625MOL0     H86187   8.328   9.133   9.573  1.8172  0.4832 -2.7502
  625MOL0     H86188   8.200   9.007   9.535 -1.1066  1.8048  1.7112
  625MOL0     H86189   8.279   8.982   9.314 -0.7209 -2.6554  3.1434
  625MOL0     H86190   8.373   9.131   9.332  0.7156  0.6821  0.9289
  625MOL0     H86191   8.421   8.860   9.467  2.6067 -1.6987  0.2727
  625MOL0     H86192   8.511   9.013   9.507  1.3409  0.1957 -1.8544
  625MOL0     H86193   8.604   9.016   9.274  0.8438 -0.7266  0.3531
  625MOL0     H86194   8.645   8.876   9.373  0.0949 -0.8235  0.6706
  625MOL0     H86195   8.429   8.774   9.245 -1.1898  1.9883  1.5313
  625MOL0     H86196   8.591   8.778   9.179 -1.5822 -0.5692 -2.3710
  625MOL0     H86197   8.376   8.857   9.034 -0.0717  1.9521 -4.0970
  625MOL0     H86198   8.402   9.009   9.115 -0.0148  0.1243  0.0054
  625MOL0     H86199   8.599   8.759   8.882 -2.3948  0.7524  0.0046
  625MOL0     H86200   8.821   8.943   8.651 -1.8013  0.2369 -0.4741
  625MOL0     H86201   8.761   8.779   8.680  1.0066 -1.1629  1.4634
  625MOL0     H86202   9.001   8.777   8.711  0.8585 -1.7411  0.5070
  625MOL0     H86203   9.005   8.904   8.835 -2.8320  1.1527  1.5908
  625MOL0     H86204   8.826   8.667   8.889 -0.1361  1.2979  0.9543
  625MOL0     H86205   8.997   8.652   8.910  0.0583  0.2567  1.4313
  625MOL0     H86206   8.861   8.873   9.054  0.3382  0.0850 -1.9548
  625MOL0     H86207   8.877   8.705   9.118  1.1069 -1.1031 -0.8023
  625MOL0     H86208   9.045   8.541   9.139  0.1404 -0.4708 -1.6422
  625MOL0     H86209   9.291   8.322   9.169 -1.1926 -1.5754  0.6508
  625MOL0     H86210   9.124   8.346   9.232 -0.3546 -0.5338  0.1122
  625MOL0     H86211   9.256   8.372   9.335 -1.4110 -1.2170  0.1473
  625MOL0     H86212   9.794   8.587   9.093  1.6340  2.3139  0.4083
  625MOL0     H86213  10.009   8.489   9.131 -1.1411  0.4253 -1.4005
  625MOL0     H86214  10.134   8.433   9.564  2.1924  0.8795  0.2203
  625MOL0     H86215  10.101   8.272   9.491 -0.0428  0.0526  1.6160
  625MOL0     H86216  10.339   8.450   9.482 -0.4909 -0.2890  1.5608
  625MOL0     H86217  10.325   8.285   9.550 -2.3966  1.1666  1.4008
  625MOL0     H86218  10.346   8.377   9.256  0.8950  0.2894 -0.2862
  625MOL0     H86219  10.322   8.205   9.302  2.3832 -0.5399 -1.3067
  625MOL0     H86220  10.535   8.224   9.244 -1.1050  0.4548 -0.4715
  625MOL0     H86221  10.540   8.199   9.414  0.7092  0.6603  0.5077
  625MOL0     H86222  10.595   8.458   9.249  3.6112 -0.5347 -1.0588
  625MOL0     H86223  10.602   8.441   9.434  1.4668 -0.1940 -0.0994
  625MOL0     H86224  10.770   8.298   9.226 -1.5191  2.7970 -2.0552
  625MOL0     H86225  10.793   8.291   9.396  0.4414 -1.8566 -2.5712
  625MOL0     H86226  10.879   8.494   9.417  2.4912  1.3240 -0.4334
  625MOL0     H86227  10.798   8.558   9.264  3.4828  1.2949 -2.0687
  625MOL0     H86228  10.947   8.397   9.142  0.4269 -1.4637  0.5623
  625MOL0     H86229  11.022   8.349   9.288 -0.7432  0.0656 -0.6790
  625MOL0     H86230   9.901   8.429   9.556  0.6552  1.4254  0.2038
  625MOL0     H86231   9.680   8.489   9.496  0.1867 -0.7118  0.1538
  625MOL0     H86232   9.482   8.773   9.166  0.4816 -1.7452  0.4291
  625MOL0     H86233   9.277   8.902   9.143 -0.9725  1.4311  3.6834
  625MOL0     H86234   7.868   9.129   9.517  1.4952  1.9026 -3.2432
  625MOL0     H86235   7.622   9.119   9.572 -0.6309  0.4550 -0.8494
  625MOL0     H86236   7.346   9.330   9.855 -0.0568  0.3223 -0.6931
  625MOL0     H86237   7.132   9.331   9.970 -1.0453  1.6084 -1.4778
  625MOL0     H86238   6.940   9.198  10.063  0.4491 -0.3087 -1.4194
  625MOL0     H86239   6.911   9.372  10.027  1.0261 -0.7758 -0.4391
  625MOL0     H86240   6.688   9.168  10.021  2.8344 -1.8530  0.1030
  625MOL0     H86241   6.683   9.348   9.990  0.1429  0.7898  1.2760
  625MOL0     H86242   6.794   9.257  10.251  1.4901 -0.5638 -1.5898
  625MOL0     H86243   6.722   9.411  10.204  3.0367 -0.4523  0.3589
  625MOL0     H86244   6.588   9.271  10.357  0.4350  1.5066 -0.3509
  625MOL0     H86245   6.581   9.139  10.251  1.0660 -0.5778  2.3941
  625MOL0     H86246   6.276   9.397  10.088  0.6526  0.1156  0.5488
  625MOL0     H86247   6.932   9.139   9.658 -0.9299  0.2224  2.2520
  625MOL0     H86248   7.138   9.199   9.399 -0.3855  0.3631 -0.8627
  625MOL0     H86249   7.217   9.049   9.457  1.2294  1.0680 -0.4733
  625MOL0     H86250   7.040   9.069   9.472  0.5102  0.3923 -0.9666
  626MOL0     O86251   6.174   7.184  10.848 -1.0293 -0.4328  0.7020
  626MOL0     C86252   6.095   7.269  10.875  0.1396 -0.0833 -0.4112
  626MOL0     O86253   6.123   7.393  10.921 -0.1666 -0.3823  0.0138
  626MOL0     C86254   6.253   7.433  10.931 -0.6865 -0.0618  0.1110
  626MOL0     C86255   6.293   7.455  11.062 -0.4795 -0.2226  0.2327
  626MOL0     C86256   6.421   7.501  11.092  0.6518  0.0145 -0.9188
  626MOL0     C86257   6.521   7.518  10.991 -0.1698 -0.3355  0.7872
  626MOL0     O86258   6.647   7.563  11.022 -0.6178  0.1645 -0.0891
  626MOL0     C86259   6.719   7.478  11.109 -0.4448  0.2720  0.0806
  626MOL0     C86260   6.866   7.437  11.043  0.6010  0.6587 -0.1694
  626MOL0     C86261   6.864   7.325  10.943 -0.1326 -0.2327 -0.8487
  626MOL0     C86262   7.000   7.295  10.893 -0.1155  0.6481 -0.1974
  626MOL0     C86263   6.992   7.269  10.742 -0.6524  0.3438  0.5708
  626MOL0     C86264   7.131   7.241  10.680 -0.5296 -0.3311  0.4130
  626MOL0     C86265   7.182   7.089  10.699 -0.3007  0.0597  0.3503
  626MOL0     C86266   7.305   7.045  10.607  0.1324  0.6244  0.4601
  626MOL0     N86267   7.425   7.116  10.656 -0.3396 -0.7859  0.0078
  626MOL0     C86268   7.473   7.219  10.587  0.0720  0.3414  0.4198
  626MOL0     C86269   7.609   7.223  10.610  0.7317 -0.4071  0.3547
  626MOL0     C86270   7.710   7.307  10.540 -0.1105 -0.1783  0.9181
  626MOL0     C86271   7.847   7.279  10.603 -0.1636 -0.8136 -0.1958
  626MOL0     C86272   7.962   7.374  10.553  0.1330 -0.3449  0.2049
  626MOL0     C86273   8.098   7.327  10.596 -0.6840 -0.5343  0.6448
  626MOL0     O86274   8.174   7.425  10.658  0.1375  0.3248 -0.2135
  626MOL0     C86275   8.305   7.425  10.630  0.2422 -0.1603  0.4231
  626MOL0     C86276   8.374   7.550  10.643 -0.2016  0.4680 -0.8271
  626MOL0     C86277   8.508   7.576  10.600  0.7778 -1.0280 -0.0696
  626MOL0     C86278   8.560   7.721  10.604  0.5624  0.0238 -0.1035
  626MOL0     C86279   8.585   7.469  10.559  0.3025  1.3718  0.8445
  626MOL0     C86280   8.737   7.468  10.542  0.2223  0.1813  0.0731
  626MOL0     O86281   8.792   7.352  10.508 -0.2565  0.3389  0.2812
  626MOL0     C86282   8.921   7.322  10.529  0.0711 -0.2187  0.4831
  626MOL0     C86283   9.021   7.346  10.430  0.1770  0.1813 -0.3170
  626MOL0     C86284   9.147   7.296  10.434  0.0108  0.0605 -0.8773
  626MOL0     C86285   9.184   7.216  10.544 -0.6278 -0.7127 -0.0187
  626MOL0     O86286   9.315   7.171  10.548 -0.2578  0.5002 -0.2374
  626MOL0     C86287   9.391   7.195  10.673 -0.0093 -0.4549  0.2807
  626MOL0     C86288   9.546   7.162  10.653 -0.4185  0.4918  0.2275
  626MOL0     C86289   9.566   7.008  10.620 -0.1135  0.3968  0.6421
  626MOL0     C86290   9.711   6.975  10.606 -0.1333 -0.2210 -0.0970
  626MOL0     C86291   9.746   6.829  10.564  0.0522 -0.6442  0.3024
  626MOL0     C86292   9.718   6.740  10.679 -0.5596 -0.0724 -0.2454
  626MOL0     C86293   9.776   6.595  10.661 -0.2079 -0.2824 -0.7501
  626MOL0     C86294   9.662   6.505  10.609 -1.1302  0.3146  0.9069
  626MOL0    Cl86295   9.735   6.346  10.559  0.1696  0.1123  0.1652
  626MOL0     C86296   9.096   7.205  10.651  0.1807  0.0006 -0.5562
  626MOL0     C86297   8.959   7.250  10.645  0.3683 -0.3519 -0.2789
  626MOL0     O86298   8.804   7.571  10.563  0.6395  0.5338  0.1326
  626MOL0     C86299   8.523   7.337  10.554  0.0702 -0.9962 -0.6677
  626MOL0     C86300   8.389   7.323  10.585  0.3911  1.0041 -0.3551
  626MOL0     N86301   7.633   7.118  10.692 -0.7965  0.0388  0.2471
  626MOL0     N86302   7.528   7.059  10.735  0.3875  0.3260  0.7499
  626MOL0     C86303   6.479   7.483  10.858  0.5185 -1.0084  0.3992
  626MOL0     C86304   6.345   7.450  10.827  0.4107 -0.0126  0.2430
  626MOL0     C86305   5.958   7.234  10.851 -0.0147  0.0030 -0.6908
  626MOL0     C86306   5.861   7.299  10.926  0.2720 -0.3498  0.1979
  626MOL0     C86307   5.726   7.259  10.906  0.4942 -0.9908 -0.1573
  626MOL0     C86308   5.679   7.164  10.822 -0.8188  0.3602  0.0202
  626MOL0     O86309   5.546   7.126  10.836  0.1144  0.0889  0.2939
  626MOL0     C86310   5.476   7.044  10.737  0.5196 -0.4971 -0.2892
  626MOL0     C86311   5.337   7.004  10.806 -0.4378  0.7249  0.2790
  626MOL0     C86312   5.349   6.906  10.920 -0.2665 -0.2036  0.0990
  626MOL0     C86313   5.217   6.883  10.994 -0.2142  0.1596 -0.7045
  626MOL0     C86314   5.106   6.828  10.914 -0.1065  0.3966  0.0696
  626MOL0     C86315   5.020   6.774  10.847 -0.2862 -0.8917 -0.5721
  626MOL0     C86316   5.770   7.124  10.728  0.0842  1.0207  0.1931
  626MOL0     C86317   5.909   7.162  10.744  0.1341  0.2634  0.0486
  626MOL0     C86318   6.003   7.125  10.634  0.1895  0.4453 -0.1014
  626MOL0     H86319   6.217   7.431  11.136  1.3969 -1.5840  1.8294
  626MOL0     H86320   6.444   7.521  11.197 -0.1700 -1.4434 -0.4239
  626MOL0     H86321   6.663   7.390  11.142  0.4274 -0.1615  0.4184
  626MOL0     H86322   6.734   7.546  11.194 -0.0399  0.2219  0.0514
  626MOL0     H86323   6.898   7.529  10.994  1.6409  0.1459 -0.4844
  626MOL0     H86324   6.936   7.411  11.124  1.0142  0.1360 -0.6899
  626MOL0     H86325   6.833   7.236  10.998  1.7935  0.3946  1.3983
  626MOL0     H86326   6.793   7.352  10.864 -1.2602  1.2602  0.6193
  626MOL0     H86327   7.053   7.388  10.913 -1.1347  0.7364  2.4548
  626MOL0     H86328   7.033   7.199  10.936 -0.9622  0.2278 -0.4768
  626MOL0     H86329   6.950   7.360  10.698  0.7071 -0.1196 -1.9116
  626MOL0     H86330   6.923   7.186  10.721  0.2240 -0.0912 -0.7298
  626MOL0     H86331   7.118   7.246  10.571  0.6629  1.1705  0.3046
  626MOL0     H86332   7.207   7.316  10.703 -1.0768 -0.1949  1.8880
  626MOL0     H86333   7.100   7.017  10.684  0.0574 -0.0261 -1.4471
  626MOL0     H86334   7.214   7.073  10.802 -0.6165 -1.6121  0.2139
  626MOL0     H86335   7.324   6.938  10.618  4.8387  1.0194 -1.6810
  626MOL0     H86336   7.282   7.074  10.504 -2.9199 -0.8513  0.5953
  626MOL0     H86337   7.420   7.281  10.516  1.6346  0.3515 -0.8000
  626MOL0     H86338   7.687   7.414  10.541 -1.6536 -0.4529 -0.7067
  626MOL0     H86339   7.710   7.284  10.433  1.4139  1.7640  0.4433
  626MOL0     H86340   7.841   7.270  10.712  1.7067 -0.9906 -0.0667
  626MOL0     H86341   7.868   7.177  10.568  0.5537 -1.2600  1.4310
  626MOL0     H86342   7.953   7.381  10.444 -0.8857  1.6578  0.3526
  626MOL0     H86343   7.950   7.474  10.597  1.3399  0.6638 -1.5815
  626MOL0     H86344   8.073   7.250  10.670 -2.9150 -3.2437 -2.6391
  626MOL0     H86345   8.157   7.277  10.519  0.7437  0.6544  0.9193
  626MOL0     H86346   8.313   7.639  10.653 -1.5321 -0.5456  0.4393
  626MOL0     H86347   8.655   7.727  10.659  0.4082  3.0083  0.0178
  626MOL0     H86348   8.502   7.785  10.672  0.1511 -1.3674  0.8945
  626MOL0     H86349   8.568   7.755  10.500 -2.6033 -2.0702 -1.1410
  626MOL0     H86350   8.987   7.386  10.335  0.8822 -1.7050 -1.4079
  626MOL0     H86351   9.214   7.304  10.349  1.5097 -0.3196  0.2398
  626MOL0     H86352   9.369   7.296  10.710 -1.0030 -1.3139  2.1937
  626MOL0     H86353   9.347   7.131  10.751  0.7952  0.3869  1.4674
  626MOL0     H86354   9.580   7.221  10.567 -1.1808 -0.1235 -0.5092
  626MOL0     H86355   9.609   7.188  10.739  3.0070 -2.2653 -1.2274
  626MOL0     H86356   9.511   6.985  10.528  0.8061 -0.0687  0.1980
  626MOL0     H86357   9.521   6.954  10.705 -2.1646 -1.0838 -1.2517
  626MOL0     H86358   9.753   6.990  10.707 -0.4015 -4.5558  0.8509
  626MOL0     H86359   9.754   7.040  10.530 -1.9394  3.3148  1.6420
  626MOL0     H86360   9.699   6.795  10.471  1.0116 -2.2460  0.3713
  626MOL0     H86361   9.850   6.830  10.531 -0.7376 -2.0764 -2.5127
  626MOL0     H86362   9.609   6.743  10.691 -0.6356 -1.8921 -0.3237
  626MOL0     H86363   9.766   6.778  10.770 -0.3783 -1.0104  0.0572
  626MOL0     H86364   9.814   6.562  10.758 -0.4058  2.0520  0.1909
  626MOL0     H86365   9.858   6.597  10.589  0.7835  3.2680  0.2819
  626MOL0     H86366   9.612   6.550  10.522 -0.9149 -1.5511 -0.2343
  626MOL0     H86367   9.585   6.494  10.685 -1.2811  0.1378  0.7290
  626MOL0     H86368   9.121   7.137  10.732  1.3258  0.0608 -0.8499
  626MOL0     H86369   8.881   7.228  10.717  1.4749 -1.3854  0.6390
  626MOL0     H86370   8.579   7.251  10.521 -1.2300 -2.1717  0.0935
  626MOL0     H86371   8.343   7.225  10.583  1.3594  0.5482 -1.8478
  626MOL0     H86372   6.530   7.500  10.764  1.3874  1.2834  1.2205
  626MOL0     H86373   6.301   7.423  10.732 -0.1629 -3.1069  1.2880
  626MOL0     H86374   5.886   7.378  10.995  1.5066  0.1372 -0.7614
  626MOL0     H86375   5.645   7.294  10.970  0.7867 -1.9837  0.7884
  626MOL0     H86376   5.472   7.109  10.650 -2.8131  1.3044  1.0308
  626MOL0     H86377   5.525   6.950  10.712  1.2621 -0.6593  1.5373
  626MOL0     H86378   5.268   6.955  10.737  0.9790 -4.9102  2.3807
  626MOL0     H86379   5.287   7.092  10.848 -0.0395 -0.1993  2.8717
  626MOL0     H86380   5.398   6.813  10.890  2.2669  0.4612  1.8970
  626MOL0     H86381   5.430   6.934  10.987  2.3645 -2.9317 -1.6869
  626MOL0     H86382   5.192   6.972  11.053 -0.3003 -0.5328  0.3368
  626MOL0     H86383   5.236   6.808  11.072  2.1056  1.6085  0.2261
  626MOL0     H86384   4.957   6.718  10.780 -0.8717 -0.9999  0.0631
  626MOL0     H86385   5.756   7.044  10.656 -1.2093  1.9808 -0.6753
  626MOL0     H86386   6.061   7.033  10.650  2.5354  1.9575  0.6163
  626MOL0     H86387   5.953   7.116  10.537  2.0033  4.1626 -1.5722
  626MOL0     H86388   6.069   7.209  10.612  0.5819  0.4426  1.0388
  627MOL0     O86389   1.324   2.767   2.990  0.6145 -0.2196  0.0551
  627MOL0     C86390   1.264   2.697   3.075  0.1982 -0.8717 -0.3652
  627MOL0     O86391   1.320   2.588   3.135 -0.1873 -0.0651 -0.0316
  627MOL0     C86392   1.433   2.542   3.078 -0.0095 -0.0100  0.5281
  627MOL0     C86393   1.539   2.503   3.162  0.8072  0.1201  0.3819
  627MOL0     C86394   1.637   2.422   3.098 -0.0546  0.5853 -0.6261
  627MOL0     C86395   1.642   2.389   2.966  0.1043 -0.0388 -0.5765
  627MOL0     O86396   1.745   2.328   2.906  0.3696  0.3569  0.3000
  627MOL0     C86397   1.864   2.303   2.975 -0.3243  0.6904 -0.5497
  627MOL0     C86398   1.963   2.230   2.882  0.6931 -0.2054  0.2255
  627MOL0     C86399   2.086   2.192   2.958 -0.5263 -0.6913 -0.4077
  627MOL0     C86400   2.201   2.155   2.869 -0.2487  0.2348  0.1259
  627MOL0     C86401   2.340   2.156   2.938 -0.4644  0.5770  0.0338
  627MOL0     C86402   2.365   2.060   3.055 -0.3473 -0.5828 -0.6187
  627MOL0     C86403   2.515   2.047   3.098  0.6327 -0.1677 -0.1132
  627MOL0     C86404   2.577   2.179   3.153  0.7960 -0.5253  0.0780
  627MOL0     N86405   2.712   2.168   3.197  0.4588 -0.2793 -0.5403
  627MOL0     C86406   2.787   2.066   3.161 -0.8755  0.8938 -0.0458
  627MOL0     C86407   2.906   2.094   3.214 -0.2814  0.7949  0.4006
  627MOL0     C86408   3.028   2.015   3.206 -0.3170  0.1617 -0.5714
  627MOL0     C86409   3.073   1.952   3.346 -0.1057  0.0638  0.1605
  627MOL0     C86410   2.999   1.811   3.366  0.5853  0.3838  0.0886
  627MOL0     C86411   3.063   1.731   3.479 -0.2038 -0.2669 -0.2286
  627MOL0     O86412   3.197   1.699   3.432  0.5246  0.1001  0.0143
  627MOL0     C86413   3.301   1.688   3.512  0.3812  0.0413  0.2015
  627MOL0     C86414   3.284   1.662   3.646 -1.2366 -0.1842 -0.4089
  627MOL0     C86415   3.404   1.662   3.727 -0.0916  0.4864  0.4452
  627MOL0     C86416   3.382   1.656   3.871 -0.0092 -0.1328  0.2058
  627MOL0     C86417   3.532   1.682   3.674  0.9470 -0.3601 -0.5335
  627MOL0     C86418   3.651   1.680   3.760 -1.1668  0.2919  0.0655
  627MOL0     O86419   3.735   1.785   3.740  0.2254  0.1597  0.2439
  627MOL0     C86420   3.844   1.823   3.823  0.2184  1.2093 -0.3522
  627MOL0     C86421   3.906   1.739   3.913  0.4601 -0.4629 -0.7948
  627MOL0     C86422   4.015   1.790   3.998  0.2786 -0.1284  0.4049
  627MOL0     C86423   4.068   1.915   3.978 -0.3899  0.3738 -0.8266
  627MOL0     O86424   4.183   1.962   4.036 -0.1643 -1.1363  0.3404
  627MOL0     C86425   4.179   1.951   4.174  0.3315 -0.1224  0.3137
  627MOL0     C86426   4.321   1.989   4.241 -0.0243  0.6388  0.4945
  627MOL0     C86427   4.298   2.005   4.397 -0.2960  0.1016  0.8506
  627MOL0     C86428   4.413   2.056   4.481 -1.2480  0.1014  0.6392
  627MOL0     C86429   4.397   2.033   4.631 -0.1517 -0.4176 -0.5169
  627MOL0     C86430   4.418   1.891   4.681  0.7528  0.2312 -0.0668
  627MOL0     C86431   4.561   1.833   4.665 -0.9444 -0.5077 -0.5632
  627MOL0     C86432   4.652   1.898   4.771  0.0230 -0.2296  0.9509
  627MOL0    Cl86433   4.819   1.837   4.761  0.0110  0.2901  0.2834
  627MOL0     C86434   4.008   2.002   3.882  0.3329  0.3939  0.0840
  627MOL0     C86435   3.889   1.954   3.806 -0.6252 -0.1447 -0.0638
  627MOL0     O86436   3.670   1.590   3.838 -0.3635  0.5087  0.6219
  627MOL0     C86437   3.541   1.710   3.541 -0.7506  0.6973  0.1839
  627MOL0     C86438   3.426   1.719   3.462 -0.1066  0.0432  0.8531
  627MOL0     N86439   2.898   2.218   3.274 -0.3158 -0.1114 -1.1915
  627MOL0     N86440   2.781   2.260   3.268  0.0807 -0.0155  0.0814
  627MOL0     C86441   1.529   2.417   2.892 -0.0974  0.9090 -0.0976
  627MOL0     C86442   1.421   2.478   2.954 -0.9433 -0.5834 -0.3083
  627MOL0     C86443   1.128   2.742   3.111  0.0561 -0.4332 -0.6506
  627MOL0     C86444   1.070   2.852   3.041 -0.1568 -0.2281 -0.5426
  627MOL0     C86445   0.933   2.883   3.053 -0.2909 -0.7558  0.2994
  627MOL0     C86446   0.849   2.815   3.141 -0.2884  0.2744  0.2755
  627MOL0     O86447   0.718   2.859   3.137 -0.8386  0.5937 -0.5166
  627MOL0     C86448   0.612   2.773   3.155  0.8869  0.7058  0.5930
  627MOL0     C86449   0.487   2.856   3.161  0.9725 -0.6629 -0.7280
  627MOL0     C86450   0.432   2.902   3.023 -0.3453  0.3155  0.1934
  627MOL0     C86451   0.514   3.008   2.949  0.0892  0.2302 -0.3264
  627MOL0     C86452   0.425   3.062   2.841  1.1852 -0.0620  0.5326
  627MOL0     C86453   0.358   3.113   2.749 -0.2893  0.1054 -0.4278
  627MOL0     C86454   0.911   2.719   3.220  0.9134 -0.3250  0.5834
  627MOL0     C86455   1.042   2.677   3.206 -0.6210 -0.3932  0.0370
  627MOL0     C86456   1.088   2.558   3.289  0.1540 -0.1518 -0.3774
  627MOL0     H86457   1.559   2.525   3.266  0.7415 -2.7795  1.1033
  627MOL0     H86458   1.715   2.393   3.168 -0.2209  0.9175 -0.2985
  627MOL0     H86459   1.843   2.238   3.060 -0.3086  2.0208  0.4969
  627MOL0     H86460   1.911   2.396   3.006 -0.3135  0.7631 -0.7818
  627MOL0     H86461   1.919   2.136   2.847  2.1694 -0.5814 -0.7026
  627MOL0     H86462   1.995   2.291   2.798 -0.4869 -0.2335 -0.2733
  627MOL0     H86463   2.124   2.278   3.013  2.2302 -0.5662 -2.2919
  627MOL0     H86464   2.065   2.107   3.023  1.8734 -0.2671  1.0157
  627MOL0     H86465   2.184   2.052   2.836 -1.4633  1.1006 -2.1948
  627MOL0     H86466   2.198   2.210   2.774 -1.3947 -1.6099 -0.9450
  627MOL0     H86467   2.344   2.249   2.995  1.2323 -1.5331  3.7467
  627MOL0     H86468   2.418   2.160   2.862 -0.9832  1.6825 -0.4556
  627MOL0     H86469   2.298   2.082   3.139 -0.0387 -3.5213  0.5202
  627MOL0     H86470   2.321   1.963   3.032 -3.0107  0.1365  0.9978
  627MOL0     H86471   2.570   2.001   3.016  0.5462 -1.8819  0.7474
  627MOL0     H86472   2.506   1.976   3.181  0.3770  0.0986  0.0901
  627MOL0     H86473   2.579   2.248   3.068  0.4519 -2.7491 -1.8444
  627MOL0     H86474   2.512   2.223   3.228 -1.3442 -0.5907 -1.6439
  627MOL0     H86475   2.761   1.975   3.108 -1.4918  1.2127 -0.2977
  627MOL0     H86476   3.104   2.087   3.173  0.3138 -0.1860  0.1031
  627MOL0     H86477   3.028   1.933   3.134  1.5893  0.3774 -0.8722
  627MOL0     H86478   3.182   1.942   3.346 -0.2181 -1.4527 -1.0328
  627MOL0     H86479   3.054   2.020   3.430 -1.1414 -0.3073  0.2404
  627MOL0     H86480   2.892   1.821   3.389  0.5926 -1.8574  1.3631
  627MOL0     H86481   2.996   1.750   3.275  1.1636 -3.3623  2.3554
  627MOL0     H86482   3.066   1.779   3.577 -1.1810 -4.1893  1.9152
  627MOL0     H86483   3.006   1.640   3.498 -0.5843  0.2495  1.2461
  627MOL0     H86484   3.187   1.636   3.687 -2.1909  3.4257 -0.0928
  627MOL0     H86485   3.375   1.548   3.887  1.3782 -0.0011  2.0132
  627MOL0     H86486   3.284   1.695   3.902 -0.5497 -0.0285 -1.5165
  627MOL0     H86487   3.456   1.701   3.938 -1.6344  1.3997  1.0843
  627MOL0     H86488   3.885   1.634   3.926 -1.4853 -0.0320 -0.0081
  627MOL0     H86489   4.052   1.723   4.074  1.6905  0.3046  0.1347
  627MOL0     H86490   4.099   2.015   4.210 -1.2427 -0.6085 -2.0875
  627MOL0     H86491   4.161   1.854   4.222  1.3916 -1.1049 -1.1758
  627MOL0     H86492   4.388   1.906   4.215  1.9735  2.5934 -0.9209
  627MOL0     H86493   4.368   2.076   4.193 -1.0940  1.1109  0.2732
  627MOL0     H86494   4.271   1.902   4.423 -0.1685 -0.3740 -0.7831
  627MOL0     H86495   4.207   2.064   4.406 -0.8848 -0.9964  2.5522
  627MOL0     H86496   4.413   2.164   4.469 -2.2876 -0.0094 -0.6261
  627MOL0     H86497   4.510   2.014   4.452 -2.3557 -2.1757 -0.0473
  627MOL0     H86498   4.469   2.098   4.682 -1.6194  1.3566 -0.5726
  627MOL0     H86499   4.303   2.058   4.680  0.8670  1.8716  0.4296
  627MOL0     H86500   4.356   1.820   4.626  1.5059  1.8079 -3.1541
  627MOL0     H86501   4.390   1.879   4.786  0.1342  2.0065  0.0115
  627MOL0     H86502   4.597   1.848   4.562  1.6542  1.3845  0.4961
  627MOL0     H86503   4.557   1.728   4.696  0.5849  0.2618  2.6803
  627MOL0     H86504   4.613   1.870   4.869  0.4332 -2.7498  0.4603
  627MOL0     H86505   4.664   2.006   4.758  1.3170 -0.0787  2.9374
  627MOL0     H86506   4.053   2.100   3.868 -0.9240  1.0298  0.2956
  627MOL0     H86507   3.847   2.024   3.734  1.9383  2.0297  0.3677
  627MOL0     H86508   3.638   1.733   3.500 -0.3461  1.1183  1.3346
  627MOL0     H86509   3.433   1.731   3.355 -3.0533 -0.9054  0.4613
  627MOL0     H86510   1.535   2.383   2.789  1.3581 -2.0358  0.8565
  627MOL0     H86511   1.328   2.506   2.906 -0.2005  1.2160 -0.8207
  627MOL0     H86512   1.122   2.911   2.967 -2.4268  1.3150 -1.0255
  627MOL0     H86513   0.892   2.963   2.992  0.7652  0.4981  1.1917
  627MOL0     H86514   0.610   2.696   3.077 -0.3926  2.9110 -1.7112
  627MOL0     H86515   0.609   2.727   3.254 -3.0453  0.2955  0.4276
  627MOL0     H86516   0.498   2.944   3.226  0.0875 -0.2093 -1.1581
  627MOL0     H86517   0.410   2.799   3.214 -0.5176  0.6482 -1.3802
  627MOL0     H86518   0.420   2.819   2.952 -0.3742  1.4016 -1.1100
  627MOL0     H86519   0.331   2.942   3.038 -0.7518 -0.9561  1.0689
  627MOL0     H86520   0.605   2.964   2.907  1.0976  1.1124  0.8594
  627MOL0     H86521   0.540   3.091   3.015 -2.2389 -0.4748  1.6515
  627MOL0     H86522   0.294   3.158   2.675 -1.0789  1.2862  0.9375
  627MOL0     H86523   0.856   2.650   3.284  3.4106 -1.5428  1.5526
  627MOL0     H86524   1.095   2.475   3.219  0.2973  0.6104 -1.2739
  627MOL0     H86525   1.186   2.586   3.330  0.1182  0.2389 -0.5562
  627MOL0     H86526   1.027   2.533   3.376  2.3113 -1.4486  0.8608
  628MOL0     O86527   9.831   4.197   3.980  0.2625  0.0385 -0.2041
  628MOL0     C86528   9.748   4.228   3.894 -0.0714  0.9908  0.0237
  628MOL0     O86529   9.726   4.180   3.769  0.0386  0.2353  0.0649
  628MOL0     C86530   9.823   4.097   3.719  0.2561 -0.1739  0.5422
  628MOL0     C86531   9.782   3.969   3.678  0.8443 -0.2838 -0.4276
  628MOL0     C86532   9.879   3.878   3.638  0.4906 -0.2292 -0.2824
  628MOL0     C86533  10.017   3.905   3.654  0.2594  0.4088 -0.4303
  628MOL0     O86534  10.117   3.817   3.625 -0.1232  0.6301 -0.0839
  628MOL0     C86535  10.080   3.677   3.602 -0.0531 -0.7292  0.0335
  628MOL0     C86536  10.211   3.598   3.570 -0.4602 -0.1029 -0.6472
  628MOL0     C86537  10.309   3.605   3.683 -0.3547  0.2462 -0.3308
  628MOL0     C86538  10.445   3.536   3.653 -0.4077 -0.3978  0.3675
  628MOL0     C86539  10.543   3.520   3.777 -0.4122 -0.2560 -0.2947
  628MOL0     C86540  10.684   3.498   3.738 -0.6559  0.4137  0.2521
  628MOL0     C86541  10.699   3.349   3.689  0.5985 -0.5814  0.1861
  628MOL0     C86542  10.835   3.316   3.633  0.1678  0.3140  0.1925
  628MOL0     N86543  10.935   3.280   3.734 -0.1414  0.5833 -0.4059
  628MOL0     C86544  10.933   3.162   3.807  0.4536  1.6396 -0.4640
  628MOL0     C86545  11.033   3.174   3.899 -0.0111  0.3013 -0.3598
  628MOL0     C86546  11.062   3.091   4.027  0.1617  0.6699  0.3622
  628MOL0     C86547  11.086   2.949   3.971 -0.4536 -0.1347  0.2720
  628MOL0     C86548  11.111   2.857   4.092  0.0853 -0.2476  0.1948
  628MOL0     C86549  11.255   2.861   4.145 -0.3445  0.4733  0.0732
  628MOL0     O86550  11.357   2.848   4.040 -0.6372  0.0198  0.0538
  628MOL0     C86551  11.490   2.812   4.077 -0.3610  0.7813 -0.2419
  628MOL0     C86552  11.585   2.808   3.975  0.0366  0.2262  0.2248
  628MOL0     C86553  11.729   2.810   4.008 -0.3666  0.2540  0.0727
  628MOL0     C86554  11.826   2.798   3.894 -0.3781 -0.4197  0.3956
  628MOL0     C86555  11.779   2.808   4.138  0.5358  0.2605  0.3587
  628MOL0     C86556  11.921   2.838   4.174 -0.9952  0.0362 -0.2370
  628MOL0     O86557  11.941   2.913   4.282  0.7101 -0.0343 -0.1404
  628MOL0     C86558  12.061   2.943   4.345 -0.1364 -0.1234  0.2638
  628MOL0     C86559  12.047   3.009   4.469  0.2610  0.4015  0.6941
  628MOL0     C86560  12.152   3.039   4.549  0.0254 -0.8405  0.1752
  628MOL0     C86561  12.285   3.019   4.508  0.2056 -1.0078  0.0463
  628MOL0     O86562  12.404   3.033   4.577 -0.0427 -0.2733 -0.4517
  628MOL0     C86563  12.392   3.062   4.716  0.5827  0.1815 -0.3268
  628MOL0     C86564  12.536   3.093   4.766 -0.2353 -0.5415  0.3010
  628MOL0     C86565  12.540   3.121   4.925 -0.6067  0.5295  0.8604
  628MOL0     C86566  12.482   3.253   4.972  0.5982  0.0334 -0.1045
  628MOL0     C86567  12.539   3.382   4.915 -0.1571 -0.0673 -0.0610
  628MOL0     C86568  12.502   3.509   4.993  0.0694 -0.1164  0.0312
  628MOL0     C86569  12.347   3.529   4.997 -0.5489 -0.0092 -0.1201
  628MOL0     C86570  12.286   3.544   4.858  0.2904  0.3932  0.6900
  628MOL0    Cl86571  12.350   3.688   4.787 -0.3610 -0.4934 -0.0370
  628MOL0     C86572  12.297   2.964   4.386 -0.6520  0.1190  0.0957
  628MOL0     C86573  12.192   2.916   4.305  0.1665 -0.0629  0.7228
  628MOL0     O86574  12.016   2.791   4.116 -0.5517  0.1484  0.2365
  628MOL0     C86575  11.681   2.798   4.242  0.6370 -0.0051  0.8359
  628MOL0     C86576  11.539   2.801   4.210  0.4976  0.5251 -0.6138
  628MOL0     N86577  11.097   3.291   3.869  0.0431  0.1080 -0.1948
  628MOL0     N86578  11.036   3.355   3.775  0.4537 -0.3381  0.0202
  628MOL0     C86579  10.054   4.032   3.699 -0.2091 -0.7686 -0.2878
  628MOL0     C86580   9.963   4.131   3.730 -0.0925 -0.2895  0.6999
  628MOL0     C86581   9.639   4.322   3.938 -0.1674  0.1499 -0.3990
  628MOL0     C86582   9.513   4.308   3.871 -0.5258  0.2380 -0.7335
  628MOL0     C86583   9.399   4.393   3.897 -0.1216 -1.2655  0.3535
  628MOL0     C86584   9.417   4.498   3.981 -0.5167 -0.5361  0.0837
  628MOL0     O86585   9.327   4.612   4.002  0.3177  0.3729  0.2949
  628MOL0     C86586   9.188   4.603   3.964 -0.3134 -0.3254 -0.6929
  628MOL0     C86587   9.102   4.499   4.029 -0.3762 -0.4789  0.0470
  628MOL0     C86588   8.960   4.509   3.984 -0.1901  0.5848  0.3489
  628MOL0     C86589   8.868   4.416   4.075 -0.0533 -0.2389  0.6454
  628MOL0     C86590   8.723   4.434   4.050  0.1230  0.7885 -0.1469
  628MOL0     C86591   8.603   4.450   4.034 -0.0338  0.9407  0.5768
  628MOL0     C86592   9.541   4.514   4.050 -0.1230  0.4643 -0.4843
  628MOL0     C86593   9.656   4.437   4.018 -0.1920  0.5623  0.5360
  628MOL0     C86594   9.788   4.463   4.085  0.1766  1.0122  0.0667
  628MOL0     H86595   9.676   3.945   3.685  1.0995 -1.6348 -0.9448
  628MOL0     H86596   9.840   3.778   3.619 -1.4661  0.6428 -1.2240
  628MOL0     H86597  10.013   3.659   3.517 -1.9546 -3.9887  2.0161
  628MOL0     H86598  10.019   3.652   3.690 -2.3464  1.1515 -0.9040
  628MOL0     H86599  10.179   3.495   3.553 -0.5290 -0.0590 -0.7814
  628MOL0     H86600  10.262   3.635   3.480 -2.1577 -0.9469 -2.0072
  628MOL0     H86601  10.317   3.707   3.721 -2.8884  0.4560 -0.1918
  628MOL0     H86602  10.279   3.554   3.775  1.5458  2.5213  1.6872
  628MOL0     H86603  10.434   3.438   3.606  2.6283 -1.3958  1.5299
  628MOL0     H86604  10.499   3.599   3.582  0.8855  1.1283  2.5818
  628MOL0     H86605  10.507   3.447   3.850 -0.2833  0.5655  0.6070
  628MOL0     H86606  10.528   3.609   3.838  2.1535  0.5579 -0.7287
  628MOL0     H86607  10.720   3.572   3.666  0.4191  0.0741  0.4076
  628MOL0     H86608  10.746   3.519   3.825  1.2398 -0.7832 -0.7200
  628MOL0     H86609  10.624   3.320   3.615 -1.2698  0.9013  1.4003
  628MOL0     H86610  10.683   3.278   3.770  2.3282  0.7026  1.7277
  628MOL0     H86611  10.826   3.227   3.569  0.2552 -0.0652  0.7037
  628MOL0     H86612  10.878   3.389   3.564  1.3386 -1.0647 -0.5962
  628MOL0     H86613  10.859   3.084   3.799  1.7774  0.5188 -2.6802
  628MOL0     H86614  10.986   3.099   4.106 -0.6933  1.2116 -0.4888
  628MOL0     H86615  11.151   3.125   4.080  2.4901 -1.3773 -1.9612
  628MOL0     H86616  11.005   2.900   3.916  1.5524 -0.0080 -3.1453
  628MOL0     H86617  11.172   2.945   3.903  0.4700  1.4513  1.2975
  628MOL0     H86618  11.041   2.874   4.175  1.7104  0.1878  1.5376
  628MOL0     H86619  11.081   2.757   4.059  2.6172 -1.9437  2.5189
  628MOL0     H86620  11.277   2.944   4.211 -0.4384  1.3041 -0.9160
  628MOL0     H86621  11.256   2.770   4.207  1.1069 -1.7076 -2.8539
  628MOL0     H86622  11.560   2.828   3.871  2.7260  0.6763 -0.4150
  628MOL0     H86623  11.769   2.816   3.802 -0.4203  1.7815  0.7880
  628MOL0     H86624  11.865   2.697   3.881 -1.2059 -0.4351 -3.4951
  628MOL0     H86625  11.913   2.864   3.894 -0.4765 -0.2875  1.0901
  628MOL0     H86626  11.951   3.033   4.513  0.1347  3.4522 -1.0312
  628MOL0     H86627  12.139   3.071   4.652  0.8045 -1.6425  0.5342
  628MOL0     H86628  12.334   3.152   4.735  1.1725  0.4732  0.1166
  628MOL0     H86629  12.353   2.973   4.767 -1.0728  1.1778  0.1922
  628MOL0     H86630  12.601   3.009   4.740 -3.7261 -3.5816  0.5000
  628MOL0     H86631  12.578   3.181   4.718  1.9261 -0.0883  2.7590
  628MOL0     H86632  12.646   3.116   4.955 -0.2201 -3.0257 -0.6773
  628MOL0     H86633  12.487   3.043   4.979 -1.4164  0.7439  0.3886
  628MOL0     H86634  12.502   3.248   5.080  1.0319 -2.3805 -0.2379
  628MOL0     H86635  12.373   3.246   4.962  0.5339  0.9455 -0.1487
  628MOL0     H86636  12.647   3.376   4.899 -0.1251  0.3426 -0.0055
  628MOL0     H86637  12.502   3.391   4.812 -1.6396  2.1203  0.5815
  628MOL0     H86638  12.550   3.597   4.950  2.6977  0.3045  3.4095
  628MOL0     H86639  12.534   3.496   5.097 -0.0869  0.9072  0.2179
  628MOL0     H86640  12.316   3.620   5.051  0.0636  2.2166 -3.2625
  628MOL0     H86641  12.302   3.440   5.041 -2.9822  0.3911 -1.5965
  628MOL0     H86642  12.177   3.551   4.870  0.3417  0.3742  1.1730
  628MOL0     H86643  12.299   3.457   4.792 -0.2004  0.9788 -0.2028
  628MOL0     H86644  12.399   2.938   4.362 -0.6165 -0.2777  0.6468
  628MOL0     H86645  12.212   2.869   4.209 -2.1066  2.6323 -1.2231
  628MOL0     H86646  11.737   2.804   4.335  1.9638 -1.8221  0.2040
  628MOL0     H86647  11.466   2.817   4.288 -0.2535 -0.7124 -1.0348
  628MOL0     H86648  10.160   4.039   3.721 -0.0848  1.0322 -1.3041
  628MOL0     H86649   9.995   4.222   3.780  1.0797 -0.2629 -0.0464
  628MOL0     H86650   9.487   4.223   3.808 -0.6808 -0.1264 -0.1898
  628MOL0     H86651   9.305   4.383   3.846  0.3996 -0.4495 -0.7928
  628MOL0     H86652   9.140   4.699   3.986  1.0316  0.2861 -0.2953
  628MOL0     H86653   9.182   4.588   3.856 -2.7475  0.5388 -0.7391
  628MOL0     H86654   9.098   4.507   4.138  0.1437  1.1050 -0.0227
  628MOL0     H86655   9.139   4.402   3.996  2.5044 -0.0831  1.8351
  628MOL0     H86656   8.928   4.613   3.978  0.6651  0.8399  0.0065
  628MOL0     H86657   8.970   4.471   3.882  0.9400 -2.3651  1.4560
  628MOL0     H86658   8.875   4.453   4.178 -2.7928 -0.9562  1.1628
  628MOL0     H86659   8.902   4.312   4.081 -0.1531 -0.3382 -0.3908
  628MOL0     H86660   8.499   4.478   4.037 -0.9067 -1.5733 -1.7331
  628MOL0     H86661   9.543   4.590   4.128 -0.9786  0.8855 -0.8548
  628MOL0     H86662   9.797   4.388   4.164  0.7696 -3.0746 -3.4822
  628MOL0     H86663   9.867   4.438   4.014 -1.3958 -0.1311 -1.3514
  628MOL0     H86664   9.806   4.567   4.114  2.4286  0.8159 -0.4527
  629MOL0     O86665   7.182   2.773   5.532 -0.0550  0.0814 -0.2646
  629MOL0     C86666   7.096   2.687   5.525  0.4165  0.0226 -0.2174
  629MOL0     O86667   7.121   2.565   5.470  0.3208  0.7732  0.3553
  629MOL0     C86668   7.248   2.507   5.479  0.0070 -0.0704 -0.7909
  629MOL0     C86669   7.359   2.537   5.566  1.0450 -0.1152  0.8299
  629MOL0     C86670   7.473   2.465   5.568  0.5804 -0.6934  0.2419
  629MOL0     C86671   7.491   2.354   5.485 -0.3016  0.0077  1.3900
  629MOL0     O86672   7.610   2.277   5.488  0.9593  0.7217  0.0729
  629MOL0     C86673   7.724   2.319   5.566  1.1033  1.1141  0.1815
  629MOL0     C86674   7.820   2.413   5.481 -0.1175  0.2391  0.1263
  629MOL0     C86675   7.854   2.352   5.348  0.1656  0.3568 -0.4142
  629MOL0     C86676   7.974   2.417   5.270  0.4737  0.9517  0.3793
  629MOL0     C86677   7.945   2.553   5.218 -0.6875  0.4608 -0.4382
  629MOL0     C86678   8.037   2.599   5.100 -0.3610  0.2997 -0.0230
  629MOL0     C86679   8.015   2.751   5.068  0.1893 -0.2255 -0.1426
  629MOL0     C86680   8.056   2.851   5.180 -0.0667 -0.3931  0.2309
  629MOL0     N86681   8.192   2.845   5.225  0.1085  0.5186 -0.1909
  629MOL0     C86682   8.294   2.881   5.145 -0.1884 -0.5964  0.0179
  629MOL0     C86683   8.400   2.900   5.238  0.0601  0.3612  0.6222
  629MOL0     C86684   8.545   2.944   5.220 -0.0093 -0.1919 -1.0522
  629MOL0     C86685   8.621   2.875   5.104  0.5207 -0.0467 -0.0133
  629MOL0     C86686   8.760   2.934   5.071  0.0186  0.2444 -0.0396
  629MOL0     C86687   8.851   2.948   5.196 -0.7401 -0.7661 -0.2533
  629MOL0     O86688   8.977   3.009   5.139  0.3910  0.2491 -0.3803
  629MOL0     C86689   9.098   2.967   5.191  0.4460 -0.0176 -0.1779
  629MOL0     C86690   9.116   2.954   5.330  0.9195  0.5671  0.1927
  629MOL0     C86691   9.236   2.910   5.383 -0.1320  0.0204  0.3342
  629MOL0     C86692   9.231   2.871   5.531 -0.3040 -0.4313  0.2471
  629MOL0     C86693   9.347   2.883   5.302  0.1257  0.0113  0.0839
  629MOL0     C86694   9.475   2.831   5.351  0.1851  0.4943 -0.4750
  629MOL0     O86695   9.552   2.756   5.270  0.3476 -0.1059 -0.1819
  629MOL0     C86696   9.657   2.695   5.334 -0.6444  0.8256 -0.0789
  629MOL0     C86697   9.794   2.724   5.289  0.0692  0.8604  0.6915
  629MOL0     C86698   9.902   2.654   5.350 -0.0381 -0.0419 -0.0500
  629MOL0     C86699   9.879   2.567   5.460  0.1041  0.3571 -0.7820
  629MOL0     O86700   9.967   2.504   5.546 -0.1869 -0.0611  0.3185
  629MOL0     C86701  10.101   2.531   5.519  0.0582  0.1649  0.5494
  629MOL0     C86702  10.199   2.482   5.621  0.3137  0.7354  0.4549
  629MOL0     C86703  10.349   2.517   5.586  0.7518  0.4904 -0.0061
  629MOL0     C86704  10.435   2.457   5.697 -0.2683 -0.2962  0.1716
  629MOL0     C86705  10.588   2.463   5.674 -0.1498  0.4872  0.0343
  629MOL0     C86706  10.670   2.452   5.805  0.7454 -0.0894 -0.8398
  629MOL0     C86707  10.814   2.431   5.768  0.0820 -0.1852  0.1684
  629MOL0     C86708  10.901   2.425   5.891 -0.5536 -0.6990 -0.1895
  629MOL0    Cl86709  10.858   2.292   6.005  0.5101  0.3511  0.3978
  629MOL0     C86710   9.744   2.537   5.501  0.0604 -0.4452  0.2223
  629MOL0     C86711   9.639   2.600   5.439 -0.5124  0.7354  0.0937
  629MOL0     O86712   9.508   2.867   5.460  0.1769 -0.2495 -0.2257
  629MOL0     C86713   9.329   2.903   5.164 -0.3898  0.4758 -0.2932
  629MOL0     C86714   9.203   2.940   5.110 -0.7962 -0.1647  0.3497
  629MOL0     N86715   8.355   2.847   5.359 -0.4440 -0.9089 -0.2612
  629MOL0     N86716   8.235   2.814   5.348  0.4247 -0.1109 -0.3231
  629MOL0     C86717   7.385   2.310   5.401 -0.1138  0.0096 -0.5591
  629MOL0     C86718   7.272   2.395   5.401  0.5756 -0.3268  0.4218
  629MOL0     C86719   6.960   2.699   5.572 -0.2750 -0.3267  0.3823
  629MOL0     C86720   6.877   2.589   5.565  0.0399  1.0323 -0.3382
  629MOL0     C86721   6.744   2.590   5.612 -0.1745  0.0512 -0.1253
  629MOL0     C86722   6.694   2.711   5.659  0.3346 -0.8754 -0.7809
  629MOL0     O86723   6.568   2.730   5.702  0.3458 -0.6594 -0.5899
  629MOL0     C86724   6.471   2.626   5.676 -0.0519  0.7069  0.6937
  629MOL0     C86725   6.435   2.625   5.531 -0.1234  0.0044 -0.9645
  629MOL0     C86726   6.333   2.506   5.505 -0.0172  0.1073 -0.3805
  629MOL0     C86727   6.286   2.513   5.356  1.0486 -0.4230 -0.0430
  629MOL0     C86728   6.229   2.642   5.325  0.0457  0.3188  0.1039
  629MOL0     C86729   6.162   2.743   5.300  0.2401  0.0004  0.3148
  629MOL0     C86730   6.782   2.825   5.671 -0.3688 -0.5464  0.1277
  629MOL0     C86731   6.916   2.817   5.633 -0.1731  0.7286  0.2742
  629MOL0     C86732   7.007   2.932   5.661 -0.3937  0.3225 -0.0799
  629MOL0     H86733   7.345   2.628   5.624  0.8227  1.2476 -1.2292
  629MOL0     H86734   7.549   2.517   5.625  0.8914  0.5900 -1.2780
  629MOL0     H86735   7.784   2.234   5.600  0.6565  1.8334  2.9302
  629MOL0     H86736   7.698   2.363   5.662 -1.0306 -1.1126  0.7068
  629MOL0     H86737   7.770   2.510   5.476 -1.9168 -0.6274  0.5991
  629MOL0     H86738   7.918   2.425   5.529  0.2409  1.2818 -0.8228
  629MOL0     H86739   7.882   2.248   5.368 -2.8587 -0.4998 -0.1088
  629MOL0     H86740   7.761   2.351   5.292 -0.8759 -1.8405  1.1995
  629MOL0     H86741   8.057   2.430   5.341  2.9740  1.1155 -2.3651
  629MOL0     H86742   8.004   2.340   5.199  0.8284 -0.0583  1.5924
  629MOL0     H86743   7.950   2.634   5.291 -0.5330  0.6881 -0.6989
  629MOL0     H86744   7.846   2.543   5.174 -0.5176 -3.8348 -0.2518
  629MOL0     H86745   8.139   2.597   5.139 -0.8015  0.8995  1.2095
  629MOL0     H86746   8.018   2.548   5.004 -2.2227  3.2113 -1.3552
  629MOL0     H86747   7.908   2.770   5.057  0.0807 -0.3726  0.6410
  629MOL0     H86748   8.067   2.771   4.974 -0.3648 -1.2334 -0.6797
  629MOL0     H86749   8.029   2.950   5.142  1.4839 -0.9604 -2.6539
  629MOL0     H86750   7.997   2.844   5.272 -2.0478  3.5682 -0.5241
  629MOL0     H86751   8.299   2.891   5.037 -0.2743  1.6819  0.1740
  629MOL0     H86752   8.597   2.911   5.310  1.2757 -0.7086 -1.9485
  629MOL0     H86753   8.546   3.053   5.219  1.5602  0.0086  3.1378
  629MOL0     H86754   8.631   2.767   5.113  0.3163 -0.2466 -1.8289
  629MOL0     H86755   8.558   2.898   5.018 -0.0400  0.7580  0.5936
  629MOL0     H86756   8.801   2.861   5.000 -1.9779 -1.2849  0.2786
  629MOL0     H86757   8.739   3.035   5.037 -0.6531  1.4297  3.4934
  629MOL0     H86758   8.810   3.015   5.272 -1.5166 -1.0760 -0.3948
  629MOL0     H86759   8.865   2.849   5.241  1.5709 -0.5932 -0.4428
  629MOL0     H86760   9.031   2.975   5.394  0.1674 -0.7877 -0.3264
  629MOL0     H86761   9.295   2.926   5.600  0.8642 -1.2160 -0.1848
  629MOL0     H86762   9.266   2.767   5.529 -0.2723 -0.4255  0.4750
  629MOL0     H86763   9.132   2.886   5.576 -0.4285  1.0039 -0.4466
  629MOL0     H86764   9.796   2.778   5.195  1.5798 -0.4674 -0.0953
  629MOL0     H86765  10.005   2.654   5.318  0.6281 -0.8141  1.9556
  629MOL0     H86766  10.134   2.505   5.418  2.0977 -0.0278  1.2114
  629MOL0     H86767  10.108   2.640   5.533  1.7140  0.1067  0.3890
  629MOL0     H86768  10.165   2.521   5.717  1.6721  1.1068  0.8103
  629MOL0     H86769  10.186   2.374   5.628 -5.9891  1.0694 -0.2206
  629MOL0     H86770  10.361   2.626   5.584 -1.7931  0.8277 -0.7568
  629MOL0     H86771  10.381   2.477   5.489 -0.3758  3.0280 -1.5365
  629MOL0     H86772  10.402   2.356   5.723 -2.3911  0.1152 -0.7329
  629MOL0     H86773  10.416   2.511   5.790 -0.1218 -0.0104  0.0362
  629MOL0     H86774  10.607   2.375   5.613 -1.7941  0.1634 -0.0719
  629MOL0     H86775  10.614   2.559   5.628 -0.0345  1.0459  1.2106
  629MOL0     H86776  10.632   2.365   5.859  1.9572  0.5937  1.2251
  629MOL0     H86777  10.653   2.541   5.866 -1.5068 -1.1526  0.2107
  629MOL0     H86778  10.839   2.520   5.711  2.6286 -1.2220 -0.4928
  629MOL0     H86779  10.817   2.338   5.710 -1.7528 -1.0219  1.3215
  629MOL0     H86780  10.888   2.519   5.944 -1.0107  0.6702 -2.5870
  629MOL0     H86781  11.007   2.408   5.868 -0.3731 -0.7356  0.6276
  629MOL0     H86782   9.734   2.468   5.585 -1.9811  2.5849  2.6914
  629MOL0     H86783   9.538   2.572   5.469 -0.6352  0.7523 -0.3044
  629MOL0     H86784   9.410   2.869   5.101 -1.1154 -1.6993 -0.1599
  629MOL0     H86785   9.185   2.939   5.003  1.0013  1.1554 -0.0247
  629MOL0     H86786   7.400   2.235   5.324 -3.1510 -0.2383 -1.0376
  629MOL0     H86787   7.187   2.362   5.343  1.3989  0.0058 -1.0419
  629MOL0     H86788   6.905   2.488   5.538 -0.6182  0.7643 -0.0476
  629MOL0     H86789   6.690   2.496   5.606  1.4291 -0.9198  0.0783
  629MOL0     H86790   6.509   2.529   5.711 -2.6890 -0.0098  1.8216
  629MOL0     H86791   6.382   2.638   5.739 -0.0249 -0.6070  1.0284
  629MOL0     H86792   6.521   2.619   5.464 -1.6217  3.3845 -3.4851
  629MOL0     H86793   6.398   2.723   5.500  0.7270  0.2944 -1.1052
  629MOL0     H86794   6.382   2.409   5.520  1.2385  0.7309 -0.3696
  629MOL0     H86795   6.251   2.527   5.574  2.2637  1.1313  2.1610
  629MOL0     H86796   6.209   2.436   5.342  0.5322 -0.0779  0.8295
  629MOL0     H86797   6.378   2.493   5.300  3.5554  6.5090  0.6198
  629MOL0     H86798   6.109   2.832   5.273 -1.9290 -1.0794  0.8403
  629MOL0     H86799   6.757   2.919   5.719  2.5864 -0.7489  2.3120
  629MOL0     H86800   7.098   2.904   5.715  2.1352 -0.2458 -4.2325
  629MOL0     H86801   7.039   2.967   5.563  0.9559 -0.9133 -0.1143
  629MOL0     H86802   6.960   3.009   5.723 -1.3066 -0.5014  0.2854
  630MOL0     O86803   6.519   5.969   8.037  0.2652 -0.4754 -0.0022
  630MOL0     C86804   6.495   5.858   8.086 -0.3903  0.8691 -0.1134
  630MOL0     O86805   6.586   5.763   8.130 -0.3749 -0.0541  0.2045
  630MOL0     C86806   6.722   5.797   8.131  0.9335  0.6917 -0.4324
  630MOL0     C86807   6.820   5.720   8.065  0.5724 -0.1532  0.2208
  630MOL0     C86808   6.954   5.750   8.078  0.5996 -0.2640  0.8767
  630MOL0     C86809   7.000   5.864   8.142 -0.0185  1.2255 -0.6307
  630MOL0     O86810   7.141   5.871   8.151  0.4004 -0.7571  0.4858
  630MOL0     C86811   7.191   5.956   8.258  0.0035  0.4987 -0.4973
  630MOL0     C86812   7.340   5.939   8.262  0.0153 -0.5392 -0.5916
  630MOL0     C86813   7.400   6.030   8.148  0.5431  0.6566  0.8112
  630MOL0     C86814   7.553   6.040   8.125  0.1964  0.4136  0.0681
  630MOL0     C86815   7.617   5.904   8.118 -0.7640  0.7845 -0.1892
  630MOL0     C86816   7.758   5.904   8.052  0.4797  0.3767 -0.5187
  630MOL0     C86817   7.821   5.764   8.044  0.5370 -1.0234  0.1792
  630MOL0     C86818   7.971   5.759   8.023  0.3783 -1.0604  0.7403
  630MOL0     N86819   8.024   5.624   8.018 -0.5646 -0.3459  0.9914
  630MOL0     C86820   8.126   5.577   7.943  0.3505 -0.8310  0.0873
  630MOL0     C86821   8.162   5.464   7.993  0.7800 -0.5038  0.2440
  630MOL0     C86822   8.267   5.370   7.952 -0.1983 -0.1797 -0.6400
  630MOL0     C86823   8.408   5.425   7.960  0.4503  0.0500 -0.5884
  630MOL0     C86824   8.498   5.331   7.880 -1.1273 -0.7557  1.1129
  630MOL0     C86825   8.645   5.383   7.885 -0.2229  0.2090 -0.2159
  630MOL0     O86826   8.729   5.294   7.804 -0.1039 -0.1752  0.1079
  630MOL0     C86827   8.857   5.330   7.797 -0.4992  0.5863  0.0058
  630MOL0     C86828   8.946   5.261   7.707 -0.5295 -0.7298  0.2752
  630MOL0     C86829   9.087   5.297   7.686 -0.2064  0.7753  0.5015
  630MOL0     C86830   9.148   5.239   7.554 -1.2137 -0.5934 -0.8273
  630MOL0     C86831   9.146   5.404   7.759  0.7542 -0.3476  0.1696
  630MOL0     C86832   9.295   5.447   7.759 -0.3570  0.7311  0.4721
  630MOL0     O86833   9.329   5.544   7.852  0.1604 -0.0353  0.2835
  630MOL0     C86834   9.460   5.579   7.869 -0.1147  0.0385 -1.1141
  630MOL0     C86835   9.501   5.624   7.998 -0.1334 -0.2354  0.0117
  630MOL0     C86836   9.630   5.671   8.028 -0.1167 -0.1661  0.4736
  630MOL0     C86837   9.724   5.675   7.928 -0.2170  0.0827 -0.3465
  630MOL0     O86838   9.845   5.726   7.956 -0.7190 -1.5674 -0.2909
  630MOL0     C86839   9.964   5.699   7.876  0.4145 -0.3247 -0.3269
  630MOL0     C86840  10.001   5.554   7.862  0.3508  0.4836  0.0715
  630MOL0     C86841  10.027   5.489   7.992  0.5450 -0.1461 -0.2808
  630MOL0     C86842   9.918   5.377   8.018  0.1329 -0.3956 -0.0826
  630MOL0     C86843   9.950   5.308   8.147  0.1802 -0.3775 -0.2776
  630MOL0     C86844   9.871   5.183   8.175 -0.1212 -0.0679 -0.5973
  630MOL0     C86845   9.717   5.205   8.198  0.3161 -0.4131  0.2298
  630MOL0     C86846   9.646   5.074   8.243  0.3203  0.0946 -0.3178
  630MOL0    Cl86847   9.676   5.048   8.416  0.2141  0.1850  0.0347
  630MOL0     C86848   9.688   5.635   7.799 -0.1815  0.3251 -0.2150
  630MOL0     C86849   9.564   5.586   7.771  0.2550  0.4039  0.2846
  630MOL0     O86850   9.368   5.384   7.682  0.3340 -0.1731 -0.7477
  630MOL0     C86851   9.055   5.483   7.828  0.9741 -0.5446 -0.6639
  630MOL0     C86852   8.917   5.451   7.846 -0.3591  0.0859 -0.4324
  630MOL0     N86853   8.081   5.440   8.094 -0.2209  0.9979 -0.4343
  630MOL0     N86854   7.993   5.527   8.102  0.1980  0.5387  0.2930
  630MOL0     C86855   6.906   5.935   8.212 -0.9055 -0.3515  0.1553
  630MOL0     C86856   6.773   5.899   8.215  0.2783 -0.6649  1.4016
  630MOL0     C86857   6.359   5.836   8.131  0.0984 -0.0815  0.1778
  630MOL0     C86858   6.336   5.724   8.210  0.3185 -0.0625  0.4834
  630MOL0     C86859   6.208   5.712   8.269 -0.5380  0.4146 -0.5006
  630MOL0     C86860   6.102   5.791   8.232  0.8375  0.4744  0.5977
  630MOL0     O86861   5.973   5.777   8.276 -0.4950 -0.5276  0.1443
  630MOL0     C86862   5.943   5.711   8.400 -0.4668 -0.3615  0.4270
  630MOL0     C86863   5.818   5.758   8.458  0.3915  0.0410  0.3367
  630MOL0     C86864   5.788   5.664   8.572  0.3596  0.2929 -0.7580
  630MOL0     C86865   5.651   5.690   8.638  0.2173 -0.3484 -0.2443
  630MOL0     C86866   5.539   5.695   8.552 -0.2305 -0.0507  0.0281
  630MOL0     C86867   5.449   5.709   8.480  0.1213 -0.4591  0.7485
  630MOL0     C86868   6.133   5.893   8.146 -0.1181  0.1558 -0.2963
  630MOL0     C86869   6.255   5.921   8.097 -0.3201  0.2267  0.5572
  630MOL0     C86870   6.250   6.037   8.002  0.4879 -0.1477  0.3893
  630MOL0     H86871   6.774   5.642   8.006  0.3883  1.7520 -2.3134
  630MOL0     H86872   7.029   5.684   8.036  2.1391  2.8912 -1.7949
  630MOL0     H86873   7.141   5.925   8.350  0.8097 -0.2707 -0.3073
  630MOL0     H86874   7.161   6.060   8.239  1.1551  1.1908  1.2559
  630MOL0     H86875   7.388   5.964   8.357 -0.1624 -2.4326  0.0285
  630MOL0     H86876   7.369   5.835   8.244  2.9550  0.0836  0.0048
  630MOL0     H86877   7.360   5.993   8.054 -1.3489 -1.3767  2.3099
  630MOL0     H86878   7.366   6.132   8.168 -0.3800  0.2810  1.1911
  630MOL0     H86879   7.580   6.102   8.038  4.0739  0.6246  1.2090
  630MOL0     H86880   7.592   6.087   8.216  0.2232 -1.2874  0.9627
  630MOL0     H86881   7.557   5.834   8.059  1.9121 -1.8428 -0.0195
  630MOL0     H86882   7.622   5.866   8.220 -2.3602 -3.3949 -1.4773
  630MOL0     H86883   7.757   5.956   7.956  1.1043 -0.0464 -0.7555
  630MOL0     H86884   7.825   5.954   8.123  0.7619  0.4316 -0.8251
  630MOL0     H86885   7.769   5.725   7.956 -4.2246  2.6847  0.9220
  630MOL0     H86886   7.798   5.707   8.134 -0.8837 -0.3265  0.2796
  630MOL0     H86887   7.989   5.793   7.921 -1.2537 -0.1442  0.7266
  630MOL0     H86888   8.031   5.819   8.092  0.4515 -0.0370 -0.1904
  630MOL0     H86889   8.172   5.625   7.858  1.1595 -2.6639 -0.5683
  630MOL0     H86890   8.256   5.358   7.844 -0.6619  0.2199 -0.6388
  630MOL0     H86891   8.264   5.276   8.007  2.5114 -0.1823 -0.3785
  630MOL0     H86892   8.416   5.527   7.920 -0.9824  0.6124  0.4730
  630MOL0     H86893   8.432   5.422   8.067 -1.0693  0.2608 -0.2233
  630MOL0     H86894   8.492   5.228   7.918 -1.6090 -2.4612 -3.0853
  630MOL0     H86895   8.479   5.319   7.773 -1.0049 -0.0506  1.0137
  630MOL0     H86896   8.656   5.486   7.849 -0.0272 -0.1470 -1.2119
  630MOL0     H86897   8.679   5.385   7.989  1.2770 -1.8390 -0.6038
  630MOL0     H86898   8.895   5.184   7.650 -0.2681  0.6681 -1.9592
  630MOL0     H86899   9.085   5.157   7.518  0.4885 -0.7795 -3.6682
  630MOL0     H86900   9.243   5.188   7.568 -2.4937 -3.0325 -0.3657
  630MOL0     H86901   9.155   5.317   7.478  2.5113  1.8494  1.7149
  630MOL0     H86902   9.429   5.620   8.079  1.0203  1.1509  1.1429
  630MOL0     H86903   9.648   5.716   8.125 -0.7921 -0.4934  0.7548
  630MOL0     H86904   9.948   5.736   7.774  0.7213 -0.1980 -0.3303
  630MOL0     H86905  10.049   5.745   7.927  0.9043  0.9566 -2.2067
  630MOL0     H86906   9.929   5.497   7.803  0.3393 -2.7525  2.9017
  630MOL0     H86907  10.092   5.544   7.801  0.7915 -2.9367  1.0623
  630MOL0     H86908  10.016   5.564   8.071  1.1242  2.1319 -2.2564
  630MOL0     H86909  10.130   5.449   7.990  0.4169 -0.4547 -1.2629
  630MOL0     H86910   9.908   5.311   7.932  0.4546 -0.6215  0.0507
  630MOL0     H86911   9.818   5.418   8.036  1.1534  1.4828  1.7281
  630MOL0     H86912  10.056   5.283   8.141 -0.1959 -2.0015 -0.7190
  630MOL0     H86913   9.939   5.378   8.231  3.4090  0.2900 -0.2732
  630MOL0     H86914   9.909   5.133   8.264 -0.7504 -0.2225 -0.4139
  630MOL0     H86915   9.889   5.123   8.085  2.8194  0.4551 -0.4597
  630MOL0     H86916   9.676   5.239   8.102  0.1092  0.1733  0.5213
  630MOL0     H86917   9.691   5.280   8.274 -0.3940 -2.6683  2.3402
  630MOL0     H86918   9.687   4.987   8.191 -1.9383 -0.8067 -0.7062
  630MOL0     H86919   9.538   5.073   8.227  0.3910  0.5241 -0.8333
  630MOL0     H86920   9.762   5.626   7.719  0.6641  1.5168  0.3971
  630MOL0     H86921   9.540   5.574   7.666  0.5844  1.8310  0.0304
  630MOL0     H86922   9.078   5.568   7.891  1.1997 -0.7731 -0.4361
  630MOL0     H86923   8.859   5.517   7.910 -0.9255 -2.0508  1.3933
  630MOL0     H86924   6.929   6.022   8.273 -1.3177 -2.0351  2.8693
  630MOL0     H86925   6.695   5.949   8.271  0.4343  1.0392  0.1721
  630MOL0     H86926   6.416   5.661   8.246 -0.9810 -0.4335  2.9153
  630MOL0     H86927   6.188   5.624   8.329  0.6926  1.0816  0.9455
  630MOL0     H86928   5.917   5.609   8.367 -0.3428 -1.2094  2.7768
  630MOL0     H86929   6.032   5.709   8.463 -1.1430  0.9240  1.4468
  630MOL0     H86930   5.738   5.750   8.384  0.2745  2.4621  0.1269
  630MOL0     H86931   5.847   5.859   8.488  0.4666 -0.2959  1.4170
  630MOL0     H86932   5.795   5.557   8.551 -1.4668 -0.3707  1.5350
  630MOL0     H86933   5.858   5.682   8.654 -1.3115 -3.4056  1.7332
  630MOL0     H86934   5.652   5.789   8.686 -1.0126  0.5205 -1.9023
  630MOL0     H86935   5.637   5.617   8.718  1.4672 -1.5387 -1.0750
  630MOL0     H86936   5.368   5.731   8.413 -0.3841 -1.8478  0.8829
  630MOL0     H86937   6.057   5.968   8.125  0.7898  2.0727  2.5818
  630MOL0     H86938   6.155   6.091   8.003  2.1317  3.0518  2.7809
  630MOL0     H86939   6.331   6.109   8.016 -0.5584  1.1440  0.0807
  630MOL0     H86940   6.262   6.002   7.899 -1.5229  4.2960 -1.5975
  631MOL0     O86941  10.739   2.622   7.891 -1.2127  0.6797 -0.2623
  631MOL0     C86942  10.781   2.629   7.773 -0.7081  0.4042 -0.0938
  631MOL0     O86943  10.914   2.652   7.742  0.3795 -0.0754  0.1288
  631MOL0     C86944  11.003   2.665   7.837  0.0769 -1.1432 -0.9477
  631MOL0     C86945  11.086   2.773   7.815  0.1570 -0.4016  0.0264
  631MOL0     C86946  11.187   2.800   7.911 -0.1258  0.1951  0.0209
  631MOL0     C86947  11.198   2.728   8.032  0.1250 -0.2234 -0.4763
  631MOL0     O86948  11.290   2.768   8.126 -0.1083  0.0598  0.5511
  631MOL0     C86949  11.275   2.745   8.267  0.8010  0.2125 -0.0449
  631MOL0     C86950  11.390   2.814   8.334  0.3006  0.3070 -0.0490
  631MOL0     C86951  11.379   2.806   8.486 -0.2125  0.0115 -0.0205
  631MOL0     C86952  11.513   2.851   8.556 -0.2782  0.6710 -0.2674
  631MOL0     C86953  11.496   2.868   8.703 -0.1066  0.0738  0.2845
  631MOL0     C86954  11.628   2.920   8.764  0.2855 -0.0670 -0.5906
  631MOL0     C86955  11.615   2.935   8.917  0.1106  0.1433  0.0656
  631MOL0     C86956  11.723   3.017   8.990 -0.3882 -0.1697 -0.1568
  631MOL0     N86957  11.860   2.983   8.937 -0.5136 -1.2400 -0.2445
  631MOL0     C86958  11.917   2.860   8.947  0.3348  0.5802  0.0823
  631MOL0     C86959  12.031   2.862   8.872  0.3090 -0.5686  0.2512
  631MOL0     C86960  12.140   2.753   8.870  0.6945  0.8139 -0.3526
  631MOL0     C86961  12.238   2.768   8.988  0.5678 -0.6070  0.2206
  631MOL0     C86962  12.377   2.701   8.946 -0.8489 -0.3158 -0.2782
  631MOL0     C86963  12.456   2.756   8.834  0.3737  0.2078 -0.0844
  631MOL0     O86964  12.521   2.874   8.888  0.4789 -0.7708 -0.5228
  631MOL0     C86965  12.647   2.914   8.842 -0.6935 -0.1666 -0.6023
  631MOL0     C86966  12.693   3.038   8.882 -0.1944  0.7999  0.0778
  631MOL0     C86967  12.821   3.083   8.860 -0.2657 -0.2030 -0.6052
  631MOL0     C86968  12.865   3.213   8.931 -0.4044 -0.0764 -0.0664
  631MOL0     C86969  12.913   2.997   8.793  0.6043 -0.2906 -0.2449
  631MOL0     C86970  13.064   3.034   8.770  0.6198  0.5909  0.5834
  631MOL0     O86971  13.122   3.147   8.813  0.1306 -0.2631  0.3427
  631MOL0     C86972  13.262   3.147   8.809  0.2165 -0.4540 -0.7223
  631MOL0     C86973  13.334   3.218   8.711  0.7753 -0.1481 -0.7541
  631MOL0     C86974  13.469   3.222   8.722 -0.5628 -0.6632 -0.1926
  631MOL0     C86975  13.535   3.168   8.839  0.1294 -0.4395 -0.7369
  631MOL0     O86976  13.675   3.165   8.853  0.1175  0.5250 -0.1329
  631MOL0     C86977  13.737   3.144   8.717 -0.2064 -0.1963 -0.4084
  631MOL0     C86978  13.875   3.089   8.728 -1.1252 -0.3761 -0.6656
  631MOL0     C86979  13.974   3.177   8.810  0.5336 -0.6785 -0.2428
  631MOL0     C86980  14.125   3.138   8.798  0.2368 -0.1896  0.0902
  631MOL0     C86981  14.159   3.024   8.898  0.8479  0.1761  0.2366
  631MOL0     C86982  14.310   3.020   8.926 -1.1682 -0.1612 -0.1266
  631MOL0     C86983  14.348   2.900   9.009  0.0182  0.0961  0.4501
  631MOL0     C86984  14.502   2.885   9.031 -0.2305 -0.5726  0.4387
  631MOL0    Cl86985  14.569   3.045   9.062  0.1988  0.0266  0.1019
  631MOL0     C86986  13.457   3.101   8.936  0.4617  0.6360  0.1799
  631MOL0     C86987  13.322   3.089   8.918 -0.4302 -0.9528 -0.4874
  631MOL0     O86988  13.124   2.947   8.714  0.6030  0.6261  0.0626
  631MOL0     C86989  12.863   2.880   8.748  0.3121 -0.6137  0.1602
  631MOL0     C86990  12.736   2.834   8.768 -0.3511 -0.5089 -0.5432
  631MOL0     N86991  12.029   2.980   8.793  0.2028 -0.4971  0.5294
  631MOL0     N86992  11.928   3.050   8.840 -0.3356  0.1032  0.2282
  631MOL0     C86993  11.112   2.621   8.058  0.5418  1.1854  0.7403
  631MOL0     C86994  11.019   2.587   7.960  0.0722  0.3814 -0.4821
  631MOL0     C86995  10.683   2.596   7.663 -0.2917  0.6893 -0.0271
  631MOL0     C86996  10.687   2.681   7.552 -0.3043 -0.1577  0.2020
  631MOL0     C86997  10.607   2.645   7.444 -0.3686 -0.7420 -0.1562
  631MOL0     C86998  10.515   2.549   7.444  0.9542  1.1204  0.6997
  631MOL0     O86999  10.434   2.524   7.331 -0.7744  0.7128 -0.3265
  631MOL0     C87000  10.317   2.438   7.334  0.3236  0.0550  0.0438
  631MOL0     C87001  10.231   2.456   7.208 -0.4574  0.0016  0.1787
  631MOL0     C87002  10.153   2.590   7.202  0.5392 -0.7183 -0.3520
  631MOL0     C87003  10.038   2.588   7.108  0.3498 -0.3369 -0.1365
  631MOL0     C87004   9.929   2.509   7.164 -0.2169  0.1541  0.1524
  631MOL0     C87005   9.836   2.443   7.213  0.4874 -0.2475  0.3513
  631MOL0     C87006  10.496   2.481   7.564 -0.4262  0.2356  0.1080
  631MOL0     C87007  10.578   2.500   7.673 -0.4751 -0.6079  0.5858
  631MOL0     C87008  10.559   2.396   7.792 -0.4660 -0.7205  0.3558
  631MOL0     H87009  11.078   2.833   7.725  2.5289  0.3612  0.2547
  631MOL0     H87010  11.265   2.874   7.891  1.2973 -0.8760  1.4153
  631MOL0     H87011  11.277   2.637   8.285 -1.1406  0.1497  0.0078
  631MOL0     H87012  11.176   2.783   8.295 -0.1228 -1.1140 -1.2912
  631MOL0     H87013  11.483   2.774   8.292 -1.0401 -1.8613 -1.1280
  631MOL0     H87014  11.395   2.920   8.309  1.9419  0.2192 -0.2242
  631MOL0     H87015  11.299   2.872   8.521  0.7940  1.9165 -1.0891
  631MOL0     H87016  11.347   2.708   8.520  0.1215  0.1670  0.7550
  631MOL0     H87017  11.594   2.781   8.535  0.8980  1.2802  1.8969
  631MOL0     H87018  11.539   2.946   8.510 -1.7696  1.9558  1.3940
  631MOL0     H87019  11.468   2.774   8.751  2.5660 -1.1255 -0.2909
  631MOL0     H87020  11.425   2.950   8.713  0.8589  1.3198 -2.2004
  631MOL0     H87021  11.712   2.856   8.736  1.9054  2.4237 -1.7803
  631MOL0     H87022  11.641   3.019   8.719 -1.8308  1.1947  1.3624
  631MOL0     H87023  11.612   2.835   8.960  2.0232 -0.7696 -1.7093
  631MOL0     H87024  11.525   2.996   8.932  1.2137  2.2450 -1.2649
  631MOL0     H87025  11.701   3.124   8.980 -1.7126 -0.5867 -2.4483
  631MOL0     H87026  11.726   2.993   9.096 -1.8276 -0.7096 -0.2213
  631MOL0     H87027  11.890   2.772   9.004  3.1309 -0.4427 -0.0204
  631MOL0     H87028  12.191   2.759   8.773  1.8983  1.6112  0.3076
  631MOL0     H87029  12.094   2.654   8.873  1.8764  0.2911  1.3345
  631MOL0     H87030  12.240   2.870   9.027  0.5811 -0.0245 -1.2394
  631MOL0     H87031  12.199   2.713   9.074 -1.0595 -1.5097 -1.0413
  631MOL0     H87032  12.433   2.695   9.039 -0.1601 -1.2384 -0.7402
  631MOL0     H87033  12.360   2.597   8.917 -1.3628 -0.1020 -0.7699
  631MOL0     H87034  12.520   2.674   8.798 -1.2189 -1.5723  0.9704
  631MOL0     H87035  12.392   2.781   8.750 -0.3981 -1.2395  0.0355
  631MOL0     H87036  12.624   3.103   8.934  0.7847 -1.2656  4.4305
  631MOL0     H87037  12.870   3.295   8.858 -0.8420 -2.1250 -2.5336
  631MOL0     H87038  12.961   3.190   8.977  0.9022  0.8734 -2.1631
  631MOL0     H87039  12.786   3.233   9.004 -0.6976 -1.6908  0.0852
  631MOL0     H87040  13.291   3.279   8.632  1.5772  0.6248 -0.6089
  631MOL0     H87041  13.526   3.278   8.649  0.4220  0.8183  1.6185
  631MOL0     H87042  13.684   3.067   8.660 -0.4562 -0.3856  0.0727
  631MOL0     H87043  13.736   3.238   8.661 -0.6167 -0.2843 -0.5575
  631MOL0     H87044  13.876   2.987   8.769  0.2577 -0.3426 -0.5422
  631MOL0     H87045  13.921   3.074   8.630  3.0771  0.1193  1.0021
  631MOL0     H87046  13.930   3.185   8.910 -3.4462  1.6717 -1.9310
  631MOL0     H87047  13.961   3.279   8.772 -0.7557  0.4690  2.9417
  631MOL0     H87048  14.187   3.227   8.809 -0.3726  0.9713 -4.1635
  631MOL0     H87049  14.125   3.107   8.693 -1.9230  0.6638 -0.2250
  631MOL0     H87050  14.106   3.033   8.993 -2.7841 -7.1188 -0.3593
  631MOL0     H87051  14.131   2.925   8.860  0.7192 -0.2916  1.4882
  631MOL0     H87052  14.332   3.112   8.981 -0.1895 -1.2410  1.3454
  631MOL0     H87053  14.377   3.021   8.839  2.8590  0.7660  2.6926
  631MOL0     H87054  14.320   2.811   8.951  1.2897  0.0200 -0.0691
  631MOL0     H87055  14.301   2.895   9.108 -1.4714 -1.1670 -0.2751
  631MOL0     H87056  14.565   2.852   8.947  1.5837 -1.5860  2.0931
  631MOL0     H87057  14.533   2.820   9.114 -0.1592  1.6683  2.2864
  631MOL0     H87058  13.493   3.066   9.032 -2.2206 -2.5770  0.2146
  631MOL0     H87059  13.263   3.043   8.997  0.6685 -0.3026  0.7452
  631MOL0     H87060  12.919   2.805   8.694 -1.3782 -0.7064 -1.6083
  631MOL0     H87061  12.710   2.733   8.737 -2.7047 -0.6719  1.6038
  631MOL0     H87062  11.121   2.559   8.147 -2.9878  0.7076  0.9181
  631MOL0     H87063  10.945   2.509   7.973 -1.0747  1.3038 -1.2465
  631MOL0     H87064  10.759   2.762   7.549  0.4094 -0.8117 -1.3584
  631MOL0     H87065  10.608   2.688   7.344 -1.3716  2.2102  0.9780
  631MOL0     H87066  10.346   2.333   7.332  0.5056  0.0980 -2.1942
  631MOL0     H87067  10.260   2.450   7.426 -1.8629 -0.7498 -1.1468
  631MOL0     H87068  10.164   2.369   7.197 -0.7107  0.0918  0.9460
  631MOL0     H87069  10.301   2.440   7.125 -3.2524 -2.6182 -1.9306
  631MOL0     H87070  10.114   2.627   7.297 -0.5565 -1.5182 -0.4670
  631MOL0     H87071  10.222   2.662   7.158  1.9080 -1.7223  0.0809
  631MOL0     H87072  10.072   2.560   7.007 -1.1978 -0.3557 -0.6863
  631MOL0     H87073  10.002   2.691   7.106  1.4349  0.1224  1.8984
  631MOL0     H87074   9.759   2.386   7.260  0.9920 -0.9896  0.3091
  631MOL0     H87075  10.434   2.392   7.561  0.5220 -0.4109 -1.1018
  631MOL0     H87076  10.471   2.331   7.789  2.3453 -4.8608 -1.3554
  631MOL0     H87077  10.645   2.330   7.778 -0.9939 -1.0823 -1.4873
  631MOL0     H87078  10.560   2.456   7.883  3.0030  0.7717 -0.5136
  632MOL0     O87079  10.358   7.527   9.252  0.6015 -0.1102  0.2890
  632MOL0     C87080  10.416   7.585   9.155  0.7028  0.6471  0.3521
  632MOL0     O87081  10.546   7.574   9.118  0.4869 -0.4458  0.0078
  632MOL0     C87082  10.641   7.534   9.203 -0.4568 -0.4052 -0.0253
  632MOL0     C87083  10.634   7.436   9.299  0.0500 -0.4471  0.3280
  632MOL0     C87084  10.743   7.412   9.385 -1.3085 -0.9524 -0.2667
  632MOL0     C87085  10.867   7.476   9.368  0.2589  0.3976  0.3780
  632MOL0     O87086  10.978   7.460   9.455 -0.6627 -0.7214 -0.8071
  632MOL0     C87087  10.950   7.409   9.585 -0.8204 -0.5901  0.1529
  632MOL0     C87088  11.086   7.391   9.653 -0.1187 -0.1267  0.0384
  632MOL0     C87089  11.173   7.297   9.580 -0.3391 -0.0475  0.7137
  632MOL0     C87090  11.313   7.283   9.654  0.7754 -0.4556  0.3185
  632MOL0     C87091  11.414   7.193   9.576  0.6656  0.5101  0.6471
  632MOL0     C87092  11.469   7.263   9.455 -0.3211 -0.7392 -0.2999
  632MOL0     C87093  11.602   7.200   9.405  0.9956 -0.1576 -0.2535
  632MOL0     C87094  11.593   7.062   9.351 -0.5050  1.1608  0.9891
  632MOL0     N87095  11.726   7.026   9.297 -0.6274 -0.1850  0.3773
  632MOL0     C87096  11.785   7.060   9.169  0.1214  0.3412 -1.1048
  632MOL0     C87097  11.905   7.005   9.171 -0.0191 -0.0721  0.4298
  632MOL0     C87098  12.004   6.997   9.056  0.7163  0.2199  0.1336
  632MOL0     C87099  12.150   7.051   9.082  0.5221 -0.0141  0.5254
  632MOL0     C87100  12.236   7.043   8.954  0.3269 -0.2720 -0.0553
  632MOL0     C87101  12.381   7.102   8.970  0.1417 -0.3259 -0.2086
  632MOL0     O87102  12.448   6.993   9.037  0.2574 -0.6457 -0.0782
  632MOL0     C87103  12.577   7.016   9.084  0.2298 -0.5289 -0.0390
  632MOL0     C87104  12.641   7.135   9.082 -0.3532 -0.7922  1.4508
  632MOL0     C87105  12.778   7.151   9.130  0.3608  0.6687  0.1346
  632MOL0     C87106  12.842   7.285   9.103 -0.1769  0.1483  0.4032
  632MOL0     C87107  12.842   7.039   9.197  0.3517 -0.2737  0.0628
  632MOL0     C87108  12.979   7.051   9.266  0.6353  0.1921 -0.6064
  632MOL0     O87109  13.067   7.136   9.213  0.6594  0.2420 -0.0390
  632MOL0     C87110  13.202   7.147   9.248 -0.2475  0.4251  0.0425
  632MOL0     C87111  13.284   7.144   9.138 -0.2164  0.8022 -0.5182
  632MOL0     C87112  13.423   7.146   9.164 -0.1800  0.7824 -0.0188
  632MOL0     C87113  13.479   7.139   9.295 -0.3760  0.3797  0.3990
  632MOL0     O87114  13.615   7.136   9.334  0.1312  0.4898  0.1031
  632MOL0     C87115  13.711   7.147   9.230  0.3424  0.4987  0.0901
  632MOL0     C87116  13.842   7.106   9.288  1.8469  0.1728 -0.8284
  632MOL0     C87117  13.936   7.061   9.182  0.1202  0.6150 -0.8330
  632MOL0     C87118  14.073   7.046   9.248 -0.3279  0.5002  0.9863
  632MOL0     C87119  14.159   6.961   9.137  0.3161  0.0498 -0.1296
  632MOL0     C87120  14.311   6.984   9.152 -0.3916  0.2849 -0.3016
  632MOL0     C87121  14.392   6.889   9.066 -0.3710 -0.1206 -0.6061
  632MOL0     C87122  14.490   6.808   9.148  0.0295  0.0001 -0.1058
  632MOL0    Cl87123  14.585   6.707   9.041 -0.2247  0.0031  0.1868
  632MOL0     C87124  13.392   7.150   9.397 -0.7454 -0.2790 -0.9385
  632MOL0     C87125  13.257   7.152   9.373 -0.0733  0.7469 -0.2060
  632MOL0     O87126  13.001   6.984   9.366 -0.3498 -0.3931  0.4285
  632MOL0     C87127  12.768   6.917   9.202 -0.1622 -0.0443  0.4525
  632MOL0     C87128  12.636   6.909   9.150 -0.3569  0.1932 -0.0589
  632MOL0     N87129  11.924   6.940   9.290 -0.2295 -0.0208  0.3851
  632MOL0     N87130  11.822   6.951   9.364 -0.5280  0.5578  0.2335
  632MOL0     C87131  10.874   7.569   9.263 -0.1492 -0.5400 -0.3904
  632MOL0     C87132  10.766   7.592   9.180 -0.2917 -1.1068 -0.3402
  632MOL0     C87133  10.328   7.652   9.047  0.5296  1.4089  0.4839
  632MOL0     C87134  10.375   7.665   8.906 -0.7093  0.8387 -0.7662
  632MOL0     C87135  10.309   7.735   8.810 -0.0510 -0.3580  0.3956
  632MOL0     C87136  10.182   7.799   8.848  0.0225  0.5368 -0.0459
  632MOL0     O87137  10.095   7.858   8.765 -0.0576  0.3589  0.0006
  632MOL0     C87138  10.121   7.849   8.623 -0.6050 -0.1095  0.4958
  632MOL0     C87139  10.028   7.950   8.560  0.0341  0.6589  0.2334
  632MOL0     C87140   9.883   7.910   8.560  0.5599 -0.4409 -0.0502
  632MOL0     C87141   9.783   8.007   8.488 -0.5522  0.6376 -0.1301
  632MOL0     C87142   9.643   7.992   8.534 -0.2654 -0.6898 -0.3311
  632MOL0     C87143   9.523   7.988   8.562 -0.3135  0.9253  0.8303
  632MOL0     C87144  10.139   7.790   8.981 -0.2148 -0.6327 -0.1715
  632MOL0     C87145  10.210   7.722   9.078 -0.5465 -0.6174 -0.0347
  632MOL0     C87146  10.164   7.744   9.216 -0.1442  0.2609  0.1081
  632MOL0     H87147  10.541   7.382   9.315  0.4550 -1.0706  0.6217
  632MOL0     H87148  10.736   7.326   9.451  0.4678 -1.8870 -1.2196
  632MOL0     H87149  10.909   7.308   9.594  0.0808 -0.8450  1.9020
  632MOL0     H87150  10.888   7.480   9.640  2.1896  1.3115  1.3604
  632MOL0     H87151  11.133   7.487   9.676 -2.1277  0.6323  1.1153
  632MOL0     H87152  11.071   7.340   9.748 -1.2703 -0.9993 -0.5813
  632MOL0     H87153  11.120   7.202   9.575 -0.4205  0.0402 -3.2916
  632MOL0     H87154  11.183   7.339   9.479 -0.6235 -0.1679  0.6353
  632MOL0     H87155  11.360   7.379   9.679 -4.6988  2.4674  0.7812
  632MOL0     H87156  11.295   7.243   9.755 -3.2401 -1.9853 -0.8285
  632MOL0     H87157  11.382   7.091   9.556  1.6336  0.2483  0.3621
  632MOL0     H87158  11.500   7.173   9.641  1.5175 -0.3429 -0.6888
  632MOL0     H87159  11.395   7.259   9.375  0.5317 -0.5778 -1.1162
  632MOL0     H87160  11.489   7.368   9.480 -2.1602 -0.4918  0.3223
  632MOL0     H87161  11.672   7.211   9.488  1.1288  0.8929 -0.4855
  632MOL0     H87162  11.635   7.262   9.321 -0.9766 -0.1543 -1.0860
  632MOL0     H87163  11.544   6.989   9.416 -2.3906  1.0079 -0.5029
  632MOL0     H87164  11.518   7.042   9.273 -0.7187 -1.7154  1.8219
  632MOL0     H87165  11.736   7.107   9.084 -0.8763  1.5859  0.1041
  632MOL0     H87166  11.955   7.045   8.970  1.1054  0.6846  0.1689
  632MOL0     H87167  12.014   6.891   9.029  1.7524  0.6043 -1.1451
  632MOL0     H87168  12.136   7.154   9.115 -0.9328 -0.0481  0.0495
  632MOL0     H87169  12.197   6.999   9.167 -0.8078  0.3758  1.5248
  632MOL0     H87170  12.236   6.939   8.919 -0.4530 -0.0896 -0.6120
  632MOL0     H87171  12.184   7.098   8.876  5.0478  3.5800 -0.9641
  632MOL0     H87172  12.442   7.118   8.880  1.9679  1.3704  1.2411
  632MOL0     H87173  12.369   7.196   9.023 -2.0671 -1.1336  0.8291
  632MOL0     H87174  12.601   7.214   9.018 -1.3805 -2.9621 -0.7663
  632MOL0     H87175  12.941   7.277   9.057 -1.0706 -1.1471 -1.4467
  632MOL0     H87176  12.847   7.333   9.201  0.0508  0.8443  0.0569
  632MOL0     H87177  12.789   7.347   9.029  1.2653  1.9550  0.8321
  632MOL0     H87178  13.247   7.140   9.036  0.4850 -1.1704 -0.7591
  632MOL0     H87179  13.486   7.148   9.076  0.1058  1.5084  0.1992
  632MOL0     H87180  13.697   7.065   9.159 -1.6935  0.5769  0.3437
  632MOL0     H87181  13.697   7.243   9.180  1.0032 -0.2472 -1.5820
  632MOL0     H87182  13.891   7.185   9.345  3.4596 -1.6372  0.4441
  632MOL0     H87183  13.827   7.025   9.360  0.8585  1.4098  0.3979
  632MOL0     H87184  13.942   7.139   9.105  0.9321  0.6957 -0.6961
  632MOL0     H87185  13.903   6.965   9.140  1.9128  0.0377 -1.0166
  632MOL0     H87186  14.068   6.993   9.343 -1.7753  1.4037  1.4376
  632MOL0     H87187  14.122   7.142   9.270 -0.5096  0.1840  2.9932
  632MOL0     H87188  14.128   6.856   9.146  1.2442 -0.1388  1.4026
  632MOL0     H87189  14.138   6.994   9.035 -2.6897  0.5334  0.5461
  632MOL0     H87190  14.342   6.980   9.257 -0.4488 -2.9061 -0.2980
  632MOL0     H87191  14.342   7.087   9.131  1.5965  0.0539  1.2381
  632MOL0     H87192  14.459   6.949   9.004 -0.6241  1.6458  0.7639
  632MOL0     H87193  14.321   6.824   9.013 -2.1825  0.4318  1.0503
  632MOL0     H87194  14.430   6.739   9.208  1.9873 -1.4282  0.3200
  632MOL0     H87195  14.548   6.868   9.218  0.9706  2.2139 -2.6312
  632MOL0     H87196  13.427   7.160   9.499 -4.1539 -1.1119  0.4483
  632MOL0     H87197  13.193   7.166   9.460 -1.6231  1.2397 -1.3646
  632MOL0     H87198  12.815   6.828   9.243 -0.2924 -1.2711 -1.8862
  632MOL0     H87199  12.584   6.814   9.156 -0.2555 -0.0637 -2.3659
  632MOL0     H87200  10.966   7.624   9.246 -1.2270  1.2296 -0.7227
  632MOL0     H87201  10.780   7.659   9.096  0.5194  1.6461  1.8184
  632MOL0     H87202  10.474   7.623   8.888 -0.3287 -0.5139  3.3117
  632MOL0     H87203  10.349   7.745   8.709  1.2565  0.1788  0.9484
  632MOL0     H87204  10.228   7.871   8.615 -0.3201 -1.6096 -0.1386
  632MOL0     H87205  10.109   7.750   8.579  1.5798  0.7722 -2.3901
  632MOL0     H87206  10.060   7.966   8.457  0.5854  1.7762  0.5542
  632MOL0     H87207  10.039   8.047   8.611  2.0171  0.0457  1.0890
  632MOL0     H87208   9.857   7.810   8.527 -1.4941  0.2830 -0.7457
  632MOL0     H87209   9.868   7.915   8.669  2.8489 -0.9331  0.3525
  632MOL0     H87210   9.777   7.982   8.381  1.1037 -0.0250 -0.0880
  632MOL0     H87211   9.816   8.111   8.500  2.0125 -0.2649  1.4798
  632MOL0     H87212   9.418   7.978   8.583 -0.4619 -1.3444 -0.6009
  632MOL0     H87213  10.046   7.838   9.009 -1.6274 -2.8961 -0.7297
  632MOL0     H87214  10.250   7.772   9.278  1.1942 -3.9690  0.5101
  632MOL0     H87215  10.088   7.822   9.218  0.3632  0.7485  0.6386
  632MOL0     H87216  10.123   7.651   9.256  1.1685 -2.0811 -3.4534
  633MOL0     O87217   6.536   0.914   1.197 -0.8506  0.2848  0.7732
  633MOL0     C87218   6.501   1.030   1.220  0.3851  0.2213  0.5806
  633MOL0     O87219   6.582   1.132   1.250 -0.0083 -0.2392 -0.2174
  633MOL0     C87220   6.719   1.119   1.235 -0.0268 -0.6433 -0.1000
  633MOL0     C87221   6.783   1.232   1.180  0.1620 -0.0101 -0.5659
  633MOL0     C87222   6.920   1.244   1.194  0.1546 -0.7287 -0.4306
  633MOL0     C87223   6.994   1.155   1.275  0.4706 -0.2131 -0.2973
  633MOL0     O87224   7.130   1.168   1.298 -0.0358  0.7124 -0.1753
  633MOL0     C87225   7.173   1.259   1.398  1.3085  0.9536  0.0729
  633MOL0     C87226   7.322   1.256   1.415 -0.2593 -0.3296 -0.7193
  633MOL0     C87227   7.370   1.118   1.449  0.5593 -0.3692  1.1455
  633MOL0     C87228   7.520   1.109   1.454 -0.5270  0.3342 -0.3343
  633MOL0     C87229   7.588   1.158   1.583 -0.1215 -0.1023 -1.3292
  633MOL0     C87230   7.551   1.066   1.708  0.6926 -0.4095  0.0974
  633MOL0     C87231   7.623   1.108   1.834  0.2080 -0.7993 -0.3152
  633MOL0     C87232   7.579   1.043   1.957  0.4425 -0.9039  0.5138
  633MOL0     N87233   7.662   1.095   2.069  0.4541 -0.0038  0.0333
  633MOL0     C87234   7.630   1.192   2.162  0.5885 -0.3943  0.7251
  633MOL0     C87235   7.734   1.194   2.244  0.0782 -0.0311 -0.0764
  633MOL0     C87236   7.748   1.273   2.365 -0.2326  0.7845  0.5419
  633MOL0     C87237   7.744   1.426   2.312 -0.8348 -1.0963 -0.0594
  633MOL0     C87238   7.766   1.527   2.424 -0.7612 -0.5221  1.0961
  633MOL0     C87239   7.878   1.515   2.519  0.5769  0.5224  0.3517
  633MOL0     O87240   7.999   1.475   2.455  0.0496 -0.2221  0.5235
  633MOL0     C87241   8.103   1.442   2.542  0.1842 -1.0392 -0.1939
  633MOL0     C87242   8.094   1.439   2.684 -0.1051 -0.1409  0.0110
  633MOL0     C87243   8.212   1.410   2.761  0.5634 -0.4892 -0.1687
  633MOL0     C87244   8.190   1.393   2.908  0.4158 -0.5603 -0.6709
  633MOL0     C87245   8.339   1.385   2.696  0.1876  0.9757  0.0744
  633MOL0     C87246   8.464   1.355   2.774 -0.0646 -0.0838  0.5447
  633MOL0     O87247   8.569   1.442   2.732  0.4954  0.3166 -0.4701
  633MOL0     C87248   8.689   1.421   2.794  0.1416  0.7014 -0.1619
  633MOL0     C87249   8.756   1.303   2.763  0.5870  0.8572  0.1496
  633MOL0     C87250   8.873   1.274   2.831  0.4548  0.2556  0.2390
  633MOL0     C87251   8.929   1.363   2.926  0.2154  0.9727  0.0987
  633MOL0     O87252   9.040   1.337   3.004  0.3891  0.0154  0.1346
  633MOL0     C87253   9.162   1.318   2.919  1.2939 -0.4514 -0.0545
  633MOL0     C87254   9.279   1.361   3.007 -0.1329 -0.3493  0.5619
  633MOL0     C87255   9.396   1.349   2.901 -0.1627 -0.2258  0.1939
  633MOL0     C87256   9.523   1.335   2.981 -0.2341 -0.0365 -0.3275
  633MOL0     C87257   9.634   1.263   2.904 -0.1908 -0.4484  1.0318
  633MOL0     C87258   9.710   1.361   2.814 -0.1796 -0.4430 -0.3382
  633MOL0     C87259   9.838   1.294   2.760 -0.0792  0.3491 -0.0260
  633MOL0     C87260   9.903   1.380   2.657 -0.1011 -0.5291  0.2928
  633MOL0    Cl87261  10.063   1.322   2.625 -0.1345  0.0043  0.5735
  633MOL0     C87262   8.865   1.487   2.936 -0.0146  0.0591 -0.5228
  633MOL0     C87263   8.747   1.520   2.873 -0.5498  0.4152 -0.6025
  633MOL0     O87264   8.480   1.250   2.839 -0.0629 -0.6338  0.0206
  633MOL0     C87265   8.342   1.389   2.556 -0.5282 -0.4259  1.1521
  633MOL0     C87266   8.226   1.420   2.485 -0.7239 -0.5907  1.1892
  633MOL0     N87267   7.827   1.106   2.206 -0.2145 -0.0942 -0.5564
  633MOL0     N87268   7.783   1.044   2.102  0.4596  0.1365 -0.1411
  633MOL0     C87269   6.925   1.044   1.332 -0.4486  0.1724 -0.1151
  633MOL0     C87270   6.790   1.019   1.308  0.4652 -0.1920 -0.3107
  633MOL0     C87271   6.360   1.057   1.200  0.1877 -0.2560 -0.3411
  633MOL0     C87272   6.273   0.958   1.244  0.2793 -0.4248 -0.1457
  633MOL0     C87273   6.134   0.989   1.238  0.4669 -0.1707  0.6026
  633MOL0     C87274   6.075   1.101   1.180  0.0884 -0.0408  0.1582
  633MOL0     O87275   5.938   1.134   1.178  0.5108  0.5884 -0.2397
  633MOL0     C87276   5.867   1.009   1.195  0.0332 -0.0206  0.3672
  633MOL0     C87277   5.718   1.027   1.162  0.1561 -0.1408 -0.6586
  633MOL0     C87278   5.626   0.906   1.193 -0.7139 -0.6617  0.8428
  633MOL0     C87279   5.493   0.917   1.124  0.6944 -0.2094  0.0227
  633MOL0     C87280   5.394   0.984   1.205 -0.2295  0.5074  0.5267
  633MOL0     C87281   5.307   1.045   1.261 -0.1501  0.0063  0.3150
  633MOL0     C87282   6.170   1.201   1.142  1.0502 -1.6399  0.5685
  633MOL0     C87283   6.308   1.183   1.151 -0.2487  0.4699  0.3675
  633MOL0     C87284   6.393   1.298   1.108  0.2338 -0.4953 -0.4995
  633MOL0     H87285   6.726   1.308   1.128 -1.4762 -0.1860  0.8743
  633MOL0     H87286   6.978   1.333   1.170  0.1279 -0.0556  1.8022
  633MOL0     H87287   7.136   1.230   1.497  3.0165 -0.6554  0.2917
  633MOL0     H87288   7.140   1.362   1.382 -0.6335  0.4610  0.6320
  633MOL0     H87289   7.372   1.305   1.331 -0.5026  0.4046 -0.4429
  633MOL0     H87290   7.330   1.318   1.505 -3.1051 -3.1969  1.7678
  633MOL0     H87291   7.324   1.076   1.540  1.3497  0.5312  1.9817
  633MOL0     H87292   7.336   1.050   1.371  3.0883 -1.5240  0.9416
  633MOL0     H87293   7.549   1.004   1.443  1.3336  0.7797 -0.0077
  633MOL0     H87294   7.562   1.154   1.364 -0.2365 -2.4665 -1.7150
  633MOL0     H87295   7.560   1.262   1.602  1.6340  0.2359 -0.4110
  633MOL0     H87296   7.697   1.157   1.581 -0.0268 -2.1233  0.3445
  633MOL0     H87297   7.444   1.067   1.732  0.6609 -0.1804 -0.0515
  633MOL0     H87298   7.585   0.965   1.685 -0.9381 -0.4736 -2.4496
  633MOL0     H87299   7.601   1.214   1.846 -0.4665 -1.2239  3.3458
  633MOL0     H87300   7.732   1.102   1.824  0.6772  3.0445  0.9034
  633MOL0     H87301   7.476   1.071   1.981  0.7592  1.0546 -0.2446
  633MOL0     H87302   7.599   0.936   1.952  4.8127 -0.3757  2.2036
  633MOL0     H87303   7.550   1.265   2.166  0.2203 -0.7229 -0.4318
  633MOL0     H87304   7.846   1.251   2.408  0.4548  0.1620 -1.2585
  633MOL0     H87305   7.668   1.260   2.439 -0.1106 -1.7399  0.3147
  633MOL0     H87306   7.811   1.450   2.228 -0.6303  2.0381  0.8613
  633MOL0     H87307   7.642   1.446   2.277 -1.0921 -3.3163 -0.7099
  633MOL0     H87308   7.769   1.624   2.374 -2.8863  0.0233  1.9144
  633MOL0     H87309   7.677   1.525   2.487 -1.3586  0.3606  0.3019
  633MOL0     H87310   7.892   1.603   2.583 -1.3903  0.8933  0.3300
  633MOL0     H87311   7.836   1.437   2.582 -3.5890  1.8558 -0.4536
  633MOL0     H87312   8.000   1.463   2.733 -1.3721  0.5797 -2.5882
  633MOL0     H87313   8.249   1.309   2.945  1.4687  0.7549  0.7661
  633MOL0     H87314   8.085   1.367   2.927  1.4758 -4.9634  0.2602
  633MOL0     H87315   8.217   1.485   2.960  0.0308 -1.4933  1.3108
  633MOL0     H87316   8.717   1.243   2.682 -0.6488  0.2347  1.1686
  633MOL0     H87317   8.917   1.178   2.806 -1.4977 -0.3369 -1.1130
  633MOL0     H87318   9.186   1.213   2.904  2.2530 -0.3724  0.7961
  633MOL0     H87319   9.154   1.368   2.822  0.3459  1.2525  0.8500
  633MOL0     H87320   9.261   1.460   3.050  0.1946 -0.9523  2.1689
  633MOL0     H87321   9.297   1.289   3.088  0.1299  0.2956  1.0824
  633MOL0     H87322   9.389   1.440   2.840  0.7263 -0.9608 -1.0701
  633MOL0     H87323   9.389   1.257   2.841  1.1003 -0.3704  0.2500
  633MOL0     H87324   9.507   1.273   3.070  2.7437 -1.1941 -0.4918
  633MOL0     H87325   9.548   1.439   3.004  3.1101 -0.7395 -0.3498
  633MOL0     H87326   9.701   1.206   2.969  1.8222  2.7873  2.0706
  633MOL0     H87327   9.587   1.186   2.843 -0.4795 -0.0373  0.7232
  633MOL0     H87328   9.738   1.450   2.870 -0.1063 -0.5468 -0.2094
  633MOL0     H87329   9.646   1.388   2.729 -2.3309 -0.3763  1.2056
  633MOL0     H87330   9.822   1.193   2.722 -1.5946  1.0399 -1.3378
  633MOL0     H87331   9.914   1.289   2.838  0.8525  4.9066 -0.3422
  633MOL0     H87332   9.902   1.482   2.696  0.0145 -1.7878  3.9773
  633MOL0     H87333   9.840   1.389   2.568 -0.2166  3.4199  0.5742
  633MOL0     H87334   8.922   1.551   3.003  1.5293 -2.1556  0.4105
  633MOL0     H87335   8.694   1.613   2.891 -2.0939 -0.5369 -0.0719
  633MOL0     H87336   8.439   1.372   2.510 -0.4559 -0.7549  1.4214
  633MOL0     H87337   8.246   1.429   2.379  0.0596 -1.2438  1.2733
  633MOL0     H87338   6.983   0.973   1.389  0.1753 -0.5212 -1.5702
  633MOL0     H87339   6.734   0.934   1.344 -1.3776  1.3090  0.5381
  633MOL0     H87340   6.298   0.857   1.274  1.0333 -0.3231 -0.4010
  633MOL0     H87341   6.074   0.917   1.292 -0.0313  0.2115  0.5777
  633MOL0     H87342   5.912   0.932   1.133  2.4558  2.6856 -1.4850
  633MOL0     H87343   5.875   0.978   1.300  2.7193 -1.2667 -0.1467
  633MOL0     H87344   5.705   1.044   1.055 -2.0150 -0.4506 -0.4860
  633MOL0     H87345   5.688   1.122   1.207  0.3380 -0.0399 -0.7494
  633MOL0     H87346   5.681   0.825   1.146  2.9135  0.8694  2.0487
  633MOL0     H87347   5.615   0.893   1.301  1.3206 -0.2573  1.1499
  633MOL0     H87348   5.462   0.812   1.124  0.3422 -0.1232  1.2531
  633MOL0     H87349   5.494   0.951   1.020 -1.8819 -1.0005 -0.3294
  633MOL0     H87350   5.248   1.108   1.324 -1.8385 -1.4661  0.2911
  633MOL0     H87351   6.130   1.300   1.124  2.7240 -1.0883 -0.3658
  633MOL0     H87352   6.409   1.364   1.194 -0.6468 -3.0370  1.7441
  633MOL0     H87353   6.491   1.259   1.078  1.3542 -0.0678  2.2693
  633MOL0     H87354   6.349   1.351   1.023  2.1583  3.4379  0.7455
  634MOL0     O87355  11.309   7.597   6.424 -0.2087 -0.1613 -0.1947
  634MOL0     C87356  11.288   7.703   6.371 -0.2849 -0.2654  0.0020
  634MOL0     O87357  11.345   7.817   6.402 -0.0502 -0.1478  0.1535
  634MOL0     C87358  11.417   7.838   6.518  0.3671  0.2919  0.6747
  634MOL0     C87359  11.526   7.926   6.508  0.7928  0.2455  0.5936
  634MOL0     C87360  11.591   7.973   6.623 -0.8664  0.8064  0.3105
  634MOL0     C87361  11.558   7.927   6.749 -0.5136  0.3746  0.9280
  634MOL0     O87362  11.629   7.966   6.858 -0.1142  0.5796  0.8454
  634MOL0     C87363  11.769   7.992   6.846 -0.4479 -0.4847  0.0566
  634MOL0     C87364  11.829   8.039   6.979 -0.6148  0.4601 -0.3654
  634MOL0     C87365  11.978   8.066   6.981  0.5302  0.4662 -0.3192
  634MOL0     C87366  12.018   8.113   7.120  0.4015 -0.4968  0.1712
  634MOL0     C87367  12.162   8.097   7.171 -0.2993 -0.2527  0.0035
  634MOL0     C87368  12.259   8.202   7.099 -0.3518  0.6597  0.5160
  634MOL0     C87369  12.404   8.178   7.162  0.1104 -0.3283  1.0414
  634MOL0     C87370  12.467   8.045   7.114  0.7428  0.0090 -0.3216
  634MOL0     N87371  12.613   8.040   7.139 -0.3880  0.2016 -0.0934
  634MOL0     C87372  12.714   7.998   7.060 -1.0899 -0.3346  0.0269
  634MOL0     C87373  12.826   8.006   7.131 -0.7639 -0.0899 -0.1201
  634MOL0     C87374  12.965   7.970   7.097  0.5548 -0.6103  0.4471
  634MOL0     C87375  13.072   8.052   7.174  0.1977  0.5458 -0.0813
  634MOL0     C87376  13.214   8.018   7.113 -0.0156 -0.4080  0.3779
  634MOL0     C87377  13.278   7.889   7.162  0.7621 -0.6779 -0.1496
  634MOL0     O87378  13.421   7.889   7.152  0.2418 -0.1380  0.3607
  634MOL0     C87379  13.485   7.765   7.157 -0.4175 -0.0270  0.1216
  634MOL0     C87380  13.623   7.764   7.145  0.3448  0.8155 -0.2874
  634MOL0     C87381  13.703   7.652   7.128  0.3249  0.0610 -0.4180
  634MOL0     C87382  13.851   7.669   7.134 -0.1511  0.5686 -0.0112
  634MOL0     C87383  13.635   7.531   7.125 -0.2941  0.3283  0.1900
  634MOL0     C87384  13.709   7.400   7.099 -0.0078 -0.7660 -1.2057
  634MOL0     O87385  13.805   7.397   7.005  0.0844  0.8377  0.2661
  634MOL0     C87386  13.873   7.282   6.983 -0.0597  0.8625 -0.6654
  634MOL0     C87387  13.839   7.185   6.886 -0.2235 -0.1052  0.0368
  634MOL0     C87388  13.900   7.062   6.877 -0.4630  0.5444 -0.3215
  634MOL0     C87389  14.004   7.033   6.974  0.4888 -0.7044 -0.5929
  634MOL0     O87390  14.073   6.919   6.971 -0.7206 -0.2084  0.2133
  634MOL0     C87391  14.030   6.798   6.913  0.6464  0.0406 -0.1954
  634MOL0     C87392  14.135   6.699   6.963 -0.3872  0.9186 -0.2807
  634MOL0     C87393  14.276   6.711   6.896 -0.3619  0.4546 -0.5944
  634MOL0     C87394  14.373   6.782   7.003 -0.1124 -0.0883  0.8658
  634MOL0     C87395  14.522   6.787   6.964 -0.6001 -0.0365  0.7183
  634MOL0     C87396  14.600   6.876   7.069  0.1790 -0.0701 -0.0006
  634MOL0     C87397  14.756   6.882   7.035 -0.3767  0.3251  0.8102
  634MOL0     C87398  14.841   6.938   7.149 -0.6812  0.8336 -0.3471
  634MOL0    Cl87399  15.010   6.955   7.106 -0.0059  0.1285  0.1170
  634MOL0     C87400  14.036   7.129   7.077 -0.4278  0.1304  0.2264
  634MOL0     C87401  13.976   7.251   7.081  0.2626 -0.5442  0.5690
  634MOL0     O87402  13.677   7.308   7.177  0.0488 -0.3394 -0.3201
  634MOL0     C87403  13.494   7.516   7.146  0.5376 -0.2237  0.2601
  634MOL0     C87404  13.418   7.632   7.156 -0.3623  0.1767  0.3455
  634MOL0     N87405  12.796   8.041   7.262  0.0359 -1.0577  0.2770
  634MOL0     N87406  12.669   8.070   7.261  0.0881 -0.1924  0.7603
  634MOL0     C87407  11.449   7.840   6.765  0.1614 -0.4184 -0.8643
  634MOL0     C87408  11.377   7.791   6.646  0.0826 -0.5270  0.3881
  634MOL0     C87409  11.192   7.712   6.251  0.6347  0.5011 -0.7441
  634MOL0     C87410  11.143   7.835   6.213  0.1203  0.1286 -0.0620
  634MOL0     C87411  11.039   7.848   6.116 -0.0321  0.3182 -0.2856
  634MOL0     C87412  10.985   7.736   6.054  0.6301  0.9227  0.3640
  634MOL0     O87413  10.876   7.737   5.964 -0.2761 -0.1787 -0.0680
  634MOL0     C87414  10.859   7.858   5.889  0.0110  0.3276 -0.9646
  634MOL0     C87415  10.803   7.833   5.749 -0.3602 -0.2474 -0.7908
  634MOL0     C87416  10.648   7.807   5.755 -0.3382  0.1278 -0.4981
  634MOL0     C87417  10.568   7.943   5.760 -0.5875  0.4543  0.2271
  634MOL0     C87418  10.427   7.920   5.792  0.5434  0.3976 -0.4401
  634MOL0     C87419  10.316   7.900   5.835 -0.5912 -0.1682  0.2419
  634MOL0     C87420  11.032   7.611   6.093 -0.3299  0.5935 -1.3282
  634MOL0     C87421  11.142   7.604   6.180 -0.1643  0.2113 -0.7155
  634MOL0     C87422  11.192   7.460   6.196 -0.3107  0.3783 -0.9667
  634MOL0     H87423  11.549   7.960   6.408 -0.3741  1.7926  0.8045
  634MOL0     H87424  11.668   8.049   6.614 -1.1669  1.0423 -0.3260
  634MOL0     H87425  11.808   8.070   6.779  1.0934  0.5059  1.9620
  634MOL0     H87426  11.815   7.897   6.818 -0.0502  0.2464 -1.9313
  634MOL0     H87427  11.773   8.125   7.017 -0.4203 -0.4509  2.1751
  634MOL0     H87428  11.814   7.952   7.043 -0.0842  0.6747  0.0629
  634MOL0     H87429  12.039   7.982   6.947 -1.2137 -1.3265  0.7539
  634MOL0     H87430  12.008   8.149   6.916  3.7013  2.0781  2.8607
  634MOL0     H87431  11.985   8.212   7.151 -1.7291 -0.7052 -1.2072
  634MOL0     H87432  11.960   8.050   7.189 -1.6980 -0.4594 -1.4773
  634MOL0     H87433  12.200   7.996   7.154 -0.7607 -0.1985 -1.5269
  634MOL0     H87434  12.174   8.119   7.277  2.7839  4.3539 -0.9674
  634MOL0     H87435  12.257   8.180   6.991 -0.2015  2.4897  0.1056
  634MOL0     H87436  12.231   8.307   7.109 -0.0180  1.3549 -3.6643
  634MOL0     H87437  12.396   8.171   7.271 -2.0504 -2.7040  0.8206
  634MOL0     H87438  12.464   8.261   7.124 -2.1009  1.0335  0.3797
  634MOL0     H87439  12.421   7.964   7.171 -0.2415  1.4881  1.0643
  634MOL0     H87440  12.448   8.046   7.006 -0.1641  4.2567 -0.3275
  634MOL0     H87441  12.719   7.958   6.959  3.0486  0.4280 -0.2448
  634MOL0     H87442  12.977   7.997   6.992 -2.6914  1.9449  0.5432
  634MOL0     H87443  12.978   7.864   7.120 -2.5372 -1.3560 -0.8182
  634MOL0     H87444  13.049   8.158   7.165  0.4676  0.6254  0.1387
  634MOL0     H87445  13.071   8.040   7.283 -0.1756  3.1416  0.2528
  634MOL0     H87446  13.212   8.021   7.004  0.9564  1.7975  0.3644
  634MOL0     H87447  13.279   8.101   7.140  1.2072 -0.0483 -3.1747
  634MOL0     H87448  13.253   7.873   7.267 -2.0849 -2.8461 -1.0358
  634MOL0     H87449  13.235   7.803   7.109  0.0322 -1.0034  0.9487
  634MOL0     H87450  13.678   7.856   7.164  0.6187  0.1404  2.6322
  634MOL0     H87451  13.896   7.589   7.194  2.0947  0.6512 -1.4459
  634MOL0     H87452  13.877   7.764   7.181  0.7509  0.6832 -0.7060
  634MOL0     H87453  13.887   7.666   7.030 -1.5859 -0.0589 -0.5108
  634MOL0     H87454  13.762   7.217   6.816 -0.5932  0.7525  0.8168
  634MOL0     H87455  13.849   6.989   6.815 -5.1026  0.8351  2.6931
  634MOL0     H87456  13.932   6.768   6.952  0.2287 -0.6240 -1.6939
  634MOL0     H87457  14.031   6.812   6.804  1.0417 -0.0456 -0.2043
  634MOL0     H87458  14.145   6.705   7.072  0.8928  0.3797 -0.3408
  634MOL0     H87459  14.101   6.598   6.938  1.0969  0.1174  0.7431
  634MOL0     H87460  14.264   6.756   6.797  2.1751 -0.7727 -1.5651
  634MOL0     H87461  14.320   6.614   6.869  1.9823  0.8808  1.2827
  634MOL0     H87462  14.367   6.726   7.097  2.2188 -0.6223  0.7504
  634MOL0     H87463  14.344   6.887   7.016  1.6227  1.0306 -2.8719
  634MOL0     H87464  14.568   6.689   6.951  0.5109  0.2770  2.0569
  634MOL0     H87465  14.536   6.839   6.869  0.9029  1.0271  1.4811
  634MOL0     H87466  14.587   6.827   7.165 -0.9872  2.6082  1.3158
  634MOL0     H87467  14.558   6.975   7.088  1.4108 -0.0260  3.0750
  634MOL0     H87468  14.769   6.948   6.948 -3.1403 -0.2646 -0.1628
  634MOL0     H87469  14.793   6.781   7.017  1.6107  1.2500 -0.6937
  634MOL0     H87470  14.829   6.865   7.230 -1.0252  0.0284 -1.1109
  634MOL0     H87471  14.810   7.038   7.180 -0.2225  1.0808 -0.6772
  634MOL0     H87472  14.110   7.107   7.153  0.3652  3.3520  0.5241
  634MOL0     H87473  14.016   7.329   7.144 -0.5732  0.6169 -0.2907
  634MOL0     H87474  13.445   7.419   7.147 -0.8807  0.4783  0.2640
  634MOL0     H87475  13.310   7.633   7.167 -0.7727  3.3870 -2.3267
  634MOL0     H87476  11.424   7.794   6.859 -0.9147 -0.4673 -1.1640
  634MOL0     H87477  11.286   7.734   6.661 -1.0922  1.0460 -0.4894
  634MOL0     H87478  11.177   7.924   6.266 -1.2515  0.0991  0.9451
  634MOL0     H87479  10.994   7.945   6.100 -1.3039 -0.1045  0.5517
  634MOL0     H87480  10.794   7.923   5.949 -0.9305  0.2593 -1.8600
  634MOL0     H87481  10.956   7.908   5.882  0.4830 -0.4614 -0.2586
  634MOL0     H87482  10.853   7.743   5.712  3.0883  1.3100 -0.2760
  634MOL0     H87483  10.827   7.896   5.663 -0.9535 -2.6051 -2.7927
  634MOL0     H87484  10.628   7.753   5.662 -0.5744 -1.0879  0.2354
  634MOL0     H87485  10.610   7.739   5.832 -1.1945 -0.9372 -1.8013
  634MOL0     H87486  10.577   8.001   5.668 -1.3164 -0.0375 -0.1680
  634MOL0     H87487  10.617   8.006   5.835 -0.5364  1.3575 -0.5565
  634MOL0     H87488  10.221   7.880   5.880 -0.2680  2.0252  2.0809
  634MOL0     H87489  11.001   7.521   6.041  1.6843 -0.0276 -1.5614
  634MOL0     H87490  11.297   7.467   6.225 -0.6290  0.8471  0.1020
  634MOL0     H87491  11.146   7.409   6.281  1.2877  0.0157 -0.2850
  634MOL0     H87492  11.193   7.389   6.113 -0.2923  0.8988 -1.4156
  635MOL0     O87493  10.382  10.260   5.107  0.1308 -0.4356  0.6896
  635MOL0     C87494  10.310  10.257   5.202  0.0180 -0.2242  0.0580
  635MOL0     O87495  10.349  10.216   5.326 -0.0395 -0.2826 -0.4234
  635MOL0     C87496  10.475  10.155   5.332 -0.2480  0.0191  0.4333
  635MOL0     C87497  10.601  10.222   5.339  0.4809 -0.6234 -0.3481
  635MOL0     C87498  10.716  10.143   5.327  0.0738 -0.5126 -0.5527
  635MOL0     C87499  10.708  10.004   5.319  0.3860  0.8056 -0.3390
  635MOL0     O87500  10.816   9.924   5.311  0.1052 -0.1474 -0.2044
  635MOL0     C87501  10.949   9.981   5.338 -0.7470 -0.3235 -0.2101
  635MOL0     C87502  11.047   9.871   5.340  0.3838 -0.0842 -0.1782
  635MOL0     C87503  11.016   9.770   5.447 -0.6973  0.4036  0.0241
  635MOL0     C87504  11.145   9.686   5.460  0.2764  0.1692  0.7398
  635MOL0     C87505  11.135   9.558   5.546 -0.1352 -0.1041  0.0965
  635MOL0     C87506  11.063   9.435   5.481 -0.3849 -0.4309  0.4558
  635MOL0     C87507  11.020   9.325   5.581 -0.3030  0.2460  0.2749
  635MOL0     C87508  11.133   9.243   5.653  0.2608 -0.6934  0.0938
  635MOL0     N87509  11.207   9.145   5.569  0.0622  0.4100  0.5554
  635MOL0     C87510  11.302   9.183   5.481 -0.1300 -0.0223 -1.0901
  635MOL0     C87511  11.330   9.073   5.409 -0.0412  0.6320 -0.0556
  635MOL0     C87512  11.430   9.069   5.298  0.1090 -0.1575  0.8021
  635MOL0     C87513  11.545   8.964   5.293  0.1549  0.2834  0.4444
  635MOL0     C87514  11.657   9.006   5.385  0.2967  0.9728  0.0011
  635MOL0     C87515  11.783   8.918   5.366  0.2665 -0.0475  0.0292
  635MOL0     O87516  11.895   8.986   5.428  0.2964 -0.1124 -0.1827
  635MOL0     C87517  12.018   8.921   5.432  0.1162  0.8183 -0.5206
  635MOL0     C87518  12.115   8.994   5.493 -1.1926 -0.1464  0.0505
  635MOL0     C87519  12.249   8.943   5.515  0.4140  0.6191 -0.1966
  635MOL0     C87520  12.348   9.043   5.587 -0.4121 -0.0694  0.2858
  635MOL0     C87521  12.278   8.806   5.476  0.3965  0.8976 -0.2156
  635MOL0     C87522  12.411   8.744   5.514  0.1751  0.2592  0.4709
  635MOL0     O87523  12.481   8.776   5.625  0.5420 -0.7762  0.2400
  635MOL0     C87524  12.583   8.696   5.669  0.3542  0.7466  0.9617
  635MOL0     C87525  12.614   8.716   5.798 -0.3540  0.8200  0.3042
  635MOL0     C87526  12.712   8.647   5.865 -0.0191 -1.0203 -0.5106
  635MOL0     C87527  12.784   8.550   5.799 -0.0638  0.3632  0.6853
  635MOL0     O87528  12.881   8.486   5.873  0.3009 -0.0598  0.4111
  635MOL0     C87529  12.923   8.353   5.823  0.2238  0.3896  0.3629
  635MOL0     C87530  13.056   8.358   5.749 -0.4618  0.0313  0.0108
  635MOL0     C87531  13.173   8.435   5.835  0.6210  0.4185 -0.0284
  635MOL0     C87532  13.297   8.463   5.746  0.9531  0.2010  0.3407
  635MOL0     C87533  13.392   8.559   5.810 -0.0751  0.1059 -0.6311
  635MOL0     C87534  13.507   8.592   5.718  0.9575 -0.7971 -0.0206
  635MOL0     C87535  13.612   8.683   5.783  0.1967 -0.3856 -0.6669
  635MOL0     C87536  13.711   8.599   5.873  0.3762 -0.2546 -0.4598
  635MOL0    Cl87537  13.812   8.710   5.970  0.0416  0.0498  0.1550
  635MOL0     C87538  12.761   8.531   5.667 -0.2260 -0.4296  0.2471
  635MOL0     C87539  12.666   8.608   5.597  0.6168  0.0877 -0.6494
  635MOL0     O87540  12.441   8.650   5.442  0.3484 -0.2070  0.2553
  635MOL0     C87541  12.169   8.733   5.411 -0.4142  0.6663  0.1320
  635MOL0     C87542  12.044   8.791   5.382 -0.2336  0.6018 -0.0967
  635MOL0     N87543  11.269   8.964   5.466  0.4489  0.5651 -0.2241
  635MOL0     N87544  11.195   9.014   5.573  0.2482  0.7944  0.3716
  635MOL0     C87545  10.582   9.934   5.323 -0.5056 -0.6730 -0.6089
  635MOL0     C87546  10.468  10.015   5.329  0.3392 -0.5203  0.1305
  635MOL0     C87547  10.167  10.302   5.196  0.8822  0.3320  0.1902
  635MOL0     C87548  10.106  10.340   5.314  0.2650 -0.5873  0.9942
  635MOL0     C87549   9.971  10.373   5.313  0.5811 -0.5402 -0.8629
  635MOL0     C87550   9.896  10.381   5.196 -0.4819  0.6139  0.0847
  635MOL0     O87551   9.770  10.434   5.196  0.0549  0.7139 -0.0232
  635MOL0     C87552   9.711  10.518   5.095  0.5367  0.9372  0.2304
  635MOL0     C87553   9.567  10.550   5.149 -0.3911 -0.0376  0.4654
  635MOL0     C87554   9.476  10.435   5.154 -1.5563  0.4186  1.8485
  635MOL0     C87555   9.337  10.481   5.194  0.2577 -0.1255 -0.1969
  635MOL0     C87556   9.280  10.584   5.102 -0.8380  0.4372 -0.6559
  635MOL0     C87557   9.231  10.667   5.028  1.0482  0.7013  0.4530
  635MOL0     C87558   9.959  10.337   5.074 -0.5108 -0.8578 -0.1077
  635MOL0     C87559  10.093  10.301   5.072 -1.1252 -0.2716  0.1350
  635MOL0     C87560  10.146  10.261   4.934  0.1247  0.6243  0.4053
  635MOL0     H87561  10.602  10.331   5.333 -1.0679 -0.6598 -2.1015
  635MOL0     H87562  10.807  10.203   5.328 -0.4161  0.2637  1.4167
  635MOL0     H87563  10.950  10.030   5.436  0.4315 -2.6544  1.0176
  635MOL0     H87564  10.983  10.068   5.281  3.0409  0.2962  2.6183
  635MOL0     H87565  11.052   9.828   5.240 -3.1678 -0.8745 -0.1521
  635MOL0     H87566  11.148   9.906   5.366  0.8165 -1.2604 -0.1879
  635MOL0     H87567  11.000   9.828   5.538  0.2547  2.5696 -1.1067
  635MOL0     H87568  10.938   9.696   5.426 -0.4495  0.5061 -1.4031
  635MOL0     H87569  11.173   9.664   5.356 -0.0888 -3.2498  1.2677
  635MOL0     H87570  11.230   9.741   5.500 -0.2843  3.0209 -1.6062
  635MOL0     H87571  11.072   9.582   5.632 -0.1798 -0.2922  0.1164
  635MOL0     H87572  11.239   9.541   5.574 -0.1831  0.0205  0.3451
  635MOL0     H87573  10.973   9.465   5.425  0.3897 -0.2123 -0.7115
  635MOL0     H87574  11.130   9.395   5.404 -1.3477 -1.4439  0.1050
  635MOL0     H87575  10.959   9.252   5.526 -2.9326 -0.7018  4.0774
  635MOL0     H87576  10.949   9.351   5.659  0.3788 -3.1779  2.2336
  635MOL0     H87577  11.202   9.319   5.691 -1.9791  1.9202 -0.7089
  635MOL0     H87578  11.087   9.196   5.740 -1.8387  0.7479 -0.1751
  635MOL0     H87579  11.346   9.282   5.472  0.8912 -0.2827  0.4517
  635MOL0     H87580  11.468   9.171   5.293  3.2882 -1.2703 -0.0254
  635MOL0     H87581  11.377   9.057   5.203  0.4016  3.3581  0.0444
  635MOL0     H87582  11.510   8.867   5.330  3.1582 -0.1947  2.3404
  635MOL0     H87583  11.590   8.953   5.193 -0.6969  0.6680  0.0093
  635MOL0     H87584  11.679   9.109   5.355 -1.9240  1.5160  0.1255
  635MOL0     H87585  11.627   9.001   5.490  0.0781 -2.5377 -0.0920
  635MOL0     H87586  11.769   8.820   5.413  1.4958  0.8739  2.4793
  635MOL0     H87587  11.792   8.907   5.258  1.1262  2.4634 -0.2133
  635MOL0     H87588  12.091   9.086   5.545 -1.2752 -0.3801  0.4274
  635MOL0     H87589  12.369   9.018   5.691  2.5858 -3.0416 -0.8598
  635MOL0     H87590  12.321   9.149   5.582  2.8427  0.8619  0.2774
  635MOL0     H87591  12.448   9.039   5.544 -1.2119  0.5513 -1.7819
  635MOL0     H87592  12.548   8.777   5.859 -0.0590  1.7824 -0.3162
  635MOL0     H87593  12.741   8.656   5.969 -0.0132  1.1758 -0.6547
  635MOL0     H87594  12.925   8.280   5.904 -1.7333  0.4634  0.5143
  635MOL0     H87595  12.849   8.316   5.751  2.1393  0.6663 -1.8792
  635MOL0     H87596  13.077   8.252   5.737 -0.6450 -0.5948  3.9094
  635MOL0     H87597  13.053   8.404   5.650  1.8085  0.8951  0.2990
  635MOL0     H87598  13.198   8.370   5.919 -1.8009 -0.4464  0.0882
  635MOL0     H87599  13.134   8.529   5.875  0.3801  1.1029 -1.8003
  635MOL0     H87600  13.259   8.504   5.652 -0.8418  0.8947  1.3058
  635MOL0     H87601  13.344   8.368   5.724  0.0908 -0.1634  0.0109
  635MOL0     H87602  13.333   8.649   5.828 -1.2836 -0.8488  0.4319
  635MOL0     H87603  13.424   8.525   5.909  0.6844  2.1723 -0.1239
  635MOL0     H87604  13.467   8.648   5.633 -2.8357  1.1248  2.7369
  635MOL0     H87605  13.558   8.503   5.681  1.0622 -0.8764  0.3090
  635MOL0     H87606  13.552   8.752   5.842 -0.4940 -2.8831  1.7732
  635MOL0     H87607  13.670   8.742   5.711  0.4162  1.6670  1.1014
  635MOL0     H87608  13.774   8.533   5.813 -1.0951 -2.8038  0.6589
  635MOL0     H87609  13.658   8.536   5.944  1.2085 -0.5888 -0.1187
  635MOL0     H87610  12.814   8.459   5.606 -0.8037 -0.9242  0.3185
  635MOL0     H87611  12.640   8.575   5.497  1.1574 -3.0101  0.1081
  635MOL0     H87612  12.187   8.628   5.387 -1.0075  0.6871 -0.4278
  635MOL0     H87613  11.962   8.741   5.330  0.4684  0.3500 -0.9885
  635MOL0     H87614  10.580   9.827   5.306  0.0534 -1.3593  2.8283
  635MOL0     H87615  10.369   9.970   5.323 -0.1753  0.6942 -1.0330
  635MOL0     H87616  10.159  10.347   5.409 -0.1142  0.5035  1.1442
  635MOL0     H87617   9.924  10.380   5.411  3.7468  2.2857  0.6513
  635MOL0     H87618   9.756  10.617   5.089 -1.5518  1.8468 -1.8648
  635MOL0     H87619   9.707  10.477   4.994  1.3262  2.5197 -0.4751
  635MOL0     H87620   9.531  10.623   5.076 -0.3666 -2.1885 -1.8022
  635MOL0     H87621   9.577  10.598   5.247 -0.9424 -0.0178  0.5153
  635MOL0     H87622   9.467  10.408   5.048  0.6873  2.6199  0.9989
  635MOL0     H87623   9.515  10.349   5.210  1.1826  0.5680  0.3095
  635MOL0     H87624   9.361  10.529   5.290  1.8847 -0.0241 -0.6168
  635MOL0     H87625   9.271  10.394   5.199 -0.9995  0.7423 -1.1237
  635MOL0     H87626   9.188  10.742   4.963 -0.7222 -0.2807  0.4191
  635MOL0     H87627   9.916  10.357   4.976  0.7538 -0.6737 -0.6507
  635MOL0     H87628  10.071  10.274   4.854 -0.0458 -2.5830 -0.0885
  635MOL0     H87629  10.240  10.309   4.907  0.2239  0.7816  1.0294
  635MOL0     H87630  10.163  10.153   4.940 -1.1040  0.4523  1.1225
  636MOL0     O87631  11.030  10.917   6.775 -0.1639  0.6329  0.2739
  636MOL0     C87632  11.018  11.030   6.830 -0.3621  0.3510  0.5244
  636MOL0     O87633  11.119  11.100   6.890 -0.0033 -1.0143  0.5042
  636MOL0     C87634  11.242  11.086   6.831  0.0622  0.0607  0.4477
  636MOL0     C87635  11.326  10.996   6.903  0.5500 -0.8085  0.1112
  636MOL0     C87636  11.458  10.977   6.861  0.2037  0.2332 -0.8248
  636MOL0     C87637  11.506  11.046   6.743  0.2509  0.5970 -0.0047
  636MOL0     O87638  11.630  11.049   6.684  0.4972 -0.5637 -0.2056
  636MOL0     C87639  11.726  10.956   6.730 -0.7779  0.0221 -0.5761
  636MOL0     C87640  11.858  10.976   6.657 -0.1065 -0.2922  0.1010
  636MOL0     C87641  11.926  11.105   6.708 -0.2277  0.9633  0.3591
  636MOL0     C87642  12.066  11.128   6.651 -0.4958  0.4166  0.1754
  636MOL0     C87643  12.113  11.265   6.691  0.0077  0.3435  0.4158
  636MOL0     C87644  12.264  11.279   6.693 -0.1158  1.1988  0.6807
  636MOL0     C87645  12.311  11.418   6.699 -0.5147 -0.2234  0.6380
  636MOL0     C87646  12.290  11.506   6.573 -0.2465 -0.1866  0.9826
  636MOL0     N87647  12.373  11.631   6.590  0.2344  0.4610  0.0722
  636MOL0     C87648  12.510  11.620   6.593 -0.0607  0.6349  0.4547
  636MOL0     C87649  12.554  11.733   6.632 -0.0025 -1.0482 -0.1435
  636MOL0     C87650  12.697  11.767   6.654  0.1153 -0.0888  0.3792
  636MOL0     C87651  12.713  11.912   6.616 -0.3041 -0.3502 -1.2640
  636MOL0     C87652  12.845  11.968   6.655  0.2424  0.9471 -0.1657
  636MOL0     C87653  12.955  11.917   6.568 -0.2603  0.6995  0.2170
  636MOL0     O87654  12.931  11.923   6.425  0.4869 -0.7372 -0.2070
  636MOL0     C87655  13.038  11.963   6.340 -0.5534  0.7597  0.2864
  636MOL0     C87656  13.082  11.874   6.241  0.8854  0.1970 -0.0835
  636MOL0     C87657  13.202  11.897   6.168 -0.3142 -1.0999  0.2895
  636MOL0     C87658  13.235  11.781   6.071  0.5785  0.0430  0.8669
  636MOL0     C87659  13.266  12.024   6.187 -0.0568  0.3944 -0.1207
  636MOL0     C87660  13.384  12.064   6.118 -0.8964  0.0039  0.8193
  636MOL0     O87661  13.486  12.116   6.185  1.1435  0.1031 -0.1082
  636MOL0     C87662  13.609  12.149   6.134  0.0415  0.9064  0.8653
  636MOL0     C87663  13.619  12.232   6.022 -0.2727  0.3304 -0.0065
  636MOL0     C87664  13.744  12.254   5.960 -0.1196 -1.0036  0.2463
  636MOL0     C87665  13.864  12.198   6.014  0.8369 -0.6249 -0.8057
  636MOL0     O87666  13.987  12.196   5.959 -0.5075  0.4313 -0.5209
  636MOL0     C87667  14.016  12.281   5.847  0.6064 -0.9355 -1.0544
  636MOL0     C87668  13.996  12.209   5.717 -0.0082 -0.8991  0.6613
  636MOL0     C87669  14.047  12.285   5.587  0.3285 -0.7868  0.6370
  636MOL0     C87670  14.020  12.200   5.468 -0.1405  0.7393  0.4846
  636MOL0     C87671  13.884  12.191   5.410 -0.5765  0.3003 -0.2193
  636MOL0     C87672  13.899  12.119   5.277  0.9148  0.0383  0.2375
  636MOL0     C87673  13.764  12.135   5.195 -0.4992 -0.3512 -0.5346
  636MOL0     C87674  13.754  12.040   5.078 -0.4408  0.3567 -0.8238
  636MOL0    Cl87675  13.871  12.084   4.948  0.3181 -0.0417 -0.1270
  636MOL0     C87676  13.851  12.122   6.127 -0.7347  0.6228 -0.1636
  636MOL0     C87677  13.725  12.091   6.181 -0.7605 -0.0360  0.4907
  636MOL0     O87678  13.394  12.045   6.000 -0.2453  0.5731  0.4598
  636MOL0     C87679  13.219  12.117   6.288  0.8553 -0.1748 -0.1997
  636MOL0     C87680  13.107  12.079   6.365 -0.1124  0.0049 -0.4502
  636MOL0     N87681  12.445  11.814   6.661  0.3502  0.3287  0.0289
  636MOL0     N87682  12.333  11.750   6.652  0.0166  0.4522 -1.0871
  636MOL0     C87683  11.414  11.123   6.672 -0.3878  0.2592  0.2732
  636MOL0     C87684  11.285  11.155   6.711  1.1050  0.4625 -0.6300
  636MOL0     C87685  10.890  11.106   6.822 -0.0777  0.5706 -0.0614
  636MOL0     C87686  10.848  11.168   6.942 -0.1032 -0.3166 -0.0713
  636MOL0     C87687  10.718  11.230   6.956  0.5160 -0.3754 -0.0106
  636MOL0     C87688  10.636  11.237   6.843  0.4511 -1.1129 -0.0789
  636MOL0     O87689  10.516  11.305   6.852  0.8995  0.2352 -0.1411
  636MOL0     C87690  10.454  11.365   6.741  1.1111 -0.2963 -0.3696
  636MOL0     C87691  10.313  11.403   6.794 -0.2940  0.7246  1.2687
  636MOL0     C87692  10.226  11.453   6.676 -0.5651 -0.1383  0.4387
  636MOL0     C87693  10.071  11.469   6.711  0.0243 -0.2235 -0.0870
  636MOL0     C87694  10.054  11.574   6.813 -0.1799  1.0333  0.9324
  636MOL0     C87695  10.024  11.656   6.895 -0.5737  0.2921 -0.4171
  636MOL0     C87696  10.681  11.183   6.716 -0.3334 -0.1192 -0.0842
  636MOL0     C87697  10.807  11.122   6.709  0.0198 -1.0871 -0.0186
  636MOL0     C87698  10.844  11.064   6.579  0.3619 -0.2186 -0.6729
  636MOL0     H87699  11.293  10.956   6.998 -0.4418  1.1119  0.6259
  636MOL0     H87700  11.525  10.923   6.927 -2.7017 -0.9349  1.3593
  636MOL0     H87701  11.684  10.861   6.695  3.0818 -2.7484  1.4614
  636MOL0     H87702  11.748  10.943   6.836 -2.9789  1.2672  0.1009
  636MOL0     H87703  11.922  10.887   6.661 -0.5124 -0.6516 -1.0497
  636MOL0     H87704  11.843  10.988   6.550 -1.1047  0.0727  0.2733
  636MOL0     H87705  11.856  11.177   6.664 -2.0187 -1.3278 -0.7702
  636MOL0     H87706  11.930  11.105   6.817 -4.8976 -1.5725  0.7949
  636MOL0     H87707  12.130  11.053   6.698  0.6725 -1.1682 -3.4948
  636MOL0     H87708  12.070  11.114   6.542  1.0213 -0.1376  0.2827
  636MOL0     H87709  12.074  11.291   6.790 -0.2274  1.4242  0.0524
  636MOL0     H87710  12.065  11.338   6.625 -0.8829  1.2069  1.9666
  636MOL0     H87711  12.299  11.233   6.786 -0.4033  1.3998  0.8906
  636MOL0     H87712  12.310  11.234   6.605  1.3553  0.1865  1.9032
  636MOL0     H87713  12.412  11.417   6.741 -0.3245 -0.1918  0.1850
  636MOL0     H87714  12.258  11.471   6.779  2.0182  0.4684  1.9383
  636MOL0     H87715  12.317  11.460   6.478  5.4906 -0.3274  2.2990
  636MOL0     H87716  12.188  11.543   6.562  0.7785  2.8215  0.7846
  636MOL0     H87717  12.575  11.538   6.565 -2.8246 -1.3468 -0.6860
  636MOL0     H87718  12.765  11.705   6.596  0.9683 -0.3623  1.6256
  636MOL0     H87719  12.723  11.764   6.761 -1.4011  0.3812  0.7847
  636MOL0     H87720  12.696  11.928   6.509  2.6303  2.4264 -1.4503
  636MOL0     H87721  12.638  11.964   6.676  0.8248 -0.4816  0.3503
  636MOL0     H87722  12.842  12.077   6.644  0.6451  0.9143 -0.6141
  636MOL0     H87723  12.870  11.944   6.759  1.4692 -2.2614 -1.0578
  636MOL0     H87724  13.047  11.974   6.584 -0.6723  1.2117  0.8419
  636MOL0     H87725  12.968  11.809   6.578 -2.7729  0.4438  1.7399
  636MOL0     H87726  13.022  11.784   6.233 -0.3030  0.7623  1.7469
  636MOL0     H87727  13.177  11.799   5.980  1.1268  1.4119  0.7513
  636MOL0     H87728  13.202  11.688   6.117  0.3149  0.6816  2.0007
  636MOL0     H87729  13.342  11.770   6.049 -0.0484 -0.6212 -2.3087
  636MOL0     H87730  13.540  12.287   5.972  0.3584  1.2383 -0.0241
  636MOL0     H87731  13.753  12.313   5.869 -0.8662 -0.8514  0.2610
  636MOL0     H87732  13.958  12.374   5.854 -1.5078 -2.2235 -0.6378
  636MOL0     H87733  14.118  12.320   5.860 -0.1193  0.1394  2.9957
  636MOL0     H87734  14.060  12.121   5.723  2.3393  0.7764  1.5980
  636MOL0     H87735  13.890  12.185   5.706 -0.5262  0.7265  1.6831
  636MOL0     H87736  14.154  12.304   5.600  0.3472  0.8382 -1.4223
  636MOL0     H87737  13.992  12.378   5.572 -2.5886 -2.3275  1.0183
  636MOL0     H87738  14.056  12.098   5.482  0.5249  0.7610 -0.8345
  636MOL0     H87739  14.091  12.244   5.397  0.8125 -2.0772 -0.4422
  636MOL0     H87740  13.817  12.136   5.477 -0.7422  0.9111  0.1246
  636MOL0     H87741  13.844  12.292   5.401 -0.9435  0.3061  1.1838
  636MOL0     H87742  13.910  12.011   5.291  0.4287 -0.4186 -2.3612
  636MOL0     H87743  13.975  12.162   5.211 -0.8268  2.0026 -0.5752
  636MOL0     H87744  13.758  12.236   5.153  0.1642  0.0088  0.2164
  636MOL0     H87745  13.672  12.131   5.254 -0.3228  1.6380 -0.0527
  636MOL0     H87746  13.653  12.051   5.038  0.3288  2.1509 -2.4195
  636MOL0     H87747  13.764  11.936   5.111  1.4096  0.6141 -0.4765
  636MOL0     H87748  13.934  12.063   6.165 -2.7950 -3.6718 -1.6432
  636MOL0     H87749  13.724  12.020   6.264 -0.4696  0.6537  1.0989
  636MOL0     H87750  13.249  12.219   6.308  0.4597  0.1726 -1.3091
  636MOL0     H87751  13.072  12.142   6.446 -0.1267 -1.6208  0.8729
  636MOL0     H87752  11.454  11.174   6.585 -3.6946  2.3446 -0.2294
  636MOL0     H87753  11.212  11.219   6.663 -1.2563 -1.2096  0.5528
  636MOL0     H87754  10.910  11.153   7.029 -0.1147 -1.1462 -0.1957
  636MOL0     H87755  10.687  11.261   7.055 -0.3364  1.5468 -0.8213
  636MOL0     H87756  10.504  11.460   6.719 -3.5272  2.2232 -1.5781
  636MOL0     H87757  10.461  11.300   6.653  1.1527 -1.6153  0.5760
  636MOL0     H87758  10.317  11.479   6.873 -2.1209  1.4774  0.6897
  636MOL0     H87759  10.260  11.315   6.833  0.0067  0.1462  0.4052
  636MOL0     H87760  10.256  11.548   6.631 -1.8864  1.5379  2.8659
  636MOL0     H87761  10.232  11.377   6.598  0.3237 -1.2435  1.5295
  636MOL0     H87762  10.036  11.376   6.758  1.8612  0.0379  1.9557
  636MOL0     H87763  10.011  11.477   6.620  0.6497 -1.8800 -0.6780
  636MOL0     H87764  10.007  11.724   6.977  0.1280  3.1097 -2.4513
  636MOL0     H87765  10.622  11.190   6.626 -1.8698 -0.1585  0.8797
  636MOL0     H87766  10.816  11.127   6.494  1.1858  0.1604 -0.6718
  636MOL0     H87767  10.952  11.049   6.572  0.2623 -3.6700  2.3475
  636MOL0     H87768  10.790  10.969   6.576 -1.3579  0.5670  1.6958
  637MOL0     O87769   5.904   9.078   6.353  0.3114 -0.4745  0.4021
  637MOL0     C87770   5.886   9.044   6.234 -1.0287  0.6596 -0.3296
  637MOL0     O87771   5.978   9.053   6.141  0.1231  1.2787  0.6496
  637MOL0     C87772   6.105   9.107   6.172  0.6335 -0.7004  0.5995
  637MOL0     C87773   6.121   9.233   6.241  0.4397 -0.9339 -0.1185
  637MOL0     C87774   6.245   9.302   6.247  0.5199 -0.0809  0.6792
  637MOL0     C87775   6.356   9.246   6.178 -0.5245 -0.1720 -0.3998
  637MOL0     O87776   6.478   9.311   6.196  0.0724 -0.0796  0.6664
  637MOL0     C87777   6.578   9.273   6.093  0.8220  0.5335 -0.3450
  637MOL0     C87778   6.699   9.365   6.104 -1.1953  0.5375  0.2258
  637MOL0     C87779   6.807   9.330   5.998  0.4717  0.1572  0.0253
  637MOL0     C87780   6.775   9.347   5.859  0.1101  0.0750  0.0817
  637MOL0     C87781   6.899   9.349   5.776 -0.5147 -0.6513 -0.3370
  637MOL0     C87782   6.848   9.334   5.630 -0.5529  0.4349  1.8320
  637MOL0     C87783   6.954   9.304   5.530 -1.1972  0.1556 -0.1562
  637MOL0     C87784   6.998   9.158   5.545  0.2532  0.4965  0.3366
  637MOL0     N87785   7.140   9.160   5.582 -0.1472 -0.2030 -0.7192
  637MOL0     C87786   7.242   9.141   5.489  0.9373  0.4192 -0.2092
  637MOL0     C87787   7.354   9.154   5.561  0.3828  0.0596  0.2006
  637MOL0     C87788   7.498   9.143   5.512 -0.4799  0.2880 -0.1386
  637MOL0     C87789   7.551   9.280   5.462  0.3372  0.8465 -0.6619
  637MOL0     C87790   7.695   9.255   5.425 -0.3347 -0.2651  0.1864
  637MOL0     C87791   7.751   9.367   5.336 -0.0903 -0.4496 -0.6678
  637MOL0     O87792   7.880   9.336   5.293  0.0688 -0.6232 -0.1947
  637MOL0     C87793   7.982   9.343   5.383 -0.5591  0.6950 -0.3749
  637MOL0     C87794   8.111   9.309   5.349 -0.6538  0.0352 -0.3776
  637MOL0     C87795   8.220   9.340   5.431 -0.0869 -0.5543 -0.8298
  637MOL0     C87796   8.350   9.295   5.364 -0.9876 -0.4650  0.3446
  637MOL0     C87797   8.209   9.403   5.560 -0.0775  0.4166  0.2189
  637MOL0     C87798   8.309   9.434   5.653 -0.3793 -0.6417  0.4021
  637MOL0     O87799   8.432   9.459   5.597  0.4247  0.1925  0.4048
  637MOL0     C87800   8.539   9.455   5.682  0.3239 -0.0060  0.3234
  637MOL0     C87801   8.621   9.339   5.677 -0.3306 -0.1522 -0.3446
  637MOL0     C87802   8.727   9.321   5.764 -0.1453  0.2951  0.4204
  637MOL0     C87803   8.747   9.420   5.865 -0.8487  0.1846  0.2617
  637MOL0     O87804   8.838   9.410   5.972  0.4101 -0.0272 -0.6417
  637MOL0     C87805   8.961   9.338   5.948  0.5766 -1.2422  0.4208
  637MOL0     C87806   9.068   9.385   6.055 -0.3019 -0.2184  0.6262
  637MOL0     C87807   9.106   9.532   6.048  0.1329 -1.1632 -0.2375
  637MOL0     C87808   9.206   9.575   5.940 -0.0403 -0.0194  0.2077
  637MOL0     C87809   9.351   9.515   5.968  0.2255  0.2140 -0.3510
  637MOL0     C87810   9.425   9.573   6.090  0.1256 -0.5338 -0.2005
  637MOL0     C87811   9.574   9.520   6.108 -0.5630  0.2176 -0.2204
  637MOL0     C87812   9.645   9.571   6.231  0.0427 -0.3626 -0.2997
  637MOL0    Cl87813   9.564   9.546   6.390  0.2170  0.1229  0.6294
  637MOL0     C87814   8.670   9.536   5.868 -0.2638  0.1062  0.1239
  637MOL0     C87815   8.573   9.562   5.771  0.1865 -0.1027 -0.2039
  637MOL0     O87816   8.292   9.428   5.773 -0.6833 -0.3996 -0.3722
  637MOL0     C87817   8.079   9.449   5.582 -0.0170  0.1950  0.1185
  637MOL0     C87818   7.972   9.417   5.502  0.0124  0.4187 -0.1159
  637MOL0     N87819   7.319   9.171   5.694  0.4975  0.5112  0.2102
  637MOL0     N87820   7.192   9.165   5.708 -0.0382  0.0059  0.7716
  637MOL0     C87821   6.339   9.115   6.122  0.5356  0.1226  0.0126
  637MOL0     C87822   6.211   9.057   6.110  0.1795  0.8229 -0.8659
  637MOL0     C87823   5.754   8.974   6.202 -0.2215  0.5010 -0.0906
  637MOL0     C87824   5.648   8.979   6.301 -0.2257 -0.6386  0.1404
  637MOL0     C87825   5.520   8.919   6.266  0.3100 -0.3146 -0.2343
  637MOL0     C87826   5.496   8.849   6.146 -0.2643  0.5058  0.7174
  637MOL0     O87827   5.382   8.778   6.129 -0.3914 -0.2081 -0.6006
  637MOL0     C87828   5.405   8.646   6.152 -0.2813 -0.5934 -0.1465
  637MOL0     C87829   5.290   8.582   6.233 -0.1436 -0.0849  0.3355
  637MOL0     C87830   5.269   8.644   6.379 -0.3683 -0.3825 -0.0584
  637MOL0     C87831   5.171   8.569   6.468  0.3696 -0.2803 -0.2174
  637MOL0     C87832   5.204   8.429   6.486 -0.0235  0.6622  0.1250
  637MOL0     C87833   5.235   8.311   6.485 -0.0369 -0.0248  1.3164
  637MOL0     C87834   5.604   8.835   6.064  0.6685  1.4790 -0.1188
  637MOL0     C87835   5.733   8.892   6.083 -0.0316 -0.2288 -0.0341
  637MOL0     C87836   5.834   8.858   5.985 -0.5267  0.7585 -0.0810
  637MOL0     H87837   6.045   9.294   6.289  1.5375 -0.5847  1.2257
  637MOL0     H87838   6.253   9.403   6.286 -1.3754  0.7642 -0.9091
  637MOL0     H87839   6.534   9.275   5.993  1.0817 -0.0790 -0.4790
  637MOL0     H87840   6.611   9.171   6.114  0.2100  0.3684 -0.1585
  637MOL0     H87841   6.667   9.469   6.097 -1.2600  0.4608 -0.8056
  637MOL0     H87842   6.754   9.351   6.198  0.4795 -1.5545 -0.9871
  637MOL0     H87843   6.893   9.395   6.016  0.1716  1.5500 -3.0276
  637MOL0     H87844   6.825   9.223   6.013 -2.3790 -0.2867  0.9162
  637MOL0     H87845   6.710   9.266   5.826  1.3702  0.2057 -3.0557
  637MOL0     H87846   6.721   9.442   5.844  0.8564  0.2915 -1.4060
  637MOL0     H87847   6.972   9.273   5.808  0.5268  0.6308  0.4284
  637MOL0     H87848   6.949   9.445   5.790 -1.5322 -0.3750  1.7121
  637MOL0     H87849   6.765   9.264   5.628  0.6352 -1.0529  2.2004
  637MOL0     H87850   6.797   9.427   5.601  0.5350  0.4637 -0.2227
  637MOL0     H87851   7.031   9.378   5.552 -2.8000  1.9227 -0.2613
  637MOL0     H87852   6.902   9.326   5.436 -2.5598  0.5483  0.6600
  637MOL0     H87853   6.940   9.118   5.629 -0.4573  0.8253  0.0142
  637MOL0     H87854   6.974   9.104   5.453  0.4199 -3.4065  2.3347
  637MOL0     H87855   7.224   9.105   5.389  0.4312 -0.6975  0.2615
  637MOL0     H87856   7.510   9.070   5.431 -2.4675 -1.5261  1.0989
  637MOL0     H87857   7.562   9.109   5.594  1.7769 -0.5494 -2.1158
  637MOL0     H87858   7.489   9.299   5.374  0.4122  0.8979 -0.7041
  637MOL0     H87859   7.541   9.356   5.540  1.1167 -0.6887  1.0309
  637MOL0     H87860   7.764   9.237   5.508  1.9286  0.3774 -1.4275
  637MOL0     H87861   7.706   9.166   5.363 -2.7882  0.1032 -0.8953
  637MOL0     H87862   7.687   9.369   5.247  0.2972  0.0296 -0.9362
  637MOL0     H87863   7.747   9.465   5.383 -0.2870  0.1137 -1.8240
  637MOL0     H87864   8.133   9.266   5.251  4.0756  0.3534  0.3344
  637MOL0     H87865   8.338   9.247   5.266  0.5486 -1.1640  0.4614
  637MOL0     H87866   8.412   9.238   5.434  3.1797  2.6272 -0.4401
  637MOL0     H87867   8.409   9.382   5.335 -1.6732 -0.3642 -0.7995
  637MOL0     H87868   8.597   9.258   5.608 -1.1598 -0.9049  0.7782
  637MOL0     H87869   8.782   9.227   5.766  0.7116  0.7966  1.3805
  637MOL0     H87870   8.948   9.230   5.952  2.6575 -1.5086  0.8891
  637MOL0     H87871   9.001   9.373   5.852  0.4061 -1.3808  0.2977
  637MOL0     H87872   9.050   9.358   6.159 -0.5569 -0.6380  0.4754
  637MOL0     H87873   9.158   9.329   6.031  0.8535  2.8778 -3.5162
  637MOL0     H87874   9.150   9.551   6.147 -0.4075  1.4111 -0.4048
  637MOL0     H87875   9.016   9.593   6.038  0.0947 -1.1298  0.2456
  637MOL0     H87876   9.219   9.683   5.952  0.3402 -0.0053 -0.2873
  637MOL0     H87877   9.171   9.541   5.842  1.5068 -0.4151 -0.2292
  637MOL0     H87878   9.346   9.406   5.960 -2.9634  0.2230  0.3012
  637MOL0     H87879   9.414   9.544   5.883 -0.0905  1.0244 -0.3251
  637MOL0     H87880   9.368   9.566   6.183  1.0711  0.6667  0.5041
  637MOL0     H87881   9.432   9.680   6.070  1.3612 -0.3902  0.8978
  637MOL0     H87882   9.632   9.547   6.020 -0.1082  0.6766  0.2085
  637MOL0     H87883   9.569   9.411   6.112  1.3045  0.0884 -0.4128
  637MOL0     H87884   9.670   9.676   6.217 -1.1817  0.1470  1.0588
  637MOL0     H87885   9.745   9.527   6.239  0.2752  0.1238 -0.5469
  637MOL0     H87886   8.688   9.603   5.951 -1.3854 -0.3138  0.7210
  637MOL0     H87887   8.513   9.652   5.776 -1.9784 -1.3668 -1.6666
  637MOL0     H87888   8.053   9.514   5.665  0.3779  2.6507 -1.5642
  637MOL0     H87889   7.876   9.447   5.543 -0.4705 -0.4919 -0.5370
  637MOL0     H87890   6.412   9.060   6.064  0.5671 -1.6786  1.6816
  637MOL0     H87891   6.196   8.960   6.064 -1.4223 -0.0603  1.3122
  637MOL0     H87892   5.647   9.020   6.402 -0.7330 -0.8300  0.2183
  637MOL0     H87893   5.437   8.943   6.333  0.9617 -0.8278  0.7750
  637MOL0     H87894   5.421   8.590   6.059  1.7496 -2.5363  1.2408
  637MOL0     H87895   5.497   8.627   6.208  0.9780  1.0920 -1.5427
  637MOL0     H87896   5.318   8.476   6.239  0.9907  0.2004  0.4250
  637MOL0     H87897   5.201   8.585   6.170 -0.4126  0.8446  0.7462
  637MOL0     H87898   5.363   8.658   6.434  0.0874  0.5660 -1.0501
  637MOL0     H87899   5.224   8.743   6.369 -0.0309 -0.2971 -0.7398
  637MOL0     H87900   5.072   8.581   6.423  0.6100  0.9414 -0.4664
  637MOL0     H87901   5.168   8.618   6.565 -0.9489 -3.8573  1.7395
  637MOL0     H87902   5.261   8.208   6.479  1.7084  0.4656 -0.7536
  637MOL0     H87903   5.589   8.775   5.975  0.9062  3.2034 -1.3787
  637MOL0     H87904   5.800   8.782   5.914 -2.5513  0.0351  1.5637
  637MOL0     H87905   5.850   8.946   5.922 -1.7481  0.5354 -0.7479
  637MOL0     H87906   5.926   8.824   6.032  0.2074 -1.1104 -2.6346
  638MOL0     O87907   1.960   9.290   0.626  0.4365  0.3013 -0.6581
  638MOL0     C87908   1.912   9.322   0.735  0.5046 -0.7332  0.6115
  638MOL0     O87909   1.950   9.426   0.807  0.0588  0.1068  0.0595
  638MOL0     C87910   2.063   9.502   0.777 -0.9551  0.1198 -0.1740
  638MOL0     C87911   2.091   9.545   0.644  1.4139 -0.8996  0.1318
  638MOL0     C87912   2.220   9.596   0.615  0.5419  0.6044 -0.1908
  638MOL0     C87913   2.314   9.621   0.714 -1.4530 -0.3168 -0.4482
  638MOL0     O87914   2.435   9.679   0.681 -0.4172  0.0815  0.1338
  638MOL0     C87915   2.544   9.680   0.775 -0.0058  0.0107 -0.3235
  638MOL0     C87916   2.650   9.766   0.713 -0.4256  0.6679 -0.0463
  638MOL0     C87917   2.781   9.766   0.798 -0.3305 -0.3011 -0.6632
  638MOL0     C87918   2.892   9.821   0.714  0.4357 -0.3586  0.2176
  638MOL0     C87919   3.012   9.869   0.787 -0.3975  0.0990  0.5992
  638MOL0     C87920   3.099   9.749   0.840 -0.5860 -1.0602 -0.0511
  638MOL0     C87921   3.213   9.799   0.924  0.0474 -0.3053 -0.0118
  638MOL0     C87922   3.312   9.690   0.959 -0.3061 -0.3679  0.0920
  638MOL0     N87923   3.439   9.758   0.993  0.1964  0.1140 -0.1962
  638MOL0     C87924   3.453   9.831   1.101  0.0063 -0.3543 -0.3652
  638MOL0     C87925   3.532   9.937   1.065  0.1612  0.4845 -0.4081
  638MOL0     C87926   3.566  10.056   1.146 -0.0340 -0.2315 -0.2290
  638MOL0     C87927   3.701  10.120   1.103  0.0645 -0.5524 -0.5204
  638MOL0     C87928   3.819  10.018   1.112  0.0441 -0.5917 -0.3460
  638MOL0     C87929   3.951  10.098   1.085 -0.0339 -0.3620  0.0215
  638MOL0     O87930   3.958  10.216   1.166 -0.1289  0.4251 -0.2638
  638MOL0     C87931   4.065  10.285   1.137  0.2122  0.0943 -1.3313
  638MOL0     C87932   4.169  10.278   1.228 -0.2282 -0.4072  0.0302
  638MOL0     C87933   4.284  10.350   1.209 -0.5321 -0.7704  0.0517
  638MOL0     C87934   4.390  10.343   1.321 -0.0957 -0.0677 -1.2598
  638MOL0     C87935   4.297  10.424   1.092  0.5026  0.2241  0.0998
  638MOL0     C87936   4.420  10.496   1.047 -0.5132 -0.7300 -0.0958
  638MOL0     O87937   4.533  10.466   1.121 -0.3915  0.3677 -0.0760
  638MOL0     C87938   4.654  10.524   1.089 -0.4046  0.4048  0.6140
  638MOL0     C87939   4.758  10.451   1.023 -0.9438  0.9918 -0.8650
  638MOL0     C87940   4.876  10.517   0.985 -0.1779  0.3485  0.1493
  638MOL0     C87941   4.902  10.649   1.029 -0.3029  0.5303  0.5133
  638MOL0     O87942   5.026  10.686   0.979  0.1008 -0.2440  0.5157
  638MOL0     C87943   5.060  10.819   0.987 -0.0834  0.9467  0.4506
  638MOL0     C87944   5.204  10.805   0.934  0.1519 -0.6211  0.2747
  638MOL0     C87945   5.267  10.941   0.923  0.1743  0.0272  1.0566
  638MOL0     C87946   5.415  10.922   0.870  0.5549 -0.6005 -1.0250
  638MOL0     C87947   5.417  10.945   0.716 -0.2435  0.2137 -0.3913
  638MOL0     C87948   5.549  11.005   0.669  0.8067 -0.3535  0.1045
  638MOL0     C87949   5.661  10.896   0.663 -0.3467  0.3012 -0.5549
  638MOL0     C87950   5.797  10.968   0.626  0.2455 -0.4625 -0.0148
  638MOL0    Cl87951   5.791  11.040   0.459  0.1315 -0.4567 -0.3225
  638MOL0     C87952   4.805  10.714   1.102  0.0187 -0.5344 -0.0573
  638MOL0     C87953   4.681  10.657   1.122 -0.3289 -0.8089  0.0629
  638MOL0     O87954   4.419  10.560   0.943  0.0183  0.4106  0.3356
  638MOL0     C87955   4.194  10.434   1.004 -0.2567 -0.3160  0.1685
  638MOL0     C87956   4.074  10.361   1.025  0.1525 -0.6609  0.0973
  638MOL0     N87957   3.564   9.918   0.928 -0.0657  0.4918 -0.0623
  638MOL0     N87958   3.524   9.799   0.895  0.0352  0.6804  0.9046
  638MOL0     C87959   2.277   9.586   0.848 -0.2815 -0.6076  0.5609
  638MOL0     C87960   2.159   9.520   0.879 -0.2497  0.1116 -0.7005
  638MOL0     C87961   1.783   9.259   0.780 -0.3483  0.4931  0.3234
  638MOL0     C87962   1.796   9.131   0.841 -0.1965  0.1034  0.7573
  638MOL0     C87963   1.684   9.058   0.886 -0.0430 -0.5813  0.6831
  638MOL0     C87964   1.555   9.120   0.874 -0.6346 -0.6296 -0.2497
  638MOL0     O87965   1.443   9.060   0.927 -0.7435  0.8076  0.1406
  638MOL0     C87966   1.309   9.102   0.909  0.7375 -0.8165 -0.4333
  638MOL0     C87967   1.271   9.203   1.020  0.1963 -0.3851  0.4555
  638MOL0     C87968   1.286   9.143   1.165 -0.7913  0.2334 -0.5076
  638MOL0     C87969   1.157   9.067   1.196  0.2180  0.1857  0.4330
  638MOL0     C87970   1.156   8.990   1.319 -0.6401 -0.2336 -0.3455
  638MOL0     C87971   1.144   8.918   1.417  0.4696  1.2048 -0.1333
  638MOL0     C87972   1.554   9.254   0.829 -0.4031 -0.1904 -0.8100
  638MOL0     C87973   1.661   9.320   0.774 -0.2310 -0.5849 -0.6611
  638MOL0     C87974   1.638   9.462   0.732  0.2110  0.6516  0.8317
  638MOL0     H87975   2.020   9.530   0.564  0.6112  1.1985  0.3784
  638MOL0     H87976   2.248   9.608   0.511 -1.6111 -0.6891 -0.9750
  638MOL0     H87977   2.591   9.582   0.787  2.0501  0.5301 -3.1781
  638MOL0     H87978   2.520   9.726   0.871  0.3247 -0.5245  0.0247
  638MOL0     H87979   2.676   9.713   0.621 -0.3271  0.4939  0.0815
  638MOL0     H87980   2.616   9.869   0.699 -4.0571 -0.1617  1.6955
  638MOL0     H87981   2.768   9.830   0.886  0.2380  0.5500 -1.1762
  638MOL0     H87982   2.815   9.668   0.833 -1.1498 -0.5201 -0.4508
  638MOL0     H87983   2.915   9.752   0.632 -0.3136  1.7820 -1.8990
  638MOL0     H87984   2.844   9.904   0.662  0.3805 -1.2020 -1.1346
  638MOL0     H87985   2.993   9.952   0.856  0.8349  0.2132  0.8292
  638MOL0     H87986   3.085   9.910   0.717  0.9596 -1.3793  1.0916
  638MOL0     H87987   3.047   9.664   0.886  0.4702 -2.8939 -2.0633
  638MOL0     H87988   3.130   9.708   0.743 -0.8310  1.1768 -1.1248
  638MOL0     H87989   3.172   9.834   1.020 -1.2479  0.2169 -0.7274
  638MOL0     H87990   3.267   9.876   0.868  1.0580 -1.2795 -0.4017
  638MOL0     H87991   3.266   9.635   1.041  1.3820  0.0961  1.3892
  638MOL0     H87992   3.321   9.628   0.869 -1.6724  0.2559 -0.5037
  638MOL0     H87993   3.402   9.820   1.196  0.5886  2.6358  0.3844
  638MOL0     H87994   3.548  10.037   1.252  0.1869  2.9849  0.4903
  638MOL0     H87995   3.486  10.126   1.119  0.1627  0.4896  1.0150
  638MOL0     H87996   3.708  10.163   1.003 -0.1496  1.5178  0.3157
  638MOL0     H87997   3.714  10.201   1.176  0.3083 -1.2127  0.1860
  638MOL0     H87998   3.821   9.974   1.212 -2.6952 -0.8164 -0.3401
  638MOL0     H87999   3.817   9.934   1.042  1.3809 -2.0854  1.3059
  638MOL0     H88000   4.041  10.037   1.098 -0.3688 -0.9967 -0.5826
  638MOL0     H88001   3.960  10.124   0.979  1.5937 -0.6044  0.0728
  638MOL0     H88002   4.142  10.223   1.317  1.9525  0.7992  1.5253
  638MOL0     H88003   4.362  10.289   1.411  1.0735  0.7878 -0.3403
  638MOL0     H88004   4.403  10.448   1.349 -2.3893  0.7242 -2.8429
  638MOL0     H88005   4.485  10.297   1.291 -1.1462 -2.4809 -1.0681
  638MOL0     H88006   4.738  10.347   1.003  2.3075 -0.1245  0.9602
  638MOL0     H88007   4.951  10.472   0.921 -3.5800 -2.6891 -2.0608
  638MOL0     H88008   4.997  10.878   0.919 -0.3624  2.4153  1.9168
  638MOL0     H88009   5.057  10.849   1.092 -1.5653 -0.2655  0.8007
  638MOL0     H88010   5.263  10.737   0.996 -1.3273 -0.8244  1.5071
  638MOL0     H88011   5.201  10.767   0.831 -0.8906  0.8180 -0.2633
  638MOL0     H88012   5.274  10.986   1.023 -2.8130 -3.2569  2.9709
  638MOL0     H88013   5.213  11.002   0.850  0.1730 -3.2266 -1.9348
  638MOL0     H88014   5.449  10.821   0.892 -0.7536 -0.8272  0.1524
  638MOL0     H88015   5.476  11.000   0.916 -0.2446 -0.1980 -0.6299
  638MOL0     H88016   5.398  10.844   0.679  2.3471 -1.0351  1.3801
  638MOL0     H88017   5.341  11.017   0.686 -0.5534  0.9517  1.9720
  638MOL0     H88018   5.592  11.089   0.726  0.9943 -0.8889  0.7662
  638MOL0     H88019   5.529  11.044   0.569 -2.7078 -1.6005  0.1768
  638MOL0     H88020   5.633  10.819   0.591 -0.1064 -0.7644  0.4586
  638MOL0     H88021   5.663  10.851   0.763  0.0887 -0.8475 -1.0614
  638MOL0     H88022   5.885  10.903   0.625  0.8436  0.1657  2.8468
  638MOL0     H88023   5.823  11.047   0.698 -0.2189 -0.9530  0.7024
  638MOL0     H88024   4.820  10.815   1.140 -1.1904 -0.7317  1.0158
  638MOL0     H88025   4.594  10.709   1.162 -2.3445 -2.2370 -2.1549
  638MOL0     H88026   4.198  10.496   0.915 -2.9313  3.3638  2.3205
  638MOL0     H88027   3.994  10.369   0.951 -0.9850  0.5489  1.4096
  638MOL0     H88028   2.347   9.597   0.930  1.9428 -0.9596 -1.1820
  638MOL0     H88029   2.148   9.475   0.977 -0.2912  1.2741 -0.1456
  638MOL0     H88030   1.895   9.089   0.838 -0.1755  0.1598  0.6720
  638MOL0     H88031   1.698   8.966   0.941  1.6301 -0.7633  0.0218
  638MOL0     H88032   1.295   9.144   0.809  3.0073 -0.0069 -0.4748
  638MOL0     H88033   1.246   9.013   0.908  0.1243 -0.3894 -0.9408
  638MOL0     H88034   1.166   9.232   1.019 -0.0445 -0.9866  2.8136
  638MOL0     H88035   1.325   9.298   1.015  1.9638 -1.3960 -2.1067
  638MOL0     H88036   1.369   9.074   1.180  0.3851  1.6891 -0.0299
  638MOL0     H88037   1.301   9.226   1.235  2.6990  1.3528 -2.3535
  638MOL0     H88038   1.134   8.992   1.120  0.6959  0.7598 -0.2866
  638MOL0     H88039   1.075   9.139   1.211  0.2864  0.1770  0.8689
  638MOL0     H88040   1.137   8.869   1.512  2.6510  3.1791  1.1852
  638MOL0     H88041   1.460   9.309   0.833 -1.3780 -1.8505 -0.1944
  638MOL0     H88042   1.572   9.465   0.645 -0.6748 -1.1691  1.4074
  638MOL0     H88043   1.601   9.507   0.825  0.7321  0.3699  1.1833
  638MOL0     H88044   1.728   9.521   0.713  0.7965  0.5601  2.9977
  639MOL0     O88045   3.763   1.982   3.061  0.3565  0.7912  0.5741
  639MOL0     C88046   3.783   1.957   2.941  0.8610 -0.3100 -0.1983
  639MOL0     O88047   3.907   1.931   2.890 -0.1215 -0.0901  0.6190
  639MOL0     C88048   4.021   1.979   2.944  0.3672 -0.0666  0.0217
  639MOL0     C88049   4.068   2.104   2.896  0.1507  1.1128  0.1759
  639MOL0     C88050   4.181   2.154   2.948 -0.3520 -0.1328  0.2272
  639MOL0     C88051   4.261   2.097   3.049  0.1856 -0.5529  0.5267
  639MOL0     O88052   4.378   2.165   3.076 -0.0105 -0.0493  0.5611
  639MOL0     C88053   4.461   2.122   3.190 -0.4042  0.0841  0.1661
  639MOL0     C88054   4.604   2.126   3.148  0.5811  0.9357 -0.0858
  639MOL0     C88055   4.702   2.061   3.250  0.8571 -0.1023 -0.0863
  639MOL0     C88056   4.686   2.119   3.391  0.4043 -0.9250 -0.8958
  639MOL0     C88057   4.801   2.075   3.479 -0.0404 -0.4489  0.7362
  639MOL0     C88058   4.775   2.131   3.625 -0.5033  0.4460  1.0056
  639MOL0     C88059   4.896   2.088   3.710 -0.5035 -0.7292  0.5344
  639MOL0     C88060   4.916   2.151   3.849 -0.1490  0.2537  0.2908
  639MOL0     N88061   5.051   2.137   3.912  0.6001  0.8496  0.2145
  639MOL0     C88062   5.075   2.112   4.048 -0.3208  0.4264  0.3993
  639MOL0     C88063   5.208   2.089   4.049  1.3780 -1.4369 -0.7850
  639MOL0     C88064   5.273   2.071   4.181 -0.4909  0.1713 -0.6208
  639MOL0     C88065   5.287   1.922   4.230  0.5171  0.7411  0.5449
  639MOL0     C88066   5.336   1.827   4.114  0.2174  0.6214 -0.7267
  639MOL0     C88067   5.479   1.858   4.056  0.0676  0.0987 -0.8530
  639MOL0     O88068   5.563   1.825   4.163 -0.6956 -1.2025  0.5034
  639MOL0     C88069   5.696   1.828   4.138  0.6577 -0.6617  0.3492
  639MOL0     C88070   5.757   1.795   4.016 -0.1258  0.0790 -0.1986
  639MOL0     C88071   5.901   1.781   4.019  0.3094 -0.0717  0.1410
  639MOL0     C88072   5.965   1.755   3.884 -0.2434  0.0590 -0.5891
  639MOL0     C88073   5.989   1.812   4.128 -0.2559 -0.3666  0.6058
  639MOL0     C88074   6.131   1.807   4.118 -0.5205 -0.1776  0.3461
  639MOL0     O88075   6.197   1.925   4.139 -0.2007  0.3993  0.5257
  639MOL0     C88076   6.336   1.904   4.123  0.0372 -0.5006  0.7717
  639MOL0     C88077   6.401   1.914   3.997  0.1062 -0.6591  0.3409
  639MOL0     C88078   6.540   1.891   3.984  0.4651 -0.0948  0.1072
  639MOL0     C88079   6.619   1.865   4.095  0.4420  0.5742 -0.0679
  639MOL0     O88080   6.755   1.838   4.091  0.6243 -0.3087 -0.6412
  639MOL0     C88081   6.810   1.799   3.963 -0.4444  0.3386  0.0280
  639MOL0     C88082   6.954   1.736   3.971  0.5248 -0.2878  0.6049
  639MOL0     C88083   7.032   1.734   3.840 -1.4879  0.1407 -0.0959
  639MOL0     C88084   7.167   1.662   3.863 -0.6546  0.1314  0.1054
  639MOL0     C88085   7.266   1.720   3.764  0.3172  0.9111  0.8169
  639MOL0     C88086   7.384   1.626   3.745  0.5867 -0.6750 -0.2219
  639MOL0     C88087   7.498   1.690   3.669 -0.7398 -0.0665 -0.7649
  639MOL0     C88088   7.636   1.642   3.711  0.4866  0.3746  0.3341
  639MOL0    Cl88089   7.678   1.667   3.868  0.5352 -0.2854 -0.2364
  639MOL0     C88090   6.553   1.861   4.223 -0.1203  0.7301  0.5208
  639MOL0     C88091   6.410   1.887   4.236  0.1647  0.2349  0.2437
  639MOL0     O88092   6.176   1.699   4.091 -0.0187  0.0773  1.2603
  639MOL0     C88093   5.922   1.850   4.249 -0.7107  0.9399  0.0269
  639MOL0     C88094   5.778   1.853   4.250 -0.3286  0.5237  0.8199
  639MOL0     N88095   5.258   2.105   3.923  0.8856  0.3358  0.7765
  639MOL0     N88096   5.161   2.134   3.841  0.1359  0.1026 -0.0722
  639MOL0     C88097   4.212   1.977   3.094 -0.6724  0.3824 -0.7990
  639MOL0     C88098   4.088   1.917   3.054 -0.4491  0.0635  0.0528
  639MOL0     C88099   3.666   1.951   2.847  0.0627  0.1795 -0.7936
  639MOL0     C88100   3.691   1.905   2.720 -0.3668  0.0204 -0.4316
  639MOL0     C88101   3.597   1.884   2.622  0.1643  0.4862 -0.4228
  639MOL0     C88102   3.461   1.898   2.659 -0.5947 -0.1086 -0.1555
  639MOL0     O88103   3.370   1.867   2.564 -0.7026 -0.0980  0.1586
  639MOL0     C88104   3.246   1.803   2.606  0.3091  0.0788  0.5898
  639MOL0     C88105   3.165   1.773   2.482 -0.0130  0.1232  0.3108
  639MOL0     C88106   3.234   1.671   2.387  0.0643 -0.4715 -0.2229
  639MOL0     C88107   3.272   1.547   2.464 -0.0942 -0.2008 -0.3188
  639MOL0     C88108   3.157   1.496   2.545 -0.3411 -1.0650  0.4919
  639MOL0     C88109   3.062   1.437   2.596  0.0268 -1.1954 -0.0115
  639MOL0     C88110   3.431   1.934   2.789  0.2946 -0.2309 -0.7897
  639MOL0     C88111   3.529   1.963   2.886  0.7700 -0.2637 -0.3029
  639MOL0     C88112   3.483   2.010   3.022  0.6498 -0.3548 -0.2852
  639MOL0     H88113   4.008   2.148   2.817 -1.0200 -2.9360 -1.4649
  639MOL0     H88114   4.207   2.252   2.911  0.3017 -1.3070 -2.6858
  639MOL0     H88115   4.434   2.028   3.240  1.2132  0.0466  1.0269
  639MOL0     H88116   4.450   2.198   3.267  1.4245 -0.9867  1.5664
  639MOL0     H88117   4.621   2.070   3.056  1.6132  2.7119 -1.0198
  639MOL0     H88118   4.624   2.232   3.133  0.2586  0.7990 -1.7001
  639MOL0     H88119   4.684   1.957   3.279 -2.5501  1.1817  3.2081
  639MOL0     H88120   4.800   2.081   3.206  0.2240  1.1635 -0.9689
  639MOL0     H88121   4.678   2.228   3.388  2.2304 -0.7807 -2.4909
  639MOL0     H88122   4.591   2.087   3.433  0.8320 -0.6704  0.2924
  639MOL0     H88123   4.902   2.097   3.442  0.4145 -2.9142  0.3245
  639MOL0     H88124   4.805   1.966   3.486  0.3032 -0.3459  2.8738
  639MOL0     H88125   4.759   2.239   3.617  0.6939  0.6376  1.1300
  639MOL0     H88126   4.689   2.080   3.671  0.0446 -3.3941 -1.7015
  639MOL0     H88127   4.987   2.118   3.657 -0.2051 -3.1490 -0.4225
  639MOL0     H88128   4.879   1.981   3.724 -2.7661 -0.2345  2.1469
  639MOL0     H88129   4.901   2.259   3.854  3.8167  0.9164  1.2016
  639MOL0     H88130   4.843   2.103   3.915  0.2893 -0.5458  0.2059
  639MOL0     H88131   5.005   2.106   4.130  1.0405  0.1058  1.5844
  639MOL0     H88132   5.231   2.128   4.265  2.7687 -2.2883  3.0025
  639MOL0     H88133   5.373   2.114   4.175 -0.1187 -0.8144 -2.0303
  639MOL0     H88134   5.369   1.924   4.302  1.1784  0.4335 -0.1919
  639MOL0     H88135   5.200   1.887   4.286  1.1912  0.1211  1.2080
  639MOL0     H88136   5.331   1.722   4.144 -0.3831  0.6102 -0.8512
  639MOL0     H88137   5.262   1.826   4.034 -0.4621 -2.2466 -0.1682
  639MOL0     H88138   5.481   1.789   3.970 -2.7728 -0.2712 -0.7157
  639MOL0     H88139   5.502   1.960   4.024  3.8042 -0.5931 -0.7786
  639MOL0     H88140   5.699   1.767   3.929  0.6785 -0.3601 -0.6121
  639MOL0     H88141   5.887   1.731   3.811 -1.1912  1.0721  0.0493
  639MOL0     H88142   6.040   1.675   3.884 -2.7213 -2.4586 -0.0027
  639MOL0     H88143   6.012   1.847   3.849 -0.7547  0.7541  0.4744
  639MOL0     H88144   6.350   1.936   3.904 -0.6038  0.1904  0.9172
  639MOL0     H88145   6.569   1.886   3.880 -1.8854 -0.3363 -0.5984
  639MOL0     H88146   6.749   1.724   3.911  2.0094 -1.0176 -1.0439
  639MOL0     H88147   6.820   1.889   3.903 -0.5476 -1.2837 -2.5593
  639MOL0     H88148   7.008   1.781   4.054  1.8448 -1.1199  0.2236
  639MOL0     H88149   6.943   1.631   4.002  0.8149 -0.5729 -0.2140
  639MOL0     H88150   7.052   1.839   3.816  0.6234  0.2405  1.7157
  639MOL0     H88151   6.977   1.687   3.758 -2.7089  1.5979 -0.1591
  639MOL0     H88152   7.150   1.556   3.843  1.6519 -0.2130 -0.3017
  639MOL0     H88153   7.207   1.674   3.964 -1.9844  2.2953  0.4447
  639MOL0     H88154   7.214   1.722   3.668 -0.8895 -1.6899  1.3234
  639MOL0     H88155   7.289   1.819   3.805 -0.0393  0.0534  3.2555
  639MOL0     H88156   7.353   1.536   3.692  0.4035 -0.6926 -0.0844
  639MOL0     H88157   7.410   1.596   3.847 -0.6985 -0.9872  0.0336
  639MOL0     H88158   7.486   1.798   3.682  0.1797 -0.2340  1.9271
  639MOL0     H88159   7.493   1.660   3.563 -1.1112 -1.5129 -0.3626
  639MOL0     H88160   7.702   1.698   3.645  1.2780  1.3852  1.9334
  639MOL0     H88161   7.643   1.533   3.700  1.3585  0.5017 -0.4088
  639MOL0     H88162   6.605   1.834   4.314 -2.6733 -1.2173  1.5276
  639MOL0     H88163   6.363   1.890   4.334  2.2024  3.9420  1.3119
  639MOL0     H88164   5.976   1.874   4.340 -0.3860 -1.3812  0.5065
  639MOL0     H88165   5.733   1.896   4.339  1.3225  3.0730  0.5244
  639MOL0     H88166   4.256   1.929   3.181 -1.2632  2.1105  0.5075
  639MOL0     H88167   4.039   1.851   3.125  0.3999 -0.9501 -0.2866
  639MOL0     H88168   3.789   1.869   2.691  0.4879  0.7851  1.3330
  639MOL0     H88169   3.636   1.837   2.532  1.3883  1.5513 -0.4807
  639MOL0     H88170   3.260   1.716   2.670  0.6386  0.5297  1.1401
  639MOL0     H88171   3.189   1.873   2.668  0.5149  1.2272 -0.4752
  639MOL0     H88172   3.152   1.872   2.438 -0.0505 -0.1579 -0.3360
  639MOL0     H88173   3.065   1.734   2.504  0.4665 -0.6043  1.2770
  639MOL0     H88174   3.173   1.637   2.302  2.2848 -0.6806 -1.8202
  639MOL0     H88175   3.325   1.710   2.340 -0.9646  0.1953 -1.7659
  639MOL0     H88176   3.354   1.573   2.531 -0.5533  0.2591  0.0731
  639MOL0     H88177   3.310   1.467   2.400  4.9767  1.5498  0.0596
  639MOL0     H88178   2.977   1.391   2.642  0.4688  1.5038  4.0663
  639MOL0     H88179   3.326   1.950   2.811  1.0455  3.4234  1.1227
  639MOL0     H88180   3.530   2.104   3.051  2.8114 -0.9215 -1.7320
  639MOL0     H88181   3.377   2.037   3.021  0.9417  0.8493 -0.3452
  639MOL0     H88182   3.494   1.934   3.099 -1.2158  1.6044  2.0821
  640MOL0     O88183   5.983   2.116   9.064 -0.5961  0.1301 -0.1565
  640MOL0     C88184   6.042   2.222   9.058 -0.2414 -0.0922 -0.6092
  640MOL0     O88185   5.998   2.338   8.997 -0.2086  0.4170  0.2862
  640MOL0     C88186   5.866   2.340   8.963  0.5573 -0.1401 -0.5100
  640MOL0     C88187   5.769   2.330   9.064  0.0956  0.2536  0.7386
  640MOL0     C88188   5.634   2.334   9.048 -0.1796  0.7668  0.0038
  640MOL0     C88189   5.589   2.333   8.916  0.0664  0.3270  0.4119
  640MOL0     O88190   5.462   2.330   8.876  0.7281 -0.0176  0.3617
  640MOL0     C88191   5.350   2.293   8.956  0.2694  0.7716 -0.3887
  640MOL0     C88192   5.243   2.226   8.857 -0.6543  0.7113 -0.8521
  640MOL0     C88193   5.211   2.317   8.741  0.4811 -1.3475  0.2782
  640MOL0     C88194   5.103   2.423   8.763 -0.2589  1.5911 -0.1370
  640MOL0     C88195   5.087   2.490   8.621 -0.1441 -0.6444 -0.2151
  640MOL0     C88196   4.997   2.617   8.627  0.1932 -0.0416 -1.0198
  640MOL0     C88197   5.081   2.727   8.694 -0.7009 -0.0697 -0.1662
  640MOL0     C88198   4.984   2.847   8.719  0.4468  0.5372 -0.7072
  640MOL0     N88199   5.045   2.924   8.827  0.0088 -0.6850 -0.0417
  640MOL0     C88200   5.031   2.894   8.962 -0.7670 -0.1813  0.1981
  640MOL0     C88201   5.082   3.014   9.020  0.8586  0.5223  0.9410
  640MOL0     C88202   5.078   3.023   9.172  0.3221 -0.8528 -0.2803
  640MOL0     C88203   5.022   3.148   9.218 -0.1490  0.3400  0.7056
  640MOL0     C88204   4.867   3.143   9.194  0.0659 -0.0361  0.0227
  640MOL0     C88205   4.813   3.275   9.249 -0.6295  0.3921  0.6007
  640MOL0     O88206   4.833   3.277   9.391  1.2091  1.0275  0.5583
  640MOL0     C88207   4.772   3.369   9.470 -0.0600 -0.3737  0.2387
  640MOL0     C88208   4.770   3.344   9.613  0.0115  0.3928  0.5249
  640MOL0     C88209   4.732   3.443   9.708 -0.7455  0.4119 -0.7988
  640MOL0     C88210   4.741   3.402   9.858  0.0398  0.1706 -0.0928
  640MOL0     C88211   4.689   3.568   9.656 -0.0977 -0.7132 -0.1549
  640MOL0     C88212   4.638   3.679   9.739  0.2938  0.0375 -0.6257
  640MOL0     O88213   4.606   3.794   9.668 -0.3995  0.2220  0.2383
  640MOL0     C88214   4.522   3.894   9.715  0.7801 -0.3288 -0.9337
  640MOL0     C88215   4.449   3.889   9.837 -0.5144 -0.0205  0.9777
  640MOL0     C88216   4.359   3.994   9.881 -0.1166  0.0918  0.2621
  640MOL0     C88217   4.345   4.108   9.810 -0.5816 -0.1899  0.1333
  640MOL0     O88218   4.265   4.195   9.864 -0.4332 -0.3804 -0.1083
  640MOL0     C88219   4.232   4.303   9.781 -0.3867 -1.2027 -0.3350
  640MOL0     C88220   4.108   4.369   9.841 -0.0350 -0.0780 -0.2129
  640MOL0     C88221   4.062   4.490   9.752 -0.4925 -0.4050  0.2740
  640MOL0     C88222   3.919   4.533   9.787 -0.1725  0.2130  0.1264
  640MOL0     C88223   3.874   4.658   9.718  0.1705  0.0596  0.0184
  640MOL0     C88224   3.719   4.653   9.702  0.1891  0.3187 -0.1412
  640MOL0     C88225   3.647   4.773   9.646  0.1864  0.7605  0.6751
  640MOL0     C88226   3.536   4.732   9.551  0.0512 -0.3780  0.2599
  640MOL0    Cl88227   3.613   4.651   9.399  0.0809  0.0576 -0.0094
  640MOL0     C88228   4.415   4.115   9.692  0.0492  0.2476  1.0977
  640MOL0     C88229   4.495   4.011   9.638 -0.6731 -0.1424 -0.8827
  640MOL0     O88230   4.643   3.674   9.862 -0.4063  0.2271 -0.3325
  640MOL0     C88231   4.686   3.589   9.516  0.8024 -0.1095 -0.2250
  640MOL0     C88232   4.726   3.495   9.421  0.0790  0.6648 -0.5520
  640MOL0     N88233   5.118   3.105   8.926 -0.3089  0.6645 -0.4381
  640MOL0     N88234   5.095   3.050   8.816 -0.3951  0.9014  0.2245
  640MOL0     C88235   5.680   2.338   8.811  0.1406  0.7262  0.3300
  640MOL0     C88236   5.820   2.339   8.837 -0.7724 -0.7097  0.0024
  640MOL0     C88237   6.170   2.226   9.138 -0.0747 -0.5828  0.9925
  640MOL0     C88238   6.239   2.109   9.142 -0.4818 -0.6595  0.2240
  640MOL0     C88239   6.348   2.099   9.224  0.2820 -0.6855 -0.6104
  640MOL0     C88240   6.385   2.201   9.309 -0.4243 -0.3098 -0.0625
  640MOL0     O88241   6.487   2.183   9.410  1.0685  0.1696 -0.1085
  640MOL0     C88242   6.617   2.208   9.356 -0.4474  0.1887 -0.4598
  640MOL0     C88243   6.709   2.213   9.490 -0.5045 -0.4032 -0.6677
  640MOL0     C88244   6.655   2.319   9.592 -0.6191  1.0835 -0.8432
  640MOL0     C88245   6.749   2.340   9.716  0.3511  0.4507  0.3313
  640MOL0     C88246   6.796   2.224   9.783 -0.4602  0.1490 -0.2879
  640MOL0     C88247   6.821   2.129   9.849 -1.1285  0.3861  0.1045
  640MOL0     C88248   6.316   2.320   9.297  0.0639 -0.0980 -0.1667
  640MOL0     C88249   6.211   2.337   9.207  0.1278 -0.4979  0.2266
  640MOL0     C88250   6.156   2.478   9.187 -0.3206  0.6963  0.3065
  640MOL0     H88251   5.810   2.307   9.162  1.1211  0.5174  0.3870
  640MOL0     H88252   5.558   2.328   9.125  1.6707 -0.0911  1.8659
  640MOL0     H88253   5.301   2.385   8.989  2.1902  1.0042  2.1278
  640MOL0     H88254   5.385   2.227   9.036 -1.2862  2.5490  1.8865
  640MOL0     H88255   5.285   2.131   8.824 -1.6134  0.5745 -1.7694
  640MOL0     H88256   5.152   2.199   8.912 -0.0980  2.0752  0.8354
  640MOL0     H88257   5.297   2.374   8.707 -1.7037  1.8435 -0.3706
  640MOL0     H88258   5.173   2.242   8.670 -0.5956 -0.4305 -0.1419
  640MOL0     H88259   5.009   2.377   8.795 -0.2801  0.6908 -1.4158
  640MOL0     H88260   5.140   2.501   8.830 -0.0857  2.5092 -1.2480
  640MOL0     H88261   5.034   2.429   8.547 -2.4748  2.0196 -0.8944
  640MOL0     H88262   5.185   2.519   8.581  0.7501 -3.1885 -0.0942
  640MOL0     H88263   4.968   2.660   8.531  1.0959  1.1282 -0.7942
  640MOL0     H88264   4.905   2.606   8.685  1.1190  1.5377  0.8786
  640MOL0     H88265   5.152   2.761   8.618  0.7540  0.7142  1.4761
  640MOL0     H88266   5.126   2.694   8.788 -0.1199 -1.6146 -0.9609
  640MOL0     H88267   4.965   2.913   8.634 -2.4627  0.9378  0.1536
  640MOL0     H88268   4.888   2.814   8.759  1.7273 -0.7832  1.5137
  640MOL0     H88269   5.003   2.798   9.003  1.8675  0.0759  2.9760
  640MOL0     H88270   5.180   3.016   9.212  1.0107  2.0970 -1.2999
  640MOL0     H88271   5.022   2.942   9.221 -0.6525 -0.4437 -0.7065
  640MOL0     H88272   5.055   3.160   9.322  0.3845  0.2242  0.5504
  640MOL0     H88273   5.065   3.232   9.164 -1.7981  1.0725  0.4490
  640MOL0     H88274   4.836   3.139   9.089 -2.1712 -0.5273  0.6476
  640MOL0     H88275   4.817   3.059   9.241  0.2044  0.1648  0.5297
  640MOL0     H88276   4.865   3.350   9.189  1.6175 -1.5380 -0.0082
  640MOL0     H88277   4.709   3.286   9.220  0.0607 -0.9367 -2.9122
  640MOL0     H88278   4.802   3.248   9.651 -3.3347 -0.4035  1.7495
  640MOL0     H88279   4.782   3.301   9.865  1.9157  0.7624 -1.5983
  640MOL0     H88280   4.642   3.391   9.903 -0.3545 -0.0193 -1.0017
  640MOL0     H88281   4.800   3.468   9.922  0.9147  0.3505 -1.0557
  640MOL0     H88282   4.448   3.801   9.901 -2.9548  0.2979  1.4724
  640MOL0     H88283   4.327   3.982   9.984  0.0343  0.9056  0.4074
  640MOL0     H88284   4.314   4.374   9.771 -0.5104 -0.9384  0.4482
  640MOL0     H88285   4.215   4.275   9.676  0.5844  1.3688 -1.2647
  640MOL0     H88286   4.030   4.293   9.842 -1.1168  0.9481 -1.8985
  640MOL0     H88287   4.127   4.390   9.946 -0.7298 -1.7249  0.2772
  640MOL0     H88288   4.064   4.458   9.648  2.6252  0.9293 -0.1859
  640MOL0     H88289   4.132   4.574   9.759 -1.5411  0.6740 -1.5382
  640MOL0     H88290   3.899   4.551   9.893 -3.4576 -0.0991 -0.3533
  640MOL0     H88291   3.862   4.443   9.763  0.2323  0.1708 -0.7085
  640MOL0     H88292   3.901   4.746   9.778  0.3561 -1.2620  1.9470
  640MOL0     H88293   3.924   4.666   9.621  0.6180 -1.0669  0.1447
  640MOL0     H88294   3.690   4.639   9.806 -0.0592 -0.9510 -0.3624
  640MOL0     H88295   3.696   4.560   9.649  1.7147  1.9278 -4.0124
  640MOL0     H88296   3.726   4.827   9.593 -1.0020  0.8170 -1.1556
  640MOL0     H88297   3.620   4.829   9.736 -1.3055  1.4112 -0.1317
  640MOL0     H88298   3.486   4.822   9.515 -1.0850 -1.5005 -1.0722
  640MOL0     H88299   3.458   4.670   9.596  0.2886  2.1256  4.6859
  640MOL0     H88300   4.418   4.207   9.635  0.7367 -0.6623 -0.4025
  640MOL0     H88301   4.549   4.028   9.546  1.5807 -3.5724 -0.3628
  640MOL0     H88302   4.656   3.684   9.473  0.8231 -0.1866 -0.4159
  640MOL0     H88303   4.736   3.515   9.315  2.9269 -0.0351 -0.5075
  640MOL0     H88304   5.638   2.338   8.711 -1.9885 -0.4643  1.1454
  640MOL0     H88305   5.898   2.337   8.762  1.5352 -0.0068  2.2550
  640MOL0     H88306   6.199   2.023   9.090 -0.5240  0.1079 -1.0743
  640MOL0     H88307   6.399   2.006   9.244  3.5008  0.8383 -1.1544
  640MOL0     H88308   6.656   2.135   9.286 -1.2610 -0.8545  0.1419
  640MOL0     H88309   6.617   2.306   9.307 -1.2602 -0.4212 -1.7363
  640MOL0     H88310   6.812   2.229   9.458  0.6434 -2.2161  1.8025
  640MOL0     H88311   6.695   2.113   9.533 -0.9244  0.7720  2.1199
  640MOL0     H88312   6.641   2.417   9.544  2.5151  0.6876 -2.8638
  640MOL0     H88313   6.559   2.290   9.635 -0.6676  2.9504  0.4268
  640MOL0     H88314   6.716   2.411   9.792  1.0417  0.7009  0.4035
  640MOL0     H88315   6.827   2.394   9.662 -0.5781  0.2893 -1.2581
  640MOL0     H88316   6.843   2.046   9.913 -0.3686 -1.6609 -2.6377
  640MOL0     H88317   6.363   2.403   9.349  2.3124 -1.4435  0.0839
  640MOL0     H88318   6.048   2.483   9.204 -0.6070  3.0280 -1.7665
  640MOL0     H88319   6.188   2.556   9.256 -2.4044 -0.1440  2.3784
  640MOL0     H88320   6.182   2.510   9.086  1.6166  0.4991  0.7117
  641MOL0     O88321   4.489  11.160   4.924  0.3614 -0.2074  0.5385
  641MOL0     C88322   4.476  11.099   4.816  0.2034 -0.9806  0.4785
  641MOL0     O88323   4.581  11.050   4.733 -0.0626 -0.0190 -1.1147
  641MOL0     C88324   4.708  11.080   4.767 -0.0047 -0.3241  0.4580
  641MOL0     C88325   4.807  10.981   4.769  0.9403 -0.4423 -0.4747
  641MOL0     C88326   4.938  11.017   4.791  0.1332  1.0472  0.4142
  641MOL0     C88327   4.978  11.148   4.801 -0.0899  0.0280  0.0396
  641MOL0     O88328   5.116  11.172   4.812 -0.2660 -0.4320  0.1906
  641MOL0     C88329   5.148  11.225   4.937 -0.2750  0.2565  0.3335
  641MOL0     C88330   5.295  11.253   4.933  0.1624  0.1844 -0.4640
  641MOL0     C88331   5.333  11.343   5.057 -0.3684 -0.4195 -0.1509
  641MOL0     C88332   5.485  11.360   5.052 -0.3403 -0.6316  0.0709
  641MOL0     C88333   5.525  11.485   5.136 -0.1922  0.1227  0.2321
  641MOL0     C88334   5.677  11.516   5.109  1.3007 -0.4128  0.0812
  641MOL0     C88335   5.732  11.626   5.197 -0.3344  0.1465  0.3601
  641MOL0     C88336   5.719  11.772   5.142 -0.0941  0.4862 -0.5746
  641MOL0     N88337   5.790  11.868   5.237  0.5015 -0.7444  0.2465
  641MOL0     C88338   5.925  11.890   5.236  0.3123  0.1031  0.8736
  641MOL0     C88339   5.943  11.990   5.328  0.1164  0.4002  0.2854
  641MOL0     C88340   6.080  12.057   5.359  1.1134  0.0373  0.0829
  641MOL0     C88341   6.111  12.060   5.510 -0.3517  0.2751  1.0187
  641MOL0     C88342   6.162  12.203   5.543 -0.2823  0.8198  0.2715
  641MOL0     C88343   6.224  12.207   5.683  0.1541 -0.0012  0.1090
  641MOL0     O88344   6.372  12.190   5.684  0.4396  0.4345  0.3161
  641MOL0     C88345   6.459  12.282   5.633  0.3422  0.0535  0.1402
  641MOL0     C88346   6.593  12.260   5.670  0.0373  0.1200  0.8877
  641MOL0     C88347   6.698  12.340   5.621 -0.0160  0.1299 -0.2066
  641MOL0     C88348   6.835  12.285   5.647 -0.2793 -0.0101 -0.6414
  641MOL0     C88349   6.657  12.458   5.552 -0.1886 -0.3477 -0.2973
  641MOL0     C88350   6.752  12.570   5.518  0.2526  0.8576  0.4210
  641MOL0     O88351   6.710  12.661   5.430 -0.1745 -0.4902 -0.6824
  641MOL0     C88352   6.810  12.710   5.344  0.0316 -0.4590  0.5126
  641MOL0     C88353   6.811  12.846   5.321  0.8557  0.1184 -0.2808
  641MOL0     C88354   6.892  12.908   5.228 -0.2540  0.6897  0.5378
  641MOL0     C88355   6.993  12.827   5.161  0.9091 -0.4816 -0.0540
  641MOL0     O88356   7.074  12.869   5.055 -0.0680  0.5480 -0.6130
  641MOL0     C88357   7.098  13.014   5.041  1.2762 -1.0579 -0.3514
  641MOL0     C88358   7.172  13.047   4.910  0.7611  0.0449  0.3843
  641MOL0     C88359   7.304  12.964   4.895  0.1043 -0.3158  0.5067
  641MOL0     C88360   7.414  13.019   4.994  0.6176  0.2425 -0.7072
  641MOL0     C88361   7.547  12.986   4.941 -0.0697  0.2306 -0.2163
  641MOL0     C88362   7.653  13.015   5.043 -0.0890 -0.4901  0.1801
  641MOL0     C88363   7.786  12.943   5.014 -0.0104  0.0053 -0.6493
  641MOL0     C88364   7.882  12.963   5.134  0.0432  0.3924 -0.3097
  641MOL0    Cl88365   7.849  12.837   5.262  0.5287  0.2430  0.2797
  641MOL0     C88366   6.995  12.692   5.189  0.5534 -0.4735 -0.1404
  641MOL0     C88367   6.906  12.632   5.276 -0.8168 -0.3474  0.0949
  641MOL0     O88368   6.869  12.557   5.559 -0.2489 -0.0111 -1.0143
  641MOL0     C88369   6.528  12.476   5.513  0.2544  0.0736  0.0001
  641MOL0     C88370   6.425  12.391   5.554  0.2488  1.0556  0.2515
  641MOL0     N88371   5.816  12.020   5.382 -0.5952  0.9820 -0.1610
  641MOL0     N88372   5.728  11.957   5.319 -0.7657 -0.5622  0.2204
  641MOL0     C88373   4.884  11.251   4.796  0.6570 -0.0076 -0.0861
  641MOL0     C88374   4.751  11.216   4.769 -0.3380 -0.3645  0.8975
  641MOL0     C88375   4.342  11.104   4.748  0.4724 -0.8410 -0.7960
  641MOL0     C88376   4.334  11.074   4.608  0.1104  0.5506 -0.3806
  641MOL0     C88377   4.210  11.084   4.544 -0.4947  0.0719 -0.5305
  641MOL0     C88378   4.096  11.146   4.605  0.9316  0.2568  0.7502
  641MOL0     O88379   3.969  11.162   4.540  0.0328 -0.1365  0.4676
  641MOL0     C88380   3.947  11.133   4.401 -0.3187  0.3945  0.0602
  641MOL0     C88381   3.917  10.987   4.380  0.0377 -0.6848 -0.5360
  641MOL0     C88382   3.771  10.958   4.438 -0.7229  0.2615 -0.1232
  641MOL0     C88383   3.652  10.971   4.345  0.1824 -0.7670  0.3723
  641MOL0     C88384   3.623  11.119   4.317 -0.1181 -0.5576  0.3506
  641MOL0     C88385   3.594  11.228   4.280  0.2550  0.2079 -0.2595
  641MOL0     C88386   4.106  11.178   4.739  0.5851 -0.3110 -0.4469
  641MOL0     C88387   4.219  11.139   4.814 -0.3079  0.4035  0.4345
  641MOL0     C88388   4.206  11.145   4.966 -0.1939 -0.0614  0.2254
  641MOL0     H88389   4.779  10.876   4.770  0.6175 -0.3581 -0.6016
  641MOL0     H88390   5.013  10.940   4.803  1.8799  2.5150 -0.5633
  641MOL0     H88391   5.134  11.147   5.013  0.7452  0.2224  0.5027
  641MOL0     H88392   5.087  11.315   4.951  0.0627  0.6605 -0.7662
  641MOL0     H88393   5.359  11.165   4.931  1.9015  1.3369  1.1123
  641MOL0     H88394   5.316  11.311   4.842 -1.7909 -1.0919 -1.8101
  641MOL0     H88395   5.288  11.439   5.033  0.2019 -0.0230  0.3404
  641MOL0     H88396   5.292  11.312   5.154 -0.2448  4.8623  1.9134
  641MOL0     H88397   5.545  11.273   5.080  3.1502  1.3120 -0.8060
  641MOL0     H88398   5.511  11.388   4.949 -0.3365 -0.3767  0.1429
  641MOL0     H88399   5.509  11.459   5.241  0.8161 -4.6166 -0.5450
  641MOL0     H88400   5.465  11.574   5.114  0.0392 -0.1568 -1.7095
  641MOL0     H88401   5.739  11.428   5.126  0.4401 -1.2184 -0.8774
  641MOL0     H88402   5.686  11.545   5.004 -0.7213 -0.9833 -0.2815
  641MOL0     H88403   5.839  11.617   5.215  0.3149  3.8809 -0.6648
  641MOL0     H88404   5.688  11.615   5.296  0.0769 -0.1381  0.5102
  641MOL0     H88405   5.777  11.780   5.050  2.7649  3.6884  1.2556
  641MOL0     H88406   5.617  11.813   5.139 -0.1641  0.4678  0.7979
  641MOL0     H88407   5.993  11.840   5.168 -0.0232  0.9721 -0.1374
  641MOL0     H88408   6.067  12.159   5.324  1.8969 -0.9164 -3.3006
  641MOL0     H88409   6.152  12.001   5.298 -1.9594 -0.6964 -3.1563
  641MOL0     H88410   6.018  12.050   5.566 -0.6016  0.8067  0.7028
  641MOL0     H88411   6.180  11.981   5.541  1.0405  0.7591 -0.6869
  641MOL0     H88412   6.238  12.227   5.468 -1.9364  0.9716 -1.4397
  641MOL0     H88413   6.079  12.274   5.536  0.4906  1.7840  0.6863
  641MOL0     H88414   6.195  12.290   5.748  0.3139 -0.8513  1.3157
  641MOL0     H88415   6.187  12.118   5.736  1.0925  1.2090  2.9661
  641MOL0     H88416   6.608  12.166   5.723  0.2572 -0.1967  0.2699
  641MOL0     H88417   6.827  12.182   5.681  2.4663 -0.2323 -0.4411
  641MOL0     H88418   6.885  12.350   5.719  3.7693 -0.1162 -3.0274
  641MOL0     H88419   6.894  12.277   5.555 -1.1617  0.5853 -1.2861
  641MOL0     H88420   6.732  12.900   5.372 -1.1963 -0.6586 -2.4510
  641MOL0     H88421   6.879  13.013   5.201  0.1985  0.8991  1.1294
  641MOL0     H88422   7.007  13.074   5.033  1.8559  0.1016  1.3211
  641MOL0     H88423   7.152  13.044   5.131 -0.0866 -0.1584  0.1959
  641MOL0     H88424   7.101  13.027   4.830  0.0575  0.0459  0.9941
  641MOL0     H88425   7.191  13.155   4.912  2.6351 -0.2606  0.8241
  641MOL0     H88426   7.337  12.985   4.793  2.8694  0.9425  1.5633
  641MOL0     H88427   7.289  12.856   4.907 -1.9477  0.0382  1.6163
  641MOL0     H88428   7.410  12.980   5.097 -0.2372  1.4555 -0.2619
  641MOL0     H88429   7.417  13.128   4.999  0.4501  0.3023 -1.7809
  641MOL0     H88430   7.549  12.881   4.913  0.3855  0.1729  0.0201
  641MOL0     H88431   7.571  13.044   4.851  0.5509 -1.1882 -1.0036
  641MOL0     H88432   7.616  12.994   5.144 -1.2058 -1.8536 -0.4743
  641MOL0     H88433   7.675  13.122   5.046 -1.7342 -0.1316  0.5964
  641MOL0     H88434   7.833  12.981   4.923  1.0245  1.4084  0.4345
  641MOL0     H88435   7.769  12.838   4.988 -1.1390  0.2367 -0.8623
  641MOL0     H88436   7.871  13.061   5.180 -2.8676 -0.0067  0.0047
  641MOL0     H88437   7.982  12.940   5.094  0.0170 -2.9446  1.1430
  641MOL0     H88438   7.054  12.619   5.135 -0.0899 -2.4710  1.7026
  641MOL0     H88439   6.902  12.524   5.283 -1.2137 -0.3705 -0.4921
  641MOL0     H88440   6.486  12.561   5.461  0.8874 -0.1752 -0.9483
  641MOL0     H88441   6.324  12.415   5.523  0.4463 -0.1844 -1.4684
  641MOL0     H88442   4.913  11.355   4.806  1.0128 -0.1498  0.4026
  641MOL0     H88443   4.673  11.288   4.746 -0.6594 -1.5999 -2.3877
  641MOL0     H88444   4.423  11.047   4.553  0.3499  2.6673 -1.1334
  641MOL0     H88445   4.205  11.054   4.440 -1.8065 -2.8430  0.2703
  641MOL0     H88446   3.868  11.205   4.377 -2.6675 -2.0502 -0.0322
  641MOL0     H88447   4.035  11.157   4.342 -1.6486  1.9004 -1.4263
  641MOL0     H88448   3.989  10.919   4.427 -1.4489 -1.6335  0.4748
  641MOL0     H88449   3.929  10.974   4.272  1.0778  1.8252 -0.7955
  641MOL0     H88450   3.774  10.862   4.491  4.2766 -0.9511 -2.0642
  641MOL0     H88451   3.746  11.031   4.515 -0.9299  1.7993 -1.5897
  641MOL0     H88452   3.565  10.926   4.395 -0.3115 -0.4880 -0.2180
  641MOL0     H88453   3.672  10.922   4.249  2.5874 -1.0560  0.9727
  641MOL0     H88454   3.551  11.316   4.236  0.6520  0.4256 -0.2169
  641MOL0     H88455   4.020  11.220   4.790  2.1477  3.1089 -0.3965
  641MOL0     H88456   4.285  11.092   5.021 -0.2057  1.3085  1.6613
  641MOL0     H88457   4.219  11.249   5.000 -1.3367 -0.1012  0.8461
  641MOL0     H88458   4.109  11.101   4.991  0.7149 -1.6808  1.0345
  642MOL0     O88459   1.885   6.298   3.759 -0.1190 -0.5669 -0.1074
  642MOL0     C88460   1.840   6.363   3.663 -0.3537  0.6555  0.2075
  642MOL0     O88461   1.918   6.429   3.569 -0.3418 -0.5573 -0.6717
  642MOL0     C88462   2.045   6.466   3.600 -0.5631 -0.5524 -0.1520
  642MOL0     C88463   2.098   6.504   3.729 -0.1105 -0.0904  0.4894
  642MOL0     C88464   2.233   6.539   3.731  0.1728 -0.6065 -1.0248
  642MOL0     C88465   2.320   6.532   3.626  0.6799 -0.0379  0.0963
  642MOL0     O88466   2.451   6.551   3.655 -0.5453  0.6709  0.3741
  642MOL0     C88467   2.544   6.527   3.542 -0.3522  0.2446  0.2130
  642MOL0     C88468   2.682   6.555   3.588  1.2560 -0.9510 -0.4675
  642MOL0     C88469   2.792   6.543   3.478  0.7869 -0.0770 -0.0935
  642MOL0     C88470   2.921   6.598   3.520 -0.3562  0.3977 -0.1146
  642MOL0     C88471   3.046   6.546   3.448  0.4586 -0.9390 -0.2780
  642MOL0     C88472   3.169   6.628   3.489  0.6464 -0.2974  0.3423
  642MOL0     C88473   3.298   6.575   3.419  0.1999 -0.4060  0.4601
  642MOL0     C88474   3.416   6.665   3.461  0.2528  0.4904 -0.1773
  642MOL0     N88475   3.542   6.618   3.398 -0.2279  0.6537 -0.1200
  642MOL0     C88476   3.618   6.503   3.419 -0.2497  0.3394 -0.3541
  642MOL0     C88477   3.740   6.524   3.369 -0.7102  0.1745 -0.0104
  642MOL0     C88478   3.857   6.425   3.365 -0.0828 -0.1234  0.0466
  642MOL0     C88479   3.833   6.298   3.284 -0.3073  0.2924  0.5523
  642MOL0     C88480   3.810   6.327   3.131 -0.3510  0.5203  0.5191
  642MOL0     C88481   3.906   6.416   3.061  0.0469  0.1155  0.7200
  642MOL0     O88482   4.039   6.373   3.082 -0.2425 -0.1257  0.3066
  642MOL0     C88483   4.145   6.450   3.061 -0.9587  0.0031  0.8951
  642MOL0     C88484   4.146   6.578   2.996  0.4398  0.4325  0.2890
  642MOL0     C88485   4.267   6.648   2.987 -0.2294 -0.4250 -0.5116
  642MOL0     C88486   4.257   6.783   2.918 -0.2075 -0.3246  0.1887
  642MOL0     C88487   4.386   6.596   3.041  0.3626 -0.2671 -0.6141
  642MOL0     C88488   4.514   6.663   3.022  0.5806  0.3977 -0.9764
  642MOL0     O88489   4.523   6.767   2.931  0.2589  0.3334  0.0410
  642MOL0     C88490   4.646   6.818   2.894  0.1909  0.5337  0.0625
  642MOL0     C88491   4.776   6.762   2.900  0.3500 -0.0587 -0.5883
  642MOL0     C88492   4.886   6.836   2.870 -0.5545 -0.8281  0.0350
  642MOL0     C88493   4.878   6.967   2.823  0.7119  0.0288 -0.2163
  642MOL0     O88494   4.992   7.023   2.769 -0.2730 -0.4446 -0.1715
  642MOL0     C88495   5.007   7.167   2.775 -0.6612 -0.5372  0.8487
  642MOL0     C88496   5.143   7.198   2.848  0.2503 -0.0234  0.3603
  642MOL0     C88497   5.266   7.134   2.784 -0.7430 -0.5234 -0.1358
  642MOL0     C88498   5.392   7.185   2.841 -0.5657 -0.2663 -0.5788
  642MOL0     C88499   5.511   7.142   2.749 -0.4653 -0.8980  0.3127
  642MOL0     C88500   5.650   7.191   2.795 -0.0654 -0.8986  0.5443
  642MOL0     C88501   5.689   7.146   2.938  0.0228 -0.1761  0.4508
  642MOL0     C88502   5.817   7.211   2.984 -0.0767 -0.4278 -0.1160
  642MOL0    Cl88503   5.961   7.162   2.893  0.1100  0.1640 -0.2342
  642MOL0     C88504   4.751   7.024   2.807 -0.2422 -0.5340  0.0460
  642MOL0     C88505   4.643   6.952   2.844 -0.1089  0.3207 -0.0430
  642MOL0     O88506   4.607   6.621   3.088 -0.0916  0.5065  0.2003
  642MOL0     C88507   4.380   6.470   3.110  0.3676 -0.3625  0.0369
  642MOL0     C88508   4.262   6.397   3.110 -0.5234 -0.0667 -0.9286
  642MOL0     N88509   3.742   6.649   3.310  0.7679  0.3751 -0.1742
  642MOL0     N88510   3.618   6.698   3.322 -0.4547 -0.1172  0.5222
  642MOL0     C88511   2.272   6.466   3.508  0.6585  0.0153 -0.5028
  642MOL0     C88512   2.128   6.449   3.492  0.5330  0.0382  0.6727
  642MOL0     C88513   1.692   6.375   3.669  0.5254 -0.1257  0.8225
  642MOL0     C88514   1.637   6.489   3.730 -0.0701 -0.1363 -0.2124
  642MOL0     C88515   1.504   6.514   3.737 -0.5500  0.6222 -0.2740
  642MOL0     C88516   1.414   6.419   3.672 -0.5261  0.4350  0.0158
  642MOL0     O88517   1.283   6.434   3.661  0.7529 -0.1972 -0.5229
  642MOL0     C88518   1.237   6.509   3.775 -0.0321 -0.3144 -0.5910
  642MOL0     C88519   1.086   6.524   3.761  0.2436 -0.3969  0.2862
  642MOL0     C88520   1.016   6.406   3.823 -0.1921  0.4372  0.3990
  642MOL0     C88521   0.861   6.428   3.836 -0.0468  0.0855  0.9962
  642MOL0     C88522   0.788   6.387   3.717  0.4680  1.1666  0.3798
  642MOL0     C88523   0.731   6.339   3.618 -1.1347 -0.3276 -0.3666
  642MOL0     C88524   1.476   6.306   3.613  0.5329 -0.8384  0.2695
  642MOL0     C88525   1.607   6.276   3.611 -0.0457  0.0989  1.0918
  642MOL0     C88526   1.650   6.152   3.551 -0.6230  0.0415  0.8732
  642MOL0     H88527   2.032   6.514   3.814 -2.4571  1.2355 -1.3516
  642MOL0     H88528   2.282   6.571   3.822  1.4201 -3.0873 -0.7494
  642MOL0     H88529   2.520   6.585   3.452 -0.4766  1.1890  0.8386
  642MOL0     H88530   2.543   6.423   3.511  0.8965  0.6600 -1.3671
  642MOL0     H88531   2.670   6.651   3.639 -3.3310 -2.3634  1.5720
  642MOL0     H88532   2.703   6.478   3.662 -0.7734 -2.5676 -1.4865
  642MOL0     H88533   2.792   6.436   3.455 -2.9045 -0.8881  2.6999
  642MOL0     H88534   2.769   6.597   3.386  2.1253 -2.1595 -1.7408
  642MOL0     H88535   2.911   6.707   3.509 -2.4566  0.3060  0.4830
  642MOL0     H88536   2.938   6.572   3.625  1.4749 -1.3569 -0.7861
  642MOL0     H88537   3.019   6.558   3.343 -1.9740  1.2597  0.5019
  642MOL0     H88538   3.061   6.441   3.475  0.3569 -1.0002 -0.4633
  642MOL0     H88539   3.146   6.733   3.468 -1.5193 -1.0495 -1.3668
  642MOL0     H88540   3.188   6.611   3.596  2.5463  1.2622  0.3256
  642MOL0     H88541   3.282   6.592   3.312  0.7055 -0.4099  0.3797
  642MOL0     H88542   3.320   6.471   3.444 -0.2188 -0.2975  1.3261
  642MOL0     H88543   3.394   6.766   3.423  0.4901  0.9133  0.7756
  642MOL0     H88544   3.427   6.678   3.569 -1.9875 -0.7256  0.2480
  642MOL0     H88545   3.586   6.409   3.462 -1.9641  0.4826 -1.2389
  642MOL0     H88546   3.865   6.383   3.466 -0.6160 -1.0752 -0.2953
  642MOL0     H88547   3.946   6.479   3.332 -0.2653  1.4166  1.8713
  642MOL0     H88548   3.917   6.228   3.290  0.6394  1.1730 -1.2879
  642MOL0     H88549   3.741   6.250   3.317 -0.2129  0.4039  0.9824
  642MOL0     H88550   3.815   6.227   3.086  0.1479 -1.5535  4.6911
  642MOL0     H88551   3.709   6.366   3.113 -0.0626  1.5518  1.1199
  642MOL0     H88552   3.869   6.451   2.964 -0.6640 -0.4089  0.7959
  642MOL0     H88553   3.891   6.514   3.109 -4.7290  2.0253 -3.7643
  642MOL0     H88554   4.062   6.627   2.949  0.9541  1.6023  0.5548
  642MOL0     H88555   4.281   6.861   2.990  1.8879  0.6407 -1.4704
  642MOL0     H88556   4.156   6.803   2.880 -0.0649 -1.4731 -0.8573
  642MOL0     H88557   4.325   6.789   2.832  0.5172 -1.2502  0.6802
  642MOL0     H88558   4.785   6.657   2.925  0.6957  0.3738  1.2339
  642MOL0     H88559   4.984   6.791   2.881 -0.9983 -1.5114  1.3473
  642MOL0     H88560   5.003   7.212   2.675 -2.4443 -1.5535  0.4183
  642MOL0     H88561   4.929   7.210   2.839  0.3366 -0.3910  1.9972
  642MOL0     H88562   5.159   7.305   2.863 -2.1716  1.1669 -3.8711
  642MOL0     H88563   5.142   7.156   2.949  1.2540 -1.9328 -0.3738
  642MOL0     H88564   5.261   7.137   2.675 -2.4893 -1.2967 -0.1059
  642MOL0     H88565   5.266   7.026   2.806  0.6527 -0.4951  0.1543
  642MOL0     H88566   5.405   7.146   2.943 -0.6533 -0.5330 -0.6694
  642MOL0     H88567   5.389   7.295   2.839 -1.5081 -0.2969 -1.7861
  642MOL0     H88568   5.521   7.033   2.739  1.2983 -0.7794  0.3705
  642MOL0     H88569   5.503   7.189   2.650 -0.7289  1.2573  1.3048
  642MOL0     H88570   5.662   7.299   2.787  2.7952 -1.2210 -0.3878
  642MOL0     H88571   5.724   7.146   2.729 -1.8565  0.4624 -2.5738
  642MOL0     H88572   5.699   7.038   2.952  0.5955 -0.4022 -1.3806
  642MOL0     H88573   5.614   7.188   3.005 -0.2035 -0.6831  0.5238
  642MOL0     H88574   5.824   7.172   3.086  1.7578 -1.0650 -0.4572
  642MOL0     H88575   5.809   7.320   2.987 -1.2534 -0.5147  1.4085
  642MOL0     H88576   4.728   7.120   2.761  1.4477 -1.6679 -3.5117
  642MOL0     H88577   4.539   6.985   2.841  0.3696  1.8458 -1.8672
  642MOL0     H88578   4.470   6.426   3.152  1.2759  0.1854 -1.2765
  642MOL0     H88579   4.246   6.299   3.152  1.6532 -0.5246 -1.0772
  642MOL0     H88580   2.342   6.441   3.430  1.2011  1.4882 -0.5271
  642MOL0     H88581   2.086   6.422   3.396 -0.6192 -0.2784  1.2500
  642MOL0     H88582   1.710   6.553   3.780  2.9268 -3.0118 -0.5559
  642MOL0     H88583   1.467   6.612   3.766 -2.3258 -0.2479  0.5470
  642MOL0     H88584   1.258   6.468   3.874  0.3890  0.7692 -0.2256
  642MOL0     H88585   1.279   6.609   3.766  2.3297 -1.1766  0.1850
  642MOL0     H88586   1.061   6.537   3.655  0.0323 -1.0397  0.2530
  642MOL0     H88587   1.054   6.612   3.818  0.9860 -0.1246  0.2941
  642MOL0     H88588   1.035   6.313   3.768 -0.1644  0.1966  0.8140
  642MOL0     H88589   1.041   6.384   3.927  1.7851 -0.2305 -0.1614
  642MOL0     H88590   0.833   6.533   3.852  0.1385  0.2606  0.2138
  642MOL0     H88591   0.822   6.367   3.918 -1.8817  1.3425  1.1296
  642MOL0     H88592   0.686   6.287   3.535 -0.4918 -0.8353 -0.4073
  642MOL0     H88593   1.407   6.231   3.576  2.3864 -2.1774 -0.6295
  642MOL0     H88594   1.574   6.074   3.559 -2.3219  1.5308 -0.1517
  642MOL0     H88595   1.681   6.167   3.447  0.6006 -1.6254  0.9425
  642MOL0     H88596   1.741   6.112   3.597 -0.4034  0.7793  1.0804
  643MOL0     O88597   5.746   4.728   2.447 -0.6112 -0.1837  0.1320
  643MOL0     C88598   5.658   4.799   2.399 -0.3411 -0.4846 -0.4735
  643MOL0     O88599   5.659   4.931   2.402  0.8255 -0.0990 -0.5134
  643MOL0     C88600   5.768   5.007   2.438  0.5447 -0.5960  0.0424
  643MOL0     C88601   5.899   4.966   2.427 -0.3209 -0.4079 -1.0157
  643MOL0     C88602   6.007   5.055   2.441  0.1089 -0.4190 -0.2675
  643MOL0     C88603   5.982   5.197   2.444 -0.2994  0.2562 -1.2052
  643MOL0     O88604   6.093   5.277   2.433  0.0147 -0.5585 -0.2456
  643MOL0     C88605   6.063   5.411   2.452  0.3090 -0.2297  0.0633
  643MOL0     C88606   6.189   5.503   2.442 -0.2848 -1.0263 -0.4402
  643MOL0     C88607   6.279   5.526   2.567  0.3024 -0.3867 -0.5594
  643MOL0     C88608   6.286   5.407   2.660 -0.1602 -0.6361 -0.5749
  643MOL0     C88609   6.389   5.423   2.778 -0.7007  0.3866 -0.3719
  643MOL0     C88610   6.381   5.299   2.866 -0.0606  0.2663  0.3071
  643MOL0     C88611   6.489   5.315   2.974 -0.0314 -0.5688 -0.2191
  643MOL0     C88612   6.499   5.183   3.050  0.5521  0.4976  0.7397
  643MOL0     N88613   6.576   5.183   3.168 -0.0493 -0.1054 -0.0724
  643MOL0     C88614   6.696   5.247   3.172 -0.8687 -0.3828  0.2351
  643MOL0     C88615   6.732   5.239   3.307 -0.2272  0.7498 -0.8796
  643MOL0     C88616   6.866   5.287   3.359 -0.6416 -0.6782  0.3096
  643MOL0     C88617   6.957   5.167   3.394 -0.0856  0.2346 -0.5753
  643MOL0     C88618   6.996   5.059   3.281 -0.4111  0.1569  0.2752
  643MOL0     C88619   7.076   5.104   3.156 -0.1883 -0.4786  1.4461
  643MOL0     O88620   7.011   5.219   3.100  0.5086 -0.2128  0.0134
  643MOL0     C88621   7.082   5.292   3.010  0.9890 -0.4156  0.4458
  643MOL0     C88622   7.179   5.231   2.925  0.0937 -0.8330 -0.2310
  643MOL0     C88623   7.245   5.299   2.825 -0.3416  0.0803 -0.3957
  643MOL0     C88624   7.348   5.223   2.739 -0.2024  0.3154 -0.3693
  643MOL0     C88625   7.230   5.448   2.810  0.4154 -0.7226 -0.3055
  643MOL0     C88626   7.292   5.534   2.702  0.0491  0.8006 -0.0020
  643MOL0     O88627   7.244   5.658   2.690  0.0715  0.2402  0.2664
  643MOL0     C88628   7.255   5.720   2.570 -0.3103 -0.0279 -0.1528
  643MOL0     C88629   7.147   5.693   2.490  0.4572 -0.6473  0.7469
  643MOL0     C88630   7.135   5.764   2.365  0.2768 -0.6683  0.2992
  643MOL0     C88631   7.235   5.854   2.316 -0.0333 -0.2502  0.0277
  643MOL0     O88632   7.227   5.929   2.201 -0.5149 -0.6170 -0.4665
  643MOL0     C88633   7.100   5.965   2.145  0.1796 -0.4866 -0.9166
  643MOL0     C88634   7.065   5.874   2.019  0.5625 -0.4736  0.1292
  643MOL0     C88635   6.908   5.845   2.012  0.3866  0.1931  0.2785
  643MOL0     C88636   6.872   5.785   1.882 -0.0372  0.0752  0.2713
  643MOL0     C88637   6.858   5.887   1.769  1.0372  0.3866 -0.8733
  643MOL0     C88638   6.808   5.817   1.649 -0.9552  0.2232 -0.0099
  643MOL0     C88639   6.919   5.737   1.572  0.9408  0.0297 -0.2759
  643MOL0     C88640   6.869   5.620   1.496 -0.0716  0.3239  0.1545
  643MOL0    Cl88641   7.012   5.528   1.440 -0.0141  0.0106  0.2365
  643MOL0     C88642   7.342   5.875   2.401 -0.9588 -0.0765 -0.0695
  643MOL0     C88643   7.353   5.812   2.526  0.5297  0.8465 -0.2128
  643MOL0     O88644   7.366   5.483   2.616  0.2636 -0.9491 -0.0000
  643MOL0     C88645   7.132   5.509   2.893 -0.0632  0.6139 -0.1816
  643MOL0     C88646   7.068   5.428   2.988 -0.4041 -0.3938  0.2058
  643MOL0     N88647   6.633   5.162   3.374  0.7787 -0.3922  0.1268
  643MOL0     N88648   6.533   5.150   3.297  0.0163 -0.7198  0.2697
  643MOL0     C88649   5.849   5.234   2.466  0.1637 -0.7609 -0.6534
  643MOL0     C88650   5.747   5.147   2.459  0.3759  0.3124  0.2650
  643MOL0     C88651   5.528   4.751   2.355  0.3771 -1.2588 -0.1960
  643MOL0     C88652   5.413   4.826   2.375 -0.2153 -0.4177 -0.4549
  643MOL0     C88653   5.288   4.781   2.343  0.1686  0.1168  0.2644
  643MOL0     C88654   5.273   4.664   2.272  0.9470  0.0890 -1.0605
  643MOL0     O88655   5.142   4.626   2.239 -0.6260 -0.0294  0.1972
  643MOL0     C88656   5.066   4.720   2.159 -0.2019 -0.0806  0.3796
  643MOL0     C88657   5.020   4.655   2.031 -0.1323 -0.1821  1.2232
  643MOL0     C88658   5.129   4.593   1.938  0.3398 -0.5751  0.2133
  643MOL0     C88659   5.236   4.702   1.896 -0.2655 -0.4760  0.9619
  643MOL0     C88660   5.372   4.677   1.934  0.5755  0.1995 -0.4214
  643MOL0     C88661   5.487   4.662   1.971  0.3312 -0.3544 -0.4302
  643MOL0     C88662   5.380   4.581   2.253 -1.4297  0.5463 -0.3517
  643MOL0     C88663   5.507   4.625   2.288 -0.2916 -0.2483 -0.3050
  643MOL0     C88664   5.613   4.529   2.257 -0.3053  0.1287 -0.7855
  643MOL0     H88665   5.917   4.867   2.386  0.7316 -0.1866 -1.1177
  643MOL0     H88666   6.107   5.013   2.436  0.5204  0.2700  1.6164
  643MOL0     H88667   6.035   5.438   2.554  2.4912  0.7244  0.4748
  643MOL0     H88668   5.979   5.441   2.389 -1.4382 -3.3620  0.7048
  643MOL0     H88669   6.265   5.467   2.373 -0.4430 -2.2637 -0.0018
  643MOL0     H88670   6.146   5.599   2.414  0.4902  0.1860  2.1701
  643MOL0     H88671   6.379   5.558   2.534 -0.4798  3.7423  0.4646
  643MOL0     H88672   6.247   5.613   2.625  3.7207  0.9467 -0.4562
  643MOL0     H88673   6.190   5.386   2.709  0.1912  0.5427  0.6725
  643MOL0     H88674   6.312   5.318   2.602 -0.7837  0.9160 -3.4382
  643MOL0     H88675   6.356   5.506   2.841 -0.6106  0.8500 -0.9248
  643MOL0     H88676   6.490   5.446   2.741 -0.3743 -0.1688  0.1576
  643MOL0     H88677   6.280   5.280   2.905 -1.0971  1.4711 -1.6316
  643MOL0     H88678   6.422   5.216   2.808  4.1010  3.0838 -1.1934
  643MOL0     H88679   6.465   5.390   3.050  0.8708  0.6379 -1.0773
  643MOL0     H88680   6.585   5.335   2.925  0.3796 -2.5622 -0.3157
  643MOL0     H88681   6.403   5.140   3.078  2.3602 -3.2349  1.9219
  643MOL0     H88682   6.546   5.117   2.976  1.9689  0.6445  1.4597
  643MOL0     H88683   6.758   5.274   3.087 -1.2291 -1.2416 -0.3239
  643MOL0     H88684   6.846   5.342   3.451 -0.1770 -0.5077  0.3090
  643MOL0     H88685   6.917   5.354   3.289  1.2803 -2.4495 -0.0934
  643MOL0     H88686   7.048   5.204   3.442 -0.8269  0.8317  0.3942
  643MOL0     H88687   6.909   5.105   3.470 -1.0939  1.6808  0.0109
  643MOL0     H88688   7.045   4.972   3.327 -0.3952  0.2804  0.4910
  643MOL0     H88689   6.902   5.016   3.245 -0.1477  2.2217 -3.2532
  643MOL0     H88690   7.178   5.137   3.180 -0.5550  0.3092  1.9611
  643MOL0     H88691   7.088   5.022   3.085 -0.1287  3.0080 -3.0417
  643MOL0     H88692   7.191   5.123   2.928  1.1583 -0.8632 -3.0111
  643MOL0     H88693   7.368   5.130   2.792 -0.2146  0.1083 -0.7236
  643MOL0     H88694   7.445   5.274   2.734  0.2169 -0.1194  1.9839
  643MOL0     H88695   7.302   5.204   2.642 -0.4136 -2.8557  0.2681
  643MOL0     H88696   7.067   5.626   2.519 -0.9422  0.3756 -0.5842
  643MOL0     H88697   7.051   5.743   2.299  0.6628  0.3287 -0.5411
  643MOL0     H88698   7.021   5.948   2.219  0.8436 -1.5857 -0.4300
  643MOL0     H88699   7.101   6.074   2.133 -1.3909 -0.2315  0.8068
  643MOL0     H88700   7.096   5.921   1.925  0.3371  1.4598  0.9725
  643MOL0     H88701   7.122   5.781   2.022 -0.1226 -0.9448 -0.9861
  643MOL0     H88702   6.850   5.934   2.037  0.0345 -0.3320  1.4243
  643MOL0     H88703   6.869   5.773   2.085 -0.5458 -0.2864 -0.6694
  643MOL0     H88704   6.771   5.744   1.890  0.6312 -2.4239 -2.2816
  643MOL0     H88705   6.940   5.703   1.862 -1.9944 -1.2279 -1.5162
  643MOL0     H88706   6.775   5.954   1.794  0.8707  0.3715 -1.3788
  643MOL0     H88707   6.943   5.948   1.738  0.4015  2.4405  1.1395
  643MOL0     H88708   6.755   5.880   1.577 -1.1741  1.3008  1.0735
  643MOL0     H88709   6.735   5.746   1.690 -1.3833  2.1699  2.8765
  643MOL0     H88710   6.991   5.686   1.636 -0.0291 -2.3936 -1.0130
  643MOL0     H88711   6.972   5.800   1.500  0.9318 -1.3861 -1.5730
  643MOL0     H88712   6.810   5.651   1.409  1.0174  3.0005  0.2729
  643MOL0     H88713   6.806   5.544   1.543 -3.8778  1.9901 -1.7434
  643MOL0     H88714   7.415   5.951   2.373  0.1793 -0.6520  1.2400
  643MOL0     H88715   7.436   5.832   2.592 -1.5551  1.3745  2.4357
  643MOL0     H88716   7.120   5.617   2.893  2.8049  1.0540 -1.4951
  643MOL0     H88717   6.998   5.477   3.057 -1.2972  0.8945 -1.5274
  643MOL0     H88718   5.828   5.340   2.481  0.9633 -0.5615 -0.9193
  643MOL0     H88719   5.642   5.172   2.466 -0.5967 -2.8958 -1.0057
  643MOL0     H88720   5.418   4.923   2.424 -1.7348 -1.9129  3.0459
  643MOL0     H88721   5.195   4.819   2.381 -1.2872 -4.0099  1.3551
  643MOL0     H88722   4.986   4.768   2.217  1.3110  1.6783  1.1167
  643MOL0     H88723   5.134   4.801   2.134  0.3009 -1.2407 -2.3188
  643MOL0     H88724   4.956   4.727   1.979  2.2227  1.6441  0.6794
  643MOL0     H88725   4.947   4.577   2.057  0.4161 -2.1005 -2.3297
  643MOL0     H88726   5.183   4.510   1.984 -1.5768 -0.8333  2.1409
  643MOL0     H88727   5.083   4.551   1.847 -0.8920 -2.3386  1.5922
  643MOL0     H88728   5.210   4.806   1.918  2.6035  0.7166 -0.8114
  643MOL0     H88729   5.225   4.688   1.788 -0.5679 -4.5325  1.3517
  643MOL0     H88730   5.585   4.634   2.002 -0.5299 -3.4602 -0.1596
  643MOL0     H88731   5.365   4.484   2.208  2.6285  0.3606 -1.7702
  643MOL0     H88732   5.651   4.491   2.352 -0.3215 -0.0892 -0.8659
  643MOL0     H88733   5.576   4.437   2.211  3.6860 -1.8553 -0.4549
  643MOL0     H88734   5.698   4.575   2.205  0.6326 -1.7713 -1.0029
  644MOL0     O88735   6.280   0.920   9.697  0.1777 -0.5686  0.0049
  644MOL0     C88736   6.359   0.826   9.701 -0.6406 -0.4703  0.6547
  644MOL0     O88737   6.490   0.839   9.670 -0.3761 -0.4207 -0.2584
  644MOL0     C88738   6.551   0.927   9.592 -0.6891 -1.1304  0.9113
  644MOL0     C88739   6.497   1.040   9.522  0.2554 -0.5514 -0.1857
  644MOL0     C88740   6.567   1.119   9.424 -0.3436  0.1636  0.0312
  644MOL0     C88741   6.701   1.095   9.391 -0.4107 -0.7550 -0.0196
  644MOL0     O88742   6.777   1.157   9.295 -0.0387  0.6733 -0.1960
  644MOL0     C88743   6.713   1.227   9.196  0.0042  0.0116  0.2838
  644MOL0     C88744   6.823   1.269   9.101  0.1741 -0.7269  0.3818
  644MOL0     C88745   6.937   1.354   9.169 -0.6435 -0.0801  0.4007
  644MOL0     C88746   7.032   1.394   9.055  0.1213  0.3317  0.2778
  644MOL0     C88747   7.153   1.470   9.099  0.1650  0.0175  0.2715
  644MOL0     C88748   7.123   1.614   9.158 -0.2924  0.4034 -0.1945
  644MOL0     C88749   7.224   1.653   9.270 -0.8637  0.2421 -0.4800
  644MOL0     C88750   7.375   1.660   9.223 -0.1017  0.1774  0.7761
  644MOL0     N88751   7.469   1.694   9.324 -0.2214 -0.3806  0.2311
  644MOL0     C88752   7.472   1.804   9.406  0.2050 -0.1940 -0.6020
  644MOL0     C88753   7.572   1.777   9.493 -0.8434  1.2188 -0.6086
  644MOL0     C88754   7.636   1.867   9.588  0.1240  0.2641  0.5980
  644MOL0     C88755   7.783   1.890   9.566  0.2442  0.6158  0.5342
  644MOL0     C88756   7.836   1.983   9.673  0.3521  0.1367  0.5803
  644MOL0     C88757   7.988   2.006   9.670 -0.0988  0.0594 -0.2354
  644MOL0     O88758   8.033   1.886   9.737  0.2749  0.3145  0.6280
  644MOL0     C88759   8.164   1.860   9.724 -0.1945  0.9449 -0.3246
  644MOL0     C88760   8.204   1.718   9.751  0.1152 -1.1789  0.5540
  644MOL0     C88761   8.343   1.682   9.752  0.0281 -0.1280 -0.4401
  644MOL0     C88762   8.365   1.538   9.771  0.2536 -0.4965 -0.6916
  644MOL0     C88763   8.443   1.778   9.716  0.6874 -0.0155 -0.2261
  644MOL0     C88764   8.590   1.751   9.714 -0.8044  0.6078 -0.1461
  644MOL0     O88765   8.635   1.624   9.753 -0.0718 -0.5067 -0.6944
  644MOL0     C88766   8.766   1.590   9.772  0.1563  0.5884 -0.5486
  644MOL0     C88767   8.808   1.466   9.713  0.0923  0.0706  0.3431
  644MOL0     C88768   8.943   1.430   9.718  0.1776 -0.2431 -0.3842
  644MOL0     C88769   9.035   1.512   9.792  0.5922  0.9144  0.5195
  644MOL0     O88770   9.170   1.494   9.785  0.1815 -0.5231  0.0612
  644MOL0     C88771   9.224   1.381   9.715 -0.1588 -0.6601 -0.0608
  644MOL0     C88772   9.382   1.364   9.734  0.2893 -1.1422  0.1409
  644MOL0     C88773   9.408   1.323   9.875  0.3268  0.4948 -0.1714
  644MOL0     C88774   9.556   1.290   9.898  0.6355 -0.3830 -1.1007
  644MOL0     C88775   9.580   1.230  10.032  0.2513  0.1944 -0.0848
  644MOL0     C88776   9.722   1.250  10.080 -0.8336  0.1069  0.9330
  644MOL0     C88777   9.733   1.158  10.205 -0.5836  1.2178 -0.0644
  644MOL0     C88778   9.789   1.019  10.155  0.1768  0.7506 -0.2046
  644MOL0    Cl88779   9.862   0.927  10.296  0.2232 -0.4402  0.6137
  644MOL0     C88780   8.994   1.627   9.853  0.5250  0.2873 -0.4190
  644MOL0     C88781   8.856   1.669   9.847  0.1129  0.2670 -0.2455
  644MOL0     O88782   8.663   1.844   9.672  0.4545 -0.2229 -0.2592
  644MOL0     C88783   8.394   1.901   9.690  0.7235  0.6620  0.0465
  644MOL0     C88784   8.263   1.950   9.687 -0.8194  0.0163 -0.0998
  644MOL0     N88785   7.614   1.645   9.478 -0.0528 -0.1242 -0.1712
  644MOL0     N88786   7.560   1.599   9.370  0.0472  0.7523 -0.6438
  644MOL0     C88787   6.761   0.989   9.467  0.3816  0.0389 -0.4845
  644MOL0     C88788   6.691   0.918   9.565 -0.2829 -0.2758  0.9272
  644MOL0     C88789   6.307   0.702   9.759  0.7079  0.1780  0.2889
  644MOL0     C88790   6.173   0.670   9.727 -0.1817 -0.3680 -0.1472
  644MOL0     C88791   6.120   0.547   9.768  0.4710 -0.1762  0.0355
  644MOL0     C88792   6.194   0.454   9.843  0.1774  0.3394  0.8194
  644MOL0     O88793   6.137   0.339   9.893  0.5772  0.1673  0.3394
  644MOL0     C88794   6.010   0.356   9.962 -0.0607  0.3967  0.3988
  644MOL0     C88795   6.041   0.357  10.110 -0.8975 -0.3351  0.6397
  644MOL0     C88796   5.910   0.393  10.185 -0.5745 -0.0339  0.4813
  644MOL0     C88797   5.957   0.418  10.341 -0.5570 -0.1241 -0.1154
  644MOL0     C88798   5.835   0.470  10.400  0.1373 -0.0856 -0.0666
  644MOL0     C88799   5.724   0.514  10.431  0.1985 -0.0383  0.2748
  644MOL0     C88800   6.327   0.490   9.874 -0.4611 -0.5447  0.4520
  644MOL0     C88801   6.380   0.616   9.843 -0.1246 -0.0058  0.7074
  644MOL0     C88802   6.519   0.655   9.894  0.1016 -0.4051  0.0487
  644MOL0     H88803   6.391   1.061   9.516  0.5707  1.1176 -0.2169
  644MOL0     H88804   6.508   1.183   9.359 -3.8389 -2.9915 -0.2462
  644MOL0     H88805   6.659   1.311   9.240 -0.7438 -1.3875  2.1876
  644MOL0     H88806   6.647   1.161   9.139  3.2061 -2.2493 -1.0716
  644MOL0     H88807   6.874   1.184   9.054 -0.4656 -0.7602 -0.2585
  644MOL0     H88808   6.779   1.328   9.020 -2.2389 -0.9024  1.4782
  644MOL0     H88809   6.909   1.445   9.224 -0.2100  1.5045 -1.8793
  644MOL0     H88810   6.994   1.300   9.246 -1.9456 -1.5884  0.3652
  644MOL0     H88811   7.063   1.297   9.014  1.0030  0.2359  1.1498
  644MOL0     H88812   6.974   1.445   8.977  0.5327 -0.0115 -0.2620
  644MOL0     H88813   7.228   1.472   9.020  1.2552  3.3765  1.2458
  644MOL0     H88814   7.201   1.409   9.176  2.6279  1.1476 -0.2735
  644MOL0     H88815   7.143   1.682   9.074  2.2989  0.2589  0.2161
  644MOL0     H88816   7.024   1.633   9.201 -1.0151  0.7885 -1.9294
  644MOL0     H88817   7.218   1.578   9.349 -0.0056  2.0932  1.4212
  644MOL0     H88818   7.191   1.752   9.303 -5.1820 -0.1450 -2.8362
  644MOL0     H88819   7.398   1.560   9.188 -1.8719 -0.0082  0.0043
  644MOL0     H88820   7.374   1.726   9.136 -1.9002  1.2855  1.5625
  644MOL0     H88821   7.425   1.901   9.390 -0.0738 -0.0712  0.8639
  644MOL0     H88822   7.623   1.819   9.685 -0.9972 -3.5382 -1.2359
  644MOL0     H88823   7.573   1.957   9.594 -0.6173 -0.1502 -0.5601
  644MOL0     H88824   7.826   1.789   9.573  1.3039  0.8042 -2.0405
  644MOL0     H88825   7.781   1.930   9.464  1.6893  0.3787  0.3976
  644MOL0     H88826   7.798   2.084   9.656  0.0733  0.1217  1.1043
  644MOL0     H88827   7.811   1.951   9.775  1.3655  1.3908  1.2540
  644MOL0     H88828   8.037   2.018   9.572  0.4660  0.7998  0.1335
  644MOL0     H88829   8.017   2.096   9.723  1.2469 -0.5841  0.1683
  644MOL0     H88830   8.130   1.643   9.776 -0.3446 -0.6748  0.7435
  644MOL0     H88831   8.392   1.512   9.874 -2.3359 -3.0672 -0.5337
  644MOL0     H88832   8.423   1.480   9.698 -1.6393 -1.7939 -1.2327
  644MOL0     H88833   8.274   1.479   9.762  0.2226 -0.7807  1.1973
  644MOL0     H88834   8.735   1.412   9.653  0.7489 -0.3680 -0.0706
  644MOL0     H88835   8.976   1.343   9.661 -3.0796 -0.9416 -1.3946
  644MOL0     H88836   9.183   1.285   9.747 -1.8936 -0.6064 -1.9130
  644MOL0     H88837   9.191   1.392   9.611  2.7195 -1.2630 -1.1485
  644MOL0     H88838   9.417   1.289   9.662  0.3580  0.1676 -1.2336
  644MOL0     H88839   9.433   1.460   9.721 -0.7143 -0.7573 -1.2161
  644MOL0     H88840   9.343   1.239   9.899  2.1828 -1.3543 -1.2371
  644MOL0     H88841   9.375   1.404   9.941  0.7779 -1.4278  2.5715
  644MOL0     H88842   9.612   1.384   9.899  2.5071 -1.4184  1.0413
  644MOL0     H88843   9.582   1.214   9.825 -0.1363  0.1095 -1.9004
  644MOL0     H88844   9.501   1.266  10.099  0.8515 -1.4244  1.5566
  644MOL0     H88845   9.562   1.123  10.020  2.1366 -0.1825  0.1204
  644MOL0     H88846   9.743   1.356  10.100 -2.2595  1.3490 -3.1972
  644MOL0     H88847   9.802   1.222  10.010 -0.9517 -0.3505  0.9811
  644MOL0     H88848   9.638   1.145  10.257 -0.6425 -0.2891 -0.4889
  644MOL0     H88849   9.810   1.203  10.268  2.3654 -1.5067 -1.4439
  644MOL0     H88850   9.869   1.017  10.080 -0.3680 -1.2353 -0.7949
  644MOL0     H88851   9.724   0.947  10.106  1.5231  0.5632 -1.7922
  644MOL0     H88852   9.068   1.686   9.906  1.4031 -0.6349 -0.6043
  644MOL0     H88853   8.816   1.757   9.896 -2.0154 -0.7454 -0.0289
  644MOL0     H88854   8.470   1.976   9.676 -0.1339  1.4530 -0.5089
  644MOL0     H88855   8.247   2.057   9.675 -3.3064 -0.2722  0.0423
  644MOL0     H88856   6.866   0.969   9.454  0.4284  0.2939 -0.5156
  644MOL0     H88857   6.754   0.845   9.614 -0.9944 -0.3119  1.8172
  644MOL0     H88858   6.117   0.743   9.669  1.0848 -0.5442 -1.6387
  644MOL0     H88859   6.017   0.531   9.741  0.9623 -0.9979 -1.4668
  644MOL0     H88860   5.959   0.448   9.933  0.4961  2.0780  4.1976
  644MOL0     H88861   5.946   0.271   9.935  0.8917 -0.9276  2.0367
  644MOL0     H88862   6.119   0.429  10.137 -1.0743  0.1856 -0.2249
  644MOL0     H88863   6.087   0.259  10.128  0.9588  0.6446  1.5768
  644MOL0     H88864   5.858   0.480  10.144  0.7683  0.8652  0.6390
  644MOL0     H88865   5.841   0.308  10.195  0.3107 -0.7738  0.3552
  644MOL0     H88866   6.025   0.504  10.347 -2.2647  1.4375 -1.6280
  644MOL0     H88867   5.982   0.324  10.389 -3.0549 -0.4107  0.7424
  644MOL0     H88868   5.628   0.557  10.448  0.3579  0.1230  0.7745
  644MOL0     H88869   6.391   0.418   9.924  2.2034 -0.3128 -2.2986
  644MOL0     H88870   6.511   0.757   9.933  1.6701 -0.5956  0.9768
  644MOL0     H88871   6.540   0.580   9.971 -3.6239  0.5977  2.3026
  644MOL0     H88872   6.587   0.646   9.809 -0.8159  1.1420 -0.8966
  645MOL0     O88873   8.246   4.325  10.920 -0.5563 -0.5324 -0.0169
  645MOL0     C88874   8.173   4.422  10.882  0.0792  0.2322 -0.2248
  645MOL0     O88875   8.225   4.544  10.844  0.0327  0.7059  0.2229
  645MOL0     C88876   8.361   4.553  10.825 -0.2672  0.4155  0.7149
  645MOL0     C88877   8.403   4.570  10.697  0.5656  0.0061 -0.2598
  645MOL0     C88878   8.537   4.572  10.673  0.2275  0.1458 -0.3381
  645MOL0     C88879   8.642   4.586  10.765 -0.1583 -0.3189  0.2669
  645MOL0     O88880   8.770   4.577  10.727 -0.7669 -0.7874  0.3668
  645MOL0     C88881   8.841   4.465  10.786  0.7733  0.5010 -0.0018
  645MOL0     C88882   8.972   4.522  10.842  1.5277 -0.6270  0.1182
  645MOL0     C88883   9.060   4.396  10.860  0.7556  0.1133 -0.4670
  645MOL0     C88884   9.194   4.448  10.907  0.3061 -0.1000 -0.3931
  645MOL0     C88885   9.282   4.329  10.953 -0.5513 -0.1517  0.8465
  645MOL0     C88886   9.438   4.354  10.948  0.4620 -0.6077  0.0552
  645MOL0     C88887   9.476   4.479  11.032  0.1762 -0.0094  0.6561
  645MOL0     C88888   9.624   4.514  11.050  0.1213 -0.3954 -0.0932
  645MOL0     N88889   9.696   4.414  11.128  0.6538 -0.5902 -0.6766
  645MOL0     C88890   9.723   4.422  11.260 -1.0528  0.1015  0.2266
  645MOL0     C88891   9.783   4.295  11.279 -0.6004 -0.2605 -0.3047
  645MOL0     C88892   9.862   4.261  11.391  0.1206  0.1888 -0.3757
  645MOL0     C88893   9.789   4.292  11.519 -0.3821  0.3215 -0.3927
  645MOL0     C88894   9.847   4.200  11.630 -0.0607 -0.1858  0.2546
  645MOL0     C88895  10.007   4.220  11.636 -0.2201  0.5110 -0.1677
  645MOL0     O88896  10.047   4.351  11.677 -0.1594  0.0477  0.9021
  645MOL0     C88897  10.167   4.338  11.734 -0.5731  0.0375 -0.7832
  645MOL0     C88898  10.181   4.341  11.875  0.3309 -0.9054  0.2654
  645MOL0     C88899  10.308   4.310  11.934 -0.0661  0.0012 -0.2134
  645MOL0     C88900  10.301   4.292  12.088  0.2586  0.7351 -0.2708
  645MOL0     C88901  10.422   4.293  11.848  0.5890  0.9053 -0.0228
  645MOL0     C88902  10.559   4.254  11.890 -0.2224  0.7452 -0.6556
  645MOL0     O88903  10.662   4.294  11.817  0.1269 -0.9897  0.4505
  645MOL0     C88904  10.789   4.267  11.871 -0.1923 -0.6158 -0.3635
  645MOL0     C88905  10.855   4.166  11.810  0.6366  0.4786 -0.8193
  645MOL0     C88906  10.969   4.121  11.878 -0.1081 -0.6531  0.0027
  645MOL0     C88907  11.013   4.177  12.001  0.4292 -0.1822 -0.0451
  645MOL0     O88908  11.137   4.152  12.051  0.0052  0.5159  0.1545
  645MOL0     C88909  11.177   4.013  12.058 -0.6872 -0.0182 -0.1580
  645MOL0     C88910  11.275   3.982  11.946  0.6208 -0.0879  0.7830
  645MOL0     C88911  11.413   4.060  11.940  0.0580 -0.3818  0.3642
  645MOL0     C88912  11.516   3.987  12.019  0.1953 -0.1011  0.0684
  645MOL0     C88913  11.647   4.068  12.047  0.0893 -0.3026  0.2589
  645MOL0     C88914  11.748   3.980  12.123  0.3989 -0.0118  0.1116
  645MOL0     C88915  11.880   4.047  12.118 -0.5900 -0.4665 -0.5305
  645MOL0     C88916  12.001   3.957  12.162  0.1944 -0.4352 -0.0439
  645MOL0    Cl88917  12.153   4.046  12.141 -0.0732  0.1639 -0.3440
  645MOL0     C88918  10.933   4.279  12.064 -0.2726  0.0525  0.9039
  645MOL0     C88919  10.823   4.328  11.996 -0.0490  0.3706 -0.0393
  645MOL0     O88920  10.568   4.169  11.983 -0.2928 -0.4404  0.4718
  645MOL0     C88921  10.406   4.311  11.709  0.3559  0.2527 -0.1972
  645MOL0     C88922  10.284   4.330  11.652 -0.4272 -0.7929 -0.5670
  645MOL0     N88923   9.776   4.227  11.161  0.7089 -0.2986 -0.0945
  645MOL0     N88924   9.718   4.295  11.065  0.1457 -0.2100 -0.1921
  645MOL0     C88925   8.594   4.588  10.893 -0.8154 -0.1372 -0.1687
  645MOL0     C88926   8.458   4.569  10.931  0.1312  0.4945 -0.2188
  645MOL0     C88927   8.027   4.404  10.900 -0.7825 -0.1132  0.4311
  645MOL0     C88928   7.976   4.272  10.895 -0.2250 -0.3330  0.0933
  645MOL0     C88929   7.844   4.244  10.908 -0.4580 -0.1686 -0.4560
  645MOL0     C88930   7.754   4.346  10.928  0.3193  1.0733  0.5068
  645MOL0     O88931   7.622   4.312  10.952 -0.3844 -0.6051  0.0831
  645MOL0     C88932   7.558   4.194  10.901 -0.1081 -0.3187  0.2774
  645MOL0     C88933   7.423   4.184  10.962 -0.5639  0.1649 -0.3438
  645MOL0     C88934   7.341   4.310  10.911 -0.6623  0.7957  0.5109
  645MOL0     C88935   7.197   4.301  10.938 -0.0066  0.2032 -0.3361
  645MOL0     C88936   7.113   4.274  10.819 -0.1059  0.0168  0.1050
  645MOL0     C88937   7.059   4.248  10.715  0.8992 -0.6639  0.4206
  645MOL0     C88938   7.791   4.476  10.920 -0.4879  0.2119 -0.2765
  645MOL0     C88939   7.921   4.508  10.897 -0.0544 -0.0851 -0.4944
  645MOL0     C88940   7.955   4.654  10.878 -0.0962  0.0935 -0.2515
  645MOL0     H88941   8.336   4.570  10.612  0.9218 -2.5702 -0.6173
  645MOL0     H88942   8.585   4.564  10.576  0.9575  1.4468 -0.1092
  645MOL0     H88943   8.859   4.392  10.707  1.3884  2.7356 -2.0380
  645MOL0     H88944   8.777   4.406  10.852  0.1560 -1.8560 -2.5245
  645MOL0     H88945   9.021   4.595  10.777  0.8172 -0.5950 -0.3874
  645MOL0     H88946   8.948   4.576  10.934 -0.5007 -2.4268  0.7276
  645MOL0     H88947   9.016   4.338  10.942 -0.8840  0.1264 -1.2945
  645MOL0     H88948   9.067   4.340  10.766 -1.7592  1.1336 -1.3337
  645MOL0     H88949   9.235   4.489  10.815  0.1661  3.4712  0.9632
  645MOL0     H88950   9.192   4.532  10.977  0.5255  1.7834 -2.5276
  645MOL0     H88951   9.257   4.241  10.892  0.8827  0.2730 -0.4023
  645MOL0     H88952   9.258   4.317  11.059  1.6963 -0.1565  1.3980
  645MOL0     H88953   9.487   4.265  10.988  0.5292 -0.4230  0.3888
  645MOL0     H88954   9.475   4.375  10.847 -0.1926 -0.2267 -0.1153
  645MOL0     H88955   9.426   4.459  11.127 -2.2667 -0.8234 -0.6898
  645MOL0     H88956   9.430   4.568  10.987 -1.8666 -0.8507  0.9568
  645MOL0     H88957   9.677   4.525  10.955 -2.5248 -0.4093 -1.6388
  645MOL0     H88958   9.627   4.614  11.095  1.7089 -1.4165  2.3147
  645MOL0     H88959   9.713   4.498  11.336  1.8194  0.4587  0.3772
  645MOL0     H88960   9.952   4.322  11.380  0.2050  0.2770  0.7464
  645MOL0     H88961   9.886   4.154  11.396  0.0963  0.2158  0.3563
  645MOL0     H88962   9.790   4.395  11.556  0.6570  0.1048  0.2339
  645MOL0     H88963   9.685   4.260  11.517  0.8035 -4.3093 -3.2276
  645MOL0     H88964   9.799   4.234  11.722  0.9228  1.5664  0.1711
  645MOL0     H88965   9.824   4.097  11.604  2.2056 -0.3885 -1.2808
  645MOL0     H88966  10.040   4.145  11.709  0.4226 -0.8061 -1.7357
  645MOL0     H88967  10.054   4.196  11.540  0.6317  2.1980 -0.2029
  645MOL0     H88968  10.090   4.345  11.935 -1.0225  1.4141 -1.7227
  645MOL0     H88969  10.264   4.191  12.106 -0.5220  0.4578 -2.9965
  645MOL0     H88970  10.235   4.368  12.132 -1.3664 -1.4842  1.3502
  645MOL0     H88971  10.400   4.307  12.131  1.3064  1.5513 -2.8207
  645MOL0     H88972  10.821   4.115  11.720 -0.3587 -0.6713  0.1709
  645MOL0     H88973  11.027   4.038  11.836  1.8888  1.1885 -1.1084
  645MOL0     H88974  11.239   3.996  12.146 -0.3926  1.7188  0.0063
  645MOL0     H88975  11.086   3.952  12.048 -1.1216  0.5120  0.5116
  645MOL0     H88976  11.293   3.874  11.943  0.5301 -0.1030  0.8063
  645MOL0     H88977  11.231   4.006  11.849  1.9967 -0.2466  0.0896
  645MOL0     H88978  11.397   4.159  11.985 -1.7805 -0.9583  1.0997
  645MOL0     H88979  11.441   4.073  11.835 -2.5595 -2.4953 -0.7337
  645MOL0     H88980  11.544   3.890  11.976  1.3814 -0.1186  0.8359
  645MOL0     H88981  11.472   3.967  12.117 -0.4321  1.6989  0.1842
  645MOL0     H88982  11.686   4.097  11.949  2.6332  0.8867  1.5298
  645MOL0     H88983  11.622   4.158  12.103 -0.2287 -0.2774  0.0809
  645MOL0     H88984  11.755   3.882  12.075  0.0816  1.5839 -3.5211
  645MOL0     H88985  11.715   3.979  12.227  0.7456  0.5550  0.2275
  645MOL0     H88986  11.877   4.132  12.188 -1.1860 -2.2539  1.7526
  645MOL0     H88987  11.901   4.090  12.020  2.6077  1.0333  0.6551
  645MOL0     H88988  12.008   3.862  12.109  1.1724  0.4087 -1.4979
  645MOL0     H88989  11.977   3.935  12.267  1.7881  0.0173  0.4514
  645MOL0     H88990  10.962   4.313  12.163 -1.8726  0.2136  1.3374
  645MOL0     H88991  10.749   4.395  12.037 -0.8799 -1.1575  1.0290
  645MOL0     H88992  10.491   4.300  11.643 -0.4852 -2.3205 -0.9765
  645MOL0     H88993  10.288   4.327  11.544  2.2383 -0.7431 -0.5487
  645MOL0     H88994   8.669   4.614  10.967  0.3341 -1.5775 -0.7615
  645MOL0     H88995   8.434   4.568  11.037 -0.8832 -0.7638 -0.4357
  645MOL0     H88996   8.041   4.185  10.899 -0.1061 -0.3468 -1.5161
  645MOL0     H88997   7.822   4.138  10.900 -2.0399 -0.0571  1.5810
  645MOL0     H88998   7.550   4.212  10.794  0.3992 -2.8960 -0.2395
  645MOL0     H88999   7.618   4.104  10.914  0.2363 -0.6532 -2.9942
  645MOL0     H89000   7.432   4.203  11.070  1.1106  0.2792 -0.4728
  645MOL0     H89001   7.362   4.097  10.937 -0.4147 -0.5426  1.5930
  645MOL0     H89002   7.370   4.396  10.973 -0.7241  0.2024  1.3739
  645MOL0     H89003   7.368   4.331  10.807  1.0873  1.1680  1.0147
  645MOL0     H89004   7.158   4.396  10.975 -0.7512  0.2978 -1.3306
  645MOL0     H89005   7.180   4.231  11.020  4.5079  0.1642  0.8066
  645MOL0     H89006   7.014   4.241  10.618  1.9712 -2.1036  0.0002
  645MOL0     H89007   7.715   4.553  10.932 -2.4635 -1.1309 -2.9532
  645MOL0     H89008   8.051   4.682  10.923  1.4449 -3.6215 -0.8668
  645MOL0     H89009   7.944   4.691  10.776  0.2410  0.5028 -0.1423
  645MOL0     H89010   7.888   4.716  10.939  0.3594 -0.5547  0.9506
  646MOL0     O89011  10.925   3.258   6.631 -0.4833  0.0416 -0.1077
  646MOL0     C89012  10.850   3.178   6.685 -0.6841  0.4281 -0.0874
  646MOL0     O89013  10.895   3.089   6.785  0.5329  0.5037  0.4587
  646MOL0     C89014  11.017   3.113   6.847 -0.7922 -0.4875 -0.0118
  646MOL0     C89015  11.022   3.131   6.989  0.5270  0.1943  0.4137
  646MOL0     C89016  11.145   3.160   7.050  0.7088  0.7818  0.1284
  646MOL0     C89017  11.267   3.166   6.987 -0.0919  0.1908  1.2334
  646MOL0     O89018  11.387   3.197   7.039  0.3592 -0.7748 -0.7406
  646MOL0     C89019  11.404   3.159   7.177  0.2190  0.2751  0.1262
  646MOL0     C89020  11.555   3.181   7.201  0.5067  0.0661 -0.7777
  646MOL0     C89021  11.577   3.142   7.346 -0.8423  0.7348 -0.0940
  646MOL0     C89022  11.727   3.089   7.353 -0.8765  1.2352  0.8313
  646MOL0     C89023  11.772   3.043   7.486  0.1924  0.0175 -0.0341
  646MOL0     C89024  11.910   2.974   7.470 -0.0998 -0.4423  0.1763
  646MOL0     C89025  11.973   2.918   7.598  0.5948  0.2586  0.1949
  646MOL0     C89026  12.097   2.837   7.579 -0.3310 -0.5069  1.0951
  646MOL0     N89027  12.188   2.846   7.689  0.8772  0.6376 -0.2493
  646MOL0     C89028  12.275   2.953   7.716  0.4186  0.6907  0.4123
  646MOL0     C89029  12.314   2.925   7.842  0.2247 -0.4808  0.6489
  646MOL0     C89030  12.395   3.005   7.931  0.4707  0.0076  0.0028
  646MOL0     C89031  12.543   2.967   7.909 -0.0804 -1.0067 -0.6362
  646MOL0     C89032  12.641   3.034   8.011 -0.6935  0.4202 -0.0236
  646MOL0     C89033  12.787   3.008   7.999  0.2882  0.2192 -0.0749
  646MOL0     O89034  12.841   3.041   7.865  0.9726  0.2192  0.0896
  646MOL0     C89035  12.976   3.047   7.846  0.1099 -1.0574 -0.3580
  646MOL0     C89036  13.018   3.072   7.716  0.0389 -0.7399 -0.7834
  646MOL0     C89037  13.154   3.063   7.678 -0.0933  0.0959 -0.4173
  646MOL0     C89038  13.178   3.047   7.529  0.0466  0.7951 -0.4006
  646MOL0     C89039  13.254   3.050   7.774 -0.6855 -0.0941  0.6392
  646MOL0     C89040  13.405   3.061   7.747 -0.4950  0.2026  0.8021
  646MOL0     O89041  13.477   3.089   7.862  0.3219  0.0747  0.0822
  646MOL0     C89042  13.607   3.119   7.852 -0.5270 -0.1868 -0.3003
  646MOL0     C89043  13.702   3.084   7.944 -1.0059  0.6641  0.1565
  646MOL0     C89044  13.837   3.116   7.928 -0.2215  0.5393  0.0880
  646MOL0     C89045  13.871   3.201   7.828 -0.4621 -0.5082 -0.3775
  646MOL0     O89046  14.004   3.242   7.827  0.7245 -0.6597  0.2627
  646MOL0     C89047  14.065   3.295   7.705  0.1372 -0.4274 -0.3712
  646MOL0     C89048  14.215   3.296   7.709  0.0751 -1.1547  0.0846
  646MOL0     C89049  14.280   3.343   7.583 -0.6397 -0.2255 -0.2201
  646MOL0     C89050  14.429   3.331   7.586 -0.5576  0.6110  0.1395
  646MOL0     C89051  14.503   3.354   7.449  0.3282  0.8707 -1.4430
  646MOL0     C89052  14.507   3.503   7.402  0.0257 -0.5884  0.2846
  646MOL0     C89053  14.610   3.507   7.293 -0.3141  0.1931  0.2632
  646MOL0     C89054  14.571   3.430   7.166  0.5792  0.1253 -0.3899
  646MOL0    Cl89055  14.683   3.476   7.033  0.1628  0.1247  0.0681
  646MOL0     C89056  13.773   3.252   7.740 -1.4168  0.0929  0.6978
  646MOL0     C89057  13.648   3.209   7.758  0.4158  0.4157  0.5812
  646MOL0     O89058  13.456   3.031   7.641 -0.0483  0.6059 -0.4003
  646MOL0     C89059  13.207   3.023   7.906 -0.8944  0.7704 -0.2476
  646MOL0     C89060  13.072   3.015   7.945 -0.0305 -0.5128 -0.3915
  646MOL0     N89061  12.258   2.809   7.883 -0.3602  0.4602 -0.2193
  646MOL0     N89062  12.179   2.764   7.800 -0.7834  0.1408  0.4283
  646MOL0     C89063  11.260   3.152   6.849  0.3356  0.1576  0.0626
  646MOL0     C89064  11.139   3.128   6.782  0.4745  0.7548  0.3083
  646MOL0     C89065  10.738   3.142   6.619  0.6054  0.3423  0.2244
  646MOL0     C89066  10.735   3.003   6.589 -0.5470 -0.0824  1.0587
  646MOL0     C89067  10.616   2.962   6.525 -0.3420  0.1019 -0.3059
  646MOL0     C89068  10.511   3.045   6.497  0.1164 -0.5400 -0.0436
  646MOL0     O89069  10.391   2.998   6.447 -0.0097  0.4015 -0.2921
  646MOL0     C89070  10.390   2.861   6.389  0.1224 -0.0421  0.2136
  646MOL0     C89071  10.249   2.830   6.347  0.2862 -0.2233 -0.4108
  646MOL0     C89072  10.167   2.826   6.477 -0.1796  0.4827  0.3668
  646MOL0     C89073  10.030   2.772   6.435 -0.5470  1.1202 -0.6420
  646MOL0     C89074   9.940   2.742   6.549 -0.0444 -0.2104 -0.1282
  646MOL0     C89075   9.859   2.704   6.627  0.6355 -0.3131  0.3276
  646MOL0     C89076  10.522   3.177   6.523  0.5319  0.8618  0.0907
  646MOL0     C89077  10.633   3.232   6.586 -0.1489  0.2541 -0.4217
  646MOL0     C89078  10.640   3.380   6.633 -0.3297  0.4009  0.6432
  646MOL0     H89079  10.930   3.138   7.046  0.4548  1.8068  0.1444
  646MOL0     H89080  11.145   3.175   7.158 -2.4284  1.5179  0.1128
  646MOL0     H89081  11.370   3.056   7.193  2.0886  0.0846  4.1261
  646MOL0     H89082  11.346   3.218   7.248 -0.2147  0.2911 -0.2339
  646MOL0     H89083  11.609   3.113   7.134  0.7692 -1.5718  1.0032
  646MOL0     H89084  11.587   3.282   7.174 -1.0373  0.5685 -0.8249
  646MOL0     H89085  11.566   3.230   7.410 -2.9983 -0.2837  1.0440
  646MOL0     H89086  11.513   3.064   7.387  2.3839 -1.7950  0.5761
  646MOL0     H89087  11.742   3.010   7.279  0.7950 -0.2161  2.6028
  646MOL0     H89088  11.799   3.165   7.319 -0.0349 -0.7502 -2.2471
  646MOL0     H89089  11.692   2.976   7.517 -1.1198  1.4603 -0.2054
  646MOL0     H89090  11.784   3.123   7.560 -1.2244  1.7000 -1.5116
  646MOL0     H89091  11.906   2.892   7.398 -0.0813 -0.9495  0.7451
  646MOL0     H89092  11.979   3.055   7.446  0.7793 -1.0512  0.6028
  646MOL0     H89093  11.905   2.858   7.660  0.1078  1.0068  0.3923
  646MOL0     H89094  11.999   3.004   7.659 -2.4227  1.8112 -0.5042
  646MOL0     H89095  12.067   2.732   7.568 -3.7634  0.4075  0.2662
  646MOL0     H89096  12.149   2.867   7.488 -0.0634 -0.5583  1.2316
  646MOL0     H89097  12.301   3.040   7.657  1.1553 -1.1419 -2.1245
  646MOL0     H89098  12.359   2.986   8.032  2.5476 -2.1006  0.4493
  646MOL0     H89099  12.380   3.111   7.907 -0.7715 -0.2569 -0.4756
  646MOL0     H89100  12.566   2.862   7.930 -0.1052 -0.4934  2.3404
  646MOL0     H89101  12.577   2.991   7.808  0.7401 -0.4037 -0.2301
  646MOL0     H89102  12.621   3.142   8.007  0.6282  0.6799  0.0156
  646MOL0     H89103  12.616   2.999   8.112 -0.6151  1.1946  0.2705
  646MOL0     H89104  12.827   3.070   8.080  0.8157  1.0826 -0.9925
  646MOL0     H89105  12.814   2.903   8.013  1.5899  0.3324 -1.5655
  646MOL0     H89106  12.941   3.085   7.641 -0.7605 -0.7145  0.0233
  646MOL0     H89107  13.247   2.966   7.503  1.2583  1.0584  1.7471
  646MOL0     H89108  13.203   3.139   7.475  0.1091  2.4784  2.3091
  646MOL0     H89109  13.085   3.010   7.485 -0.7664 -2.0703  3.2336
  646MOL0     H89110  13.682   3.018   8.028  1.2454 -0.4838 -0.1479
  646MOL0     H89111  13.904   3.074   8.003  0.6026 -0.5973 -1.2329
  646MOL0     H89112  14.037   3.237   7.617  1.6814  0.0551 -1.2239
  646MOL0     H89113  14.041   3.401   7.692  0.0960 -0.3279  0.4286
  646MOL0     H89114  14.251   3.344   7.801 -2.7902 -0.3572  0.8946
  646MOL0     H89115  14.250   3.194   7.732  1.5638 -0.7740 -0.4129
  646MOL0     H89116  14.252   3.448   7.565  3.8679  1.0600 -1.0557
  646MOL0     H89117  14.247   3.279   7.501  1.4501 -0.8912 -0.5753
  646MOL0     H89118  14.444   3.225   7.610 -0.8159  0.9447  1.8607
  646MOL0     H89119  14.466   3.410   7.651  3.9190  0.3698 -1.7320
  646MOL0     H89120  14.599   3.304   7.464  1.2772  1.7789 -4.0338
  646MOL0     H89121  14.451   3.294   7.374  0.0709  0.8781 -1.2731
  646MOL0     H89122  14.530   3.571   7.485 -1.4327  2.1315 -1.4005
  646MOL0     H89123  14.410   3.530   7.360  1.0586 -1.1333 -2.6438
  646MOL0     H89124  14.711   3.476   7.321  0.7719  3.5974  0.5698
  646MOL0     H89125  14.623   3.610   7.259  1.4715  0.7268  2.3574
  646MOL0     H89126  14.469   3.456   7.133 -1.0606 -2.7258  1.9808
  646MOL0     H89127  14.566   3.322   7.181 -3.4994  0.2476  0.3537
  646MOL0     H89128  13.800   3.316   7.657  0.1160 -0.7640  0.4895
  646MOL0     H89129  13.579   3.251   7.686 -0.2800 -1.4921  0.0779
  646MOL0     H89130  13.283   3.000   7.980 -0.1340 -0.6160 -1.4186
  646MOL0     H89131  13.048   2.984   8.046  1.9240  3.2794  1.4508
  646MOL0     H89132  11.344   3.156   6.780 -1.5046  1.6428 -2.2635
  646MOL0     H89133  11.122   3.107   6.677  1.5830 -6.1253  0.9908
  646MOL0     H89134  10.817   2.933   6.605 -0.3062  0.1789  0.9867
  646MOL0     H89135  10.612   2.858   6.494 -1.1144  0.7507 -2.5674
  646MOL0     H89136  10.459   2.850   6.305  0.1482 -1.5425  0.4089
  646MOL0     H89137  10.414   2.791   6.469 -1.0777 -0.9478 -0.1854
  646MOL0     H89138  10.259   2.732   6.299 -1.7390 -0.3685 -0.6378
  646MOL0     H89139  10.216   2.911   6.280 -2.0724 -1.5503 -0.9782
  646MOL0     H89140  10.209   2.750   6.544 -0.4146  1.0991  1.2301
  646MOL0     H89141  10.172   2.923   6.526  0.4048  1.1032 -0.8997
  646MOL0     H89142  10.044   2.682   6.375  1.0140 -0.5060  1.9794
  646MOL0     H89143   9.974   2.841   6.372 -3.3109 -0.0487  0.3883
  646MOL0     H89144   9.781   2.674   6.694  0.4679 -0.8420 -0.1013
  646MOL0     H89145  10.441   3.249   6.513  0.7833  1.2534  0.7798
  646MOL0     H89146  10.553   3.431   6.593 -0.6591 -0.4157  0.2969
  646MOL0     H89147  10.652   3.386   6.742  0.2752 -0.7183  0.6586
  646MOL0     H89148  10.720   3.429   6.576  0.8473 -1.1807  0.8404
  647MOL0     O89149   2.341   0.638   2.729 -0.1218 -0.6510  0.5406
  647MOL0     C89150   2.335   0.524   2.760  0.0438  0.3239  0.1248
  647MOL0     O89151   2.445   0.445   2.780 -0.0087  0.3654 -0.4439
  647MOL0     C89152   2.575   0.505   2.798 -0.4866  0.9813 -0.3703
  647MOL0     C89153   2.687   0.420   2.783  0.1198 -0.5916  0.5939
  647MOL0     C89154   2.817   0.464   2.789  0.2382  0.4721 -1.5143
  647MOL0     C89155   2.844   0.596   2.845 -0.0083  0.2543  0.1639
  647MOL0     O89156   2.972   0.642   2.884  0.4845  0.2546  0.4272
  647MOL0     C89157   3.087   0.563   2.862  0.6627  0.7470 -0.1199
  647MOL0     C89158   3.197   0.647   2.930  0.3848 -0.0567  1.0448
  647MOL0     C89159   3.338   0.588   2.916  0.5464  0.6353 -0.4395
  647MOL0     C89160   3.438   0.620   3.029  0.4720 -0.6453  0.0454
  647MOL0     C89161   3.447   0.771   3.058  0.4864  0.0913 -0.2203
  647MOL0     C89162   3.581   0.807   3.112 -0.3758 -0.2582 -0.7045
  647MOL0     C89163   3.592   0.960   3.151 -0.0981  0.4896 -0.0448
  647MOL0     C89164   3.568   1.063   3.033  0.4134  0.4458  1.0819
  647MOL0     N89165   3.691   1.078   2.948 -0.8443  0.0738 -0.2464
  647MOL0     C89166   3.808   1.136   2.995 -0.8969  0.5430 -0.0225
  647MOL0     C89167   3.905   1.103   2.905  0.5770  0.0815  0.5854
  647MOL0     C89168   4.048   1.136   2.912  0.1920  0.5481 -0.1481
  647MOL0     C89169   4.125   1.018   2.970 -1.0072  0.1621 -0.2214
  647MOL0     C89170   4.260   1.070   3.033 -0.3401  0.4452 -0.0341
  647MOL0     C89171   4.337   1.177   2.953 -0.0054  0.2052 -0.6885
  647MOL0     O89172   4.351   1.117   2.826  0.6986  0.5659 -0.3112
  647MOL0     C89173   4.408   1.194   2.727  0.7941 -0.2443 -0.3326
  647MOL0     C89174   4.404   1.143   2.596 -0.0387 -0.1570  0.1855
  647MOL0     C89175   4.470   1.193   2.488 -0.2571  0.4034 -0.5506
  647MOL0     C89176   4.454   1.130   2.359  0.1414 -0.3264  0.0668
  647MOL0     C89177   4.544   1.312   2.510  0.1328 -0.1485  0.8079
  647MOL0     C89178   4.633   1.390   2.409 -0.9751 -0.2011  0.6441
  647MOL0     O89179   4.656   1.530   2.419 -0.6559  0.4307  0.2531
  647MOL0     C89180   4.752   1.571   2.321 -0.4532  0.5174 -0.8246
  647MOL0     C89181   4.719   1.590   2.183 -0.8938  1.1707 -0.3799
  647MOL0     C89182   4.824   1.629   2.093 -0.3272  0.4244 -0.3985
  647MOL0     C89183   4.947   1.674   2.144  0.3754  0.1407  0.2710
  647MOL0     O89184   5.047   1.718   2.064 -0.2043 -0.3343 -0.3327
  647MOL0     C89185   5.046   1.692   1.921 -0.7674 -0.7528 -0.2423
  647MOL0     C89186   4.976   1.796   1.836  0.0398 -0.4558  0.0324
  647MOL0     C89187   5.044   1.932   1.853 -0.1128 -0.6848  0.4622
  647MOL0     C89188   5.029   2.023   1.724 -0.0554  0.0554  0.4765
  647MOL0     C89189   5.103   2.152   1.740 -0.1580  0.6943 -0.1359
  647MOL0     C89190   5.095   2.242   1.621 -0.0340  0.4588  0.0454
  647MOL0     C89191   5.201   2.216   1.519 -0.1605  0.0478 -0.5726
  647MOL0     C89192   5.219   2.334   1.419  0.6951 -0.2846 -0.6860
  647MOL0    Cl89193   5.283   2.473   1.510 -0.2406 -0.5751  0.1613
  647MOL0     C89194   4.966   1.666   2.282 -1.8522  0.0595  0.4536
  647MOL0     C89195   4.870   1.622   2.368  0.4425 -0.1842 -0.0188
  647MOL0     O89196   4.683   1.316   2.326 -0.0463 -0.1339 -0.5418
  647MOL0     C89197   4.552   1.368   2.641  0.1980  0.4927 -0.6028
  647MOL0     C89198   4.481   1.310   2.743 -0.0736  0.1241  0.0598
  647MOL0     N89199   3.845   1.023   2.808  0.0834 -0.2464  0.3285
  647MOL0     N89200   3.722   1.004   2.834  0.0406 -0.9431  0.4092
  647MOL0     C89201   2.734   0.681   2.857 -0.4546 -0.4400 -0.3525
  647MOL0     C89202   2.603   0.636   2.845 -0.2892  0.5891 -0.5159
  647MOL0     C89203   2.214   0.445   2.786  0.0217  0.0667 -1.4132
  647MOL0     C89204   2.220   0.302   2.799 -0.2574 -0.3748 -0.0942
  647MOL0     C89205   2.107   0.224   2.816 -0.2932  0.0669  0.2807
  647MOL0     C89206   1.974   0.282   2.824  0.1977  0.3256 -0.7164
  647MOL0     O89207   1.865   0.202   2.839  0.1892 -0.6055 -0.2063
  647MOL0     C89208   1.737   0.259   2.813  0.7051 -0.1770  0.2145
  647MOL0     C89209   1.715   0.295   2.661  0.6990 -0.1123  0.2358
  647MOL0     C89210   1.575   0.367   2.639  1.1947 -0.3621  0.5519
  647MOL0     C89211   1.594   0.505   2.580  0.0685 -0.4218 -0.3703
  647MOL0     C89212   1.635   0.614   2.674  0.2421  0.0716  0.0693
  647MOL0     C89213   1.669   0.706   2.749  0.2361  0.0723 -0.3688
  647MOL0     C89214   1.976   0.426   2.838  0.7309  0.2865  0.1457
  647MOL0     C89215   2.086   0.508   2.811 -0.0225 -0.4394 -0.4767
  647MOL0     C89216   2.071   0.656   2.819 -0.2692 -1.0822  0.0920
  647MOL0     H89217   2.677   0.313   2.766  2.9983 -0.9661  0.7510
  647MOL0     H89218   2.907   0.404   2.779 -0.9568 -2.0249  1.1620
  647MOL0     H89219   3.111   0.532   2.760 -0.9496  0.5147 -0.4443
  647MOL0     H89220   3.090   0.467   2.914  1.6998  1.2105  0.7243
  647MOL0     H89221   3.204   0.744   2.880  1.6884 -0.4088  0.5020
  647MOL0     H89222   3.166   0.656   3.035 -0.7085 -0.2053  0.7426
  647MOL0     H89223   3.326   0.479   2.912 -1.5146  0.8399 -0.8631
  647MOL0     H89224   3.388   0.619   2.824 -0.6362  0.0345 -1.3209
  647MOL0     H89225   3.407   0.582   3.127  1.5302 -1.3294  0.1325
  647MOL0     H89226   3.533   0.576   3.000  1.1089  0.2854  0.6818
  647MOL0     H89227   3.371   0.796   3.132 -0.9519  1.0974 -1.9577
  647MOL0     H89228   3.426   0.828   2.968  1.1538  2.8126  1.2366
  647MOL0     H89229   3.601   0.749   3.203 -1.7634  0.9180  0.4029
  647MOL0     H89230   3.665   0.783   3.047  0.4289 -1.3210  0.6775
  647MOL0     H89231   3.683   0.994   3.201  0.0073  1.2352 -0.7255
  647MOL0     H89232   3.514   0.967   3.228 -0.6717  1.5263 -0.7000
  647MOL0     H89233   3.488   1.033   2.965 -0.5386  0.4408  2.1784
  647MOL0     H89234   3.528   1.159   3.066 -1.4021 -0.4350  1.5813
  647MOL0     H89235   3.830   1.210   3.072 -1.8466 -0.9080  1.7242
  647MOL0     H89236   4.057   1.218   2.984 -3.4953  0.4871  0.5776
  647MOL0     H89237   4.092   1.165   2.817  0.3925  3.3801  0.7406
  647MOL0     H89238   4.064   0.966   3.044 -2.0196 -1.1482 -1.9212
  647MOL0     H89239   4.158   0.943   2.898 -1.3097 -1.0517  0.8588
  647MOL0     H89240   4.234   1.112   3.131 -1.4715 -1.1565  0.3854
  647MOL0     H89241   4.326   0.988   3.062 -2.6308 -1.3143  0.5290
  647MOL0     H89242   4.286   1.273   2.954 -1.4163 -0.5229  0.5918
  647MOL0     H89243   4.436   1.190   2.998  1.8619 -2.6841 -3.4883
  647MOL0     H89244   4.342   1.054   2.588 -1.2420  0.7392 -0.6807
  647MOL0     H89245   4.455   1.209   2.283 -2.9821  0.5740  0.8346
  647MOL0     H89246   4.362   1.071   2.358 -0.0329 -0.0998  1.4305
  647MOL0     H89247   4.536   1.057   2.356  0.3853 -0.2841  2.9289
  647MOL0     H89248   4.616   1.573   2.156 -1.6765 -1.7382  3.4768
  647MOL0     H89249   4.808   1.631   1.986  1.4878  1.0221 -0.6892
  647MOL0     H89250   5.146   1.679   1.879 -1.5262  1.2423 -2.9494
  647MOL0     H89251   4.996   1.596   1.910  0.3270 -1.7433  2.4133
  647MOL0     H89252   4.978   1.759   1.733  1.9650 -2.7402  0.8032
  647MOL0     H89253   4.874   1.815   1.869  1.0625  1.6193  2.2779
  647MOL0     H89254   5.150   1.922   1.877  0.6297  1.5999 -1.4761
  647MOL0     H89255   4.995   1.981   1.937  2.5745  1.3256  0.9745
  647MOL0     H89256   4.923   2.039   1.702  0.1622  0.7020 -0.1533
  647MOL0     H89257   5.070   1.973   1.636  0.3000 -0.1520  0.7567
  647MOL0     H89258   5.052   2.205   1.822  0.2823  0.5191  0.2525
  647MOL0     H89259   5.207   2.145   1.773  0.0833 -1.9501 -1.2640
  647MOL0     H89260   5.112   2.347   1.645 -0.2635  1.0335 -2.0950
  647MOL0     H89261   4.991   2.236   1.585 -1.1703  0.6187  2.9719
  647MOL0     H89262   5.181   2.122   1.466 -0.4216 -0.8169  0.9878
  647MOL0     H89263   5.295   2.198   1.571 -0.4755  0.8486  0.2937
  647MOL0     H89264   5.119   2.359   1.382  0.1685  1.6870  1.7989
  647MOL0     H89265   5.277   2.303   1.332 -1.5479  1.1849 -2.8631
  647MOL0     H89266   5.061   1.706   2.316 -1.7021  0.7578 -0.7386
  647MOL0     H89267   4.883   1.627   2.475  2.5569 -3.4682  0.0271
  647MOL0     H89268   4.605   1.462   2.657 -0.3171  0.3116  2.8900
  647MOL0     H89269   4.489   1.359   2.839 -0.6239  0.4174 -0.0374
  647MOL0     H89270   2.756   0.784   2.881 -2.6039 -0.2089  0.9732
  647MOL0     H89271   2.519   0.701   2.868  0.1719  0.2640  2.4929
  647MOL0     H89272   2.314   0.248   2.790 -1.0096 -2.3077  2.4110
  647MOL0     H89273   2.119   0.116   2.815  1.7020  0.2247 -2.3166
  647MOL0     H89274   1.665   0.189   2.858  2.7223 -1.6737  1.2914
  647MOL0     H89275   1.721   0.343   2.882  2.6022 -0.2450  0.8040
  647MOL0     H89276   1.717   0.205   2.600  1.3944  0.3481 -0.4292
  647MOL0     H89277   1.797   0.359   2.626  0.5644  0.2356  0.5509
  647MOL0     H89278   1.519   0.309   2.565  0.9362 -1.3974  1.5198
  647MOL0     H89279   1.513   0.371   2.730 -0.3208 -0.3537 -0.4453
  647MOL0     H89280   1.500   0.535   2.533  0.4151  0.3969 -0.5604
  647MOL0     H89281   1.676   0.500   2.507  1.0842  2.0451  0.4822
  647MOL0     H89282   1.686   0.791   2.812 -0.7409  0.4549 -0.5883
  647MOL0     H89283   1.889   0.479   2.877 -1.7762 -1.7366 -2.2807
  647MOL0     H89284   2.158   0.704   2.864 -2.1432  1.1054  1.5992
  647MOL0     H89285   2.056   0.699   2.719 -2.4552 -1.9714 -0.0184
  647MOL0     H89286   1.992   0.698   2.881 -0.3916  0.7079 -1.1951
  648MOL0     O89287   4.458   8.121  10.568 -0.3519 -0.8330  0.2535
  648MOL0     C89288   4.439   8.003  10.579 -0.4548 -0.7163 -0.4017
  648MOL0     O89289   4.534   7.909  10.626  0.5891  0.1614  0.0762
  648MOL0     C89290   4.653   7.965  10.650  0.0603  0.8102 -0.5571
  648MOL0     C89291   4.680   8.021  10.777 -0.2829 -0.0614 -0.1339
  648MOL0     C89292   4.799   8.084  10.807 -0.3315  0.2655  0.2860
  648MOL0     C89293   4.903   8.078  10.717 -0.4609 -0.7097  1.1929
  648MOL0     O89294   5.021   8.131  10.764  0.0865 -0.6444  0.6600
  648MOL0     C89295   5.140   8.119  10.676 -0.0660  0.0819 -0.3878
  648MOL0     C89296   5.253   8.211  10.740 -0.0823  0.6595 -0.0095
  648MOL0     C89297   5.397   8.185  10.685  0.6909 -0.6504 -0.0550
  648MOL0     C89298   5.505   8.273  10.757  0.2615 -0.2714  0.0426
  648MOL0     C89299   5.639   8.263  10.680 -0.4882  0.0081  0.1967
  648MOL0     C89300   5.743   8.340  10.765  1.2058 -0.3865 -0.6482
  648MOL0     C89301   5.890   8.354  10.705 -0.1403 -0.2817  0.0360
  648MOL0     C89302   5.947   8.209  10.689 -0.0927  0.9861 -0.6024
  648MOL0     N89303   6.070   8.214  10.611 -0.0484  0.1581  0.3714
  648MOL0     C89304   6.102   8.115  10.519 -1.3011 -0.1954  0.0188
  648MOL0     C89305   6.237   8.132  10.500  0.3588 -0.0124  0.3681
  648MOL0     C89306   6.322   8.051  10.403  0.5071  0.0030 -0.8276
  648MOL0     C89307   6.245   7.957  10.317  0.1118  0.1300  1.0669
  648MOL0     C89308   6.345   7.884  10.221 -0.3217  0.5510 -0.1280
  648MOL0     C89309   6.370   7.958  10.094 -0.0630  0.1903  0.3264
  648MOL0     O89310   6.497   7.924  10.033 -0.1874  0.0749 -0.3099
  648MOL0     C89311   6.623   7.933  10.086  0.9068 -0.6933  0.6677
  648MOL0     C89312   6.658   7.994  10.210  0.0308  0.1224 -0.5615
  648MOL0     C89313   6.791   8.025  10.246 -0.2298  0.1735 -0.2377
  648MOL0     C89314   6.816   8.092  10.381  0.3375 -0.4447  0.7140
  648MOL0     C89315   6.895   7.973  10.159  0.0209 -0.0439 -0.0585
  648MOL0     C89316   7.034   7.991  10.192  0.2061 -0.1459  0.2072
  648MOL0     O89317   7.129   7.910  10.134  0.1558  0.8349 -0.4605
  648MOL0     C89318   7.255   7.951  10.111 -1.1823  0.1789  0.0967
  648MOL0     C89319   7.360   7.856  10.122  0.1540  0.1516 -0.9675
  648MOL0     C89320   7.494   7.897  10.093  0.5636 -0.5493  0.4857
  648MOL0     C89321   7.529   8.029  10.061 -0.8410  0.4044 -0.0098
  648MOL0     O89322   7.664   8.062  10.050  0.0500  0.5402 -0.3047
  648MOL0     C89323   7.689   8.186   9.987  0.7075  0.1153 -0.3151
  648MOL0     C89324   7.837   8.193   9.935  0.0980  0.3418  0.7781
  648MOL0     C89325   7.937   8.114  10.027 -0.6018  0.6877 -0.0831
  648MOL0     C89326   8.083   8.149   9.981  0.0586  0.0632 -0.6318
  648MOL0     C89327   8.177   8.069  10.081  1.2086 -0.3400  0.6101
  648MOL0     C89328   8.319   8.122  10.074  0.3149 -0.7558  0.1439
  648MOL0     C89329   8.403   8.040  10.165  0.5782  0.0361 -0.3125
  648MOL0     C89330   8.546   8.086  10.162  0.0885  0.4773  0.7282
  648MOL0    Cl89331   8.650   7.964  10.246 -0.0171 -0.0005 -0.0722
  648MOL0     C89332   7.426   8.125  10.064 -0.6352  0.6708 -0.6916
  648MOL0     C89333   7.294   8.088  10.078  0.1075  0.1799 -0.4992
  648MOL0     O89334   7.067   8.094  10.248 -0.4097 -0.4244  0.3380
  648MOL0     C89335   6.858   7.907  10.047  0.2626 -0.6346  0.2913
  648MOL0     C89336   6.725   7.889  10.011  0.0695 -0.4821 -0.5560
  648MOL0     N89337   6.280   8.227  10.585 -0.4703 -0.1302 -0.4975
  648MOL0     N89338   6.185   8.271  10.656  0.9144  1.2477  0.2275
  648MOL0     C89339   4.887   8.021  10.587  0.5622 -0.3845  0.2625
  648MOL0     C89340   4.757   7.969  10.559 -0.0845  0.9277 -0.6532
  648MOL0     C89341   4.307   7.944  10.559 -1.1671 -0.3846 -0.1317
  648MOL0     C89342   4.202   8.041  10.541  0.2776  0.1508  0.2783
  648MOL0     C89343   4.073   8.009  10.520  0.2096  0.0618 -1.3046
  648MOL0     C89344   4.038   7.873  10.509  0.2112  0.1092  0.4804
  648MOL0     O89345   3.903   7.839  10.521  0.0937 -0.2385 -0.1948
  648MOL0     C89346   3.843   7.816  10.649  0.3104 -0.5669  0.8808
  648MOL0     C89347   3.806   7.942  10.720  0.0397 -0.4929 -0.2143
  648MOL0     C89348   3.716   8.032  10.633  0.6904 -0.2185 -0.0938
  648MOL0     C89349   3.577   7.977  10.614  0.2164  0.4242 -0.1582
  648MOL0     C89350   3.510   7.945  10.735 -0.1639 -0.1997 -0.0462
  648MOL0     C89351   3.457   7.897  10.839 -0.8442 -0.3373 -0.2454
  648MOL0     C89352   4.136   7.772  10.530  0.7755  0.4765  0.3203
  648MOL0     C89353   4.271   7.808  10.551  0.1570  0.5238  0.0678
  648MOL0     C89354   4.364   7.688  10.567  0.0620 -0.2258 -0.5402
  648MOL0     H89355   4.600   8.013  10.850 -2.5762 -1.1826 -2.6222
  648MOL0     H89356   4.817   8.119  10.908  0.7668 -1.6943  0.8278
  648MOL0     H89357   5.106   8.165  10.583 -0.1175  0.0042 -0.4065
  648MOL0     H89358   5.163   8.014  10.658 -4.2188 -0.5728 -3.1706
  648MOL0     H89359   5.230   8.317  10.732  0.7705  0.8596  0.1304
  648MOL0     H89360   5.260   8.195  10.848 -0.4883  0.8500  0.0472
  648MOL0     H89361   5.418   8.078  10.696  6.2485  0.2883  1.7851
  648MOL0     H89362   5.404   8.206  10.578  0.2747 -0.5784 -0.0699
  648MOL0     H89363   5.465   8.375  10.757 -1.1533 -0.7512  2.0165
  648MOL0     H89364   5.505   8.239  10.861 -2.4920 -3.0916 -0.7032
  648MOL0     H89365   5.636   8.312  10.583 -2.1193  1.8352  1.1054
  648MOL0     H89366   5.675   8.161  10.666  2.8740  0.8389  1.8879
  648MOL0     H89367   5.702   8.440  10.784 -1.5945 -0.6214 -4.2830
  648MOL0     H89368   5.742   8.285  10.859 -0.6978 -0.4871 -0.6811
  648MOL0     H89369   5.952   8.417  10.769 -0.3361  0.7452 -0.7695
  648MOL0     H89370   5.893   8.406  10.609 -4.1224 -0.7443 -0.4914
  648MOL0     H89371   5.962   8.168  10.790 -1.2418 -0.1601 -0.8702
  648MOL0     H89372   5.889   8.135  10.632  0.9250  0.4495 -0.9670
  648MOL0     H89373   6.043   8.034  10.478 -1.5053 -0.5461  0.9740
  648MOL0     H89374   6.388   7.990  10.466 -1.8050 -0.6896  1.0967
  648MOL0     H89375   6.381   8.117  10.339 -0.4615  1.3806 -0.3512
  648MOL0     H89376   6.195   7.879  10.374  0.7649 -0.8132  0.3774
  648MOL0     H89377   6.175   8.010  10.252 -0.0790 -1.5196 -0.1259
  648MOL0     H89378   6.437   7.866  10.276 -1.5686  1.5652  2.4598
  648MOL0     H89379   6.305   7.784  10.201  2.2329 -0.8739  1.4757
  648MOL0     H89380   6.287   7.959  10.023 -0.9548  0.3437  1.3486
  648MOL0     H89381   6.374   8.063  10.122 -0.8077  0.2360  0.2889
  648MOL0     H89382   6.579   8.042  10.266 -0.4927  0.2617 -1.3945
  648MOL0     H89383   6.814   8.199  10.361 -1.4077 -0.7774 -1.2542
  648MOL0     H89384   6.913   8.060  10.420  0.3236 -1.0406  0.2791
  648MOL0     H89385   6.740   8.077  10.457  0.5715 -2.7348  0.5779
  648MOL0     H89386   7.351   7.749  10.141 -1.3133  0.2798 -0.8363
  648MOL0     H89387   7.572   7.821  10.086 -0.2267 -1.3176 -0.0695
  648MOL0     H89388   7.630   8.207   9.898 -2.0339  2.9123  1.8975
  648MOL0     H89389   7.673   8.265  10.062 -2.8234 -0.2176 -0.5426
  648MOL0     H89390   7.855   8.153   9.835  3.1367  2.6314  0.2501
  648MOL0     H89391   7.868   8.297   9.916  0.9015 -0.0966 -0.4459
  648MOL0     H89392   7.920   8.006  10.021 -2.4551  0.8521  1.4015
  648MOL0     H89393   7.919   8.149  10.129 -2.3664 -0.4220  0.0425
  648MOL0     H89394   8.093   8.258   9.989 -1.8217  0.3872 -1.9886
  648MOL0     H89395   8.103   8.114   9.879 -1.0051 -1.4872 -0.3434
  648MOL0     H89396   8.147   8.075  10.186 -0.2165 -1.8156  0.3331
  648MOL0     H89397   8.159   7.964  10.054 -0.6105 -0.3968  1.8773
  648MOL0     H89398   8.334   8.228  10.096  0.7162 -1.3802  3.3982
  648MOL0     H89399   8.356   8.110   9.971  1.1393  0.3573  0.2818
  648MOL0     H89400   8.390   7.936  10.132 -0.1499 -0.0085  0.0752
  648MOL0     H89401   8.382   8.031  10.272  1.0665  1.8046 -0.0321
  648MOL0     H89402   8.552   8.186  10.206 -0.6341  0.8955 -0.1015
  648MOL0     H89403   8.578   8.087  10.058  1.0208 -0.0874  1.0034
  648MOL0     H89404   7.455   8.230  10.058 -0.4154  0.5709 -1.6671
  648MOL0     H89405   7.216   8.164  10.070 -2.0475 -2.0973 -4.5690
  648MOL0     H89406   6.935   7.868   9.981  1.3041 -1.4623  1.9248
  648MOL0     H89407   6.700   7.838   9.919 -1.4403 -1.2774  0.2448
  648MOL0     H89408   4.958   8.017  10.505 -2.7954 -1.2027 -2.8569
  648MOL0     H89409   4.746   7.911  10.468 -3.3826 -0.1595  0.2771
  648MOL0     H89410   4.216   8.148  10.546  0.8142  0.3692 -3.3809
  648MOL0     H89411   3.990   8.077  10.507 -1.9762 -1.5103  2.4951
  648MOL0     H89412   3.755   7.751  10.645 -1.4270  1.5612  2.1146
  648MOL0     H89413   3.918   7.759  10.704  1.3749 -1.8130 -1.7312
  648MOL0     H89414   3.894   7.998  10.751 -0.3376  0.3615 -0.6558
  648MOL0     H89415   3.759   7.915  10.815  3.4561  1.2610  2.1978
  648MOL0     H89416   3.696   8.122  10.692 -0.9176  1.2354 -2.6786
  648MOL0     H89417   3.769   8.063  10.542  2.5142  0.9878  1.2992
  648MOL0     H89418   3.577   7.889  10.548 -1.6055  0.5547 -0.3761
  648MOL0     H89419   3.512   8.049  10.565 -2.4127 -2.4341 -1.2434
  648MOL0     H89420   3.412   7.862  10.929 -0.9658  1.0148  0.2462
  648MOL0     H89421   4.107   7.667  10.526  3.2618 -0.2760 -0.0034
  648MOL0     H89422   4.459   7.713  10.519 -0.1962 -0.4136 -1.1579
  648MOL0     H89423   4.379   7.678  10.675  0.8874  1.2892 -0.4967
  648MOL0     H89424   4.314   7.597  10.531 -1.0189 -0.4576  1.3898
  649MOL0     O89425   5.442   8.244   7.418  0.5915 -0.2840 -0.0838
  649MOL0     C89426   5.363   8.260   7.505  0.3657  0.2710 -0.0100
  649MOL0     O89427   5.368   8.357   7.610  0.2780  0.2071 -0.1781
  649MOL0     C89428   5.447   8.473   7.599  0.7188  0.5935  0.2456
  649MOL0     C89429   5.445   8.550   7.482 -0.4828  1.0588  0.4108
  649MOL0     C89430   5.531   8.657   7.469  0.3257 -0.5836  0.0751
  649MOL0     C89431   5.626   8.690   7.563 -0.5867 -0.2208 -0.0763
  649MOL0     O89432   5.708   8.797   7.532  0.1697  0.0074  0.6700
  649MOL0     C89433   5.739   8.877   7.644  0.3892  0.9576 -0.2193
  649MOL0     C89434   5.785   9.015   7.588  0.2350 -0.1696  1.2681
  649MOL0     C89435   5.925   9.000   7.529 -0.1926 -0.3546 -0.3332
  649MOL0     C89436   6.000   9.127   7.517 -0.3924  0.2641 -0.0927
  649MOL0     C89437   6.146   9.088   7.529 -0.2170 -0.6498 -1.0207
  649MOL0     C89438   6.247   9.204   7.525 -0.0062 -0.4629  0.4865
  649MOL0     C89439   6.390   9.151   7.496  0.0658 -0.9566 -0.0393
  649MOL0     C89440   6.493   9.263   7.515  0.7179  0.0057 -0.3114
  649MOL0     N89441   6.636   9.214   7.527 -0.6523 -0.5593  0.0019
  649MOL0     C89442   6.672   9.091   7.568 -0.5690  0.3678 -0.0658
  649MOL0     C89443   6.807   9.108   7.592 -0.5790  0.4952 -0.8554
  649MOL0     C89444   6.903   9.002   7.640 -0.3038 -0.3555  0.4117
  649MOL0     C89445   6.917   9.008   7.796  0.4359  0.8868 -0.3072
  649MOL0     C89446   7.009   8.896   7.848 -0.1513  0.0178 -0.3579
  649MOL0     C89447   7.157   8.905   7.785  0.5324 -0.4489 -0.2392
  649MOL0     O89448   7.228   8.817   7.867 -0.3066 -0.2108 -0.4986
  649MOL0     C89449   7.364   8.824   7.877 -0.1834 -0.3426  0.0043
  649MOL0     C89450   7.449   8.925   7.819 -0.3315  0.1766 -0.2344
  649MOL0     C89451   7.588   8.927   7.832 -0.8630 -0.1131 -0.2976
  649MOL0     C89452   7.674   9.032   7.758  0.1862 -0.1029 -0.4656
  649MOL0     C89453   7.651   8.827   7.918  0.2006  0.7721  0.3969
  649MOL0     C89454   7.798   8.804   7.938 -1.1483 -0.7584  0.5707
  649MOL0     O89455   7.845   8.681   7.984 -0.7008 -0.1975 -0.0730
  649MOL0     C89456   7.972   8.680   8.036 -0.3012 -0.0162 -0.3610
  649MOL0     C89457   8.092   8.705   7.964 -1.2073 -0.7575  0.3189
  649MOL0     C89458   8.219   8.699   8.026 -0.1306 -0.6009  0.2819
  649MOL0     C89459   8.232   8.666   8.161 -0.0682 -0.8105 -0.1044
  649MOL0     O89460   8.350   8.675   8.232 -0.0208 -1.0889 -0.2729
  649MOL0     C89461   8.467   8.723   8.166  0.8173  0.1148  0.2820
  649MOL0     C89462   8.579   8.717   8.271  0.0363 -0.2381  0.5418
  649MOL0     C89463   8.706   8.788   8.225 -0.0748  0.3107 -0.0928
  649MOL0     C89464   8.817   8.772   8.319  0.4545  0.5491  0.3121
  649MOL0     C89465   8.937   8.844   8.277 -0.4085  0.3771  0.1872
  649MOL0     C89466   9.032   8.830   8.394  0.1558 -0.0346 -0.0334
  649MOL0     C89467   9.176   8.846   8.343 -0.1211 -0.1969 -0.0890
  649MOL0     C89468   9.262   8.882   8.460 -0.7354 -0.4027  0.4086
  649MOL0    Cl89469   9.428   8.892   8.409 -0.1039 -0.1383 -0.0424
  649MOL0     C89470   8.114   8.635   8.228  0.0255 -0.3564 -0.0483
  649MOL0     C89471   7.991   8.653   8.173 -0.5030 -0.4641  0.3606
  649MOL0     O89472   7.877   8.899   7.911  0.7136 -0.9332  0.7730
  649MOL0     C89473   7.568   8.727   7.979  0.9634 -0.8844 -0.2482
  649MOL0     C89474   7.423   8.731   7.958 -0.8041  0.6365 -0.6477
  649MOL0     N89475   6.852   9.232   7.547  0.0157  0.6363 -0.3322
  649MOL0     N89476   6.744   9.299   7.535  0.2046  0.4621  0.3886
  649MOL0     C89477   5.638   8.616   7.675  1.3555 -0.6249  0.2785
  649MOL0     C89478   5.543   8.509   7.690 -0.4878 -0.4143  0.1924
  649MOL0     C89479   5.241   8.179   7.500  0.2699 -1.2453  0.3319
  649MOL0     C89480   5.123   8.244   7.556 -0.4091 -0.2113  0.2590
  649MOL0     C89481   4.993   8.190   7.564 -0.2268  0.3554 -0.2686
  649MOL0     C89482   4.975   8.068   7.509 -0.5526  0.2821  0.2522
  649MOL0     O89483   4.847   8.015   7.519 -1.0812 -0.4094 -0.2354
  649MOL0     C89484   4.807   7.897   7.451 -0.3911 -0.3682  0.2926
  649MOL0     C89485   4.697   7.816   7.518  0.6878  0.0336 -0.2895
  649MOL0     C89486   4.771   7.742   7.640 -0.0825  0.5019  0.5476
  649MOL0     C89487   4.675   7.672   7.733  0.7218 -0.0871  0.8334
  649MOL0     C89488   4.623   7.550   7.666 -0.7715  0.2712 -0.4426
  649MOL0     C89489   4.571   7.468   7.615  0.1728  0.3027  0.3589
  649MOL0     C89490   5.083   7.999   7.442  0.0784 -0.4602  1.1718
  649MOL0     C89491   5.211   8.062   7.430  1.0492  0.3259 -0.0063
  649MOL0     C89492   5.323   7.981   7.370  0.1895  0.0392 -0.2311
  649MOL0     H89493   5.375   8.520   7.405  1.6819 -0.0505 -1.2302
  649MOL0     H89494   5.518   8.725   7.385  3.3465  2.1782  1.5934
  649MOL0     H89495   5.812   8.826   7.706  2.5859  1.6270 -2.1325
  649MOL0     H89496   5.643   8.886   7.696  0.7425 -1.1344  0.8903
  649MOL0     H89497   5.715   9.056   7.515 -0.4875 -0.1306  1.9661
  649MOL0     H89498   5.789   9.089   7.669  1.5966 -0.1764  1.2346
  649MOL0     H89499   5.978   8.920   7.582  0.3218  0.2692  0.1206
  649MOL0     H89500   5.925   8.966   7.425  2.8138 -0.4536 -0.4025
  649MOL0     H89501   5.983   9.178   7.422 -3.0980 -0.0072  0.1782
  649MOL0     H89502   5.973   9.196   7.597 -0.4160  1.4595 -1.0998
  649MOL0     H89503   6.177   9.025   7.445  2.0590 -1.4165  0.3001
  649MOL0     H89504   6.163   9.033   7.622 -0.6320 -1.3691 -1.3600
  649MOL0     H89505   6.231   9.284   7.453  0.2631  0.6017  1.5825
  649MOL0     H89506   6.264   9.250   7.623  3.0446 -0.4542  0.0462
  649MOL0     H89507   6.394   9.111   7.394 -0.8053  0.9464 -0.8669
  649MOL0     H89508   6.394   9.075   7.574 -5.1048  0.0865  1.6426
  649MOL0     H89509   6.493   9.338   7.435 -1.6132  0.2282 -0.1734
  649MOL0     H89510   6.462   9.324   7.600 -0.7153  1.7339 -1.9862
  649MOL0     H89511   6.623   8.998   7.594 -1.3447  0.3150 -1.6126
  649MOL0     H89512   6.999   9.015   7.589 -1.5141  1.7714 -1.4716
  649MOL0     H89513   6.863   8.905   7.608 -0.9966 -0.0742  0.4091
  649MOL0     H89514   6.963   9.106   7.811 -2.4802  2.0838  1.6199
  649MOL0     H89515   6.823   9.022   7.851  0.4455  1.0229 -0.3240
  649MOL0     H89516   7.009   8.923   7.954  0.1983  0.3028 -0.4319
  649MOL0     H89517   6.964   8.798   7.829  0.7901 -0.8239  1.4462
  649MOL0     H89518   7.160   8.883   7.678  0.1924 -0.7451 -0.1861
  649MOL0     H89519   7.195   9.006   7.805  0.4795 -0.6572  0.9863
  649MOL0     H89520   7.392   9.004   7.771 -2.8733 -0.2081  1.9393
  649MOL0     H89521   7.761   8.987   7.710  1.0317  2.4484 -1.4560
  649MOL0     H89522   7.712   9.111   7.823 -1.7400  0.8809 -0.4587
  649MOL0     H89523   7.621   9.084   7.678  2.5244  1.8592 -0.8686
  649MOL0     H89524   8.085   8.720   7.856 -2.7484  1.8136  0.6930
  649MOL0     H89525   8.298   8.722   7.956 -0.9706 -0.1899 -0.5492
  649MOL0     H89526   8.495   8.654   8.086  2.1754 -0.2632  1.0365
  649MOL0     H89527   8.452   8.823   8.125  0.5857  0.6811  1.6734
  649MOL0     H89528   8.545   8.779   8.355  1.0336  1.6360 -0.3623
  649MOL0     H89529   8.609   8.614   8.290  0.3185 -0.3809 -0.6022
  649MOL0     H89530   8.686   8.894   8.209 -3.0450 -0.0751  0.4428
  649MOL0     H89531   8.732   8.752   8.125 -0.9623  1.3015 -0.6941
  649MOL0     H89532   8.843   8.666   8.306 -1.8994  0.2448 -3.5551
  649MOL0     H89533   8.775   8.803   8.415 -1.7931 -1.3430  0.0544
  649MOL0     H89534   8.975   8.806   8.182  1.8464  1.1234  0.7094
  649MOL0     H89535   8.917   8.950   8.263  1.4435  0.5756 -1.4677
  649MOL0     H89536   9.022   8.736   8.448 -1.4032 -0.7217 -1.3888
  649MOL0     H89537   9.009   8.902   8.473  1.3203  1.2184 -0.8037
  649MOL0     H89538   9.175   8.936   8.280  2.4954 -0.5330 -0.7180
  649MOL0     H89539   9.195   8.760   8.279 -0.9336 -0.3972 -0.0787
  649MOL0     H89540   9.249   8.806   8.537 -2.1812  0.1831  0.7714
  649MOL0     H89541   9.228   8.981   8.491 -2.0742 -0.6423 -0.2421
  649MOL0     H89542   8.110   8.620   8.335 -0.3971  4.0440  0.7216
  649MOL0     H89543   7.900   8.622   8.225 -0.0507 -1.4851  0.5601
  649MOL0     H89544   7.612   8.651   8.043  0.4543  0.2566  1.5297
  649MOL0     H89545   7.359   8.659   8.008 -1.7028  2.1902  0.5069
  649MOL0     H89546   5.713   8.638   7.750 -1.1207  1.2142  2.4218
  649MOL0     H89547   5.564   8.458   7.783  2.3241  0.1305 -0.0723
  649MOL0     H89548   5.118   8.338   7.611  1.3169 -1.2080  2.3033
  649MOL0     H89549   4.910   8.238   7.615 -1.0223 -0.9199 -0.3513
  649MOL0     H89550   4.767   7.932   7.356  0.9270  1.2016  0.2886
  649MOL0     H89551   4.888   7.828   7.427 -1.4859 -1.6462  0.0777
  649MOL0     H89552   4.656   7.750   7.442 -0.6508  2.4240 -1.7884
  649MOL0     H89553   4.611   7.876   7.551 -0.3353 -1.8227  0.6070
  649MOL0     H89554   4.852   7.683   7.596 -1.6330 -1.2523 -0.0691
  649MOL0     H89555   4.811   7.820   7.705 -1.4878  2.1459 -0.4695
  649MOL0     H89556   4.587   7.728   7.766 -1.8732 -4.1738  1.6152
  649MOL0     H89557   4.738   7.641   7.817  2.6684 -0.9559 -0.8551
  649MOL0     H89558   4.515   7.385   7.576  0.4299 -0.8670  2.3119
  649MOL0     H89559   5.073   7.900   7.400 -1.6942 -0.7718  2.2587
  649MOL0     H89560   5.367   8.025   7.281  0.2390 -0.6642 -0.5592
  649MOL0     H89561   5.403   7.979   7.445 -0.4112  2.1903  0.5370
  649MOL0     H89562   5.282   7.884   7.341  1.7064 -0.8420  0.4465
  650MOL0     O89563   9.286   4.995   4.209 -0.2707 -0.2736 -0.2886
  650MOL0     C89564   9.217   4.905   4.251 -0.4969  0.0352  0.0366
  650MOL0     O89565   9.248   4.825   4.359  0.2705  0.5410  0.7486
  650MOL0     C89566   9.380   4.790   4.371  1.0125  0.2969 -0.2640
  650MOL0     C89567   9.487   4.877   4.364 -0.0684  0.1012 -0.3159
  650MOL0     C89568   9.620   4.840   4.368  0.5535  0.2515  1.0682
  650MOL0     C89569   9.648   4.702   4.372 -0.6153 -0.0688 -0.0594
  650MOL0     O89570   9.774   4.656   4.375 -0.9835 -0.3752 -0.2119
  650MOL0     C89571   9.885   4.755   4.353  0.1459 -0.1760 -1.0262
  650MOL0     C89572  10.015   4.675   4.341  0.2537  0.3554  0.1270
  650MOL0     C89573  10.118   4.773   4.276 -0.4972 -0.2590  1.6995
  650MOL0     C89574  10.122   4.749   4.124 -0.1235 -0.4004 -0.6811
  650MOL0     C89575  10.236   4.823   4.053 -0.4852  0.3299 -0.2773
  650MOL0     C89576  10.253   4.783   3.904 -0.5818 -0.8715 -0.6500
  650MOL0     C89577  10.303   4.640   3.877  0.0782  0.0974  1.1851
  650MOL0     C89578  10.333   4.609   3.727 -0.3356  0.2813  0.0689
  650MOL0     N89579  10.216   4.618   3.640 -0.4789  0.4015 -0.3624
  650MOL0     C89580  10.116   4.529   3.661  0.9915 -0.0986  0.8091
  650MOL0     C89581  10.017   4.581   3.574 -0.9320  0.4715 -0.5215
  650MOL0     C89582   9.872   4.536   3.560  0.5024  0.8093 -0.1064
  650MOL0     C89583   9.772   4.634   3.630  1.3493  0.0704 -0.7769
  650MOL0     C89584   9.631   4.615   3.580  0.7322 -0.7644 -0.1256
  650MOL0     C89585   9.532   4.713   3.625  0.8751 -0.1974  0.8916
  650MOL0     O89586   9.401   4.672   3.581  0.0162 -0.3982  0.3583
  650MOL0     C89587   9.290   4.738   3.618  0.1879  0.1310  0.6739
  650MOL0     C89588   9.176   4.705   3.540 -0.6674  0.2450 -0.5857
  650MOL0     C89589   9.048   4.760   3.563  0.6433  0.6548  0.3403
  650MOL0     C89590   8.933   4.709   3.481 -1.5464  0.2207 -0.2442
  650MOL0     C89591   9.032   4.855   3.666  0.3131 -0.1396  0.2997
  650MOL0     C89592   8.896   4.910   3.710 -0.3565  0.0201 -0.7212
  650MOL0     O89593   8.897   5.035   3.747  0.9466  0.3161  0.2228
  650MOL0     C89594   8.782   5.116   3.745 -0.1452  0.0254 -0.4182
  650MOL0     C89595   8.661   5.087   3.683  0.6797 -0.4856  0.3529
  650MOL0     C89596   8.552   5.177   3.695  0.5231 -0.7752 -0.1678
  650MOL0     C89597   8.563   5.303   3.760 -0.1804  0.5324  0.5548
  650MOL0     O89598   8.467   5.392   3.782  0.6069 -0.1613 -0.0138
  650MOL0     C89599   8.334   5.368   3.733  0.3947 -0.0508 -0.4158
  650MOL0     C89600   8.248   5.504   3.731  0.2583  0.0369  0.0830
  650MOL0     C89601   8.191   5.530   3.865  0.0715 -0.7630  0.0455
  650MOL0     C89602   8.116   5.666   3.867 -0.8421 -0.2191 -0.4503
  650MOL0     C89603   7.975   5.664   3.818  0.0168  0.5280  0.7036
  650MOL0     C89604   7.881   5.761   3.892  0.4937 -0.0327  0.0515
  650MOL0     C89605   7.738   5.721   3.879  0.2581 -0.2120 -0.3730
  650MOL0     C89606   7.687   5.703   3.739  0.1178  0.8719 -0.3030
  650MOL0    Cl89607   7.729   5.850   3.649 -0.2596  0.2256  0.2096
  650MOL0     C89608   8.682   5.327   3.822  1.1411 -0.2254 -0.3804
  650MOL0     C89609   8.791   5.237   3.813  0.4241  0.3549 -0.1346
  650MOL0     O89610   8.800   4.836   3.729  0.0394 -0.8066  0.8508
  650MOL0     C89611   9.155   4.896   3.736  0.4788  0.1040 -0.4346
  650MOL0     C89612   9.279   4.837   3.709 -0.3508 -0.4358 -0.1045
  650MOL0     N89613  10.062   4.692   3.504  0.1429  0.0493  0.2059
  650MOL0     N89614  10.181   4.713   3.549 -0.2678  0.4959  0.1526
  650MOL0     C89615   9.547   4.609   4.370  0.0100  0.1455 -0.0238
  650MOL0     C89616   9.408   4.651   4.376 -0.6295  0.4464  0.4805
  650MOL0     C89617   9.074   4.894   4.210  0.2572  0.8457 -0.1855
  650MOL0     C89618   8.994   4.780   4.253 -0.3395 -0.1834  0.0626
  650MOL0     C89619   8.857   4.769   4.217  0.0463 -0.1924  0.4533
  650MOL0     C89620   8.789   4.880   4.156  0.2294  0.7874  0.9274
  650MOL0     O89621   8.652   4.870   4.131  0.4402  0.2177 -0.7057
  650MOL0     C89622   8.621   4.863   3.994  0.1505 -0.1077 -0.0110
  650MOL0     C89623   8.478   4.814   3.977  0.5832  0.1114  0.7570
  650MOL0     C89624   8.457   4.774   3.830 -0.6189 -0.2734 -0.2811
  650MOL0     C89625   8.313   4.725   3.823  0.0072  1.0107  0.1625
  650MOL0     C89626   8.300   4.577   3.845 -0.9005  0.5483 -0.2687
  650MOL0     C89627   8.285   4.460   3.859  0.8984  0.0575 -0.4364
  650MOL0     C89628   8.867   4.979   4.101 -0.1463  0.3744  0.1577
  650MOL0     C89629   9.009   4.993   4.126  0.0498 -1.0485  0.8114
  650MOL0     C89630   9.077   5.122   4.076 -0.2297 -0.1830 -0.1048
  650MOL0     H89631   9.478   4.985   4.356 -0.3255  0.0849 -0.2443
  650MOL0     H89632   9.691   4.921   4.364 -0.8993  1.5240 -2.4251
  650MOL0     H89633   9.883   4.829   4.434  1.1811 -4.2536  3.1265
  650MOL0     H89634   9.862   4.803   4.257 -2.8541  0.0736 -0.2604
  650MOL0     H89635  10.058   4.642   4.436  2.8990  1.0086 -0.7607
  650MOL0     H89636   9.999   4.583   4.284  2.6546  0.6649 -1.1504
  650MOL0     H89637  10.095   4.878   4.294  1.2683  1.0193 -2.4194
  650MOL0     H89638  10.220   4.752   4.309 -0.3532  0.3567  1.6441
  650MOL0     H89639  10.140   4.644   4.100 -1.5285 -0.7924 -0.1401
  650MOL0     H89640  10.024   4.769   4.080  0.4268  0.8316 -1.4148
  650MOL0     H89641  10.331   4.791   4.097 -0.7880 -2.3901 -1.3697
  650MOL0     H89642  10.228   4.931   4.066  1.7346  0.8936 -2.7289
  650MOL0     H89643  10.161   4.801   3.848  0.7265 -2.2906 -3.5220
  650MOL0     H89644  10.331   4.852   3.869  1.2471 -1.2635  2.3129
  650MOL0     H89645  10.223   4.576   3.916 -0.3845  0.3668  0.6776
  650MOL0     H89646  10.401   4.625   3.924 -0.7163 -3.5306  1.9912
  650MOL0     H89647  10.412   4.676   3.693  0.4429 -0.4751  0.3399
  650MOL0     H89648  10.364   4.504   3.716  0.4093  0.4656  0.3922
  650MOL0     H89649  10.101   4.441   3.722  0.1903 -0.7800 -0.3273
  650MOL0     H89650   9.864   4.432   3.592  2.2633  0.7116  0.0943
  650MOL0     H89651   9.839   4.536   3.456  0.3771  1.1100 -0.0675
  650MOL0     H89652   9.773   4.601   3.735 -0.0909 -2.0638 -1.3667
  650MOL0     H89653   9.800   4.739   3.635 -0.6308  0.6421 -0.8959
  650MOL0     H89654   9.630   4.631   3.471 -3.1842  1.1493  0.0377
  650MOL0     H89655   9.597   4.515   3.607 -0.5594 -0.6288 -1.1430
  650MOL0     H89656   9.529   4.711   3.735 -1.7121  2.5961  0.9945
  650MOL0     H89657   9.557   4.812   3.585 -1.1486 -1.4472 -4.2117
  650MOL0     H89658   9.176   4.621   3.471  0.0448 -0.7688  0.6200
  650MOL0     H89659   8.863   4.658   3.547 -0.7459 -0.9423 -0.2752
  650MOL0     H89660   8.958   4.634   3.405 -5.4160 -2.1202  0.5343
  650MOL0     H89661   8.884   4.790   3.425  1.7692  2.4771 -0.1316
  650MOL0     H89662   8.645   4.995   3.628  0.7487  1.3562 -2.9882
  650MOL0     H89663   8.457   5.146   3.654 -0.2619  3.6791 -2.3847
  650MOL0     H89664   8.346   5.338   3.628  1.2935 -2.0731  0.2192
  650MOL0     H89665   8.279   5.290   3.785  0.0173 -0.9109 -2.0389
  650MOL0     H89666   8.305   5.582   3.680  1.1174  0.4469  1.6091
  650MOL0     H89667   8.167   5.489   3.660 -0.6865 -0.1113  1.1636
  650MOL0     H89668   8.275   5.533   3.935 -0.1602 -1.8095  0.3888
  650MOL0     H89669   8.116   5.455   3.891 -3.2039  1.2216 -2.7659
  650MOL0     H89670   8.166   5.735   3.798 -0.8462 -1.0605 -1.3164
  650MOL0     H89671   8.124   5.711   3.966  2.2740  0.0434 -0.7317
  650MOL0     H89672   7.972   5.678   3.709 -0.5698  0.5983  0.7237
  650MOL0     H89673   7.936   5.565   3.844  3.9116 -1.0031  1.3934
  650MOL0     H89674   7.902   5.868   3.879 -1.3427  0.5984  1.8100
  650MOL0     H89675   7.899   5.752   3.999 -3.2331  2.1258  1.0359
  650MOL0     H89676   7.672   5.792   3.930  0.0591 -0.1688 -0.6916
  650MOL0     H89677   7.733   5.620   3.923  0.7883  0.1650  0.5829
  650MOL0     H89678   7.578   5.698   3.728  0.1076  2.3359 -1.2342
  650MOL0     H89679   7.736   5.621   3.688  1.3460  1.8506 -0.7356
  650MOL0     H89680   8.696   5.429   3.857  1.5935  0.0248 -1.2563
  650MOL0     H89681   8.883   5.281   3.850  0.6520 -0.5706  0.4186
  650MOL0     H89682   9.157   4.971   3.814  0.7546  0.5946 -0.9051
  650MOL0     H89683   9.362   4.864   3.774 -0.7388 -0.0592  0.2444
  650MOL0     H89684   9.574   4.504   4.368  0.7757  0.3273  0.3427
  650MOL0     H89685   9.333   4.573   4.372  1.7541 -1.9236 -1.0106
  650MOL0     H89686   9.034   4.699   4.313 -2.4294 -0.6867  0.8772
  650MOL0     H89687   8.793   4.698   4.269 -1.4651  0.7500 -0.0451
  650MOL0     H89688   8.618   4.964   3.952  1.9042  1.1758  2.6639
  650MOL0     H89689   8.690   4.789   3.953  1.0055 -0.2248  1.5876
  650MOL0     H89690   8.407   4.889   4.012 -0.4480 -1.4878  2.2879
  650MOL0     H89691   8.461   4.725   4.038 -1.1968  0.4809  0.8571
  650MOL0     H89692   8.461   4.863   3.765 -4.1615 -0.7434 -1.3511
  650MOL0     H89693   8.520   4.690   3.800  1.9482  1.5087 -0.2513
  650MOL0     H89694   8.274   4.740   3.722  0.3404  1.3860  0.0861
  650MOL0     H89695   8.238   4.779   3.882 -1.8083  0.1456 -1.2754
  650MOL0     H89696   8.263   4.356   3.856  1.8344 -0.1385 -0.8740
  650MOL0     H89697   8.821   5.041   4.025  1.0321  0.6373 -0.3657
  650MOL0     H89698   9.102   5.197   4.150 -0.2408 -0.2507 -0.0315
  650MOL0     H89699   9.174   5.103   4.030  0.4319  3.2853 -0.3729
  650MOL0     H89700   9.015   5.179   4.006  1.2595  0.6005 -0.8147
  651MOL0     O89701   1.097   3.262   6.541 -0.8345 -0.1284  0.1153
  651MOL0     C89702   1.034   3.200   6.458  0.0664  0.4805 -0.4385
  651MOL0     O89703   1.031   3.229   6.324  0.0235  0.9013 -0.4157
  651MOL0     C89704   1.080   3.349   6.286  0.1342 -0.4171 -0.3228
  651MOL0     C89705   1.214   3.394   6.292 -0.1663 -0.1467  0.8149
  651MOL0     C89706   1.243   3.519   6.231  0.6992 -0.1739  0.1523
  651MOL0     C89707   1.137   3.607   6.187 -0.2989  0.2621 -0.3572
  651MOL0     O89708   1.158   3.729   6.133 -0.2727  0.1065  0.5646
  651MOL0     C89709   1.260   3.821   6.184  0.5114 -0.1413 -0.3930
  651MOL0     C89710   1.386   3.815   6.109  0.7781 -0.7787  0.1263
  651MOL0     C89711   1.478   3.935   6.150 -0.3237  0.4418  0.9284
  651MOL0     C89712   1.623   3.911   6.116 -0.2604  0.5803 -0.3784
  651MOL0     C89713   1.700   4.032   6.065 -0.0657  0.9951 -0.3761
  651MOL0     C89714   1.846   4.015   6.110  0.0890  0.0196  0.6004
  651MOL0     C89715   1.936   4.117   6.039 -0.2792 -1.2303  0.1387
  651MOL0     C89716   2.070   4.114   6.113 -0.3987  0.3425 -1.0693
  651MOL0     N89717   2.161   4.209   6.047 -0.6278  0.2784  0.8818
  651MOL0     C89718   2.135   4.344   6.018  0.5532 -0.0443  0.3111
  651MOL0     C89719   2.255   4.393   5.977 -0.3743 -0.2655  0.3148
  651MOL0     C89720   2.276   4.518   5.904  0.1886 -0.3115 -0.2480
  651MOL0     C89721   2.375   4.610   5.987 -0.0593  0.0484  0.0004
  651MOL0     C89722   2.413   4.732   5.911 -0.2137  0.1933  1.2699
  651MOL0     C89723   2.498   4.824   5.991 -0.0883 -1.0294 -0.3935
  651MOL0     O89724   2.630   4.777   6.010  0.2370 -0.2190 -0.0250
  651MOL0     C89725   2.717   4.774   5.903 -0.1793 -0.0337 -0.4886
  651MOL0     C89726   2.685   4.827   5.769 -0.9171 -0.4387  0.1996
  651MOL0     C89727   2.778   4.817   5.670 -0.6205  0.6450 -0.7225
  651MOL0     C89728   2.737   4.865   5.533  0.3824  0.1529  0.4240
  651MOL0     C89729   2.901   4.744   5.693 -0.1222  0.2231 -0.5240
  651MOL0     C89730   3.001   4.708   5.582  0.5034  0.2763 -0.3850
  651MOL0     O89731   3.113   4.652   5.623 -0.0008  0.5534  0.2699
  651MOL0     C89732   3.195   4.579   5.536  0.4474  0.0037 -0.3201
  651MOL0     C89733   3.229   4.441   5.554  0.2092 -0.0949 -0.0903
  651MOL0     C89734   3.324   4.385   5.481 -0.0364 -0.8055  0.4626
  651MOL0     C89735   3.385   4.455   5.380  0.9688  0.4705 -1.2118
  651MOL0     O89736   3.477   4.410   5.291  0.0227 -0.3823  0.2022
  651MOL0     C89737   3.511   4.269   5.279  0.4839 -0.0513 -0.3284
  651MOL0     C89738   3.574   4.250   5.137 -0.3349 -0.5336 -0.6388
  651MOL0     C89739   3.578   4.101   5.097 -0.4934 -0.2338  0.0594
  651MOL0     C89740   3.699   4.056   5.014 -0.1976  0.0687 -0.6619
  651MOL0     C89741   3.657   3.919   4.951 -0.3076 -0.2314  0.7983
  651MOL0     C89742   3.707   3.804   5.039 -0.5445  0.0107  0.4661
  651MOL0     C89743   3.683   3.675   4.961 -0.4061  0.2223 -0.0393
  651MOL0     C89744   3.746   3.558   5.029 -0.6208  0.3074 -0.1055
  651MOL0    Cl89745   3.919   3.597   5.072  0.4972  0.3662 -0.3476
  651MOL0     C89746   3.345   4.588   5.357 -0.5093 -0.5880 -0.0539
  651MOL0     C89747   3.251   4.654   5.432 -0.5131  0.1174  0.0847
  651MOL0     O89748   2.970   4.726   5.465  0.1817  0.0275  0.8274
  651MOL0     C89749   2.931   4.706   5.822  0.0027 -0.5447 -0.5297
  651MOL0     C89750   2.837   4.714   5.920 -0.7580 -0.3566 -0.1267
  651MOL0     N89751   2.348   4.293   5.999  0.1192 -0.3355 -0.5262
  651MOL0     N89752   2.292   4.182   6.036  0.5651 -0.1917  0.1597
  651MOL0     C89753   1.009   3.559   6.193 -0.3822 -0.0666 -0.4538
  651MOL0     C89754   0.983   3.437   6.243 -0.2146  0.0669 -0.2792
  651MOL0     C89755   0.951   3.086   6.508  0.1390  0.1622  0.1919
  651MOL0     C89756   0.833   3.055   6.432 -0.6339  0.1692 -0.1632
  651MOL0     C89757   0.759   2.941   6.465 -0.7111 -0.4104 -0.3237
  651MOL0     C89758   0.796   2.858   6.571  0.1073  0.1780  0.4456
  651MOL0     O89759   0.718   2.745   6.595 -0.3226 -0.6244  0.3105
  651MOL0     C89760   0.745   2.659   6.699 -0.7737  0.0161 -0.3720
  651MOL0     C89761   0.635   2.556   6.709  0.2116  0.2583 -0.5803
  651MOL0     C89762   0.678   2.442   6.808  0.4175  0.5224 -0.3785
  651MOL0     C89763   0.565   2.362   6.876 -0.1394  0.1130  0.8077
  651MOL0     C89764   0.493   2.297   6.771  0.3282 -0.1820  1.1830
  651MOL0     C89765   0.432   2.229   6.686  0.2177  0.2396 -0.2158
  651MOL0     C89766   0.911   2.888   6.644 -0.6023 -0.8696 -0.9146
  651MOL0     C89767   0.988   3.000   6.614 -0.7216  0.0926 -0.4900
  651MOL0     C89768   1.120   3.017   6.687  0.5507  0.4243 -0.0819
  651MOL0     H89769   1.295   3.340   6.339  0.6406 -0.7203 -1.1018
  651MOL0     H89770   1.343   3.561   6.232 -0.1886  2.0705  1.4761
  651MOL0     H89771   1.275   3.790   6.288  1.0075 -0.5923 -0.5964
  651MOL0     H89772   1.224   3.925   6.185  1.2184  0.1029  0.2057
  651MOL0     H89773   1.438   3.719   6.111  0.2054 -1.3551 -3.6281
  651MOL0     H89774   1.359   3.823   6.003  0.5800 -4.6309 -0.2630
  651MOL0     H89775   1.434   4.029   6.114 -0.9717  1.0928  3.2052
  651MOL0     H89776   1.473   3.936   6.260  2.4949  1.7524  1.1309
  651MOL0     H89777   1.672   3.854   6.195  0.3324  0.3642 -0.8965
  651MOL0     H89778   1.613   3.848   6.027  0.9817  0.3680 -0.3850
  651MOL0     H89779   1.662   4.123   6.113 -1.3276 -0.2687  1.1136
  651MOL0     H89780   1.702   4.032   5.955 -2.5123 -0.8368 -0.4911
  651MOL0     H89781   1.868   4.036   6.216  0.4547  1.2122  0.3032
  651MOL0     H89782   1.874   3.912   6.085  1.2562  0.5671 -0.4507
  651MOL0     H89783   1.881   4.212   6.035 -2.1859 -2.2588  0.6321
  651MOL0     H89784   1.960   4.087   5.936  2.7205 -0.8271  0.6354
  651MOL0     H89785   2.049   4.153   6.214 -2.4272  0.1794 -1.3967
  651MOL0     H89786   2.114   4.014   6.116  0.5390  0.6618 -2.8179
  651MOL0     H89787   2.045   4.403   6.021  0.6320  0.0674  0.4789
  651MOL0     H89788   2.179   4.565   5.885 -0.5851 -2.0306 -0.7328
  651MOL0     H89789   2.330   4.498   5.810  1.9579 -3.7247  1.3079
  651MOL0     H89790   2.321   4.634   6.079 -2.5689  0.8313 -1.5870
  651MOL0     H89791   2.466   4.551   6.001 -0.0582 -0.3407 -1.5066
  651MOL0     H89792   2.470   4.687   5.829 -3.0601 -2.7173  0.6668
  651MOL0     H89793   2.326   4.779   5.865  0.9415 -1.2356 -2.9043
  651MOL0     H89794   2.491   4.930   5.966 -3.5291 -0.9299  0.4657
  651MOL0     H89795   2.452   4.834   6.090 -3.0874 -3.3959 -1.3730
  651MOL0     H89796   2.592   4.874   5.742 -0.2198  0.0689 -1.4558
  651MOL0     H89797   2.661   4.943   5.544  0.4842  0.4223 -0.6384
  651MOL0     H89798   2.700   4.787   5.465  0.1473  1.6203 -1.2141
  651MOL0     H89799   2.826   4.914   5.491  0.8406  0.3359  1.5878
  651MOL0     H89800   3.194   4.379   5.636  1.2435  2.0372  2.1219
  651MOL0     H89801   3.354   4.284   5.506 -1.8902 -1.3250  0.7350
  651MOL0     H89802   3.585   4.249   5.356  1.6118  1.5658 -0.9321
  651MOL0     H89803   3.419   4.211   5.291 -0.1439  1.4744  4.0985
  651MOL0     H89804   3.516   4.307   5.064  1.0499  0.0370 -1.3208
  651MOL0     H89805   3.676   4.290   5.131 -1.2679  2.2290  0.1680
  651MOL0     H89806   3.484   4.094   5.042 -0.3042  2.2385 -0.7039
  651MOL0     H89807   3.570   4.033   5.182  1.1857  1.3508  1.5816
  651MOL0     H89808   3.792   4.039   5.068 -0.0775 -0.5508 -1.0444
  651MOL0     H89809   3.736   4.117   4.931 -0.4241 -2.0542 -2.4289
  651MOL0     H89810   3.548   3.912   4.942 -0.3315  1.0319 -0.1802
  651MOL0     H89811   3.697   3.911   4.850 -0.3535  0.6866  0.6934
  651MOL0     H89812   3.643   3.793   5.127 -0.4566  0.0074  0.5297
  651MOL0     H89813   3.812   3.827   5.056 -1.1261  1.5941  2.2486
  651MOL0     H89814   3.712   3.682   4.856  1.5526  2.2556  0.5733
  651MOL0     H89815   3.575   3.657   4.969 -0.1734 -0.4024  2.3505
  651MOL0     H89816   3.746   3.473   4.961 -1.3753 -0.5137  0.8923
  651MOL0     H89817   3.681   3.534   5.114 -0.7921  1.2642  0.0507
  651MOL0     H89818   3.392   4.646   5.278 -1.4009  1.3703  0.7683
  651MOL0     H89819   3.215   4.748   5.392 -0.3992 -0.3905 -1.2757
  651MOL0     H89820   3.029   4.662   5.838  0.7754  1.4011  0.5306
  651MOL0     H89821   2.868   4.660   6.010 -1.3535 -0.8834 -0.2301
  651MOL0     H89822   0.927   3.622   6.163  0.1496  1.6964  1.5552
  651MOL0     H89823   0.879   3.407   6.238  0.3433 -1.7607 -1.9675
  651MOL0     H89824   0.804   3.100   6.338  1.5957 -1.9052 -1.9768
  651MOL0     H89825   0.674   2.914   6.403  0.0002 -1.0020 -1.0626
  651MOL0     H89826   0.843   2.616   6.672 -1.2729 -0.0527 -2.1973
  651MOL0     H89827   0.756   2.719   6.789  0.1081  1.0068 -1.1139
  651MOL0     H89828   0.592   2.525   6.614 -2.6689  4.3083 -0.8653
  651MOL0     H89829   0.548   2.607   6.751  0.2714 -1.1041  1.3010
  651MOL0     H89830   0.741   2.375   6.749  0.3014  0.5317 -0.5149
  651MOL0     H89831   0.726   2.483   6.897 -0.8487  1.3550 -0.0462
  651MOL0     H89832   0.504   2.428   6.938 -1.0595 -0.5897  0.6779
  651MOL0     H89833   0.603   2.281   6.940 -0.8555 -2.4817 -1.8109
  651MOL0     H89834   0.388   2.178   6.603 -0.1084  3.5789 -2.2828
  651MOL0     H89835   0.938   2.822   6.725 -0.6589 -0.4866 -0.5800
  651MOL0     H89836   1.143   2.932   6.753  1.7759 -1.2058 -2.4816
  651MOL0     H89837   1.203   3.042   6.621 -0.4081  2.8266 -0.4909
  651MOL0     H89838   1.106   3.104   6.753 -4.1618  0.5585 -0.9355
  652MOL0     O89839   6.450   5.813   9.807 -0.0077  0.1831  0.1781
  652MOL0     C89840   6.431   5.754   9.912 -0.1810  1.5919  0.2375
  652MOL0     O89841   6.514   5.673   9.969 -0.4454  0.0859  0.2628
  652MOL0     C89842   6.616   5.621   9.882 -0.6751 -0.3088 -0.0372
  652MOL0     C89843   6.595   5.521   9.784 -0.1265 -0.9861  0.2532
  652MOL0     C89844   6.700   5.484   9.701 -0.3126  0.0035  0.2114
  652MOL0     C89845   6.826   5.543   9.705 -0.6141 -0.3867 -0.6274
  652MOL0     O89846   6.936   5.502   9.637 -0.4799  0.1571 -0.2369
  652MOL0     C89847   7.064   5.574   9.630  0.0503  0.3221  0.1378
  652MOL0     C89848   7.170   5.520   9.729 -0.5726 -0.0125 -0.2996
  652MOL0     C89849   7.315   5.585   9.719  1.0810  0.1748  0.3261
  652MOL0     C89850   7.394   5.544   9.597  0.3847 -0.3543 -0.2806
  652MOL0     C89851   7.540   5.573   9.615 -0.4133  0.2557 -0.3915
  652MOL0     C89852   7.629   5.546   9.498 -0.0618  0.3743  0.6044
  652MOL0     C89853   7.647   5.394   9.471 -0.7004  0.4944 -0.6645
  652MOL0     C89854   7.725   5.313   9.581  0.2117 -0.0148 -0.5655
  652MOL0     N89855   7.862   5.369   9.605 -0.4507 -0.2322 -0.4477
  652MOL0     C89856   7.911   5.440   9.718 -0.0196 -0.0518  0.1356
  652MOL0     C89857   8.024   5.495   9.674  0.2898  0.1428 -0.5279
  652MOL0     C89858   8.099   5.605   9.739 -0.3622  0.2974  0.2142
  652MOL0     C89859   8.117   5.714   9.634 -0.4655 -0.1664 -0.3122
  652MOL0     C89860   7.985   5.768   9.582  0.0197  0.3534 -0.3428
  652MOL0     C89861   7.906   5.832   9.701 -0.6357  1.0623 -0.3504
  652MOL0     O89862   7.792   5.896   9.640  0.8431  0.2754 -0.2568
  652MOL0     C89863   7.687   5.941   9.721  0.0454 -0.6508  0.5506
  652MOL0     C89864   7.603   6.035   9.658  0.5650 -0.1980  0.3412
  652MOL0     C89865   7.502   6.105   9.726 -0.6812  0.2311 -0.8260
  652MOL0     C89866   7.422   6.212   9.653  0.5150  0.5483  0.3067
  652MOL0     C89867   7.484   6.075   9.867  0.2656 -0.2671  1.2620
  652MOL0     C89868   7.388   6.146   9.944 -0.2880  0.1088  0.1987
  652MOL0     O89869   7.344   6.268   9.915  0.0817 -0.0625  0.1862
  652MOL0     C89870   7.234   6.315   9.978  0.4577  0.5441 -0.6743
  652MOL0     C89871   7.105   6.284   9.920  0.0715 -0.2842 -0.3529
  652MOL0     C89872   6.996   6.320   9.998 -0.2064 -0.4798 -0.3614
  652MOL0     C89873   7.002   6.380  10.123  1.0823  0.1901  0.0104
  652MOL0     O89874   6.879   6.413  10.170 -0.4515  0.4868 -0.1324
  652MOL0     C89875   6.879   6.491  10.292  0.0891 -0.1383 -0.7255
  652MOL0     C89876   6.740   6.516  10.346  0.6620  1.0782  1.0158
  652MOL0     C89877   6.641   6.555  10.230 -0.1630  0.5085 -0.0391
  652MOL0     C89878   6.490   6.570  10.275 -0.1617 -0.4795  0.0838
  652MOL0     C89879   6.384   6.594  10.166 -0.5508 -0.3142  0.2829
  652MOL0     C89880   6.256   6.666  10.221  0.5021 -0.3577 -0.4101
  652MOL0     C89881   6.160   6.695  10.115 -0.7023  0.7517  0.2806
  652MOL0     C89882   6.031   6.750  10.171  0.2090  1.0494  1.1522
  652MOL0    Cl89883   5.950   6.636  10.281 -0.1845 -0.3556  0.0793
  652MOL0     C89884   7.133   6.416  10.170 -0.2808  0.6184 -0.1965
  652MOL0     C89885   7.250   6.376  10.101  0.0280 -0.1447  0.3082
  652MOL0     O89886   7.334   6.077  10.028 -0.0529  0.3851 -0.9679
  652MOL0     C89887   7.557   5.972   9.921  0.6907  0.7595 -0.1339
  652MOL0     C89888   7.664   5.908   9.852 -0.0477  0.5493 -0.4548
  652MOL0     N89889   8.043   5.451   9.541 -0.8361  0.1558  0.5158
  652MOL0     N89890   7.949   5.385   9.500  0.3238  0.0335  0.1245
  652MOL0     C89891   6.843   5.631   9.818  0.1389  0.6685  0.0693
  652MOL0     C89892   6.741   5.679   9.897 -0.0287 -0.2986 -0.3837
  652MOL0     C89893   6.298   5.776   9.975  0.1525  0.4878 -0.2983
  652MOL0     C89894   6.179   5.773   9.885  0.1662 -0.7060 -0.2854
  652MOL0     C89895   6.052   5.769   9.938  0.0061  0.6530  0.1338
  652MOL0     C89896   6.021   5.767  10.072  0.2347  1.2626  0.3798
  652MOL0     O89897   5.892   5.762  10.131 -0.3423 -0.1024 -0.4182
  652MOL0     C89898   5.774   5.770  10.042 -0.2573  0.4984 -0.6781
  652MOL0     C89899   5.654   5.816  10.124  0.4299  0.5925  0.9556
  652MOL0     C89900   5.529   5.801  10.029 -0.4250  0.7180 -0.7672
  652MOL0     C89901   5.396   5.865  10.092 -0.2969  0.4224  0.6101
  652MOL0     C89902   5.293   5.879   9.987 -0.2125 -0.0059  0.2060
  652MOL0     C89903   5.202   5.889   9.906 -0.5636 -0.4578 -0.5727
  652MOL0     C89904   6.134   5.779  10.156 -0.2667  0.1018 -0.3063
  652MOL0     C89905   6.267   5.784  10.109  1.6997 -2.3589  0.2173
  652MOL0     C89906   6.364   5.824  10.209 -0.4046  0.2042  0.3859
  652MOL0     H89907   6.498   5.478   9.758 -1.5425  2.1366 -0.1001
  652MOL0     H89908   6.672   5.417   9.620  0.5135  1.4017 -1.2964
  652MOL0     H89909   7.063   5.683   9.632  1.0955  0.3793 -1.1786
  652MOL0     H89910   7.106   5.556   9.531 -0.0494  1.2852 -0.0889
  652MOL0     H89911   7.141   5.544   9.832  1.9860  1.3176  0.1975
  652MOL0     H89912   7.187   5.413   9.719  1.3738 -0.0441  2.2939
  652MOL0     H89913   7.306   5.694   9.715 -0.7149  0.0995  1.1808
  652MOL0     H89914   7.364   5.556   9.813  1.3649 -0.2367  0.0538
  652MOL0     H89915   7.375   5.437   9.584  0.4934 -0.9004  3.0711
  652MOL0     H89916   7.362   5.599   9.508  0.2510 -1.4026 -0.8886
  652MOL0     H89917   7.578   5.507   9.693 -1.5009 -1.4816 -1.2755
  652MOL0     H89918   7.558   5.678   9.641 -0.6920 -0.5011  3.3750
  652MOL0     H89919   7.580   5.593   9.412 -2.7299 -0.7497  1.4057
  652MOL0     H89920   7.725   5.587   9.530  0.1781 -0.1487  0.5514
  652MOL0     H89921   7.704   5.378   9.379 -2.3350  1.3231 -1.8646
  652MOL0     H89922   7.549   5.348   9.455 -0.5038  0.3645 -1.5643
  652MOL0     H89923   7.656   5.306   9.665 -2.2899 -0.2983 -2.5093
  652MOL0     H89924   7.736   5.210   9.544 -0.3401  0.4844 -2.2102
  652MOL0     H89925   7.865   5.462   9.814  1.9273  1.6135  0.7702
  652MOL0     H89926   8.199   5.571   9.766  0.8460  1.8634 -2.0407
  652MOL0     H89927   8.051   5.643   9.830 -0.8075 -0.5672  0.3612
  652MOL0     H89928   8.181   5.793   9.673 -0.2467  1.0261 -2.8466
  652MOL0     H89929   8.178   5.678   9.551  0.3104 -1.9071  0.9552
  652MOL0     H89930   8.011   5.840   9.505 -0.6711  0.1931 -0.7380
  652MOL0     H89931   7.925   5.693   9.530  1.4952 -2.1470  1.3702
  652MOL0     H89932   7.872   5.757   9.773  2.0388  0.6617  0.6140
  652MOL0     H89933   7.969   5.898   9.762 -1.1345  0.0805  1.3016
  652MOL0     H89934   7.608   6.046   9.551 -0.6046 -0.2095  0.2692
  652MOL0     H89935   7.312   6.209   9.656  0.2899  3.8761 -0.6577
  652MOL0     H89936   7.448   6.215   9.547  2.1776 -0.4644  0.6603
  652MOL0     H89937   7.458   6.312   9.680 -0.0958  0.7472  0.3960
  652MOL0     H89938   7.095   6.223   9.831 -2.5943 -0.7715  0.1991
  652MOL0     H89939   6.897   6.304   9.958 -0.1079  0.0863 -0.8451
  652MOL0     H89940   6.948   6.445  10.363  1.0727 -1.6461 -2.5606
  652MOL0     H89941   6.914   6.591  10.264 -1.4928  0.6530 -0.0182
  652MOL0     H89942   6.701   6.427  10.396  0.0252 -0.2623 -1.6774
  652MOL0     H89943   6.731   6.600  10.416 -1.3362  1.2010  0.6565
  652MOL0     H89944   6.649   6.476  10.155  0.8291 -0.2568  0.8292
  652MOL0     H89945   6.673   6.645  10.177 -0.6620  1.8163  1.8000
  652MOL0     H89946   6.487   6.652  10.348 -0.7506  0.3120 -0.7945
  652MOL0     H89947   6.452   6.482  10.329  0.6404 -1.7028 -1.2941
  652MOL0     H89948   6.427   6.656  10.087  0.5107 -2.2675 -0.7585
  652MOL0     H89949   6.362   6.504  10.108  1.4243 -0.4600 -0.3154
  652MOL0     H89950   6.288   6.762  10.261 -1.0696  0.2473 -0.5232
  652MOL0     H89951   6.217   6.597  10.297  0.6277  0.6620  0.6043
  652MOL0     H89952   6.132   6.596  10.078 -1.1018 -0.8426  4.3494
  652MOL0     H89953   6.202   6.762  10.039 -1.7214  0.7412 -0.3098
  652MOL0     H89954   5.967   6.767  10.085  0.4143 -1.0100  0.5455
  652MOL0     H89955   6.052   6.844  10.225  0.4064  0.2882  2.4567
  652MOL0     H89956   7.167   6.454  10.266  1.1301 -1.8103  0.3385
  652MOL0     H89957   7.349   6.404  10.136  1.1384 -1.9644 -1.1906
  652MOL0     H89958   7.536   5.948  10.025 -0.2751  0.0216 -0.4949
  652MOL0     H89959   7.720   5.832   9.905 -1.2704 -0.2009 -0.1845
  652MOL0     H89960   6.939   5.661   9.860 -0.1074 -0.0226  1.1602
  652MOL0     H89961   6.755   5.750   9.978  0.4642 -0.6606 -0.1448
  652MOL0     H89962   6.201   5.770   9.779  3.0722 -0.0057  0.1966
  652MOL0     H89963   5.969   5.758   9.869  1.7280 -2.7727 -1.6291
  652MOL0     H89964   5.788   5.850   9.968  3.1805  0.1487 -0.5896
  652MOL0     H89965   5.758   5.679   9.984  0.6775  1.5199 -2.6276
  652MOL0     H89966   5.669   5.922  10.142 -0.9832  1.1967 -1.0073
  652MOL0     H89967   5.651   5.765  10.220  0.7117  0.8195  1.0855
  652MOL0     H89968   5.553   5.839   9.929 -2.8480 -4.9714 -4.0132
  652MOL0     H89969   5.497   5.696  10.024  1.9821 -0.1063 -0.3034
  652MOL0     H89970   5.417   5.963  10.136 -0.8950  0.5562  0.5977
  652MOL0     H89971   5.361   5.799  10.172 -3.2652 -0.8982 -1.5645
  652MOL0     H89972   5.117   5.903   9.842  0.1595  0.0189 -1.4367
  652MOL0     H89973   6.120   5.792  10.263  0.4604  1.1568 -0.3236
  652MOL0     H89974   6.458   5.860  10.167 -0.4215 -0.4735 -0.2549
  652MOL0     H89975   6.324   5.901  10.274  3.6653  1.0481  2.1711
  652MOL0     H89976   6.392   5.736  10.268  1.6660 -1.0641 -2.2652
  653MOL0     O89977   5.668   9.808  11.214 -0.0728  0.5817 -0.5580
  653MOL0     C89978   5.639   9.710  11.150  0.8780 -0.0431  0.1291
  653MOL0     O89979   5.735   9.614  11.124 -0.0010 -0.8908  0.1028
  653MOL0     C89980   5.869   9.646  11.151 -0.2449 -0.0166 -1.2403
  653MOL0     C89981   5.921   9.628  11.282 -0.4258 -0.0304  0.1727
  653MOL0     C89982   6.058   9.642  11.305  0.4451  0.3288 -0.2188
  653MOL0     C89983   6.140   9.686  11.205 -0.3243  0.4957 -0.4558
  653MOL0     O89984   6.271   9.697  11.237 -0.7649 -1.0062  0.4328
  653MOL0     C89985   6.347   9.586  11.279 -0.4019  0.4884  0.0212
  653MOL0     C89986   6.472   9.626  11.361  0.3277 -0.1143 -0.4060
  653MOL0     C89987   6.426   9.695  11.487  0.6613  0.2452 -0.7860
  653MOL0     C89988   6.545   9.755  11.565  0.7937 -0.0231  0.2141
  653MOL0     C89989   6.607   9.664  11.669 -0.4105 -0.3216  0.3009
  653MOL0     C89990   6.722   9.738  11.743  0.3028  0.6158 -0.3948
  653MOL0     C89991   6.665   9.853  11.830  0.2479 -0.1869 -0.7656
  653MOL0     C89992   6.762   9.900  11.941 -0.0255  0.0293  0.2066
  653MOL0     N89993   6.849   9.794  11.999  1.1429 -0.5886  0.7092
  653MOL0     C89994   6.802   9.722  12.106  0.2418  0.5611  0.0114
  653MOL0     C89995   6.900   9.634  12.135 -0.1897  0.3061 -0.6148
  653MOL0     C89996   6.899   9.525  12.243 -0.2806  0.3882  0.5277
  653MOL0     C89997   7.036   9.492  12.308  0.1369 -0.1778 -0.5363
  653MOL0     C89998   7.090   9.607  12.385 -0.2786  0.0652  0.6219
  653MOL0     C89999   7.241   9.614  12.403 -0.7533  0.8328 -0.1560
  653MOL0     O90000   7.269   9.723  12.496  0.3977 -0.5590  0.1076
  653MOL0     C90001   7.401   9.770  12.526  0.3278 -0.2801  0.7142
  653MOL0     C90002   7.514   9.705  12.474 -0.3378  0.2365 -0.8459
  653MOL0     C90003   7.644   9.751  12.504 -0.7838 -0.0235 -0.4513
  653MOL0     C90004   7.762   9.690  12.427  0.4015 -0.2174  0.1399
  653MOL0     C90005   7.657   9.865  12.585 -0.3267  0.5573  0.1261
  653MOL0     C90006   7.782   9.920  12.635 -0.4303  0.0433  0.5350
  653MOL0     O90007   7.883   9.837  12.655 -0.3208  0.1048 -0.9903
  653MOL0     C90008   8.003   9.897  12.685 -0.4761 -0.5528  0.8311
  653MOL0     C90009   8.039   9.968  12.803  0.0856  0.0089 -0.3774
  653MOL0     C90010   8.174  10.005  12.819 -0.9659 -0.0639 -0.0181
  653MOL0     C90011   8.278   9.967  12.729 -0.2095 -0.1716 -0.2673
  653MOL0     O90012   8.403  10.017  12.753  0.6115  0.0298  0.6730
  653MOL0     C90013   8.518   9.957  12.700 -1.2379  0.6883  0.4271
  653MOL0     C90014   8.604  10.060  12.622  0.3405 -0.5289 -0.0044
  653MOL0     C90015   8.632  10.181  12.709 -0.3774  0.2485 -0.6937
  653MOL0     C90016   8.766  10.260  12.699 -0.2357  0.6843 -0.0075
  653MOL0     C90017   8.899  10.179  12.745  0.5167 -0.7591 -0.2814
  653MOL0     C90018   9.018  10.267  12.753  0.7532  0.0677  0.1830
  653MOL0     C90019   9.141  10.195  12.805  0.1823  0.6046  0.7608
  653MOL0     C90020   9.263  10.283  12.773 -0.0722 -0.2790  0.1876
  653MOL0    Cl90021   9.289  10.301  12.599 -0.0780 -0.6005 -0.1000
  653MOL0     C90022   8.245   9.911  12.605 -0.3613 -0.0659  0.6555
  653MOL0     C90023   8.109   9.876  12.588 -0.1271 -0.1904  0.7679
  653MOL0     O90024   7.789  10.044  12.630  0.0120  0.4066 -0.4714
  653MOL0     C90025   7.537   9.932  12.630 -0.1560  0.4023  0.3379
  653MOL0     C90026   7.413   9.881  12.605  0.2580  0.2537  0.0868
  653MOL0     N90027   7.002   9.657  12.044 -0.1565 -0.3764 -0.0994
  653MOL0     N90028   6.977   9.761  11.971 -0.2577  0.3758  0.7287
  653MOL0     C90029   6.097   9.709  11.075  0.3904 -0.1073  0.4769
  653MOL0     C90030   5.958   9.691  11.045 -0.1469  0.6566  0.6338
  653MOL0     C90031   5.501   9.680  11.107  0.0535 -0.1420 -0.2498
  653MOL0     C90032   5.480   9.548  11.065  0.0921  0.2997  0.6405
  653MOL0     C90033   5.352   9.506  11.017 -1.5034 -0.0599 -0.2824
  653MOL0     C90034   5.244   9.591  11.020 -0.1226 -0.2437  0.1658
  653MOL0     O90035   5.125   9.547  10.955  1.2779  0.4285  0.4546
  653MOL0     C90036   5.027   9.644  10.911 -0.6322  1.2746 -0.0589
  653MOL0     C90037   4.943   9.702  11.025  0.7006  0.8478 -0.1029
  653MOL0     C90038   4.840   9.816  10.986 -0.3326 -0.1953  0.1337
  653MOL0     C90039   4.907   9.955  11.023  0.4307  0.6460 -0.2702
  653MOL0     C90040   5.030   9.982  10.944  0.4815 -0.3357 -0.7805
  653MOL0     C90041   5.137   9.995  10.882  0.3745 -0.4516  0.3699
  653MOL0     C90042   5.265   9.722  11.074 -0.2397 -0.0025  0.0188
  653MOL0     C90043   5.394   9.766  11.120  0.3345  0.0953  0.7027
  653MOL0     C90044   5.411   9.901  11.182  0.1563 -0.0917 -0.0153
  653MOL0     H90045   5.865   9.589  11.366 -0.3786  1.8555  1.1352
  653MOL0     H90046   6.091   9.608  11.404  0.0354 -0.0804 -0.2175
  653MOL0     H90047   6.382   9.525  11.195 -1.4383  1.6184 -1.2697
  653MOL0     H90048   6.283   9.527  11.344 -0.3774 -2.2198 -2.2395
  653MOL0     H90049   6.515   9.529  11.386 -0.9087 -0.6418 -0.2952
  653MOL0     H90050   6.533   9.690  11.296  0.4562  0.2478  0.0638
  653MOL0     H90051   6.367   9.786  11.473 -1.3634 -0.7549  0.7876
  653MOL0     H90052   6.367   9.633  11.555  1.0903  0.8621  0.1732
  653MOL0     H90053   6.626   9.785  11.498  0.6276 -1.3210 -0.5908
  653MOL0     H90054   6.511   9.844  11.621  0.3358  0.0740 -0.2082
  653MOL0     H90055   6.654   9.576  11.625 -1.8752  0.3570 -3.0272
  653MOL0     H90056   6.530   9.641  11.743 -0.4411  1.9972  1.0627
  653MOL0     H90057   6.774   9.663  11.804 -1.5035 -1.5305 -1.3158
  653MOL0     H90058   6.798   9.777  11.675  0.3642 -1.1142 -1.3869
  653MOL0     H90059   6.577   9.816  11.883  0.3600  2.7474  1.6847
  653MOL0     H90060   6.639   9.945  11.778 -0.8050 -0.8666 -1.5049
  653MOL0     H90061   6.822   9.985  11.905  0.5606 -0.3046  0.3847
  653MOL0     H90062   6.704   9.951  12.018  0.1267  0.8109 -0.1741
  653MOL0     H90063   6.705   9.738  12.152 -0.6583  1.4000 -2.0574
  653MOL0     H90064   6.855   9.437  12.195 -1.2780  1.0664  0.1675
  653MOL0     H90065   6.825   9.547  12.321 -0.3257  2.5421 -0.0498
  653MOL0     H90066   7.033   9.406  12.376  1.8523 -0.1199 -0.3458
  653MOL0     H90067   7.096   9.473  12.219 -4.1937 -1.8662 -3.4567
  653MOL0     H90068   7.056   9.704  12.348  0.1790 -0.4304 -1.2023
  653MOL0     H90069   7.055   9.598  12.488 -1.7998  0.6440  0.1825
  653MOL0     H90070   7.269   9.519  12.449  0.9538 -0.0318 -2.7494
  653MOL0     H90071   7.295   9.610  12.308 -0.5957 -1.4472 -0.0270
  653MOL0     H90072   7.512   9.618  12.410  3.2064 -0.8109  0.1988
  653MOL0     H90073   7.844   9.648  12.486  0.7363 -0.0511 -0.2017
  653MOL0     H90074   7.806   9.770  12.367 -0.1253  0.8827  1.1696
  653MOL0     H90075   7.724   9.611  12.362  0.1445 -0.5373  0.6740
  653MOL0     H90076   7.965   9.999  12.876  0.0983  2.2618 -1.2459
  653MOL0     H90077   8.200  10.057  12.910 -0.1601  1.1590 -0.9212
  653MOL0     H90078   8.579   9.930  12.787 -0.0057  2.0659  0.0289
  653MOL0     H90079   8.516   9.868  12.637  5.3870 -1.2341  2.1009
  653MOL0     H90080   8.699  10.008  12.604  1.0052 -0.4167  2.7462
  653MOL0     H90081   8.552  10.084  12.529 -0.8922 -1.3365  0.4516
  653MOL0     H90082   8.625  10.155  12.815 -0.9891  0.8938 -0.5706
  653MOL0     H90083   8.556  10.256  12.690  0.2291  0.6018 -1.7911
  653MOL0     H90084   8.751  10.348  12.762 -3.1276 -0.3554  0.9375
  653MOL0     H90085   8.783  10.290  12.595  0.1799 -1.9030 -0.7676
  653MOL0     H90086   8.878  10.125  12.838  1.8203 -2.4945 -0.9468
  653MOL0     H90087   8.916  10.101  12.670 -0.2228 -1.1381 -0.0555
  653MOL0     H90088   8.991  10.347  12.823 -1.8251 -2.3057  2.0748
  653MOL0     H90089   9.034  10.315  12.656  0.6892  0.5261  0.3946
  653MOL0     H90090   9.146  10.105  12.743 -3.8976 -0.3490  1.4986
  653MOL0     H90091   9.136  10.154  12.907  0.6248 -1.6740 -0.0757
  653MOL0     H90092   9.357  10.240  12.806 -0.7976  0.0858  2.9802
  653MOL0     H90093   9.250  10.379  12.825 -0.6966 -1.0083  1.4204
  653MOL0     H90094   8.323   9.903  12.530 -1.2302  0.2866 -0.3005
  653MOL0     H90095   8.075   9.814  12.505 -1.5462 -1.3458  2.1358
  653MOL0     H90096   7.537  10.009  12.706 -1.2552  0.1576  0.6036
  653MOL0     H90097   7.323   9.930  12.642 -0.5927 -0.9449 -0.3214
  653MOL0     H90098   6.166   9.740  10.997  0.3707 -1.7867 -0.2442
  653MOL0     H90099   5.911   9.699  10.948  0.5982 -2.1453 -0.0535
  653MOL0     H90100   5.564   9.479  11.063 -0.9637 -1.0004  0.1216
  653MOL0     H90101   5.332   9.406  10.981 -3.5248  0.2639 -0.1590
  653MOL0     H90102   5.090   9.719  10.861 -0.8222  2.0164  0.7813
  653MOL0     H90103   4.961   9.606  10.833  0.1009  1.9083 -1.0172
  653MOL0     H90104   5.006   9.724  11.112  0.5437  0.7493  0.0361
  653MOL0     H90105   4.879   9.621  11.061  0.6059  2.0001  2.5845
  653MOL0     H90106   4.813   9.802  10.881  1.4765  0.3738 -0.4423
  653MOL0     H90107   4.746   9.812  11.041 -0.0505 -2.5531  0.5435
  653MOL0     H90108   4.919   9.954  11.131  0.7923 -2.6899 -0.2336
  653MOL0     H90109   4.835  10.037  11.008 -0.9073 -0.4934 -0.3680
  653MOL0     H90110   5.228  10.007  10.826 -0.5429  3.9235 -0.5419
  653MOL0     H90111   5.183   9.793  11.083 -2.6530 -2.8666  3.4543
  653MOL0     H90112   5.483   9.958  11.123 -1.1164  2.1755  0.4864
  653MOL0     H90113   5.316   9.953  11.191 -0.5768 -1.5219  0.9582
  653MOL0     H90114   5.456   9.893  11.282  0.3840 -0.0221 -0.1116
  654MOL0     O90115   5.005   6.681   0.564 -0.3896  0.2857 -0.4516
  654MOL0     C90116   4.940   6.678   0.460  0.4409  0.1595  0.6730
  654MOL0     O90117   4.918   6.788   0.384  0.6881 -0.3575 -0.3900
  654MOL0     C90118   5.006   6.890   0.390  0.1475 -0.6575 -0.0973
  654MOL0     C90119   5.146   6.882   0.386  0.8394  0.3816 -0.6413
  654MOL0     C90120   5.216   7.001   0.379  0.1367 -0.1188  0.0812
  654MOL0     C90121   5.151   7.130   0.381  0.0207  0.6089 -1.0602
  654MOL0     O90122   5.208   7.251   0.367 -0.1840  0.7976  0.4313
  654MOL0     C90123   5.343   7.251   0.323  0.6632 -0.2631  0.0685
  654MOL0     C90124   5.394   7.389   0.352  0.0258  0.0705  0.6183
  654MOL0     C90125   5.538   7.398   0.296  0.1978 -0.6292 -0.6598
  654MOL0     C90126   5.608   7.535   0.330  0.5526  0.7418 -0.2978
  654MOL0     C90127   5.763   7.527   0.305 -0.2393  0.4873 -0.2833
  654MOL0     C90128   5.833   7.663   0.336  0.0037  0.0731 -0.0464
  654MOL0     C90129   5.985   7.649   0.308 -0.4544 -1.4510  0.4833
  654MOL0     C90130   6.065   7.765   0.367 -0.1907 -0.5020 -0.7578
  654MOL0     N90131   6.193   7.787   0.298  0.0035  0.7893 -0.9808
  654MOL0     C90132   6.297   7.694   0.281 -0.6323  0.2658  0.2234
  654MOL0     C90133   6.398   7.760   0.221 -0.5980  0.0860  0.4312
  654MOL0     C90134   6.531   7.701   0.178  0.0815  0.2252 -0.1828
  654MOL0     C90135   6.647   7.740   0.265 -0.3729 -0.4003 -0.0202
  654MOL0     C90136   6.777   7.709   0.198 -0.1694 -0.2619 -0.2459
  654MOL0     C90137   6.879   7.715   0.317 -0.1590 -0.0807 -0.0245
  654MOL0     O90138   7.011   7.707   0.262  0.1652 -0.0401 -0.3049
  654MOL0     C90139   7.116   7.694   0.352 -0.0045 -0.0197  0.6835
  654MOL0     C90140   7.110   7.683   0.489  0.0896 -0.3149 -0.3551
  654MOL0     C90141   7.229   7.689   0.566 -0.2643  0.0207 -0.4915
  654MOL0     C90142   7.218   7.664   0.715  0.4180  0.9048  0.6734
  654MOL0     C90143   7.357   7.691   0.503  0.0019  0.2155  0.4878
  654MOL0     C90144   7.493   7.697   0.574  0.6785  1.2602  0.2793
  654MOL0     O90145   7.499   7.720   0.697  0.5782  0.2196 -0.1977
  654MOL0     C90146   7.615   7.709   0.767 -0.7437 -0.4480 -0.1700
  654MOL0     C90147   7.695   7.598   0.793 -1.0206  0.3802 -0.3575
  654MOL0     C90148   7.817   7.613   0.861  0.5057  0.3946 -0.1766
  654MOL0     C90149   7.866   7.741   0.889  0.2217  0.5886  0.4180
  654MOL0     O90150   7.992   7.738   0.960  0.7277 -1.0037  0.1214
  654MOL0     C90151   8.034   7.866   1.010  0.1879 -1.2281  0.1362
  654MOL0     C90152   8.166   7.858   1.071 -0.1565  1.7486 -0.5979
  654MOL0     C90153   8.156   7.788   1.210 -0.5155  0.2425 -1.5116
  654MOL0     C90154   8.288   7.791   1.291 -0.4348 -0.4259 -0.3580
  654MOL0     C90155   8.282   7.686   1.406 -0.1050 -0.2757 -0.2541
  654MOL0     C90156   8.420   7.676   1.480  0.5227 -0.4883  0.5024
  654MOL0     C90157   8.410   7.591   1.608 -0.5207  0.2328 -1.0586
  654MOL0     C90158   8.550   7.551   1.656  0.7314  0.0993  0.0793
  654MOL0    Cl90159   8.642   7.704   1.704 -0.1021  0.4656  0.2206
  654MOL0     C90160   7.789   7.858   0.860  0.6848 -0.7478 -0.6544
  654MOL0     C90161   7.664   7.840   0.798 -0.0863 -0.3440  0.4788
  654MOL0     O90162   7.586   7.651   0.502  0.1592  0.4336 -0.7932
  654MOL0     C90163   7.362   7.715   0.365  0.1917 -0.1249  0.5648
  654MOL0     C90164   7.243   7.711   0.289 -0.2218  0.0572 -0.4589
  654MOL0     N90165   6.344   7.890   0.200 -0.0978 -0.1734  0.3846
  654MOL0     N90166   6.228   7.906   0.239  0.3558  0.4258  0.8566
  654MOL0     C90167   5.017   7.135   0.391 -0.0890 -0.0368 -0.4470
  654MOL0     C90168   4.943   7.017   0.386  0.2648  0.0211 -0.3038
  654MOL0     C90169   4.886   6.548   0.408 -0.3624 -0.3181  0.1863
  654MOL0     C90170   4.844   6.538   0.270  0.7785 -0.3267  0.4462
  654MOL0     C90171   4.807   6.413   0.211 -0.1795  0.0365  0.5730
  654MOL0     C90172   4.796   6.302   0.293 -0.3701  0.4185  0.4012
  654MOL0     O90173   4.765   6.188   0.222  0.6145 -0.4439 -0.5001
  654MOL0     C90174   4.775   6.054   0.282 -0.4372  0.6480 -0.0900
  654MOL0     C90175   4.920   6.004   0.309  0.0225 -0.1933 -0.4015
  654MOL0     C90176   5.002   5.970   0.186  0.8601 -0.4895 -0.1709
  654MOL0     C90177   5.150   6.017   0.194 -0.0270 -0.0767  0.0033
  654MOL0     C90178   5.199   5.997   0.058  0.7138  0.2378 -0.4538
  654MOL0     C90179   5.238   6.000  -0.058 -0.9239  0.8943  0.1696
  654MOL0     C90180   4.834   6.316   0.426  0.1609 -0.3392  0.2941
  654MOL0     C90181   4.876   6.431   0.487 -0.1466 -0.4509 -0.2789
  654MOL0     C90182   4.919   6.404   0.631 -0.3453  0.0137  1.1050
  654MOL0     H90183   5.201   6.789   0.374 -0.4268 -0.5597  0.4785
  654MOL0     H90184   5.323   6.986   0.375 -0.0781 -1.4857 -2.1521
  654MOL0     H90185   5.349   7.226   0.217  0.7009 -2.2476  0.4842
  654MOL0     H90186   5.405   7.180   0.379 -0.5490  0.5089  2.5300
  654MOL0     H90187   5.335   7.457   0.291 -0.7373 -1.7193 -0.7232
  654MOL0     H90188   5.371   7.409   0.457 -3.6977 -0.7417  0.1002
  654MOL0     H90189   5.599   7.313   0.327  0.7801  0.1075  0.2953
  654MOL0     H90190   5.529   7.385   0.188 -0.3104  0.1448 -0.7224
  654MOL0     H90191   5.569   7.614   0.265  0.4150  2.0835  1.3404
  654MOL0     H90192   5.599   7.550   0.438  2.0707  1.4803 -0.2409
  654MOL0     H90193   5.788   7.512   0.199 -0.6431 -0.9444 -0.1963
  654MOL0     H90194   5.800   7.442   0.363 -2.7185  0.5533  1.5546
  654MOL0     H90195   5.790   7.741   0.272 -0.5691  0.8136  1.2200
  654MOL0     H90196   5.815   7.691   0.440  0.8793 -2.2072  0.7887
  654MOL0     H90197   5.998   7.646   0.200 -0.3487 -1.3353  0.4930
  654MOL0     H90198   6.015   7.551   0.347 -0.1431 -2.1513 -1.4184
  654MOL0     H90199   6.009   7.859   0.367 -3.3022 -2.2075 -1.2914
  654MOL0     H90200   6.085   7.748   0.473 -1.5560  1.3050 -0.1424
  654MOL0     H90201   6.295   7.588   0.300  0.9990 -0.0976 -1.3709
  654MOL0     H90202   6.548   7.733   0.075  2.5278 -1.4072 -0.3598
  654MOL0     H90203   6.534   7.591   0.173  1.4069  0.1732  1.1642
  654MOL0     H90204   6.633   7.843   0.299 -0.8170  0.5741 -2.8803
  654MOL0     H90205   6.633   7.673   0.350 -4.3474  0.2177 -0.0207
  654MOL0     H90206   6.767   7.604   0.169 -0.0530 -0.1550 -0.6765
  654MOL0     H90207   6.801   7.783   0.122 -1.4152  1.0543  0.6024
  654MOL0     H90208   6.886   7.815   0.362  2.6884 -0.7337  1.2250
  654MOL0     H90209   6.862   7.634   0.389  1.0393 -1.8298 -1.6394
  654MOL0     H90210   7.016   7.677   0.543  0.4327  1.7246  0.5555
  654MOL0     H90211   7.260   7.750   0.768 -1.0917  3.1249 -1.5298
  654MOL0     H90212   7.279   7.576   0.738  0.8320  1.0097  0.0215
  654MOL0     H90213   7.119   7.633   0.747  1.0410 -1.9561  0.0870
  654MOL0     H90214   7.672   7.495   0.766 -1.3483 -0.1537  1.7911
  654MOL0     H90215   7.885   7.534   0.893  2.0122  1.0582 -1.5433
  654MOL0     H90216   8.055   7.938   0.930 -0.5044  2.0327  2.6646
  654MOL0     H90217   7.959   7.911   1.075 -0.8886  0.0441 -1.8630
  654MOL0     H90218   8.242   7.811   1.008  1.1421  2.1707  0.5953
  654MOL0     H90219   8.201   7.962   1.078 -0.3746  1.8681 -1.2262
  654MOL0     H90220   8.123   7.684   1.197 -1.6411  0.0209  2.0399
  654MOL0     H90221   8.075   7.832   1.268  1.2243 -2.1690  3.3423
  654MOL0     H90222   8.294   7.890   1.338 -2.4586 -0.8233  0.8713
  654MOL0     H90223   8.371   7.779   1.221  0.4068 -2.9176  0.9670
  654MOL0     H90224   8.201   7.711   1.476  0.5337  0.8017  0.1289
  654MOL0     H90225   8.252   7.588   1.368 -2.8421  0.9911 -1.7078
  654MOL0     H90226   8.460   7.775   1.506  2.0387 -0.6285 -1.0601
  654MOL0     H90227   8.492   7.635   1.408  0.2444  1.0076 -0.6835
  654MOL0     H90228   8.363   7.496   1.581  1.0401 -1.5413  1.8866
  654MOL0     H90229   8.364   7.631   1.699  2.1195 -0.4349  0.6945
  654MOL0     H90230   8.602   7.510   1.569 -3.2082  0.9749 -2.9740
  654MOL0     H90231   8.551   7.468   1.728 -0.3604 -0.9839 -1.0958
  654MOL0     H90232   7.822   7.960   0.876  2.9253 -1.6585  1.0223
  654MOL0     H90233   7.601   7.919   0.757 -1.3871 -1.3650  0.4441
  654MOL0     H90234   7.459   7.726   0.318 -1.1954 -1.2894 -2.8904
  654MOL0     H90235   7.254   7.729   0.183  1.3723  2.7151  0.0695
  654MOL0     H90236   4.966   7.231   0.388  1.4010  0.7506 -2.5498
  654MOL0     H90237   4.836   7.021   0.369  0.4653  0.4295 -1.5752
  654MOL0     H90238   4.868   6.629   0.215  2.2240 -0.3472  0.9956
  654MOL0     H90239   4.782   6.406   0.106  0.1486  0.8675  0.4355
  654MOL0     H90240   4.723   6.044   0.378 -1.4831  2.8813 -0.3698
  654MOL0     H90241   4.723   5.978   0.223 -2.3327  0.4865  1.6676
  654MOL0     H90242   4.900   5.907   0.356 -0.3734 -0.4064 -0.9890
  654MOL0     H90243   4.980   6.065   0.376  0.6937 -1.7044  0.4179
  654MOL0     H90244   5.012   5.861   0.179 -0.0929 -0.6618  0.7757
  654MOL0     H90245   4.948   6.005   0.098  0.4313  0.3037  0.3983
  654MOL0     H90246   5.203   5.958   0.270  1.1296  4.1371  2.8135
  654MOL0     H90247   5.163   6.123   0.219  0.1601  0.5566 -2.5019
  654MOL0     H90248   5.277   6.007  -0.157 -3.0874  1.5228 -0.7173
  654MOL0     H90249   4.833   6.221   0.480  1.9523 -0.8301 -0.4713
  654MOL0     H90250   4.867   6.318   0.675 -0.0306 -1.0359 -0.5039
  654MOL0     H90251   5.027   6.388   0.641  0.1088  1.9375 -0.0731
  654MOL0     H90252   4.891   6.489   0.694  3.4207  0.5456  2.2905
  655MOL0     O90253  10.081   2.101   0.119 -0.1318 -0.1278 -0.2936
  655MOL0     C90254  10.027   2.175   0.040 -0.0228  0.8661  0.0797
  655MOL0     O90255  10.058   2.190  -0.090  0.3991 -0.5881 -0.0193
  655MOL0     C90256  10.180   2.145  -0.122  0.0607  0.0609  0.6004
  655MOL0     C90257  10.296   2.182  -0.048 -0.3708 -0.1455  0.5890
  655MOL0     C90258  10.427   2.137  -0.082  0.1046 -0.5529  0.0308
  655MOL0     C90259  10.449   2.052  -0.184  0.9014  0.2958  0.1381
  655MOL0     O90260  10.576   2.004  -0.221 -0.1586 -0.6910 -0.4069
  655MOL0     C90261  10.695   2.022  -0.138 -0.1263  0.6001 -0.0548
  655MOL0     C90262  10.777   2.127  -0.211  0.6441 -0.2709  0.8723
  655MOL0     C90263  10.897   2.168  -0.136 -1.2367 -0.7297  1.1443
  655MOL0     C90264  10.977   2.275  -0.218 -0.1948  0.0162 -0.5666
  655MOL0     C90265  11.118   2.291  -0.169  0.2140 -0.0111  0.1151
  655MOL0     C90266  11.141   2.308  -0.018 -0.1790  0.4132 -0.4461
  655MOL0     C90267  11.291   2.352   0.010 -0.2237  0.1393 -0.5881
  655MOL0     C90268  11.314   2.507  -0.013 -1.0567 -0.4040  0.5890
  655MOL0     N90269  11.450   2.548   0.019  0.5652 -0.2969 -0.1371
  655MOL0     C90270  11.547   2.604  -0.056  0.2961 -0.0857  0.1314
  655MOL0     C90271  11.640   2.652   0.032  0.5573  0.0749 -0.2137
  655MOL0     C90272  11.765   2.733   0.012  0.3314  0.2345 -0.0518
  655MOL0     C90273  11.893   2.662   0.055  0.2078  0.7111 -0.0029
  655MOL0     C90274  12.007   2.762   0.082  0.4769  0.1160  0.0317
  655MOL0     C90275  12.103   2.692   0.177  0.1076 -0.3752  0.2808
  655MOL0     O90276  12.214   2.785   0.209 -0.6275 -0.4830  0.1744
  655MOL0     C90277  12.327   2.786   0.136 -0.2223  0.1094 -0.3434
  655MOL0     C90278  12.412   2.896   0.143  0.3706  0.4317  0.4216
  655MOL0     C90279  12.536   2.906   0.084  0.7379  0.6717  1.0274
  655MOL0     C90280  12.625   3.019   0.124  0.5371 -0.5107  1.1606
  655MOL0     C90281  12.582   2.805  -0.004 -0.0285 -0.5986 -0.3508
  655MOL0     C90282  12.710   2.805  -0.080 -0.8495 -0.3821 -0.0779
  655MOL0     O90283  12.834   2.866  -0.035  0.2233 -0.4013  0.5575
  655MOL0     C90284  12.958   2.868  -0.110  0.1007  0.8434 -0.5033
  655MOL0     C90285  13.046   2.972  -0.085  0.0137 -0.1432 -1.0131
  655MOL0     C90286  13.154   2.995  -0.174 -0.1565 -0.2336 -0.5972
  655MOL0     C90287  13.188   2.905  -0.280 -0.3640 -1.3884 -0.2791
  655MOL0     O90288  13.292   2.937  -0.360 -0.6459  0.3701  0.0055
  655MOL0     C90289  13.370   2.827  -0.407  0.2822  0.1641 -0.1273
  655MOL0     C90290  13.512   2.865  -0.439  0.0361  0.6416  0.2467
  655MOL0     C90291  13.598   2.759  -0.523 -0.0391  0.0490 -0.1542
  655MOL0     C90292  13.567   2.759  -0.670  0.7607 -1.0762 -0.0735
  655MOL0     C90293  13.666   2.679  -0.754 -0.3785 -0.3515 -0.2660
  655MOL0     C90294  13.693   2.532  -0.705 -0.1876  0.1582  0.6598
  655MOL0     C90295  13.804   2.469  -0.787 -0.4138  0.2621  0.0075
  655MOL0     C90296  13.781   2.445  -0.934 -0.3142  0.6343  0.4933
  655MOL0    Cl90297  13.913   2.331  -0.979 -0.1942  0.1505  0.1241
  655MOL0     C90298  13.108   2.792  -0.299  0.2690 -0.0223 -0.2011
  655MOL0     C90299  12.990   2.782  -0.216  0.1668  0.6629 -0.0197
  655MOL0     O90300  12.703   2.737  -0.179 -0.2939  0.6680  0.6963
  655MOL0     C90301  12.492   2.689  -0.009  0.4436 -0.3709 -0.2804
  655MOL0     C90302  12.370   2.686   0.053 -0.4563  0.6716  0.0156
  655MOL0     N90303  11.595   2.623   0.154  0.5230  0.7473 -0.7396
  655MOL0     N90304  11.489   2.548   0.151  0.4909 -0.4169  0.3035
  655MOL0     C90305  10.334   2.012  -0.255 -0.8270  0.8485 -0.7706
  655MOL0     C90306  10.207   2.042  -0.217 -0.2884  0.1804  0.4818
  655MOL0     C90307   9.900   2.240   0.083  0.0997  0.4775  1.2090
  655MOL0     C90308   9.791   2.239  -0.008  0.4956  0.3522 -0.7109
  655MOL0     C90309   9.673   2.308   0.014 -0.3423  0.3456 -0.7593
  655MOL0     C90310   9.661   2.391   0.134 -0.2330 -0.9567  0.1175
  655MOL0     O90311   9.554   2.467   0.181  0.6344  0.1044 -0.4797
  655MOL0     C90312   9.436   2.473   0.102 -0.3255  0.3285  0.1130
  655MOL0     C90313   9.406   2.615   0.061 -0.3030 -1.4130 -0.1895
  655MOL0     C90314   9.272   2.633  -0.014  0.2558 -0.4174 -0.2715
  655MOL0     C90315   9.269   2.749  -0.107  0.1037 -0.0202  0.9722
  655MOL0     C90316   9.365   2.724  -0.220 -0.1099 -0.1465 -0.2632
  655MOL0     C90317   9.456   2.726  -0.302 -0.5376  0.2407 -0.4076
  655MOL0     C90318   9.765   2.384   0.231  0.3707 -0.7918  0.4046
  655MOL0     C90319   9.884   2.308   0.205 -0.0674 -0.9516  0.0104
  655MOL0     C90320   9.988   2.306   0.307 -0.3643 -0.1363  0.8563
  655MOL0     H90321  10.289   2.236   0.045  0.1741  1.5550 -0.3158
  655MOL0     H90322  10.504   2.186  -0.024 -0.9322  0.6867  0.4107
  655MOL0     H90323  10.752   1.930  -0.126  1.5617  1.7299  1.0690
  655MOL0     H90324  10.674   2.062  -0.038  2.5666  1.1307  0.3831
  655MOL0     H90325  10.804   2.094  -0.312  1.5331 -2.8215  1.8428
  655MOL0     H90326  10.711   2.213  -0.225 -0.4474 -1.5082 -2.4123
  655MOL0     H90327  10.870   2.198  -0.034  2.1278  1.0421  1.6667
  655MOL0     H90328  10.960   2.079  -0.127 -2.0453 -1.2794  1.4690
  655MOL0     H90329  10.983   2.248  -0.324 -1.4749 -0.1806 -0.6067
  655MOL0     H90330  10.933   2.374  -0.207  3.0640  1.4771  0.5269
  655MOL0     H90331  11.145   2.386  -0.217  0.6577  0.7629  1.8110
  655MOL0     H90332  11.185   2.215  -0.210 -1.8824  0.7415 -5.5782
  655MOL0     H90333  11.084   2.395   0.014 -1.2603  0.0752 -1.3928
  655MOL0     H90334  11.106   2.224   0.043 -1.8659  2.4605  1.5982
  655MOL0     H90335  11.366   2.297  -0.048  0.4949  1.3264 -0.8304
  655MOL0     H90336  11.310   2.328   0.114 -0.1963 -1.2865 -0.9110
  655MOL0     H90337  11.297   2.535  -0.118  0.2286  0.6591  0.6375
  655MOL0     H90338  11.245   2.563   0.051  0.5702 -0.9010  2.8832
  655MOL0     H90339  11.548   2.618  -0.163 -4.1211  0.4094 -0.0196
  655MOL0     H90340  11.750   2.824   0.072 -0.3746  1.0837 -1.4577
  655MOL0     H90341  11.774   2.755  -0.094  0.3100  0.9791  0.0921
  655MOL0     H90342  11.876   2.592   0.138 -0.7907 -0.1859 -0.9290
  655MOL0     H90343  11.925   2.588  -0.019  1.0874 -1.2263  2.2086
  655MOL0     H90344  12.058   2.790  -0.011  1.0900  0.8314  0.5777
  655MOL0     H90345  11.968   2.856   0.121 -0.3485 -0.6823  1.2019
  655MOL0     H90346  12.060   2.670   0.275  2.5338 -1.4221  1.1756
  655MOL0     H90347  12.139   2.598   0.135  2.5152 -0.2608  1.8688
  655MOL0     H90348  12.387   2.976   0.212  1.5375  1.8092 -0.6902
  655MOL0     H90349  12.715   2.994   0.181  0.8001 -2.5282 -0.0324
  655MOL0     H90350  12.570   3.103   0.167  1.4891  0.8169 -0.0749
  655MOL0     H90351  12.665   3.056   0.028 -0.5483 -1.5314  0.2876
  655MOL0     H90352  13.027   3.046  -0.008 -2.0848  1.8921 -3.2816
  655MOL0     H90353  13.216   3.081  -0.151 -1.3960  0.7274 -0.7426
  655MOL0     H90354  13.370   2.748  -0.332 -3.0476  0.0925 -0.0643
  655MOL0     H90355  13.307   2.787  -0.488 -1.2700  0.3663  0.9283
  655MOL0     H90356  13.516   2.957  -0.497 -0.2167  1.4851  1.5220
  655MOL0     H90357  13.559   2.898  -0.346 -0.1070  1.7070 -0.0449
  655MOL0     H90358  13.573   2.662  -0.478 -2.1351  0.0717 -1.1493
  655MOL0     H90359  13.706   2.769  -0.509  0.1329 -1.6266 -0.1259
  655MOL0     H90360  13.565   2.857  -0.718 -0.8575 -1.2950 -0.5069
  655MOL0     H90361  13.471   2.710  -0.691 -0.0588  0.7964 -0.9210
  655MOL0     H90362  13.629   2.668  -0.856 -0.2485 -2.2555 -0.1421
  655MOL0     H90363  13.758   2.739  -0.755 -0.1772 -0.6333 -1.7794
  655MOL0     H90364  13.597   2.479  -0.716 -1.7787  2.3842  2.7166
  655MOL0     H90365  13.715   2.529  -0.598 -1.5193 -1.3784  0.9355
  655MOL0     H90366  13.830   2.368  -0.756 -0.6238  0.3651  0.5447
  655MOL0     H90367  13.893   2.532  -0.781 -0.0558 -0.2086 -0.3632
  655MOL0     H90368  13.803   2.539  -0.986  1.0490  0.1633  0.1866
  655MOL0     H90369  13.685   2.398  -0.957 -0.8705  1.9952 -0.1065
  655MOL0     H90370  13.121   2.711  -0.370  2.6540 -1.1888  1.4527
  655MOL0     H90371  12.932   2.693  -0.238  3.6024 -0.8768 -4.2517
  655MOL0     H90372  12.519   2.608  -0.076 -1.1275 -0.6777 -0.5649
  655MOL0     H90373  12.317   2.592   0.044 -0.5303  0.5160  1.7104
  655MOL0     H90374  10.341   1.942  -0.338 -1.4534  0.7862 -0.7749
  655MOL0     H90375  10.124   1.991  -0.265  1.1940 -1.5951 -0.2946
  655MOL0     H90376   9.807   2.188  -0.102  2.0475  1.8167 -1.2991
  655MOL0     H90377   9.594   2.300  -0.059 -2.3184  1.9943  1.0589
  655MOL0     H90378   9.440   2.408   0.015 -1.6896  2.1359 -1.3954
  655MOL0     H90379   9.350   2.443   0.163  0.5078 -2.3523  0.0694
  655MOL0     H90380   9.491   2.642  -0.002  0.0988 -1.9277  0.1210
  655MOL0     H90381   9.401   2.682   0.147 -0.2015 -0.1806 -1.1243
  655MOL0     H90382   9.247   2.539  -0.065  1.0209 -0.8844  0.1878
  655MOL0     H90383   9.193   2.649   0.060  0.3510 -0.0488 -0.2478
  655MOL0     H90384   9.289   2.849  -0.066  1.6399  0.8154 -1.6058
  655MOL0     H90385   9.167   2.758  -0.147  0.3054  0.2104  0.4995
  655MOL0     H90386   9.520   2.719  -0.388 -2.7491 -0.3497 -2.0981
  655MOL0     H90387   9.745   2.427   0.328  2.7719  0.3440  0.4664
  655MOL0     H90388  10.008   2.200   0.326 -1.3815 -0.6192 -0.6401
  655MOL0     H90389  10.071   2.360   0.260 -1.1572 -0.9925 -1.6911
  655MOL0     H90390   9.962   2.346   0.406  0.4997  0.6724  0.7725
  656MOL0     O90391   2.315   0.328   0.293  0.4658  0.1612 -0.2491
  656MOL0     C90392   2.224   0.266   0.363 -0.5692 -0.4337 -0.0519
  656MOL0     O90393   2.253   0.168   0.463  0.1064 -0.1387 -0.3520
  656MOL0     C90394   2.384   0.155   0.506  0.3777 -0.3615 -0.4869
  656MOL0     C90395   2.469   0.049   0.463 -0.3836  0.6767 -0.7858
  656MOL0     C90396   2.603   0.060   0.490 -0.1177  0.4869 -0.5682
  656MOL0     C90397   2.648   0.164   0.579 -0.6644  0.9533  0.5136
  656MOL0     O90398   2.777   0.175   0.624  0.4312 -0.0414 -0.0216
  656MOL0     C90399   2.863   0.064   0.605  0.5166 -0.2233  0.0217
  656MOL0     C90400   3.011   0.102   0.639  0.0615  0.2146 -0.2721
  656MOL0     C90401   3.028   0.090   0.789 -0.7647  0.5579 -0.5102
  656MOL0     C90402   3.175   0.100   0.828 -0.4644  0.9925  0.4173
  656MOL0     C90403   3.202   0.059   0.976 -0.9060  0.1397 -0.3728
  656MOL0     C90404   3.353   0.046   1.008 -0.6566 -0.8728 -0.5393
  656MOL0     C90405   3.413  -0.073   0.926 -0.5026 -0.2487  0.0282
  656MOL0     C90406   3.516  -0.153   0.998 -1.3385 -0.0505  0.9276
  656MOL0     N90407   3.652  -0.080   1.015  0.3055 -0.2512  0.0187
  656MOL0     C90408   3.712   0.023   0.935  0.7767 -0.3340 -0.2992
  656MOL0     C90409   3.822   0.063   1.003  0.1427  0.1905  0.4843
  656MOL0     C90410   3.904   0.175   0.958 -0.0991 -0.9033 -0.1763
  656MOL0     C90411   3.997   0.146   0.832  0.0183 -0.0232 -0.3336
  656MOL0     C90412   4.087   0.020   0.856 -0.2066 -0.3842 -0.0276
  656MOL0     C90413   4.177   0.017   0.981  0.6334 -0.2573  0.0440
  656MOL0     O90414   4.261  -0.106   0.974 -0.1470 -0.6296  0.3183
  656MOL0     C90415   4.400  -0.083   0.960 -0.3727 -0.0520  0.6399
  656MOL0     C90416   4.491  -0.195   0.976  0.1618 -0.2685  0.8701
  656MOL0     C90417   4.635  -0.173   0.977  0.6978 -0.6822 -0.0390
  656MOL0     C90418   4.712  -0.305   0.952 -0.4221 -0.8504  0.5733
  656MOL0     C90419   4.677  -0.049   0.966  0.6692 -0.3024 -0.0497
  656MOL0     C90420   4.820  -0.028   0.951  0.3481  0.3707 -0.7493
  656MOL0     O90421   4.867   0.060   0.861  0.6753  0.0756  0.7067
  656MOL0     C90422   4.991   0.042   0.807  0.5851 -1.3423  0.3962
  656MOL0     C90423   5.040   0.168   0.765  0.1232  0.8189 -0.6418
  656MOL0     C90424   5.153   0.191   0.697 -0.5315  0.4988 -0.2180
  656MOL0     C90425   5.243   0.085   0.678 -0.0408 -0.1663  0.3155
  656MOL0     O90426   5.366   0.113   0.625  0.0552 -0.5834  0.4387
  656MOL0     C90427   5.445   0.005   0.579  0.3250 -0.5743 -0.7362
  656MOL0     C90428   5.579   0.062   0.544 -0.0007 -0.7612  0.3638
  656MOL0     C90429   5.581   0.143   0.414  0.6328  0.9702 -0.3811
  656MOL0     C90430   5.706   0.218   0.389  0.0094 -0.5573 -0.2148
  656MOL0     C90431   5.697   0.326   0.277 -1.0054 -0.3507 -0.9506
  656MOL0     C90432   5.841   0.392   0.247 -0.3618 -0.2926  0.2333
  656MOL0     C90433   5.848   0.505   0.145  0.6355 -0.6467  0.5344
  656MOL0     C90434   5.760   0.471   0.015  0.1251  0.6247 -0.1066
  656MOL0    Cl90435   5.818   0.578  -0.116 -0.3236  0.3783 -0.0697
  656MOL0     C90436   5.198  -0.046   0.715  0.0700  0.0416  0.2105
  656MOL0     C90437   5.075  -0.068   0.778  0.3817  0.4622  0.3462
  656MOL0     O90438   4.888  -0.074   1.040  0.4055  0.0024  0.6714
  656MOL0     C90439   4.591   0.054   0.934 -0.4015 -0.4620 -0.6503
  656MOL0     C90440   4.458   0.036   0.927  0.6316 -0.8694  0.4539
  656MOL0     N90441   3.840  -0.029   1.109 -0.2670 -0.0331 -0.5731
  656MOL0     N90442   3.744  -0.113   1.111  0.8830 -0.1152 -0.6395
  656MOL0     C90443   2.564   0.262   0.629  0.7221 -0.5419  0.6722
  656MOL0     C90444   2.427   0.256   0.593 -0.0471  0.4435 -0.3128
  656MOL0     C90445   2.087   0.271   0.309 -0.6198 -0.6364  0.2850
  656MOL0     C90446   2.074   0.311   0.178  0.1853 -0.5118  0.2174
  656MOL0     C90447   1.947   0.333   0.120  0.0819  0.1732  0.5496
  656MOL0     C90448   1.830   0.313   0.196  0.3238 -0.4541  0.4199
  656MOL0     O90449   1.703   0.332   0.150 -0.0862 -0.1062 -0.4485
  656MOL0     C90450   1.678   0.308   0.008 -0.0491  0.1706 -0.6261
  656MOL0     C90451   1.527   0.337  -0.020  0.6758 -0.4864  0.1227
  656MOL0     C90452   1.451   0.233   0.062  0.2896  0.1776  0.0091
  656MOL0     C90453   1.305   0.255   0.038 -0.2983  0.0443 -0.5209
  656MOL0     C90454   1.254   0.114   0.040 -0.8845  0.8302 -0.2906
  656MOL0     C90455   1.211  -0.002   0.031  0.1703 -0.0825 -0.0369
  656MOL0     C90456   1.847   0.280   0.329  0.4542  0.4504 -0.2806
  656MOL0     C90457   1.972   0.253   0.381 -0.1401  0.3492  0.5502
  656MOL0     C90458   1.990   0.243   0.529 -0.0662  0.4438  0.1217
  656MOL0     H90459   2.428  -0.033   0.405  0.6751  0.1976 -0.8758
  656MOL0     H90460   2.668  -0.014   0.445 -1.0814 -0.4398 -0.4904
  656MOL0     H90461   2.863   0.035   0.500 -1.7599  1.7719 -0.6009
  656MOL0     H90462   2.839  -0.024   0.666  1.8749 -0.1462  0.7006
  656MOL0     H90463   3.075   0.031   0.585 -0.2640 -0.3230  0.0403
  656MOL0     H90464   3.029   0.205   0.606  0.3629 -0.3041 -1.8084
  656MOL0     H90465   2.974   0.167   0.845 -3.0218  0.3896 -2.2863
  656MOL0     H90466   2.994  -0.007   0.826  2.9374 -0.8193 -0.2348
  656MOL0     H90467   3.227   0.033   0.759 -1.3910 -1.9748  2.3921
  656MOL0     H90468   3.217   0.200   0.814 -1.8752  1.2582 -3.0267
  656MOL0     H90469   3.145  -0.033   0.993 -2.1483  0.2918 -3.1651
  656MOL0     H90470   3.157   0.134   1.041 -2.1632 -1.2762  0.4383
  656MOL0     H90471   3.404   0.143   0.997  0.8590 -1.6752 -0.9805
  656MOL0     H90472   3.373   0.019   1.112 -3.1017  3.5357  1.3337
  656MOL0     H90473   3.459  -0.033   0.835  0.4247  0.0533  0.6175
  656MOL0     H90474   3.335  -0.144   0.897 -1.7855  0.9278  0.5467
  656MOL0     H90475   3.472  -0.192   1.091 -3.2316  0.1592  0.1628
  656MOL0     H90476   3.554  -0.244   0.950 -0.6055 -1.1355  3.3586
  656MOL0     H90477   3.667   0.078   0.853 -0.2234 -0.7484 -0.0471
  656MOL0     H90478   3.957   0.214   1.045 -0.3987  2.5324 -1.3670
  656MOL0     H90479   3.833   0.256   0.936  0.2298 -1.1222 -2.3060
  656MOL0     H90480   3.934   0.131   0.744  0.1178 -0.9748 -0.2504
  656MOL0     H90481   4.068   0.228   0.816  1.2990 -1.0016  0.1136
  656MOL0     H90482   4.019  -0.065   0.865  1.3764 -1.8153 -0.9537
  656MOL0     H90483   4.149   0.001   0.768 -0.3659 -0.0642 -0.2086
  656MOL0     H90484   4.228   0.113   0.983 -1.8571  1.1468  1.2274
  656MOL0     H90485   4.120   0.003   1.074 -1.1882 -0.8685 -1.1019
  656MOL0     H90486   4.446  -0.292   0.995 -3.3544  1.1570  0.7036
  656MOL0     H90487   4.645  -0.389   0.967  0.0908 -1.1839  1.0524
  656MOL0     H90488   4.788  -0.317   1.030 -1.2299 -3.4496  1.0338
  656MOL0     H90489   4.743  -0.303   0.847  0.7993  0.0562  0.9203
  656MOL0     H90490   4.977   0.252   0.792  1.2914  1.9974 -1.4804
  656MOL0     H90491   5.187   0.293   0.684 -0.9374  1.0980  2.6766
  656MOL0     H90492   5.456  -0.062   0.665 -3.8231  1.2466  1.5238
  656MOL0     H90493   5.402  -0.051   0.496  0.4451 -0.8847 -0.5911
  656MOL0     H90494   5.624   0.113   0.630  1.3454 -1.1257 -0.1009
  656MOL0     H90495   5.642  -0.025   0.528  0.3048 -0.3704 -0.6394
  656MOL0     H90496   5.494   0.208   0.417  0.1228  0.2994 -0.4918
  656MOL0     H90497   5.556   0.071   0.336  0.3770 -1.5856  1.9269
  656MOL0     H90498   5.785   0.146   0.362 -1.4422 -1.6355 -1.8427
  656MOL0     H90499   5.729   0.273   0.480 -2.0677 -0.0872  0.0680
  656MOL0     H90500   5.648   0.272   0.196  0.3811 -1.7355 -0.9252
  656MOL0     H90501   5.625   0.403   0.306  0.3742 -0.1057  2.2335
  656MOL0     H90502   5.907   0.313   0.212 -0.8242 -1.0564  1.0159
  656MOL0     H90503   5.875   0.427   0.345 -0.8875  1.2882 -0.1127
  656MOL0     H90504   5.953   0.523   0.120  0.2596  2.6503  0.8616
  656MOL0     H90505   5.816   0.598   0.193  1.3343 -0.1988  0.1598
  656MOL0     H90506   5.652   0.480   0.031 -0.1598 -1.9779 -0.1470
  656MOL0     H90507   5.768   0.367  -0.015 -2.1266  0.5254 -0.5271
  656MOL0     H90508   5.269  -0.127   0.699  1.7793  1.3845  0.6790
  656MOL0     H90509   5.028  -0.163   0.799  1.3356  0.6802  4.1076
  656MOL0     H90510   4.654   0.140   0.915  0.8416 -0.9437  1.0175
  656MOL0     H90511   4.401   0.124   0.898  0.1494 -1.4788 -0.5092
  656MOL0     H90512   2.596   0.333   0.704  1.4239  1.9854 -1.8485
  656MOL0     H90513   2.371   0.335   0.642  2.3252  1.2162  1.3644
  656MOL0     H90514   2.159   0.334   0.115 -0.1340 -2.3379 -0.9742
  656MOL0     H90515   1.952   0.373   0.019 -1.1875  1.7106  1.0408
  656MOL0     H90516   1.739   0.382  -0.043  2.6013 -0.8799  0.8635
  656MOL0     H90517   1.718   0.211  -0.025  1.7383 -0.2753  2.5003
  656MOL0     H90518   1.520   0.325  -0.129  2.7200  2.6116 -0.4784
  656MOL0     H90519   1.498   0.440   0.002  0.5376 -0.0866 -1.7187
  656MOL0     H90520   1.480   0.134   0.025 -1.5393 -0.3185 -0.1668
  656MOL0     H90521   1.464   0.248   0.170 -0.9168  1.1360  0.0310
  656MOL0     H90522   1.288   0.303  -0.059 -0.4898  1.1851  0.0703
  656MOL0     H90523   1.257   0.319   0.112 -0.8286 -1.8939  0.8928
  656MOL0     H90524   1.185  -0.106   0.028 -0.3719  0.0725 -1.0711
  656MOL0     H90525   1.752   0.266   0.379 -0.3989 -0.2179 -2.0187
  656MOL0     H90526   1.890   0.237   0.573 -0.6499 -0.8406 -1.2817
  656MOL0     H90527   2.034   0.145   0.550  1.7268  1.3646  0.8413
  656MOL0     H90528   2.044   0.326   0.575  3.5495 -1.6753  0.0795
  657MOL0     O90529   0.789   9.719  10.778 -0.1524 -0.4412  0.0581
  657MOL0     C90530   0.700   9.678  10.699 -0.6572 -0.5573 -0.0948
  657MOL0     O90531   0.723   9.638  10.565  0.4844 -0.0891 -0.5405
  657MOL0     C90532   0.847   9.662  10.518  0.0368 -0.1507  0.3092
  657MOL0     C90533   0.958   9.580  10.548  0.8151  0.1997  0.1100
  657MOL0     C90534   1.077   9.610  10.488  0.4355  0.3296  0.0571
  657MOL0     C90535   1.105   9.713  10.404  0.6193  0.3157 -0.4163
  657MOL0     O90536   1.235   9.737  10.366 -0.0737 -0.7268  0.3033
  657MOL0     C90537   1.256   9.846  10.274  0.0357  0.3254 -0.1020
  657MOL0     C90538   1.402   9.846  10.231  0.1131  0.1528 -0.3419
  657MOL0     C90539   1.429   9.972  10.151 -0.3198 -0.0577 -0.6396
  657MOL0     C90540   1.574   9.993  10.132 -0.3813  0.3289  0.3369
  657MOL0     C90541   1.595  10.125  10.053  0.3364 -0.4088  0.4479
  657MOL0     C90542   1.735  10.134   9.996  0.1418 -0.8469  0.8533
  657MOL0     C90543   1.845  10.175  10.092  0.2814  0.0148 -0.5463
  657MOL0     C90544   1.979  10.154  10.021  0.2099  0.2571 -0.8760
  657MOL0     N90545   2.084  10.191  10.113 -0.1789  0.2278 -0.2517
  657MOL0     C90546   2.137  10.319  10.117  0.5416  0.1489  0.0969
  657MOL0     C90547   2.248  10.316  10.195 -1.0715 -0.1196  0.5047
  657MOL0     C90548   2.354  10.433  10.182  0.0685  0.3446 -0.3704
  657MOL0     C90549   2.499  10.378  10.212 -0.1894 -0.7289 -0.5202
  657MOL0     C90550   2.592  10.490  10.247  0.0796 -0.2458  0.3033
  657MOL0     C90551   2.739  10.443  10.287 -0.0105 -0.4041  0.3793
  657MOL0     O90552   2.827  10.557  10.302  0.4584 -0.3457  0.1898
  657MOL0     C90553   2.944  10.531  10.359  0.2849  0.1229  0.0607
  657MOL0     C90554   2.986  10.413  10.420  0.1479 -0.2848  0.1516
  657MOL0     C90555   3.119  10.395  10.455  0.3706 -1.4037  0.2082
  657MOL0     C90556   3.156  10.262  10.509  0.8280 -0.1379  0.0908
  657MOL0     C90557   3.213  10.495  10.428 -1.2399 -0.0531 -0.1582
  657MOL0     C90558   3.359  10.488  10.450  0.5392  0.0078  0.2991
  657MOL0     O90559   3.414  10.405  10.547  0.0005 -0.2544  0.5809
  657MOL0     C90560   3.536  10.344  10.518  0.2959  0.3179  0.2847
  657MOL0     C90561   3.624  10.313  10.627 -0.3013  0.1554 -0.0507
  657MOL0     C90562   3.745  10.256  10.611  0.2484 -0.6843 -0.6270
  657MOL0     C90563   3.782  10.225  10.480 -0.4924 -0.0865 -0.1256
  657MOL0     O90564   3.905  10.173  10.451 -0.5033  0.6196  0.4618
  657MOL0     C90565   3.999  10.184  10.555 -0.4470  0.6877  0.7901
  657MOL0     C90566   4.133  10.170  10.489  0.9889  0.0842  0.1549
  657MOL0     C90567   4.242  10.175  10.601  0.6674 -0.2665  0.5773
  657MOL0     C90568   4.382  10.163  10.548  0.1660 -0.5575  0.2113
  657MOL0     C90569   4.480  10.160  10.668  1.8174  0.6102  0.5993
  657MOL0     C90570   4.613  10.172  10.626 -0.7578  1.0979  0.1911
  657MOL0     C90571   4.713  10.184  10.750 -0.1059 -0.5253  0.0853
  657MOL0     C90572   4.857  10.226  10.718  0.5792  0.0593  0.9293
  657MOL0    Cl90573   4.936  10.089  10.630  0.2644 -0.4264 -0.1509
  657MOL0     C90574   3.697  10.242  10.374  0.1443  0.2318  0.7469
  657MOL0     C90575   3.572  10.298  10.389 -0.2002  0.0083  1.4105
  657MOL0     O90576   3.432  10.564  10.383 -0.3375  0.2236  0.4160
  657MOL0     C90577   3.167  10.614  10.375  0.4901 -0.2220  0.1202
  657MOL0     C90578   3.035  10.630  10.344  0.2788 -0.4238 -0.0019
  657MOL0     N90579   2.268  10.181  10.240  0.2202 -0.0673 -0.1586
  657MOL0     N90580   2.169  10.112  10.185  0.0254 -0.6737  1.0196
  657MOL0     C90581   1.000   9.807  10.388  0.4472  0.7207 -0.0422
  657MOL0     C90582   0.871   9.783  10.448  0.0045  0.7603 -0.0758
  657MOL0     C90583   0.566   9.660  10.755  0.3800  0.7341 -0.4131
  657MOL0     C90584   0.541   9.693  10.895  0.3744  0.5582  0.0576
  657MOL0     C90585   0.414   9.690  10.953 -0.1430  0.3315  0.3446
  657MOL0     C90586   0.303   9.640  10.885 -0.1792  0.4122  0.3132
  657MOL0     O90587   0.175   9.627  10.931  0.7916 -0.2727  0.0916
  657MOL0     C90588   0.137   9.686  11.052 -0.1234 -0.2173 -0.9903
  657MOL0     C90589  -0.017   9.694  11.051 -0.0052 -0.0947 -0.7220
  657MOL0     C90590  -0.083   9.552  11.071  1.3141  0.1518  0.7500
  657MOL0     C90591  -0.245   9.584  11.078  0.7817 -0.4988  0.1356
  657MOL0     C90592  -0.339   9.473  11.105 -0.0359 -0.0702  0.3325
  657MOL0     C90593  -0.425   9.390  11.134 -0.6796  0.4035  0.2281
  657MOL0     C90594   0.332   9.583  10.760  0.7526  0.1329 -0.6677
  657MOL0     C90595   0.458   9.586  10.695 -0.2662 -0.6510  0.2581
  657MOL0     C90596   0.474   9.511  10.564  0.4715 -1.3640  0.1458
  657MOL0     H90597   0.937   9.505  10.622 -0.5738  0.7142  0.2840
  657MOL0     H90598   1.160   9.541  10.504 -0.1553 -0.4515 -0.1602
  657MOL0     H90599   1.233   9.939  10.327  0.7638  0.0605  0.6931
  657MOL0     H90600   1.183   9.848  10.192 -0.6152  1.1078  0.4737
  657MOL0     H90601   1.473   9.831  10.313 -0.9262  2.2180  1.0481
  657MOL0     H90602   1.423   9.761  10.167 -1.7373 -1.0997  0.6211
  657MOL0     H90603   1.391   9.959  10.049  1.7249 -1.0082 -1.3418
  657MOL0     H90604   1.391  10.056  10.209 -2.8247 -0.6903 -1.2536
  657MOL0     H90605   1.619  10.006  10.231  1.0534  2.0271 -0.4809
  657MOL0     H90606   1.614   9.905  10.081 -0.5347  0.9820 -0.9545
  657MOL0     H90607   1.562  10.219  10.098 -1.6376 -0.3340 -1.0199
  657MOL0     H90608   1.541  10.104   9.960  0.1647 -2.8821  1.0354
  657MOL0     H90609   1.759  10.031   9.969  1.8483  0.0586 -1.5318
  657MOL0     H90610   1.750  10.192   9.904  3.7584  0.8627  2.3254
  657MOL0     H90611   1.848  10.106  10.178 -2.3864 -0.0667 -0.4316
  657MOL0     H90612   1.826  10.276  10.129  0.9819  0.0973 -0.4080
  657MOL0     H90613   1.993  10.050   9.991  0.2546  0.8309 -3.0212
  657MOL0     H90614   1.979  10.216   9.931  0.4112 -1.7947 -2.3596
  657MOL0     H90615   2.101  10.397  10.051 -0.0486  1.5520  1.9993
  657MOL0     H90616   2.318  10.513  10.248  0.1485 -0.3028  0.4781
  657MOL0     H90617   2.363  10.471  10.080  2.0132  1.5125  0.1855
  657MOL0     H90618   2.488  10.297  10.286 -1.1254 -2.6070 -2.5940
  657MOL0     H90619   2.526  10.323  10.122 -3.9337 -3.3663 -0.2754
  657MOL0     H90620   2.593  10.563  10.165 -0.6266  0.7057  1.1245
  657MOL0     H90621   2.546  10.539  10.333 -1.4174  2.0964 -1.7022
  657MOL0     H90622   2.725  10.387  10.380 -1.9605 -0.8205 -0.1134
  657MOL0     H90623   2.775  10.375  10.209 -0.5995 -0.5909  0.2651
  657MOL0     H90624   2.924  10.324  10.422  0.5070 -0.5310  1.0338
  657MOL0     H90625   3.143  10.248  10.617  2.3020 -1.5346  0.1248
  657MOL0     H90626   3.256  10.229  10.479  1.8858 -0.1727  3.2151
  657MOL0     H90627   3.101  10.189  10.449 -1.9399  1.3406  0.6601
  657MOL0     H90628   3.607  10.345  10.729 -0.5435 -0.6629  0.1759
  657MOL0     H90629   3.808  10.236  10.697  2.6562 -0.0904 -2.1605
  657MOL0     H90630   3.990  10.283  10.601 -0.6185  0.9034  0.3028
  657MOL0     H90631   3.983  10.109  10.633 -1.1451  0.1324  0.1291
  657MOL0     H90632   4.138  10.078  10.430  1.6591  0.8561 -1.0389
  657MOL0     H90633   4.139  10.258  10.425 -1.8789  0.9591  0.9566
  657MOL0     H90634   4.230  10.099  10.678  0.7227 -0.2951  0.5592
  657MOL0     H90635   4.225  10.275  10.642 -1.7714  0.0304 -0.9750
  657MOL0     H90636   4.393  10.253  10.487 -1.9092 -0.6860 -0.4360
  657MOL0     H90637   4.393  10.083  10.475  0.4348  0.5999 -1.0569
  657MOL0     H90638   4.447  10.235  10.740 -0.0897  1.3227 -0.9363
  657MOL0     H90639   4.473  10.060  10.712 -0.9452  0.0957 -0.7822
  657MOL0     H90640   4.614  10.272  10.580  0.1102  0.8477 -0.3476
  657MOL0     H90641   4.635  10.100  10.547 -2.3213 -0.0510  0.7554
  657MOL0     H90642   4.716  10.089  10.804  0.7785 -0.9571 -0.7022
  657MOL0     H90643   4.672  10.258  10.820 -2.0955 -0.7062 -0.8007
  657MOL0     H90644   4.893  10.241  10.821 -1.0312 -0.0140  1.5387
  657MOL0     H90645   4.868  10.318  10.661 -0.1002 -0.1023  0.5273
  657MOL0     H90646   3.736  10.200  10.282 -1.3596  1.9723 -0.7463
  657MOL0     H90647   3.504  10.292  10.305  1.1093  0.7292  0.2486
  657MOL0     H90648   3.228  10.698  10.341 -1.1040  0.8772 -0.1360
  657MOL0     H90649   3.002  10.723  10.300 -0.1476 -0.8419 -0.5717
  657MOL0     H90650   1.008   9.896  10.327 -0.7367 -0.5025 -2.0803
  657MOL0     H90651   0.791   9.854  10.430 -1.1660 -0.5484 -0.1295
  657MOL0     H90652   0.626   9.708  10.961 -0.6200  1.0942  1.2675
  657MOL0     H90653   0.401   9.729  11.054 -0.7422  2.9157 -0.6498
  657MOL0     H90654   0.167   9.623  11.137 -1.6045 -2.4255 -2.0045
  657MOL0     H90655   0.166   9.789  11.073 -0.0438 -0.3807 -0.2429
  657MOL0     H90656  -0.047   9.744  10.958  0.0071  1.3862  0.0553
  657MOL0     H90657  -0.047   9.756  11.135  1.8187 -0.0633 -0.0650
  657MOL0     H90658  -0.067   9.482  10.989  1.3756  2.0384 -0.9314
  657MOL0     H90659  -0.058   9.509  11.169 -1.2889 -0.6730  1.1228
  657MOL0     H90660  -0.283   9.627  10.984 -1.5487 -1.6915  0.4525
  657MOL0     H90661  -0.267   9.653  11.160 -1.1435 -0.6611 -0.1983
  657MOL0     H90662  -0.492   9.307  11.148 -0.1791  0.2142  1.6392
  657MOL0     H90663   0.250   9.532  10.710  1.0086 -1.3167  0.3245
  657MOL0     H90664   0.475   9.582  10.481 -2.4275 -1.1741  0.1679
  657MOL0     H90665   0.566   9.452  10.562 -0.2488 -2.5072 -0.3057
  657MOL0     H90666   0.395   9.436  10.561  0.2540 -1.1099 -1.8721
  658MOL0     O90667   3.121   6.185   0.134 -0.1122 -0.7978  0.4252
  658MOL0     C90668   3.049   6.284   0.120 -0.2434  1.0818  0.8242
  658MOL0     O90669   3.096   6.411   0.102 -0.0627  0.2858 -0.0727
  658MOL0     C90670   3.226   6.437   0.106  0.3318 -0.2006  0.6833
  658MOL0     C90671   3.313   6.432   0.217  0.0500  0.1157 -0.5701
  658MOL0     C90672   3.448   6.468   0.202  0.1983 -0.4343  0.3711
  658MOL0     C90673   3.506   6.507   0.078 -0.3058  0.4426 -0.8787
  658MOL0     O90674   3.634   6.552   0.054 -0.0262  0.0476  0.4243
  658MOL0     C90675   3.711   6.577   0.168  0.0239 -0.7035  0.2626
  658MOL0     C90676   3.843   6.639   0.127 -0.2971  0.2536  0.1254
  658MOL0     C90677   3.941   6.671   0.242  0.5984  0.0428 -0.3676
  658MOL0     C90678   4.077   6.731   0.205  0.0014  1.0537  0.0002
  658MOL0     C90679   4.155   6.730   0.327 -0.5848  0.3655  0.9658
  658MOL0     C90680   4.296   6.792   0.299  0.7134  0.1898 -0.7783
  658MOL0     C90681   4.377   6.704   0.201  1.1555  0.2488  0.2120
  658MOL0     C90682   4.530   6.749   0.173  0.6603  0.3564 -0.7547
  658MOL0     N90683   4.552   6.894   0.177 -0.2892 -0.0932 -0.0098
  658MOL0     C90684   4.542   6.974   0.068  0.8554  0.2276 -0.0579
  658MOL0     C90685   4.584   7.097   0.112 -0.4899  0.9587  0.5934
  658MOL0     C90686   4.571   7.226   0.028  0.4727  0.1950  0.3257
  658MOL0     C90687   4.709   7.273  -0.014 -0.7792 -0.2638  0.5594
  658MOL0     C90688   4.703   7.389  -0.105  1.1010  0.5686  0.2333
  658MOL0     C90689   4.836   7.417  -0.175 -0.4952 -0.7255  0.0425
  658MOL0     O90690   4.928   7.470  -0.073 -0.1435  0.1496  0.2087
  658MOL0     C90691   5.062   7.488  -0.096  0.1345 -0.3418  0.0287
  658MOL0     C90692   5.133   7.440  -0.210  0.2777  0.1948 -0.2285
  658MOL0     C90693   5.270   7.436  -0.223 -0.4938 -0.1470  0.0299
  658MOL0     C90694   5.339   7.408  -0.352  0.3258  0.1648 -0.7593
  658MOL0     C90695   5.342   7.492  -0.114 -0.1276 -0.2113 -0.2809
  658MOL0     C90696   5.484   7.532  -0.119 -0.2521  0.5126  0.7143
  658MOL0     O90697   5.520   7.636  -0.045  0.0510  0.2425  0.1150
  658MOL0     C90698   5.649   7.674  -0.029  1.1473  0.2386 -0.5439
  658MOL0     C90699   5.771   7.612  -0.071  0.3454  0.7010  0.1753
  658MOL0     C90700   5.894   7.679  -0.064 -0.2240  0.1696 -0.6232
  658MOL0     C90701   5.908   7.811  -0.026  0.2258  1.7836 -0.1802
  658MOL0     O90702   6.021   7.883  -0.042 -0.7237 -0.0105  0.1650
  658MOL0     C90703   6.138   7.818  -0.093  0.5745  0.3897  0.6173
  658MOL0     C90704   6.247   7.915  -0.126  0.2401  0.2419  0.8097
  658MOL0     C90705   6.376   7.844  -0.146 -0.4212 -0.1556 -0.1792
  658MOL0     C90706   6.491   7.946  -0.140  0.1281 -0.2777  0.1492
  658MOL0     C90707   6.627   7.884  -0.172 -0.2594  0.3227  0.1736
  658MOL0     C90708   6.730   7.997  -0.175  0.4212  0.0739 -0.4483
  658MOL0     C90709   6.878   7.941  -0.191  0.9633  0.0811  1.3117
  658MOL0     C90710   6.980   8.036  -0.139 -0.6125  0.1046 -0.3569
  658MOL0    Cl90711   6.980   8.194  -0.201  0.1245 -0.0755  0.0682
  658MOL0     C90712   5.795   7.865   0.025  0.6142  0.0860  0.8178
  658MOL0     C90713   5.670   7.800   0.026  0.3778 -0.3290  0.0087
  658MOL0     O90714   5.553   7.471  -0.197 -0.5877  0.8653 -0.3306
  658MOL0     C90715   5.277   7.529   0.008 -0.1310  1.0348  0.4541
  658MOL0     C90716   5.138   7.526   0.012 -0.3813 -0.2848  0.6712
  658MOL0     N90717   4.638   7.085   0.226  0.2100  0.4946 -0.3815
  658MOL0     N90718   4.627   6.964   0.267  0.1305 -0.6505 -0.5924
  658MOL0     C90719   3.422   6.495  -0.028 -0.6238  0.7286  0.4706
  658MOL0     C90720   3.291   6.457  -0.015  0.6211 -0.2964 -0.0844
  658MOL0     C90721   2.899   6.265   0.106 -0.0215  0.3996  0.4310
  658MOL0     C90722   2.835   6.327  -0.002  0.2563  0.7609  0.1437
  658MOL0     C90723   2.697   6.313  -0.024 -0.0869  0.8882 -0.4257
  658MOL0     C90724   2.619   6.238   0.062  0.8783  0.4311  0.2907
  658MOL0     O90725   2.486   6.240   0.026 -0.3952 -0.4028  0.6744
  658MOL0     C90726   2.385   6.181   0.118  0.2280 -0.4286  0.2192
  658MOL0     C90727   2.342   6.266   0.234 -0.2565  1.2985 -0.3119
  658MOL0     C90728   2.192   6.244   0.278 -0.4666 -0.8008 -0.1250
  658MOL0     C90729   2.175   6.105   0.345 -0.5875  0.4286  0.7529
  658MOL0     C90730   2.034   6.070   0.350  0.5387  1.1752  0.3501
  658MOL0     C90731   1.915   6.049   0.362  0.0985  0.2651 -0.0605
  658MOL0     C90732   2.683   6.181   0.177 -0.3847 -0.0665  0.3111
  658MOL0     C90733   2.820   6.194   0.197  0.3628  0.6522 -0.5053
  658MOL0     C90734   2.880   6.136   0.328 -0.0198 -0.8357  0.0763
  658MOL0     H90735   3.273   6.416   0.317 -5.0170  0.0973 -2.2824
  658MOL0     H90736   3.510   6.472   0.292  2.4181  1.3723 -1.1074
  658MOL0     H90737   3.739   6.490   0.228  2.5494 -1.2344 -1.5198
  658MOL0     H90738   3.655   6.639   0.237 -1.4335 -2.4569  0.7222
  658MOL0     H90739   3.889   6.576   0.050 -0.4215  0.7180 -0.3350
  658MOL0     H90740   3.824   6.735   0.079 -2.2455 -0.9541 -1.6973
  658MOL0     H90741   3.885   6.740   0.307 -2.9072 -1.3675 -1.6719
  658MOL0     H90742   3.950   6.580   0.302  2.5556 -0.9525 -2.0407
  658MOL0     H90743   4.119   6.657   0.136 -2.8371 -1.1060  0.4094
  658MOL0     H90744   4.073   6.832   0.162 -2.5118  0.9755 -0.0627
  658MOL0     H90745   4.163   6.628   0.365 -0.4707  0.6086  1.6255
  658MOL0     H90746   4.115   6.795   0.405  1.5235  0.1243  2.3355
  658MOL0     H90747   4.290   6.893   0.258 -2.3486  0.4417  0.0327
  658MOL0     H90748   4.354   6.793   0.392  2.2973 -0.0991 -1.7349
  658MOL0     H90749   4.323   6.699   0.106  0.4198 -3.1446  0.6631
  658MOL0     H90750   4.374   6.598   0.229  1.7429 -0.1049 -0.9622
  658MOL0     H90751   4.576   6.699   0.259 -0.6704  1.3353  0.5870
  658MOL0     H90752   4.575   6.702   0.085 -1.1918 -0.4942 -1.3025
  658MOL0     H90753   4.492   6.954  -0.026 -0.0007  2.1608 -0.0609
  658MOL0     H90754   4.520   7.301   0.089 -1.8343 -1.2121  0.2502
  658MOL0     H90755   4.504   7.207  -0.056 -0.0244 -1.8826  1.1225
  658MOL0     H90756   4.759   7.313   0.075 -0.3453 -0.1062  0.2513
  658MOL0     H90757   4.760   7.189  -0.061 -1.5805  1.0550 -2.9543
  658MOL0     H90758   4.630   7.370  -0.185 -0.1900 -1.0909  1.7091
  658MOL0     H90759   4.668   7.482  -0.059 -1.4791  0.0022 -0.3886
  658MOL0     H90760   4.877   7.327  -0.221 -0.7253 -0.4392 -0.7301
  658MOL0     H90761   4.831   7.497  -0.249  0.6760  3.0339  3.5770
  658MOL0     H90762   5.074   7.411  -0.297  2.4440  2.3665 -2.6129
  658MOL0     H90763   5.264   7.369  -0.422 -0.3994 -0.7138  0.4594
  658MOL0     H90764   5.411   7.325  -0.344  0.5187  0.1532 -2.2902
  658MOL0     H90765   5.385   7.498  -0.393  0.5617 -0.3725 -1.7157
  658MOL0     H90766   5.770   7.511  -0.112 -2.6232  1.2895 -1.5203
  658MOL0     H90767   5.979   7.619  -0.095 -0.9771 -0.8763 -0.7175
  658MOL0     H90768   6.175   7.750  -0.016  0.9322 -0.3219 -0.1694
  658MOL0     H90769   6.128   7.754  -0.181 -0.0417  0.9392  0.2763
  658MOL0     H90770   6.217   7.960  -0.221  0.7652 -0.2661  0.4012
  658MOL0     H90771   6.250   7.994  -0.050 -1.4935 -0.4333  1.6383
  658MOL0     H90772   6.383   7.793  -0.243 -1.2865 -0.4403 -0.1029
  658MOL0     H90773   6.391   7.769  -0.067 -2.3130  0.9102  1.2687
  658MOL0     H90774   6.493   7.995  -0.043 -0.5590  1.7563 -0.8023
  658MOL0     H90775   6.469   8.027  -0.210  0.6694 -0.4028 -0.1725
  658MOL0     H90776   6.662   7.804  -0.105  1.0108  0.2831 -0.5058
  658MOL0     H90777   6.620   7.825  -0.264 -1.4137 -1.0474  1.1060
  658MOL0     H90778   6.716   8.045  -0.077 -1.2877 -0.2763 -0.4818
  658MOL0     H90779   6.704   8.073  -0.249  0.9095  3.3160  2.4418
  658MOL0     H90780   6.891   7.945  -0.300 -1.4382 -0.1103  0.9619
  658MOL0     H90781   6.893   7.840  -0.152 -0.3388 -0.5974  0.1691
  658MOL0     H90782   7.079   7.990  -0.151 -0.0873 -0.6769  4.6201
  658MOL0     H90783   6.964   8.035  -0.031 -1.2464 -0.6945 -0.4504
  658MOL0     H90784   5.804   7.967   0.061 -2.0496  1.0277 -0.8858
  658MOL0     H90785   5.584   7.850   0.069 -0.3318 -1.0146 -0.6125
  658MOL0     H90786   5.336   7.566   0.092  1.0500  0.4209 -0.0780
  658MOL0     H90787   5.092   7.552   0.106  1.5104 -0.8417  1.8054
  658MOL0     H90788   3.463   6.534  -0.121 -1.4431  0.1537 -0.1542
  658MOL0     H90789   3.227   6.449  -0.102  0.1042  2.6900 -0.0765
  658MOL0     H90790   2.897   6.371  -0.080  1.1872  2.1368  1.6006
  658MOL0     H90791   2.647   6.358  -0.109 -0.1608  0.6147 -0.5297
  658MOL0     H90792   2.298   6.162   0.055  1.0042 -0.8533 -0.7623
  658MOL0     H90793   2.420   6.082   0.147 -1.0093 -1.3259 -1.2084
  658MOL0     H90794   2.352   6.373   0.212  0.8175  1.1667 -0.5253
  658MOL0     H90795   2.407   6.247   0.320 -0.3786  2.2364  0.0007
  658MOL0     H90796   2.173   6.321   0.353  2.1962  2.5760 -2.5438
  658MOL0     H90797   2.129   6.248   0.188 -0.7109 -0.0911  0.0679
  658MOL0     H90798   2.206   6.106   0.450  0.1062  0.8686  0.5494
  658MOL0     H90799   2.218   6.022   0.290 -0.7184 -0.8002  2.4275
  658MOL0     H90800   1.808   6.044   0.367  0.0863  0.9916  0.7870
  658MOL0     H90801   2.626   6.128   0.253  2.1941 -0.0505  2.3796
  658MOL0     H90802   2.803   6.142   0.406 -1.0637  2.1257 -1.0370
  658MOL0     H90803   2.907   6.030   0.316  0.2437 -0.7078 -0.4946
  658MOL0     H90804   2.956   6.202   0.369 -1.1527  1.4747 -1.3214
  659MOL0     O90805   0.151   8.050   0.450 -0.1776 -0.0925  0.0470
  659MOL0     C90806   0.117   7.943   0.417  0.5595  0.2256 -0.3154
  659MOL0     O90807   0.197   7.834   0.398  0.0749  0.0707 -0.7420
  659MOL0     C90808   0.334   7.848   0.383  1.2305  1.3584  0.0137
  659MOL0     C90809   0.400   7.957   0.331 -0.3866  0.2668  0.8393
  659MOL0     C90810   0.540   7.954   0.325  0.5247 -0.2876  0.0240
  659MOL0     C90811   0.612   7.852   0.371 -0.1396 -0.3545 -0.5001
  659MOL0     O90812   0.749   7.866   0.363 -0.2486 -0.4416 -0.5091
  659MOL0     C90813   0.812   7.964   0.450  0.3657 -0.3571  0.5533
  659MOL0     C90814   0.965   7.941   0.430  0.1999 -0.7312 -0.0050
  659MOL0     C90815   1.053   8.029   0.523  0.7249  0.0507  0.7148
  659MOL0     C90816   1.201   7.989   0.496 -0.0053 -0.1703 -0.0684
  659MOL0     C90817   1.289   8.097   0.562  0.2658  0.6867  0.0868
  659MOL0     C90818   1.424   8.093   0.493  0.1477  0.1839 -0.2183
  659MOL0     C90819   1.520   8.197   0.549  0.1909 -0.6959  0.1777
  659MOL0     C90820   1.656   8.188   0.477 -0.6570  0.3930  0.0946
  659MOL0     N90821   1.738   8.304   0.494 -0.2464 -0.6270  0.1286
  659MOL0     C90822   1.848   8.323   0.578  0.6626 -0.3763 -0.5245
  659MOL0     C90823   1.921   8.426   0.536  0.1897  0.0442 -0.2806
  659MOL0     C90824   2.048   8.474   0.594 -0.6867 -1.2114 -0.2535
  659MOL0     C90825   2.168   8.389   0.557  0.0521  0.0804  0.6734
  659MOL0     C90826   2.200   8.380   0.411 -0.2750 -0.0456 -0.4361
  659MOL0     C90827   2.346   8.336   0.394 -0.2114  0.7335  0.0142
  659MOL0     O90828   2.449   8.425   0.438  0.2661  0.3055  0.0991
  659MOL0     C90829   2.574   8.417   0.394  0.5120 -0.2237  1.7878
  659MOL0     C90830   2.651   8.511   0.453 -0.4333 -0.4239 -0.1189
  659MOL0     C90831   2.787   8.524   0.431  0.0257 -0.2864 -0.5958
  659MOL0     C90832   2.856   8.626   0.509  0.5875 -0.2319  0.3433
  659MOL0     C90833   2.856   8.434   0.341 -0.8380  0.2106 -0.3836
  659MOL0     C90834   3.007   8.423   0.324  0.1422  0.3628 -0.5353
  659MOL0     O90835   3.053   8.332   0.229  0.2815 -0.5987 -0.0846
  659MOL0     C90836   3.192   8.328   0.210 -0.1134 -0.4853  0.1731
  659MOL0     C90837   3.229   8.292   0.080 -0.9555 -0.2188  0.7437
  659MOL0     C90838   3.363   8.271   0.042 -0.3119 -0.1450 -0.2774
  659MOL0     C90839   3.470   8.294   0.140  0.7477 -0.8828 -0.2258
  659MOL0     O90840   3.598   8.295   0.110 -0.6050 -0.6820  0.4703
  659MOL0     C90841   3.635   8.272  -0.033 -0.3149  0.5545  0.6079
  659MOL0     C90842   3.785   8.308  -0.040 -0.3167  0.1082 -0.0549
  659MOL0     C90843   3.872   8.204   0.023 -0.8660  0.6710  0.0882
  659MOL0     C90844   3.930   8.230   0.157 -0.2063 -0.0488 -0.3181
  659MOL0     C90845   3.978   8.106   0.234  0.1332 -0.0723 -0.7805
  659MOL0     C90846   3.999   8.149   0.382  0.6561 -0.0320 -0.4077
  659MOL0     C90847   4.126   8.086   0.433 -0.3998  0.0637 -0.2426
  659MOL0     C90848   4.141   8.087   0.581 -0.3655  0.8399 -0.3291
  659MOL0    Cl90849   4.288   8.025   0.636 -0.7234 -0.0335 -0.0885
  659MOL0     C90850   3.432   8.332   0.269  0.1469  1.2932  0.8725
  659MOL0     C90851   3.298   8.349   0.300  0.4614  0.0294  0.6694
  659MOL0     O90852   3.072   8.507   0.389  0.3748 -0.0408 -0.1997
  659MOL0     C90853   2.775   8.339   0.272 -0.5184 -0.2724  0.6098
  659MOL0     C90854   2.635   8.340   0.297  0.2309  0.5338  0.1823
  659MOL0     N90855   1.861   8.472   0.421  0.2906 -0.2993 -0.0428
  659MOL0     N90856   1.750   8.404   0.401  0.7065  0.6025  0.2536
  659MOL0     C90857   0.554   7.742   0.434  0.8413 -0.4423 -0.4305
  659MOL0     C90858   0.413   7.742   0.447 -0.5846 -0.5326 -0.4777
  659MOL0     C90859  -0.033   7.939   0.387 -0.5755  0.2027 -0.2769
  659MOL0     C90860  -0.123   8.048   0.416 -1.1014 -0.3316  0.9805
  659MOL0     C90861  -0.264   8.031   0.394 -1.1913 -0.2017  0.0184
  659MOL0     C90862  -0.321   7.917   0.350  0.4455 -0.0979 -1.0660
  659MOL0     O90863  -0.453   7.894   0.320 -0.2596 -0.7038  0.1572
  659MOL0     C90864  -0.557   7.996   0.306 -0.0342 -0.3264 -0.3359
  659MOL0     C90865  -0.564   8.064   0.168 -1.0121 -0.4656  0.1358
  659MOL0     C90866  -0.626   7.983   0.057 -0.0401 -0.5889  0.0223
  659MOL0     C90867  -0.622   8.037  -0.089  0.0189 -0.2437 -0.5927
  659MOL0     C90868  -0.724   8.139  -0.109  0.3366  0.0979  0.1178
  659MOL0     C90869  -0.807   8.225  -0.142 -0.2026 -0.7490 -0.0404
  659MOL0     C90870  -0.235   7.807   0.325  0.7256 -0.5777 -0.0006
  659MOL0     C90871  -0.091   7.818   0.344 -0.1635 -0.3166  0.1890
  659MOL0     C90872  -0.017   7.690   0.301 -0.5593 -0.0927 -0.3976
  659MOL0     H90873   0.340   8.041   0.295 -0.2086 -1.1670 -3.2823
  659MOL0     H90874   0.591   8.042   0.287  0.4000 -1.1626 -2.4109
  659MOL0     H90875   0.782   7.945   0.554  2.1973  0.0193  1.1737
  659MOL0     H90876   0.785   8.066   0.421 -0.4882 -1.2488 -2.1253
  659MOL0     H90877   0.975   7.832   0.441 -1.8986 -0.8937  0.6810
  659MOL0     H90878   0.985   7.970   0.326 -3.4902  2.6495  0.0234
  659MOL0     H90879   1.031   8.132   0.491 -1.0171  0.0566  1.8139
  659MOL0     H90880   1.018   8.031   0.627 -2.4421  3.2259 -0.2057
  659MOL0     H90881   1.230   7.892   0.537  1.5945  0.9681  1.6558
  659MOL0     H90882   1.222   7.983   0.388 -2.0513  0.1434 -0.5252
  659MOL0     H90883   1.291   8.080   0.670  1.4200  0.0775 -0.0242
  659MOL0     H90884   1.242   8.194   0.542 -0.2058  0.1377 -1.7099
  659MOL0     H90885   1.462   7.991   0.502 -1.4655 -0.3779  0.5738
  659MOL0     H90886   1.411   8.114   0.386  0.6767 -1.5313 -0.6447
  659MOL0     H90887   1.536   8.177   0.655 -1.2400 -1.5566  0.2624
  659MOL0     H90888   1.467   8.293   0.544  0.1370 -0.5063  2.8052
  659MOL0     H90889   1.707   8.105   0.525 -0.2455  0.1338 -0.7698
  659MOL0     H90890   1.656   8.168   0.370  0.7466 -0.1983  0.1956
  659MOL0     H90891   1.868   8.264   0.667 -0.4515  0.8723  0.6020
  659MOL0     H90892   2.043   8.469   0.703 -1.1888 -1.7805 -0.2981
  659MOL0     H90893   2.070   8.574   0.554 -0.5777 -1.9454 -2.1043
  659MOL0     H90894   2.257   8.417   0.614 -0.8956  0.1424  2.1598
  659MOL0     H90895   2.137   8.288   0.585 -0.7129 -0.1823 -0.9551
  659MOL0     H90896   2.132   8.312   0.359  1.7055 -0.1491 -3.0709
  659MOL0     H90897   2.186   8.478   0.364 -1.9621  0.8019  1.6335
  659MOL0     H90898   2.362   8.230   0.416 -0.6383  0.6492 -0.0746
  659MOL0     H90899   2.357   8.340   0.285 -0.2599  1.0079  0.0189
  659MOL0     H90900   2.592   8.582   0.510  1.4745  2.8635 -1.9229
  659MOL0     H90901   2.927   8.583   0.580  0.8938 -1.7755 -0.8405
  659MOL0     H90902   2.793   8.690   0.572 -1.0114  0.6925 -2.0468
  659MOL0     H90903   2.905   8.692   0.437  2.4893 -1.1378  0.7455
  659MOL0     H90904   3.141   8.294   0.016 -2.3080 -3.8343  2.2516
  659MOL0     H90905   3.370   8.253  -0.065 -2.3279  0.7298 -0.6064
  659MOL0     H90906   3.613   8.166  -0.048 -3.0686  1.1172  0.0566
  659MOL0     H90907   3.575   8.327  -0.106  1.2306 -0.9379 -1.9445
  659MOL0     H90908   3.816   8.323  -0.143  1.9871 -0.8053  0.4439
  659MOL0     H90909   3.799   8.398   0.021 -0.3261 -0.9169  1.5155
  659MOL0     H90910   3.955   8.191  -0.048  1.8183  1.4355  2.8322
  659MOL0     H90911   3.821   8.108   0.034 -0.2862  0.1946 -1.2587
  659MOL0     H90912   3.854   8.282   0.216 -0.0236 -2.3645  2.1335
  659MOL0     H90913   4.014   8.298   0.143  0.4116 -0.8781 -0.7002
  659MOL0     H90914   3.911   8.023   0.214  0.6396 -0.8394  0.5451
  659MOL0     H90915   4.067   8.078   0.176  1.3619  1.5780  0.1994
  659MOL0     H90916   3.914   8.126   0.446  0.5035  2.7239  0.5224
  659MOL0     H90917   4.013   8.257   0.391 -0.6439 -0.0140  2.1960
  659MOL0     H90918   4.209   8.123   0.372 -0.1197 -0.0731  0.0481
  659MOL0     H90919   4.113   7.980   0.409 -0.1378 -0.7298  2.6801
  659MOL0     H90920   4.055   8.032   0.619 -0.6895  2.0060  0.6911
  659MOL0     H90921   4.142   8.194   0.604  1.7762  1.2760 -2.0694
  659MOL0     H90922   3.514   8.332   0.340 -0.1987 -1.0882  1.3571
  659MOL0     H90923   3.285   8.360   0.408  0.3288  0.8359  0.5715
  659MOL0     H90924   2.819   8.270   0.202 -1.2344  0.2067 -0.3368
  659MOL0     H90925   2.575   8.267   0.244  2.6052 -1.7842  0.4382
  659MOL0     H90926   0.615   7.665   0.481 -1.4448 -0.5874  2.6096
  659MOL0     H90927   0.373   7.648   0.485 -0.8092  0.1273  0.9720
  659MOL0     H90928  -0.080   8.142   0.449 -1.9063  0.5382 -0.3973
  659MOL0     H90929  -0.331   8.116   0.407  0.3562  1.3200 -1.4077
  659MOL0     H90930  -0.656   7.959   0.336 -0.9105  2.6972  0.9798
  659MOL0     H90931  -0.541   8.082   0.372  0.4824  1.2429 -2.4152
  659MOL0     H90932  -0.468   8.090   0.124 -1.5817  0.1649 -0.7805
  659MOL0     H90933  -0.617   8.158   0.186  1.9750  0.7603  3.7093
  659MOL0     H90934  -0.563   7.894   0.048  2.7944  0.8676  3.3652
  659MOL0     H90935  -0.724   7.955   0.097  0.7310 -2.5877  0.6608
  659MOL0     H90936  -0.632   7.955  -0.161  1.4320 -0.5206 -0.4931
  659MOL0     H90937  -0.526   8.087  -0.103 -0.5313  1.0660  0.1121
  659MOL0     H90938  -0.888   8.294  -0.154  0.5556  0.0012 -0.9914
  659MOL0     H90939  -0.273   7.711   0.290 -1.0409  0.9311 -2.5159
  659MOL0     H90940   0.057   7.722   0.227  0.7482  2.0701  1.7183
  659MOL0     H90941   0.029   7.639   0.386  1.4635  1.7392 -0.3398
  659MOL0     H90942  -0.076   7.612   0.251 -0.7774 -0.6489  0.6895
  660MOL0     O90943   6.842   9.564   7.982 -0.1974 -0.0231  0.3503
  660MOL0     C90944   6.813   9.457   7.924  0.1142 -0.3707  0.9957
  660MOL0     O90945   6.904   9.370   7.862 -0.1298 -0.1664 -0.4269
  660MOL0     C90946   7.034   9.404   7.870  0.2449 -0.7540 -0.2234
  660MOL0     C90947   7.106   9.414   7.987  0.0153 -1.0250 -1.1915
  660MOL0     C90948   7.247   9.434   7.973  0.8934  0.4863  0.2042
  660MOL0     C90949   7.309   9.442   7.849 -0.3140 -0.4002  0.5976
  660MOL0     O90950   7.442   9.465   7.850  0.0059  0.9370 -0.5910
  660MOL0     C90951   7.529   9.353   7.889 -0.4656 -0.9477 -0.3843
  660MOL0     C90952   7.590   9.383   8.025 -0.7549 -0.2584  0.5850
  660MOL0     C90953   7.691   9.277   8.055 -0.1703  0.2877  1.0042
  660MOL0     C90954   7.766   9.311   8.182 -0.3918 -0.0456  0.0819
  660MOL0     C90955   7.832   9.190   8.253  0.1492  0.4734  0.4750
  660MOL0     C90956   7.964   9.146   8.185 -0.0530 -0.3261 -0.0078
  660MOL0     C90957   7.985   8.997   8.212  0.5167 -0.9176 -1.0372
  660MOL0     C90958   8.013   8.963   8.368 -0.5833 -0.7464 -0.4012
  660MOL0     N90959   8.137   9.033   8.426 -0.6945 -0.2176 -0.4787
  660MOL0     C90960   8.265   9.030   8.372  0.4029 -0.5196  0.3929
  660MOL0     C90961   8.341   9.116   8.443  0.7116 -0.3860 -0.2445
  660MOL0     C90962   8.480   9.149   8.401 -0.0857 -0.5814 -0.5528
  660MOL0     C90963   8.564   9.183   8.521  0.1230  0.7136 -0.4126
  660MOL0     C90964   8.701   9.240   8.477 -0.3502  0.4652  0.1970
  660MOL0     C90965   8.789   9.248   8.602 -0.5014  0.4602  0.4492
  660MOL0     O90966   8.893   9.346   8.573 -0.1758  0.3358 -0.3779
  660MOL0     C90967   8.974   9.387   8.676 -0.1221 -0.8629 -0.0431
  660MOL0     C90968   9.032   9.512   8.677 -0.3740  0.1216  0.7927
  660MOL0     C90969   9.118   9.554   8.779 -0.8015  1.0029  1.3195
  660MOL0     C90970   9.168   9.692   8.767 -0.0675  0.2897 -1.1341
  660MOL0     C90971   9.147   9.467   8.883 -0.2280  0.1254  0.1524
  660MOL0     C90972   9.233   9.494   9.001 -0.2083 -0.2383 -0.2861
  660MOL0     O90973   9.261   9.387   9.087 -0.8031 -0.3682  0.5904
  660MOL0     C90974   9.392   9.377   9.132  0.1998 -0.6664 -0.7431
  660MOL0     C90975   9.441   9.446   9.245  0.1813 -0.5622 -0.2874
  660MOL0     C90976   9.575   9.430   9.290 -0.6592  0.3313  0.4217
  660MOL0     C90977   9.664   9.342   9.220 -0.0170 -0.7965  0.2426
  660MOL0     O90978   9.796   9.321   9.252  0.5400  0.1908 -0.1359
  660MOL0     C90979   9.824   9.288   9.388 -0.1119  0.7989 -0.3491
  660MOL0     C90980   9.974   9.279   9.408  0.1248 -0.3212 -0.1221
  660MOL0     C90981  10.040   9.423   9.433  0.9314  0.5550  0.7237
  660MOL0     C90982  10.191   9.422   9.433  0.1781 -0.6115 -0.6154
  660MOL0     C90983  10.253   9.516   9.541  0.4881 -0.4673  0.1984
  660MOL0     C90984  10.400   9.531   9.546 -0.0184  0.0418  0.0001
  660MOL0     C90985  10.471   9.400   9.581  0.0654 -0.7126  0.2861
  660MOL0     C90986  10.431   9.323   9.703 -0.8485 -0.2873  0.0540
  660MOL0    Cl90987  10.269   9.248   9.685 -0.0983 -0.0355  0.1388
  660MOL0     C90988   9.619   9.276   9.110  0.0536  0.7936 -0.0151
  660MOL0     C90989   9.481   9.295   9.075  0.5426  0.6004 -0.1119
  660MOL0     O90990   9.270   9.612   9.021  0.6047 -0.0665  0.8338
  660MOL0     C90991   9.089   9.339   8.883 -0.1584 -0.8531 -0.1408
  660MOL0     C90992   8.990   9.318   8.791  0.3030  0.3235  0.1522
  660MOL0     N90993   8.263   9.179   8.537  0.3177 -0.0648  0.5881
  660MOL0     N90994   8.143   9.119   8.531 -0.2292 -0.3128 -0.0578
  660MOL0     C90995   7.232   9.422   7.729  0.6999 -0.1666  0.1774
  660MOL0     C90996   7.089   9.407   7.749  0.5149 -0.4891  0.4555
  660MOL0     C90997   6.667   9.424   7.908  0.1398  0.0883  0.9196
  660MOL0     C90998   6.634   9.298   7.865 -0.8502  0.0789  0.2545
  660MOL0     C90999   6.505   9.249   7.865  0.4993  0.1633  0.0292
  660MOL0     C91000   6.400   9.332   7.899  0.1342  0.5489 -0.3193
  660MOL0     O91001   6.263   9.296   7.907  0.2943  0.7482  0.1049
  660MOL0     C91002   6.238   9.158   7.890 -0.2997 -0.6275  0.2573
  660MOL0     C91003   6.086   9.159   7.906  1.1249  0.0051 -0.3598
  660MOL0     C91004   6.036   9.016   7.902  0.4610  0.7301  0.5897
  660MOL0     C91005   5.893   9.005   7.953 -0.1036 -0.4184 -0.7638
  660MOL0     C91006   5.850   8.870   7.976  0.7891  0.6495  0.2280
  660MOL0     C91007   5.808   8.755   8.003 -0.2633  0.1197 -0.7177
  660MOL0     C91008   6.428   9.463   7.925  0.3316  0.1700  0.3819
  660MOL0     C91009   6.557   9.513   7.917 -0.3453  0.8754  0.2556
  660MOL0     C91010   6.576   9.661   7.941 -0.4887 -0.0800  0.2904
  660MOL0     H91011   7.059   9.393   8.083  1.5112 -1.5125 -0.5380
  660MOL0     H91012   7.310   9.458   8.057  1.2075 -3.5530  1.3512
  660MOL0     H91013   7.606   9.338   7.813 -1.5416  0.4885 -1.8068
  660MOL0     H91014   7.468   9.263   7.895 -2.3761  0.3542  0.6617
  660MOL0     H91015   7.631   9.485   8.017  0.9433 -0.9559  0.0078
  660MOL0     H91016   7.510   9.390   8.100 -1.4464 -0.0039 -0.1675
  660MOL0     H91017   7.641   9.180   8.060 -0.5665  0.5406  2.6459
  660MOL0     H91018   7.765   9.274   7.975 -1.5221 -2.1570 -0.2535
  660MOL0     H91019   7.836   9.395   8.172 -0.8061  0.1231 -1.7082
  660MOL0     H91020   7.690   9.348   8.251 -0.2373  0.6918 -0.1378
  660MOL0     H91021   7.764   9.105   8.245  0.6941  0.0237  0.4904
  660MOL0     H91022   7.846   9.206   8.360 -1.6023 -2.2316  1.2120
  660MOL0     H91023   7.963   9.172   8.079 -1.5061  0.3027  0.1382
  660MOL0     H91024   8.042   9.208   8.229 -0.6325 -0.0122  0.6083
  660MOL0     H91025   8.072   8.970   8.152  2.0142 -0.3618  0.7530
  660MOL0     H91026   7.898   8.938   8.181 -1.2103 -0.8156  2.9743
  660MOL0     H91027   7.922   8.995   8.421 -0.4636  0.7292 -1.0428
  660MOL0     H91028   8.027   8.855   8.382 -0.9356 -0.4409  3.1683
  660MOL0     H91029   8.298   8.988   8.278  0.3435  1.5535 -0.6162
  660MOL0     H91030   8.482   9.235   8.334  0.7497 -1.1193 -1.2443
  660MOL0     H91031   8.526   9.061   8.356 -2.0334 -1.2898 -1.2184
  660MOL0     H91032   8.515   9.253   8.589 -0.4412 -2.7081  3.0724
  660MOL0     H91033   8.576   9.088   8.574 -2.7316  0.3424 -0.2606
  660MOL0     H91034   8.747   9.177   8.400 -1.3316 -2.4245  1.7894
  660MOL0     H91035   8.695   9.338   8.430  0.6559  0.9117  0.9457
  660MOL0     H91036   8.742   9.277   8.696  1.4730  1.6972  1.1308
  660MOL0     H91037   8.833   9.148   8.618 -0.2887  0.0762 -2.0801
  660MOL0     H91038   9.025   9.577   8.591 -1.9524 -1.2174 -0.1510
  660MOL0     H91039   9.278   9.698   8.768 -0.0498  0.3626  1.5453
  660MOL0     H91040   9.128   9.750   8.851  0.5088  0.0487 -0.6895
  660MOL0     H91041   9.129   9.733   8.673 -0.6242 -3.7867 -2.8707
  660MOL0     H91042   9.367   9.516   9.284  2.2996  1.4693  0.3305
  660MOL0     H91043   9.592   9.490   9.378  0.0259 -0.9312  1.1744
  660MOL0     H91044   9.774   9.352   9.461  1.8260  0.2509  1.5715
  660MOL0     H91045   9.776   9.191   9.397  0.2020  0.3123 -3.1251
  660MOL0     H91046   9.995   9.215   9.495 -3.0490 -0.1962  0.8582
  660MOL0     H91047  10.012   9.235   9.315 -3.8528  1.1461 -2.7346
  660MOL0     H91048  10.002   9.454   9.531  0.5693  0.9494  0.4613
  660MOL0     H91049   9.997   9.496   9.364  0.2649  3.3231  3.7628
  660MOL0     H91050  10.226   9.459   9.336  0.5134 -2.1482 -1.1098
  660MOL0     H91051  10.224   9.319   9.450 -1.6477 -0.9609  1.1893
  660MOL0     H91052  10.222   9.617   9.513  0.7701 -0.4123  0.0817
  660MOL0     H91053  10.208   9.483   9.635  1.6257  0.4343  1.0959
  660MOL0     H91054  10.424   9.600   9.627  0.1111 -1.5178  1.3459
  660MOL0     H91055  10.430   9.574   9.450  0.9654 -0.9773 -0.1695
  660MOL0     H91056  10.578   9.423   9.587 -0.2507  1.1254 -0.2636
  660MOL0     H91057  10.471   9.335   9.493  1.4235 -0.2905 -0.0597
  660MOL0     H91058  10.435   9.387   9.791  1.9342  0.9939 -0.8907
  660MOL0     H91059  10.503   9.241   9.710  0.4568  0.8160 -0.1614
  660MOL0     H91060   9.686   9.213   9.052  0.3836  1.4060 -0.3054
  660MOL0     H91061   9.450   9.241   8.986  0.9141  2.6863 -1.5849
  660MOL0     H91062   9.097   9.263   8.961 -1.9801  0.8413  1.8060
  660MOL0     H91063   8.940   9.223   8.799 -2.2401  1.6405  0.9574
  660MOL0     H91064   7.279   9.426   7.632 -1.2173  1.9873 -0.7662
  660MOL0     H91065   7.035   9.390   7.656  0.8043  0.8441  0.0256
  660MOL0     H91066   6.711   9.222   7.852 -0.0440  0.8248  0.5503
  660MOL0     H91067   6.488   9.144   7.845  0.1815  0.1744  0.2465
  660MOL0     H91068   6.273   9.119   7.794  0.4338  0.4358  0.0747
  660MOL0     H91069   6.287   9.103   7.971 -1.8903 -1.5004  0.6846
  660MOL0     H91070   6.039   9.218   7.826  0.2023 -0.0619  0.1196
  660MOL0     H91071   6.045   9.205   7.996 -0.5632 -1.0802 -0.5305
  660MOL0     H91072   6.034   8.989   7.796  0.1463 -0.3023  0.8424
  660MOL0     H91073   6.099   8.947   7.958  1.4353  0.2142 -1.0654
  660MOL0     H91074   5.825   9.056   7.884  1.6784  0.4436 -1.9436
  660MOL0     H91075   5.890   9.054   8.051  0.0392  0.6157 -1.2623
  660MOL0     H91076   5.776   8.660   8.042  0.8898  0.2045  0.4902
  660MOL0     H91077   6.339   9.516   7.959 -1.0608 -2.1094  0.5564
  660MOL0     H91078   6.476   9.705   7.953 -0.8506 -1.2507  1.8431
  660MOL0     H91079   6.633   9.687   8.031 -1.1440 -3.1204  1.6933
  660MOL0     H91080   6.625   9.702   7.852 -3.1224 -2.3327 -2.4221
  661MOL0     O91081   0.676   2.601   5.160  0.4146  0.2831 -0.1836
  661MOL0     C91082   0.583   2.567   5.239 -0.7010  0.3065  1.0639
  661MOL0     O91083   0.576   2.597   5.372  0.0738  0.4027 -0.2899
  661MOL0     C91084   0.671   2.671   5.443  1.6362  0.5766  0.8647
  661MOL0     C91085   0.632   2.760   5.538 -0.3274  0.5548 -0.9023
  661MOL0     C91086   0.725   2.853   5.593  0.5741  0.6683  0.1627
  661MOL0     C91087   0.863   2.850   5.557 -0.5604 -1.0444  0.3087
  661MOL0     O91088   0.949   2.949   5.599 -0.1697 -0.0207 -0.0391
  661MOL0     C91089   1.083   2.950   5.543 -0.0426 -0.2999  0.6891
  661MOL0     C91090   1.156   3.075   5.590 -0.2025 -0.2714  0.0984
  661MOL0     C91091   1.295   3.087   5.520  0.0846 -0.2604  0.0364
  661MOL0     C91092   1.301   3.209   5.437  0.3872 -0.3595  0.2270
  661MOL0     C91093   1.433   3.232   5.362  0.2368  0.0393  0.2081
  661MOL0     C91094   1.461   3.145   5.247  0.0528 -0.4245 -0.0911
  661MOL0     C91095   1.596   3.179   5.170  1.2917  0.6899  0.3550
  661MOL0     C91096   1.715   3.134   5.259 -0.2094  0.6719 -0.2501
  661MOL0     N91097   1.723   2.982   5.273 -0.0323 -0.4772 -0.2145
  661MOL0     C91098   1.713   2.892   5.173  0.3367 -0.3194  0.6179
  661MOL0     C91099   1.729   2.774   5.239 -0.1685  0.4121  0.0150
  661MOL0     C91100   1.731   2.633   5.173 -0.1002 -0.4234 -0.5153
  661MOL0     C91101   1.878   2.583   5.197 -0.1731  0.0763 -0.2871
  661MOL0     C91102   1.917   2.482   5.088  0.5187 -0.4788 -0.6415
  661MOL0     C91103   2.022   2.387   5.148  0.4895 -0.2236  0.1269
  661MOL0     O91104   2.129   2.457   5.201 -0.2177  0.3209  0.0229
  661MOL0     C91105   2.239   2.388   5.243  0.5234 -0.5571 -0.4802
  661MOL0     C91106   2.258   2.248   5.232  0.5664 -0.5319  0.2397
  661MOL0     C91107   2.377   2.185   5.281 -0.6164 -0.3496  0.1483
  661MOL0     C91108   2.385   2.039   5.238  0.1196  0.0457  0.3709
  661MOL0     C91109   2.473   2.257   5.363 -0.2729  0.3730  0.6033
  661MOL0     C91110   2.585   2.196   5.431  0.0916 -0.1602 -0.1100
  661MOL0     O91111   2.670   2.272   5.505  0.2333  0.2632 -0.2593
  661MOL0     C91112   2.770   2.212   5.577  0.0438 -0.3030 -0.0611
  661MOL0     C91113   2.888   2.277   5.573 -0.6139 -0.1852 -1.0321
  661MOL0     C91114   2.997   2.234   5.643 -0.5490 -0.0617 -0.8182
  661MOL0     C91115   2.986   2.120   5.727 -0.5556 -0.5268  0.1104
  661MOL0     O91116   3.093   2.082   5.807  0.1742 -0.4748 -0.1572
  661MOL0     C91117   3.172   1.970   5.775  0.2318 -0.0668 -0.1411
  661MOL0     C91118   3.299   1.978   5.853 -0.0889  0.4563 -0.0505
  661MOL0     C91119   3.383   1.862   5.811 -0.8097 -0.2943 -0.0490
  661MOL0     C91120   3.338   1.734   5.873  0.6838 -0.8961 -0.2048
  661MOL0     C91121   3.423   1.616   5.833 -0.5831 -0.3626 -0.4378
  661MOL0     C91122   3.565   1.626   5.901  0.5053  0.6567  0.6507
  661MOL0     C91123   3.663   1.516   5.860 -0.3101 -0.1612 -0.2852
  661MOL0     C91124   3.788   1.530   5.952 -0.3051  0.9960 -0.5559
  661MOL0    Cl91125   3.893   1.670   5.901 -0.3252 -0.2270 -0.2171
  661MOL0     C91126   2.871   2.057   5.732  0.6113  0.7969 -0.8579
  661MOL0     C91127   2.759   2.101   5.658  0.2227  0.6283  0.2512
  661MOL0     O91128   2.607   2.076   5.404  0.2903 -0.0746 -0.3179
  661MOL0     C91129   2.448   2.394   5.370  0.8796 -0.4091  0.9368
  661MOL0     C91130   2.332   2.456   5.309 -0.2411 -0.4858 -0.3049
  661MOL0     N91131   1.746   2.806   5.372  0.0823 -0.2348 -0.0300
  661MOL0     N91132   1.749   2.930   5.391 -0.1398 -0.4590 -0.2744
  661MOL0     C91133   0.898   2.753   5.459  0.6404 -0.1495 -0.2741
  661MOL0     C91134   0.802   2.662   5.412 -0.2196  0.8739 -0.3191
  661MOL0     C91135   0.455   2.495   5.182 -0.8044 -0.1573  0.1265
  661MOL0     C91136   0.343   2.484   5.264  1.1091 -0.1699 -0.0654
  661MOL0     C91137   0.217   2.448   5.211  0.1861  0.2065  0.0522
  661MOL0     C91138   0.205   2.413   5.077  0.3666  0.5053  0.2939
  661MOL0     O91139   0.090   2.387   5.009  0.3861  1.0658 -0.2316
  661MOL0     C91140  -0.040   2.419   5.068 -0.3936  0.5327 -0.1905
  661MOL0     C91141  -0.155   2.419   4.972 -1.0814 -0.5859  0.0371
  661MOL0     C91142  -0.258   2.309   4.999 -0.5884  0.3006 -0.7254
  661MOL0     C91143  -0.376   2.323   4.915  0.8835  0.3976  1.1510
  661MOL0     C91144  -0.489   2.234   4.947  0.6873 -0.2516  0.3429
  661MOL0     C91145  -0.581   2.162   4.960  0.1557  0.3906 -0.0394
  661MOL0     C91146   0.320   2.406   4.999  0.5630  0.2405  0.0813
  661MOL0     C91147   0.441   2.452   5.049  0.4985 -0.5040  1.2952
  661MOL0     C91148   0.559   2.441   4.963 -0.6464  0.4204 -0.8534
  661MOL0     H91149   0.527   2.766   5.567 -0.1222 -0.6405  0.1372
  661MOL0     H91150   0.691   2.912   5.677 -1.3193 -1.0735  0.6946
  661MOL0     H91151   1.077   2.948   5.433  1.2899  0.3644  0.5884
  661MOL0     H91152   1.140   2.865   5.581 -0.8348 -0.8094  0.7745
  661MOL0     H91153   1.093   3.160   5.561  0.9614  0.9583  1.0679
  661MOL0     H91154   1.174   3.077   5.698 -1.4507  0.3971  0.3142
  661MOL0     H91155   1.371   3.083   5.598 -1.4402  2.0908  1.7764
  661MOL0     H91156   1.314   3.007   5.449 -1.3762 -1.1821  0.6345
  661MOL0     H91157   1.217   3.202   5.367  1.1112 -2.4500 -0.5231
  661MOL0     H91158   1.293   3.290   5.510 -2.2710 -0.0109 -0.3454
  661MOL0     H91159   1.519   3.228   5.429  1.8786  1.7748 -1.6799
  661MOL0     H91160   1.425   3.337   5.334 -0.3119  0.2387  1.0893
  661MOL0     H91161   1.451   3.040   5.276 -1.9561 -0.1935  0.1859
  661MOL0     H91162   1.384   3.161   5.170  0.9215  0.0171 -0.8846
  661MOL0     H91163   1.597   3.287   5.152  0.8880  0.2793 -2.5564
  661MOL0     H91164   1.590   3.113   5.084 -1.5268 -1.5635  2.0921
  661MOL0     H91165   1.805   3.172   5.209  0.9749 -2.2210 -0.4849
  661MOL0     H91166   1.720   3.173   5.361  0.0026  0.0272 -0.0068
  661MOL0     H91167   1.705   2.907   5.066 -2.8826 -3.4598  0.2190
  661MOL0     H91168   1.710   2.651   5.067 -1.3590  0.1017 -0.1880
  661MOL0     H91169   1.666   2.565   5.228  0.5000  1.4320  2.7121
  661MOL0     H91170   1.950   2.666   5.202 -0.9888  0.7557  3.4482
  661MOL0     H91171   1.886   2.530   5.292 -0.3658 -1.1531 -0.9464
  661MOL0     H91172   1.827   2.430   5.055 -1.2232  0.1776  2.6209
  661MOL0     H91173   1.957   2.536   5.002  1.1972 -1.0802 -0.7165
  661MOL0     H91174   1.988   2.318   5.226  1.4150 -2.2079 -1.1496
  661MOL0     H91175   2.067   2.327   5.068  2.1931  0.1538  0.7604
  661MOL0     H91176   2.183   2.188   5.181  0.8482 -0.2842 -0.4749
  661MOL0     H91177   2.354   1.980   5.325 -1.7264 -0.6874 -0.7153
  661MOL0     H91178   2.481   2.002   5.200  0.0755 -2.9716  2.7815
  661MOL0     H91179   2.312   2.024   5.158 -0.8613  2.3532  0.7617
  661MOL0     H91180   2.893   2.368   5.514 -2.7957  0.3459 -0.4749
  661MOL0     H91181   3.092   2.288   5.643  0.3629 -1.5200 -2.5459
  661MOL0     H91182   3.106   1.885   5.798  0.0121 -0.4205 -1.9141
  661MOL0     H91183   3.188   1.963   5.667 -0.9177 -1.1937 -0.2713
  661MOL0     H91184   3.345   2.071   5.820 -2.5116  1.5462 -0.6133
  661MOL0     H91185   3.276   1.971   5.960 -2.7894 -1.6337 -0.6457
  661MOL0     H91186   3.487   1.891   5.832  0.1261 -0.4440 -3.7956
  661MOL0     H91187   3.388   1.848   5.702 -2.0506  0.6101 -0.2360
  661MOL0     H91188   3.233   1.718   5.845  0.9926 -0.1897 -1.8681
  661MOL0     H91189   3.340   1.756   5.981  1.9102 -1.7528 -0.0406
  661MOL0     H91190   3.360   1.532   5.863 -2.7831  1.9564  1.9438
  661MOL0     H91191   3.439   1.610   5.725 -5.0904  0.1622 -1.3469
  661MOL0     H91192   3.556   1.627   6.010 -1.0227 -0.2364  0.5622
  661MOL0     H91193   3.604   1.725   5.879 -0.2314  1.0121  0.9335
  661MOL0     H91194   3.692   1.509   5.755 -2.7131  1.9344 -1.1843
  661MOL0     H91195   3.625   1.416   5.885 -0.2090 -0.3420 -0.8281
  661MOL0     H91196   3.852   1.442   5.939 -1.9907 -0.4777  0.4787
  661MOL0     H91197   3.757   1.536   6.056  0.6058 -0.3081 -0.1769
  661MOL0     H91198   2.872   1.963   5.787  2.9216  0.7198 -0.9532
  661MOL0     H91199   2.665   2.046   5.661  0.2180  0.6539  0.6520
  661MOL0     H91200   2.514   2.459   5.427 -0.9210  1.1346  1.3442
  661MOL0     H91201   2.320   2.563   5.319 -0.8624 -0.7742  3.1839
  661MOL0     H91202   0.998   2.742   5.420  0.2494 -1.4374 -0.9689
  661MOL0     H91203   0.832   2.585   5.341 -0.1568  2.7594 -2.4729
  661MOL0     H91204   0.356   2.500   5.371 -0.1910 -2.0176  0.4172
  661MOL0     H91205   0.126   2.449   5.270  0.1575 -2.3928  0.1609
  661MOL0     H91206  -0.069   2.360   5.156 -0.8086  1.4282  0.2899
  661MOL0     H91207  -0.027   2.522   5.102  3.8143 -0.1593  0.8925
  661MOL0     H91208  -0.123   2.406   4.868 -2.8122  0.3634 -0.6544
  661MOL0     H91209  -0.202   2.518   4.979  0.2829  0.0029  1.2109
  661MOL0     H91210  -0.205   2.213   4.991  0.4900  0.8858 -0.7951
  661MOL0     H91211  -0.287   2.320   5.104 -1.3759  1.2477 -1.0319
  661MOL0     H91212  -0.330   2.303   4.818 -0.2546  1.1741  0.4122
  661MOL0     H91213  -0.403   2.429   4.902 -0.0929 -0.0733 -1.2473
  661MOL0     H91214  -0.661   2.096   4.989  0.6510  1.0337  3.1270
  661MOL0     H91215   0.317   2.361   4.901  1.3997  1.4407 -0.5318
  661MOL0     H91216   0.587   2.545   4.944  2.3008  0.0319  0.7315
  661MOL0     H91217   0.645   2.386   5.004  0.0802  1.9884 -0.1827
  661MOL0     H91218   0.532   2.393   4.869  1.2922 -0.0269 -1.2289
  662MOL0     O91219   6.202   0.803   3.509 -0.7540 -0.1122  0.0259
  662MOL0     C91220   6.222   0.780   3.624  0.6363  0.5916 -0.3231
  662MOL0     O91221   6.328   0.710   3.671  0.7105  0.3106 -0.0313
  662MOL0     C91222   6.383   0.619   3.585 -0.8445 -0.0641 -0.1531
  662MOL0     C91223   6.525   0.608   3.581  0.3116 -0.4207  0.2061
  662MOL0     C91224   6.588   0.505   3.506  0.0598  0.3289  0.0512
  662MOL0     C91225   6.512   0.426   3.416 -0.3940 -0.0529  0.3992
  662MOL0     O91226   6.573   0.334   3.330 -0.2855 -0.8311 -0.2501
  662MOL0     C91227   6.718   0.318   3.327 -0.3609  0.9408 -0.1990
  662MOL0     C91228   6.744   0.222   3.222 -0.6669 -0.6577 -0.2749
  662MOL0     C91229   6.892   0.223   3.190  0.5835 -1.1070 -0.0930
  662MOL0     C91230   6.977   0.215   3.311 -0.2953 -0.4023 -0.8038
  662MOL0     C91231   7.127   0.208   3.263 -0.1978  0.1081 -1.3139
  662MOL0     C91232   7.241   0.218   3.366 -0.6591 -0.5854  0.4446
  662MOL0     C91233   7.374   0.232   3.294  0.0351  0.2375  0.3708
  662MOL0     C91234   7.419   0.098   3.237  0.2213  0.6370  1.0479
  662MOL0     N91235   7.543   0.108   3.168  0.2105 -0.9192 -0.1287
  662MOL0     C91236   7.567   0.083   3.036  0.8276  0.0765 -0.2511
  662MOL0     C91237   7.696   0.090   3.012 -0.0206  0.5946 -0.7563
  662MOL0     C91238   7.763   0.055   2.886  0.4653  0.2364  0.0641
  662MOL0     C91239   7.830   0.181   2.815 -0.2603  0.2148 -0.7412
  662MOL0     C91240   7.876   0.146   2.672  0.4541  0.2504  0.4437
  662MOL0     C91241   7.977   0.248   2.617 -0.7954 -0.2154  0.0780
  662MOL0     O91242   7.981   0.237   2.472  0.8669  0.8238  0.2871
  662MOL0     C91243   8.092   0.235   2.406 -0.7157 -0.6377 -0.4893
  662MOL0     C91244   8.107   0.307   2.285 -0.4596 -0.0679  0.2310
  662MOL0     C91245   8.227   0.290   2.219 -0.1538 -0.0580 -0.0251
  662MOL0     C91246   8.257   0.397   2.110 -0.2446 -0.0634 -0.0577
  662MOL0     C91247   8.322   0.191   2.257  0.1263 -0.3212 -0.0929
  662MOL0     C91248   8.452   0.174   2.186 -0.0453 -0.2679 -0.0858
  662MOL0     O91249   8.556   0.115   2.249 -0.0147 -0.0570  0.0365
  662MOL0     C91250   8.681   0.096   2.193  0.5874 -0.5882 -0.4515
  662MOL0     C91251   8.791   0.086   2.282  0.7811  0.5500 -0.3665
  662MOL0     C91252   8.917   0.058   2.241  0.0792 -0.7280  0.2331
  662MOL0     C91253   8.955   0.038   2.110  0.2320 -0.6257 -0.0991
  662MOL0     O91254   9.085  -0.006   2.080  0.2943 -0.4833 -0.5115
  662MOL0     C91255   9.125  -0.053   1.953 -0.9077  0.1550 -0.1250
  662MOL0     C91256   9.091  -0.204   1.937 -0.5923  0.2801  0.0195
  662MOL0     C91257   8.967  -0.247   1.860  0.1290 -1.1759  0.4224
  662MOL0     C91258   8.975  -0.210   1.704  0.5730 -0.2586  0.4834
  662MOL0     C91259   8.830  -0.221   1.646 -0.4634  0.7373 -0.1522
  662MOL0     C91260   8.757  -0.357   1.661 -1.1020 -0.1420  0.3159
  662MOL0     C91261   8.812  -0.466   1.566 -0.5485 -0.5762  0.4491
  662MOL0     C91262   8.716  -0.590   1.565 -0.6872  0.6985 -0.1448
  662MOL0    Cl91263   8.723  -0.671   1.736  0.0931  0.5056 -0.4581
  662MOL0     C91264   8.853   0.060   2.017  0.3937 -0.2684  0.7075
  662MOL0     C91265   8.719   0.091   2.056 -0.2028  0.7462  0.6138
  662MOL0     O91266   8.456   0.212   2.071  0.1299  0.2973 -0.1081
  662MOL0     C91267   8.302   0.114   2.373 -0.5405 -0.8356  0.7422
  662MOL0     C91268   8.188   0.138   2.445 -0.6856  0.6385 -0.0878
  662MOL0     N91269   7.758   0.120   3.139 -0.1711  1.0514  0.5467
  662MOL0     N91270   7.663   0.126   3.224 -0.4231  0.0505 -0.0543
  662MOL0     C91271   6.370   0.439   3.417 -0.6666  0.3397 -0.0195
  662MOL0     C91272   6.311   0.524   3.504 -0.0781 -0.0292 -0.2751
  662MOL0     C91273   6.122   0.832   3.719  0.2219 -0.1794  0.1770
  662MOL0     C91274   6.127   0.776   3.851  0.0598  0.5543  0.5689
  662MOL0     C91275   6.037   0.819   3.945 -0.5897 -0.2641 -0.4497
  662MOL0     C91276   5.953   0.925   3.920 -0.4001 -0.6804  0.0077
  662MOL0     O91277   5.879   0.974   4.026  0.2682 -0.0611  0.4066
  662MOL0     C91278   5.744   1.029   4.005 -0.4756 -0.5802 -0.0083
  662MOL0     C91279   5.659   0.920   3.942 -0.6514 -0.0103 -0.1065
  662MOL0     C91280   5.512   0.965   3.935  0.1167  0.7181  0.2618
  662MOL0     C91281   5.468   1.096   3.859 -0.5794 -0.0683 -0.0055
  662MOL0     C91282   5.331   1.128   3.885  0.1172 -0.4274  0.0637
  662MOL0     C91283   5.214   1.142   3.893 -0.5096  0.3723 -1.7222
  662MOL0     C91284   5.948   0.987   3.793  0.5266  0.9630 -0.2395
  662MOL0     C91285   6.022   0.930   3.696 -0.2522 -0.4166 -0.5698
  662MOL0     C91286   6.004   0.995   3.562  0.5752  0.2313 -0.0778
  662MOL0     H91287   6.598   0.670   3.632  0.4051 -0.4607  0.1218
  662MOL0     H91288   6.695   0.496   3.518 -0.1967 -1.1982  1.7565
  662MOL0     H91289   6.735   0.269   3.423 -2.6629 -0.1325 -0.2627
  662MOL0     H91290   6.770   0.413   3.313 -2.5832  2.1749 -0.6288
  662MOL0     H91291   6.708   0.126   3.258 -1.1008 -0.5328 -0.3666
  662MOL0     H91292   6.684   0.255   3.136 -0.6338  0.3650  0.0831
  662MOL0     H91293   6.919   0.150   3.113  0.8466 -0.2126 -0.8637
  662MOL0     H91294   6.909   0.319   3.141 -0.8576 -1.5690 -1.5902
  662MOL0     H91295   6.968   0.312   3.361  2.4718 -1.2955  1.7440
  662MOL0     H91296   6.951   0.128   3.372  2.0987 -1.1228 -0.7097
  662MOL0     H91297   7.143   0.286   3.188  0.3581  0.9415 -0.3576
  662MOL0     H91298   7.138   0.113   3.211  2.5846  0.8013 -2.1096
  662MOL0     H91299   7.226   0.304   3.432 -3.5669  0.1219 -1.0073
  662MOL0     H91300   7.238   0.126   3.426 -0.8120  0.3133  1.8525
  662MOL0     H91301   7.446   0.268   3.367  0.4450  1.4434 -0.5787
  662MOL0     H91302   7.362   0.308   3.216 -1.1418 -1.5554 -1.2895
  662MOL0     H91303   7.443   0.031   3.320  2.6403 -1.4384 -1.1710
  662MOL0     H91304   7.346   0.048   3.172  1.5315 -0.8889  0.6985
  662MOL0     H91305   7.497   0.059   2.956  1.4814  0.3234 -0.9185
  662MOL0     H91306   7.688   0.022   2.813  1.5831  1.6811 -1.8191
  662MOL0     H91307   7.826  -0.031   2.908 -2.8853 -2.3359  0.4531
  662MOL0     H91308   7.761   0.266   2.817  1.7724  1.9459 -0.8573
  662MOL0     H91309   7.913   0.209   2.880 -1.3184  1.0015  0.3211
  662MOL0     H91310   7.922   0.047   2.672 -2.2019 -1.0781  1.0435
  662MOL0     H91311   7.786   0.147   2.609  1.8495  2.7181 -1.6726
  662MOL0     H91312   7.949   0.349   2.646  2.9582  0.9082  0.2474
  662MOL0     H91313   8.071   0.226   2.668 -1.1984  1.9560  1.8559
  662MOL0     H91314   8.028   0.370   2.244  0.0102 -0.3491 -1.1428
  662MOL0     H91315   8.216   0.494   2.139  0.0808 -0.1629  0.7506
  662MOL0     H91316   8.230   0.373   2.007  0.7944  3.8213 -1.3911
  662MOL0     H91317   8.363   0.426   2.111 -0.1205 -0.5225  0.2062
  662MOL0     H91318   8.772   0.103   2.387  0.6964 -1.8533  0.0643
  662MOL0     H91319   8.995   0.030   2.311  0.9321 -1.4952 -0.9947
  662MOL0     H91320   9.071   0.002   1.875 -1.5762 -0.6757 -0.2605
  662MOL0     H91321   9.232  -0.044   1.934 -0.4962  1.8319  2.4946
  662MOL0     H91322   9.169  -0.250   1.876  0.7000  3.1221 -0.6813
  662MOL0     H91323   9.095  -0.252   2.035  0.1199 -1.0509 -0.6372
  662MOL0     H91324   8.884  -0.196   1.910  0.0661 -1.5143  0.6688
  662MOL0     H91325   8.949  -0.354   1.873  0.0188 -1.4532 -1.7365
  662MOL0     H91326   9.048  -0.272   1.652  0.6416  1.0388 -1.0375
  662MOL0     H91327   9.016  -0.110   1.694  1.5422 -0.8739 -3.0723
  662MOL0     H91328   8.775  -0.145   1.704 -3.2159 -2.1341  1.3391
  662MOL0     H91329   8.833  -0.184   1.543  0.6146  0.2173 -0.3228
  662MOL0     H91330   8.650  -0.341   1.642 -1.4172 -1.3900  0.9428
  662MOL0     H91331   8.758  -0.396   1.763  0.8843 -0.6472  0.1372
  662MOL0     H91332   8.908  -0.507   1.598 -0.3844 -0.5242  0.0244
  662MOL0     H91333   8.823  -0.424   1.466  3.5970 -1.0126  0.5712
  662MOL0     H91334   8.753  -0.674   1.505 -1.0104  0.3770  0.0959
  662MOL0     H91335   8.611  -0.568   1.542 -1.5578 -3.1124 -0.6152
  662MOL0     H91336   8.883   0.060   1.913 -1.8080  0.9455  0.0087
  662MOL0     H91337   8.647   0.120   1.980  0.4514  1.5631  0.2820
  662MOL0     H91338   8.388   0.055   2.406  2.0336  1.8088 -0.8165
  662MOL0     H91339   8.183   0.080   2.537  0.6613  0.1555 -0.2967
  662MOL0     H91340   6.328   0.360   3.355  0.3232 -0.4179  0.2481
  662MOL0     H91341   6.203   0.531   3.500 -0.0824  0.0409 -0.0553
  662MOL0     H91342   6.196   0.698   3.882 -0.4704 -0.1381  0.0374
  662MOL0     H91343   6.041   0.782   4.047 -0.9592  3.0089  0.8733
  662MOL0     H91344   5.707   1.069   4.100  3.1313 -0.7808  1.6643
  662MOL0     H91345   5.754   1.114   3.937 -2.2198 -1.5678 -1.6106
  662MOL0     H91346   5.663   0.828   4.000  0.1508  0.9214  1.3775
  662MOL0     H91347   5.699   0.903   3.842 -1.5053  1.5463 -0.7561
  662MOL0     H91348   5.452   0.891   3.880  0.2539  0.7731  0.0357
  662MOL0     H91349   5.466   0.972   4.034 -1.6889 -0.4811 -0.4371
  662MOL0     H91350   5.475   1.071   3.753 -0.1979  1.7449 -0.4466
  662MOL0     H91351   5.534   1.180   3.885  1.5536 -1.3827 -0.8844
  662MOL0     H91352   5.109   1.164   3.896 -0.5550  0.1642  1.7791
  662MOL0     H91353   5.875   1.065   3.775 -0.8605  0.2454  1.8764
  662MOL0     H91354   5.935   1.079   3.570 -0.3524 -0.5596  0.4016
  662MOL0     H91355   6.100   1.037   3.530  1.3213 -3.0395 -2.7782
  662MOL0     H91356   5.970   0.921   3.490 -0.5069  0.0898  0.5621
  663MOL0     O91357   7.612   0.794   0.071 -0.4439  0.0041 -0.1202
  663MOL0     C91358   7.578   0.812  -0.044 -0.5275  0.0646 -0.3683
  663MOL0     O91359   7.642   0.763  -0.151  0.1160 -0.1511  0.0782
  663MOL0     C91360   7.762   0.704  -0.132 -0.4161  0.7590 -0.1152
  663MOL0     C91361   7.773   0.569  -0.087 -0.4306  0.4109 -0.0188
  663MOL0     C91362   7.896   0.513  -0.078  0.3063 -0.3454 -0.1303
  663MOL0     C91363   8.013   0.585  -0.105 -0.3051  0.1093 -0.0786
  663MOL0     O91364   8.124   0.507  -0.091  1.0016  0.5282  0.4377
  663MOL0     C91365   8.251   0.571  -0.116  0.1705 -0.5302 -0.2979
  663MOL0     C91366   8.368   0.479  -0.079  0.1220 -0.7155  0.3618
  663MOL0     C91367   8.366   0.345  -0.163  0.2952  0.0017  0.1425
  663MOL0     C91368   8.471   0.242  -0.122  0.9163 -0.1681 -0.3996
  663MOL0     C91369   8.617   0.278  -0.144 -0.5412 -0.7128  0.6953
  663MOL0     C91370   8.637   0.324  -0.287 -0.4812 -0.6098 -0.4040
  663MOL0     C91371   8.782   0.331  -0.331  0.3967  1.0435  0.7592
  663MOL0     C91372   8.860   0.456  -0.284  0.2074  0.2889 -0.6733
  663MOL0     N91373   8.799   0.582  -0.320  0.4335  0.0023  0.3292
  663MOL0     C91374   8.776   0.619  -0.444  0.4757 -0.5117  0.2272
  663MOL0     C91375   8.695   0.725  -0.430 -0.0291 -0.4718 -0.0931
  663MOL0     C91376   8.661   0.807  -0.544 -0.6741  0.1124  0.2492
  663MOL0     C91377   8.514   0.800  -0.582 -0.0574  0.3982  0.1289
  663MOL0     C91378   8.480   0.658  -0.636 -0.0050 -0.4873  0.0223
  663MOL0     C91379   8.517   0.640  -0.781  0.6467 -0.4024  0.1355
  663MOL0     O91380   8.637   0.571  -0.806 -0.0945 -0.2793 -0.4406
  663MOL0     C91381   8.652   0.443  -0.752  0.2327  0.2670  0.3097
  663MOL0     C91382   8.545   0.364  -0.699 -0.2418  1.1287 -0.6810
  663MOL0     C91383   8.570   0.236  -0.638 -0.2949  0.3994  0.8624
  663MOL0     C91384   8.445   0.171  -0.579  0.9092 -0.8168 -0.9754
  663MOL0     C91385   8.699   0.183  -0.638  0.6811 -0.6947  0.2957
  663MOL0     C91386   8.731   0.053  -0.572  0.6942  0.7584  0.2046
  663MOL0     O91387   8.636  -0.009  -0.486  0.8344  0.2499 -0.4102
  663MOL0     C91388   8.696  -0.092  -0.399 -0.0038 -0.3644 -1.0245
  663MOL0     C91389   8.702  -0.053  -0.263 -0.2681  0.2618  0.0160
  663MOL0     C91390   8.741  -0.147  -0.170 -0.3582  0.2567 -0.0614
  663MOL0     C91391   8.800  -0.270  -0.202  0.1011  0.1164 -0.1654
  663MOL0     O91392   8.861  -0.334  -0.100  0.5929 -0.0094  0.0739
  663MOL0     C91393   8.885  -0.477  -0.111  0.0303  0.0101  1.1052
  663MOL0     C91394   8.853  -0.549   0.022 -1.2336 -0.3684 -1.0406
  663MOL0     C91395   8.889  -0.696   0.014 -0.0872 -0.1557  0.0811
  663MOL0     C91396   8.763  -0.765  -0.047  0.5138  0.0585 -0.3950
  663MOL0     C91397   8.781  -0.918  -0.042 -0.1766  0.5132 -1.0841
  663MOL0     C91398   8.652  -0.993  -0.050  1.1568  1.0236 -0.5494
  663MOL0     C91399   8.687  -1.143  -0.035  0.3091  0.2468 -0.0216
  663MOL0     C91400   8.736  -1.198  -0.168 -0.7583 -0.1089 -0.4547
  663MOL0    Cl91401   8.751  -1.381  -0.156  0.0991  0.1037 -0.3520
  663MOL0     C91402   8.794  -0.306  -0.338  0.2010 -0.3717 -0.1286
  663MOL0     C91403   8.744  -0.221  -0.429  0.6728 -0.3828  0.0772
  663MOL0     O91404   8.838   0.003  -0.602  0.5459 -0.0725  0.6621
  663MOL0     C91405   8.796   0.258  -0.702  0.2793 -0.1103  0.3522
  663MOL0     C91406   8.782   0.385  -0.756  0.8409 -0.4539  0.5656
  663MOL0     N91407   8.685   0.764  -0.305  0.3639 -0.6023 -0.3163
  663MOL0     N91408   8.756   0.679  -0.235 -0.1963  0.2305 -0.7265
  663MOL0     C91409   8.000   0.725  -0.142 -0.7903  1.3899 -0.2730
  663MOL0     C91410   7.875   0.774  -0.158  0.2013  0.2708 -0.2205
  663MOL0     C91411   7.452   0.875  -0.069  0.1313 -0.1644  0.5390
  663MOL0     C91412   7.366   0.807  -0.169 -0.6153  0.6077 -1.1178
  663MOL0     C91413   7.236   0.854  -0.188 -0.0476  0.0370  0.2568
  663MOL0     C91414   7.187   0.964  -0.115  0.0525  0.9006 -0.5381
  663MOL0     O91415   7.052   1.002  -0.109  0.5223  0.9239  0.7621
  663MOL0     C91416   6.975   0.994  -0.230  0.2055  0.3159 -0.5174
  663MOL0     C91417   6.868   1.096  -0.215 -0.9922 -0.6627 -0.9265
  663MOL0     C91418   6.749   1.053  -0.135  0.0866 -0.0784  0.0880
  663MOL0     C91419   6.690   0.927  -0.188  0.0353  0.7037 -0.5186
  663MOL0     C91420   6.570   0.893  -0.106 -0.0967 -0.0719 -0.0820
  663MOL0     C91421   6.476   0.863  -0.043 -0.9157 -0.2809 -0.2401
  663MOL0     C91422   7.272   1.031  -0.031 -0.0362  0.7872 -0.0353
  663MOL0     C91423   7.402   0.985  -0.004  0.8578 -0.0760 -0.8641
  663MOL0     C91424   7.478   1.071   0.089  0.0872 -0.6251 -0.0058
  663MOL0     H91425   7.690   0.500  -0.075  1.0109 -1.7024 -1.2618
  663MOL0     H91426   7.907   0.407  -0.057  0.2225 -0.4730 -0.7306
  663MOL0     H91427   8.256   0.666  -0.061  1.7206  0.3033 -1.7676
  663MOL0     H91428   8.266   0.604  -0.219 -2.0758  0.2718 -0.4310
  663MOL0     H91429   8.458   0.532  -0.112 -0.2534 -0.9832 -1.1650
  663MOL0     H91430   8.375   0.459   0.028 -1.0320  0.5720  0.6930
  663MOL0     H91431   8.267   0.299  -0.151 -0.1979  0.9716 -0.0390
  663MOL0     H91432   8.368   0.365  -0.271  2.6203 -0.8271 -0.0134
  663MOL0     H91433   8.464   0.222  -0.015 -3.9158  1.3031 -0.2030
  663MOL0     H91434   8.465   0.148  -0.178  0.6305 -0.3499 -0.0676
  663MOL0     H91435   8.683   0.196  -0.115 -0.1071 -0.6878 -0.2073
  663MOL0     H91436   8.645   0.364  -0.083 -1.7096  0.5857 -0.5127
  663MOL0     H91437   8.587   0.255  -0.356  0.8067 -0.6925 -1.2945
  663MOL0     H91438   8.588   0.422  -0.287 -2.9564 -1.6607  2.8828
  663MOL0     H91439   8.796   0.325  -0.439  3.2052 -0.6952  1.1293
  663MOL0     H91440   8.836   0.249  -0.283  0.9045  1.5305  1.0322
  663MOL0     H91441   8.867   0.452  -0.175  0.8046 -0.8023 -0.7409
  663MOL0     H91442   8.961   0.448  -0.327  0.4928  2.3790 -0.5042
  663MOL0     H91443   8.799   0.569  -0.537 -0.2269  3.3667 -2.2587
  663MOL0     H91444   8.719   0.773  -0.631 -0.4775 -1.4914  0.9772
  663MOL0     H91445   8.685   0.912  -0.525  1.1592 -0.5805  2.0558
  663MOL0     H91446   8.452   0.819  -0.494 -1.6842  0.0352 -0.8973
  663MOL0     H91447   8.482   0.881  -0.649  1.8496  1.8026  0.8347
  663MOL0     H91448   8.528   0.584  -0.570 -0.0069  0.4760  1.1453
  663MOL0     H91449   8.373   0.639  -0.622  0.2856 -2.5993 -0.3444
  663MOL0     H91450   8.439   0.587  -0.836 -0.3595  1.2579 -0.1013
  663MOL0     H91451   8.508   0.739  -0.826 -2.1595 -0.1677  1.0814
  663MOL0     H91452   8.441   0.395  -0.705 -0.7520  0.5844  3.0799
  663MOL0     H91453   8.358   0.232  -0.606  0.3960 -1.3372 -0.5170
  663MOL0     H91454   8.450   0.171  -0.470  0.4944 -0.2646 -0.9522
  663MOL0     H91455   8.425   0.070  -0.614 -2.2492 -1.0522  1.0977
  663MOL0     H91456   8.656   0.045  -0.249 -0.1655  0.4899 -1.0869
  663MOL0     H91457   8.753  -0.110  -0.069  3.9763  1.8349 -0.9550
  663MOL0     H91458   8.824  -0.526  -0.187 -1.8890 -0.1880  2.7227
  663MOL0     H91459   8.992  -0.497  -0.127 -0.0745 -0.3301  0.8109
  663MOL0     H91460   8.922  -0.502   0.093 -0.3900  0.5298 -2.4148
  663MOL0     H91461   8.751  -0.541   0.059 -0.2723 -0.9086  2.0789
  663MOL0     H91462   8.900  -0.734   0.116 -0.5193  1.2401  0.6778
  663MOL0     H91463   8.979  -0.721  -0.043  0.8971  0.5511  1.2639
  663MOL0     H91464   8.757  -0.735  -0.152  0.8972 -0.3285 -0.5308
  663MOL0     H91465   8.670  -0.747   0.008  0.4044 -2.6640  0.4859
  663MOL0     H91466   8.854  -0.945  -0.119 -0.6038 -3.2106 -0.3511
  663MOL0     H91467   8.832  -0.948   0.050  0.0582  1.5213 -0.8704
  663MOL0     H91468   8.602  -0.969  -0.144 -0.7689 -3.0391 -0.7747
  663MOL0     H91469   8.584  -0.966   0.031  2.4020 -1.3671  1.4141
  663MOL0     H91470   8.590  -1.178   0.002  0.7177  1.7817  2.7971
  663MOL0     H91471   8.762  -1.155   0.043 -0.0197  0.5171  0.3390
  663MOL0     H91472   8.835  -1.156  -0.190 -0.6499  1.3415  2.4200
  663MOL0     H91473   8.669  -1.170  -0.250 -0.7956  0.1961 -0.3159
  663MOL0     H91474   8.846  -0.397  -0.365  3.1965  0.6818  1.6569
  663MOL0     H91475   8.732  -0.250  -0.533 -0.0188 -0.3031  0.1279
  663MOL0     H91476   8.898   0.222  -0.695 -0.2622 -1.6462  0.6123
  663MOL0     H91477   8.859   0.454  -0.787  0.0610 -0.6970 -2.1179
  663MOL0     H91478   8.082   0.794  -0.154 -1.3635  1.6014 -4.5615
  663MOL0     H91479   7.868   0.881  -0.179 -0.9447  0.4334  0.8703
  663MOL0     H91480   7.383   0.716  -0.224 -1.8983 -1.5721  1.8277
  663MOL0     H91481   7.177   0.803  -0.263  2.0731 -0.3741 -1.2249
  663MOL0     H91482   7.037   1.023  -0.316  0.7325  0.7201 -0.0147
  663MOL0     H91483   6.944   0.890  -0.241  0.7811 -0.3842  3.0466
  663MOL0     H91484   6.835   1.107  -0.319 -0.8907 -0.7325 -0.9667
  663MOL0     H91485   6.904   1.196  -0.189 -2.8212  0.7388 -3.3530
  663MOL0     H91486   6.769   1.056  -0.028  0.9050 -1.3018 -0.0081
  663MOL0     H91487   6.675   1.132  -0.154  0.6894 -0.0301 -2.3794
  663MOL0     H91488   6.752   0.839  -0.171 -1.7730 -0.4471  0.5405
  663MOL0     H91489   6.658   0.946  -0.291  1.6821 -0.5588 -1.3165
  663MOL0     H91490   6.394   0.845   0.024  0.9754 -2.3740  1.7025
  663MOL0     H91491   7.247   1.124   0.019  3.3830  0.8357  1.9243
  663MOL0     H91492   7.580   1.077   0.050  0.7550 -1.0989  1.6102
  663MOL0     H91493   7.435   1.168   0.115  0.2080 -1.4150  3.6787
  663MOL0     H91494   7.492   1.015   0.182  4.7610 -1.1120 -0.8023
  664MOL0     O91495  10.937   5.816   9.484  0.2381  0.2216  0.0808
  664MOL0     C91496  10.929   5.902   9.392  0.6487  0.5103  0.6979
  664MOL0     O91497  10.995   5.899   9.278 -0.3776 -0.7388  0.4639
  664MOL0     C91498  11.104   5.818   9.271  0.9316  0.2471  0.4316
  664MOL0     C91499  11.104   5.717   9.171 -0.3608 -0.6078 -0.3332
  664MOL0     C91500  11.215   5.639   9.162 -0.7428 -0.1446  0.7476
  664MOL0     C91501  11.326   5.658   9.247 -0.8074 -0.2809 -0.0528
  664MOL0     O91502  11.427   5.569   9.231 -0.3440 -0.4189  0.5380
  664MOL0     C91503  11.517   5.545   9.336  0.4674  0.5880 -0.1081
  664MOL0     C91504  11.592   5.414   9.313 -0.1405 -0.0069  0.6857
  664MOL0     C91505  11.711   5.426   9.216 -0.1322 -0.2764 -0.7886
  664MOL0     C91506  11.779   5.301   9.184 -0.1408 -1.0799 -0.1400
  664MOL0     C91507  11.917   5.314   9.117  0.2014 -0.2597  0.0307
  664MOL0     C91508  11.971   5.177   9.095  0.3335  0.0477  0.6309
  664MOL0     C91509  12.091   5.178   9.007 -0.2470 -0.6724 -0.3077
  664MOL0     C91510  12.167   5.042   9.010 -0.1072 -0.7846 -0.5984
  664MOL0     N91511  12.101   4.929   8.942 -0.1072  1.3539 -1.4986
  664MOL0     C91512  12.105   4.905   8.808 -0.9332  0.8949 -0.0145
  664MOL0     C91513  12.053   4.783   8.795  0.7906  0.3687  0.1337
  664MOL0     C91514  12.063   4.697   8.672  1.0407  0.2169 -0.9185
  664MOL0     C91515  12.199   4.677   8.622 -0.1801 -0.3766 -0.0405
  664MOL0     C91516  12.276   4.581   8.711  0.2721 -0.8266  0.6252
  664MOL0     C91517  12.417   4.542   8.662 -0.8703  0.7539  0.3982
  664MOL0     O91518  12.497   4.654   8.627 -0.0540 -0.3957  0.2434
  664MOL0     C91519  12.613   4.631   8.559 -1.0660 -0.2713 -0.0258
  664MOL0     C91520  12.658   4.748   8.505  0.2891  0.3826 -0.0188
  664MOL0     C91521  12.778   4.739   8.424  0.5285 -0.5348 -0.4607
  664MOL0     C91522  12.818   4.866   8.360 -0.0044 -0.8153 -0.0367
  664MOL0     C91523  12.849   4.614   8.407  0.9304 -0.0367 -0.2607
  664MOL0     C91524  12.979   4.605   8.347 -0.5976  0.6127  0.2502
  664MOL0     O91525  13.064   4.712   8.357  0.0919  0.7047 -0.7276
  664MOL0     C91526  13.189   4.697   8.294  0.3557  0.5684 -0.4646
  664MOL0     C91527  13.192   4.725   8.163 -0.3922  0.3195 -0.2419
  664MOL0     C91528  13.317   4.720   8.097  1.0240  0.3998  0.6899
  664MOL0     C91529  13.435   4.698   8.171  0.5251  0.1200 -0.6218
  664MOL0     O91530  13.549   4.704   8.099  0.2110  1.1302 -0.1734
  664MOL0     C91531  13.655   4.605   8.135  0.3669 -0.2687 -0.0397
  664MOL0     C91532  13.730   4.562   8.004 -0.2966 -1.1119 -0.1590
  664MOL0     C91533  13.846   4.652   7.979  0.0971  1.2890 -0.7959
  664MOL0     C91534  13.967   4.606   8.054  0.7350  0.1681  0.6391
  664MOL0     C91535  14.073   4.697   8.003  0.1860 -0.3727 -0.2093
  664MOL0     C91536  14.203   4.673   8.085 -0.0293 -0.3426  0.3798
  664MOL0     C91537  14.311   4.773   8.048  0.2920 -0.1758  0.1510
  664MOL0     C91538  14.397   4.715   7.945  0.2919 -0.0503  0.2679
  664MOL0    Cl91539  14.520   4.829   7.922 -0.0150  0.2194 -0.5113
  664MOL0     C91540  13.429   4.674   8.305  0.0128 -0.0919 -0.4505
  664MOL0     C91541  13.306   4.664   8.362  0.3209 -0.1154 -0.4843
  664MOL0     O91542  13.008   4.496   8.296  0.0476 -0.3505 -0.0776
  664MOL0     C91543  12.787   4.501   8.460 -0.5097  0.7087  0.6119
  664MOL0     C91544  12.671   4.503   8.537 -0.5807  0.2262 -0.0629
  664MOL0     N91545  12.002   4.738   8.915  0.7495  0.2940  0.1434
  664MOL0     N91546  12.029   4.830   9.005 -0.2628 -0.1180  0.9625
  664MOL0     C91547  11.322   5.756   9.347 -0.3892  0.1239 -0.8861
  664MOL0     C91548  11.212   5.837   9.358 -0.1952 -0.0801  0.2842
  664MOL0     C91549  10.804   5.994   9.395 -0.5738  0.3936  0.4814
  664MOL0     C91550  10.733   6.003   9.514 -0.0760 -0.3543 -0.1966
  664MOL0     C91551  10.614   6.069   9.522 -0.2821 -0.9203 -0.7516
  664MOL0     C91552  10.562   6.138   9.409 -0.2966 -0.2962 -0.3622
  664MOL0     O91553  10.446   6.195   9.433 -0.0962 -0.3573  0.7477
  664MOL0     C91554  10.387   6.267   9.329 -0.1803 -0.1937 -0.7838
  664MOL0     C91555  10.425   6.412   9.358 -0.2182 -0.2765  0.2737
  664MOL0     C91556  10.361   6.478   9.479  0.5732  0.2896 -0.8414
  664MOL0     C91557  10.403   6.624   9.514 -0.8283 -0.4367  0.4462
  664MOL0     C91558  10.371   6.718   9.401  0.4081  0.4294 -0.5425
  664MOL0     C91559  10.330   6.775   9.301  0.7715  0.0589  0.5140
  664MOL0     C91560  10.635   6.134   9.290  0.7079  0.4647  0.3448
  664MOL0     C91561  10.759   6.064   9.278 -0.6019 -0.0134  0.2309
  664MOL0     C91562  10.818   6.044   9.132  0.3678  0.5434 -0.1160
  664MOL0     H91563  11.023   5.700   9.101  0.9071  0.7158 -2.2113
  664MOL0     H91564  11.214   5.577   9.073 -0.3517  0.3176  0.4120
  664MOL0     H91565  11.456   5.539   9.426 -1.1467  3.2096 -0.9379
  664MOL0     H91566  11.589   5.626   9.348 -0.0433  1.5530 -2.8974
  664MOL0     H91567  11.624   5.386   9.414 -2.7383 -0.4223  1.4582
  664MOL0     H91568  11.526   5.335   9.274  0.5315 -0.7893  1.0991
  664MOL0     H91569  11.682   5.476   9.124  1.8339  2.2063 -0.1824
  664MOL0     H91570  11.775   5.495   9.273 -1.3633 -0.4958  0.9341
  664MOL0     H91571  11.816   5.256   9.277 -0.9329  0.9461  1.2293
  664MOL0     H91572  11.701   5.244   9.134 -0.8900  0.6757 -1.0829
  664MOL0     H91573  11.990   5.366   9.178 -1.4849  2.8634 -0.4307
  664MOL0     H91574  11.912   5.374   9.025  1.1168  0.0195  0.1523
  664MOL0     H91575  11.991   5.134   9.193 -0.4266  1.5785  1.4852
  664MOL0     H91576  11.892   5.134   9.033 -0.8648  2.3302  0.4590
  664MOL0     H91577  12.166   5.250   9.041  0.6949 -1.9172  0.3581
  664MOL0     H91578  12.064   5.198   8.903 -1.4636  0.7583  0.2440
  664MOL0     H91579  12.261   5.052   8.955  0.3096 -0.1205  0.2184
  664MOL0     H91580  12.177   5.006   9.113 -1.7071 -1.9430 -0.8114
  664MOL0     H91581  12.161   4.951   8.727 -1.5550  2.9396  0.6552
  664MOL0     H91582  12.003   4.752   8.599 -1.1074  1.4041  1.5267
  664MOL0     H91583  12.008   4.603   8.687  1.2214  0.1847 -0.4125
  664MOL0     H91584  12.194   4.638   8.520 -2.5245  2.3979 -1.1342
  664MOL0     H91585  12.245   4.774   8.604 -1.4417  0.1555 -0.5102
  664MOL0     H91586  12.290   4.634   8.806 -0.5285  2.0032 -0.7067
  664MOL0     H91587  12.222   4.490   8.740  0.5243 -2.1601 -2.6487
  664MOL0     H91588  12.467   4.483   8.740  0.3585 -1.4183 -1.8836
  664MOL0     H91589  12.397   4.480   8.574 -1.2519  1.9409 -0.3702
  664MOL0     H91590  12.599   4.837   8.522 -0.0055  0.8089 -2.7871
  664MOL0     H91591  12.878   4.927   8.429  1.4158  1.9679 -3.3935
  664MOL0     H91592  12.723   4.918   8.346  0.7271  2.1505  4.0648
  664MOL0     H91593  12.875   4.860   8.267  0.0904  0.2592 -0.0648
  664MOL0     H91594  13.103   4.763   8.114 -0.3480 -0.4551 -0.9471
  664MOL0     H91595  13.322   4.744   7.991  2.5454  0.5459  0.7772
  664MOL0     H91596  13.722   4.637   8.215  0.4566 -4.9759  2.0416
  664MOL0     H91597  13.614   4.513   8.178  1.4117 -1.9975 -2.5042
  664MOL0     H91598  13.770   4.460   8.004  2.9707  0.0543 -0.6680
  664MOL0     H91599  13.654   4.570   7.925 -1.6661  1.9289  1.2715
  664MOL0     H91600  13.829   4.755   8.013 -1.1827  1.0218 -0.5702
  664MOL0     H91601  13.872   4.657   7.873  0.0967 -0.6647 -0.9239
  664MOL0     H91602  13.999   4.505   8.027  1.9550  0.3881  1.2166
  664MOL0     H91603  13.965   4.621   8.163  2.0228  2.5046  0.4158
  664MOL0     H91604  14.094   4.665   7.900  0.7607 -0.8016  0.0372
  664MOL0     H91605  14.045   4.802   8.004 -0.3630 -0.5179 -0.1382
  664MOL0     H91606  14.235   4.570   8.070  0.6015 -0.2346  0.9624
  664MOL0     H91607  14.193   4.694   8.192  2.3873  0.4623  0.5011
  664MOL0     H91608  14.370   4.787   8.139  1.3219 -2.7132 -0.0558
  664MOL0     H91609  14.271   4.870   8.016  2.1433  0.3544 -0.7180
  664MOL0     H91610  14.341   4.712   7.851  1.4157 -0.2369 -0.4089
  664MOL0     H91611  14.430   4.612   7.967  0.4873  0.0753  0.5669
  664MOL0     H91612  13.521   4.653   8.359 -0.7450  0.2392  1.0209
  664MOL0     H91613  13.289   4.647   8.468 -0.9888 -1.9129 -0.9480
  664MOL0     H91614  12.842   4.408   8.447  0.5175  1.1620  1.5422
  664MOL0     H91615  12.625   4.414   8.577  0.0922  0.3790  1.0906
  664MOL0     H91616  11.412   5.761   9.407 -0.7654  0.6252 -0.3516
  664MOL0     H91617  11.232   5.913   9.433  1.6448  0.2384 -0.4669
  664MOL0     H91618  10.769   5.954   9.604 -0.5285 -1.0356 -0.3769
  664MOL0     H91619  10.564   6.078   9.618  0.8248  1.3831 -0.3313
  664MOL0     H91620  10.413   6.234   9.228  0.1255 -2.8711  0.0902
  664MOL0     H91621  10.280   6.247   9.343  0.3939 -1.4717  2.8178
  664MOL0     H91622  10.397   6.473   9.271 -1.2333 -3.3650 -1.7391
  664MOL0     H91623  10.532   6.417   9.378 -0.6386  0.1027  2.6505
  664MOL0     H91624  10.253   6.461   9.468  0.3473  0.1511  1.0957
  664MOL0     H91625  10.393   6.425   9.570  1.7300 -1.4630 -2.2062
  664MOL0     H91626  10.512   6.622   9.523 -0.2068  1.7022 -3.9613
  664MOL0     H91627  10.342   6.663   9.596 -1.5942  1.9706 -1.1764
  664MOL0     H91628  10.309   6.820   9.207 -0.3556 -1.6300 -0.1001
  664MOL0     H91629  10.597   6.170   9.195  0.4316 -0.3179  0.1503
  664MOL0     H91630  10.815   5.937   9.108 -0.3088  0.6909 -0.7357
  664MOL0     H91631  10.752   6.092   9.059 -2.8678 -3.1550  0.0447
  664MOL0     H91632  10.919   6.085   9.126 -0.1106  2.8734  3.7698
  665MOL0     O91633   8.285   0.190   5.765 -0.0203  0.2547 -0.2099
  665MOL0     C91634   8.268   0.225   5.650  0.0055 -0.5803  0.3711
  665MOL0     O91635   8.362   0.223   5.548  0.2152 -0.1885  0.0640
  665MOL0     C91636   8.490   0.189   5.590  0.5944 -0.4717  0.5411
  665MOL0     C91637   8.528   0.056   5.601 -1.1862 -0.4522 -0.6550
  665MOL0     C91638   8.661   0.019   5.627 -0.6490  0.3545 -0.9259
  665MOL0     C91639   8.762   0.114   5.644 -0.3424 -0.4541 -0.8017
  665MOL0     O91640   8.892   0.068   5.664  0.2751 -0.4554 -0.2171
  665MOL0     C91641   8.990   0.159   5.713  0.4309 -0.0386 -0.6412
  665MOL0     C91642   9.113   0.086   5.778 -0.2211  0.2566 -0.0352
  665MOL0     C91643   9.214   0.199   5.826 -0.7348 -0.1097 -0.2473
  665MOL0     C91644   9.334   0.117   5.874  0.0129  0.8277  0.1294
  665MOL0     C91645   9.444   0.202   5.909 -0.8006 -0.4399  0.2476
  665MOL0     C91646   9.559   0.122   5.969  0.8450  0.1529 -0.6261
  665MOL0     C91647   9.689   0.202   5.982 -0.1548 -0.4455 -0.2411
  665MOL0     C91648   9.765   0.221   5.850 -0.6656 -0.5013  0.5491
  665MOL0     N91649   9.910   0.255   5.860  0.4335 -0.5090 -0.3522
  665MOL0     C91650   9.963   0.376   5.899  0.5227  0.4597 -0.3133
  665MOL0     C91651  10.100   0.372   5.887  1.3942 -0.1649 -0.2056
  665MOL0     C91652  10.201   0.481   5.921  0.6002 -0.2135  0.6509
  665MOL0     C91653  10.339   0.422   5.945  0.6978  0.3179  1.0069
  665MOL0     C91654  10.442   0.518   6.007 -0.1445 -0.5327 -0.9854
  665MOL0     C91655  10.579   0.452   6.013  0.4595 -0.3897 -0.2327
  665MOL0     O91656  10.636   0.480   5.877 -0.3262  0.0483 -0.3880
  665MOL0     C91657  10.770   0.434   5.867  0.1388  0.1987 -1.2376
  665MOL0     C91658  10.833   0.478   5.752 -0.5561  0.0988  0.4937
  665MOL0     C91659  10.976   0.457   5.725  1.1458 -0.0885  0.3303
  665MOL0     C91660  11.043   0.537   5.617  0.2825 -0.2659  0.7252
  665MOL0     C91661  11.058   0.384   5.821 -0.0210  0.0384  0.2585
  665MOL0     C91662  11.212   0.369   5.808  0.8941 -0.4730 -0.2991
  665MOL0     O91663  11.280   0.468   5.749 -0.1396  0.3421 -0.8030
  665MOL0     C91664  11.413   0.456   5.739 -0.1681 -0.0180  0.0193
  665MOL0     C91665  11.467   0.443   5.618  0.2150  1.0600 -0.1995
  665MOL0     C91666  11.599   0.395   5.606 -0.9320 -0.4575 -0.5081
  665MOL0     C91667  11.684   0.368   5.718  0.1097  0.1647 -0.7429
  665MOL0     O91668  11.812   0.320   5.722  0.5449 -0.4912  0.8147
  665MOL0     C91669  11.881   0.324   5.595  0.2520  0.3863  0.7690
  665MOL0     C91670  12.030   0.287   5.628 -0.1282  0.6323 -0.7095
  665MOL0     C91671  12.108   0.380   5.727  0.1649  0.4031 -0.1194
  665MOL0     C91672  12.216   0.463   5.668  0.0254  0.1046  0.2423
  665MOL0     C91673  12.292   0.550   5.767 -0.5726 -0.7047  0.0230
  665MOL0     C91674  12.397   0.628   5.697  0.0171 -0.4841  0.5716
  665MOL0     C91675  12.434   0.751   5.772  0.0618 -0.5211  0.2229
  665MOL0     C91676  12.560   0.831   5.714 -0.4716  0.0348 -0.1893
  665MOL0    Cl91677  12.501   0.974   5.617 -0.4730 -0.0834 -0.0309
  665MOL0     C91678  11.621   0.383   5.846  0.1947 -0.5902  0.5269
  665MOL0     C91679  11.489   0.441   5.855 -0.1297 -0.5601 -0.0079
  665MOL0     O91680  11.259   0.273   5.860 -0.2790 -0.2330  0.2257
  665MOL0     C91681  10.993   0.336   5.936  0.0502 -0.1762  0.1972
  665MOL0     C91682  10.848   0.357   5.956 -0.1703  0.1243  0.0253
  665MOL0     N91683  10.128   0.248   5.833  0.5798  0.1579 -0.1669
  665MOL0     N91684  10.018   0.180   5.826 -0.8489  1.1324 -0.1342
  665MOL0     C91685   8.724   0.248   5.624  0.5786 -0.1683  0.2339
  665MOL0     C91686   8.583   0.286   5.612 -0.1573  0.6395  0.2679
  665MOL0     C91687   8.143   0.299   5.604  0.0453  0.1746  0.3720
  665MOL0     C91688   8.112   0.319   5.466  0.3160  0.2717 -0.8126
  665MOL0     C91689   7.991   0.382   5.429 -0.1810 -0.5868  0.5305
  665MOL0     C91690   7.902   0.430   5.521  0.0247  0.0482 -0.0211
  665MOL0     O91691   7.783   0.482   5.471 -0.8015 -0.2839  0.6758
  665MOL0     C91692   7.682   0.542   5.549  0.3287  0.3315 -0.3756
  665MOL0     C91693   7.599   0.437   5.632 -0.0570 -0.4644 -0.2361
  665MOL0     C91694   7.557   0.312   5.557  0.3662  0.6270  0.2993
  665MOL0     C91695   7.450   0.320   5.444  0.3818  0.5060 -0.1678
  665MOL0     C91696   7.324   0.386   5.494 -0.2870 -0.8201  0.5513
  665MOL0     C91697   7.226   0.440   5.545 -0.3194 -0.6782 -0.0617
  665MOL0     C91698   7.937   0.424   5.652 -0.1120  0.9469 -0.3875
  665MOL0     C91699   8.056   0.364   5.693  0.2614 -0.2050 -0.5322
  665MOL0     C91700   8.090   0.374   5.844  0.3572  0.0785  0.2105
  665MOL0     H91701   8.450  -0.016   5.577 -1.1365 -0.1982 -1.6105
  665MOL0     H91702   8.689  -0.086   5.626 -2.0064 -0.0698  0.6171
  665MOL0     H91703   8.947   0.215   5.797 -0.6039 -0.5087 -0.8421
  665MOL0     H91704   9.017   0.235   5.639  2.4584  1.2166  1.2492
  665MOL0     H91705   9.079   0.025   5.862  2.7364 -3.7617 -1.4472
  665MOL0     H91706   9.174   0.027   5.710 -0.3191 -1.1731  1.0686
  665MOL0     H91707   9.248   0.256   5.739  2.1801 -0.7251  0.3940
  665MOL0     H91708   9.165   0.261   5.901 -1.2101 -0.0593 -0.5914
  665MOL0     H91709   9.302   0.059   5.961  0.0048  2.1074  1.0048
  665MOL0     H91710   9.364   0.048   5.794 -0.3021  2.0808 -1.1189
  665MOL0     H91711   9.417   0.280   5.981  2.8686  0.5591  0.7997
  665MOL0     H91712   9.485   0.259   5.825  3.8189 -0.2621  2.3117
  665MOL0     H91713   9.536   0.093   6.072 -0.1387  0.8576 -0.6266
  665MOL0     H91714   9.595   0.042   5.903 -0.3038 -2.0213  1.2429
  665MOL0     H91715   9.749   0.137   6.047  0.7121  1.1804  0.6586
  665MOL0     H91716   9.674   0.300   6.029  0.6701  0.5088 -1.8835
  665MOL0     H91717   9.762   0.125   5.798 -3.2671 -0.9193  1.3080
  665MOL0     H91718   9.719   0.294   5.782 -0.7152 -0.2482  0.8492
  665MOL0     H91719   9.920   0.467   5.938  0.9473  0.0842  1.0529
  665MOL0     H91720  10.169   0.529   6.014  2.2626 -1.9450  2.1946
  665MOL0     H91721  10.202   0.549   5.835  0.5054 -0.4400  0.4677
  665MOL0     H91722  10.328   0.334   6.010  0.7696 -0.0876  0.4763
  665MOL0     H91723  10.365   0.409   5.840 -1.0421  0.4428  0.5227
  665MOL0     H91724  10.442   0.609   5.946 -0.4139  0.2597  0.1809
  665MOL0     H91725  10.413   0.547   6.108  2.8454  1.0813 -0.4806
  665MOL0     H91726  10.645   0.486   6.093  1.1512  2.1552 -1.7616
  665MOL0     H91727  10.564   0.346   6.033  0.6006 -0.8092 -2.1653
  665MOL0     H91728  10.784   0.528   5.669 -3.6112 -1.9131  0.9194
  665MOL0     H91729  10.971   0.567   5.540  1.4310 -0.1998 -0.3475
  665MOL0     H91730  11.117   0.476   5.563 -0.4273  0.7710 -1.5364
  665MOL0     H91731  11.095   0.623   5.659 -0.4207 -0.4561  2.0507
  665MOL0     H91732  11.413   0.456   5.525 -0.1255  0.1591 -0.1316
  665MOL0     H91733  11.642   0.380   5.507  1.5452 -1.5427  0.6494
  665MOL0     H91734  11.831   0.262   5.520  2.0719  1.3926 -1.4246
  665MOL0     H91735  11.874   0.428   5.560  2.5103  0.5071  0.5475
  665MOL0     H91736  12.034   0.186   5.670 -3.0067  0.6213 -0.2260
  665MOL0     H91737  12.083   0.281   5.533 -0.1664  0.9263 -0.7515
  665MOL0     H91738  12.164   0.313   5.792 -1.5629 -0.0915  0.9098
  665MOL0     H91739  12.038   0.447   5.778 -0.6596 -0.4952 -0.0362
  665MOL0     H91740  12.157   0.528   5.602 -0.2838 -0.1886  0.2270
  665MOL0     H91741  12.289   0.411   5.605 -0.9050 -1.2035  0.2074
  665MOL0     H91742  12.220   0.599   5.832 -1.8996  0.3667 -2.1285
  665MOL0     H91743  12.352   0.494   5.839 -0.8501 -0.2670  0.5986
  665MOL0     H91744  12.376   0.660   5.595 -0.7544 -1.1575  0.5130
  665MOL0     H91745  12.484   0.562   5.698 -0.1554 -0.8150 -1.5479
  665MOL0     H91746  12.465   0.726   5.874 -0.0963  2.3225  1.0572
  665MOL0     H91747  12.349   0.820   5.776  0.5086 -0.0140  1.7291
  665MOL0     H91748  12.620   0.767   5.648 -0.9357 -1.5238  0.8426
  665MOL0     H91749  12.621   0.870   5.797 -0.5911  1.5853 -0.8078
  665MOL0     H91750  11.682   0.363   5.933 -1.1204 -0.6527  1.4653
  665MOL0     H91751  11.462   0.458   5.959  1.3258 -0.8514  0.4421
  665MOL0     H91752  11.057   0.290   6.010 -1.3677 -0.6270  1.1681
  665MOL0     H91753  10.803   0.305   6.040 -0.3021 -0.6130 -0.4984
  665MOL0     H91754   8.794   0.330   5.637  1.4986 -0.0754 -3.9402
  665MOL0     H91755   8.557   0.391   5.608 -0.5385  0.6018  1.4995
  665MOL0     H91756   8.177   0.269   5.395  0.8144 -1.2753  0.6499
  665MOL0     H91757   7.968   0.390   5.323 -2.7583  1.0790  1.1173
  665MOL0     H91758   7.723   0.622   5.612 -0.9321 -0.4484  1.5333
  665MOL0     H91759   7.621   0.597   5.477 -2.8163 -2.5892 -0.1772
  665MOL0     H91760   7.509   0.491   5.665  0.2067  1.5250 -2.4768
  665MOL0     H91761   7.656   0.406   5.719  2.1550 -2.3171 -2.2198
  665MOL0     H91762   7.641   0.261   5.509 -1.2970 -2.5185  0.4476
  665MOL0     H91763   7.518   0.246   5.635  3.1544  0.5571  1.7503
  665MOL0     H91764   7.426   0.219   5.409 -1.3728  0.9024 -0.1968
  665MOL0     H91765   7.489   0.374   5.358  0.5697 -0.3713 -0.6447
  665MOL0     H91766   7.136   0.478   5.588  0.0819  3.3901 -2.2567
  665MOL0     H91767   7.865   0.464   5.724  0.1536  4.0224 -1.6883
  665MOL0     H91768   8.099   0.273   5.886 -1.0967  0.3154  1.1365
  665MOL0     H91769   8.184   0.425   5.865 -0.6664  2.0867  0.1462
  665MOL0     H91770   8.007   0.420   5.898 -1.1713  0.4825 -2.3104
  666MOL0     O91771  10.543   7.988  10.959 -0.8034  0.8283  0.3729
  666MOL0     C91772  10.518   8.089  10.895  1.3141  0.1839  0.6868
  666MOL0     O91773  10.617   8.162  10.828  0.6545 -0.1335  0.2085
  666MOL0     C91774  10.746   8.121  10.830 -0.3800 -0.6027 -0.8620
  666MOL0     C91775  10.825   8.158  10.944  0.4247  0.3981 -0.2638
  666MOL0     C91776  10.959   8.122  10.952 -0.1204 -0.1516  0.1557
  666MOL0     C91777  11.011   8.046  10.849  0.1916  0.0308  0.0442
  666MOL0     O91778  11.137   8.001  10.869 -0.6363  0.2515  0.5864
  666MOL0     C91779  11.211   7.937  10.759 -0.4102 -0.3781 -1.1336
  666MOL0     C91780  11.353   7.905  10.799  0.0509 -0.3821  0.0353
  666MOL0     C91781  11.443   8.028  10.811 -0.0811 -0.0787  0.4726
  666MOL0     C91782  11.506   8.097  10.679 -0.1139 -0.4226 -0.5510
  666MOL0     C91783  11.594   7.994  10.605 -1.4017  0.2907 -0.0691
  666MOL0     C91784  11.673   8.057  10.491  0.6432  0.4670  0.9422
  666MOL0     C91785  11.756   7.956  10.420 -0.7929 -0.2673  0.2443
  666MOL0     C91786  11.855   8.021  10.315 -0.5164  0.2455  0.9653
  666MOL0     N91787  11.954   8.110  10.373 -0.2608  0.3583  0.0615
  666MOL0     C91788  12.058   8.077  10.454  0.4509  0.2648  0.2935
  666MOL0     C91789  12.124   8.192  10.472 -0.0192 -0.3141  0.1698
  666MOL0     C91790  12.230   8.219  10.573 -0.1569  0.5312  0.0483
  666MOL0     C91791  12.362   8.269  10.507  0.1258  0.0687 -0.9849
  666MOL0     C91792  12.459   8.336  10.611  0.2274 -0.4929  0.1837
  666MOL0     C91793  12.590   8.335  10.537 -0.8845  0.0349  0.3207
  666MOL0     O91794  12.690   8.376  10.628 -0.4269 -0.3523  0.8938
  666MOL0     C91795  12.818   8.343  10.607  0.3965  0.1763  0.4404
  666MOL0     C91796  12.912   8.381  10.705 -0.5936 -0.0546  0.1599
  666MOL0     C91797  13.049   8.364  10.683  0.5143  0.3331 -0.5891
  666MOL0     C91798  13.149   8.418  10.788 -0.0441  0.6545  0.3787
  666MOL0     C91799  13.093   8.299  10.563  0.0613 -0.3836  0.5025
  666MOL0     C91800  13.239   8.268  10.523 -0.2151  0.0640 -0.3467
  666MOL0     O91801  13.335   8.256  10.618 -0.0093  0.0405  0.8186
  666MOL0     C91802  13.466   8.273  10.573  0.7716 -0.8057 -0.4790
  666MOL0     C91803  13.517   8.407  10.556 -0.1854  0.2859  0.2429
  666MOL0     C91804  13.655   8.432  10.521 -0.2320 -0.2090  0.2594
  666MOL0     C91805  13.733   8.326  10.497  0.3065 -0.2888 -0.2461
  666MOL0     O91806  13.862   8.336  10.491  0.0288  0.1149  0.4733
  666MOL0     C91807  13.909   8.378  10.367 -0.4495 -0.3893  0.8111
  666MOL0     C91808  13.979   8.279  10.275  0.1680 -0.4248  0.0053
  666MOL0     C91809  14.110   8.230  10.323 -0.4902  0.9312  1.4319
  666MOL0     C91810  14.142   8.108  10.229 -1.0747 -1.1616  0.4507
  666MOL0     C91811  14.234   8.002  10.295 -0.6734 -0.2379 -0.1781
  666MOL0     C91812  14.368   8.051  10.348  0.0774 -0.2452 -0.0960
  666MOL0     C91813  14.442   7.944  10.423 -0.7519 -0.1824  0.0597
  666MOL0     C91814  14.573   8.000  10.472 -0.4173  0.3602  0.1080
  666MOL0    Cl91815  14.709   8.002  10.349 -0.1058  0.0907 -0.4074
  666MOL0     C91816  13.683   8.196  10.515 -0.2052 -0.1525  0.5668
  666MOL0     C91817  13.551   8.167  10.547 -0.1394 -0.2775  1.4634
  666MOL0     O91818  13.257   8.222  10.416 -0.0054 -0.5992  0.4561
  666MOL0     C91819  12.999   8.260  10.471 -0.2363 -0.1779 -0.1335
  666MOL0     C91820  12.862   8.279  10.497 -1.3586  0.1032  0.1975
  666MOL0     N91821  12.053   8.291  10.410  0.4007 -0.1967  0.8752
  666MOL0     N91822  11.964   8.245  10.338  0.0874  0.2376  0.0836
  666MOL0     C91823  10.939   8.006  10.740 -1.0136 -0.2407 -0.4246
  666MOL0     C91824  10.803   8.049  10.725 -0.5880  0.0541 -0.0243
  666MOL0     C91825  10.381   8.117  10.847  0.5490  0.9587  0.2699
  666MOL0     C91826  10.371   8.181  10.720  0.3637 -0.0951 -0.0223
  666MOL0     C91827  10.245   8.204  10.666  0.1916  0.1949 -0.8999
  666MOL0     C91828  10.131   8.155  10.728  0.2426 -0.0478  0.1062
  666MOL0     O91829  10.008   8.148  10.660 -1.1638 -0.3245 -0.1380
  666MOL0     C91830   9.884   8.105  10.718 -0.9172  1.4860 -0.3364
  666MOL0     C91831   9.774   8.130  10.620 -0.1425 -0.2909 -0.2164
  666MOL0     C91832   9.627   8.128  10.677  0.7275  0.0627  0.3768
  666MOL0     C91833   9.591   7.985  10.731  0.4114  0.4336 -0.2908
  666MOL0     C91834   9.447   7.977  10.770 -0.4460 -0.9364  0.0447
  666MOL0     C91835   9.333   7.962  10.810 -0.3819 -0.4303 -0.5341
  666MOL0     C91836  10.142   8.102  10.853 -0.3146  0.4762 -0.4417
  666MOL0     C91837  10.264   8.080  10.917 -0.5850 -0.2426  0.0450
  666MOL0     C91838  10.262   8.014  11.045 -0.0063 -0.2037 -0.3573
  666MOL0     H91839  10.777   8.204  11.029 -3.5125 -0.5696 -1.7550
  666MOL0     H91840  11.021   8.161  11.033 -1.1619  3.2703 -0.5062
  666MOL0     H91841  11.227   8.000  10.671  4.5830  1.5605  0.7673
  666MOL0     H91842  11.150   7.849  10.736  1.0435 -2.2178  1.4992
  666MOL0     H91843  11.351   7.851  10.894 -1.1707  0.3539  0.4477
  666MOL0     H91844  11.406   7.839  10.729  0.2775  0.6544 -0.8114
  666MOL0     H91845  11.388   8.109  10.862 -0.2336  1.0755 -1.4339
  666MOL0     H91846  11.521   7.991  10.877 -0.5912 -1.2307  0.4494
  666MOL0     H91847  11.429   8.133  10.610 -0.1512 -2.5292 -1.6863
  666MOL0     H91848  11.565   8.185  10.707  0.4736 -1.4467  1.6183
  666MOL0     H91849  11.536   7.908  10.569 -0.6196 -0.1897 -0.2008
  666MOL0     H91850  11.670   7.950  10.671 -2.1229  1.4844  1.6230
  666MOL0     H91851  11.599   8.099  10.422  1.1162 -2.1948 -1.3680
  666MOL0     H91852  11.737   8.138  10.528  1.7787  0.3676 -0.7088
  666MOL0     H91853  11.690   7.889  10.364 -0.6766  1.4603 -2.1483
  666MOL0     H91854  11.826   7.899  10.481  0.2885 -0.2979 -0.9706
  666MOL0     H91855  11.903   7.938  10.263 -1.7133  0.4922 -0.5903
  666MOL0     H91856  11.790   8.073  10.244  0.5484  2.5727  1.6141
  666MOL0     H91857  12.071   7.983  10.508 -0.1253  0.8011  1.3942
  666MOL0     H91858  12.243   8.129  10.634 -2.6064 -0.0862 -0.2583
  666MOL0     H91859  12.202   8.303  10.637  1.4709 -0.0051  1.5669
  666MOL0     H91860  12.416   8.185  10.464  0.6425 -0.1388  0.0319
  666MOL0     H91861  12.334   8.340  10.429  0.9311  0.5022 -0.8926
  666MOL0     H91862  12.419   8.435  10.635 -2.5225 -0.3116 -4.1355
  666MOL0     H91863  12.477   8.273  10.699  0.8177  0.5332  0.8210
  666MOL0     H91864  12.615   8.235  10.500 -1.4878 -0.4358  1.1395
  666MOL0     H91865  12.584   8.402  10.451 -2.8219 -1.0336 -0.4421
  666MOL0     H91866  12.885   8.432  10.797 -1.3801  0.2093 -0.2151
  666MOL0     H91867  13.116   8.505  10.845  1.0639  1.2199  0.1817
  666MOL0     H91868  13.245   8.448  10.744 -1.2024  2.9579 -0.7669
  666MOL0     H91869  13.162   8.334  10.857 -2.1064 -0.0057  0.0236
  666MOL0     H91870  13.463   8.492  10.597 -0.4520 -0.3093  1.1788
  666MOL0     H91871  13.700   8.530  10.533  0.1328 -0.6395  2.9102
  666MOL0     H91872  13.825   8.418  10.308  1.2472 -1.7704 -2.7951
  666MOL0     H91873  13.980   8.458  10.392 -1.9933  1.0787  0.7605
  666MOL0     H91874  13.914   8.191  10.274 -0.4879 -0.0788  2.7118
  666MOL0     H91875  13.988   8.323  10.175  0.9877  0.5609  0.4969
  666MOL0     H91876  14.087   8.182  10.419  2.3471 -2.7597  0.5185
  666MOL0     H91877  14.187   8.306  10.335 -1.6691  2.1555  1.5236
  666MOL0     H91878  14.195   8.146  10.141 -0.1135  0.7518  1.7720
  666MOL0     H91879  14.056   8.047  10.198 -0.2027 -1.4872 -1.5136
  666MOL0     H91880  14.182   7.968  10.386 -1.4200 -0.2578 -0.6010
  666MOL0     H91881  14.242   7.918  10.225 -0.9783  0.0509 -0.5602
  666MOL0     H91882  14.347   8.134  10.417 -0.1498  0.6901 -1.2509
  666MOL0     H91883  14.434   8.095  10.272  1.0028  0.5081  1.1087
  666MOL0     H91884  14.464   7.866  10.348  1.9900  2.2863 -1.9404
  666MOL0     H91885  14.386   7.896  10.504 -0.2494 -4.0669 -1.6241
  666MOL0     H91886  14.622   7.939  10.549  0.4319  2.8747  1.6717
  666MOL0     H91887  14.566   8.098  10.520  0.4607  0.2209  0.5298
  666MOL0     H91888  13.754   8.116  10.495  1.2306  1.5220 -1.5663
  666MOL0     H91889  13.527   8.062  10.560 -0.8588 -0.6592 -1.9597
  666MOL0     H91890  13.033   8.216  10.378 -0.2167 -0.6628  0.0999
  666MOL0     H91891  12.802   8.250  10.412  1.3594 -0.8507 -1.5306
  666MOL0     H91892  10.975   7.933  10.667 -0.6591 -0.6516  0.1509
  666MOL0     H91893  10.749   8.024  10.635 -0.7476  1.1485 -0.2390
  666MOL0     H91894  10.451   8.212  10.654 -1.9205  3.4014 -1.4488
  666MOL0     H91895  10.225   8.262  10.576 -0.2130  0.6059 -0.5512
  666MOL0     H91896   9.899   7.997  10.730  0.3181  1.6834  0.0127
  666MOL0     H91897   9.854   8.145  10.815 -0.6099  0.1694  0.3211
  666MOL0     H91898   9.777   8.063  10.533  1.3042 -2.4366  1.3831
  666MOL0     H91899   9.795   8.232  10.585  0.0745 -1.0928 -2.6712
  666MOL0     H91900   9.612   8.199  10.758  2.8229 -0.4374  1.2742
  666MOL0     H91901   9.560   8.151  10.593  1.8799 -3.1040 -1.6092
  666MOL0     H91902   9.652   7.951  10.816  1.4144 -2.2968 -1.9795
  666MOL0     H91903   9.603   7.917  10.647 -0.6963  0.9629 -0.8950
  666MOL0     H91904   9.243   7.933  10.861 -0.9761 -0.7242 -1.7172
  666MOL0     H91905  10.054   8.071  10.908  2.2579  0.5893  4.1911
  666MOL0     H91906  10.173   8.040  11.103 -0.1062 -1.4969  0.0852
  666MOL0     H91907  10.277   7.906  11.040  1.0747 -0.0238 -1.5530
  666MOL0     H91908  10.335   8.054  11.116 -2.0947  0.0807  1.7776
  667MOL0     O91909   0.214   5.751  11.081 -0.3237 -0.0203 -0.1658
  667MOL0     C91910   0.165   5.677  10.997  0.5000 -1.1670 -0.1881
  667MOL0     O91911   0.203   5.683  10.865 -0.1305 -0.7677  0.1583
  667MOL0     C91912   0.319   5.745  10.839  0.1802  0.1708  0.4674
  667MOL0     C91913   0.444   5.688  10.866 -0.3001 -0.1867  0.0936
  667MOL0     C91914   0.560   5.760  10.840  0.3735  0.6362  0.1117
  667MOL0     C91915   0.560   5.888  10.788 -0.3978 -0.3451  0.7631
  667MOL0     O91916   0.663   5.969  10.747 -0.0784  0.1648 -0.3604
  667MOL0     C91917   0.715   5.925  10.625 -0.1538  0.3247 -0.4257
  667MOL0     C91918   0.806   6.030  10.568  0.0839  0.5806  0.8774
  667MOL0     C91919   0.766   6.173  10.565 -0.3430  0.0457  0.4339
  667MOL0     C91920   0.893   6.270  10.538  0.3363  0.0443 -0.0389
  667MOL0     C91921   0.838   6.400  10.491 -0.1444 -0.6581 -0.3810
  667MOL0     C91922   0.941   6.512  10.465 -0.3449 -0.0668 -0.5484
  667MOL0     C91923   1.033   6.491  10.349 -0.8209 -0.6254 -0.0392
  667MOL0     C91924   1.133   6.610  10.331 -0.2255  0.8200 -0.7796
  667MOL0     N91925   1.235   6.588  10.239  0.4607  0.2613  0.0647
  667MOL0     C91926   1.359   6.648  10.239  0.7863 -0.1330 -0.7414
  667MOL0     C91927   1.413   6.614  10.116  0.1809  0.1458  0.3620
  667MOL0     C91928   1.545   6.625  10.053  0.1896  0.0707  1.0571
  667MOL0     C91929   1.627   6.746  10.093 -1.2806 -0.5284  0.4442
  667MOL0     C91930   1.743   6.765   9.996 -0.3421 -0.2024 -0.1127
  667MOL0     C91931   1.835   6.873  10.036 -0.2741 -0.2096  0.2165
  667MOL0     O91932   1.906   6.815  10.142 -0.1248  0.5783  0.1197
  667MOL0     C91933   1.995   6.891  10.222 -0.1703 -0.0694 -0.2639
  667MOL0     C91934   2.017   6.841  10.351 -0.3552 -0.4804  0.6362
  667MOL0     C91935   2.096   6.900  10.447  0.6655  0.6625  0.2356
  667MOL0     C91936   2.114   6.823  10.571  0.3353  0.1969  0.0531
  667MOL0     C91937   2.155   7.028  10.413  0.0548 -0.1224  0.0817
  667MOL0     C91938   2.261   7.092  10.498 -0.3984  0.3545  0.8324
  667MOL0     O91939   2.332   7.193  10.443  0.1224  0.2068  0.0497
  667MOL0     C91940   2.458   7.221  10.476 -0.0745 -0.1902 -0.0311
  667MOL0     C91941   2.560   7.197  10.383  0.0766  0.5206 -0.2645
  667MOL0     C91942   2.698   7.206  10.421  0.0541 -0.1503  0.2232
  667MOL0     C91943   2.736   7.257  10.544  0.0451  0.6014  0.1178
  667MOL0     O91944   2.873   7.261  10.580  0.4311  0.4451 -0.0497
  667MOL0     C91945   2.901   7.318  10.708  0.0607  1.0834  0.2821
  667MOL0     C91946   3.057   7.324  10.730 -0.1595  0.4186 -0.6186
  667MOL0     C91947   3.127   7.195  10.707  0.4407  0.2947 -0.2960
  667MOL0     C91948   3.271   7.200  10.741 -0.2768 -0.1797 -0.2762
  667MOL0     C91949   3.342   7.072  10.697 -0.4835  0.2939  0.2537
  667MOL0     C91950   3.489   7.070  10.744 -0.2867 -0.7511 -0.2262
  667MOL0     C91951   3.581   7.163  10.655 -0.3559  0.8266  0.4301
  667MOL0     C91952   3.720   7.196  10.710 -0.4133  0.2273  0.0435
  667MOL0    Cl91953   3.793   7.042  10.762 -0.1718 -0.0313  0.0321
  667MOL0     C91954   2.629   7.280  10.637 -0.1235  0.0901 -0.4337
  667MOL0     C91955   2.497   7.264  10.604  0.0701 -0.2912  0.5350
  667MOL0     O91956   2.278   7.054  10.612 -0.1546  0.3478  0.7038
  667MOL0     C91957   2.127   7.088  10.293  1.0088  0.0907  1.0748
  667MOL0     C91958   2.038   7.020  10.205  0.5703 -0.4030 -0.5971
  667MOL0     N91959   1.325   6.526  10.060  0.6851  0.2477 -0.5994
  667MOL0     N91960   1.220   6.520  10.126 -0.6814  0.3707 -0.8235
  667MOL0     C91961   0.434   5.944  10.759 -0.2709  0.4105  0.2153
  667MOL0     C91962   0.317   5.871  10.783  0.3541  0.0864 -0.5391
  667MOL0     C91963   0.055   5.586  11.032  0.2544  0.1357 -0.0803
  667MOL0     C91964   0.035   5.471  10.948  0.3282  0.2034 -0.7898
  667MOL0     C91965  -0.076   5.393  10.969 -0.6198  0.0109  0.7137
  667MOL0     C91966  -0.153   5.410  11.081  0.5265  0.4742  0.0088
  667MOL0     O91967  -0.252   5.315  11.094 -1.4152 -0.5126  0.2582
  667MOL0     C91968  -0.365   5.322  11.002  0.7382  1.1910  0.7658
  667MOL0     C91969  -0.451   5.450  11.027 -0.0451 -0.8304  0.2494
  667MOL0     C91970  -0.573   5.462  10.940  0.8321  0.2045 -0.4094
  667MOL0     C91971  -0.649   5.590  10.969 -0.0519 -0.8904  0.2554
  667MOL0     C91972  -0.611   5.699  10.876  0.0787  0.3246  0.0993
  667MOL0     C91973  -0.570   5.769  10.791  0.1611  0.1148  0.0581
  667MOL0     C91974  -0.134   5.513  11.168  0.1316 -0.0450 -0.6761
  667MOL0     C91975  -0.036   5.606  11.142  0.5405  0.0267  0.5564
  667MOL0     C91976  -0.019   5.719  11.242  0.0850 -0.1709  0.0963
  667MOL0     H91977   0.451   5.599  10.928  2.5701  0.6646  1.2037
  667MOL0     H91978   0.646   5.702  10.871 -1.2777 -1.0438  1.8833
  667MOL0     H91979   0.633   5.910  10.555  0.4868 -0.2834 -1.0667
  667MOL0     H91980   0.769   5.833  10.652 -0.5995  0.5562  1.3434
  667MOL0     H91981   0.896   6.040  10.629  0.6058  1.8726 -0.0633
  667MOL0     H91982   0.817   5.998  10.464 -0.5093 -1.3749  1.3775
  667MOL0     H91983   0.688   6.181  10.488  1.2789  0.9785 -1.2142
  667MOL0     H91984   0.721   6.198  10.661  0.3752 -0.3419  0.8804
  667MOL0     H91985   0.957   6.280  10.626 -0.7238 -0.7843  0.8670
  667MOL0     H91986   0.956   6.233  10.457 -0.6728  2.5689 -2.1198
  667MOL0     H91987   0.757   6.430  10.558 -0.8334  0.3416 -1.6161
  667MOL0     H91988   0.789   6.388  10.394 -1.8075  2.6575 -0.0813
  667MOL0     H91989   0.891   6.606  10.440  1.8208  0.2896 -4.3955
  667MOL0     H91990   1.000   6.519  10.557  0.4826 -1.5131 -0.9410
  667MOL0     H91991   0.970   6.490  10.260 -0.1159 -0.4756 -0.5457
  667MOL0     H91992   1.075   6.390  10.353  3.1829  0.8065 -1.3595
  667MOL0     H91993   1.084   6.702  10.298  1.7981  3.0193  1.8336
  667MOL0     H91994   1.183   6.626  10.427  1.3187 -0.6722 -1.2783
  667MOL0     H91995   1.388   6.725  10.310 -0.1533  0.1991 -0.6996
  667MOL0     H91996   1.518   6.627   9.947 -1.1166 -2.5232  1.2580
  667MOL0     H91997   1.600   6.533  10.072 -1.1125 -0.3835  2.9642
  667MOL0     H91998   1.564   6.835  10.096 -0.1556  0.3241 -0.3530
  667MOL0     H91999   1.668   6.731  10.194  3.3304  1.3956 -0.8603
  667MOL0     H92000   1.800   6.672   9.990 -1.2129 -0.7157 -0.6852
  667MOL0     H92001   1.697   6.790   9.900  1.1664  1.8804 -0.3682
  667MOL0     H92002   1.897   6.902   9.951  0.3073  3.2827  1.6847
  667MOL0     H92003   1.768   6.956  10.060  0.2162  0.4193 -0.5490
  667MOL0     H92004   1.990   6.736  10.362 -0.8680 -0.5491 -0.9713
  667MOL0     H92005   2.077   6.724  10.543 -1.1696  0.3433  1.3972
  667MOL0     H92006   2.057   6.867  10.654  0.7068  0.8983 -0.0593
  667MOL0     H92007   2.215   6.812  10.613  0.6845 -0.0519 -0.8318
  667MOL0     H92008   2.533   7.180  10.279  0.2102  0.4696 -0.2898
  667MOL0     H92009   2.772   7.197  10.342 -0.7971  1.4378 -0.8083
  667MOL0     H92010   2.859   7.419  10.714  0.1366  1.1239  0.1448
  667MOL0     H92011   2.856   7.250  10.781  1.9790 -1.0149 -0.3991
  667MOL0     H92012   3.087   7.401  10.658 -1.0585  2.9658  1.5487
  667MOL0     H92013   3.081   7.351  10.833 -1.2771 -0.4950 -0.0950
  667MOL0     H92014   3.123   7.184  10.598  0.7082  1.2923 -0.4108
  667MOL0     H92015   3.088   7.109  10.762 -1.8579  0.6227 -1.2977
  667MOL0     H92016   3.277   7.208  10.850 -1.5873 -0.1699 -0.1863
  667MOL0     H92017   3.323   7.287  10.700  1.7992 -1.0029  0.4822
  667MOL0     H92018   3.290   6.979  10.723 -0.8806  1.0283  2.2458
  667MOL0     H92019   3.358   7.070  10.589  2.9209  0.9464  0.6195
  667MOL0     H92020   3.531   6.970  10.730  2.5122  0.2329  0.5292
  667MOL0     H92021   3.506   7.100  10.848  3.4875 -2.6375 -0.1420
  667MOL0     H92022   3.537   7.261  10.634 -1.0126  0.4910  0.2051
  667MOL0     H92023   3.596   7.103  10.564 -3.2934 -0.4871  0.6940
  667MOL0     H92024   3.712   7.276  10.784  1.1414  1.8141 -1.4036
  667MOL0     H92025   3.792   7.226  10.633  0.7978 -1.0628  0.6294
  667MOL0     H92026   2.651   7.318  10.736  1.5344 -2.1303  0.1295
  667MOL0     H92027   2.423   7.270  10.683 -1.1533 -2.7024 -0.3364
  667MOL0     H92028   2.165   7.184  10.261  1.1181 -0.0102  0.9022
  667MOL0     H92029   2.016   7.072  10.113  0.1924 -0.2777 -0.4383
  667MOL0     H92030   0.430   6.040  10.709  4.6018  1.1640  0.7420
  667MOL0     H92031   0.223   5.918  10.758  0.8689  0.8518 -1.1297
  667MOL0     H92032   0.085   5.457  10.853 -0.5394  0.6961 -1.3366
  667MOL0     H92033  -0.080   5.319  10.890 -1.2608 -0.2624  0.9880
  667MOL0     H92034  -0.334   5.316  10.897  1.1913  0.1011  0.9444
  667MOL0     H92035  -0.422   5.230  11.018  1.5766  0.6305  0.5850
  667MOL0     H92036  -0.392   5.541  11.011  1.5793 -1.5977  1.5886
  667MOL0     H92037  -0.481   5.451  11.132 -1.0534 -2.1274 -0.0016
  667MOL0     H92038  -0.547   5.445  10.835  1.1958 -0.3667 -0.2316
  667MOL0     H92039  -0.634   5.379  10.975  1.0878  0.7119  1.3024
  667MOL0     H92040  -0.639   5.623  11.073  1.0834  1.0562 -0.4253
  667MOL0     H92041  -0.756   5.564  10.964 -0.3458  0.1314  0.8930
  667MOL0     H92042  -0.534   5.845  10.725 -0.7350 -0.6921 -1.4141
  667MOL0     H92043  -0.201   5.521  11.253  1.0677 -2.6277  0.4215
  667MOL0     H92044  -0.003   5.819  11.200 -1.5745  0.3731  0.6474
  667MOL0     H92045  -0.110   5.724  11.303  0.5952  1.8858  0.8003
  667MOL0     H92046   0.066   5.705  11.310 -0.5936 -1.3534  0.7286
  668MOL0     O92047   3.238   7.154   4.982 -0.1504  1.1203  0.6782
  668MOL0     C92048   3.178   7.083   5.067 -0.3028 -0.0808  0.5437
  668MOL0     O92049   3.176   7.107   5.199  0.4938 -0.0567  0.1485
  668MOL0     C92050   3.246   7.218   5.254 -0.1965  0.2492 -0.2782
  668MOL0     C92051   3.314   7.195   5.378 -0.2972  1.0150  0.4823
  668MOL0     C92052   3.398   7.290   5.439  0.0258  0.2772  0.4576
  668MOL0     C92053   3.406   7.425   5.382  0.6040  0.0771 -0.0142
  668MOL0     O92054   3.483   7.531   5.424  0.5864 -0.5696 -0.1741
  668MOL0     C92055   3.583   7.484   5.515  0.2468 -0.9128  0.5149
  668MOL0     C92056   3.700   7.583   5.561 -0.0941 -0.9731 -0.0893
  668MOL0     C92057   3.778   7.628   5.436 -0.1913 -0.0572  0.2255
  668MOL0     C92058   3.696   7.726   5.353 -0.2454  0.2606  0.3429
  668MOL0     C92059   3.787   7.841   5.301  0.3913 -0.0864 -0.0800
  668MOL0     C92060   3.702   7.936   5.216 -0.6001  0.2174 -0.1467
  668MOL0     C92061   3.788   8.030   5.127  0.5038 -0.3646  0.4224
  668MOL0     C92062   3.867   8.130   5.195  1.1855 -0.7396  0.0272
  668MOL0     N92063   4.011   8.099   5.189  0.5897 -0.6796  0.0804
  668MOL0     C92064   4.105   8.133   5.099  0.7103 -0.3948  0.1639
  668MOL0     C92065   4.217   8.073   5.139  0.0094  0.0490 -0.1838
  668MOL0     C92066   4.346   8.082   5.066  0.0178 -0.2354 -0.1482
  668MOL0     C92067   4.449   8.168   5.141  0.5450 -0.6573 -0.2380
  668MOL0     C92068   4.590   8.150   5.072 -0.2785  0.4389 -0.3774
  668MOL0     C92069   4.714   8.226   5.134  1.1433 -0.2761  0.7506
  668MOL0     O92070   4.828   8.159   5.093  0.0215  0.1017  0.3572
  668MOL0     C92071   4.944   8.182   5.158  0.8215 -0.6259  0.0133
  668MOL0     C92072   4.957   8.200   5.301  0.4161  0.6370  0.6561
  668MOL0     C92073   5.072   8.248   5.358  0.0287 -0.2248 -0.5420
  668MOL0     C92074   5.069   8.271   5.509 -0.4421  0.5468  0.0599
  668MOL0     C92075   5.182   8.283   5.274  0.9082 -0.1596  0.6377
  668MOL0     C92076   5.309   8.336   5.329  0.1416 -0.5198  0.6747
  668MOL0     O92077   5.409   8.287   5.251  0.2989 -0.0172  0.0063
  668MOL0     C92078   5.534   8.315   5.300 -0.1441 -0.2408  0.2556
  668MOL0     C92079   5.600   8.431   5.257 -0.2302 -1.3491  0.7548
  668MOL0     C92080   5.724   8.461   5.309 -0.2670  0.4714  0.0744
  668MOL0     C92081   5.788   8.371   5.405 -0.0288  0.3318 -0.1290
  668MOL0     O92082   5.916   8.405   5.453  0.4295 -0.1851  0.1217
  668MOL0     C92083   5.991   8.307   5.526  1.0932  0.4079 -0.1525
  668MOL0     C92084   6.144   8.343   5.510 -0.6280 -0.6484  1.0360
  668MOL0     C92085   6.192   8.396   5.362 -0.3659  0.2387 -0.0077
  668MOL0     C92086   6.327   8.471   5.359 -0.3701 -1.0047 -0.5908
  668MOL0     C92087   6.455   8.388   5.400  0.3438  0.8307 -0.7017
  668MOL0     C92088   6.585   8.458   5.392  0.0473 -1.1865  0.2824
  668MOL0     C92089   6.705   8.371   5.422  0.6035 -0.8977  0.0555
  668MOL0     C92090   6.850   8.428   5.391 -0.0873  0.4807  0.6859
  668MOL0    Cl92091   6.885   8.555   5.500 -0.6348 -0.0812 -0.3376
  668MOL0     C92092   5.708   8.262   5.453  0.7118 -0.0237  0.0360
  668MOL0     C92093   5.594   8.227   5.388  0.6961  0.5360 -0.6310
  668MOL0     O92094   5.314   8.415   5.416  0.2467 -0.1561  0.0680
  668MOL0     C92095   5.173   8.262   5.131 -0.2640 -0.0453  0.3534
  668MOL0     C92096   5.062   8.212   5.074  0.4362  0.2695 -0.7250
  668MOL0     N92097   4.190   8.000   5.256 -0.2150  0.1348  0.6661
  668MOL0     N92098   4.064   8.015   5.277  0.7214  0.5105  0.7592
  668MOL0     C92099   3.338   7.450   5.262  0.2914 -0.5913  0.0968
  668MOL0     C92100   3.254   7.354   5.206  1.0702  0.9685  0.2449
  668MOL0     C92101   3.105   6.965   5.025  0.9683  0.5519  0.0117
  668MOL0     C92102   2.982   6.936   5.088 -0.4544 -0.2885 -0.2251
  668MOL0     C92103   2.906   6.824   5.054 -0.2332 -0.0046 -0.6974
  668MOL0     C92104   2.950   6.734   4.960  0.1347 -0.8466 -0.2454
  668MOL0     O92105   2.891   6.615   4.926  0.0292 -0.4675 -0.6084
  668MOL0     C92106   2.762   6.582   4.968 -0.4850 -0.3151  0.0660
  668MOL0     C92107   2.705   6.485   4.862  0.4781 -0.7116  0.1985
  668MOL0     C92108   2.633   6.365   4.927 -0.1917 -0.1737 -0.3480
  668MOL0     C92109   2.547   6.289   4.824 -1.0828  0.6608 -0.3824
  668MOL0     C92110   2.490   6.159   4.881  0.0556  0.5769  0.7399
  668MOL0     C92111   2.440   6.063   4.935 -0.5543 -0.0052  0.5439
  668MOL0     C92112   3.063   6.772   4.886  0.6161  0.6464  0.4011
  668MOL0     C92113   3.141   6.881   4.918 -0.0303  0.8629  0.0949
  668MOL0     C92114   3.271   6.902   4.831 -0.6200  0.2310 -0.0828
  668MOL0     H92115   3.313   7.093   5.414  1.3317  0.5208 -0.8010
  668MOL0     H92116   3.450   7.251   5.526 -0.2542  1.2245  1.0737
  668MOL0     H92117   3.647   7.408   5.469  0.1434 -0.3634 -0.5751
  668MOL0     H92118   3.539   7.447   5.608  1.3747  1.8503  2.3068
  668MOL0     H92119   3.662   7.674   5.608  1.8309  0.0141 -0.3242
  668MOL0     H92120   3.774   7.537   5.627 -0.7169 -1.4872  0.2603
  668MOL0     H92121   3.873   7.674   5.463  0.3591 -1.3501  0.5600
  668MOL0     H92122   3.804   7.535   5.384  2.5932  0.5785  0.3291
  668MOL0     H92123   3.646   7.678   5.268  0.7133 -1.4073  0.6656
  668MOL0     H92124   3.620   7.774   5.415  0.7043  1.3712  0.6814
  668MOL0     H92125   3.860   7.788   5.240  1.4366  1.9479 -0.6814
  668MOL0     H92126   3.843   7.886   5.384 -1.3689 -0.7534  1.5601
  668MOL0     H92127   3.633   7.879   5.154 -1.3408  0.6890  0.2249
  668MOL0     H92128   3.639   7.995   5.284 -1.4368  1.6243 -2.0320
  668MOL0     H92129   3.704   8.080   5.078  1.0924  0.7587  0.5370
  668MOL0     H92130   3.851   7.977   5.054  0.0134  0.6903 -0.8024
  668MOL0     H92131   3.845   8.225   5.144  0.7513 -0.9254 -0.1326
  668MOL0     H92132   3.839   8.142   5.300  1.7772 -0.3125  0.1433
  668MOL0     H92133   4.081   8.196   5.014 -0.7874 -1.0677  0.0711
  668MOL0     H92134   4.337   8.120   4.964 -1.9809  2.7367  0.9830
  668MOL0     H92135   4.386   7.981   5.076 -2.8160 -1.2072  4.7430
  668MOL0     H92136   4.420   8.273   5.131  0.3120 -0.6080  0.8401
  668MOL0     H92137   4.460   8.147   5.248 -3.0579 -0.5740  0.2910
  668MOL0     H92138   4.615   8.043   5.068  1.3308  0.8119 -1.3963
  668MOL0     H92139   4.579   8.197   4.974 -0.0350 -1.3225 -1.2953
  668MOL0     H92140   4.715   8.333   5.111 -0.5764 -0.0530  1.4995
  668MOL0     H92141   4.700   8.232   5.242 -1.0942  3.5667  0.4334
  668MOL0     H92142   4.874   8.182   5.369  0.6128  0.4579  0.8515
  668MOL0     H92143   5.136   8.198   5.556 -1.1345  0.1055  0.3837
  668MOL0     H92144   4.969   8.257   5.550 -0.3606 -2.8886 -0.5687
  668MOL0     H92145   5.102   8.372   5.536 -0.8166  0.8904 -0.7367
  668MOL0     H92146   5.542   8.498   5.194  0.1932 -0.2788  1.4795
  668MOL0     H92147   5.774   8.544   5.262  0.5349 -0.6068 -1.0438
  668MOL0     H92148   5.960   8.332   5.628 -1.0691  1.8246 -1.0813
  668MOL0     H92149   5.971   8.202   5.505  0.8439  0.9480 -2.9921
  668MOL0     H92150   6.162   8.424   5.581  0.1444 -1.0907  1.3503
  668MOL0     H92151   6.214   8.265   5.542  0.0582 -0.4493  0.0727
  668MOL0     H92152   6.119   8.465   5.317 -1.5586 -2.3132 -2.2053
  668MOL0     H92153   6.198   8.311   5.295  2.2829  1.7858 -1.8892
  668MOL0     H92154   6.327   8.562   5.419  1.0528 -2.2516  1.3922
  668MOL0     H92155   6.336   8.506   5.255  0.9331  1.6410  0.3349
  668MOL0     H92156   6.450   8.344   5.500  3.3286 -1.9475 -1.6004
  668MOL0     H92157   6.457   8.298   5.339 -0.4709 -0.6212  1.3214
  668MOL0     H92158   6.584   8.542   5.462  0.5482 -1.2676  0.3952
  668MOL0     H92159   6.607   8.496   5.291  0.3300 -0.7317  0.5112
  668MOL0     H92160   6.686   8.272   5.379 -0.2071 -1.7029  2.1079
  668MOL0     H92161   6.702   8.356   5.531  1.3412 -1.3558  0.0200
  668MOL0     H92162   6.852   8.458   5.286 -2.7232  5.7508  1.8130
  668MOL0     H92163   6.928   8.355   5.413 -0.5962 -0.2085  0.2586
  668MOL0     H92164   5.745   8.189   5.525  2.0708 -1.7067 -2.2300
  668MOL0     H92165   5.539   8.141   5.425  1.5566  0.8867  1.6653
  668MOL0     H92166   5.260   8.281   5.069 -1.5627  0.2612 -1.4267
  668MOL0     H92167   5.071   8.200   4.966 -0.5069 -1.9095 -0.6159
  668MOL0     H92168   3.356   7.546   5.214  0.6192 -1.2157 -1.0693
  668MOL0     H92169   3.195   7.384   5.120 -0.6655  0.1283  1.0945
  668MOL0     H92170   2.929   7.007   5.151 -0.1857 -1.5749  1.5420
  668MOL0     H92171   2.822   6.787   5.111 -1.4558 -0.2199 -2.5683
  668MOL0     H92172   2.772   6.542   5.069  0.3631  1.5210  0.7429
  668MOL0     H92173   2.698   6.671   4.972  0.7433  0.6338 -0.6209
  668MOL0     H92174   2.785   6.461   4.790 -0.8224  2.3269 -2.5205
  668MOL0     H92175   2.628   6.530   4.799 -0.7007 -1.4524  1.0759
  668MOL0     H92176   2.708   6.296   4.966 -0.6994 -0.7112 -0.3149
  668MOL0     H92177   2.573   6.406   5.009 -0.4786 -0.3777 -0.4558
  668MOL0     H92178   2.601   6.262   4.733 -0.1242  1.8149 -0.1705
  668MOL0     H92179   2.470   6.359   4.789 -2.7685 -0.9864 -0.1388
  668MOL0     H92180   2.405   5.974   4.983  0.3125 -0.4378  0.3964
  668MOL0     H92181   3.088   6.704   4.805 -3.0292 -0.1562 -0.2297
  668MOL0     H92182   3.283   6.998   4.781 -0.5512 -0.6963 -1.9395
  668MOL0     H92183   3.362   6.884   4.890  0.2254 -0.8903 -1.6606
  668MOL0     H92184   3.260   6.837   4.744 -1.9842  1.9073 -1.2280
  669MOL0     O92185   4.543   0.003   6.983 -0.4677 -0.0139 -0.1506
  669MOL0     C92186   4.522  -0.118   6.965 -0.1315 -0.5848 -0.0854
  669MOL0     O92187   4.604  -0.215   7.016 -0.2332 -0.1179 -0.2187
  669MOL0     C92188   4.731  -0.173   7.061  0.1701  0.1159  0.0961
  669MOL0     C92189   4.841  -0.171   6.967 -0.0982  0.3239  0.3336
  669MOL0     C92190   4.969  -0.136   7.007  0.7214  0.6471 -0.6311
  669MOL0     C92191   4.997  -0.122   7.142  0.2469 -0.3240  0.4361
  669MOL0     O92192   5.123  -0.108   7.195  0.1505 -0.1322  0.5627
  669MOL0     C92193   5.236  -0.070   7.107  0.6633  0.1592 -0.3983
  669MOL0     C92194   5.361  -0.052   7.196 -1.0079  0.0423 -0.1406
  669MOL0     C92195   5.473   0.014   7.107 -0.7664 -0.3917 -0.0774
  669MOL0     C92196   5.502  -0.042   6.969  0.4973  0.4535  0.3276
  669MOL0     C92197   5.590   0.040   6.876  0.0069 -0.3367  0.3981
  669MOL0     C92198   5.722   0.082   6.937  0.2793  0.7377  0.0937
  669MOL0     C92199   5.793   0.182   6.847  0.4281  0.2419  0.2514
  669MOL0     C92200   5.905   0.258   6.914  0.0815 -0.1229  0.1999
  669MOL0     N92201   5.991   0.321   6.809  0.3078  0.2842  0.5896
  669MOL0     C92202   5.972   0.449   6.765 -0.0089  0.3401  0.0940
  669MOL0     C92203   6.062   0.459   6.662  0.5626 -0.0921  1.1311
  669MOL0     C92204   6.091   0.572   6.565 -0.0766 -0.1051  0.2021
  669MOL0     C92205   5.979   0.592   6.450 -0.5926  0.2721  0.1989
  669MOL0     C92206   5.850   0.639   6.513  0.0611  0.5342  0.3506
  669MOL0     C92207   5.737   0.661   6.399 -0.5951  0.4653 -0.0446
  669MOL0     O92208   5.697   0.527   6.355 -0.6703  0.3135  0.1695
  669MOL0     C92209   5.575   0.529   6.300  0.0855 -0.1022  0.3871
  669MOL0     C92210   5.551   0.551   6.157  0.7768  0.1456 -0.3240
  669MOL0     C92211   5.412   0.542   6.107 -0.1238 -0.0343  0.1008
  669MOL0     C92212   5.390   0.550   5.956  0.3942 -0.7176 -0.3858
  669MOL0     C92213   5.303   0.508   6.198 -0.0201 -0.3518  0.3561
  669MOL0     C92214   5.163   0.471   6.149  0.7559  0.2589 -0.0767
  669MOL0     O92215   5.080   0.434   6.239  0.0229  0.5099 -0.5780
  669MOL0     C92216   4.945   0.431   6.218  0.0717  0.8949  0.6021
  669MOL0     C92217   4.881   0.308   6.184 -0.1990  1.3447 -0.4328
  669MOL0     C92218   4.738   0.310   6.169 -0.2727 -1.0738 -0.1545
  669MOL0     C92219   4.666   0.433   6.177  0.2935  0.1049 -0.3223
  669MOL0     O92220   4.527   0.429   6.171  0.3056  0.7516  0.4947
  669MOL0     C92221   4.456   0.549   6.164  0.4566 -0.0769 -0.4175
  669MOL0     C92222   4.306   0.505   6.157  0.3901 -0.2149 -0.0093
  669MOL0     C92223   4.265   0.419   6.037  0.2553 -0.4789 -0.9429
  669MOL0     C92224   4.227   0.511   5.921 -0.3211  0.2480  0.1338
  669MOL0     C92225   4.148   0.433   5.817  0.1424  0.6712  0.3413
  669MOL0     C92226   4.103   0.515   5.696 -0.3752 -0.0240  0.3534
  669MOL0     C92227   3.976   0.591   5.717  0.5275 -0.3123 -0.1518
  669MOL0     C92228   3.942   0.669   5.594  0.5185  0.4709  0.1802
  669MOL0    Cl92229   3.917   0.566   5.454 -0.1877  0.1562 -0.2483
  669MOL0     C92230   4.736   0.550   6.188  0.5192 -0.0355 -0.4161
  669MOL0     C92231   4.874   0.549   6.207 -0.1612  0.2964  0.4952
  669MOL0     O92232   5.132   0.472   6.030 -0.0733 -0.0486 -0.3781
  669MOL0     C92233   5.332   0.481   6.331 -0.0184  0.0194 -0.2860
  669MOL0     C92234   5.465   0.495   6.379 -0.0419  0.0867  0.4944
  669MOL0     N92235   6.131   0.343   6.648  0.4204  0.4462 -0.0634
  669MOL0     N92236   6.096   0.261   6.747 -0.4875  0.1623  0.2740
  669MOL0     C92237   4.895  -0.131   7.238  0.1516 -0.2497  0.7807
  669MOL0     C92238   4.760  -0.146   7.195 -0.3961  0.2492  0.4471
  669MOL0     C92239   4.405  -0.154   6.878  0.0811 -0.2061 -1.0330
  669MOL0     C92240   4.370  -0.053   6.787  0.3690  0.1033 -0.4678
  669MOL0     C92241   4.259  -0.072   6.697  0.5237  0.9764  0.5123
  669MOL0     C92242   4.184  -0.193   6.711  0.8468 -0.8796  1.0546
  669MOL0     O92243   4.065  -0.214   6.648 -0.6001 -0.2848  0.2943
  669MOL0     C92244   4.004  -0.104   6.578 -0.1583  1.0663 -1.0236
  669MOL0     C92245   4.034  -0.117   6.427 -0.2385 -0.7774 -0.4492
  669MOL0     C92246   3.957  -0.239   6.375  1.2546 -0.0632  0.5575
  669MOL0     C92247   3.943  -0.244   6.221 -0.2779  0.3617  0.5036
  669MOL0     C92248   3.864  -0.363   6.192 -0.9461 -0.1318 -0.3278
  669MOL0     C92249   3.790  -0.456   6.166 -0.1463 -0.0565  0.0556
  669MOL0     C92250   4.221  -0.291   6.798  1.2343 -0.0118 -0.7705
  669MOL0     C92251   4.327  -0.271   6.887 -0.6888 -0.1999 -0.0316
  669MOL0     C92252   4.362  -0.379   6.987  0.1350  0.5169  0.6669
  669MOL0     H92253   4.822  -0.202   6.865  2.1615 -0.8176  0.1970
  669MOL0     H92254   5.045  -0.145   6.930 -0.6658 -0.1966 -1.9695
  669MOL0     H92255   5.210   0.025   7.060  1.5481  1.0018  0.7480
  669MOL0     H92256   5.258  -0.147   7.033  0.0929  0.9567 -1.4247
  669MOL0     H92257   5.335   0.001   7.288 -0.5482  1.9421 -1.0471
  669MOL0     H92258   5.395  -0.153   7.220 -1.2054  0.1233  0.4956
  669MOL0     H92259   5.457   0.121   7.090 -0.6739 -0.8708 -4.3685
  669MOL0     H92260   5.569  -0.001   7.158 -0.5605 -0.5651 -0.5110
  669MOL0     H92261   5.550  -0.140   6.968 -0.3676 -0.0422 -2.5741
  669MOL0     H92262   5.402  -0.055   6.927  0.3630 -1.8145  1.2342
  669MOL0     H92263   5.538   0.134   6.853 -1.6557 -1.0122  1.1883
  669MOL0     H92264   5.613  -0.019   6.787 -0.5585 -0.9226  0.6263
  669MOL0     H92265   5.702   0.139   7.028  0.8614  1.5540 -0.2745
  669MOL0     H92266   5.789  -0.001   6.962  1.3621  2.4004  3.1728
  669MOL0     H92267   5.723   0.258   6.812  1.1503  0.3091 -1.0849
  669MOL0     H92268   5.840   0.135   6.761 -0.6732  0.9536 -0.7691
  669MOL0     H92269   5.878   0.334   6.988  0.9911 -0.1591  0.5819
  669MOL0     H92270   5.973   0.183   6.955  1.0536  0.7416  0.2102
  669MOL0     H92271   5.908   0.530   6.800  0.6774  1.2675 -0.7268
  669MOL0     H92272   6.188   0.563   6.515 -0.1639 -2.0229  0.3083
  669MOL0     H92273   6.103   0.669   6.614  3.8046 -0.3207 -0.0243
  669MOL0     H92274   6.025   0.664   6.382  1.9010 -0.3369  1.1179
  669MOL0     H92275   5.961   0.499   6.397  1.0989 -1.0772  1.8383
  669MOL0     H92276   5.815   0.573   6.593  2.3827 -0.3539  0.7042
  669MOL0     H92277   5.874   0.734   6.561  1.6072  1.5041 -2.1296
  669MOL0     H92278   5.648   0.709   6.440 -0.3164  1.4941 -0.6199
  669MOL0     H92279   5.763   0.734   6.322 -4.3154 -0.1608 -2.1353
  669MOL0     H92280   5.628   0.568   6.083  2.7997 -1.2683  1.3179
  669MOL0     H92281   5.320   0.630   5.929 -0.7607 -1.8393 -0.8429
  669MOL0     H92282   5.349   0.458   5.913 -1.3315  0.6373 -1.8015
  669MOL0     H92283   5.482   0.578   5.904 -0.0014  0.4459 -0.4943
  669MOL0     H92284   4.931   0.211   6.188  0.8258  1.8833  0.4024
  669MOL0     H92285   4.681   0.218   6.156 -1.1102 -0.5403 -0.3630
  669MOL0     H92286   4.463   0.616   6.251  2.8131  0.7695 -1.1884
  669MOL0     H92287   4.488   0.604   6.075  2.3087 -0.9184 -0.3196
  669MOL0     H92288   4.302   0.443   6.247  1.1007  0.6380  0.6238
  669MOL0     H92289   4.239   0.591   6.161 -2.9527 -2.5039 -1.7235
  669MOL0     H92290   4.188   0.345   6.063 -2.2293  2.5959  1.1409
  669MOL0     H92291   4.358   0.366   6.011  0.5369 -1.5567  1.8672
  669MOL0     H92292   4.321   0.540   5.875  0.4476 -1.3740  0.6269
  669MOL0     H92293   4.175   0.602   5.955 -0.7900 -0.2663  0.8357
  669MOL0     H92294   4.212   0.349   5.787  0.8637  1.5954 -0.7745
  669MOL0     H92295   4.054   0.394   5.859 -0.1336  0.4128 -0.4900
  669MOL0     H92296   4.100   0.452   5.607 -0.8449 -0.4880  0.6973
  669MOL0     H92297   4.182   0.587   5.672 -1.8603  0.8449 -2.3287
  669MOL0     H92298   3.993   0.665   5.795 -3.2263  1.2100 -0.5605
  669MOL0     H92299   3.889   0.533   5.749 -0.4630  2.3171  2.2750
  669MOL0     H92300   4.012   0.750   5.574 -0.0947  1.5670  2.1557
  669MOL0     H92301   3.847   0.719   5.618 -0.3763 -0.4522 -1.2641
  669MOL0     H92302   4.686   0.646   6.187  0.7193  0.0736 -0.1074
  669MOL0     H92303   4.917   0.648   6.210 -0.0817  0.2652  0.3760
  669MOL0     H92304   5.255   0.476   6.407 -0.3846  1.0719 -0.5648
  669MOL0     H92305   5.473   0.503   6.487  0.8157  0.6045  0.4013
  669MOL0     H92306   4.922  -0.117   7.342  0.0701  1.2919  0.6159
  669MOL0     H92307   4.678  -0.153   7.265 -0.9371 -4.8819 -0.3290
  669MOL0     H92308   4.422   0.041   6.776 -2.8559  1.9798 -0.7501
  669MOL0     H92309   4.242   0.006   6.624  0.6815 -0.9335 -1.6666
  669MOL0     H92310   3.899  -0.097   6.607  0.7326  0.7537  2.9078
  669MOL0     H92311   4.037  -0.006   6.613 -2.0145  2.3381 -2.6596
  669MOL0     H92312   4.141  -0.136   6.418  0.2713  0.5306  2.0448
  669MOL0     H92313   4.009  -0.024   6.375  0.9137  0.8017  1.6864
  669MOL0     H92314   4.005  -0.332   6.406 -1.2010 -1.6874 -0.2424
  669MOL0     H92315   3.860  -0.235   6.424  1.9238  2.9146  1.8856
  669MOL0     H92316   4.043  -0.256   6.180  0.0188 -0.8606  1.5472
  669MOL0     H92317   3.898  -0.148   6.194  2.1470  1.0436 -1.4267
  669MOL0     H92318   3.722  -0.536   6.145  1.6697 -1.7639  0.3572
  669MOL0     H92319   4.150  -0.373   6.795  2.7049 -1.3476 -3.4341
  669MOL0     H92320   4.444  -0.440   6.947  3.1026  3.8207  1.3195
  669MOL0     H92321   4.387  -0.337   7.084  0.5130  0.6289  0.5233
  669MOL0     H92322   4.277  -0.444   7.010 -0.4068  1.1436  0.4498
  670MOL0     O92323   4.017   3.474   4.159 -0.1385 -0.5533 -0.3074
  670MOL0     C92324   3.905   3.484   4.105  0.0971 -0.7554  0.1681
  670MOL0     O92325   3.886   3.489   3.968 -0.2074  0.4951 -1.0898
  670MOL0     C92326   3.992   3.473   3.890 -0.1891  0.3736  0.4921
  670MOL0     C92327   4.098   3.570   3.879 -0.2632  1.0746  0.1864
  670MOL0     C92328   4.195   3.553   3.779  0.0769 -0.2984 -0.2392
  670MOL0     C92329   4.195   3.449   3.685  0.5337  0.9400  0.7601
  670MOL0     O92330   4.288   3.421   3.583  0.2486 -0.3985 -0.4180
  670MOL0     C92331   4.410   3.495   3.597  0.0374  0.1753  0.1293
  670MOL0     C92332   4.515   3.454   3.500  0.1450 -0.4789 -0.2121
  670MOL0     C92333   4.652   3.528   3.526  0.1371  0.1384  0.2753
  670MOL0     C92334   4.644   3.679   3.502  0.1616  0.4747 -0.8515
  670MOL0     C92335   4.795   3.716   3.486 -0.6220 -0.0204 -0.4371
  670MOL0     C92336   4.842   3.720   3.345 -0.0891 -0.1877 -0.7417
  670MOL0     C92337   4.948   3.827   3.318 -0.3927 -0.0518 -0.8716
  670MOL0     C92338   4.978   3.841   3.167  0.6449 -0.6426 -0.9343
  670MOL0     N92339   5.078   3.939   3.141  0.0386 -0.0760 -0.4310
  670MOL0     C92340   5.210   3.917   3.152 -0.2582 -0.1343 -0.4970
  670MOL0     C92341   5.258   4.038   3.121 -0.5459 -0.1724 -0.1764
  670MOL0     C92342   5.396   4.087   3.156 -0.0587 -0.1728 -0.5277
  670MOL0     C92343   5.486   4.104   3.038 -0.2556 -0.0392 -0.0017
  670MOL0     C92344   5.627   4.151   3.079 -0.2625 -0.2712  0.1642
  670MOL0     C92345   5.708   4.199   2.950  0.4133  0.2298 -0.6796
  670MOL0     O92346   5.851   4.209   2.966  0.4774 -0.6820  0.3157
  670MOL0     C92347   5.926   4.270   2.867 -0.5622  0.0272 -0.8524
  670MOL0     C92348   5.877   4.312   2.747 -0.0931 -0.0010 -0.3352
  670MOL0     C92349   5.961   4.382   2.654  0.1301 -0.9211 -1.2422
  670MOL0     C92350   5.898   4.424   2.525  0.1244  0.1874 -0.3310
  670MOL0     C92351   6.101   4.402   2.691  0.4608 -0.6493 -0.1770
  670MOL0     C92352   6.200   4.454   2.594  0.6967  0.3814  0.2430
  670MOL0     O92353   6.299   4.553   2.631  0.6104 -0.4145  0.0401
  670MOL0     C92354   6.265   4.666   2.697 -0.1657  0.3797  0.0518
  670MOL0     C92355   6.133   4.714   2.702 -0.3134 -0.1364  1.4863
  670MOL0     C92356   6.109   4.834   2.765 -0.1478 -0.1767 -0.4158
  670MOL0     C92357   6.214   4.913   2.815 -0.7816 -0.1767 -0.8478
  670MOL0     O92358   6.188   5.028   2.889 -0.2076 -0.6510  0.1461
  670MOL0     C92359   6.053   5.072   2.924 -0.7155 -0.1228 -1.1806
  670MOL0     C92360   5.992   5.159   2.809 -0.4056 -0.1740 -0.4529
  670MOL0     C92361   5.847   5.182   2.821  0.0515  0.0771  0.5341
  670MOL0     C92362   5.758   5.059   2.793  1.0459  0.4457 -0.5759
  670MOL0     C92363   5.617   5.100   2.799 -0.2577  0.0206 -0.2495
  670MOL0     C92364   5.525   4.981   2.773 -0.3764  0.0521 -0.0536
  670MOL0     C92365   5.379   5.022   2.767 -0.1172  0.4374  0.3177
  670MOL0     C92366   5.294   4.896   2.778 -0.4220 -1.0966  0.3774
  670MOL0    Cl92367   5.122   4.944   2.752  0.3082 -0.1215  0.3610
  670MOL0     C92368   6.340   4.857   2.824 -0.9252 -0.2697 -0.3108
  670MOL0     C92369   6.369   4.739   2.760  0.4142 -0.3656 -0.3440
  670MOL0     O92370   6.195   4.403   2.488  0.2405  0.0156  0.1399
  670MOL0     C92371   6.142   4.364   2.819 -0.1693 -0.2312  0.1658
  670MOL0     C92372   6.056   4.301   2.903 -0.2362 -0.2171 -0.8739
  670MOL0     N92373   5.160   4.117   3.079  1.0454 -0.7481  0.0855
  670MOL0     N92374   5.042   4.061   3.096 -0.3372  0.2071 -0.7954
  670MOL0     C92375   4.088   3.362   3.686  0.2692 -0.2122  0.4897
  670MOL0     C92376   3.990   3.373   3.784 -0.2071 -0.1675 -0.0467
  670MOL0     C92377   3.783   3.508   4.184  0.0793  0.3610 -0.9414
  670MOL0     C92378   3.680   3.571   4.117  0.1525 -0.5509  0.3515
  670MOL0     C92379   3.553   3.595   4.175 -0.8431  0.0141  0.1792
  670MOL0     C92380   3.534   3.577   4.310 -0.0550  0.0689 -0.7604
  670MOL0     O92381   3.415   3.590   4.376  0.6813  0.3953 -0.0693
  670MOL0     C92382   3.302   3.530   4.315 -0.7099 -0.5821  0.0728
  670MOL0     C92383   3.196   3.552   4.418 -0.5761 -0.2978 -0.3018
  670MOL0     C92384   3.064   3.506   4.353 -0.1263  0.6826 -0.2570
  670MOL0     C92385   2.937   3.522   4.445  0.1395  0.5823  0.3993
  670MOL0     C92386   2.934   3.419   4.553 -0.4191 -0.4417  0.7949
  670MOL0     C92387   2.925   3.330   4.631 -0.7673 -0.6275 -0.3399
  670MOL0     C92388   3.630   3.506   4.380 -0.2187  0.0838  0.6251
  670MOL0     C92389   3.758   3.473   4.320  0.3356  0.4873  0.2296
  670MOL0     C92390   3.858   3.410   4.405  0.4143 -0.0436 -0.1966
  670MOL0     H92391   4.110   3.652   3.949 -0.4746  0.3667  1.0721
  670MOL0     H92392   4.279   3.622   3.785 -0.5395  0.6438 -1.7774
  670MOL0     H92393   4.444   3.485   3.700 -1.1162  1.2530  0.6342
  670MOL0     H92394   4.380   3.600   3.584 -1.9161  0.2551  3.9389
  670MOL0     H92395   4.528   3.345   3.505  1.1018 -0.4239 -1.0849
  670MOL0     H92396   4.486   3.469   3.395  3.4634 -3.7227 -1.8565
  670MOL0     H92397   4.687   3.508   3.628  1.0633  3.9652  0.8384
  670MOL0     H92398   4.714   3.478   3.450 -0.5358 -0.0573 -0.1559
  670MOL0     H92399   4.580   3.719   3.423 -0.4109 -0.3531 -0.8192
  670MOL0     H92400   4.610   3.721   3.597  1.8835 -0.5487  0.2781
  670MOL0     H92401   4.860   3.653   3.548  0.6200  1.2235 -0.4100
  670MOL0     H92402   4.804   3.817   3.526 -2.3268  0.5837 -1.4916
  670MOL0     H92403   4.883   3.620   3.330  1.7532  0.6302 -1.4075
  670MOL0     H92404   4.749   3.738   3.288 -0.8296 -1.1049  0.1454
  670MOL0     H92405   5.044   3.811   3.368 -0.3666  4.3879  0.8934
  670MOL0     H92406   4.914   3.922   3.360 -1.3279  0.2210 -2.1766
  670MOL0     H92407   5.007   3.742   3.129 -1.8134 -3.4343  3.4871
  670MOL0     H92408   4.886   3.864   3.114  1.0509 -1.6845 -2.1531
  670MOL0     H92409   5.263   3.826   3.176  1.2876  1.1147  1.1536
  670MOL0     H92410   5.429   4.014   3.230 -0.7435  1.3358  1.3473
  670MOL0     H92411   5.386   4.175   3.219 -4.4306 -1.6528  1.1972
  670MOL0     H92412   5.500   4.008   2.987 -1.3503 -1.6974  2.5698
  670MOL0     H92413   5.447   4.181   2.971  0.3206  1.9063  1.7826
  670MOL0     H92414   5.619   4.243   3.137 -0.1407  0.1235 -0.4332
  670MOL0     H92415   5.692   4.085   3.138 -0.5568  0.5474  1.4304
  670MOL0     H92416   5.692   4.129   2.867  0.6507  0.3105 -0.7928
  670MOL0     H92417   5.668   4.297   2.925  2.2137  0.8892 -1.1397
  670MOL0     H92418   5.770   4.300   2.730  0.0086  0.7689 -1.5552
  670MOL0     H92419   5.813   4.357   2.503  0.1062 -0.0793  0.5363
  670MOL0     H92420   5.963   4.443   2.439 -1.9320 -0.9279 -2.2763
  670MOL0     H92421   5.845   4.518   2.540  0.4254  0.7485 -2.4000
  670MOL0     H92422   6.045   4.663   2.664 -0.8442  2.4009 -1.0014
  670MOL0     H92423   6.005   4.863   2.763 -0.2223 -0.4116 -0.1010
  670MOL0     H92424   5.993   4.988   2.962 -0.8207  1.5728  3.0089
  670MOL0     H92425   6.064   5.134   3.014  1.8393 -0.7849 -0.9704
  670MOL0     H92426   6.046   5.254   2.803 -0.1937 -0.1898  0.9617
  670MOL0     H92427   6.010   5.107   2.714  0.6761  0.3550 -0.5561
  670MOL0     H92428   5.823   5.255   2.743  0.9081 -0.1784  0.0232
  670MOL0     H92429   5.837   5.226   2.921  1.2655 -0.3862  0.8785
  670MOL0     H92430   5.783   4.987   2.872  2.3356  3.2928  1.7915
  670MOL0     H92431   5.786   5.016   2.696  1.7228  1.3708 -0.8029
  670MOL0     H92432   5.597   5.138   2.899  1.5450 -1.9375  0.9268
  670MOL0     H92433   5.599   5.180   2.727  1.7765  0.5260 -0.2561
  670MOL0     H92434   5.547   4.914   2.858  0.9967  0.0969 -0.3454
  670MOL0     H92435   5.555   4.925   2.684  0.6877  0.7932 -0.1791
  670MOL0     H92436   5.357   5.073   2.673  0.2587 -4.9291 -3.0889
  670MOL0     H92437   5.351   5.076   2.858 -1.9011 -1.0375  0.7140
  670MOL0     H92438   5.312   4.853   2.877  2.1762  2.1993  1.5328
  670MOL0     H92439   5.326   4.828   2.699  2.4753  1.5834 -0.9748
  670MOL0     H92440   6.422   4.914   2.867 -2.0952  0.9177  0.4519
  670MOL0     H92441   6.470   4.701   2.771  0.9861  1.5079  1.4596
  670MOL0     H92442   6.246   4.380   2.848 -0.0629 -1.9264  0.8346
  670MOL0     H92443   6.085   4.278   3.005  0.7217  1.4430 -0.7262
  670MOL0     H92444   4.082   3.279   3.616 -1.1085 -1.0558  1.5637
  670MOL0     H92445   3.912   3.297   3.783  0.3495 -0.7453 -0.8877
  670MOL0     H92446   3.674   3.595   4.011 -3.2988 -1.5893  0.1652
  670MOL0     H92447   3.478   3.650   4.119 -0.7709  1.3941  1.3517
  670MOL0     H92448   3.276   3.582   4.222 -2.0636  0.0918  0.7891
  670MOL0     H92449   3.310   3.422   4.298 -0.9090 -0.7227  0.8135
  670MOL0     H92450   3.190   3.658   4.445  1.6168 -0.3688  0.6243
  670MOL0     H92451   3.225   3.499   4.509  2.0359  3.1043  1.0446
  670MOL0     H92452   3.040   3.563   4.263 -1.5157  0.9411  0.2427
  670MOL0     H92453   3.069   3.400   4.327 -1.9398  1.0351 -2.3410
  670MOL0     H92454   2.852   3.509   4.378  0.4408 -0.0460  0.1304
  670MOL0     H92455   2.927   3.620   4.492 -1.5272  0.3798  0.5211
  670MOL0     H92456   2.895   3.251   4.698  0.0498  0.2051  1.0596
  670MOL0     H92457   3.604   3.470   4.479  2.0163 -2.5436  0.3752
  670MOL0     H92458   3.898   3.317   4.365 -1.4160 -0.2945 -1.5586
  670MOL0     H92459   3.937   3.485   4.414  0.1083  0.4319 -1.3560
  670MOL0     H92460   3.809   3.393   4.502 -3.2318  1.9441 -1.4956
  671MOL0     O92461   0.855   5.607   4.941  0.0379  0.0655 -0.6879
  671MOL0     C92462   0.829   5.579   5.055 -0.0543  0.1707 -0.2014
  671MOL0     O92463   0.919   5.577   5.160  1.1848  0.2569 -0.4903
  671MOL0     C92464   1.049   5.612   5.128  0.3710  0.0427  0.2537
  671MOL0     C92465   1.143   5.506   5.126  0.1164 -0.2723  0.3415
  671MOL0     C92466   1.281   5.529   5.105 -0.4371 -0.3527  0.3630
  671MOL0     C92467   1.327   5.657   5.074  0.5018  1.2642  0.8888
  671MOL0     O92468   1.459   5.689   5.033 -0.6100 -0.4132 -1.1820
  671MOL0     C92469   1.566   5.594   5.068  0.1900 -0.2554  0.2623
  671MOL0     C92470   1.699   5.672   5.065  0.4980 -0.3794  0.5265
  671MOL0     C92471   1.801   5.568   5.078 -0.3815 -0.5492  0.1612
  671MOL0     C92472   1.943   5.634   5.071  0.2121  0.5503  0.2736
  671MOL0     C92473   1.986   5.665   4.927 -0.0807  0.3946  0.2476
  671MOL0     C92474   2.125   5.723   4.924  0.1881  0.5760 -0.8708
  671MOL0     C92475   2.190   5.735   4.785  0.5059  0.0019  0.5541
  671MOL0     C92476   2.127   5.846   4.697 -0.0640 -0.5474 -0.2496
  671MOL0     N92477   2.226   5.888   4.595 -0.0304  0.3298  0.3258
  671MOL0     C92478   2.192   5.861   4.459  0.1149 -0.5716 -0.8984
  671MOL0     C92479   2.253   5.956   4.388  0.1283 -0.2613  0.7401
  671MOL0     C92480   2.241   5.985   4.245 -0.5230  0.4508  0.7124
  671MOL0     C92481   2.313   6.118   4.198  0.4337  0.5762 -0.1243
  671MOL0     C92482   2.309   6.160   4.047 -0.2703 -0.6714 -0.7963
  671MOL0     C92483   2.402   6.275   4.009  0.3122 -0.5978  0.0426
  671MOL0     O92484   2.535   6.244   4.053 -0.1853 -0.0268 -0.5976
  671MOL0     C92485   2.635   6.329   4.031  0.2029 -0.1136 -0.5761
  671MOL0     C92486   2.762   6.297   4.076 -0.0030 -0.7761  0.3238
  671MOL0     C92487   2.871   6.384   4.079 -0.2468 -0.0586  0.9074
  671MOL0     C92488   2.999   6.340   4.146  0.8321 -1.0476 -0.6426
  671MOL0     C92489   2.853   6.510   4.013  0.1001  0.1160 -0.5935
  671MOL0     C92490   2.946   6.621   4.010  0.2092 -0.3509  0.2475
  671MOL0     O92491   2.916   6.725   3.925  0.1256 -0.2823  0.0684
  671MOL0     C92492   3.002   6.832   3.924  0.8763  0.4380  1.1172
  671MOL0     C92493   3.091   6.846   3.819  0.4401 -0.1898  0.7275
  671MOL0     C92494   3.179   6.960   3.811  0.4185  0.9562 -0.4070
  671MOL0     C92495   3.169   7.065   3.898 -0.1925  0.6363 -0.0064
  671MOL0     O92496   3.262   7.165   3.886 -0.5852 -0.4609 -0.3854
  671MOL0     C92497   3.291   7.243   3.996 -0.3541 -0.4026  0.1775
  671MOL0     C92498   3.373   7.173   4.108 -0.9097  1.0726  0.0168
  671MOL0     C92499   3.487   7.076   4.050  0.5112  0.2849  0.1905
  671MOL0     C92500   3.566   7.015   4.169 -0.3838 -0.1030  0.4287
  671MOL0     C92501   3.492   6.939   4.274  0.1817 -0.6273  0.4458
  671MOL0     C92502   3.433   6.799   4.219  0.4166  0.0290 -0.5921
  671MOL0     C92503   3.389   6.723   4.348 -0.6598  0.1053 -0.0365
  671MOL0     C92504   3.330   6.595   4.302 -0.8107 -0.0862 -0.3978
  671MOL0    Cl92505   3.453   6.483   4.225  0.4701 -0.1000  0.0881
  671MOL0     C92506   3.082   7.047   4.010  0.1690  0.6231  0.7008
  671MOL0     C92507   2.999   6.932   4.027 -0.3074 -0.3573  0.5327
  671MOL0     O92508   3.044   6.620   4.087 -0.0924  1.1124 -0.5924
  671MOL0     C92509   2.726   6.544   3.956  0.0836 -0.0982  0.1385
  671MOL0     C92510   2.618   6.458   3.968  0.3775  0.2064  0.0178
  671MOL0     N92511   2.316   6.040   4.475 -0.2690  0.5320 -0.1487
  671MOL0     N92512   2.305   5.995   4.597  0.4504  0.0183 -0.1133
  671MOL0     C92513   1.229   5.761   5.055  0.6801  1.2461 -0.2119
  671MOL0     C92514   1.092   5.741   5.083 -0.4348  0.3650 -0.5202
  671MOL0     C92515   0.691   5.547   5.085 -0.0138 -0.5516 -0.3357
  671MOL0     C92516   0.646   5.434   5.014  0.2171  0.1410  0.3251
  671MOL0     C92517   0.505   5.409   5.012 -0.2409 -0.6553  0.7748
  671MOL0     C92518   0.419   5.488   5.088  0.0460  0.7124  0.3608
  671MOL0     O92519   0.283   5.474   5.072 -0.3121  0.2071 -0.0854
  671MOL0     C92520   0.220   5.447   5.197  0.6854 -0.3518  0.1791
  671MOL0     C92521   0.085   5.513   5.186  0.2618 -0.4524  0.3020
  671MOL0     C92522  -0.007   5.524   5.312  0.0404 -0.8640 -0.4766
  671MOL0     C92523  -0.032   5.398   5.393 -0.3834  0.8012  0.4826
  671MOL0     C92524  -0.096   5.295   5.308  0.2216  0.4624  0.1082
  671MOL0     C92525  -0.143   5.203   5.248  0.4821  0.1279  0.0629
  671MOL0     C92526   0.469   5.594   5.161  0.6895  0.1290 -0.2638
  671MOL0     C92527   0.613   5.636   5.160  0.4646 -0.6439  0.9204
  671MOL0     C92528   0.650   5.768   5.224  0.2113  0.3049  0.4492
  671MOL0     H92529   1.121   5.401   5.138 -0.2800 -0.2553 -0.1722
  671MOL0     H92530   1.348   5.445   5.118  0.2687  0.1248 -0.1351
  671MOL0     H92531   1.558   5.506   5.003 -1.0484 -2.4094  3.1249
  671MOL0     H92532   1.563   5.554   5.170  0.8273  0.1324  0.4375
  671MOL0     H92533   1.694   5.722   4.968 -3.9463 -1.1797  0.1168
  671MOL0     H92534   1.708   5.736   5.153 -0.8050 -2.1199  2.0177
  671MOL0     H92535   1.788   5.523   5.177 -3.1547 -0.1892  0.0578
  671MOL0     H92536   1.798   5.501   4.991  1.0388  0.0374 -0.3587
  671MOL0     H92537   1.943   5.728   5.127  0.3573  0.7813 -0.1145
  671MOL0     H92538   2.021   5.571   5.116 -1.7540 -2.4483 -0.2317
  671MOL0     H92539   1.915   5.726   4.870 -0.6781 -1.3969 -1.0161
  671MOL0     H92540   1.971   5.573   4.870 -0.3554  1.1185 -0.8775
  671MOL0     H92541   2.126   5.821   4.973  1.0959  1.8783 -3.3474
  671MOL0     H92542   2.188   5.654   4.981  0.0435  1.0580 -0.1136
  671MOL0     H92543   2.194   5.639   4.733  0.2913  1.7632 -2.9654
  671MOL0     H92544   2.289   5.773   4.810  0.1680  0.9539  0.4911
  671MOL0     H92545   2.032   5.816   4.652 -1.1174  1.2686  0.6612
  671MOL0     H92546   2.106   5.934   4.758  1.4208 -1.8643  2.3117
  671MOL0     H92547   2.125   5.786   4.419  2.1784 -2.5248 -0.9331
  671MOL0     H92548   2.134   5.995   4.223 -0.6775  0.4524  1.4349
  671MOL0     H92549   2.288   5.901   4.193  1.1104  1.6859  0.0977
  671MOL0     H92550   2.272   6.205   4.250  1.6891  1.0571  0.1025
  671MOL0     H92551   2.419   6.113   4.225  0.4016  2.5044  0.4871
  671MOL0     H92552   2.339   6.079   3.980  1.0804 -1.2628  0.4735
  671MOL0     H92553   2.210   6.200   4.020 -0.0048  1.0790  0.6862
  671MOL0     H92554   2.409   6.298   3.903 -1.9989  0.6186  0.1071
  671MOL0     H92555   2.370   6.358   4.072 -0.4651 -1.9712  1.5369
  671MOL0     H92556   2.768   6.208   4.138  2.0343  0.3036  1.7733
  671MOL0     H92557   2.991   6.234   4.174 -0.5177 -0.8625 -0.2550
  671MOL0     H92558   3.030   6.415   4.219 -0.1614 -0.5385 -0.7270
  671MOL0     H92559   3.076   6.353   4.069  1.3760 -1.9791 -0.2818
  671MOL0     H92560   3.080   6.773   3.740 -0.2132 -0.0751  0.7087
  671MOL0     H92561   3.255   6.963   3.734 -0.4158  1.1838 -1.2527
  671MOL0     H92562   3.366   7.313   3.958  0.8617 -2.8251 -2.2028
  671MOL0     H92563   3.213   7.306   4.038  1.0011  0.3936  1.5917
  671MOL0     H92564   3.419   7.239   4.181  1.4203 -0.0623 -0.3373
  671MOL0     H92565   3.293   7.122   4.164 -0.5453 -0.8445 -1.1126
  671MOL0     H92566   3.559   7.133   3.992 -0.7047  0.2308 -1.4284
  671MOL0     H92567   3.441   7.000   3.985  2.9041  0.0518 -1.3281
  671MOL0     H92568   3.621   7.092   4.223  0.5659 -2.4007  2.9466
  671MOL0     H92569   3.642   6.953   4.120 -0.3125 -0.3007  0.7856
  671MOL0     H92570   3.570   6.920   4.348  0.3181 -0.9775  0.2154
  671MOL0     H92571   3.426   7.005   4.331  1.5194  2.8796 -1.7800
  671MOL0     H92572   3.506   6.744   4.159 -1.2902 -1.9873 -0.9536
  671MOL0     H92573   3.345   6.811   4.154  0.3797  0.1693 -0.5170
  671MOL0     H92574   3.314   6.781   4.402 -0.8892  0.4056 -0.6757
  671MOL0     H92575   3.480   6.711   4.408  1.3269  3.3789 -2.0979
  671MOL0     H92576   3.253   6.613   4.227 -0.3110  0.2415 -0.8295
  671MOL0     H92577   3.282   6.548   4.389 -2.2124  1.5321 -0.2435
  671MOL0     H92578   3.092   7.122   4.088  3.4815  1.5315 -0.4239
  671MOL0     H92579   2.934   6.929   4.114 -0.0415 -2.3390  0.7140
  671MOL0     H92580   2.709   6.634   3.898 -0.6700 -0.7230 -0.6274
  671MOL0     H92581   2.526   6.495   3.924 -0.3058 -0.3506  0.9174
  671MOL0     H92582   1.257   5.862   5.026 -0.5470  1.4190 -0.8704
  671MOL0     H92583   1.020   5.821   5.067 -0.6515  0.1632 -0.5562
  671MOL0     H92584   0.717   5.380   4.952 -1.3783 -1.0290 -0.5465
  671MOL0     H92585   0.461   5.340   4.941 -0.1286  0.9081 -0.8792
  671MOL0     H92586   0.209   5.338   5.195  1.2843 -0.4055 -1.5968
  671MOL0     H92587   0.281   5.472   5.285  1.2638 -1.5804  0.1577
  671MOL0     H92588   0.031   5.455   5.111  0.8792 -0.5338 -0.0923
  671MOL0     H92589   0.103   5.616   5.155 -2.5229 -0.2582 -0.9269
  671MOL0     H92590   0.047   5.590   5.381 -1.6005 -1.6001  1.5836
  671MOL0     H92591  -0.103   5.574   5.296 -2.1818 -4.4564  0.5679
  671MOL0     H92592  -0.092   5.404   5.484  0.2751  1.5512  0.8836
  671MOL0     H92593   0.064   5.352   5.419 -0.9173 -0.8167 -0.2785
  671MOL0     H92594  -0.192   5.126   5.191 -2.4137  2.0983 -0.3262
  671MOL0     H92595   0.397   5.656   5.213  1.0698 -0.6228  1.2168
  671MOL0     H92596   0.706   5.763   5.317 -0.0535 -1.9269  0.5384
  671MOL0     H92597   0.712   5.827   5.155 -0.3339  0.6866  0.2752
  671MOL0     H92598   0.554   5.819   5.240 -0.5193 -1.5153  2.3616
  672MOL0     O92599   0.701  10.922   4.494  0.8485  0.2172  0.0076
  672MOL0     C92600   0.671  10.858   4.395  0.4933 -0.5327 -0.6363
  672MOL0     O92601   0.756  10.783   4.330  0.4507  0.1929 -0.4785
  672MOL0     C92602   0.894  10.803   4.335 -0.5923  0.0124  0.2005
  672MOL0     C92603   0.961  10.917   4.356 -0.0118 -0.0684 -0.1135
  672MOL0     C92604   1.103  10.909   4.358 -0.5556  0.1293  0.3030
  672MOL0     C92605   1.180  10.798   4.332  0.2220  0.9048 -0.3665
  672MOL0     O92606   1.315  10.817   4.336 -0.2542  0.4496 -0.6779
  672MOL0     C92607   1.404  10.701   4.309 -0.3192  0.6584 -0.2662
  672MOL0     C92608   1.557  10.732   4.299 -0.1526 -0.6643 -0.0679
  672MOL0     C92609   1.643  10.616   4.262  0.2452 -0.2798  0.5164
  672MOL0     C92610   1.773  10.669   4.199 -0.2963 -0.0001 -1.4785
  672MOL0     C92611   1.866  10.563   4.147  0.3309  0.2019 -0.0994
  672MOL0     C92612   1.988  10.627   4.080  0.0172 -0.9565  0.0692
  672MOL0     C92613   2.089  10.512   4.049  1.1054 -0.1376 -0.6582
  672MOL0     C92614   2.219  10.572   3.980  0.3760 -0.3781 -0.4307
  672MOL0     N92615   2.305  10.454   3.958 -0.3033  0.4553  0.8194
  672MOL0     C92616   2.313  10.362   3.853  0.0418 -0.2029  0.5099
  672MOL0     C92617   2.413  10.282   3.880 -0.5410 -0.0637  0.2799
  672MOL0     C92618   2.469  10.176   3.788 -0.0375  0.8838 -0.4154
  672MOL0     C92619   2.581  10.244   3.716 -0.7910  0.2065  0.4544
  672MOL0     C92620   2.626  10.164   3.596  0.3321 -0.6291 -0.0354
  672MOL0     C92621   2.748  10.216   3.531 -0.4164 -0.3594  0.1696
  672MOL0     O92622   2.771  10.163   3.400 -0.1367  0.3112  0.0838
  672MOL0     C92623   2.898  10.132   3.361 -0.1538 -0.0434 -0.4082
  672MOL0     C92624   3.007  10.215   3.407 -0.4414 -0.2387 -0.4587
  672MOL0     C92625   3.142  10.179   3.378  0.1017 -0.0852  0.7738
  672MOL0     C92626   3.250  10.272   3.435  0.7207  0.0380  0.7407
  672MOL0     C92627   3.166  10.076   3.288 -0.1351  0.0487  0.5048
  672MOL0     C92628   3.301  10.030   3.252  0.1344  0.0339  0.0254
  672MOL0     O92629   3.385  10.125   3.218  0.2982  0.1736 -0.3027
  672MOL0     C92630   3.491  10.094   3.142 -0.5000 -0.2873  0.5042
  672MOL0     C92631   3.495  10.121   3.002  1.0477  0.7414 -0.2143
  672MOL0     C92632   3.608  10.107   2.925 -0.5975 -0.5312 -0.2915
  672MOL0     C92633   3.734  10.075   2.983  0.6668  0.2243 -0.3428
  672MOL0     O92634   3.849  10.082   2.905 -0.1469 -0.5759 -0.2445
  672MOL0     C92635   3.976  10.102   2.968  0.3063 -0.0667 -0.0360
  672MOL0     C92636   4.084  10.120   2.868  0.4455 -0.2777 -0.0936
  672MOL0     C92637   4.224  10.113   2.919  0.1221 -0.0301  0.3899
  672MOL0     C92638   4.325  10.073   2.818  0.2439  0.5514 -0.0377
  672MOL0     C92639   4.468  10.066   2.877  0.0391 -0.9350 -1.1016
  672MOL0     C92640   4.570  10.038   2.765  0.2168 -0.1755  0.3204
  672MOL0     C92641   4.711  10.003   2.816  1.1928  0.2116  0.4552
  672MOL0     C92642   4.831  10.054   2.728  0.5414 -0.5005  0.0638
  672MOL0    Cl92643   4.839   9.957   2.571 -0.0677 -0.2372 -0.0284
  672MOL0     C92644   3.731  10.057   3.117  0.4984 -0.5336  0.3267
  672MOL0     C92645   3.614  10.060   3.198 -0.5685 -0.4323  0.4909
  672MOL0     O92646   3.320   9.911   3.238 -0.8160 -0.6018 -1.2762
  672MOL0     C92647   3.052  10.003   3.241 -0.6172 -0.3104 -0.9232
  672MOL0     C92648   2.924  10.033   3.274 -0.9548  1.3261  0.2831
  672MOL0     N92649   2.454  10.310   4.008  0.4933  0.6858 -1.0174
  672MOL0     N92650   2.392  10.418   4.052 -0.0350 -1.0214  0.4536
  672MOL0     C92651   1.103  10.681   4.307 -0.6316 -0.1592 -0.1026
  672MOL0     C92652   0.964  10.679   4.319 -0.3593  0.1107  0.5159
  672MOL0     C92653   0.529  10.862   4.348  0.0481  0.7930  0.0095
  672MOL0     C92654   0.507  10.789   4.229 -0.2795 -0.1178 -1.0162
  672MOL0     C92655   0.376  10.784   4.181  0.3815 -0.0320  1.2712
  672MOL0     C92656   0.265  10.834   4.240  0.6920 -0.1720 -0.5969
  672MOL0     O92657   0.137  10.831   4.188  0.1333 -0.2371  0.0253
  672MOL0     C92658   0.128  10.769   4.060 -0.2518 -0.0764  0.1748
  672MOL0     C92659  -0.010  10.802   3.997  0.8655 -0.0373  0.7539
  672MOL0     C92660  -0.049  10.703   3.877  0.5027 -0.1065 -0.5575
  672MOL0     C92661  -0.153  10.590   3.917  0.0112  0.1674  0.3734
  672MOL0     C92662  -0.156  10.486   3.812  0.0324  0.1443  0.4503
  672MOL0     C92663  -0.148  10.388   3.738 -0.2924  0.3540  0.1855
  672MOL0     C92664   0.286  10.886   4.365  0.5098 -0.0651 -0.4279
  672MOL0     C92665   0.413  10.911   4.419  0.3613 -0.4579 -0.2391
  672MOL0     C92666   0.421  10.974   4.553  0.1907 -0.6423 -0.5409
  672MOL0     H92667   0.914  11.015   4.366 -2.2508 -1.0879 -0.0094
  672MOL0     H92668   1.148  11.008   4.358  1.3997 -0.7143 -0.6143
  672MOL0     H92669   1.355  10.659   4.221 -2.2835  0.8557  0.6771
  672MOL0     H92670   1.383  10.629   4.388 -1.4738  2.4756  1.1944
  672MOL0     H92671   1.571  10.796   4.211 -2.6176 -0.4863 -0.3854
  672MOL0     H92672   1.595  10.778   4.391 -0.6877 -0.4961  0.0685
  672MOL0     H92673   1.651  10.551   4.351 -0.9274  0.4935  1.2225
  672MOL0     H92674   1.594  10.560   4.182  0.7924 -0.3030  0.1977
  672MOL0     H92675   1.755  10.737   4.116  1.3547  0.8270 -1.2123
  672MOL0     H92676   1.824  10.731   4.274 -0.1459 -1.8527  0.0387
  672MOL0     H92677   1.816  10.505   4.069  0.6770 -0.6667  0.3155
  672MOL0     H92678   1.896  10.491   4.224 -0.7021 -0.7114 -0.5370
  672MOL0     H92679   1.956  10.680   3.990  0.1028  1.7332  1.5171
  672MOL0     H92680   2.039  10.702   4.141 -0.9479  1.4015 -1.8575
  672MOL0     H92681   2.056  10.431   3.984  4.1341 -2.4911  0.5163
  672MOL0     H92682   2.120  10.465   4.143  0.0822  1.7053  0.6873
  672MOL0     H92683   2.195  10.624   3.887 -1.2759  0.0197  0.1803
  672MOL0     H92684   2.274  10.638   4.048  0.8677 -0.1920 -0.9987
  672MOL0     H92685   2.249  10.367   3.765 -1.4567  0.6601  1.5994
  672MOL0     H92686   2.388  10.137   3.727  0.5890  0.5944 -1.0827
  672MOL0     H92687   2.511  10.097   3.852  1.6321  0.4749 -1.9313
  672MOL0     H92688   2.546  10.342   3.682 -0.7518 -0.8827 -3.1499
  672MOL0     H92689   2.671  10.262   3.776 -0.4017 -1.5574  0.4578
  672MOL0     H92690   2.648  10.062   3.629 -2.4401 -0.5291  2.5583
  672MOL0     H92691   2.541  10.170   3.528  0.2800  0.0130  0.0839
  672MOL0     H92692   2.755  10.325   3.535  1.4015 -0.4070 -0.5444
  672MOL0     H92693   2.835  10.182   3.589  0.2339  1.0844  0.0728
  672MOL0     H92694   2.995  10.305   3.466 -0.2670 -0.7114  0.3162
  672MOL0     H92695   3.291  10.328   3.350 -1.6072  1.9005  0.7272
  672MOL0     H92696   3.329  10.221   3.491 -0.2474 -2.0625  0.2951
  672MOL0     H92697   3.197  10.350   3.490  1.1389  1.1018 -0.3222
  672MOL0     H92698   3.396  10.154   2.971 -0.2376 -1.3740  1.3754
  672MOL0     H92699   3.618  10.140   2.822  1.4643  2.2616  0.6616
  672MOL0     H92700   3.964  10.186   3.038 -1.1227 -0.1217 -0.1691
  672MOL0     H92701   3.994  10.018   3.035 -1.3949  1.6012  2.7420
  672MOL0     H92702   4.080  10.043   2.789 -1.3188  1.6962 -2.0481
  672MOL0     H92703   4.068  10.221   2.830  1.8764  0.7475  1.8700
  672MOL0     H92704   4.228  10.050   3.007  0.9950 -2.8175 -1.5059
  672MOL0     H92705   4.247  10.212   2.959 -3.8926  1.8127 -1.2571
  672MOL0     H92706   4.320  10.152   2.743  1.1791  0.1752 -0.5162
  672MOL0     H92707   4.290   9.973   2.788  0.2759  0.1088  1.3389
  672MOL0     H92708   4.496  10.157   2.930 -0.7056 -1.3853  0.1021
  672MOL0     H92709   4.467   9.982   2.947  2.6025  1.2863  1.8528
  672MOL0     H92710   4.562  10.133   2.712 -1.2497 -0.1024  0.6292
  672MOL0     H92711   4.535   9.957   2.701 -0.5754 -1.5451  2.3850
  672MOL0     H92712   4.707   9.894   2.828  0.1082 -0.0570 -1.7827
  672MOL0     H92713   4.709  10.049   2.915 -3.3717 -1.2774  1.3149
  672MOL0     H92714   4.922  10.031   2.784 -0.3355 -3.9708  0.2543
  672MOL0     H92715   4.825  10.163   2.715  0.9088 -0.6412 -1.5446
  672MOL0     H92716   3.825  10.037   3.167  1.0570 -0.1176 -0.5361
  672MOL0     H92717   3.622  10.041   3.304  3.0292 -0.0183  0.4048
  672MOL0     H92718   3.061   9.915   3.177 -0.2588  0.3984 -1.8660
  672MOL0     H92719   2.853   9.970   3.222  0.2154 -0.8945  1.2218
  672MOL0     H92720   1.159  10.592   4.280  3.1929  2.0091 -0.1497
  672MOL0     H92721   0.913  10.584   4.307  0.8998 -0.4134 -1.1785
  672MOL0     H92722   0.586  10.744   4.171 -0.2742  0.0260 -1.1203
  672MOL0     H92723   0.367  10.736   4.084 -2.6564  1.4103  0.7164
  672MOL0     H92724   0.199  10.804   3.986 -0.9969 -0.7115 -0.8699
  672MOL0     H92725   0.131  10.659   4.064  2.3824 -0.2393 -2.6808
  672MOL0     H92726  -0.010  10.908   3.968 -0.8788  0.1188  1.1688
  672MOL0     H92727  -0.086  10.796   4.076  1.5036  1.6485  1.5396
  672MOL0     H92728  -0.105  10.752   3.796  0.4644  1.3575  0.3231
  672MOL0     H92729   0.048  10.663   3.847  0.8594  0.2312  0.1162
  672MOL0     H92730  -0.253  10.634   3.917  0.0530  0.3247 -1.1433
  672MOL0     H92731  -0.131  10.550   4.017  0.8403 -1.6114 -0.4808
  672MOL0     H92732  -0.144  10.298   3.681  0.8504  0.4842  0.0380
  672MOL0     H92733   0.193  10.917   4.413  1.2251  3.3732 -0.9649
  672MOL0     H92734   0.476  10.918   4.630 -0.9394  0.9273  1.5347
  672MOL0     H92735   0.457  11.078   4.552  0.1004 -0.6113 -1.9553
  672MOL0     H92736   0.317  10.981   4.586  0.2035 -0.8834 -0.4485
  673MOL0     O92737   4.445   9.264   2.771 -0.4500  0.0010 -0.0452
  673MOL0     C92738   4.390   9.212   2.670 -0.0399  0.4727 -0.1115
  673MOL0     O92739   4.452   9.156   2.566 -0.1066 -0.2722  0.7698
  673MOL0     C92740   4.588   9.179   2.558  0.1565 -0.2776 -0.4164
  673MOL0     C92741   4.647   9.272   2.481 -0.2932  0.0120 -0.4751
  673MOL0     C92742   4.785   9.297   2.467 -0.2889  0.8010 -0.0586
  673MOL0     C92743   4.869   9.222   2.540 -0.7781 -0.6557 -0.3054
  673MOL0     O92744   5.002   9.258   2.530  0.3673 -0.4227 -0.1327
  673MOL0     C92745   5.107   9.159   2.546  0.6445  0.3522 -0.3374
  673MOL0     C92746   5.238   9.220   2.506  0.5327  0.0302  0.4518
  673MOL0     C92747   5.285   9.321   2.616  0.0992 -0.6432  0.4543
  673MOL0     C92748   5.390   9.422   2.564  0.2255  0.1414 -0.3634
  673MOL0     C92749   5.416   9.540   2.665 -0.2161  0.4507  0.4572
  673MOL0     C92750   5.287   9.615   2.703  0.1709 -0.1761 -1.1116
  673MOL0     C92751   5.315   9.748   2.767  0.4256 -0.2445 -0.3801
  673MOL0     C92752   5.192   9.808   2.833 -0.0956  0.5443  0.9259
  673MOL0     N92753   5.202   9.948   2.878  0.4404 -0.6878  1.3566
  673MOL0     C92754   5.188  10.056   2.791  0.5485 -0.1666 -0.2074
  673MOL0     C92755   5.201  10.165   2.870 -0.4047 -0.1772 -0.4721
  673MOL0     C92756   5.193  10.316   2.843 -0.4608 -0.5693  0.1538
  673MOL0     C92757   5.275  10.339   2.712  0.0164 -0.0358 -0.6878
  673MOL0     C92758   5.246  10.485   2.659  0.9339 -0.1324 -0.4676
  673MOL0     C92759   5.106  10.526   2.639 -0.1227 -0.3088 -0.6163
  673MOL0     O92760   5.050  10.433   2.545 -0.2461  0.4514  0.4767
  673MOL0     C92761   4.912  10.420   2.521 -0.4557 -0.1936  0.9970
  673MOL0     C92762   4.872  10.321   2.439 -0.3847 -0.1594  0.0503
  673MOL0     C92763   4.741  10.302   2.392  0.4094  0.0174 -0.0472
  673MOL0     C92764   4.717  10.201   2.284  0.3936 -0.3387 -0.0543
  673MOL0     C92765   4.640  10.382   2.448  0.2950 -0.2566  0.4409
  673MOL0     C92766   4.491  10.373   2.416 -0.4332 -0.6707 -0.1232
  673MOL0     O92767   4.436  10.260   2.373  0.3543 -1.0362 -0.3571
  673MOL0     C92768   4.304  10.272   2.338  0.3130  0.9185 -0.3052
  673MOL0     C92769   4.248  10.351   2.236 -0.2213  0.1953  0.0221
  673MOL0     C92770   4.109  10.362   2.220  0.7236 -0.1011 -1.1561
  673MOL0     C92771   4.026  10.300   2.318  0.8217  0.0437 -0.2278
  673MOL0     O92772   3.888  10.333   2.316 -0.5950 -0.2086 -0.1729
  673MOL0     C92773   3.842  10.391   2.438 -0.8105  0.7167 -0.4873
  673MOL0     C92774   3.698  10.448   2.435 -0.1700 -0.7481  0.4275
  673MOL0     C92775   3.584  10.338   2.415 -0.0474 -0.1948  0.5229
  673MOL0     C92776   3.575  10.245   2.533 -0.5604 -0.3360  0.0198
  673MOL0     C92777   3.436  10.191   2.556  0.3569  0.5297 -0.6468
  673MOL0     C92778   3.361  10.134   2.438  0.1706  0.2727 -0.3134
  673MOL0     C92779   3.250  10.043   2.487  0.2956 -0.3904  0.3870
  673MOL0     C92780   3.110  10.116   2.523  0.1522 -0.0398 -0.4757
  673MOL0    Cl92781   2.988   9.991   2.556  0.1993  0.1560  0.4940
  673MOL0     C92782   4.077  10.221   2.422  0.2095  0.4662  0.5428
  673MOL0     C92783   4.223  10.200   2.427 -0.3714 -0.4163  0.6568
  673MOL0     O92784   4.435  10.478   2.430  0.7104  0.2131 -0.1278
  673MOL0     C92785   4.674  10.477   2.544 -0.0741  0.2472  0.3084
  673MOL0     C92786   4.808  10.491   2.587 -0.2969 -0.5325  1.0321
  673MOL0     N92787   5.200  10.125   3.002 -1.0574  0.1139 -0.6572
  673MOL0     N92788   5.216  10.000   3.004 -0.3319 -0.1745  0.3510
  673MOL0     C92789   4.814   9.119   2.621 -0.3898 -0.6948  0.9356
  673MOL0     C92790   4.676   9.095   2.626 -0.1412  0.3625  0.4722
  673MOL0     C92791   4.239   9.218   2.665 -0.1241 -0.5972  0.3274
  673MOL0     C92792   4.176   9.289   2.762 -0.9013 -0.5018  0.0949
  673MOL0     C92793   4.039   9.320   2.757 -0.5157 -0.0545 -0.2101
  673MOL0     C92794   3.960   9.259   2.658 -0.0759  0.4894 -0.4437
  673MOL0     O92795   3.826   9.279   2.668 -0.0395  0.8221  0.2266
  673MOL0     C92796   3.754   9.157   2.696 -0.1321 -0.7055  0.3166
  673MOL0     C92797   3.630   9.148   2.606 -0.8009 -0.2337 -0.2972
  673MOL0     C92798   3.506   9.218   2.656  0.8194  0.3128  0.2069
  673MOL0     C92799   3.383   9.164   2.595 -1.0037  0.1585 -0.1980
  673MOL0     C92800   3.260   9.224   2.646  0.5430  0.8080  0.1045
  673MOL0     C92801   3.160   9.282   2.669 -0.4786 -0.6435  0.7950
  673MOL0     C92802   4.021   9.187   2.564  0.0015 -0.0221 -0.1654
  673MOL0     C92803   4.162   9.160   2.563  0.7053  0.3638 -0.9532
  673MOL0     C92804   4.211   9.058   2.465  0.2111 -0.2859  0.1022
  673MOL0     H92805   4.580   9.329   2.418  0.4165  1.0406 -0.3168
  673MOL0     H92806   4.816   9.376   2.399  2.3461 -0.3050 -0.2804
  673MOL0     H92807   5.085   9.080   2.473  0.9454  1.9324 -2.1929
  673MOL0     H92808   5.107   9.115   2.647  1.5435 -0.3852 -0.6452
  673MOL0     H92809   5.323   9.151   2.502  0.2818 -0.2571 -2.7786
  673MOL0     H92810   5.221   9.280   2.416  2.1033 -0.8997 -0.5062
  673MOL0     H92811   5.199   9.379   2.651 -0.8495 -1.8521  0.1863
  673MOL0     H92812   5.342   9.283   2.701  0.6383  0.5257  0.6345
  673MOL0     H92813   5.487   9.374   2.551 -0.4355 -1.2457 -0.2744
  673MOL0     H92814   5.349   9.472   2.476 -1.2656 -1.4134 -0.6035
  673MOL0     H92815   5.472   9.616   2.609 -0.0256  0.8356  1.1616
  673MOL0     H92816   5.472   9.505   2.752 -1.5329 -0.2178  1.0573
  673MOL0     H92817   5.219   9.622   2.618 -1.7224  1.7032  0.4830
  673MOL0     H92818   5.235   9.550   2.775  0.7602  1.5185  0.9277
  673MOL0     H92819   5.353   9.814   2.689  3.1361  0.4662  1.4075
  673MOL0     H92820   5.393   9.745   2.844 -2.6733  1.0091  3.1635
  673MOL0     H92821   5.100   9.805   2.774  0.1401 -1.8532  0.6050
  673MOL0     H92822   5.166   9.748   2.920 -1.1885 -2.9793 -1.6284
  673MOL0     H92823   5.164  10.052   2.685 -0.7512 -1.8976  0.1043
  673MOL0     H92824   5.246  10.369   2.923  0.6376 -0.1907 -0.7930
  673MOL0     H92825   5.090  10.354   2.842  0.2514  1.4706 -0.3353
  673MOL0     H92826   5.380  10.324   2.739 -0.6777 -1.0887  1.7196
  673MOL0     H92827   5.254  10.253   2.648  2.8882 -0.5084 -1.1354
  673MOL0     H92828   5.299  10.556   2.723 -1.6915  1.8048 -0.2520
  673MOL0     H92829   5.307  10.494   2.568  0.5464 -0.8798 -0.8075
  673MOL0     H92830   5.049  10.545   2.730 -2.0350  1.3136 -2.0488
  673MOL0     H92831   5.092  10.626   2.596  1.6180  0.5058  0.6022
  673MOL0     H92832   4.941  10.250   2.394 -0.9326  0.0301 -1.1407
  673MOL0     H92833   4.800  10.131   2.275  2.0516  1.7913 -3.3960
  673MOL0     H92834   4.695  10.253   2.190 -1.6173 -1.4800 -0.2788
  673MOL0     H92835   4.625  10.145   2.300 -1.0561  1.5367 -1.3524
  673MOL0     H92836   4.318  10.403   2.171  1.7291 -0.2657  1.6494
  673MOL0     H92837   4.062  10.419   2.140  0.4951  1.3774 -0.0010
  673MOL0     H92838   3.854  10.313   2.513 -1.2067 -1.7130 -2.7805
  673MOL0     H92839   3.903  10.475   2.472 -1.4386 -0.0844  2.9138
  673MOL0     H92840   3.666  10.489   2.531 -2.6077 -1.9323  0.2066
  673MOL0     H92841   3.696  10.531   2.364  0.7115  0.3953  1.6888
  673MOL0     H92842   3.595  10.279   2.323 -1.1069  0.5512 -0.1111
  673MOL0     H92843   3.492  10.396   2.405 -1.5599 -2.7777 -2.0384
  673MOL0     H92844   3.616  10.301   2.617  0.7135  0.1348 -0.8947
  673MOL0     H92845   3.653  10.169   2.521  0.1461  0.6196 -2.0224
  673MOL0     H92846   3.439  10.111   2.630 -0.3179 -0.0762 -1.2595
  673MOL0     H92847   3.380  10.271   2.605  2.8260  1.7795  0.3087
  673MOL0     H92848   3.427  10.076   2.372 -0.7231  0.2769 -1.2412
  673MOL0     H92849   3.332  10.217   2.372  2.9831  0.9441 -0.8249
  673MOL0     H92850   3.274   9.985   2.577  0.6110  0.7738  1.0773
  673MOL0     H92851   3.228   9.971   2.408  2.2579  0.5302 -1.1098
  673MOL0     H92852   3.084  10.177   2.435  0.7356  1.3133  0.2641
  673MOL0     H92853   3.130  10.191   2.599  2.4408  1.9767 -2.8846
  673MOL0     H92854   4.003  10.167   2.481 -2.0835  0.7516 -1.8676
  673MOL0     H92855   4.263  10.145   2.512 -0.8113  0.7209  1.6288
  673MOL0     H92856   4.617  10.549   2.601 -0.6130 -0.9265  1.3091
  673MOL0     H92857   4.819  10.578   2.650 -2.5330  0.8736 -0.3435
  673MOL0     H92858   4.884   9.063   2.681  2.9791  2.1620  0.0240
  673MOL0     H92859   4.632   9.011   2.678 -1.4597  0.2373 -0.7728
  673MOL0     H92860   4.225   9.331   2.850  0.1490 -0.9388 -0.2691
  673MOL0     H92861   3.979   9.378   2.827 -0.9723 -0.6796 -0.0815
  673MOL0     H92862   3.802   9.060   2.679 -1.2026 -1.1210 -0.4688
  673MOL0     H92863   3.731   9.149   2.802  0.4556 -2.0508  0.3653
  673MOL0     H92864   3.601   9.043   2.598 -0.6541 -0.4387  1.5093
  673MOL0     H92865   3.654   9.191   2.508  2.1831  0.2128  0.5510
  673MOL0     H92866   3.497   9.190   2.762 -3.0932 -1.2557 -0.3642
  673MOL0     H92867   3.520   9.325   2.642 -0.0017  0.1963 -1.9110
  673MOL0     H92868   3.388   9.057   2.616  1.5677  0.1630 -0.3889
  673MOL0     H92869   3.389   9.164   2.486  1.2727 -0.9366 -0.1303
  673MOL0     H92870   3.074   9.344   2.688 -0.2865 -0.1362  0.0642
  673MOL0     H92871   3.951   9.151   2.489  0.1954 -2.6365  0.8266
  673MOL0     H92872   4.128   8.993   2.436  0.3478 -0.2845 -0.2963
  673MOL0     H92873   4.255   9.108   2.378 -0.8164 -1.1288 -0.9333
  673MOL0     H92874   4.289   8.996   2.512 -1.2400 -0.8388  1.9101
  674MOL0     O92875   4.418   2.440   1.689 -0.5052 -0.6748 -0.7096
  674MOL0     C92876   4.297   2.450   1.670  0.1656  0.5771 -0.8258
  674MOL0     O92877   4.241   2.558   1.604  0.5499  0.7413 -0.8538
  674MOL0     C92878   4.333   2.653   1.569  0.4473  0.4882 -0.1552
  674MOL0     C92879   4.351   2.686   1.437 -0.2219  0.3238  0.2438
  674MOL0     C92880   4.426   2.803   1.408 -0.3755 -0.1352 -0.3916
  674MOL0     C92881   4.500   2.868   1.508 -0.0069  0.1704  0.1992
  674MOL0     O92882   4.582   2.982   1.484 -0.0713 -0.3153  0.0605
  674MOL0     C92883   4.654   2.985   1.363  0.3721  0.1577  0.4276
  674MOL0     C92884   4.732   3.113   1.330 -0.6587 -0.3094 -0.2672
  674MOL0     C92885   4.872   3.125   1.409 -0.4909  0.5803 -0.0220
  674MOL0     C92886   4.995   3.079   1.335 -0.0057  0.2791 -0.1374
  674MOL0     C92887   5.134   3.111   1.405 -0.3575 -0.1855  0.4866
  674MOL0     C92888   5.255   3.101   1.307  0.7540  0.2956  0.1277
  674MOL0     C92889   5.389   3.136   1.373  0.3052 -0.3172  0.6042
  674MOL0     C92890   5.506   3.128   1.275  0.4111  0.6413  0.5917
  674MOL0     N92891   5.634   3.151   1.344  0.5858  0.5275  0.0412
  674MOL0     C92892   5.740   3.059   1.353  0.8946 -0.2710  0.6356
  674MOL0     C92893   5.824   3.117   1.432  0.3412  0.5368  0.0798
  674MOL0     C92894   5.954   3.039   1.458  0.2733 -0.0837 -0.4787
  674MOL0     C92895   6.081   3.126   1.493 -0.7153  0.8648  0.1931
  674MOL0     C92896   6.208   3.042   1.482  0.1357  0.1170  0.2795
  674MOL0     C92897   6.244   2.947   1.600 -0.0356 -0.7057 -0.0998
  674MOL0     O92898   6.292   3.024   1.710  0.6434  0.0894  0.1202
  674MOL0     C92899   6.432   3.033   1.721 -0.2466  0.1849  0.2532
  674MOL0     C92900   6.492   3.071   1.845 -0.2337 -0.0735 -0.1012
  674MOL0     C92901   6.628   3.105   1.867  0.0859 -0.1838  0.6700
  674MOL0     C92902   6.666   3.152   2.004 -0.3019  0.4569  0.1197
  674MOL0     C92903   6.719   3.088   1.754 -1.0449  0.3346 -0.2243
  674MOL0     C92904   6.866   3.109   1.756  0.5301 -0.0239 -0.1174
  674MOL0     O92905   6.926   3.110   1.633  0.3864 -0.6113 -0.2644
  674MOL0     C92906   7.058   3.117   1.631 -0.2157 -0.1797  0.0466
  674MOL0     C92907   7.144   3.005   1.664 -0.0260 -0.2937 -0.5235
  674MOL0     C92908   7.278   3.035   1.681  0.7624  0.4249 -0.8664
  674MOL0     C92909   7.333   3.164   1.667  0.6686 -0.5210 -1.0252
  674MOL0     O92910   7.471   3.193   1.682  1.0043  0.6988 -0.0690
  674MOL0     C92911   7.553   3.075   1.654  0.5683 -0.3398 -0.6612
  674MOL0     C92912   7.704   3.105   1.669 -0.0417 -0.0697  0.2243
  674MOL0     C92913   7.788   2.979   1.691 -1.0146  0.4782  0.2165
  674MOL0     C92914   7.934   3.018   1.699  0.2798 -0.1445  0.0669
  674MOL0     C92915   8.015   2.898   1.738 -0.2295 -0.1577 -0.0971
  674MOL0     C92916   8.139   2.926   1.819 -0.3492 -0.6044  0.1665
  674MOL0     C92917   8.235   2.811   1.830  0.2917  0.0449 -0.8942
  674MOL0     C92918   8.309   2.779   1.700 -0.0537 -0.0878 -1.5780
  674MOL0    Cl92919   8.422   2.650   1.741  0.1442 -0.2621  0.0259
  674MOL0     C92920   7.244   3.271   1.635 -0.0994 -0.3053 -0.2000
  674MOL0     C92921   7.109   3.248   1.615  0.2939  0.1745 -0.4070
  674MOL0     O92922   6.923   3.124   1.861  0.4541  0.4026 -0.5185
  674MOL0     C92923   6.663   3.033   1.633 -0.7266  0.3588 -0.2247
  674MOL0     C92924   6.527   3.022   1.618  0.1877 -0.2312  0.3115
  674MOL0     N92925   5.786   3.245   1.457 -0.6969 -0.3956 -0.1129
  674MOL0     N92926   5.674   3.268   1.406  1.2678  0.6424 -0.2480
  674MOL0     C92927   4.484   2.834   1.641  0.4798  1.1599  0.4813
  674MOL0     C92928   4.388   2.732   1.674 -0.1351 -0.3457  0.5850
  674MOL0     C92929   4.216   2.341   1.726 -0.2200  0.4533  0.1015
  674MOL0     C92930   4.086   2.368   1.756 -0.5403  0.1261 -0.3267
  674MOL0     C92931   3.992   2.276   1.802 -0.2265  0.2230 -0.1472
  674MOL0     C92932   4.027   2.142   1.816  0.2394  1.1531 -0.4504
  674MOL0     O92933   3.937   2.053   1.872  0.5735  0.1042 -0.2435
  674MOL0     C92934   3.991   1.928   1.924  0.3132  0.0536 -0.6023
  674MOL0     C92935   3.891   1.838   2.002  0.2733  0.3253 -0.1054
  674MOL0     C92936   3.822   1.900   2.120 -0.8111  0.2445 -0.2412
  674MOL0     C92937   3.721   1.805   2.174  0.0658 -0.3746 -0.0689
  674MOL0     C92938   3.771   1.723   2.290  0.4961 -0.1693  0.2718
  674MOL0     C92939   3.816   1.645   2.373 -1.2739 -0.7493 -0.1764
  674MOL0     C92940   4.159   2.113   1.779  0.7330  0.0621 -0.1065
  674MOL0     C92941   4.257   2.207   1.741  0.2890  0.1528 -0.1047
  674MOL0     C92942   4.398   2.143   1.719 -0.0297  0.1788  0.9706
  674MOL0     H92943   4.298   2.634   1.358  1.1277 -0.3441 -0.2531
  674MOL0     H92944   4.440   2.840   1.307  1.3587  1.8804  0.4931
  674MOL0     H92945   4.581   2.965   1.284 -0.4213  2.2076  0.5682
  674MOL0     H92946   4.727   2.904   1.362  1.9764  1.4008  3.2764
  674MOL0     H92947   4.736   3.123   1.221 -4.5319  3.0924 -0.3405
  674MOL0     H92948   4.669   3.195   1.366  0.5869  0.6284 -0.1267
  674MOL0     H92949   4.898   3.229   1.430 -2.0328  0.9722  0.0475
  674MOL0     H92950   4.866   3.082   1.509  0.7747  0.3436 -0.0318
  674MOL0     H92951   4.979   2.975   1.308 -1.2588  0.8139 -1.6091
  674MOL0     H92952   4.999   3.135   1.241 -0.3838 -2.0242 -1.6057
  674MOL0     H92953   5.154   3.039   1.485  3.1055 -1.6992 -1.5196
  674MOL0     H92954   5.131   3.209   1.453 -1.3559  0.1061 -0.1422
  674MOL0     H92955   5.256   2.999   1.269 -0.1230  0.5181 -0.5351
  674MOL0     H92956   5.237   3.171   1.225 -2.7666  2.5982  2.5583
  674MOL0     H92957   5.406   3.079   1.465 -2.5134 -1.0939  0.7565
  674MOL0     H92958   5.392   3.241   1.402  2.1281 -0.4765  1.1309
  674MOL0     H92959   5.496   3.030   1.227 -1.6258 -0.4536  3.0758
  674MOL0     H92960   5.486   3.209   1.204 -0.2050 -0.8075 -0.9793
  674MOL0     H92961   5.758   2.960   1.312  4.4586  0.9955 -1.2491
  674MOL0     H92962   5.970   2.962   1.383 -0.4210 -2.7105  1.9089
  674MOL0     H92963   5.941   2.976   1.546 -1.2203  0.1019 -0.5467
  674MOL0     H92964   6.080   3.200   1.413 -1.5336 -0.7628 -1.3825
  674MOL0     H92965   6.079   3.170   1.593  0.3493  0.9994  0.1618
  674MOL0     H92966   6.205   2.979   1.393 -0.4059 -0.9690  1.0443
  674MOL0     H92967   6.288   3.116   1.470  0.4191  0.1321  2.0020
  674MOL0     H92968   6.150   2.900   1.628 -0.2949  1.2831  2.7362
  674MOL0     H92969   6.318   2.873   1.569  1.1276 -0.0388  0.9841
  674MOL0     H92970   6.426   3.088   1.929 -0.4615 -0.2358 -0.2439
  674MOL0     H92971   6.742   3.230   2.016  0.5054 -0.5698  2.2869
  674MOL0     H92972   6.709   3.069   2.061 -2.1780  1.4297  3.2718
  674MOL0     H92973   6.585   3.186   2.070 -0.5352 -1.3516  0.8240
  674MOL0     H92974   7.121   2.899   1.674 -1.3242  0.2209  4.7679
  674MOL0     H92975   7.334   2.944   1.702 -0.3839  0.4898  3.2655
  674MOL0     H92976   7.527   2.996   1.725 -1.2061 -0.7701 -1.7411
  674MOL0     H92977   7.533   3.042   1.551  1.3577 -1.3064 -0.5244
  674MOL0     H92978   7.728   3.160   1.577 -2.9322  1.0848  0.0269
  674MOL0     H92979   7.710   3.185   1.744  0.3689  1.8739 -1.7695
  674MOL0     H92980   7.779   2.909   1.607 -1.6086  0.0642  0.6177
  674MOL0     H92981   7.757   2.918   1.776 -0.6606 -3.6545 -2.2951
  674MOL0     H92982   7.943   3.087   1.783  3.8729 -1.5771  1.0657
  674MOL0     H92983   7.975   3.055   1.604 -1.1224  1.0486 -0.1029
  674MOL0     H92984   7.961   2.829   1.804  1.7455 -3.2345 -1.4575
  674MOL0     H92985   8.044   2.836   1.652 -0.6160 -0.8839  0.2836
  674MOL0     H92986   8.108   2.952   1.920  1.1028  1.1704  0.2053
  674MOL0     H92987   8.187   3.014   1.777 -1.0327 -0.4232 -0.2444
  674MOL0     H92988   8.181   2.723   1.869 -1.4450  2.7404  3.6373
  674MOL0     H92989   8.307   2.840   1.907 -2.2241 -0.5333  1.9149
  674MOL0     H92990   8.354   2.875   1.671  0.3675  0.6017  1.1048
  674MOL0     H92991   8.246   2.742   1.619 -0.4443 -3.2281  0.0289
  674MOL0     H92992   7.280   3.374   1.627 -0.7894 -0.0907 -0.6711
  674MOL0     H92993   7.036   3.329   1.619 -2.5881 -2.2769  0.7818
  674MOL0     H92994   6.726   3.001   1.551  0.7633  0.7625  0.7148
  674MOL0     H92995   6.497   2.997   1.517  0.0979 -1.4173  0.6131
  674MOL0     H92996   4.535   2.886   1.722 -1.9339  2.6260  1.1542
  674MOL0     H92997   4.357   2.713   1.776 -0.0016  1.5642  1.0123
  674MOL0     H92998   4.038   2.464   1.748 -0.1220  0.3745  0.0658
  674MOL0     H92999   3.889   2.300   1.828 -0.6333 -2.0855  0.5829
  674MOL0     H93000   4.011   1.868   1.836 -2.5453  0.7964 -1.8481
  674MOL0     H93001   4.084   1.947   1.980  0.7817  2.0887 -1.9659
  674MOL0     H93002   3.935   1.743   2.033 -3.3199 -2.2871 -2.2491
  674MOL0     H93003   3.816   1.811   1.927  0.2349 -0.3825  0.1852
  674MOL0     H93004   3.902   1.922   2.192 -0.9798 -0.0411  0.0396
  674MOL0     H93005   3.769   1.996   2.111 -0.8826  0.3672  1.2154
  674MOL0     H93006   3.694   1.734   2.095 -1.4162 -0.1991  0.2617
  674MOL0     H93007   3.634   1.853   2.218  1.0025  1.9034 -0.5595
  674MOL0     H93008   3.838   1.582   2.456 -1.4395 -0.1919  0.2976
  674MOL0     H93009   4.173   2.006   1.764 -2.0576 -0.8602  2.8342
  674MOL0     H93010   4.432   2.167   1.617  1.6219 -0.2381  1.3984
  674MOL0     H93011   4.464   2.184   1.795  1.9132 -1.6319  0.3617
  674MOL0     H93012   4.399   2.034   1.718  1.0102  0.0494 -3.3180
  675MOL0     O93013   8.720   5.867   7.542  0.2799 -0.2015 -0.0707
  675MOL0     C93014   8.662   5.774   7.486  0.1256 -0.4313 -0.1240
  675MOL0     O93015   8.721   5.684   7.401  0.3884  0.4555  0.7332
  675MOL0     C93016   8.854   5.689   7.382 -0.0632  0.2318  0.4252
  675MOL0     C93017   8.917   5.798   7.318 -0.7688 -0.2684  0.6647
  675MOL0     C93018   9.055   5.816   7.306 -0.2971  0.2455 -0.7808
  675MOL0     C93019   9.134   5.731   7.377  1.3156 -0.7394 -0.1342
  675MOL0     O93020   9.262   5.763   7.366 -0.4492  0.5784 -0.2248
  675MOL0     C93021   9.361   5.665   7.423 -0.5825  0.7634  0.2028
  675MOL0     C93022   9.494   5.678   7.355  0.2152 -0.4304 -0.0060
  675MOL0     C93023   9.565   5.541   7.372 -0.6560  0.2157  1.1613
  675MOL0     C93024   9.712   5.554   7.335  0.7088  0.0348  0.4437
  675MOL0     C93025   9.799   5.429   7.354  0.6188 -0.3793  0.1550
  675MOL0     C93026   9.768   5.328   7.246 -0.7757 -0.5244 -0.1486
  675MOL0     C93027   9.864   5.200   7.258  0.3910 -1.3247  0.0051
  675MOL0     C93028  10.003   5.234   7.206  0.1816  0.3531  0.2867
  675MOL0     N93029  10.092   5.117   7.233  0.3082 -0.5822 -0.1990
  675MOL0     C93030  10.188   5.118   7.333 -0.6011 -0.2590  0.4114
  675MOL0     C93031  10.277   5.018   7.301  0.1474  0.0443 -0.4701
  675MOL0     C93032  10.394   4.964   7.384 -0.2982 -0.1673  0.2618
  675MOL0     C93033  10.528   5.026   7.348  0.2536  0.3212 -0.9320
  675MOL0     C93034  10.642   4.966   7.428 -0.5435  0.9121 -0.1345
  675MOL0     C93035  10.769   5.035   7.395 -0.7749 -0.5804 -0.8951
  675MOL0     O93036  10.806   4.992   7.263 -0.6437  0.7994  0.5367
  675MOL0     C93037  10.924   5.037   7.200 -1.1217 -0.1683 -0.2584
  675MOL0     C93038  11.005   5.141   7.247  0.2653 -0.0928 -0.3818
  675MOL0     C93039  11.124   5.177   7.189 -0.4425 -0.2751 -0.3126
  675MOL0     C93040  11.199   5.298   7.252  0.1394  0.5494  0.3969
  675MOL0     C93041  11.169   5.113   7.071  0.5764 -0.8876 -0.4611
  675MOL0     C93042  11.292   5.137   6.994 -0.3348  0.7078  0.5507
  675MOL0     O93043  11.386   5.202   7.061  0.1747  0.5918 -0.8306
  675MOL0     C93044  11.504   5.251   7.009  0.4113  0.5100 -0.1664
  675MOL0     C93045  11.586   5.191   6.914  0.9374 -0.4266  0.1715
  675MOL0     C93046  11.706   5.250   6.872 -0.6876  0.1018  0.0718
  675MOL0     C93047  11.754   5.374   6.919 -0.2340  0.0509  0.1171
  675MOL0     O93048  11.879   5.421   6.876  0.6399  0.2195  0.0078
  675MOL0     C93049  11.892   5.556   6.874  0.1890  0.1825 -0.1040
  675MOL0     C93050  11.997   5.598   6.780 -0.2554  0.1148  1.3870
  675MOL0     C93051  12.144   5.553   6.825 -0.2541  1.2610  0.7429
  675MOL0     C93052  12.259   5.607   6.738 -0.2599 -0.7828  0.1599
  675MOL0     C93053  12.400   5.575   6.778  0.4003  0.2597  0.3150
  675MOL0     C93054  12.440   5.658   6.902 -0.6156 -0.0820  0.2981
  675MOL0     C93055  12.569   5.605   6.965  0.3611  0.3142  0.5377
  675MOL0     C93056  12.596   5.650   7.113  0.9771  0.1503 -0.7170
  675MOL0    Cl93057  12.647   5.808   7.112  0.5039  0.1508  0.3700
  675MOL0     C93058  11.664   5.435   7.008  0.0543  0.2701  0.0804
  675MOL0     C93059  11.538   5.376   7.055  0.3558  0.1018  0.4657
  675MOL0     O93060  11.292   5.123   6.870  0.3720  0.2326 -0.5360
  675MOL0     C93061  11.082   5.016   7.021 -0.4748 -0.6550  0.2855
  675MOL0     C93062  10.965   4.983   7.080  0.0267 -0.3485 -0.7510
  675MOL0     N93063  10.235   4.967   7.177 -0.6234 -0.3544  0.1976
  675MOL0     N93064  10.126   5.028   7.143 -0.7230  0.2922 -0.7646
  675MOL0     C93065   9.071   5.617   7.444  0.0359 -0.1796  0.5714
  675MOL0     C93066   8.932   5.596   7.451  0.7064  0.7491 -0.1794
  675MOL0     C93067   8.518   5.758   7.516 -0.2928 -0.7960  0.4168
  675MOL0     C93068   8.440   5.873   7.531  0.0567 -0.2480  0.2004
  675MOL0     C93069   8.300   5.865   7.549  0.7794 -0.4361  0.1445
  675MOL0     C93070   8.242   5.733   7.541 -0.3814 -1.0773 -0.2482
  675MOL0     O93071   8.108   5.715   7.542  0.5291  0.7410 -0.1568
  675MOL0     C93072   8.026   5.839   7.532  0.1288  0.1793 -0.0304
  675MOL0     C93073   7.872   5.804   7.549 -0.6612  0.4544 -0.0970
  675MOL0     C93074   7.781   5.918   7.515 -0.9040  1.2196  0.3245
  675MOL0     C93075   7.635   5.883   7.466  0.9017 -0.3693  0.1618
  675MOL0     C93076   7.548   5.826   7.570 -0.0718  0.4547  0.9584
  675MOL0     C93077   7.475   5.757   7.631 -0.1386  0.3116 -0.5818
  675MOL0     C93078   8.319   5.623   7.530 -0.0024 -0.3373  0.2797
  675MOL0     C93079   8.452   5.631   7.510 -0.6954  0.9434  0.6273
  675MOL0     C93080   8.524   5.498   7.513  0.6330  0.4810 -0.0353
  675MOL0     H93081   8.870   5.878   7.263 -3.1302 -2.0403 -0.0839
  675MOL0     H93082   9.107   5.895   7.254 -2.1904  0.4294 -2.5274
  675MOL0     H93083   9.319   5.570   7.389 -1.1909  1.8302 -2.1896
  675MOL0     H93084   9.361   5.673   7.532 -0.2625 -1.7012  0.4433
  675MOL0     H93085   9.487   5.696   7.247  1.7311 -4.8552 -1.0812
  675MOL0     H93086   9.547   5.758   7.408 -0.8822 -0.0800  0.5896
  675MOL0     H93087   9.563   5.514   7.478 -1.3799 -0.8883  0.8900
  675MOL0     H93088   9.509   5.460   7.324  0.8938  0.3044 -0.9361
  675MOL0     H93089   9.723   5.597   7.235 -5.0546 -2.2246 -1.5104
  675MOL0     H93090   9.750   5.630   7.405  0.5796 -0.3731  0.9566
  675MOL0     H93091   9.782   5.391   7.455  2.0191  2.1340  1.4417
  675MOL0     H93092   9.904   5.459   7.348  0.2085  1.8084  2.0894
  675MOL0     H93093   9.663   5.296   7.247 -0.8131 -0.5150 -1.4581
  675MOL0     H93094   9.779   5.382   7.152 -1.2171  0.7790  0.5230
  675MOL0     H93095   9.825   5.111   7.207 -0.6519 -1.7488  1.4652
  675MOL0     H93096   9.875   5.174   7.364 -2.9986  1.6669  1.3041
  675MOL0     H93097   9.999   5.248   7.097  2.3551  0.9890  0.2504
  675MOL0     H93098  10.044   5.323   7.254  1.3032 -1.5942  3.1925
  675MOL0     H93099  10.186   5.189   7.415  0.3638  1.6986 -1.1578
  675MOL0     H93100  10.387   4.855   7.378 -1.0651 -0.0398 -2.2511
  675MOL0     H93101  10.370   4.997   7.486 -3.1098 -0.0249 -0.3616
  675MOL0     H93102  10.544   5.013   7.240  0.6719  0.1281 -0.8468
  675MOL0     H93103  10.527   5.132   7.375 -0.7570  0.0722  0.1100
  675MOL0     H93104  10.628   4.979   7.535  0.3774  1.5571 -0.0810
  675MOL0     H93105  10.656   4.860   7.405 -1.0048  0.3625  1.9284
  675MOL0     H93106  10.749   5.142   7.409  0.1798 -0.1133 -2.7310
  675MOL0     H93107  10.853   5.007   7.459  0.7697  2.3101 -1.4918
  675MOL0     H93108  10.973   5.182   7.342 -0.6788 -0.1779 -0.6559
  675MOL0     H93109  11.295   5.268   7.294 -1.2098 -1.6024  2.1462
  675MOL0     H93110  11.134   5.341   7.329 -0.7756  0.4098 -0.2782
  675MOL0     H93111  11.209   5.386   7.187  1.1269  1.5566  1.8333
  675MOL0     H93112  11.555   5.095   6.873  1.8761 -0.8522  0.4145
  675MOL0     H93113  11.766   5.177   6.817 -1.8357  0.4129 -1.6694
  675MOL0     H93114  11.796   5.588   6.834 -0.0266 -0.7837 -0.3914
  675MOL0     H93115  11.908   5.594   6.976  0.7359 -1.7378  0.5753
  675MOL0     H93116  11.969   5.555   6.683 -0.7837  4.3019 -0.5362
  675MOL0     H93117  11.992   5.706   6.762  1.6295  0.1211  0.7334
  675MOL0     H93118  12.145   5.446   6.800  1.6584  0.9173  2.0178
  675MOL0     H93119  12.163   5.566   6.932  1.3653 -2.0007  0.9922
  675MOL0     H93120  12.244   5.715   6.732  1.1043 -0.0873  5.0083
  675MOL0     H93121  12.257   5.566   6.636 -1.3885  1.9568 -1.0397
  675MOL0     H93122  12.403   5.467   6.796 -2.2397 -0.3773 -2.1876
  675MOL0     H93123  12.459   5.589   6.686  3.1763 -1.7781  1.6369
  675MOL0     H93124  12.366   5.656   6.982  0.3026  2.2763  1.3199
  675MOL0     H93125  12.444   5.762   6.868  0.4389 -1.4254 -4.4456
  675MOL0     H93126  12.659   5.629   6.907 -1.1575 -2.4071 -3.3980
  675MOL0     H93127  12.563   5.495   6.965 -1.2327  0.3523 -0.8564
  675MOL0     H93128  12.667   5.576   7.153  0.5628 -0.6379 -1.4266
  675MOL0     H93129  12.504   5.645   7.172  0.5151 -0.5217 -1.4714
  675MOL0     H93130  11.689   5.533   7.048  0.9409  0.2936 -0.5236
  675MOL0     H93131  11.473   5.431   7.123  0.6546  1.3805 -0.2521
  675MOL0     H93132  11.107   4.954   6.935  1.0403 -0.7088  0.7262
  675MOL0     H93133  10.912   4.898   7.037  1.5793 -0.4107 -2.6520
  675MOL0     H93134   9.138   5.550   7.496 -0.0534 -0.5162  0.2588
  675MOL0     H93135   8.884   5.517   7.508  4.9375 -2.8112 -0.9938
  675MOL0     H93136   8.481   5.973   7.544  1.0830 -0.5009 -0.9226
  675MOL0     H93137   8.248   5.960   7.555 -0.6874 -1.1473 -0.7440
  675MOL0     H93138   8.051   5.915   7.608  1.1841  0.3106 -0.4900
  675MOL0     H93139   8.030   5.873   7.428 -0.1179  1.1241  0.2519
  675MOL0     H93140   7.853   5.777   7.653  0.7837  0.6245  0.2227
  675MOL0     H93141   7.866   5.719   7.480 -2.3344 -0.9475  1.6577
  675MOL0     H93142   7.765   5.981   7.602 -1.2992  0.4862  0.7926
  675MOL0     H93143   7.838   5.972   7.439 -2.1612  3.2924  0.7865
  675MOL0     H93144   7.621   5.806   7.390 -2.4132 -0.0981  0.3323
  675MOL0     H93145   7.588   5.978   7.440 -1.9139 -1.2404  1.5854
  675MOL0     H93146   7.399   5.699   7.679  1.8816 -0.4540  1.9315
  675MOL0     H93147   8.267   5.528   7.537  0.2435 -0.4825  0.1367
  675MOL0     H93148   8.544   5.471   7.409 -1.2396 -2.8561  0.3459
  675MOL0     H93149   8.618   5.504   7.569  0.9921 -1.9787 -0.2595
  675MOL0     H93150   8.472   5.408   7.546 -0.0735  0.1483 -1.9222
  676MOL0     O93151   1.100   5.616   0.042 -0.5583 -0.7060 -0.1553
  676MOL0     C93152   0.998   5.619   0.111 -0.2451 -0.0420  0.0502
  676MOL0     O93153   1.002   5.628   0.245  0.3064 -0.3211 -0.3718
  676MOL0     C93154   1.120   5.628   0.314  0.1772 -0.3228  0.2754
  676MOL0     C93155   1.194   5.512   0.322  0.2648 -0.3605 -0.0523
  676MOL0     C93156   1.319   5.511   0.395  0.1762 -1.0968 -0.1559
  676MOL0     C93157   1.359   5.624   0.469 -0.4922  0.0636 -0.2732
  676MOL0     O93158   1.483   5.633   0.536 -0.1498 -0.1304  0.2547
  676MOL0     C93159   1.578   5.519   0.537  0.7444 -0.1109 -0.2493
  676MOL0     C93160   1.663   5.524   0.412  0.4786  0.1869  0.4814
  676MOL0     C93161   1.780   5.629   0.418  0.5639  0.1381 -0.5262
  676MOL0     C93162   1.915   5.583   0.478 -0.7007  0.5336 -0.1527
  676MOL0     C93163   2.025   5.687   0.461 -0.3631  0.8841  0.9834
  676MOL0     C93164   2.167   5.640   0.498  0.0755  0.9651  0.2333
  676MOL0     C93165   2.270   5.758   0.477 -0.0246 -0.3954 -0.2100
  676MOL0     C93166   2.409   5.716   0.435  0.6903  0.1818 -0.3099
  676MOL0     N93167   2.506   5.810   0.489 -0.1512  1.0018  1.0707
  676MOL0     C93168   2.567   5.804   0.612 -0.8006  0.4734  0.8942
  676MOL0     C93169   2.641   5.913   0.611 -0.2091  0.3662 -0.2005
  676MOL0     C93170   2.723   5.951   0.728  0.4723 -0.3810  0.1260
  676MOL0     C93171   2.862   5.894   0.719  0.1365  0.2307  0.3596
  676MOL0     C93172   2.949   5.988   0.814  0.3758  0.5036  0.9310
  676MOL0     C93173   2.978   6.130   0.757  0.9904  0.3637  0.0726
  676MOL0     O93174   3.040   6.113   0.624  0.0211  0.2097 -0.1289
  676MOL0     C93175   3.171   6.073   0.620  0.1187 -0.2971  0.3178
  676MOL0     C93176   3.232   6.069   0.496 -0.0669 -0.2753  0.3571
  676MOL0     C93177   3.376   6.070   0.484  0.5877 -0.4195 -0.0380
  676MOL0     C93178   3.425   6.069   0.346 -0.0264  0.0023 -0.1017
  676MOL0     C93179   3.462   6.081   0.592  0.5731 -0.3357  0.1495
  676MOL0     C93180   3.607   6.098   0.582  0.2824 -0.1066 -0.0898
  676MOL0     O93181   3.675   6.048   0.689  0.2043  0.1783  0.4331
  676MOL0     C93182   3.802   6.007   0.661  0.2294 -0.7395 -0.2927
  676MOL0     C93183   3.829   5.902   0.572  0.9433 -0.0944 -1.6226
  676MOL0     C93184   3.955   5.853   0.565  0.4105 -0.1031  0.1171
  676MOL0     C93185   4.062   5.924   0.618  0.1353  0.7342 -0.4264
  676MOL0     O93186   4.197   5.891   0.607 -0.1427 -0.7761  0.0346
  676MOL0     C93187   4.232   5.763   0.572 -0.0527  0.1251 -1.2319
  676MOL0     C93188   4.374   5.747   0.630 -0.1854 -0.1315 -0.4060
  676MOL0     C93189   4.440   5.612   0.615  0.0675  0.0197  0.0845
  676MOL0     C93190   4.360   5.499   0.679 -0.4983  0.1688 -0.0775
  676MOL0     C93191   4.450   5.374   0.666  0.8184  0.1861  0.2496
  676MOL0     C93192   4.370   5.251   0.700 -0.3213  0.3478  1.3759
  676MOL0     C93193   4.433   5.120   0.667 -0.0002  0.2271 -0.0328
  676MOL0     C93194   4.459   5.037   0.789  0.3733 -0.2237 -0.0035
  676MOL0    Cl93195   4.583   5.120   0.891  0.2479  0.2364 -0.2770
  676MOL0     C93196   4.042   6.034   0.697 -0.6603  0.3972 -0.1139
  676MOL0     C93197   3.911   6.075   0.718  0.3689  0.9822 -0.1886
  676MOL0     O93198   3.660   6.149   0.483  0.5451 -0.2304 -0.0580
  676MOL0     C93199   3.397   6.069   0.717  0.2805 -0.0376 -0.6899
  676MOL0     C93200   3.254   6.062   0.732 -0.0885  0.0949 -0.3305
  676MOL0     N93201   2.614   5.987   0.493 -0.6592  0.6149 -0.1996
  676MOL0     N93202   2.530   5.925   0.421  0.4745 -0.3763 -0.8107
  676MOL0     C93203   1.274   5.736   0.475 -0.2782 -0.7811  0.1973
  676MOL0     C93204   1.160   5.741   0.395  0.8351  0.5490  0.4203
  676MOL0     C93205   0.868   5.609   0.048  0.0188 -0.0119  0.5266
  676MOL0     C93206   0.866   5.610  -0.100  0.9961 -0.5285 -0.3910
  676MOL0     C93207   0.748   5.587  -0.171 -0.6423 -0.2446  0.2630
  676MOL0     C93208   0.635   5.566  -0.100  0.6851 -0.5560 -0.3538
  676MOL0     O93209   0.524   5.554  -0.176 -0.3690  0.1550 -0.2284
  676MOL0     C93210   0.416   5.477  -0.128  0.2460 -0.1498  0.2630
  676MOL0     C93211   0.443   5.331  -0.112  0.0479 -0.1210 -0.6436
  676MOL0     C93212   0.497   5.273  -0.242 -0.2162  0.2224  0.6468
  676MOL0     C93213   0.455   5.124  -0.244 -1.1626  0.5892  1.6266
  676MOL0     C93214   0.540   5.031  -0.169  0.1010  0.7093  0.2808
  676MOL0     C93215   0.622   4.962  -0.109 -0.3776  0.0113  0.6481
  676MOL0     C93216   0.629   5.571   0.035 -0.1026  0.9549 -1.3501
  676MOL0     C93217   0.741   5.598   0.112 -1.0215 -0.5519  0.4930
  676MOL0     C93218   0.712   5.583   0.259  0.3318 -0.2540 -0.7722
  676MOL0     H93219   1.169   5.430   0.256 -0.0261  1.7363 -2.7540
  676MOL0     H93220   1.389   5.430   0.379  2.8571  1.2370 -1.1748
  676MOL0     H93221   1.517   5.429   0.547  0.6338 -0.0209 -0.1171
  676MOL0     H93222   1.631   5.527   0.633 -1.4034 -1.5088  1.1124
  676MOL0     H93223   1.708   5.425   0.400 -1.0515 -0.3613 -1.4331
  676MOL0     H93224   1.592   5.545   0.331 -0.3375  0.4414  1.2443
  676MOL0     H93225   1.801   5.666   0.318 -0.9028  0.7891 -0.6167
  676MOL0     H93226   1.733   5.706   0.480 -0.0621  1.5517 -2.6819
  676MOL0     H93227   1.900   5.558   0.583  1.6402  1.8463  0.5693
  676MOL0     H93228   1.950   5.488   0.436  1.1939  0.0440  2.3003
  676MOL0     H93229   2.005   5.770   0.530  0.4684  2.0864 -0.1717
  676MOL0     H93230   2.022   5.731   0.361  0.8840  1.5490  1.2170
  676MOL0     H93231   2.168   5.585   0.593 -1.3755  0.3689 -0.0751
  676MOL0     H93232   2.194   5.567   0.421 -2.0687  0.9703 -0.5771
  676MOL0     H93233   2.268   5.812   0.572  1.6644 -2.1591  0.9076
  676MOL0     H93234   2.228   5.822   0.399  0.3103 -1.2937 -1.1325
  676MOL0     H93235   2.422   5.610   0.460  0.3223  0.2747  0.3086
  676MOL0     H93236   2.415   5.712   0.326 -1.3949 -1.2056 -0.4392
  676MOL0     H93237   2.573   5.723   0.685  1.3004 -0.1426  0.1256
  676MOL0     H93238   2.677   5.915   0.820  0.0602  2.7756  1.2522
  676MOL0     H93239   2.725   6.060   0.719  2.5686 -0.4399 -0.6113
  676MOL0     H93240   2.860   5.789   0.751 -1.4349  1.1998  3.8639
  676MOL0     H93241   2.904   5.898   0.618 -0.3043  3.8986  0.1930
  676MOL0     H93242   2.898   6.008   0.908 -1.3203 -0.1135  0.1763
  676MOL0     H93243   3.040   5.932   0.837  1.1670  1.7476  0.9040
  676MOL0     H93244   2.889   6.193   0.749  1.9092  1.5264 -1.7072
  676MOL0     H93245   3.043   6.182   0.829  2.6354  0.0722 -1.1619
  676MOL0     H93246   3.170   6.083   0.408  0.3578  3.7432  0.4878
  676MOL0     H93247   3.348   6.052   0.270  0.6323 -0.8630 -0.5914
  676MOL0     H93248   3.503   5.994   0.333 -2.1704 -2.5156  0.6137
  676MOL0     H93249   3.477   6.160   0.316  1.2120 -0.1944  1.2796
  676MOL0     H93250   3.743   5.850   0.532  1.6972 -2.8428  0.0784
  676MOL0     H93251   3.974   5.766   0.503 -1.5750  0.5249 -1.4995
  676MOL0     H93252   4.174   5.686   0.623 -0.6823 -0.0278 -2.1440
  676MOL0     H93253   4.228   5.738   0.466  0.2109 -0.1057 -1.1878
  676MOL0     H93254   4.428   5.822   0.572 -0.4338  0.0470 -0.4114
  676MOL0     H93255   4.374   5.779   0.735 -1.8649  1.8693 -0.9404
  676MOL0     H93256   4.535   5.623   0.669  1.0230  1.0414 -1.7247
  676MOL0     H93257   4.459   5.594   0.509 -0.0568  1.2663 -0.1695
  676MOL0     H93258   4.266   5.486   0.626 -1.3157  2.8950  0.5691
  676MOL0     H93259   4.350   5.507   0.788 -0.9037  0.2935 -0.1251
  676MOL0     H93260   4.488   5.365   0.564  1.7298  0.6137  0.5455
  676MOL0     H93261   4.532   5.379   0.738  0.9756 -0.4892  0.1254
  676MOL0     H93262   4.268   5.262   0.660  0.2268 -2.3740 -1.1926
  676MOL0     H93263   4.357   5.246   0.808 -1.7581  0.3378  1.2231
  676MOL0     H93264   4.527   5.137   0.612  0.7343  0.1991  1.1842
  676MOL0     H93265   4.376   5.060   0.595 -0.6041  1.1479 -0.3302
  676MOL0     H93266   4.493   4.940   0.751 -0.6833 -0.1465 -1.2098
  676MOL0     H93267   4.367   5.036   0.848  0.0821  0.3207 -0.4356
  676MOL0     H93268   4.121   6.088   0.748 -0.5128  1.6884 -1.6342
  676MOL0     H93269   3.890   6.165   0.775  0.4908  0.5033  0.6306
  676MOL0     H93270   3.452   6.071   0.810 -0.4133 -2.2200 -0.1624
  676MOL0     H93271   3.219   6.050   0.834  2.5983  0.9190  0.7941
  676MOL0     H93272   1.304   5.831   0.518  0.6010 -1.2103  0.5661
  676MOL0     H93273   1.089   5.823   0.400 -2.6110 -2.2799  2.6012
  676MOL0     H93274   0.957   5.618  -0.158  1.4504 -0.5053  0.3065
  676MOL0     H93275   0.750   5.579  -0.279  0.0202 -2.3245  0.3869
  676MOL0     H93276   0.383   5.525  -0.035  3.6077 -0.5667  1.8422
  676MOL0     H93277   0.338   5.480  -0.204 -0.9419 -1.2031  1.4026
  676MOL0     H93278   0.347   5.290  -0.080  0.6694 -1.5053 -0.4625
  676MOL0     H93279   0.510   5.310  -0.028  0.6358  1.4170 -0.7073
  676MOL0     H93280   0.450   5.325  -0.326  0.4886  3.5979  2.1848
  676MOL0     H93281   0.605   5.284  -0.254 -0.1735  0.0751  0.8954
  676MOL0     H93282   0.461   5.093  -0.349  0.5094  1.9984  1.2632
  676MOL0     H93283   0.349   5.112  -0.219 -2.2820  2.1460 -1.7907
  676MOL0     H93284   0.679   4.888  -0.058 -1.3521 -0.9096  0.4348
  676MOL0     H93285   0.543   5.547   0.096  1.1107 -0.4035 -0.0766
  676MOL0     H93286   0.721   5.477   0.284  1.2389 -0.2947 -1.1949
  676MOL0     H93287   0.795   5.629   0.314  0.3174 -2.0548  0.8577
  676MOL0     H93288   0.612   5.619   0.282  0.9949  2.6371 -1.9759
  677MOL0     O93289   8.040   5.146   1.895 -0.0451  0.1599  0.3007
  677MOL0     C93290   8.078   5.215   1.801  0.0653 -0.4768  0.4877
  677MOL0     O93291   8.207   5.218   1.751 -0.1780 -0.0980 -0.5810
  677MOL0     C93292   8.300   5.148   1.814  0.0496  0.8393 -0.3712
  677MOL0     C93293   8.343   5.034   1.754 -0.4389  0.1253 -0.3758
  677MOL0     C93294   8.450   4.967   1.808  0.3988  0.1045  0.4527
  677MOL0     C93295   8.509   5.012   1.924 -0.7352 -0.1273 -0.2897
  677MOL0     O93296   8.606   4.944   1.983  0.2893  0.4308  0.2035
  677MOL0     C93297   8.723   5.006   2.032 -0.7123 -1.7180  0.5166
  677MOL0     C93298   8.830   4.898   2.033  1.3733 -0.1699  0.1992
  677MOL0     C93299   8.959   4.958   2.081  0.1120 -0.3955  0.1635
  677MOL0     C93300   9.078   4.856   2.077 -0.0892  0.4538 -0.3343
  677MOL0     C93301   9.212   4.923   2.098  0.1729  0.8893 -0.1922
  677MOL0     C93302   9.315   4.816   2.114  0.4517  0.6010 -0.6861
  677MOL0     C93303   9.453   4.867   2.160  0.0753  0.4552  0.1926
  677MOL0     C93304   9.557   4.754   2.189  0.9512  0.0942  0.3501
  677MOL0     N93305   9.685   4.811   2.231  0.7464 -0.3427 -0.1437
  677MOL0     C93306   9.809   4.790   2.175 -0.1039  0.3685 -0.3881
  677MOL0     C93307   9.898   4.852   2.257 -0.5114  0.0666  0.3508
  677MOL0     C93308  10.046   4.834   2.245  0.0010  1.0956 -0.1194
  677MOL0     C93309  10.119   4.883   2.369  0.1770  0.3975  0.8158
  677MOL0     C93310  10.271   4.858   2.360 -0.3777  0.4781  0.2204
  677MOL0     C93311  10.344   4.978   2.289  0.3806 -0.8140  0.3962
  677MOL0     O93312  10.485   4.949   2.291 -0.2024  0.0783  0.0464
  677MOL0     C93313  10.566   5.049   2.251 -0.0175  0.4867  0.3807
  677MOL0     C93314  10.706   5.023   2.271  0.0521  0.5540  0.3467
  677MOL0     C93315  10.803   5.116   2.232 -0.0452 -0.2778  0.1272
  677MOL0     C93316  10.941   5.090   2.293 -0.3522 -0.2592 -0.3445
  677MOL0     C93317  10.770   5.231   2.159  0.2193  0.0634  0.0624
  677MOL0     C93318  10.883   5.321   2.118  0.2694 -1.1667  0.4124
  677MOL0     O93319  10.847   5.453   2.088 -0.6674  0.0523 -0.0730
  677MOL0     C93320  10.955   5.534   2.052 -0.3835  0.5876 -0.5623
  677MOL0     C93321  11.004   5.518   1.922 -0.0008 -0.5195 -0.3059
  677MOL0     C93322  11.107   5.597   1.880 -0.2425  1.0091  0.3317
  677MOL0     C93323  11.175   5.682   1.968 -0.1644  0.1085  0.2307
  677MOL0     O93324  11.284   5.754   1.921 -0.2114  0.0553  0.1848
  677MOL0     C93325  11.302   5.771   1.780 -0.1391 -1.1277 -0.0964
  677MOL0     C93326  11.406   5.872   1.743 -0.1642 -0.6504  1.0883
  677MOL0     C93327  11.553   5.848   1.800 -0.0910  0.2631  0.6795
  677MOL0     C93328  11.648   5.963   1.765 -0.1164  0.5381 -0.0494
  677MOL0     C93329  11.779   5.944   1.856  0.0198 -0.0189 -0.4945
  677MOL0     C93330  11.891   6.043   1.825 -0.1363 -0.6452  0.2861
  677MOL0     C93331  11.997   6.045   1.940 -0.3476  0.0818  0.1479
  677MOL0     C93332  12.092   6.157   1.936  0.6354  0.0159  0.0764
  677MOL0    Cl93333  12.165   6.192   1.772  0.0351 -0.1029 -0.3350
  677MOL0     C93334  11.132   5.695   2.104 -0.1820  0.7035 -0.4268
  677MOL0     C93335  11.012   5.628   2.138 -0.1399 -0.0603 -0.1230
  677MOL0     O93336  10.995   5.281   2.103  0.2399 -0.2190  0.4775
  677MOL0     C93337  10.635   5.248   2.122  0.6491  0.7455  0.1905
  677MOL0     C93338  10.538   5.165   2.183  0.0056  0.5151  0.5936
  677MOL0     N93339   9.826   4.934   2.341 -0.1677  0.7068 -0.2473
  677MOL0     N93340   9.698   4.905   2.326  0.4365 -1.1862  0.6926
  677MOL0     C93341   8.453   5.116   1.991 -0.6044  0.3635  0.3771
  677MOL0     C93342   8.346   5.183   1.939  0.2609  0.0400 -0.6292
  677MOL0     C93343   7.981   5.304   1.740  0.9600  0.1435  0.9298
  677MOL0     C93344   8.024   5.375   1.624  0.1576 -0.4116 -0.7301
  677MOL0     C93345   7.931   5.438   1.537 -0.4635  0.1609  0.5244
  677MOL0     C93346   7.797   5.447   1.579 -0.3947 -0.2413  0.0752
  677MOL0     O93347   7.692   5.487   1.504  0.5603  0.1453 -0.8187
  677MOL0     C93348   7.670   5.627   1.474 -0.3361  0.9401  0.5358
  677MOL0     C93349   7.550   5.646   1.379  0.6795  0.4634  0.2467
  677MOL0     C93350   7.448   5.527   1.382 -0.4116 -1.2630  0.2144
  677MOL0     C93351   7.381   5.505   1.520 -0.1100 -0.1080 -1.0999
  677MOL0     C93352   7.338   5.633   1.589 -1.0673  0.7855  0.1087
  677MOL0     C93353   7.299   5.742   1.622  0.0908 -0.4354  0.7716
  677MOL0     C93354   7.753   5.390   1.697 -0.3548 -0.4155 -0.7080
  677MOL0     C93355   7.841   5.312   1.776 -0.9313 -0.9277 -0.0461
  677MOL0     C93356   7.788   5.263   1.911  0.2813 -0.2786  0.5504
  677MOL0     H93357   8.298   4.991   1.666  0.0509 -1.9742  0.3520
  677MOL0     H93358   8.475   4.878   1.751 -0.0576  1.1310 -1.4374
  677MOL0     H93359   8.719   5.053   2.130  2.1180 -0.8225  0.3093
  677MOL0     H93360   8.765   5.082   1.966 -1.2692 -1.0340  0.9365
  677MOL0     H93361   8.795   4.822   2.103  0.9423 -0.3285 -0.1843
  677MOL0     H93362   8.841   4.849   1.935  1.9808 -1.0028  0.6721
  677MOL0     H93363   8.991   5.047   2.025  2.0099 -0.6646  0.7484
  677MOL0     H93364   8.955   4.983   2.188  1.2518 -0.1891  0.1714
  677MOL0     H93365   9.059   4.773   2.145 -2.5407 -0.0861 -1.5665
  677MOL0     H93366   9.077   4.816   1.975 -3.2355  1.1817 -0.6853
  677MOL0     H93367   9.217   4.982   2.190  0.6754  0.6942 -0.0906
  677MOL0     H93368   9.229   5.004   2.027 -0.5085 -0.2005 -1.6448
  677MOL0     H93369   9.276   4.747   2.189  2.2353 -0.6189 -0.8214
  677MOL0     H93370   9.324   4.750   2.027  1.4313 -2.2514  1.4245
  677MOL0     H93371   9.436   4.926   2.250 -3.3775 -0.9649  0.6609
  677MOL0     H93372   9.493   4.940   2.088  2.1960 -0.2841  0.5504
  677MOL0     H93373   9.512   4.687   2.262  0.3668 -1.1019 -1.0506
  677MOL0     H93374   9.563   4.697   2.096 -0.0199  0.9979 -0.2923
  677MOL0     H93375   9.838   4.715   2.103 -2.1008 -1.4338  0.5899
  677MOL0     H93376  10.086   4.889   2.159 -1.7139  0.4596 -1.3595
  677MOL0     H93377  10.065   4.727   2.230  0.1439  1.2876 -1.4121
  677MOL0     H93378  10.103   4.991   2.365  0.3442  0.3932 -2.0109
  677MOL0     H93379  10.071   4.839   2.458 -0.4758 -2.9168 -1.0088
  677MOL0     H93380  10.303   4.842   2.463  0.5331  0.3024 -0.0807
  677MOL0     H93381  10.300   4.777   2.293  0.9796  1.9481 -1.0613
  677MOL0     H93382  10.307   5.003   2.190  1.8824  0.3783  0.1051
  677MOL0     H93383  10.326   5.065   2.353 -0.8873  0.1731 -1.2178
  677MOL0     H93384  10.728   4.936   2.332  0.7755  0.3613 -0.1758
  677MOL0     H93385  11.006   5.049   2.215 -0.0801 -1.0828  0.3017
  677MOL0     H93386  10.939   5.013   2.371 -0.7637 -0.7470 -0.8285
  677MOL0     H93387  10.980   5.185   2.330 -0.3855 -0.9818  1.6816
  677MOL0     H93388  10.968   5.440   1.855  0.2810 -1.5274  0.6896
  677MOL0     H93389  11.146   5.569   1.783  1.9197 -0.9820  1.6423
  677MOL0     H93390  11.330   5.675   1.737  1.0792 -0.4907 -0.7818
  677MOL0     H93391  11.210   5.801   1.730  0.7056 -0.1524 -1.1315
  677MOL0     H93392  11.407   5.885   1.634  1.4608  0.5224  1.2051
  677MOL0     H93393  11.376   5.973   1.773 -0.4623 -0.1801 -0.6802
  677MOL0     H93394  11.599   5.764   1.746 -1.4584 -0.0297 -0.0876
  677MOL0     H93395  11.547   5.833   1.908 -1.1882 -1.2035  0.4522
  677MOL0     H93396  11.603   6.061   1.781  0.2045  0.8465 -1.0119
  677MOL0     H93397  11.680   5.956   1.661  2.3958 -1.2560  0.7372
  677MOL0     H93398  11.749   5.964   1.959  0.3756  1.2360 -0.6207
  677MOL0     H93399  11.817   5.842   1.841  2.9244  1.2401 -2.7411
  677MOL0     H93400  11.847   6.143   1.820  0.3994 -0.2975  1.9038
  677MOL0     H93401  11.940   6.010   1.733  1.8478 -0.6876  1.2962
  677MOL0     H93402  12.052   5.951   1.930 -1.0513 -0.4568  1.0664
  677MOL0     H93403  11.950   6.038   2.039  2.2569 -1.8901  1.3642
  677MOL0     H93404  12.172   6.139   2.009  2.7637  0.1813 -2.1011
  677MOL0     H93405  12.047   6.242   1.989 -4.1107 -4.1594  3.6982
  677MOL0     H93406  11.195   5.753   2.171  0.1311 -0.7164  0.5583
  677MOL0     H93407  10.968   5.652   2.234 -1.9749  0.4780 -1.0501
  677MOL0     H93408  10.622   5.334   2.057  1.1792  0.9325  0.3289
  677MOL0     H93409  10.432   5.185   2.175 -0.7130 -1.9808  2.5971
  677MOL0     H93410   8.503   5.145   2.083 -1.2631  1.2216  0.4825
  677MOL0     H93411   8.305   5.265   1.997 -0.9808  0.7505 -2.4158
  677MOL0     H93412   8.128   5.370   1.593  0.4151 -2.3233  0.2841
  677MOL0     H93413   7.962   5.483   1.443  0.6733 -2.0031 -0.1973
  677MOL0     H93414   7.649   5.677   1.569 -2.8248  1.8905 -0.4301
  677MOL0     H93415   7.757   5.676   1.428 -1.1647  1.4816 -0.5070
  677MOL0     H93416   7.591   5.648   1.278 -0.1627 -2.4344 -0.2191
  677MOL0     H93417   7.489   5.735   1.399  0.9306  0.2720  2.1112
  677MOL0     H93418   7.371   5.556   1.310  0.1503 -1.9009 -0.6686
  677MOL0     H93419   7.491   5.437   1.336  1.0006 -0.1966 -0.6535
  677MOL0     H93420   7.456   5.448   1.576  2.1792  1.4376 -2.3754
  677MOL0     H93421   7.300   5.436   1.495 -1.4379  1.3531 -0.9895
  677MOL0     H93422   7.272   5.837   1.663  0.4177 -0.4626  1.0596
  677MOL0     H93423   7.649   5.399   1.726 -0.4258  3.9661 -1.7429
  677MOL0     H93424   7.684   5.295   1.916 -0.1117 -1.0837 -1.4981
  677MOL0     H93425   7.787   5.154   1.920 -2.0674 -0.4264 -0.6361
  677MOL0     H93426   7.851   5.306   1.990  0.6118  1.5215 -0.6240
  678MOL0     O93427   0.298   8.975   1.515 -0.4455  0.6561  0.4826
  678MOL0     C93428   0.326   9.053   1.421 -0.0060 -1.3805  0.3444
  678MOL0     O93429   0.449   9.110   1.399  0.3745  0.5252  0.0859
  678MOL0     C93430   0.547   9.065   1.477 -0.0186 -0.1758 -0.2627
  678MOL0     C93431   0.571   9.127   1.604  0.2556  0.6693 -1.0931
  678MOL0     C93432   0.663   9.070   1.696  0.1284  0.4273  0.5040
  678MOL0     C93433   0.731   8.948   1.647  0.0802 -0.1618 -0.7381
  678MOL0     O93434   0.809   8.898   1.749  0.1441  0.0745  0.7076
  678MOL0     C93435   0.892   8.794   1.713 -1.1927  0.2165  0.2061
  678MOL0     C93436   0.968   8.730   1.837 -0.7824  0.1680 -0.2616
  678MOL0     C93437   1.125   8.755   1.829  0.1590 -0.9344  0.2045
  678MOL0     C93438   1.202   8.652   1.752  0.6247  0.7027  0.4047
  678MOL0     C93439   1.353   8.678   1.748 -0.0534 -0.0791 -0.4786
  678MOL0     C93440   1.432   8.569   1.685  0.2007  0.3203  0.2018
  678MOL0     C93441   1.586   8.577   1.684  0.8086 -0.4141 -0.1179
  678MOL0     C93442   1.652   8.720   1.658 -0.1286 -0.1437  0.1920
  678MOL0     N93443   1.795   8.717   1.694  0.1780 -0.1453  0.3960
  678MOL0     C93444   1.865   8.601   1.722  0.2323 -0.3278  0.6256
  678MOL0     C93445   1.979   8.642   1.779 -0.0065 -0.0349 -0.1146
  678MOL0     C93446   2.089   8.553   1.826  0.2079 -1.2373 -0.5465
  678MOL0     C93447   2.091   8.553   1.977  0.1497 -0.1487 -0.9155
  678MOL0     C93448   2.138   8.410   2.018 -0.2641 -0.0428 -0.2087
  678MOL0     C93449   2.141   8.397   2.168 -0.6453  0.6324  0.3337
  678MOL0     O93450   2.220   8.491   2.243  0.5146 -0.1230  0.2995
  678MOL0     C93451   2.359   8.488   2.236 -0.9027 -1.0477  0.8629
  678MOL0     C93452   2.430   8.375   2.242  0.3070 -0.7132 -1.1025
  678MOL0     C93453   2.569   8.362   2.227  1.0484 -0.0003 -0.4281
  678MOL0     C93454   2.638   8.227   2.260 -0.4299 -0.3727 -0.3905
  678MOL0     C93455   2.638   8.480   2.192 -0.0314  0.6191 -1.2616
  678MOL0     C93456   2.785   8.479   2.161 -0.8344 -0.3421  0.2214
  678MOL0     O93457   2.812   8.552   2.051 -0.2408  0.3792 -0.0300
  678MOL0     C93458   2.938   8.568   2.004  0.0560 -1.1456  0.4109
  678MOL0     C93459   2.977   8.535   1.869 -0.1602  0.2177  0.3710
  678MOL0     C93460   3.111   8.531   1.827 -0.6990 -0.8746  0.1417
  678MOL0     C93461   3.210   8.555   1.922  0.1339 -0.3605 -0.4722
  678MOL0     O93462   3.344   8.547   1.893 -0.0812  0.4240 -0.4163
  678MOL0     C93463   3.402   8.660   1.824 -0.2263  0.3793 -0.6878
  678MOL0     C93464   3.558   8.667   1.825 -0.4122  0.8666 -0.2719
  678MOL0     C93465   3.596   8.816   1.862 -0.0023  0.0329 -0.9515
  678MOL0     C93466   3.741   8.841   1.848 -0.9468  0.3691 -0.1480
  678MOL0     C93467   3.778   8.993   1.860 -0.1398  1.4011  0.7840
  678MOL0     C93468   3.933   9.004   1.848 -0.7386  0.7605 -0.2681
  678MOL0     C93469   3.996   8.985   1.707  0.1166 -0.2920 -0.0811
  678MOL0     C93470   4.149   9.000   1.719  0.6976 -0.8151  0.2209
  678MOL0    Cl93471   4.232   8.858   1.797  0.2802  0.3606  0.3479
  678MOL0     C93472   3.177   8.599   2.050  0.5881 -0.2985  0.1064
  678MOL0     C93473   3.045   8.615   2.091 -0.0580 -0.2779  0.2466
  678MOL0     O93474   2.865   8.417   2.231  0.1530  0.5340 -0.9486
  678MOL0     C93475   2.571   8.599   2.183  0.0554  0.6216  0.3469
  678MOL0     C93476   2.438   8.609   2.211  0.6416 -0.2695  0.4503
  678MOL0     N93477   1.974   8.772   1.802 -0.0539 -0.9589 -0.1170
  678MOL0     N93478   1.862   8.819   1.761  0.6175 -0.1019 -0.0482
  678MOL0     C93479   0.718   8.899   1.518 -1.0763 -0.1674 -0.3791
  678MOL0     C93480   0.623   8.952   1.436  0.2913 -0.0789 -0.0771
  678MOL0     C93481   0.221   9.092   1.331 -0.5970 -0.0892  0.8984
  678MOL0     C93482   0.220   9.217   1.278  0.8835 -0.5657  0.7386
  678MOL0     C93483   0.125   9.250   1.179 -0.3886  0.2555  0.6557
  678MOL0     C93484   0.023   9.160   1.140  0.1466 -0.4564  0.3349
  678MOL0     O93485  -0.079   9.188   1.052 -0.1861 -0.2493 -0.1492
  678MOL0     C93486  -0.167   9.294   1.105  0.7064 -0.6595  0.0713
  678MOL0     C93487  -0.281   9.297   0.997 -1.0662  0.2731  0.0945
  678MOL0     C93488  -0.367   9.168   0.998 -0.2933 -0.1970  0.1979
  678MOL0     C93489  -0.465   9.169   1.116 -0.5664  0.6526  0.6790
  678MOL0     C93490  -0.548   9.051   1.101  0.3884 -0.2371  0.1399
  678MOL0     C93491  -0.623   8.960   1.078 -0.1854  0.4881  0.6104
  678MOL0     C93492   0.017   9.041   1.206  0.3242  0.1297  0.3194
  678MOL0     C93493   0.117   9.003   1.294  0.1523  0.2502  0.3044
  678MOL0     C93494   0.097   8.858   1.347  0.0614  0.0896 -0.0632
  678MOL0     H93495   0.526   9.217   1.644  0.5211  0.4801 -0.3629
  678MOL0     H93496   0.685   9.099   1.798 -0.2347 -2.3824  1.4571
  678MOL0     H93497   0.965   8.823   1.636 -3.2074 -0.1734 -1.9597
  678MOL0     H93498   0.837   8.715   1.662 -0.9541  1.7587 -2.6385
  678MOL0     H93499   0.946   8.777   1.933  2.5957  3.2785 -0.7901
  678MOL0     H93500   0.949   8.622   1.840 -2.0743  0.3891  2.7346
  678MOL0     H93501   1.142   8.854   1.786  1.1828 -0.7392  1.0350
  678MOL0     H93502   1.166   8.752   1.930 -1.6288 -0.1643  1.0092
  678MOL0     H93503   1.178   8.558   1.804 -0.2782  0.7202  0.0385
  678MOL0     H93504   1.156   8.650   1.652 -0.0422 -3.3618  0.6239
  678MOL0     H93505   1.387   8.694   1.851  2.3056 -2.7411 -0.7419
  678MOL0     H93506   1.372   8.769   1.691  0.9453 -0.1508 -0.2753
  678MOL0     H93507   1.401   8.469   1.716 -1.9643 -0.0306 -2.6193
  678MOL0     H93508   1.399   8.557   1.581 -1.9068  2.9454  0.4385
  678MOL0     H93509   1.614   8.507   1.605 -3.3245 -0.7024 -1.5277
  678MOL0     H93510   1.613   8.538   1.783 -4.5158  0.2293  1.9120
  678MOL0     H93511   1.638   8.739   1.552 -0.9969  1.0767  0.4937
  678MOL0     H93512   1.598   8.791   1.722 -1.6042 -0.5153 -0.6068
  678MOL0     H93513   1.859   8.499   1.687  1.7135  0.7271 -3.2713
  678MOL0     H93514   2.183   8.591   1.786 -1.7891  2.4414 -2.3541
  678MOL0     H93515   2.053   8.458   1.785 -1.0492 -0.7934 -0.5198
  678MOL0     H93516   2.166   8.621   2.018 -2.0378  1.0270  1.4645
  678MOL0     H93517   1.992   8.577   2.018  1.1047  1.3871  0.6233
  678MOL0     H93518   2.070   8.329   1.990  0.1361 -0.9926  1.4276
  678MOL0     H93519   2.234   8.386   1.971 -0.9668 -0.8051 -1.3047
  678MOL0     H93520   2.037   8.391   2.202 -1.4558 -4.2815 -2.2327
  678MOL0     H93521   2.172   8.293   2.184 -3.1162 -0.4561 -1.3935
  678MOL0     H93522   2.375   8.284   2.267 -1.0615 -0.1206 -1.8696
  678MOL0     H93523   2.679   8.230   2.361 -0.2565  0.4840 -0.4863
  678MOL0     H93524   2.716   8.193   2.192 -0.6559 -2.1204  0.1657
  678MOL0     H93525   2.567   8.144   2.252  1.2541 -1.8150 -1.0114
  678MOL0     H93526   2.898   8.503   1.801  1.5282 -1.7083 -0.8017
  678MOL0     H93527   3.150   8.506   1.729  3.1490  1.7579  0.7759
  678MOL0     H93528   3.373   8.649   1.719  0.9526 -0.0434 -0.9882
  678MOL0     H93529   3.358   8.755   1.856  0.6777  1.4951 -2.6030
  678MOL0     H93530   3.617   8.607   1.895  2.0895  2.5510 -0.7924
  678MOL0     H93531   3.599   8.648   1.726 -0.0060 -2.3550  0.4167
  678MOL0     H93532   3.559   8.845   1.960 -2.1911 -0.2961 -1.6336
  678MOL0     H93533   3.546   8.878   1.787 -2.2048  0.3200  0.6706
  678MOL0     H93534   3.778   8.792   1.757  1.8138 -2.1751  2.1019
  678MOL0     H93535   3.783   8.792   1.936  0.1695  3.3393  1.1168
  678MOL0     H93536   3.737   9.056   1.781 -0.2694  1.3427  0.8061
  678MOL0     H93537   3.740   9.028   1.956 -2.5441 -1.0912  0.8604
  678MOL0     H93538   3.974   8.930   1.917 -0.7330  0.9472 -0.0710
  678MOL0     H93539   3.952   9.106   1.884  1.5127 -0.6725  3.0611
  678MOL0     H93540   3.966   9.069   1.642  1.7983  1.1384  0.9006
  678MOL0     H93541   3.965   8.886   1.672 -1.5523 -0.0173  0.5292
  678MOL0     H93542   4.158   9.086   1.786 -1.3923 -1.5558  1.5306
  678MOL0     H93543   4.193   9.018   1.620 -0.3239 -0.5937 -0.1986
  678MOL0     H93544   3.256   8.619   2.122 -0.2067 -2.5206  1.6808
  678MOL0     H93545   3.024   8.649   2.192  1.3267  2.2055 -0.2163
  678MOL0     H93546   2.626   8.687   2.154 -0.3596  0.5169 -0.8129
  678MOL0     H93547   2.392   8.707   2.206  1.4874  0.1369  0.5793
  678MOL0     H93548   0.760   8.803   1.492 -1.2397 -0.7389  1.3172
  678MOL0     H93549   0.598   8.900   1.344  0.0049 -3.2277  1.6287
  678MOL0     H93550   0.289   9.298   1.294  1.4268 -1.1733  1.5569
  678MOL0     H93551   0.130   9.351   1.139  3.2591 -1.3724 -3.8459
  678MOL0     H93552  -0.207   9.278   1.206  1.0036 -2.8372 -0.1057
  678MOL0     H93553  -0.115   9.390   1.111 -3.1094  1.5620  0.9375
  678MOL0     H93554  -0.237   9.297   0.896 -1.2055 -0.5732  0.0221
  678MOL0     H93555  -0.346   9.384   1.008 -1.6451 -0.3552  2.0541
  678MOL0     H93556  -0.425   9.162   0.905 -0.5013  0.9037  0.2330
  678MOL0     H93557  -0.305   9.080   1.012  0.5700  0.3878  0.1367
  678MOL0     H93558  -0.529   9.256   1.135 -0.1333  1.7850 -2.5070
  678MOL0     H93559  -0.406   9.159   1.207  1.5031 -1.3747 -0.7852
  678MOL0     H93560  -0.683   8.871   1.077  0.2779  0.1636  0.8985
  678MOL0     H93561  -0.070   8.976   1.196  1.5237 -1.2990 -1.7101
  678MOL0     H93562   0.195   8.813   1.365 -0.5591 -2.1371 -1.7161
  678MOL0     H93563   0.045   8.866   1.443  0.4901  0.6885  0.1196
  678MOL0     H93564   0.041   8.792   1.281 -0.4096 -2.3353  2.5423
  679MOL0     O93565   3.423   7.921   2.451 -0.3605 -0.2200  0.2536
  679MOL0     C93566   3.406   7.861   2.348  0.0633  0.7738 -1.1948
  679MOL0     O93567   3.498   7.829   2.260  0.5560 -0.5163 -0.6263
  679MOL0     C93568   3.627   7.851   2.295  0.3620 -1.4872 -0.1969
  679MOL0     C93569   3.692   7.835   2.414  0.8010  0.8150 -0.1355
  679MOL0     C93570   3.828   7.829   2.431  0.0538  0.3331 -1.2679
  679MOL0     C93571   3.905   7.877   2.322  0.0699  0.5807 -1.0513
  679MOL0     O93572   4.042   7.886   2.347  0.1003 -0.4704 -0.2086
  679MOL0     C93573   4.112   7.979   2.259 -0.0029  0.2725 -1.3454
  679MOL0     C93574   4.251   8.005   2.315 -0.0304 -0.2087 -0.3259
  679MOL0     C93575   4.350   7.894   2.303 -0.1865 -0.1433 -0.1432
  679MOL0     C93576   4.444   7.914   2.185 -0.5391 -0.3318  0.3253
  679MOL0     C93577   4.564   7.818   2.194 -0.5182  0.9540 -0.0088
  679MOL0     C93578   4.653   7.825   2.073 -0.0761  0.1396 -0.1931
  679MOL0     C93579   4.770   7.728   2.090 -0.3505 -0.3885 -0.5669
  679MOL0     C93580   4.827   7.695   1.952  0.4847 -0.2875 -0.2460
  679MOL0     N93581   4.953   7.621   1.948 -1.1905  0.3481 -0.7112
  679MOL0     C93582   5.068   7.667   2.011  0.1255 -0.0156  0.0014
  679MOL0     C93583   5.154   7.564   1.993 -0.0882  0.0293  0.1325
  679MOL0     C93584   5.286   7.573   2.053 -0.9667  0.6652  0.1628
  679MOL0     C93585   5.383   7.649   1.969  0.6194 -0.8381  0.1239
  679MOL0     C93586   5.424   7.574   1.840  1.0911 -0.7461  0.3486
  679MOL0     C93587   5.503   7.445   1.866  0.1662 -0.7090 -0.6662
  679MOL0     O93588   5.601   7.455   1.969 -0.5775  0.2399 -0.4776
  679MOL0     C93589   5.730   7.499   1.938 -0.3162  0.4278 -0.1455
  679MOL0     C93590   5.794   7.484   1.810  0.0201 -0.1179 -0.4434
  679MOL0     C93591   5.937   7.500   1.801 -0.2193  0.8174  0.5314
  679MOL0     C93592   6.000   7.470   1.668  0.3140 -0.7599 -0.1746
  679MOL0     C93593   6.011   7.527   1.920  0.3074  0.1860  0.9191
  679MOL0     C93594   6.157   7.543   1.929 -0.2777  0.0361  0.5992
  679MOL0     O93595   6.213   7.523   2.058 -0.2619  0.3471 -0.4310
  679MOL0     C93596   6.345   7.501   2.073  0.1486  0.4066 -0.1821
  679MOL0     C93597   6.419   7.610   2.114 -0.0745  0.4855 -0.2417
  679MOL0     C93598   6.547   7.591   2.149  0.2789  0.7175 -0.2620
  679MOL0     C93599   6.609   7.465   2.153  0.3589  0.2283 -0.7250
  679MOL0     O93600   6.737   7.448   2.190  0.3272 -0.6195 -0.1722
  679MOL0     C93601   6.776   7.518   2.311  0.1403 -0.0189 -0.0130
  679MOL0     C93602   6.916   7.471   2.339  0.2377  0.8206  0.1117
  679MOL0     C93603   6.928   7.316   2.331 -0.6326 -0.4386  0.1612
  679MOL0     C93604   7.065   7.256   2.359 -0.2075  0.8767  0.1412
  679MOL0     C93605   7.044   7.103   2.366 -0.5432 -0.1425 -0.5375
  679MOL0     C93606   7.177   7.022   2.374 -0.3849 -0.6213 -0.2481
  679MOL0     C93607   7.238   7.030   2.505  0.1525 -0.3356  0.6920
  679MOL0     C93608   7.371   6.961   2.504  0.7127 -0.7254  0.3401
  679MOL0    Cl93609   7.348   6.793   2.542 -0.0659  0.2840  0.1904
  679MOL0     C93610   6.533   7.355   2.107 -0.5162 -0.0868 -1.4802
  679MOL0     C93611   6.398   7.371   2.062  0.6948 -0.6231  0.8085
  679MOL0     O93612   6.221   7.563   1.827  0.1936  0.9549  0.5699
  679MOL0     C93613   5.940   7.546   2.043  0.5596 -0.0592  0.2598
  679MOL0     C93614   5.801   7.528   2.054  0.1924  0.4474 -0.0032
  679MOL0     N93615   5.088   7.459   1.920 -0.8424 -0.5241 -0.2468
  679MOL0     N93616   4.972   7.497   1.889 -0.6990 -0.2125 -0.0675
  679MOL0     C93617   3.854   7.895   2.195 -0.3348 -0.1723  0.4856
  679MOL0     C93618   3.710   7.882   2.180 -0.0493  0.0864  0.4296
  679MOL0     C93619   3.263   7.839   2.311 -0.5499 -0.0479 -0.3209
  679MOL0     C93620   3.235   7.749   2.205 -0.2469 -0.2467 -0.2378
  679MOL0     C93621   3.109   7.699   2.171  0.7164  0.2801 -0.2821
  679MOL0     C93622   2.997   7.757   2.231  0.0757 -0.0327 -0.3690
  679MOL0     O93623   2.870   7.723   2.189  0.1915 -0.1240 -0.3794
  679MOL0     C93624   2.764   7.753   2.283  0.0625 -0.2619 -0.8275
  679MOL0     C93625   2.647   7.666   2.247 -0.2096 -0.9363 -0.0203
  679MOL0     C93626   2.667   7.517   2.257 -0.4781 -0.3349 -0.6279
  679MOL0     C93627   2.554   7.431   2.203  0.0128 -0.1986 -0.0213
  679MOL0     C93628   2.601   7.289   2.202  0.5657 -0.1421  0.5268
  679MOL0     C93629   2.634   7.169   2.187 -0.3473 -0.3492  0.6106
  679MOL0     C93630   3.020   7.852   2.328  0.5415  1.0189  0.3137
  679MOL0     C93631   3.144   7.888   2.383 -0.4844 -0.0998  0.8058
  679MOL0     C93632   3.146   7.970   2.508  0.6861  0.1612 -0.5237
  679MOL0     H93633   3.631   7.816   2.502 -0.9234  0.7553 -1.2964
  679MOL0     H93634   3.882   7.798   2.520 -0.7521  1.3219 -0.4184
  679MOL0     H93635   4.062   8.076   2.254  0.0434  0.4981  1.2932
  679MOL0     H93636   4.118   7.938   2.157 -2.2886 -0.7885 -1.1214
  679MOL0     H93637   4.294   8.095   2.270  1.4665 -0.9432 -0.4285
  679MOL0     H93638   4.242   8.026   2.422 -0.7476 -1.0568 -0.2032
  679MOL0     H93639   4.416   7.886   2.389  0.1262 -0.4512 -0.4087
  679MOL0     H93640   4.290   7.803   2.289 -0.7482  0.4572 -1.9249
  679MOL0     H93641   4.395   7.914   2.087  1.5718 -1.4616 -0.8049
  679MOL0     H93642   4.487   8.013   2.196 -0.9321  0.1216 -1.7844
  679MOL0     H93643   4.534   7.716   2.219  1.3754  0.1683 -0.7440
  679MOL0     H93644   4.624   7.856   2.277  0.7670  1.4357 -1.1116
  679MOL0     H93645   4.593   7.784   1.991 -0.5546  0.7992 -0.1748
  679MOL0     H93646   4.693   7.923   2.045 -1.3313  0.3628 -1.2954
  679MOL0     H93647   4.739   7.635   2.138  2.0855 -1.3740 -0.7757
  679MOL0     H93648   4.839   7.772   2.162  2.9676 -3.9893 -1.2582
  679MOL0     H93649   4.749   7.648   1.892  0.2465 -0.5054  0.2265
  679MOL0     H93650   4.845   7.794   1.909 -1.9500  0.5298  0.4706
  679MOL0     H93651   5.078   7.765   2.058 -1.6188 -0.4169  1.3309
  679MOL0     H93652   5.314   7.469   2.073 -0.4244 -0.1401 -3.8780
  679MOL0     H93653   5.286   7.632   2.145  1.8826  1.8783 -0.5173
  679MOL0     H93654   5.335   7.742   1.936 -2.0777 -1.8371  0.9807
  679MOL0     H93655   5.472   7.668   2.030  0.2400  4.3730 -0.4446
  679MOL0     H93656   5.337   7.566   1.775  1.2968 -0.1170 -0.0112
  679MOL0     H93657   5.487   7.636   1.777  0.8207 -0.9026 -0.0799
  679MOL0     H93658   5.435   7.363   1.889  0.4436 -0.2010  2.3516
  679MOL0     H93659   5.557   7.416   1.775 -0.5605 -0.7973 -1.0718
  679MOL0     H93660   5.744   7.448   1.721  0.1322 -3.2392  0.6376
  679MOL0     H93661   6.068   7.384   1.670  0.5253 -0.6193 -0.9594
  679MOL0     H93662   6.051   7.552   1.618  1.1231 -0.9544  0.3066
  679MOL0     H93663   5.924   7.440   1.595  0.1532  1.8140 -1.1709
  679MOL0     H93664   6.380   7.710   2.129 -2.1043 -0.1377 -0.9350
  679MOL0     H93665   6.610   7.677   2.165  1.8145  0.7804 -4.9389
  679MOL0     H93666   6.770   7.626   2.295 -2.5507 -0.3856 -2.3489
  679MOL0     H93667   6.711   7.489   2.393  0.8395 -0.7952  0.2758
  679MOL0     H93668   6.990   7.525   2.280  1.0167 -1.1376 -0.7969
  679MOL0     H93669   6.940   7.488   2.445  0.1585 -0.3596  0.3423
  679MOL0     H93670   6.888   7.274   2.238 -0.3041  1.5534 -0.9311
  679MOL0     H93671   6.862   7.284   2.412 -0.3826 -0.0690  0.5148
  679MOL0     H93672   7.107   7.286   2.456  1.0670 -1.8976  0.5737
  679MOL0     H93673   7.128   7.278   2.272  0.1237  0.6358  0.3175
  679MOL0     H93674   6.998   7.078   2.463  2.7447 -0.5160  1.0508
  679MOL0     H93675   6.982   7.071   2.282 -1.4418 -1.2482  0.5080
  679MOL0     H93676   7.247   7.057   2.297 -0.2003  0.4675  0.3911
  679MOL0     H93677   7.149   6.919   2.355  1.8644 -1.0392 -1.6113
  679MOL0     H93678   7.173   6.990   2.583  0.3097  1.5428  1.8496
  679MOL0     H93679   7.252   7.137   2.523 -2.2602  0.2119 -0.3550
  679MOL0     H93680   7.438   7.010   2.576  0.4304  2.0029 -1.0957
  679MOL0     H93681   7.423   6.971   2.408  0.9082 -2.0175  0.2990
  679MOL0     H93682   6.588   7.261   2.106  0.5621  0.3391  2.3716
  679MOL0     H93683   6.326   7.296   2.031 -2.2380  1.3322  2.3979
  679MOL0     H93684   5.994   7.563   2.136 -1.7794  1.4315  1.4432
  679MOL0     H93685   5.741   7.541   2.144 -0.7883  1.4878 -0.7758
  679MOL0     H93686   3.917   7.920   2.110  0.9889 -0.1171  1.4505
  679MOL0     H93687   3.661   7.884   2.083 -1.8789  3.2935  1.2928
  679MOL0     H93688   3.324   7.712   2.156  0.0251  0.8383 -0.5806
  679MOL0     H93689   3.099   7.620   2.098  0.4923 -1.7597  1.8479
  679MOL0     H93690   2.790   7.759   2.389 -0.9097  0.2332 -0.6032
  679MOL0     H93691   2.734   7.858   2.271 -1.2690 -0.7063 -1.5748
  679MOL0     H93692   2.632   7.689   2.142 -0.1678 -0.0976  0.1551
  679MOL0     H93693   2.563   7.700   2.309  0.7355 -1.0647  1.3726
  679MOL0     H93694   2.756   7.493   2.199  1.4158  2.3261  0.9659
  679MOL0     H93695   2.679   7.495   2.363 -1.5564 -1.5474 -0.7278
  679MOL0     H93696   2.516   7.467   2.107 -0.7662  0.8157  0.6569
  679MOL0     H93697   2.473   7.429   2.276  0.1790  0.9362  0.2089
  679MOL0     H93698   2.674   7.073   2.162 -1.2578 -0.1913 -1.8059
  679MOL0     H93699   2.939   7.903   2.380 -0.4466  0.7843 -0.9293
  679MOL0     H93700   3.169   8.074   2.481 -0.2766  0.3708 -0.5620
  679MOL0     H93701   3.052   7.976   2.564  0.3217 -2.9400 -0.6404
  679MOL0     H93702   3.220   7.930   2.578 -2.1054 -3.4827  0.6582
  680MOL0     O93703   8.346   5.834   7.942  0.2442 -0.4140  0.3182
  680MOL0     C93704   8.368   5.951   7.970  1.6392  0.0504  0.1468
  680MOL0     O93705   8.489   6.011   7.992  0.4787 -0.0870 -0.2729
  680MOL0     C93706   8.606   5.957   7.954  0.9212  0.0028 -0.0041
  680MOL0     C93707   8.627   5.836   7.883  0.5691 -0.6311  0.0337
  680MOL0     C93708   8.759   5.802   7.838 -0.3596 -0.5888  0.9823
  680MOL0     C93709   8.866   5.885   7.861 -0.1579 -0.3142  0.7119
  680MOL0     O93710   8.997   5.849   7.842  0.4098  0.3144  0.2496
  680MOL0     C93711   9.032   5.832   7.707 -0.5583 -0.4053 -0.0011
  680MOL0     C93712   9.076   5.969   7.644 -0.4878 -0.7861 -0.0086
  680MOL0     C93713   9.184   6.055   7.712 -0.7538 -0.8382  0.7893
  680MOL0     C93714   9.319   5.980   7.700  0.6810 -0.0158 -0.9641
  680MOL0     C93715   9.436   6.070   7.746 -0.0345  0.7993  0.8136
  680MOL0     C93716   9.565   5.996   7.757 -0.2315 -0.1260 -1.2844
  680MOL0     C93717   9.682   6.097   7.762  0.5342  0.5142 -0.0164
  680MOL0     C93718   9.805   6.030   7.808 -0.0538 -0.5533  0.9884
  680MOL0     N93719   9.921   6.119   7.783 -0.3884  0.5284 -0.0965
  680MOL0     C93720  10.038   6.108   7.859  0.1760  0.0107  0.9876
  680MOL0     C93721  10.111   6.208   7.815  0.7299 -0.2110 -0.4602
  680MOL0     C93722  10.244   6.238   7.878 -0.1048  0.3577  0.0139
  680MOL0     C93723  10.344   6.187   7.772  0.8199  0.4437 -0.9965
  680MOL0     C93724  10.483   6.230   7.805  0.1025  0.0732  0.1918
  680MOL0     C93725  10.587   6.121   7.789  0.3753  1.1040 -0.3801
  680MOL0     O93726  10.711   6.153   7.850  0.4903  0.3360 -0.7236
  680MOL0     C93727  10.819   6.073   7.837 -0.2565 -0.5450  0.1658
  680MOL0     C93728  10.939   6.127   7.882  0.2109 -0.3263  0.0700
  680MOL0     C93729  11.055   6.048   7.886  0.1598  0.3614 -0.3862
  680MOL0     C93730  11.172   6.130   7.918 -0.4801  0.6386  0.3563
  680MOL0     C93731  11.058   5.903   7.852 -0.4760 -0.3351  0.5097
  680MOL0     C93732  11.186   5.821   7.841  0.3891  0.1125 -0.6395
  680MOL0     O93733  11.308   5.880   7.872  0.4749  0.2663  0.1580
  680MOL0     C93734  11.418   5.807   7.827  1.0193 -0.1729  0.4232
  680MOL0     C93735  11.522   5.873   7.759 -0.5092  0.1351 -0.4090
  680MOL0     C93736  11.644   5.797   7.730  0.5108 -0.4164 -0.9202
  680MOL0     C93737  11.669   5.663   7.777  0.1125 -0.3228 -0.1177
  680MOL0     O93738  11.788   5.608   7.743  0.0529 -0.2633 -0.7306
  680MOL0     C93739  11.787   5.462   7.770 -0.2009 -0.2811  0.0876
  680MOL0     C93740  11.905   5.397   7.707  0.6816 -0.7066  0.1393
  680MOL0     C93741  12.035   5.459   7.754  0.3260  0.4159 -0.2965
  680MOL0     C93742  12.154   5.386   7.693 -0.7161  0.7220  0.0632
  680MOL0     C93743  12.277   5.393   7.781 -0.1660 -0.3166 -0.1703
  680MOL0     C93744  12.405   5.372   7.699  0.7396 -0.4384  0.4388
  680MOL0     C93745  12.525   5.384   7.792  0.4968 -0.0096  0.3289
  680MOL0     C93746  12.661   5.394   7.712  0.3284 -0.2204 -0.9058
  680MOL0    Cl93747  12.645   5.477   7.563  0.0496  0.1017 -0.3743
  680MOL0     C93748  11.565   5.602   7.848  0.2472  0.3238 -0.5191
  680MOL0     C93749  11.447   5.676   7.876 -0.6302 -0.2795  0.1877
  680MOL0     O93750  11.172   5.708   7.797  0.2009  0.2925 -0.0891
  680MOL0     C93751  10.929   5.847   7.821 -0.0456 -0.0452 -0.9205
  680MOL0     C93752  10.814   5.930   7.812 -0.5494  0.3745  0.5634
  680MOL0     N93753  10.055   6.270   7.709  0.5223  0.2152 -0.3827
  680MOL0     N93754   9.936   6.217   7.688  0.0526 -0.4997  0.2772
  680MOL0     C93755   8.841   5.998   7.945 -0.3068 -0.2700 -0.0733
  680MOL0     C93756   8.716   6.028   7.996  0.5015  0.7818  0.3243
  680MOL0     C93757   8.242   6.028   7.976  0.1347 -0.1460  0.5210
  680MOL0     C93758   8.147   6.010   7.873 -0.5607  0.5436 -0.6552
  680MOL0     C93759   8.033   6.089   7.859 -0.2825 -0.3640  0.4694
  680MOL0     C93760   7.998   6.182   7.955 -0.2855  0.1793 -0.0674
  680MOL0     O93761   7.880   6.246   7.943  0.5764 -0.2941 -0.3063
  680MOL0     C93762   7.892   6.389   7.936 -0.8640 -0.2446 -0.1364
  680MOL0     C93763   7.762   6.460   7.891 -0.3033 -0.0752 -0.0421
  680MOL0     C93764   7.640   6.438   7.983  0.9807 -0.8791  0.2820
  680MOL0     C93765   7.519   6.513   7.926 -0.3483  0.3572 -0.2360
  680MOL0     C93766   7.539   6.653   7.892 -0.2611 -0.0376 -0.0658
  680MOL0     C93767   7.561   6.774   7.858  0.5330  0.7132 -0.8046
  680MOL0     C93768   8.089   6.199   8.067  0.3002  0.8029  0.6108
  680MOL0     C93769   8.208   6.119   8.076 -1.0033  0.4574 -0.5282
  680MOL0     C93770   8.292   6.142   8.196 -0.2541 -0.0835 -0.0776
  680MOL0     H93771   8.550   5.762   7.864 -1.7204  1.4653  0.5853
  680MOL0     H93772   8.772   5.703   7.796 -0.5440 -0.0052 -0.4835
  680MOL0     H93773   8.943   5.792   7.658  0.7019 -3.8191  0.2167
  680MOL0     H93774   9.114   5.761   7.697 -0.9504 -1.0989  1.3708
  680MOL0     H93775   9.110   5.946   7.543 -1.9110  0.1477 -0.7298
  680MOL0     H93776   8.990   6.036   7.646 -0.4789 -0.7345 -0.8864
  680MOL0     H93777   9.200   6.146   7.653  0.8619  0.4832  3.0938
  680MOL0     H93778   9.154   6.087   7.812  1.2706  0.8207  0.9524
  680MOL0     H93779   9.321   5.904   7.778  1.8442 -0.8502 -1.7753
  680MOL0     H93780   9.329   5.932   7.602  1.0604  1.5152 -1.7069
  680MOL0     H93781   9.421   6.137   7.831  0.2700 -1.5353  2.8330
  680MOL0     H93782   9.440   6.149   7.670 -3.2277  0.7226  0.4185
  680MOL0     H93783   9.560   5.928   7.843 -0.4077 -0.6522 -1.7054
  680MOL0     H93784   9.565   5.931   7.669 -1.5876  0.7575 -1.9787
  680MOL0     H93785   9.659   6.173   7.837 -0.8090 -0.1340  0.2604
  680MOL0     H93786   9.702   6.144   7.665  2.3972  0.9788  0.5662
  680MOL0     H93787   9.794   6.003   7.914  1.2541 -2.2795  0.7312
  680MOL0     H93788   9.806   5.931   7.761 -1.9925 -0.4481  0.6529
  680MOL0     H93789  10.056   6.042   7.943  1.5958 -0.4432  0.3476
  680MOL0     H93790  10.272   6.196   7.975 -0.5241  0.6590  0.2687
  680MOL0     H93791  10.241   6.347   7.878  2.4188  0.4970 -1.0041
  680MOL0     H93792  10.338   6.078   7.776 -1.0518  0.5135  3.1297
  680MOL0     H93793  10.309   6.219   7.674 -1.4100  1.2683 -0.0141
  680MOL0     H93794  10.515   6.310   7.738 -0.0254  0.3817  0.4955
  680MOL0     H93795  10.494   6.271   7.906 -0.1962  1.0114 -0.1452
  680MOL0     H93796  10.545   6.023   7.816 -0.8541  1.0559 -2.2940
  680MOL0     H93797  10.604   6.102   7.683  0.7773 -0.9029 -0.0008
  680MOL0     H93798  10.948   6.232   7.909  0.8926 -0.4635  0.4242
  680MOL0     H93799  11.210   6.101   8.017  1.5888 -0.3667 -0.6623
  680MOL0     H93800  11.144   6.235   7.928 -3.1846 -0.1575  2.3369
  680MOL0     H93801  11.261   6.114   7.857  1.1611 -0.4727  2.8541
  680MOL0     H93802  11.501   5.977   7.739 -5.4308 -0.2519  1.2488
  680MOL0     H93803  11.719   5.853   7.675 -0.2053  3.2801  1.4626
  680MOL0     H93804  11.780   5.455   7.879  0.5664 -1.1855  0.0991
  680MOL0     H93805  11.702   5.418   7.718 -0.2790  0.1292 -0.1347
  680MOL0     H93806  11.911   5.293   7.742 -2.7780  0.2085  4.3406
  680MOL0     H93807  11.897   5.397   7.598  1.9222 -2.3311 -0.0033
  680MOL0     H93808  12.035   5.458   7.864  1.4978  1.1955 -0.2749
  680MOL0     H93809  12.053   5.565   7.737  1.3902  0.3784  0.4507
  680MOL0     H93810  12.192   5.446   7.610 -1.3084  2.5588  1.0687
  680MOL0     H93811  12.129   5.284   7.664  0.8241 -0.4130  2.4331
  680MOL0     H93812  12.277   5.492   7.827 -2.6460 -0.6777  0.7607
  680MOL0     H93813  12.269   5.319   7.861 -2.2997 -1.1608 -1.1032
  680MOL0     H93814  12.404   5.450   7.622 -1.6630  0.5199  1.3169
  680MOL0     H93815  12.406   5.278   7.644  3.3358 -2.1840  3.1824
  680MOL0     H93816  12.531   5.297   7.857  0.4912 -0.1512  0.1408
  680MOL0     H93817  12.508   5.473   7.853 -1.0928  0.1922 -0.3456
  680MOL0     H93818  12.682   5.290   7.686 -0.1717  0.1508 -2.9530
  680MOL0     H93819  12.738   5.439   7.776 -1.2656  0.9035  0.3209
  680MOL0     H93820  11.574   5.501   7.885 -1.2105 -0.3071 -1.8042
  680MOL0     H93821  11.377   5.626   7.942 -0.1855  0.3874  1.2012
  680MOL0     H93822  10.936   5.740   7.806  0.8172  0.3756 -4.3945
  680MOL0     H93823  10.713   5.896   7.793 -0.0455 -1.3870  0.9258
  680MOL0     H93824   8.924   6.062   7.972  0.1089 -0.2755 -1.2961
  680MOL0     H93825   8.708   6.108   8.068  2.0457 -1.2080  2.8901
  680MOL0     H93826   8.166   5.945   7.787 -1.2576  1.6624 -1.6894
  680MOL0     H93827   7.981   6.074   7.765  1.0003 -1.5378 -0.0853
  680MOL0     H93828   7.910   6.429   8.036 -1.0296 -1.2536  0.3118
  680MOL0     H93829   7.959   6.422   7.857 -0.8017  0.3696  0.1637
  680MOL0     H93830   7.738   6.433   7.788 -2.0318  1.7029 -0.1718
  680MOL0     H93831   7.782   6.566   7.910  1.9802 -0.7937  2.1658
  680MOL0     H93832   7.616   6.332   7.992  1.1489 -1.0417 -0.9770
  680MOL0     H93833   7.658   6.465   8.088 -4.0748 -3.6224  2.2223
  680MOL0     H93834   7.436   6.499   7.997 -1.2603  3.4309 -0.5558
  680MOL0     H93835   7.488   6.463   7.834 -0.5039  0.1084 -0.0499
  680MOL0     H93836   7.593   6.871   7.822  1.8439 -0.0027 -1.6623
  680MOL0     H93837   8.069   6.272   8.146  2.5986  0.5052  1.5489
  680MOL0     H93838   8.390   6.176   8.161 -0.2678  0.0734  0.0367
  680MOL0     H93839   8.249   6.214   8.266  1.3080  1.1564 -0.3406
  680MOL0     H93840   8.299   6.044   8.244 -2.6883  0.0224  0.6055
  681MOL0     O93841   9.087   0.729   3.593  0.1183 -0.0222 -1.2036
  681MOL0     C93842   9.121   0.610   3.579  0.5221 -1.3909 -0.6545
  681MOL0     O93843   9.236   0.551   3.611  0.4021 -0.4364  0.2370
  681MOL0     C93844   9.349   0.631   3.639  0.4625  0.0172  0.1370
  681MOL0     C93845   9.339   0.725   3.746 -0.0146 -0.3222 -0.2699
  681MOL0     C93846   9.453   0.804   3.768  0.2464 -0.2824  0.2953
  681MOL0     C93847   9.574   0.779   3.698 -0.6040 -0.2059 -0.3543
  681MOL0     O93848   9.679   0.856   3.732  0.4128  0.0673 -1.1965
  681MOL0     C93849   9.800   0.793   3.751 -0.8261  0.2930  0.8180
  681MOL0     C93850   9.896   0.896   3.803  0.3626  0.2943 -0.3188
  681MOL0     C93851  10.012   0.822   3.872  0.3742  0.7110  0.0783
  681MOL0     C93852  10.136   0.915   3.902  0.4222  0.3401  0.2815
  681MOL0     C93853  10.244   0.892   3.802 -0.2756  0.4900  0.1390
  681MOL0     C93854  10.340   1.004   3.778  0.7037  0.2358 -0.1731
  681MOL0     C93855  10.378   1.059   3.916 -0.2743 -0.7244 -0.1282
  681MOL0     C93856  10.500   1.147   3.919 -0.4499 -0.3153  0.1193
  681MOL0     N93857  10.505   1.269   3.831 -0.6947  0.6537  0.1353
  681MOL0     C93858  10.519   1.396   3.881 -0.3736  0.3374 -0.5808
  681MOL0     C93859  10.543   1.476   3.775 -0.0440  0.2369  0.7697
  681MOL0     C93860  10.562   1.623   3.771  0.3949 -0.8762 -0.1739
  681MOL0     C93861  10.715   1.649   3.781 -0.7267 -0.5575 -0.1539
  681MOL0     C93862  10.780   1.619   3.914 -0.4174  0.3401  0.3880
  681MOL0     C93863  10.928   1.650   3.927 -0.6451 -0.6582  1.1262
  681MOL0     O93864  10.949   1.787   3.969  0.2634  0.4334  0.1573
  681MOL0     C93865  11.078   1.827   4.001  0.0407 -0.2421  0.0806
  681MOL0     C93866  11.091   1.932   4.094 -0.5539 -0.5704  0.1776
  681MOL0     C93867  11.217   1.987   4.131 -0.2544  0.7988 -0.1998
  681MOL0     C93868  11.227   2.094   4.233  1.0383 -0.0827 -0.4322
  681MOL0     C93869  11.338   1.932   4.070 -0.0180  0.4203  0.4688
  681MOL0     C93870  11.476   1.988   4.089  0.5825  0.1196 -0.4062
  681MOL0     O93871  11.489   2.107   4.150  0.4695 -0.2082 -0.6483
  681MOL0     C93872  11.614   2.157   4.153 -0.2950  0.0141  0.4122
  681MOL0     C93873  11.718   2.096   4.227  0.1935 -0.2344 -0.1295
  681MOL0     C93874  11.842   2.147   4.229  0.0622  0.2359  0.3160
  681MOL0     C93875  11.882   2.262   4.159  0.6036  0.6090  0.1038
  681MOL0     O93876  12.007   2.309   4.176  0.1477 -0.2445 -0.9019
  681MOL0     C93877  12.049   2.419   4.100 -0.1469 -0.2463 -0.6575
  681MOL0     C93878  12.203   2.435   4.112  0.3234 -0.4822  0.1039
  681MOL0     C93879  12.245   2.500   4.244  0.5876  0.3016  0.9719
  681MOL0     C93880  12.386   2.534   4.221 -0.9349 -0.1195  0.0955
  681MOL0     C93881  12.458   2.594   4.346  0.6220  0.0900  0.0860
  681MOL0     C93882  12.586   2.664   4.297 -0.0112  0.5680 -0.1721
  681MOL0     C93883  12.648   2.715   4.414 -0.0722  0.5021  0.4814
  681MOL0     C93884  12.761   2.817   4.386 -0.4287 -0.7909 -0.0546
  681MOL0    Cl93885  12.674   2.963   4.311  0.1845  0.0094  0.1910
  681MOL0     C93886  11.779   2.323   4.080  0.3742 -0.1376 -0.5270
  681MOL0     C93887  11.647   2.274   4.079  0.4232 -0.1872 -0.3754
  681MOL0     O93888  11.572   1.910   4.067  0.6603  0.4530  0.8109
  681MOL0     C93889  11.328   1.832   3.973  0.9605 -0.0312 -0.0263
  681MOL0     C93890  11.198   1.774   3.941  0.0772 -0.3423 -0.2206
  681MOL0     N93891  10.546   1.387   3.666  0.4669 -0.1799 -0.7627
  681MOL0     N93892  10.522   1.265   3.695 -0.1380  0.2680  0.4580
  681MOL0     C93893   9.580   0.677   3.602  0.3582  0.2229 -0.6529
  681MOL0     C93894   9.462   0.609   3.571 -1.0256  0.1548 -0.0157
  681MOL0     C93895   9.012   0.518   3.535 -0.0783  0.0657  1.2497
  681MOL0     C93896   9.008   0.390   3.597  1.2317 -0.0207 -0.2165
  681MOL0     C93897   8.916   0.289   3.558  0.7164 -0.3299  0.2843
  681MOL0     C93898   8.819   0.313   3.468 -0.1513 -0.3994  0.3856
  681MOL0     O93899   8.730   0.216   3.431 -0.0943 -0.0077  0.1397
  681MOL0     C93900   8.754   0.080   3.484 -1.3318  0.0180  0.9899
  681MOL0     C93901   8.671  -0.025   3.413 -0.1765 -0.4374  0.2688
  681MOL0     C93902   8.520  -0.013   3.467  0.3053  0.2805 -1.0121
  681MOL0     C93903   8.429  -0.072   3.358 -0.4868  0.2516 -0.1370
  681MOL0     C93904   8.288  -0.051   3.378  0.4159  0.6149 -0.2445
  681MOL0     C93905   8.173  -0.029   3.410 -0.2646 -0.2314  0.1332
  681MOL0     C93906   8.819   0.437   3.411 -1.0873  0.1373 -0.0354
  681MOL0     C93907   8.913   0.543   3.433  0.4011 -0.6805 -0.3328
  681MOL0     C93908   8.889   0.676   3.381 -0.2427  0.2194  0.5286
  681MOL0     H93909   9.245   0.744   3.796  0.2903 -0.3710  0.3296
  681MOL0     H93910   9.453   0.886   3.839 -3.3200 -0.1135  0.2769
  681MOL0     H93911   9.836   0.748   3.658  0.2622 -0.7429  1.6993
  681MOL0     H93912   9.798   0.710   3.822  1.6492 -0.1870  0.4190
  681MOL0     H93913   9.927   0.966   3.725 -1.5376 -0.2019 -1.6244
  681MOL0     H93914   9.838   0.953   3.877 -2.8823 -1.8692 -0.9431
  681MOL0     H93915   9.974   0.792   3.970  0.1637  1.6254  0.2900
  681MOL0     H93916  10.039   0.735   3.811  3.2725  0.1096  1.9825
  681MOL0     H93917  10.104   1.019   3.903 -0.4670  0.0764  1.2714
  681MOL0     H93918  10.168   0.890   4.003 -1.5789 -0.0662  0.8567
  681MOL0     H93919  10.190   0.871   3.709 -0.3736 -1.2038  0.5377
  681MOL0     H93920  10.294   0.798   3.826 -2.8356 -0.7537  1.0001
  681MOL0     H93921  10.424   0.958   3.726 -0.5305 -3.0024  0.4908
  681MOL0     H93922  10.300   1.084   3.716  0.8876 -1.1295 -2.1320
  681MOL0     H93923  10.397   0.978   3.988  1.9061  0.9015  1.2126
  681MOL0     H93924  10.293   1.118   3.951 -1.0235  0.4064 -3.5246
  681MOL0     H93925  10.510   1.177   4.024 -3.0186 -2.0259  0.9525
  681MOL0     H93926  10.590   1.090   3.896 -0.3615  0.3361 -1.2974
  681MOL0     H93927  10.511   1.428   3.984 -1.9174 -0.6647 -0.3597
  681MOL0     H93928  10.517   1.669   3.859  1.2917  0.7533 -0.5288
  681MOL0     H93929  10.509   1.667   3.685 -1.5016 -2.2840  0.2093
  681MOL0     H93930  10.776   1.600   3.706 -0.9659  0.7386 -1.2363
  681MOL0     H93931  10.736   1.755   3.767 -1.7255 -0.0014  1.9652
  681MOL0     H93932  10.720   1.665   3.994  0.2579  1.5534  0.2319
  681MOL0     H93933  10.774   1.510   3.922 -0.1118  0.3998  1.6453
  681MOL0     H93934  10.975   1.586   4.003  1.4255 -0.0116  0.4393
  681MOL0     H93935  10.969   1.631   3.828 -0.8630 -0.7524  1.0534
  681MOL0     H93936  11.010   1.983   4.145  1.3784  0.4203  2.4694
  681MOL0     H93937  11.124   2.111   4.267  1.1466  1.3844 -0.7952
  681MOL0     H93938  11.261   2.190   4.194 -1.1981  1.4034  1.0398
  681MOL0     H93939  11.282   2.059   4.320 -0.6607 -4.2069 -0.7526
  681MOL0     H93940  11.706   2.009   4.290  1.5558  0.0300  0.5330
  681MOL0     H93941  11.917   2.097   4.291 -2.7925 -1.2909  2.8406
  681MOL0     H93942  12.031   2.400   3.994  1.6252 -1.1942 -0.8245
  681MOL0     H93943  11.999   2.509   4.137 -0.3854  0.1235 -1.8511
  681MOL0     H93944  12.253   2.339   4.102  2.7501  0.5747  1.3605
  681MOL0     H93945  12.238   2.496   4.029  0.3148  2.6155  2.1969
  681MOL0     H93946  12.243   2.430   4.328 -3.9342  0.5337  1.2929
  681MOL0     H93947  12.182   2.589   4.253  1.2090  1.3977 -3.2613
  681MOL0     H93948  12.390   2.617   4.150 -0.0126 -1.4296 -1.4495
  681MOL0     H93949  12.447   2.456   4.176 -0.1293  0.4989  0.0891
  681MOL0     H93950  12.392   2.671   4.386  0.5307 -0.5064  1.1206
  681MOL0     H93951  12.481   2.511   4.414 -0.8572 -1.6208 -1.4142
  681MOL0     H93952  12.565   2.752   4.235  2.3480  0.8291 -0.6841
  681MOL0     H93953  12.644   2.599   4.233 -1.4852 -0.6772 -0.2987
  681MOL0     H93954  12.687   2.631   4.472  1.9308  0.8572 -0.2895
  681MOL0     H93955  12.577   2.760   4.485 -1.1550  0.3625 -0.4878
  681MOL0     H93956  12.825   2.778   4.306 -1.8980 -1.7060 -0.8280
  681MOL0     H93957  12.822   2.843   4.473  1.3762  0.6071 -1.6331
  681MOL0     H93958  11.803   2.397   4.004  1.2552 -0.4848 -0.5923
  681MOL0     H93959  11.567   2.316   4.018 -0.2802 -1.2810 -0.2292
  681MOL0     H93960  11.415   1.786   3.925  2.5311  1.1474  1.5712
  681MOL0     H93961  11.193   1.699   3.863 -0.4030  0.6413 -1.1718
  681MOL0     H93962   9.676   0.657   3.555  2.3625  1.3232  2.6255
  681MOL0     H93963   9.454   0.536   3.491  1.0174  3.5990 -3.7258
  681MOL0     H93964   9.074   0.349   3.673 -1.4254 -3.4437  0.5139
  681MOL0     H93965   8.925   0.196   3.614  2.2058  0.3925  1.2996
  681MOL0     H93966   8.858   0.051   3.465 -0.5569  1.2405  3.0559
  681MOL0     H93967   8.742   0.068   3.592  0.4069  0.8532  1.3024
  681MOL0     H93968   8.714  -0.122   3.438  0.4126 -0.2925 -0.1696
  681MOL0     H93969   8.676  -0.011   3.305 -1.1598 -0.2041  0.2379
  681MOL0     H93970   8.525  -0.082   3.552 -1.7127  3.1480  1.6718
  681MOL0     H93971   8.495   0.087   3.504  1.6588  0.6071 -0.9009
  681MOL0     H93972   8.440  -0.181   3.367  2.4900  0.5210  0.4931
  681MOL0     H93973   8.469  -0.046   3.260 -1.1448  3.2264  0.2937
  681MOL0     H93974   8.080  -0.030   3.463  0.9440 -0.7751  2.4121
  681MOL0     H93975   8.737   0.456   3.342 -1.7353  3.3156  1.4335
  681MOL0     H93976   8.843   0.736   3.459  0.4840 -0.2437  1.3269
  681MOL0     H93977   8.985   0.720   3.350  2.7858 -4.6373  1.8362
  681MOL0     H93978   8.825   0.665   3.293 -2.4770  0.4959  2.0349
  682MOL0     O93979   5.747   9.031   3.937 -0.0912 -0.3412  0.1860
  682MOL0     C93980   5.675   8.965   4.016 -0.7248 -0.1567 -0.4487
  682MOL0     O93981   5.716   8.917   4.139 -0.2778 -0.7490  0.0864
  682MOL0     C93982   5.845   8.902   4.154 -0.5566 -0.1287 -0.2337
  682MOL0     C93983   5.920   9.012   4.191  0.0262 -0.6009 -0.4168
  682MOL0     C93984   6.063   9.004   4.192 -0.1424  0.9854 -0.3317
  682MOL0     C93985   6.134   8.891   4.167  0.9263 -0.0880 -0.2451
  682MOL0     O93986   6.266   8.889   4.178 -0.1148  0.2883  0.3852
  682MOL0     C93987   6.332   8.763   4.153 -0.6463  0.1177  0.3232
  682MOL0     C93988   6.486   8.793   4.175  0.1071 -0.7951  0.3205
  682MOL0     C93989   6.547   8.853   4.048 -1.6779  0.4408  1.1227
  682MOL0     C93990   6.702   8.836   4.047 -0.1148  0.3728 -0.2053
  682MOL0     C93991   6.780   8.931   3.951 -0.3570 -0.2298  0.4245
  682MOL0     C93992   6.931   8.914   3.952  0.2065 -0.1142 -0.4501
  682MOL0     C93993   7.001   8.998   3.842 -0.0141 -0.4993 -0.7667
  682MOL0     C93994   7.157   9.000   3.840  0.0162 -0.0705  1.2900
  682MOL0     N93995   7.220   8.873   3.789 -0.0201  0.2117  0.2669
  682MOL0     C93996   7.202   8.823   3.660 -0.6624 -0.4648  0.1601
  682MOL0     C93997   7.278   8.714   3.656 -0.3380 -0.0186 -0.2705
  682MOL0     C93998   7.312   8.640   3.523 -0.0661  0.3948 -0.2374
  682MOL0     C93999   7.462   8.605   3.512 -0.7716  0.9278  0.6957
  682MOL0     C94000   7.510   8.569   3.371 -0.7078  0.2507  0.4592
  682MOL0     C94001   7.660   8.546   3.352 -0.1093  0.9551  0.8829
  682MOL0     O94002   7.676   8.520   3.212 -0.2016 -1.1211 -0.2927
  682MOL0     C94003   7.777   8.567   3.144  0.1613  0.4919  0.0274
  682MOL0     C94004   7.910   8.584   3.189 -0.1296  0.0444 -0.1313
  682MOL0     C94005   8.006   8.634   3.100  0.6959 -0.4486 -0.5541
  682MOL0     C94006   8.142   8.643   3.149 -0.4722  1.0281  0.1648
  682MOL0     C94007   7.967   8.662   2.968 -0.2373 -0.1642 -0.2606
  682MOL0     C94008   8.067   8.699   2.863  0.3820 -0.5375 -0.0526
  682MOL0     O94009   8.005   8.771   2.750 -0.1044 -0.1124 -0.1184
  682MOL0     C94010   8.094   8.824   2.656  1.1819 -0.6131 -0.3413
  682MOL0     C94011   8.140   8.954   2.666 -0.5381  0.0219 -0.3590
  682MOL0     C94012   8.229   9.003   2.571  0.3761 -0.4485  0.0906
  682MOL0     C94013   8.275   8.929   2.457  0.0134 -0.8312  0.0121
  682MOL0     O94014   8.363   8.989   2.367  0.2566 -0.3848 -0.0934
  682MOL0     C94015   8.413   8.915   2.251 -0.2135 -0.0283 -0.0543
  682MOL0     C94016   8.539   8.857   2.308  0.2524  0.9509 -0.5715
  682MOL0     C94017   8.608   8.781   2.200 -0.2233 -0.0158  0.2027
  682MOL0     C94018   8.727   8.695   2.238  0.1365 -0.5334 -0.5989
  682MOL0     C94019   8.783   8.610   2.112  0.1559  0.1123 -1.1498
  682MOL0     C94020   8.889   8.519   2.162  0.0616  0.2167 -0.4821
  682MOL0     C94021   8.845   8.379   2.211  0.6346 -0.4624 -0.9000
  682MOL0     C94022   8.948   8.267   2.196 -0.5341  0.3775 -0.4036
  682MOL0    Cl94023   8.937   8.188   2.042  0.5477  0.0449  0.2170
  682MOL0     C94024   8.213   8.804   2.448 -0.2717 -0.2746  0.2295
  682MOL0     C94025   8.128   8.758   2.545 -0.4294  0.0566 -0.7691
  682MOL0     O94026   8.191   8.678   2.878 -0.4635  0.2541  0.2407
  682MOL0     C94027   7.835   8.641   2.924  0.2147  0.6684 -0.4293
  682MOL0     C94028   7.742   8.596   3.019 -0.3174  0.1937 -0.1732
  682MOL0     N94029   7.330   8.692   3.778 -0.5132  0.4444 -0.2443
  682MOL0     N94030   7.291   8.786   3.856  0.1634 -0.0647  0.0842
  682MOL0     C94031   6.060   8.775   4.139  0.0970  0.3444  0.6149
  682MOL0     C94032   5.921   8.784   4.131 -0.2296 -0.8130  0.0832
  682MOL0     C94033   5.529   8.952   3.984 -0.0398  0.1042  0.0577
  682MOL0     C94034   5.445   8.898   4.094 -0.4322 -0.1223  0.1706
  682MOL0     C94035   5.314   8.883   4.072  0.4393 -0.0961 -0.6013
  682MOL0     C94036   5.254   8.919   3.956 -0.1001 -0.3386  0.5151
  682MOL0     O94037   5.121   8.916   3.941 -0.2176 -1.0671  0.1265
  682MOL0     C94038   5.089   8.771   3.940 -0.2301 -1.0913 -0.3993
  682MOL0     C94039   4.958   8.747   3.859 -0.3506 -0.2065 -0.5826
  682MOL0     C94040   4.941   8.594   3.860  0.2129 -0.2820 -0.0524
  682MOL0     C94041   4.797   8.564   3.836 -0.1430 -0.2882 -0.2591
  682MOL0     C94042   4.776   8.417   3.824 -0.5101  0.0173 -0.8319
  682MOL0     C94043   4.770   8.300   3.808  0.9163 -0.4240 -0.2262
  682MOL0     C94044   5.330   8.967   3.847 -0.0187 -0.3730  0.4290
  682MOL0     C94045   5.470   8.981   3.861  0.6600 -0.3650  0.1578
  682MOL0     C94046   5.539   9.038   3.742 -0.0706  0.6884  0.2603
  682MOL0     H94047   5.875   9.110   4.206  1.7424 -0.0029  1.1407
  682MOL0     H94048   6.112   9.097   4.220  1.2948 -0.3011  1.7735
  682MOL0     H94049   6.298   8.736   4.053  3.3106  2.6533 -1.9659
  682MOL0     H94050   6.298   8.687   4.224 -3.8462 -1.1762 -2.3598
  682MOL0     H94051   6.502   8.863   4.257  2.0550 -1.3336  0.4481
  682MOL0     H94052   6.541   8.703   4.206  2.1792  0.6064  0.8992
  682MOL0     H94053   6.510   8.813   3.953 -1.4438  3.4659 -0.3632
  682MOL0     H94054   6.519   8.959   4.042  1.1150  1.2033  0.2964
  682MOL0     H94055   6.737   8.864   4.147 -1.4250 -0.3195  0.4632
  682MOL0     H94056   6.731   8.735   4.016  0.0665 -0.0963  1.3897
  682MOL0     H94057   6.758   9.035   3.977 -1.0004 -0.9075  2.8454
  682MOL0     H94058   6.738   8.903   3.854  2.5988 -2.5681 -0.3195
  682MOL0     H94059   6.967   8.932   4.054  0.7493 -0.7832 -0.5173
  682MOL0     H94060   6.947   8.808   3.928 -0.9732 -0.5303  0.5159
  682MOL0     H94061   6.969   9.100   3.861 -0.1609 -0.8944  1.3606
  682MOL0     H94062   6.965   8.971   3.742 -0.6784  0.7515 -0.8836
  682MOL0     H94063   7.188   9.079   3.771 -0.6334  0.1946  1.2936
  682MOL0     H94064   7.205   9.025   3.935  4.2617  1.8801 -1.0758
  682MOL0     H94065   7.163   8.879   3.575  0.9184  3.6412  1.9120
  682MOL0     H94066   7.297   8.712   3.441 -0.7960  1.4615  0.8025
  682MOL0     H94067   7.255   8.547   3.510  4.1533 -2.5457  0.3642
  682MOL0     H94068   7.513   8.699   3.538  2.2600  0.0892 -1.6126
  682MOL0     H94069   7.488   8.527   3.583  0.9940  1.8176  1.0916
  682MOL0     H94070   7.462   8.478   3.333  0.4832 -0.8098  1.3991
  682MOL0     H94071   7.481   8.649   3.302 -0.9496  0.1087  0.3926
  682MOL0     H94072   7.725   8.628   3.383  0.3965  1.2994 -1.0074
  682MOL0     H94073   7.686   8.458   3.413 -1.8704 -0.8834 -0.8693
  682MOL0     H94074   7.937   8.564   3.292  0.3309 -0.9967 -0.4439
  682MOL0     H94075   8.217   8.582   3.099 -0.3823  0.4218  1.0298
  682MOL0     H94076   8.147   8.601   3.250  1.5716 -2.2440 -1.1413
  682MOL0     H94077   8.175   8.747   3.155 -1.0660  1.2180  0.2132
  682MOL0     H94078   8.106   9.015   2.750  3.5764  1.1457  0.6835
  682MOL0     H94079   8.272   9.103   2.573 -0.8340  0.0960 -0.0745
  682MOL0     H94080   8.349   8.831   2.223  1.5325 -0.8097 -2.0026
  682MOL0     H94081   8.434   8.984   2.169  1.9545 -0.3958  0.1164
  682MOL0     H94082   8.596   8.943   2.345 -0.1669  0.7577  0.5577
  682MOL0     H94083   8.521   8.789   2.392  4.0669  1.0782  0.5688
  682MOL0     H94084   8.643   8.852   2.124 -0.1995 -2.8111 -2.6040
  682MOL0     H94085   8.529   8.718   2.158  1.0840 -2.6453  1.4505
  682MOL0     H94086   8.702   8.628   2.321 -0.0629  1.2043  0.8056
  682MOL0     H94087   8.798   8.767   2.280  0.0093 -0.7761  0.0368
  682MOL0     H94088   8.700   8.557   2.064 -0.6513  0.5587 -0.2677
  682MOL0     H94089   8.824   8.684   2.043  1.2500  1.3568  0.7453
  682MOL0     H94090   8.941   8.568   2.245 -1.1492 -0.2531  0.5908
  682MOL0     H94091   8.962   8.508   2.082 -0.1198 -0.9942 -0.5025
  682MOL0     H94092   8.751   8.356   2.160  0.0129 -0.1048  0.0611
  682MOL0     H94093   8.840   8.387   2.320 -0.0500  1.1663 -1.0290
  682MOL0     H94094   8.941   8.194   2.277  2.1606  1.7368  1.1960
  682MOL0     H94095   9.048   8.311   2.210  0.6023 -2.7173  2.3203
  682MOL0     H94096   8.244   8.746   2.362  0.5416  1.4456 -0.7136
  682MOL0     H94097   8.070   8.667   2.537 -5.0314  2.4572  0.9343
  682MOL0     H94098   7.796   8.663   2.825 -1.0612 -0.3503 -0.1710
  682MOL0     H94099   7.638   8.581   2.989 -1.3084 -1.5103  3.6001
  682MOL0     H94100   6.112   8.685   4.109  1.3973  1.2666 -0.0259
  682MOL0     H94101   5.867   8.693   4.111  0.0975 -0.8152 -0.8418
  682MOL0     H94102   5.486   8.875   4.192  1.4703 -1.3593 -0.8484
  682MOL0     H94103   5.264   8.841   4.158  0.2630 -0.1866 -0.7462
  682MOL0     H94104   5.175   8.705   3.922  0.0661 -1.0226  0.6971
  682MOL0     H94105   5.063   8.744   4.042 -1.4951  3.6929  0.8023
  682MOL0     H94106   4.966   8.806   3.767 -0.2857  2.3037  0.9345
  682MOL0     H94107   4.871   8.784   3.914 -1.4310 -2.6315 -0.5520
  682MOL0     H94108   5.011   8.545   3.791 -0.3772  1.9212 -2.4126
  682MOL0     H94109   4.967   8.553   3.958  1.2971 -0.5914 -0.4504
  682MOL0     H94110   4.769   8.604   3.739 -0.2081  0.3734  0.0274
  682MOL0     H94111   4.738   8.596   3.923  1.7009 -0.8265  1.2737
  682MOL0     H94112   4.768   8.193   3.803  3.8186 -0.6530  1.1515
  682MOL0     H94113   5.286   9.000   3.753 -0.6095 -0.1098  0.7900
  682MOL0     H94114   5.619   8.969   3.714  1.3180  1.8763  1.1335
  682MOL0     H94115   5.472   9.061   3.658 -0.3438  2.4959  0.9246
  682MOL0     H94116   5.582   9.136   3.768 -1.2348  1.0021  1.0787
  683MOL0     O94117   7.716   1.950   4.308  0.4051 -0.1511  0.4863
  683MOL0     C94118   7.654   2.051   4.352 -0.7812  0.7407 -0.1475
  683MOL0     O94119   7.703   2.146   4.435  0.2950 -0.2687 -0.0284
  683MOL0     C94120   7.831   2.156   4.472 -0.0426 -0.7327  0.1223
  683MOL0     C94121   7.945   2.144   4.386 -0.5744  0.0666  0.5552
  683MOL0     C94122   8.073   2.158   4.424 -0.8136 -0.3975 -0.6441
  683MOL0     C94123   8.098   2.182   4.564 -0.2354  0.0324  0.3634
  683MOL0     O94124   8.222   2.230   4.598 -0.5230 -0.1113  0.7642
  683MOL0     C94125   8.298   2.125   4.652  0.2598 -0.4395 -0.1764
  683MOL0     C94126   8.434   2.194   4.689 -0.3822  1.2333 -0.1278
  683MOL0     C94127   8.555   2.106   4.713  0.8547  0.2844 -0.4083
  683MOL0     C94128   8.564   2.062   4.871 -0.4834 -0.4076  0.7655
  683MOL0     C94129   8.697   1.993   4.896  0.2032  0.4106 -0.6247
  683MOL0     C94130   8.809   2.107   4.918  0.8024  0.1459  0.5936
  683MOL0     C94131   8.940   2.066   4.976 -0.5110 -0.3103  0.5519
  683MOL0     C94132   8.995   1.956   4.893 -0.2873  0.4657  0.4837
  683MOL0     N94133   9.131   1.929   4.934  0.0876 -0.4471  0.1017
  683MOL0     C94134   9.242   1.996   4.898 -0.7594  0.7732 -0.2257
  683MOL0     C94135   9.342   1.926   4.963  0.0678  0.8484 -0.1421
  683MOL0     C94136   9.488   1.956   4.949 -0.1388  0.8042  0.3272
  683MOL0     C94137   9.525   2.050   4.832  0.2446 -0.8817 -0.1803
  683MOL0     C94138   9.507   2.002   4.693  0.2138 -0.5128  0.0845
  683MOL0     C94139   9.555   2.115   4.595  0.3697  0.9454  0.6133
  683MOL0     O94140   9.456   2.218   4.600  0.2018  0.5205 -0.0410
  683MOL0     C94141   9.329   2.182   4.546  0.1040 -0.0757 -0.0952
  683MOL0     C94142   9.217   2.254   4.583 -0.4439  0.0415 -0.1628
  683MOL0     C94143   9.088   2.218   4.554 -0.3844 -0.5709 -0.1337
  683MOL0     C94144   8.974   2.300   4.607 -0.0370 -0.2842 -0.5874
  683MOL0     C94145   9.062   2.106   4.475  0.1485 -0.5042  0.2905
  683MOL0     C94146   8.921   2.052   4.445 -0.6791 -0.1233  0.4430
  683MOL0     O94147   8.891   2.067   4.310  0.2601 -0.5481 -0.0974
  683MOL0     C94148   8.763   2.057   4.256  0.2214  0.2795  0.0907
  683MOL0     C94149   8.665   1.964   4.293 -0.3140  0.2930 -0.3262
  683MOL0     C94150   8.535   1.972   4.233  0.3159  0.1266  0.2127
  683MOL0     C94151   8.516   2.059   4.125 -0.6551 -0.3497 -0.0550
  683MOL0     O94152   8.395   2.069   4.052 -0.6632 -0.0301 -0.5424
  683MOL0     C94153   8.281   1.994   4.094 -0.8090 -0.0935  0.0413
  683MOL0     C94154   8.162   1.992   3.999  0.6010 -0.2010  0.8345
  683MOL0     C94155   8.044   1.913   4.050  0.0843  0.7647 -0.5871
  683MOL0     C94156   7.914   1.910   3.965 -0.4603 -0.8805 -0.2962
  683MOL0     C94157   7.835   2.036   3.977 -0.0450  0.3582 -0.1121
  683MOL0     C94158   7.700   2.029   3.909  0.1260 -0.0052  0.4443
  683MOL0     C94159   7.606   2.145   3.942 -0.0349  0.2422  0.3124
  683MOL0     C94160   7.460   2.093   3.918 -0.7311 -0.1134  1.1032
  683MOL0    Cl94161   7.413   2.084   3.743  0.1033  0.2749  0.3769
  683MOL0     C94162   8.623   2.142   4.078 -0.5103 -0.1819 -0.6432
  683MOL0     C94163   8.742   2.137   4.148  0.7598  0.5837 -0.5770
  683MOL0     O94164   8.847   2.012   4.532 -0.6410  0.0271 -0.5496
  683MOL0     C94165   9.171   2.044   4.408  0.0802 -0.4118 -1.4927
  683MOL0     C94166   9.299   2.075   4.455 -0.0616  0.9141 -0.0192
  683MOL0     N94167   9.285   1.831   5.048  0.2143 -0.4441  0.1774
  683MOL0     N94168   9.153   1.832   5.023  0.0580 -0.6877 -0.1685
  683MOL0     C94169   7.990   2.196   4.653 -0.9569 -0.1621 -0.0485
  683MOL0     C94170   7.857   2.186   4.607 -0.6013 -0.0777  0.8145
  683MOL0     C94171   7.509   2.067   4.326 -0.0981 -0.3710 -0.8563
  683MOL0     C94172   7.448   2.189   4.361 -0.0537 -0.7045  0.2835
  683MOL0     C94173   7.310   2.216   4.328  0.4307 -0.3247  0.4185
  683MOL0     C94174   7.233   2.124   4.252  0.3521 -0.3084  0.2996
  683MOL0     O94175   7.095   2.131   4.211 -0.2529 -0.4032  0.1568
  683MOL0     C94176   7.021   2.236   4.272 -0.6494 -0.3301  0.0589
  683MOL0     C94177   6.875   2.209   4.246  0.2248  0.5063  0.3425
  683MOL0     C94178   6.835   2.223   4.100 -0.2688  0.1467 -0.4678
  683MOL0     C94179   6.838   2.373   4.054 -0.5021  0.0838 -0.1512
  683MOL0     C94180   6.860   2.387   3.909 -1.5382  0.1761  0.3613
  683MOL0     C94181   6.873   2.413   3.793  0.4114  1.1392 -0.1020
  683MOL0     C94182   7.292   2.005   4.218  0.1865  0.2122 -0.4612
  683MOL0     C94183   7.419   1.970   4.270  0.5447 -0.2646 -0.0453
  683MOL0     C94184   7.469   1.828   4.240  0.8984 -0.6274 -1.1811
  683MOL0     H94185   7.928   2.128   4.280  1.1319 -1.4581  0.4785
  683MOL0     H94186   8.151   2.159   4.349 -2.6123 -0.7459 -2.6018
  683MOL0     H94187   8.315   2.055   4.570  1.6369 -1.5216  0.9934
  683MOL0     H94188   8.250   2.065   4.730  1.0188 -1.0509 -0.1642
  683MOL0     H94189   8.457   2.260   4.605 -1.2915  2.1799  0.3441
  683MOL0     H94190   8.423   2.264   4.772 -3.8529 -2.2192  2.7264
  683MOL0     H94191   8.557   2.027   4.637  1.7856 -0.1061  0.0101
  683MOL0     H94192   8.650   2.158   4.697  1.5290 -0.9670 -0.5631
  683MOL0     H94193   8.543   2.151   4.930  0.9830  0.9417 -0.6437
  683MOL0     H94194   8.486   1.992   4.899 -1.3571  0.4247  0.4650
  683MOL0     H94195   8.720   1.926   4.813  2.3366 -0.1353  0.3476
  683MOL0     H94196   8.688   1.936   4.989 -0.6158 -0.2964 -1.1237
  683MOL0     H94197   8.834   2.154   4.822  0.3426 -1.0839 -0.1446
  683MOL0     H94198   8.769   2.182   4.987 -0.8776 -0.7881  0.6918
  683MOL0     H94199   8.933   2.019   5.075 -0.6410 -3.2040 -0.7507
  683MOL0     H94200   9.005   2.153   4.989 -0.8499 -0.2149  1.8641
  683MOL0     H94201   8.927   1.872   4.907 -0.7405  0.9596  1.3799
  683MOL0     H94202   8.999   1.979   4.786  3.2269 -1.9439 -0.0707
  683MOL0     H94203   9.256   2.082   4.834 -1.8562  1.3033  0.2372
  683MOL0     H94204   9.543   1.862   4.937 -1.1514  0.3525 -1.0310
  683MOL0     H94205   9.511   2.016   5.038  3.4888  0.9516 -0.5285
  683MOL0     H94206   9.477   2.147   4.845 -0.2893 -1.5535  4.3425
  683MOL0     H94207   9.634   2.058   4.842  0.1347  2.8129 -0.6394
  683MOL0     H94208   9.567   1.910   4.683 -1.5765 -1.6446 -0.7078
  683MOL0     H94209   9.406   1.964   4.673  0.7454 -1.0538 -1.8100
  683MOL0     H94210   9.653   2.153   4.625  2.5939 -2.4697 -1.5727
  683MOL0     H94211   9.578   2.076   4.495  2.7899  2.8012  0.3657
  683MOL0     H94212   9.248   2.340   4.642  1.2214 -1.5884  1.4813
  683MOL0     H94213   8.980   2.316   4.715  2.0984  1.6127 -0.9069
  683MOL0     H94214   8.880   2.249   4.589 -0.4605 -0.6546  2.2990
  683MOL0     H94215   8.971   2.398   4.558  1.0793 -0.8767 -1.9407
  683MOL0     H94216   8.688   1.883   4.361  0.5145 -0.4504 -1.4765
  683MOL0     H94217   8.454   1.904   4.256 -1.3845  2.8355  2.9146
  683MOL0     H94218   8.302   1.887   4.094 -0.8974 -0.1114 -0.4377
  683MOL0     H94219   8.246   2.033   4.190 -0.2987 -0.1098  0.2407
  683MOL0     H94220   8.132   2.097   3.986  1.3116 -0.3182 -3.1797
  683MOL0     H94221   8.196   1.967   3.898 -1.1059  0.6716  0.0114
  683MOL0     H94222   8.015   1.956   4.146 -1.5617  2.3896 -1.7427
  683MOL0     H94223   8.074   1.809   4.064  2.4776  1.3426 -1.0429
  683MOL0     H94224   7.850   1.828   4.000 -2.9947  2.5259  4.1115
  683MOL0     H94225   7.941   1.895   3.860 -1.3126 -0.7024 -0.5460
  683MOL0     H94226   7.822   2.053   4.085  4.0441  0.5161  0.5226
  683MOL0     H94227   7.892   2.122   3.940 -2.7087  1.9463 -0.7682
  683MOL0     H94228   7.649   1.934   3.925 -2.9911  1.9367  3.4419
  683MOL0     H94229   7.715   2.039   3.801 -1.3172  1.0344  0.3081
  683MOL0     H94230   7.636   2.234   3.886  3.1459  1.5698  3.7578
  683MOL0     H94231   7.622   2.174   4.046 -0.0616 -0.9593  0.6715
  683MOL0     H94232   7.387   2.165   3.956  1.1813  2.2777  0.5128
  683MOL0     H94233   7.448   1.996   3.966  0.9797 -0.4538  0.9203
  683MOL0     H94234   8.599   2.199   3.989 -3.1001  1.0235  0.7066
  683MOL0     H94235   8.828   2.191   4.111  0.2269 -0.4361 -3.5400
  683MOL0     H94236   9.156   1.968   4.332 -2.7840 -0.1412 -1.3242
  683MOL0     H94237   9.364   1.995   4.419 -0.9465 -0.2425  0.8910
  683MOL0     H94238   8.006   2.236   4.753  0.2096  0.4463 -0.4684
  683MOL0     H94239   7.772   2.195   4.674 -1.0526 -1.5767  0.4826
  683MOL0     H94240   7.506   2.260   4.420  1.4102 -0.2353 -1.5849
  683MOL0     H94241   7.274   2.314   4.357  2.1024  1.0279 -1.7411
  683MOL0     H94242   7.036   2.240   4.380  1.4536  1.5305 -0.2325
  683MOL0     H94243   7.056   2.331   4.229 -1.3916  0.8376  1.9394
  683MOL0     H94244   6.812   2.279   4.302 -0.8143 -0.5855  0.5855
  683MOL0     H94245   6.851   2.105   4.274 -3.4409  0.4229 -2.2534
  683MOL0     H94246   6.905   2.157   4.049  1.8429  0.6349  1.5993
  683MOL0     H94247   6.735   2.185   4.076 -0.0320  0.2629 -1.7185
  683MOL0     H94248   6.906   2.430   4.118 -0.8046 -0.5102  0.7259
  683MOL0     H94249   6.740   2.422   4.063 -1.7285 -1.7257 -2.6032
  683MOL0     H94250   6.886   2.429   3.688 -2.5915  1.6169 -0.4782
  683MOL0     H94251   7.240   1.931   4.158  1.8552 -0.2727 -1.3465
  683MOL0     H94252   7.523   1.785   4.325  0.0947  1.5572  0.5323
  683MOL0     H94253   7.388   1.766   4.202  1.5916 -2.2694 -0.0713
  683MOL0     H94254   7.541   1.838   4.158 -2.1204 -0.8076 -4.0366
  684MOL0     O94255   0.156   1.993   1.937 -0.5519  0.3270 -0.2805
  684MOL0     C94256   0.132   2.007   1.815 -0.6422 -0.8000 -0.5150
  684MOL0     O94257   0.229   2.025   1.720  0.3232  0.2087 -0.3186
  684MOL0     C94258   0.357   2.041   1.760 -0.0182  0.4104 -0.7069
  684MOL0     C94259   0.416   2.164   1.779  0.1601  0.1713 -0.6031
  684MOL0     C94260   0.550   2.186   1.806 -0.2753 -0.3694  0.3252
  684MOL0     C94261   0.637   2.079   1.816  0.4690 -0.3441 -1.0055
  684MOL0     O94262   0.770   2.111   1.855 -0.1155 -0.7268 -0.0393
  684MOL0     C94263   0.849   2.006   1.903 -0.1199 -0.0071 -0.4953
  684MOL0     C94264   0.976   2.061   1.954 -0.9006  0.6257 -0.9430
  684MOL0     C94265   1.077   1.948   1.970  0.2218  0.2426  0.1000
  684MOL0     C94266   1.212   2.003   2.035 -0.1400 -0.1944 -0.0686
  684MOL0     C94267   1.318   1.901   2.064  0.0383 -0.3223  0.0619
  684MOL0     C94268   1.448   1.960   2.123  0.3172  0.2100  0.1282
  684MOL0     C94269   1.544   2.026   2.024 -0.5875  0.6256  0.1408
  684MOL0     C94270   1.654   2.091   2.103  0.3233  0.3623 -0.2235
  684MOL0     N94271   1.758   2.171   2.033 -0.1569  0.4213  0.9994
  684MOL0     C94272   1.889   2.133   2.011 -0.3896  0.2936 -0.4527
  684MOL0     C94273   1.942   2.235   1.942  0.5269  0.1670 -0.5850
  684MOL0     C94274   2.061   2.224   1.856  0.8892  0.0644 -0.4757
  684MOL0     C94275   2.193   2.211   1.928 -0.1187  0.5546 -0.4763
  684MOL0     C94276   2.214   2.065   1.986 -0.3299 -0.7206  0.3735
  684MOL0     C94277   2.348   2.064   2.058 -0.2854  0.0676 -0.3577
  684MOL0     O94278   2.327   2.147   2.174 -0.2021  0.0802 -0.5349
  684MOL0     C94279   2.445   2.166   2.245 -0.4106 -0.1817  0.0207
  684MOL0     C94280   2.574   2.122   2.226 -1.9020  0.5649  0.3827
  684MOL0     C94281   2.669   2.141   2.335  0.3444  0.5793 -0.6719
  684MOL0     C94282   2.805   2.082   2.318  0.4595 -0.0092 -0.9479
  684MOL0     C94283   2.627   2.202   2.460 -0.3059  0.0315  0.2596
  684MOL0     C94284   2.718   2.227   2.574 -0.3989 -0.1926  0.6723
  684MOL0     O94285   2.852   2.249   2.549 -0.8433  0.0277 -0.3306
  684MOL0     C94286   2.927   2.260   2.659  0.2000  0.2817  0.6314
  684MOL0     C94287   2.947   2.383   2.721  0.5441  0.0677  0.0069
  684MOL0     C94288   3.037   2.397   2.828  0.4235 -0.2799 -0.8005
  684MOL0     C94289   3.092   2.288   2.892 -0.2052  0.5381 -0.4921
  684MOL0     O94290   3.168   2.293   3.008  0.1513  0.0041 -0.8502
  684MOL0     C94291   3.244   2.415   3.028  0.3612 -0.2468 -1.1445
  684MOL0     C94292   3.347   2.382   3.141 -0.7465 -0.4455  0.1999
  684MOL0     C94293   3.300   2.389   3.287  0.0591  0.2166  0.0197
  684MOL0     C94294   3.407   2.339   3.383 -0.1494  0.6171 -0.7955
  684MOL0     C94295   3.342   2.336   3.527  0.0640 -0.5415  1.0032
  684MOL0     C94296   3.435   2.295   3.634 -0.9104  0.2853  0.0595
  684MOL0     C94297   3.366   2.296   3.771 -0.0020  0.2105  0.9393
  684MOL0     C94298   3.452   2.263   3.885  0.0590 -1.1619 -0.5966
  684MOL0    Cl94299   3.533   2.104   3.867  0.1289  0.0538  0.1237
  684MOL0     C94300   3.070   2.163   2.835  0.2395  0.1472 -0.8043
  684MOL0     C94301   2.993   2.155   2.722  0.3077  0.9382 -0.1950
  684MOL0     O94302   2.667   2.206   2.684 -0.0563  0.4794 -0.2952
  684MOL0     C94303   2.494   2.251   2.470  0.6395  0.1783  0.2275
  684MOL0     C94304   2.405   2.232   2.366 -0.4563  0.2163 -0.0269
  684MOL0     N94305   1.850   2.340   1.933  0.2977  0.3117 -0.1588
  684MOL0     N94306   1.742   2.299   1.992  0.1166 -1.0679 -0.6445
  684MOL0     C94307   0.586   1.950   1.810  0.7347  0.8127  0.0157
  684MOL0     C94308   0.447   1.935   1.774  0.3788 -0.9250 -0.7041
  684MOL0     C94309  -0.012   2.013   1.771 -0.3659 -0.2938  0.0901
  684MOL0     C94310  -0.033   2.045   1.633 -0.0359 -0.6419 -0.6839
  684MOL0     C94311  -0.159   2.085   1.592  0.2092  0.3776 -0.1319
  684MOL0     C94312  -0.271   2.077   1.677  0.1670 -0.1383 -0.8142
  684MOL0     O94313  -0.403   2.110   1.623 -0.6842 -0.2720  0.6598
  684MOL0     C94314  -0.511   2.088   1.702  0.0768 -0.1645 -0.1206
  684MOL0     C94315  -0.634   2.089   1.606 -0.5496 -0.2095  0.6255
  684MOL0     C94316  -0.764   2.037   1.670 -0.2300  0.3138 -0.4662
  684MOL0     C94317  -0.882   2.039   1.576 -0.3838  0.2779  0.7841
  684MOL0     C94318  -1.010   1.995   1.633 -1.4932 -0.4556 -0.7204
  684MOL0     C94319  -1.115   1.960   1.665  0.3830  0.2469 -0.3538
  684MOL0     C94320  -0.249   2.046   1.808  0.1324 -0.4160 -0.1146
  684MOL0     C94321  -0.121   2.010   1.863 -0.4094 -0.2280  0.2281
  684MOL0     C94322  -0.120   1.952   2.003  0.2491 -0.0140  0.2119
  684MOL0     H94323   0.358   2.256   1.768  1.9835  1.2836 -1.3526
  684MOL0     H94324   0.595   2.283   1.789 -0.6724 -0.5175 -1.8377
  684MOL0     H94325   0.862   1.938   1.819 -1.6066  1.4470 -1.9786
  684MOL0     H94326   0.800   1.953   1.985 -1.3679 -2.0767 -2.4849
  684MOL0     H94327   1.023   2.133   1.886 -1.9854  1.0975 -1.2045
  684MOL0     H94328   0.970   2.108   2.053  0.7102  1.1359 -1.0529
  684MOL0     H94329   1.024   1.877   2.034  1.0439 -0.6256 -0.1748
  684MOL0     H94330   1.106   1.906   1.874 -0.4425  2.4085 -1.1057
  684MOL0     H94331   1.253   2.080   1.969 -1.7823  1.1314  0.3696
  684MOL0     H94332   1.183   2.063   2.122 -0.6666 -1.8064  0.9101
  684MOL0     H94333   1.337   1.839   1.975 -0.4639 -1.0143  0.4244
  684MOL0     H94334   1.283   1.825   2.134 -0.7238 -0.1683 -0.1449
  684MOL0     H94335   1.415   2.027   2.204  0.1602 -0.5969  0.7441
  684MOL0     H94336   1.507   1.882   2.172  0.7891  2.1533  2.9497
  684MOL0     H94337   1.492   2.103   1.966  1.0214  2.4943  1.0375
  684MOL0     H94338   1.585   1.956   1.951  1.7793  0.4623  1.5197
  684MOL0     H94339   1.616   2.164   2.174  1.2839  1.0507 -0.3983
  684MOL0     H94340   1.698   2.015   2.169 -0.2230  0.6947  0.5415
  684MOL0     H94341   1.935   2.037   2.033 -1.3990 -0.2581 -0.6639
  684MOL0     H94342   2.070   2.312   1.792 -2.1436  0.9103  0.1326
  684MOL0     H94343   2.056   2.151   1.775 -1.5742 -0.4491  0.0659
  684MOL0     H94344   2.269   2.245   1.858 -1.1393  0.7542 -1.5232
  684MOL0     H94345   2.199   2.274   2.017  0.5801 -0.3350  0.1279
  684MOL0     H94346   2.140   2.032   2.059 -2.1568  1.2336 -0.4942
  684MOL0     H94347   2.225   2.004   1.895  4.0011  1.0322 -0.5343
  684MOL0     H94348   2.376   1.961   2.081  1.0539  0.3497 -0.6587
  684MOL0     H94349   2.426   2.110   1.996 -0.9259  0.9316 -0.5540
  684MOL0     H94350   2.600   2.070   2.134 -1.3403  0.3986  0.6366
  684MOL0     H94351   2.838   2.028   2.407 -3.1733  1.0928  1.3212
  684MOL0     H94352   2.884   2.150   2.286  1.1171 -0.4593 -0.3011
  684MOL0     H94353   2.800   2.007   2.237  0.2479 -0.4712 -0.5125
  684MOL0     H94354   2.897   2.468   2.676 -2.0051 -0.7065  1.1887
  684MOL0     H94355   3.051   2.496   2.870 -0.0378  0.7368 -2.9559
  684MOL0     H94356   3.311   2.428   2.942  3.6742  1.4382  1.4055
  684MOL0     H94357   3.193   2.503   3.069  2.4604  0.2995  0.5032
  684MOL0     H94358   3.375   2.276   3.149  0.0011 -0.1002  5.7092
  684MOL0     H94359   3.433   2.448   3.133 -0.9990 -0.0750  0.5408
  684MOL0     H94360   3.210   2.326   3.293 -0.5506  0.9013 -1.5551
  684MOL0     H94361   3.285   2.492   3.320  3.5839 -0.3009  4.1679
  684MOL0     H94362   3.487   2.414   3.392 -1.6136  1.9804  2.5484
  684MOL0     H94363   3.453   2.242   3.364 -0.4276  0.4815 -0.7789
  684MOL0     H94364   3.313   2.440   3.545  3.0248  0.5323  0.2084
  684MOL0     H94365   3.250   2.277   3.522 -0.3266  0.0700  0.9107
  684MOL0     H94366   3.521   2.363   3.636  1.1811 -2.2355  1.1875
  684MOL0     H94367   3.476   2.196   3.614  1.3571  1.1190  0.2877
  684MOL0     H94368   3.278   2.230   3.771  2.2493 -3.1242 -1.7264
  684MOL0     H94369   3.340   2.402   3.778  2.1414  0.6834  3.2036
  684MOL0     H94370   3.386   2.266   3.972  0.4986  2.5229 -0.2152
  684MOL0     H94371   3.531   2.338   3.899 -0.0579 -1.6105  4.0349
  684MOL0     H94372   3.112   2.076   2.885  0.8466  0.0355 -1.4854
  684MOL0     H94373   3.000   2.057   2.677  1.3698  0.1763  1.5223
  684MOL0     H94374   2.458   2.307   2.555 -4.6780 -0.4032 -1.2778
  684MOL0     H94375   2.307   2.275   2.381 -1.4842 -1.8420 -0.5465
  684MOL0     H94376   0.653   1.865   1.821 -2.3712 -1.6751  1.2250
  684MOL0     H94377   0.415   1.835   1.746 -0.0814 -1.3782  1.2887
  684MOL0     H94378   0.055   2.046   1.570  1.1266  1.2243  0.8343
  684MOL0     H94379  -0.167   2.109   1.486 -1.9129  0.3419 -0.0112
  684MOL0     H94380  -0.511   1.989   1.748  1.4303 -0.3232 -0.4212
  684MOL0     H94381  -0.511   2.165   1.780  1.0691  1.8198 -1.9756
  684MOL0     H94382  -0.608   2.022   1.524  0.1288 -0.7927  1.3054
  684MOL0     H94383  -0.646   2.191   1.569 -0.5275 -0.1232  0.8512
  684MOL0     H94384  -0.742   1.941   1.717  0.9879  1.4971  1.5000
  684MOL0     H94385  -0.793   2.114   1.742 -1.3988  1.4843 -2.1024
  684MOL0     H94386  -0.860   1.979   1.487  0.5229 -0.3243  1.4005
  684MOL0     H94387  -0.913   2.141   1.552  0.0531  0.9184  2.7390
  684MOL0     H94388  -1.214   1.927   1.689  0.0228  1.7377  0.2679
  684MOL0     H94389  -0.330   2.058   1.880  1.2884 -0.4873  1.2362
  684MOL0     H94390  -0.053   1.867   2.014  3.1344  1.6875 -2.5690
  684MOL0     H94391  -0.110   2.032   2.077 -1.3016  0.2348  0.1951
  684MOL0     H94392  -0.217   1.904   2.020  1.1643 -0.7258  4.6077
  685MOL0     O94393   3.699   6.270   5.579  0.5138 -0.2631  0.6114
  685MOL0     C94394   3.643   6.212   5.486 -1.0403 -0.1508  0.2334
  685MOL0     O94395   3.711   6.162   5.369  0.3395 -0.4827 -0.2552
  685MOL0     C94396   3.844   6.167   5.365 -0.8124 -0.3455 -0.3358
  685MOL0     C94397   3.909   6.248   5.261 -0.3677  0.3739  0.8364
  685MOL0     C94398   4.053   6.260   5.256  0.4759  0.2250 -0.0867
  685MOL0     C94399   4.131   6.190   5.354  0.2670  0.4300  0.7868
  685MOL0     O94400   4.271   6.204   5.342  0.2156 -0.0069  0.0014
  685MOL0     C94401   4.358   6.122   5.423  0.4210  0.1859 -0.3240
  685MOL0     C94402   4.503   6.162   5.384  0.1983  0.1931 -0.0968
  685MOL0     C94403   4.603   6.076   5.461  0.2050 -0.0087 -0.0395
  685MOL0     C94404   4.604   5.929   5.400  0.1006 -0.1160 -0.6961
  685MOL0     C94405   4.672   5.840   5.497  0.0424 -0.2599  0.6616
  685MOL0     C94406   4.699   5.707   5.442  0.8015  0.6104 -0.5258
  685MOL0     C94407   4.777   5.623   5.540  0.0190 -0.4140  0.0206
  685MOL0     C94408   4.791   5.471   5.501  1.0884 -1.1687 -0.5320
  685MOL0     N94409   4.892   5.400   5.560 -0.6460  0.5470  0.0612
  685MOL0     C94410   4.894   5.323   5.671 -0.9833  0.1616  0.2205
  685MOL0     C94411   5.020   5.292   5.693 -0.9356 -0.6139  0.4546
  685MOL0     C94412   5.080   5.207   5.796  0.0807 -0.5902  0.2759
  685MOL0     C94413   5.009   5.064   5.801 -0.0771 -0.3717  0.7424
  685MOL0     C94414   4.999   4.993   5.673  0.1276  0.0875 -0.0085
  685MOL0     C94415   5.130   4.947   5.619  0.1739  0.5607  0.2099
  685MOL0     O94416   5.227   4.894   5.721 -0.3376  0.1271 -0.0991
  685MOL0     C94417   5.345   4.846   5.683  0.4758 -0.0909 -0.6353
  685MOL0     C94418   5.370   4.814   5.552 -0.1603 -0.8190  0.8272
  685MOL0     C94419   5.488   4.756   5.508  0.2603  0.9253  0.1594
  685MOL0     C94420   5.502   4.719   5.366 -0.0760  0.4150  0.9507
  685MOL0     C94421   5.581   4.715   5.607 -0.3368 -0.2403 -1.1057
  685MOL0     C94422   5.713   4.637   5.596 -0.2288 -0.9473  0.0271
  685MOL0     O94423   5.792   4.634   5.715  0.4019  0.5345  0.2150
  685MOL0     C94424   5.922   4.579   5.720 -0.5671 -0.6893  0.6610
  685MOL0     C94425   5.974   4.546   5.840 -0.4537  0.1615 -0.5420
  685MOL0     C94426   6.097   4.476   5.854  0.2868 -0.2579 -1.0651
  685MOL0     C94427   6.179   4.449   5.750  0.1344  0.4264  0.3527
  685MOL0     O94428   6.308   4.401   5.778  0.4536  0.3124 -0.1286
  685MOL0     C94429   6.383   4.341   5.664 -0.1478  0.6035  0.2303
  685MOL0     C94430   6.533   4.332   5.697  0.0526 -0.1190  1.5495
  685MOL0     C94431   6.556   4.241   5.822  0.3364  0.4588  0.2705
  685MOL0     C94432   6.702   4.212   5.850 -0.2470 -0.1179  0.8894
  685MOL0     C94433   6.737   4.101   5.949 -0.1346  0.5318  1.1478
  685MOL0     C94434   6.732   3.959   5.888  0.0221 -0.1744 -0.0002
  685MOL0     C94435   6.849   3.931   5.790  0.0999  0.5710 -0.1588
  685MOL0     C94436   6.812   3.799   5.735  0.2248 -0.3205 -0.4389
  685MOL0    Cl94437   6.927   3.769   5.599  0.2190 -0.1268 -0.1653
  685MOL0     C94438   6.130   4.484   5.622  0.4635 -0.0609  0.2571
  685MOL0     C94439   6.007   4.544   5.608  0.1084 -0.0916 -0.4205
  685MOL0     O94440   5.730   4.574   5.490  0.2246 -0.4274  0.4325
  685MOL0     C94441   5.548   4.754   5.745 -0.4913 -0.6640  0.6459
  685MOL0     C94442   5.436   4.822   5.778  0.6086  0.3051  0.4683
  685MOL0     N94443   5.104   5.340   5.588  0.7122 -0.4833 -0.0412
  685MOL0     N94444   5.022   5.402   5.513 -0.3250  0.4561  0.8738
  685MOL0     C94445   4.066   6.112   5.451  0.0191  0.4557 -0.3041
  685MOL0     C94446   3.930   6.109   5.463  0.5588  1.2306 -0.1380
  685MOL0     C94447   3.494   6.181   5.493 -0.0329 -0.6566 -0.9775
  685MOL0     C94448   3.411   6.288   5.536  0.1684  0.5556  0.1025
  685MOL0     C94449   3.265   6.289   5.546 -0.0923  0.0050  0.3333
  685MOL0     C94450   3.208   6.161   5.512  1.1906 -0.1451 -0.0667
  685MOL0     O94451   3.071   6.137   5.517  0.0452 -0.3659 -0.0910
  685MOL0     C94452   2.978   6.234   5.571 -0.2013  0.1329 -0.4362
  685MOL0     C94453   2.840   6.167   5.557 -0.6944 -0.1991 -0.5368
  685MOL0     C94454   2.820   6.036   5.625  0.0781  0.7771  0.8154
  685MOL0     C94455   2.687   5.964   5.593 -0.6215 -0.0984  0.2842
  685MOL0     C94456   2.577   6.036   5.658 -0.3701  0.1074 -0.4513
  685MOL0     C94457   2.492   6.100   5.717 -0.4601 -0.6529  0.2943
  685MOL0     C94458   3.285   6.057   5.466  0.3720 -0.2908 -0.0342
  685MOL0     C94459   3.424   6.061   5.463 -0.7493 -0.4153  0.2497
  685MOL0     C94460   3.493   5.939   5.405 -0.9926 -0.1638  0.5245
  685MOL0     H94461   3.845   6.294   5.186  0.4672 -3.3666 -2.5395
  685MOL0     H94462   4.099   6.319   5.177 -3.0904  1.1631 -1.6538
  685MOL0     H94463   4.347   6.014   5.418  3.5525 -0.2831  0.8600
  685MOL0     H94464   4.341   6.149   5.528 -0.7216  0.1012 -0.4797
  685MOL0     H94465   4.510   6.149   5.276  1.0378 -2.0161  0.1775
  685MOL0     H94466   4.513   6.270   5.402 -4.1456  0.6941  0.4870
  685MOL0     H94467   4.707   6.109   5.454  0.4870 -1.0270 -0.9488
  685MOL0     H94468   4.570   6.073   5.565 -0.7787  1.1750 -0.2993
  685MOL0     H94469   4.508   5.891   5.365  0.3605 -0.9997 -0.4589
  685MOL0     H94470   4.672   5.919   5.315  1.1099 -1.5550  0.2393
  685MOL0     H94471   4.603   5.820   5.580  0.2383 -1.9086  0.4710
  685MOL0     H94472   4.763   5.892   5.526  0.4101 -0.9329  0.7392
  685MOL0     H94473   4.605   5.659   5.412  1.0580  0.6652 -1.4446
  685MOL0     H94474   4.762   5.705   5.353 -1.1456  0.8577 -1.9593
  685MOL0     H94475   4.723   5.632   5.635 -4.3890 -0.0608 -2.2436
  685MOL0     H94476   4.879   5.660   5.529  0.0712 -0.4683  0.3232
  685MOL0     H94477   4.696   5.417   5.506  0.7548 -0.6630 -1.2433
  685MOL0     H94478   4.815   5.471   5.395 -1.0973  1.5115 -1.1443
  685MOL0     H94479   4.805   5.304   5.730 -1.5351  2.6194  0.2977
  685MOL0     H94480   5.075   5.259   5.892 -3.9722  1.1726 -0.6528
  685MOL0     H94481   5.187   5.198   5.775 -0.1754 -2.0349 -0.5599
  685MOL0     H94482   5.065   5.006   5.875 -1.1359  0.9756  2.6939
  685MOL0     H94483   4.911   5.081   5.847  1.1534  2.6046  2.5919
  685MOL0     H94484   4.934   4.909   5.699 -2.1158  1.1343 -1.9285
  685MOL0     H94485   4.945   5.058   5.603 -2.5713 -2.6588 -0.6972
  685MOL0     H94486   5.107   4.879   5.536  1.4666  0.5513 -0.1551
  685MOL0     H94487   5.178   5.032   5.569 -1.1816 -0.1728 -2.4964
  685MOL0     H94488   5.306   4.843   5.469 -0.3552  1.9645  1.8507
  685MOL0     H94489   5.600   4.679   5.340 -0.5906 -0.4775  0.3115
  685MOL0     H94490   5.486   4.809   5.305  0.0001 -0.6068 -0.6368
  685MOL0     H94491   5.427   4.644   5.340 -0.3356  1.3530 -1.2564
  685MOL0     H94492   5.913   4.565   5.928  1.5925  0.1485  0.9430
  685MOL0     H94493   6.138   4.449   5.950  5.8642  1.8698 -2.4613
  685MOL0     H94494   6.343   4.241   5.647 -0.8436  0.8142  0.5909
  685MOL0     H94495   6.365   4.399   5.573 -2.6712  0.8142  0.7822
  685MOL0     H94496   6.585   4.281   5.616  1.8206 -1.0059  3.1538
  685MOL0     H94497   6.572   4.434   5.709  1.1230 -0.2498 -0.4107
  685MOL0     H94498   6.513   4.141   5.813  0.7607  0.3096 -0.1339
  685MOL0     H94499   6.511   4.291   5.908  0.0054 -0.0937  0.4245
  685MOL0     H94500   6.739   4.307   5.890  1.9227  0.3579 -1.9396
  685MOL0     H94501   6.739   4.202   5.747 -1.9696  0.7483  0.1586
  685MOL0     H94502   6.837   4.113   5.990 -0.2912  0.0013  1.7038
  685MOL0     H94503   6.669   4.109   6.034  1.0023 -0.6663  2.2142
  685MOL0     H94504   6.634   3.946   5.841 -0.1719  2.4052 -0.4697
  685MOL0     H94505   6.742   3.893   5.974 -0.0614 -0.2079 -0.0159
  685MOL0     H94506   6.948   3.923   5.835  0.1693 -3.4291 -0.6560
  685MOL0     H94507   6.847   3.997   5.703 -0.3762 -1.2892 -1.6156
  685MOL0     H94508   6.708   3.799   5.702  0.2480 -0.0874 -0.5136
  685MOL0     H94509   6.827   3.728   5.817  0.0596  0.1070 -0.0319
  685MOL0     H94510   6.190   4.471   5.532  1.3590 -0.0659  0.8362
  685MOL0     H94511   5.980   4.560   5.504 -0.2108 -0.1615 -0.3509
  685MOL0     H94512   5.615   4.731   5.828 -0.3675 -0.7458  0.5227
  685MOL0     H94513   5.427   4.869   5.875 -1.4737  0.4931  0.2230
  685MOL0     H94514   4.127   6.073   5.533 -3.0482 -0.9582  1.4673
  685MOL0     H94515   3.905   6.058   5.555  3.3448  2.4907  1.4587
  685MOL0     H94516   3.472   6.378   5.542 -0.1666  0.8171 -0.3328
  685MOL0     H94517   3.198   6.369   5.575  1.1871  0.1795  3.1696
  685MOL0     H94518   3.005   6.244   5.676 -1.8853 -2.7758  0.3820
  685MOL0     H94519   2.981   6.335   5.527 -2.8379  0.5272  0.1052
  685MOL0     H94520   2.816   6.153   5.451 -0.0684 -2.8764 -0.4087
  685MOL0     H94521   2.772   6.243   5.596  1.5665  1.9821 -0.5961
  685MOL0     H94522   2.898   5.962   5.606 -1.3442 -1.1168  1.8902
  685MOL0     H94523   2.826   6.047   5.734 -0.7196  2.7557  0.6926
  685MOL0     H94524   2.705   5.865   5.636  3.3180  1.2539  2.1968
  685MOL0     H94525   2.692   5.955   5.484  1.7234  2.0236  0.1193
  685MOL0     H94526   2.417   6.162   5.761 -3.3208 -1.5270 -2.9251
  685MOL0     H94527   3.237   5.963   5.439  1.6614 -0.9374 -0.1659
  685MOL0     H94528   3.584   5.911   5.460 -0.1670  1.6222  0.1500
  685MOL0     H94529   3.415   5.862   5.409 -2.5013  1.3546  1.6447
  685MOL0     H94530   3.517   5.952   5.300 -1.7297 -1.9838  0.0851
  686MOL0     O94531   6.513   7.003   9.372 -0.4343 -0.2544 -0.1248
  686MOL0     C94532   6.415   7.058   9.325  0.1094  0.5309  0.2048
  686MOL0     O94533   6.418   7.163   9.240  0.1566 -0.2538  0.0922
  686MOL0     C94534   6.530   7.235   9.207 -0.3311 -0.2187  0.5049
  686MOL0     C94535   6.653   7.248   9.271 -0.2304  0.2888  0.3753
  686MOL0     C94536   6.736   7.360   9.229 -0.8918  0.1846 -0.2405
  686MOL0     C94537   6.702   7.446   9.126  0.3687 -0.1289  0.0825
  686MOL0     O94538   6.791   7.539   9.083 -0.9339  0.3898 -0.1764
  686MOL0     C94539   6.765   7.587   8.943  0.0853  0.9293 -0.3650
  686MOL0     C94540   6.881   7.672   8.904 -0.7729  0.2623  0.2875
  686MOL0     C94541   6.866   7.740   8.767  0.2024 -0.8363 -0.1824
  686MOL0     C94542   6.854   7.888   8.785 -0.3375 -0.8636  0.3472
  686MOL0     C94543   6.819   7.965   8.659 -0.8043 -0.4937  0.6738
  686MOL0     C94544   6.929   7.938   8.547  0.3231 -0.2464  0.8301
  686MOL0     C94545   7.064   7.996   8.591  0.1845 -0.1865  0.9886
  686MOL0     C94546   7.175   8.009   8.484 -0.0078  0.2258 -0.1157
  686MOL0     N94547   7.304   8.058   8.537 -0.0410 -0.1778  0.4555
  686MOL0     C94548   7.329   8.176   8.598 -0.1887  0.3649 -1.1226
  686MOL0     C94549   7.458   8.175   8.635  0.3623 -0.2654 -0.1719
  686MOL0     C94550   7.519   8.299   8.700 -1.0214 -0.0143 -0.8979
  686MOL0     C94551   7.482   8.329   8.845 -0.3665  1.0499 -0.7097
  686MOL0     C94552   7.514   8.229   8.956 -0.3226 -0.2490  0.1711
  686MOL0     C94553   7.665   8.204   8.981 -0.1283  0.6250  0.7292
  686MOL0     O94554   7.689   8.133   9.107  0.0885  0.4157 -0.5137
  686MOL0     C94555   7.802   8.162   9.178 -1.0388  0.2284  0.6041
  686MOL0     C94556   7.785   8.169   9.314 -0.7033 -0.0709  0.7297
  686MOL0     C94557   7.886   8.201   9.403 -0.8753  0.2886  0.1331
  686MOL0     C94558   7.850   8.163   9.545  0.3510 -0.9352 -0.6394
  686MOL0     C94559   8.015   8.239   9.357  0.9520 -0.0482  0.6923
  686MOL0     C94560   8.127   8.274   9.442  0.8226  0.1531 -0.1654
  686MOL0     O94561   8.135   8.209   9.562  0.5998 -0.1176  0.2208
  686MOL0     C94562   8.242   8.237   9.636 -0.8746  0.0308 -0.0092
  686MOL0     C94563   8.356   8.156   9.644  0.1787 -0.4347  0.8246
  686MOL0     C94564   8.460   8.189   9.737 -0.1484 -0.2779  0.2602
  686MOL0     C94565   8.458   8.317   9.803 -0.4281 -0.6825  0.8578
  686MOL0     O94566   8.571   8.349   9.877  0.2549 -0.1845 -0.1070
  686MOL0     C94567   8.703   8.343   9.825  0.2482  0.1763  0.0289
  686MOL0     C94568   8.788   8.243   9.903  0.0326  0.3064  0.1273
  686MOL0     C94569   8.836   8.300  10.041 -0.0030 -0.8061  0.7431
  686MOL0     C94570   8.935   8.203  10.106 -0.4811 -0.0489 -0.2449
  686MOL0     C94571   8.997   8.274  10.230  0.1610 -0.0589  0.8371
  686MOL0     C94572   9.068   8.176  10.327 -0.4951 -0.1677 -0.2018
  686MOL0     C94573   9.155   8.068  10.258 -0.6210  0.1661  0.1387
  686MOL0     C94574   9.292   8.120  10.225  0.1082 -0.1892  0.5150
  686MOL0    Cl94575   9.374   8.213  10.349  0.5615  0.2956 -0.1154
  686MOL0     C94576   8.343   8.401   9.794 -1.2927 -0.1564 -0.0126
  686MOL0     C94577   8.232   8.348   9.722  0.2015 -0.1795 -0.0457
  686MOL0     O94578   8.206   8.366   9.406  0.4039  0.2778 -0.2016
  686MOL0     C94579   8.035   8.236   9.212  0.3340  0.0280 -0.2613
  686MOL0     C94580   7.930   8.190   9.126 -0.0659 -0.2614 -0.0114
  686MOL0     N94581   7.517   8.060   8.583 -0.5506 -0.4416  0.0338
  686MOL0     N94582   7.420   7.989   8.527 -0.9549 -0.2630 -0.2537
  686MOL0     C94583   6.586   7.431   9.056  1.0397 -0.9023 -0.4885
  686MOL0     C94584   6.506   7.325   9.104  0.8065  0.1312 -0.2519
  686MOL0     C94585   6.280   6.997   9.354  0.3283  0.2591  0.4605
  686MOL0     C94586   6.172   7.063   9.284 -0.1138  0.0600 -0.0084
  686MOL0     C94587   6.032   7.032   9.319  0.1616 -0.6333  0.1891
  686MOL0     C94588   5.998   6.941   9.415  0.2353 -0.1494 -0.6268
  686MOL0     O94589   5.860   6.916   9.444  0.4305  0.4972  0.0488
  686MOL0     C94590   5.755   7.011   9.417 -0.7723 -0.4209 -0.0423
  686MOL0     C94591   5.616   6.962   9.463 -0.5404  0.2223  1.0525
  686MOL0     C94592   5.594   6.916   9.611 -0.3042  0.3517  0.6415
  686MOL0     C94593   5.446   6.878   9.630  0.8109  0.1181  0.3998
  686MOL0     C94594   5.432   6.821   9.765  0.4211  0.1357  0.4302
  686MOL0     C94595   5.405   6.782   9.877 -1.0385  0.1176 -0.6405
  686MOL0     C94596   6.108   6.871   9.474 -0.2564  0.0014  0.6422
  686MOL0     C94597   6.244   6.900   9.452 -0.7374  0.4131  0.0385
  686MOL0     C94598   6.349   6.813   9.523 -0.4354 -0.4985 -0.1629
  686MOL0     H94599   6.683   7.185   9.355  0.5436  0.3647  0.1654
  686MOL0     H94600   6.831   7.382   9.277 -1.3607 -1.6433  1.6169
  686MOL0     H94601   6.680   7.656   8.934 -0.3290  0.2111 -2.4576
  686MOL0     H94602   6.756   7.502   8.875 -1.8882 -0.9640  2.0528
  686MOL0     H94603   6.894   7.748   8.982  1.7077 -1.1209  1.3375
  686MOL0     H94604   6.977   7.620   8.912  0.9085  2.2173 -4.0628
  686MOL0     H94605   6.950   7.723   8.700  1.0081  3.9397 -0.7094
  686MOL0     H94606   6.772   7.704   8.722 -1.4286  0.3168  2.1293
  686MOL0     H94607   6.790   7.920   8.869  0.5094 -1.2088  1.1441
  686MOL0     H94608   6.948   7.925   8.828 -0.2074  0.8254 -1.2828
  686MOL0     H94609   6.810   8.071   8.682  0.3077  0.2182 -1.9070
  686MOL0     H94610   6.721   7.928   8.628 -1.7238  1.8541  0.6195
  686MOL0     H94611   6.944   7.833   8.523  1.2318  0.3830 -1.6639
  686MOL0     H94612   6.886   7.981   8.456  0.7528 -0.7704  0.3718
  686MOL0     H94613   7.113   7.939   8.671 -0.6124 -1.7722  0.3961
  686MOL0     H94614   7.038   8.099   8.615  0.2711  0.3998 -1.1650
  686MOL0     H94615   7.200   7.907   8.456 -0.7637 -0.4811  1.6402
  686MOL0     H94616   7.142   8.068   8.398 -0.3115 -0.1969 -0.2920
  686MOL0     H94617   7.262   8.257   8.627  0.7690  0.5552  0.6848
  686MOL0     H94618   7.490   8.387   8.642  1.4290  1.7443  0.3818
  686MOL0     H94619   7.627   8.283   8.698 -0.5566  2.4396  0.3802
  686MOL0     H94620   7.515   8.431   8.865  0.8981  0.8700 -1.7678
  686MOL0     H94621   7.373   8.337   8.848 -0.3844  0.6013  0.6210
  686MOL0     H94622   7.464   8.276   9.041 -0.4538  3.4726 -1.7849
  686MOL0     H94623   7.469   8.133   8.929 -2.2789  0.9288 -0.9977
  686MOL0     H94624   7.705   8.141   8.902 -0.0796 -1.6653  2.4826
  686MOL0     H94625   7.716   8.299   8.965 -0.3878  0.6887  0.2701
  686MOL0     H94626   7.687   8.130   9.337 -1.6796  1.1007 -1.1756
  686MOL0     H94627   7.741   8.169   9.546  0.3953  0.0536 -0.1903
  686MOL0     H94628   7.877   8.237   9.621  0.2671  2.6812 -3.8099
  686MOL0     H94629   7.881   8.063   9.574  0.6031 -1.2053 -1.7901
  686MOL0     H94630   8.385   8.065   9.592 -1.8523 -0.0648 -1.0848
  686MOL0     H94631   8.544   8.122   9.752  1.6049  1.9146  0.7927
  686MOL0     H94632   8.691   8.318   9.719 -2.1035  3.2018 -0.5594
  686MOL0     H94633   8.742   8.445   9.822  1.2396 -0.2136 -1.7412
  686MOL0     H94634   8.734   8.148   9.902 -2.1125  1.4417 -1.7750
  686MOL0     H94635   8.877   8.228   9.841 -0.0930 -0.5192  0.1369
  686MOL0     H94636   8.744   8.317  10.099  0.8945  3.0189  1.3477
  686MOL0     H94637   8.885   8.396  10.024  1.5551 -1.7546 -0.3964
  686MOL0     H94638   9.006   8.174  10.029  1.0908  0.8689  0.7915
  686MOL0     H94639   8.880   8.114  10.138  1.1943 -0.9639  0.2042
  686MOL0     H94640   9.076   8.340  10.191 -2.1333  1.5917 -1.3640
  686MOL0     H94641   8.928   8.341  10.282  1.5457  0.8212  1.6234
  686MOL0     H94642   8.993   8.116  10.379 -1.6124 -0.6786 -2.2847
  686MOL0     H94643   9.119   8.234  10.405 -0.5403  1.4078 -1.3050
  686MOL0     H94644   9.110   8.015  10.174  0.7542  0.1446 -0.6151
  686MOL0     H94645   9.170   7.986  10.329 -0.1651 -0.9505 -1.2053
  686MOL0     H94646   9.278   8.193  10.145 -0.5794  1.1824  1.8355
  686MOL0     H94647   9.353   8.037  10.188  0.6237  1.1490 -1.8214
  686MOL0     H94648   8.338   8.491   9.853 -1.0409 -1.1829  1.6409
  686MOL0     H94649   8.144   8.411   9.720  0.7307  0.5537 -0.7998
  686MOL0     H94650   8.127   8.260   9.161 -1.2602 -0.0428 -3.4161
  686MOL0     H94651   7.943   8.179   9.019 -1.8990  1.1028 -0.4349
  686MOL0     H94652   6.527   7.493   8.989  1.9432  2.2962  1.4580
  686MOL0     H94653   6.409   7.297   9.064  1.4139 -1.8368 -0.4344
  686MOL0     H94654   6.182   7.135   9.204 -1.2920 -0.7514 -0.9150
  686MOL0     H94655   5.955   7.075   9.255  1.9052  0.7271 -1.1115
  686MOL0     H94656   5.771   7.107   9.467  0.8501  0.2909 -1.7938
  686MOL0     H94657   5.751   7.030   9.309 -0.9364  3.1391  0.4590
  686MOL0     H94658   5.604   6.870   9.403  1.9856  0.3074  0.3114
  686MOL0     H94659   5.539   7.038   9.448 -0.8840  0.1181  2.2254
  686MOL0     H94660   5.657   6.830   9.634 -3.7506 -2.7620 -0.6076
  686MOL0     H94661   5.628   6.996   9.678 -1.8568  0.9910  0.6960
  686MOL0     H94662   5.423   6.805   9.552  0.7194 -0.1988  0.7262
  686MOL0     H94663   5.380   6.964   9.612  2.7365  1.4236 -0.9584
  686MOL0     H94664   5.384   6.764   9.981 -0.8313 -1.0955 -0.7884
  686MOL0     H94665   6.095   6.797   9.553 -0.9302 -0.7900 -0.1817
  686MOL0     H94666   6.303   6.749   9.599 -0.2343  1.2110  1.4576
  686MOL0     H94667   6.408   6.756   9.451 -1.0885  0.8249 -1.7969
  686MOL0     H94668   6.413   6.892   9.565 -0.7402  1.2481 -2.7614
  687MOL0     O94669   4.749  10.715   9.453 -0.2814  0.8606 -0.3463
  687MOL0     C94670   4.645  10.668   9.411  0.7296  0.7588 -0.2639
  687MOL0     O94671   4.596  10.541   9.439  0.5745 -0.2543 -0.1701
  687MOL0     C94672   4.677  10.465   9.511  0.5461  0.8057  0.2991
  687MOL0     C94673   4.779  10.400   9.450 -0.3283  0.7234  0.1767
  687MOL0     C94674   4.874  10.319   9.517 -0.1683 -0.9144  0.5023
  687MOL0     C94675   4.855  10.297   9.648  0.9198 -1.0977  1.1767
  687MOL0     O94676   4.951  10.223   9.708  0.3440 -0.3082 -0.3870
  687MOL0     C94677   4.947  10.205   9.855 -0.0934  0.0895 -0.2911
  687MOL0     C94678   5.017  10.331   9.925  0.0651  0.3974 -0.4663
  687MOL0     C94679   5.162  10.360   9.885  0.5542 -0.5078  0.0671
  687MOL0     C94680   5.270  10.242   9.892  1.1264  0.5663  0.0080
  687MOL0     C94681   5.412  10.281   9.883  0.3216 -0.2443  0.3517
  687MOL0     C94682   5.505  10.169   9.856 -0.7648 -0.2091 -0.4635
  687MOL0     C94683   5.647  10.179   9.898  0.4191 -0.6928  0.2925
  687MOL0     C94684   5.712  10.044   9.888 -0.7163  0.3107 -0.5958
  687MOL0     N94685   5.855  10.062   9.930  0.6717 -0.5743 -0.6764
  687MOL0     C94686   5.894  10.033  10.061 -0.0534 -0.4233  0.0800
  687MOL0     C94687   6.030  10.059  10.057 -0.2850  0.5878 -0.8222
  687MOL0     C94688   6.109  10.061  10.185 -0.4134 -0.1119  0.4282
  687MOL0     C94689   6.256  10.050  10.141 -0.1041  0.6365 -0.4531
  687MOL0     C94690   6.350  10.038  10.264 -0.1441 -0.0001  0.5418
  687MOL0     C94691   6.360  10.176  10.334 -0.8873  0.0193  0.1841
  687MOL0     O94692   6.434  10.176  10.458 -0.4761 -0.6391 -0.4279
  687MOL0     C94693   6.569  10.147  10.453  0.6490  0.1431  0.6730
  687MOL0     C94694   6.627  10.111  10.571 -0.5656  0.7822 -0.6636
  687MOL0     C94695   6.761  10.078  10.583  0.0676  0.6430  0.4387
  687MOL0     C94696   6.817  10.058  10.721 -0.3132  0.0616 -0.2095
  687MOL0     C94697   6.843  10.084  10.467  0.1772 -0.1638 -0.9348
  687MOL0     C94698   6.987  10.058  10.465  0.3468 -0.7694  0.1552
  687MOL0     O94699   7.061  10.115  10.363  0.3490 -0.2084 -0.2593
  687MOL0     C94700   7.200  10.123  10.368  0.5421 -0.5132 -0.7576
  687MOL0     C94701   7.255  10.128  10.252 -0.2422  0.0690 -0.3041
  687MOL0     C94702   7.387  10.134  10.236 -0.0402 -0.1898  0.0141
  687MOL0     C94703   7.475  10.127  10.345  0.5268 -0.3260  0.0949
  687MOL0     O94704   7.610  10.124  10.310  0.2456  0.3217  0.1361
  687MOL0     C94705   7.709  10.169  10.407  0.2263 -0.3080 -0.2885
  687MOL0     C94706   7.832  10.203  10.328 -0.0339 -0.5057  0.3109
  687MOL0     C94707   7.954  10.243  10.412 -0.8649  0.0769  0.9268
  687MOL0     C94708   8.086  10.212  10.335  0.5198 -0.0079  0.4868
  687MOL0     C94709   8.194  10.228  10.434 -0.2531  0.0856 -0.4459
  687MOL0     C94710   8.325  10.191  10.367  0.0018  0.5928  0.0027
  687MOL0     C94711   8.435  10.194  10.471 -0.3246  0.5009 -1.0128
  687MOL0     C94712   8.572  10.165  10.401  0.5803 -0.4495 -0.4428
  687MOL0    Cl94713   8.585   9.995  10.354  0.0263 -0.5463 -0.5518
  687MOL0     C94714   7.425  10.137  10.477  0.6413  0.7956 -0.2892
  687MOL0     C94715   7.280  10.145  10.485 -0.3059 -0.0376  0.3771
  687MOL0     O94716   7.032   9.989  10.548 -0.0108  0.1993  0.5115
  687MOL0     C94717   6.781  10.128  10.351 -0.4400  0.1224 -0.0712
  687MOL0     C94718   6.647  10.147  10.337 -0.1118  0.2854 -1.4890
  687MOL0     N94719   6.075  10.104   9.935 -0.2505  0.2339 -0.0631
  687MOL0     N94720   5.964  10.100   9.861 -0.4306  0.4206 -0.2457
  687MOL0     C94721   4.753  10.366   9.714  0.6371 -0.5732  0.1679
  687MOL0     C94722   4.658  10.441   9.644  0.3068 -0.2291 -0.3613
  687MOL0     C94723   4.554  10.750   9.327 -0.1322 -0.2236 -0.8909
  687MOL0     C94724   4.413  10.730   9.334 -0.4359  0.0985 -0.5534
  687MOL0     C94725   4.326  10.823   9.277  0.7883 -0.5556 -0.3508
  687MOL0     C94726   4.377  10.933   9.203  0.0243 -0.3087  1.2570
  687MOL0     O94727   4.301  11.026   9.133 -0.3886  0.1446 -0.3746
  687MOL0     C94728   4.172  10.981   9.086 -0.4927  0.2632  0.1051
  687MOL0     C94729   4.111  11.096   9.009 -0.0648  0.0161  0.4178
  687MOL0     C94730   3.980  11.069   8.938 -0.6355  0.6038  0.3091
  687MOL0     C94731   3.998  10.952   8.829 -0.5699 -0.3342 -0.3338
  687MOL0     C94732   3.863  10.933   8.766 -0.4033 -0.0835 -0.6826
  687MOL0     C94733   3.760  10.909   8.704 -0.3589 -0.1955  0.0823
  687MOL0     C94734   4.513  10.944   9.190  1.0205  0.2433  0.2581
  687MOL0     C94735   4.602  10.854   9.242 -0.5704 -1.3602 -0.1420
  687MOL0     C94736   4.753  10.874   9.216 -0.6259 -0.3921 -0.3152
  687MOL0     H94737   4.787  10.426   9.345 -3.2987 -0.7612 -0.5326
  687MOL0     H94738   4.947  10.269   9.454 -0.5876  2.6326 -3.2088
  687MOL0     H94739   5.006  10.118   9.886  1.5410  1.6038  1.0273
  687MOL0     H94740   4.842  10.188   9.880 -0.3527 -1.2749 -2.0648
  687MOL0     H94741   4.949  10.414   9.902 -1.4638 -1.0616 -1.4810
  687MOL0     H94742   5.012  10.312  10.033  0.3371 -2.5125 -0.8854
  687MOL0     H94743   5.163  10.398   9.783 -0.9491 -3.1559 -1.0358
  687MOL0     H94744   5.192  10.440   9.954  3.0422 -1.9541  0.8297
  687MOL0     H94745   5.255  10.182   9.982  3.7698  0.3217  0.3583
  687MOL0     H94746   5.242  10.187   9.802  0.1313  0.6960  0.2202
  687MOL0     H94747   5.434  10.332   9.978  0.6798  0.5750 -0.1596
  687MOL0     H94748   5.423  10.355   9.803  1.7063  0.8981  1.5310
  687MOL0     H94749   5.469  10.080   9.908 -0.1030 -0.3844 -0.2920
  687MOL0     H94750   5.498  10.144   9.750 -0.3029 -0.1583 -0.5072
  687MOL0     H94751   5.660  10.221   9.998  2.5320 -1.2969  0.3068
  687MOL0     H94752   5.703  10.251   9.837 -1.6408  0.5654 -0.2232
  687MOL0     H94753   5.665   9.964   9.948  1.9778 -0.5243  0.5392
  687MOL0     H94754   5.709  10.009   9.784  1.7516  0.9379 -0.9292
  687MOL0     H94755   5.834   9.989  10.140  1.2065 -1.7831  0.3281
  687MOL0     H94756   6.078   9.973  10.243  1.8381 -4.1404 -3.8543
  687MOL0     H94757   6.099  10.155  10.241  0.2394 -1.5408  3.1166
  687MOL0     H94758   6.256   9.963  10.074 -0.3651  1.5830 -1.7311
  687MOL0     H94759   6.284  10.142  10.088  0.2112 -0.3442 -2.0337
  687MOL0     H94760   6.300   9.962  10.326 -0.4854  0.7088  1.1525
  687MOL0     H94761   6.452  10.010  10.238  0.0776 -1.8893  3.0175
  687MOL0     H94762   6.415  10.243  10.267  0.3440 -1.0840  0.0518
  687MOL0     H94763   6.258  10.210  10.351 -1.6782 -2.6790  1.4504
  687MOL0     H94764   6.550  10.113  10.647  0.2578 -0.6452  0.2514
  687MOL0     H94765   6.855   9.957  10.739 -1.2965 -0.5788 -1.5688
  687MOL0     H94766   6.736  10.079  10.792  0.3328  2.2218 -0.0519
  687MOL0     H94767   6.905  10.120  10.740 -0.1881 -0.0607 -0.3944
  687MOL0     H94768   7.192  10.115  10.165 -0.1173  1.4289 -0.6207
  687MOL0     H94769   7.430  10.144  10.137 -1.9179  0.0813 -0.8080
  687MOL0     H94770   7.676  10.250  10.474  0.1071 -0.8941  0.3751
  687MOL0     H94771   7.729  10.086  10.476  0.2212  0.8286  1.1467
  687MOL0     H94772   7.859  10.114  10.271 -0.5715  1.0587 -2.5781
  687MOL0     H94773   7.814  10.284  10.257 -0.6037 -0.9664 -0.0750
  687MOL0     H94774   7.943  10.199  10.511 -0.7317  0.7002  1.2274
  687MOL0     H94775   7.956  10.352  10.420 -1.2195  0.1470  0.1486
  687MOL0     H94776   8.094  10.284  10.253  2.1595 -0.4637  0.2158
  687MOL0     H94777   8.081  10.111  10.293  1.0328  1.2366 -2.8966
  687MOL0     H94778   8.201  10.329  10.476 -2.5381 -0.7474  2.2804
  687MOL0     H94779   8.169  10.160  10.517 -3.8669  0.0919 -1.3928
  687MOL0     H94780   8.339  10.270  10.293 -0.7192 -0.0518 -0.8396
  687MOL0     H94781   8.331  10.092  10.321  2.7288 -0.0738  1.5863
  687MOL0     H94782   8.414  10.121  10.550 -1.1099  0.1103 -1.5661
  687MOL0     H94783   8.439  10.293  10.518  0.6400 -0.3781  0.8896
  687MOL0     H94784   8.649  10.197  10.472  0.6708  0.9933 -1.1409
  687MOL0     H94785   8.587  10.224  10.311  2.1689 -1.5309 -0.9267
  687MOL0     H94786   7.486  10.148  10.566 -0.8412  0.3293  0.8256
  687MOL0     H94787   7.229  10.153  10.580 -3.3119  1.3959 -1.2227
  687MOL0     H94788   6.840  10.137  10.261  0.9535 -0.9305  0.6865
  687MOL0     H94789   6.608  10.171  10.239 -1.4373  2.3740 -0.5193
  687MOL0     H94790   4.746  10.355   9.822  2.4175  0.7189  0.4617
  687MOL0     H94791   4.584  10.498   9.699  2.8363  1.3048  1.7069
  687MOL0     H94792   4.367  10.655   9.399  4.1060 -1.3853  1.3720
  687MOL0     H94793   4.220  10.817   9.298  0.9383  0.8351  0.9248
  687MOL0     H94794   4.189  10.900   9.014 -1.8945 -0.2776  0.3452
  687MOL0     H94795   4.103  10.944   9.163 -1.7238  1.1777 -0.5126
  687MOL0     H94796   4.179  11.129   8.929 -1.5880 -0.7680 -1.2790
  687MOL0     H94797   4.089  11.167   9.089 -1.8115 -1.5292  1.3840
  687MOL0     H94798   3.914  11.034   9.018  0.1736  2.0454  1.6787
  687MOL0     H94799   3.947  11.159   8.885 -1.2066 -0.1569 -0.6692
  687MOL0     H94800   4.037  10.859   8.870  0.3188  1.6958  3.9779
  687MOL0     H94801   4.058  10.991   8.746  1.4069  0.2008  1.2591
  687MOL0     H94802   3.674  10.895   8.642 -0.1973 -0.9857  0.0254
  687MOL0     H94803   4.548  11.019   9.120 -0.3619 -1.2275 -2.1240
  687MOL0     H94804   4.769  10.935   9.126 -0.0983 -1.8940 -1.2812
  687MOL0     H94805   4.797  10.931   9.298  0.0029 -1.0895 -0.1540
  687MOL0     H94806   4.801  10.776   9.206 -2.8938 -1.7731  1.4418
  688MOL0     O94807   1.641   3.384   5.815  0.2043  0.3788  0.4128
  688MOL0     C94808   1.626   3.265   5.790  0.0252  0.7713  0.2756
  688MOL0     O94809   1.691   3.192   5.694  0.0891  0.2528 -0.3247
  688MOL0     C94810   1.780   3.249   5.610  0.1730 -0.0022 -0.0473
  688MOL0     C94811   1.900   3.186   5.582  0.2714  0.2518 -0.4516
  688MOL0     C94812   1.986   3.241   5.490 -0.4070 -0.0386  0.0207
  688MOL0     C94813   1.964   3.362   5.427 -0.6666 -0.8121  0.7236
  688MOL0     O94814   2.060   3.421   5.355 -0.4358  0.3103  0.3740
  688MOL0     C94815   2.156   3.337   5.295 -0.2320  0.2572  0.8713
  688MOL0     C94816   2.248   3.427   5.205  0.4811  0.1928 -0.3118
  688MOL0     C94817   2.230   3.398   5.052 -0.2626  0.9795 -0.1682
  688MOL0     C94818   2.266   3.251   5.025 -0.0451  0.3159 -0.1470
  688MOL0     C94819   2.277   3.222   4.875 -0.3764 -0.1961  0.0112
  688MOL0     C94820   2.139   3.233   4.812  0.2905  0.2617  0.2955
  688MOL0     C94821   2.152   3.205   4.661 -0.5191 -0.8066 -0.2805
  688MOL0     C94822   2.226   3.319   4.580  0.6356 -0.0452  0.4819
  688MOL0     N94823   2.225   3.296   4.433 -0.9986 -0.4602  0.7094
  688MOL0     C94824   2.339   3.274   4.350  0.2028  0.3388  0.5203
  688MOL0     C94825   2.289   3.261   4.223  0.2675 -0.1383 -0.0901
  688MOL0     C94826   2.380   3.243   4.105  0.7397 -0.3595 -0.5870
  688MOL0     C94827   2.316   3.164   3.986 -0.5192  0.0668 -0.3348
  688MOL0     C94828   2.392   3.169   3.850  0.1821  0.3133 -0.0361
  688MOL0     C94829   2.514   3.070   3.849 -0.0251  0.2520  1.0780
  688MOL0     O94830   2.489   2.925   3.861 -0.2830  0.0555 -0.2452
  688MOL0     C94831   2.538   2.854   3.962 -0.3301 -0.2880  0.7217
  688MOL0     C94832   2.633   2.897   4.052  0.3013  0.4975  0.1623
  688MOL0     C94833   2.668   2.811   4.165 -0.4417 -0.3400 -0.3977
  688MOL0     C94834   2.773   2.863   4.255 -0.3144  0.1441  0.0191
  688MOL0     C94835   2.610   2.681   4.181 -0.1889  0.7499 -0.3246
  688MOL0     C94836   2.633   2.594   4.299 -0.7527  0.1124 -0.9791
  688MOL0     O94837   2.755   2.590   4.352  0.1741 -0.0936 -0.2349
  688MOL0     C94838   2.817   2.485   4.414 -0.1652 -0.6005 -0.5154
  688MOL0     C94839   2.769   2.354   4.420  0.2151  0.5315 -0.5273
  688MOL0     C94840   2.848   2.253   4.472 -0.0308 -0.6365  0.6321
  688MOL0     C94841   2.970   2.271   4.538  0.5272 -0.0210  0.2618
  688MOL0     O94842   3.027   2.166   4.602 -0.0721 -0.3866  0.2278
  688MOL0     C94843   3.168   2.161   4.616  0.2840  0.1457  0.2554
  688MOL0     C94844   3.209   2.020   4.638 -0.6213  1.1781 -0.7063
  688MOL0     C94845   3.360   2.015   4.668 -0.1353 -0.5033  0.6500
  688MOL0     C94846   3.381   1.880   4.733 -0.1320  0.6056 -0.3406
  688MOL0     C94847   3.530   1.871   4.762  1.2305  0.0131  1.0689
  688MOL0     C94848   3.546   1.758   4.861 -0.0974 -0.1496 -0.3004
  688MOL0     C94849   3.676   1.757   4.947 -0.6820 -0.2905 -0.1843
  688MOL0     C94850   3.670   1.652   5.048 -0.3003  0.0143  0.1910
  688MOL0    Cl94851   3.685   1.498   4.963  0.0407  0.4234  0.4075
  688MOL0     C94852   3.008   2.403   4.539 -0.9144  0.3757  0.4308
  688MOL0     C94853   2.940   2.508   4.475  0.3269  0.4077  0.3390
  688MOL0     O94854   2.534   2.537   4.342 -0.7093  0.3608 -0.4581
  688MOL0     C94855   2.512   2.643   4.082  0.1173 -0.4101 -0.3174
  688MOL0     C94856   2.482   2.728   3.979 -0.9280  0.0189 -0.3661
  688MOL0     N94857   2.146   3.281   4.227 -0.8752  0.6714 -0.0379
  688MOL0     N94858   2.119   3.304   4.351  0.1935  0.6007  0.9179
  688MOL0     C94859   1.846   3.428   5.453 -0.6739  0.4871 -0.7390
  688MOL0     C94860   1.754   3.367   5.542  0.2748 -0.3824  0.1753
  688MOL0     C94861   1.538   3.189   5.873 -0.3418 -0.5334 -0.3729
  688MOL0     C94862   1.442   3.261   5.950 -0.4137  0.4547  0.5647
  688MOL0     C94863   1.335   3.193   6.015  0.2408  0.2106  0.0865
  688MOL0     C94864   1.328   3.049   6.015  0.6702 -0.4478  0.3144
  688MOL0     O94865   1.223   2.978   6.062  0.3318 -0.1809  0.5078
  688MOL0     C94866   1.211   2.976   6.208 -0.3723 -0.3857  0.1221
  688MOL0     C94867   1.278   2.847   6.249 -0.3039 -0.3168  0.1802
  688MOL0     C94868   1.314   2.829   6.398 -0.0020 -0.1325  0.1543
  688MOL0     C94869   1.428   2.926   6.439  1.1306  0.7000  0.5617
  688MOL0     C94870   1.547   2.920   6.358  0.0320 -1.1078 -0.4672
  688MOL0     C94871   1.649   2.914   6.294 -0.0918 -0.7967  1.0118
  688MOL0     C94872   1.427   2.975   5.945  0.4990 -0.6778  0.5048
  688MOL0     C94873   1.532   3.042   5.882  0.1152 -0.0697 -0.0191
  688MOL0     C94874   1.635   2.951   5.817 -0.3094  0.4497  0.6244
  688MOL0     H94875   1.906   3.083   5.615  0.2808  0.3035 -0.2909
  688MOL0     H94876   2.074   3.181   5.469  0.0905  0.6973 -0.0432
  688MOL0     H94877   2.108   3.254   5.243  1.0004 -0.3142  0.6160
  688MOL0     H94878   2.213   3.299   5.380  0.6573 -0.1432  0.1092
  688MOL0     H94879   2.218   3.532   5.209 -2.2898 -0.4296 -1.8486
  688MOL0     H94880   2.354   3.419   5.232  1.1141 -0.3472 -2.6951
  688MOL0     H94881   2.125   3.415   5.023 -0.0556  1.2510 -0.7708
  688MOL0     H94882   2.294   3.463   4.992  0.4419  1.1530  0.7557
  688MOL0     H94883   2.362   3.226   5.072 -0.8637 -2.2456  0.2981
  688MOL0     H94884   2.200   3.177   5.072  0.4871  1.1448  2.0770
  688MOL0     H94885   2.328   3.126   4.864 -0.8857 -0.3720 -0.9609
  688MOL0     H94886   2.345   3.304   4.848  0.5442  0.4759  3.8569
  688MOL0     H94887   2.062   3.167   4.853 -1.7657  2.0701 -0.4469
  688MOL0     H94888   2.086   3.328   4.819 -1.1933 -0.5253  0.1400
  688MOL0     H94889   2.048   3.192   4.629 -0.5517 -0.3644 -0.3585
  688MOL0     H94890   2.208   3.111   4.657  1.2252  0.0835  1.5464
  688MOL0     H94891   2.176   3.414   4.603 -0.8879 -0.7942  0.3642
  688MOL0     H94892   2.333   3.315   4.600  0.3327 -3.5792  2.0787
  688MOL0     H94893   2.442   3.259   4.381  0.6149 -1.8191 -1.6589
  688MOL0     H94894   2.472   3.193   4.137  0.2990 -1.1114 -0.4460
  688MOL0     H94895   2.405   3.341   4.064  0.8321 -1.7341 -4.1980
  688MOL0     H94896   2.310   3.060   4.019 -2.8611  0.2767  0.0410
  688MOL0     H94897   2.211   3.192   3.977 -0.7033  0.1130  1.5480
  688MOL0     H94898   2.327   3.156   3.763  1.4342 -1.6002 -0.7506
  688MOL0     H94899   2.427   3.272   3.837 -1.8769  1.1120  0.2112
  688MOL0     H94900   2.550   3.088   3.747 -0.9685  3.1805  1.1647
  688MOL0     H94901   2.591   3.109   3.916  1.2862 -0.7399  0.1885
  688MOL0     H94902   2.689   2.989   4.045  0.8924  0.3141  1.9709
  688MOL0     H94903   2.805   2.960   4.216 -3.0808  0.7919 -0.8927
  688MOL0     H94904   2.852   2.788   4.250 -1.6402 -1.3966  1.3183
  688MOL0     H94905   2.739   2.869   4.359  1.9053 -3.8749  1.1634
  688MOL0     H94906   2.668   2.328   4.392  0.6259 -2.5608  0.4292
  688MOL0     H94907   2.802   2.155   4.478 -0.8955 -0.2565  0.4881
  688MOL0     H94908   3.220   2.214   4.535 -1.0893  1.2176  0.0490
  688MOL0     H94909   3.190   2.217   4.708 -2.9387 -1.2373  2.0108
  688MOL0     H94910   3.154   1.982   4.724  1.3546  2.5198  1.2463
  688MOL0     H94911   3.181   1.958   4.552 -0.5133 -1.8705  1.3115
  688MOL0     H94912   3.383   2.094   4.740 -0.3096  0.5267 -0.3946
  688MOL0     H94913   3.412   2.026   4.572 -3.2643  1.3367 -0.9889
  688MOL0     H94914   3.353   1.796   4.669 -0.0014  0.9758 -0.8896
  688MOL0     H94915   3.322   1.869   4.825 -0.9087  0.3596 -0.8576
  688MOL0     H94916   3.577   1.838   4.669 -0.1329 -2.4343  1.1709
  688MOL0     H94917   3.558   1.964   4.813 -1.2120 -0.4424  3.4653
  688MOL0     H94918   3.523   1.662   4.815  1.0237 -0.2847 -0.6100
  688MOL0     H94919   3.469   1.767   4.938  1.1548 -2.4697  1.3251
  688MOL0     H94920   3.687   1.849   5.004  0.1844 -0.9708  0.7754
  688MOL0     H94921   3.770   1.753   4.891 -1.0260  0.8922 -0.8758
  688MOL0     H94922   3.585   1.647   5.116  0.0221 -1.3895  0.5255
  688MOL0     H94923   3.763   1.649   5.104  0.4755  0.6168 -1.0109
  688MOL0     H94924   3.094   2.415   4.605 -1.1957  1.2997  0.6529
  688MOL0     H94925   2.982   2.608   4.465 -0.5451  0.6701 -0.8621
  688MOL0     H94926   2.456   2.551   4.096 -1.0216 -0.2469 -3.1467
  688MOL0     H94927   2.410   2.703   3.902 -0.8524 -0.6852 -0.2096
  688MOL0     H94928   1.830   3.528   5.415  0.4204  1.7846  1.9550
  688MOL0     H94929   1.662   3.421   5.564  0.2380 -0.6610  0.7192
  688MOL0     H94930   1.435   3.369   5.956  0.7137  0.5209  0.9225
  688MOL0     H94931   1.240   3.225   6.058 -0.9111 -1.9719 -0.6623
  688MOL0     H94932   1.253   3.066   6.251  0.0509  0.1015 -1.2497
  688MOL0     H94933   1.111   2.970   6.252 -0.3957 -0.4942  0.0563
  688MOL0     H94934   1.368   2.846   6.187 -1.6245 -0.4950 -1.8388
  688MOL0     H94935   1.221   2.759   6.217 -1.9490  0.2108  1.5119
  688MOL0     H94936   1.219   2.843   6.452 -1.2890 -2.1038 -1.4556
  688MOL0     H94937   1.348   2.727   6.413 -1.1073 -0.3665  1.2764
  688MOL0     H94938   1.461   2.901   6.540  0.5852  0.4178  0.6702
  688MOL0     H94939   1.382   3.025   6.444 -3.2902 -1.1607  1.2740
  688MOL0     H94940   1.732   2.904   6.227 -0.5585  0.8718  0.1259
  688MOL0     H94941   1.436   2.868   5.929  3.8203 -0.6287  1.3435
  688MOL0     H94942   1.604   2.934   5.713  2.8237  1.3098 -0.5607
  688MOL0     H94943   1.733   2.996   5.801  2.0624 -4.0636  0.6204
  688MOL0     H94944   1.640   2.856   5.872 -0.1369 -0.0417 -0.2280
  689MOL0     O94945  10.229   4.306   7.773 -0.0467  0.6471 -0.1818
  689MOL0     C94946  10.195   4.384   7.857 -0.4629  0.0342 -0.7135
  689MOL0     O94947  10.265   4.491   7.902  0.2107  0.1492 -0.0995
  689MOL0     C94948  10.386   4.495   7.850 -0.7847 -0.6550  0.6333
  689MOL0     C94949  10.406   4.555   7.727 -0.7555 -0.5333  0.2027
  689MOL0     C94950  10.532   4.560   7.655  0.9728  0.8582  0.2323
  689MOL0     C94951  10.634   4.486   7.704 -0.0129  0.5336  0.7292
  689MOL0     O94952  10.760   4.499   7.639 -0.2261  0.0388 -0.0874
  689MOL0     C94953  10.879   4.449   7.707  0.0001  0.3252 -0.4849
  689MOL0     C94954  10.999   4.498   7.636 -0.9186 -0.7805  0.2727
  689MOL0     C94955  11.113   4.417   7.697  0.4511  0.2717  0.2526
  689MOL0     C94956  11.248   4.486   7.690  0.6256  0.0145 -0.4180
  689MOL0     C94957  11.373   4.394   7.728  0.6821  0.0934 -1.1685
  689MOL0     C94958  11.378   4.262   7.644  0.0233  0.8104  0.0597
  689MOL0     C94959  11.511   4.197   7.659 -0.2428 -0.0404  0.2639
  689MOL0     C94960  11.526   4.080   7.556  0.3054  0.5265  0.1044
  689MOL0     N94961  11.654   4.033   7.576  0.2852  0.5212  0.0131
  689MOL0     C94962  11.769   4.102   7.546  0.4695  0.2532 -0.8679
  689MOL0     C94963  11.859   4.007   7.587  0.2635 -0.3888  0.2722
  689MOL0     C94964  12.011   4.021   7.570  0.0727  0.1232 -0.6685
  689MOL0     C94965  12.067   3.959   7.443  0.6423 -0.2296 -0.8740
  689MOL0     C94966  12.067   3.805   7.442 -0.1981  0.0828 -0.0374
  689MOL0     C94967  12.141   3.758   7.307 -0.0381 -0.3633 -0.1558
  689MOL0     O94968  12.280   3.788   7.318  0.0605 -0.3841 -0.0557
  689MOL0     C94969  12.356   3.721   7.228 -0.2410 -0.3783 -0.4114
  689MOL0     C94970  12.484   3.768   7.229 -0.9858 -0.0254  0.0290
  689MOL0     C94971  12.587   3.693   7.159  0.4880 -0.7573  0.6528
  689MOL0     C94972  12.725   3.758   7.173 -0.0951  0.6692  0.1296
  689MOL0     C94973  12.551   3.575   7.082 -0.5022  0.3963  0.7413
  689MOL0     C94974  12.649   3.485   7.010 -0.2108  0.7660 -0.5200
  689MOL0     O94975  12.600   3.402   6.910  0.3275 -0.0736 -0.5403
  689MOL0     C94976  12.680   3.307   6.863  0.3938  0.0930 -0.7582
  689MOL0     C94977  12.716   3.315   6.725 -0.3123  0.1308 -0.4939
  689MOL0     C94978  12.804   3.217   6.673 -0.9047  0.1183  0.0145
  689MOL0     C94979  12.879   3.131   6.759  0.0024 -0.0935 -0.3403
  689MOL0     O94980  12.972   3.044   6.737  0.0093  0.7732  0.2217
  689MOL0     C94981  13.097   3.104   6.698 -0.2940  0.6956  0.3530
  689MOL0     C94982  13.181   2.983   6.631 -1.0894  0.4575 -0.0772
  689MOL0     C94983  13.310   3.026   6.554 -0.0672  0.8435 -0.0311
  689MOL0     C94984  13.377   3.139   6.623  0.4802  0.1425 -0.4918
  689MOL0     C94985  13.519   3.148   6.568 -0.6315 -0.0541  0.9120
  689MOL0     C94986  13.600   3.250   6.648 -0.9577 -0.5760  0.6298
  689MOL0     C94987  13.726   3.298   6.573  0.2050 -0.0077  0.3603
  689MOL0     C94988  13.802   3.396   6.663  0.2125  0.0563  0.1817
  689MOL0    Cl94989  13.922   3.490   6.566  0.0694  0.2309  0.2964
  689MOL0     C94990  12.842   3.137   6.892 -1.3222 -0.3233  0.2191
  689MOL0     C94991  12.749   3.219   6.949 -0.4310 -0.6517 -0.2042
  689MOL0     O94992  12.765   3.501   7.045 -0.4111  0.1516 -0.2912
  689MOL0     C94993  12.418   3.554   7.066  1.5216  0.0615  0.8287
  689MOL0     C94994  12.324   3.620   7.139 -0.3937 -1.1095 -0.1856
  689MOL0     N94995  11.798   3.893   7.641  0.0722  0.2975  0.1579
  689MOL0     N94996  11.678   3.909   7.638 -0.0591  0.2299  0.3980
  689MOL0     C94997  10.621   4.418   7.826  1.3580 -0.4157 -0.6099
  689MOL0     C94998  10.498   4.424   7.898 -0.2312 -0.4913  0.4009
  689MOL0     C94999  10.064   4.365   7.921 -0.9546  0.6645 -0.1637
  689MOL0     C95000  10.047   4.399   8.050 -0.1141 -0.3312 -0.2147
  689MOL0     C95001   9.920   4.389   8.107 -0.2723  0.2617 -0.0343
  689MOL0     C95002   9.808   4.338   8.044  0.0781  0.8537  0.2643
  689MOL0     O95003   9.684   4.320   8.113 -0.3346  0.7728  0.9070
  689MOL0     C95004   9.577   4.251   8.059  1.1321  0.5194 -0.2411
  689MOL0     C95005   9.597   4.101   8.051  0.8026 -0.1312  0.3342
  689MOL0     C95006   9.478   4.030   7.997  0.0536 -0.1435  0.0418
  689MOL0     C95007   9.493   3.876   8.013  1.1651 -0.3692  0.4741
  689MOL0     C95008   9.377   3.823   7.948 -0.4829 -0.0186 -0.5709
  689MOL0     C95009   9.272   3.779   7.903 -0.2685  0.2137  0.4039
  689MOL0     C95010   9.830   4.298   7.913  1.1091  0.5065 -0.3241
  689MOL0     C95011   9.954   4.318   7.851 -0.3736 -0.6153 -0.5582
  689MOL0     C95012   9.959   4.306   7.700 -0.1063 -1.1988 -1.0952
  689MOL0     H95013  10.320   4.584   7.668  0.6919 -0.4466 -1.9603
  689MOL0     H95014  10.538   4.618   7.564 -0.4817  1.8158  0.7182
  689MOL0     H95015  10.884   4.340   7.717 -2.5737  0.0178 -1.7711
  689MOL0     H95016  10.882   4.492   7.807 -1.9372  2.8027 -1.3970
  689MOL0     H95017  10.994   4.480   7.528 -1.0978  1.8367 -0.2189
  689MOL0     H95018  11.014   4.606   7.649  2.4794 -0.7949 -2.1098
  689MOL0     H95019  11.090   4.387   7.800 -0.5146 -0.0831 -0.0536
  689MOL0     H95020  11.116   4.319   7.649 -2.7186 -0.7428  1.8129
  689MOL0     H95021  11.269   4.514   7.586  2.2497 -0.9676 -0.3838
  689MOL0     H95022  11.258   4.572   7.757  1.0062  0.7528 -1.3939
  689MOL0     H95023  11.367   4.368   7.834 -1.4348 -1.1389 -1.5411
  689MOL0     H95024  11.459   4.460   7.716  0.8738  0.0845 -0.0144
  689MOL0     H95025  11.302   4.193   7.683 -1.4317  1.7778 -0.9149
  689MOL0     H95026  11.367   4.276   7.536  1.5198 -0.5973 -0.3088
  689MOL0     H95027  11.547   4.168   7.758 -2.9363 -0.4307  1.2015
  689MOL0     H95028  11.588   4.273   7.644  0.1398 -0.0400  1.9986
  689MOL0     H95029  11.453   4.002   7.577  1.3188 -1.2103 -2.3758
  689MOL0     H95030  11.506   4.114   7.453 -1.7713 -1.2689 -0.1406
  689MOL0     H95031  11.784   4.196   7.494  0.3241  0.0618 -1.2600
  689MOL0     H95032  12.067   3.985   7.657  1.5291  2.2853 -0.6327
  689MOL0     H95033  12.027   4.129   7.560  0.7082 -0.0242 -1.4056
  689MOL0     H95034  12.004   4.005   7.367 -2.3627  0.0456  1.5975
  689MOL0     H95035  12.172   3.988   7.430  0.8613 -0.0139  1.0204
  689MOL0     H95036  12.123   3.768   7.529 -2.5488 -1.0158  1.0950
  689MOL0     H95037  11.965   3.765   7.443  0.4937 -1.7831  0.5344
  689MOL0     H95038  12.122   3.650   7.312 -1.3519 -0.1568 -0.5402
  689MOL0     H95039  12.099   3.792   7.212  2.0128 -2.3104 -1.8810
  689MOL0     H95040  12.522   3.840   7.300 -1.8497 -0.1070  0.5815
  689MOL0     H95041  12.723   3.866   7.192  1.8684  0.6995  0.3759
  689MOL0     H95042  12.782   3.744   7.081 -1.5885  1.4820 -0.9768
  689MOL0     H95043  12.785   3.723   7.257  2.3413  3.0720 -0.4624
  689MOL0     H95044  12.651   3.379   6.666 -1.4844 -0.1296  0.4805
  689MOL0     H95045  12.818   3.212   6.566  0.6306  0.3372  0.1829
  689MOL0     H95046  13.071   3.178   6.621 -3.1721 -1.6393 -1.1424
  689MOL0     H95047  13.155   3.146   6.780  0.5329  0.5781 -0.1610
  689MOL0     H95048  13.214   2.919   6.713  0.2614 -1.4609 -2.0210
  689MOL0     H95049  13.113   2.928   6.565  0.2668  0.0387 -1.1545
  689MOL0     H95050  13.277   3.060   6.455 -2.0379  1.1954  0.6928
  689MOL0     H95051  13.374   2.939   6.534 -1.1207  0.6396 -3.1551
  689MOL0     H95052  13.392   3.105   6.726  0.7766 -2.2478 -1.2625
  689MOL0     H95053  13.318   3.232   6.624 -2.5916 -1.6231 -2.0423
  689MOL0     H95054  13.564   3.049   6.581 -2.1805 -1.3899 -2.5645
  689MOL0     H95055  13.531   3.182   6.464 -0.1804 -2.2300  0.2016
  689MOL0     H95056  13.640   3.208   6.740  3.7809 -0.7673 -1.2333
  689MOL0     H95057  13.538   3.337   6.671  0.5950  0.0907  2.5439
  689MOL0     H95058  13.687   3.332   6.476 -2.5202 -3.5370  0.0275
  689MOL0     H95059  13.797   3.217   6.556  2.5311  0.9828  4.0792
  689MOL0     H95060  13.857   3.345   6.743  0.7275 -0.5075 -0.5229
  689MOL0     H95061  13.737   3.469   6.714 -0.1110 -1.0206  1.3788
  689MOL0     H95062  12.881   3.060   6.959 -0.7582 -0.1009  0.1526
  689MOL0     H95063  12.718   3.214   7.053  3.0114 -0.4931  0.9579
  689MOL0     H95064  12.384   3.480   6.994 -0.7280  0.7220  1.1333
  689MOL0     H95065  12.221   3.599   7.113 -1.7218  0.0401  3.5432
  689MOL0     H95066  10.704   4.362   7.867  1.2477  0.4601  0.8650
  689MOL0     H95067  10.484   4.371   7.991  1.2802 -2.3151 -0.3538
  689MOL0     H95068  10.130   4.432   8.111 -1.9637 -1.6939  3.3632
  689MOL0     H95069   9.911   4.411   8.213  0.1307 -0.0650  0.0742
  689MOL0     H95070   9.490   4.282   8.118  2.2222  1.2443  1.0221
  689MOL0     H95071   9.560   4.290   7.958  1.0197  0.3774 -0.2766
  689MOL0     H95072   9.609   4.063   8.153 -1.7867  0.7680  1.0487
  689MOL0     H95073   9.687   4.079   7.992  0.1464  0.0330 -0.7629
  689MOL0     H95074   9.387   4.072   8.041 -0.3548 -0.0470 -0.8692
  689MOL0     H95075   9.466   4.059   7.892 -0.1980 -1.0181 -0.1835
  689MOL0     H95076   9.498   3.847   8.119 -0.6866 -1.6049  0.2745
  689MOL0     H95077   9.589   3.846   7.970  0.9658 -2.5002  1.3830
  689MOL0     H95078   9.177   3.742   7.873 -0.5528 -1.1535  2.7450
  689MOL0     H95079   9.740   4.276   7.857 -0.4943 -0.1222  2.3017
  689MOL0     H95080  10.000   4.397   7.656 -2.9131  1.1335  0.7201
  689MOL0     H95081  10.023   4.221   7.675  0.8969 -0.3225 -1.5576
  689MOL0     H95082   9.858   4.307   7.657 -1.7325  2.7255  2.1643
  690MOL0     O95083  10.409   0.675   2.440 -0.1178  0.2021  0.3369
  690MOL0     C95084  10.330   0.595   2.391  0.3225  0.7744  0.6553
  690MOL0     O95085  10.368   0.479   2.330  0.1881  0.4117 -0.3873
  690MOL0     C95086  10.497   0.459   2.296 -0.9217 -0.4340  0.2080
  690MOL0     C95087  10.593   0.437   2.392  0.1018  0.0030 -0.4244
  690MOL0     C95088  10.727   0.413   2.352  0.0305 -0.1625  0.4191
  690MOL0     C95089  10.764   0.391   2.220  0.7024 -0.0186  0.4157
  690MOL0     O95090  10.887   0.351   2.183  0.1952  0.3906  0.0529
  690MOL0     C95091  10.987   0.294   2.267  0.0759  0.7521 -0.7646
  690MOL0     C95092  11.088   0.205   2.192  0.5729 -0.1422  0.3329
  690MOL0     C95093  11.019   0.073   2.154  0.3181  0.3864 -0.7655
  690MOL0     C95094  11.110  -0.046   2.162  0.0486  0.2885  0.4057
  690MOL0     C95095  11.244  -0.027   2.074 -0.2085  0.1470  0.5032
  690MOL0     C95096  11.284  -0.168   2.020  0.6227 -0.6182  0.2802
  690MOL0     C95097  11.415  -0.171   1.942  0.2192  0.0170 -0.4031
  690MOL0     C95098  11.526  -0.184   2.044 -0.6836 -0.2827 -0.4604
  690MOL0     N95099  11.664  -0.150   1.987  0.3019 -0.4326  0.0165
  690MOL0     C95100  11.710  -0.189   1.865  1.1355 -0.7228  0.5948
  690MOL0     C95101  11.835  -0.131   1.862  0.3322 -0.3157 -0.6392
  690MOL0     C95102  11.910  -0.124   1.728  0.0220 -0.4577  0.7893
  690MOL0     C95103  11.833  -0.035   1.626  0.0534  0.5894  0.7071
  690MOL0     C95104  11.830   0.113   1.642  0.9329 -0.2679  0.5809
  690MOL0     C95105  11.964   0.187   1.668 -0.7097  0.0891  0.5576
  690MOL0     O95106  12.062   0.144   1.569  0.0559  0.4884  0.0550
  690MOL0     C95107  12.189   0.203   1.557  0.2314 -0.4558  0.5368
  690MOL0     C95108  12.279   0.134   1.481  0.3020  0.7071  0.3422
  690MOL0     C95109  12.408   0.173   1.459  0.1184  0.4075 -0.3491
  690MOL0     C95110  12.492   0.084   1.372 -0.0695  0.4788  0.6651
  690MOL0     C95111  12.447   0.308   1.496 -0.3305 -0.4254 -0.4945
  690MOL0     C95112  12.579   0.369   1.476  0.4976  0.2594 -0.2058
  690MOL0     O95113  12.591   0.501   1.495 -0.0361 -0.3660 -0.1127
  690MOL0     C95114  12.720   0.570   1.509  0.0501  0.1142  0.4866
  690MOL0     C95115  12.743   0.696   1.464 -0.2919 -0.1828 -0.1546
  690MOL0     C95116  12.854   0.774   1.503  0.6552  0.4855 -0.6968
  690MOL0     C95117  12.947   0.731   1.592 -0.2310 -0.5154 -0.5906
  690MOL0     O95118  13.065   0.795   1.626  0.0226 -0.4261 -0.7586
  690MOL0     C95119  13.104   0.892   1.529 -0.5702  0.3983  0.3611
  690MOL0     C95120  13.248   0.940   1.552  0.2897  0.5917  0.6045
  690MOL0     C95121  13.344   0.821   1.541 -1.0776  0.4108 -0.2031
  690MOL0     C95122  13.487   0.871   1.520 -0.0852  0.1851  0.0896
  690MOL0     C95123  13.599   0.776   1.536 -0.5847  0.5410 -0.1057
  690MOL0     C95124  13.602   0.681   1.411 -0.2309 -0.7227  0.7409
  690MOL0     C95125  13.701   0.568   1.424  0.2356  1.0327 -0.5921
  690MOL0     C95126  13.842   0.620   1.388  0.1728 -0.4648 -0.0191
  690MOL0    Cl95127  13.847   0.646   1.211  0.3774 -0.2061 -0.0688
  690MOL0     C95128  12.924   0.599   1.636  0.2924 -0.0775  0.2826
  690MOL0     C95129  12.812   0.518   1.596 -0.0612 -0.3341  1.0801
  690MOL0     O95130  12.672   0.299   1.442  0.3072  0.5263 -0.3073
  690MOL0     C95131  12.359   0.388   1.566  0.7615  1.2649  0.7357
  690MOL0     C95132  12.225   0.331   1.592 -0.3281 -0.3025  0.2443
  690MOL0     N95133  11.861  -0.066   1.984 -0.0386  0.1118  0.7984
  690MOL0     N95134  11.758  -0.076   2.054  0.2492 -0.1306 -0.4353
  690MOL0     C95135  10.667   0.403   2.119 -0.3789  0.2406  0.9724
  690MOL0     C95136  10.537   0.436   2.161  0.6087  0.5138 -0.4283
  690MOL0     C95137  10.189   0.625   2.412  1.2816  0.5581 -0.5408
  690MOL0     C95138  10.156   0.762   2.444 -0.1657 -0.4211 -0.3986
  690MOL0     C95139  10.032   0.803   2.491  1.1499 -0.1540  0.3276
  690MOL0     C95140   9.928   0.714   2.487 -0.2431  0.5599 -0.0935
  690MOL0     O95141   9.798   0.752   2.526  0.0197  0.0999 -0.2545
  690MOL0     C95142   9.736   0.856   2.446  0.0065 -0.2002  0.0929
  690MOL0     C95143   9.669   0.954   2.542  0.0393  0.4386  0.1727
  690MOL0     C95144   9.610   1.061   2.452  0.1233 -0.3235 -0.1735
  690MOL0     C95145   9.523   1.161   2.538 -0.3590 -0.1717 -0.1339
  690MOL0     C95146   9.440   1.245   2.449  0.5791  0.0073 -0.2300
  690MOL0     C95147   9.377   1.304   2.361 -0.1916 -0.0868 -0.5017
  690MOL0     C95148   9.952   0.581   2.442 -0.0458 -0.2106 -0.3732
  690MOL0     C95149  10.082   0.534   2.413 -0.9678  0.6547 -0.1832
  690MOL0     C95150  10.091   0.386   2.383 -0.3518  0.4565  0.5525
  690MOL0     H95151  10.564   0.446   2.496  1.1052  0.7340 -0.1894
  690MOL0     H95152  10.795   0.407   2.437 -0.6513  1.9984  1.1787
  690MOL0     H95153  10.950   0.233   2.350  1.5404  0.1928 -0.4828
  690MOL0     H95154  11.049   0.371   2.313 -0.2376  0.2540  0.5415
  690MOL0     H95155  11.125   0.264   2.108 -0.4939  0.5513  0.3327
  690MOL0     H95156  11.178   0.194   2.252  1.7264  1.5363 -1.0031
  690MOL0     H95157  10.936   0.056   2.224  0.3649  0.2173 -0.7507
  690MOL0     H95158  10.971   0.085   2.056 -3.0326  4.0042  1.0476
  690MOL0     H95159  11.131  -0.066   2.267 -0.5854 -2.2558  0.1136
  690MOL0     H95160  11.057  -0.128   2.113 -0.6760  1.4586 -0.8613
  690MOL0     H95161  11.327   0.007   2.137  1.0069  0.7440 -1.3232
  690MOL0     H95162  11.229   0.028   1.981 -1.0855 -1.8671 -0.6200
  690MOL0     H95163  11.298  -0.243   2.099  0.4836 -3.4015 -2.1878
  690MOL0     H95164  11.206  -0.215   1.959  0.2009  0.0122  0.3257
  690MOL0     H95165  11.443  -0.077   1.894 -1.1640 -0.1814 -1.6469
  690MOL0     H95166  11.422  -0.253   1.871  0.4693 -1.1932  0.9620
  690MOL0     H95167  11.512  -0.121   2.132  2.1023  2.8710 -2.0303
  690MOL0     H95168  11.523  -0.290   2.070  0.7771  0.4874  3.3982
  690MOL0     H95169  11.652  -0.239   1.788  2.3067 -0.3505 -0.5845
  690MOL0     H95170  11.917  -0.222   1.679  2.0392  0.5343 -1.0606
  690MOL0     H95171  12.009  -0.082   1.747  0.0845 -0.2723  0.0887
  690MOL0     H95172  11.870  -0.045   1.523  1.2146 -0.8077  1.2352
  690MOL0     H95173  11.734  -0.080   1.621 -0.1742  1.2263 -1.5818
  690MOL0     H95174  11.779   0.165   1.560  0.2516 -1.1669  0.4208
  690MOL0     H95175  11.764   0.126   1.728  0.4185  2.3063 -0.1015
  690MOL0     H95176  11.945   0.294   1.657  1.2274  0.8359  3.5026
  690MOL0     H95177  11.996   0.176   1.772 -3.9225 -2.7524  1.4425
  690MOL0     H95178  12.243   0.037   1.449  3.6978 -1.2765  1.9433
  690MOL0     H95179  12.542   0.136   1.289  1.1350 -0.7562  0.5705
  690MOL0     H95180  12.428   0.011   1.322  1.2710 -0.2210 -0.0864
  690MOL0     H95181  12.573   0.037   1.428 -0.2035  0.6212  0.9812
  690MOL0     H95182  12.667   0.744   1.403  1.2427  1.5076 -0.8584
  690MOL0     H95183  12.868   0.872   1.458  1.0026  0.1133 -1.4014
  690MOL0     H95184  13.098   0.847   1.430  0.5159 -2.5525  1.5299
  690MOL0     H95185  13.037   0.978   1.543 -0.9331 -0.0552  1.5271
  690MOL0     H95186  13.275   1.016   1.479  2.0756 -1.5847 -1.1722
  690MOL0     H95187  13.242   0.983   1.653 -1.4760  2.1834 -0.1067
  690MOL0     H95188  13.332   0.757   1.453  2.1661 -0.2878 -0.2536
  690MOL0     H95189  13.356   0.761   1.631  0.9272  2.0509  0.7305
  690MOL0     H95190  13.505   0.951   1.594 -1.4037 -0.2657  0.9341
  690MOL0     H95191  13.492   0.908   1.417 -1.0700 -2.6096 -1.0374
  690MOL0     H95192  13.688   0.840   1.530  1.4047 -1.7830  2.0848
  690MOL0     H95193  13.603   0.717   1.628 -0.9834 -0.3424 -0.6383
  690MOL0     H95194  13.601   0.729   1.313 -3.4784 -2.6866 -0.3382
  690MOL0     H95195  13.501   0.639   1.405  0.2635 -1.8324 -0.1514
  690MOL0     H95196  13.674   0.484   1.359  1.5021 -1.3041  1.6810
  690MOL0     H95197  13.705   0.523   1.524 -2.4682 -1.5767 -1.5046
  690MOL0     H95198  13.913   0.540   1.413  1.8781  1.4515  1.5952
  690MOL0     H95199  13.868   0.708   1.447  0.4137 -1.4146  1.3425
  690MOL0     H95200  12.991   0.544   1.702 -1.1596 -1.3691  0.7534
  690MOL0     H95201  12.799   0.415   1.625  2.6011 -1.9867 -2.7736
  690MOL0     H95202  12.392   0.484   1.604  1.7021  1.5257 -0.6597
  690MOL0     H95203  12.156   0.388   1.653 -1.8326 -0.6576 -1.0663
  690MOL0     H95204  10.691   0.380   2.016  4.4356  0.0385  1.9128
  690MOL0     H95205  10.457   0.447   2.089  1.9370  0.8835 -1.9104
  690MOL0     H95206  10.239   0.833   2.443  0.2648 -0.9203 -0.1216
  690MOL0     H95207  10.008   0.902   2.528 -2.0296 -1.0281  0.9031
  690MOL0     H95208   9.807   0.913   2.385  3.6849 -3.0055  1.4478
  690MOL0     H95209   9.665   0.818   2.371 -0.0010 -0.0062  0.0017
  690MOL0     H95210   9.756   0.995   2.595  0.6036 -2.1182  1.3961
  690MOL0     H95211   9.598   0.906   2.611 -0.7294  1.6555  0.2633
  690MOL0     H95212   9.686   1.112   2.391 -0.0674 -1.0042 -0.9930
  690MOL0     H95213   9.539   1.011   2.387  0.6858 -0.2371 -0.8696
  690MOL0     H95214   9.587   1.229   2.595 -1.1455 -1.3017  2.1997
  690MOL0     H95215   9.469   1.097   2.608 -1.3393 -0.0839 -0.7903
  690MOL0     H95216   9.317   1.346   2.283 -0.6737 -1.9024 -1.1809
  690MOL0     H95217   9.869   0.512   2.439  0.2146 -0.5923  0.5943
  690MOL0     H95218  10.159   0.339   2.454  0.1924  0.9201  0.3372
  690MOL0     H95219   9.992   0.341   2.401  0.6433 -1.3743  1.7820
  690MOL0     H95220  10.119   0.371   2.279 -3.3105  2.2429 -0.6424
  691MOL0     O95221   9.221   3.372   3.766 -0.2956 -0.5388 -0.4314
  691MOL0     C95222   9.155   3.339   3.861  0.0633 -0.0358 -1.3781
  691MOL0     O95223   9.201   3.321   3.992  0.0956 -0.2191  0.2970
  691MOL0     C95224   9.334   3.340   4.015  0.2614  0.9203 -0.1776
  691MOL0     C95225   9.409   3.449   3.982 -0.0153  0.0002  0.3823
  691MOL0     C95226   9.550   3.466   4.009  0.6290 -0.4286 -0.5892
  691MOL0     C95227   9.612   3.367   4.088  0.2695 -0.8196  0.7974
  691MOL0     O95228   9.745   3.382   4.125  0.8018 -0.0822  0.4123
  691MOL0     C95229   9.810   3.265   4.185 -0.2144  0.6419 -0.7151
  691MOL0     C95230   9.953   3.309   4.230 -0.1315  0.5403 -0.1546
  691MOL0     C95231  10.029   3.375   4.120 -0.4567 -0.6062 -0.6091
  691MOL0     C95232  10.024   3.532   4.128  0.1691 -0.1983 -0.0568
  691MOL0     C95233  10.109   3.591   4.021  0.4663  0.0414 -0.2130
  691MOL0     C95234  10.116   3.743   4.011 -0.0491 -0.2300 -0.2144
  691MOL0     C95235  10.155   3.817   4.136 -0.7397 -0.2233 -0.2465
  691MOL0     C95236  10.306   3.819   4.167  1.0437  0.5280  0.3075
  691MOL0     N95237  10.359   3.689   4.185 -0.1330 -0.1200 -0.1562
  691MOL0     C95238  10.353   3.606   4.299  0.0242 -0.3134  0.6531
  691MOL0     C95239  10.438   3.507   4.271  0.7491  0.5793 -0.2836
  691MOL0     C95240  10.464   3.378   4.346 -0.5724 -0.7575 -0.1205
  691MOL0     C95241  10.435   3.252   4.265  0.1146 -0.6692  0.1761
  691MOL0     C95242  10.485   3.120   4.321 -0.6697  0.5827 -0.7414
  691MOL0     C95243  10.639   3.115   4.311 -0.3135 -0.1123 -0.2723
  691MOL0     O95244  10.678   2.989   4.369 -0.1201 -0.5346  0.3288
  691MOL0     C95245  10.810   2.973   4.405 -0.0759 -0.6924 -0.2150
  691MOL0     C95246  10.905   3.076   4.395 -0.8534 -0.6580  0.0372
  691MOL0     C95247  11.041   3.063   4.441 -0.8082 -0.1075  0.3278
  691MOL0     C95248  11.123   3.188   4.442 -0.3601 -0.2639 -0.5386
  691MOL0     C95249  11.081   2.942   4.506  0.2789  0.1784  0.7839
  691MOL0     C95250  11.212   2.919   4.577 -0.8115 -0.6486  0.6658
  691MOL0     O95251  11.306   3.013   4.576  0.9996 -0.2775  0.6186
  691MOL0     C95252  11.441   2.985   4.597 -0.1483  0.0141  0.1601
  691MOL0     C95253  11.515   2.882   4.559 -0.2305 -0.4812  0.1267
  691MOL0     C95254  11.650   2.864   4.590  0.5023  0.0933 -0.7717
  691MOL0     C95255  11.712   2.957   4.677 -0.5678 -0.1406 -0.1236
  691MOL0     O95256  11.843   2.940   4.724 -0.3810 -0.0179  0.1478
  691MOL0     C95257  11.891   2.811   4.761 -0.0112 -0.5550 -0.2458
  691MOL0     C95258  12.033   2.818   4.828  0.2773 -0.6170  0.6594
  691MOL0     C95259  12.023   2.888   4.957  0.1004  0.3099  0.0725
  691MOL0     C95260  12.150   2.901   5.033 -0.1501 -0.1687  0.4724
  691MOL0     C95261  12.117   2.940   5.186  0.4198  0.3154 -0.0480
  691MOL0     C95262  12.071   3.079   5.203  0.1605 -0.1540 -0.4871
  691MOL0     C95263  12.044   3.134   5.343  0.1264 -0.6261  0.0239
  691MOL0     C95264  12.176   3.178   5.411 -0.1900 -0.2251  0.4597
  691MOL0    Cl95265  12.222   3.338   5.347 -0.0161 -0.0671  0.1490
  691MOL0     C95266  11.643   3.073   4.708  0.0627 -0.3854 -0.3382
  691MOL0     C95267  11.511   3.084   4.673  0.4218  0.8307 -1.0414
  691MOL0     O95268  11.235   2.805   4.612  0.9815 -0.0355  0.4571
  691MOL0     C95269  10.983   2.841   4.509  0.2366  0.2518 -1.0707
  691MOL0     C95270  10.856   2.854   4.462 -0.0425 -0.0395  0.4108
  691MOL0     N95271  10.490   3.524   4.140  0.1510  0.4207 -0.4988
  691MOL0     N95272  10.450   3.638   4.098  0.2762 -0.0283 -0.7075
  691MOL0     C95273   9.539   3.258   4.126  0.5013 -0.6480 -0.5310
  691MOL0     C95274   9.405   3.244   4.087 -0.0147 -0.3163  0.2992
  691MOL0     C95275   9.003   3.329   3.847 -0.1782  0.1220  0.8505
  691MOL0     C95276   8.923   3.329   3.962  0.0220 -1.0841 -0.3846
  691MOL0     C95277   8.785   3.341   3.968  0.2684 -0.2685  0.3572
  691MOL0     C95278   8.713   3.343   3.845 -0.0089  0.0572  0.1068
  691MOL0     O95279   8.578   3.338   3.838  0.1217  0.8204 -0.3755
  691MOL0     C95280   8.528   3.204   3.849 -0.5458  0.0424  0.7231
  691MOL0     C95281   8.378   3.208   3.827 -0.7349  0.4251 -0.2698
  691MOL0     C95282   8.302   3.283   3.941 -0.2415 -0.1326  0.8159
  691MOL0     C95283   8.147   3.277   3.935  0.1505  0.1256 -0.3153
  691MOL0     C95284   8.100   3.336   3.815  0.1457 -0.9981 -0.1340
  691MOL0     C95285   8.061   3.399   3.715 -0.4595 -0.7107  0.5126
  691MOL0     C95286   8.784   3.343   3.727  0.1429 -0.7569  0.6345
  691MOL0     C95287   8.925   3.329   3.724  1.3151 -0.1740  0.2853
  691MOL0     C95288   8.991   3.353   3.589 -0.3982  0.0199 -0.6381
  691MOL0     H95289   9.365   3.536   3.934 -0.1657 -0.8854 -1.1723
  691MOL0     H95290   9.613   3.552   3.987  2.9704 -1.6554  0.9134
  691MOL0     H95291   9.824   3.190   4.107  1.6152 -3.3306  2.9750
  691MOL0     H95292   9.770   3.217   4.275  0.8257  2.3598  0.7318
  691MOL0     H95293   9.945   3.363   4.325 -1.8492 -2.3957  1.5208
  691MOL0     H95294  10.004   3.213   4.245 -1.8376 -0.4386 -0.3784
  691MOL0     H95295  10.135   3.352   4.134 -0.0464  1.8837  0.9346
  691MOL0     H95296   9.999   3.329   4.025 -0.0172 -5.5405  1.3000
  691MOL0     H95297   9.923   3.574   4.129  0.8490  1.5389 -0.2124
  691MOL0     H95298  10.058   3.558   4.229 -2.4092  3.1375  0.1261
  691MOL0     H95299  10.067   3.553   3.928 -1.5375  1.5283  0.0235
  691MOL0     H95300  10.207   3.543   4.030  1.1257  1.6552  2.2766
  691MOL0     H95301  10.174   3.772   3.923 -0.7042  3.4730  0.4272
  691MOL0     H95302  10.013   3.772   3.988  0.9310  1.4921 -2.9009
  691MOL0     H95303  10.103   3.768   4.219  0.4632  0.8484  1.1774
  691MOL0     H95304  10.130   3.924   4.133 -1.7698 -0.4587 -0.5771
  691MOL0     H95305  10.355   3.876   4.087 -0.3378  0.4285 -0.6431
  691MOL0     H95306  10.318   3.875   4.260  1.6085  0.4917  0.2601
  691MOL0     H95307  10.290   3.614   4.387  0.4996  1.5140  0.8606
  691MOL0     H95308  10.409   3.370   4.440 -0.2485 -1.5021  0.0085
  691MOL0     H95309  10.568   3.388   4.376 -0.8199  0.7250  0.3450
  691MOL0     H95310  10.326   3.240   4.261 -0.6677  3.5039  2.3746
  691MOL0     H95311  10.481   3.280   4.170 -1.3007 -0.7488 -0.5571
  691MOL0     H95312  10.456   3.115   4.427 -0.3725 -2.4890 -0.7194
  691MOL0     H95313  10.451   3.032   4.265 -0.6644  1.0290 -1.4567
  691MOL0     H95314  10.676   3.127   4.209 -1.7866 -2.9127 -1.2369
  691MOL0     H95315  10.676   3.197   4.374  1.9200 -1.8006  0.7520
  691MOL0     H95316  10.876   3.173   4.357 -2.6146 -0.6190  1.3653
  691MOL0     H95317  11.060   3.271   4.408  0.0088  0.5688  0.7486
  691MOL0     H95318  11.216   3.180   4.385  0.9512  5.1562  0.3120
  691MOL0     H95319  11.139   3.223   4.545  1.7364  1.6268 -1.4088
  691MOL0     H95320  11.464   2.805   4.504 -1.2307  0.7675 -0.7393
  691MOL0     H95321  11.696   2.768   4.569 -1.3449 -0.4871 -2.4227
  691MOL0     H95322  11.822   2.768   4.834  1.1065  0.6837  1.6253
  691MOL0     H95323  11.898   2.750   4.671 -1.9787 -1.7072  0.3221
  691MOL0     H95324  12.072   2.716   4.836 -0.2783 -1.0405 -1.3271
  691MOL0     H95325  12.098   2.871   4.758  0.4441 -2.3270 -0.5527
  691MOL0     H95326  11.946   2.833   5.012  1.0524 -0.3854  0.7369
  691MOL0     H95327  11.985   2.987   4.929 -0.7642  0.1453  0.6390
  691MOL0     H95328  12.207   2.986   4.994 -1.3093 -0.8473 -3.0671
  691MOL0     H95329  12.215   2.813   5.023  1.3377  0.8526  0.7511
  691MOL0     H95330  12.040   2.871   5.222  1.0751  0.7003  2.2477
  691MOL0     H95331  12.198   2.917   5.257 -0.5203  3.4748  2.2769
  691MOL0     H95332  11.978   3.082   5.145  0.9758 -1.2080 -1.9169
  691MOL0     H95333  12.143   3.149   5.157  2.3381  0.2536  3.1392
  691MOL0     H95334  11.999   3.049   5.395  0.1128  0.3089  1.6052
  691MOL0     H95335  11.983   3.225   5.338  2.3834  0.9098 -1.6400
  691MOL0     H95336  12.258   3.114   5.378 -0.0252 -0.1866  0.7894
  691MOL0     H95337  12.182   3.190   5.520  2.3994  0.4989  0.3129
  691MOL0     H95338  11.687   3.163   4.751 -2.2328 -0.4072  2.3784
  691MOL0     H95339  11.459   3.177   4.694  2.6059  1.8103  0.3525
  691MOL0     H95340  11.006   2.741   4.544  2.8900  0.3568 -2.2576
  691MOL0     H95341  10.786   2.771   4.466 -0.9353  0.6898  0.3308
  691MOL0     H95342   9.576   3.182   4.196 -0.6123  0.4737  1.3700
  691MOL0     H95343   9.351   3.155   4.119 -0.7912  0.2172  0.5000
  691MOL0     H95344   8.966   3.326   4.061 -2.1683  2.0430  0.8127
  691MOL0     H95345   8.730   3.337   4.062  0.8681 -0.0344  0.7203
  691MOL0     H95346   8.570   3.139   3.771 -2.1469 -1.4874  1.0982
  691MOL0     H95347   8.548   3.157   3.945 -1.1571  1.2584  1.4671
  691MOL0     H95348   8.343   3.105   3.815  0.4079 -0.1382  1.0063
  691MOL0     H95349   8.351   3.253   3.731 -1.1977 -0.7623 -0.7121
  691MOL0     H95350   8.342   3.231   4.029  1.0956 -1.8727 -0.7479
  691MOL0     H95351   8.325   3.390   3.945 -2.8737  0.6064 -1.1105
  691MOL0     H95352   8.113   3.334   4.023  2.1799  0.2928  0.4138
  691MOL0     H95353   8.119   3.172   3.941 -0.3417  0.2759  0.1472
  691MOL0     H95354   8.024   3.453   3.630  0.9621 -0.6075 -0.0807
  691MOL0     H95355   8.725   3.351   3.636  0.0223  0.9458  0.8330
  691MOL0     H95356   9.013   3.460   3.585 -1.7880  0.2971 -3.1501
  691MOL0     H95357   9.086   3.298   3.583  1.3248  2.8093 -0.8006
  691MOL0     H95358   8.932   3.319   3.504 -3.0340  1.6670  0.4189
  692MOL0     O95359   2.530   2.918   5.062  0.1710  0.0437  0.3793
  692MOL0     C95360   2.443   2.845   5.116  0.4202 -0.4580  0.1986
  692MOL0     O95361   2.461   2.771   5.233  0.6955  0.5919 -0.1665
  692MOL0     C95362   2.588   2.743   5.267 -0.5445  0.0219 -1.1111
  692MOL0     C95363   2.634   2.776   5.397 -0.5047  0.4861 -0.5267
  692MOL0     C95364   2.762   2.738   5.433  0.3690  0.1957  0.0764
  692MOL0     C95365   2.842   2.659   5.358 -0.2505  0.4064 -0.1882
  692MOL0     O95366   2.961   2.617   5.418  0.3843  0.0083 -0.2218
  692MOL0     C95367   3.049   2.533   5.337 -0.0186  0.6243  0.0078
  692MOL0     C95368   3.177   2.510   5.432  0.1550 -0.3900  0.9143
  692MOL0     C95369   3.273   2.396   5.399 -0.1726 -0.0659  0.8325
  692MOL0     C95370   3.406   2.403   5.483 -0.7862 -0.1986  0.2563
  692MOL0     C95371   3.516   2.299   5.430 -0.2572  0.6386 -0.3371
  692MOL0     C95372   3.658   2.363   5.445 -0.1421 -0.1425 -0.5033
  692MOL0     C95373   3.776   2.268   5.436 -0.2845 -0.0801  0.3900
  692MOL0     C95374   3.770   2.196   5.297  0.6055  0.0862  0.5551
  692MOL0     N95375   3.871   2.094   5.282  0.0926  0.0910  0.0796
  692MOL0     C95376   3.998   2.098   5.334 -0.6085  0.8466  0.1197
  692MOL0     C95377   4.063   1.994   5.278 -0.1735  0.2245  0.2233
  692MOL0     C95378   4.207   1.971   5.297  0.0353  0.2195 -0.0397
  692MOL0     C95379   4.282   2.059   5.204 -0.8908 -0.3292 -0.0053
  692MOL0     C95380   4.439   2.026   5.208 -0.1884 -0.1396 -0.2648
  692MOL0     C95381   4.510   2.116   5.109  0.4947  0.4108 -0.2596
  692MOL0     O95382   4.644   2.088   5.097  0.3578  0.4366  0.3881
  692MOL0     C95383   4.747   2.149   5.146 -0.0872 -0.1059  0.1038
  692MOL0     C95384   4.740   2.262   5.230 -0.8409  0.0079 -0.9825
  692MOL0     C95385   4.861   2.309   5.287  0.1241 -0.2492  0.6069
  692MOL0     C95386   4.840   2.421   5.387 -0.3566  0.2549  0.4705
  692MOL0     C95387   4.981   2.248   5.248  0.0969  0.0614  0.4179
  692MOL0     C95388   5.107   2.313   5.278 -0.3789 -0.3445 -0.3199
  692MOL0     O95389   5.106   2.449   5.291 -0.1171  0.3132 -0.4132
  692MOL0     C95390   5.225   2.513   5.304  0.4514  0.0337  0.0438
  692MOL0     C95391   5.297   2.550   5.196  0.2249  0.4364  0.6534
  692MOL0     C95392   5.424   2.607   5.213  0.8773  0.2456  0.0397
  692MOL0     C95393   5.472   2.638   5.334  0.3289  0.5153  0.2290
  692MOL0     O95394   5.595   2.703   5.338  0.1300  0.0294 -0.3726
  692MOL0     C95395   5.695   2.667   5.437  0.2028  1.3134  1.2735
  692MOL0     C95396   5.773   2.787   5.504  0.4708  0.4184 -0.1211
  692MOL0     C95397   5.891   2.732   5.596  0.4799  0.8160  0.2324
  692MOL0     C95398   5.970   2.852   5.635 -0.3318  0.2117 -0.0209
  692MOL0     C95399   6.069   2.814   5.749  0.4898  0.0890  0.5161
  692MOL0     C95400   6.132   2.935   5.808  0.1350  0.0646  0.3939
  692MOL0     C95401   6.207   3.015   5.704 -0.5367 -0.1914  0.2010
  692MOL0     C95402   6.306   3.109   5.776  0.1974  0.2011  0.0881
  692MOL0    Cl95403   6.451   3.031   5.844  0.0604  0.3977 -0.2147
  692MOL0     C95404   5.396   2.604   5.446  0.2799 -0.6418 -0.1798
  692MOL0     C95405   5.279   2.533   5.428  0.6445  0.5126  0.1570
  692MOL0     O95406   5.202   2.243   5.285  0.1044  0.4985  0.4022
  692MOL0     C95407   4.978   2.137   5.164 -1.1195  0.3002 -0.2956
  692MOL0     C95408   4.863   2.081   5.121 -0.1446 -0.4175 -0.7918
  692MOL0     N95409   3.978   1.924   5.195 -0.0580 -0.1473  0.1348
  692MOL0     N95410   3.864   1.984   5.192  0.2040 -0.2999 -0.4714
  692MOL0     C95411   2.799   2.629   5.226  0.6143 -0.5673 -0.3091
  692MOL0     C95412   2.673   2.668   5.178 -0.1625 -0.3397 -1.1386
  692MOL0     C95413   2.314   2.843   5.047  0.3204 -0.0189  0.0077
  692MOL0     C95414   2.315   2.816   4.905  0.0007 -0.0287  0.1093
  692MOL0     C95415   2.199   2.805   4.831  0.5513 -0.5588 -0.2393
  692MOL0     C95416   2.078   2.829   4.895 -0.5591 -0.8086 -1.1407
  692MOL0     O95417   1.958   2.830   4.829  0.4557 -0.4063  0.2199
  692MOL0     C95418   1.943   2.742   4.713  0.7381 -0.0643 -1.2675
  692MOL0     C95419   1.798   2.736   4.677  0.3761  0.1018  0.2119
  692MOL0     C95420   1.701   2.631   4.737 -0.4133 -0.2288 -0.3258
  692MOL0     C95421   1.557   2.663   4.699  0.4668 -0.0379  0.3359
  692MOL0     C95422   1.465   2.568   4.762  0.2024  0.5635  0.5649
  692MOL0     C95423   1.409   2.463   4.800 -0.4793  0.2464 -0.0822
  692MOL0     C95424   2.068   2.874   5.032  0.2883  0.3028 -0.4616
  692MOL0     C95425   2.190   2.879   5.108  0.3091 -0.4219  0.7820
  692MOL0     C95426   2.175   2.937   5.248 -0.3068 -0.9240 -0.0023
  692MOL0     H95427   2.572   2.837   5.461  0.4514  0.7863  0.1248
  692MOL0     H95428   2.797   2.774   5.529  0.3852  0.4815 -0.0367
  692MOL0     H95429   3.075   2.591   5.248 -3.1185  3.6892  0.9086
  692MOL0     H95430   3.003   2.436   5.315 -1.6895  1.9467 -2.9117
  692MOL0     H95431   3.232   2.604   5.440  1.2307 -0.9694  0.4597
  692MOL0     H95432   3.134   2.475   5.526 -2.8392 -0.4662 -0.3615
  692MOL0     H95433   3.230   2.300   5.428 -0.8160  0.4238  1.5456
  692MOL0     H95434   3.304   2.393   5.294 -2.0894  0.6736  0.2058
  692MOL0     H95435   3.455   2.500   5.474 -0.3293 -0.3553  0.9984
  692MOL0     H95436   3.398   2.395   5.591 -0.3790  2.5155  0.5544
  692MOL0     H95437   3.501   2.278   5.324 -0.0759 -0.5964 -0.1352
  692MOL0     H95438   3.512   2.203   5.481  2.5299  0.0437 -1.0437
  692MOL0     H95439   3.675   2.450   5.382  4.7324 -1.0989 -0.9516
  692MOL0     H95440   3.672   2.403   5.546  0.8261 -2.3121  0.3055
  692MOL0     H95441   3.775   2.196   5.519 -3.5040  0.2028  0.7167
  692MOL0     H95442   3.868   2.322   5.459 -1.4811  1.1756  2.6644
  692MOL0     H95443   3.672   2.148   5.286  0.9681 -0.7530  0.8272
  692MOL0     H95444   3.777   2.269   5.216  0.9355  0.3679  0.8377
  692MOL0     H95445   4.039   2.164   5.410  0.6903  1.2460 -0.8828
  692MOL0     H95446   4.221   1.865   5.275 -0.4099  0.7076 -3.1522
  692MOL0     H95447   4.232   1.998   5.400  2.3911  1.2528 -0.8130
  692MOL0     H95448   4.246   2.048   5.101 -0.5834  2.6681 -0.5177
  692MOL0     H95449   4.264   2.165   5.222 -2.3264 -0.5926  0.2113
  692MOL0     H95450   4.477   2.041   5.309  0.4956  0.1865 -0.5617
  692MOL0     H95451   4.462   1.923   5.181  0.0559 -0.1650  0.0306
  692MOL0     H95452   4.458   2.102   5.014  0.0024 -1.9927  0.3065
  692MOL0     H95453   4.503   2.221   5.138  0.2709  0.8480 -1.8166
  692MOL0     H95454   4.648   2.309   5.263 -1.5172 -0.8705 -1.5568
  692MOL0     H95455   4.857   2.519   5.341  2.1481 -0.1524  0.4118
  692MOL0     H95456   4.903   2.401   5.474  0.0341 -2.7207 -0.3920
  692MOL0     H95457   4.737   2.424   5.425 -1.5100 -0.1598 -2.3942
  692MOL0     H95458   5.265   2.509   5.100  1.4482 -0.7458  0.7170
  692MOL0     H95459   5.479   2.626   5.121 -0.3875  0.3240 -0.7308
  692MOL0     H95460   5.661   2.591   5.508 -3.1132  0.3691 -1.0895
  692MOL0     H95461   5.774   2.617   5.380 -0.2470 -0.1895  1.9294
  692MOL0     H95462   5.812   2.845   5.420  0.2749  0.1002 -0.4364
  692MOL0     H95463   5.703   2.851   5.557 -1.4586  1.0332 -3.1193
  692MOL0     H95464   5.955   2.663   5.540  0.0868  0.7554 -0.1474
  692MOL0     H95465   5.844   2.688   5.684 -1.1648 -1.2045 -1.5259
  692MOL0     H95466   5.898   2.927   5.668 -0.6142  0.4045 -1.0206
  692MOL0     H95467   6.027   2.901   5.555 -3.7299  2.9558 -1.0026
  692MOL0     H95468   6.003   2.771   5.825 -1.9261 -0.3998 -1.7326
  692MOL0     H95469   6.153   2.752   5.715 -0.4062 -0.9379  0.1377
  692MOL0     H95470   6.190   2.917   5.899  0.1073  0.0363  0.4064
  692MOL0     H95471   6.049   2.996   5.846  0.9858 -0.3966  3.2088
  692MOL0     H95472   6.145   3.081   5.643  2.6176  1.8001 -1.0969
  692MOL0     H95473   6.251   2.953   5.626  1.0537  0.2814  0.6866
  692MOL0     H95474   6.260   3.159   5.862 -2.1198  3.6361 -2.8439
  692MOL0     H95475   6.335   3.196   5.716  2.2404 -0.6441 -0.2261
  692MOL0     H95476   5.437   2.626   5.545  1.2717  1.6162 -1.0374
  692MOL0     H95477   5.227   2.493   5.514  1.2779 -2.4286 -0.7196
  692MOL0     H95478   5.075   2.103   5.127 -0.8105 -0.8754  1.4838
  692MOL0     H95479   4.865   1.996   5.053 -1.3717 -1.6085  0.5879
  692MOL0     H95480   2.854   2.566   5.156  3.2918 -0.1098  1.2635
  692MOL0     H95481   2.624   2.658   5.081  0.2010 -0.8962 -1.2690
  692MOL0     H95482   2.408   2.796   4.854  0.2228 -2.0908  1.2076
  692MOL0     H95483   2.199   2.780   4.726  0.7241  0.0248 -0.3796
  692MOL0     H95484   2.000   2.777   4.626  1.4340 -1.8917 -1.5988
  692MOL0     H95485   1.983   2.643   4.738  0.7934 -0.0199 -1.1760
  692MOL0     H95486   1.799   2.718   4.569  1.8981  0.8787  0.0760
  692MOL0     H95487   1.751   2.833   4.694 -0.7738 -0.4703  0.4139
  692MOL0     H95488   1.713   2.530   4.697  1.0222 -0.8185  1.4722
  692MOL0     H95489   1.714   2.629   4.846  2.0209 -0.4805 -0.5842
  692MOL0     H95490   1.554   2.645   4.591 -2.3354  0.5314  0.2420
  692MOL0     H95491   1.522   2.765   4.719 -2.1855 -0.1919 -2.7892
  692MOL0     H95492   1.360   2.383   4.852 -1.0623 -0.4067 -1.5808
  692MOL0     H95493   1.972   2.878   5.083 -0.2763 -1.7444 -1.2984
  692MOL0     H95494   2.225   2.866   5.314 -0.4356 -1.0524 -0.0403
  692MOL0     H95495   2.228   3.031   5.261  0.7603 -1.4034 -0.7512
  692MOL0     H95496   2.072   2.939   5.284  0.2489 -1.4023  1.7142
  693MOL0     O95497   7.018   4.945   5.009  0.0234  0.6426 -0.3895
  693MOL0     C95498   6.959   4.853   5.071  0.7292 -0.9226 -0.0293
  693MOL0     O95499   6.986   4.809   5.199  0.3434  0.0536 -0.2540
  693MOL0     C95500   7.108   4.820   5.254 -0.0285  0.6238  0.1933
  693MOL0     C95501   7.224   4.812   5.174 -0.8975 -0.2186 -0.7081
  693MOL0     C95502   7.351   4.815   5.228 -0.0927 -0.5378 -0.0946
  693MOL0     C95503   7.366   4.842   5.366 -0.3927 -0.1840 -0.2423
  693MOL0     O95504   7.484   4.856   5.440 -0.4014  0.7709 -0.3610
  693MOL0     C95505   7.608   4.808   5.384  0.2366  0.8235 -1.2456
  693MOL0     C95506   7.705   4.793   5.502 -0.4348  0.0782 -0.1951
  693MOL0     C95507   7.756   4.934   5.539 -0.1395 -0.1211 -0.1261
  693MOL0     C95508   7.858   4.919   5.652  0.6527  0.2905 -0.5902
  693MOL0     C95509   7.874   5.064   5.707 -0.3719  0.8559 -0.2669
  693MOL0     C95510   7.987   5.076   5.803 -0.3839 -0.5954  0.1221
  693MOL0     C95511   8.014   5.229   5.824  0.2139 -0.5889 -0.3509
  693MOL0     C95512   8.152   5.245   5.883 -0.8260  0.5860 -0.1539
  693MOL0     N95513   8.165   5.386   5.917 -0.6807  0.5023 -0.0654
  693MOL0     C95514   8.218   5.482   5.834 -0.3813 -0.1343  0.3458
  693MOL0     C95515   8.214   5.593   5.903  0.1390 -0.0013 -0.3435
  693MOL0     C95516   8.256   5.725   5.851 -1.0689  0.5399 -0.5439
  693MOL0     C95517   8.393   5.749   5.925 -0.4968  0.3630 -0.0336
  693MOL0     C95518   8.449   5.883   5.871 -0.5659  0.4208 -0.4938
  693MOL0     C95519   8.577   5.929   5.950 -0.1548  0.4163  0.0258
  693MOL0     O95520   8.611   6.050   5.873 -0.2137  0.0790 -0.0835
  693MOL0     C95521   8.723   6.112   5.917 -0.4052 -0.9270  0.0557
  693MOL0     C95522   8.820   6.075   6.015  0.5163 -0.0302 -0.1073
  693MOL0     C95523   8.933   6.158   6.054  0.0303  0.9377  0.1584
  693MOL0     C95524   9.030   6.109   6.162 -1.0950  0.1473 -0.8039
  693MOL0     C95525   8.940   6.288   5.992  0.9319 -0.2584 -0.5947
  693MOL0     C95526   9.050   6.382   6.016 -0.2631 -0.2595 -0.2925
  693MOL0     O95527   9.113   6.373   6.136  0.8442  0.1975 -0.1546
  693MOL0     C95528   9.209   6.470   6.153  0.1603  0.4522  0.4964
  693MOL0     C95529   9.343   6.431   6.153  0.1607 -0.3407 -0.4763
  693MOL0     C95530   9.438   6.518   6.191 -0.4162 -0.2699 -0.1308
  693MOL0     C95531   9.406   6.654   6.208 -0.0608  0.3774  0.0550
  693MOL0     O95532   9.488   6.755   6.245  0.3570  0.0414 -0.2948
  693MOL0     C95533   9.632   6.736   6.234  0.8256 -0.1745  0.2960
  693MOL0     C95534   9.690   6.871   6.287 -0.0273  0.1581  0.3458
  693MOL0     C95535   9.840   6.854   6.309 -0.4991 -0.4651 -0.0305
  693MOL0     C95536   9.885   6.872   6.456  0.6756 -0.1546  0.0743
  693MOL0     C95537  10.036   6.861   6.479 -0.3055 -0.6295  0.5833
  693MOL0     C95538  10.072   6.896   6.627  1.0123 -0.1176 -0.7667
  693MOL0     C95539  10.054   6.774   6.724  0.2293  0.5520 -0.7728
  693MOL0     C95540  10.102   6.803   6.867 -0.3601  0.5124 -0.2279
  693MOL0    Cl95541  10.271   6.853   6.857  0.1702  0.0242 -0.1347
  693MOL0     C95542   9.274   6.699   6.207  0.2300  0.5035  0.5925
  693MOL0     C95543   9.175   6.607   6.175 -0.0586  0.3480 -0.4092
  693MOL0     O95544   9.061   6.472   5.933  0.1825  0.1307  0.3310
  693MOL0     C95545   8.844   6.320   5.901 -0.5396  0.6494  1.1455
  693MOL0     C95546   8.735   6.236   5.864 -0.2299 -0.3600 -0.1438
  693MOL0     N95547   8.166   5.573   6.030  0.0407 -0.3521 -0.1371
  693MOL0     N95548   8.135   5.447   6.041 -0.2652 -0.0980  0.3632
  693MOL0     C95549   7.251   4.857   5.449 -0.5870 -0.2670 -0.2411
  693MOL0     C95550   7.124   4.845   5.395 -0.3970  0.5480 -0.2939
  693MOL0     C95551   6.833   4.808   5.007 -0.0715 -0.1405 -0.3184
  693MOL0     C95552   6.811   4.663   4.996 -1.3233 -0.0897  0.6540
  693MOL0     C95553   6.697   4.611   4.931 -0.2571  0.2016  0.3277
  693MOL0     C95554   6.605   4.694   4.880  0.6570  0.6017  0.3836
  693MOL0     O95555   6.499   4.630   4.812 -0.2104 -0.0546  0.0040
  693MOL0     C95556   6.380   4.591   4.889 -0.1178 -0.3141 -0.2922
  693MOL0     C95557   6.285   4.520   4.792  0.2878  0.3546  0.2484
  693MOL0     C95558   6.158   4.478   4.868  0.4823 -0.1110  0.3343
  693MOL0     C95559   6.051   4.413   4.771  0.7246  0.6597  0.4213
  693MOL0     C95560   6.090   4.284   4.710 -0.5916  0.0038  0.5216
  693MOL0     C95561   6.111   4.192   4.627  0.6912  0.5604 -0.3609
  693MOL0     C95562   6.625   4.829   4.881  0.2057 -0.5466 -0.0518
  693MOL0     C95563   6.739   4.894   4.934 -0.6823  0.3003 -0.8298
  693MOL0     C95564   6.737   5.041   4.936  0.2067 -0.0464 -0.2356
  693MOL0     H95565   7.216   4.780   5.070  0.8233  0.2905 -1.0388
  693MOL0     H95566   7.439   4.801   5.166  0.1672  3.5321 -0.9537
  693MOL0     H95567   7.638   4.883   5.310 -0.9096  2.8763  0.2603
  693MOL0     H95568   7.588   4.711   5.338  0.4529  0.1135  0.1017
  693MOL0     H95569   7.655   4.746   5.587 -1.3149 -3.2102 -2.3465
  693MOL0     H95570   7.779   4.721   5.465  0.3037  0.7044  0.0393
  693MOL0     H95571   7.798   4.991   5.456 -1.0013  1.5526  0.5539
  693MOL0     H95572   7.673   4.993   5.580 -0.7219 -1.5774  0.8910
  693MOL0     H95573   7.815   4.857   5.731  0.0872 -0.0523 -1.1620
  693MOL0     H95574   7.952   4.875   5.618  0.4401 -0.8776  0.2789
  693MOL0     H95575   7.779   5.085   5.756 -0.2329 -0.1778  0.4744
  693MOL0     H95576   7.884   5.135   5.624 -3.1259  1.1220 -0.4532
  693MOL0     H95577   7.951   5.038   5.899 -0.3703  0.8553  0.7305
  693MOL0     H95578   8.074   5.032   5.754  0.0762 -0.8369  1.1337
  693MOL0     H95579   7.944   5.261   5.901 -1.0870 -2.1750 -0.8200
  693MOL0     H95580   8.009   5.299   5.739  0.9106  2.5686  2.0220
  693MOL0     H95581   8.171   5.177   5.966  4.0619 -0.8475 -2.1080
  693MOL0     H95582   8.234   5.219   5.816 -1.6174 -0.2493 -0.8292
  693MOL0     H95583   8.256   5.478   5.732 -1.1804 -2.0089  0.0892
  693MOL0     H95584   8.181   5.797   5.884 -1.9692  0.4046 -2.1939
  693MOL0     H95585   8.265   5.718   5.742 -0.5541 -0.1671 -0.4638
  693MOL0     H95586   8.367   5.756   6.031 -2.5578  1.7128 -0.5702
  693MOL0     H95587   8.468   5.670   5.913 -0.5863  0.1090  1.0155
  693MOL0     H95588   8.490   5.852   5.775  2.3581 -3.4211  1.7259
  693MOL0     H95589   8.375   5.962   5.856  0.4798  1.5883  0.3199
  693MOL0     H95590   8.543   5.963   6.048  0.5622  0.0003  0.4208
  693MOL0     H95591   8.652   5.850   5.945 -1.0302 -0.3497 -2.4944
  693MOL0     H95592   8.796   5.984   6.068  1.8630  0.9139  2.2928
  693MOL0     H95593   8.998   6.013   6.202 -0.7607  0.2317 -0.3230
  693MOL0     H95594   9.029   6.180   6.246 -2.4888 -2.7615  1.8355
  693MOL0     H95595   9.137   6.101   6.137 -0.5921 -0.2632  1.2422
  693MOL0     H95596   9.361   6.325   6.140 -1.0334 -0.8008  1.3161
  693MOL0     H95597   9.539   6.491   6.220  0.5159  2.7212 -0.1549
  693MOL0     H95598   9.661   6.645   6.287 -2.1204 -2.2132 -1.3803
  693MOL0     H95599   9.668   6.732   6.131 -0.3967 -1.1451 -0.1099
  693MOL0     H95600   9.675   6.942   6.205  1.2684 -0.2022 -0.2398
  693MOL0     H95601   9.641   6.904   6.379  0.8061 -0.4185  1.0155
  693MOL0     H95602   9.901   6.921   6.247  0.1463 -1.1918 -0.1982
  693MOL0     H95603   9.867   6.756   6.270  0.2647  0.5670 -2.3430
  693MOL0     H95604   9.822   6.805   6.515 -1.2972  0.1447 -1.6143
  693MOL0     H95605   9.867   6.972   6.498 -2.0240 -0.7262  0.4313
  693MOL0     H95606  10.066   6.759   6.454  1.7542 -0.8274  3.3950
  693MOL0     H95607  10.087   6.927   6.408 -0.9010 -1.1293 -0.3262
  693MOL0     H95608  10.017   6.980   6.670 -2.1432 -1.7238 -1.3774
  693MOL0     H95609  10.180   6.911   6.629  1.0925 -0.7323 -0.3082
  693MOL0     H95610  10.106   6.690   6.677  0.5382  0.4993 -0.3388
  693MOL0     H95611   9.950   6.744   6.735  0.3275  1.0519  2.4227
  693MOL0     H95612  10.091   6.710   6.923 -0.2040  0.4942 -0.2281
  693MOL0     H95613  10.032   6.876   6.909  0.5330  1.1968  0.0952
  693MOL0     H95614   9.244   6.803   6.211  1.1361  0.8574 -0.8916
  693MOL0     H95615   9.076   6.650   6.163 -0.4931 -0.7656 -1.0344
  693MOL0     H95616   8.844   6.420   5.860  2.4613 -0.9447 -3.4594
  693MOL0     H95617   8.666   6.279   5.792  3.9477  2.5028 -2.8410
  693MOL0     H95618   7.261   4.891   5.552 -1.0369  0.7012 -0.5097
  693MOL0     H95619   7.038   4.862   5.459 -1.3557 -1.1579 -1.0526
  693MOL0     H95620   6.878   4.598   5.050 -1.3823 -0.4578  0.2886
  693MOL0     H95621   6.690   4.504   4.917  4.0895 -0.5824  2.4450
  693MOL0     H95622   6.417   4.531   4.972 -1.5315 -0.9094 -0.0713
  693MOL0     H95623   6.331   4.682   4.924 -1.4283 -0.9559 -0.4064
  693MOL0     H95624   6.341   4.433   4.755  2.4445  1.2978  1.1112
  693MOL0     H95625   6.257   4.591   4.714  1.7666  0.1145 -0.5477
  693MOL0     H95626   6.182   4.402   4.943  0.7999  0.2455  0.5971
  693MOL0     H95627   6.115   4.563   4.923  2.5022  1.3070 -0.1818
  693MOL0     H95628   6.022   4.479   4.689  2.9840  0.0217 -0.9785
  693MOL0     H95629   5.967   4.392   4.838 -0.6568  0.9775 -1.1419
  693MOL0     H95630   6.126   4.116   4.552  1.1476  0.3230 -0.0353
  693MOL0     H95631   6.556   4.894   4.829 -0.6453 -2.0143 -0.8273
  693MOL0     H95632   6.695   5.073   4.841 -1.1055 -0.9932  0.0010
  693MOL0     H95633   6.682   5.078   5.023  3.9976  0.6027  2.1091
  693MOL0     H95634   6.836   5.086   4.950  0.2405  1.2617 -3.6583
  694MOL0     O95635   8.548   9.714   5.161  0.0175 -0.1374 -0.3669
  694MOL0     C95636   8.484   9.784   5.086 -0.4270  0.4300  0.6878
  694MOL0     O95637   8.540   9.842   4.974 -0.4829 -0.2830  0.5052
  694MOL0     C95638   8.671   9.820   4.935 -0.1103 -0.4036 -0.1059
  694MOL0     C95639   8.712   9.924   4.846  0.6868 -0.3114 -0.4536
  694MOL0     C95640   8.839   9.925   4.777  0.6263  1.2145  0.2562
  694MOL0     C95641   8.921   9.821   4.794 -0.9508 -0.2346 -0.3489
  694MOL0     O95642   9.033   9.795   4.724 -0.4257 -0.5703 -0.5495
  694MOL0     C95643   9.065   9.878   4.616  0.1453 -0.5519  1.2270
  694MOL0     C95644   9.201   9.845   4.552 -0.6165 -0.1852  0.8938
  694MOL0     C95645   9.235   9.919   4.422  0.0344 -0.5942 -0.0240
  694MOL0     C95646   9.377   9.918   4.405  0.0269 -0.0371  0.1757
  694MOL0     C95647   9.434   9.989   4.282 -0.1081  0.1020  0.5957
  694MOL0     C95648   9.584   9.940   4.264  0.2774  0.0891 -0.6334
  694MOL0     C95649   9.671  10.034   4.184  1.2205  0.3259  0.4754
  694MOL0     C95650   9.817  10.002   4.185 -0.8396  0.1883  0.5308
  694MOL0     N95651   9.845   9.865   4.140 -0.1871 -0.2162 -0.7424
  694MOL0     C95652   9.845   9.749   4.209 -0.0593 -0.4558  0.6524
  694MOL0     C95653   9.834   9.646   4.115 -0.6681  0.0196  0.2809
  694MOL0     C95654   9.835   9.506   4.139  0.1183  0.0525  0.1293
  694MOL0     C95655   9.972   9.445   4.120  0.2225 -0.2924  0.0573
  694MOL0     C95656  10.062   9.489   4.232  1.0047 -0.3466  0.3977
  694MOL0     C95657  10.189   9.417   4.229 -0.0832 -0.0149  0.1037
  694MOL0     O95658  10.275   9.469   4.131  0.3813  0.2628 -0.3484
  694MOL0     C95659  10.388   9.539   4.164 -0.6475  0.6761 -0.0404
  694MOL0     C95660  10.456   9.592   4.062 -0.6169  0.4897 -0.1644
  694MOL0     C95661  10.567   9.684   4.078 -0.5616  0.1787 -0.4869
  694MOL0     C95662  10.620   9.751   3.947  0.4280 -0.2664 -0.4380
  694MOL0     C95663  10.612   9.718   4.207  0.5502 -0.1718 -0.8772
  694MOL0     C95664  10.735   9.799   4.238  1.1177  0.5544  0.0787
  694MOL0     O95665  10.752   9.834   4.369  0.0713 -1.0930  0.1384
  694MOL0     C95666  10.874   9.889   4.397  0.4036 -0.6197 -0.0380
  694MOL0     C95667  10.995   9.830   4.368 -0.0995 -0.2593  0.6478
  694MOL0     C95668  11.116   9.873   4.417 -0.0391  0.6427  0.1228
  694MOL0     C95669  11.115   9.973   4.510 -1.1222  0.4974 -0.6569
  694MOL0     O95670  11.226  10.024   4.575 -0.2835 -0.4798  0.5840
  694MOL0     C95671  11.356   9.981   4.537 -0.7690 -0.2261  0.7585
  694MOL0     C95672  11.461  10.073   4.605  0.8012 -0.3593  0.0599
  694MOL0     C95673  11.602  10.061   4.539  0.0228  0.2876 -1.0251
  694MOL0     C95674  11.712  10.130   4.627 -0.3817 -0.9377 -0.2329
  694MOL0     C95675  11.848  10.152   4.554 -0.0888  0.2250  0.0013
  694MOL0     C95676  11.907  10.020   4.508 -0.5200  0.4133  0.7816
  694MOL0     C95677  12.057  10.035   4.467 -0.6657 -0.0921 -0.2848
  694MOL0     C95678  12.138   9.903   4.464  0.1623  0.0897 -0.0267
  694MOL0    Cl95679  12.291   9.930   4.367  0.0220  0.5114 -0.2425
  694MOL0     C95680  10.993  10.025   4.548 -0.6731 -0.9209 -0.2181
  694MOL0     C95681  10.873   9.989   4.496 -0.4255  0.2997 -0.0604
  694MOL0     O95682  10.814   9.823   4.149  0.2662  0.1304 -0.5326
  694MOL0     C95683  10.542   9.660   4.315  0.5696  0.4621  0.0277
  694MOL0     C95684  10.434   9.571   4.298  0.8168  0.0998  0.1545
  694MOL0     N95685   9.834   9.706   3.988 -0.2198 -0.1001 -0.4717
  694MOL0     N95686   9.840   9.832   4.011  0.1692  0.7374 -0.0942
  694MOL0     C95687   8.884   9.728   4.891 -0.2604  0.1917 -0.1420
  694MOL0     C95688   8.768   9.724   4.961  0.3430 -0.1954  0.3809
  694MOL0     C95689   8.340   9.792   5.120  0.4709 -0.1632  0.7314
  694MOL0     C95690   8.286   9.717   5.226 -0.3056 -0.6459  0.5445
  694MOL0     C95691   8.158   9.728   5.271 -0.6756 -0.5463 -0.6218
  694MOL0     C95692   8.069   9.810   5.201 -0.7179  0.5544 -0.6012
  694MOL0     O95693   7.949   9.822   5.258 -0.4730  0.2831 -0.0826
  694MOL0     C95694   7.857   9.926   5.210 -1.0226 -0.2322  0.0330
  694MOL0     C95695   7.902  10.066   5.257 -0.2018 -0.1048 -1.3497
  694MOL0     C95696   7.865  10.093   5.407 -1.0938 -0.9015 -0.3653
  694MOL0     C95697   7.905  10.228   5.469  0.9170  0.3853 -0.2263
  694MOL0     C95698   7.860  10.348   5.394  0.3957  0.5855  0.3503
  694MOL0     C95699   7.814  10.444   5.337 -0.7486 -0.1901  0.1574
  694MOL0     C95700   8.111   9.879   5.082 -0.3100 -0.8954 -0.1521
  694MOL0     C95701   8.246   9.871   5.045  0.7741 -0.5031 -0.0637
  694MOL0     C95702   8.290   9.950   4.920  0.2954  0.4382  0.6432
  694MOL0     H95703   8.640  10.002   4.824 -0.1801 -0.1034  2.7162
  694MOL0     H95704   8.871   9.994   4.699  1.8308 -0.2200 -0.5632
  694MOL0     H95705   9.071   9.980   4.654 -1.9025 -0.1816  0.6772
  694MOL0     H95706   8.990   9.876   4.536 -0.4245  0.3896  1.7202
  694MOL0     H95707   9.274   9.863   4.631  1.0954 -2.5844 -0.0291
  694MOL0     H95708   9.200   9.739   4.525  1.8214  0.1887 -1.0640
  694MOL0     H95709   9.180   9.861   4.347  1.5737 -2.8883  0.5238
  694MOL0     H95710   9.214  10.026   4.431 -2.8709 -0.8078 -2.6770
  694MOL0     H95711   9.425   9.971   4.487  0.1263  0.3553 -0.1328
  694MOL0     H95712   9.408   9.813   4.397  1.3045  0.3214  0.1692
  694MOL0     H95713   9.445  10.098   4.288  2.1238  0.0112 -0.6044
  694MOL0     H95714   9.372   9.956   4.197 -0.9049 -0.7968  1.4980
  694MOL0     H95715   9.627   9.924   4.363 -1.1323  2.0468  0.3425
  694MOL0     H95716   9.587   9.846   4.207 -0.7096 -0.6171  0.4266
  694MOL0     H95717   9.644  10.131   4.226  0.4124  0.2700  0.1137
  694MOL0     H95718   9.629  10.029   4.083  2.1889 -1.3043  0.1069
  694MOL0     H95719   9.871  10.073   4.122 -3.4689  2.3395  0.5326
  694MOL0     H95720   9.861  10.013   4.285  1.4249  2.0395 -0.5744
  694MOL0     H95721   9.848   9.747   4.318  1.2871  0.8040  0.6623
  694MOL0     H95722   9.764   9.448   4.080  0.7038 -1.8996  1.2448
  694MOL0     H95723   9.785   9.495   4.236 -1.0484  0.9782 -0.3375
  694MOL0     H95724   9.978   9.336   4.114 -2.3635 -0.4061 -2.4586
  694MOL0     H95725  10.013   9.487   4.027  0.8858 -1.7783 -0.3542
  694MOL0     H95726  10.090   9.594   4.226 -0.0610 -0.1456 -1.8039
  694MOL0     H95727  10.013   9.467   4.327 -0.5265  0.0386 -0.2788
  694MOL0     H95728  10.225   9.426   4.331  0.4732 -2.4654  0.1877
  694MOL0     H95729  10.175   9.310   4.208 -2.8877  0.1328  0.8669
  694MOL0     H95730  10.400   9.571   3.971 -3.0086  1.1390  1.1019
  694MOL0     H95731  10.711   9.707   3.904  0.1511  0.4217 -1.7940
  694MOL0     H95732  10.629   9.859   3.962 -5.2724  0.3581  0.6806
  694MOL0     H95733  10.539   9.748   3.873  1.0625  1.3293 -1.2393
  694MOL0     H95734  10.986   9.733   4.320 -1.0937  0.9916 -1.9223
  694MOL0     H95735  11.212   9.824   4.400 -0.3297 -1.3885  3.4329
  694MOL0     H95736  11.372   9.877   4.567 -2.2085 -0.2374  1.5481
  694MOL0     H95737  11.368   9.989   4.428  1.7181 -2.6088  0.7573
  694MOL0     H95738  11.430  10.177   4.604  1.0120 -0.2522 -2.3440
  694MOL0     H95739  11.474  10.053   4.712 -1.7985 -0.5483  0.4048
  694MOL0     H95740  11.603  10.108   4.440 -1.8310  0.3625 -1.0365
  694MOL0     H95741  11.622   9.954   4.526  2.0415  0.7150 -1.8697
  694MOL0     H95742  11.725  10.063   4.713  1.8810 -0.3192 -0.0336
  694MOL0     H95743  11.665  10.222   4.664  0.1239 -0.7231 -0.1242
  694MOL0     H95744  11.827  10.208   4.463 -0.6633  4.4616  2.4711
  694MOL0     H95745  11.906  10.215   4.623  1.7299  0.4532 -1.6501
  694MOL0     H95746  11.852   9.980   4.422  0.1865  1.0449  0.0236
  694MOL0     H95747  11.911   9.950   4.592  2.0270  0.7446  1.0116
  694MOL0     H95748  12.096  10.124   4.518 -0.5491  0.4237 -1.2574
  694MOL0     H95749  12.057  10.071   4.364 -0.1448  1.3952  0.2048
  694MOL0     H95750  12.087   9.818   4.417  0.3417  0.5264 -1.0407
  694MOL0     H95751  12.171   9.871   4.564  0.7154 -1.7124 -0.7438
  694MOL0     H95752  11.005  10.117   4.604  2.7529 -1.0997 -0.4399
  694MOL0     H95753  10.777  10.034   4.523 -1.4352 -1.6510 -0.2180
  694MOL0     H95754  10.571   9.695   4.414 -1.6747 -0.2312  0.9997
  694MOL0     H95755  10.389   9.532   4.388  2.8530 -1.7817  0.4486
  694MOL0     H95756   8.943   9.641   4.917 -2.7922 -1.5856 -0.0293
  694MOL0     H95757   8.739   9.658   5.042  0.4900  0.5965  1.0885
  694MOL0     H95758   8.350   9.648   5.282  0.9610  1.0912  1.3350
  694MOL0     H95759   8.116   9.683   5.360  1.3318  0.5310  0.9621
  694MOL0     H95760   7.848   9.925   5.101  0.4044 -0.2214 -0.1091
  694MOL0     H95761   7.760   9.892   5.246  0.1211 -3.4883  0.4231
  694MOL0     H95762   7.852  10.136   5.190  1.6569  2.1832 -0.5125
  694MOL0     H95763   8.011  10.074   5.251 -0.3933  2.8509 -2.4514
  694MOL0     H95764   7.755  10.087   5.407 -1.0932 -0.9104 -0.3111
  694MOL0     H95765   7.907  10.011   5.465 -0.2132 -0.2325 -0.0465
  694MOL0     H95766   8.014  10.216   5.477  0.8241 -0.9397 -0.7301
  694MOL0     H95767   7.854  10.249   5.564 -1.8922 -0.2313 -1.5068
  694MOL0     H95768   7.792  10.538   5.290 -0.6075 -0.6710 -0.9051
  694MOL0     H95769   8.043   9.942   5.025  2.7746  2.3724 -0.5944
  694MOL0     H95770   8.323   9.887   4.837 -2.6224  0.7093 -0.8655
  694MOL0     H95771   8.204  10.002   4.875  1.4160  0.9520 -0.9985
  694MOL0     H95772   8.369  10.016   4.956 -1.4879  2.5591  0.9202
  695MOL0     O95773   0.375   9.449   1.040  0.6552 -0.7437  0.4089
  695MOL0     C95774   0.379   9.359   0.959  0.0394  0.3543  0.3196
  695MOL0     O95775   0.478   9.261   0.959 -0.3083 -0.4381  0.2591
  695MOL0     C95776   0.588   9.290   1.032 -0.2901  0.1593 -0.2381
  695MOL0     C95777   0.623   9.191   1.127 -0.7350  0.4082  0.0626
  695MOL0     C95778   0.735   9.208   1.209  0.2370 -0.5574  0.5969
  695MOL0     C95779   0.813   9.317   1.206  0.5183  0.2140 -0.1090
  695MOL0     O95780   0.922   9.319   1.287 -0.0403 -0.3379  0.0697
  695MOL0     C95781   0.979   9.446   1.333 -0.2667 -0.6412  0.0975
  695MOL0     C95782   1.100   9.412   1.410  0.1565  0.4685  0.7045
  695MOL0     C95783   1.138   9.519   1.513  0.1399  0.0298  0.1719
  695MOL0     C95784   1.290   9.503   1.542  0.2118 -0.1716  0.1600
  695MOL0     C95785   1.338   9.591   1.660  0.9168  0.3927  0.8501
  695MOL0     C95786   1.500   9.623   1.641 -0.9260 -0.2235  0.3384
  695MOL0     C95787   1.587   9.497   1.609  0.6669  0.0120  0.1877
  695MOL0     C95788   1.730   9.532   1.653 -0.4824 -0.6457  0.1960
  695MOL0     N95789   1.830   9.435   1.604 -0.0450 -0.6147  0.2747
  695MOL0     C95790   1.944   9.462   1.528 -0.3703  0.2284 -0.7428
  695MOL0     C95791   2.034   9.365   1.555 -0.1543  1.3285  0.0077
  695MOL0     C95792   2.164   9.340   1.484  0.0445 -0.0028  0.5528
  695MOL0     C95793   2.127   9.327   1.331  0.7420 -0.4869 -0.2287
  695MOL0     C95794   2.229   9.258   1.242 -0.2427  0.3858  0.4576
  695MOL0     C95795   2.365   9.333   1.252  0.5447  0.0429  0.8220
  695MOL0     O95796   2.343   9.471   1.232 -0.2710  0.1464 -0.5014
  695MOL0     C95797   2.458   9.551   1.233  1.2656  0.5261 -0.6782
  695MOL0     C95798   2.590   9.500   1.250  0.2767 -1.1671  0.0576
  695MOL0     C95799   2.696   9.594   1.251  0.6203 -0.6764 -0.0133
  695MOL0     C95800   2.830   9.539   1.274 -0.2049  0.5158  0.5233
  695MOL0     C95801   2.679   9.730   1.222  0.1868  0.0494 -0.3745
  695MOL0     C95802   2.778   9.832   1.234 -0.1821 -0.3972 -0.5089
  695MOL0     O95803   2.893   9.817   1.161  0.1067  0.4436 -0.4423
  695MOL0     C95804   2.986   9.915   1.200  0.2814  0.0647  0.8103
  695MOL0     C95805   2.981  10.035   1.129  0.2532  0.0725  0.2700
  695MOL0     C95806   3.076  10.132   1.155  0.0602  0.9372  0.6587
  695MOL0     C95807   3.183  10.111   1.243 -0.3966 -0.1095 -0.7035
  695MOL0     O95808   3.277  10.204   1.278 -0.3063 -0.3319  0.0042
  695MOL0     C95809   3.228  10.336   1.269  0.1252  0.0941 -0.1710
  695MOL0     C95810   3.333  10.425   1.334  0.1656  0.6735  0.1428
  695MOL0     C95811   3.474  10.407   1.281  1.1531  0.4294 -0.7694
  695MOL0     C95812   3.554  10.517   1.357  0.3309 -0.0367  0.4333
  695MOL0     C95813   3.697  10.519   1.303  0.3477 -0.2643 -0.1609
  695MOL0     C95814   3.783  10.606   1.392 -0.1263  0.2852 -0.8561
  695MOL0     C95815   3.922  10.602   1.337  0.6740 -0.1516 -0.2842
  695MOL0     C95816   4.016  10.686   1.436  0.3127  0.7925  0.2623
  695MOL0    Cl95817   4.033  10.600   1.583  0.5526 -0.0058  0.2450
  695MOL0     C95818   3.198   9.978   1.298 -0.7171 -0.7948 -0.5982
  695MOL0     C95819   3.096   9.892   1.285 -1.0707 -0.1940 -0.0391
  695MOL0     O95820   2.759   9.920   1.320  0.4074  0.3819  0.2042
  695MOL0     C95821   2.546   9.779   1.207  0.1900 -0.4017 -0.2253
  695MOL0     C95822   2.438   9.693   1.221 -0.3304 -0.0198 -0.2494
  695MOL0     N95823   1.981   9.280   1.652 -0.3155 -0.4937 -0.4019
  695MOL0     N95824   1.857   9.325   1.675  0.1866 -0.9004 -0.7041
  695MOL0     C95825   0.778   9.413   1.107 -0.2776 -0.0810 -0.8165
  695MOL0     C95826   0.664   9.404   1.025 -0.2899  0.0677  0.3267
  695MOL0     C95827   0.273   9.337   0.858 -0.4817 -1.0911 -0.9773
  695MOL0     C95828   0.273   9.211   0.789  0.2945 -1.3704 -0.6576
  695MOL0     C95829   0.177   9.181   0.694  0.3607  0.1893 -0.1055
  695MOL0     C95830   0.070   9.271   0.670 -0.3579 -1.4949  0.0167
  695MOL0     O95831  -0.033   9.245   0.580 -0.7723 -0.4886 -0.4209
  695MOL0     C95832  -0.011   9.150   0.481 -0.1854  0.3896  0.6105
  695MOL0     C95833   0.093   9.190   0.374 -0.0659 -0.6850 -0.5347
  695MOL0     C95834   0.135   9.066   0.298 -0.3872  0.5761  1.4183
  695MOL0     C95835   0.238   9.095   0.188  0.8883  0.2345 -0.0683
  695MOL0     C95836   0.368   9.128   0.246  0.1149 -0.3144  0.5345
  695MOL0     C95837   0.470   9.147   0.309  0.8359  0.0997 -0.3989
  695MOL0     C95838   0.060   9.393   0.746 -0.9752 -0.2086  0.5628
  695MOL0     C95839   0.161   9.429   0.830 -1.1763 -0.1343 -0.1396
  695MOL0     C95840   0.137   9.549   0.920 -0.7162  0.3484 -0.0356
  695MOL0     H95841   0.571   9.096   1.126 -1.7041  0.8927  1.3114
  695MOL0     H95842   0.742   9.130   1.283 -3.6413 -1.5102  0.2117
  695MOL0     H95843   0.902   9.499   1.390  0.3249  0.9418 -0.5242
  695MOL0     H95844   1.008   9.519   1.257  0.9946  0.8411  1.9129
  695MOL0     H95845   1.077   9.313   1.450  1.5860 -0.6195 -0.9769
  695MOL0     H95846   1.186   9.401   1.343 -0.9483 -1.6526 -0.4806
  695MOL0     H95847   1.118   9.622   1.484 -2.0586 -0.3916 -0.0196
  695MOL0     H95848   1.077   9.504   1.603  0.2463 -0.5177  0.1559
  695MOL0     H95849   1.318   9.399   1.564  1.9532  0.8425  3.4710
  695MOL0     H95850   1.344   9.524   1.449 -1.0085 -3.0283 -1.3376
  695MOL0     H95851   1.314   9.544   1.756 -0.4524  0.2298  0.4510
  695MOL0     H95852   1.284   9.686   1.663  2.2423  1.1684  1.1919
  695MOL0     H95853   1.524   9.700   1.567  1.2648 -1.7585 -0.6489
  695MOL0     H95854   1.537   9.667   1.735 -1.2878  1.0883 -0.1192
  695MOL0     H95855   1.581   9.468   1.504  0.8797 -2.1185  0.7287
  695MOL0     H95856   1.548   9.416   1.671 -0.9816 -0.3733 -1.2856
  695MOL0     H95857   1.745   9.632   1.613 -0.3265 -1.6216 -2.4111
  695MOL0     H95858   1.731   9.527   1.762 -0.1340 -2.4257  0.1389
  695MOL0     H95859   1.954   9.541   1.454  1.2225  0.5743 -0.2098
  695MOL0     H95860   2.215   9.253   1.527 -0.9720 -0.9797 -0.1711
  695MOL0     H95861   2.233   9.425   1.495 -0.8233  0.8429 -0.3257
  695MOL0     H95862   2.030   9.277   1.322 -0.6112  1.8621  0.4263
  695MOL0     H95863   2.102   9.426   1.291  0.3523 -0.4505  0.0954
  695MOL0     H95864   2.255   9.156   1.272 -0.4752 -1.1218 -3.8783
  695MOL0     H95865   2.198   9.247   1.138  0.1348  0.7698  0.3025
  695MOL0     H95866   2.404   9.309   1.351  1.0078 -0.3219  0.5572
  695MOL0     H95867   2.439   9.302   1.177  2.5503  1.9398  1.9121
  695MOL0     H95868   2.612   9.401   1.286 -2.0369 -1.0477  2.0314
  695MOL0     H95869   2.840   9.435   1.240 -0.9550  0.3265  0.8628
  695MOL0     H95870   2.859   9.552   1.379  1.3038 -0.6327  0.2983
  695MOL0     H95871   2.898   9.598   1.212 -1.5801  2.6476  0.9447
  695MOL0     H95872   2.907  10.060   1.054  1.9316 -0.2611 -1.5944
  695MOL0     H95873   3.067  10.226   1.102  2.0162  1.1188  0.5744
  695MOL0     H95874   3.197  10.374   1.171  0.8534 -0.4267 -0.6094
  695MOL0     H95875   3.139  10.339   1.332  0.0784 -0.3749 -0.2111
  695MOL0     H95876   3.297  10.529   1.330  2.3197  1.4394 -0.5029
  695MOL0     H95877   3.337  10.408   1.442 -1.6526  0.6803  0.2476
  695MOL0     H95878   3.474  10.435   1.175 -2.4966 -1.4084 -1.3887
  695MOL0     H95879   3.520  10.312   1.308  1.4735  0.4922 -1.0846
  695MOL0     H95880   3.560  10.501   1.465  0.8151  0.5891  0.5040
  695MOL0     H95881   3.502  10.613   1.355  2.6190  1.2734 -0.4378
  695MOL0     H95882   3.737  10.418   1.294 -0.8074 -0.7258 -0.3135
  695MOL0     H95883   3.689  10.546   1.198  1.4029 -0.7085 -0.3591
  695MOL0     H95884   3.763  10.565   1.491 -0.1556 -1.0351 -1.3980
  695MOL0     H95885   3.753  10.711   1.395  1.6842  0.9883 -3.1959
  695MOL0     H95886   3.917  10.641   1.235 -0.0773  0.7402  0.0774
  695MOL0     H95887   3.963  10.501   1.330  1.7948  0.2308  0.3765
  695MOL0     H95888   3.987  10.787   1.466  2.7106  1.2807  1.1780
  695MOL0     H95889   4.112  10.697   1.384  0.0644 -2.7247 -1.2265
  695MOL0     H95890   3.280   9.948   1.363 -1.8066  1.3702  1.9570
  695MOL0     H95891   3.095   9.797   1.338 -2.7220  0.3331  0.9479
  695MOL0     H95892   2.522   9.884   1.193 -2.3310 -0.9793 -0.7187
  695MOL0     H95893   2.333   9.718   1.208 -0.3128 -0.2481 -0.8311
  695MOL0     H95894   0.843   9.499   1.103  1.0178 -0.8348  1.5629
  695MOL0     H95895   0.633   9.485   0.960  0.8747 -0.8807 -1.4736
  695MOL0     H95896   0.357   9.145   0.801  1.2710 -0.0787 -0.1622
  695MOL0     H95897   0.187   9.088   0.639 -1.1335 -0.7291  1.0808
  695MOL0     H95898   0.001   9.051   0.525 -0.8543 -0.6348 -1.3950
  695MOL0     H95899  -0.104   9.147   0.423  0.5209  0.5000 -0.5755
  695MOL0     H95900   0.176   9.241   0.423 -0.2368 -1.4703  0.6129
  695MOL0     H95901   0.055   9.263   0.302 -0.9647 -1.6138 -1.0217
  695MOL0     H95902   0.169   8.982   0.360 -0.2422 -0.6110 -0.2070
  695MOL0     H95903   0.054   9.030   0.233  0.9592  1.6226 -0.9691
  695MOL0     H95904   0.196   9.181   0.136  1.8780  0.4572 -0.5196
  695MOL0     H95905   0.250   9.005   0.126 -1.0112 -1.3565  1.7190
  695MOL0     H95906   0.552   9.166   0.375 -0.6719  2.9899  0.8155
  695MOL0     H95907  -0.022   9.462   0.729 -1.8315 -1.4736 -0.6933
  695MOL0     H95908   0.084   9.527   1.013  2.4472  1.8916  2.3423
  695MOL0     H95909   0.236   9.595   0.926  0.1455 -1.0560 -2.1332
  695MOL0     H95910   0.095   9.630   0.859  0.9663 -0.0573 -1.8228
  696MOL0     O95911   3.724   5.168  10.275 -0.4354 -0.0342 -0.5408
  696MOL0     C95912   3.669   5.071  10.220 -1.1037  0.1455 -0.4718
  696MOL0     O95913   3.730   4.974  10.141  0.2818 -0.2871 -1.0404
  696MOL0     C95914   3.859   4.997  10.093  0.5041 -0.2946 -0.7096
  696MOL0     C95915   3.880   5.063   9.973  0.2574 -0.0001 -0.4062
  696MOL0     C95916   4.008   5.069   9.907  1.0270  0.1704 -0.1039
  696MOL0     C95917   4.121   5.035   9.980 -0.4511 -0.0419 -0.4847
  696MOL0     O95918   4.241   5.055   9.908  0.0010 -0.3367 -0.0123
  696MOL0     C95919   4.363   5.015   9.976  0.0591 -0.3285  1.0244
  696MOL0     C95920   4.487   5.065   9.904 -1.0345  0.1551  0.1300
  696MOL0     C95921   4.602   4.995   9.969 -0.0958  0.2615  0.6103
  696MOL0     C95922   4.736   5.051   9.932 -0.5413  0.4105 -0.0532
  696MOL0     C95923   4.856   4.960   9.951 -0.4327  0.1991 -0.3328
  696MOL0     C95924   4.859   4.876  10.084  0.8045 -0.8602  0.5862
  696MOL0     C95925   4.990   4.794  10.086  0.0861 -0.6210 -0.2784
  696MOL0     C95926   5.008   4.735  10.220 -0.0049  0.2577  0.4865
  696MOL0     N95927   5.126   4.650  10.213  0.5753 -0.2247  0.7060
  696MOL0     C95928   5.253   4.691  10.226  0.0168  0.1789 -0.4530
  696MOL0     C95929   5.329   4.587  10.216 -0.1550  0.1015 -0.0023
  696MOL0     C95930   5.479   4.581  10.223  0.0192  0.2264 -0.2280
  696MOL0     C95931   5.541   4.667  10.316 -0.3498  0.1586 -0.2871
  696MOL0     C95932   5.683   4.609  10.356 -0.1825 -1.1488  0.6179
  696MOL0     C95933   5.801   4.597  10.247 -1.4940  0.5821 -0.7631
  696MOL0     O95934   5.916   4.533  10.302  0.2708  0.9795 -0.6823
  696MOL0     C95935   6.015   4.497  10.210 -0.5027 -0.8390  0.2416
  696MOL0     C95936   6.124   4.442  10.275 -0.5419  0.0646 -0.2725
  696MOL0     C95937   6.241   4.421  10.203 -0.6497  0.4045 -0.1410
  696MOL0     C95938   6.359   4.375  10.287  0.1408  0.6161  0.3413
  696MOL0     C95939   6.245   4.463  10.066  0.1713  0.8393  0.6341
  696MOL0     C95940   6.367   4.447   9.981  0.8173 -0.0973 -0.1514
  696MOL0     O95941   6.443   4.340  10.008 -0.4032  0.1662 -0.2018
  696MOL0     C95942   6.571   4.350   9.977 -0.4764  0.3179  0.3557
  696MOL0     C95943   6.614   4.255   9.883  0.1315 -0.1446  0.7499
  696MOL0     C95944   6.747   4.248   9.848  0.1564  0.5544 -0.2127
  696MOL0     C95945   6.836   4.334   9.905 -0.3384  0.0535  0.2877
  696MOL0     O95946   6.964   4.347   9.863 -0.2305 -0.3826 -0.1228
  696MOL0     C95947   7.065   4.242   9.875  0.3155  0.5048 -0.3117
  696MOL0     C95948   7.202   4.310   9.866 -0.9765 -0.0109  0.3264
  696MOL0     C95949   7.328   4.229   9.905 -0.9586 -0.0765  0.0688
  696MOL0     C95950   7.454   4.323   9.939 -0.3250  0.2062  0.8181
  696MOL0     C95951   7.553   4.243  10.027  0.2549  0.3804 -0.0837
  696MOL0     C95952   7.688   4.323  10.039 -0.6918 -0.2944 -0.2253
  696MOL0     C95953   7.804   4.249  10.097  0.2020  0.8344  0.0458
  696MOL0     C95954   7.929   4.331  10.094  0.3402 -0.2070  0.2481
  696MOL0    Cl95955   7.898   4.501  10.129 -0.0573 -0.0510  0.7041
  696MOL0     C95956   6.801   4.427  10.011 -0.4169  0.0942  0.6075
  696MOL0     C95957   6.666   4.428  10.045 -0.7215  0.2990  0.3569
  696MOL0     O95958   6.397   4.538   9.909 -0.1491 -0.7407  0.3038
  696MOL0     C95959   6.137   4.519  10.005  1.0603  0.0087  0.0705
  696MOL0     C95960   6.020   4.526  10.077 -0.6458 -1.2525 -0.6822
  696MOL0     N95961   5.250   4.478  10.186  0.6034  0.2396  0.3616
  696MOL0     N95962   5.127   4.519  10.184  0.1158  0.0805 -0.2106
  696MOL0     C95963   4.106   4.970  10.104  0.7030  0.0395 -0.2157
  696MOL0     C95964   3.973   4.943  10.153 -0.3320  0.4088  0.0933
  696MOL0     C95965   3.525   5.063  10.245  0.4880 -0.2410 -0.3536
  696MOL0     C95966   3.439   5.023  10.140 -0.2992 -0.2759  0.4166
  696MOL0     C95967   3.296   5.016  10.164 -0.1982  0.0580  0.1315
  696MOL0     C95968   3.240   5.047  10.296 -0.4893  0.4260  0.8186
  696MOL0     O95969   3.104   5.051  10.308 -0.4570 -0.0263 -0.1856
  696MOL0     C95970   3.054   5.113  10.427  0.5341  0.8328 -0.8615
  696MOL0     C95971   2.906   5.144  10.404 -0.6605  0.0179  0.6626
  696MOL0     C95972   2.833   5.183  10.532  0.2182  0.5318 -0.3798
  696MOL0     C95973   2.696   5.262  10.517 -0.2759 -0.9809  0.8547
  696MOL0     C95974   2.584   5.178  10.485 -0.2464 -0.0390  1.1095
  696MOL0     C95975   2.488   5.102  10.475 -0.8861 -0.0623 -0.6104
  696MOL0     C95976   3.333   5.094  10.390 -0.0971 -0.2427  0.3530
  696MOL0     C95977   3.470   5.092  10.372  0.3123 -0.7521 -0.3230
  696MOL0     C95978   3.559   5.104  10.501  0.5483  0.2404  0.0318
  696MOL0     H95979   3.801   5.107   9.913  0.9289  1.8450 -0.0086
  696MOL0     H95980   4.021   5.129   9.817  0.4324  0.3261 -0.0896
  696MOL0     H95981   4.367   4.906   9.986 -0.3743 -0.3812  0.6565
  696MOL0     H95982   4.363   5.056  10.078 -2.0901 -2.0574  1.8007
  696MOL0     H95983   4.478   5.045   9.797  0.9901  0.8874 -0.2084
  696MOL0     H95984   4.507   5.171   9.915  0.9639 -0.2605  0.8492
  696MOL0     H95985   4.588   4.999  10.077 -0.9820 -3.1377  0.7208
  696MOL0     H95986   4.610   4.890   9.939  0.2153  0.4334  0.0782
  696MOL0     H95987   4.745   5.075   9.826 -3.3746 -1.4323 -0.8178
  696MOL0     H95988   4.756   5.141   9.991 -1.3518 -0.9672  2.5083
  696MOL0     H95989   4.951   5.011   9.931  2.1386 -4.0533 -0.2822
  696MOL0     H95990   4.856   4.890   9.867 -0.0712  1.0139 -1.0310
  696MOL0     H95991   4.853   4.942  10.170 -2.5421 -0.3899  0.1313
  696MOL0     H95992   4.778   4.802  10.074 -1.2675  1.3811 -0.3682
  696MOL0     H95993   5.075   4.861  10.066 -0.1014 -0.3995 -0.3402
  696MOL0     H95994   4.996   4.715  10.011  4.2377 -0.3813 -0.4604
  696MOL0     H95995   5.024   4.813  10.295 -2.8334  0.7808  0.6458
  696MOL0     H95996   4.918   4.678  10.247 -0.1250  0.5598  0.7244
  696MOL0     H95997   5.293   4.791  10.234 -0.1541  0.1329  1.2843
  696MOL0     H95998   5.515   4.601  10.122 -1.1867 -4.4160 -1.8334
  696MOL0     H95999   5.494   4.473  10.236  0.5745  0.5297  2.2157
  696MOL0     H96000   5.543   4.772  10.284 -0.3827 -0.3298 -1.9903
  696MOL0     H96001   5.477   4.668  10.405 -0.9857 -2.2649 -0.6513
  696MOL0     H96002   5.719   4.666  10.441 -1.7978  1.6846 -0.4851
  696MOL0     H96003   5.662   4.505  10.384 -1.0666 -1.9808 -2.6617
  696MOL0     H96004   5.767   4.537  10.162  3.3089 -0.9427 -1.9205
  696MOL0     H96005   5.836   4.696  10.218 -2.5071  0.4303 -2.5768
  696MOL0     H96006   6.117   4.430  10.383  0.3542 -1.0855 -0.3154
  696MOL0     H96007   6.321   4.334  10.381 -0.0783  1.0184  0.4290
  696MOL0     H96008   6.425   4.461  10.305  1.3372  0.7730 -3.7497
  696MOL0     H96009   6.408   4.292  10.235  0.0449  0.5489  0.3567
  696MOL0     H96010   6.549   4.183   9.835  0.1303 -0.4519  1.2067
  696MOL0     H96011   6.766   4.180   9.766  0.7728  0.3338  0.1097
  696MOL0     H96012   7.055   4.187   9.969  0.7601 -2.0665 -1.6871
  696MOL0     H96013   7.053   4.170   9.794  2.0652  1.9656 -1.9797
  696MOL0     H96014   7.211   4.341   9.761 -2.0154 -0.7550 -0.0020
  696MOL0     H96015   7.199   4.403   9.922  1.3882 -1.0495  2.3284
  696MOL0     H96016   7.365   4.162   9.827 -1.3071 -2.0025  1.5005
  696MOL0     H96017   7.307   4.169   9.994 -0.2635 -2.1220 -1.0748
  696MOL0     H96018   7.419   4.405  10.002  0.8818  1.2414  0.2068
  696MOL0     H96019   7.492   4.369   9.847  0.0382  1.3516  1.5207
  696MOL0     H96020   7.517   4.201  10.121 -0.1943 -3.2009 -1.6689
  696MOL0     H96021   7.574   4.160   9.959  0.1843  0.1668  0.1591
  696MOL0     H96022   7.660   4.409  10.100 -2.7648 -1.4106  0.5165
  696MOL0     H96023   7.722   4.334   9.936  0.7656  1.4675  0.3919
  696MOL0     H96024   7.828   4.155  10.047 -0.8765 -0.9748  2.6883
  696MOL0     H96025   7.790   4.220  10.202  2.2344 -2.0954 -0.3624
  696MOL0     H96026   7.977   4.313   9.998  0.0110  1.0359 -0.1694
  696MOL0     H96027   8.002   4.288  10.163 -0.2740  1.0981  1.7864
  696MOL0     H96028   6.878   4.484  10.062 -0.3919  0.6939 -0.0850
  696MOL0     H96029   6.625   4.483  10.129 -2.2626 -0.7504  0.3372
  696MOL0     H96030   6.148   4.546   9.900  0.5299  1.8938  0.4671
  696MOL0     H96031   5.929   4.552  10.024 -0.5473 -3.2106 -1.9374
  696MOL0     H96032   4.192   4.937  10.160  0.0656  0.9977  1.3789
  696MOL0     H96033   3.949   4.895  10.248 -0.5858 -1.9732 -1.0915
  696MOL0     H96034   3.482   5.001  10.043  0.0709  0.4159  0.4166
  696MOL0     H96035   3.228   4.980  10.088  0.2436  1.2788 -0.8842
  696MOL0     H96036   3.060   5.047  10.514 -0.9389 -0.5695 -1.7699
  696MOL0     H96037   3.111   5.201  10.457  1.4385 -0.1202  0.2975
  696MOL0     H96038   2.857   5.058  10.356  2.1873 -1.3610  0.0271
  696MOL0     H96039   2.909   5.224  10.331  0.0689  1.3062  2.0486
  696MOL0     H96040   2.812   5.089  10.584 -2.7720  1.0381 -0.4982
  696MOL0     H96041   2.888   5.253  10.596  0.7045  0.4329 -0.6895
  696MOL0     H96042   2.705   5.343  10.444  3.5884 -1.7999  0.2330
  696MOL0     H96043   2.677   5.307  10.615 -0.8181  0.6176  0.0460
  696MOL0     H96044   2.405   5.040  10.450 -1.2626 -0.3917  1.2664
  696MOL0     H96045   3.300   5.104  10.492 -0.7916 -1.2211  0.2374
  696MOL0     H96046   3.545   5.205  10.539  1.1163  0.2111  0.3202
  696MOL0     H96047   3.523   5.031  10.574  0.9003 -0.8816 -0.8839
  696MOL0     H96048   3.665   5.077  10.493  0.8342  1.0695  0.8029
  697MOL0     O96049   3.797   5.310   6.223  0.0847 -0.6251 -0.4440
  697MOL0     C96050   3.684   5.339   6.276 -0.8806 -0.2345  1.1664
  697MOL0     O96051   3.661   5.348   6.408 -0.2174  0.4837 -0.4129
  697MOL0     C96052   3.760   5.305   6.491  0.0184 -0.4901 -0.5923
  697MOL0     C96053   3.819   5.406   6.567  0.9791  0.4893 -0.2318
  697MOL0     C96054   3.900   5.370   6.672 -0.6451 -0.2892  0.4472
  697MOL0     C96055   3.947   5.237   6.684  0.3771 -0.1981 -0.5111
  697MOL0     O96056   4.041   5.210   6.779  0.6099  0.0333 -0.3006
  697MOL0     C96057   4.165   5.272   6.766 -0.0161  0.5184 -0.5105
  697MOL0     C96058   4.279   5.159   6.774 -0.8933 -0.4432 -0.3151
  697MOL0     C96059   4.424   5.199   6.776 -0.2245 -0.2864  0.3561
  697MOL0     C96060   4.470   5.235   6.635 -0.1641  0.2371 -0.8736
  697MOL0     C96061   4.609   5.175   6.600  0.3108 -0.2194  0.5783
  697MOL0     C96062   4.648   5.195   6.448  0.5338  0.4073  0.7827
  697MOL0     C96063   4.594   5.076   6.360 -0.5963  0.1010  0.6831
  697MOL0     C96064   4.696   4.967   6.335  0.5508  0.5506 -0.8804
  697MOL0     N96065   4.633   4.843   6.290 -0.1338 -0.0047 -0.0581
  697MOL0     C96066   4.577   4.824   6.174  0.8225  0.0799 -0.4129
  697MOL0     C96067   4.535   4.692   6.170  0.6529  0.1702  0.0489
  697MOL0     C96068   4.463   4.612   6.063 -0.8376 -0.0885 -0.0518
  697MOL0     C96069   4.377   4.701   5.970 -0.2393 -0.1217 -0.1405
  697MOL0     C96070   4.354   4.658   5.826 -0.5160 -0.0102  0.4763
  697MOL0     C96071   4.300   4.523   5.818  0.5128 -0.2864  1.1780
  697MOL0     O96072   4.271   4.509   5.679 -0.3063  0.5423 -0.2465
  697MOL0     C96073   4.186   4.406   5.649 -0.8481 -0.6017  0.9088
  697MOL0     C96074   4.178   4.391   5.508  1.3887 -0.0192 -0.1462
  697MOL0     C96075   4.084   4.306   5.440  0.5458 -0.1563  0.6659
  697MOL0     C96076   4.074   4.325   5.287  0.8094  0.3432 -0.0205
  697MOL0     C96077   4.011   4.220   5.529  0.3483 -0.1473 -0.9904
  697MOL0     C96078   3.913   4.118   5.481  0.0266 -1.0990  0.1627
  697MOL0     O96079   3.873   4.019   5.567  0.2382  0.3949 -0.5824
  697MOL0     C96080   3.781   3.935   5.506  0.2864 -0.5345 -0.4710
  697MOL0     C96081   3.644   3.966   5.520  0.1519  0.0630  0.2042
  697MOL0     C96082   3.548   3.869   5.481  0.6398  0.5545 -0.1367
  697MOL0     C96083   3.591   3.742   5.430  0.4810 -0.0598  0.6354
  697MOL0     O96084   3.508   3.636   5.386 -0.3853 -0.2166  0.8013
  697MOL0     C96085   3.370   3.652   5.404 -0.3861 -0.5737 -0.0202
  697MOL0     C96086   3.294   3.704   5.281  0.4355  0.4561 -0.3645
  697MOL0     C96087   3.313   3.609   5.166  0.5828  0.2914 -0.0803
  697MOL0     C96088   3.191   3.622   5.071 -1.0330 -0.6262  0.1201
  697MOL0     C96089   3.174   3.507   4.963 -0.8585 -0.4385 -0.5512
  697MOL0     C96090   3.293   3.497   4.876 -0.4018  0.0718  0.5355
  697MOL0     C96091   3.285   3.366   4.800  0.3108  0.6784  0.0615
  697MOL0     C96092   3.422   3.344   4.738  0.2594 -0.5686 -0.3914
  697MOL0    Cl96093   3.547   3.292   4.857  0.5858 -0.0656 -0.2642
  697MOL0     C96094   3.728   3.726   5.408 -0.4420 -0.2808  0.2881
  697MOL0     C96095   3.826   3.824   5.448 -0.2630 -1.0997 -0.1016
  697MOL0     O96096   3.864   4.142   5.370 -0.1536  0.2285  0.2736
  697MOL0     C96097   4.022   4.236   5.671  0.1470 -0.1450 -0.1939
  697MOL0     C96098   4.115   4.321   5.728 -0.0357 -0.2318  0.3268
  697MOL0     N96099   4.579   4.637   6.296  0.1550  0.5429 -0.3519
  697MOL0     N96100   4.637   4.728   6.363  0.0459  0.4453 -0.1028
  697MOL0     C96101   3.897   5.140   6.605 -0.8669  1.0157 -0.0901
  697MOL0     C96102   3.799   5.169   6.509 -0.6336  0.2383 -0.5922
  697MOL0     C96103   3.572   5.360   6.183 -0.4215  0.2255  0.4119
  697MOL0     C96104   3.449   5.391   6.239 -0.7754 -0.2271 -0.1418
  697MOL0     C96105   3.337   5.435   6.166 -0.7195  0.8884 -0.0570
  697MOL0     C96106   3.340   5.431   6.028  0.2030  0.4961 -0.1449
  697MOL0     O96107   3.227   5.452   5.954  0.4355  0.0538 -0.0210
  697MOL0     C96108   3.095   5.483   6.014  0.1039 -0.2849  0.2472
  697MOL0     C96109   3.011   5.537   5.892  0.2449  0.0286 -0.1038
  697MOL0     C96110   2.893   5.615   5.945  0.0899  0.0050 -0.6629
  697MOL0     C96111   2.784   5.649   5.846  0.4227  0.0776  0.6323
  697MOL0     C96112   2.695   5.749   5.908 -0.1214  0.8261 -0.1633
  697MOL0     C96113   2.615   5.825   5.962  0.2410 -0.5968  0.4871
  697MOL0     C96114   3.467   5.410   5.969  0.3514  0.6126 -0.2474
  697MOL0     C96115   3.585   5.371   6.037  0.1202  0.0917 -0.4637
  697MOL0     C96116   3.704   5.341   5.953 -0.1601 -0.6981 -0.3631
  697MOL0     H96117   3.788   5.510   6.557  0.8590  0.2834 -2.6469
  697MOL0     H96118   3.934   5.441   6.748 -1.1917 -0.6928  1.0854
  697MOL0     H96119   4.173   5.343   6.849  2.4798 -0.4688  0.1762
  697MOL0     H96120   4.174   5.328   6.672 -2.4817  2.7594  0.4618
  697MOL0     H96121   4.268   5.101   6.866  0.0821 -0.7623 -0.3866
  697MOL0     H96122   4.254   5.088   6.695 -3.2811  0.0179 -0.0448
  697MOL0     H96123   4.447   5.281   6.844  2.0677 -0.6767  0.1513
  697MOL0     H96124   4.478   5.110   6.810 -1.7281 -1.9909 -1.4875
  697MOL0     H96125   4.405   5.191   6.559  1.1993 -3.6891 -0.0095
  697MOL0     H96126   4.469   5.343   6.625  0.5300  0.4537  1.0449
  697MOL0     H96127   4.617   5.070   6.630 -2.7332 -0.2815  1.5803
  697MOL0     H96128   4.691   5.229   6.647  1.8589 -0.4349 -1.7200
  697MOL0     H96129   4.610   5.290   6.410  1.0164  0.1020 -0.5256
  697MOL0     H96130   4.757   5.205   6.445  0.6503 -0.8378 -0.4354
  697MOL0     H96131   4.578   5.129   6.265 -1.1410  2.3040  1.9165
  697MOL0     H96132   4.498   5.036   6.395 -0.4867 -2.0859 -1.3035
  697MOL0     H96133   4.766   5.009   6.262 -1.1841  2.2841 -1.6364
  697MOL0     H96134   4.754   4.955   6.427 -0.6095  3.4068  0.3209
  697MOL0     H96135   4.586   4.887   6.085  1.4469  0.5702 -0.0133
  697MOL0     H96136   4.408   4.526   6.102 -1.9114  0.4570 -0.3326
  697MOL0     H96137   4.546   4.566   6.008  0.7842 -0.1300  2.2786
  697MOL0     H96138   4.278   4.711   6.015  0.2755  2.4208  0.5788
  697MOL0     H96139   4.422   4.801   5.971 -4.3303  1.9592  2.2612
  697MOL0     H96140   4.280   4.732   5.794  0.4552 -0.4088 -3.0446
  697MOL0     H96141   4.446   4.677   5.770 -0.4379  1.7030  1.1228
  697MOL0     H96142   4.374   4.451   5.852  0.9352  0.5568  2.0949
  697MOL0     H96143   4.208   4.521   5.877 -1.2383 -1.8262 -1.4273
  697MOL0     H96144   4.225   4.467   5.447 -1.7839  2.2125 -0.0774
  697MOL0     H96145   4.115   4.241   5.231  0.2374 -0.2654  0.4622
  697MOL0     H96146   4.120   4.421   5.261  4.3332 -1.7115 -2.1703
  697MOL0     H96147   3.967   4.325   5.264  0.6202 -1.3258  0.7498
  697MOL0     H96148   3.613   4.064   5.554 -1.3504 -0.5673  0.7340
  697MOL0     H96149   3.441   3.887   5.481  0.3580 -0.8342  1.7595
  697MOL0     H96150   3.336   3.551   5.426 -1.4186 -0.2050  0.1561
  697MOL0     H96151   3.355   3.716   5.492 -0.6855  2.6337 -2.1978
  697MOL0     H96152   3.188   3.724   5.303  0.1454 -0.9667 -0.3251
  697MOL0     H96153   3.337   3.801   5.257  1.4150  0.2316  0.4398
  697MOL0     H96154   3.305   3.505   5.196  0.9522 -0.2939 -1.8864
  697MOL0     H96155   3.408   3.633   5.117  2.7806 -2.1572  2.6264
  697MOL0     H96156   3.192   3.720   5.022  1.1063 -2.6894 -4.6516
  697MOL0     H96157   3.101   3.615   5.133  0.2567  1.1491  2.3123
  697MOL0     H96158   3.180   3.412   5.016 -2.0640 -0.1373  0.1576
  697MOL0     H96159   3.083   3.500   4.903 -1.6087 -5.3237  0.7608
  697MOL0     H96160   3.387   3.504   4.932  0.6905 -2.6975 -0.7364
  697MOL0     H96161   3.286   3.576   4.801 -0.3758  0.9989  1.4853
  697MOL0     H96162   3.208   3.366   4.723 -1.2367  0.9237  1.5406
  697MOL0     H96163   3.261   3.282   4.866  0.2147 -0.1021 -0.9588
  697MOL0     H96164   3.454   3.438   4.692  0.1902 -0.8387 -1.0060
  697MOL0     H96165   3.411   3.271   4.657  1.8120 -0.6536 -0.5548
  697MOL0     H96166   3.755   3.637   5.351 -1.9461 -0.5921  0.0271
  697MOL0     H96167   3.933   3.813   5.434  0.2400  2.2347  0.4774
  697MOL0     H96168   3.958   4.183   5.741 -0.9441  1.7378  0.2916
  697MOL0     H96169   4.110   4.336   5.836 -0.9178  1.3710  0.0991
  697MOL0     H96170   3.942   5.043   6.625  4.0809  2.5571 -2.3334
  697MOL0     H96171   3.757   5.088   6.450  0.8357 -0.4698 -0.6996
  697MOL0     H96172   3.435   5.395   6.347  1.8754  1.2341  0.2272
  697MOL0     H96173   3.241   5.451   6.214 -0.2338  0.6180  1.0409
  697MOL0     H96174   3.058   5.387   6.053  1.1685 -1.7241 -2.0299
  697MOL0     H96175   3.097   5.556   6.095 -0.2914  0.1538 -0.1316
  697MOL0     H96176   2.981   5.462   5.818  1.4155  0.6923 -1.3098
  697MOL0     H96177   3.077   5.607   5.839  2.1638 -0.8415  1.0391
  697MOL0     H96178   2.850   5.564   6.032 -2.1357  1.5448 -0.7820
  697MOL0     H96179   2.930   5.709   5.988  0.1961 -0.9032  1.3241
  697MOL0     H96180   2.727   5.558   5.824 -0.9051  1.5018 -2.4479
  697MOL0     H96181   2.826   5.695   5.756  3.2114 -0.9373  1.3038
  697MOL0     H96182   2.538   5.889   5.999 -0.0040 -0.2453 -0.6065
  697MOL0     H96183   3.481   5.408   5.861  0.4685  1.5007 -0.2605
  697MOL0     H96184   3.678   5.293   5.858 -1.0797  0.4820 -0.7448
  697MOL0     H96185   3.762   5.432   5.933 -2.2054  1.1414  1.5454
  697MOL0     H96186   3.782   5.269   5.979  1.8188  0.6707 -2.1484
  698MOL0     O96187   2.418   5.600   4.009 -0.5576  0.9570  0.5527
  698MOL0     C96188   2.360   5.702   3.965 -0.7479 -0.8094 -0.8956
  698MOL0     O96189   2.427   5.788   3.881  0.1982 -0.4629  0.2075
  698MOL0     C96190   2.557   5.793   3.889  0.3441  1.2031  0.2730
  698MOL0     C96191   2.634   5.719   3.801  0.3376  0.2806 -0.9176
  698MOL0     C96192   2.782   5.727   3.794  0.9649 -0.0061  0.1147
  698MOL0     C96193   2.844   5.790   3.899  0.6385 -0.4980 -0.2155
  698MOL0     O96194   2.981   5.796   3.919 -0.4520  0.6470  0.7197
  698MOL0     C96195   3.046   5.868   3.819  0.0044 -0.5188  0.7014
  698MOL0     C96196   3.198   5.880   3.839 -0.5270 -0.0675 -0.4950
  698MOL0     C96197   3.228   5.961   3.976 -0.3091  0.3648 -0.3641
  698MOL0     C96198   3.385   5.961   4.009  0.4219 -0.2027 -0.3337
  698MOL0     C96199   3.405   6.090   4.095 -0.7367  0.3681 -0.2034
  698MOL0     C96200   3.556   6.087   4.141 -0.3427  0.2271  0.2009
  698MOL0     C96201   3.586   6.017   4.269  0.2737 -0.4449  0.5227
  698MOL0     C96202   3.729   6.024   4.307  0.1686 -1.1503 -0.1261
  698MOL0     N96203   3.826   5.941   4.230 -0.2554  0.4359 -0.1042
  698MOL0     C96204   3.887   5.963   4.109 -0.3410 -0.1037  0.6586
  698MOL0     C96205   3.934   5.851   4.059  0.0425 -0.1417 -0.4948
  698MOL0     C96206   4.009   5.839   3.921  0.1167 -0.0326 -0.6090
  698MOL0     C96207   4.152   5.901   3.938  0.9144  0.7809  0.7518
  698MOL0     C96208   4.238   5.825   4.037 -0.3096  0.0883 -0.8468
  698MOL0     C96209   4.371   5.901   4.071 -0.1483 -0.3012 -0.1819
  698MOL0     O96210   4.458   5.887   3.954 -0.0028 -0.6150  0.0883
  698MOL0     C96211   4.580   5.957   3.940  0.0068  0.5941  0.5611
  698MOL0     C96212   4.618   5.978   3.812  0.7103 -0.1344 -0.4363
  698MOL0     C96213   4.731   6.064   3.776 -0.4600  1.0460 -0.4449
  698MOL0     C96214   4.760   6.092   3.630 -0.2671  0.3433  0.5448
  698MOL0     C96215   4.817   6.119   3.886 -0.1086 -0.2623 -0.2521
  698MOL0     C96216   4.933   6.200   3.873  0.3037 -0.0220 -0.6257
  698MOL0     O96217   4.949   6.289   3.769  0.5368  0.7805  0.5832
  698MOL0     C96218   5.075   6.326   3.730 -0.7254 -0.1553  0.0685
  698MOL0     C96219   5.101   6.454   3.678  0.4521  0.4616 -0.2201
  698MOL0     C96220   5.222   6.481   3.614 -0.3972 -0.3286 -0.0353
  698MOL0     C96221   5.329   6.398   3.618  0.2055 -0.8170  0.3789
  698MOL0     O96222   5.445   6.436   3.554 -0.2148 -0.1483 -0.5477
  698MOL0     C96223   5.515   6.334   3.488 -0.6261  0.2018  0.2961
  698MOL0     C96224   5.622   6.391   3.389 -0.2040 -1.0116  0.2914
  698MOL0     C96225   5.706   6.488   3.464  0.7086  0.8405  0.2586
  698MOL0     C96226   5.834   6.515   3.392 -0.3477  1.0379 -0.3171
  698MOL0     C96227   5.923   6.601   3.467 -0.1480 -0.3012 -0.5186
  698MOL0     C96228   6.067   6.609   3.405  0.8149  0.2177 -0.1145
  698MOL0     C96229   6.160   6.690   3.493 -0.6634 -0.7098  0.1043
  698MOL0     C96230   6.305   6.698   3.443  0.2686 -0.0805 -0.0756
  698MOL0    Cl96231   6.389   6.545   3.474 -0.0098 -0.7000  0.1521
  698MOL0     C96232   5.313   6.272   3.672  0.6901  0.3027 -0.1178
  698MOL0     C96233   5.185   6.238   3.717  0.6502 -0.3252 -0.0860
  698MOL0     O96234   5.026   6.161   3.953 -0.0549 -0.6106  0.0222
  698MOL0     C96235   4.770   6.083   4.011  0.1817  0.5765 -0.9962
  698MOL0     C96236   4.653   6.006   4.044  0.1157  0.0342 -0.4956
  698MOL0     N96237   3.906   5.752   4.154  0.1645 -0.4204 -0.8240
  698MOL0     N96238   3.844   5.806   4.248 -0.4224  0.2834  0.2232
  698MOL0     C96239   2.761   5.864   3.993 -0.0842  0.1418  0.6333
  698MOL0     C96240   2.620   5.867   3.985  0.7587  0.2491  0.0658
  698MOL0     C96241   2.215   5.723   3.968 -0.1365  0.1640  1.1762
  698MOL0     C96242   2.159   5.809   3.872  0.5847  0.5570  0.6472
  698MOL0     C96243   2.023   5.851   3.888 -0.1717  0.0096  0.0874
  698MOL0     C96244   1.944   5.815   3.999 -0.1252  0.6627  0.3903
  698MOL0     O96245   1.819   5.863   4.030  0.0499  0.4823 -0.1766
  698MOL0     C96246   1.774   5.983   3.967 -0.0581  0.7294  0.3887
  698MOL0     C96247   1.637   6.032   3.995 -0.7469 -0.6658  0.5776
  698MOL0     C96248   1.627   6.175   3.940 -0.8555  0.0437 -0.1437
  698MOL0     C96249   1.490   6.221   3.950  0.2794 -0.4306 -1.0071
  698MOL0     C96250   1.434   6.234   4.089 -0.0845  0.7137  0.3209
  698MOL0     C96251   1.389   6.233   4.199  0.0624 -0.4985 -0.2470
  698MOL0     C96252   1.993   5.710   4.077 -0.6287  0.6157 -0.0552
  698MOL0     C96253   2.129   5.671   4.067 -0.7198  0.0528 -1.2639
  698MOL0     C96254   2.187   5.576   4.174  0.2100  0.0316  0.3732
  698MOL0     H96255   2.581   5.668   3.721 -2.8226  2.9751 -0.7691
  698MOL0     H96256   2.833   5.666   3.721  0.6694 -1.6673  1.2244
  698MOL0     H96257   3.002   5.967   3.813  0.0318 -0.5541 -0.3145
  698MOL0     H96258   3.031   5.814   3.725  2.1910 -0.9723  0.5393
  698MOL0     H96259   3.247   5.782   3.838  2.0484  0.9952  2.6097
  698MOL0     H96260   3.255   5.933   3.762 -0.9527  0.5261 -0.4057
  698MOL0     H96261   3.199   6.065   3.956  1.8667  1.3439  1.0900
  698MOL0     H96262   3.170   5.933   4.064  1.2606 -0.4678  0.4486
  698MOL0     H96263   3.413   5.865   4.055  0.2509 -1.7611 -3.2697
  698MOL0     H96264   3.445   5.978   3.919 -0.6306  0.9400 -0.8450
  698MOL0     H96265   3.338   6.092   4.181 -1.5845  0.2555 -0.8492
  698MOL0     H96266   3.386   6.177   4.032  1.8133  0.1361 -1.4520
  698MOL0     H96267   3.616   6.053   4.056 -0.3633  0.1200  0.2291
  698MOL0     H96268   3.591   6.189   4.160 -1.0955  0.6299 -0.5431
  698MOL0     H96269   3.570   5.910   4.253 -1.2214 -0.2370  0.4958
  698MOL0     H96270   3.524   6.062   4.347 -0.5683 -1.5703  0.5389
  698MOL0     H96271   3.761   6.128   4.300  0.2943 -1.2053 -0.3716
  698MOL0     H96272   3.738   5.990   4.411  0.9548 -0.2721  0.1072
  698MOL0     H96273   3.894   6.060   4.061 -0.0012 -0.5470 -0.2007
  698MOL0     H96274   3.958   5.898   3.844 -1.4322 -2.4446 -1.5573
  698MOL0     H96275   4.005   5.740   3.873 -0.8483  1.1012 -3.0885
  698MOL0     H96276   4.208   5.898   3.845  0.9906  1.6744  0.7605
  698MOL0     H96277   4.142   6.006   3.968 -2.7713  0.6565  0.4761
  698MOL0     H96278   4.182   5.809   4.130 -1.4452 -0.5018 -1.6099
  698MOL0     H96279   4.264   5.724   4.003  3.7687  0.4334  0.6325
  698MOL0     H96280   4.360   6.004   4.106 -2.1746 -0.8372  0.9543
  698MOL0     H96281   4.410   5.840   4.154 -4.7639 -1.6018  1.3579
  698MOL0     H96282   4.555   5.930   3.738 -1.0029  0.4305  0.6126
  698MOL0     H96283   4.712   6.016   3.568  0.7821  0.7815 -0.8691
  698MOL0     H96284   4.868   6.084   3.611 -0.3904 -0.8113  0.2742
  698MOL0     H96285   4.720   6.190   3.604 -0.0641  0.1791 -0.4488
  698MOL0     H96286   5.017   6.522   3.682  0.2979  0.2565  0.0549
  698MOL0     H96287   5.231   6.576   3.563  1.6543  0.3355  1.4612
  698MOL0     H96288   5.571   6.277   3.563 -2.0922  2.1078  3.0152
  698MOL0     H96289   5.455   6.270   3.423 -3.1641  2.4014  0.3264
  698MOL0     H96290   5.681   6.317   3.335  1.3760  1.2355 -1.2796
  698MOL0     H96291   5.572   6.454   3.314  0.3728  0.9410  1.4549
  698MOL0     H96292   5.719   6.445   3.563 -2.4086 -2.7079 -0.6249
  698MOL0     H96293   5.655   6.584   3.472 -0.2023  0.3306  0.7254
  698MOL0     H96294   5.807   6.574   3.304 -1.3678  1.6735  0.3975
  698MOL0     H96295   5.887   6.427   3.354 -0.9219  0.2533  0.6628
  698MOL0     H96296   5.885   6.704   3.471 -0.5521 -0.5014  1.3607
  698MOL0     H96297   5.929   6.563   3.569 -2.5171 -1.2471 -0.6643
  698MOL0     H96298   6.066   6.645   3.302 -2.0818 -1.0056 -0.6040
  698MOL0     H96299   6.106   6.507   3.397  0.2503 -0.1323  1.2741
  698MOL0     H96300   6.164   6.641   3.591 -0.2533 -0.7327  0.0781
  698MOL0     H96301   6.124   6.791   3.514 -0.8403 -0.9718  1.1416
  698MOL0     H96302   6.355   6.779   3.496 -3.7907  2.4974  0.2673
  698MOL0     H96303   6.305   6.733   3.339  1.0151 -0.5951 -0.2561
  698MOL0     H96304   5.389   6.195   3.663  0.3907 -0.2270  1.4954
  698MOL0     H96305   5.167   6.134   3.744  0.2728 -0.7302 -1.7994
  698MOL0     H96306   4.825   6.125   4.095  0.1591 -1.0622 -0.1412
  698MOL0     H96307   4.621   5.981   4.145  0.0209  2.6469  0.1945
  698MOL0     H96308   2.808   5.926   4.069 -2.6098  1.6258  1.1046
  698MOL0     H96309   2.556   5.922   4.053  3.5839  2.4648  1.1541
  698MOL0     H96310   2.213   5.859   3.793  1.3503  1.6539  1.8257
  698MOL0     H96311   1.997   5.933   3.822  0.9478  3.3125  3.3855
  698MOL0     H96312   1.854   6.055   3.988  0.5983 -0.0500  0.6704
  698MOL0     H96313   1.775   5.966   3.859  1.2661  2.0056  0.1571
  698MOL0     H96314   1.621   6.034   4.103 -0.7177  2.0513  0.6022
  698MOL0     H96315   1.566   5.963   3.948 -1.0222  1.0729 -1.7326
  698MOL0     H96316   1.681   6.244   4.005  2.8118 -0.8949 -1.9498
  698MOL0     H96317   1.661   6.178   3.836 -1.9303 -1.9960 -0.6244
  698MOL0     H96318   1.430   6.152   3.890  0.3542 -2.4703  1.1276
  698MOL0     H96319   1.484   6.323   3.913 -0.8318  0.5807  1.7023
  698MOL0     H96320   1.334   6.232   4.291  1.7721 -2.8077  0.8676
  698MOL0     H96321   1.919   5.666   4.143 -1.1518  0.7695 -0.5317
  698MOL0     H96322   2.100   5.537   4.229  0.3028 -0.8404 -0.0743
  698MOL0     H96323   2.226   5.499   4.107 -2.7288 -1.8432  0.5858
  698MOL0     H96324   2.258   5.631   4.236  1.4291 -0.9360 -0.1329
  699MOL0     O96325  11.030   6.583   1.046  0.6833  0.1097 -0.5286
  699MOL0     C96326  11.030   6.685   1.117 -0.5675 -0.6248 -0.2714
  699MOL0     O96327  11.145   6.747   1.176 -0.8617 -0.3069  1.2060
  699MOL0     C96328  11.268   6.694   1.128 -0.6869 -0.4529 -0.5848
  699MOL0     C96329  11.338   6.761   1.028 -0.5690  0.2276  0.6126
  699MOL0     C96330  11.466   6.728   0.989  0.9680  0.4080  0.8032
  699MOL0     C96331  11.540   6.644   1.067 -0.6324 -0.6007  0.7854
  699MOL0     O96332  11.674   6.620   1.054  0.2569  0.2590  0.3881
  699MOL0     C96333  11.752   6.701   0.964 -0.4101  0.0990  0.3499
  699MOL0     C96334  11.900   6.658   0.962  0.4515 -0.4285  0.8230
  699MOL0     C96335  11.979   6.735   0.858  0.3104 -0.6875  0.0204
  699MOL0     C96336  12.128   6.721   0.887  0.0205 -0.1479 -0.4121
  699MOL0     C96337  12.211   6.777   0.766 -0.0083  0.6636 -0.6274
  699MOL0     C96338  12.349   6.828   0.798  0.0410  0.4774  0.2104
  699MOL0     C96339  12.444   6.701   0.837  0.4375 -0.9351  0.5155
  699MOL0     C96340  12.593   6.734   0.845 -0.1954 -0.3804 -0.3269
  699MOL0     N96341  12.652   6.761   0.714 -0.0180 -0.1832 -0.0477
  699MOL0     C96342  12.663   6.676   0.610 -0.0786 -0.7733 -0.2374
  699MOL0     C96343  12.736   6.738   0.511 -0.1839 -0.8327 -0.8171
  699MOL0     C96344  12.762   6.676   0.376  0.2592  0.0480 -0.4755
  699MOL0     C96345  12.884   6.738   0.303 -0.4423 -0.2636 -0.0546
  699MOL0     C96346  12.961   6.620   0.244  0.1152  0.3526  0.1285
  699MOL0     C96347  13.061   6.564   0.335 -0.4330 -0.5392  0.0464
  699MOL0     O96348  13.157   6.659   0.379  0.9942 -0.2960  0.0533
  699MOL0     C96349  13.267   6.611   0.446 -0.0887  0.1308 -0.0274
  699MOL0     C96350  13.281   6.486   0.510 -0.3153  0.1818  1.2597
  699MOL0     C96351  13.396   6.442   0.569  0.2089 -0.3785 -0.6799
  699MOL0     C96352  13.393   6.307   0.647  0.8635 -0.4388 -0.0013
  699MOL0     C96353  13.513   6.522   0.559 -0.0698  0.3327  0.4524
  699MOL0     C96354  13.642   6.487   0.618 -0.6472  0.1935  0.1170
  699MOL0     O96355  13.755   6.567   0.591 -0.2511  0.3268 -0.0763
  699MOL0     C96356  13.887   6.518   0.593  0.2566 -0.3502  1.2266
  699MOL0     C96357  13.926   6.387   0.585  0.3383  0.4511  0.4761
  699MOL0     C96358  14.062   6.352   0.590  0.8749 -0.3235 -0.4543
  699MOL0     C96359  14.167   6.452   0.607 -0.0602 -0.2560 -0.6247
  699MOL0     O96360  14.295   6.410   0.631  0.3206 -0.2848 -0.6155
  699MOL0     C96361  14.403   6.502   0.601  0.2256  0.5600  0.9057
  699MOL0     C96362  14.539   6.430   0.579  0.5692  0.0332 -0.9155
  699MOL0     C96363  14.652   6.519   0.574 -0.8001  0.1021 -0.4407
  699MOL0     C96364  14.786   6.440   0.581 -0.0065 -0.7094  0.3584
  699MOL0     C96365  14.915   6.523   0.595 -0.3497 -1.3433 -0.7071
  699MOL0     C96366  15.043   6.439   0.573 -0.7340 -0.0920  0.6094
  699MOL0     C96367  15.172   6.525   0.588  0.5952 -0.0253 -0.3917
  699MOL0     C96368  15.298   6.441   0.600  0.0934 -0.0237 -0.2519
  699MOL0    Cl96369  15.425   6.539   0.661  0.4962 -0.3143  0.1893
  699MOL0     C96370  14.124   6.583   0.599  0.4108  0.0833  0.2349
  699MOL0     C96371  13.986   6.616   0.594 -0.5252  0.1775 -0.3499
  699MOL0     O96372  13.651   6.389   0.693  0.1404  0.0948 -0.4369
  699MOL0     C96373  13.505   6.645   0.495  0.9663 -0.1132 -0.3320
  699MOL0     C96374  13.377   6.686   0.441 -0.9071  0.5533  0.3411
  699MOL0     N96375  12.768   6.866   0.565 -0.7059 -0.4928 -0.0227
  699MOL0     N96376  12.712   6.880   0.681  0.1405 -0.2627 -0.0599
  699MOL0     C96377  11.474   6.570   1.164 -0.5133 -0.0776 -0.1510
  699MOL0     C96378  11.337   6.590   1.192  0.1928  0.6427 -0.2606
  699MOL0     C96379  10.904   6.734   1.176 -0.1548  1.0165 -0.6945
  699MOL0     C96380  10.905   6.864   1.343 -1.1593  0.1821  0.2379
  699MOL0     C96381  10.727   6.920   1.433  0.6666 -1.2739 -0.2002
  699MOL0     C96382  10.547   6.848   1.366  0.2637  0.0955  0.0975
  699MOL0     O96383  10.438   6.869   1.445 -0.0378 -1.0732 -0.5310
  699MOL0     C96384  10.317   6.855   1.370 -0.0383  0.2666  0.3063
  699MOL0     C96385  10.198   6.881   1.451  0.5011 -0.1821  0.0822
  699MOL0     C96386  10.091   6.958   1.369  0.2819  0.1277  0.0951
  699MOL0     C96387   9.946   6.949   1.430 -0.6987  0.4409 -0.5383
  699MOL0     C96388   9.925   7.021   1.558 -0.1917 -0.4914  0.0660
  699MOL0     C96389   9.907   7.072   1.667 -0.1344  0.5457 -0.2468
  699MOL0     C96390  10.542   6.713   1.195  0.5854  0.2395  0.1263
  699MOL0     C96391  10.721   6.658   1.105 -0.0840  0.4574 -0.6643
  699MOL0     C96392  10.736   6.561   0.996  0.4420  0.4782  0.0116
  699MOL0     H96393  11.274   6.832   0.975 -1.3944  0.2700  1.6384
  699MOL0     H96394  11.512   6.778   0.904  0.2398  2.0744  1.3458
  699MOL0     H96395  11.752   6.807   0.992  1.0175 -0.3180  2.1429
  699MOL0     H96396  11.711   6.699   0.863 -0.4316 -0.4025  0.3684
  699MOL0     H96397  11.943   6.668   1.062  2.1626  2.2658 -0.0672
  699MOL0     H96398  11.890   6.551   0.943  0.9192 -0.6800  1.9215
  699MOL0     H96399  11.951   6.703   0.757 -0.0834  1.9572 -0.7801
  699MOL0     H96400  11.964   6.843   0.853  0.8602 -0.6583 -3.6397
  699MOL0     H96401  12.150   6.780   0.977 -0.5418 -0.7141  0.1093
  699MOL0     H96402  12.164   6.621   0.911  0.2468 -0.4570 -1.9938
  699MOL0     H96403  12.154   6.865   0.735 -2.1396 -0.8182 -1.1573
  699MOL0     H96404  12.206   6.706   0.683 -1.0787  0.6196 -0.5355
  699MOL0     H96405  12.394   6.883   0.714 -1.9246  1.6387 -0.1412
  699MOL0     H96406  12.346   6.895   0.884 -0.6450 -3.7065  3.7800
  699MOL0     H96407  12.435   6.617   0.767 -3.7289  0.8245 -1.4107
  699MOL0     H96408  12.408   6.665   0.933  2.4206 -0.9092  1.3213
  699MOL0     H96409  12.609   6.827   0.900  0.8888  0.1114 -1.4178
  699MOL0     H96410  12.658   6.665   0.898  2.1673  2.3873  0.6780
  699MOL0     H96411  12.610   6.581   0.605  0.3218 -0.9983 -0.2614
  699MOL0     H96412  12.673   6.690   0.315 -2.3621 -1.0169  2.8203
  699MOL0     H96413  12.774   6.567   0.385  1.7453  0.1273 -1.2137
  699MOL0     H96414  12.846   6.808   0.229 -0.8635  1.6507  1.8566
  699MOL0     H96415  12.948   6.800   0.367  0.3409  1.4032 -2.3437
  699MOL0     H96416  12.893   6.543   0.206  0.1457 -0.7462  2.1883
  699MOL0     H96417  13.015   6.649   0.154 -0.0648 -0.6161 -0.3012
  699MOL0     H96418  13.003   6.517   0.415  0.8157  0.3575  1.5412
  699MOL0     H96419  13.115   6.476   0.298  2.5651  1.7866 -1.5777
  699MOL0     H96420  13.189   6.428   0.516  0.3412 -1.3589 -1.7166
  699MOL0     H96421  13.453   6.316   0.738  0.6739  1.1227 -0.0092
  699MOL0     H96422  13.422   6.219   0.589  0.5959 -1.9295  1.9910
  699MOL0     H96423  13.293   6.280   0.683  1.3480 -0.3500  1.5080
  699MOL0     H96424  13.849   6.311   0.582 -1.4263  2.0412  2.3372
  699MOL0     H96425  14.090   6.247   0.589 -0.0167 -0.5762 -0.1831
  699MOL0     H96426  14.387   6.559   0.509  0.9975 -0.1946  0.2822
  699MOL0     H96427  14.421   6.575   0.680  1.6797  1.6568 -0.3787
  699MOL0     H96428  14.563   6.353   0.654 -0.6786 -0.7463 -1.2838
  699MOL0     H96429  14.525   6.374   0.486  1.4573  0.1093 -1.1040
  699MOL0     H96430  14.654   6.594   0.654 -0.0560  0.1626 -0.5037
  699MOL0     H96431  14.651   6.574   0.480  1.7825 -0.0416 -0.6218
  699MOL0     H96432  14.787   6.367   0.499 -1.2484  1.0563 -1.3044
  699MOL0     H96433  14.792   6.375   0.669  0.1764  1.0636  1.7017
  699MOL0     H96434  14.914   6.616   0.537 -3.2188 -0.6266  0.2893
  699MOL0     H96435  14.918   6.557   0.699 -3.0439 -1.0658 -0.6353
  699MOL0     H96436  15.035   6.404   0.470  0.9849  1.3141 -0.0436
  699MOL0     H96437  15.045   6.353   0.640  0.4507 -0.4200  0.1566
  699MOL0     H96438  15.168   6.587   0.678  1.5184  0.1581 -0.4616
  699MOL0     H96439  15.187   6.605   0.516  0.8260  1.5918  1.3576
  699MOL0     H96440  15.317   6.392   0.504  0.3049  2.4665 -1.5866
  699MOL0     H96441  15.278   6.363   0.673 -0.4177  0.5783  0.2634
  699MOL0     H96442  14.190   6.669   0.601  0.6832 -0.1307  0.8479
  699MOL0     H96443  13.953   6.719   0.602 -1.8714 -0.3335  1.2341
  699MOL0     H96444  13.582   6.720   0.510  1.2750  0.1119 -2.7393
  699MOL0     H96445  13.382   6.781   0.388  2.9102 -0.8055 -2.1448
  699MOL0     H96446  11.527   6.501   1.229  1.2402 -1.5437 -2.9645
  699MOL0     H96447  11.286   6.528   1.264  0.8853 -0.5444 -0.7658
  699MOL0     H96448  10.998   6.909   1.376 -0.6109 -0.4565 -0.3911
  699MOL0     H96449  10.731   6.988   1.517 -1.9946 -0.3956 -0.6965
  699MOL0     H96450  10.319   6.927   1.288 -2.1252  0.3554  0.2783
  699MOL0     H96451  10.307   6.751   1.336  0.6429 -0.3798  2.0063
  699MOL0     H96452  10.219   6.942   1.540 -1.8037  1.2693 -0.2752
  699MOL0     H96453  10.153   6.786   1.481  0.7999 -0.6485 -0.9260
  699MOL0     H96454  10.131   7.058   1.351  2.0953 -1.0489 -3.1121
  699MOL0     H96455  10.077   6.905   1.275 -0.9320  2.3894 -1.0649
  699MOL0     H96456   9.912   6.846   1.441 -1.3076  0.6181 -0.7166
  699MOL0     H96457   9.871   6.998   1.366  0.9165 -0.1752 -3.0484
  699MOL0     H96458   9.892   7.132   1.754  0.8975  1.1468 -0.4644
  699MOL0     H96459  10.441   6.690   1.164  0.3757 -0.9248  1.5660
  699MOL0     H96460  10.631   6.540   0.979  0.0646  3.5693 -2.5331
  699MOL0     H96461  10.780   6.604   0.905  0.7566  0.5408  0.1912
  699MOL0     H96462  10.792   6.475   1.033 -0.4446  1.1268  3.0917
  700MOL0     O96463   7.660  10.788   7.139  0.8784  0.0650 -1.4151
  700MOL0     C96464   7.589  10.818   7.236  0.1320  0.0695 -0.6117
  700MOL0     O96465   7.639  10.863   7.355 -0.0693  0.0659 -0.8564
  700MOL0     C96466   7.773  10.882   7.364 -0.8930  0.7228  0.4729
  700MOL0     C96467   7.846  10.797   7.446 -0.3936 -0.6603  0.5669
  700MOL0     C96468   7.980  10.824   7.460  0.0100 -0.0022 -0.4900
  700MOL0     C96469   8.041  10.934   7.406 -0.5121 -0.4326  0.0289
  700MOL0     O96470   8.169  10.969   7.422 -0.4092  0.8861 -0.2253
  700MOL0     C96471   8.266  10.877   7.485  0.4407  0.0285  0.4389
  700MOL0     C96472   8.256  10.892   7.634  0.0010 -0.2263 -0.6939
  700MOL0     C96473   8.322  10.772   7.708  0.3483 -0.6986 -0.4087
  700MOL0     C96474   8.473  10.763   7.690  0.0360  0.2264 -0.2759
  700MOL0     C96475   8.537  10.641   7.756 -0.7774 -0.3052 -0.0977
  700MOL0     C96476   8.536  10.656   7.913 -0.1854  0.9473  0.2420
  700MOL0     C96477   8.612  10.546   7.997  0.1132  1.2360  0.5198
  700MOL0     C96478   8.614  10.595   8.147 -0.8888 -0.0798  0.2085
  700MOL0     N96479   8.686  10.507   8.238 -0.5115 -0.4870  0.2850
  700MOL0     C96480   8.799  10.437   8.211 -1.1888 -0.2892  0.6347
  700MOL0     C96481   8.821  10.369   8.325 -0.2715  0.2184  0.7490
  700MOL0     C96482   8.926  10.266   8.356 -0.4421 -0.1173 -0.6836
  700MOL0     C96483   9.055  10.330   8.414  0.1322  0.0989  1.0201
  700MOL0     C96484   9.162  10.229   8.455  0.2300  1.1935  0.5160
  700MOL0     C96485   9.285  10.282   8.532  0.7484  0.2350 -0.7703
  700MOL0     O96486   9.337  10.401   8.471 -0.3734 -0.1237 -0.0369
  700MOL0     C96487   9.454  10.453   8.532 -0.6666 -0.3782 -0.1133
  700MOL0     C96488   9.540  10.526   8.445  0.2928  0.2030  0.4442
  700MOL0     C96489   9.667  10.574   8.484  0.0288 -0.2934 -0.6972
  700MOL0     C96490   9.765  10.625   8.376  0.3201 -0.0553  0.5166
  700MOL0     C96491   9.715  10.550   8.617 -0.2016  1.1441  0.4606
  700MOL0     C96492   9.852  10.592   8.663  0.2666 -0.7422 -0.5039
  700MOL0     O96493   9.886  10.528   8.778  0.0732  0.0853  0.3269
  700MOL0     C96494  10.017  10.546   8.819  0.1011  0.4179 -0.2808
  700MOL0     C96495  10.108  10.475   8.747 -0.0974  0.6760  0.1658
  700MOL0     C96496  10.235  10.484   8.780 -1.1464 -0.0618 -0.5295
  700MOL0     C96497  10.283  10.563   8.892  0.2274 -0.8349 -0.3835
  700MOL0     O96498  10.415  10.543   8.941  0.1656 -0.0743  0.4444
  700MOL0     C96499  10.457  10.626   9.054 -0.7018  0.1495 -0.4600
  700MOL0     C96500  10.594  10.576   9.095  0.8050 -0.1001  0.4433
  700MOL0     C96501  10.694  10.594   8.983 -0.1383  0.3117  0.5559
  700MOL0     C96502  10.837  10.600   9.043  0.3187  0.5280  0.1554
  700MOL0     C96503  10.869  10.454   9.089  0.2712 -0.4543 -0.5336
  700MOL0     C96504  11.023  10.432   9.112 -0.4389 -0.7579  0.2956
  700MOL0     C96505  11.089  10.527   9.215  0.1472  0.2100 -0.6449
  700MOL0     C96506  11.220  10.460   9.254 -0.1346 -0.2350 -0.1416
  700MOL0    Cl96507  11.345  10.577   9.318  0.5819 -0.1461 -0.0130
  700MOL0     C96508  10.188  10.650   8.945  0.7789 -0.8115  0.1637
  700MOL0     C96509  10.055  10.637   8.916 -0.1893  0.2508  0.1010
  700MOL0     O96510   9.909  10.682   8.611 -0.9758  0.0429  0.3703
  700MOL0     C96511   9.628  10.473   8.699 -0.5248 -0.1082  0.3812
  700MOL0     C96512   9.504  10.430   8.658 -0.4920 -0.7270  0.4097
  700MOL0     N96513   8.721  10.398   8.418 -0.5388 -0.5897  0.6026
  700MOL0     N96514   8.647  10.485   8.366  0.0856  0.3703 -0.2335
  700MOL0     C96515   7.964  11.019   7.319 -0.0949 -0.1575 -0.5097
  700MOL0     C96516   7.834  10.990   7.303 -0.2192  0.4335 -0.0777
  700MOL0     C96517   7.441  10.784   7.235  0.1407  0.8353 -0.0541
  700MOL0     C96518   7.373  10.745   7.109 -0.6992 -0.1984  0.0704
  700MOL0     C96519   7.238  10.735   7.103 -0.1423 -0.7537  0.0089
  700MOL0     C96520   7.157  10.756   7.218 -1.0381 -0.0705  0.1165
  700MOL0     O96521   7.018  10.741   7.215 -0.1259 -0.2971  0.1055
  700MOL0     C96522   6.953  10.695   7.091  0.3053  0.6277 -0.1927
  700MOL0     C96523   6.808  10.682   7.111 -0.0934  0.1592 -0.3400
  700MOL0     C96524   6.747  10.606   6.993  0.0743 -0.3482 -0.1319
  700MOL0     C96525   6.757  10.683   6.864  0.2695 -0.0768  0.4391
  700MOL0     C96526   6.717  10.609   6.744  0.8215 -0.1553 -0.8188
  700MOL0     C96527   6.695  10.570   6.634  0.7653  0.8394  0.6029
  700MOL0     C96528   7.213  10.788   7.336 -1.2611 -0.5573  0.6484
  700MOL0     C96529   7.353  10.799   7.350  0.1279  0.1395  1.1333
  700MOL0     C96530   7.406  10.832   7.482  0.5582 -0.3106  0.3605
  700MOL0     H96531   7.796  10.713   7.492 -1.2165 -0.4471  0.0791
  700MOL0     H96532   8.043  10.757   7.516 -0.6324  0.2109  0.5182
  700MOL0     H96533   8.365  10.915   7.456  0.1700 -0.5833 -1.4304
  700MOL0     H96534   8.256  10.773   7.453 -3.1102 -0.0711  1.4871
  700MOL0     H96535   8.293  10.991   7.664 -0.7948 -0.3585  0.8337
  700MOL0     H96536   8.151  10.899   7.664  0.0687  0.9296 -0.6920
  700MOL0     H96537   8.298  10.791   7.814 -0.4853  0.2595 -0.7479
  700MOL0     H96538   8.282  10.675   7.679  1.8587 -2.3390  2.5462
  700MOL0     H96539   8.502  10.757   7.585  0.4508  0.2777 -0.1700
  700MOL0     H96540   8.511  10.860   7.724  1.1961 -0.5800  0.8373
  700MOL0     H96541   8.639  10.633   7.718 -0.6333 -0.5308  0.3404
  700MOL0     H96542   8.480  10.549   7.739 -0.8238 -0.1259 -0.9985
  700MOL0     H96543   8.593  10.746   7.938  0.8347  0.4728 -0.3469
  700MOL0     H96544   8.434  10.663   7.952 -0.2646 -1.5797  0.6596
  700MOL0     H96545   8.713  10.543   7.953 -0.1789 -0.5535 -0.1453
  700MOL0     H96546   8.561  10.450   7.980 -0.8579  1.9151 -0.5766
  700MOL0     H96547   8.684  10.680   8.150  0.4985 -1.2024  1.0789
  700MOL0     H96548   8.521  10.635   8.188 -0.2221  1.0444  0.6778
  700MOL0     H96549   8.845  10.421   8.114  0.1404  2.8686  0.6246
  700MOL0     H96550   8.964  10.217   8.266  1.6983  0.3239 -0.0704
  700MOL0     H96551   8.890  10.189   8.424  1.1938  0.1725  0.5756
  700MOL0     H96552   9.097  10.392   8.333 -2.8359  0.3864 -0.4292
  700MOL0     H96553   9.038  10.384   8.507 -2.8077  0.7592  0.2022
  700MOL0     H96554   9.109  10.150   8.509  0.8161  0.4271 -0.0112
  700MOL0     H96555   9.193  10.189   8.359 -0.3990  3.1650 -0.5600
  700MOL0     H96556   9.254  10.311   8.633  0.2898 -0.7984 -0.6003
  700MOL0     H96557   9.369  10.212   8.541  0.0972 -0.4689  0.0624
  700MOL0     H96558   9.511  10.545   8.342 -1.3073 -1.2210  0.5812
  700MOL0     H96559   9.851  10.557   8.370  0.8292  0.6759 -1.4253
  700MOL0     H96560   9.794  10.726   8.407  0.8450 -0.3672  1.0706
  700MOL0     H96561   9.712  10.631   8.280 -0.4898  0.1258  0.9647
  700MOL0     H96562  10.067  10.412   8.668 -4.5404  0.1973  2.4872
  700MOL0     H96563  10.306  10.434   8.714 -0.0786 -0.6274  0.9924
  700MOL0     H96564  10.461  10.731   9.025  2.0456 -0.1744 -1.5397
  700MOL0     H96565  10.385  10.620   9.136  0.5681  3.8195  1.1487
  700MOL0     H96566  10.618  10.641   9.180 -3.9267  2.8550 -0.0769
  700MOL0     H96567  10.592  10.472   9.127  2.8476 -0.2499  0.1597
  700MOL0     H96568  10.683  10.694   8.941 -0.0825  0.1407  0.1208
  700MOL0     H96569  10.683  10.516   8.906  1.9192 -2.1534  2.5649
  700MOL0     H96570  10.855  10.669   9.125  0.9706  0.0668  0.4165
  700MOL0     H96571  10.909  10.628   8.966 -1.4534  1.4836 -1.2233
  700MOL0     H96572  10.826  10.442   9.188  0.6772 -1.9883 -0.5186
  700MOL0     H96573  10.836  10.374   9.023  0.0891 -1.8120  1.1441
  700MOL0     H96574  11.081  10.421   9.021 -0.5314 -1.8086  0.3532
  700MOL0     H96575  11.028  10.339   9.169  1.1861  0.0415  1.5854
  700MOL0     H96576  11.026  10.547   9.302  0.0772 -0.4669 -0.5380
  700MOL0     H96577  11.109  10.621   9.163  1.9154  0.6217  0.6715
  700MOL0     H96578  11.268  10.411   9.169  1.8852  1.6413 -0.1770
  700MOL0     H96579  11.202  10.379   9.326  0.6256 -0.5930 -0.3437
  700MOL0     H96580  10.202  10.725   9.022 -2.0436 -0.4138  0.3931
  700MOL0     H96581   9.979  10.702   8.957 -1.4256  0.3390 -2.1586
  700MOL0     H96582   9.663  10.452   8.799  1.7514  1.5645  0.0202
  700MOL0     H96583   9.452  10.364   8.727 -0.0799 -1.0704  0.3909
  700MOL0     H96584   8.014  11.103   7.272  3.5714 -1.2972  1.0042
  700MOL0     H96585   7.772  11.049   7.236  0.4592  0.1094 -1.0060
  700MOL0     H96586   7.431  10.721   7.021 -0.3523  0.2020  0.1808
  700MOL0     H96587   7.203  10.706   7.004 -0.1734 -1.3590  0.1960
  700MOL0     H96588   6.986  10.766   7.015  3.1749 -0.5717 -0.1985
  700MOL0     H96589   6.990  10.597   7.060 -1.0375  0.2015 -0.4786
  700MOL0     H96590   6.765  10.778   7.142  1.7940  0.7114  0.7223
  700MOL0     H96591   6.795  10.615   7.196  3.0438 -0.6981 -0.4328
  700MOL0     H96592   6.799  10.511   6.976  0.6795  0.1715 -1.2649
  700MOL0     H96593   6.647  10.572   7.023  0.1869 -1.1947 -0.6660
  700MOL0     H96594   6.862  10.704   6.841  0.6490 -0.4408  1.7638
  700MOL0     H96595   6.706  10.779   6.875 -0.2263  0.1283 -2.7366
  700MOL0     H96596   6.678  10.530   6.536  0.4386 -0.9680  1.3550
  700MOL0     H96597   7.159  10.811   7.428  0.2449  1.1251  1.1639
  700MOL0     H96598   7.480  10.760   7.519  4.1194  0.7630 -3.8179
  700MOL0     H96599   7.453  10.930   7.479  0.2015 -0.1383  0.3396
  700MOL0     H96600   7.329  10.846   7.558  1.2297  2.6572  0.5850
  701MOL0     O96601   1.490   0.326   7.996 -0.3596  0.1641  0.1545
  701MOL0     C96602   1.511   0.265   8.095  0.0759 -0.0436 -0.9833
  701MOL0     O96603   1.634   0.248   8.158  0.2358  0.1730  1.1748
  701MOL0     C96604   1.733   0.326   8.097  0.0154  0.5074  0.6741
  701MOL0     C96605   1.849   0.254   8.066  0.4656 -1.0707  0.4539
  701MOL0     C96606   1.956   0.329   8.009  0.3682  0.3147 -0.1111
  701MOL0     C96607   1.951   0.470   8.005  0.9858  0.6831  0.6035
  701MOL0     O96608   2.054   0.536   7.942 -0.7670  0.3457 -0.0636
  701MOL0     C96609   2.179   0.540   8.024  0.0877  0.5395  0.3267
  701MOL0     C96610   2.300   0.583   7.933 -0.2824 -0.5099  0.1934
  701MOL0     C96611   2.430   0.579   8.007 -1.1204  0.8788  0.1670
  701MOL0     C96612   2.545   0.600   7.912 -0.2795  0.8563  0.2177
  701MOL0     C96613   2.670   0.637   7.992  0.3379  0.4187 -0.8027
  701MOL0     C96614   2.788   0.605   7.902  0.6770 -0.6356 -0.5942
  701MOL0     C96615   2.918   0.627   7.970 -0.8729 -0.2075 -0.3802
  701MOL0     C96616   3.030   0.566   7.881  0.1312 -0.2864 -0.5813
  701MOL0     N96617   3.159   0.599   7.950  0.8368 -0.8954  0.5826
  701MOL0     C96618   3.232   0.712   7.930 -0.0541 -0.1093  0.4330
  701MOL0     C96619   3.357   0.684   7.980 -0.0717 -0.3580  0.2216
  701MOL0     C96620   3.465   0.787   7.994 -0.3457  0.2884  0.3689
  701MOL0     C96621   3.573   0.752   8.097  0.7679  1.2361 -0.8073
  701MOL0     C96622   3.656   0.873   8.140  0.5026 -0.0982  0.4978
  701MOL0     C96623   3.755   0.824   8.244  0.0054  0.8892 -0.0826
  701MOL0     O96624   3.839   0.938   8.277  0.1545 -0.0701  0.1287
  701MOL0     C96625   3.950   0.910   8.347 -0.6417 -0.0728 -0.0794
  701MOL0     C96626   3.994   0.783   8.393  0.5484 -0.3931  1.2313
  701MOL0     C96627   4.116   0.764   8.448  0.3292  0.0904 -0.8940
  701MOL0     C96628   4.139   0.628   8.518  0.1852 -0.3384  0.5188
  701MOL0     C96629   4.201   0.876   8.454 -0.8245  0.5615  0.2799
  701MOL0     C96630   4.333   0.863   8.526 -0.0889 -0.1508  0.1724
  701MOL0     O96631   4.424   0.769   8.501  0.1709 -1.2084 -0.1478
  701MOL0     C96632   4.525   0.762   8.596 -0.5142 -0.0494  0.2482
  701MOL0     C96633   4.541   0.667   8.695  0.4971 -0.5338  0.0554
  701MOL0     C96634   4.653   0.662   8.775  0.7096  0.2932 -0.1395
  701MOL0     C96635   4.756   0.756   8.769  0.0916 -0.1448  0.2865
  701MOL0     O96636   4.851   0.746   8.868 -0.3666  0.0348 -0.1728
  701MOL0     C96637   4.929   0.868   8.887  0.2624  0.0949  1.9137
  701MOL0     C96638   5.022   0.858   9.007  0.2496  0.2545  0.1712
  701MOL0     C96639   4.938   0.857   9.140 -0.1207 -0.7337  0.4219
  701MOL0     C96640   4.887   1.002   9.179 -0.2796 -0.2072  0.1255
  701MOL0     C96641   4.824   1.034   9.321 -0.7532 -0.3296  0.3869
  701MOL0     C96642   4.939   1.048   9.424  0.1390  0.6511  0.4941
  701MOL0     C96643   4.891   1.106   9.557  0.7404  0.2132 -0.1607
  701MOL0     C96644   5.007   1.095   9.660 -0.0720  0.5415  0.3762
  701MOL0    Cl96645   5.052   0.927   9.689  0.0001  0.0683  0.2301
  701MOL0     C96646   4.740   0.853   8.671  0.4127 -0.3225  0.9432
  701MOL0     C96647   4.629   0.857   8.582 -0.4624  1.0880  0.4847
  701MOL0     O96648   4.348   0.964   8.604  0.1746  0.2424 -0.5961
  701MOL0     C96649   4.172   0.989   8.388 -0.4006  0.2286 -0.0769
  701MOL0     C96650   4.049   1.011   8.337 -0.0916 -0.3587 -0.1525
  701MOL0     N96651   3.358   0.549   8.030 -0.4618  0.0908  0.6949
  701MOL0     N96652   3.235   0.503   8.018 -0.2973 -0.4123  0.2554
  701MOL0     C96653   1.832   0.534   8.036 -0.1067  0.1101  0.1473
  701MOL0     C96654   1.722   0.467   8.082  0.4359 -0.0498  0.3851
  701MOL0     C96655   1.397   0.191   8.167  0.1724 -0.0252  0.1412
  701MOL0     C96656   1.413   0.168   8.309 -0.4553 -0.5890  0.3731
  701MOL0     C96657   1.313   0.122   8.388  0.7810  0.1435 -0.5308
  701MOL0     C96658   1.195   0.086   8.324  0.1226  0.3299 -0.0663
  701MOL0     O96659   1.089   0.015   8.383  0.4161 -0.0052  0.0254
  701MOL0     C96660   1.098  -0.058   8.508 -0.1687 -0.4716 -0.0790
  701MOL0     C96661   0.972  -0.132   8.555  0.8439  0.0094 -0.3931
  701MOL0     C96662   0.841  -0.043   8.538  0.8953  0.3650 -0.3249
  701MOL0     C96663   0.716  -0.124   8.526  0.3908  0.4758  0.3014
  701MOL0     C96664   0.676  -0.180   8.653  0.3972 -1.1518 -0.8795
  701MOL0     C96665   0.640  -0.231   8.758 -0.1767  1.0098 -0.3687
  701MOL0     C96666   1.171   0.110   8.188  0.1012 -0.0299  0.1278
  701MOL0     C96667   1.271   0.163   8.106 -0.5039  0.1305 -0.4890
  701MOL0     C96668   1.241   0.180   7.962 -0.6494  0.1058  0.5065
  701MOL0     H96669   1.853   0.147   8.080  1.1182 -1.2504 -1.0035
  701MOL0     H96670   2.042   0.271   7.979  0.1011  1.1250 -2.7132
  701MOL0     H96671   2.199   0.440   8.064 -0.8775  1.2345  2.7095
  701MOL0     H96672   2.167   0.609   8.109 -0.6840 -0.2037  0.8431
  701MOL0     H96673   2.299   0.516   7.847  0.0671 -1.1766  0.7036
  701MOL0     H96674   2.279   0.688   7.910  1.3248  0.0002  0.9144
  701MOL0     H96675   2.427   0.659   8.082 -1.0689  0.7626  0.2955
  701MOL0     H96676   2.444   0.488   8.066 -1.7375  1.6292  1.5171
  701MOL0     H96677   2.560   0.503   7.863 -0.8661  0.9380 -0.1390
  701MOL0     H96678   2.525   0.676   7.836 -1.3049  0.3312 -0.0588
  701MOL0     H96679   2.663   0.574   8.082  2.1090 -0.1475 -1.0286
  701MOL0     H96680   2.664   0.742   8.021  2.0218  0.0564  1.0560
  701MOL0     H96681   2.773   0.501   7.874 -1.3615 -0.5916  0.1285
  701MOL0     H96682   2.774   0.668   7.813  0.4217 -1.2723 -1.0119
  701MOL0     H96683   2.918   0.573   8.065  3.0322 -3.0241 -1.7538
  701MOL0     H96684   2.938   0.732   7.995 -0.1377 -0.5068  0.3313
  701MOL0     H96685   3.014   0.458   7.882 -2.7184 -0.0057  3.0289
  701MOL0     H96686   3.013   0.606   7.781  0.2275 -1.0367 -0.9059
  701MOL0     H96687   3.193   0.798   7.877 -1.3810 -0.8326  0.1816
  701MOL0     H96688   3.415   0.880   8.023 -1.0218 -0.7082  2.6482
  701MOL0     H96689   3.521   0.808   7.903  0.1128 -1.4320  0.2167
  701MOL0     H96690   3.522   0.712   8.185  4.2743  0.6494  1.1143
  701MOL0     H96691   3.639   0.675   8.058 -0.4783 -0.9693  1.2110
  701MOL0     H96692   3.707   0.921   8.056  0.4050  1.0709  1.0953
  701MOL0     H96693   3.588   0.939   8.195  0.5699  0.6302 -0.2678
  701MOL0     H96694   3.697   0.789   8.330  0.8811 -2.4273 -0.6997
  701MOL0     H96695   3.809   0.734   8.213 -0.3517  0.4825  0.4565
  701MOL0     H96696   3.933   0.695   8.372 -0.9324  0.7249  0.6453
  701MOL0     H96697   4.225   0.637   8.585 -0.6004  3.4661  1.2426
  701MOL0     H96698   4.154   0.551   8.441  0.8314  0.6274 -0.3512
  701MOL0     H96699   4.057   0.602   8.586 -0.1758 -2.2628 -0.5676
  701MOL0     H96700   4.458   0.598   8.697 -1.6722  1.8655  2.5822
  701MOL0     H96701   4.669   0.587   8.852 -0.1003  0.0697 -0.1819
  701MOL0     H96702   4.992   0.875   8.798 -0.9020 -1.0410  0.9607
  701MOL0     H96703   4.875   0.963   8.892 -0.5053 -0.3061  1.4536
  701MOL0     H96704   5.069   0.760   8.999 -3.3739 -1.6662  0.3945
  701MOL0     H96705   5.098   0.937   9.014  1.9100 -1.3873  1.5458
  701MOL0     H96706   5.010   0.822   9.215 -0.1498 -0.7810  0.4273
  701MOL0     H96707   4.861   0.780   9.133  0.8922 -1.7765  0.3752
  701MOL0     H96708   4.805   1.034   9.114  0.7000  4.1456  0.7551
  701MOL0     H96709   4.966   1.070   9.147 -0.9339  0.4620 -0.0899
  701MOL0     H96710   4.771   1.130   9.313 -1.1409 -0.6878 -2.1319
  701MOL0     H96711   4.750   0.962   9.357  0.4371 -1.8084 -0.0275
  701MOL0     H96712   5.008   1.127   9.391  0.5304 -0.0446 -0.4112
  701MOL0     H96713   4.976   0.946   9.438 -0.9000  0.3615  1.2269
  701MOL0     H96714   4.819   1.035   9.600  2.5152 -1.2508  0.5068
  701MOL0     H96715   4.858   1.209   9.541 -0.0688 -0.1339 -0.8254
  701MOL0     H96716   4.981   1.135   9.758 -0.9913  0.5717  0.1348
  701MOL0     H96717   5.089   1.151   9.615 -1.9688  0.8405 -3.0425
  701MOL0     H96718   4.807   0.937   8.658 -2.2537  1.5313 -1.7906
  701MOL0     H96719   4.622   0.920   8.494  0.7039  0.0921 -0.3481
  701MOL0     H96720   4.250   1.063   8.369  0.0664 -0.4038 -0.6799
  701MOL0     H96721   4.027   1.103   8.285  2.4521  0.2341 -0.2967
  701MOL0     H96722   1.825   0.641   8.021  1.0248 -0.1246 -2.5250
  701MOL0     H96723   1.627   0.514   8.106  0.9256  0.7870  0.6967
  701MOL0     H96724   1.508   0.200   8.352 -0.0008  1.2663 -1.7842
  701MOL0     H96725   1.331   0.105   8.493  2.1385  0.2829 -0.7210
  701MOL0     H96726   1.184  -0.123   8.491 -1.9192 -2.1329 -3.7942
  701MOL0     H96727   1.119   0.009   8.592  0.8542 -3.5548  2.3343
  701MOL0     H96728   0.976  -0.156   8.661 -1.5296  2.4417  0.3657
  701MOL0     H96729   0.975  -0.221   8.492  1.4784  2.1091 -3.5632
  701MOL0     H96730   0.835   0.033   8.616  2.8526  1.4651 -1.1834
  701MOL0     H96731   0.845   0.009   8.443 -2.1719 -0.9352 -1.2831
  701MOL0     H96732   0.729  -0.200   8.449  1.2359  0.9529 -0.0413
  701MOL0     H96733   0.636  -0.059   8.491 -0.0386  0.0175  0.4232
  701MOL0     H96734   0.620  -0.279   8.852  2.2645  1.4861  0.4532
  701MOL0     H96735   1.079   0.082   8.139  0.6719 -0.7241 -0.5804
  701MOL0     H96736   1.245   0.288   7.946  1.3715  0.2118  1.3183
  701MOL0     H96737   1.315   0.142   7.891 -0.8431  2.8613 -1.3233
  701MOL0     H96738   1.146   0.136   7.933  1.2292 -2.5186 -2.3440
  702MOL0     O96739   2.059   7.979   5.914  0.3167  0.0716  0.0017
  702MOL0     C96740   2.058   8.046   5.810 -0.1480  0.1154 -0.0087
  702MOL0     O96741   2.130   8.165   5.797  0.2650 -0.2625  0.2670
  702MOL0     C96742   2.225   8.201   5.893 -0.1638 -1.3182 -0.5122
  702MOL0     C96743   2.181   8.283   5.999  0.6000  0.4881  0.3017
  702MOL0     C96744   2.274   8.322   6.092 -0.4066  0.2483 -0.6770
  702MOL0     C96745   2.405   8.275   6.087  0.2377 -0.7255 -0.5530
  702MOL0     O96746   2.495   8.310   6.183 -0.4786 -0.2511  0.1118
  702MOL0     C96747   2.457   8.368   6.313 -0.1534 -0.2203 -0.4493
  702MOL0     C96748   2.567   8.343   6.414 -1.1546  0.5605 -0.5869
  702MOL0     C96749   2.531   8.374   6.553  0.4992  0.0595 -0.9781
  702MOL0     C96750   2.656   8.367   6.638 -0.1854 -0.1865 -0.6341
  702MOL0     C96751   2.630   8.410   6.787  0.5602 -0.0254  0.1305
  702MOL0     C96752   2.612   8.562   6.812  0.3744 -0.4270  0.1901
  702MOL0     C96753   2.687   8.622   6.935  0.3401  0.1042 -0.9601
  702MOL0     C96754   2.660   8.549   7.061  0.6982 -0.7535  0.6005
  702MOL0     N96755   2.734   8.614   7.171 -0.2831 -0.4579 -0.5854
  702MOL0     C96756   2.675   8.642   7.291  0.7342  0.0679 -0.3470
  702MOL0     C96757   2.777   8.684   7.373  0.6774  0.1538 -0.7277
  702MOL0     C96758   2.772   8.743   7.510  0.7424  0.4325 -0.2403
  702MOL0     C96759   2.681   8.659   7.616  0.5603  0.8873  0.2486
  702MOL0     C96760   2.754   8.546   7.677  0.1044 -0.5213 -0.3621
  702MOL0     C96761   2.671   8.477   7.783 -0.2640  0.4886  0.1497
  702MOL0     O96762   2.585   8.374   7.728 -0.6117 -0.1317  0.2184
  702MOL0     C96763   2.474   8.350   7.804  0.2687 -0.2008 -1.0713
  702MOL0     C96764   2.458   8.383   7.942  0.4689  0.1057  0.9107
  702MOL0     C96765   2.351   8.338   8.024 -0.0803  0.8821  0.0951
  702MOL0     C96766   2.356   8.363   8.174  0.3910  0.2691 -0.1913
  702MOL0     C96767   2.242   8.266   7.960  0.0386 -0.3995  0.7830
  702MOL0     C96768   2.120   8.214   8.027  0.2844 -0.4035  0.2517
  702MOL0     O96769   2.048   8.291   8.103 -0.2686  0.2084  0.5545
  702MOL0     C96770   1.929   8.246   8.166  1.2174  0.0793  0.1474
  702MOL0     C96771   1.800   8.304   8.137  0.1686  0.8246  0.0473
  702MOL0     C96772   1.687   8.268   8.201  0.1597 -0.1462  0.0754
  702MOL0     C96773   1.690   8.162   8.295  0.7871 -0.8761  0.9712
  702MOL0     O96774   1.575   8.108   8.340  0.4859  0.1720 -0.5699
  702MOL0     C96775   1.472   8.065   8.247  0.5491 -0.4315 -0.9140
  702MOL0     C96776   1.373   7.967   8.311  0.3803  0.5723 -0.7345
  702MOL0     C96777   1.438   7.839   8.369 -0.0241 -0.2507 -0.5001
  702MOL0     C96778   1.341   7.760   8.462  0.5549  0.5222 -0.4373
  702MOL0     C96779   1.402   7.627   8.495  0.0018 -0.7928 -0.0716
  702MOL0     C96780   1.305   7.566   8.594  0.0945 -0.1050 -0.5863
  702MOL0     C96781   1.346   7.414   8.609  0.2247 -0.3603  0.1767
  702MOL0     C96782   1.233   7.327   8.664  0.1133 -0.1777  0.0479
  702MOL0    Cl96783   1.153   7.412   8.800 -0.1750  0.2169 -0.4020
  702MOL0     C96784   1.811   8.111   8.345  0.4992  0.8543  0.3979
  702MOL0     C96785   1.926   8.148   8.270 -0.7122 -0.8675  0.8294
  702MOL0     O96786   2.097   8.098   7.997  0.5194  0.2080  0.5868
  702MOL0     C96787   2.256   8.234   7.825  0.1173 -0.5842 -0.1427
  702MOL0     C96788   2.364   8.289   7.754 -0.3911 -0.0899 -0.0763
  702MOL0     N96789   2.893   8.670   7.301 -0.7178 -0.2597  0.5704
  702MOL0     N96790   2.869   8.630   7.183  0.1769  0.2882  0.0611
  702MOL0     C96791   2.447   8.190   5.979  0.1837 -0.8028  0.6605
  702MOL0     C96792   2.355   8.157   5.878 -0.1125  0.0458 -0.6592
  702MOL0     C96793   1.970   8.002   5.694 -0.7845  0.5170  0.1649
  702MOL0     C96794   1.873   7.892   5.716  0.5926  0.1671 -0.0864
  702MOL0     C96795   1.789   7.846   5.612  0.3146 -0.0405 -0.8387
  702MOL0     C96796   1.798   7.911   5.490  0.5177  0.3711 -0.2588
  702MOL0     O96797   1.713   7.873   5.390 -0.0892 -0.0456  0.2377
  702MOL0     C96798   1.636   7.974   5.329 -0.2454  0.4202  0.6074
  702MOL0     C96799   1.567   8.069   5.427  0.4931  0.2893 -0.0090
  702MOL0     C96800   1.464   8.007   5.527  0.5898 -0.5125 -0.9485
  702MOL0     C96801   1.340   7.929   5.464 -0.0317 -0.3400  0.2320
  702MOL0     C96802   1.268   7.845   5.563  0.4267  0.4824  0.4767
  702MOL0     C96803   1.198   7.771   5.633  0.6564  0.3028 -0.1745
  702MOL0     C96804   1.888   8.009   5.468 -0.5120 -0.3765  0.5262
  702MOL0     C96805   1.971   8.065   5.563 -0.5153 -0.0506 -0.9390
  702MOL0     C96806   2.075   8.159   5.516  0.4171  0.8293 -0.3833
  702MOL0     H96807   2.074   8.295   6.009  0.1651 -2.0612 -0.4764
  702MOL0     H96808   2.236   8.382   6.174  1.2186  1.3189 -0.6488
  702MOL0     H96809   2.368   8.316   6.349  1.0786 -2.2820 -0.2609
  702MOL0     H96810   2.412   8.468   6.309 -0.2072 -0.2069  0.3902
  702MOL0     H96811   2.591   8.237   6.405 -2.5770  0.2966 -1.6007
  702MOL0     H96812   2.650   8.401   6.371  1.0605 -2.4027 -0.6434
  702MOL0     H96813   2.489   8.475   6.542 -0.0567  0.2513  2.0994
  702MOL0     H96814   2.453   8.308   6.592 -2.0023  1.8380 -2.6368
  702MOL0     H96815   2.674   8.259   6.636  2.3232  0.0849  1.5684
  702MOL0     H96816   2.737   8.431   6.602 -2.4368  3.5495  0.4836
  702MOL0     H96817   2.717   8.371   6.841  1.5303  0.4371 -1.0494
  702MOL0     H96818   2.543   8.353   6.823  1.5352 -0.7620  1.3853
  702MOL0     H96819   2.636   8.622   6.724  0.4515  0.5394  0.8472
  702MOL0     H96820   2.504   8.577   6.825  0.3624  0.8805 -1.0822
  702MOL0     H96821   2.664   8.728   6.941 -0.4879 -0.0613 -1.1421
  702MOL0     H96822   2.793   8.593   6.924  0.1377 -0.8325 -0.5822
  702MOL0     H96823   2.552   8.556   7.078  0.7191 -2.6699  1.8042
  702MOL0     H96824   2.699   8.446   7.062  2.9987  0.0638  0.9395
  702MOL0     H96825   2.570   8.648   7.317  0.5460  1.1218 -1.3035
  702MOL0     H96826   2.747   8.848   7.491 -0.2591  0.3633  0.6254
  702MOL0     H96827   2.872   8.743   7.552  0.8268  0.8529 -0.4273
  702MOL0     H96828   2.646   8.727   7.694 -0.8070  0.7157 -0.1927
  702MOL0     H96829   2.598   8.615   7.560  2.8633 -0.5973 -2.2554
  702MOL0     H96830   2.781   8.475   7.598 -1.0379 -0.6549 -0.6495
  702MOL0     H96831   2.847   8.581   7.723 -1.3462  3.0634  0.1740
  702MOL0     H96832   2.733   8.448   7.869 -0.1249  1.8783  0.5579
  702MOL0     H96833   2.609   8.556   7.827 -0.5454 -1.0557  2.7291
  702MOL0     H96834   2.514   8.458   7.997 -1.7196  1.7537  1.0309
  702MOL0     H96835   2.451   8.321   8.209  0.6550  1.8091  1.0368
  702MOL0     H96836   2.268   8.325   8.228 -0.0100  3.3070  1.5326
  702MOL0     H96837   2.367   8.471   8.188 -0.1560  0.2903  0.1333
  702MOL0     H96838   1.790   8.384   8.063 -2.0336 -0.0608 -0.6933
  702MOL0     H96839   1.598   8.325   8.178  0.8599 -0.0887 -2.8154
  702MOL0     H96840   1.427   8.155   8.203 -0.1648 -0.8647 -1.0806
  702MOL0     H96841   1.522   7.996   8.178 -2.8429 -4.4516  0.2456
  702MOL0     H96842   1.326   8.017   8.396 -1.0400  0.6112 -1.5034
  702MOL0     H96843   1.294   7.937   8.242 -0.0664 -0.3900  0.1754
  702MOL0     H96844   1.528   7.866   8.423 -1.5397  1.4938  1.3017
  702MOL0     H96845   1.467   7.776   8.284  0.9792 -1.6442  0.8165
  702MOL0     H96846   1.246   7.743   8.411 -0.8999 -2.6728  2.9208
  702MOL0     H96847   1.314   7.818   8.551  1.9995 -0.2910  0.5734
  702MOL0     H96848   1.415   7.569   8.403 -1.7099  1.6175 -1.9665
  702MOL0     H96849   1.501   7.637   8.541 -1.4613 -0.2348  3.2093
  702MOL0     H96850   1.202   7.570   8.556 -0.3966  0.9990  0.7714
  702MOL0     H96851   1.318   7.613   8.691 -0.8340 -1.6754  0.3359
  702MOL0     H96852   1.429   7.421   8.679  2.6078  0.7883 -2.5659
  702MOL0     H96853   1.384   7.375   8.514  0.6960  1.9596 -0.6580
  702MOL0     H96854   1.261   7.231   8.708  2.6511  0.9017  0.9825
  702MOL0     H96855   1.163   7.311   8.582  0.4668 -1.3858 -0.0348
  702MOL0     H96856   1.804   8.039   8.426 -1.6796  1.9618  1.2606
  702MOL0     H96857   2.022   8.113   8.307 -0.1333  1.1121  1.3185
  702MOL0     H96858   2.182   8.189   7.760  0.7667 -0.6312 -0.8676
  702MOL0     H96859   2.367   8.262   7.649  2.6251  0.3102 -0.1727
  702MOL0     H96860   2.554   8.171   5.971  0.5061  1.4522 -1.6435
  702MOL0     H96861   2.375   8.102   5.786 -2.5117 -0.0028 -1.2093
  702MOL0     H96862   1.872   7.829   5.804 -0.5588 -0.0481 -0.2275
  702MOL0     H96863   1.717   7.766   5.626  2.1206 -1.7070 -0.7554
  702MOL0     H96864   1.695   8.040   5.264 -0.6794  0.1290 -0.0932
  702MOL0     H96865   1.557   7.925   5.272  0.0333 -0.5835  1.0718
  702MOL0     H96866   1.504   8.132   5.362  0.2482 -1.5743 -1.6492
  702MOL0     H96867   1.634   8.143   5.472  0.9608  1.2465 -2.1740
  702MOL0     H96868   1.522   7.942   5.594  1.8960  1.4692 -0.0776
  702MOL0     H96869   1.430   8.091   5.588 -0.2029 -3.0427  2.3775
  702MOL0     H96870   1.388   7.871   5.385  4.1714  2.5140  0.4055
  702MOL0     H96871   1.270   8.005   5.428 -1.4543  0.0706  3.4559
  702MOL0     H96872   1.138   7.720   5.706  0.4061 -2.2081 -2.0195
  702MOL0     H96873   1.899   8.056   5.371 -1.1330  2.9370  1.9298
  702MOL0     H96874   2.063   8.265   5.537  3.0398  0.9477  0.9006
  702MOL0     H96875   2.171   8.123   5.554 -1.0643 -3.5164 -0.1442
  702MOL0     H96876   2.084   8.146   5.407 -2.5894  0.4153 -0.6617
  703MOL0     O96877   5.818   3.702   4.809 -0.1036 -0.3371 -0.3318
  703MOL0     C96878   5.853   3.805   4.861  0.0713  0.3781 -0.6550
  703MOL0     O96879   5.959   3.817   4.945  0.2368 -1.3563 -0.1119
  703MOL0     C96880   6.063   3.724   4.928  1.0470  0.4708  0.1111
  703MOL0     C96881   6.175   3.755   4.842 -0.3188  0.5346 -0.1854
  703MOL0     C96882   6.276   3.650   4.827  0.4263  0.3638  0.7367
  703MOL0     C96883   6.268   3.529   4.891 -0.6729 -1.0065 -0.1524
  703MOL0     O96884   6.365   3.432   4.874 -0.1077 -0.2825  0.4198
  703MOL0     C96885   6.380   3.316   4.953 -0.0196  0.7838 -0.5681
  703MOL0     C96886   6.498   3.225   4.894  0.4591  1.4529 -0.3947
  703MOL0     C96887   6.635   3.261   4.942 -0.1753 -0.4155  0.1240
  703MOL0     C96888   6.665   3.403   4.889 -0.1267 -0.7183 -0.4839
  703MOL0     C96889   6.816   3.451   4.917 -0.0027  0.2694  0.1463
  703MOL0     C96890   6.908   3.385   4.805 -0.1376  0.3639 -1.3489
  703MOL0     C96891   7.055   3.418   4.837 -0.2382 -0.0305  1.0941
  703MOL0     C96892   7.141   3.323   4.752  1.2336  0.1491 -0.5545
  703MOL0     N96893   7.287   3.342   4.774  0.3428  0.0538 -0.4538
  703MOL0     C96894   7.373   3.347   4.675  0.6781  0.2283 -0.6503
  703MOL0     C96895   7.495   3.355   4.735 -0.0555  0.0801  0.1211
  703MOL0     C96896   7.626   3.364   4.674 -0.0206  0.1705  0.2076
  703MOL0     C96897   7.740   3.408   4.767  0.2969 -0.1167  0.1960
  703MOL0     C96898   7.876   3.391   4.703  0.2555 -0.5064  0.0875
  703MOL0     C96899   7.998   3.436   4.789  0.8335 -0.3070  0.5472
  703MOL0     O96900   8.029   3.578   4.755 -0.4447  0.4821 -0.0395
  703MOL0     C96901   8.161   3.611   4.728 -0.3373 -0.0254 -0.2720
  703MOL0     C96902   8.274   3.526   4.746  0.1913 -0.9877 -0.2635
  703MOL0     C96903   8.408   3.566   4.723  0.8577  0.3873  0.5871
  703MOL0     C96904   8.515   3.473   4.751  0.0166  0.1315 -0.2263
  703MOL0     C96905   8.427   3.697   4.665 -0.5019  0.4630 -0.5372
  703MOL0     C96906   8.563   3.754   4.622  0.6517 -0.0199  0.0043
  703MOL0     O96907   8.572   3.889   4.591 -0.2021 -0.5687 -0.1759
  703MOL0     C96908   8.690   3.937   4.553 -0.5977  0.4077  0.2025
  703MOL0     C96909   8.710   3.968   4.420 -0.7753  0.0629  0.4089
  703MOL0     C96910   8.821   4.038   4.381  0.8345 -0.7281 -0.6755
  703MOL0     C96911   8.925   4.073   4.477 -0.3317  0.4912 -0.4234
  703MOL0     O96912   9.048   4.125   4.442  0.4218  0.3382 -0.4464
  703MOL0     C96913   9.049   4.194   4.314  0.4542  0.1959 -0.4950
  703MOL0     C96914   9.188   4.252   4.295  0.1916  0.2743  0.2941
  703MOL0     C96915   9.293   4.147   4.302  0.0615  1.3622  0.0643
  703MOL0     C96916   9.421   4.201   4.243  0.5597  0.5658  0.0935
  703MOL0     C96917   9.534   4.099   4.235  0.1791 -0.0327 -0.1326
  703MOL0     C96918   9.516   3.979   4.135 -0.0809 -0.1473 -0.7162
  703MOL0     C96919   9.637   3.902   4.104 -0.1535  0.5183 -0.6685
  703MOL0     C96920   9.638   3.853   3.969  0.1210 -0.3711  0.1873
  703MOL0    Cl96921   9.495   3.778   3.896  0.2836 -0.0836 -0.1413
  703MOL0     C96922   8.899   4.046   4.611 -0.3341 -0.9181  0.4712
  703MOL0     C96923   8.784   3.980   4.648  0.5010  0.2469  0.3707
  703MOL0     O96924   8.657   3.675   4.620 -0.1763 -0.0476 -0.2855
  703MOL0     C96925   8.315   3.781   4.654 -0.3557 -0.4222  0.9534
  703MOL0     C96926   8.191   3.736   4.677  0.0388 -0.8973  0.1409
  703MOL0     N96927   7.475   3.343   4.872 -0.2455  0.4080 -0.5795
  703MOL0     N96928   7.349   3.343   4.896  0.0077 -0.9862 -0.1548
  703MOL0     C96929   6.173   3.516   4.989  0.0003 -0.3059  0.1510
  703MOL0     C96930   6.073   3.606   5.011 -1.6117 -0.3804  0.0334
  703MOL0     C96931   5.749   3.911   4.863 -0.1017  0.3183  0.6384
  703MOL0     C96932   5.793   4.042   4.828  0.0860  0.1745 -0.2910
  703MOL0     C96933   5.708   4.149   4.822 -0.3687  0.1747  0.4125
  703MOL0     C96934   5.569   4.133   4.852 -0.0910 -0.1435 -0.4743
  703MOL0     O96935   5.495   4.244   4.868  0.1059  0.0187 -0.3582
  703MOL0     C96936   5.382   4.265   4.784 -0.1413 -0.4517 -0.1750
  703MOL0     C96937   5.305   4.394   4.832 -0.0454 -0.0233 -0.5238
  703MOL0     C96938   5.395   4.519   4.838  0.0704  0.6273 -0.7799
  703MOL0     C96939   5.302   4.642   4.870  0.3655  0.1803 -0.4087
  703MOL0     C96940   5.369   4.772   4.863  0.5671  0.7642 -0.4981
  703MOL0     C96941   5.438   4.868   4.841 -0.7301  0.6495  0.1341
  703MOL0     C96942   5.528   4.003   4.877  0.0437 -0.4663  0.1407
  703MOL0     C96943   5.614   3.894   4.887  0.2259  0.6420 -0.3694
  703MOL0     C96944   5.553   3.752   4.930  0.8399  0.6352  0.2570
  703MOL0     H96945   6.186   3.848   4.788 -0.3733  0.9528  0.5238
  703MOL0     H96946   6.351   3.663   4.750  0.5805 -2.9587  0.1835
  703MOL0     H96947   6.291   3.255   4.935  1.6525 -1.7401 -0.9250
  703MOL0     H96948   6.386   3.340   5.059 -0.1505 -3.3165  0.5511
  703MOL0     H96949   6.483   3.121   4.926  0.8528  2.1058  2.1006
  703MOL0     H96950   6.488   3.222   4.785  0.8758 -0.7428 -0.4123
  703MOL0     H96951   6.647   3.263   5.050  1.2966 -0.0018 -0.0258
  703MOL0     H96952   6.709   3.191   4.902 -0.3782 -0.4361 -0.2221
  703MOL0     H96953   6.651   3.412   4.781 -0.1100 -0.6189 -0.4778
  703MOL0     H96954   6.598   3.478   4.932 -1.6602 -1.0532 -2.1569
  703MOL0     H96955   6.844   3.441   5.022  2.7982  3.7585 -0.0693
  703MOL0     H96956   6.833   3.555   4.886  0.2901  0.1283 -0.1819
  703MOL0     H96957   6.890   3.278   4.822  0.2051  0.4828 -0.1222
  703MOL0     H96958   6.873   3.425   4.710 -2.8628  0.6063 -0.3372
  703MOL0     H96959   7.073   3.381   4.938  0.9095 -1.8015  0.3003
  703MOL0     H96960   7.074   3.524   4.817 -0.3693 -0.5583 -2.7074
  703MOL0     H96961   7.112   3.217   4.748  0.9706  0.2330 -0.9643
  703MOL0     H96962   7.116   3.355   4.650 -0.7898 -1.4354 -0.6313
  703MOL0     H96963   7.349   3.343   4.569 -0.6950 -0.0053 -0.3453
  703MOL0     H96964   7.639   3.426   4.585  3.7242 -1.2238 -0.4362
  703MOL0     H96965   7.654   3.264   4.637  3.5253  1.2034 -0.3235
  703MOL0     H96966   7.735   3.511   4.804  0.8650  0.2548 -0.7366
  703MOL0     H96967   7.732   3.340   4.852  2.2247 -2.2725 -1.2519
  703MOL0     H96968   7.889   3.286   4.676 -3.1810 -1.4728  1.6274
  703MOL0     H96969   7.885   3.453   4.614 -0.7391 -2.7557 -1.6728
  703MOL0     H96970   7.986   3.421   4.897 -0.5734  2.8182  0.9289
  703MOL0     H96971   8.067   3.359   4.754  0.5701 -0.1837 -0.2528
  703MOL0     H96972   8.268   3.419   4.765  0.8164 -0.8766  0.6227
  703MOL0     H96973   8.564   3.458   4.654  0.6151 -1.5656  0.2985
  703MOL0     H96974   8.478   3.380   4.796 -0.2433  0.5141  0.3514
  703MOL0     H96975   8.592   3.521   4.812  0.3094  1.4047 -1.5578
  703MOL0     H96976   8.645   3.941   4.337  0.0224  1.1829 -0.6209
  703MOL0     H96977   8.832   4.056   4.275  2.2633  1.1566 -0.2677
  703MOL0     H96978   9.030   4.133   4.225 -0.4070  2.7496 -2.1880
  703MOL0     H96979   8.979   4.279   4.316 -0.6809 -0.7090 -0.5917
  703MOL0     H96980   9.200   4.299   4.197  1.6942 -1.3238 -0.3461
  703MOL0     H96981   9.199   4.327   4.374  1.2719 -0.8787  1.2764
  703MOL0     H96982   9.262   4.053   4.257  1.1796 -0.2334  2.4039
  703MOL0     H96983   9.316   4.124   4.406  1.0081 -0.5221 -0.5192
  703MOL0     H96984   9.454   4.285   4.304  2.3447 -3.1948  5.0106
  703MOL0     H96985   9.405   4.234   4.140  0.7345  1.8245  0.4505
  703MOL0     H96986   9.619   4.160   4.204 -1.6505  1.9341 -1.5367
  703MOL0     H96987   9.558   4.055   4.332  1.4668 -0.7974 -0.7691
  703MOL0     H96988   9.473   4.029   4.048 -2.9490  1.4521  1.4285
  703MOL0     H96989   9.436   3.911   4.165  0.5697 -0.9763 -0.8403
  703MOL0     H96990   9.640   3.820   4.176  0.4239  2.7720  2.0888
  703MOL0     H96991   9.724   3.968   4.119  0.8044 -0.7617 -0.4202
  703MOL0     H96992   9.729   3.795   3.953  1.5863  1.6426  0.8476
  703MOL0     H96993   9.664   3.944   3.916  1.0150 -0.6073  0.2096
  703MOL0     H96994   8.973   4.080   4.683  0.1960  0.7430 -0.7912
  703MOL0     H96995   8.763   3.946   4.749  3.1631 -0.2773  0.8141
  703MOL0     H96996   8.326   3.881   4.614 -2.3213 -0.6745 -0.3678
  703MOL0     H96997   8.114   3.808   4.650  0.8131 -0.4287 -0.9012
  703MOL0     H96998   6.160   3.420   5.040 -0.4854 -0.3627 -0.0753
  703MOL0     H96999   5.991   3.587   5.080 -0.5933  1.1148  1.7486
  703MOL0     H97000   5.891   4.071   4.791 -0.0476 -0.5520 -1.2712
  703MOL0     H97001   5.747   4.249   4.812  1.5559 -0.4718  0.9688
  703MOL0     H97002   5.418   4.279   4.682 -0.3561 -0.2435 -0.2245
  703MOL0     H97003   5.308   4.184   4.786  2.2863 -2.7968  1.6857
  703MOL0     H97004   5.265   4.385   4.934  0.8652  1.3554 -0.0152
  703MOL0     H97005   5.226   4.405   4.757 -0.6447  1.2146  0.2392
  703MOL0     H97006   5.472   4.510   4.915 -0.7353  0.3112  0.0141
  703MOL0     H97007   5.450   4.533   4.744  1.0545 -1.3741 -0.5395
  703MOL0     H97008   5.275   4.631   4.975  1.4554 -1.3375 -0.2552
  703MOL0     H97009   5.213   4.655   4.809 -1.1814  3.6560  2.2333
  703MOL0     H97010   5.497   4.957   4.834  0.7883  0.2463  4.5737
  703MOL0     H97011   5.422   3.991   4.899 -0.5122  2.2944 -0.6131
  703MOL0     H97012   5.503   3.766   5.026  1.1846 -1.1638  0.7169
  703MOL0     H97013   5.485   3.715   4.852  0.4386 -2.0672  1.7861
  703MOL0     H97014   5.622   3.668   4.937 -1.7154 -1.8450 -1.8549
  704MOL0     O97015   8.391   3.658   7.408  0.5867  0.0757 -0.8567
  704MOL0     C97016   8.306   3.668   7.500 -0.6448  0.2395  0.6573
  704MOL0     O97017   8.327   3.711   7.624  0.2465  0.2044  0.1294
  704MOL0     C97018   8.444   3.723   7.688 -1.5706 -0.0452  0.2145
  704MOL0     C97019   8.570   3.696   7.629  0.6028 -0.1848 -0.2438
  704MOL0     C97020   8.682   3.699   7.715  0.0812  1.1631 -0.4381
  704MOL0     C97021   8.670   3.716   7.851  0.8849  1.1283  0.1657
  704MOL0     O97022   8.785   3.693   7.924  0.2236 -0.3701 -0.0782
  704MOL0     C97023   8.778   3.696   8.067 -0.8280  0.4067  0.1380
  704MOL0     C97024   8.887   3.604   8.130  0.0322 -0.2932 -0.3439
  704MOL0     C97025   9.020   3.679   8.153  0.6657 -0.3105  0.0718
  704MOL0     C97026   9.134   3.580   8.187 -0.5530  0.4471  0.1396
  704MOL0     C97027   9.100   3.473   8.286 -0.0165  0.4199  0.2118
  704MOL0     C97028   9.224   3.385   8.314 -0.0954 -0.2536  0.0789
  704MOL0     C97029   9.222   3.315   8.448 -0.0835 -0.1207 -0.6466
  704MOL0     C97030   9.346   3.231   8.476 -0.0233 -0.2825  0.6439
  704MOL0     N97031   9.470   3.313   8.475  0.8948  0.1779 -0.3102
  704MOL0     C97032   9.519   3.375   8.584  0.2407  0.2126 -0.1761
  704MOL0     C97033   9.633   3.441   8.533 -0.0701 -0.1755  0.2183
  704MOL0     C97034   9.720   3.531   8.628  0.3913 -0.4784 -0.4280
  704MOL0     C97035   9.843   3.472   8.703  0.6410 -0.4892 -0.6109
  704MOL0     C97036   9.957   3.470   8.599  0.0738 -0.0480  0.2837
  704MOL0     C97037  10.094   3.432   8.666 -0.1476  1.0211  0.1804
  704MOL0     O97038  10.092   3.300   8.720  0.3428  0.4731 -0.0997
  704MOL0     C97039  10.209   3.235   8.744 -0.2284 -1.0187  0.5519
  704MOL0     C97040  10.340   3.280   8.709  0.3675 -0.1200 -0.5912
  704MOL0     C97041  10.448   3.195   8.736 -0.1215  0.3146 -0.5659
  704MOL0     C97042  10.584   3.253   8.693  0.5749  0.5377  0.5631
  704MOL0     C97043  10.431   3.069   8.799 -0.1125  1.3581 -0.3533
  704MOL0     C97044  10.536   2.970   8.845  0.4993  0.4095  0.4344
  704MOL0     O97045  10.665   3.012   8.847  0.2264  0.2045  0.1085
  704MOL0     C97046  10.764   2.934   8.899  0.2594  0.0805  0.2641
  704MOL0     C97047  10.878   3.012   8.916 -0.7576  0.5168  0.2660
  704MOL0     C97048  10.995   2.947   8.955 -0.4327  0.6155 -0.1760
  704MOL0     C97049  11.003   2.815   8.981  1.2286 -0.0518 -0.1804
  704MOL0     O97050  11.120   2.780   9.043 -0.0027  0.1035  0.1441
  704MOL0     C97051  11.127   2.643   9.101 -0.5466  0.5595  0.0368
  704MOL0     C97052  11.256   2.608   9.181  0.3783 -0.1053  0.1410
  704MOL0     C97053  11.233   2.630   9.332 -0.4280 -1.2339  0.4527
  704MOL0     C97054  11.356   2.617   9.417  0.3066  0.0330  0.0589
  704MOL0     C97055  11.415   2.477   9.443 -1.1053 -0.2142  0.3279
  704MOL0     C97056  11.546   2.494   9.526 -0.5850 -0.1951 -0.0784
  704MOL0     C97057  11.618   2.371   9.542  0.2429  0.3278 -0.7636
  704MOL0     C97058  11.724   2.383   9.653  0.2719 -0.2003 -0.4139
  704MOL0    Cl97059  11.825   2.242   9.644 -0.0300  0.1379 -0.0144
  704MOL0     C97060  10.887   2.736   8.967 -0.6190  0.1293 -0.0345
  704MOL0     C97061  10.773   2.799   8.924  0.0380  0.6832  0.0592
  704MOL0     O97062  10.507   2.858   8.870 -0.2349  0.0141 -0.3891
  704MOL0     C97063  10.299   3.022   8.811  0.3289 -0.1069  0.6704
  704MOL0     C97064  10.187   3.104   8.786 -0.3143  0.2582  0.2198
  704MOL0     N97065   9.642   3.427   8.399  0.0059  0.5647  0.2700
  704MOL0     N97066   9.550   3.342   8.369  0.3377  0.3921 -0.0200
  704MOL0     C97067   8.549   3.760   7.906  0.2221  0.6152 -0.2707
  704MOL0     C97068   8.442   3.761   7.823 -0.3791 -0.8168 -0.4067
  704MOL0     C97069   8.172   3.615   7.465 -0.1313 -0.4798  0.5731
  704MOL0     C97070   8.087   3.590   7.577  0.1793  0.1469  0.8879
  704MOL0     C97071   7.954   3.536   7.562  0.2465  0.3412  0.3678
  704MOL0     C97072   7.904   3.524   7.430  0.3963 -0.3887  1.1869
  704MOL0     O97073   7.782   3.470   7.389 -0.7442  0.0857  0.0873
  704MOL0     C97074   7.694   3.432   7.493  0.1940  0.3648  0.5597
  704MOL0     C97075   7.573   3.362   7.430 -0.2028  0.6901 -0.6495
  704MOL0     C97076   7.619   3.217   7.375  0.1531 -0.1916 -0.8122
  704MOL0     C97077   7.536   3.178   7.259 -0.6558 -0.7491  0.3659
  704MOL0     C97078   7.587   3.048   7.205 -0.1545 -0.1877 -0.3944
  704MOL0     C97079   7.625   2.948   7.154 -0.0916 -0.1530  0.5458
  704MOL0     C97080   7.987   3.558   7.325 -0.1215 -0.0372 -0.0471
  704MOL0     C97081   8.118   3.610   7.338  0.2643 -0.1118  0.4397
  704MOL0     C97082   8.192   3.639   7.211 -0.3732  0.2263  0.3117
  704MOL0     H97083   8.591   3.654   7.531  1.6755 -2.7026  0.9776
  704MOL0     H97084   8.776   3.672   7.669  0.9849 -3.7258  3.4716
  704MOL0     H97085   8.683   3.654   8.102 -0.0124 -0.7473  1.0235
  704MOL0     H97086   8.789   3.799   8.103 -1.7340  0.2454  0.9101
  704MOL0     H97087   8.853   3.570   8.229  3.0309  1.3044  1.4149
  704MOL0     H97088   8.900   3.516   8.066 -0.6873 -1.1455  0.6494
  704MOL0     H97089   9.032   3.732   8.058  0.9087 -1.7948 -0.7656
  704MOL0     H97090   9.019   3.753   8.233  2.4474 -2.0030  1.7860
  704MOL0     H97091   9.160   3.533   8.091 -3.3623 -1.5114  0.2309
  704MOL0     H97092   9.224   3.636   8.213 -0.1102  0.3716 -1.1309
  704MOL0     H97093   9.016   3.406   8.266 -0.7775  0.4823  2.8093
  704MOL0     H97094   9.067   3.522   8.379 -3.4126  1.1996 -1.2628
  704MOL0     H97095   9.234   3.315   8.230 -2.7597  0.6381 -1.1041
  704MOL0     H97096   9.312   3.449   8.322 -0.3867  0.4580 -1.8329
  704MOL0     H97097   9.143   3.241   8.435 -0.8917  0.5095  0.4686
  704MOL0     H97098   9.195   3.383   8.530  2.0744 -0.0249  0.0505
  704MOL0     H97099   9.340   3.160   8.559  1.3930 -0.4981  0.5739
  704MOL0     H97100   9.360   3.167   8.388  2.2937  0.4580  0.4346
  704MOL0     H97101   9.485   3.382   8.687  0.4726 -2.8508  0.2035
  704MOL0     H97102   9.647   3.572   8.699  0.3633 -1.2552 -0.0031
  704MOL0     H97103   9.765   3.613   8.571 -0.4020  0.3758  0.1555
  704MOL0     H97104   9.862   3.531   8.793  1.9708 -1.6933 -0.0561
  704MOL0     H97105   9.827   3.370   8.739  3.7048 -0.4228  1.2935
  704MOL0     H97106   9.932   3.398   8.521 -0.1061  1.0503 -0.6947
  704MOL0     H97107   9.982   3.567   8.554  2.2926  0.6792  2.8239
  704MOL0     H97108  10.154   3.430   8.574 -0.4176  2.6197 -0.0545
  704MOL0     H97109  10.128   3.515   8.729  1.1366  1.9354 -1.6309
  704MOL0     H97110  10.356   3.377   8.663  1.8063 -0.4310 -0.7974
  704MOL0     H97111  10.660   3.250   8.772 -1.4867  2.0290  2.7513
  704MOL0     H97112  10.575   3.359   8.668  1.5509  0.4924 -0.0459
  704MOL0     H97113  10.621   3.206   8.601 -0.5944  0.1142  0.2972
  704MOL0     H97114  10.878   3.119   8.899  1.1636  0.5392  0.1891
  704MOL0     H97115  11.084   3.005   8.978  0.0216 -0.5362  1.0681
  704MOL0     H97116  11.041   2.641   9.169 -0.1918  1.0635  0.5124
  704MOL0     H97117  11.112   2.573   9.018  0.3832 -0.4573  0.6982
  704MOL0     H97118  11.283   2.505   9.155 -1.0556 -0.0360 -1.8821
  704MOL0     H97119  11.350   2.652   9.145  0.4764 -2.0669 -2.3034
  704MOL0     H97120  11.162   2.558   9.372 -1.5798 -1.0316 -1.1559
  704MOL0     H97121  11.193   2.731   9.346  0.8129 -0.7486  0.7082
  704MOL0     H97122  11.320   2.668   9.507 -1.6573  2.4362 -1.9137
  704MOL0     H97123  11.435   2.672   9.365  3.0695 -2.7746  1.0419
  704MOL0     H97124  11.357   2.420   9.516  1.3473 -0.5712  2.1416
  704MOL0     H97125  11.440   2.421   9.353  2.5119  2.1280 -0.3161
  704MOL0     H97126  11.527   2.546   9.620 -1.6105  0.1372 -0.4621
  704MOL0     H97127  11.607   2.562   9.465 -1.8843 -0.3097 -1.5541
  704MOL0     H97128  11.673   2.344   9.451  1.4483 -3.7403  0.9185
  704MOL0     H97129  11.565   2.282   9.579  2.7505 -1.2391 -0.6591
  704MOL0     H97130  11.669   2.389   9.747  3.3036 -0.3983  1.5007
  704MOL0     H97131  11.785   2.473   9.652 -0.1281  0.2901  3.6392
  704MOL0     H97132  10.885   2.628   8.978 -0.0839  0.2092  0.9432
  704MOL0     H97133  10.701   2.719   8.911  1.3194 -0.4897 -0.0198
  704MOL0     H97134  10.290   2.923   8.853  0.9422 -0.7268 -0.5768
  704MOL0     H97135  10.088   3.068   8.812 -0.8791  2.3020  1.1069
  704MOL0     H97136   8.542   3.771   8.014  2.2483 -1.0245  0.0836
  704MOL0     H97137   8.351   3.813   7.852  0.9631  2.3477 -1.4326
  704MOL0     H97138   8.098   3.610   7.682 -0.4103 -0.9783  1.1861
  704MOL0     H97139   7.892   3.511   7.648  0.3764 -2.8357 -0.3186
  704MOL0     H97140   7.738   3.364   7.567  1.1110 -1.5094 -1.5925
  704MOL0     H97141   7.670   3.522   7.551 -0.7776 -0.7309  1.9104
  704MOL0     H97142   7.525   3.420   7.350 -0.5731 -3.6208 -3.9399
  704MOL0     H97143   7.502   3.345   7.512  1.9417  1.6666  1.5210
  704MOL0     H97144   7.725   3.222   7.348  0.3539 -1.1180 -0.2211
  704MOL0     H97145   7.601   3.145   7.455 -0.7206 -0.2950 -1.0888
  704MOL0     H97146   7.538   3.263   7.191 -3.7595  0.3883  1.5299
  704MOL0     H97147   7.431   3.171   7.288 -0.9199 -0.3025 -0.4562
  704MOL0     H97148   7.650   2.854   7.108  0.7417  0.6931 -0.8233
  704MOL0     H97149   7.940   3.541   7.229  0.3104 -0.1131 -0.2479
  704MOL0     H97150   8.224   3.744   7.216 -1.2072  0.5253 -0.4055
  704MOL0     H97151   8.276   3.574   7.187 -0.4663  0.1362  0.2289
  704MOL0     H97152   8.126   3.628   7.125 -2.1408  1.0010  1.5120
  705MOL0     O97153  11.013   1.582   5.450 -0.0871 -0.6060  0.4884
  705MOL0     C97154  11.053   1.552   5.563 -0.1432  0.4299  0.1429
  705MOL0     O97155  10.995   1.460   5.646  0.0142 -0.4901  0.6981
  705MOL0     C97156  10.881   1.396   5.616 -0.2203  1.3673 -0.4437
  705MOL0     C97157  10.798   1.368   5.728  1.2251  0.5755  0.3378
  705MOL0     C97158  10.680   1.305   5.712  0.0744  0.2233  0.2430
  705MOL0     C97159  10.630   1.268   5.588 -0.7141 -0.1994 -0.4248
  705MOL0     O97160  10.510   1.203   5.575 -0.3258 -0.2700 -0.2422
  705MOL0     C97161  10.401   1.262   5.648 -0.0323 -0.3048 -0.6890
  705MOL0     C97162  10.329   1.160   5.736 -0.1803  0.0430  0.7665
  705MOL0     C97163  10.217   1.217   5.822 -0.1436 -0.4491 -0.2899
  705MOL0     C97164  10.262   1.250   5.964 -0.4588  0.8318 -0.7364
  705MOL0     C97165  10.175   1.354   6.034 -0.9947  0.2702 -0.4714
  705MOL0     C97166  10.026   1.337   6.022  0.0018  0.4314 -0.0230
  705MOL0     C97167   9.984   1.355   6.168  0.3512  0.3155 -0.1743
  705MOL0     C97168   9.832   1.363   6.194  0.6584 -0.4430 -0.0800
  705MOL0     N97169   9.800   1.423   6.323  1.0263 -0.5630 -1.2804
  705MOL0     C97170   9.887   1.477   6.422  0.2927 -0.4331  0.1799
  705MOL0     C97171   9.804   1.491   6.531  0.2340  0.3794  0.9559
  705MOL0     C97172   9.847   1.564   6.652 -0.0796  0.3609  0.8654
  705MOL0     C97173   9.821   1.712   6.674 -0.7526  0.1715  0.0282
  705MOL0     C97174   9.908   1.805   6.589 -0.3602 -0.2639 -0.1066
  705MOL0     C97175  10.045   1.817   6.653 -0.6595  0.3137 -0.7644
  705MOL0     O97176  10.117   1.907   6.567 -0.5797 -0.0044 -0.1614
  705MOL0     C97177  10.250   1.935   6.598 -0.5460  0.3612 -0.1108
  705MOL0     C97178  10.333   2.008   6.508 -0.6053  0.6827 -0.3175
  705MOL0     C97179  10.472   2.022   6.535 -0.8210 -0.5828  0.6731
  705MOL0     C97180  10.547   2.081   6.416  0.2925 -0.3445  0.1759
  705MOL0     C97181  10.536   1.974   6.655 -0.2376  0.3357 -0.3242
  705MOL0     C97182  10.682   1.974   6.685  0.0336  0.0515  0.4737
  705MOL0     O97183  10.719   1.955   6.811 -0.8299 -0.3546 -0.3259
  705MOL0     C97184  10.849   1.986   6.855 -0.2100  0.3137  0.8705
  705MOL0     C97185  10.894   2.114   6.845  0.4385  0.3266  0.4208
  705MOL0     C97186  11.019   2.151   6.884 -0.2399 -0.8494  0.5359
  705MOL0     C97187  11.105   2.059   6.943  0.2225 -0.9409 -0.4261
  705MOL0     O97188  11.220   2.113   6.980  0.3273 -0.6287 -0.5349
  705MOL0     C97189  11.317   2.050   7.072  0.6369  1.3277  0.4519
  705MOL0     C97190  11.291   2.086   7.217 -0.2758  0.9189 -0.7575
  705MOL0     C97191  11.344   2.229   7.255  0.4401 -0.4560 -0.7068
  705MOL0     C97192  11.502   2.253   7.232 -0.5290 -0.5975 -0.0896
  705MOL0     C97193  11.532   2.406   7.254 -0.3490  0.4014 -0.4986
  705MOL0     C97194  11.681   2.458   7.237  0.5885  0.1835  0.2575
  705MOL0     C97195  11.718   2.599   7.287  0.1463 -0.8208 -0.3295
  705MOL0     C97196  11.677   2.631   7.430 -0.7466 -0.1380 -0.2537
  705MOL0    Cl97197  11.776   2.546   7.540 -0.3417 -0.2298  0.6806
  705MOL0     C97198  11.061   1.927   6.952 -0.1456  0.4068 -0.3400
  705MOL0     C97199  10.936   1.893   6.904 -0.3015  0.4593 -0.2277
  705MOL0     O97200  10.764   2.001   6.595 -0.4106 -0.3245 -0.1801
  705MOL0     C97201  10.450   1.907   6.743 -0.9923  0.4149  0.4873
  705MOL0     C97202  10.317   1.888   6.714 -0.2492  0.7986  0.1024
  705MOL0     N97203   9.677   1.458   6.493  0.3011  0.0781  0.2460
  705MOL0     N97204   9.676   1.423   6.374  0.3001 -0.2919 -0.1809
  705MOL0     C97205  10.718   1.282   5.474 -0.5416 -0.1747 -0.2893
  705MOL0     C97206  10.840   1.349   5.486  0.0956  0.1408 -0.6513
  705MOL0     C97207  11.198   1.571   5.591 -0.6749 -0.1775  0.3334
  705MOL0     C97208  11.266   1.451   5.615 -0.5111 -0.1374 -0.6446
  705MOL0     C97209  11.399   1.453   5.630 -0.5534  0.3325  0.4536
  705MOL0     C97210  11.471   1.577   5.614 -0.6059 -0.0930  0.1222
  705MOL0     O97211  11.610   1.584   5.611 -0.1743  0.7003  0.3255
  705MOL0     C97212  11.696   1.486   5.665 -0.4742  0.0288 -0.5476
  705MOL0     C97213  11.705   1.511   5.813  0.3049 -0.5075  0.1711
  705MOL0     C97214  11.767   1.648   5.850  0.5335  0.3516  0.5068
  705MOL0     C97215  11.786   1.672   5.998  0.7826  0.5642  0.7949
  705MOL0     C97216  11.898   1.588   6.058 -0.1844 -0.1045  0.2153
  705MOL0     C97217  11.990   1.518   6.104  0.2292  0.2586 -0.4213
  705MOL0     C97218  11.398   1.696   5.614  0.3505  0.6044 -0.3679
  705MOL0     C97219  11.260   1.693   5.588  0.4437  0.3886 -0.5886
  705MOL0     C97220  11.188   1.825   5.569 -0.2652  0.2725  1.1226
  705MOL0     H97221  10.833   1.408   5.823  0.2291 -1.7884  1.7812
  705MOL0     H97222  10.617   1.287   5.798  1.5836  0.9352  1.5517
  705MOL0     H97223  10.335   1.288   5.564 -1.3772 -0.5179  0.2705
  705MOL0     H97224  10.428   1.348   5.710 -1.7411 -1.0298  1.1962
  705MOL0     H97225  10.286   1.083   5.672 -1.6781  1.3541  0.1375
  705MOL0     H97226  10.408   1.115   5.797 -0.6112 -1.4780  0.2542
  705MOL0     H97227  10.187   1.314   5.781  2.6748  1.4576  1.7750
  705MOL0     H97228  10.132   1.149   5.827 -1.3053  0.9810  0.1907
  705MOL0     H97229  10.248   1.160   6.025  2.0377  1.1555  0.4593
  705MOL0     H97230  10.371   1.262   5.964 -0.3751  0.2733 -1.7287
  705MOL0     H97231  10.210   1.449   5.992  2.9338 -0.2590  1.1075
  705MOL0     H97232  10.213   1.360   6.137  0.9786  1.5361 -1.2051
  705MOL0     H97233   9.978   1.411   5.957 -0.2103  0.6832  0.4143
  705MOL0     H97234   9.998   1.236   5.992  1.8823 -0.3783  0.7627
  705MOL0     H97235  10.030   1.448   6.206 -1.6792  1.9375 -1.4974
  705MOL0     H97236  10.010   1.269   6.231 -0.1721  0.8044  0.7434
  705MOL0     H97237   9.787   1.434   6.124 -2.1327 -0.7677  1.2428
  705MOL0     H97238   9.774   1.271   6.177 -0.1523  0.4066 -2.3867
  705MOL0     H97239   9.985   1.523   6.412 -0.5690  1.4800  0.0269
  705MOL0     H97240   9.952   1.540   6.671  0.3149  1.8726  0.7065
  705MOL0     H97241   9.789   1.523   6.735 -1.0943  2.8028  1.4445
  705MOL0     H97242   9.717   1.740   6.655 -0.0493  1.8839 -1.5344
  705MOL0     H97243   9.842   1.731   6.780 -0.6972 -1.5537  0.3679
  705MOL0     H97244   9.916   1.764   6.488 -1.4454  0.9145 -0.6875
  705MOL0     H97245   9.860   1.903   6.592 -1.1300 -0.5975 -1.1459
  705MOL0     H97246  10.029   1.853   6.755  0.1751  0.8770 -0.8254
  705MOL0     H97247  10.085   1.715   6.657 -6.0279 -2.1340 -0.4401
  705MOL0     H97248  10.289   2.042   6.415 -0.7772 -0.7145 -0.7600
  705MOL0     H97249  10.482   2.135   6.346  0.1096 -0.7895 -0.0001
  705MOL0     H97250  10.614   2.013   6.363 -2.3467 -1.4979 -1.9551
  705MOL0     H97251  10.624   2.151   6.450  0.2823 -1.2803  2.2351
  705MOL0     H97252  10.832   2.189   6.797  2.3945  3.1817  2.0017
  705MOL0     H97253  11.048   2.256   6.881  1.5981 -1.3407 -1.0909
  705MOL0     H97254  11.307   1.941   7.061  1.6377  0.8672  3.2588
  705MOL0     H97255  11.419   2.086   7.055  0.0788  3.2549  0.9688
  705MOL0     H97256  11.184   2.076   7.240  0.1649 -1.2354  0.6415
  705MOL0     H97257  11.346   2.013   7.278  0.3093  3.2953  1.8083
  705MOL0     H97258  11.314   2.241   7.359 -1.5212  0.6127 -1.3437
  705MOL0     H97259  11.285   2.294   7.190 -1.9399 -2.9960 -1.2700
  705MOL0     H97260  11.542   2.234   7.132 -0.8882  1.9720 -0.7908
  705MOL0     H97261  11.561   2.190   7.301 -1.1013 -0.2904  0.6874
  705MOL0     H97262  11.467   2.471   7.194  0.3772 -0.2621 -2.0585
  705MOL0     H97263  11.514   2.416   7.361  3.7361  1.2215  0.2887
  705MOL0     H97264  11.709   2.449   7.132 -1.5799 -1.5365 -0.2412
  705MOL0     H97265  11.742   2.380   7.282 -0.5205 -0.9328 -0.1386
  705MOL0     H97266  11.671   2.675   7.224  1.8615  0.6315  0.0954
  705MOL0     H97267  11.827   2.607   7.285  0.1068 -0.3635 -0.8668
  705MOL0     H97268  11.576   2.593   7.450  0.2125 -4.8007 -2.6955
  705MOL0     H97269  11.682   2.736   7.461 -2.0832 -0.7973  2.4748
  705MOL0     H97270  11.115   1.844   6.996 -1.7937 -0.5249 -0.0187
  705MOL0     H97271  10.909   1.788   6.909  2.5103 -0.2744  1.9080
  705MOL0     H97272  10.494   1.862   6.831  2.4008  0.2771 -1.1071
  705MOL0     H97273  10.266   1.814   6.776  1.5871 -0.3217  0.3644
  705MOL0     H97274  10.691   1.231   5.382  2.1659 -1.2911 -0.5528
  705MOL0     H97275  10.919   1.341   5.412 -0.0287 -1.5472 -0.6318
  705MOL0     H97276  11.212   1.358   5.625 -0.5440  0.1157  3.1820
  705MOL0     H97277  11.451   1.360   5.649 -0.1882  0.2266 -0.9852
  705MOL0     H97278  11.665   1.384   5.643  3.2959 -1.8357  1.8764
  705MOL0     H97279  11.793   1.506   5.618 -1.2886  2.2338 -1.4224
  705MOL0     H97280  11.770   1.434   5.855  0.5815 -0.4391 -0.1236
  705MOL0     H97281  11.607   1.503   5.860  0.3632  1.2570  0.6772
  705MOL0     H97282  11.867   1.660   5.806  0.9533 -1.8724  0.7451
  705MOL0     H97283  11.705   1.726   5.804 -0.6891 -0.0120  1.4837
  705MOL0     H97284  11.691   1.659   6.050  1.6988 -1.4623  2.0928
  705MOL0     H97285  11.814   1.777   6.013 -0.2834  0.6445  2.3822
  705MOL0     H97286  12.066   1.448   6.133  0.6586  1.1393  0.6581
  705MOL0     H97287  11.458   1.786   5.609 -2.1237  2.2747 -2.8118
  705MOL0     H97288  11.142   1.830   5.470  0.6969  1.3964  0.7131
  705MOL0     H97289  11.106   1.840   5.640 -0.2161 -2.2686  1.8065
  705MOL0     H97290  11.247   1.917   5.572 -1.1749  1.1905 -2.7806
  706MOL0     O97291   4.529   2.934   0.164  0.0047  0.3134 -0.7823
  706MOL0     C97292   4.434   2.931   0.088  0.4144 -0.1656  0.3124
  706MOL0     O97293   4.446   2.959  -0.042  0.7575  0.1193 -0.2183
  706MOL0     C97294   4.564   3.016  -0.083 -0.0278  0.2752  0.7145
  706MOL0     C97295   4.608   3.142  -0.032  0.5518  0.3406  0.0992
  706MOL0     C97296   4.735   3.186  -0.069  0.3929  0.2559  0.3433
  706MOL0     C97297   4.815   3.110  -0.156 -0.1957 -0.7453 -0.2697
  706MOL0     O97298   4.929   3.174  -0.182 -0.5110  0.4008 -0.8594
  706MOL0     C97299   5.031   3.094  -0.239 -0.5169 -0.5228  0.2115
  706MOL0     C97300   5.159   3.170  -0.255  0.0325 -0.5835  0.3652
  706MOL0     C97301   5.258   3.097  -0.352 -0.1093  0.5663 -0.4011
  706MOL0     C97302   5.395   3.136  -0.312 -0.1556 -0.0767 -0.3522
  706MOL0     C97303   5.451   3.080  -0.183  0.1132  0.1301 -0.5394
  706MOL0     C97304   5.576   3.155  -0.140 -0.2257 -0.0577  0.3479
  706MOL0     C97305   5.653   3.092  -0.021  0.0723  0.1118  0.4834
  706MOL0     C97306   5.755   3.193   0.045 -0.3644 -0.8946  0.1258
  706MOL0     N97307   5.856   3.236  -0.057 -0.2111 -0.1516  0.5662
  706MOL0     C97308   5.903   3.364  -0.082  0.3727 -0.3994  0.5597
  706MOL0     C97309   6.001   3.357  -0.173 -0.0523 -0.2028 -0.8207
  706MOL0     C97310   6.081   3.472  -0.211 -0.6215  0.0551 -0.1537
  706MOL0     C97311   6.145   3.466  -0.350  0.3699 -0.2251  0.4361
  706MOL0     C97312   6.275   3.373  -0.360 -0.2470  1.0290  0.8650
  706MOL0     C97313   6.325   3.348  -0.504  0.2443 -0.4326 -0.3198
  706MOL0     O97314   6.369   3.475  -0.548  0.1893 -0.0429 -0.0028
  706MOL0     C97315   6.493   3.526  -0.521  0.7459  0.5456 -0.9736
  706MOL0     C97316   6.508   3.653  -0.559  0.3645 -0.0628  1.2839
  706MOL0     C97317   6.625   3.731  -0.532  0.2580  1.0840  0.0517
  706MOL0     C97318   6.624   3.875  -0.590 -0.1680  0.2271  0.2205
  706MOL0     C97319   6.728   3.674  -0.460  0.0396  0.3138 -0.0982
  706MOL0     C97320   6.849   3.744  -0.406  0.7356 -1.0212 -0.1564
  706MOL0     O97321   6.950   3.660  -0.356  0.0282  0.1327 -0.1611
  706MOL0     C97322   7.067   3.716  -0.322 -0.0092 -0.0202  0.0744
  706MOL0     C97323   7.082   3.801  -0.220  0.4036  0.0839 -0.2729
  706MOL0     C97324   7.200   3.853  -0.182 -0.8820 -0.6586 -0.9460
  706MOL0     C97325   7.323   3.803  -0.235 -0.1982  0.0827 -0.3527
  706MOL0     O97326   7.456   3.836  -0.199  0.1714 -0.6533 -0.6559
  706MOL0     C97327   7.472   3.937  -0.101 -0.6612 -0.8063  0.0391
  706MOL0     C97328   7.625   3.935  -0.061  0.0244 -0.6535 -0.2323
  706MOL0     C97329   7.726   3.962  -0.166  0.4052 -0.3335  0.5356
  706MOL0     C97330   7.877   3.993  -0.127 -0.4399 -0.2640  0.0793
  706MOL0     C97331   7.955   3.854  -0.095 -0.5120 -0.5396 -0.4489
  706MOL0     C97332   7.990   3.777  -0.223 -0.1809 -0.1214  0.0000
  706MOL0     C97333   8.049   3.645  -0.200  0.1221  0.5227 -0.9972
  706MOL0     C97334   8.050   3.544  -0.324  0.4191 -0.3953  0.2082
  706MOL0    Cl97335   7.886   3.468  -0.344  0.1059 -0.2523 -0.2614
  706MOL0     C97336   7.310   3.698  -0.337  0.2364 -0.2053 -0.0889
  706MOL0     C97337   7.185   3.660  -0.376  0.1298  0.3299 -0.7803
  706MOL0     O97338   6.844   3.866  -0.386  0.0952 -0.3695  0.4564
  706MOL0     C97339   6.711   3.535  -0.417  0.1524 -0.3379 -0.9756
  706MOL0     C97340   6.599   3.465  -0.451 -0.1680 -0.1394 -0.2410
  706MOL0     N97341   6.018   3.221  -0.200 -0.3886 -0.8513  0.1018
  706MOL0     N97342   5.931   3.155  -0.137 -0.5047  0.1304  0.4257
  706MOL0     C97343   4.768   2.991  -0.212  0.0316 -0.8643 -0.9342
  706MOL0     C97344   4.638   2.941  -0.174  0.1151 -0.1186  0.5942
  706MOL0     C97345   4.301   2.876   0.135 -0.3428 -1.1540  0.6037
  706MOL0     C97346   4.204   2.864   0.030 -0.5788 -0.3201  0.0567
  706MOL0     C97347   4.079   2.824   0.064 -0.2421  0.4100  0.5749
  706MOL0     C97348   4.035   2.803   0.192  0.3294  0.0118  0.1333
  706MOL0     O97349   3.903   2.767   0.214  0.6793 -0.1473  0.2702
  706MOL0     C97350   3.876   2.685   0.330  0.6996  0.0696  0.6417
  706MOL0     C97351   3.809   2.792   0.411  0.2803  0.4338  0.1092
  706MOL0     C97352   3.757   2.735   0.545 -0.1239 -0.1821  0.3453
  706MOL0     C97353   3.640   2.644   0.527 -0.3867  0.4538 -0.1578
  706MOL0     C97354   3.568   2.638   0.653  0.0358 -0.0203  0.2532
  706MOL0     C97355   3.498   2.634   0.751 -0.0047  0.2110  0.8182
  706MOL0     C97356   4.125   2.839   0.299  0.0279 -1.0990  0.4042
  706MOL0     C97357   4.261   2.868   0.274  0.5468  0.2385 -0.4730
  706MOL0     C97358   4.357   2.889   0.394  1.0619  0.4611 -0.4353
  706MOL0     H97359   4.559   3.203   0.044 -0.7286 -3.9610  3.1207
  706MOL0     H97360   4.772   3.274  -0.017  0.4348  0.1876  0.4297
  706MOL0     H97361   4.994   3.080  -0.341  1.2973  0.2890 -0.6061
  706MOL0     H97362   5.049   2.999  -0.190  0.5502 -0.7567 -0.5950
  706MOL0     H97363   5.128   3.264  -0.299 -1.9004 -1.1552  0.4173
  706MOL0     H97364   5.199   3.194  -0.156 -2.4150 -1.2748  1.5901
  706MOL0     H97365   5.256   2.990  -0.333 -2.5968  0.6707  0.2903
  706MOL0     H97366   5.237   3.126  -0.455 -0.9383  1.9480  0.1175
  706MOL0     H97367   5.456   3.109  -0.399  1.7065  3.3312 -0.2661
  706MOL0     H97368   5.408   3.245  -0.307 -2.4738  0.2668 -0.7998
  706MOL0     H97369   5.475   2.976  -0.209  0.8233  0.5746 -1.7244
  706MOL0     H97370   5.374   3.083  -0.105 -0.0723  0.6492 -0.7373
  706MOL0     H97371   5.643   3.159  -0.226 -0.9733 -1.4517 -0.3285
  706MOL0     H97372   5.558   3.259  -0.112 -2.0106 -0.1104 -0.5109
  706MOL0     H97373   5.707   3.005  -0.059 -0.0367  0.2699 -0.0429
  706MOL0     H97374   5.594   3.053   0.063 -0.7975 -2.0480 -1.0450
  706MOL0     H97375   5.702   3.282   0.079  1.4777  0.2172  0.2018
  706MOL0     H97376   5.821   3.141   0.115  1.4157 -0.7463 -1.3501
  706MOL0     H97377   5.872   3.456  -0.033  1.2910 -1.1061  2.5624
  706MOL0     H97378   6.166   3.489  -0.143  0.3101  0.2195 -1.3312
  706MOL0     H97379   6.016   3.559  -0.196 -1.8001 -0.5858 -1.3986
  706MOL0     H97380   6.061   3.451  -0.418 -0.9627  3.6539  0.9602
  706MOL0     H97381   6.175   3.568  -0.375 -2.4307  0.5482 -0.0697
  706MOL0     H97382   6.353   3.407  -0.291 -2.4447  0.4689  3.8754
  706MOL0     H97383   6.250   3.275  -0.318 -1.2287  0.8377 -0.0999
  706MOL0     H97384   6.401   3.269  -0.497  1.2785  0.6424  1.7055
  706MOL0     H97385   6.246   3.309  -0.569  0.1383  0.3956 -0.7034
  706MOL0     H97386   6.427   3.705  -0.609  2.4763  1.2957 -0.9507
  706MOL0     H97387   6.669   3.943  -0.516  1.7334 -2.7347  1.9811
  706MOL0     H97388   6.518   3.903  -0.599 -0.5651 -0.7680  1.4700
  706MOL0     H97389   6.666   3.868  -0.690 -1.4084 -1.7353 -0.2108
  706MOL0     H97390   7.000   3.846  -0.165  1.2962  0.4111  0.8174
  706MOL0     H97391   7.186   3.925  -0.102 -2.2533 -1.2883 -0.5879
  706MOL0     H97392   7.454   4.037  -0.141  1.2878  0.0562  1.2010
  706MOL0     H97393   7.409   3.917  -0.014  0.3084 -0.1849  0.9064
  706MOL0     H97394   7.647   4.010   0.016  2.3851 -0.0722 -1.3966
  706MOL0     H97395   7.637   3.840  -0.008 -1.5965 -0.2106  1.0164
  706MOL0     H97396   7.690   4.048  -0.223 -0.6798  0.3707  2.2084
  706MOL0     H97397   7.724   3.875  -0.232 -1.0280 -1.1866  1.6299
  706MOL0     H97398   7.880   4.064  -0.044 -1.9980  1.1145 -0.9763
  706MOL0     H97399   7.929   4.043  -0.208  1.3502 -2.2133 -0.0611
  706MOL0     H97400   8.050   3.883  -0.049 -0.2975 -0.8850 -0.6658
  706MOL0     H97401   7.903   3.787  -0.026 -0.8385 -1.6827 -1.7465
  706MOL0     H97402   8.061   3.835  -0.283  0.0971  0.0060  0.4490
  706MOL0     H97403   7.895   3.765  -0.277 -1.6086  6.1670  0.3155
  706MOL0     H97404   7.993   3.598  -0.119  0.6519  2.2695  0.4587
  706MOL0     H97405   8.155   3.652  -0.172  0.1361 -0.9882 -0.6107
  706MOL0     H97406   8.125   3.466  -0.310 -0.9577 -2.4539 -2.8055
  706MOL0     H97407   8.069   3.603  -0.414  0.8421  1.2210  1.2958
  706MOL0     H97408   7.396   3.657  -0.388  1.1808  0.8416  0.6142
  706MOL0     H97409   7.177   3.595  -0.464  0.2426  0.4622 -0.8873
  706MOL0     H97410   6.790   3.496  -0.354 -0.7143 -2.4334 -1.0974
  706MOL0     H97411   6.588   3.365  -0.409 -0.5852  0.6029  1.4830
  706MOL0     H97412   4.831   2.943  -0.286  0.7985  1.1675 -1.6616
  706MOL0     H97413   4.609   2.850  -0.226 -0.0910  1.0049 -1.3345
  706MOL0     H97414   4.227   2.888  -0.074  1.0299  0.8680  0.6504
  706MOL0     H97415   4.002   2.812  -0.011  0.2592  1.6884 -0.1740
  706MOL0     H97416   3.809   2.605   0.299  0.2172  0.3042  1.0734
  706MOL0     H97417   3.965   2.647   0.381  1.8038  2.6638  0.8004
  706MOL0     H97418   3.726   2.838   0.357  0.3684  0.3266 -0.1165
  706MOL0     H97419   3.870   2.881   0.427 -1.2144  2.4915 -4.0785
  706MOL0     H97420   3.836   2.676   0.593  0.1793 -2.8590 -2.9958
  706MOL0     H97421   3.736   2.823   0.606  0.3933 -0.9010  1.5867
  706MOL0     H97422   3.676   2.545   0.500  2.7069  0.8156  2.1742
  706MOL0     H97423   3.576   2.680   0.445  0.9462 -0.9262 -1.8685
  706MOL0     H97424   3.443   2.611   0.841 -0.0426 -0.5324  0.6113
  706MOL0     H97425   4.093   2.835   0.402 -2.9387  1.4794 -0.2473
  706MOL0     H97426   4.313   2.845   0.484 -0.6363  1.2137 -0.8714
  706MOL0     H97427   4.456   2.844   0.380  0.8532 -0.0553 -0.2753
  706MOL0     H97428   4.368   2.998   0.394 -0.4768  0.6339 -0.5411
  707MOL0     O97429   0.366   8.643   5.240  0.0029 -0.4243 -0.2980
  707MOL0     C97430   0.311   8.629   5.131  0.1950  0.8164 -0.0350
  707MOL0     O97431   0.369   8.628   5.016 -0.2787  0.3015  0.6913
  707MOL0     C97432   0.506   8.643   5.017 -0.4534  0.2658 -0.1919
  707MOL0     C97433   0.601   8.536   5.050 -1.0384 -0.1627 -0.1218
  707MOL0     C97434   0.738   8.561   5.055 -0.5569  0.0369 -0.3627
  707MOL0     C97435   0.796   8.689   5.013 -0.1713  0.7262 -0.4300
  707MOL0     O97436   0.939   8.691   5.004  0.2936  0.0765 -0.3250
  707MOL0     C97437   1.008   8.811   4.965  0.1748 -0.2407 -0.4374
  707MOL0     C97438   1.015   8.911   5.080  0.7753  0.5092  0.7814
  707MOL0     C97439   1.145   8.882   5.153 -0.6552  0.3295  0.3478
  707MOL0     C97440   1.172   8.999   5.248 -0.3082 -0.1163 -0.2503
  707MOL0     C97441   1.313   9.017   5.287  0.5618  0.0180 -0.3091
  707MOL0     C97442   1.354   8.905   5.389  0.2260 -0.0684  0.9564
  707MOL0     C97443   1.507   8.916   5.401  0.1282 -1.1565  0.0231
  707MOL0     C97444   1.575   8.794   5.335 -0.3515 -0.2964 -0.1388
  707MOL0     N97445   1.712   8.780   5.377  0.3643  0.5941  0.0360
  707MOL0     C97446   1.816   8.859   5.338  1.1100  1.0936  0.6746
  707MOL0     C97447   1.916   8.825   5.418 -0.8424  0.2542 -0.4551
  707MOL0     C97448   2.055   8.897   5.439 -0.7695  0.8559 -0.8267
  707MOL0     C97449   2.168   8.811   5.385 -0.0946 -0.0864 -0.2582
  707MOL0     C97450   2.289   8.899   5.361 -0.4035  0.0665 -0.8553
  707MOL0     C97451   2.416   8.823   5.328 -0.8700  0.8244 -0.0611
  707MOL0     O97452   2.399   8.777   5.194 -0.7604  0.2313  0.1741
  707MOL0     C97453   2.518   8.761   5.114 -0.0311  0.1633 -0.2085
  707MOL0     C97454   2.645   8.728   5.159 -0.3889  0.0600  0.1998
  707MOL0     C97455   2.763   8.721   5.080  0.0512  1.0078 -0.3480
  707MOL0     C97456   2.889   8.691   5.153 -0.2497  0.1988 -0.1718
  707MOL0     C97457   2.751   8.742   4.943 -0.4633  0.8058 -0.1386
  707MOL0     C97458   2.872   8.755   4.852 -0.2378 -0.3989  0.0433
  707MOL0     O97459   2.999   8.747   4.899  0.2562 -0.3007  0.0164
  707MOL0     C97460   3.113   8.769   4.832 -0.1437 -0.2473 -0.3110
  707MOL0     C97461   3.135   8.790   4.692  0.3621  0.5650 -0.3619
  707MOL0     C97462   3.260   8.810   4.642 -1.0844  0.6923  0.7861
  707MOL0     C97463   3.375   8.811   4.723 -1.3664  0.6207  0.0056
  707MOL0     O97464   3.496   8.828   4.664 -0.1229 -0.7670  0.1444
  707MOL0     C97465   3.592   8.902   4.744 -0.0871  0.3659  0.5819
  707MOL0     C97466   3.721   8.927   4.656  0.2969 -0.0585 -0.5628
  707MOL0     C97467   3.788   8.796   4.612 -0.7145 -0.2573  0.3433
  707MOL0     C97468   3.940   8.828   4.589 -0.0227 -0.3149 -0.7184
  707MOL0     C97469   4.021   8.709   4.545  0.7884 -0.0988  0.4247
  707MOL0     C97470   4.011   8.580   4.634  0.2014 -0.3171  0.5025
  707MOL0     C97471   4.029   8.605   4.782  1.0963  0.2903  0.2288
  707MOL0     C97472   4.000   8.467   4.853  0.2149  0.7089 -0.1777
  707MOL0    Cl97473   4.144   8.367   4.819 -0.6810  0.0114  0.1106
  707MOL0     C97474   3.360   8.776   4.858 -0.0236 -0.7896 -0.2715
  707MOL0     C97475   3.227   8.760   4.910 -0.1978  0.5243 -0.0905
  707MOL0     O97476   2.848   8.793   4.745 -0.8873  0.4534  0.6700
  707MOL0     C97477   2.618   8.768   4.890  0.2587 -0.0185 -0.3799
  707MOL0     C97478   2.506   8.778   4.979  0.1076 -0.4325 -0.4700
  707MOL0     N97479   1.879   8.725   5.506 -0.0734  0.6098  0.6674
  707MOL0     N97480   1.757   8.695   5.474  0.3570 -0.3601 -0.7141
  707MOL0     C97481   0.698   8.783   4.966 -0.4563  0.3034  0.7779
  707MOL0     C97482   0.556   8.762   4.961  0.5492  0.8871 -0.0116
  707MOL0     C97483   0.164   8.633   5.128  1.1846  0.0538 -0.5990
  707MOL0     C97484   0.096   8.709   5.021  0.4264  0.2270  0.4277
  707MOL0     C97485  -0.040   8.722   5.017  0.5656  0.3107  0.1951
  707MOL0     C97486  -0.121   8.666   5.124 -0.6359 -0.4919  0.3942
  707MOL0     O97487  -0.249   8.697   5.130  0.6326  0.0877 -0.1848
  707MOL0     C97488  -0.271   8.837   5.149 -0.2234 -0.0146 -0.0524
  707MOL0     C97489  -0.369   8.861   5.266 -0.0545 -0.6011  0.1996
  707MOL0     C97490  -0.423   8.998   5.279 -1.2721  0.2931  0.5400
  707MOL0     C97491  -0.569   9.000   5.338 -1.2897 -0.1033  0.2925
  707MOL0     C97492  -0.614   9.129   5.378 -0.4343 -0.9051  0.0562
  707MOL0     C97493  -0.630   9.243   5.395 -0.1886 -0.3855 -0.7732
  707MOL0     C97494  -0.062   8.586   5.220  0.2610 -0.4565  0.1843
  707MOL0     C97495   0.078   8.575   5.228 -1.0057  0.4957  1.0481
  707MOL0     C97496   0.133   8.507   5.353 -0.1941  0.1228 -0.2281
  707MOL0     H97497   0.563   8.442   5.088  1.4934 -1.3633 -0.3547
  707MOL0     H97498   0.809   8.487   5.091  3.1009  2.4162 -2.0065
  707MOL0     H97499   0.960   8.849   4.874 -0.3647  0.9060  0.2912
  707MOL0     H97500   1.107   8.784   4.930  0.0339  1.0565 -1.9851
  707MOL0     H97501   1.016   9.014   5.044 -2.2414  0.8939  1.5055
  707MOL0     H97502   0.924   8.896   5.139 -2.0273 -0.1109 -3.2424
  707MOL0     H97503   1.160   8.784   5.201 -2.1575  0.1288  0.4856
  707MOL0     H97504   1.226   8.875   5.080  0.5957  2.4862  1.4449
  707MOL0     H97505   1.145   9.097   5.207  1.4187  0.8069  0.6743
  707MOL0     H97506   1.092   8.985   5.322 -2.9595 -1.0513 -3.0893
  707MOL0     H97507   1.325   9.116   5.332 -1.1575  0.1329 -0.0403
  707MOL0     H97508   1.383   9.021   5.204  0.0246  0.1389 -0.7649
  707MOL0     H97509   1.314   8.924   5.489  1.5630  1.0350  1.3191
  707MOL0     H97510   1.325   8.804   5.358  2.6248 -0.9496  1.3302
  707MOL0     H97511   1.534   8.917   5.507  0.5738 -0.7623 -0.0873
  707MOL0     H97512   1.552   9.003   5.352 -0.3336 -0.8823  0.0845
  707MOL0     H97513   1.528   8.701   5.368  2.9978 -2.6555 -1.5016
  707MOL0     H97514   1.557   8.793   5.227  0.2432 -2.4077 -0.2579
  707MOL0     H97515   1.822   8.934   5.259 -2.1196  1.1780  0.3474
  707MOL0     H97516   2.075   8.916   5.545 -0.3517  2.2974 -1.1304
  707MOL0     H97517   2.068   8.996   5.393  1.8611  0.9534 -0.0248
  707MOL0     H97518   2.188   8.736   5.462  2.4678 -0.2260 -0.9397
  707MOL0     H97519   2.141   8.767   5.288  1.3805 -0.0099 -0.7387
  707MOL0     H97520   2.263   8.961   5.276 -4.1208  0.2634  0.2620
  707MOL0     H97521   2.302   8.968   5.445  0.1988 -0.8687 -0.1497
  707MOL0     H97522   2.502   8.891   5.332  1.5027 -1.9803  0.0091
  707MOL0     H97523   2.450   8.740   5.391  1.5280 -0.7611 -3.1546
  707MOL0     H97524   2.652   8.717   5.267 -0.3098  0.3247  0.2214
  707MOL0     H97525   2.934   8.787   5.180 -0.6158  0.3972 -0.2606
  707MOL0     H97526   2.962   8.627   5.103  1.9712  1.2693  1.5397
  707MOL0     H97527   2.861   8.635   5.242  3.4474 -1.7659 -0.0426
  707MOL0     H97528   3.061   8.771   4.615  1.7801 -2.4008 -1.1454
  707MOL0     H97529   3.267   8.812   4.533  0.5158 -2.6153  0.6903
  707MOL0     H97530   3.546   9.000   4.756  0.6779  0.9602 -1.1017
  707MOL0     H97531   3.625   8.877   4.845  1.3743  0.2699  0.1112
  707MOL0     H97532   3.689   8.984   4.568 -0.8423 -1.3116 -0.9945
  707MOL0     H97533   3.781   8.990   4.722  0.2792 -0.4891 -0.1319
  707MOL0     H97534   3.747   8.761   4.517  0.2655 -0.6859  0.0582
  707MOL0     H97535   3.772   8.723   4.692  1.0059 -1.4884 -0.3717
  707MOL0     H97536   3.985   8.863   4.682 -1.1500  0.3212 -0.3941
  707MOL0     H97537   3.951   8.908   4.515 -0.6282  1.0171  0.5968
  707MOL0     H97538   4.002   8.673   4.443 -0.5289  0.3980  0.4731
  707MOL0     H97539   4.127   8.732   4.532  0.5892  1.6789  1.6893
  707MOL0     H97540   4.060   8.492   4.592  0.3712 -0.0490  0.1351
  707MOL0     H97541   3.906   8.552   4.616  1.0103 -1.8138 -2.5973
  707MOL0     H97542   3.958   8.681   4.815 -0.4696 -0.8228 -0.4106
  707MOL0     H97543   4.129   8.638   4.810  0.4771  1.2638  1.3671
  707MOL0     H97544   3.908   8.420   4.815  1.4646 -2.0925  0.0411
  707MOL0     H97545   3.989   8.482   4.961  2.1903 -0.9376  0.2934
  707MOL0     H97546   3.446   8.772   4.923  0.0325 -2.3199 -0.4041
  707MOL0     H97547   3.211   8.735   5.014  0.5936  0.9603  0.1417
  707MOL0     H97548   2.607   8.783   4.783 -3.0450 -1.9774 -0.4610
  707MOL0     H97549   2.409   8.806   4.939 -0.7400  0.1368  1.8659
  707MOL0     H97550   0.742   8.875   4.931 -1.0464  0.9673  1.7092
  707MOL0     H97551   0.495   8.844   4.924 -1.9216 -0.4880  0.7743
  707MOL0     H97552   0.157   8.758   4.946 -0.9684  1.7420  0.2363
  707MOL0     H97553  -0.079   8.781   4.934  1.1538 -0.6478 -0.7910
  707MOL0     H97554  -0.186   8.901   5.177  0.7696 -0.9869 -0.7956
  707MOL0     H97555  -0.319   8.879   5.060 -0.3373  2.2506  0.9871
  707MOL0     H97556  -0.335   8.830   5.365  0.8558  1.2496  0.5094
  707MOL0     H97557  -0.452   8.794   5.242 -0.8396  0.2483  0.4892
  707MOL0     H97558  -0.359   9.062   5.341 -1.1397  0.9276 -0.2406
  707MOL0     H97559  -0.430   9.045   5.180  1.5087 -1.0498 -0.3845
  707MOL0     H97560  -0.576   8.920   5.413  2.4950 -2.6662 -1.7905
  707MOL0     H97561  -0.641   8.973   5.260  0.1083 -0.3643 -0.9496
  707MOL0     H97562  -0.639   9.346   5.420 -1.3335 -0.3894 -1.1246
  707MOL0     H97563  -0.127   8.547   5.298 -1.1634 -0.0949 -0.7603
  707MOL0     H97564   0.049   8.476   5.416 -0.9170 -1.0941 -1.7212
  707MOL0     H97565   0.186   8.416   5.326 -0.2007  0.3277 -0.9441
  707MOL0     H97566   0.201   8.572   5.409 -1.3754 -0.3477  1.8495
  708MOL0     O97567   5.225   1.571   9.547  0.1911 -0.1554 -0.0480
  708MOL0     C97568   5.179   1.683   9.516  0.2113 -0.0411 -0.1914
  708MOL0     O97569   5.247   1.800   9.542 -0.2136  0.2462  0.0051
  708MOL0     C97570   5.356   1.805   9.617 -0.5757  0.4084  0.0184
  708MOL0     C97571   5.472   1.736   9.570 -0.5697  0.1891 -0.3519
  708MOL0     C97572   5.576   1.714   9.660 -0.4473 -0.7288 -0.4238
  708MOL0     C97573   5.572   1.760   9.791 -0.8008  0.5108  0.2375
  708MOL0     O97574   5.674   1.748   9.875 -0.5150 -0.3921 -0.1367
  708MOL0     C97575   5.800   1.704   9.831 -0.6131  0.1655 -0.0900
  708MOL0     C97576   5.881   1.684   9.965  0.3127  0.4326  0.1617
  708MOL0     C97577   6.020   1.637   9.942  0.0738 -0.0674 -0.3834
  708MOL0     C97578   6.089   1.639  10.079 -0.1698  0.2913  0.6959
  708MOL0     C97579   6.248   1.618  10.050  0.5701 -0.5519  0.4007
  708MOL0     C97580   6.312   1.748   9.991 -0.1128  0.3215 -0.2183
  708MOL0     C97581   6.463   1.758  10.006 -0.3452  0.6824 -0.2974
  708MOL0     C97582   6.507   1.730  10.149  0.4254 -0.0320  1.0613
  708MOL0     N97583   6.621   1.811  10.175  0.1577  0.1098 -0.0097
  708MOL0     C97584   6.739   1.792  10.107 -0.1448  0.5784  0.5132
  708MOL0     C97585   6.834   1.868  10.165 -0.3252 -1.3802 -0.4884
  708MOL0     C97586   6.980   1.868  10.132 -0.5204 -0.4722  0.5684
  708MOL0     C97587   7.035   1.730  10.080  0.1155  0.0052 -0.2712
  708MOL0     C97588   7.165   1.743  10.008 -0.8254  0.6481  0.6924
  708MOL0     C97589   7.237   1.606   9.984  0.4281  0.2820  0.6329
  708MOL0     O97590   7.364   1.616   9.918  0.7109  0.2706 -0.1256
  708MOL0     C97591   7.475   1.620   9.994 -0.2129 -0.7096 -0.4867
  708MOL0     C97592   7.588   1.595   9.913  0.2749  0.6336 -0.5511
  708MOL0     C97593   7.716   1.589   9.973 -0.9619 -0.0220  0.2846
  708MOL0     C97594   7.829   1.556   9.877  0.6427  0.8921  0.5555
  708MOL0     C97595   7.737   1.596  10.107 -0.3943  0.1655 -0.1112
  708MOL0     C97596   7.873   1.587  10.170 -0.3742 -0.6337 -0.0522
  708MOL0     O97597   7.981   1.593  10.089  0.0955  0.0852  0.6584
  708MOL0     C97598   8.110   1.595  10.138  0.2849 -0.1966 -0.0081
  708MOL0     C97599   8.154   1.512  10.244  0.3625 -0.0874 -0.3793
  708MOL0     C97600   8.293   1.505  10.282 -0.8471  1.0975  0.3068
  708MOL0     C97601   8.380   1.597  10.223 -0.7238  0.6093  0.2425
  708MOL0     O97602   8.506   1.586  10.273  0.0470 -0.1783  0.0068
  708MOL0     C97603   8.603   1.631  10.181 -0.0807 -0.9685 -1.2039
  708MOL0     C97604   8.743   1.593  10.231 -0.0819 -1.2110  0.2204
  708MOL0     C97605   8.768   1.445  10.241  1.1871 -0.5028  0.1527
  708MOL0     C97606   8.801   1.391  10.103  0.3716  0.3326 -0.7162
  708MOL0     C97607   8.823   1.245  10.097 -0.4664 -0.3330  0.0666
  708MOL0     C97608   8.946   1.190  10.160  0.7314 -0.1117 -0.1749
  708MOL0     C97609   9.071   1.228  10.085  0.5779 -0.0841 -0.0640
  708MOL0     C97610   9.194   1.156  10.158 -0.2630 -0.3211 -0.3966
  708MOL0    Cl97611   9.222   0.981  10.129  0.0273 -0.0237  0.0484
  708MOL0     C97612   8.334   1.682  10.130  0.5547  0.0952  0.5237
  708MOL0     C97613   8.201   1.680  10.080 -0.4542 -0.6097 -0.8228
  708MOL0     O97614   7.878   1.584  10.290  0.1009 -0.1973  0.2258
  708MOL0     C97615   7.624   1.624  10.185 -0.7524 -0.6338 -0.3368
  708MOL0     C97616   7.492   1.633  10.133  0.5356 -0.1489  0.1232
  708MOL0     N97617   6.768   1.941  10.270  0.2458  0.4169 -0.3162
  708MOL0     N97618   6.638   1.909  10.268 -0.0133  1.0837 -0.3570
  708MOL0     C97619   5.465   1.831   9.827 -0.3825  0.4178 -0.5134
  708MOL0     C97620   5.352   1.841   9.750  0.5096  0.4896 -0.1194
  708MOL0     C97621   5.058   1.688   9.429 -0.3214 -0.4714 -0.0854
  708MOL0     C97622   5.017   1.582   9.354 -0.5653  0.3710  0.6603
  708MOL0     C97623   4.922   1.588   9.260 -1.1038  0.5177  0.0440
  708MOL0     C97624   4.851   1.709   9.241 -0.2827  0.8154 -0.3711
  708MOL0     O97625   4.769   1.722   9.134 -0.4016 -0.6990 -0.7262
  708MOL0     C97626   4.631   1.706   9.176 -0.3285  0.5015  0.2697
  708MOL0     C97627   4.606   1.567   9.236  0.0104  0.4018 -1.0105
  708MOL0     C97628   4.630   1.460   9.131 -0.2838 -0.2965 -1.1742
  708MOL0     C97629   4.614   1.319   9.186 -0.9076  0.5399  0.1272
  708MOL0     C97630   4.567   1.236   9.074 -0.0681  0.2003 -0.2528
  708MOL0     C97631   4.535   1.182   8.971 -0.9736 -0.1806 -0.2611
  708MOL0     C97632   4.871   1.815   9.325  0.2466 -0.1362  0.5226
  708MOL0     C97633   4.970   1.803   9.417 -0.0319 -0.0537 -0.1039
  708MOL0     C97634   5.006   1.929   9.491  1.0320 -0.0453 -0.3169
  708MOL0     H97635   5.473   1.683   9.475 -2.1087 -0.7889  0.1239
  708MOL0     H97636   5.653   1.645   9.627  0.8421  1.6028 -2.6150
  708MOL0     H97637   5.849   1.774   9.763  0.5948  1.4249  1.9509
  708MOL0     H97638   5.793   1.604   9.787  0.4692 -0.4235  1.0221
  708MOL0     H97639   5.875   1.781  10.017 -0.7032  1.1133 -1.1637
  708MOL0     H97640   5.830   1.608  10.025 -0.6980  0.4620 -0.6333
  708MOL0     H97641   6.029   1.537   9.898  0.0840 -1.2316  2.0796
  708MOL0     H97642   6.061   1.710   9.873 -2.6877  0.5498 -1.5371
  708MOL0     H97643   6.060   1.722  10.144 -1.1283 -0.7464  1.6226
  708MOL0     H97644   6.052   1.553  10.135 -2.8207  0.1953 -1.0198
  708MOL0     H97645   6.275   1.533   9.985  1.9451  0.6202 -0.6472
  708MOL0     H97646   6.294   1.581  10.142 -0.3051 -3.7006 -0.3114
  708MOL0     H97647   6.288   1.750   9.884 -0.7347 -2.8144 -0.2441
  708MOL0     H97648   6.270   1.836  10.040  2.8589  1.4796  0.5145
  708MOL0     H97649   6.499   1.857   9.976 -1.5421  0.9866 -0.7990
  708MOL0     H97650   6.516   1.684   9.946  0.9726  1.3913 -0.0512
  708MOL0     H97651   6.424   1.772  10.207  0.5128 -0.8538  1.7979
  708MOL0     H97652   6.522   1.623  10.162 -1.3773 -0.3025  1.0730
  708MOL0     H97653   6.758   1.727  10.022  0.1893  0.9791  0.2824
  708MOL0     H97654   7.032   1.899  10.223  1.4972 -2.7177  0.2979
  708MOL0     H97655   6.996   1.932  10.045  0.6113 -2.4888 -0.8067
  708MOL0     H97656   7.039   1.658  10.162  3.0486  0.7854  0.4013
  708MOL0     H97657   6.967   1.687  10.006  2.1340 -2.1595 -1.0062
  708MOL0     H97658   7.144   1.797   9.915 -0.2151  0.9180  0.7100
  708MOL0     H97659   7.238   1.809  10.055 -0.3693  1.4451 -1.0558
  708MOL0     H97660   7.241   1.543  10.073  1.1904  1.9638  1.8471
  708MOL0     H97661   7.166   1.553   9.919 -0.4054 -0.8208  2.3803
  708MOL0     H97662   7.569   1.593   9.806  0.5607  3.0124 -0.7045
  708MOL0     H97663   7.889   1.644   9.853 -0.5433  1.2831 -1.2008
  708MOL0     H97664   7.797   1.533   9.775 -0.0850  3.1263  0.2423
  708MOL0     H97665   7.900   1.475   9.896  1.7009  1.3948 -1.0213
  708MOL0     H97666   8.085   1.448  10.299 -0.0321  1.3828  0.9295
  708MOL0     H97667   8.341   1.447  10.360  1.7365  0.9161 -1.2791
  708MOL0     H97668   8.590   1.595  10.079  0.6103  0.3871 -1.8045
  708MOL0     H97669   8.604   1.741  10.180  0.5541 -0.9608 -0.3943
  708MOL0     H97670   8.828   1.637  10.177  0.3542 -1.6302  0.5543
  708MOL0     H97671   8.747   1.639  10.329 -0.1115 -0.5821 -0.0690
  708MOL0     H97672   8.679   1.390  10.275  1.3803 -2.9299 -2.8022
  708MOL0     H97673   8.853   1.430  10.308  2.6965  1.3119 -1.2594
  708MOL0     H97674   8.893   1.441  10.070  0.5031  3.4098  3.5132
  708MOL0     H97675   8.723   1.429  10.037 -0.3253 -0.4844 -0.3768
  708MOL0     H97676   8.744   1.190  10.150 -2.2726  1.2163 -0.8663
  708MOL0     H97677   8.821   1.207   9.995 -2.8508  0.1217 -0.1210
  708MOL0     H97678   8.928   1.083  10.144 -3.9339  0.6483 -1.6601
  708MOL0     H97679   8.955   1.221  10.264 -0.2040 -0.9768  0.1836
  708MOL0     H97680   9.085   1.336  10.079  1.0335 -0.2401 -2.4834
  708MOL0     H97681   9.068   1.186   9.984 -2.6325 -0.8899  0.2651
  708MOL0     H97682   9.187   1.172  10.266  4.1975  2.6502 -0.3072
  708MOL0     H97683   9.283   1.213  10.132 -1.7092  2.3971  0.2112
  708MOL0     H97684   8.399   1.757  10.088  0.4892  0.3748  0.9152
  708MOL0     H97685   8.162   1.753  10.009 -2.3425 -0.3018  0.4684
  708MOL0     H97686   7.633   1.613  10.292  1.6021 -2.4490 -0.6187
  708MOL0     H97687   7.413   1.656  10.203  0.0907  0.5679 -0.5862
  708MOL0     H97688   5.463   1.863   9.930 -0.6131  1.4240 -0.8229
  708MOL0     H97689   5.265   1.874   9.805  0.9651 -1.4711  1.9325
  708MOL0     H97690   5.063   1.486   9.374 -1.9068  0.1999  3.3802
  708MOL0     H97691   4.908   1.494   9.208  0.7839 -0.8150  1.8081
  708MOL0     H97692   4.605   1.790   9.241 -0.9228  0.5894 -0.0771
  708MOL0     H97693   4.571   1.714   9.085 -0.8799  1.2715  0.6941
  708MOL0     H97694   4.501   1.559   9.267 -0.7807  1.2749 -3.2698
  708MOL0     H97695   4.664   1.548   9.326 -0.6459 -0.0179 -0.6663
  708MOL0     H97696   4.561   1.486   9.050 -0.5380 -0.8871 -1.1471
  708MOL0     H97697   4.729   1.467   9.083 -1.1391 -0.3675 -3.0450
  708MOL0     H97698   4.554   1.297   9.275  0.4266 -0.5892  0.7890
  708MOL0     H97699   4.716   1.295   9.215 -0.6242  1.6340  0.0862
  708MOL0     H97700   4.520   1.135   8.876 -0.9154  3.3322 -2.1346
  708MOL0     H97701   4.821   1.910   9.309  0.4100 -0.2652 -0.8849
  708MOL0     H97702   5.098   1.970   9.449 -0.3669  1.2389 -2.3160
  708MOL0     H97703   4.924   2.001   9.481 -1.6399 -2.2082  3.4648
  708MOL0     H97704   5.014   1.907   9.598  0.6913  0.0526 -0.2699
  709MOL0     O97705   8.490   9.071   8.056 -0.3564  0.1781 -0.2991
  709MOL0     C97706   8.532   9.051   7.940  0.6194 -0.3314  0.7392
  709MOL0     O97707   8.661   9.071   7.903 -0.3740  0.1625  0.2480
  709MOL0     C97708   8.757   9.133   7.982 -0.0219  0.2369  0.0241
  709MOL0     C97709   8.891   9.110   7.936  0.1828  1.6823 -0.1774
  709MOL0     C97710   9.005   9.154   8.013  0.1483  0.0562  0.6858
  709MOL0     C97711   8.983   9.226   8.129  0.0560 -0.1671  0.2534
  709MOL0     O97712   9.098   9.265   8.193  0.4433 -0.0104  0.0724
  709MOL0     C97713   9.087   9.289   8.334  0.0651  0.0628  0.3413
  709MOL0     C97714   9.217   9.265   8.405 -0.5334 -0.4655 -0.2547
  709MOL0     C97715   9.307   9.392   8.391  0.3094 -1.0375 -0.6780
  709MOL0     C97716   9.413   9.408   8.494 -0.1663  0.6546 -0.2932
  709MOL0     C97717   9.485   9.546   8.494  1.0941  0.3267  0.6450
  709MOL0     C97718   9.585   9.564   8.378  0.4742 -0.8472  0.4377
  709MOL0     C97719   9.666   9.695   8.407 -0.3521 -0.1550 -0.5566
  709MOL0     C97720   9.763   9.736   8.298 -0.8731  0.3551 -0.0155
  709MOL0     N97721   9.888   9.647   8.295  0.5225  0.5490 -0.2939
  709MOL0     C97722   9.983   9.635   8.393 -0.5747  1.1230  0.5919
  709MOL0     C97723  10.055   9.524   8.355  0.5510  0.5584  0.5058
  709MOL0     C97724  10.165   9.468   8.445 -0.2150 -0.5263  0.6937
  709MOL0     C97725  10.301   9.535   8.417  0.1936  0.2778  0.5555
  709MOL0     C97726  10.353   9.466   8.291  0.3327 -0.2062 -0.0453
  709MOL0     C97727  10.469   9.556   8.245  0.0862 -0.3471  0.5362
  709MOL0     O97728  10.558   9.470   8.167 -0.2415 -0.3788 -0.1542
  709MOL0     C97729  10.651   9.394   8.231  0.2133 -0.5460 -0.4417
  709MOL0     C97730  10.736   9.323   8.156 -0.0669  0.0383 -0.8843
  709MOL0     C97731  10.849   9.253   8.215 -0.0896 -0.1257 -0.0496
  709MOL0     C97732  10.913   9.162   8.113 -0.5066  0.3612 -0.7433
  709MOL0     C97733  10.875   9.258   8.351  0.1210  0.0506  0.0812
  709MOL0     C97734  11.004   9.197   8.409  0.5537 -1.5006 -0.1296
  709MOL0     O97735  11.110   9.175   8.324 -0.6075 -0.6314  0.1159
  709MOL0     C97736  11.223   9.125   8.379  0.0419 -0.6971  0.7358
  709MOL0     C97737  11.287   9.167   8.492  1.0229 -0.8795  0.6048
  709MOL0     C97738  11.410   9.103   8.527 -0.2071 -0.2935  0.1603
  709MOL0     C97739  11.463   8.998   8.456  0.4791  0.2624 -0.7836
  709MOL0     O97740  11.581   8.932   8.487 -0.2709  0.4111  0.0685
  709MOL0     C97741  11.690   9.007   8.547 -0.8634  0.4421 -0.0434
  709MOL0     C97742  11.821   8.933   8.528 -0.2948  1.0165 -0.0563
  709MOL0     C97743  11.939   9.007   8.582 -0.1482 -0.7294  0.4617
  709MOL0     C97744  12.071   8.934   8.558  0.3884 -0.4218 -0.0548
  709MOL0     C97745  12.188   9.004   8.615  0.5605  0.4477 -0.4321
  709MOL0     C97746  12.316   8.930   8.573 -1.0516 -0.2283  0.3252
  709MOL0     C97747  12.440   9.014   8.597  0.1764 -0.5178 -0.0684
  709MOL0     C97748  12.560   8.966   8.517 -0.2110  0.2972  0.0090
  709MOL0    Cl97749  12.692   9.077   8.547  0.1283  0.2733 -0.2041
  709MOL0     C97750  11.391   8.949   8.361 -0.1418 -0.0608 -0.2976
  709MOL0     C97751  11.270   9.004   8.324  0.1441 -0.5004  0.6402
  709MOL0     O97752  11.004   9.189   8.527  0.0032  0.4914 -0.7139
  709MOL0     C97753  10.791   9.338   8.425  0.0277 -0.5270 -0.3197
  709MOL0     C97754  10.674   9.394   8.371 -0.3882 -1.1130  0.1749
  709MOL0     N97755   9.986   9.455   8.245 -0.6254 -0.2929 -0.3096
  709MOL0     N97756   9.899   9.543   8.208  0.1598  0.0856  0.3511
  709MOL0     C97757   8.854   9.262   8.171  0.2453  0.4731 -0.2932
  709MOL0     C97758   8.746   9.209   8.097  0.0698 -0.0649  1.0868
  709MOL0     C97759   8.428   9.021   7.836  0.2348  0.2776 -0.2550
  709MOL0     C97760   8.298   9.001   7.882  0.7491  0.7734  0.6285
  709MOL0     C97761   8.190   8.988   7.793  0.4128 -0.1422  0.4374
  709MOL0     C97762   8.211   8.991   7.655  0.2733  0.8441 -0.0812
  709MOL0     O97763   8.095   8.973   7.586  0.3310 -1.1033 -0.2560
  709MOL0     C97764   8.110   8.924   7.457 -0.3678  0.8162  0.0270
  709MOL0     C97765   7.985   8.894   7.385  0.3008 -0.2619 -0.5587
  709MOL0     C97766   7.873   9.011   7.427 -0.9931  0.3047  0.6545
  709MOL0     C97767   7.727   8.978   7.395  0.1639 -0.2554 -0.1668
  709MOL0     C97768   7.704   8.952   7.249  0.0027 -0.4860 -1.0310
  709MOL0     C97769   7.693   8.911   7.136 -0.8961  0.1690 -0.0698
  709MOL0     C97770   8.342   8.992   7.607  0.4523 -0.6725 -0.0799
  709MOL0     C97771   8.450   9.012   7.695 -0.2514  0.3676  0.5754
  709MOL0     C97772   8.588   9.031   7.631  0.5410  0.6099 -0.1595
  709MOL0     H97773   8.902   9.054   7.844  1.2951  0.1142  0.8656
  709MOL0     H97774   9.105   9.133   7.978 -0.8422 -0.7211 -1.9013
  709MOL0     H97775   9.011   9.223   8.377 -1.2097 -0.2310 -2.1770
  709MOL0     H97776   9.057   9.390   8.365 -1.2773  0.3832 -1.7861
  709MOL0     H97777   9.191   9.236   8.507 -0.0215 -0.7346 -0.1958
  709MOL0     H97778   9.260   9.177   8.356  0.1880 -0.3665  0.1903
  709MOL0     H97779   9.343   9.416   8.291  1.7328 -2.7135 -0.6089
  709MOL0     H97780   9.244   9.479   8.414  1.7956  0.2687 -1.3540
  709MOL0     H97781   9.376   9.398   8.597  1.3956  2.0076  0.4707
  709MOL0     H97782   9.481   9.323   8.484 -1.7691 -0.7635  0.3458
  709MOL0     H97783   9.542   9.562   8.586  2.0618  1.3063 -0.1006
  709MOL0     H97784   9.405   9.620   8.495  0.1914 -0.6325  0.5876
  709MOL0     H97785   9.642   9.470   8.374  0.3041 -1.1226  2.8198
  709MOL0     H97786   9.539   9.580   8.280  0.4123  5.9241  1.1132
  709MOL0     H97787   9.733   9.674   8.490  0.3827 -1.5367 -1.4520
  709MOL0     H97788   9.601   9.780   8.428  1.5659  0.8206  1.8131
  709MOL0     H97789   9.708   9.732   8.203  1.2748  0.4687 -1.3390
  709MOL0     H97790   9.789   9.841   8.314  0.4064  0.5662 -2.8164
  709MOL0     H97791  10.001   9.687   8.486  0.7649  0.9171  0.4677
  709MOL0     H97792  10.171   9.362   8.419  2.0928  0.1275 -1.8622
  709MOL0     H97793  10.146   9.486   8.552  0.1116  0.3077  0.6218
  709MOL0     H97794  10.299   9.644   8.412  2.1929  0.4685  2.4742
  709MOL0     H97795  10.368   9.513   8.501  1.7737 -0.9513 -0.9714
  709MOL0     H97796  10.390   9.366   8.312 -0.1476 -0.4879 -0.5097
  709MOL0     H97797  10.282   9.464   8.207  2.0846  2.0507 -1.6976
  709MOL0     H97798  10.432   9.630   8.173  1.9434  1.5136  1.3872
  709MOL0     H97799  10.521   9.616   8.320 -1.6917  4.2141 -1.4739
  709MOL0     H97800  10.715   9.318   8.050 -1.7438 -0.4145 -0.5729
  709MOL0     H97801  11.013   9.202   8.094  1.2267 -2.7790  0.8979
  709MOL0     H97802  10.856   9.164   8.021 -0.8132 -3.5646 -0.8069
  709MOL0     H97803  10.927   9.059   8.148 -1.8139  1.3039  3.0363
  709MOL0     H97804  11.249   9.246   8.557  2.6761  0.9485 -0.5394
  709MOL0     H97805  11.456   9.139   8.619 -1.0644 -1.0898  0.9260
  709MOL0     H97806  11.705   9.106   8.503  0.0990  1.4406  2.3181
  709MOL0     H97807  11.658   9.014   8.652 -1.3389  0.5415 -0.1944
  709MOL0     H97808  11.815   8.842   8.588  1.0348 -0.3764 -1.9304
  709MOL0     H97809  11.848   8.908   8.425  1.9367  2.7122  0.0551
  709MOL0     H97810  11.925   9.032   8.688 -1.8118 -1.7226  0.5084
  709MOL0     H97811  11.948   9.098   8.523  0.0036 -1.0865 -0.0693
  709MOL0     H97812  12.078   8.908   8.452  0.1309 -1.0739  0.0815
  709MOL0     H97813  12.074   8.837   8.607  0.5881  0.2577  1.3183
  709MOL0     H97814  12.188   9.108   8.581 -2.4682  0.6194 -0.1390
  709MOL0     H97815  12.171   9.016   8.722 -0.5201  2.6985 -0.8008
  709MOL0     H97816  12.312   8.895   8.470  0.9512 -2.9969  1.0544
  709MOL0     H97817  12.316   8.841   8.636 -0.3065 -0.5715 -0.1456
  709MOL0     H97818  12.458   9.011   8.705 -0.2810  2.2424  0.1610
  709MOL0     H97819  12.418   9.118   8.571  0.1768 -0.6322 -0.5320
  709MOL0     H97820  12.540   8.965   8.410  1.0701 -1.7505 -0.2468
  709MOL0     H97821  12.582   8.867   8.558  1.5278  0.8270  0.4494
  709MOL0     H97822  11.441   8.877   8.297 -0.3208 -0.1922 -0.2902
  709MOL0     H97823  11.219   8.959   8.240  0.6374 -1.3312  0.7773
  709MOL0     H97824  10.822   9.357   8.527 -2.6040  0.5444  0.3823
  709MOL0     H97825  10.609   9.462   8.426  0.0001 -0.4050 -0.2323
  709MOL0     H97826   8.837   9.316   8.263  0.3294 -0.9694  0.5848
  709MOL0     H97827   8.643   9.234   8.119 -0.4718 -0.2254 -1.0218
  709MOL0     H97828   8.266   9.007   7.985 -2.2691  0.6577 -0.2173
  709MOL0     H97829   8.087   8.997   7.825 -0.1102  0.1091 -1.2340
  709MOL0     H97830   8.170   8.994   7.398  1.1576 -2.1734 -2.2193
  709MOL0     H97831   8.168   8.831   7.462 -1.7331 -0.0069  2.1176
  709MOL0     H97832   7.950   8.800   7.428  1.1645 -0.2134  0.2575
  709MOL0     H97833   7.987   8.873   7.277 -0.5538 -4.9004  0.1136
  709MOL0     H97834   7.866   9.021   7.535 -0.8129 -3.2917  1.1374
  709MOL0     H97835   7.906   9.101   7.375  2.7169 -0.0211  2.1234
  709MOL0     H97836   7.675   9.071   7.420  2.3662  0.8588  0.6278
  709MOL0     H97837   7.708   8.898   7.467  0.1746 -0.9072 -0.8789
  709MOL0     H97838   7.697   8.891   7.031 -0.1121 -1.3918  0.2275
  709MOL0     H97839   8.356   9.004   7.500 -1.1025  0.6060 -0.1788
  709MOL0     H97840   8.641   8.937   7.645 -1.0406 -0.7931 -2.8208
  709MOL0     H97841   8.574   9.051   7.525  0.6852  2.2972  0.1143
  709MOL0     H97842   8.637   9.118   7.676  2.7435 -0.6462  0.0132
  710MOL0     O97843   4.221   4.323   0.518  0.2230 -0.3709  0.2289
  710MOL0     C97844   4.185   4.248   0.426 -0.2786  0.0161 -0.5474
  710MOL0     O97845   4.238   4.246   0.304  0.1014 -0.4915 -0.3976
  710MOL0     C97846   4.341   4.323   0.265  0.1370 -0.5268  0.6940
  710MOL0     C97847   4.328   4.428   0.174 -0.6357 -0.3138  0.0476
  710MOL0     C97848   4.432   4.514   0.136  0.2441 -0.1494 -0.2203
  710MOL0     C97849   4.561   4.490   0.186  0.4931  0.3404 -0.6364
  710MOL0     O97850   4.678   4.551   0.139 -0.1819 -0.5966  0.0468
  710MOL0     C97851   4.688   4.620   0.011 -0.0425 -0.1344 -0.6303
  710MOL0     C97852   4.820   4.707   0.012  0.8838  0.6093 -0.3521
  710MOL0     C97853   4.935   4.621   0.069  0.5461 -0.4097 -0.0977
  710MOL0     C97854   5.071   4.645  -0.001  0.0648 -0.2413 -0.8689
  710MOL0     C97855   5.137   4.768   0.046  1.0306  0.8113  0.4850
  710MOL0     C97856   5.271   4.780  -0.020 -0.7631 -0.1360  0.3689
  710MOL0     C97857   5.350   4.905   0.017  0.4062  0.1921  0.6806
  710MOL0     C97858   5.407   4.887   0.161 -0.4273 -0.3244  0.7232
  710MOL0     N97859   5.459   5.015   0.198  0.0134  0.0177 -0.0092
  710MOL0     C97860   5.583   5.059   0.240 -0.3691 -0.5311 -0.3545
  710MOL0     C97861   5.569   5.195   0.273  0.1935 -0.5607 -0.3028
  710MOL0     C97862   5.674   5.295   0.309  0.4383  0.0179  0.7078
  710MOL0     C97863   5.800   5.238   0.372  0.1895  0.1712 -0.6511
  710MOL0     C97864   5.789   5.143   0.495  0.1332 -0.2015 -0.6369
  710MOL0     C97865   5.930   5.118   0.563 -0.2779 -0.3436  0.9576
  710MOL0     O97866   6.020   5.230   0.570  0.3028  0.4992  0.8193
  710MOL0     C97867   6.129   5.224   0.643  1.2550  0.8136  0.3891
  710MOL0     C97868   6.199   5.101   0.670  0.2231  0.0310 -0.0890
  710MOL0     C97869   6.320   5.102   0.736 -0.4760 -0.0371  0.8873
  710MOL0     C97870   6.386   4.966   0.752 -0.5816 -0.3917 -0.1683
  710MOL0     C97871   6.384   5.228   0.767 -0.1282  0.6097  0.2532
  710MOL0     C97872   6.519   5.234   0.826  0.3690  0.0490  0.0864
  710MOL0     O97873   6.535   5.145   0.924 -0.7760  0.1910  0.0501
  710MOL0     C97874   6.662   5.133   0.985  0.4624  0.0541 -0.6457
  710MOL0     C97875   6.732   5.242   1.047 -0.0768 -0.5869  0.2397
  710MOL0     C97876   6.858   5.225   1.101 -0.0898  0.2267  0.0635
  710MOL0     C97877   6.928   5.105   1.101  0.5284 -0.3141  0.5722
  710MOL0     O97878   7.050   5.075   1.143 -1.0498 -0.6182  0.3458
  710MOL0     C97879   7.161   5.173   1.134  0.9074 -0.1300 -0.4926
  710MOL0     C97880   7.184   5.230   1.277 -0.2423  0.0651  0.1498
  710MOL0     C97881   7.209   5.118   1.377 -0.0504 -0.4281  0.2567
  710MOL0     C97882   7.271   5.169   1.511 -1.1695 -0.0257  0.0652
  710MOL0     C97883   7.284   5.042   1.598 -0.4478 -0.1640 -0.4516
  710MOL0     C97884   7.350   5.077   1.735  0.3265  0.6420  0.0674
  710MOL0     C97885   7.394   4.952   1.801  1.2819 -0.7002  0.0595
  710MOL0     C97886   7.478   4.991   1.920  0.2241 -0.3996  0.6106
  710MOL0    Cl97887   7.515   4.858   2.050 -0.1131 -0.3883 -0.1894
  710MOL0     C97888   6.859   4.999   1.036  0.3416  0.1843 -0.0281
  710MOL0     C97889   6.730   5.017   0.980 -0.9317  0.6777 -0.3365
  710MOL0     O97890   6.602   5.311   0.780  0.2072 -0.3882  0.0071
  710MOL0     C97891   6.319   5.348   0.728 -0.3409  0.2796 -0.0606
  710MOL0     C97892   6.193   5.347   0.673  0.5834  0.7479  1.0634
  710MOL0     N97893   5.439   5.219   0.253  0.0615 -0.1481 -0.4928
  710MOL0     N97894   5.375   5.119   0.220  0.3075 -0.5129  1.3578
  710MOL0     C97895   4.576   4.383   0.275  0.0584 -0.6184  0.4377
  710MOL0     C97896   4.471   4.303   0.321  0.5173 -0.6556  0.2362
  710MOL0     C97897   4.068   4.157   0.462 -0.3702  0.0496 -0.6943
  710MOL0     C97898   3.994   4.102   0.351 -0.9366 -0.9496 -0.9475
  710MOL0     C97899   3.877   4.029   0.367  0.5256 -0.9465 -0.4630
  710MOL0     C97900   3.827   4.008   0.496 -0.3462 -0.2449 -0.2521
  710MOL0     O97901   3.698   3.948   0.499  0.0355  0.7048 -0.2324
  710MOL0     C97902   3.614   3.981   0.607  0.2500 -0.3468 -0.6724
  710MOL0     C97903   3.495   3.883   0.623 -0.6950 -0.0761 -0.0827
  710MOL0     C97904   3.451   3.888   0.769  0.6361  1.1647 -0.6895
  710MOL0     C97905   3.313   3.822   0.793  0.5753  1.1181 -0.5039
  710MOL0     C97906   3.206   3.902   0.740  0.4590  0.2779 -0.1068
  710MOL0     C97907   3.121   3.975   0.693  0.2827  0.0146  0.9340
  710MOL0     C97908   3.898   4.063   0.607 -0.5105  1.0058  0.7136
  710MOL0     C97909   4.017   4.131   0.596  0.1212  0.1607  0.1721
  710MOL0     C97910   4.062   4.196   0.734  0.1082  0.1675  0.2212
  710MOL0     H97911   4.229   4.449   0.135 -1.3259 -0.3537  1.6725
  710MOL0     H97912   4.417   4.601   0.072  0.7545  0.6434  0.7066
  710MOL0     H97913   4.599   4.683   0.003  0.9351  1.7619  1.9703
  710MOL0     H97914   4.684   4.555  -0.077 -0.3179  1.5951 -1.9675
  710MOL0     H97915   4.835   4.758  -0.084 -0.5462 -0.2743 -1.0826
  710MOL0     H97916   4.805   4.787   0.084  0.4512  0.4314 -0.2453
  710MOL0     H97917   4.945   4.646   0.175 -0.5447  2.1537 -0.5367
  710MOL0     H97918   4.907   4.517   0.051 -1.3358 -0.0995  0.8262
  710MOL0     H97919   5.137   4.563   0.027 -0.9316 -0.2325  1.8169
  710MOL0     H97920   5.050   4.655  -0.108  0.6263  1.0977 -0.8782
  710MOL0     H97921   5.143   4.764   0.155  0.7627 -0.6896  0.4735
  710MOL0     H97922   5.076   4.856   0.025 -0.9635 -0.6196 -0.0656
  710MOL0     H97923   5.333   4.691  -0.004  1.8889  1.7198  0.9922
  710MOL0     H97924   5.250   4.785  -0.128  0.0042 -0.0508  0.2193
  710MOL0     H97925   5.283   4.992   0.020 -0.2803 -0.3324  0.6701
  710MOL0     H97926   5.435   4.926  -0.050 -0.2931 -0.3964 -0.4229
  710MOL0     H97927   5.322   4.859   0.225 -0.6305 -0.4165  0.4155
  710MOL0     H97928   5.486   4.812   0.155  1.0856  1.2994 -0.7766
  710MOL0     H97929   5.674   5.000   0.239 -0.5805 -0.9225  1.2849
  710MOL0     H97930   5.634   5.375   0.373 -1.0493  0.0394 -0.1859
  710MOL0     H97931   5.691   5.346   0.214 -2.0560 -2.8419 -1.4428
  710MOL0     H97932   5.850   5.171   0.302  1.7214 -1.0873  1.5130
  710MOL0     H97933   5.869   5.320   0.398  2.9542 -2.1469 -0.2037
  710MOL0     H97934   5.723   5.185   0.570  0.8886  0.0231 -0.0891
  710MOL0     H97935   5.748   5.046   0.465  0.3935 -1.0521  1.5742
  710MOL0     H97936   5.921   5.077   0.665  0.4916 -2.6995  0.1413
  710MOL0     H97937   5.966   5.036   0.500 -2.7399 -0.0333 -1.0073
  710MOL0     H97938   6.151   5.006   0.652 -1.0617  0.8492 -1.1333
  710MOL0     H97939   6.490   4.981   0.720 -0.4475 -1.3899 -0.2427
  710MOL0     H97940   6.339   4.884   0.696  1.3331 -1.5620 -0.1650
  710MOL0     H97941   6.386   4.922   0.852 -2.5187 -1.2370 -0.4990
  710MOL0     H97942   6.705   5.345   1.029  1.1436 -0.6194 -2.2474
  710MOL0     H97943   6.916   5.314   1.122  0.1037  0.3012 -0.7371
  710MOL0     H97944   7.251   5.121   1.102 -0.4861 -5.6163  3.1775
  710MOL0     H97945   7.126   5.243   1.057 -0.1606 -0.0463  0.0414
  710MOL0     H97946   7.265   5.302   1.266 -1.2891  1.4652  1.2781
  710MOL0     H97947   7.103   5.293   1.314 -0.7421  1.2538 -2.6527
  710MOL0     H97948   7.288   5.060   1.327 -1.2137 -0.6684 -1.3716
  710MOL0     H97949   7.121   5.059   1.404 -0.9409  2.2149  3.8208
  710MOL0     H97950   7.202   5.238   1.560 -0.3064 -0.6510  2.2460
  710MOL0     H97951   7.366   5.221   1.500 -0.4694 -0.6324  2.7126
  710MOL0     H97952   7.190   4.991   1.622 -0.2157  0.1790  1.3537
  710MOL0     H97953   7.353   4.980   1.541 -0.3810  0.4066 -1.0061
  710MOL0     H97954   7.270   5.127   1.792  0.6744  2.4521 -0.9523
  710MOL0     H97955   7.433   5.146   1.722 -0.3233  1.8183  1.7073
  710MOL0     H97956   7.461   4.901   1.732 -0.7327 -0.6732 -2.0133
  710MOL0     H97957   7.304   4.895   1.824  0.6576 -0.2920 -1.3238
  710MOL0     H97958   7.425   5.067   1.978 -0.0712 -0.9644  1.1015
  710MOL0     H97959   7.579   5.022   1.891  0.3328 -1.6584 -0.4383
  710MOL0     H97960   6.904   4.900   1.025 -0.3143 -0.2470  1.0327
  710MOL0     H97961   6.696   4.936   0.917 -0.6747  0.5765 -0.3470
  710MOL0     H97962   6.374   5.441   0.740 -2.4795  1.6073  0.0807
  710MOL0     H97963   6.141   5.441   0.657 -1.0839 -0.1216  1.1471
  710MOL0     H97964   4.674   4.348   0.306  1.3419  2.0871 -0.2859
  710MOL0     H97965   4.485   4.218   0.387 -2.7821 -1.3959  0.1742
  710MOL0     H97966   4.034   4.114   0.251  0.4534 -3.0032 -0.7059
  710MOL0     H97967   3.821   3.992   0.282 -0.0307 -1.6360  0.1927
  710MOL0     H97968   3.665   3.967   0.703  0.1645  0.5515 -0.4901
  710MOL0     H97969   3.588   4.087   0.612  0.2503 -0.3549 -0.4999
  710MOL0     H97970   3.515   3.777   0.604 -1.4238 -0.2698  0.1968
  710MOL0     H97971   3.411   3.918   0.564 -0.5356  1.1192  0.3759
  710MOL0     H97972   3.519   3.824   0.826  2.4315  1.6064 -2.2327
  710MOL0     H97973   3.458   3.992   0.802 -0.3843  0.6658  1.2441
  710MOL0     H97974   3.292   3.817   0.900 -2.1716  1.5918 -0.9438
  710MOL0     H97975   3.319   3.719   0.757  2.2114  0.3105  1.8130
  710MOL0     H97976   3.050   4.052   0.668 -1.5342 -1.4542  1.3239
  710MOL0     H97977   3.854   4.052   0.706 -3.8880  3.2419 -0.3358
  710MOL0     H97978   4.024   4.298   0.744 -2.3572 -0.6359 -0.1946
  710MOL0     H97979   4.036   4.133   0.819 -0.8759  0.5638  0.2266
  710MOL0     H97980   4.171   4.205   0.731  0.0543  0.8489 -2.7963
  711MOL0     O97981   7.530  10.799   4.601 -0.4251  0.3418 -0.1593
  711MOL0     C97982   7.512  10.922   4.594  0.2784  0.4733 -0.1850
  711MOL0     O97983   7.613  11.020   4.602 -0.2197  0.3613 -0.1214
  711MOL0     C97984   7.743  10.973   4.621 -0.6565  0.0659 -0.0346
  711MOL0     C97985   7.836  11.018   4.530 -0.0761 -0.8871  0.1555
  711MOL0     C97986   7.961  10.970   4.532  0.0244  1.2444  0.4341
  711MOL0     C97987   7.999  10.881   4.633  0.1306 -0.3869  0.1910
  711MOL0     O97988   8.124  10.823   4.650  0.6203 -0.0590  0.6268
  711MOL0     C97989   8.223  10.843   4.542  0.3096 -0.3817 -0.0100
  711MOL0     C97990   8.343  10.753   4.571  0.4760 -0.6985  0.6559
  711MOL0     C97991   8.460  10.765   4.483 -0.6090 -0.2793  0.1137
  711MOL0     C97992   8.578  10.706   4.564  1.1916  0.4555  0.3841
  711MOL0     C97993   8.701  10.696   4.480 -0.0819 -0.3579 -0.3632
  711MOL0     C97994   8.831  10.665   4.554 -0.2097 -0.2001  0.3034
  711MOL0     C97995   8.953  10.682   4.455 -0.3063 -0.2465 -0.3153
  711MOL0     C97996   9.078  10.642   4.537  0.3886 -0.5543 -0.0984
  711MOL0     N97997   9.203  10.678   4.473  0.2460 -0.0835  0.8204
  711MOL0     C97998   9.292  10.597   4.410 -0.1700 -0.1345 -0.4610
  711MOL0     C97999   9.385  10.687   4.355  0.1284  0.0412  0.8265
  711MOL0     C98000   9.492  10.651   4.259 -0.1188 -0.5151  0.2934
  711MOL0     C98001   9.463  10.687   4.106  0.1688  0.2783 -1.0864
  711MOL0     C98002   9.580  10.650   4.019 -0.2673  0.2767  1.0779
  711MOL0     C98003   9.578  10.728   3.889 -0.6171 -0.0641 -0.4606
  711MOL0     O98004   9.689  10.679   3.815  0.5821  0.3156  0.5345
  711MOL0     C98005   9.724  10.739   3.698 -0.2801 -0.4864  0.2788
  711MOL0     C98006   9.822  10.669   3.634  0.6618 -0.2514  0.2819
  711MOL0     C98007   9.864  10.711   3.505  0.2625 -0.6664  1.0340
  711MOL0     C98008   9.960  10.620   3.439  0.8526 -1.0650  0.2130
  711MOL0     C98009   9.820  10.834   3.448  0.7415  0.1659 -0.4426
  711MOL0     C98010   9.865  10.894   3.317 -0.3600 -1.5091  0.1886
  711MOL0     O98011   9.788  10.981   3.247 -0.1518 -0.9674 -0.0562
  711MOL0     C98012   9.835  11.077   3.161 -0.3234 -0.2082 -0.4522
  711MOL0     C98013   9.731  11.147   3.091 -0.2794 -0.2702 -0.5800
  711MOL0     C98014   9.762  11.236   2.992 -0.0226  0.7775  0.4225
  711MOL0     C98015   9.893  11.268   2.969 -0.3834  0.4291 -0.1301
  711MOL0     O98016   9.939  11.367   2.881 -0.5091 -0.2466  0.7802
  711MOL0     C98017   9.868  11.487   2.859 -0.1766  0.3178  0.2624
  711MOL0     C98018   9.757  11.468   2.754 -0.1651  0.0255  0.6985
  711MOL0     C98019   9.809  11.474   2.611 -0.0397  0.5516 -0.3831
  711MOL0     C98020   9.705  11.438   2.509  0.1888 -0.3943  0.9638
  711MOL0     C98021   9.740  11.482   2.365 -0.0524  0.5982  0.2096
  711MOL0     C98022   9.873  11.427   2.315  0.7355 -1.2129  0.0402
  711MOL0     C98023   9.890  11.486   2.167  0.1974 -0.3628  0.2055
  711MOL0     C98024  10.007  11.425   2.099 -0.1888 -0.3975 -0.0940
  711MOL0    Cl98025  10.154  11.463   2.201 -0.3042  0.5699 -0.0967
  711MOL0     C98026   9.994  11.204   3.042 -0.0858  0.2768  0.2062
  711MOL0     C98027   9.971  11.103   3.139 -0.8193 -0.3183  0.9668
  711MOL0     O98028   9.983  10.862   3.297 -0.5419 -0.0963  0.6790
  711MOL0     C98029   9.705  10.900   3.510  0.7307  0.3127 -0.0708
  711MOL0     C98030   9.664  10.854   3.641  0.3804  0.7861  0.9340
  711MOL0     N98031   9.344  10.813   4.382  0.0464 -0.0643 -0.6809
  711MOL0     N98032   9.231  10.809   4.447 -0.3227  0.2050 -0.4657
  711MOL0     C98033   7.912  10.850   4.734 -0.8251 -0.2246  0.4611
  711MOL0     C98034   7.782  10.893   4.725 -0.2630  0.0548 -1.1370
  711MOL0     C98035   7.376  10.978   4.561  0.2629 -0.1931 -0.6052
  711MOL0     C98036   7.356  11.117   4.578  0.6376  0.0485  0.1899
  711MOL0     C98037   7.237  11.180   4.549  0.1422 -0.2133 -0.2697
  711MOL0     C98038   7.125  11.099   4.505 -0.1450 -0.3733 -0.2787
  711MOL0     O98039   7.003  11.159   4.488 -0.3176 -0.1008 -0.0326
  711MOL0     C98040   6.882  11.090   4.451  0.5548  0.3346  0.1273
  711MOL0     C98041   6.771  11.189   4.399 -1.2910  0.0922 -0.6471
  711MOL0     C98042   6.644  11.126   4.354  0.4277  0.8901  0.6616
  711MOL0     C98043   6.564  11.044   4.456  0.3150 -0.1044 -0.3863
  711MOL0     C98044   6.446  10.999   4.384  0.0655 -0.4661  0.6777
  711MOL0     C98045   6.341  10.974   4.334 -0.1911  0.8427 -0.8080
  711MOL0     C98046   7.136  10.960   4.498  0.0935 -0.2849  0.2928
  711MOL0     C98047   7.261  10.899   4.520 -0.2559 -0.1147  0.0580
  711MOL0     C98048   7.271  10.750   4.502 -0.7081  0.3129  0.2345
  711MOL0     H98049   7.803  11.092   4.457 -0.8408  0.7418  2.0425
  711MOL0     H98050   8.023  10.985   4.444  0.9656 -0.2497  0.8138
  711MOL0     H98051   8.260  10.946   4.543  3.3304 -1.3691 -0.4221
  711MOL0     H98052   8.194  10.812   4.441 -1.7062 -0.9546  0.7154
  711MOL0     H98053   8.371  10.762   4.676 -3.0601 -2.9677  1.9854
  711MOL0     H98054   8.301  10.652   4.561  0.4831 -0.5927 -0.6312
  711MOL0     H98055   8.442  10.698   4.399 -2.4683 -0.9505  0.9889
  711MOL0     H98056   8.482  10.868   4.453 -2.2311  0.6645  1.8446
  711MOL0     H98057   8.605  10.768   4.649  0.9261 -0.1672  0.9330
  711MOL0     H98058   8.555  10.604   4.596  1.2076  0.3923  0.1935
  711MOL0     H98059   8.711  10.788   4.422 -3.2162  0.1313 -0.2753
  711MOL0     H98060   8.672  10.618   4.408 -2.8385  1.1608 -1.0702
  711MOL0     H98061   8.839  10.712   4.652  4.8266 -0.9981  0.5264
  711MOL0     H98062   8.823  10.560   4.583  0.1795 -0.4513 -0.4639
  711MOL0     H98063   8.961  10.787   4.427  0.2361 -0.3053 -0.3967
  711MOL0     H98064   8.941  10.623   4.363  2.3437  0.3487 -1.1397
  711MOL0     H98065   9.075  10.692   4.635  0.9563 -1.0520  0.1772
  711MOL0     H98066   9.090  10.535   4.556  2.7269 -0.2682  0.3471
  711MOL0     H98067   9.296  10.488   4.406 -3.3921 -0.3202 -3.4717
  711MOL0     H98068   9.499  10.542   4.266 -4.1326 -0.8357  1.8170
  711MOL0     H98069   9.583  10.702   4.294  0.1757  1.1300 -2.5589
  711MOL0     H98070   9.379  10.629   4.067 -1.3142  0.9568  0.9281
  711MOL0     H98071   9.432  10.791   4.093  0.0296  0.5653  1.2018
  711MOL0     H98072   9.679  10.658   4.066  0.6799  0.9732 -0.9522
  711MOL0     H98073   9.565  10.547   3.986  0.1500  0.7041 -0.5296
  711MOL0     H98074   9.489  10.710   3.829 -0.5173  0.5304 -0.7871
  711MOL0     H98075   9.588  10.837   3.897  3.5833 -0.2950  0.1231
  711MOL0     H98076   9.869  10.584   3.683  1.3042  0.2530  0.5543
  711MOL0     H98077  10.055  10.672   3.421 -1.0066  1.8626 -2.1035
  711MOL0     H98078   9.909  10.600   3.345 -1.3690  0.4184  1.0205
  711MOL0     H98079   9.977  10.532   3.502  1.0541 -0.5935  0.8295
  711MOL0     H98080   9.625  11.127   3.101 -1.0778  1.4039 -3.9618
  711MOL0     H98081   9.672  11.271   2.942  0.0378 -0.8091 -0.8553
  711MOL0     H98082   9.817  11.513   2.952 -0.0925 -0.2027  0.4551
  711MOL0     H98083   9.934  11.569   2.829  1.7017 -1.1456  0.2839
  711MOL0     H98084   9.703  11.374   2.768  1.4090 -0.9631  0.3734
  711MOL0     H98085   9.690  11.554   2.761 -0.9030 -0.1968 -2.1505
  711MOL0     H98086   9.896  11.407   2.600  0.6516  1.6730 -1.9989
  711MOL0     H98087   9.834  11.578   2.591  0.2902  0.8177  1.2365
  711MOL0     H98088   9.609  11.473   2.546 -0.5336 -0.3436 -0.8849
  711MOL0     H98089   9.694  11.330   2.504 -0.5042 -0.5227  3.5313
  711MOL0     H98090   9.659  11.452   2.298  0.6782 -2.9939  0.7230
  711MOL0     H98091   9.745  11.590   2.347 -1.4197  0.5445 -0.5550
  711MOL0     H98092   9.863  11.318   2.320 -1.6111 -1.0419  0.0703
  711MOL0     H98093   9.956  11.461   2.378  1.9035  0.0576 -2.0639
  711MOL0     H98094   9.913  11.593   2.169  2.9017 -0.8049 -1.4833
  711MOL0     H98095   9.805  11.467   2.100  0.4892  2.0581 -0.9590
  711MOL0     H98096  10.013  11.481   2.005  1.0158 -0.4945 -0.0927
  711MOL0     H98097   9.984  11.320   2.081 -1.9919  0.2215 -1.7539
  711MOL0     H98098  10.097  11.229   3.018  0.6644 -1.0558  1.8014
  711MOL0     H98099  10.055  11.048   3.180 -0.0733 -1.3720 -1.7484
  711MOL0     H98100   9.665  10.994   3.473  1.9850  1.2715  0.9126
  711MOL0     H98101   9.582  10.889   3.702 -1.8374 -0.3396 -1.2138
  711MOL0     H98102   7.951  10.795   4.820  1.9294 -1.9108 -1.6813
  711MOL0     H98103   7.717  10.859   4.805  0.2314 -0.4616 -0.9430
  711MOL0     H98104   7.437  11.185   4.604 -0.8534  2.3532 -0.8707
  711MOL0     H98105   7.233  11.287   4.564  0.8290 -0.3891  1.4294
  711MOL0     H98106   6.901  11.013   4.376 -0.4035 -1.1828  1.3740
  711MOL0     H98107   6.840  11.031   4.533 -1.2219  0.9721 -0.2730
  711MOL0     H98108   6.822  11.256   4.329  0.8810 -1.7936 -0.9870
  711MOL0     H98109   6.746  11.255   4.483 -1.7256  2.4883 -2.5253
  711MOL0     H98110   6.576  11.204   4.318 -1.9944 -1.8235 -1.0050
  711MOL0     H98111   6.669  11.062   4.269  1.1858  0.8920  0.8710
  711MOL0     H98112   6.540  11.100   4.547  2.0737 -1.0687  0.7404
  711MOL0     H98113   6.619  10.959   4.498  3.3021  2.3053  0.9759
  711MOL0     H98114   6.247  10.951   4.288 -0.1216 -1.2676  0.0223
  711MOL0     H98115   7.047  10.901   4.480 -0.4632 -0.5240  3.3648
  711MOL0     H98116   7.171  10.714   4.477 -1.8430  3.2072  0.1788
  711MOL0     H98117   7.340  10.731   4.420 -0.3690  1.3148  0.2734
  711MOL0     H98118   7.290  10.701   4.598 -4.6894 -0.4285  0.8072
  712MOL0     O98119   6.657   5.878   2.222 -0.2207 -0.1372  0.2065
  712MOL0     C98120   6.555   5.889   2.294 -0.2890  0.0817  0.0330
  712MOL0     O98121   6.544   5.829   2.415 -0.3751  0.5142 -0.7942
  712MOL0     C98122   6.621   5.710   2.439  0.6272  0.3459  0.1253
  712MOL0     C98123   6.634   5.608   2.345  0.1059 -0.1386 -0.5489
  712MOL0     C98124   6.717   5.495   2.352  0.1463  0.1477  0.1624
  712MOL0     C98125   6.797   5.485   2.467  0.5106  0.6442  0.3051
  712MOL0     O98126   6.878   5.375   2.473 -0.0151  0.2134 -0.2475
  712MOL0     C98127   6.844   5.288   2.585 -0.6135 -0.3794 -1.1812
  712MOL0     C98128   6.945   5.178   2.584  0.2647  0.3593 -0.7975
  712MOL0     C98129   6.896   5.066   2.675 -0.0103 -0.3205 -0.5947
  712MOL0     C98130   6.985   4.936   2.670 -0.5627  0.4934 -0.0625
  712MOL0     C98131   6.976   4.836   2.792 -0.2388  0.0032 -0.2673
  712MOL0     C98132   6.842   4.766   2.782 -0.2328 -0.4011  0.7646
  712MOL0     C98133   6.808   4.672   2.888 -0.1352 -0.4265  0.1300
  712MOL0     C98134   6.888   4.547   2.910  0.5792 -0.0994  0.6352
  712MOL0     N98135   6.851   4.442   2.813 -0.8945  0.1591 -0.7198
  712MOL0     C98136   6.735   4.365   2.801  0.2851 -0.2414  0.0205
  712MOL0     C98137   6.741   4.307   2.685  0.1756 -0.1822 -0.2654
  712MOL0     C98138   6.640   4.215   2.618 -0.0845  0.1796 -1.8945
  712MOL0     C98139   6.645   4.238   2.461 -0.3947  0.3881 -0.6813
  712MOL0     C98140   6.499   4.235   2.411 -0.6397  0.1739  0.4175
  712MOL0     C98141   6.432   4.104   2.402 -0.4053  0.9053 -0.2631
  712MOL0     O98142   6.514   4.000   2.362  0.3817 -1.1212 -0.1672
  712MOL0     C98143   6.463   3.877   2.354  0.3527 -1.0778 -0.0452
  712MOL0     C98144   6.536   3.786   2.291  0.7439 -0.0710 -0.6112
  712MOL0     C98145   6.502   3.648   2.290 -0.5901  0.1971 -0.6816
  712MOL0     C98146   6.615   3.561   2.222  0.4621  0.3003 -0.2544
  712MOL0     C98147   6.382   3.604   2.348 -1.0938 -1.0470  0.3645
  712MOL0     C98148   6.338   3.464   2.349  0.5075 -0.6249 -0.1717
  712MOL0     O98149   6.224   3.433   2.415  0.2454 -0.6435  0.1222
  712MOL0     C98150   6.170   3.309   2.409 -0.2463 -0.2169  0.4989
  712MOL0     C98151   6.027   3.292   2.414 -0.7794 -1.1305  1.3560
  712MOL0     C98152   5.963   3.172   2.408 -0.0230  0.7421  0.2503
  712MOL0     C98153   6.042   3.057   2.387 -0.3013  0.0222  0.1141
  712MOL0     O98154   5.964   2.943   2.354 -0.4669 -0.0342 -0.5148
  712MOL0     C98155   6.036   2.826   2.327  0.1807  0.6202 -0.7926
  712MOL0     C98156   5.935   2.729   2.267  0.1647  0.5589 -0.1132
  712MOL0     C98157   5.821   2.685   2.358 -0.5902 -0.0074 -0.1663
  712MOL0     C98158   5.870   2.609   2.485  0.0537 -1.4621 -0.0766
  712MOL0     C98159   5.789   2.486   2.518 -0.1575 -0.9031  0.5346
  712MOL0     C98160   5.648   2.532   2.556  0.1981  0.5501  0.0516
  712MOL0     C98161   5.556   2.413   2.577  0.0574  0.3406 -0.1447
  712MOL0     C98162   5.413   2.456   2.609  0.8557 -0.0617  0.9878
  712MOL0    Cl98163   5.382   2.506   2.784  0.1125 -0.4458 -0.1132
  712MOL0     C98164   6.184   3.061   2.402 -0.5861 -0.7617 -0.3562
  712MOL0     C98165   6.247   3.184   2.423 -0.2000  0.0928  0.0643
  712MOL0     O98166   6.405   3.382   2.284  0.2186 -0.0814  0.0961
  712MOL0     C98167   6.305   3.707   2.404 -0.1966 -0.6497 -0.9068
  712MOL0     C98168   6.345   3.839   2.415  0.7131 -0.4828  0.1661
  712MOL0     N98169   6.862   4.335   2.632  0.8828 -0.3318 -0.5205
  712MOL0     N98170   6.929   4.422   2.708  0.4452  0.4974  0.2674
  712MOL0     C98171   6.785   5.585   2.564 -0.5047  0.0005 -0.2478
  712MOL0     C98172   6.695   5.695   2.550  0.2374 -0.0066  1.0857
  712MOL0     C98173   6.441   5.978   2.251  0.3172 -0.2774 -0.0608
  712MOL0     C98174   6.356   6.019   2.352 -0.6031 -0.3943  0.0228
  712MOL0     C98175   6.244   6.091   2.324 -0.3280  0.6775 -0.2525
  712MOL0     C98176   6.207   6.127   2.200 -0.1994 -0.2457 -0.2857
  712MOL0     O98177   6.098   6.206   2.170  0.8738 -0.1092  0.0378
  712MOL0     C98178   6.118   6.346   2.192 -0.2145 -0.3146  0.3432
  712MOL0     C98179   6.031   6.379   2.314  0.0808 -0.8263 -0.4911
  712MOL0     C98180   6.059   6.529   2.367  0.0374  0.4379  0.4374
  712MOL0     C98181   6.045   6.541   2.520  0.3541 -0.2676 -0.0242
  712MOL0     C98182   5.925   6.495   2.582 -0.5547  0.6864  0.7509
  712MOL0     C98183   5.813   6.459   2.615 -0.6434 -0.2122 -0.4941
  712MOL0     C98184   6.279   6.079   2.091  0.5770 -1.0406  0.1208
  712MOL0     C98185   6.395   6.003   2.119  0.6506 -0.4427 -0.0403
  712MOL0     C98186   6.477   5.965   1.996  0.1740  0.1308 -0.4034
  712MOL0     H98187   6.598   5.625   2.244  2.5748 -1.6091 -1.7676
  712MOL0     H98188   6.721   5.423   2.271 -0.6111 -0.8000  0.9480
  712MOL0     H98189   6.740   5.255   2.577 -1.0175  0.7252 -0.7070
  712MOL0     H98190   6.868   5.350   2.672  0.6400 -2.4936  0.0765
  712MOL0     H98191   6.960   5.140   2.483  0.7662 -0.6072 -0.3729
  712MOL0     H98192   7.038   5.220   2.626  0.0039  0.2786 -0.1174
  712MOL0     H98193   6.898   5.106   2.777  0.0188  1.2543 -1.1864
  712MOL0     H98194   6.798   5.028   2.645 -0.0158 -1.0949  0.3356
  712MOL0     H98195   6.959   4.892   2.574  0.3718  0.9061 -0.5114
  712MOL0     H98196   7.086   4.976   2.683  0.6308 -2.4536  0.4586
  712MOL0     H98197   6.992   4.894   2.884  2.0478 -1.1070  0.0990
  712MOL0     H98198   7.050   4.757   2.780 -3.2653 -2.8397 -2.1205
  712MOL0     H98199   6.760   4.835   2.764  0.3249 -0.4354 -2.5910
  712MOL0     H98200   6.840   4.713   2.686  0.1068 -0.7353  0.9361
  712MOL0     H98201   6.704   4.644   2.869 -0.5905 -0.7317  2.7403
  712MOL0     H98202   6.821   4.739   2.974  1.8239  4.0627 -3.2391
  712MOL0     H98203   6.996   4.567   2.912  0.4567  0.5077  1.3433
  712MOL0     H98204   6.867   4.512   3.011  0.4300  0.7091  0.8894
  712MOL0     H98205   6.650   4.379   2.867  0.2356  1.6048 -0.3536
  712MOL0     H98206   6.539   4.225   2.659 -0.6480 -3.4065 -2.0992
  712MOL0     H98207   6.673   4.114   2.645  1.1966  1.3335  1.3318
  712MOL0     H98208   6.681   4.336   2.430 -1.4905  0.5879 -1.3984
  712MOL0     H98209   6.707   4.165   2.409  0.2526  0.2767  0.2252
  712MOL0     H98210   6.450   4.304   2.481  2.2026  2.2911  0.4929
  712MOL0     H98211   6.500   4.275   2.310 -1.5810 -0.1999  0.2503
  712MOL0     H98212   6.391   4.082   2.501 -3.5457 -1.4742 -1.9023
  712MOL0     H98213   6.335   4.108   2.352 -0.7473 -2.3219 -0.1101
  712MOL0     H98214   6.630   3.817   2.248 -0.1762  0.6277 -2.1969
  712MOL0     H98215   6.689   3.626   2.176 -0.3165  0.8863 -0.7162
  712MOL0     H98216   6.577   3.496   2.143 -0.2854  0.6990 -0.2364
  712MOL0     H98217   6.663   3.489   2.289  0.0647  2.5180  2.6481
  712MOL0     H98218   5.966   3.382   2.416  0.1187 -0.4524 -0.0144
  712MOL0     H98219   5.856   3.158   2.420  0.4174 -1.3663  2.9386
  712MOL0     H98220   6.121   2.847   2.261  0.8717  1.9226  0.4695
  712MOL0     H98221   6.080   2.790   2.420  4.2853  3.2625 -1.4759
  712MOL0     H98222   5.891   2.777   2.179  2.2590  1.4572 -0.7324
  712MOL0     H98223   5.990   2.644   2.227 -0.1681 -1.9140  4.1419
  712MOL0     H98224   5.758   2.614   2.303 -1.5499  1.8010 -1.4930
  712MOL0     H98225   5.751   2.765   2.385  0.7522  1.2031 -0.1801
  712MOL0     H98226   5.866   2.686   2.563  2.9768  1.3384 -2.4127
  712MOL0     H98227   5.975   2.585   2.468 -0.4893 -2.1127 -3.0177
  712MOL0     H98228   5.782   2.412   2.437 -0.5450 -0.7647  0.4400
  712MOL0     H98229   5.841   2.433   2.599  1.9611 -1.4432 -1.1031
  712MOL0     H98230   5.609   2.591   2.472  2.5787 -0.9800 -2.2797
  712MOL0     H98231   5.650   2.592   2.648 -0.0068 -1.3849  1.3617
  712MOL0     H98232   5.600   2.348   2.654 -0.1151 -2.0135 -1.9373
  712MOL0     H98233   5.551   2.351   2.487 -0.7434  0.1584  0.0242
  712MOL0     H98234   5.351   2.376   2.569  0.1737  1.2711 -0.7835
  712MOL0     H98235   5.398   2.549   2.554 -0.1043 -1.1809 -0.7288
  712MOL0     H98236   6.248   2.975   2.386  2.4643  1.5630 -1.7429
  712MOL0     H98237   6.353   3.174   2.444 -0.1901 -0.4261 -0.2028
  712MOL0     H98238   6.219   3.672   2.460  0.0907  4.6611  3.7192
  712MOL0     H98239   6.282   3.907   2.471 -1.4389  0.3884 -3.0171
  712MOL0     H98240   6.849   5.576   2.651 -2.2568 -1.2060  1.0094
  712MOL0     H98241   6.686   5.785   2.610 -1.6702  1.9170 -1.8203
  712MOL0     H98242   6.373   5.988   2.455  0.5745 -2.0959 -0.6284
  712MOL0     H98243   6.173   6.121   2.400 -2.9731 -0.0435 -2.2735
  712MOL0     H98244   6.224   6.367   2.205  0.0260 -0.8031 -0.7432
  712MOL0     H98245   6.082   6.395   2.101  1.4200 -2.1498 -1.3854
  712MOL0     H98246   6.047   6.313   2.399  0.4364  0.2851  0.3280
  712MOL0     H98247   5.929   6.368   2.275  1.3141 -5.1450 -3.1632
  712MOL0     H98248   6.153   6.568   2.327  0.0391 -2.1875 -2.5847
  712MOL0     H98249   5.992   6.594   2.310  2.6668  0.6810 -2.6575
  712MOL0     H98250   6.068   6.644   2.549  3.0066 -1.3022  1.9213
  712MOL0     H98251   6.112   6.470   2.568  1.0139 -0.3378 -1.0141
  712MOL0     H98252   5.709   6.436   2.629 -0.5960  0.7274  1.9315
  712MOL0     H98253   6.236   6.108   1.996  1.7387  0.8322  0.1025
  712MOL0     H98254   6.469   5.857   1.981 -1.6051 -0.1366  1.8305
  712MOL0     H98255   6.447   6.009   1.900 -0.7966 -2.6269 -1.4739
  712MOL0     H98256   6.580   5.993   2.019 -0.1884  0.2605  1.1120
  713MOL0     O98257   0.112   5.436  10.173  0.2514  0.0883  0.5106
  713MOL0     C98258   0.069   5.325  10.150 -0.1006 -0.0790  1.1830
  713MOL0     O98259   0.144   5.231  10.092 -0.3124  1.3282 -1.0756
  713MOL0     C98260   0.275   5.253  10.073 -0.3638 -0.5123  0.1019
  713MOL0     C98261   0.333   5.200   9.953 -0.5311  0.5342 -0.4374
  713MOL0     C98262   0.473   5.210   9.925  0.1969  0.4917 -1.1876
  713MOL0     C98263   0.562   5.269  10.024  0.7189 -0.7440  0.1409
  713MOL0     O98264   0.699   5.271  10.010 -0.0287  0.4785  0.2816
  713MOL0     C98265   0.788   5.314  10.117  1.2321 -0.2565 -0.6251
  713MOL0     C98266   0.932   5.326  10.065 -0.3356 -0.0786  0.5901
  713MOL0     C98267   0.990   5.208   9.987  0.0399  0.0317  0.1506
  713MOL0     C98268   1.130   5.235   9.918  0.2720  0.0794 -0.8052
  713MOL0     C98269   1.188   5.120   9.853 -0.4603  0.0486 -0.5723
  713MOL0     C98270   1.320   5.151   9.786  0.4634  0.1252 -0.0195
  713MOL0     C98271   1.380   5.017   9.745  0.3330  0.1876  0.1547
  713MOL0     C98272   1.511   5.034   9.673 -0.8550 -0.2349  0.3757
  713MOL0     N98273   1.501   5.001   9.524  0.8557  0.1528  0.1149
  713MOL0     C98274   1.498   5.094   9.427  0.6898 -0.6950 -0.2729
  713MOL0     C98275   1.460   5.043   9.306 -0.5165 -0.1392  0.0599
  713MOL0     C98276   1.456   5.126   9.181  0.5621  0.3142  0.4013
  713MOL0     C98277   1.597   5.174   9.135  0.1934 -0.7042 -0.5803
  713MOL0     C98278   1.688   5.059   9.107 -0.4877  0.2725  0.1811
  713MOL0     C98279   1.831   5.094   9.073 -0.6295 -0.4610 -0.2520
  713MOL0     O98280   1.820   5.171   8.948 -0.2012  0.1604 -0.1965
  713MOL0     C98281   1.926   5.241   8.905  0.0881 -0.2099 -0.0298
  713MOL0     C98282   1.906   5.347   8.817 -0.0972 -0.8690  0.1320
  713MOL0     C98283   2.010   5.426   8.771  0.1363  0.0375  0.2628
  713MOL0     C98284   1.982   5.543   8.684  0.8449  0.3776 -0.6303
  713MOL0     C98285   2.135   5.395   8.816 -0.2011 -0.6257  0.3323
  713MOL0     C98286   2.258   5.478   8.779  0.1433 -0.4905  0.0860
  713MOL0     O98287   2.340   5.508   8.879  0.3305 -0.1451  0.2959
  713MOL0     C98288   2.451   5.592   8.864  0.2212  0.0326 -0.4523
  713MOL0     C98289   2.450   5.715   8.803 -0.0336  0.1104  0.3929
  713MOL0     C98290   2.569   5.787   8.803 -0.0502 -0.2648  1.3266
  713MOL0     C98291   2.687   5.739   8.854  0.3867 -0.3740 -0.5045
  713MOL0     O98292   2.807   5.807   8.856  0.1782  0.0319  0.3285
  713MOL0     C98293   2.820   5.910   8.754 -0.1156  0.4529 -0.5005
  713MOL0     C98294   2.968   5.944   8.756 -0.0978  0.4354 -0.5082
  713MOL0     C98295   3.066   5.828   8.732  0.9093  0.0997 -0.7154
  713MOL0     C98296   3.207   5.864   8.763 -1.7513  0.3237 -0.0531
  713MOL0     C98297   3.259   5.842   8.906  1.4287  0.2627 -0.0124
  713MOL0     C98298   3.394   5.907   8.929 -0.8359  0.1510 -0.3654
  713MOL0     C98299   3.508   5.818   8.873  0.2025  0.0592 -0.0637
  713MOL0     C98300   3.641   5.897   8.874 -0.1381 -0.8610  0.8083
  713MOL0    Cl98301   3.753   5.820   8.749  0.2780 -0.1312 -0.0397
  713MOL0     C98302   2.683   5.617   8.916 -0.4175 -0.3897 -0.5976
  713MOL0     C98303   2.564   5.544   8.928  0.1454  0.1665 -0.0717
  713MOL0     O98304   2.270   5.523   8.669 -0.0367 -0.0253  1.0196
  713MOL0     C98305   2.157   5.288   8.900  1.0392  0.4312 -0.1440
  713MOL0     C98306   2.059   5.207   8.950  0.2303 -0.1348 -0.0768
  713MOL0     N98307   1.427   4.915   9.341  0.3548  0.0994  1.0328
  713MOL0     N98308   1.446   4.885   9.466 -0.5123 -0.7702 -0.5232
  713MOL0     C98309   0.501   5.310  10.143 -0.0102  0.6255  0.5571
  713MOL0     C98310   0.362   5.307  10.166 -0.1534  0.6710 -0.1430
  713MOL0     C98311  -0.076   5.297  10.169 -0.2248  0.2864 -0.1106
  713MOL0     C98312  -0.108   5.158  10.194 -0.2592 -0.9435 -0.0295
  713MOL0     C98313  -0.243   5.119  10.200 -0.1475  0.8148  0.1594
  713MOL0     C98314  -0.346   5.210  10.192  0.5192 -0.8515  0.1334
  713MOL0     O98315  -0.483   5.184  10.179 -0.4129  0.3899 -0.3480
  713MOL0     C98316  -0.527   5.055  10.143 -0.4847 -0.1527 -0.5006
  713MOL0     C98317  -0.668   5.072  10.089  0.4044  0.0242  0.4551
  713MOL0     C98318  -0.677   5.170   9.979 -0.0585  0.7675 -0.6850
  713MOL0     C98319  -0.792   5.143   9.880  0.2967 -0.4401 -0.3549
  713MOL0     C98320  -0.781   5.010   9.812 -0.4567  0.2138  0.2256
  713MOL0     C98321  -0.758   4.911   9.755 -0.4046  0.5686 -0.8218
  713MOL0     C98322  -0.315   5.345  10.176 -0.0686  0.2574  1.3496
  713MOL0     C98323  -0.179   5.389  10.160  0.2288  0.3448  0.6075
  713MOL0     C98324  -0.155   5.541  10.132 -1.3692 -0.1881  0.7960
  713MOL0     H98325   0.258   5.157   9.887 -0.1509  1.1017 -1.2618
  713MOL0     H98326   0.509   5.166   9.832  3.8907  3.0812 -1.2090
  713MOL0     H98327   0.775   5.246  10.202  2.4524 -0.0106 -0.2151
  713MOL0     H98328   0.761   5.415  10.150  2.7244  0.1289 -0.5088
  713MOL0     H98329   0.934   5.413   9.998 -1.0151  1.7873  2.8671
  713MOL0     H98330   1.009   5.352  10.139  2.1834  0.8545 -2.1424
  713MOL0     H98331   1.002   5.121  10.052  0.8770  1.2535  1.6927
  713MOL0     H98332   0.917   5.174   9.912 -0.0186 -0.2820  0.3479
  713MOL0     H98333   1.108   5.314   9.846 -0.5201 -0.4816 -1.1987
  713MOL0     H98334   1.209   5.269   9.986  0.2478 -0.5725 -0.4415
  713MOL0     H98335   1.121   5.085   9.774 -0.3857  0.7743 -0.9623
  713MOL0     H98336   1.207   5.052   9.937  0.1035  2.1443  1.0986
  713MOL0     H98337   1.297   5.217   9.702  0.5490  0.2837  0.0804
  713MOL0     H98338   1.382   5.205   9.858 -0.7221 -1.2461  2.1395
  713MOL0     H98339   1.310   4.957   9.686  2.0920  0.2334 -2.1481
  713MOL0     H98340   1.408   4.970   9.839  2.7592 -0.2382 -0.7051
  713MOL0     H98341   1.542   5.138   9.687  0.8236 -0.7992  1.1272
  713MOL0     H98342   1.587   4.970   9.718  0.2047  1.7922  1.6254
  713MOL0     H98343   1.536   5.194   9.444  0.7229 -0.3760 -2.0433
  713MOL0     H98344   1.398   5.215   9.205  1.7555  1.1855  0.1778
  713MOL0     H98345   1.412   5.070   9.099 -1.3350 -0.6787  2.0101
  713MOL0     H98346   1.596   5.231   9.042  1.6045 -1.4036 -1.0482
  713MOL0     H98347   1.638   5.228   9.221 -3.1671 -1.6437  1.8400
  713MOL0     H98348   1.679   4.986   9.188 -0.6894  0.1820  0.0790
  713MOL0     H98349   1.655   5.002   9.020 -3.1405 -0.2715  1.4449
  713MOL0     H98350   1.870   5.149   9.158  0.2533 -1.3778 -0.0546
  713MOL0     H98351   1.890   5.004   9.056  2.2705  1.4898 -1.2092
  713MOL0     H98352   1.801   5.363   8.793 -0.1728 -1.6496 -0.0859
  713MOL0     H98353   2.033   5.537   8.588  1.8391 -1.8618 -0.0477
  713MOL0     H98354   2.007   5.633   8.740 -0.1478 -0.3848  1.1483
  713MOL0     H98355   1.877   5.550   8.654  0.4725 -2.8568 -0.5102
  713MOL0     H98356   2.355   5.758   8.771  0.3316 -0.9175 -2.2863
  713MOL0     H98357   2.561   5.884   8.755 -1.1029 -0.5501  0.9009
  713MOL0     H98358   2.797   5.865   8.657 -1.9200 -1.9781  0.9384
  713MOL0     H98359   2.760   5.998   8.777 -1.2469 -0.2520 -0.6405
  713MOL0     H98360   2.985   6.035   8.698  2.8754  1.0393  1.0738
  713MOL0     H98361   2.970   5.970   8.862 -2.5629 -0.0619 -0.2890
  713MOL0     H98362   3.061   5.789   8.629  1.7341 -0.8541 -0.4055
  713MOL0     H98363   3.035   5.745   8.797 -0.7746 -0.9269 -2.6843
  713MOL0     H98364   3.232   5.966   8.730  2.8080 -0.5393 -0.0279
  713MOL0     H98365   3.267   5.806   8.692  0.7917 -0.6823  2.7007
  713MOL0     H98366   3.193   5.886   8.981  1.3878  0.3467 -0.0976
  713MOL0     H98367   3.262   5.737   8.937 -0.0437  0.2026 -0.0141
  713MOL0     H98368   3.415   5.933   9.033  1.0165  2.5376 -1.2311
  713MOL0     H98369   3.406   6.004   8.879 -1.8445  0.7583  0.5148
  713MOL0     H98370   3.485   5.781   8.772  1.9671 -0.1049 -0.4289
  713MOL0     H98371   3.506   5.732   8.940  3.3143  1.0336  1.4517
  713MOL0     H98372   3.684   5.891   8.974  2.4039  0.6985 -0.1091
  713MOL0     H98373   3.621   6.001   8.847  1.2394 -1.1368 -1.5600
  713MOL0     H98374   2.767   5.578   8.972  0.9947  2.0694 -0.8735
  713MOL0     H98375   2.545   5.446   8.970 -3.1456  2.1152  3.6110
  713MOL0     H98376   2.262   5.273   8.925  0.8555  1.3011  1.2663
  713MOL0     H98377   2.079   5.129   9.022  1.6745  0.9007  0.6871
  713MOL0     H98378   0.558   5.349  10.226  1.3513  1.0775 -0.5605
  713MOL0     H98379   0.328   5.350  10.260  0.6710  2.5307 -0.6403
  713MOL0     H98380  -0.021   5.094  10.199 -0.7829 -1.5990  1.0884
  713MOL0     H98381  -0.276   5.016  10.198 -1.1685  1.0864 -3.3802
  713MOL0     H98382  -0.464   5.012  10.065 -2.5442 -2.0618 -1.2438
  713MOL0     H98383  -0.530   4.983  10.225 -0.6422 -1.3885 -1.5579
  713MOL0     H98384  -0.726   5.107  10.175  1.0028  1.6115  0.2416
  713MOL0     H98385  -0.699   4.976  10.047  4.4379 -0.0705 -2.9942
  713MOL0     H98386  -0.673   5.272  10.020  0.8848  0.6878 -0.5500
  713MOL0     H98387  -0.584   5.169   9.922  1.2998 -0.0039  1.4201
  713MOL0     H98388  -0.801   5.225   9.808  0.0732  0.2379  0.4291
  713MOL0     H98389  -0.884   5.149   9.940 -0.2018 -0.3012 -1.1232
  713MOL0     H98390  -0.728   4.820   9.706  0.0161 -0.1470  0.7133
  713MOL0     H98391  -0.391   5.423  10.169  1.8420  2.0450 -2.5424
  713MOL0     H98392  -0.102   5.606  10.202 -0.0821  0.0787 -0.3963
  713MOL0     H98393  -0.102   5.535  10.037  1.4097 -2.5079  2.3286
  713MOL0     H98394  -0.252   5.586  10.110 -1.7834 -0.4635  1.9882
  714MOL0     O98395  10.957   8.705   9.570  0.0151 -0.0850 -0.8252
  714MOL0     C98396  10.944   8.815   9.535  0.7663 -0.2180  0.0859
  714MOL0     O98397  11.037   8.911   9.525  0.0202 -0.0788 -0.2490
  714MOL0     C98398  11.160   8.878   9.564 -0.0862 -0.2948  0.7727
  714MOL0     C98399  11.268   8.909   9.477 -0.7034  0.0836 -0.0815
  714MOL0     C98400  11.403   8.889   9.526 -0.3408  0.4408 -0.0532
  714MOL0     C98401  11.431   8.833   9.654  0.3074  0.3411 -0.1707
  714MOL0     O98402  11.560   8.818   9.704 -0.1358 -0.3321  0.0768
  714MOL0     C98403  11.668   8.865   9.625  0.5293 -0.2942 -0.5604
  714MOL0     C98404  11.803   8.858   9.702  0.0730 -0.4811  0.4793
  714MOL0     C98405  11.926   8.912   9.617 -0.5842 -0.7151  0.3908
  714MOL0     C98406  12.064   8.911   9.701 -0.5837 -0.9373 -0.2438
  714MOL0     C98407  12.068   9.042   9.787  0.2713 -0.1640 -0.8265
  714MOL0     C98408  12.180   9.049   9.893 -0.7054 -0.6727  0.2513
  714MOL0     C98409  12.321   9.042   9.834  1.1116  0.1789  0.5685
  714MOL0     C98410  12.364   9.166   9.768  0.4669  0.5456  0.2596
  714MOL0     N98411  12.516   9.151   9.753  0.3421 -0.7117 -0.0333
  714MOL0     C98412  12.591   9.045   9.686  0.4265 -0.1462 -0.4957
  714MOL0     C98413  12.724   9.078   9.715 -0.3854 -0.4081 -0.8155
  714MOL0     C98414  12.838   9.006   9.651 -0.0071 -0.1769 -0.0875
  714MOL0     C98415  12.984   9.037   9.686  0.0899  0.3932  0.3215
  714MOL0     C98416  13.039   9.171   9.615  0.6122 -0.0363 -0.3845
  714MOL0     C98417  13.188   9.179   9.642 -0.1892  0.2694 -0.8974
  714MOL0     O98418  13.237   9.304   9.594 -0.3034  0.0415 -0.3106
  714MOL0     C98419  13.306   9.281   9.478 -0.6995 -0.0186 -0.2706
  714MOL0     C98420  13.244   9.257   9.357  0.4497 -0.4436 -0.3022
  714MOL0     C98421  13.316   9.247   9.239 -0.3353 -0.7130  1.1629
  714MOL0     C98422  13.238   9.219   9.110  0.2516  0.1730  0.8774
  714MOL0     C98423  13.455   9.269   9.246  0.8182  0.4227 -0.5069
  714MOL0     C98424  13.546   9.237   9.138 -0.2457  0.6401 -0.0135
  714MOL0     O98425  13.645   9.327   9.127  0.4080 -0.1310  0.2591
  714MOL0     C98426  13.766   9.291   9.075  0.2231  0.2831  0.2019
  714MOL0     C98427  13.835   9.175   9.119 -0.3888 -0.2041  1.1298
  714MOL0     C98428  13.951   9.135   9.060  0.5803  0.3365 -0.4517
  714MOL0     C98429  13.995   9.200   8.946 -0.0090 -0.3566 -0.6935
  714MOL0     O98430  14.107   9.171   8.875  0.2768  0.7444 -0.6557
  714MOL0     C98431  14.203   9.090   8.937  0.2176 -0.2673 -0.1176
  714MOL0     C98432  14.337   9.085   8.856 -0.4204  0.3330 -0.1220
  714MOL0     C98433  14.425   9.216   8.847 -0.0128  0.0714  0.1568
  714MOL0     C98434  14.557   9.198   8.758 -0.5851  0.3651 -0.9374
  714MOL0     C98435  14.631   9.334   8.771  0.0171 -0.4249 -0.4309
  714MOL0     C98436  14.696   9.336   8.911 -0.3400 -0.0528  0.0408
  714MOL0     C98437  14.790   9.463   8.912 -0.5401  0.2394 -0.5913
  714MOL0     C98438  14.904   9.462   9.017 -0.2613 -1.3395  0.1231
  714MOL0    Cl98439  15.011   9.324   8.993 -0.4898 -0.1232  0.3594
  714MOL0     C98440  13.917   9.304   8.898  1.1008 -0.1279 -0.1129
  714MOL0     C98441  13.807   9.348   8.960 -1.1778  0.1550 -0.3508
  714MOL0     O98442  13.536   9.128   9.075  0.5842  0.2849 -0.2302
  714MOL0     C98443  13.516   9.317   9.363 -0.6528 -0.0369 -0.4046
  714MOL0     C98444  13.446   9.311   9.478  0.6305 -0.5100  0.0411
  714MOL0     N98445  12.719   9.186   9.808 -0.2422 -0.3836  0.3642
  714MOL0     N98446  12.603   9.225   9.828 -0.1982 -0.1252  0.5860
  714MOL0     C98447  11.322   8.806   9.739 -1.0020 -0.1967  0.1992
  714MOL0     C98448  11.189   8.830   9.693  0.6005 -0.7455  0.0539
  714MOL0     C98449  10.811   8.849   9.495  0.0938  0.3997  0.3517
  714MOL0     C98450  10.699   8.865   9.583  0.4865  0.0633  0.0310
  714MOL0     C98451  10.576   8.906   9.532  0.2499 -0.5782 -0.9442
  714MOL0     C98452  10.553   8.936   9.395 -0.1185  0.2696 -0.0610
  714MOL0     O98453  10.441   8.988   9.338 -0.6929 -0.2624  0.2782
  714MOL0     C98454  10.311   8.975   9.410 -0.3987  0.6808 -0.1914
  714MOL0     C98455  10.179   9.015   9.325  0.2473  0.3632  0.1755
  714MOL0     C98456  10.166   8.937   9.190 -0.0377  0.4083 -0.1099
  714MOL0     C98457  10.076   8.809   9.207  0.1979 -0.9488  0.8193
  714MOL0     C98458  10.030   8.782   9.069  0.5225 -0.6988  0.4536
  714MOL0     C98459  10.018   8.764   8.946  1.0753  0.3231 -0.3209
  714MOL0     C98460  10.665   8.922   9.312 -1.3459  0.2109  0.0366
  714MOL0     C98461  10.791   8.870   9.350  0.1030 -0.2574 -0.5829
  714MOL0     C98462  10.901   8.837   9.242 -0.2803  0.6341  0.1922
  714MOL0     H98463  11.259   8.960   9.382  0.2823  0.9125  0.2487
  714MOL0     H98464  11.484   8.909   9.457 -0.3146  0.0431 -0.1397
  714MOL0     H98465  11.649   8.972   9.610 -0.1547 -0.1324  1.2961
  714MOL0     H98466  11.672   8.801   9.536 -1.8515  0.9582 -1.6776
  714MOL0     H98467  11.789   8.930   9.783  1.4234 -0.0937  0.3992
  714MOL0     H98468  11.831   8.757   9.734  1.2951 -0.2334  0.2421
  714MOL0     H98469  11.938   8.852   9.526 -3.3532 -0.2292 -0.3664
  714MOL0     H98470  11.908   9.012   9.576 -1.0711 -1.6569 -1.8626
  714MOL0     H98471  12.059   8.824   9.767 -0.8954 -1.3705 -0.8283
  714MOL0     H98472  12.153   8.908   9.638  0.6850  1.5542  1.2945
  714MOL0     H98473  11.982   9.058   9.852  1.0240  3.8977 -0.5141
  714MOL0     H98474  12.071   9.132   9.725 -1.3928 -0.8251 -1.9277
  714MOL0     H98475  12.175   9.136   9.960 -0.5239 -1.2244  0.9934
  714MOL0     H98476  12.168   8.966   9.964 -2.0686 -0.4923  0.2545
  714MOL0     H98477  12.334   8.959   9.765 -0.2311  0.8437 -0.5359
  714MOL0     H98478  12.387   9.036   9.921 -1.5077  1.3888  2.8031
  714MOL0     H98479  12.309   9.182   9.674 -0.8081 -0.4242  0.8094
  714MOL0     H98480  12.340   9.256   9.825  2.4018  1.0804  0.2793
  714MOL0     H98481  12.554   8.967   9.620 -0.2026 -0.4126  0.1616
  714MOL0     H98482  12.831   9.010   9.542  0.8153  0.0646 -0.1397
  714MOL0     H98483  12.820   8.904   9.685  0.8147 -0.2561  0.1257
  714MOL0     H98484  12.988   9.039   9.795 -1.7009 -0.7985  0.4647
  714MOL0     H98485  13.043   8.958   9.639 -2.7326 -1.3575 -0.5643
  714MOL0     H98486  13.033   9.159   9.506 -2.6716 -0.2386 -0.2822
  714MOL0     H98487  12.995   9.262   9.657 -0.9706  0.2556 -2.4639
  714MOL0     H98488  13.211   9.167   9.748 -0.6839 -3.2541 -1.0438
  714MOL0     H98489  13.242   9.099   9.589 -0.3780 -0.1858 -0.4142
  714MOL0     H98490  13.136   9.245   9.356  0.4349 -0.2480 -1.1607
  714MOL0     H98491  13.262   9.127   9.055  0.0196  2.0639 -2.7148
  714MOL0     H98492  13.264   9.303   9.044 -1.4621  0.6325  0.7381
  714MOL0     H98493  13.129   9.223   9.117  0.2277  2.5430  0.1801
  714MOL0     H98494  13.815   9.113   9.206 -0.1095 -2.4953 -0.3355
  714MOL0     H98495  14.013   9.067   9.118  2.7769  1.1594 -1.7205
  714MOL0     H98496  14.232   9.138   9.031 -0.1503  0.1548 -0.2163
  714MOL0     H98497  14.170   8.986   8.947  2.5310 -1.2816 -2.0642
  714MOL0     H98498  14.394   9.003   8.901 -1.0139  0.8376  1.6151
  714MOL0     H98499  14.304   9.055   8.756  0.4154  0.9203 -0.5923
  714MOL0     H98500  14.453   9.246   8.948  0.2305 -2.2258  0.8256
  714MOL0     H98501  14.371   9.296   8.794  0.1535 -0.6451 -1.1363
  714MOL0     H98502  14.521   9.182   8.656  1.3307 -3.2212 -1.1947
  714MOL0     H98503  14.617   9.111   8.785 -1.2997 -0.2555 -1.3299
  714MOL0     H98504  14.713   9.343   8.700 -1.5220  1.6701 -2.0644
  714MOL0     H98505  14.567   9.422   8.764  2.2283  1.2863 -0.1267
  714MOL0     H98506  14.761   9.249   8.928 -0.6085 -0.1900  0.3865
  714MOL0     H98507  14.631   9.326   8.998  0.7729 -0.8565  0.8279
  714MOL0     H98508  14.727   9.548   8.939 -1.2260 -0.3799 -0.2164
  714MOL0     H98509  14.844   9.486   8.819  4.9745  3.9640  2.8979
  714MOL0     H98510  14.868   9.456   9.120 -0.4008  1.4108  0.3019
  714MOL0     H98511  14.967   9.551   9.002 -0.2477 -1.1231  1.3287
  714MOL0     H98512  13.930   9.355   8.803 -0.7645 -3.2659 -2.1975
  714MOL0     H98513  13.740   9.421   8.916 -0.3123 -0.9704 -3.7735
  714MOL0     H98514  13.624   9.321   9.373 -0.6558  0.2948 -0.5191
  714MOL0     H98515  13.498   9.339   9.569  1.0335 -1.2061  0.0319
  714MOL0     H98516  11.337   8.763   9.837 -1.1403 -3.2508 -1.0178
  714MOL0     H98517  11.103   8.809   9.756 -0.5377 -1.8924 -1.7810
  714MOL0     H98518  10.707   8.853   9.691  2.7894 -0.3793 -0.1381
  714MOL0     H98519  10.488   8.917   9.595  0.8897 -2.4794  0.3725
  714MOL0     H98520  10.284   8.874   9.441 -3.4815  2.0814  2.2394
  714MOL0     H98521  10.320   9.038   9.500  0.8823  2.0435 -1.2228
  714MOL0     H98522  10.171   9.119   9.293 -3.2654 -0.1368 -0.9757
  714MOL0     H98523  10.095   9.005   9.395  1.9033 -1.3293  2.0207
  714MOL0     H98524  10.113   9.006   9.124 -1.1478 -0.4030 -0.0858
  714MOL0     H98525  10.268   8.920   9.156  0.9927  0.2258  2.8052
  714MOL0     H98526   9.990   8.821   9.274 -0.5175  2.1080 -0.4768
  714MOL0     H98527  10.138   8.729   9.248  0.8768 -1.4850 -1.1588
  714MOL0     H98528   9.999   8.747   8.842  1.6343 -1.5157 -0.1591
  714MOL0     H98529  10.639   8.944   9.209 -1.7401 -1.7370 -0.3341
  714MOL0     H98530  10.900   8.728   9.231  2.6855  0.5878 -0.6108
  714MOL0     H98531  10.868   8.872   9.144  0.0583 -0.0048 -0.1561
  714MOL0     H98532  11.006   8.863   9.259 -0.2944  1.6672 -1.0844
  715MOL0     O98533   4.969   3.359   5.394 -0.1486 -0.5561  0.3287
  715MOL0     C98534   4.857   3.307   5.405  1.0826 -0.4152  0.2661
  715MOL0     O98535   4.765   3.281   5.299 -0.4859  0.7299  0.1624
  715MOL0     C98536   4.802   3.310   5.171  0.3526  0.0690  0.6680
  715MOL0     C98537   4.913   3.262   5.106  0.8511  1.0789 -0.3005
  715MOL0     C98538   4.946   3.289   4.981  0.0733  0.0006  0.7807
  715MOL0     C98539   4.877   3.387   4.907  0.2356  1.0636  0.1884
  715MOL0     O98540   4.933   3.425   4.790 -0.1937  0.2458 -0.3826
  715MOL0     C98541   4.867   3.532   4.708 -0.1768 -0.8166 -0.2335
  715MOL0     C98542   4.937   3.533   4.577  0.2268  0.0788  1.5006
  715MOL0     C98543   5.033   3.655   4.561  0.2416 -0.7957  0.4486
  715MOL0     C98544   5.110   3.652   4.424  0.7446 -0.3502 -0.2079
  715MOL0     C98545   5.173   3.791   4.406 -0.2043  0.4154 -0.2556
  715MOL0     C98546   5.292   3.810   4.502  0.2090  0.2028  0.4843
  715MOL0     C98547   5.399   3.715   4.450 -1.2314 -0.0962  0.1692
  715MOL0     C98548   5.528   3.721   4.539  0.3027 -0.0118 -0.2661
  715MOL0     N98549   5.657   3.669   4.484 -0.1738 -0.4704 -0.7438
  715MOL0     C98550   5.736   3.580   4.543 -1.2803 -0.4532 -0.4128
  715MOL0     C98551   5.844   3.567   4.465  0.7769  0.1027 -0.0117
  715MOL0     C98552   5.962   3.470   4.496  0.3684 -1.0253  0.7726
  715MOL0     C98553   6.080   3.560   4.517 -1.0054 -0.1035  0.4322
  715MOL0     C98554   6.210   3.474   4.538 -0.6047 -0.0542 -0.1888
  715MOL0     C98555   6.250   3.397   4.416 -1.1743 -0.0758 -0.6963
  715MOL0     O98556   6.378   3.328   4.430  0.1577 -0.5384  0.0371
  715MOL0     C98557   6.489   3.392   4.380 -0.2238  0.0599  0.0296
  715MOL0     C98558   6.609   3.324   4.399  0.6638  0.8237  0.2227
  715MOL0     C98559   6.737   3.363   4.357 -0.2251  0.7948 -0.5191
  715MOL0     C98560   6.853   3.269   4.390  0.3856  0.0268  0.2366
  715MOL0     C98561   6.750   3.492   4.288 -0.2846 -0.6059  0.7704
  715MOL0     C98562   6.876   3.555   4.238  0.5666 -0.8588 -0.3397
  715MOL0     O98563   6.877   3.688   4.234  0.6973  0.2728  0.6966
  715MOL0     C98564   6.973   3.754   4.161 -0.1670  0.8755  0.5764
  715MOL0     C98565   7.059   3.704   4.065  0.3830  0.8366  0.2908
  715MOL0     C98566   7.142   3.788   3.994  1.0991 -0.2257 -0.2039
  715MOL0     C98567   7.144   3.930   4.015  0.7082  0.3241 -1.3594
  715MOL0     O98568   7.230   4.021   3.966  0.4745 -0.3708 -0.1717
  715MOL0     C98569   7.305   3.978   3.846  0.2538  0.3535 -0.0541
  715MOL0     C98570   7.390   4.092   3.797 -0.4513  0.0649 -0.0787
  715MOL0     C98571   7.517   4.107   3.880 -0.2941  0.3415  0.0107
  715MOL0     C98572   7.567   4.252   3.863 -0.6821 -0.2672 -0.7955
  715MOL0     C98573   7.715   4.269   3.927 -0.4787 -0.5284  0.3255
  715MOL0     C98574   7.827   4.191   3.853  0.4874  0.1435 -0.3387
  715MOL0     C98575   7.967   4.233   3.896 -0.1896 -0.6653 -0.8310
  715MOL0     C98576   8.024   4.165   4.021  0.4089 -0.2121  0.1387
  715MOL0    Cl98577   8.079   4.008   3.982 -0.0382 -0.5771  0.2743
  715MOL0     C98578   7.055   3.982   4.109  1.0932 -0.4551  0.3420
  715MOL0     C98579   6.969   3.893   4.179 -0.7447  0.5722  0.8423
  715MOL0     O98580   6.974   3.479   4.207 -0.0565 -0.0260  0.4555
  715MOL0     C98581   6.631   3.566   4.281 -0.7707  0.4697  0.3727
  715MOL0     C98582   6.509   3.518   4.315  0.9084  0.1259  0.2710
  715MOL0     N98583   5.831   3.651   4.359 -0.8417  0.0261 -0.2893
  715MOL0     N98584   5.723   3.723   4.381  0.4493 -0.0611 -0.5706
  715MOL0     C98585   4.760   3.436   4.966 -0.0682 -0.2744  0.0306
  715MOL0     C98586   4.729   3.407   5.100 -0.5399 -0.5077 -0.1437
  715MOL0     C98587   4.823   3.256   5.541  0.7359 -0.3573 -0.0466
  715MOL0     C98588   4.690   3.208   5.575  0.3761  0.5256  0.3600
  715MOL0     C98589   4.668   3.169   5.706  0.1882 -0.5793 -0.1903
  715MOL0     C98590   4.769   3.168   5.801  1.1492 -0.7145  0.0777
  715MOL0     O98591   4.733   3.147   5.934  0.0129  0.3695 -0.5419
  715MOL0     C98592   4.832   3.077   6.014 -0.2521 -0.5075  0.9239
  715MOL0     C98593   4.836   2.934   5.970 -0.1061  0.5508 -0.4476
  715MOL0     C98594   4.920   2.850   6.062  0.3586  0.0741  0.0334
  715MOL0     C98595   4.924   2.701   6.019 -0.3414 -1.0488 -0.6616
  715MOL0     C98596   4.802   2.625   6.050 -0.5261  0.1350 -0.4157
  715MOL0     C98597   4.698   2.565   6.064  0.0308  0.1709 -0.0128
  715MOL0     C98598   4.898   3.207   5.762 -0.2148  0.4152  0.2419
  715MOL0     C98599   4.929   3.248   5.640  0.6061 -0.9922  0.0697
  715MOL0     C98600   5.079   3.277   5.628  0.2480 -1.2501  0.3456
  715MOL0     H98601   4.974   3.191   5.161  1.5919  0.8264 -1.4295
  715MOL0     H98602   5.037   3.245   4.941 -1.6005 -2.5229 -0.5011
  715MOL0     H98603   4.887   3.629   4.755 -0.3927 -0.3905 -0.9996
  715MOL0     H98604   4.758   3.521   4.707 -0.4815  0.2884  3.5543
  715MOL0     H98605   4.985   3.436   4.561 -2.8677 -1.1581 -1.6945
  715MOL0     H98606   4.860   3.535   4.499  0.0041 -0.2754  1.7098
  715MOL0     H98607   4.983   3.749   4.585  0.2627 -0.8231  0.5986
  715MOL0     H98608   5.112   3.649   4.637  1.9599  0.1670 -1.1758
  715MOL0     H98609   5.174   3.564   4.421  0.5686 -0.4881 -2.6441
  715MOL0     H98610   5.028   3.646   4.351  0.6572  1.2917 -0.2826
  715MOL0     H98611   5.105   3.872   4.434  2.0100  2.6687 -1.0223
  715MOL0     H98612   5.209   3.819   4.306  2.8954  1.3576  1.0170
  715MOL0     H98613   5.321   3.915   4.496  0.9016 -0.0225 -0.1995
  715MOL0     H98614   5.277   3.781   4.607  1.9655  0.6972  0.8952
  715MOL0     H98615   5.425   3.733   4.345  0.4762 -1.8745  0.2435
  715MOL0     H98616   5.362   3.613   4.463 -1.4377 -0.4355 -2.5528
  715MOL0     H98617   5.544   3.824   4.571 -0.1070 -0.8437  3.0228
  715MOL0     H98618   5.512   3.670   4.635 -5.3733  0.7489 -0.4642
  715MOL0     H98619   5.719   3.519   4.631  1.3412 -0.3317  0.2579
  715MOL0     H98620   5.974   3.411   4.405 -0.9255  0.0959 -0.1719
  715MOL0     H98621   5.946   3.412   4.587  1.9674 -1.1895  0.9830
  715MOL0     H98622   6.094   3.623   4.428 -2.1273  0.6870  0.7913
  715MOL0     H98623   6.054   3.629   4.597 -3.7951  1.0211 -1.2939
  715MOL0     H98624   6.285   3.549   4.563 -2.2402  1.3432  0.7587
  715MOL0     H98625   6.199   3.403   4.620  1.1192 -1.3202 -0.9921
  715MOL0     H98626   6.188   3.308   4.400  0.5224 -1.0249 -2.4932
  715MOL0     H98627   6.238   3.449   4.321  0.5667 -0.2994 -1.0756
  715MOL0     H98628   6.609   3.224   4.442  3.1073  1.0429  0.8840
  715MOL0     H98629   6.888   3.282   4.493 -2.3693 -0.3166  1.3082
  715MOL0     H98630   6.937   3.275   4.320 -2.0240 -0.2500 -2.9137
  715MOL0     H98631   6.816   3.166   4.381 -3.0511  1.2149 -0.6581
  715MOL0     H98632   7.073   3.599   4.046  0.6429  1.1652 -1.5512
  715MOL0     H98633   7.194   3.733   3.916  1.6782 -0.5878  0.4251
  715MOL0     H98634   7.373   3.896   3.867  0.6498 -0.1842 -3.0174
  715MOL0     H98635   7.234   3.954   3.765  0.3112  1.9427 -0.6154
  715MOL0     H98636   7.420   4.087   3.691 -1.0741  0.1583 -0.2643
  715MOL0     H98637   7.331   4.184   3.808  0.8823  1.2173 -2.0165
  715MOL0     H98638   7.593   4.030   3.867 -1.4998 -1.7623  3.7380
  715MOL0     H98639   7.504   4.084   3.987  2.3245  0.7443  0.4930
  715MOL0     H98640   7.497   4.322   3.910  2.2867  1.5986  1.2106
  715MOL0     H98641   7.578   4.285   3.759  1.9423  3.5858  0.4583
  715MOL0     H98642   7.738   4.376   3.927 -1.4750 -0.3065  0.3465
  715MOL0     H98643   7.718   4.231   4.030  2.2514  0.7287  0.8182
  715MOL0     H98644   7.824   4.211   3.746  1.8067 -2.0820 -0.8730
  715MOL0     H98645   7.810   4.082   3.856  3.2188 -0.3584  2.6681
  715MOL0     H98646   7.965   4.338   3.928 -3.6984 -1.2106  1.3151
  715MOL0     H98647   8.031   4.221   3.808 -0.0882  0.9091 -1.0013
  715MOL0     H98648   7.953   4.155   4.104  1.9275 -1.7274  1.3358
  715MOL0     H98649   8.106   4.226   4.060 -0.5023  0.9986  0.2380
  715MOL0     H98650   7.050   4.084   4.147  1.9159 -0.0288 -0.6481
  715MOL0     H98651   6.889   3.936   4.238 -0.4871  2.5779 -0.1799
  715MOL0     H98652   6.628   3.658   4.223  0.4183 -1.1194 -2.4155
  715MOL0     H98653   6.424   3.584   4.298 -1.0761 -1.9076  1.8419
  715MOL0     H98654   4.698   3.511   4.919 -2.3848 -0.6182  2.2786
  715MOL0     H98655   4.644   3.461   5.142 -0.7870 -0.3328 -0.8565
  715MOL0     H98656   4.610   3.196   5.502  1.9099 -0.4021 -1.2661
  715MOL0     H98657   4.575   3.121   5.735  1.3841 -1.7177  2.0024
  715MOL0     H98658   4.927   3.131   6.011 -0.7812  0.5477  2.2111
  715MOL0     H98659   4.796   3.082   6.117 -0.2419 -0.5150  0.9280
  715MOL0     H98660   4.873   2.921   5.868 -0.1208 -1.7358 -0.2100
  715MOL0     H98661   4.733   2.900   5.982  1.2758 -3.0637  3.5110
  715MOL0     H98662   5.023   2.886   6.055  1.3073 -1.8696  2.3790
  715MOL0     H98663   4.886   2.853   6.166  0.8846  0.4796  0.1990
  715MOL0     H98664   5.014   2.660   6.067  0.4596 -0.1642 -1.3516
  715MOL0     H98665   4.945   2.689   5.913 -0.6521 -2.8885 -0.5369
  715MOL0     H98666   4.599   2.524   6.066 -0.0075  0.2903  0.6751
  715MOL0     H98667   4.974   3.206   5.840 -0.1637 -0.7326  0.2060
  715MOL0     H98668   5.124   3.289   5.727  1.0112 -0.0500 -0.1361
  715MOL0     H98669   5.124   3.186   5.586  1.4425 -1.2429  1.5368
  715MOL0     H98670   5.115   3.362   5.569  2.5310 -1.0166  1.9495
  716MOL0     O98671  10.840   1.209   7.836  0.4665  0.0666 -0.0945
  716MOL0     C98672  10.800   1.144   7.933  0.7958 -0.2777  0.8956
  716MOL0     O98673  10.873   1.069   8.021  0.1320  0.6670  0.7991
  716MOL0     C98674  11.010   1.071   8.035  0.1939  0.2704  0.0687
  716MOL0     C98675  11.058   1.022   8.159  0.3033 -0.4192  0.6845
  716MOL0     C98676  11.195   1.025   8.184 -0.4537  0.5717 -0.0510
  716MOL0     C98677  11.283   1.071   8.093  0.1919 -0.3508 -0.9110
  716MOL0     O98678  11.418   1.074   8.119 -0.4499  0.2178 -0.1996
  716MOL0     C98679  11.487   0.956   8.172 -0.9303  0.4362 -0.0336
  716MOL0     C98680  11.637   0.976   8.150  0.2593 -0.3866  0.4237
  716MOL0     C98681  11.715   0.873   8.227 -0.3114  1.2411  0.0279
  716MOL0     C98682  11.854   0.932   8.256 -0.4662  0.8329 -0.0041
  716MOL0     C98683  11.969   0.831   8.303 -0.3809 -0.6404 -0.1314
  716MOL0     C98684  12.097   0.906   8.339 -0.0596  0.4115 -0.1705
  716MOL0     C98685  12.221   0.809   8.349 -0.1779  0.0696  0.9262
  716MOL0     C98686  12.349   0.888   8.392  0.4682 -0.3599 -0.8545
  716MOL0     N98687  12.332   0.913   8.535  0.5664  0.0060 -0.1271
  716MOL0     C98688  12.362   0.831   8.640 -0.0382 -0.1272  0.6167
  716MOL0     C98689  12.347   0.904   8.755  0.2284  0.1595  0.5125
  716MOL0     C98690  12.372   0.864   8.902  0.2376  0.7758 -0.9883
  716MOL0     C98691  12.510   0.786   8.905 -0.0282  0.1530 -0.8243
  716MOL0     C98692  12.636   0.873   8.871  1.1383 -0.3380  0.1730
  716MOL0     C98693  12.750   0.781   8.854  0.6626 -0.3279 -0.1489
  716MOL0     O98694  12.860   0.864   8.823  0.0688  0.0883 -0.1767
  716MOL0     C98695  12.988   0.813   8.827  0.1005 -0.8243  0.0012
  716MOL0     C98696  13.082   0.910   8.804  0.5384 -0.5479 -0.0500
  716MOL0     C98697  13.217   0.879   8.809  0.0477  0.0037  0.0517
  716MOL0     C98698  13.320   0.995   8.777 -0.2777  0.4837  0.4201
  716MOL0     C98699  13.258   0.743   8.828 -0.3583 -0.1740 -1.0591
  716MOL0     C98700  13.399   0.695   8.815 -0.1640  0.0290  0.2150
  716MOL0     O98701  13.422   0.560   8.844  0.0144 -0.3615 -0.2238
  716MOL0     C98702  13.557   0.528   8.850 -0.0972  0.3434  0.4986
  716MOL0     C98703  13.627   0.547   8.964  0.1754  0.2833 -1.2398
  716MOL0     C98704  13.770   0.514   8.968 -0.0417  0.4806  0.0719
  716MOL0     C98705  13.829   0.450   8.860  0.3740 -0.6879  0.1001
  716MOL0     O98706  13.965   0.422   8.849 -0.4910 -0.0443  0.7433
  716MOL0     C98707  14.055   0.441   8.959  0.8386 -0.0360 -0.5848
  716MOL0     C98708  14.193   0.393   8.919 -0.3451 -0.2692  0.7868
  716MOL0     C98709  14.300   0.429   9.026 -0.4856 -0.4453 -0.6102
  716MOL0     C98710  14.439   0.392   8.980 -0.6139  0.3504 -0.2418
  716MOL0     C98711  14.488   0.241   8.970  0.0968 -0.4915  0.7566
  716MOL0     C98712  14.427   0.144   9.068 -0.2467  0.8377 -0.5235
  716MOL0     C98713  14.487   0.004   9.033  0.2158 -0.7960 -0.2654
  716MOL0     C98714  14.418  -0.106   9.117 -0.2192  0.1101 -0.2884
  716MOL0    Cl98715  14.452  -0.261   9.050  0.4012 -0.3575  0.5220
  716MOL0     C98716  13.754   0.421   8.748  0.2827  0.6530  0.7849
  716MOL0     C98717  13.624   0.464   8.742  0.3220  0.0040  0.1212
  716MOL0     O98718  13.488   0.772   8.779  0.6472 -0.1947  0.3522
  716MOL0     C98719  13.156   0.648   8.866 -0.7062 -0.2626 -0.3163
  716MOL0     C98720  13.025   0.679   8.861 -0.7398 -0.0796 -0.5279
  716MOL0     N98721  12.298   1.029   8.713 -0.5450  0.0987 -0.2792
  716MOL0     N98722  12.295   1.034   8.587  0.5411 -0.0857 -0.0061
  716MOL0     C98723  11.242   1.122   7.971 -0.4116  0.0389 -0.2597
  716MOL0     C98724  11.105   1.110   7.935 -0.1448  0.3942  0.6819
  716MOL0     C98725  10.650   1.130   7.946  0.0407  0.5152 -0.0749
  716MOL0     C98726  10.600   1.101   8.077 -0.2376 -0.4688 -0.6336
  716MOL0     C98727  10.461   1.080   8.098 -0.2556 -0.2588  0.6220
  716MOL0     C98728  10.370   1.093   7.994 -0.2607  0.2184  0.5150
  716MOL0     O98729  10.244   1.059   8.029  1.0788  0.0515  0.1159
  716MOL0     C98730  10.147   1.061   7.921  0.0395 -0.5685  0.2960
  716MOL0     C98731  10.014   1.041   7.979  0.4913 -0.3480 -0.1751
  716MOL0     C98732   9.957   1.156   8.068 -0.3382  0.5024  1.0684
  716MOL0     C98733   9.897   1.264   7.971  0.2409 -0.0404 -0.5393
  716MOL0     C98734   9.848   1.369   8.053  0.7177 -0.6324  0.2245
  716MOL0     C98735   9.822   1.475   8.102  0.4011  0.0620  0.2983
  716MOL0     C98736  10.415   1.118   7.864  0.0481  0.2695 -0.3802
  716MOL0     C98737  10.554   1.142   7.843 -0.4226 -0.3351 -0.3308
  716MOL0     C98738  10.591   1.175   7.701 -0.9580 -1.0642  0.2034
  716MOL0     H98739  10.985   0.991   8.233  1.6299  1.9777  3.1563
  716MOL0     H98740  11.233   0.997   8.282 -1.7935  1.2391  0.6856
  716MOL0     H98741  11.452   0.873   8.110 -1.5823 -0.1512  1.0918
  716MOL0     H98742  11.466   0.933   8.277  0.7480 -0.5352  0.1328
  716MOL0     H98743  11.655   0.967   8.043 -1.7959  1.3600 -0.1376
  716MOL0     H98744  11.664   1.076   8.185  1.3321 -1.0079  1.4602
  716MOL0     H98745  11.670   0.849   8.323  2.0450  2.7396  1.6180
  716MOL0     H98746  11.712   0.783   8.166  1.6856  1.2445 -0.1244
  716MOL0     H98747  11.889   0.974   8.161 -2.1001  0.7565 -0.6827
  716MOL0     H98748  11.839   1.022   8.316 -1.2912  2.6946 -2.8141
  716MOL0     H98749  11.986   0.764   8.218  2.9339  0.9286 -0.8601
  716MOL0     H98750  11.940   0.776   8.393  3.5033 -1.8577  0.5329
  716MOL0     H98751  12.115   0.982   8.262  1.6176  1.6098  1.3281
  716MOL0     H98752  12.080   0.961   8.432  0.9415  0.4276  0.0074
  716MOL0     H98753  12.227   0.756   8.254  0.3243  0.7099  0.5891
  716MOL0     H98754  12.203   0.734   8.425 -0.1097 -0.4763  0.4086
  716MOL0     H98755  12.438   0.825   8.383  1.2488  0.4185  0.9676
  716MOL0     H98756  12.373   0.981   8.340  1.7329  0.4838  1.1214
  716MOL0     H98757  12.393   0.729   8.618  3.1310  0.9914 -0.6468
  716MOL0     H98758  12.294   0.804   8.950  1.3250  0.4673  0.4643
  716MOL0     H98759  12.375   0.962   8.953  0.1229 -0.0445  0.6672
  716MOL0     H98760  12.518   0.749   9.007 -1.1686  3.0491  0.4194
  716MOL0     H98761  12.508   0.702   8.834 -0.7303 -0.1968 -0.3989
  716MOL0     H98762  12.627   0.932   8.780 -0.6669 -1.5385 -0.4807
  716MOL0     H98763  12.659   0.950   8.946  1.2495 -0.4501  0.2557
  716MOL0     H98764  12.763   0.719   8.944  0.1037  1.3673  1.1659
  716MOL0     H98765  12.723   0.719   8.769 -0.9496 -3.0299  2.1523
  716MOL0     H98766  13.060   1.016   8.792 -0.5336 -0.6949  0.4878
  716MOL0     H98767  13.384   0.982   8.689 -0.3933  0.2737  0.3670
  716MOL0     H98768  13.387   1.009   8.863  2.3736 -3.5034 -0.7327
  716MOL0     H98769  13.276   1.095   8.769  0.8654  1.0586  0.9150
  716MOL0     H98770  13.589   0.590   9.056  3.8488 -1.1579  1.2192
  716MOL0     H98771  13.841   0.553   9.041 -1.2783  0.0642  1.5483
  716MOL0     H98772  14.059   0.545   8.995 -2.5483  0.4632 -1.2835
  716MOL0     H98773  14.009   0.390   9.044  1.1552 -1.9237 -1.5034
  716MOL0     H98774  14.175   0.287   8.900 -0.4792 -0.5730  2.4355
  716MOL0     H98775  14.212   0.447   8.826  1.5827 -1.7602  0.2541
  716MOL0     H98776  14.268   0.371   9.112  0.8828 -0.8589 -0.3579
  716MOL0     H98777  14.305   0.536   9.049  4.2876 -0.3031 -1.2517
  716MOL0     H98778  14.509   0.436   9.052  0.3984 -0.4770 -0.6951
  716MOL0     H98779  14.455   0.434   8.880 -2.4058  0.0186 -0.7050
  716MOL0     H98780  14.447   0.214   8.872 -2.7836 -0.1166  1.7507
  716MOL0     H98781  14.596   0.226   8.958  0.0891  1.2155 -3.4764
  716MOL0     H98782  14.320   0.145   9.047 -0.7614  0.9593  1.8801
  716MOL0     H98783  14.445   0.173   9.172 -2.5025 -0.2000  0.2221
  716MOL0     H98784  14.595  -0.012   9.048  0.9845  2.5154 -1.4718
  716MOL0     H98785  14.467  -0.014   8.927 -1.9495  1.1575 -0.2644
  716MOL0     H98786  14.309  -0.095   9.122 -0.0900  1.1899  0.2979
  716MOL0     H98787  14.465  -0.112   9.215 -2.4693 -4.9411  0.8303
  716MOL0     H98788  13.790   0.386   8.652 -1.0747  1.2882  0.0193
  716MOL0     H98789  13.574   0.455   8.647  3.2942  0.9629 -1.6526
  716MOL0     H98790  13.183   0.543   8.873  1.4702  0.2686 -0.0353
  716MOL0     H98791  12.949   0.604   8.878  1.0997 -1.4308  2.4430
  716MOL0     H98792  11.321   1.163   7.908  0.9392 -0.7254  0.8680
  716MOL0     H98793  11.080   1.148   7.836  0.8846 -2.2838 -0.6826
  716MOL0     H98794  10.667   1.107   8.163  1.1597 -3.0951 -1.4491
  716MOL0     H98795  10.417   1.061   8.195  0.3349 -0.0584  0.9295
  716MOL0     H98796  10.139   1.157   7.868 -0.3244  0.4115  2.0611
  716MOL0     H98797  10.171   0.979   7.852 -1.5668 -2.8810  2.2998
  716MOL0     H98798  10.020   0.956   8.048 -1.4579 -1.5378 -1.3632
  716MOL0     H98799   9.937   1.009   7.908  1.1897 -1.4227 -0.4880
  716MOL0     H98800   9.877   1.113   8.128 -1.0156 -0.5111 -0.5058
  716MOL0     H98801  10.036   1.205   8.127  0.9575 -0.1325 -0.0693
  716MOL0     H98802   9.820   1.221   7.906  0.2499 -1.9785  0.6743
  716MOL0     H98803   9.981   1.297   7.909 -1.0572  0.0076 -2.3673
  716MOL0     H98804   9.796   1.568   8.149 -3.8147 -0.7636 -0.0179
  716MOL0     H98805  10.357   1.117   7.772 -0.4609  3.8961 -0.2312
  716MOL0     H98806  10.506   1.198   7.635  0.1359  0.6966 -0.6604
  716MOL0     H98807  10.640   1.272   7.709 -2.1186 -0.3838 -0.5182
  716MOL0     H98808  10.652   1.101   7.648 -0.6190  0.7405 -2.0770
  717MOL0     O98809   7.843   6.264   7.584  0.3189 -0.3115  0.3005
  717MOL0     C98810   7.858   6.265   7.466 -0.0941  0.3329  0.6224
  717MOL0     O98811   7.975   6.251   7.393 -0.0065  0.0665 -0.3267
  717MOL0     C98812   8.101   6.255   7.460 -0.6132  0.6151 -0.4015
  717MOL0     C98813   8.134   6.297   7.594  0.8014  0.2881  0.5846
  717MOL0     C98814   8.266   6.275   7.636 -0.1061  0.2885  0.6976
  717MOL0     C98815   8.363   6.232   7.542  0.4008  0.1680  0.3490
  717MOL0     O98816   8.498   6.211   7.570 -0.3356 -0.7395 -0.2069
  717MOL0     C98817   8.548   6.240   7.702 -0.6509 -0.5448 -0.1004
  717MOL0     C98818   8.696   6.228   7.682  0.8374 -0.5458 -0.1391
  717MOL0     C98819   8.765   6.345   7.757 -0.4187 -0.7546 -0.1182
  717MOL0     C98820   8.915   6.327   7.765 -0.2914 -0.2712 -0.2134
  717MOL0     C98821   8.951   6.405   7.889 -0.3637 -0.4605  0.2843
  717MOL0     C98822   9.100   6.401   7.916  0.3267 -0.5605 -0.0863
  717MOL0     C98823   9.137   6.534   7.993 -0.0683 -0.1945 -0.2454
  717MOL0     C98824   9.070   6.544   8.133  0.8329  0.2051  0.6432
  717MOL0     N98825   9.106   6.445   8.232  0.4683 -0.4161 -0.3984
  717MOL0     C98826   9.227   6.424   8.286  0.2316 -0.4409 -0.3150
  717MOL0     C98827   9.220   6.307   8.358 -0.1183 -0.1081  0.2435
  717MOL0     C98828   9.319   6.270   8.457 -0.2609 -0.0821 -0.2751
  717MOL0     C98829   9.287   6.346   8.583 -0.4020  0.4809 -0.6007
  717MOL0     C98830   9.355   6.275   8.714  0.4378  0.5974 -0.3414
  717MOL0     C98831   9.504   6.311   8.733 -0.2220  0.5564 -0.2269
  717MOL0     O98832   9.544   6.256   8.859 -0.0047  0.7140 -0.0806
  717MOL0     C98833   9.672   6.266   8.898 -0.2091 -0.0134  0.3402
  717MOL0     C98834   9.734   6.159   8.966 -0.6167 -0.1263 -0.1781
  717MOL0     C98835   9.873   6.165   8.999  0.0669  0.3624 -0.4661
  717MOL0     C98836   9.930   6.043   9.057  0.9905  0.5682  0.0876
  717MOL0     C98837   9.951   6.281   8.974  0.6276 -0.4765  0.1356
  717MOL0     C98838  10.089   6.302   9.016 -0.4938  0.4063 -0.2845
  717MOL0     O98839  10.166   6.366   8.929 -0.7739  0.8864  0.2270
  717MOL0     C98840  10.301   6.383   8.950  0.0410  0.1357  0.2408
  717MOL0     C98841  10.390   6.278   8.921  0.0732  0.5276 -0.2927
  717MOL0     C98842  10.526   6.291   8.954  1.0281 -0.8123 -0.3805
  717MOL0     C98843  10.575   6.417   8.995 -0.1861  0.3313 -0.1427
  717MOL0     O98844  10.703   6.418   9.028  0.2215 -0.5344  0.4295
  717MOL0     C98845  10.758   6.527   9.102 -0.4861  0.1134 -0.2020
  717MOL0     C98846  10.899   6.471   9.137  0.4131  0.1026 -0.2842
  717MOL0     C98847  10.987   6.457   9.009 -0.0958  0.4123  0.0463
  717MOL0     C98848  11.128   6.416   9.048  0.3847  0.6600  0.4731
  717MOL0     C98849  11.155   6.277   9.109  0.2062  0.1321 -0.3051
  717MOL0     C98850  11.302   6.256   9.114  0.6303 -0.2527 -0.1550
  717MOL0     C98851  11.324   6.108   9.154  0.5772  0.5132  0.0606
  717MOL0     C98852  11.284   6.009   9.045  0.3872  0.7953  0.1785
  717MOL0    Cl98853  11.376   6.036   8.899 -0.4835  0.1370  0.4100
  717MOL0     C98854  10.488   6.528   9.002 -0.3717  0.4223 -0.0492
  717MOL0     C98855  10.353   6.507   8.977 -0.2397  0.3123 -0.3925
  717MOL0     O98856  10.120   6.261   9.127  0.1421 -0.0471 -0.5401
  717MOL0     C98857   9.882   6.386   8.903  0.4042 -0.3950  0.3451
  717MOL0     C98858   9.747   6.375   8.865 -0.2711 -0.7654 -0.0617
  717MOL0     N98859   9.091   6.249   8.342 -1.1045  0.2921  0.2532
  717MOL0     N98860   9.030   6.338   8.265  0.3472  0.0325  0.2935
  717MOL0     C98861   8.332   6.197   7.413  0.2312  0.0174  0.6111
  717MOL0     C98862   8.200   6.208   7.373  1.3979 -0.2538  0.1880
  717MOL0     C98863   7.736   6.281   7.384  0.0612  0.3765 -0.2962
  717MOL0     C98864   7.622   6.322   7.449  0.0985  0.9693 -0.2601
  717MOL0     C98865   7.500   6.334   7.384 -0.8095  0.6598 -0.2617
  717MOL0     C98866   7.488   6.309   7.248 -0.7163  1.1896  0.2940
  717MOL0     O98867   7.360   6.321   7.194  0.2968  0.1943  0.1181
  717MOL0     C98868   7.341   6.344   7.050  0.1655 -0.1272 -0.0546
  717MOL0     C98869   7.191   6.357   7.025  0.2091  0.9682  0.2225
  717MOL0     C98870   7.119   6.460   7.094  0.3283 -0.0717 -0.7090
  717MOL0     C98871   6.973   6.418   7.118  0.0473 -0.5351  0.2447
  717MOL0     C98872   6.881   6.530   7.147 -0.2512 -0.3144  1.0096
  717MOL0     C98873   6.799   6.613   7.165 -0.8746 -0.8121  0.4080
  717MOL0     C98874   7.601   6.270   7.176 -0.3125  0.2850  0.1399
  717MOL0     C98875   7.723   6.261   7.246 -0.2654 -0.1315  0.3699
  717MOL0     C98876   7.845   6.235   7.153 -0.4288 -0.3727  0.4244
  717MOL0     H98877   8.069   6.343   7.668  0.6643  3.8985 -1.5600
  717MOL0     H98878   8.302   6.279   7.738  2.9483 -3.5219 -0.0126
  717MOL0     H98879   8.506   6.175   7.779 -2.6022  1.8228  0.9844
  717MOL0     H98880   8.521   6.342   7.729  5.4803  1.6407 -0.6301
  717MOL0     H98881   8.726   6.128   7.714  0.2688 -0.0155  2.2170
  717MOL0     H98882   8.729   6.252   7.580  2.4052  1.6771  0.7995
  717MOL0     H98883   8.743   6.447   7.726  0.5120  0.0676  1.7731
  717MOL0     H98884   8.716   6.348   7.855  0.7179  0.8596  0.4348
  717MOL0     H98885   8.940   6.221   7.783 -0.0478 -0.0499  0.8718
  717MOL0     H98886   8.970   6.364   7.678  4.7589 -3.1715  1.3146
  717MOL0     H98887   8.896   6.361   7.973 -0.8377 -1.4570 -0.5413
  717MOL0     H98888   8.916   6.509   7.881  2.0529  0.3449 -1.0680
  717MOL0     H98889   9.131   6.315   7.978  0.8968 -0.8927 -0.8189
  717MOL0     H98890   9.159   6.388   7.825  1.0355 -0.1758  0.3110
  717MOL0     H98891   9.102   6.614   7.928  2.0599 -0.0900 -1.3496
  717MOL0     H98892   9.245   6.548   7.993 -0.0743  0.0691 -1.7179
  717MOL0     H98893   9.094   6.647   8.163  1.8020  1.2722 -3.3001
  717MOL0     H98894   8.961   6.543   8.122  0.9163 -0.5746 -0.2046
  717MOL0     H98895   9.313   6.491   8.290  0.2536 -0.5061  1.0441
  717MOL0     H98896   9.418   6.289   8.415 -0.2704 -0.7898 -0.6291
  717MOL0     H98897   9.308   6.163   8.476  1.4651 -0.2949 -0.2808
  717MOL0     H98898   9.322   6.449   8.572  1.8326 -0.4696 -3.7101
  717MOL0     H98899   9.178   6.336   8.593 -0.1089 -0.8310  2.0627
  717MOL0     H98900   9.302   6.300   8.806 -3.3496 -1.1710 -1.8602
  717MOL0     H98901   9.343   6.167   8.701 -1.0600  0.4826  1.5930
  717MOL0     H98902   9.561   6.267   8.650  0.0545  3.3343 -1.6300
  717MOL0     H98903   9.525   6.418   8.716 -1.6730  0.9180  0.1732
  717MOL0     H98904   9.667   6.075   8.978 -0.0760 -0.5199  0.1511
  717MOL0     H98905  10.025   6.025   9.007 -0.1468 -0.6094 -1.7523
  717MOL0     H98906   9.855   5.964   9.049 -0.0689  1.2216  2.6460
  717MOL0     H98907   9.937   6.058   9.165 -1.2567  0.8266  0.2587
  717MOL0     H98908  10.352   6.179   8.900 -1.5242  0.4425  2.5319
  717MOL0     H98909  10.590   6.204   8.948 -1.0193 -2.5184  1.0465
  717MOL0     H98910  10.761   6.617   9.040  1.8907 -0.2329 -0.6632
  717MOL0     H98911  10.693   6.553   9.186 -3.3511  2.9780 -3.0071
  717MOL0     H98912  10.948   6.546   9.201 -2.6810  0.3604  2.0014
  717MOL0     H98913  10.894   6.376   9.191 -0.7300  0.1414 -0.3019
  717MOL0     H98914  10.989   6.548   8.948 -0.8385  0.1028 -0.4537
  717MOL0     H98915  10.930   6.382   8.954 -1.4510  0.1826  1.6590
  717MOL0     H98916  11.170   6.500   9.104 -1.0395  2.1530 -0.6067
  717MOL0     H98917  11.180   6.409   8.951  1.9564  3.8324  0.9228
  717MOL0     H98918  11.113   6.286   9.210  0.0581 -0.2005 -0.3364
  717MOL0     H98919  11.103   6.198   9.055  2.7406 -1.1994 -0.9121
  717MOL0     H98920  11.354   6.318   9.187  1.2346 -3.7589  2.6751
  717MOL0     H98921  11.341   6.280   9.015 -1.1699  0.3624 -0.7604
  717MOL0     H98922  11.265   6.087   9.244 -1.6422 -0.4386 -1.5270
  717MOL0     H98923  11.427   6.086   9.184  0.9650  1.3700 -0.5984
  717MOL0     H98924  11.178   6.024   9.023 -0.2947 -0.7443  2.0913
  717MOL0     H98925  11.296   5.904   9.076  0.3932  0.5076 -0.7757
  717MOL0     H98926  10.523   6.627   9.029 -1.4417  0.2195  2.3337
  717MOL0     H98927  10.285   6.591   8.978 -1.3623 -0.5842 -0.2711
  717MOL0     H98928   9.935   6.472   8.864  2.6644 -1.6056  0.5987
  717MOL0     H98929   9.715   6.462   8.808  1.3328  0.3899  0.7023
  717MOL0     H98930   8.411   6.163   7.345  1.6947  2.5061  0.9397
  717MOL0     H98931   8.173   6.187   7.271  0.1672  5.0771 -0.9211
  717MOL0     H98932   7.611   6.335   7.556 -1.4115  4.0163 -0.6512
  717MOL0     H98933   7.418   6.371   7.444 -0.5823 -0.8594  1.0322
  717MOL0     H98934   7.396   6.436   7.025  1.3426 -1.2667 -1.8821
  717MOL0     H98935   7.390   6.265   6.994 -0.3866 -1.5885  1.4553
  717MOL0     H98936   7.157   6.259   7.061  2.4316 -0.1992 -0.6148
  717MOL0     H98937   7.171   6.362   6.918  0.8559  0.3647  0.0625
  717MOL0     H98938   7.164   6.485   7.191  5.3481  0.0888 -2.7738
  717MOL0     H98939   7.127   6.546   7.028 -0.2740 -0.0901 -0.8043
  717MOL0     H98940   6.966   6.345   7.199 -1.5920  0.0689  0.6866
  717MOL0     H98941   6.929   6.365   7.033 -1.4877  0.2277  0.5286
  717MOL0     H98942   6.733   6.697   7.174 -2.6145 -2.1704  0.9001
  717MOL0     H98943   7.608   6.258   7.069 -0.0050 -1.3853  0.3143
  717MOL0     H98944   7.898   6.330   7.149 -0.2853 -0.4691 -0.0491
  717MOL0     H98945   7.915   6.159   7.189  1.6678  1.6211  0.7778
  717MOL0     H98946   7.819   6.206   7.051  1.5376  2.3690 -0.9963
  718MOL0     O98947   2.409   1.490   3.793  0.4070  0.6375  0.1237
  718MOL0     C98948   2.308   1.485   3.866 -0.6122  0.3584 -0.1547
  718MOL0     O98949   2.321   1.495   4.007  0.2065 -0.6213 -0.1665
  718MOL0     C98950   2.441   1.499   4.075  0.4811  0.1068  0.2711
  718MOL0     C98951   2.528   1.612   4.060 -0.6502 -0.5226 -0.6429
  718MOL0     C98952   2.656   1.613   4.119  0.6929 -0.0381  1.0090
  718MOL0     C98953   2.704   1.493   4.185 -0.2168 -0.8420 -0.2960
  718MOL0     O98954   2.827   1.488   4.235 -0.2041  0.0431  0.3925
  718MOL0     C98955   2.928   1.588   4.187 -0.3999  0.4020  0.6749
  718MOL0     C98956   3.064   1.539   4.230  0.9662 -0.4674 -0.0807
  718MOL0     C98957   3.177   1.632   4.201  0.2515 -0.5133 -0.6519
  718MOL0     C98958   3.306   1.597   4.281  0.8635 -0.4755  0.3628
  718MOL0     C98959   3.407   1.709   4.293  0.6205  0.1601  0.4647
  718MOL0     C98960   3.530   1.659   4.359 -0.4269  0.6376  0.4993
  718MOL0     C98961   3.629   1.587   4.272 -0.2303 -0.2075 -0.2497
  718MOL0     C98962   3.766   1.567   4.338  0.0163 -0.3926  0.0074
  718MOL0     N98963   3.839   1.677   4.402  0.6568  0.7873 -0.0730
  718MOL0     C98964   3.843   1.688   4.538  0.2339  0.3773  0.1708
  718MOL0     C98965   3.952   1.766   4.571  0.8572  0.3792 -0.6360
  718MOL0     C98966   3.995   1.805   4.698 -0.4847 -0.0454 -0.0096
  718MOL0     C98967   3.944   1.946   4.718  0.2422 -0.4178  0.2231
  718MOL0     C98968   3.987   1.990   4.861  0.4405 -0.6949  0.9034
  718MOL0     C98969   3.960   2.138   4.907  0.0283  0.2899 -0.3077
  718MOL0     O98970   4.057   2.215   4.841  0.6038  0.0829 -0.1349
  718MOL0     C98971   4.145   2.299   4.908 -0.6286  0.4535 -0.1863
  718MOL0     C98972   4.129   2.362   5.034 -0.0881  0.0637  0.1635
  718MOL0     C98973   4.228   2.441   5.089  0.0189 -0.7973 -0.4695
  718MOL0     C98974   4.200   2.474   5.238  0.3491 -0.8605  0.3775
  718MOL0     C98975   4.356   2.456   5.026  0.5860 -0.4461  0.5217
  718MOL0     C98976   4.463   2.538   5.082 -0.8278 -0.3195  0.4655
  718MOL0     O98977   4.535   2.618   4.992  0.2706  0.0317 -0.1828
  718MOL0     C98978   4.646   2.686   5.044 -0.1643 -0.4338 -0.2231
  718MOL0     C98979   4.656   2.826   5.034  0.0054 -0.6303  0.4737
  718MOL0     C98980   4.777   2.891   5.053 -0.8002  0.2687 -0.5260
  718MOL0     C98981   4.893   2.820   5.085 -0.0458  0.4989 -1.1228
  718MOL0     O98982   5.006   2.894   5.099 -0.0193 -0.4772 -0.5985
  718MOL0     C98983   5.136   2.827   5.125  0.4320 -0.1609  0.5121
  718MOL0     C98984   5.257   2.925   5.105  0.3619 -0.1879 -0.3410
  718MOL0     C98985   5.259   3.035   5.211  0.3412  1.0728 -0.1286
  718MOL0     C98986   5.315   2.974   5.347 -1.1221  0.0771  0.1201
  718MOL0     C98987   5.369   3.097   5.421  0.1956  0.4403 -0.0575
  718MOL0     C98988   5.454   3.064   5.543 -0.5792 -0.1645  0.3173
  718MOL0     C98989   5.474   3.192   5.627 -0.3288 -0.8998 -0.3904
  718MOL0     C98990   5.601   3.193   5.705  0.4730 -0.2741  0.0770
  718MOL0    Cl98991   5.600   3.070   5.834  0.0933 -0.1857  0.3579
  718MOL0     C98992   4.891   2.677   5.103 -0.2548 -0.6280  0.5888
  718MOL0     C98993   4.768   2.614   5.069 -0.6389  0.1159 -0.1055
  718MOL0     O98994   4.485   2.531   5.201  0.0790 -0.9508 -0.2121
  718MOL0     C98995   4.366   2.408   4.903  0.2978 -0.9580  0.1694
  718MOL0     C98996   4.269   2.328   4.842 -0.1091 -0.1353  0.3339
  718MOL0     N98997   4.008   1.797   4.454 -0.5823 -0.1821 -0.4801
  718MOL0     N98998   3.940   1.750   4.349 -0.1743 -0.0458 -0.9630
  718MOL0     C98999   2.620   1.383   4.199  0.2714  1.2287  0.5683
  718MOL0     C99000   2.490   1.380   4.144 -0.5921  0.1106 -0.4516
  718MOL0     C99001   2.177   1.474   3.792 -0.3648  0.6596  0.5250
  718MOL0     C99002   2.170   1.490   3.651 -0.2244  0.5477  0.5975
  718MOL0     C99003   2.049   1.479   3.587  0.1296 -0.3085  0.0099
  718MOL0     C99004   1.926   1.448   3.653 -0.6812  0.2099 -0.2072
  718MOL0     O99005   1.808   1.435   3.593 -0.9800  0.1639 -0.1995
  718MOL0     C99006   1.794   1.451   3.452 -0.2188 -0.0231  0.7947
  718MOL0     C99007   1.647   1.425   3.407  0.3000 -0.9137  0.1609
  718MOL0     C99008   1.619   1.282   3.361 -0.1226 -0.5908  0.2515
  718MOL0     C99009   1.539   1.188   3.447  0.4245  0.6366  0.5439
  718MOL0     C99010   1.407   1.242   3.486  0.4086 -0.5557 -0.2559
  718MOL0     C99011   1.295   1.281   3.520 -0.4050 -0.0845 -0.5808
  718MOL0     C99012   1.931   1.445   3.791  0.5606 -0.2916 -0.7112
  718MOL0     C99013   2.056   1.456   3.865 -0.3467 -0.3492  0.0440
  718MOL0     C99014   2.038   1.439   4.009 -0.1193 -0.9500 -0.8927
  718MOL0     H99015   2.487   1.697   4.006 -1.8517 -0.5729  0.1665
  718MOL0     H99016   2.714   1.702   4.100 -0.2497  0.1782 -1.0845
  718MOL0     H99017   2.905   1.685   4.232  0.2615  0.1719  1.5369
  718MOL0     H99018   2.927   1.584   4.078  0.9709  0.9667  0.6145
  718MOL0     H99019   3.044   1.535   4.337 -0.4926  1.2227 -0.2598
  718MOL0     H99020   3.093   1.441   4.190  3.2660  0.1045  0.0453
  718MOL0     H99021   3.189   1.650   4.094 -1.1599 -0.3861 -0.8116
  718MOL0     H99022   3.145   1.732   4.231 -0.6456 -0.6144 -1.2264
  718MOL0     H99023   3.273   1.564   4.380 -0.3470  4.2437  1.8065
  718MOL0     H99024   3.356   1.518   4.224  2.4145  0.5188  0.2817
  718MOL0     H99025   3.366   1.794   4.347  2.0560  1.3186 -0.2016
  718MOL0     H99026   3.424   1.759   4.197 -1.7883 -0.2839 -0.2847
  718MOL0     H99027   3.578   1.749   4.399 -1.0955  0.7482  1.0575
  718MOL0     H99028   3.491   1.601   4.443 -1.2413  1.1593  0.4837
  718MOL0     H99029   3.640   1.656   4.187  0.6314 -0.6132 -0.4851
  718MOL0     H99030   3.601   1.491   4.229 -0.9762  0.5977 -1.6306
  718MOL0     H99031   3.743   1.492   4.415  2.6701 -2.5889 -1.1676
  718MOL0     H99032   3.834   1.513   4.271 -0.6707  2.2559 -3.1083
  718MOL0     H99033   3.786   1.636   4.614  0.8386 -0.1982  0.2413
  718MOL0     H99034   4.104   1.791   4.693 -0.8153 -3.3343 -0.5925
  718MOL0     H99035   3.947   1.740   4.771 -0.1307 -0.8028 -0.4265
  718MOL0     H99036   3.992   2.005   4.639  0.4254  0.4384  0.9566
  718MOL0     H99037   3.835   1.950   4.711  0.0394 -0.1693  2.5845
  718MOL0     H99038   3.945   1.920   4.934  1.3850 -1.3499  0.8293
  718MOL0     H99039   4.090   1.956   4.867  0.7524  0.1958  0.7302
  718MOL0     H99040   3.860   2.173   4.883  1.3518  2.8748 -2.5659
  718MOL0     H99041   3.977   2.147   5.015 -0.7258  0.6386 -0.2177
  718MOL0     H99042   4.035   2.356   5.087 -0.4195 -0.1751 -0.4466
  718MOL0     H99043   4.179   2.579   5.258  0.1784 -0.1231 -3.0232
  718MOL0     H99044   4.278   2.435   5.304 -0.1051 -1.1852  0.7366
  718MOL0     H99045   4.114   2.420   5.280 -0.9322 -0.3163 -1.3969
  718MOL0     H99046   4.569   2.885   5.008  0.4108  0.3766  1.3216
  718MOL0     H99047   4.774   2.998   5.038 -0.1506  0.4805  0.7576
  718MOL0     H99048   5.137   2.784   5.225  0.3650 -0.1377  0.5233
  718MOL0     H99049   5.145   2.748   5.050 -0.2311 -1.5948  1.9062
  718MOL0     H99050   5.355   2.876   5.106  0.2592 -0.4244 -1.1363
  718MOL0     H99051   5.245   2.977   5.009 -3.6066  1.9870  1.1052
  718MOL0     H99052   5.160   3.080   5.221 -0.0891  0.0476  0.3762
  718MOL0     H99053   5.319   3.119   5.174 -0.6694  1.5555 -0.7161
  718MOL0     H99054   5.399   2.906   5.330 -0.1675  1.0839  0.6663
  718MOL0     H99055   5.238   2.928   5.409 -0.9257  0.6200  0.7840
  718MOL0     H99056   5.432   3.157   5.354  1.4029  0.3332  0.9569
  718MOL0     H99057   5.286   3.159   5.456  1.2675  1.5445  0.5867
  718MOL0     H99058   5.553   3.028   5.514 -0.6967 -0.1107 -0.1536
  718MOL0     H99059   5.416   2.982   5.605 -2.4526 -1.7896 -2.7076
  718MOL0     H99060   5.392   3.216   5.695  2.0575  1.4107  1.9364
  718MOL0     H99061   5.476   3.272   5.553  2.9423  2.2238  2.6582
  718MOL0     H99062   5.624   3.289   5.752  1.8598 -0.0008 -1.0827
  718MOL0     H99063   5.695   3.183   5.650  1.5004  1.9960  1.2644
  718MOL0     H99064   4.979   2.618   5.127 -1.4556 -2.0131  1.7556
  718MOL0     H99065   4.763   2.505   5.075  0.5817  0.0532 -0.0673
  718MOL0     H99066   4.453   2.427   4.841  1.0523  3.0112  2.1146
  718MOL0     H99067   4.292   2.290   4.743  0.9276  1.4668 -0.0668
  718MOL0     H99068   2.670   1.307   4.258  2.7594  2.0248 -0.3836
  718MOL0     H99069   2.420   1.297   4.143 -0.1387 -0.2841  0.0729
  718MOL0     H99070   2.262   1.492   3.594 -0.1434  0.2646  0.7129
  718MOL0     H99071   2.042   1.496   3.480 -1.5134  0.8666  0.2651
  718MOL0     H99072   1.828   1.550   3.419  0.2699  0.0802  1.5868
  718MOL0     H99073   1.849   1.372   3.401  1.7261  0.3175  2.2615
  718MOL0     H99074   1.623   1.490   3.323 -0.6542 -0.6912  0.5837
  718MOL0     H99075   1.585   1.471   3.485  1.0790 -2.0057  1.4709
  718MOL0     H99076   1.575   1.288   3.261 -1.4692  0.0762  0.8662
  718MOL0     H99077   1.714   1.235   3.331  0.7828  0.3907  1.4834
  718MOL0     H99078   1.590   1.175   3.543 -0.8291  1.1721  1.3173
  718MOL0     H99079   1.524   1.094   3.394  0.4382 -0.0541  1.7312
  718MOL0     H99080   1.199   1.300   3.562 -1.3156 -2.0647 -1.6485
  718MOL0     H99081   1.834   1.439   3.839  0.6297  0.4602 -0.4703
  718MOL0     H99082   2.064   1.536   4.052 -0.6069 -2.1741  2.4433
  718MOL0     H99083   1.932   1.422   4.032 -0.1314 -0.0787 -0.2571
  718MOL0     H99084   2.093   1.365   4.066 -1.4555  0.3723  2.3532
  719MOL0     O99085   6.008   3.255   5.455  0.6015 -0.1650  0.4243
  719MOL0     C99086   5.981   3.256   5.333  0.0297 -0.5001 -0.2612
  719MOL0     O99087   6.055   3.209   5.232 -0.2779 -0.0530  0.2675
  719MOL0     C99088   6.184   3.152   5.262 -0.2513  0.7077 -0.3084
  719MOL0     C99089   6.256   3.158   5.380 -0.0802  0.5190  0.0876
  719MOL0     C99090   6.372   3.077   5.387  0.2362 -0.0787  0.1973
  719MOL0     C99091   6.413   2.993   5.279  0.0623 -0.1107 -0.0272
  719MOL0     O99092   6.512   2.905   5.286 -0.2662 -0.2947 -1.0016
  719MOL0     C99093   6.616   2.912   5.387  0.8724  0.8422 -0.0008
  719MOL0     C99094   6.704   3.039   5.369  0.8675 -0.0722 -0.1817
  719MOL0     C99095   6.789   3.033   5.244  1.6132 -0.0766 -0.5073
  719MOL0     C99096   6.883   3.156   5.249  0.4205 -0.6461  0.0149
  719MOL0     C99097   6.987   3.159   5.133 -0.0435  0.4847 -0.2942
  719MOL0     C99098   7.098   3.068   5.162  0.0602  0.0349  0.0683
  719MOL0     C99099   7.169   3.025   5.037  0.2231 -0.5026 -0.6509
  719MOL0     C99100   7.280   2.933   5.075  0.7685 -0.8989 -0.3640
  719MOL0     N99101   7.358   2.905   4.956  0.0248  0.2911 -0.2371
  719MOL0     C99102   7.433   2.999   4.882 -0.0635 -0.1962  0.5417
  719MOL0     C99103   7.503   2.922   4.787  0.1217  0.3397  0.2403
  719MOL0     C99104   7.576   2.968   4.661 -0.1598 -0.1061 -0.9241
  719MOL0     C99105   7.725   2.935   4.682  0.3885  0.3056 -0.1955
  719MOL0     C99106   7.786   2.992   4.807 -0.3599  0.4141 -0.2079
  719MOL0     C99107   7.937   2.986   4.790  0.0667  0.2393 -0.0115
  719MOL0     O99108   7.997   3.055   4.901  0.1763  0.9995  0.6822
  719MOL0     C99109   8.131   3.091   4.892 -0.2884 -0.7090 -0.0193
  719MOL0     C99110   8.184   3.173   4.996  0.7836 -1.7491  0.5488
  719MOL0     C99111   8.319   3.208   4.997  0.6775 -0.5460 -0.1888
  719MOL0     C99112   8.364   3.288   5.123  0.1525 -0.0723  0.1309
  719MOL0     C99113   8.408   3.149   4.896 -0.3662  0.3921 -0.8618
  719MOL0     C99114   8.561   3.168   4.896  0.2992  0.5993 -0.0136
  719MOL0     O99115   8.619   3.263   4.979  0.0724 -0.4128  0.6509
  719MOL0     C99116   8.760   3.281   4.974  0.0277 -0.1163 -0.9071
  719MOL0     C99117   8.828   3.285   5.099 -0.0315 -0.6497 -0.9211
  719MOL0     C99118   8.963   3.333   5.114 -0.0732  0.6499  0.6931
  719MOL0     C99119   9.041   3.358   4.998  0.4477 -0.6429 -0.9021
  719MOL0     O99120   9.169   3.397   4.993 -0.2281  0.1125  0.2260
  719MOL0     C99121   9.245   3.415   5.109 -0.5627  0.0470  0.1144
  719MOL0     C99122   9.277   3.286   5.178 -0.7449 -0.3621 -1.2804
  719MOL0     C99123   9.371   3.308   5.301  0.2278  0.0571 -0.4376
  719MOL0     C99124   9.288   3.363   5.434  0.7491  0.5180  0.2081
  719MOL0     C99125   9.266   3.254   5.541 -0.1292  1.1806  0.1868
  719MOL0     C99126   9.189   3.297   5.663 -0.2419 -0.9580  0.5216
  719MOL0     C99127   9.147   3.176   5.742 -0.2103 -0.4319 -0.1453
  719MOL0     C99128   9.062   3.204   5.861 -0.3058  0.3682 -0.1280
  719MOL0    Cl99129   8.974   3.054   5.900 -0.1576 -0.1873 -0.4196
  719MOL0     C99130   8.964   3.365   4.882  0.0263  0.2349 -0.3609
  719MOL0     C99131   8.831   3.326   4.863 -0.4067 -0.0857  0.4496
  719MOL0     O99132   8.629   3.096   4.815 -0.3129 -0.2002  0.0069
  719MOL0     C99133   8.352   3.066   4.804  0.4183  0.0569  0.6197
  719MOL0     C99134   8.216   3.045   4.800 -0.4147 -0.0280  0.0708
  719MOL0     N99135   7.468   2.785   4.806  0.8743 -0.9268  0.5951
  719MOL0     N99136   7.377   2.782   4.903 -0.3074 -1.0086 -0.0546
  719MOL0     C99137   6.348   3.004   5.155  0.1355  0.1845 -0.5732
  719MOL0     C99138   6.233   3.082   5.153 -0.5844  0.0217 -0.4760
  719MOL0     C99139   5.849   3.317   5.292  0.6037 -0.4653 -0.4710
  719MOL0     C99140   5.795   3.280   5.170  0.0970  0.0045  0.0778
  719MOL0     C99141   5.667   3.324   5.136  0.0901  0.0471 -0.0068
  719MOL0     C99142   5.592   3.413   5.210  0.5495  0.1761  0.0789
  719MOL0     O99143   5.469   3.429   5.160 -0.1024 -0.7332 -0.5250
  719MOL0     C99144   5.368   3.489   5.238  0.1706  0.6501  0.5164
  719MOL0     C99145   5.238   3.489   5.158  0.4025  0.0841  0.5747
  719MOL0     C99146   5.238   3.621   5.084 -0.5011  0.2230 -0.2675
  719MOL0     C99147   5.117   3.630   4.993  0.3498  0.0092  0.5528
  719MOL0     C99148   5.128   3.759   4.924 -0.1315  0.2633  1.0796
  719MOL0     C99149   5.149   3.864   4.862  0.7092  0.0956  0.0333
  719MOL0     C99150   5.653   3.470   5.324  0.2190 -0.1851  1.0184
  719MOL0     C99151   5.772   3.412   5.370  0.3451 -0.3820 -0.2994
  719MOL0     C99152   5.803   3.463   5.510  0.3754  0.6808  0.3347
  719MOL0     H99153   6.232   3.199   5.477  1.1632 -3.6292  2.4166
  719MOL0     H99154   6.418   3.076   5.485 -0.0494  0.3256  0.3398
  719MOL0     H99155   6.674   2.821   5.375  0.5257  0.2901  2.2208
  719MOL0     H99156   6.562   2.897   5.481  0.0886 -2.9347 -0.8977
  719MOL0     H99157   6.639   3.126   5.358 -1.3605 -1.7907 -1.4685
  719MOL0     H99158   6.763   3.042   5.461  1.2819 -1.1232 -0.3974
  719MOL0     H99159   6.829   2.931   5.247 -0.1472 -0.7863  0.0733
  719MOL0     H99160   6.728   3.041   5.154  2.6818 -0.2847 -1.2683
  719MOL0     H99161   6.824   3.248   5.235 -0.4891 -1.2054  0.0908
  719MOL0     H99162   6.941   3.158   5.341 -0.3255 -0.7030  0.4965
  719MOL0     H99163   7.037   3.256   5.127  1.2548 -0.1454 -0.1537
  719MOL0     H99164   6.933   3.139   5.039 -0.8820  1.5778 -0.0651
  719MOL0     H99165   7.174   3.122   5.219 -2.3767  2.5860  1.1296
  719MOL0     H99166   7.059   2.978   5.212  2.5077 -0.5773  1.0162
  719MOL0     H99167   7.215   3.111   4.988 -0.9133  2.0628  2.5132
  719MOL0     H99168   7.116   2.965   4.962  2.5132 -1.4967 -1.5762
  719MOL0     H99169   7.335   2.980   5.158  1.5640 -0.9137 -0.8709
  719MOL0     H99170   7.239   2.832   5.087  1.2191 -1.0150  0.2524
  719MOL0     H99171   7.427   3.107   4.886  0.0651 -0.2252  1.9489
  719MOL0     H99172   7.561   3.074   4.639 -3.3877 -0.1705  0.3447
  719MOL0     H99173   7.535   2.899   4.586 -1.8170 -0.1044 -0.0736
  719MOL0     H99174   7.724   2.826   4.696 -2.6093  0.5966  3.7481
  719MOL0     H99175   7.782   2.965   4.594 -0.5779  2.1794 -0.2478
  719MOL0     H99176   7.762   3.098   4.820  1.3799  0.5102  2.8775
  719MOL0     H99177   7.749   2.946   4.899 -0.9154  1.4304  0.0945
  719MOL0     H99178   7.962   2.881   4.772  2.1803  0.3731  1.6274
  719MOL0     H99179   7.965   3.038   4.698 -0.4812  0.0927 -0.2594
  719MOL0     H99180   8.127   3.205   5.083 -1.0597 -0.6626 -0.9823
  719MOL0     H99181   8.445   3.357   5.097  0.1942 -0.9254 -2.2418
  719MOL0     H99182   8.398   3.227   5.207 -2.4087 -0.8257  0.7033
  719MOL0     H99183   8.290   3.354   5.169 -0.3759 -0.7693  0.2767
  719MOL0     H99184   8.760   3.259   5.180 -0.5716  1.8968 -0.4623
  719MOL0     H99185   9.009   3.346   5.211 -2.3974  1.3757  1.7460
  719MOL0     H99186   9.344   3.450   5.079 -1.3017  0.2786 -2.2959
  719MOL0     H99187   9.209   3.499   5.169 -0.5460  0.5579 -0.5773
  719MOL0     H99188   9.186   3.240   5.219  0.1882  0.2479  1.7654
  719MOL0     H99189   9.324   3.216   5.109 -2.1199 -2.0388 -0.6014
  719MOL0     H99190   9.447   3.383   5.274  1.1847 -1.6180 -2.7993
  719MOL0     H99191   9.428   3.219   5.326 -0.7047  0.1369  2.3052
  719MOL0     H99192   9.190   3.406   5.409  0.2036 -0.4370  0.6430
  719MOL0     H99193   9.343   3.436   5.494 -1.0571  1.9123  0.2411
  719MOL0     H99194   9.213   3.171   5.493  0.7082  2.2525 -2.7540
  719MOL0     H99195   9.366   3.217   5.568 -1.5081 -1.4771  2.1522
  719MOL0     H99196   9.100   3.343   5.620  1.7379  1.9703 -0.8008
  719MOL0     H99197   9.236   3.376   5.723 -0.8531  1.3038 -1.7958
  719MOL0     H99198   9.241   3.137   5.783  1.1485 -1.5335 -3.8933
  719MOL0     H99199   9.099   3.102   5.677 -0.0113 -1.5130  0.9051
  719MOL0     H99200   8.991   3.279   5.825 -1.9170  0.1412  2.3305
  719MOL0     H99201   9.120   3.238   5.947  2.5843 -0.7318 -1.5169
  719MOL0     H99202   9.017   3.397   4.792 -0.5772  5.6905  0.8902
  719MOL0     H99203   8.794   3.332   4.761  0.3306  0.6274  0.2117
  719MOL0     H99204   8.413   3.029   4.722  3.0023  2.2697  1.3906
  719MOL0     H99205   8.187   2.980   4.717  1.1758  0.9008 -1.2965
  719MOL0     H99206   6.384   2.956   5.065  3.9463 -0.0270  0.8939
  719MOL0     H99207   6.173   3.086   5.062 -1.0053  0.1270 -0.1980
  719MOL0     H99208   5.847   3.200   5.119 -0.3165 -0.3278  0.1639
  719MOL0     H99209   5.617   3.277   5.052 -0.0736 -2.2436  1.2975
  719MOL0     H99210   5.363   3.420   5.322  2.1925  0.1283  0.2467
  719MOL0     H99211   5.398   3.592   5.263 -0.6662  0.7329  1.2353
  719MOL0     H99212   5.152   3.479   5.226 -0.9298  1.3290 -0.8450
  719MOL0     H99213   5.234   3.405   5.088  0.0924 -0.9384  1.7847
  719MOL0     H99214   5.238   3.701   5.159 -1.1426  0.2949 -0.3389
  719MOL0     H99215   5.326   3.635   5.021 -0.1564  1.2552  0.4217
  719MOL0     H99216   5.017   3.612   5.034  1.1185 -3.8904  1.0750
  719MOL0     H99217   5.125   3.551   4.918 -1.5924  0.1892  0.0984
  719MOL0     H99218   5.170   3.951   4.803  2.9674 -0.5359 -0.1633
  719MOL0     H99219   5.600   3.550   5.374 -2.5030  1.0697 -3.2671
  719MOL0     H99220   5.839   3.385   5.578 -1.0235  0.8113  1.2740
  719MOL0     H99221   5.885   3.533   5.498 -0.7157  1.5676 -2.8135
  719MOL0     H99222   5.717   3.515   5.554  2.0140  2.2342  1.8840
  720MOL0     O99223   6.435   8.891   2.179  0.6996  0.1994 -0.3167
  720MOL0     C99224   6.499   8.969   2.256  0.4387  0.0453 -0.8380
  720MOL0     O99225   6.454   9.009   2.375 -0.1574 -0.7052  0.2001
  720MOL0     C99226   6.351   8.936   2.429  0.1177 -0.0329  0.2564
  720MOL0     C99227   6.368   8.860   2.547 -1.0756  0.7294 -0.2201
  720MOL0     C99228   6.264   8.801   2.606  0.2944  0.9563  0.6682
  720MOL0     C99229   6.135   8.808   2.557  0.5384  0.8295  0.9850
  720MOL0     O99230   6.026   8.734   2.600  0.0944 -0.5262 -0.2422
  720MOL0     C99231   6.034   8.662   2.724 -0.1325 -0.9675 -0.2730
  720MOL0     C99232   6.110   8.520   2.707 -0.1077 -0.3843 -0.1172
  720MOL0     C99233   6.067   8.437   2.583  0.0161 -0.2967 -0.3047
  720MOL0     C99234   6.160   8.318   2.561 -0.4262  0.9342  0.5497
  720MOL0     C99235   6.077   8.199   2.527 -0.5795  0.8841  0.3478
  720MOL0     C99236   6.155   8.070   2.502  0.0893 -0.3523  0.1957
  720MOL0     C99237   6.228   8.081   2.363  0.4439 -0.0928 -0.4155
  720MOL0     C99238   6.288   7.954   2.311  0.0500  0.1979 -0.1161
  720MOL0     N99239   6.404   7.915   2.393  0.3918 -0.1403 -0.3918
  720MOL0     C99240   6.398   7.837   2.504 -0.5675 -0.2787 -0.5804
  720MOL0     C99241   6.511   7.773   2.515 -0.0631  0.0940  0.0894
  720MOL0     C99242   6.548   7.661   2.619 -0.6092  0.0563  0.4528
  720MOL0     C99243   6.693   7.669   2.678  0.5147 -0.4519  0.3349
  720MOL0     C99244   6.717   7.563   2.787 -0.9224 -0.4324 -0.6853
  720MOL0     C99245   6.856   7.577   2.843  0.0285 -0.0437 -0.4591
  720MOL0     O99246   6.954   7.533   2.743  0.4542  0.4151 -0.7760
  720MOL0     C99247   7.087   7.522   2.772 -0.6358  0.3485  0.4944
  720MOL0     C99248   7.140   7.527   2.907 -0.1567  0.1333  0.0911
  720MOL0     C99249   7.277   7.518   2.938 -0.7262 -1.0134 -0.3115
  720MOL0     C99250   7.315   7.549   3.088 -0.2236 -0.1036  0.0893
  720MOL0     C99251   7.355   7.478   2.836  0.3264 -0.4862  0.4172
  720MOL0     C99252   7.497   7.425   2.854  0.3015 -0.4491  0.0159
  720MOL0     O99253   7.561   7.393   2.737 -0.0502  0.4650 -0.3661
  720MOL0     C99254   7.689   7.337   2.746 -0.6737 -0.5857  0.0777
  720MOL0     C99255   7.798   7.415   2.726  0.0403  0.5934  0.3992
  720MOL0     C99256   7.927   7.354   2.726 -0.0644 -0.4165  0.0820
  720MOL0     C99257   7.942   7.221   2.740  0.3528 -0.9122  0.9211
  720MOL0     O99258   8.068   7.165   2.744 -0.1927 -0.0086 -0.5409
  720MOL0     C99259   8.183   7.231   2.688  0.4309 -0.3016  1.0689
  720MOL0     C99260   8.253   7.310   2.797 -0.5859 -0.2778  0.5746
  720MOL0     C99261   8.332   7.227   2.900  0.7276 -0.0948  0.6770
  720MOL0     C99262   8.473   7.215   2.847 -0.4707  0.7650  0.1235
  720MOL0     C99263   8.541   7.105   2.936 -0.0509 -0.1263 -0.1152
  720MOL0     C99264   8.681   7.088   2.893  0.3324 -0.1832  0.6663
  720MOL0     C99265   8.755   6.972   2.969 -0.6825  0.2897 -0.3886
  720MOL0     C99266   8.910   6.983   2.945 -0.2387 -0.3582  0.4600
  720MOL0    Cl99267   8.951   7.018   2.773 -0.6864 -0.2670 -0.0544
  720MOL0     C99268   7.831   7.142   2.762 -0.1842 -0.1181 -0.7658
  720MOL0     C99269   7.702   7.194   2.758  0.2028 -0.5408  0.1194
  720MOL0     O99270   7.537   7.398   2.968  0.4096 -0.0072  0.1424
  720MOL0     C99271   7.300   7.464   2.700  0.4760 -0.4065 -0.3937
  720MOL0     C99272   7.174   7.495   2.674  0.6399 -0.5970 -0.0779
  720MOL0     N99273   6.597   7.814   2.417  0.5271  0.0477  0.0585
  720MOL0     N99274   6.529   7.893   2.336 -0.7055 -1.2740  0.0388
  720MOL0     C99275   6.113   8.884   2.442 -0.6294 -0.1921 -0.3354
  720MOL0     C99276   6.222   8.957   2.379 -0.4316  0.8115 -0.3919
  720MOL0     C99277   6.631   9.032   2.212  0.1017 -0.5113  0.3094
  720MOL0     C99278   6.684   9.148   2.280 -0.6891  0.0341  0.0840
  720MOL0     C99279   6.787   9.231   2.224 -0.3827  0.3085 -0.9682
  720MOL0     C99280   6.847   9.194   2.108 -0.3647 -0.4668  0.2990
  720MOL0     O99281   6.953   9.265   2.051 -0.6146  0.3406  0.5341
  720MOL0     C99282   6.970   9.396   2.097 -0.1609 -0.0065  0.6057
  720MOL0     C99283   7.046   9.469   1.987 -0.5392 -0.5491  0.0768
  720MOL0     C99284   6.968   9.513   1.864 -0.3477  0.7363 -0.2347
  720MOL0     C99285   6.858   9.616   1.891  0.5422 -0.1926  0.3295
  720MOL0     C99286   6.906   9.745   1.935 -0.3984 -0.0763  0.3242
  720MOL0     C99287   6.945   9.856   1.963  0.0585 -0.6616  1.2584
  720MOL0     C99288   6.814   9.076   2.043  0.3632 -0.0472 -0.9220
  720MOL0     C99289   6.709   8.995   2.092  0.5823  0.2264  0.3224
  720MOL0     C99290   6.669   8.884   2.008 -0.3798 -0.5632  0.0480
  720MOL0     H99291   6.461   8.836   2.600 -1.5969 -2.5785 -0.5471
  720MOL0     H99292   6.261   8.752   2.702 -0.0676  0.3139  0.3356
  720MOL0     H99293   5.929   8.641   2.745 -0.0170 -2.6317 -1.1789
  720MOL0     H99294   6.074   8.722   2.806 -2.0016  2.5771 -1.7367
  720MOL0     H99295   6.217   8.539   2.693  0.0478 -0.8225  0.4238
  720MOL0     H99296   6.101   8.463   2.800  1.6930 -0.1066  0.2792
  720MOL0     H99297   5.964   8.405   2.600 -0.5224  0.7880 -1.3561
  720MOL0     H99298   6.064   8.497   2.491 -2.4392 -0.2018 -0.2203
  720MOL0     H99299   6.229   8.324   2.476  1.3437  0.0463  1.8402
  720MOL0     H99300   6.223   8.308   2.650 -0.6161 -1.9880  0.4465
  720MOL0     H99301   6.025   8.222   2.433  3.3720 -2.2812 -2.9948
  720MOL0     H99302   6.004   8.177   2.605 -0.1118 -0.2854  0.4800
  720MOL0     H99303   6.228   8.062   2.583 -1.3167  0.7942  1.6280
  720MOL0     H99304   6.089   7.983   2.497  1.7528 -1.5813 -1.5119
  720MOL0     H99305   6.297   8.164   2.353 -0.7412  0.8353 -1.2605
  720MOL0     H99306   6.153   8.105   2.287  1.7394  0.6424 -1.4934
  720MOL0     H99307   6.203   7.885   2.314  1.1773 -1.2088  0.7549
  720MOL0     H99308   6.322   7.976   2.210  0.7685  0.0391  0.0803
  720MOL0     H99309   6.307   7.827   2.563 -0.5710 -1.1660 -0.7178
  720MOL0     H99310   6.543   7.567   2.564  2.3652  1.0925 -1.8696
  720MOL0     H99311   6.484   7.665   2.708  1.4015 -0.4975  1.9986
  720MOL0     H99312   6.768   7.656   2.599 -0.0677  4.0507 -1.2298
  720MOL0     H99313   6.703   7.769   2.722  2.2365 -1.0519  1.3962
  720MOL0     H99314   6.646   7.586   2.867  0.4138  2.4806 -0.1956
  720MOL0     H99315   6.708   7.462   2.747  0.9427 -0.5130 -0.9933
  720MOL0     H99316   6.880   7.680   2.869 -0.3193  0.1280 -0.7995
  720MOL0     H99317   6.871   7.510   2.928  2.6756 -0.5976 -1.2839
  720MOL0     H99318   7.076   7.557   2.989  1.6683  1.2235  1.1935
  720MOL0     H99319   7.224   7.584   3.138  0.4214  3.2794 -0.8788
  720MOL0     H99320   7.387   7.631   3.082  0.5168 -0.8299 -1.5679
  720MOL0     H99321   7.357   7.464   3.144 -0.8268  0.2305  1.0881
  720MOL0     H99322   7.783   7.520   2.704  0.5346  0.6260  0.1829
  720MOL0     H99323   8.005   7.424   2.697 -2.0410  1.3169 -1.4043
  720MOL0     H99324   8.250   7.164   2.634  0.8682  1.3440 -0.5379
  720MOL0     H99325   8.136   7.298   2.615 -0.2650 -2.0257 -0.1184
  720MOL0     H99326   8.316   7.387   2.751 -3.2770  0.1799 -2.7674
  720MOL0     H99327   8.178   7.360   2.860  0.7896  2.9278 -0.1434
  720MOL0     H99328   8.285   7.131   2.925  1.9431 -0.4326  1.7241
  720MOL0     H99329   8.344   7.275   2.997  0.7840 -0.3518  0.7965
  720MOL0     H99330   8.528   7.310   2.846  1.0314 -0.0747  0.9626
  720MOL0     H99331   8.472   7.181   2.743  1.8680  0.1284  0.2699
  720MOL0     H99332   8.530   7.134   3.041 -2.0311 -0.5062 -0.1862
  720MOL0     H99333   8.481   7.015   2.921  1.6791 -1.3339 -0.1425
  720MOL0     H99334   8.737   7.179   2.918 -1.3957  0.5472  2.0389
  720MOL0     H99335   8.682   7.072   2.785 -1.0134  0.4547  0.5414
  720MOL0     H99336   8.724   6.874   2.931  0.5521  0.1123 -0.9903
  720MOL0     H99337   8.735   6.979   3.076  2.8407 -0.8522  0.4818
  720MOL0     H99338   8.963   6.893   2.976 -1.9522 -1.8366 -0.7454
  720MOL0     H99339   8.956   7.065   3.002  0.8431 -0.1398 -0.6720
  720MOL0     H99340   7.858   7.037   2.767  1.6746  0.3337 -0.6081
  720MOL0     H99341   7.608   7.140   2.772 -0.2709  0.8696  3.0717
  720MOL0     H99342   7.357   7.423   2.618  2.7538  1.1555  0.3060
  720MOL0     H99343   7.126   7.491   2.576  2.8621  3.1399 -1.5215
  720MOL0     H99344   6.014   8.884   2.397 -1.7445  1.7842  1.9153
  720MOL0     H99345   6.196   9.030   2.303 -0.0794  3.5714  1.9712
  720MOL0     H99346   6.645   9.155   2.382 -1.9365  0.4219 -0.4037
  720MOL0     H99347   6.805   9.323   2.277  0.9348  0.9211 -2.3937
  720MOL0     H99348   6.875   9.447   2.119  0.5362  1.5285  0.1864
  720MOL0     H99349   7.036   9.385   2.183 -0.4060 -0.9507  0.6782
  720MOL0     H99350   7.118   9.395   1.951 -0.8730 -2.3742  2.8741
  720MOL0     H99351   7.103   9.548   2.036 -0.6143 -1.3724  1.5575
  720MOL0     H99352   7.036   9.555   1.789 -1.1086  2.0415 -0.2258
  720MOL0     H99353   6.920   9.423   1.824 -2.3701  0.7134  1.9924
  720MOL0     H99354   6.794   9.576   1.971  0.5105  1.1156  0.9839
  720MOL0     H99355   6.798   9.616   1.799 -2.1152  0.6667  1.9428
  720MOL0     H99356   6.980   9.956   1.981 -0.6798 -0.7300  3.2198
  720MOL0     H99357   6.864   9.054   1.949  0.2199  1.8264 -1.4889
  720MOL0     H99358   6.751   8.885   1.935 -1.1053  4.4057 -1.0075
  720MOL0     H99359   6.660   8.789   2.063  1.4009 -1.6414 -1.4063
  720MOL0     H99360   6.580   8.924   1.960 -0.5955  0.0447  0.9314
  721MOL0     O99361   0.653   4.075  10.740 -1.1820 -0.1858  0.2263
  721MOL0     C99362   0.566   4.111  10.821  0.0947 -0.2359  0.4051
  721MOL0     O99363   0.587   4.173  10.935 -0.4635 -0.6423 -0.1195
  721MOL0     C99364   0.715   4.166  10.985  1.0104  0.1791 -0.3823
  721MOL0     C99365   0.773   4.044  11.023  0.3202 -0.1749 -0.3895
  721MOL0     C99366   0.901   4.046  11.081 -0.1353  0.1008  0.0718
  721MOL0     C99367   0.970   4.159  11.105  0.2146  0.0143 -0.6438
  721MOL0     O99368   1.086   4.148  11.170  0.3948 -0.4787 -0.8546
  721MOL0     C99369   1.170   4.268  11.218  0.7976  0.0929 -0.2016
  721MOL0     C99370   1.316   4.216  11.228 -0.2755 -0.5176 -0.4434
  721MOL0     C99371   1.379   4.200  11.087 -0.2349 -0.6352  0.2254
  721MOL0     C99372   1.528   4.210  11.099 -0.0319  0.2965  0.2657
  721MOL0     C99373   1.595   4.215  10.962 -0.4287  0.0502 -0.7431
  721MOL0     C99374   1.740   4.266  10.977  0.8240  0.6973 -0.1231
  721MOL0     C99375   1.829   4.230  10.858  0.0273  0.1271 -0.1693
  721MOL0     C99376   1.777   4.279  10.715 -0.6576 -0.3542  0.1919
  721MOL0     N99377   1.778   4.422  10.699 -0.3048 -0.2311  0.5331
  721MOL0     C99378   1.895   4.481  10.652  0.6504  0.0576  0.6448
  721MOL0     C99379   1.887   4.607  10.702  1.0298 -0.6739 -0.5131
  721MOL0     C99380   1.990   4.713  10.693 -0.0397 -0.3420  0.5690
  721MOL0     C99381   2.078   4.713  10.810 -0.4643  0.4339  0.1737
  721MOL0     C99382   2.180   4.594  10.798  0.1096  0.3809  0.8971
  721MOL0     C99383   2.302   4.622  10.891  0.1577 -0.1355 -0.5177
  721MOL0     O99384   2.407   4.523  10.877  0.1059 -0.3156 -0.3148
  721MOL0     C99385   2.528   4.526  10.932 -0.2604 -0.1169  0.3363
  721MOL0     C99386   2.564   4.615  11.032  0.6419 -0.6698  0.9284
  721MOL0     C99387   2.692   4.640  11.079  0.3139  0.5038  0.3434
  721MOL0     C99388   2.698   4.756  11.179 -1.0313  0.1065 -0.4660
  721MOL0     C99389   2.795   4.558  11.036 -0.3390  0.5670 -0.2337
  721MOL0     C99390   2.937   4.571  11.078 -0.4310 -0.1732  0.5836
  721MOL0     O99391   2.960   4.676  11.160 -0.0465  0.2802 -0.2586
  721MOL0     C99392   3.093   4.712  11.202 -0.1385  0.8206  0.3502
  721MOL0     C99393   3.206   4.723  11.124  0.6863 -0.3247 -0.5763
  721MOL0     C99394   3.335   4.754  11.172  0.5588 -1.0710  0.0053
  721MOL0     C99395   3.358   4.787  11.302 -0.7678  0.5964  0.0433
  721MOL0     O99396   3.483   4.839  11.326 -0.2533 -0.3527 -0.4538
  721MOL0     C99397   3.528   4.840  11.462  0.4124  0.5438  0.0956
  721MOL0     C99398   3.682   4.837  11.453 -0.3784 -0.1525  0.6278
  721MOL0     C99399   3.745   4.722  11.363 -0.6743 -0.7374 -0.2864
  721MOL0     C99400   3.890   4.755  11.323 -0.0494 -0.6711  0.1723
  721MOL0     C99401   3.967   4.637  11.274 -0.4206 -0.5844 -0.8194
  721MOL0     C99402   4.103   4.689  11.219  1.1188 -0.0192 -0.0081
  721MOL0     C99403   4.196   4.774  11.310 -0.3049 -0.5863  0.4079
  721MOL0     C99404   4.327   4.813  11.231 -0.7882 -0.0070 -0.1863
  721MOL0    Cl99405   4.444   4.870  11.355 -0.1005  0.0830  0.1605
  721MOL0     C99406   3.247   4.777  11.387 -0.3064  0.0066 -0.2781
  721MOL0     C99407   3.117   4.753  11.332  0.4645 -0.0657 -0.2709
  721MOL0     O99408   3.025   4.503  11.027 -0.2345 -0.1382  0.4528
  721MOL0     C99409   2.764   4.463  10.939  0.3636  0.4989  0.6274
  721MOL0     C99410   2.636   4.452  10.884 -0.3637 -0.8735 -0.0890
  721MOL0     N99411   1.759   4.620  10.760 -0.4564 -0.8836 -0.2648
  721MOL0     N99412   1.698   4.511  10.750  0.6275 -0.0363  0.1713
  721MOL0     C99413   0.906   4.279  11.084  0.0453 -0.8334 -0.3767
  721MOL0     C99414   0.788   4.285  11.018  0.6515  0.0891 -0.3785
  721MOL0     C99415   0.423   4.114  10.768 -0.6186 -0.2168  0.2663
  721MOL0     C99416   0.404   4.161  10.637 -0.6719  0.3083 -0.2632
  721MOL0     C99417   0.277   4.170  10.588 -0.2358 -0.3623  0.5272
  721MOL0     C99418   0.169   4.123  10.659 -0.0632 -0.9477 -0.4946
  721MOL0     O99419   0.042   4.114  10.613  0.0146  0.6358 -0.1267
  721MOL0     C99420   0.029   4.038  10.490  0.2755  0.4472 -0.7817
  721MOL0     C99421  -0.116   4.028  10.439  0.0334  0.7577 -1.1723
  721MOL0     C99422  -0.121   3.925  10.338  0.9601  0.4838 -0.7136
  721MOL0     C99423  -0.233   3.942  10.242  0.2101 -0.3891  0.3530
  721MOL0     C99424  -0.362   3.906  10.307  0.1728 -0.2069 -0.2633
  721MOL0     C99425  -0.450   3.873  10.378 -0.0587 -0.0818 -0.0776
  721MOL0     C99426   0.192   4.088  10.793 -0.0243  0.1902  0.0354
  721MOL0     C99427   0.316   4.074  10.848 -0.6073 -0.4169 -0.0726
  721MOL0     C99428   0.329   4.023  10.986  0.5695 -0.5872  0.0667
  721MOL0     H99429   0.720   3.950  11.011  0.7360 -0.3383 -1.0149
  721MOL0     H99430   0.934   3.955  11.131 -0.6765  1.1139  2.4082
  721MOL0     H99431   1.133   4.312  11.311  0.5914 -1.5335  0.5188
  721MOL0     H99432   1.163   4.346  11.142 -1.7778  1.2022  1.0527
  721MOL0     H99433   1.373   4.285  11.290 -2.3463  1.5117 -0.6712
  721MOL0     H99434   1.317   4.115  11.272  2.3940 -0.4344 -0.1995
  721MOL0     H99435   1.342   4.117  11.026 -0.6804  1.5903 -2.8070
  721MOL0     H99436   1.345   4.289  11.032  1.6640  0.1048  0.1722
  721MOL0     H99437   1.537   4.307  11.150 -1.5031 -0.5007  2.1936
  721MOL0     H99438   1.579   4.134  11.161  1.0266  1.3560  0.7485
  721MOL0     H99439   1.530   4.268  10.893 -1.5790 -0.6824 -0.2495
  721MOL0     H99440   1.609   4.115  10.920 -0.0774 -1.8500  3.4218
  721MOL0     H99441   1.733   4.373  10.996  0.6430  0.5726  0.5155
  721MOL0     H99442   1.793   4.223  11.062  1.1861  1.7661  0.2055
  721MOL0     H99443   1.851   4.123  10.853 -1.0921 -0.0614 -2.5056
  721MOL0     H99444   1.923   4.281  10.879 -1.5300  2.2668  2.2746
  721MOL0     H99445   1.836   4.236  10.633 -1.7528  0.5685 -1.1096
  721MOL0     H99446   1.674   4.246  10.705  0.3192 -3.2734 -1.3626
  721MOL0     H99447   1.979   4.450  10.591 -0.7971  1.2853 -2.1729
  721MOL0     H99448   1.934   4.806  10.677  2.0581  0.4758 -3.1038
  721MOL0     H99449   2.048   4.693  10.602 -0.0721  0.9838  0.2386
  721MOL0     H99450   2.134   4.807  10.814  1.6590 -0.7774  0.8586
  721MOL0     H99451   2.023   4.708  10.905  0.3470 -0.9930  0.6151
  721MOL0     H99452   2.144   4.493  10.821  0.6073 -0.0889 -0.2793
  721MOL0     H99453   2.225   4.587  10.699  0.1583 -0.1726  0.9559
  721MOL0     H99454   2.348   4.720  10.877  1.4359 -0.3853  1.4993
  721MOL0     H99455   2.257   4.616  10.991 -0.5876  0.8720 -0.7722
  721MOL0     H99456   2.482   4.669  11.079  0.8547  0.2906  0.2303
  721MOL0     H99457   2.611   4.822  11.183 -0.6552  0.5808  1.7530
  721MOL0     H99458   2.784   4.819  11.153 -1.8437  1.7846  0.6991
  721MOL0     H99459   2.720   4.708  11.275  2.3204  1.8232 -0.2223
  721MOL0     H99460   3.192   4.720  11.017  2.3565 -0.9828 -0.7973
  721MOL0     H99461   3.403   4.766  11.087 -1.5614  1.0377 -1.5291
  721MOL0     H99462   3.500   4.931  11.514  1.3521  1.0426 -0.2433
  721MOL0     H99463   3.486   4.753  11.513 -0.7019  1.8012  1.4003
  721MOL0     H99464   3.724   4.926  11.406  4.2327 -1.8141  1.0649
  721MOL0     H99465   3.731   4.841  11.551  1.6011 -1.9859 -0.2121
  721MOL0     H99466   3.680   4.704  11.277 -0.4447 -0.5333 -0.5070
  721MOL0     H99467   3.746   4.625  11.412 -0.4692  0.7014  2.7867
  721MOL0     H99468   3.943   4.795  11.410 -0.6279  2.1565 -0.6610
  721MOL0     H99469   3.886   4.837  11.250  1.5465 -0.0999  0.6858
  721MOL0     H99470   3.995   4.565  11.352 -0.2310  1.0015  0.6276
  721MOL0     H99471   3.912   4.585  11.194 -1.9434  2.9813 -2.3191
  721MOL0     H99472   4.078   4.767  11.147  0.4125  0.2640  0.5276
  721MOL0     H99473   4.154   4.614  11.157  0.1170 -0.0199 -0.8660
  721MOL0     H99474   4.205   4.724  11.407 -1.4847 -1.3865  0.1345
  721MOL0     H99475   4.150   4.872  11.325  1.0253 -0.2268  2.5721
  721MOL0     H99476   4.296   4.896  11.167  0.1262  0.1304 -0.4683
  721MOL0     H99477   4.356   4.728  11.168  0.9817 -1.2134  2.0929
  721MOL0     H99478   3.260   4.800  11.492  3.4261 -3.8410  0.3966
  721MOL0     H99479   3.031   4.755  11.398  0.2456  0.0926 -0.5562
  721MOL0     H99480   2.832   4.388  10.901 -2.9112 -1.6537 -1.5137
  721MOL0     H99481   2.616   4.382  10.803 -1.7988  2.7540 -3.1430
  721MOL0     H99482   0.956   4.367  11.123 -1.2974 -0.9358  1.6935
  721MOL0     H99483   0.739   4.381  11.005  1.1906  0.3690 -0.3633
  721MOL0     H99484   0.494   4.192  10.585  0.5325  0.2503  1.6749
  721MOL0     H99485   0.261   4.205  10.486 -1.7154  0.6366  1.0769
  721MOL0     H99486   0.086   4.096  10.417 -0.1830  0.6673 -0.9716
  721MOL0     H99487   0.079   3.941  10.498 -0.8294 -0.2948 -2.2995
  721MOL0     H99488  -0.150   4.121  10.391 -3.4373 -0.1099 -0.6127
  721MOL0     H99489  -0.186   4.010  10.520  1.5793  2.1898  0.5841
  721MOL0     H99490  -0.029   3.933  10.279  1.2844  2.6037  0.0088
  721MOL0     H99491  -0.138   3.825  10.379  0.4438 -0.9005 -4.0060
  721MOL0     H99492  -0.208   3.880  10.155 -1.9282 -1.1179  0.2034
  721MOL0     H99493  -0.241   4.045  10.208 -1.6189  0.4083  2.9497
  721MOL0     H99494  -0.534   3.832  10.430  0.0132  1.5858  1.4631
  721MOL0     H99495   0.106   4.054  10.849 -0.3581 -1.9499 -1.6246
  721MOL0     H99496   0.259   3.941  11.007 -0.5659  0.4362  0.3938
  721MOL0     H99497   0.429   3.980  10.997  1.0669  0.8267  1.4933
  721MOL0     H99498   0.327   4.105  11.059  2.3616 -1.5593  1.2909
  722MOL0     O99499   8.170   9.109   1.277 -0.2456 -0.3195 -0.1379
  722MOL0     C99500   8.192   9.125   1.397 -0.7216  0.0341  0.8745
  722MOL0     O99501   8.320   9.119   1.451 -0.2575 -0.0017 -0.5343
  722MOL0     C99502   8.421   9.056   1.386 -0.5789 -0.5105 -0.0926
  722MOL0     C99503   8.491   8.962   1.458 -1.4322 -0.3767 -0.2483
  722MOL0     C99504   8.611   8.901   1.412 -0.1123  0.0006  0.4989
  722MOL0     C99505   8.666   8.951   1.287  0.4483  0.2190  0.0291
  722MOL0     O99506   8.773   8.901   1.213  0.1316  0.1123 -0.6632
  722MOL0     C99507   8.861   8.807   1.263 -0.5113 -0.3728 -0.1446
  722MOL0     C99508   8.943   8.762   1.144 -0.4815 -0.4099  0.0465
  722MOL0     C99509   9.049   8.657   1.185 -0.4234 -0.5427 -0.1532
  722MOL0     C99510   9.174   8.725   1.252  0.6212  0.2824  0.4704
  722MOL0     C99511   9.288   8.625   1.252  0.3842 -0.3527  0.4842
  722MOL0     C99512   9.415   8.697   1.297  0.0763 -0.2188  0.5552
  722MOL0     C99513   9.533   8.604   1.296 -0.0695 -0.0459  0.0535
  722MOL0     C99514   9.582   8.565   1.158 -0.2810  0.3297 -0.0514
  722MOL0     N99515   9.732   8.542   1.166  0.2020  0.3889 -0.1762
  722MOL0     C99516   9.827   8.637   1.181 -0.3568 -0.1410 -0.1323
  722MOL0     C99517   9.940   8.567   1.173  0.1543  0.6559 -0.4347
  722MOL0     C99518  10.074   8.638   1.164 -0.1951  0.0222 -0.7629
  722MOL0     C99519  10.195   8.542   1.148 -0.0902  0.0143  0.4428
  722MOL0     C99520  10.212   8.453   1.286 -1.0246  1.0995  0.3453
  722MOL0     C99521  10.250   8.534   1.405 -0.2792 -0.2552 -0.5838
  722MOL0     O99522  10.350   8.636   1.373 -0.0604  0.3781  0.2172
  722MOL0     C99523  10.371   8.746   1.466  0.0837 -0.0424  0.8378
  722MOL0     C99524  10.284   8.781   1.572 -0.3284  0.3495 -1.0606
  722MOL0     C99525  10.311   8.892   1.654  0.4848  0.2318  0.6210
  722MOL0     C99526  10.222   8.900   1.778 -0.7935  0.1687 -0.3124
  722MOL0     C99527  10.421   8.970   1.620 -0.0041 -0.0603  0.2571
  722MOL0     C99528  10.464   9.082   1.703 -0.4673  0.2350 -0.0547
  722MOL0     O99529  10.587   9.131   1.678  0.3367 -0.6791 -0.2133
  722MOL0     C99530  10.644   9.227   1.769  0.2113 -0.0656  0.7590
  722MOL0     C99531  10.781   9.225   1.788  0.3532  1.1037  0.3992
  722MOL0     C99532  10.846   9.312   1.871 -0.5789  0.0567 -1.2679
  722MOL0     C99533  10.781   9.411   1.947  0.4088 -1.1851 -0.0471
  722MOL0     O99534  10.849   9.506   2.014  0.7258 -0.0264  0.2498
  722MOL0     C99535  10.795   9.639   2.032  0.2292  0.8634 -0.7509
  722MOL0     C99536  10.773   9.718   1.906  0.6590  0.2319 -0.5883
  722MOL0     C99537  10.898   9.750   1.820 -0.1438  0.6290 -0.7899
  722MOL0     C99538  10.866   9.764   1.675 -0.1268 -0.0753  0.1555
  722MOL0     C99539  10.995   9.776   1.580 -0.1341 -0.0661  0.2144
  722MOL0     C99540  11.088   9.885   1.613  0.1831 -0.4456 -0.6573
  722MOL0     C99541  11.209   9.890   1.521 -0.0897 -0.7026 -0.1784
  722MOL0     C99542  11.307  10.008   1.548 -0.1940  0.4966  0.6654
  722MOL0    Cl99543  11.383   9.974   1.714  0.3201  0.2291  0.0339
  722MOL0     C99544  10.646   9.419   1.933  0.1774  0.5929 -0.4042
  722MOL0     C99545  10.580   9.329   1.845  0.1699 -0.7533  0.0593
  722MOL0     O99546  10.379   9.134   1.775 -0.2609 -0.4536  0.2758
  722MOL0     C99547  10.511   8.923   1.516 -0.0763 -0.3749 -0.3243
  722MOL0     C99548  10.489   8.812   1.448  0.4562 -0.3632  0.3048
  722MOL0     N99549   9.913   8.432   1.150  0.0161 -0.5508  0.2701
  722MOL0     N99550   9.789   8.422   1.150  0.1736  0.6904 -0.2604
  722MOL0     C99551   8.583   9.037   1.218  0.7632  0.0280 -0.2081
  722MOL0     C99552   8.465   9.090   1.261 -0.9424 -0.1729  0.4543
  722MOL0     C99553   8.082   9.156   1.487 -0.0779 -0.0140 -0.1367
  722MOL0     C99554   8.109   9.238   1.597 -0.2029  0.3727 -0.5576
  722MOL0     C99555   8.016   9.276   1.696  0.0935  0.0417 -1.1743
  722MOL0     C99556   7.881   9.239   1.676 -0.6440  0.1616 -0.6137
  722MOL0     O99557   7.785   9.273   1.761  0.3609  0.1743  0.5030
  722MOL0     C99558   7.818   9.279   1.906 -0.3014 -0.6496  0.0517
  722MOL0     C99559   7.694   9.226   1.981 -0.1394 -0.2115  0.2898
  722MOL0     C99560   7.556   9.283   1.944  0.3447 -0.0015 -0.0528
  722MOL0     C99561   7.545   9.432   1.952 -0.3069  0.9232  0.5138
  722MOL0     C99562   7.514   9.485   2.089 -0.6418 -0.2593 -0.1063
  722MOL0     C99563   7.498   9.537   2.193  0.0308 -0.0882 -0.9991
  722MOL0     C99564   7.850   9.157   1.566  0.4838  0.7010 -0.2746
  722MOL0     C99565   7.954   9.109   1.474 -0.5665 -0.0927 -0.0253
  722MOL0     C99566   7.912   8.988   1.381  0.0322  0.5002 -0.0681
  722MOL0     H99567   8.445   8.934   1.553 -1.0850  1.2364  0.4253
  722MOL0     H99568   8.645   8.824   1.481 -3.1953  0.9402  3.3298
  722MOL0     H99569   8.812   8.720   1.306  0.9114 -1.3676 -0.4572
  722MOL0     H99570   8.927   8.861   1.332 -1.3196  0.9524 -0.3675
  722MOL0     H99571   8.878   8.721   1.067  0.7265  0.0138 -1.2394
  722MOL0     H99572   9.001   8.847   1.107 -0.2589 -0.3686  0.4858
  722MOL0     H99573   9.012   8.573   1.245 -3.1593 -0.7655 -2.0054
  722MOL0     H99574   9.073   8.616   1.086 -1.4957 -2.0502  0.1746
  722MOL0     H99575   9.194   8.810   1.186 -2.7106  1.4917  0.8199
  722MOL0     H99576   9.167   8.749   1.359  0.4373 -1.1693  0.8050
  722MOL0     H99577   9.304   8.577   1.155 -0.7282 -0.7474  0.4813
  722MOL0     H99578   9.266   8.543   1.321 -2.8289 -0.8575 -0.9438
  722MOL0     H99579   9.426   8.786   1.234 -2.2667 -0.6553 -0.6077
  722MOL0     H99580   9.400   8.735   1.398 -1.2339  1.4751 -0.2173
  722MOL0     H99581   9.506   8.509   1.344 -0.5158  0.3270  0.5460
  722MOL0     H99582   9.606   8.658   1.355 -0.8375 -0.1761  1.1434
  722MOL0     H99583   9.535   8.469   1.132  2.4231 -0.9991 -0.3867
  722MOL0     H99584   9.555   8.640   1.084 -1.4230 -0.4757 -0.4928
  722MOL0     H99585   9.824   8.745   1.184  2.0308 -0.0508  1.7165
  722MOL0     H99586  10.086   8.699   1.254  1.5323 -1.1576 -0.1403
  722MOL0     H99587  10.064   8.706   1.079  0.4701  1.6162  0.3758
  722MOL0     H99588  10.184   8.479   1.059  0.0541  0.3614  0.1776
  722MOL0     H99589  10.288   8.600   1.139 -1.7880  2.5652 -2.6100
  722MOL0     H99590  10.123   8.391   1.299 -0.7700  0.7924  0.6194
  722MOL0     H99591  10.285   8.377   1.258 -1.8128 -0.0451  1.3170
  722MOL0     H99592  10.154   8.581   1.432 -1.2800 -1.8138 -1.3067
  722MOL0     H99593  10.288   8.466   1.482  1.3820 -0.1522 -1.2743
  722MOL0     H99594  10.189   8.729   1.580 -0.1018 -0.7864 -4.1967
  722MOL0     H99595  10.294   8.901   1.860  1.0353  0.7386 -1.8487
  722MOL0     H99596  10.155   8.815   1.794  2.6191 -2.1930  3.7181
  722MOL0     H99597  10.165   8.992   1.788 -2.2335 -0.6921 -0.2594
  722MOL0     H99598  10.842   9.153   1.735  0.5084  2.5177 -1.4719
  722MOL0     H99599  10.950   9.302   1.898 -1.7144 -0.6468  3.9089
  722MOL0     H99600  10.704   9.639   2.093 -0.9997 -1.1525 -2.4874
  722MOL0     H99601  10.867   9.700   2.089 -0.2520  1.9784 -1.3058
  722MOL0     H99602  10.693   9.676   1.845 -1.3731  0.0816  2.0206
  722MOL0     H99603  10.716   9.807   1.934 -0.2417 -1.0024  1.6975
  722MOL0     H99604  10.962   9.663   1.836 -3.7003 -1.9709  0.4535
  722MOL0     H99605  10.944   9.844   1.854  2.0806 -0.9541  0.8843
  722MOL0     H99606  10.801   9.851   1.665  0.9985  0.5282 -3.9242
  722MOL0     H99607  10.815   9.669   1.655  2.6237 -1.7986  0.7055
  722MOL0     H99608  11.043   9.679   1.562  0.1563 -0.1934  1.6090
  722MOL0     H99609  10.951   9.798   1.482  1.6215  0.2726 -0.5264
  722MOL0     H99610  11.126   9.883   1.715  1.3344  0.1898 -1.0467
  722MOL0     H99611  11.027   9.975   1.599  1.8261  0.3939 -3.1352
  722MOL0     H99612  11.166   9.908   1.422  1.8917  0.8225 -0.8545
  722MOL0     H99613  11.257   9.792   1.517  0.5677 -0.3539 -2.2344
  722MOL0     H99614  11.261  10.107   1.541 -0.5393  0.3192  0.3755
  722MOL0     H99615  11.388  10.004   1.474 -0.8547 -2.7424 -0.0312
  722MOL0     H99616  10.579   9.492   1.977  0.2311  1.6863 -2.0513
  722MOL0     H99617  10.475   9.350   1.830 -0.2970  1.0032  4.2232
  722MOL0     H99618  10.591   8.987   1.482  1.2654 -3.0172 -2.5543
  722MOL0     H99619  10.557   8.789   1.367 -0.0356  0.4876 -0.3750
  722MOL0     H99620   8.617   9.058   1.117 -3.2162  2.1011 -1.3581
  722MOL0     H99621   8.406   9.161   1.204 -0.9996 -1.7695 -1.5678
  722MOL0     H99622   8.204   9.289   1.612 -1.8397  2.8884  2.5751
  722MOL0     H99623   8.046   9.340   1.778 -1.2907 -0.3017 -0.3605
  722MOL0     H99624   7.907   9.221   1.933 -0.8879 -2.2036 -1.1983
  722MOL0     H99625   7.834   9.384   1.934 -1.8070  0.0897 -1.7036
  722MOL0     H99626   7.712   9.243   2.088  2.0403 -2.8988  0.4369
  722MOL0     H99627   7.684   9.120   1.956  1.1148  0.3282 -2.9409
  722MOL0     H99628   7.540   9.262   1.838  0.9777 -1.0418  0.0427
  722MOL0     H99629   7.470   9.249   2.003  0.7689  1.6647  1.6469
  722MOL0     H99630   7.465   9.468   1.888 -2.3715 -1.7702  1.3973
  722MOL0     H99631   7.633   9.484   1.914 -0.7579 -0.2860 -2.3834
  722MOL0     H99632   7.475   9.578   2.289 -0.2096 -1.3439 -0.5039
  722MOL0     H99633   7.747   9.128   1.551  0.5386  0.9793 -1.2107
  722MOL0     H99634   7.835   8.928   1.430 -2.0688  1.4803 -1.9563
  722MOL0     H99635   7.867   9.023   1.287 -1.1747 -0.1177  0.2492
  722MOL0     H99636   7.996   8.925   1.352  0.2601  0.1415  1.2978
  723MOL0     O99637   1.178   1.195  10.834  0.0501  0.1873 -0.4519
  723MOL0     C99638   1.271   1.227  10.905 -0.8493  0.1029 -0.6224
  723MOL0     O99639   1.273   1.236  11.037  0.2054 -0.0026 -0.4129
  723MOL0     C99640   1.174   1.177  11.105 -0.2796  0.2221 -0.5853
  723MOL0     C99641   1.138   1.041  11.103  0.7103  0.4641  0.0330
  723MOL0     C99642   1.054   0.989  11.202  0.1294 -0.1652 -0.2962
  723MOL0     C99643   0.986   1.072  11.285  0.4394  0.4159 -0.9639
  723MOL0     O99644   0.883   1.017  11.355  0.5216 -0.5297  0.1205
  723MOL0     C99645   0.763   1.095  11.355  0.0061 -0.1753  1.7143
  723MOL0     C99646   0.708   1.098  11.204 -0.8651 -0.3724 -0.5257
  723MOL0     C99647   0.568   1.150  11.207 -0.2894  0.2186 -0.9191
  723MOL0     C99648   0.549   1.175  11.057 -0.8133  0.0013 -0.1622
  723MOL0     C99649   0.396   1.215  11.040  0.2084  0.0378  0.4801
  723MOL0     C99650   0.354   1.239  10.900  0.1542  0.1498  0.8849
  723MOL0     C99651   0.418   1.354  10.826  0.2380 -0.2428  0.1243
  723MOL0     C99652   0.368   1.497  10.877  0.1338  0.2506 -0.1686
  723MOL0     N99653   0.435   1.604  10.792 -0.3627 -0.0077  0.4304
  723MOL0     C99654   0.442   1.593  10.653 -0.2419 -0.5738  0.1258
  723MOL0     C99655   0.522   1.698  10.615  0.7856 -0.5966 -0.2096
  723MOL0     C99656   0.573   1.723  10.477 -0.2562  0.5762 -0.8403
  723MOL0     C99657   0.718   1.727  10.464  0.4135  1.3073  0.0463
  723MOL0     C99658   0.759   1.862  10.517 -0.3820 -1.0246  0.4370
  723MOL0     C99659   0.894   1.900  10.481 -0.6662  0.6238 -0.7663
  723MOL0     O99660   0.913   1.928  10.342 -0.2381 -0.2183 -0.4808
  723MOL0     C99661   1.040   1.962  10.297 -0.8480  0.4333  0.0696
  723MOL0     C99662   1.161   1.965  10.369 -0.2846 -0.6410 -0.2045
  723MOL0     C99663   1.279   2.016  10.313 -0.4631 -0.2914  0.1124
  723MOL0     C99664   1.408   2.007  10.395 -0.5706  0.4708 -0.0770
  723MOL0     C99665   1.277   2.067  10.176  0.6111  0.2962 -0.1138
  723MOL0     C99666   1.398   2.118  10.116  0.3540 -0.1727  0.3814
  723MOL0     O99667   1.521   2.093  10.167 -0.5278  0.4017 -0.1030
  723MOL0     C99668   1.632   2.152  10.111  1.2542  0.8291 -0.0956
  723MOL0     C99669   1.713   2.248  10.173  0.5637  0.4330 -0.3168
  723MOL0     C99670   1.816   2.315  10.107  0.1296 -0.3771  0.4739
  723MOL0     C99671   1.844   2.286   9.970  0.8095 -0.6515  0.1217
  723MOL0     O99672   1.938   2.349   9.897 -0.2243 -0.1604  0.0851
  723MOL0     C99673   1.973   2.481   9.946  0.2138 -0.8634 -0.2199
  723MOL0     C99674   2.092   2.481  10.043 -0.5315 -0.4184  0.3914
  723MOL0     C99675   2.225   2.495   9.964  0.9436 -0.4486 -0.0448
  723MOL0     C99676   2.341   2.497  10.073 -0.4722 -0.3025  0.2407
  723MOL0     C99677   2.474   2.520  10.012  0.2936  0.1995 -0.3830
  723MOL0     C99678   2.591   2.548  10.105 -0.2705  0.7159  0.3123
  723MOL0     C99679   2.722   2.575  10.025 -0.4422  0.3735  0.1629
  723MOL0     C99680   2.848   2.556  10.113 -0.0817 -0.2486  0.0822
  723MOL0    Cl99681   2.868   2.407  10.201  0.0032 -0.1145 -0.0786
  723MOL0     C99682   1.778   2.183   9.912 -0.3707  0.2047  0.2072
  723MOL0     C99683   1.668   2.117   9.979 -0.2257 -0.7738  0.3894
  723MOL0     O99684   1.385   2.212  10.036 -0.4980  0.3535 -0.1963
  723MOL0     C99685   1.155   2.065  10.105  0.2375 -0.0931 -0.2573
  723MOL0     C99686   1.046   2.009  10.169  0.3997  0.6183  0.3519
  723MOL0     N99687   0.552   1.772  10.729 -0.6036 -0.2466 -0.5568
  723MOL0     N99688   0.500   1.711  10.834 -0.6165  1.4240 -0.4728
  723MOL0     C99689   1.030   1.201  11.300 -0.4146 -0.3679 -0.5136
  723MOL0     C99690   1.121   1.254  11.211 -0.3320 -0.7740 -1.0134
  723MOL0     C99691   1.386   1.301  10.842 -0.4338 -0.4105  0.2200
  723MOL0     C99692   1.447   1.401  10.919 -1.1865 -0.6503 -0.2326
  723MOL0     C99693   1.556   1.475  10.872 -0.6551  0.7387 -0.3444
  723MOL0     C99694   1.603   1.463  10.745 -0.0122 -0.6053  0.4457
  723MOL0     O99695   1.703   1.530  10.684  0.2016 -0.1186  1.1004
  723MOL0     C99696   1.780   1.632  10.746 -0.8745 -0.3802  0.4767
  723MOL0     C99697   1.903   1.668  10.652 -0.5085 -0.1278 -0.1941
  723MOL0     C99698   1.984   1.786  10.716 -0.4997 -0.7723 -0.0454
  723MOL0     C99699   2.117   1.808  10.646 -0.3655 -0.2186 -0.0247
  723MOL0     C99700   2.193   1.914  10.697 -0.1958  0.6057 -0.8175
  723MOL0     C99701   2.252   2.011  10.736 -0.4214  0.6747 -0.3399
  723MOL0     C99702   1.531   1.377  10.658  0.8239 -0.3688  0.1730
  723MOL0     C99703   1.425   1.299  10.706  0.0949  0.0562 -1.0383
  723MOL0     C99704   1.355   1.208  10.611  0.6024  0.1843  0.4798
  723MOL0     H99705   1.201   0.975  11.045  1.2226  0.8524  0.1415
  723MOL0     H99706   1.043   0.881  11.202  0.8731 -0.3621  3.1958
  723MOL0     H99707   0.777   1.201  11.379 -1.1656  1.6132 -4.0998
  723MOL0     H99708   0.684   1.045  11.413 -2.2094 -2.1906 -2.5885
  723MOL0     H99709   0.768   1.164  11.142 -2.2717  0.7824 -0.7167
  723MOL0     H99710   0.706   1.002  11.152 -1.1659 -1.2933  1.0892
  723MOL0     H99711   0.499   1.073  11.244  0.3322  0.0966  0.0354
  723MOL0     H99712   0.557   1.243  11.264 -0.2301 -0.8869  0.9756
  723MOL0     H99713   0.615   1.254  11.021  1.9217 -0.9895  2.3138
  723MOL0     H99714   0.567   1.080  11.005 -1.9710  0.5871 -1.7001
  723MOL0     H99715   0.367   1.301  11.101 -0.3335 -0.4384  0.9042
  723MOL0     H99716   0.330   1.136  11.077  1.9902 -0.4121  2.9296
  723MOL0     H99717   0.357   1.143  10.848 -2.4469  1.0414 -1.1032
  723MOL0     H99718   0.250   1.270  10.906  0.9429  3.0145  1.4159
  723MOL0     H99719   0.382   1.348  10.723  0.7051 -2.5091  0.0401
  723MOL0     H99720   0.527   1.349  10.824  0.2337 -1.3404  1.4948
  723MOL0     H99721   0.259   1.504  10.869 -0.3043 -1.6805  2.5334
  723MOL0     H99722   0.399   1.510  10.981 -1.3474 -2.3517  0.7046
  723MOL0     H99723   0.387   1.511  10.606  0.0731 -1.9305  1.9972
  723MOL0     H99724   0.529   1.813  10.433  1.7262  1.5362 -0.9756
  723MOL0     H99725   0.535   1.637  10.422  0.0266 -0.4625  0.5354
  723MOL0     H99726   0.763   1.655  10.533  0.5185  0.0022 -1.3544
  723MOL0     H99727   0.760   1.710  10.365 -0.4561  2.8333 -0.6201
  723MOL0     H99728   0.686   1.941  10.495  2.4179  2.4151  2.5212
  723MOL0     H99729   0.750   1.857  10.626  2.9757  0.8208  0.9174
  723MOL0     H99730   0.908   1.993  10.538  1.0672 -0.1158  0.0784
  723MOL0     H99731   0.962   1.826  10.522 -1.2988  0.8044  0.6577
  723MOL0     H99732   1.163   1.940  10.475 -0.2761  0.3690  0.0418
  723MOL0     H99733   1.474   1.930  10.353  1.9073  2.0442  0.6830
  723MOL0     H99734   1.389   1.983  10.500 -0.1214  3.0488  0.6652
  723MOL0     H99735   1.475   2.093  10.397  1.6609 -1.1580 -0.3025
  723MOL0     H99736   1.693   2.265  10.278 -1.2849  1.6219 -0.8200
  723MOL0     H99737   1.858   2.400  10.159  1.7237 -0.5195 -0.5108
  723MOL0     H99738   1.999   2.546   9.862  0.5912 -1.2255 -0.3892
  723MOL0     H99739   1.891   2.534   9.995  0.7938 -0.9826  0.9223
  723MOL0     H99740   2.078   2.567  10.110 -1.9943  1.6082 -2.2983
  723MOL0     H99741   2.087   2.393  10.107 -0.4288 -0.6724  0.0526
  723MOL0     H99742   2.230   2.590   9.910 -2.6047  0.7055  1.3688
  723MOL0     H99743   2.243   2.411   9.896  0.5299 -0.7277  0.1869
  723MOL0     H99744   2.352   2.397  10.116  2.3300  0.1745  0.7826
  723MOL0     H99745   2.334   2.568  10.156  0.7420 -0.1865  0.2597
  723MOL0     H99746   2.502   2.425   9.965  1.3390  0.0255  0.5451
  723MOL0     H99747   2.465   2.600   9.938 -0.9748  0.5907  0.1726
  723MOL0     H99748   2.599   2.459  10.167 -1.5255 -1.4682 -2.4540
  723MOL0     H99749   2.561   2.634  10.166  0.8292  0.8103  0.7429
  723MOL0     H99750   2.714   2.678   9.988  0.5386  0.3577 -0.1200
  723MOL0     H99751   2.724   2.508   9.938 -0.3750 -1.4347  1.5085
  723MOL0     H99752   2.856   2.636  10.188 -0.3824 -2.8787  3.1155
  723MOL0     H99753   2.937   2.570  10.051 -1.4887 -3.2522 -2.9448
  723MOL0     H99754   1.811   2.155   9.812 -1.0321  1.7362 -0.4683
  723MOL0     H99755   1.613   2.038   9.929 -2.0592  0.8164 -0.2263
  723MOL0     H99756   1.159   2.110  10.006  2.6899  2.1135  0.7153
  723MOL0     H99757   0.958   2.003  10.105  1.5370 -2.3919 -1.0989
  723MOL0     H99758   0.984   1.262  11.377 -0.1944 -0.8300 -0.0079
  723MOL0     H99759   1.151   1.358  11.226  2.1115 -1.6855  1.1338
  723MOL0     H99760   1.419   1.413  11.023  1.9830  1.3361  0.5256
  723MOL0     H99761   1.589   1.554  10.939 -1.2984  1.3340 -0.7260
  723MOL0     H99762   1.716   1.721  10.748  0.8230  0.9034  0.3625
  723MOL0     H99763   1.812   1.617  10.850  1.8847  0.4348 -0.1628
  723MOL0     H99764   1.878   1.684  10.547 -0.4270 -2.7967 -0.6971
  723MOL0     H99765   1.959   1.574  10.656  0.1321  0.2791  0.7700
  723MOL0     H99766   1.917   1.873  10.713  1.6048  0.9563  0.3764
  723MOL0     H99767   2.011   1.760  10.818  3.4304 -1.9058 -1.2092
  723MOL0     H99768   2.099   1.834  10.541 -5.7483 -2.2525  0.1093
  723MOL0     H99769   2.187   1.724  10.649 -0.8654 -1.0001 -3.9805
  723MOL0     H99770   2.298   2.103  10.768 -1.1226  0.1844  2.3298
  723MOL0     H99771   1.554   1.377  10.552 -0.3210 -0.3084 -0.0919
  723MOL0     H99772   1.251   1.244  10.610  0.3405 -0.5009  1.6985
  723MOL0     H99773   1.391   1.224  10.509 -2.5628  3.0448 -0.3829
  723MOL0     H99774   1.355   1.102  10.638  0.7001 -0.8887 -3.1889
  724MOL0     O99775   9.032   7.295   9.734 -0.5379  0.5594  0.1797
  724MOL0     C99776   8.967   7.200   9.689 -0.2095  0.1856  0.4832
  724MOL0     O99777   9.023   7.080   9.658 -0.6616 -0.0001 -0.4390
  724MOL0     C99778   9.163   7.076   9.665  0.4574 -0.6008  0.1011
  724MOL0     C99779   9.228   7.021   9.777  0.2072 -0.8445  0.1484
  724MOL0     C99780   9.371   7.036   9.782  0.7710  0.7627 -0.1754
  724MOL0     C99781   9.445   7.097   9.690  0.2389 -1.0237  0.7486
  724MOL0     O99782   9.578   7.118   9.689  0.2586  0.1888 -0.6115
  724MOL0     C99783   9.662   7.070   9.789  0.3421  0.2548 -1.0386
  724MOL0     C99784   9.811   7.102   9.752 -0.1214 -0.5088  0.3147
  724MOL0     C99785   9.913   7.045   9.852 -0.5069  0.4555 -0.1901
  724MOL0     C99786  10.059   7.028   9.814 -0.2455  0.2057 -0.2133
  724MOL0     C99787  10.138   6.968   9.937  0.9351 -0.0166  0.3664
  724MOL0     C99788  10.269   6.911   9.906 -0.3430 -0.0518 -0.4778
  724MOL0     C99789  10.371   7.008   9.848 -0.4313 -0.1423  0.3983
  724MOL0     C99790  10.510   6.975   9.900 -0.7189 -0.1430 -0.1854
  724MOL0     N99791  10.522   7.014  10.041 -1.1350 -0.3437 -0.1474
  724MOL0     C99792  10.576   7.135  10.077 -0.5944  0.6074  0.0392
  724MOL0     C99793  10.599   7.116  10.211  1.1330 -0.4575  0.3552
  724MOL0     C99794  10.668   7.206  10.308 -0.3264 -0.0064  0.2281
  724MOL0     C99795  10.823   7.181  10.301  0.2578  0.3498  0.0349
  724MOL0     C99796  10.900   7.273  10.399  0.0168  0.5122 -0.0871
  724MOL0     C99797  11.050   7.252  10.377 -0.5099 -0.5092 -0.5087
  724MOL0     O99798  11.096   7.250  10.243  0.2968 -0.0796 -0.1078
  724MOL0     C99799  11.222   7.202  10.216 -0.4354 -0.2643 -0.2334
  724MOL0     C99800  11.292   7.110  10.305 -0.5719  0.3787 -0.4520
  724MOL0     C99801  11.417   7.060  10.262 -0.3305 -0.5101  0.6082
  724MOL0     C99802  11.472   6.954  10.361 -0.5182  0.2697  0.3543
  724MOL0     C99803  11.485   7.100  10.141 -0.3158  0.2810 -0.0457
  724MOL0     C99804  11.623   7.061  10.103  0.2867 -0.0579  0.8112
  724MOL0     O99805  11.650   7.094   9.969 -0.3671 -0.0657  0.0576
  724MOL0     C99806  11.771   7.095   9.911 -0.2710  0.9943  0.5783
  724MOL0     C99807  11.760   7.096   9.776 -0.1905  0.2624  0.1125
  724MOL0     C99808  11.877   7.086   9.697 -0.0939 -0.1040 -0.0301
  724MOL0     C99809  12.006   7.072   9.750 -0.3755  0.3094 -0.7644
  724MOL0     O99810  12.126   7.058   9.676  0.2958 -0.0961 -0.9177
  724MOL0     C99811  12.128   7.075   9.539  0.0203 -0.0145  1.0856
  724MOL0     C99812  12.268   7.066   9.487  0.1968  0.2959 -0.3587
  724MOL0     C99813  12.345   7.184   9.533  0.0877  0.9821 -0.2980
  724MOL0     C99814  12.493   7.177   9.498 -0.6133 -0.0970  0.1948
  724MOL0     C99815  12.577   7.274   9.580  0.0268 -0.0660  1.0352
  724MOL0     C99816  12.715   7.292   9.513 -0.1392 -0.2990  0.1776
  724MOL0     C99817  12.815   7.354   9.604  0.2568  0.2083  0.4539
  724MOL0     C99818  12.954   7.374   9.535  0.2338 -0.4102 -0.3801
  724MOL0    Cl99819  12.945   7.536   9.455  0.1706 -0.5075 -0.0223
  724MOL0     C99820  12.011   7.081   9.893 -0.3660 -0.4934 -0.5328
  724MOL0     C99821  11.895   7.095   9.974  1.2575  0.0550  0.0628
  724MOL0     O99822  11.709   7.036  10.187  0.2407  0.2781  0.3493
  724MOL0     C99823  11.409   7.185  10.060 -0.3506 -0.0641 -0.6763
  724MOL0     C99824  11.283   7.234  10.096  0.0857 -0.7850  0.3252
  724MOL0     N99825  10.567   6.991  10.251  0.2477  0.7573 -0.0081
  724MOL0     N99826  10.524   6.932  10.148 -0.2214 -0.1130 -0.0019
  724MOL0     C99827   9.372   7.139   9.579  0.1163 -0.0656  0.4831
  724MOL0     C99828   9.234   7.137   9.564  0.2214  0.0685 -0.1218
  724MOL0     C99829   8.819   7.204   9.678 -0.3460  0.7405 -0.4043
  724MOL0     C99830   8.753   7.301   9.741 -0.3911  0.4534 -0.0143
  724MOL0     C99831   8.613   7.307   9.749 -0.5515 -0.2213  0.2740
  724MOL0     C99832   8.530   7.209   9.693  0.2461  0.3610  0.2476
  724MOL0     O99833   8.393   7.214   9.692  0.1793  0.7314  0.2098
  724MOL0     C99834   8.328   7.295   9.790 -0.5766  0.9019  0.4987
  724MOL0     C99835   8.176   7.241   9.798 -0.6129 -0.1788 -0.0349
  724MOL0     C99836   8.114   7.225   9.658 -0.7458 -0.3186  0.3933
  724MOL0     C99837   7.989   7.141   9.663 -0.2397 -0.5661 -0.2164
  724MOL0     C99838   7.884   7.216   9.732 -0.1321  0.3854 -0.0806
  724MOL0     C99839   7.791   7.270   9.790 -0.3885  0.1696  0.3231
  724MOL0     C99840   8.597   7.107   9.613 -0.5220 -0.1070  0.1148
  724MOL0     C99841   8.742   7.099   9.609 -0.5340 -0.4448  0.7822
  724MOL0     C99842   8.786   6.981   9.521  0.0628  0.2122 -0.0656
  724MOL0     H99843   9.171   6.983   9.861 -0.4670  0.2705  0.2173
  724MOL0     H99844   9.427   6.999   9.868 -1.0033 -2.1973 -0.1306
  724MOL0     H99845   9.645   6.965   9.814 -1.5540  0.3495 -1.7898
  724MOL0     H99846   9.636   7.120   9.883  0.1467  0.1554 -1.0395
  724MOL0     H99847   9.833   7.063   9.652 -0.9674 -0.8692  0.2638
  724MOL0     H99848   9.827   7.210   9.741 -0.7590 -0.3891  0.5674
  724MOL0     H99849   9.905   7.095   9.949  0.6010  1.5717 -0.6527
  724MOL0     H99850   9.865   6.947   9.866 -0.2889  0.4144  0.3074
  724MOL0     H99851  10.073   6.963   9.727  0.0819  1.2429 -0.9586
  724MOL0     H99852  10.091   7.122   9.769 -0.3099  0.0135 -0.6758
  724MOL0     H99853  10.078   6.890   9.985 -2.5157  0.3309 -2.8401
  724MOL0     H99854  10.161   7.046  10.010  2.3158 -0.9712  1.0039
  724MOL0     H99855  10.308   6.867   9.998 -0.8647 -0.4871 -0.4606
  724MOL0     H99856  10.248   6.830   9.835  1.4383 -2.1039  1.1953
  724MOL0     H99857  10.347   7.112   9.868  3.2288  1.0628 -0.6274
  724MOL0     H99858  10.369   6.997   9.739  2.6922 -0.8183  0.2899
  724MOL0     H99859  10.536   6.870   9.884 -0.8745 -0.0622 -1.0214
  724MOL0     H99860  10.589   7.026   9.844  2.1310 -2.4323  1.4799
  724MOL0     H99861  10.597   7.220  10.013  1.2874  0.8264  0.9081
  724MOL0     H99862  10.634   7.193  10.411  2.8894 -1.4684  1.2223
  724MOL0     H99863  10.640   7.308  10.279  0.4439 -0.1924 -1.2982
  724MOL0     H99864  10.836   7.073  10.313  1.4852  0.6310  1.4341
  724MOL0     H99865  10.847   7.203  10.196 -5.2292 -0.7966 -1.8202
  724MOL0     H99866  10.867   7.375  10.377 -1.8782 -0.5277 -2.3927
  724MOL0     H99867  10.864   7.244  10.498  1.0599 -1.7112 -0.3074
  724MOL0     H99868  11.097   7.333  10.433  0.3960 -1.9346  0.8839
  724MOL0     H99869  11.075   7.166  10.441  0.1324 -0.2585 -0.4193
  724MOL0     H99870  11.245   7.073  10.396  1.9178 -1.8145  0.0517
  724MOL0     H99871  11.517   7.005  10.446  2.0871  1.6796 -1.6989
  724MOL0     H99872  11.548   6.894  10.309 -0.0331  1.3512 -0.2390
  724MOL0     H99873  11.397   6.883  10.397  1.2065 -1.8356  0.0436
  724MOL0     H99874  11.663   7.079   9.731  0.4767 -4.3949 -0.0239
  724MOL0     H99875  11.868   7.074   9.590  2.8584 -0.9297 -0.2612
  724MOL0     H99876  12.075   6.990   9.495 -2.4011  2.1301 -0.4124
  724MOL0     H99877  12.085   7.168   9.500  1.9411  1.8847  3.2236
  724MOL0     H99878  12.315   6.971   9.512 -0.8190 -0.0711  0.1713
  724MOL0     H99879  12.261   7.055   9.378  4.4177 -0.6442 -0.7180
  724MOL0     H99880  12.320   7.187   9.640 -0.3294 -0.2209 -0.3514
  724MOL0     H99881  12.311   7.279   9.491  1.2615  2.2679  1.5006
  724MOL0     H99882  12.500   7.190   9.390  0.1021 -3.3613 -0.2556
  724MOL0     H99883  12.538   7.079   9.517 -0.4624 -0.2323 -0.7966
  724MOL0     H99884  12.517   7.363   9.595  2.2178  2.0690 -1.6224
  724MOL0     H99885  12.592   7.228   9.678  0.0428  2.8349  2.4734
  724MOL0     H99886  12.721   7.339   9.415  3.0218 -0.5962  0.1259
  724MOL0     H99887  12.751   7.190   9.497  2.1394  0.0790  2.3128
  724MOL0     H99888  12.836   7.306   9.699  1.4651  2.2941  1.3177
  724MOL0     H99889  12.778   7.455   9.626 -0.1859  0.0926  0.2577
  724MOL0     H99890  12.975   7.297   9.460  0.6135 -0.1902 -0.4992
  724MOL0     H99891  13.043   7.377   9.599  2.8907  1.7177 -3.7983
  724MOL0     H99892  12.104   7.076   9.949 -1.2436  0.2987  1.0786
  724MOL0     H99893  11.905   7.106  10.082  0.7193  3.1184 -0.1320
  724MOL0     H99894  11.451   7.236   9.974  2.6662 -3.1413 -1.2800
  724MOL0     H99895  11.224   7.300  10.034 -0.2331 -0.4705  0.9617
  724MOL0     H99896   9.419   7.196   9.499 -4.0279  1.8796 -0.8317
  724MOL0     H99897   9.191   7.168   9.469 -2.1908 -0.7574  0.6403
  724MOL0     H99898   8.808   7.377   9.794 -0.2503  0.0160  0.4802
  724MOL0     H99899   8.579   7.382   9.820  0.9658 -0.5105  1.3508
  724MOL0     H99900   8.376   7.278   9.886  0.2671 -0.3114 -0.1124
  724MOL0     H99901   8.342   7.398   9.757  0.6753  1.2213  1.9532
  724MOL0     H99902   8.129   7.319   9.860  1.9480  0.2797  1.4385
  724MOL0     H99903   8.172   7.144   9.847 -0.0683  0.4726  1.3435
  724MOL0     H99904   8.092   7.318   9.605 -0.6217  0.2969  1.3847
  724MOL0     H99905   8.183   7.171   9.593  0.6567  0.4711  1.1785
  724MOL0     H99906   8.016   7.051   9.719  0.2882  0.1079  0.6392
  724MOL0     H99907   7.950   7.127   9.562 -3.5368  1.9405  0.5295
  724MOL0     H99908   7.717   7.330   9.839 -0.2561 -0.2486  1.0408
  724MOL0     H99909   8.531   7.027   9.581  0.6995 -0.5718 -1.3384
  724MOL0     H99910   8.863   6.915   9.563  1.7741  1.3571 -1.2461
  724MOL0     H99911   8.698   6.924   9.489  0.2204 -0.2435  0.2926
  724MOL0     H99912   8.833   7.010   9.426  0.0200 -0.4372 -0.2957
  725MOL0     O99913   2.330   6.121   9.052 -0.0673  0.2648 -0.3115
  725MOL0     C99914   2.310   6.126   9.173 -0.0199 -0.0569 -0.1187
  725MOL0     O99915   2.194   6.134   9.240  0.7148  0.4624  1.0658
  725MOL0     C99916   2.077   6.105   9.168 -1.3279 -0.0957  0.3692
  725MOL0     C99917   1.965   6.184   9.194  0.2555 -0.1959  0.4841
  725MOL0     C99918   1.847   6.143   9.139  0.4150  0.5082 -0.4601
  725MOL0     C99919   1.833   6.027   9.065  0.8518  0.5031  0.2425
  725MOL0     O99920   1.716   5.989   9.010 -0.1886  0.6498 -0.5274
  725MOL0     C99921   1.594   6.068   9.005  0.6132 -0.1911  0.7853
  725MOL0     C99922   1.498   5.996   8.910 -0.3746 -0.2811  0.6548
  725MOL0     C99923   1.369   6.061   8.935  0.5967 -0.2190 -0.0881
  725MOL0     C99924   1.263   6.005   8.839 -0.0402  0.0487  0.4489
  725MOL0     C99925   1.123   6.008   8.897  0.1251  0.6695  0.2140
  725MOL0     C99926   1.019   5.960   8.792 -0.1393 -0.1457  0.4739
  725MOL0     C99927   0.868   5.987   8.839 -0.1441 -0.2421 -0.0873
  725MOL0     C99928   0.854   6.136   8.858  0.2921 -0.9820 -0.8868
  725MOL0     N99929   0.710   6.178   8.852  0.1943  0.0304 -0.3638
  725MOL0     C99930   0.614   6.159   8.952 -0.4902 -0.1092 -0.1287
  725MOL0     C99931   0.502   6.191   8.883  0.1568  0.3834  0.2250
  725MOL0     C99932   0.369   6.207   8.934  0.3770  0.7463 -0.0870
  725MOL0     C99933   0.350   6.123   9.062  0.1783  0.3281 -0.0907
  725MOL0     C99934   0.345   5.977   9.030  0.0588  0.3525  0.1545
  725MOL0     C99935   0.321   5.879   9.150  1.0075 -0.0775  0.3549
  725MOL0     O99936   0.428   5.890   9.236 -0.1423 -0.6549 -0.2470
  725MOL0     C99937   0.556   5.841   9.217 -0.5016  0.6189 -0.1501
  725MOL0     C99938   0.595   5.755   9.109 -0.5861  1.1478 -0.3745
  725MOL0     C99939   0.733   5.719   9.092  0.6620 -0.2409  0.4226
  725MOL0     C99940   0.762   5.650   8.961 -0.4300 -0.0748 -0.0579
  725MOL0     C99941   0.827   5.745   9.192  0.8776 -0.3428 -0.3806
  725MOL0     C99942   0.967   5.714   9.180  0.7522  0.6945 -0.4404
  725MOL0     O99943   1.009   5.637   9.071  0.5874 -0.0845  0.3563
  725MOL0     C99944   1.143   5.605   9.057  0.1217 -0.4741 -0.5824
  725MOL0     C99945   1.248   5.701   9.072  0.9407  0.5257  0.3689
  725MOL0     C99946   1.385   5.679   9.076 -0.2503  0.3298  0.4073
  725MOL0     C99947   1.427   5.547   9.055  0.5153  0.5469  0.1720
  725MOL0     O99948   1.557   5.494   9.074  0.0728 -0.4538  0.0756
  725MOL0     C99949   1.660   5.584   9.095  0.3785  0.0429  0.2073
  725MOL0     C99950   1.781   5.502   9.140 -0.3185  0.8223 -0.0844
  725MOL0     C99951   1.912   5.574   9.097  0.3867  1.1324 -0.2604
  725MOL0     C99952   2.040   5.530   9.166 -0.4844 -0.4308  0.5207
  725MOL0     C99953   2.147   5.628   9.160 -0.3887  0.2967 -0.2776
  725MOL0     C99954   2.272   5.575   9.233  1.0176  0.2710  0.0302
  725MOL0     C99955   2.383   5.676   9.239  0.4347  0.2294 -0.4476
  725MOL0     C99956   2.510   5.596   9.290 -0.6162 -0.4130  0.6520
  725MOL0    Cl99957   2.632   5.717   9.320 -0.1710 -0.0911 -0.0211
  725MOL0     C99958   1.328   5.446   9.024  0.6513  0.0080 -0.1227
  725MOL0     C99959   1.188   5.477   9.024  0.3280 -0.3406 -0.4758
  725MOL0     O99960   1.042   5.754   9.271  0.4357 -0.3785  0.3397
  725MOL0     C99961   0.785   5.819   9.303 -0.2006  0.1197 -0.6077
  725MOL0     C99962   0.651   5.869   9.318 -0.0474  0.8095 -0.1076
  725MOL0     N99963   0.532   6.239   8.753  0.2808  0.3740 -0.1045
  725MOL0     N99964   0.659   6.240   8.742  0.2397 -0.0964  0.1897
  725MOL0     C99965   1.944   5.944   9.047  0.2378 -1.3626  0.4716
  725MOL0     C99966   2.069   5.984   9.096  0.1631 -0.2888  0.5747
  725MOL0     C99967   2.437   6.129   9.250 -0.0484  1.3034  0.0158
  725MOL0     C99968   2.427   6.185   9.378 -0.1075 -0.1565  0.2532
  725MOL0     C99969   2.530   6.164   9.470 -0.2938 -0.2830  0.1979
  725MOL0     C99970   2.660   6.122   9.426 -0.2430  0.1340 -1.0103
  725MOL0     O99971   2.768   6.122   9.508 -0.4796  0.0297 -0.1436
  725MOL0     C99972   2.754   6.101   9.653 -0.4586  0.1983  0.1027
  725MOL0     C99973   2.698   5.968   9.687 -0.4283  0.2303 -0.0722
  725MOL0     C99974   2.805   5.862   9.648  0.3352  0.1100  0.1735
  725MOL0     C99975   2.761   5.727   9.717  0.3644 -0.0887 -0.2152
  725MOL0     C99976   2.847   5.617   9.677  0.8062  0.2430 -0.0690
  725MOL0     C99977   2.917   5.522   9.656  0.4847 -0.9553  0.3328
  725MOL0     C99978   2.678   6.089   9.292  0.4476  0.8771 -0.1267
  725MOL0     C99979   2.562   6.073   9.206 -0.9134  0.5542 -0.1487
  725MOL0     C99980   2.591   5.997   9.077  0.6680 -0.2138 -0.6035
  725MOL0     H99981   1.963   6.274   9.255 -0.4758  0.6266 -0.7117
  725MOL0     H99982   1.760   6.207   9.155  1.1745  1.8806 -1.5929
  725MOL0     H99983   1.624   6.166   8.967  0.0711  0.4352  1.9021
  725MOL0     H99984   1.552   6.075   9.106  0.7924  1.6952  0.7759
  725MOL0     H99985   1.529   5.995   8.806  1.6254  0.4407  1.1978
  725MOL0     H99986   1.479   5.896   8.950  0.0689  0.2187  2.2195
  725MOL0     H99987   1.339   6.055   9.040 -0.3760  2.9848 -0.0800
  725MOL0     H99988   1.379   6.167   8.909 -1.3680 -0.0152 -0.1638
  725MOL0     H99989   1.264   6.063   8.746 -1.8379  0.0011  0.3646
  725MOL0     H99990   1.268   5.899   8.815 -1.4838 -0.2071  1.1536
  725MOL0     H99991   1.105   6.113   8.921  0.2682  1.2201 -1.8795
  725MOL0     H99992   1.110   5.946   8.986 -1.2153  2.0881  1.0577
  725MOL0     H99993   1.033   6.022   8.703  1.3770 -2.5920 -1.1089
  725MOL0     H99994   1.029   5.857   8.758 -0.8751 -0.7334  1.9486
  725MOL0     H99995   0.850   5.933   8.933 -3.3659  2.2966  0.9517
  725MOL0     H99996   0.801   5.953   8.759  0.7793 -0.0111 -0.9777
  725MOL0     H99997   0.898   6.153   8.957 -1.0761 -0.9013 -0.2820
  725MOL0     H99998   0.912   6.188   8.781  1.5563 -1.2401 -0.1403
  725MOL0     H99999   0.632   6.115   9.050  3.2426  0.1007 -0.5866
  725MOL0     H    0   0.293   6.188   8.858 -1.0957  2.4588  0.8976
  725MOL0     H    1   0.347   6.309   8.966 -1.0843 -0.0258  1.5936
  725MOL0     H    2   0.435   6.142   9.128 -2.7052  0.4639  3.9475
  725MOL0     H    3   0.259   6.155   9.113  1.0215 -0.5091  2.0485
  725MOL0     H    4   0.269   5.954   8.955  0.7614 -1.7249  0.0058
  725MOL0     H    5   0.446   5.947   8.997 -0.0579 -1.8109  1.5423
  725MOL0     H    6   0.230   5.917   9.199  1.6629  1.4694  0.4536
  725MOL0     H    7   0.306   5.775   9.120 -2.1515 -0.0337  1.4324
  725MOL0     H    8   0.521   5.724   9.036 -0.8278  2.6842 -0.8299
  725MOL0     H    9   0.667   5.636   8.908 -0.7167  1.2039  0.0950
  725MOL0     H   10   0.801   5.548   8.965  1.4734  0.6476  1.6557
  725MOL0     H   11   0.831   5.710   8.901 -0.8298  3.0235  2.3464
  725MOL0     H   12   1.220   5.804   9.092 -1.9743 -0.2021  0.4071
  725MOL0     H   13   1.438   5.769   9.104  1.0112 -0.5134  0.8466
  725MOL0     H   14   1.676   5.653   9.012 -1.9838  2.3571  1.5102
  725MOL0     H   15   1.632   5.648   9.180 -0.6813 -0.5068  0.2853
  725MOL0     H   16   1.787   5.492   9.249 -0.0416  0.4456 -0.1313
  725MOL0     H   17   1.778   5.400   9.101 -2.3111  0.3176  1.2274
  725MOL0     H   18   1.898   5.681   9.113  2.3018  1.5104 -0.8014
  725MOL0     H   19   1.911   5.545   8.991 -1.4456 -4.7004  0.9743
  725MOL0     H   20   2.079   5.445   9.110 -1.6128  0.7827 -2.3088
  725MOL0     H   21   2.020   5.505   9.270  0.7853 -2.1563  0.3877
  725MOL0     H   22   2.157   5.663   9.057 -0.5973 -0.2914 -0.5031
  725MOL0     H   23   2.115   5.712   9.223  2.4878  0.9231  0.4930
  725MOL0     H   24   2.314   5.487   9.183  0.2592 -0.6901  1.0173
  725MOL0     H   25   2.249   5.532   9.332  1.7673 -0.7832 -0.2357
  725MOL0     H   26   2.366   5.752   9.316 -0.7720  0.1128 -0.5845
  725MOL0     H   27   2.401   5.719   9.140  2.6553 -0.4743 -0.3960
  725MOL0     H   28   2.556   5.531   9.215 -1.4589  1.0119 -1.1968
  725MOL0     H   29   2.493   5.538   9.381  1.3579  2.2520  2.8748
  725MOL0     H   30   1.356   5.343   9.005 -2.2255 -0.4117 -2.7845
  725MOL0     H   31   1.112   5.402   9.005 -1.4245  1.3542 -0.3718
  725MOL0     H   32   0.860   5.831   9.380  1.8976 -2.9542 -1.9796
  725MOL0     H   33   0.617   5.930   9.401 -0.9169  1.4585 -0.9199
  725MOL0     H   34   1.934   5.855   8.984 -0.4639 -0.2893 -0.9954
  725MOL0     H   35   2.155   5.921   9.077 -0.7481 -1.8110  1.2916
  725MOL0     H   36   2.335   6.231   9.414 -0.0062  0.4867 -0.2901
  725MOL0     H   37   2.521   6.193   9.575  0.9305  0.5758  0.0867
  725MOL0     H   38   2.847   6.107   9.709 -0.2817  0.9025 -0.2553
  725MOL0     H   39   2.690   6.177   9.698  1.6740  0.8880  2.1119
  725MOL0     H   40   2.615   5.944   9.620 -0.1062  0.2871 -0.4940
  725MOL0     H   41   2.662   5.958   9.790  0.9571 -3.2345  0.1960
  725MOL0     H   42   2.805   5.865   9.539 -1.0831 -0.8508  0.1262
  725MOL0     H   43   2.906   5.887   9.683  0.8510  0.2455 -1.3669
  725MOL0     H   44   2.666   5.702   9.669  2.1865 -3.4686 -2.4944
  725MOL0     H   45   2.747   5.736   9.826  0.5172 -1.2789 -0.0866
  725MOL0     H   46   2.975   5.436   9.629 -0.8641 -0.7966 -3.7459
  725MOL0     H   47   2.781   6.073   9.263 -0.0315  0.4279 -1.6627
  725MOL0     H   48   2.504   5.955   9.024  0.1448  0.6133 -0.4261
  725MOL0     H   49   2.651   6.052   9.004  0.9159 -1.1002 -1.0800
  725MOL0     H   50   2.660   5.915   9.095  1.0855  0.5579  1.6054
  726MOL0     O   51   1.525  11.117   7.299 -0.1164 -0.1773 -0.0719
  726MOL0     C   52   1.441  11.179   7.359 -0.0583  0.0029 -0.5355
  726MOL0     O   53   1.461  11.307   7.406  0.5825 -0.5775  0.2673
  726MOL0     C   54   1.579  11.372   7.375 -0.0502 -0.4487  0.5795
  726MOL0     C   55   1.698  11.338   7.437 -0.2914 -0.1679  0.2893
  726MOL0     C   56   1.813  11.395   7.406  0.1035  0.8005  0.9579
  726MOL0     C   57   1.817  11.502   7.318  0.2038  0.3322  0.4478
  726MOL0     O   58   1.927  11.571   7.273  0.7647 -0.2824 -0.3004
  726MOL0     C   59   2.053  11.507   7.299 -0.1901  0.5336  0.3089
  726MOL0     C   60   2.153  11.586   7.217 -0.0676  0.1507  0.3888
  726MOL0     C   61   2.289  11.558   7.266 -0.7001  0.0463 -0.5664
  726MOL0     C   62   2.402  11.622   7.189  0.1394  0.6954 -0.1279
  726MOL0     C   63   2.539  11.587   7.249 -0.4668  0.2610 -0.5062
  726MOL0     C   64   2.583  11.699   7.351  0.1213  0.7760 -0.1158
  726MOL0     C   65   2.719  11.663   7.416  0.1131 -0.1048  0.0197
  726MOL0     C   66   2.782  11.780   7.496 -0.1337  0.4287  0.2443
  726MOL0     N   67   2.927  11.756   7.505 -0.5917  0.4876  0.5196
  726MOL0     C   68   2.991  11.657   7.578  0.0459  0.1259  0.2607
  726MOL0     C   69   3.126  11.687   7.560  0.1383  0.0960 -0.7059
  726MOL0     C   70   3.241  11.613   7.623  0.2476  1.0028  0.6016
  726MOL0     C   71   3.332  11.704   7.700  0.1355 -0.1281 -0.0478
  726MOL0     C   72   3.461  11.631   7.748  0.4975 -0.3933  0.5207
  726MOL0     C   73   3.574  11.732   7.769 -0.1401 -0.0219 -0.8853
  726MOL0     O   74   3.675  11.677   7.853 -0.3305  0.5891  0.3673
  726MOL0     C   75   3.779  11.745   7.906 -0.2514  0.8243  0.1921
  726MOL0     C   76   3.807  11.874   7.888 -0.4460 -0.3403 -0.4632
  726MOL0     C   77   3.928  11.942   7.929  0.1259  0.7841  0.6175
  726MOL0     C   78   3.948  12.082   7.890  1.3460 -0.1868 -0.1554
  726MOL0     C   79   4.020  11.863   7.996  0.7517 -0.1184  0.2450
  726MOL0     C   80   4.150  11.926   8.027 -0.4602  0.3800 -0.7303
  726MOL0     O   81   4.208  12.016   7.940  0.0792  0.4037 -0.1058
  726MOL0     C   82   4.309  12.091   7.983  1.4213 -0.8691  0.9319
  726MOL0     C   83   4.404  12.105   7.888 -0.0055 -0.6098  0.2148
  726MOL0     C   84   4.510  12.184   7.929  0.2860  0.0710 -0.6571
  726MOL0     C   85   4.526  12.254   8.051  0.0560 -0.6463  0.0648
  726MOL0     O   86   4.647  12.320   8.075  0.3508 -0.7321  0.7144
  726MOL0     C   87   4.662  12.381   8.202 -0.2431 -0.8511  0.6489
  726MOL0     C   88   4.817  12.407   8.206 -0.0648 -0.3992  0.4903
  726MOL0     C   89   4.895  12.327   8.319  0.5086 -0.3551  0.1092
  726MOL0     C   90   5.039  12.379   8.326  0.1543  0.7328  0.4343
  726MOL0     C   91   5.098  12.292   8.444  0.9286 -0.1067 -0.5566
  726MOL0     C   92   5.250  12.307   8.468  0.4288 -0.5855  0.2040
  726MOL0     C   93   5.305  12.455   8.471 -0.2820  0.1649  0.0817
  726MOL0     C   94   5.228  12.554   8.546 -0.4812  0.5861  0.2479
  726MOL0    Cl   95   5.208  12.489   8.710 -0.4210 -0.4911  0.3834
  726MOL0     C   96   4.413  12.251   8.130 -0.5420 -0.7822 -0.1655
  726MOL0     C   97   4.305  12.175   8.100 -0.5447  0.4828  0.1277
  726MOL0     O   98   4.199  11.893   8.139 -0.1151 -0.3579  0.5235
  726MOL0     C   99   3.986  11.727   8.020  0.0178 -0.0790 -0.1349
  726MOL0     C  100   3.869  11.664   7.969  0.3437  0.7504 -0.5421
  726MOL0     N  101   3.138  11.794   7.478  0.3288 -0.4359  0.4000
  726MOL0     N  102   3.019  11.834   7.452  0.2649 -0.3966 -0.2588
  726MOL0     C  103   1.698  11.550   7.268 -0.0430  0.7212  0.3537
  726MOL0     C  104   1.573  11.491   7.293  0.0917  1.2763  0.3343
  726MOL0     C  105   1.303  11.127   7.384 -0.3441  0.6679  0.0882
  726MOL0     C  106   1.215  11.206   7.460  0.8584 -0.5069  0.2425
  726MOL0     C  107   1.085  11.173   7.484 -0.1006  0.8525  0.3468
  726MOL0     C  108   1.042  11.041   7.448 -0.2866  0.4783  0.2052
  726MOL0     O  109   0.929  10.994   7.507 -0.7516  0.3925  0.5534
  726MOL0     C  110   0.888  10.856   7.480  0.3806 -0.1748  0.5617
  726MOL0     C  111   0.734  10.829   7.506 -0.3165  0.5415 -0.7005
  726MOL0     C  112   0.640  10.849   7.389 -0.0907 -0.2760  0.3768
  726MOL0     C  113   0.487  10.825   7.421  0.1072 -0.3532  1.0104
  726MOL0     C  114   0.425  10.800   7.286  0.2800  0.0971 -0.3053
  726MOL0     C  115   0.372  10.785   7.175 -0.3491  0.5586 -0.4716
  726MOL0     C  116   1.135  10.950   7.386  0.9714 -0.5311 -0.0507
  726MOL0     C  117   1.266  10.989   7.351 -0.1041 -0.3107 -0.6304
  726MOL0     C  118   1.350  10.887   7.280  0.1188  0.8389 -0.3071
  726MOL0     H  119   1.694  11.256   7.508 -0.7391 -1.1691 -0.8638
  726MOL0     H  120   1.903  11.358   7.455 -0.3171 -0.4599  0.8087
  726MOL0     H  121   2.064  11.410   7.250  0.8779  0.8311 -0.0514
  726MOL0     H  122   2.079  11.508   7.405  0.1241 -3.4738  0.4264
  726MOL0     H  123   2.132  11.552   7.116 -2.4206 -0.8170  1.1439
  726MOL0     H  124   2.137  11.695   7.220 -2.2616 -0.1074 -0.3359
  726MOL0     H  125   2.291  11.589   7.371 -0.2672 -0.4667 -0.4154
  726MOL0     H  126   2.308  11.450   7.267  0.7626  0.2403 -2.1908
  726MOL0     H  127   2.399  11.582   7.088 -0.7046 -1.2134  0.5963
  726MOL0     H  128   2.398  11.730   7.173  1.5256  0.9629  1.1076
  726MOL0     H  129   2.611  11.576   7.167 -0.9687 -0.8453 -0.8171
  726MOL0     H  130   2.527  11.494   7.305 -0.4060  0.5035 -0.0887
  726MOL0     H  131   2.595  11.796   7.302  2.8900  1.7117  2.1859
  726MOL0     H  132   2.506  11.728   7.423  0.2466  3.8360 -1.0912
  726MOL0     H  133   2.788  11.647   7.333 -0.7550 -0.1257 -0.7184
  726MOL0     H  134   2.712  11.573   7.478 -0.7979 -0.4374 -0.5454
  726MOL0     H  135   2.770  11.879   7.451  1.6265  1.2698  1.5136
  726MOL0     H  136   2.741  11.784   7.597 -0.6631 -1.1452  0.1190
  726MOL0     H  137   2.945  11.573   7.630  0.0519  0.8612  1.4799
  726MOL0     H  138   3.292  11.564   7.540  1.6887  1.4207  1.2108
  726MOL0     H  139   3.193  11.542   7.690 -0.5409  0.6260 -0.3366
  726MOL0     H  140   3.359  11.783   7.630  1.6618  0.2093  0.8670
  726MOL0     H  141   3.285  11.756   7.784  0.2706  1.0502 -0.6910
  726MOL0     H  142   3.436  11.572   7.836 -1.5659  0.2776  0.4438
  726MOL0     H  143   3.488  11.559   7.671 -0.2767  0.2331 -0.3654
  726MOL0     H  144   3.609  11.767   7.672 -0.8508 -0.8774 -1.4683
  726MOL0     H  145   3.531  11.819   7.820  2.1007  0.2207  0.7157
  726MOL0     H  146   3.724  11.933   7.852  0.1413  0.4511 -0.5543
  726MOL0     H  147   4.013  12.108   7.806  1.6319 -1.3481 -0.3160
  726MOL0     H  148   3.972  12.139   7.980 -1.1101  0.2469  0.2905
  726MOL0     H  149   3.849  12.111   7.854  1.7973  1.2161 -0.2911
  726MOL0     H  150   4.410  12.066   7.787  1.7853  3.0653 -1.2884
  726MOL0     H  151   4.592  12.195   7.859  0.7967 -0.4658 -0.1549
  726MOL0     H  152   4.614  12.479   8.202  2.0138  0.3429  2.0243
  726MOL0     H  153   4.632  12.324   8.291  1.1550 -1.0103  1.0383
  726MOL0     H  154   4.864  12.370   8.115 -0.4405  2.3969 -0.9534
  726MOL0     H  155   4.831  12.516   8.212 -1.2597 -0.2732  1.3964
  726MOL0     H  156   4.904  12.223   8.286  0.3366  0.2488 -2.0108
  726MOL0     H  157   4.838  12.336   8.412 -1.4876  0.1440 -1.0984
  726MOL0     H  158   5.029  12.486   8.346 -1.2135  0.6582  0.2316
  726MOL0     H  159   5.084  12.360   8.228  0.5246 -2.1538  1.0553
  726MOL0     H  160   5.055  12.311   8.542 -0.3437 -1.7948 -0.7287
  726MOL0     H  161   5.071  12.187   8.429 -0.1528  0.0506  0.1890
  726MOL0     H  162   5.302  12.248   8.391 -0.2992 -0.9043 -0.0485
  726MOL0     H  163   5.274  12.261   8.564 -3.4922  1.3163  2.3245
  726MOL0     H  164   5.312  12.488   8.367  0.2694  0.0616  0.0816
  726MOL0     H  165   5.406  12.447   8.511 -0.1189 -1.1156 -0.5132
  726MOL0     H  166   5.129  12.568   8.500 -1.5417 -1.5218  1.7108
  726MOL0     H  167   5.275  12.653   8.548  0.6417  0.2667 -3.2154
  726MOL0     H  168   4.412  12.306   8.224  1.8019  1.4101 -1.2866
  726MOL0     H  169   4.230  12.165   8.177  3.0535 -1.0832  3.7617
  726MOL0     H  170   4.058  11.672   8.080  1.5730  1.6395 -0.3544
  726MOL0     H  171   3.847  11.558   7.966  3.0276  0.1466 -0.8335
  726MOL0     H  172   1.702  11.645   7.216 -2.8834  2.0380  2.3320
  726MOL0     H  173   1.472  11.513   7.261 -0.7058  0.2732  2.0058
  726MOL0     H  174   1.234  11.301   7.509 -1.3567  0.9761 -1.5670
  726MOL0     H  175   1.014  11.235   7.540 -2.1134  0.1357 -1.2879
  726MOL0     H  176   0.897  10.838   7.372 -1.4182  2.1253 -0.0487
  726MOL0     H  177   0.956  10.786   7.529  0.5894  0.0475  0.5893
  726MOL0     H  178   0.704  10.887   7.593  0.5075  2.4168 -1.6094
  726MOL0     H  179   0.742  10.723   7.534  0.8927  0.7609 -0.1656
  726MOL0     H  180   0.644  10.953   7.355  0.1087 -0.1141  0.8923
  726MOL0     H  181   0.668  10.796   7.297 -0.4294 -0.1262  0.1828
  726MOL0     H  182   0.435  10.906   7.474 -1.3277  0.1576 -1.0563
  726MOL0     H  183   0.485  10.737   7.485  1.1651 -0.9338  0.2664
  726MOL0     H  184   0.334  10.772   7.076 -1.6011 -1.7919  0.2616
  726MOL0     H  185   1.112  10.847   7.362 -0.8392  0.7643 -5.1318
  726MOL0     H  186   1.439  10.857   7.338 -0.8105 -0.4173  0.5248
  726MOL0     H  187   1.289  10.797   7.271  2.9739 -1.3972  0.7560
  726MOL0     H  188   1.379  10.918   7.179  0.6063 -4.2340 -1.9887
  727MOL0     O  189   8.811  10.387   9.930  0.4783  0.0863  0.2924
  727MOL0     C  190   8.742  10.313  10.000  0.0136 -0.2727  0.6843
  727MOL0     O  191   8.798  10.215  10.089  0.2804 -0.3089  0.3068
  727MOL0     C  192   8.926  10.202  10.108  0.8915  0.0318 -0.0553
  727MOL0     C  193   9.032  10.227  10.015  0.0929  0.0736  0.0600
  727MOL0     C  194   9.160  10.246  10.074  0.1327 -0.2313 -0.0122
  727MOL0     C  195   9.191  10.204  10.202 -0.0841  0.8728 -0.4441
  727MOL0     O  196   9.318  10.193  10.249 -0.0243 -0.2666 -0.4786
  727MOL0     C  197   9.402  10.106  10.165 -0.1811 -0.6967  0.0066
  727MOL0     C  198   9.506  10.026  10.236 -0.4590 -0.1114 -0.0512
  727MOL0     C  199   9.612  10.124  10.284  0.0022 -0.6461  0.1362
  727MOL0     C  200   9.720  10.050  10.363 -0.1400 -0.0475 -0.0728
  727MOL0     C  201   9.800  10.149  10.440 -0.8286  1.1316 -0.7026
  727MOL0     C  202   9.909  10.092  10.527  0.6372 -0.3626  0.0821
  727MOL0     C  203  10.021  10.189  10.547 -0.2882  0.4171  0.3547
  727MOL0     C  204   9.979  10.329  10.611 -0.4195  0.3699 -0.2268
  727MOL0     N  205  10.106  10.404  10.602  0.2557 -0.6235 -0.5069
  727MOL0     C  206  10.116  10.533  10.546  1.0195 -0.2139  0.1286
  727MOL0     C  207  10.234  10.575  10.573 -0.3987 -0.2588  0.2287
  727MOL0     C  208  10.271  10.709  10.529  0.1395 -0.1944 -0.6234
  727MOL0     C  209  10.369  10.786  10.622  1.0168  0.9787 -0.3792
  727MOL0     C  210  10.442  10.892  10.545 -0.7679 -0.0239  1.0870
  727MOL0     C  211  10.543  10.971  10.632 -0.2690  0.3823  0.4736
  727MOL0     O  212  10.645  10.885  10.691 -0.0998  0.0059  0.2923
  727MOL0     C  213  10.745  10.935  10.765 -0.0806  0.0481 -0.2137
  727MOL0     C  214  10.761  11.066  10.800  0.5076 -0.6986 -0.2003
  727MOL0     C  215  10.862  11.106  10.887 -0.5931  0.3453  0.4410
  727MOL0     C  216  10.856  11.242  10.928 -0.0904 -0.0926 -0.1872
  727MOL0     C  217  10.964  11.010  10.942  0.8761  0.3695 -0.4342
  727MOL0     C  218  11.069  11.039  11.048  0.2412 -0.0869 -0.9310
  727MOL0     O  219  11.132  10.934  11.108 -0.1124  0.2496  0.5326
  727MOL0     C  220  11.234  10.957  11.197  0.0257  0.4187 -0.3957
  727MOL0     C  221  11.216  11.022  11.317 -0.0085  0.4369  0.0743
  727MOL0     C  222  11.321  11.053  11.400  0.4876 -1.2886  0.4522
  727MOL0     C  223  11.451  11.004  11.372 -0.5811  0.2726  0.4550
  727MOL0     O  224  11.559  11.015  11.455  0.4535 -0.1717 -0.3739
  727MOL0     C  225  11.548  11.100  11.576 -0.2856 -0.3677 -0.5303
  727MOL0     C  226  11.675  11.138  11.665  0.6123  0.3152  0.1974
  727MOL0     C  227  11.774  11.204  11.572 -0.1019 -0.0463 -0.6998
  727MOL0     C  228  11.739  11.332  11.493 -0.1471 -0.3590  0.7296
  727MOL0     C  229  11.856  11.377  11.400 -0.1620  0.0047 -0.1751
  727MOL0     C  230  11.989  11.428  11.475 -0.1058 -0.2884 -0.2187
  727MOL0     C  231  12.093  11.311  11.489  0.0443  0.2539  0.3381
  727MOL0     C  232  12.211  11.336  11.589  0.3047  0.1476 -0.2842
  727MOL0    Cl  233  12.273  11.494  11.551  0.3562  0.1051 -0.0902
  727MOL0     C  234  11.462  10.930  11.254  0.2786 -0.0293  0.0520
  727MOL0     C  235  11.361  10.913  11.165 -0.1241  0.0618  0.1039
  727MOL0     O  236  11.091  11.157  11.070  0.2402 -0.1742  0.5641
  727MOL0     C  237  10.942  10.876  10.903 -0.1386 -0.8040 -0.2165
  727MOL0     C  238  10.845  10.847  10.812  0.4043 -0.2658  0.5103
  727MOL0     N  239  10.288  10.492  10.666 -0.2825  0.1006 -0.3324
  727MOL0     N  240  10.213  10.389  10.684 -0.3116  0.2780 -0.5383
  727MOL0     C  241   9.086  10.178  10.287  0.3855  0.0427  0.3045
  727MOL0     C  242   8.957  10.158  10.241  0.3641  1.0842  0.0935
  727MOL0     C  243   8.584  10.307   9.988 -0.5542 -0.8011 -0.0759
  727MOL0     C  244   8.521  10.193  10.055 -0.1905  0.0648  0.5954
  727MOL0     C  245   8.381  10.176  10.047 -0.2963  0.5412 -0.1220
  727MOL0     C  246   8.299  10.274   9.988  0.5930  0.7226  0.3249
  727MOL0     O  247   8.163  10.239   9.968 -0.2566  0.1099 -0.2450
  727MOL0     C  248   8.078  10.349   9.947 -0.3773 -0.0167  0.7755
  727MOL0     C  249   7.935  10.294   9.946  0.3188  0.4660 -0.1432
  727MOL0     C  250   7.819  10.394   9.939 -0.1293  0.7070 -0.0454
  727MOL0     C  251   7.679  10.329   9.918  0.3994 -0.2109  0.6903
  727MOL0     C  252   7.567  10.418   9.935  0.9561 -0.3647  1.3389
  727MOL0     C  253   7.459  10.472   9.954 -0.8270  0.3514  0.4951
  727MOL0     C  254   8.361  10.390   9.934  0.1880 -0.0237 -0.2070
  727MOL0     C  255   8.504  10.406   9.920  0.4469 -0.1868 -0.1533
  727MOL0     C  256   8.549  10.522   9.843 -0.7087 -0.5509 -0.4969
  727MOL0     H  257   9.021  10.240   9.908 -1.8726 -1.3925  0.0266
  727MOL0     H  258   9.239  10.274  10.005 -0.3475  0.0811 -0.4446
  727MOL0     H  259   9.454  10.174  10.096 -0.7153  0.3833  0.6485
  727MOL0     H  260   9.343  10.043  10.098 -0.3169  2.0646 -2.7159
  727MOL0     H  261   9.462   9.974  10.323  1.0305 -0.6785  0.3929
  727MOL0     H  262   9.541   9.942  10.176  0.6663 -0.1397  0.6146
  727MOL0     H  263   9.661  10.170  10.198  0.9974  0.6897  1.3697
  727MOL0     H  264   9.560  10.198  10.346 -1.6687 -0.8990 -0.8750
  727MOL0     H  265   9.668   9.983  10.432  1.0099 -2.8594 -1.7454
  727MOL0     H  266   9.793  10.001  10.298  1.3809  0.7388  0.9501
  727MOL0     H  267   9.740  10.207  10.511  2.2883  1.1774  2.1070
  727MOL0     H  268   9.843  10.215  10.364  1.5337  2.0436  1.3295
  727MOL0     H  269   9.867  10.057  10.621 -2.5410  1.4006 -0.5559
  727MOL0     H  270   9.953  10.006  10.474  2.1134 -0.0880  0.8065
  727MOL0     H  271  10.068  10.217  10.452 -0.0034  1.2998  0.7476
  727MOL0     H  272  10.106  10.141  10.598  0.3998  0.8001 -0.4024
  727MOL0     H  273   9.899  10.388  10.566 -2.4716  0.0253  2.6543
  727MOL0     H  274   9.940  10.316  10.712 -4.3817  2.4173 -1.2974
  727MOL0     H  275  10.038  10.574  10.482 -0.9730 -1.8297  1.3891
  727MOL0     H  276  10.179  10.767  10.515  0.9077  0.8947 -1.3248
  727MOL0     H  277  10.320  10.701  10.432 -0.5341 -2.5307 -0.8142
  727MOL0     H  278  10.311  10.841  10.696  2.4192  1.2019  0.5886
  727MOL0     H  279  10.432  10.717  10.677 -0.1977 -1.8675 -2.3231
  727MOL0     H  280  10.487  10.842  10.459 -1.1684  0.3377  0.6601
  727MOL0     H  281  10.370  10.966  10.510 -0.0167  1.3144  2.2499
  727MOL0     H  282  10.594  11.041  10.565  2.8007 -1.9574  0.1640
  727MOL0     H  283  10.486  11.020  10.711 -0.6975  0.0976  0.3444
  727MOL0     H  284  10.693  11.147  10.773 -0.1735 -1.1750  0.0510
  727MOL0     H  285  10.955  11.288  10.923 -0.2468  0.2368 -0.2698
  727MOL0     H  286  10.826  11.242  11.033 -1.7924 -0.7521 -0.6308
  727MOL0     H  287  10.785  11.301  10.870  0.5579  0.7274 -0.1525
  727MOL0     H  288  11.119  11.062  11.345  0.6620  1.7197  0.6847
  727MOL0     H  289  11.311  11.102  11.496  1.6239 -0.2974  0.0885
  727MOL0     H  290  11.501  11.195  11.549 -0.4989  0.5259  2.5962
  727MOL0     H  291  11.476  11.057  11.646 -1.5170 -0.2310 -1.6842
  727MOL0     H  292  11.642  11.205  11.745  1.8175  0.5983  0.4705
  727MOL0     H  293  11.725  11.057  11.719  3.6131  2.2321  0.5261
  727MOL0     H  294  11.807  11.135  11.494 -0.3179 -0.6457 -0.2701
  727MOL0     H  295  11.861  11.222  11.636 -2.2555  1.6679  1.9989
  727MOL0     H  296  11.719  11.418  11.557 -0.0800  0.3428 -0.1778
  727MOL0     H  297  11.657  11.309  11.424  1.8232 -1.1751 -1.4461
  727MOL0     H  298  11.887  11.295  11.335 -1.8782  0.4697 -1.6780
  727MOL0     H  299  11.818  11.461  11.341 -3.1201 -1.6169 -0.7795
  727MOL0     H  300  11.965  11.464  11.576  1.7505 -0.5619  0.3425
  727MOL0     H  301  12.031  11.503  11.407 -2.7608  0.1755 -1.4981
  727MOL0     H  302  12.125  11.285  11.388 -0.1735  0.5610  0.1911
  727MOL0     H  303  12.038  11.220  11.514 -2.8843  1.5021 -1.1468
  727MOL0     H  304  12.285  11.255  11.579 -0.3638 -0.6782  1.2459
  727MOL0     H  305  12.179  11.326  11.692  2.3786 -2.6088  0.2213
  727MOL0     H  306  11.557  10.889  11.220 -0.8825 -3.9019  0.9451
  727MOL0     H  307  11.375  10.868  11.067 -1.5642  1.4410 -0.7913
  727MOL0     H  308  11.012  10.799  10.934 -1.4508 -1.2963  1.7110
  727MOL0     H  309  10.833  10.753  10.758 -0.9363 -0.4633  1.0941
  727MOL0     H  310   9.107  10.160  10.391  0.5686  0.7222  0.3931
  727MOL0     H  311   8.885  10.134  10.318  1.9104  2.8519  2.2387
  727MOL0     H  312   8.567  10.106  10.102 -1.4863 -1.1753 -0.3178
  727MOL0     H  313   8.339  10.085  10.088  0.6925 -0.5254 -1.4011
  727MOL0     H  314   8.096  10.427  10.022 -0.1636  1.8665 -1.1604
  727MOL0     H  315   8.101  10.391   9.849 -1.4089 -2.2875 -0.5170
  727MOL0     H  316   7.926  10.237  10.039  2.1804 -1.3735 -1.0057
  727MOL0     H  317   7.921  10.221   9.866 -0.5277 -0.2918  0.6746
  727MOL0     H  318   7.832  10.444  10.035  2.7550  2.0753 -1.0270
  727MOL0     H  319   7.846  10.473   9.868  0.7859  0.9088  0.5093
  727MOL0     H  320   7.666  10.251   9.993  0.8303 -0.3581  0.6148
  727MOL0     H  321   7.676  10.283   9.819  1.4805  1.2722 -0.0817
  727MOL0     H  322   7.359  10.511   9.965 -1.4694 -0.4605 -1.8798
  727MOL0     H  323   8.297  10.466   9.891  0.4768 -0.8355 -2.1869
  727MOL0     H  324   8.574  10.478   9.746 -1.6306 -0.2961 -0.8540
  727MOL0     H  325   8.476  10.603   9.835 -1.9763 -1.7848 -1.8098
  727MOL0     H  326   8.642  10.572   9.873 -0.8299 -1.3636  1.3932
  728MOL0     O  327   4.450   2.140   5.586 -0.0761 -0.0848  0.3568
  728MOL0     C  328   4.385   2.240   5.632  0.3872  0.0355 -0.1987
  728MOL0     O  329   4.437   2.360   5.652 -0.7541  0.3713 -0.1158
  728MOL0     C  330   4.568   2.381   5.699  0.0746  0.1492 -0.4244
  728MOL0     C  331   4.651   2.289   5.768 -0.2211  0.4132  0.0421
  728MOL0     C  332   4.782   2.315   5.799 -0.7951 -0.3848  0.1255
  728MOL0     C  333   4.845   2.430   5.747  0.7311 -0.0816 -0.3054
  728MOL0     O  334   4.978   2.458   5.764  0.4719  0.0917 -0.5939
  728MOL0     C  335   5.069   2.364   5.821 -0.1488  0.9177  0.2035
  728MOL0     C  336   5.206   2.424   5.832 -0.2764  0.4692 -0.4134
  728MOL0     C  337   5.301   2.331   5.907 -0.3723 -0.1595 -0.6630
  728MOL0     C  338   5.308   2.367   6.055 -1.3934  0.8565  0.5911
  728MOL0     C  339   5.398   2.273   6.133  0.4856  0.6552  0.0484
  728MOL0     C  340   5.530   2.232   6.077 -0.8246  0.2846  0.5858
  728MOL0     C  341   5.634   2.344   6.067 -0.5109  0.8502  0.1960
  728MOL0     C  342   5.678   2.403   6.204  0.7186  0.8848 -0.1160
  728MOL0     N  343   5.801   2.475   6.201 -0.7014 -0.1546  0.5757
  728MOL0     C  344   5.901   2.460   6.294 -0.1226  0.4135 -0.1061
  728MOL0     C  345   5.991   2.552   6.250  0.1112  0.3022 -0.2370
  728MOL0     C  346   6.114   2.578   6.330  0.6304  0.4619  1.7693
  728MOL0     C  347   6.246   2.555   6.263 -0.6526 -0.1306 -0.5482
  728MOL0     C  348   6.303   2.692   6.230  0.0907 -0.4238  0.4624
  728MOL0     C  349   6.426   2.672   6.141 -0.7387  0.1659 -1.0996
  728MOL0     O  350   6.539   2.638   6.221  0.5470  0.2572  0.2828
  728MOL0     C  351   6.667   2.637   6.168  0.3635  0.1370 -0.3331
  728MOL0     C  352   6.750   2.549   6.235  0.6098  0.7284  0.7874
  728MOL0     C  353   6.876   2.517   6.190  0.1350  0.0473 -0.1236
  728MOL0     C  354   6.956   2.427   6.281 -0.1803 -0.8335 -0.1569
  728MOL0     C  355   6.931   2.581   6.069 -0.3642  0.5898  0.0140
  728MOL0     C  356   7.063   2.550   6.011  0.0041 -0.2138  0.4196
  728MOL0     O  357   7.154   2.472   6.080  0.4870  0.3962  0.7486
  728MOL0     C  358   7.266   2.417   6.022 -0.3585  0.6783  0.1694
  728MOL0     C  359   7.297   2.399   5.888 -0.1086  0.1629 -0.5918
  728MOL0     C  360   7.411   2.325   5.852  0.6769  0.3848  0.3757
  728MOL0     C  361   7.498   2.269   5.944 -0.2939  0.6877  0.4386
  728MOL0     O  362   7.608   2.202   5.896 -0.2481 -0.4233 -0.1172
  728MOL0     C  363   7.731   2.204   5.972 -0.0119 -0.2471 -0.5322
  728MOL0     C  364   7.803   2.068   5.955  0.2454 -0.0546  1.1641
  728MOL0     C  365   7.934   2.067   6.037  0.0062  0.6814  0.0371
  728MOL0     C  366   8.000   1.923   6.017  0.5293 -1.0489  0.0070
  728MOL0     C  367   8.137   1.897   6.082 -0.4038 -0.4994 -0.3061
  728MOL0     C  368   8.248   2.006   6.042  0.8740  0.3811  0.3102
  728MOL0     C  369   8.388   1.976   6.122 -0.0388 -0.4409  0.0083
  728MOL0     C  370   8.444   1.842   6.086 -0.6118 -0.2669 -0.4070
  728MOL0    Cl  371   8.405   1.804   5.911 -0.0648  0.3370  0.1549
  728MOL0     C  372   7.460   2.275   6.080 -0.0895 -0.5723 -0.1350
  728MOL0     C  373   7.349   2.346   6.114 -0.1629  0.0250 -0.0188
  728MOL0     O  374   7.077   2.596   5.893  0.0627 -0.1020 -0.2467
  728MOL0     C  375   6.845   2.671   5.999  0.4825  0.0303 -0.1291
  728MOL0     C  376   6.714   2.700   6.049  0.3719 -0.6261 -0.2054
  728MOL0     N  377   5.947   2.627   6.140 -0.7152 -0.7576  0.4154
  728MOL0     N  378   5.835   2.566   6.108  0.0743 -0.0481 -0.1215
  728MOL0     C  379   4.766   2.523   5.676  0.2669 -0.0221 -0.3171
  728MOL0     C  380   4.625   2.506   5.659  0.6137  0.6346  0.5905
  728MOL0     C  381   4.239   2.215   5.646 -0.0201  0.1353  0.2373
  728MOL0     C  382   4.201   2.078   5.671  0.4383 -0.3450  0.9415
  728MOL0     C  383   4.064   2.043   5.698 -0.2850  0.3305 -0.4574
  728MOL0     C  384   3.975   2.143   5.727  0.1516 -0.8094  0.5973
  728MOL0     O  385   3.840   2.128   5.752 -0.0073 -0.3755  0.1764
  728MOL0     C  386   3.777   1.992   5.737 -0.0552 -0.1551 -0.1885
  728MOL0     C  387   3.738   1.959   5.589  0.6346  0.2237  0.1972
  728MOL0     C  388   3.712   1.813   5.570  1.1653 -0.6232 -0.5640
  728MOL0     C  389   3.732   1.762   5.429  0.1282  0.4229 -0.4591
  728MOL0     C  390   3.674   1.628   5.415 -0.3720 -0.1350  0.1431
  728MOL0     C  391   3.617   1.526   5.389  0.8833 -0.2743 -0.7635
  728MOL0     C  392   4.009   2.280   5.717 -0.6724 -0.2894 -0.7369
  728MOL0     C  393   4.138   2.321   5.676 -0.8540  0.4512  0.1133
  728MOL0     C  394   4.170   2.466   5.661  0.4970 -0.3423  1.4803
  728MOL0     H  395   4.621   2.190   5.803  0.8779 -0.4754 -1.4053
  728MOL0     H  396   4.836   2.249   5.866 -1.5474 -1.3962 -0.2415
  728MOL0     H  397   5.087   2.282   5.750 -0.6155 -1.0686  2.2388
  728MOL0     H  398   5.043   2.319   5.917  0.4628 -0.0111 -0.0450
  728MOL0     H  399   5.259   2.430   5.737  1.7012 -0.1712  0.5726
  728MOL0     H  400   5.202   2.524   5.877 -0.7165  0.0099  0.5978
  728MOL0     H  401   5.265   2.228   5.902  1.4960 -1.2783  3.8910
  728MOL0     H  402   5.403   2.340   5.867  0.7002 -0.6676  1.7601
  728MOL0     H  403   5.358   2.465   6.058  1.7532 -0.4271 -2.3137
  728MOL0     H  404   5.207   2.369   6.095 -2.0117 -2.1427 -0.5488
  728MOL0     H  405   5.347   2.176   6.140  0.5687  0.4909 -1.3209
  728MOL0     H  406   5.413   2.312   6.234 -0.0675  1.0165 -0.0054
  728MOL0     H  407   5.569   2.144   6.129  1.0939 -1.0273 -2.7609
  728MOL0     H  408   5.517   2.197   5.974  1.0782 -0.6846  0.6318
  728MOL0     H  409   5.609   2.418   5.991  1.2555  1.5663  0.2818
  728MOL0     H  410   5.717   2.295   6.016 -1.3507  1.5145 -1.9182
  728MOL0     H  411   5.606   2.479   6.237 -1.9015 -1.5548  0.1804
  728MOL0     H  412   5.680   2.324   6.280 -3.5472  0.5438 -0.0932
  728MOL0     H  413   5.891   2.392   6.377  2.4656 -0.2036 -0.2362
  728MOL0     H  414   6.113   2.511   6.416  0.3548 -0.2399  1.2246
  728MOL0     H  415   6.105   2.681   6.366 -2.0113  0.5856  0.9796
  728MOL0     H  416   6.312   2.510   6.338 -1.0540  2.2386  1.3663
  728MOL0     H  417   6.242   2.489   6.176 -1.1883  2.9310 -3.0535
  728MOL0     H  418   6.226   2.737   6.166  1.6390  0.8289 -0.5731
  728MOL0     H  419   6.320   2.746   6.323 -1.2926  2.6038 -0.9258
  728MOL0     H  420   6.397   2.596   6.068 -2.5882  0.2421 -0.4782
  728MOL0     H  421   6.451   2.761   6.081 -0.4303 -0.8235 -2.5027
  728MOL0     H  422   6.716   2.495   6.324 -2.1068 -1.0209 -1.1461
  728MOL0     H  423   7.038   2.486   6.324  1.3200 -2.7103 -0.3032
  728MOL0     H  424   6.989   2.346   6.216 -3.7714 -0.9319 -2.1444
  728MOL0     H  425   6.894   2.387   6.361 -0.0127  0.1302  0.4702
  728MOL0     H  426   7.238   2.447   5.809  2.4861  0.0972 -2.7152
  728MOL0     H  427   7.433   2.307   5.748 -0.0473 -0.5614  0.3741
  728MOL0     H  428   7.796   2.289   5.948  0.4894 -0.8721 -1.4784
  728MOL0     H  429   7.714   2.203   6.080  1.7726 -2.4968 -0.1941
  728MOL0     H  430   7.740   1.991   6.000  0.5962 -1.5935 -0.8417
  728MOL0     H  431   7.817   2.045   5.849 -0.6426 -1.4523  1.3172
  728MOL0     H  432   7.913   2.071   6.144 -1.9718 -1.2213 -0.2171
  728MOL0     H  433   7.988   2.157   6.005  1.5121 -1.4031 -3.9998
  728MOL0     H  434   8.007   1.913   5.909  3.0281 -2.1716  0.1965
  728MOL0     H  435   7.920   1.855   6.049 -0.9618  0.0594 -1.1832
  728MOL0     H  436   8.130   1.898   6.192  2.0743  1.2540 -0.0846
  728MOL0     H  437   8.177   1.800   6.053  0.8481  0.7651 -3.1736
  728MOL0     H  438   8.202   2.100   6.074 -2.5002 -1.2798  0.8518
  728MOL0     H  439   8.260   2.001   5.934 -1.9489 -1.7181 -0.0374
  728MOL0     H  440   8.371   1.991   6.229 -2.6492  1.8396 -0.6118
  728MOL0     H  441   8.458   2.052   6.087  0.8884 -0.6275  1.3575
  728MOL0     H  442   8.386   1.769   6.143  0.3327  0.1505  1.1275
  728MOL0     H  443   8.549   1.821   6.107 -1.1425 -0.3015  2.7006
  728MOL0     H  444   7.512   2.216   6.156  0.6392  2.1980  1.6490
  728MOL0     H  445   7.319   2.353   6.218  0.1576  2.2063 -0.0173
  728MOL0     H  446   6.861   2.707   5.898 -0.7380  0.8300 -0.0614
  728MOL0     H  447   6.653   2.765   5.987 -1.4307 -1.0029  1.0828
  728MOL0     H  448   4.818   2.610   5.636  2.4170 -0.3991  1.4975
  728MOL0     H  449   4.576   2.572   5.588 -0.1576 -0.7857 -0.2378
  728MOL0     H  450   4.272   1.999   5.649 -0.2367 -0.1838 -2.2995
  728MOL0     H  451   4.040   1.937   5.704 -1.7520  0.4362 -2.9555
  728MOL0     H  452   3.836   1.912   5.783 -0.7080  0.5816  2.0707
  728MOL0     H  453   3.684   1.989   5.794 -2.0905  0.7771 -3.1875
  728MOL0     H  454   3.821   1.986   5.523  1.8718  0.4172  1.7687
  728MOL0     H  455   3.646   2.016   5.573  0.5588  0.9708  2.8597
  728MOL0     H  456   3.778   1.757   5.637  0.9095  0.4414  0.6118
  728MOL0     H  457   3.612   1.780   5.601  2.3984 -2.4398  1.8057
  728MOL0     H  458   3.840   1.748   5.419  0.2928 -0.5956  1.9167
  728MOL0     H  459   3.693   1.831   5.354  1.2280  0.9030 -0.6213
  728MOL0     H  460   3.563   1.437   5.364  0.7923  0.1144 -2.0701
  728MOL0     H  461   3.922   2.343   5.732  1.0836  1.9611  0.7626
  728MOL0     H  462   4.234   2.488   5.575 -0.3591 -3.2874 -0.0339
  728MOL0     H  463   4.080   2.526   5.639 -0.1832 -1.9943 -0.5285
  728MOL0     H  464   4.230   2.504   5.743 -0.6265  1.4276  1.5469
  729MOL0     O  465   8.098   4.055   3.626  0.2614  0.8301 -0.2139
  729MOL0     C  466   8.144   3.967   3.560 -0.2398  0.1256  0.9303
  729MOL0     O  467   8.096   3.839   3.550 -0.8531 -0.0310 -0.5885
  729MOL0     C  468   7.978   3.812   3.612  0.1456  0.0393 -0.0595
  729MOL0     C  469   7.856   3.835   3.549  1.0094 -0.2332 -0.5563
  729MOL0     C  470   7.738   3.805   3.616 -0.0171 -0.0694 -0.2243
  729MOL0     C  471   7.734   3.745   3.742  0.1124  0.2745  0.3988
  729MOL0     O  472   7.608   3.720   3.791  0.1385 -0.2621 -0.7414
  729MOL0     C  473   7.586   3.715   3.935 -0.5160  1.0765 -0.3460
  729MOL0     C  474   7.626   3.574   3.997 -0.3266 -0.5399 -0.1371
  729MOL0     C  475   7.644   3.445   3.901 -0.0511 -0.2719  0.3364
  729MOL0     C  476   7.711   3.329   3.960 -0.5378  0.1443  0.1090
  729MOL0     C  477   7.699   3.204   3.870 -0.5009 -0.4726  0.0575
  729MOL0     C  478   7.767   3.083   3.926 -0.1743 -0.3343 -0.7619
  729MOL0     C  479   7.753   2.966   3.836 -0.3648  0.3820 -0.1957
  729MOL0     C  480   7.844   2.850   3.884  0.6127 -0.4651  0.3610
  729MOL0     N  481   7.989   2.876   3.876  0.3044  0.6429 -0.6286
  729MOL0     C  482   8.068   2.879   3.992 -0.1827  0.0654 -0.4429
  729MOL0     C  483   8.195   2.889   3.938  1.2429 -0.2981  0.5484
  729MOL0     C  484   8.314   2.891   4.032  0.0703  0.4802 -0.1710
  729MOL0     C  485   8.435   2.822   3.967  1.2767 -0.4276 -0.5050
  729MOL0     C  486   8.537   2.772   4.068 -0.3644 -0.0805 -0.1937
  729MOL0     C  487   8.583   2.866   4.175 -0.4533 -0.5716 -0.0962
  729MOL0     O  488   8.658   2.982   4.127  0.2233  0.0902 -1.1424
  729MOL0     C  489   8.794   2.974   4.143 -0.4633 -0.0390  0.4692
  729MOL0     C  490   8.860   2.975   4.016  0.3907 -0.0744  0.4946
  729MOL0     C  491   8.983   2.933   3.997  0.0746 -0.7062  0.0412
  729MOL0     C  492   9.041   2.960   3.863 -0.2682  0.6844  1.2706
  729MOL0     C  493   9.064   2.893   4.108 -0.7665  0.2898 -0.4550
  729MOL0     C  494   9.214   2.850   4.098 -0.0438 -0.1085 -0.3166
  729MOL0     O  495   9.250   2.763   3.992  0.2899  0.3032  0.1965
  729MOL0     C  496   9.379   2.710   3.990  0.8492 -0.4543 -0.5170
  729MOL0     C  497   9.389   2.579   3.951  0.0883  0.0499 -0.7933
  729MOL0     C  498   9.515   2.518   3.919  0.2926  0.3074  0.6011
  729MOL0     C  499   9.630   2.592   3.935  0.5873  0.8005 -0.0722
  729MOL0     O  500   9.751   2.540   3.921 -0.3914 -0.0313  0.4078
  729MOL0     C  501   9.786   2.409   3.963  0.2145 -0.3530  0.1037
  729MOL0     C  502   9.934   2.384   3.952  0.7624  0.4137 -0.3865
  729MOL0     C  503  10.017   2.464   4.045 -0.8957  0.2175 -0.4527
  729MOL0     C  504   9.971   2.481   4.193  0.9832 -0.2378 -0.5648
  729MOL0     C  505   9.962   2.356   4.279 -0.1713 -0.7276  0.1532
  729MOL0     C  506   9.882   2.394   4.403  0.5519  0.3715 -0.0345
  729MOL0     C  507   9.871   2.281   4.511 -0.1817 -0.6318 -0.1231
  729MOL0     C  508  10.003   2.226   4.563  0.7994 -0.0594  0.6783
  729MOL0    Cl  509  10.092   2.357   4.641  0.3179  0.1639 -0.1012
  729MOL0     C  510   9.618   2.728   3.971  0.0719 -0.1696  0.1383
  729MOL0     C  511   9.496   2.785   4.002 -0.9444  0.2063  0.2703
  729MOL0     O  512   9.288   2.898   4.180 -0.3385 -0.0766 -0.1146
  729MOL0     C  513   9.007   2.899   4.239  0.3943  0.9590  0.3699
  729MOL0     C  514   8.869   2.940   4.252 -0.9358 -0.2665 -0.0078
  729MOL0     N  515   8.181   2.904   3.799 -0.3524  0.9992  0.1382
  729MOL0     N  516   8.056   2.896   3.765  0.1299 -0.0058  0.7204
  729MOL0     C  517   7.852   3.726   3.806 -0.8952  0.3397 -0.5622
  729MOL0     C  518   7.973   3.744   3.732  0.2723 -0.5497 -0.2513
  729MOL0     C  519   8.261   3.995   3.475  0.7265  0.6200 -0.1806
  729MOL0     C  520   8.276   3.918   3.358 -0.4497  0.5156  0.3362
  729MOL0     C  521   8.385   3.950   3.276  0.7970  0.4426  0.6414
  729MOL0     C  522   8.475   4.055   3.286 -0.8067  0.5306  0.4797
  729MOL0     O  523   8.561   4.095   3.185 -0.0354  1.1907  0.2219
  729MOL0     C  524   8.694   4.098   3.236 -0.2444 -1.0958  0.9492
  729MOL0     C  525   8.732   4.244   3.257  0.1544  1.2819  0.2992
  729MOL0     C  526   8.652   4.357   3.186  0.9635  0.2762 -0.7313
  729MOL0     C  527   8.695   4.498   3.240 -0.0833 -0.0408  0.1547
  729MOL0     C  528   8.624   4.527   3.367 -0.0985  0.5684  0.6164
  729MOL0     C  529   8.572   4.558   3.475 -0.7695 -0.0767 -0.6873
  729MOL0     C  530   8.457   4.131   3.397 -0.1561 -0.4095 -0.1941
  729MOL0     C  531   8.352   4.100   3.494 -0.2021 -0.4484 -0.3999
  729MOL0     C  532   8.351   4.188   3.615 -0.7852 -1.0413  0.4643
  729MOL0     H  533   7.855   3.862   3.444  0.8752  1.3140 -0.1738
  729MOL0     H  534   7.645   3.806   3.560 -0.6756 -0.5280  0.8278
  729MOL0     H  535   7.480   3.726   3.958 -0.1194  4.7745  0.3780
  729MOL0     H  536   7.649   3.784   3.992  2.4339 -3.6873  2.9270
  729MOL0     H  537   7.720   3.589   4.051 -0.8925 -1.5726  1.1989
  729MOL0     H  538   7.554   3.545   4.073 -0.5102 -2.6725 -1.0604
  729MOL0     H  539   7.550   3.427   3.849 -1.0171  1.6833  1.3096
  729MOL0     H  540   7.716   3.477   3.824  0.3563 -0.2076  0.7370
  729MOL0     H  541   7.818   3.350   3.970 -0.0912 -2.4058  1.4654
  729MOL0     H  542   7.665   3.306   4.057 -0.9655 -0.1344 -0.1565
  729MOL0     H  543   7.745   3.230   3.774 -1.7090  1.3805 -0.0672
  729MOL0     H  544   7.592   3.181   3.864 -1.0059  1.3786  1.2265
  729MOL0     H  545   7.873   3.106   3.938 -0.6052  1.8103 -0.7504
  729MOL0     H  546   7.723   3.060   4.024  0.5289  0.1512 -0.3223
  729MOL0     H  547   7.774   2.983   3.730  1.0556 -1.3676 -0.2506
  729MOL0     H  548   7.646   2.942   3.839 -0.7553  2.0919  0.1620
  729MOL0     H  549   7.830   2.833   3.991  2.2018  0.7024  0.7853
  729MOL0     H  550   7.822   2.758   3.828 -0.2415  1.3247 -2.4562
  729MOL0     H  551   8.045   2.888   4.098 -0.7301  2.5330 -0.7225
  729MOL0     H  552   8.282   2.846   4.126 -1.2232  5.4854  2.1131
  729MOL0     H  553   8.345   2.990   4.066  1.5407  0.6416 -1.8206
  729MOL0     H  554   8.398   2.734   3.912  1.9201 -0.9909 -0.0574
  729MOL0     H  555   8.478   2.900   3.905 -0.8189  2.1806  1.1026
  729MOL0     H  556   8.507   2.686   4.128  1.1416  1.0030  2.3202
  729MOL0     H  557   8.625   2.746   4.008  0.1829  6.2851 -3.0075
  729MOL0     H  558   8.494   2.901   4.228 -0.5942 -1.3261  0.1758
  729MOL0     H  559   8.649   2.812   4.244  0.3889  0.9423  0.3294
  729MOL0     H  560   8.790   3.013   3.942 -0.5513 -0.4871  1.1386
  729MOL0     H  561   8.997   3.048   3.815 -0.3034 -0.4505 -0.9150
  729MOL0     H  562   9.026   2.880   3.790 -0.0764  1.5990  0.1951
  729MOL0     H  563   9.149   2.977   3.867 -0.1585 -0.1682  2.0780
  729MOL0     H  564   9.300   2.516   3.943  0.2225 -0.7459  2.5516
  729MOL0     H  565   9.519   2.409   3.914 -2.9626  0.0596  1.2604
  729MOL0     H  566   9.746   2.380   4.060 -1.9680 -0.4380 -0.7594
  729MOL0     H  567   9.748   2.339   3.888 -0.5646 -1.1930  1.2514
  729MOL0     H  568   9.950   2.278   3.970  0.0775 -0.3575 -3.6722
  729MOL0     H  569   9.962   2.409   3.850 -0.9161  0.2568 -0.9237
  729MOL0     H  570  10.032   2.565   4.007 -1.0398  0.0683 -0.9146
  729MOL0     H  571  10.115   2.416   4.045 -0.3739  1.2559 -0.7584
  729MOL0     H  572   9.873   2.529   4.194  2.4479  3.0008  1.6452
  729MOL0     H  573  10.038   2.553   4.240  2.6733 -0.9086 -1.8384
  729MOL0     H  574   9.907   2.270   4.239 -0.5449 -1.5666  2.3558
  729MOL0     H  575  10.065   2.322   4.295  0.2462 -0.3547 -1.5730
  729MOL0     H  576   9.778   2.421   4.381  0.4392  0.2310  0.3184
  729MOL0     H  577   9.927   2.482   4.451 -2.0711  1.2303  1.0441
  729MOL0     H  578   9.812   2.198   4.471  0.1515 -1.4383  1.0331
  729MOL0     H  579   9.828   2.325   4.601  0.6284 -0.8408  0.3688
  729MOL0     H  580  10.069   2.190   4.484  1.4709  0.2136  1.1039
  729MOL0     H  581   9.988   2.140   4.629  0.2261 -1.1450 -0.8247
  729MOL0     H  582   9.711   2.784   3.970 -0.5524  0.9264 -1.8897
  729MOL0     H  583   9.493   2.888   4.039 -0.0184  0.3372  0.0051
  729MOL0     H  584   9.059   2.861   4.326 -2.3972  2.0087  2.6956
  729MOL0     H  585   8.820   2.950   4.348  1.9959  3.8079  1.3659
  729MOL0     H  586   7.850   3.694   3.910 -2.7672  1.8001 -0.0848
  729MOL0     H  587   8.062   3.714   3.787 -0.8025  0.1557  1.9820
  729MOL0     H  588   8.194   3.853   3.332 -0.8501  0.4197  1.7558
  729MOL0     H  589   8.384   3.893   3.184 -0.8182 -1.2889  1.6699
  729MOL0     H  590   8.709   4.046   3.331  2.4822  0.8652  1.7210
  729MOL0     H  591   8.757   4.054   3.159  1.9607  0.4064  1.8193
  729MOL0     H  592   8.836   4.255   3.226 -0.5790  0.3182 -2.8597
  729MOL0     H  593   8.732   4.257   3.366 -0.1343 -0.9286  0.6156
  729MOL0     H  594   8.671   4.344   3.079 -0.7097 -0.2461 -0.9927
  729MOL0     H  595   8.544   4.346   3.204  0.1768  5.4578 -0.7382
  729MOL0     H  596   8.675   4.566   3.158  0.9277 -3.1826 -2.9399
  729MOL0     H  597   8.802   4.498   3.261 -0.1679  2.1239  0.7826
  729MOL0     H  598   8.523   4.604   3.558  0.2839  0.3737 -0.3081
  729MOL0     H  599   8.512   4.223   3.414  0.8698 -0.8819 -0.8773
  729MOL0     H  600   8.450   4.232   3.624  0.2464 -2.3840 -2.7817
  729MOL0     H  601   8.268   4.259   3.605 -0.3084 -0.6477 -0.8656
  729MOL0     H  602   8.339   4.147   3.715  0.9163  2.5010  2.3027
  730MOL0     O  603   6.682   4.944   5.498 -0.6742  0.9516  0.2285
  730MOL0     C  604   6.603   5.039   5.490 -0.5024 -0.6669  0.1358
  730MOL0     O  605   6.644   5.168   5.472 -0.5295  0.0403  0.5833
  730MOL0     C  606   6.774   5.191   5.435 -0.6571  0.5293  1.0465
  730MOL0     C  607   6.844   5.129   5.330  0.3950  0.3617  0.1086
  730MOL0     C  608   6.980   5.152   5.303 -0.4139 -0.1691  0.4197
  730MOL0     C  609   7.051   5.245   5.374 -0.5169 -0.3517 -0.3524
  730MOL0     O  610   7.183   5.264   5.347  0.2186 -0.3855 -0.2321
  730MOL0     C  611   7.267   5.206   5.442 -0.3365  0.4189 -0.0462
  730MOL0     C  612   7.383   5.297   5.458  0.2639 -0.0206  0.9901
  730MOL0     C  613   7.509   5.221   5.505 -0.1223  0.2100 -0.0445
  730MOL0     C  614   7.620   5.322   5.525  0.1685 -0.0244  0.3235
  730MOL0     C  615   7.616   5.386   5.665  0.5009 -0.0727  0.2587
  730MOL0     C  616   7.728   5.491   5.668  0.4175 -0.1370 -0.6648
  730MOL0     C  617   7.710   5.578   5.796 -0.1903 -0.1621  0.2489
  730MOL0     C  618   7.850   5.619   5.842  0.4164 -0.0271  0.2831
  730MOL0     N  619   7.836   5.732   5.925 -0.1867 -0.7680  0.1989
  730MOL0     C  620   7.846   5.863   5.878  0.4976 -0.1958  0.2245
  730MOL0     C  621   7.860   5.946   5.986 -0.6245  0.0990  0.5527
  730MOL0     C  622   7.873   6.093   5.980  0.3869 -0.0977 -0.1615
  730MOL0     C  623   7.996   6.152   6.045  0.0007 -0.2332  0.2486
  730MOL0     C  624   8.116   6.165   5.943 -0.0903 -0.4461 -0.0296
  730MOL0     C  625   8.243   6.248   5.999  0.3764  0.7647  0.0166
  730MOL0     O  626   8.279   6.197   6.131 -0.0964  0.0471  0.1520
  730MOL0     C  627   8.381   6.263   6.197  0.4612 -0.0011  0.1459
  730MOL0     C  628   8.375   6.251   6.333 -0.0141  0.2439  1.0071
  730MOL0     C  629   8.463   6.311   6.422 -0.5453  0.4560 -0.7212
  730MOL0     C  630   8.441   6.280   6.567  0.0068 -0.4862 -0.1262
  730MOL0     C  631   8.556   6.400   6.367 -0.8671 -0.2816 -0.1536
  730MOL0     C  632   8.649   6.478   6.460  0.4793 -0.0656  0.1665
  730MOL0     O  633   8.764   6.519   6.406 -0.0196  0.2073 -0.1798
  730MOL0     C  634   8.834   6.626   6.463 -0.0328 -0.5938  0.0152
  730MOL0     C  635   8.780   6.759   6.454 -0.2475  0.3494 -0.7635
  730MOL0     C  636   8.857   6.868   6.496  0.9959 -0.1308 -0.3210
  730MOL0     C  637   8.983   6.850   6.562 -0.2325 -0.7372  0.4565
  730MOL0     O  638   9.061   6.944   6.615 -0.4094 -0.2586  0.7608
  730MOL0     C  639   9.014   7.076   6.617 -0.3665 -0.7767  0.1375
  730MOL0     C  640   9.113   7.165   6.689  0.8196  0.2561  0.1605
  730MOL0     C  641   9.135   7.136   6.843  0.1176 -0.7888 -0.1138
  730MOL0     C  642   9.215   7.243   6.915 -0.2331 -0.2668  0.4814
  730MOL0     C  643   9.241   7.214   7.065 -0.1429 -0.0912  0.5918
  730MOL0     C  644   9.385   7.247   7.096  0.5192 -0.9061 -0.3611
  730MOL0     C  645   9.416   7.400   7.053  0.4824 -0.1134 -0.0806
  730MOL0     C  646   9.571   7.427   7.100 -0.0049 -0.5622  0.1988
  730MOL0    Cl  647   9.664   7.350   6.959 -0.0640 -0.1054 -0.0291
  730MOL0     C  648   9.035   6.721   6.556 -0.1919 -0.4333  0.8880
  730MOL0     C  649   8.962   6.610   6.505 -0.3974 -0.2436 -0.0252
  730MOL0     O  650   8.606   6.505   6.570  0.1503 -0.2648  0.1572
  730MOL0     C  651   8.571   6.412   6.228 -0.7369  0.3018 -0.3100
  730MOL0     C  652   8.481   6.344   6.137  0.0663 -0.3971  0.1971
  730MOL0     N  653   7.865   5.862   6.098  0.1440  0.6208  0.3630
  730MOL0     N  654   7.843   5.737   6.061  0.8016 -0.0501  0.5476
  730MOL0     C  655   6.979   5.325   5.472  0.0585  1.2388 -0.3355
  730MOL0     C  656   6.848   5.290   5.503 -0.4024  1.1656  0.4662
  730MOL0     C  657   6.463   5.016   5.512  0.1426  0.1216  0.0455
  730MOL0     C  658   6.381   5.118   5.466  0.1780 -0.6126 -0.5316
  730MOL0     C  659   6.241   5.117   5.483  0.4569 -0.2221 -1.3844
  730MOL0     C  660   6.189   5.007   5.551  0.6800  1.2623  1.2878
  730MOL0     O  661   6.052   5.027   5.571  0.0678  0.1038 -0.1133
  730MOL0     C  662   5.986   4.935   5.658 -0.5439 -0.0931  1.1799
  730MOL0     C  663   5.840   4.971   5.657 -1.1461  0.1205 -0.1957
  730MOL0     C  664   5.806   5.118   5.677 -0.6423 -0.1405  0.3876
  730MOL0     C  665   5.654   5.122   5.662 -0.2252  0.2392  1.0585
  730MOL0     C  666   5.612   5.257   5.693 -0.6046  0.8236  0.1119
  730MOL0     C  667   5.590   5.362   5.749  0.3771 -0.1099 -0.0536
  730MOL0     C  668   6.268   4.902   5.585  0.6251  0.4054  0.1571
  730MOL0     C  669   6.404   4.903   5.565  0.4015  1.1275  0.1204
  730MOL0     C  670   6.476   4.774   5.589 -0.4932  0.4062 -0.2247
  730MOL0     H  671   6.792   5.060   5.265  2.8641 -1.4062 -0.0888
  730MOL0     H  672   7.047   5.091   5.243 -1.0987  0.3828 -0.9482
  730MOL0     H  673   7.304   5.108   5.411 -3.1253 -0.2089 -1.8542
  730MOL0     H  674   7.228   5.187   5.542 -0.4049  4.1279  0.7718
  730MOL0     H  675   7.410   5.341   5.361  1.0479  0.3732  1.3746
  730MOL0     H  676   7.359   5.372   5.535 -0.0048 -1.2811  2.1630
  730MOL0     H  677   7.480   5.180   5.602  0.1811  1.3904  0.5634
  730MOL0     H  678   7.542   5.144   5.435  0.2843 -0.8721  1.2988
  730MOL0     H  679   7.716   5.271   5.518 -0.5858 -1.3208 -1.1534
  730MOL0     H  680   7.624   5.392   5.441 -3.2764 -0.8493 -0.7113
  730MOL0     H  681   7.622   5.318   5.751 -0.0073  1.8482  1.9172
  730MOL0     H  682   7.524   5.446   5.668  1.7385  1.8843  2.5771
  730MOL0     H  683   7.823   5.437   5.677  0.6466  0.4403  0.6224
  730MOL0     H  684   7.721   5.548   5.575 -0.3558  1.0227  0.0795
  730MOL0     H  685   7.669   5.522   5.881  2.4908 -0.4790  1.4246
  730MOL0     H  686   7.649   5.666   5.773  2.9894  2.3343  0.5711
  730MOL0     H  687   7.888   5.543   5.911  0.3481  0.9384  1.4041
  730MOL0     H  688   7.910   5.642   5.754 -2.0235 -1.3603 -1.8847
  730MOL0     H  689   7.847   5.892   5.773  3.0561 -0.0711  0.2211
  730MOL0     H  690   7.785   6.124   6.036 -0.3941 -0.3845 -1.1976
  730MOL0     H  691   7.870   6.133   5.878  2.1071  2.3622  0.6473
  730MOL0     H  692   7.966   6.253   6.075 -0.2535  0.1167 -1.1011
  730MOL0     H  693   8.023   6.092   6.132 -1.3471 -0.8384  0.2751
  730MOL0     H  694   8.153   6.066   5.914 -0.7632 -0.8236  0.3682
  730MOL0     H  695   8.082   6.216   5.853 -0.3388 -0.4877  0.0407
  730MOL0     H  696   8.334   6.241   5.939  0.1467 -0.9162 -0.1637
  730MOL0     H  697   8.214   6.354   6.000  2.4377  1.4044  2.4211
  730MOL0     H  698   8.300   6.179   6.365  0.5184 -1.5604 -1.4903
  730MOL0     H  699   8.528   6.243   6.623 -0.0083 -0.9846 -0.4309
  730MOL0     H  700   8.364   6.203   6.572  1.1022 -1.7648 -1.9578
  730MOL0     H  701   8.403   6.372   6.614  2.4648  0.4237  0.2181
  730MOL0     H  702   8.678   6.757   6.417 -0.5845  1.8892 -0.0066
  730MOL0     H  703   8.815   6.968   6.490  0.4941 -0.3472 -0.4984
  730MOL0     H  704   8.996   7.108   6.514 -1.2481 -0.2393  0.4517
  730MOL0     H  705   8.919   7.071   6.671 -1.5604 -1.2884 -1.8973
  730MOL0     H  706   9.208   7.153   6.636  1.9826  2.8737  1.4622
  730MOL0     H  707   9.083   7.270   6.688  1.0479  0.4285  2.8356
  730MOL0     H  708   9.180   7.037   6.852 -0.6023 -1.0799  0.2803
  730MOL0     H  709   9.039   7.143   6.893  0.0956 -0.4743 -0.1964
  730MOL0     H  710   9.168   7.341   6.907  0.5710 -0.0639 -4.1048
  730MOL0     H  711   9.308   7.255   6.859 -1.0982  1.9938 -0.5569
  730MOL0     H  712   9.174   7.270   7.131 -0.7333 -3.1259  2.7611
  730MOL0     H  713   9.227   7.110   7.094  0.3479 -0.4376 -0.3842
  730MOL0     H  714   9.454   7.174   7.054 -0.3041 -1.4820 -0.7333
  730MOL0     H  715   9.417   7.253   7.201  0.2808  1.4957 -0.3546
  730MOL0     H  716   9.343   7.472   7.092 -0.7730  0.5229 -3.3130
  730MOL0     H  717   9.408   7.408   6.944 -0.6078 -1.9623 -0.1824
  730MOL0     H  718   9.607   7.394   7.197 -0.2326 -2.0577 -0.1916
  730MOL0     H  719   9.590   7.534   7.092  1.8783 -0.9889 -2.4198
  730MOL0     H  720   9.137   6.710   6.592  1.5070 -1.7059 -3.5293
  730MOL0     H  721   9.014   6.515   6.502 -0.2170 -0.1997  1.0032
  730MOL0     H  722   8.645   6.481   6.187  0.3393  0.0142  1.0888
  730MOL0     H  723   8.494   6.357   6.030  0.3654  0.3295  0.3132
  730MOL0     H  724   7.032   5.412   5.509 -0.0516  0.8052  0.8889
  730MOL0     H  725   6.786   5.350   5.569  0.8622  0.6918  2.1444
  730MOL0     H  726   6.417   5.213   5.429 -0.8054  0.2194  0.5563
  730MOL0     H  727   6.175   5.197   5.450 -1.1621 -0.6031  0.7175
  730MOL0     H  728   5.997   4.830   5.630  1.6429  0.1956  0.7671
  730MOL0     H  729   6.029   4.945   5.758 -1.0720  0.7891  1.3280
  730MOL0     H  730   5.782   4.912   5.729 -0.4912 -0.2875  0.0048
  730MOL0     H  731   5.802   4.947   5.557 -1.0811 -1.0953  0.0630
  730MOL0     H  732   5.846   5.155   5.771  1.1865 -0.6963 -0.1364
  730MOL0     H  733   5.845   5.182   5.598 -1.3707  1.4348  1.2575
  730MOL0     H  734   5.604   5.052   5.729  0.2060 -0.0151  1.1186
  730MOL0     H  735   5.629   5.099   5.558 -0.9495  0.0981  1.2616
  730MOL0     H  736   5.564   5.457   5.792  1.4340 -0.3705  1.2123
  730MOL0     H  737   6.238   4.812   5.639  2.5688  1.6436  3.5868
  730MOL0     H  738   6.552   4.789   5.666 -3.1535  1.6221  2.3703
  730MOL0     H  739   6.411   4.700   5.638  1.4506  0.0145  1.9459
  730MOL0     H  740   6.518   4.717   5.506 -2.6665 -2.3692  0.4096
  731MOL0     O  741   1.745   4.526   7.344 -0.4261 -0.4284 -0.3023
  731MOL0     C  742   1.711   4.641   7.380 -0.0064 -0.9166 -0.5139
  731MOL0     O  743   1.786   4.758   7.353  0.2883 -0.1615  0.1641
  731MOL0     C  744   1.894   4.729   7.273  0.2724  0.0104  0.5193
  731MOL0     C  745   1.869   4.749   7.139  0.8711  0.3470 -0.1936
  731MOL0     C  746   1.965   4.720   7.035  0.2723  0.0400  0.3069
  731MOL0     C  747   2.088   4.668   7.070  0.7037  0.4731 -0.3714
  731MOL0     O  748   2.191   4.641   6.991  0.0695  0.3103 -0.2775
  731MOL0     C  749   2.199   4.708   6.866  0.6756  0.6436 -0.6395
  731MOL0     C  750   2.327   4.692   6.793  0.4290  0.1773 -0.5898
  731MOL0     C  751   2.360   4.549   6.754  0.6797 -0.0279  0.7033
  731MOL0     C  752   2.520   4.536   6.744 -0.0275 -0.9718 -0.2628
  731MOL0     C  753   2.577   4.392   6.733 -0.2964  0.0946 -0.7743
  731MOL0     C  754   2.539   4.337   6.597  0.6808  0.6640 -0.0090
  731MOL0     C  755   2.617   4.214   6.548  0.2346  1.0252 -0.0216
  731MOL0     C  756   2.698   4.236   6.413  0.1817  0.7585  0.0989
  731MOL0     N  757   2.814   4.324   6.429 -0.4986  0.7981 -0.3884
  731MOL0     C  758   2.943   4.282   6.458  1.2936  0.4725 -0.2110
  731MOL0     C  759   3.014   4.385   6.430 -0.0912 -0.4542  0.4504
  731MOL0     C  760   3.167   4.379   6.433 -0.4346 -0.5627  0.6969
  731MOL0     C  761   3.236   4.510   6.384 -0.2454 -0.1334  0.4863
  731MOL0     C  762   3.389   4.503   6.376  0.4824  0.7039 -0.0463
  731MOL0     C  763   3.450   4.647   6.374  0.0236  0.2514  0.2736
  731MOL0     O  764   3.566   4.643   6.291 -0.0536 -0.6636  0.8685
  731MOL0     C  765   3.679   4.574   6.333  1.1221 -0.1490  1.2879
  731MOL0     C  766   3.708   4.543   6.464  0.3328  0.1480  0.2678
  731MOL0     C  767   3.836   4.488   6.498 -0.0628 -0.0309 -0.2102
  731MOL0     C  768   3.873   4.470   6.643 -0.0532 -0.8199  0.4575
  731MOL0     C  769   3.923   4.439   6.402 -0.0054 -0.4915 -0.1109
  731MOL0     C  770   4.057   4.366   6.424 -0.3516  0.4251 -0.6617
  731MOL0     O  771   4.127   4.326   6.312  0.4027  0.4678  0.0318
  731MOL0     C  772   4.246   4.268   6.333 -0.1437 -0.1135 -0.0981
  731MOL0     C  773   4.355   4.353   6.344  0.0054 -0.9689  0.0481
  731MOL0     C  774   4.476   4.299   6.386 -0.2445  0.5413  0.5184
  731MOL0     C  775   4.495   4.161   6.420  0.2173  0.1515 -0.1597
  731MOL0     O  776   4.618   4.131   6.468 -0.1350 -0.1775 -0.3025
  731MOL0     C  777   4.656   3.995   6.455 -0.0047 -0.0096 -0.3332
  731MOL0     C  778   4.793   3.981   6.517  0.4562  0.4365  0.7963
  731MOL0     C  779   4.824   3.834   6.514 -0.0921 -0.3940  0.2513
  731MOL0     C  780   4.980   3.800   6.511  0.2454 -0.6334  0.9326
  731MOL0     C  781   5.004   3.652   6.528 -0.5191 -0.1042 -0.3466
  731MOL0     C  782   4.954   3.561   6.418  0.5511 -0.2948  0.3082
  731MOL0     C  783   4.984   3.415   6.451 -0.6924 -0.3535 -0.1300
  731MOL0     C  784   4.914   3.316   6.356  0.1780  0.3833  0.1720
  731MOL0    Cl  785   4.919   3.346   6.186 -0.4634 -0.0278  0.0159
  731MOL0     C  786   4.378   4.081   6.407 -0.6502  0.2569 -0.3042
  731MOL0     C  787   4.257   4.131   6.367  0.8899  0.1357  0.3489
  731MOL0     O  788   4.099   4.346   6.537 -0.2776  1.1673 -0.3763
  731MOL0     C  789   3.886   4.458   6.266 -0.3104 -0.8892  0.7890
  731MOL0     C  790   3.768   4.529   6.229  0.3301 -0.8361  0.0662
  731MOL0     N  791   2.942   4.488   6.395  1.0204 -0.6303  0.2764
  731MOL0     N  792   2.819   4.454   6.399 -0.4861  0.7816  0.4069
  731MOL0     C  793   2.113   4.658   7.208 -0.7185  0.3500  0.5726
  731MOL0     C  794   2.022   4.684   7.313  0.2632  0.9810  0.3294
  731MOL0     C  795   1.575   4.674   7.437 -0.9941  0.3414 -0.0697
  731MOL0     C  796   1.515   4.879   7.449  1.5926 -0.9616 -0.1535
  731MOL0     C  797   1.326   4.929   7.522  0.2200  0.0091 -0.5357
  731MOL0     C  798   1.195   4.777   7.583  0.0032 -0.2464  0.7307
  731MOL0     O  799   1.083   4.826   7.646  0.0348  0.7882 -0.2634
  731MOL0     C  800   1.013   4.735   7.725 -0.1637 -0.7029 -0.4842
  731MOL0     C  801   0.920   4.635   7.646 -0.8961 -0.0831 -0.8902
  731MOL0     C  802   0.814   4.703   7.576  0.0943  0.1660  0.4843
  731MOL0     C  803   0.742   4.617   7.477  0.3066 -0.1873 -0.4049
  731MOL0     C  804   0.641   4.703   7.413  0.3225  0.9309 -1.0015
  731MOL0     C  805   0.557   4.776   7.362 -0.3981 -0.3287  0.4616
  731MOL0     C  806   1.249   4.573   7.574  0.8568 -0.7409  0.1041
  731MOL0     C  807   1.444   4.518   7.495 -0.3622 -0.3811  0.2736
  731MOL0     C  808   1.474   4.375   7.491  0.1172 -1.0084 -0.3725
  731MOL0     H  809   1.783   4.809   7.112  1.8999  0.8831 -2.5684
  731MOL0     H  810   1.946   4.745   6.932  1.3495 -0.3817 -0.0089
  731MOL0     H  811   2.180   4.815   6.880  0.5008  1.1254 -3.9197
  731MOL0     H  812   2.112   4.671   6.811 -0.1181  0.3351  0.7493
  731MOL0     H  813   2.305   4.746   6.700  0.5122  0.8707 -0.2203
  731MOL0     H  814   2.410   4.742   6.844 -0.5692  0.9642  0.2924
  731MOL0     H  815   2.330   4.479   6.833  0.5600  0.4031  1.0498
  731MOL0     H  816   2.306   4.532   6.661 -1.3649  1.2545  1.5832
  731MOL0     H  817   2.553   4.600   6.662  1.0568  0.3841  1.1692
  731MOL0     H  818   2.555   4.588   6.834 -1.2759 -0.5151 -0.0267
  731MOL0     H  819   2.532   4.329   6.811 -0.7824  2.4555  0.9657
  731MOL0     H  820   2.686   4.388   6.745 -0.2444  0.8866 -0.9263
  731MOL0     H  821   2.431   4.321   6.593  0.4945  1.3496  1.4147
  731MOL0     H  822   2.554   4.409   6.516  0.8356 -0.1810 -0.7390
  731MOL0     H  823   2.551   4.127   6.545 -0.2379  1.3236  1.2713
  731MOL0     H  824   2.697   4.193   6.620 -0.8704  3.7933  2.1846
  731MOL0     H  825   2.725   4.135   6.381  2.1947  0.8285  1.3624
  731MOL0     H  826   2.623   4.281   6.348  1.7286  2.0118 -0.8833
  731MOL0     H  827   2.977   4.187   6.500 -0.3405  0.5016  1.3178
  731MOL0     H  828   3.211   4.300   6.371 -0.5770 -1.6373  1.9214
  731MOL0     H  829   3.202   4.346   6.531 -0.1718 -0.7609  0.5375
  731MOL0     H  830   3.202   4.531   6.282 -0.5129 -1.3540  0.3120
  731MOL0     H  831   3.215   4.581   6.464 -0.1723 -1.9021  2.1534
  731MOL0     H  832   3.421   4.454   6.469 -1.0237  1.6691  1.0280
  731MOL0     H  833   3.413   4.436   6.292  1.4816  0.0542  0.7242
  731MOL0     H  834   3.376   4.719   6.340 -1.4960 -1.0711  0.6519
  731MOL0     H  835   3.481   4.685   6.472  0.4744  0.9604 -0.1374
  731MOL0     H  836   3.631   4.564   6.538  1.0779  0.4760  0.9660
  731MOL0     H  837   3.879   4.367   6.678  3.7556 -0.8814  0.0871
  731MOL0     H  838   3.810   4.528   6.711 -0.1542 -0.3853  0.0001
  731MOL0     H  839   3.976   4.501   6.665 -0.0187 -0.3927 -0.2853
  731MOL0     H  840   4.347   4.456   6.311 -2.0714 -1.5218 -1.3674
  731MOL0     H  841   4.558   4.370   6.391 -0.4701  0.8618 -0.2525
  731MOL0     H  842   4.585   3.933   6.511 -1.6626  1.1189 -1.1159
  731MOL0     H  843   4.657   3.972   6.348 -1.3778 -2.4311  0.0985
  731MOL0     H  844   4.855   4.037   6.446  1.7579 -2.5765 -0.6128
  731MOL0     H  845   4.807   4.029   6.615 -2.2145  4.1105 -0.3860
  731MOL0     H  846   4.791   3.786   6.421 -0.1205 -3.2967  1.6596
  731MOL0     H  847   4.779   3.786   6.602 -1.4743 -1.3592 -0.9178
  731MOL0     H  848   5.034   3.855   6.589 -0.8898  0.1040  1.2245
  731MOL0     H  849   5.026   3.835   6.418  2.5896 -0.5643  2.0380
  731MOL0     H  850   5.112   3.635   6.525 -0.7594 -1.6556 -2.4722
  731MOL0     H  851   4.964   3.622   6.625  3.1824  0.2014  1.4679
  731MOL0     H  852   5.001   3.586   6.322  2.1851 -1.7068  0.6787
  731MOL0     H  853   4.849   3.586   6.401  0.6375 -0.3173 -0.2792
  731MOL0     H  854   4.955   3.393   6.554 -0.5911  0.2927  0.0468
  731MOL0     H  855   5.092   3.400   6.447 -0.4843  0.4483  1.4686
  731MOL0     H  856   4.809   3.305   6.386  0.2986 -2.2810 -0.1933
  731MOL0     H  857   4.967   3.223   6.375 -0.3335  0.2448  0.9390
  731MOL0     H  858   4.380   3.978   6.441  0.6101  0.8953  1.6937
  731MOL0     H  859   4.162   4.079   6.363 -1.5424  4.1956 -2.0943
  731MOL0     H  860   3.951   4.418   6.189  0.1289  1.3351 -0.0814
  731MOL0     H  861   3.755   4.537   6.121  0.4136  1.0719  0.1582
  731MOL0     H  862   2.210   4.617   7.232 -0.7271 -0.4550 -0.6530
  731MOL0     H  863   2.049   4.678   7.418  0.1795  1.9323  0.4143
  731MOL0     H  864   1.580   4.958   7.412 -0.8086  1.6785  0.8664
  731MOL0     H  865   1.284   5.029   7.529  1.1753  0.4679 -1.1570
  731MOL0     H  866   1.077   4.678   7.793 -1.2479  0.0246  1.2062
  731MOL0     H  867   0.950   4.795   7.791  0.6668  3.2449 -2.9357
  731MOL0     H  868   0.877   4.562   7.715  1.9870 -0.5634  0.5688
  731MOL0     H  869   0.989   4.578   7.582  2.9691 -0.4982  3.0938
  731MOL0     H  870   0.742   4.744   7.648  1.7225 -0.7687  2.7427
  731MOL0     H  871   0.864   4.775   7.511 -1.2838 -1.5826 -2.7267
  731MOL0     H  872   0.692   4.528   7.517 -1.3679  0.5193 -0.8706
  731MOL0     H  873   0.814   4.576   7.405  1.2853 -1.6434  1.3187
  731MOL0     H  874   0.487   4.848   7.326  0.4626  0.2669 -0.0599
  731MOL0     H  875   1.184   4.500   7.621 -1.4663  1.2679  0.2080
  731MOL0     H  876   1.422   4.321   7.571  0.5325 -1.7038 -0.5643
  731MOL0     H  877   1.432   4.344   7.395  0.8931 -1.6576 -0.5063
  731MOL0     H  878   1.582   4.362   7.498  0.4213  1.4005  0.6591
  732MOL0     O  879   4.102   0.847   6.568 -0.6055 -0.0054 -0.1814
  732MOL0     C  880   4.014   0.930   6.550  0.3509 -1.1050  0.3218
  732MOL0     O  881   4.026   1.070   6.534  0.7660  0.3398  0.3552
  732MOL0     C  882   4.150   1.122   6.544  0.2966 -0.7040  0.9421
  732MOL0     C  883   4.208   1.203   6.442  0.9872 -0.7193  0.4829
  732MOL0     C  884   4.338   1.247   6.456 -0.3153 -0.1789  1.1904
  732MOL0     C  885   4.421   1.219   6.564  0.5756  0.3790  0.3621
  732MOL0     O  886   4.541   1.289   6.570 -0.0311  0.7874  0.2299
  732MOL0     C  887   4.654   1.208   6.621 -0.5167  0.4245 -0.3552
  732MOL0     C  888   4.791   1.290   6.632 -0.0183  0.0382 -0.7624
  732MOL0     C  889   4.787   1.412   6.722  0.5979  0.0326  0.8036
  732MOL0     C  890   4.750   1.387   6.865  0.1908  1.7501 -0.1300
  732MOL0     C  891   4.723   1.515   6.938  0.2177  0.2573 -0.5211
  732MOL0     C  892   4.857   1.578   6.993 -0.4531 -0.2570 -1.2836
  732MOL0     C  893   4.847   1.691   7.103  0.3494  0.3093  0.0575
  732MOL0     C  894   4.786   1.821   7.052  0.8298 -0.0011  0.2627
  732MOL0     N  895   4.894   1.904   6.989  0.5277  0.6183  0.4467
  732MOL0     C  896   4.938   1.903   6.858 -0.3682 -0.3621  0.7352
  732MOL0     C  897   5.033   2.004   6.851  0.8175 -0.8290 -0.0320
  732MOL0     C  898   5.112   2.048   6.738  0.3877  0.8217 -0.7995
  732MOL0     C  899   5.045   2.172   6.672  0.5110 -0.1752  0.2340
  732MOL0     C  900   5.139   2.233   6.567 -0.5554 -0.5957  0.1153
  732MOL0     C  901   5.088   2.358   6.505  0.0014 -0.0317 -1.0934
  732MOL0     O  902   5.157   2.407   6.395  0.3234 -0.2276 -0.1620
  732MOL0     C  903   5.173   2.543   6.383 -0.6697 -0.2477 -0.6759
  732MOL0     C  904   5.081   2.640   6.417  0.5211  0.1578  0.6673
  732MOL0     C  905   5.097   2.784   6.403  0.5006  0.3761  0.4123
  732MOL0     C  906   5.000   2.886   6.438  0.0585  0.3629  0.1565
  732MOL0     C  907   5.220   2.828   6.350  0.6949 -0.7456  0.9515
  732MOL0     C  908   5.253   2.967   6.320 -0.2315 -0.3433  0.3972
  732MOL0     O  909   5.295   2.989   6.186 -0.2423  0.4294  0.1079
  732MOL0     C  910   5.343   3.120   6.163  0.7632 -0.3887 -0.3664
  732MOL0     C  911   5.272   3.240   6.167  0.0847  0.3697  0.4703
  732MOL0     C  912   5.335   3.361   6.149  0.7044 -0.3591 -0.5821
  732MOL0     C  913   5.474   3.366   6.121  1.4060  0.5202  1.0198
  732MOL0     O  914   5.547   3.482   6.103  0.1378  0.2118  0.3405
  732MOL0     C  915   5.650   3.510   6.199 -0.1745 -0.2193 -0.4647
  732MOL0     C  916   5.742   3.613   6.141  0.2631  0.9802 -0.5810
  732MOL0     C  917   5.811   3.546   6.020  0.1303 -0.7664  0.5549
  732MOL0     C  918   5.931   3.623   5.976  0.3148 -1.3196 -0.8440
  732MOL0     C  919   5.986   3.564   5.849 -0.2442  0.0556  0.9269
  732MOL0     C  920   6.099   3.649   5.795  0.4340 -0.0607 -0.0648
  732MOL0     C  921   6.233   3.630   5.875  0.5981 -0.2306  0.3553
  732MOL0     C  922   6.342   3.717   5.819 -0.5403 -0.4101  0.0991
  732MOL0    Cl  923   6.502   3.684   5.893  0.2337 -0.1746  0.3757
  732MOL0     C  924   5.540   3.245   6.102  0.4444 -0.8820 -0.5526
  732MOL0     C  925   5.471   3.124   6.121  0.4869 -0.3037  0.8297
  732MOL0     O  926   5.243   3.061   6.402  0.8410  0.1029  0.1641
  732MOL0     C  927   5.312   2.734   6.309 -0.3418  0.1157 -0.6659
  732MOL0     C  928   5.293   2.598   6.332 -0.3063 -1.4389 -0.5976
  732MOL0     N  929   5.027   2.070   6.970  0.6815  0.0061  0.2777
  732MOL0     N  930   4.951   2.009   7.050 -0.3315 -0.5812 -0.0405
  732MOL0     C  931   4.365   1.138   6.663 -0.5644  0.2273 -0.6673
  732MOL0     C  932   4.231   1.088   6.651  0.1337 -0.0524 -0.5025
  732MOL0     C  933   3.871   0.872   6.536  0.0201 -0.4763  0.1067
  732MOL0     C  934   3.769   0.961   6.504 -0.6275 -0.3472 -0.2928
  732MOL0     C  935   3.632   0.921   6.485  0.3989 -0.8104 -0.8402
  732MOL0     C  936   3.595   0.787   6.502 -0.5815  0.4205  0.5304
  732MOL0     O  937   3.467   0.751   6.478 -0.4003 -0.1466 -0.5914
  732MOL0     C  938   3.420   0.606   6.486  0.4654  0.0697 -0.4618
  732MOL0     C  939   3.393   0.563   6.636 -0.1673 -0.1569  0.9683
  732MOL0     C  940   3.244   0.562   6.678 -0.0278  0.4230 -0.1525
  732MOL0     C  941   3.188   0.698   6.652  0.7309  0.1167 -0.4442
  732MOL0     C  942   3.060   0.711   6.718 -0.1446 -1.2723 -0.2820
  732MOL0     C  943   2.950   0.708   6.766 -0.3828 -0.6131  0.0054
  732MOL0     C  944   3.698   0.696   6.528 -1.1188 -0.3118  0.2014
  732MOL0     C  945   3.839   0.731   6.544 -0.2167 -0.2201  0.3902
  732MOL0     C  946   3.944   0.623   6.578 -0.0065  0.3117  1.1503
  732MOL0     H  947   4.157   1.213   6.348  0.3952 -1.9043  0.6643
  732MOL0     H  948   4.377   1.306   6.373 -2.2205  0.0329  0.3971
  732MOL0     H  949   4.670   1.127   6.549 -1.9907 -1.2081  1.0532
  732MOL0     H  950   4.633   1.161   6.718  1.0783  0.4177  0.0143
  732MOL0     H  951   4.876   1.228   6.663 -0.4511 -0.4016 -0.4446
  732MOL0     H  952   4.810   1.327   6.531 -0.2133  1.7852 -0.1868
  732MOL0     H  953   4.888   1.454   6.723  1.2005 -1.3838  0.6357
  732MOL0     H  954   4.734   1.495   6.675 -0.5105 -1.4399 -0.6541
  732MOL0     H  955   4.652   1.339   6.866 -0.7454  3.5239  2.3073
  732MOL0     H  956   4.821   1.325   6.921  0.6351  0.7237 -1.7562
  732MOL0     H  957   4.657   1.497   7.024  1.8345  1.0266  0.9454
  732MOL0     H  958   4.681   1.582   6.862  1.3438 -0.9164 -2.2523
  732MOL0     H  959   4.918   1.499   7.037  3.1517  2.5313 -0.9020
  732MOL0     H  960   4.918   1.614   6.910  2.5639 -1.2735  0.3619
  732MOL0     H  961   4.949   1.715   7.135  0.2801  1.9087 -0.8341
  732MOL0     H  962   4.782   1.652   7.182  0.1573 -1.6245 -0.9739
  732MOL0     H  963   4.706   1.800   6.980 -0.2051 -1.4241  1.7700
  732MOL0     H  964   4.747   1.864   7.144 -2.9772 -0.4432 -0.9851
  732MOL0     H  965   4.911   1.845   6.771 -2.6205  1.5973  0.0072
  732MOL0     H  966   5.136   1.969   6.666  1.3912 -0.2551  0.6625
  732MOL0     H  967   5.211   2.072   6.777  1.6148 -1.7604 -2.1208
  732MOL0     H  968   4.947   2.148   6.632  1.3886 -0.6440 -1.7308
  732MOL0     H  969   5.032   2.250   6.747 -1.4384 -0.7835  0.5729
  732MOL0     H  970   5.241   2.239   6.607 -0.1126 -1.5929 -0.8122
  732MOL0     H  971   5.150   2.167   6.480  3.1182  1.0063 -0.8803
  732MOL0     H  972   4.992   2.325   6.462 -0.6635  1.1435 -0.5856
  732MOL0     H  973   5.076   2.436   6.581 -0.0936 -1.3307  0.2583
  732MOL0     H  974   4.986   2.601   6.453  0.4922 -1.6943 -1.2254
  732MOL0     H  975   4.905   2.836   6.460  0.5047  0.0772  1.5786
  732MOL0     H  976   4.982   2.952   6.353 -0.4706  0.0149 -0.0056
  732MOL0     H  977   5.040   2.940   6.524  2.7085  1.2021 -1.4998
  732MOL0     H  978   5.165   3.236   6.183 -0.0669 -1.3007 -0.7580
  732MOL0     H  979   5.292   3.461   6.150  2.0838  0.2928  1.5738
  732MOL0     H  980   5.599   3.550   6.288  0.7165  0.1996 -0.1329
  732MOL0     H  981   5.704   3.419   6.227 -1.4439 -0.5044  1.2546
  732MOL0     H  982   5.680   3.699   6.114 -1.3766 -0.6420 -2.2851
  732MOL0     H  983   5.817   3.646   6.214  3.3793 -1.6779 -2.3260
  732MOL0     H  984   5.741   3.550   5.936  2.5528 -1.2446 -1.5775
  732MOL0     H  985   5.831   3.440   6.034  0.9673 -0.5335  1.1886
  732MOL0     H  986   6.010   3.629   6.051 -0.0269  1.1936 -0.6237
  732MOL0     H  987   5.903   3.725   5.948  0.0662 -1.5682 -1.5384
  732MOL0     H  988   6.018   3.460   5.860 -0.0041  0.3072  3.0222
  732MOL0     H  989   5.905   3.582   5.777  1.1981 -1.1786 -1.1166
  732MOL0     H  990   6.064   3.752   5.781 -0.1350 -0.4511 -1.8395
  732MOL0     H  991   6.122   3.607   5.697  1.7268  0.3300  0.0539
  732MOL0     H  992   6.266   3.526   5.871  0.2740 -0.2958 -3.1332
  732MOL0     H  993   6.214   3.664   5.978 -3.4284 -0.0701 -0.2466
  732MOL0     H  994   6.319   3.824   5.821 -0.5739 -0.4184  2.3857
  732MOL0     H  995   6.351   3.706   5.711 -0.7169  0.8591 -0.0599
  732MOL0     H  996   5.646   3.245   6.080  0.4109 -1.9410 -0.7581
  732MOL0     H  997   5.527   3.031   6.113  0.0226 -0.4431 -1.7675
  732MOL0     H  998   5.407   2.756   6.262  0.2227 -0.2828  0.2616
  732MOL0     H  999   5.374   2.532   6.301  0.8987 -0.8720  1.1607
  732MOL0     H 1000   4.425   1.106   6.747 -0.4300  1.6900 -0.1828
  732MOL0     H 1001   4.187   1.032   6.732  1.1950  1.1266  0.9470
  732MOL0     H 1002   3.793   1.061   6.469  0.0798 -0.4499 -0.1166
  732MOL0     H 1003   3.549   0.986   6.460 -0.1328  1.3252  4.9431
  732MOL0     H 1004   3.323   0.605   6.437  1.0849  0.7739 -1.7640
  732MOL0     H 1005   3.485   0.536   6.431  0.5030 -0.1716 -0.1141
  732MOL0     H 1006   3.448   0.628   6.704  2.1313  1.6085 -2.2860
  732MOL0     H 1007   3.434   0.462   6.646  1.8694  0.3570 -1.3322
  732MOL0     H 1008   3.183   0.505   6.608 -2.5613  3.7237 -0.8691
  732MOL0     H 1009   3.232   0.534   6.783 -1.3141 -2.0019 -0.8604
  732MOL0     H 1010   3.156   0.704   6.548  0.3299  1.1242 -0.2735
  732MOL0     H 1011   3.257   0.778   6.680  0.1146  0.3442  0.4735
  732MOL0     H 1012   2.847   0.686   6.787 -1.0697 -0.8600 -3.2067
  732MOL0     H 1013   3.666   0.593   6.540 -0.8761 -1.0048 -3.7983
  732MOL0     H 1014   4.025   0.610   6.505 -0.8868 -0.0770  0.2171
  732MOL0     H 1015   3.991   0.648   6.674  0.0574  1.1064  0.9194
  732MOL0     H 1016   3.896   0.526   6.592 -1.8385  0.1880 -3.9506
  733MOL0     O 1017   9.554   8.031   5.243 -0.3820 -0.0105  0.6023
  733MOL0     C 1018   9.480   8.131   5.242  0.0973  0.7024 -0.8831
  733MOL0     O 1019   9.514   8.261   5.252 -0.5747  0.6732  0.3309
  733MOL0     C 1020   9.655   8.291   5.241  0.0277 -0.1917  0.5679
  733MOL0     C 1021   9.717   8.380   5.328  0.2852  0.4450  0.1837
  733MOL0     C 1022   9.858   8.406   5.327  0.5821  0.5983 -0.6075
  733MOL0     C 1023   9.943   8.337   5.238  0.1692 -0.0486  0.6220
  733MOL0     O 1024  10.079   8.361   5.244 -0.0868 -0.7566 -0.2667
  733MOL0     C 1025  10.168   8.325   5.133 -0.7482  0.2445 -0.8713
  733MOL0     C 1026  10.216   8.179   5.157  0.5707  0.1381 -0.3975
  733MOL0     C 1027  10.321   8.166   5.263 -0.0343  1.1672  0.1962
  733MOL0     C 1028  10.418   8.045   5.250 -0.2960 -0.3762  0.0158
  733MOL0     C 1029  10.515   8.038   5.366 -0.4644  0.5882 -0.0975
  733MOL0     C 1030  10.616   8.147   5.360 -0.7959 -0.1526  0.0246
  733MOL0     C 1031  10.736   8.132   5.461 -0.0211  0.8307  0.5940
  733MOL0     C 1032  10.856   8.222   5.434 -0.0188  0.4375 -0.0482
  733MOL0     N 1033  10.982   8.185   5.500  0.2633 -0.9166  0.3017
  733MOL0     C 1034  11.036   8.062   5.519  0.4032 -0.3708  0.1603
  733MOL0     C 1035  11.162   8.079   5.546  0.8328  0.5012  0.0987
  733MOL0     C 1036  11.251   7.964   5.560 -0.7640  1.2543 -0.8152
  733MOL0     C 1037  11.253   7.917   5.708 -0.2451  0.1877 -0.5230
  733MOL0     C 1038  11.339   7.791   5.737  0.3289  0.3871 -1.2184
  733MOL0     C 1039  11.360   7.778   5.893 -0.3872 -0.3777 -0.0113
  733MOL0     O 1040  11.444   7.889   5.925 -0.4286  0.2444 -0.3291
  733MOL0     C 1041  11.540   7.852   6.002 -0.3531  0.4186 -0.5225
  733MOL0     C 1042  11.531   7.771   6.118 -0.3530  0.8007 -0.0445
  733MOL0     C 1043  11.648   7.751   6.204  0.5229 -0.1093  0.0836
  733MOL0     C 1044  11.639   7.642   6.313  0.2544  0.1946  0.3361
  733MOL0     C 1045  11.771   7.826   6.169 -0.4760  0.2996 -0.1881
  733MOL0     C 1046  11.891   7.811   6.247  0.9813 -0.3100  0.4197
  733MOL0     O 1047  11.992   7.743   6.186  0.2455  0.1000 -0.3920
  733MOL0     C 1048  12.099   7.705   6.267  0.7943 -0.3227  0.7276
  733MOL0     C 1049  12.207   7.788   6.274 -1.2755 -1.3489 -0.3726
  733MOL0     C 1050  12.322   7.751   6.344 -0.2482 -0.0341 -0.0070
  733MOL0     C 1051  12.328   7.636   6.421  0.9261  0.4278 -0.0876
  733MOL0     O 1052  12.439   7.608   6.503 -0.4043  0.4194  0.0287
  733MOL0     C 1053  12.430   7.477   6.565 -0.3696  0.5860  1.0223
  733MOL0     C 1054  12.550   7.442   6.656  0.0950  0.6831  0.4283
  733MOL0     C 1055  12.696   7.453   6.596 -0.1358  0.1676 -0.3530
  733MOL0     C 1056  12.808   7.401   6.689  0.0717 -1.0198 -0.9319
  733MOL0     C 1057  12.942   7.366   6.624 -0.7334  0.2276  0.3249
  733MOL0     C 1058  12.946   7.259   6.518 -0.5780 -0.3328  0.0262
  733MOL0     C 1059  13.079   7.259   6.444 -0.0781 -0.8081 -0.1903
  733MOL0     C 1060  13.071   7.209   6.306 -0.1578  0.1931  0.1432
  733MOL0    Cl 1061  13.232   7.168   6.236 -0.4356  0.6226  0.1687
  733MOL0     C 1062  12.215   7.557   6.407  0.5868  0.7634 -0.2098
  733MOL0     C 1063  12.104   7.588   6.339  0.7649  0.1170 -0.6657
  733MOL0     O 1064  11.891   7.846   6.366  0.2821 -0.0562 -0.1738
  733MOL0     C 1065  11.768   7.905   6.055  0.6630 -0.3725  0.1666
  733MOL0     C 1066  11.657   7.914   5.970 -0.0808 -0.1219 -0.5425
  733MOL0     N 1067  11.184   8.214   5.572  0.1922 -0.4981 -0.3128
  733MOL0     N 1068  11.078   8.278   5.531 -0.0794  0.0005 -0.1392
  733MOL0     C 1069   9.879   8.255   5.143  0.0193  1.2388 -0.2772
  733MOL0     C 1070   9.742   8.227   5.145  0.1387  0.2829 -0.4515
  733MOL0     C 1071   9.331   8.111   5.242  0.0926 -0.2763  0.3428
  733MOL0     C 1072   9.250   8.228   5.218  0.0116  0.8164 -0.3089
  733MOL0     C 1073   9.112   8.213   5.199  0.6658  0.0695 -0.2066
  733MOL0     C 1074   9.039   8.100   5.223  0.5388  0.1660 -0.0522
  733MOL0     O 1075   8.899   8.105   5.208  0.3645 -0.5497 -0.3552
  733MOL0     C 1076   8.833   8.145   5.330  0.1067  0.5337  0.0439
  733MOL0     C 1077   8.683   8.108   5.309  0.3060 -0.5912 -0.5599
  733MOL0     C 1078   8.598   8.177   5.414  0.0705 -0.1271  0.2226
  733MOL0     C 1079   8.457   8.157   5.376 -0.3895 -0.3546  1.0201
  733MOL0     C 1080   8.361   8.197   5.480  0.6565  0.1307 -0.2906
  733MOL0     C 1081   8.295   8.217   5.579 -1.2418  0.1784 -0.7296
  733MOL0     C 1082   9.115   7.989   5.258 -0.2535 -0.7423  0.2679
  733MOL0     C 1083   9.261   7.989   5.265  0.3883  0.0332  0.0280
  733MOL0     C 1084   9.318   7.857   5.310  0.5536  0.0413 -0.1828
  733MOL0     H 1085   9.661   8.419   5.412 -0.3059 -2.4011  1.2251
  733MOL0     H 1086   9.886   8.472   5.408 -1.2960 -0.2988  0.8610
  733MOL0     H 1087  10.249   8.398   5.139  1.1533 -1.6630 -2.1141
  733MOL0     H 1088  10.115   8.329   5.037 -1.7193 -2.6959 -0.5625
  733MOL0     H 1089  10.133   8.111   5.178  0.4139 -0.1315 -1.7881
  733MOL0     H 1090  10.258   8.141   5.063  1.8752 -0.2132  0.2993
  733MOL0     H 1091  10.378   8.260   5.259 -3.1559  3.2260  0.7212
  733MOL0     H 1092  10.274   8.153   5.361  2.1867 -2.0409  1.0142
  733MOL0     H 1093  10.354   7.956   5.254 -3.0193  1.4588 -0.1968
  733MOL0     H 1094  10.471   8.045   5.154  1.0757 -0.8842  0.7516
  733MOL0     H 1095  10.575   7.946   5.370 -2.1298 -0.6213 -1.3187
  733MOL0     H 1096  10.466   8.039   5.463  3.3030  2.5414  2.0091
  733MOL0     H 1097  10.656   8.156   5.259  3.2442 -0.7111  1.4013
  733MOL0     H 1098  10.567   8.243   5.378  0.3907  1.4581 -4.1663
  733MOL0     H 1099  10.780   8.034   5.441  0.8465  1.3661 -0.1480
  733MOL0     H 1100  10.709   8.139   5.567  2.4961 -4.2463  1.9023
  733MOL0     H 1101  10.876   8.235   5.327 -0.2232 -4.0835 -0.8426
  733MOL0     H 1102  10.832   8.320   5.477 -0.0527  0.4924 -0.1875
  733MOL0     H 1103  10.995   7.964   5.496 -1.9433  0.3644  0.9311
  733MOL0     H 1104  11.353   7.994   5.532  1.1443 -1.9310  1.8597
  733MOL0     H 1105  11.212   7.884   5.497 -0.1982 -1.1090  1.6201
  733MOL0     H 1106  11.281   8.002   5.771  1.5515 -0.5492 -0.2698
  733MOL0     H 1107  11.150   7.890   5.733 -0.2416  0.6656  0.0411
  733MOL0     H 1108  11.310   7.701   5.683  1.5206  0.5453 -2.1504
  733MOL0     H 1109  11.436   7.819   5.695  1.7988 -2.3130  0.1080
  733MOL0     H 1110  11.262   7.786   5.940 -0.9017 -1.3286 -0.9029
  733MOL0     H 1111  11.414   7.685   5.914  1.2044  0.2925 -0.9714
  733MOL0     H 1112  11.435   7.729   6.145 -0.3797 -0.0692 -1.3694
  733MOL0     H 1113  11.553   7.574   6.308  0.9947 -1.2851  4.3364
  733MOL0     H 1114  11.628   7.694   6.408  1.8101  0.7686  0.2360
  733MOL0     H 1115  11.732   7.584   6.316 -0.7226 -1.4235  0.9557
  733MOL0     H 1116  12.210   7.887   6.230 -0.9340 -1.0172  0.3780
  733MOL0     H 1117  12.411   7.812   6.353 -0.7505  0.3071  4.4263
  733MOL0     H 1118  12.337   7.476   6.624 -0.6435 -0.4658  0.5925
  733MOL0     H 1119  12.428   7.402   6.487 -0.9642 -0.8062  2.3177
  733MOL0     H 1120  12.541   7.503   6.747  2.2968  3.8669 -1.2699
  733MOL0     H 1121  12.536   7.337   6.682  0.2134 -0.2177 -2.7869
  733MOL0     H 1122  12.722   7.553   6.561  0.3004  0.4915  0.8308
  733MOL0     H 1123  12.697   7.395   6.504  1.8319  0.9393 -0.8748
  733MOL0     H 1124  12.766   7.303   6.711  0.0174 -1.0986 -1.3840
  733MOL0     H 1125  12.816   7.459   6.782 -1.6261  1.9355 -2.4802
  733MOL0     H 1126  12.966   7.461   6.576  0.7455 -1.0135 -1.5788
  733MOL0     H 1127  13.013   7.342   6.704  0.3799  2.3697  0.0445
  733MOL0     H 1128  12.865   7.269   6.446 -1.2941 -1.6017  0.6198
  733MOL0     H 1129  12.930   7.158   6.557 -0.6147 -0.8940 -1.3704
  733MOL0     H 1130  13.151   7.200   6.501  0.3795 -2.1468 -2.0456
  733MOL0     H 1131  13.109   7.364   6.437 -0.8500 -0.5614  0.1134
  733MOL0     H 1132  13.022   7.283   6.242  0.5182  0.3213 -0.2430
  733MOL0     H 1133  13.019   7.114   6.296  0.1154  0.0900 -0.3182
  733MOL0     H 1134  12.202   7.464   6.460 -2.5407  1.0588 -0.2734
  733MOL0     H 1135  12.026   7.513   6.336  0.3068  0.6208 -2.3340
  733MOL0     H 1136  11.861   7.959   6.040 -0.4307  1.8378  0.9253
  733MOL0     H 1137  11.664   7.965   5.875  3.8865  1.1669  0.2557
  733MOL0     H 1138   9.942   8.206   5.069  0.2540  2.5146 -0.9368
  733MOL0     H 1139   9.700   8.167   5.066  0.1372  1.8633 -1.7006
  733MOL0     H 1140   9.279   8.332   5.216  1.0187  0.5952  1.0412
  733MOL0     H 1141   9.061   8.303   5.164  2.0015  0.9417 -0.0031
  733MOL0     H 1142   8.880   8.093   5.414  0.4199  2.7436  1.3186
  733MOL0     H 1143   8.839   8.251   5.355  0.6991  0.5795 -0.2818
  733MOL0     H 1144   8.662   8.002   5.323 -2.4235  0.0888  1.0221
  733MOL0     H 1145   8.656   8.147   5.210  0.8948  1.3669  0.0007
  733MOL0     H 1146   8.615   8.116   5.504  0.9019  0.0804  0.2192
  733MOL0     H 1147   8.622   8.283   5.431  1.5521 -0.2593 -0.8542
  733MOL0     H 1148   8.437   8.050   5.368  0.1099 -0.5147  1.8702
  733MOL0     H 1149   8.446   8.199   5.275 -1.4230  0.3750  1.4079
  733MOL0     H 1150   8.242   8.229   5.671 -1.6506 -1.7518 -0.6632
  733MOL0     H 1151   9.058   7.898   5.269 -1.3281 -0.4701 -2.3278
  733MOL0     H 1152   9.367   7.810   5.224 -0.1440 -1.1436  0.0372
  733MOL0     H 1153   9.390   7.870   5.390  1.1189 -0.4808 -0.5976
  733MOL0     H 1154   9.236   7.797   5.352 -1.2187  2.7945  0.5585
  734MOL0     O 1155   4.687   6.468   9.054  0.0582  0.0226 -0.1312
  734MOL0     C 1156   4.671   6.376   9.129 -0.7075  0.6051 -0.9122
  734MOL0     O 1157   4.773   6.298   9.181 -0.1419  0.1674  0.0066
  734MOL0     C 1158   4.902   6.338   9.158  0.0445 -0.9517  0.3527
  734MOL0     C 1159   4.960   6.469   9.192 -0.3029 -0.3036 -0.5870
  734MOL0     C 1160   5.096   6.496   9.164  0.2540  0.2892  0.0617
  734MOL0     C 1161   5.168   6.404   9.086  0.5011  0.0044  0.2444
  734MOL0     O 1162   5.303   6.432   9.057 -0.8141  0.8366  0.0769
  734MOL0     C 1163   5.362   6.393   8.930 -0.8656 -0.1762 -0.8638
  734MOL0     C 1164   5.487   6.490   8.917 -0.4832  0.4610 -0.4575
  734MOL0     C 1165   5.549   6.463   8.775 -0.8667 -0.1221 -0.6715
  734MOL0     C 1166   5.668   6.538   8.733  0.2355  1.1126 -0.2182
  734MOL0     C 1167   5.797   6.499   8.812 -0.1048 -0.9036  0.2650
  734MOL0     C 1168   5.934   6.531   8.733  0.0027  0.9105  0.5112
  734MOL0     C 1169   6.065   6.476   8.793  0.1551  0.9106  0.3991
  734MOL0     C 1170   6.186   6.519   8.704  0.8259 -0.5897  1.4866
  734MOL0     N 1171   6.313   6.459   8.747 -0.0403 -0.5133  0.1597
  734MOL0     C 1172   6.401   6.519   8.823 -0.2327  0.0348  0.2618
  734MOL0     C 1173   6.505   6.433   8.847 -0.0989 -0.1073 -0.3784
  734MOL0     C 1174   6.618   6.447   8.938  0.9246 -0.0530 -0.0833
  734MOL0     C 1175   6.740   6.496   8.865  0.7239 -0.0261 -0.0729
  734MOL0     C 1176   6.849   6.558   8.960 -0.2039  0.3541 -0.7153
  734MOL0     C 1177   6.979   6.600   8.891 -0.1753 -0.6932 -0.2857
  734MOL0     O 1178   7.075   6.654   8.980  0.2337  0.4545  0.0628
  734MOL0     C 1179   7.200   6.661   8.929  0.1878 -0.0936 -0.1713
  734MOL0     C 1180   7.305   6.639   9.016 -0.4065  0.2441 -0.9379
  734MOL0     C 1181   7.437   6.625   8.971 -0.1151 -0.1107 -0.1587
  734MOL0     C 1182   7.535   6.614   9.089 -0.7127  0.4032  0.5845
  734MOL0     C 1183   7.464   6.643   8.832  0.3409 -0.5109  0.7767
  734MOL0     C 1184   7.601   6.640   8.789 -0.4612  0.1719 -0.6321
  734MOL0     O 1185   7.667   6.535   8.842  0.2659 -0.4676 -0.3251
  734MOL0     C 1186   7.795   6.516   8.804  0.7271  0.4914  0.5148
  734MOL0     C 1187   7.827   6.429   8.707 -0.1702  0.2853  0.2682
  734MOL0     C 1188   7.957   6.404   8.667 -0.5953 -0.0610  0.3206
  734MOL0     C 1189   8.062   6.466   8.738 -0.0050  0.3113  0.2335
  734MOL0     O 1190   8.190   6.436   8.731 -0.1159 -0.2575  0.6503
  734MOL0     C 1191   8.235   6.356   8.614 -0.3881  0.4276 -0.1480
  734MOL0     C 1192   8.387   6.361   8.598 -0.9008  0.3054  0.7925
  734MOL0     C 1193   8.437   6.247   8.507  0.0536 -0.6775 -0.1606
  734MOL0     C 1194   8.579   6.207   8.561 -0.1290  0.2489  0.2231
  734MOL0     C 1195   8.633   6.099   8.462  1.3886 -0.3118  0.5619
  734MOL0     C 1196   8.772   6.041   8.479  0.0370 -0.1461 -0.0153
  734MOL0     C 1197   8.776   5.933   8.594 -0.4401 -0.4063 -0.6700
  734MOL0     C 1198   8.927   5.888   8.607 -0.2042  0.3304  0.2274
  734MOL0    Cl 1199   8.936   5.709   8.609  0.4951 -0.1962  0.4292
  734MOL0     C 1200   8.037   6.563   8.837  0.5778  0.6301 -0.0455
  734MOL0     C 1201   7.899   6.587   8.868 -0.0051  0.1873 -0.6225
  734MOL0     O 1202   7.650   6.719   8.710  0.1571  0.0612  0.9758
  734MOL0     C 1203   7.358   6.669   8.742 -0.1872  0.5854 -0.1231
  734MOL0     C 1204   7.225   6.678   8.790 -0.6201  0.5628  0.0857
  734MOL0     N 1205   6.466   6.320   8.779 -0.2162  0.9011 -0.1635
  734MOL0     N 1206   6.349   6.336   8.713  0.4277 -0.0033 -1.0758
  734MOL0     C 1207   5.109   6.289   9.036 -0.0442 -0.0990  0.7404
  734MOL0     C 1208   4.980   6.257   9.073  0.2053 -0.8325 -0.7592
  734MOL0     C 1209   4.531   6.321   9.143  0.3657 -1.0721  0.3349
  734MOL0     C 1210   4.430   6.420   9.135 -0.4152 -0.0548 -0.1384
  734MOL0     C 1211   4.296   6.392   9.132 -0.1330  1.2328 -0.2850
  734MOL0     C 1212   4.254   6.256   9.153 -0.3623  0.7467  0.5497
  734MOL0     O 1213   4.124   6.207   9.164 -1.0653 -0.2789 -0.1413
  734MOL0     C 1214   4.014   6.306   9.177 -0.9718 -0.4899  0.1057
  734MOL0     C 1215   3.877   6.222   9.162 -1.1086  0.5193  0.4466
  734MOL0     C 1216   3.863   6.118   9.270  0.5398 -0.9784 -0.2681
  734MOL0     C 1217   3.722   6.059   9.255 -0.4218  0.2671 -0.5426
  734MOL0     C 1218   3.627   6.144   9.333  0.0374  0.5025  0.0128
  734MOL0     C 1219   3.531   6.195   9.383 -0.4743  0.0858  0.2213
  734MOL0     C 1220   4.352   6.158   9.162 -0.4653  0.6168 -0.4400
  734MOL0     C 1221   4.489   6.186   9.161  0.7218 -0.7755  0.1295
  734MOL0     C 1222   4.590   6.077   9.191  0.9824 -0.0405  0.4080
  734MOL0     H 1223   4.903   6.547   9.243  1.3953 -0.1271  1.1491
  734MOL0     H 1224   5.124   6.592   9.205 -0.8137  0.5877  0.1456
  734MOL0     H 1225   5.281   6.411   8.860 -0.5713  0.3331 -1.0763
  734MOL0     H 1226   5.390   6.287   8.931  1.4914  0.3939  0.3179
  734MOL0     H 1227   5.456   6.594   8.928  1.3280  1.3329 -2.7805
  734MOL0     H 1228   5.557   6.471   8.998  0.1671  0.0072 -1.1128
  734MOL0     H 1229   5.561   6.355   8.764 -3.8909 -0.6260 -0.0613
  734MOL0     H 1230   5.476   6.476   8.695 -0.3617  1.6522 -0.8773
  734MOL0     H 1231   5.693   6.534   8.627 -1.9878  2.0667 -0.8342
  734MOL0     H 1232   5.648   6.642   8.759  0.7742  0.7531  1.8252
  734MOL0     H 1233   5.785   6.392   8.832 -1.0421 -0.8919 -0.1790
  734MOL0     H 1234   5.802   6.545   8.911  0.7162  0.1510 -0.2526
  734MOL0     H 1235   5.912   6.488   8.635 -0.3920  0.0375  0.9679
  734MOL0     H 1236   5.954   6.639   8.727  0.5919  0.8678  1.4799
  734MOL0     H 1237   6.055   6.367   8.793  0.6139  0.8595  1.5213
  734MOL0     H 1238   6.070   6.507   8.898  2.9093 -1.4345  1.0978
  734MOL0     H 1239   6.174   6.495   8.598 -0.3466 -0.5747  1.5944
  734MOL0     H 1240   6.201   6.628   8.706  0.5576 -0.5294  0.6891
  734MOL0     H 1241   6.398   6.621   8.860  3.0305  0.8911 -1.4203
  734MOL0     H 1242   6.652   6.353   8.984 -2.3730 -0.1416  2.5726
  734MOL0     H 1243   6.587   6.514   9.018  0.1629  0.8261 -1.0842
  734MOL0     H 1244   6.789   6.415   8.811 -0.0569 -0.4327 -0.1823
  734MOL0     H 1245   6.712   6.577   8.797  0.2756  0.5385  0.7589
  734MOL0     H 1246   6.810   6.651   9.002 -2.5485 -0.7465 -0.2960
  734MOL0     H 1247   6.873   6.488   9.041  1.7072  0.5600 -1.0736
  734MOL0     H 1248   7.022   6.513   8.840  0.9520  0.6009 -1.6338
  734MOL0     H 1249   6.966   6.673   8.811  2.4590  1.2530  0.8837
  734MOL0     H 1250   7.283   6.638   9.122 -0.1569  2.1541 -0.8299
  734MOL0     H 1251   7.530   6.515   9.135  0.9503 -0.4559 -0.9527
  734MOL0     H 1252   7.517   6.665   9.184 -1.1475 -2.4541  2.1520
  734MOL0     H 1253   7.639   6.636   9.062 -0.5780  1.9610  2.1917
  734MOL0     H 1254   7.747   6.387   8.646 -0.1924  1.4099 -0.5129
  734MOL0     H 1255   7.963   6.334   8.584 -0.1143  0.4565 -0.0945
  734MOL0     H 1256   8.210   6.250   8.623  0.2521  0.3221  0.4303
  734MOL0     H 1257   8.189   6.396   8.523  1.8627  0.8311 -1.1713
  734MOL0     H 1258   8.420   6.454   8.552  2.0010 -0.6230  0.7631
  734MOL0     H 1259   8.435   6.336   8.693  2.4910  0.1732 -0.8030
  734MOL0     H 1260   8.448   6.266   8.399 -1.2101 -0.1577 -0.2244
  734MOL0     H 1261   8.375   6.157   8.517  2.0089 -2.4677 -2.5846
  734MOL0     H 1262   8.593   6.189   8.668  0.2616 -1.6109 -0.1095
  734MOL0     H 1263   8.646   6.292   8.548  2.5456 -1.8881 -0.9124
  734MOL0     H 1264   8.573   6.007   8.465  2.1076 -0.7624  2.4967
  734MOL0     H 1265   8.621   6.149   8.366  0.1777  0.2275  0.9756
  734MOL0     H 1266   8.830   6.123   8.523 -1.3250  0.6483  0.3260
  734MOL0     H 1267   8.803   5.992   8.386 -0.8843  0.2733 -0.5505
  734MOL0     H 1268   8.708   5.853   8.563 -0.1823 -0.4698 -1.0836
  734MOL0     H 1269   8.745   5.974   8.691  0.1077  0.6393 -0.9268
  734MOL0     H 1270   8.970   5.926   8.700  3.9685 -0.9512 -0.9449
  734MOL0     H 1271   8.983   5.931   8.523  0.6615 -3.0893 -1.1256
  734MOL0     H 1272   8.114   6.607   8.901 -0.2961  1.4299  0.4840
  734MOL0     H 1273   7.859   6.659   8.939 -0.0158 -0.0286 -0.4107
  734MOL0     H 1274   7.383   6.688   8.638 -1.4425  2.3458 -0.1509
  734MOL0     H 1275   7.144   6.695   8.720  0.3036 -0.7033 -1.3640
  734MOL0     H 1276   5.169   6.209   8.994 -0.7043  0.7486 -1.9938
  734MOL0     H 1277   4.946   6.160   9.036  0.1635 -0.2260 -2.4247
  734MOL0     H 1278   4.455   6.525   9.129  0.9983 -0.3206  0.7001
  734MOL0     H 1279   4.230   6.478   9.128  0.8566  2.2453  2.7606
  734MOL0     H 1280   4.028   6.346   9.278  1.5860  1.3732 -0.8815
  734MOL0     H 1281   4.023   6.392   9.109 -0.0782 -0.8552 -0.2557
  734MOL0     H 1282   3.873   6.167   9.067  2.6478 -1.7061  1.3635
  734MOL0     H 1283   3.789   6.285   9.178 -0.3853  1.5081  0.6200
  734MOL0     H 1284   3.941   6.042   9.259  1.9913  0.3352  0.4868
  734MOL0     H 1285   3.887   6.165   9.366 -0.4269  0.5650 -0.7529
  734MOL0     H 1286   3.720   5.955   9.290  1.7051  0.3869  0.0529
  734MOL0     H 1287   3.683   6.048   9.153 -4.0108 -0.5503  0.7361
  734MOL0     H 1288   3.449   6.248   9.428 -1.3882 -2.0016  1.1569
  734MOL0     H 1289   4.324   6.053   9.165  0.4753  0.3435  2.6156
  734MOL0     H 1290   4.647   6.058   9.100  2.3799 -2.5699  1.7083
  734MOL0     H 1291   4.656   6.115   9.270  0.0628  1.0109  0.7072
  734MOL0     H 1292   4.525   5.997   9.227 -1.6756  1.5737 -0.5323
  735MOL0     O 1293   8.116   8.352   7.645  0.2146 -0.2747 -0.0334
  735MOL0     C 1294   8.089   8.470   7.627  0.3315 -0.1046 -0.3836
  735MOL0     O 1295   8.173   8.567   7.647  0.2836  0.4591 -0.3900
  735MOL0     C 1296   8.293   8.550   7.710 -0.1428  0.9200 -0.8656
  735MOL0     C 1297   8.391   8.649   7.687 -0.0267 -0.7317 -0.1094
  735MOL0     C 1298   8.520   8.647   7.755  0.1673 -0.1059  0.2256
  735MOL0     C 1299   8.550   8.547   7.841 -0.2386  0.2131  0.0751
  735MOL0     O 1300   8.672   8.543   7.898 -0.2841  0.3481 -0.5261
  735MOL0     C 1301   8.699   8.458   8.009 -0.4388  0.4228  0.0193
  735MOL0     C 1302   8.842   8.471   8.073  0.5200 -0.6999  0.2022
  735MOL0     C 1303   8.959   8.420   7.977  1.1083  0.0320  0.3491
  735MOL0     C 1304   9.082   8.430   8.059  0.2738  0.1648  0.0183
  735MOL0     C 1305   9.197   8.394   7.964  0.0093 -0.1998  0.6956
  735MOL0     C 1306   9.338   8.386   8.031 -0.0803 -0.1371 -0.7688
  735MOL0     C 1307   9.457   8.392   7.935  0.0366  0.7405  0.4219
  735MOL0     C 1308   9.583   8.342   7.992 -0.3587  0.7146  0.4076
  735MOL0     N 1309   9.694   8.329   7.900  0.6702  0.7114  0.5670
  735MOL0     C 1310   9.747   8.427   7.817 -0.2119 -0.3390  0.2975
  735MOL0     C 1311   9.844   8.368   7.749 -0.1787  0.4465 -0.6160
  735MOL0     C 1312   9.921   8.427   7.637  0.3772 -0.3653 -0.2105
  735MOL0     C 1313  10.069   8.398   7.632  0.4827 -0.9218  0.3366
  735MOL0     C 1314  10.134   8.363   7.769  0.7859  0.7729  0.4102
  735MOL0     C 1315  10.285   8.355   7.759  0.3288 -0.8427 -0.1786
  735MOL0     O 1316  10.331   8.327   7.889  0.2550 -0.3423 -0.2205
  735MOL0     C 1317  10.470   8.324   7.900 -0.7708 -0.3924 -0.1898
  735MOL0     C 1318  10.526   8.274   8.015 -1.1305  0.0634  0.0320
  735MOL0     C 1319  10.666   8.264   8.034 -0.5204  0.8232 -1.0644
  735MOL0     C 1320  10.710   8.224   8.179 -0.0886 -0.5575  0.3491
  735MOL0     C 1321  10.758   8.299   7.936  0.5372  0.2568  0.9504
  735MOL0     C 1322  10.901   8.284   7.948 -0.4440  0.2998  0.4231
  735MOL0     O 1323  10.954   8.186   8.036  0.8228  0.1862 -0.3835
  735MOL0     C 1324  11.084   8.165   8.033  0.0192  0.2435  0.1685
  735MOL0     C 1325  11.156   8.124   7.918 -0.9223  0.7543 -0.5398
  735MOL0     C 1326  11.298   8.095   7.931  0.4457  0.1142  0.6609
  735MOL0     C 1327  11.364   8.104   8.056 -0.4342 -0.0177  0.2908
  735MOL0     O 1328  11.501   8.076   8.048  0.1277  0.1838 -0.2243
  735MOL0     C 1329  11.569   8.036   8.168 -0.8516 -0.3970  0.5592
  735MOL0     C 1330  11.717   8.024   8.149 -0.5179 -0.1222  0.0346
  735MOL0     C 1331  11.784   8.033   8.285 -0.4010 -0.4269  0.5886
  735MOL0     C 1332  11.933   8.038   8.273 -0.1975  0.4787 -0.0463
  735MOL0     C 1333  11.987   8.185   8.255  0.8725  0.3876  0.7658
  735MOL0     C 1334  12.139   8.210   8.239  0.9083  0.8056  0.5619
  735MOL0     C 1335  12.210   8.165   8.368 -0.6345  0.1321 -0.7589
  735MOL0     C 1336  12.300   8.045   8.339 -0.3180 -1.1062  0.0897
  735MOL0    Cl 1337  12.414   8.004   8.472 -0.5287 -0.0898 -0.4492
  735MOL0     C 1338  11.284   8.132   8.165 -0.4836  0.2763  0.5101
  735MOL0     C 1339  11.151   8.165   8.159  0.3939  0.3094  1.4066
  735MOL0     O 1340  10.964   8.384   7.919  0.1917  0.1401 -0.1344
  735MOL0     C 1341  10.696   8.346   7.818 -1.0844 -1.0985 -0.1311
  735MOL0     C 1342  10.560   8.352   7.798 -0.5035  0.3685  0.4552
  735MOL0     N 1343   9.849   8.235   7.787 -0.2483 -0.2920 -0.6926
  735MOL0     N 1344   9.760   8.207   7.878 -0.3826 -0.5144 -0.3785
  735MOL0     C 1345   8.452   8.444   7.862  0.1522 -0.1990 -0.4146
  735MOL0     C 1346   8.330   8.450   7.797  0.6317  1.0358  0.0586
  735MOL0     C 1347   7.954   8.495   7.578  0.2916 -0.2357  0.3367
  735MOL0     C 1348   7.886   8.609   7.634 -1.1858  0.9217  0.3683
  735MOL0     C 1349   7.756   8.632   7.590  0.1492 -0.5887 -0.1778
  735MOL0     C 1350   7.679   8.547   7.503  0.0417  0.3839 -0.9273
  735MOL0     O 1351   7.550   8.544   7.469 -0.3894 -0.4694  0.2985
  735MOL0     C 1352   7.448   8.599   7.553 -0.1588  0.1395  0.2323
  735MOL0     C 1353   7.359   8.688   7.473  0.8621 -0.6505  0.0572
  735MOL0     C 1354   7.429   8.816   7.422 -0.4411 -0.2973 -0.5907
  735MOL0     C 1355   7.336   8.878   7.318  0.5779  0.7570 -0.1908
  735MOL0     C 1356   7.268   8.994   7.377 -0.1005 -0.6391  0.8616
  735MOL0     C 1357   7.205   9.087   7.428 -0.6610  1.5361  0.4980
  735MOL0     C 1358   7.749   8.438   7.457  0.9808 -0.9330 -0.4838
  735MOL0     C 1359   7.885   8.416   7.484  0.5493 -0.1390  0.2380
  735MOL0     C 1360   7.943   8.296   7.417 -0.7116  0.1221  0.4578
  735MOL0     H 1361   8.367   8.738   7.631  1.8976  0.6474  1.1527
  735MOL0     H 1362   8.596   8.720   7.731 -0.4467  0.4752  0.0227
  735MOL0     H 1363   8.677   8.355   7.981 -1.9508  0.7897 -0.1964
  735MOL0     H 1364   8.627   8.481   8.088  0.6744  0.6145  1.0112
  735MOL0     H 1365   8.860   8.575   8.101 -0.3367 -0.4972  0.0176
  735MOL0     H 1366   8.844   8.398   8.154 -0.1959 -3.2166 -1.8963
  735MOL0     H 1367   8.940   8.317   7.946 -1.1684  0.3470  0.4963
  735MOL0     H 1368   8.970   8.490   7.893 -2.9991 -0.0444 -0.4758
  735MOL0     H 1369   9.099   8.533   8.091 -0.9624  0.4816 -0.2787
  735MOL0     H 1370   9.077   8.357   8.140 -3.6987 -0.5332 -0.6426
  735MOL0     H 1371   9.201   8.468   7.884 -0.4959 -1.9560 -1.0053
  735MOL0     H 1372   9.175   8.309   7.899 -0.6997  2.3026 -2.6114
  735MOL0     H 1373   9.344   8.466   8.105  1.8222 -0.3779 -0.5992
  735MOL0     H 1374   9.328   8.292   8.086  2.4212 -0.8413 -1.4004
  735MOL0     H 1375   9.464   8.493   7.893  1.9429 -0.5362 -2.7117
  735MOL0     H 1376   9.432   8.336   7.845  0.5113  2.8007 -1.0596
  735MOL0     H 1377   9.617   8.403   8.076  2.4968  1.4133 -1.1366
  735MOL0     H 1378   9.562   8.238   8.019 -0.3387  0.4248 -0.6621
  735MOL0     H 1379   9.728   8.533   7.810 -1.0217 -0.5592 -1.0979
  735MOL0     H 1380   9.909   8.535   7.651  0.9903 -0.3713  0.4077
  735MOL0     H 1381   9.860   8.397   7.551 -0.5657  2.7888 -0.7741
  735MOL0     H 1382  10.074   8.320   7.555  2.7877 -0.9885  0.5039
  735MOL0     H 1383  10.119   8.483   7.585 -3.1941  1.7896  0.8317
  735MOL0     H 1384  10.099   8.435   7.843 -1.4925  0.1547  0.0190
  735MOL0     H 1385  10.100   8.264   7.800  3.5046 -1.2800 -2.5040
  735MOL0     H 1386  10.311   8.280   7.684  0.9493 -0.5758 -0.2444
  735MOL0     H 1387  10.315   8.455   7.726  0.3810 -0.4750  0.9410
  735MOL0     H 1388  10.460   8.233   8.090 -0.5121  1.1150  1.1881
  735MOL0     H 1389  10.637   8.276   8.243  1.2394  0.7369  0.8882
  735MOL0     H 1390  10.803   8.272   8.212 -0.4430  2.2063 -2.2231
  735MOL0     H 1391  10.722   8.116   8.191  0.8607 -0.6590 -1.3083
  735MOL0     H 1392  11.120   8.109   7.816 -0.1643 -0.4496 -0.6492
  735MOL0     H 1393  11.350   8.070   7.840 -0.3030 -0.2350  0.3170
  735MOL0     H 1394  11.551   8.115   8.241  1.5310  0.4367  0.3560
  735MOL0     H 1395  11.531   7.943   8.211 -1.0953  0.3057  1.9269
  735MOL0     H 1396  11.738   7.931   8.096  0.7071 -0.4638  1.0704
  735MOL0     H 1397  11.755   8.109   8.093  0.0586 -1.4711 -1.7045
  735MOL0     H 1398  11.746   7.946   8.340 -1.8218 -1.8245 -2.3802
  735MOL0     H 1399  11.761   8.128   8.334  0.8226  0.0253  0.3133
  735MOL0     H 1400  11.958   7.971   8.190 -4.6426 -0.8763 -0.5415
  735MOL0     H 1401  11.965   7.988   8.365 -1.4079 -1.5298 -0.6579
  735MOL0     H 1402  11.929   8.223   8.170  0.6570 -0.5216  0.5062
  735MOL0     H 1403  11.965   8.251   8.340  3.0852  0.7174  1.1418
  735MOL0     H 1404  12.152   8.317   8.219  1.6643  0.8224  1.0834
  735MOL0     H 1405  12.180   8.173   8.145 -0.2058  1.4229 -0.1864
  735MOL0     H 1406  12.132   8.147   8.442  0.7429  1.6523  1.1695
  735MOL0     H 1407  12.276   8.235   8.420 -0.6522 -1.3562  1.4287
  735MOL0     H 1408  12.363   8.047   8.250  0.0756 -2.8368  0.2840
  735MOL0     H 1409  12.229   7.963   8.320 -1.3739 -0.1771 -0.0776
  735MOL0     H 1410  11.326   8.118   8.264 -0.0774 -4.7474 -0.0922
  735MOL0     H 1411  11.081   8.172   8.241 -1.2517 -1.8452  0.2957
  735MOL0     H 1412  10.767   8.364   7.738 -1.3277 -0.9386 -0.3173
  735MOL0     H 1413  10.529   8.397   7.704 -2.4142  2.6504  2.0670
  735MOL0     H 1414   8.480   8.360   7.925 -0.1301 -0.0368 -0.0711
  735MOL0     H 1415   8.276   8.356   7.804  2.2631  0.0620  0.1163
  735MOL0     H 1416   7.933   8.680   7.701  2.3738 -0.8618  0.0120
  735MOL0     H 1417   7.706   8.709   7.648  0.4135  0.4035 -1.2398
  735MOL0     H 1418   7.383   8.524   7.598 -0.7428 -0.5642 -1.6568
  735MOL0     H 1419   7.496   8.658   7.632  2.4348 -0.7937 -0.5243
  735MOL0     H 1420   7.283   8.712   7.548  0.3595  1.1443 -0.9679
  735MOL0     H 1421   7.330   8.627   7.388  2.0139  1.5887 -2.0855
  735MOL0     H 1422   7.444   8.885   7.506  0.5358  1.5780 -2.2328
  735MOL0     H 1423   7.525   8.788   7.377  0.2126 -0.9693  1.1461
  735MOL0     H 1424   7.270   8.795   7.293  1.3894 -0.1827  0.6580
  735MOL0     H 1425   7.394   8.907   7.229  0.8209 -1.7193 -0.9053
  735MOL0     H 1426   7.139   9.159   7.473 -1.6555  1.1999 -0.3688
  735MOL0     H 1427   7.693   8.364   7.399  0.5454 -2.1312  1.3739
  735MOL0     H 1428   7.888   8.288   7.323  0.9144  1.2062 -0.6194
  735MOL0     H 1429   8.046   8.316   7.385 -1.3944 -0.1169 -2.1079
  735MOL0     H 1430   7.938   8.206   7.480  0.5927 -0.0832  0.2886
  736MOL0     O 1431   6.902   9.697   6.505 -0.2761  0.5109 -0.1450
  736MOL0     C 1432   6.900   9.586   6.555  0.6147 -0.5444 -0.1006
  736MOL0     O 1433   6.993   9.535   6.631  0.1784 -0.1207 -0.0967
  736MOL0     C 1434   7.116   9.582   6.640 -0.6752  0.1541  0.3002
  736MOL0     C 1435   7.214   9.525   6.559  0.0976 -0.1512  0.0082
  736MOL0     C 1436   7.346   9.584   6.553  1.4116 -0.6323  0.2584
  736MOL0     C 1437   7.387   9.684   6.639  0.8742 -0.1349  1.0524
  736MOL0     O 1438   7.513   9.738   6.664  0.0081  0.7440  0.3085
  736MOL0     C 1439   7.624   9.692   6.586  0.2105  0.7149 -0.3136
  736MOL0     C 1440   7.623   9.753   6.444 -0.0313 -0.2893 -0.2916
  736MOL0     C 1441   7.749   9.706   6.369  0.1359 -0.1354  1.0777
  736MOL0     C 1442   7.741   9.774   6.231 -0.8156 -0.5094  0.5451
  736MOL0     C 1443   7.839   9.714   6.143  0.3267  0.8842  0.3829
  736MOL0     C 1444   7.815   9.765   6.002  0.0376 -0.6198 -0.0577
  736MOL0     C 1445   7.863   9.905   5.977  0.5913 -0.0834  0.3802
  736MOL0     C 1446   7.839   9.936   5.826  0.0802 -0.5991 -0.1843
  736MOL0     N 1447   7.947   9.911   5.744 -0.4065  0.0494 -0.1674
  736MOL0     C 1448   8.043  10.000   5.699 -0.0672 -0.3148 -0.0914
  736MOL0     C 1449   8.128   9.930   5.624  0.7044  0.1071 -0.7333
  736MOL0     C 1450   8.240   9.973   5.530 -1.2923  0.3757 -0.8729
  736MOL0     C 1451   8.357   9.887   5.544  0.1357  0.6492  0.0246
  736MOL0     C 1452   8.479   9.941   5.472  0.5140  0.2750 -0.4497
  736MOL0     C 1453   8.601   9.841   5.488  0.2743  0.1273 -0.6076
  736MOL0     O 1454   8.714   9.924   5.524 -0.3483  0.0196 -0.4321
  736MOL0     C 1455   8.843   9.869   5.535  0.5796 -0.2657 -0.2322
  736MOL0     C 1456   8.866   9.735   5.549 -0.1601  0.4566 -0.6163
  736MOL0     C 1457   8.995   9.681   5.555  0.2184 -0.2667 -0.2336
  736MOL0     C 1458   8.997   9.531   5.561  0.1182  0.3814  0.5185
  736MOL0     C 1459   9.107   9.765   5.538 -0.3183 -1.1044 -0.5051
  736MOL0     C 1460   9.253   9.723   5.529 -0.2328  0.1611 -0.2149
  736MOL0     O 1461   9.314   9.659   5.627 -0.4020  0.4835  0.6717
  736MOL0     C 1462   9.449   9.630   5.606 -0.3129  0.0363  0.1280
  736MOL0     C 1463   9.540   9.692   5.690  0.3005 -0.6898  0.6388
  736MOL0     C 1464   9.677   9.670   5.666 -0.1700 -0.3496 -0.2210
  736MOL0     C 1465   9.722   9.592   5.559 -0.1171  0.1929 -0.7848
  736MOL0     O 1466   9.858   9.565   5.559  0.2158 -0.0017  0.2582
  736MOL0     C 1467   9.930   9.515   5.443  0.1577 -0.2696  0.0748
  736MOL0     C 1468  10.071   9.466   5.475 -0.0618 -0.3264 -0.3370
  736MOL0     C 1469  10.147   9.588   5.524  0.0563  0.4963 -0.6899
  736MOL0     C 1470  10.294   9.559   5.545  0.7066 -0.0025  0.3709
  736MOL0     C 1471  10.354   9.702   5.574 -0.2738 -0.0646  0.7329
  736MOL0     C 1472  10.497   9.685   5.623  0.6317  0.1355 -0.4443
  736MOL0     C 1473  10.585   9.589   5.540 -0.3577 -0.3769  1.2247
  736MOL0     C 1474  10.731   9.613   5.578 -0.9234 -0.2294 -0.2044
  736MOL0    Cl 1475  10.791   9.567   5.748 -0.2876 -0.0569  0.2470
  736MOL0     C 1476   9.631   9.535   5.477  0.0498  0.0791  1.3952
  736MOL0     C 1477   9.494   9.541   5.506  0.2948 -1.4787  0.7181
  736MOL0     O 1478   9.306   9.753   5.418 -0.5118 -0.2486  0.5442
  736MOL0     C 1479   9.086   9.903   5.528 -0.1611  0.4374  0.4987
  736MOL0     C 1480   8.960   9.957   5.530  0.8820 -0.1952  0.2433
  736MOL0     N 1481   8.066   9.804   5.604 -0.0811 -0.0161  0.3568
  736MOL0     N 1482   7.965   9.798   5.681  0.1134 -0.4375  0.2597
  736MOL0     C 1483   7.286   9.732   6.723  0.5705 -0.6411 -0.3648
  736MOL0     C 1484   7.154   9.687   6.727  0.5006 -0.2136 -0.4411
  736MOL0     C 1485   6.768   9.503   6.546 -0.6799 -0.3329  0.5466
  736MOL0     C 1486   6.742   9.408   6.646  0.2993 -0.4269  1.3400
  736MOL0     C 1487   6.622   9.334   6.649  0.5003 -0.6183  0.0883
  736MOL0     C 1488   6.518   9.382   6.561  0.6974 -0.0563  0.3204
  736MOL0     O 1489   6.392   9.330   6.547 -0.4554 -0.1209  0.1222
  736MOL0     C 1490   6.354   9.215   6.615 -0.6771 -0.1901  0.7870
  736MOL0     C 1491   6.386   9.094   6.523  0.0174 -0.0478  0.1933
  736MOL0     C 1492   6.335   8.964   6.585 -0.6703  0.5125 -0.2945
  736MOL0     C 1493   6.187   8.931   6.558  0.0274 -0.1335 -0.0370
  736MOL0     C 1494   6.150   8.811   6.636 -0.1953  0.7238  0.4930
  736MOL0     C 1495   6.143   8.704   6.696 -0.2011  0.2296 -0.4060
  736MOL0     C 1496   6.540   9.484   6.475 -0.2135  0.0230 -0.1979
  736MOL0     C 1497   6.669   9.538   6.455 -0.0265  0.4334  0.2969
  736MOL0     C 1498   6.695   9.619   6.335  0.0258  0.8419  0.4446
  736MOL0     H 1499   7.192   9.441   6.494 -2.6793  0.3678  0.1354
  736MOL0     H 1500   7.410   9.549   6.473  3.0994  1.8064  0.4541
  736MOL0     H 1501   7.611   9.584   6.578 -1.6974  0.8684  0.1477
  736MOL0     H 1502   7.721   9.712   6.633  1.2932  1.6954 -2.7796
  736MOL0     H 1503   7.528   9.725   6.399 -0.3178 -0.0109  0.1411
  736MOL0     H 1504   7.622   9.862   6.446 -0.6587 -0.3023  0.7937
  736MOL0     H 1505   7.827   9.740   6.437  0.0103 -3.6951  3.2858
  736MOL0     H 1506   7.758   9.597   6.359  1.7390  0.2001 -3.3762
  736MOL0     H 1507   7.642   9.760   6.187 -0.0128 -0.4468 -1.3867
  736MOL0     H 1508   7.762   9.881   6.236  0.3021 -0.6854  0.0018
  736MOL0     H 1509   7.833   9.605   6.152 -3.2021  1.0590  1.5496
  736MOL0     H 1510   7.941   9.735   6.178  0.6791  1.8836 -1.1480
  736MOL0     H 1511   7.881   9.704   5.939  0.6398 -0.4853  0.4298
  736MOL0     H 1512   7.716   9.758   5.956  0.2605  0.6771 -0.8085
  736MOL0     H 1513   7.966   9.920   6.009  1.2872  1.3109 -2.2130
  736MOL0     H 1514   7.798   9.973   6.033 -0.6221 -1.9285  1.3322
  736MOL0     H 1515   7.747   9.892   5.787  0.4485 -0.5974 -1.0741
  736MOL0     H 1516   7.837  10.046   5.820  0.5575 -0.6429 -1.5158
  736MOL0     H 1517   8.058  10.108   5.705 -1.5904  0.1788 -2.9392
  736MOL0     H 1518   8.274  10.073   5.558  2.1667 -1.3028  1.8094
  736MOL0     H 1519   8.216   9.978   5.423  0.1082 -1.3935 -1.3334
  736MOL0     H 1520   8.383   9.891   5.650  1.3784  0.3575 -0.2532
  736MOL0     H 1521   8.328   9.787   5.509 -0.6521  0.3471  1.4602
  736MOL0     H 1522   8.450   9.974   5.372 -2.8393  1.3747  0.7619
  736MOL0     H 1523   8.511  10.015   5.546  2.6053 -0.4739 -0.5330
  736MOL0     H 1524   8.577   9.762   5.561  0.5836 -2.2966 -2.9723
  736MOL0     H 1525   8.622   9.800   5.389  1.0896  4.2375 -2.3318
  736MOL0     H 1526   8.780   9.669   5.554  0.5207 -0.3422  1.7853
  736MOL0     H 1527   8.956   9.501   5.658 -2.1063  1.0780 -0.1581
  736MOL0     H 1528   9.102   9.500   5.551 -0.6247 -1.9494 -0.7712
  736MOL0     H 1529   8.940   9.492   5.476  2.2350 -2.8958  0.3838
  736MOL0     H 1530   9.505   9.760   5.767  2.0873 -0.2823  1.1278
  736MOL0     H 1531   9.755   9.717   5.726  0.5210 -0.1580 -1.2386
  736MOL0     H 1532   9.875   9.439   5.386  0.5682  1.4005 -2.7236
  736MOL0     H 1533   9.932   9.595   5.368 -1.3324 -1.4293 -1.2840
  736MOL0     H 1534  10.076   9.386   5.551  2.8894 -1.2860 -1.3737
  736MOL0     H 1535  10.103   9.427   5.378  1.3121  0.6405 -0.2986
  736MOL0     H 1536  10.113   9.618   5.624  0.3578  0.9499 -0.7205
  736MOL0     H 1537  10.129   9.678   5.465 -0.5368  1.3541  0.7310
  736MOL0     H 1538  10.341   9.515   5.456 -1.3553 -1.7006  0.0396
  736MOL0     H 1539  10.303   9.497   5.634  1.3873  0.5283  0.6844
  736MOL0     H 1540  10.351   9.757   5.480 -1.8163 -1.4561 -0.1025
  736MOL0     H 1541  10.294   9.760   5.644 -1.1187  0.5869 -0.4879
  736MOL0     H 1542  10.496   9.649   5.727 -2.9837  1.1814  0.0179
  736MOL0     H 1543  10.542   9.784   5.631 -0.5338  0.5796  0.9815
  736MOL0     H 1544  10.563   9.607   5.434  2.9557  0.8690  0.6270
  736MOL0     H 1545  10.553   9.490   5.571  0.6445 -0.1256  3.2437
  736MOL0     H 1546  10.763   9.715   5.552  2.8163 -0.9209  1.1140
  736MOL0     H 1547  10.794   9.546   5.518  0.7783 -1.0705  2.3529
  736MOL0     H 1548   9.666   9.470   5.397  0.7640 -1.6321  3.0211
  736MOL0     H 1549   9.427   9.490   5.437 -1.1215  1.2932 -0.1023
  736MOL0     H 1550   9.174   9.966   5.513 -0.7030  1.1687  0.3368
  736MOL0     H 1551   8.940  10.061   5.505  1.2576 -0.1893 -0.0522
  736MOL0     H 1552   7.302   9.822   6.782 -0.6675 -1.5888  1.5241
  736MOL0     H 1553   7.081   9.718   6.801 -2.2034 -3.3295 -1.5588
  736MOL0     H 1554   6.816   9.397   6.724  0.6688 -3.2631  0.7059
  736MOL0     H 1555   6.605   9.254   6.720 -0.2519 -0.6720 -0.1442
  736MOL0     H 1556   6.412   9.202   6.707  2.0886  1.3052 -0.6323
  736MOL0     H 1557   6.250   9.231   6.648 -0.7517  2.1439 -0.3723
  736MOL0     H 1558   6.495   9.090   6.512 -0.1353 -0.8749 -1.3696
  736MOL0     H 1559   6.344   9.104   6.422  1.0611 -1.2561 -0.3929
  736MOL0     H 1560   6.395   8.880   6.548 -2.2512 -0.7616 -0.0540
  736MOL0     H 1561   6.354   8.964   6.693  3.3123  0.2979 -0.8156
  736MOL0     H 1562   6.167   8.900   6.454  1.4604 -4.0286  0.6634
  736MOL0     H 1563   6.116   9.007   6.592 -0.3420 -1.4997  2.4623
  736MOL0     H 1564   6.135   8.616   6.756 -0.8014  1.8769  2.0842
  736MOL0     H 1565   6.459   9.507   6.407 -1.7903  2.2770  2.2258
  736MOL0     H 1566   6.705   9.724   6.364 -4.4830  1.3723  0.7975
  736MOL0     H 1567   6.783   9.580   6.282 -2.0487 -0.0644 -2.6339
  736MOL0     H 1568   6.610   9.604   6.268  0.0658  0.6548  0.4335
  737MOL0     O 1569   7.736  10.775   2.661 -0.7281  0.2682 -0.4287
  737MOL0     C 1570   7.634  10.775   2.590 -0.0619  0.1640 -0.7805
  737MOL0     O 1571   7.601  10.676   2.491 -0.1891  0.0482 -0.0766
  737MOL0     C 1572   7.693  10.583   2.446  0.7244 -0.2484  0.6554
  737MOL0     C 1573   7.648  10.456   2.415  0.7000  0.6432 -1.2908
  737MOL0     C 1574   7.736  10.347   2.379 -0.3115 -0.1720 -0.2192
  737MOL0     C 1575   7.875  10.372   2.365  0.0630  0.4496 -0.1598
  737MOL0     O 1576   7.952  10.265   2.316 -0.6987  0.2872 -0.4058
  737MOL0     C 1577   8.095  10.263   2.328  0.4606 -0.8948  0.0672
  737MOL0     C 1578   8.141  10.136   2.260  0.6628 -0.5468 -0.2346
  737MOL0     C 1579   8.110  10.125   2.103  1.0780 -0.4199 -1.0387
  737MOL0     C 1580   8.160   9.995   2.037 -0.4279 -0.6873 -0.2575
  737MOL0     C 1581   8.113   9.970   1.896  0.0569  0.4547 -0.1659
  737MOL0     C 1582   8.099   9.813   1.857  0.1482 -0.6514 -0.3848
  737MOL0     C 1583   8.235   9.735   1.867 -0.8221  0.0394  0.0671
  737MOL0     C 1584   8.228   9.595   1.811 -0.9357  0.4318 -0.0725
  737MOL0     N 1585   8.341   9.508   1.859  0.0289 -0.3300  1.0214
  737MOL0     C 1586   8.345   9.454   1.985  0.2789  0.2959  0.4890
  737MOL0     C 1587   8.452   9.366   1.975 -0.0160 -0.7452 -0.4012
  737MOL0     C 1588   8.506   9.286   2.094  0.1354  0.5953  0.9171
  737MOL0     C 1589   8.652   9.281   2.097  0.5968 -0.1249  0.3663
  737MOL0     C 1590   8.716   9.418   2.111 -0.7156 -0.3395  0.5634
  737MOL0     C 1591   8.872   9.407   2.112  0.8840 -0.3683  1.0243
  737MOL0     O 1592   8.909   9.331   2.225 -0.5532 -0.1454 -0.1338
  737MOL0     C 1593   9.037   9.311   2.254 -0.8705  0.1205 -1.0758
  737MOL0     C 1594   9.148   9.364   2.183  0.1119 -0.6574  0.1544
  737MOL0     C 1595   9.282   9.347   2.215  0.0342  0.3204  0.2887
  737MOL0     C 1596   9.385   9.412   2.131  0.0928  0.1597  0.3533
  737MOL0     C 1597   9.305   9.276   2.332  0.4795  0.0658 -0.9070
  737MOL0     C 1598   9.434   9.269   2.393 -0.2624 -0.4443  0.2303
  737MOL0     O 1599   9.442   9.207   2.512  0.2631 -0.0465  0.1021
  737MOL0     C 1600   9.566   9.166   2.550 -0.7991 -0.2738  0.2127
  737MOL0     C 1601   9.640   9.256   2.621 -0.0031 -0.2418 -0.3900
  737MOL0     C 1602   9.781   9.240   2.639  0.6575  0.5013 -0.1985
  737MOL0     C 1603   9.842   9.127   2.580  0.5287  0.2953 -0.3910
  737MOL0     O 1604   9.977   9.102   2.588  0.1449  0.3366 -0.0086
  737MOL0     C 1605  10.048   9.166   2.694 -0.5639 -0.2818  0.4325
  737MOL0     C 1606  10.188   9.130   2.696 -0.0935 -0.3608  0.6209
  737MOL0     C 1607  10.281   9.195   2.799  0.7215 -0.3131  0.1607
  737MOL0     C 1608  10.399   9.105   2.832 -0.5878  0.4518  0.0619
  737MOL0     C 1609  10.483   9.170   2.945 -0.4371  0.2195 -0.4869
  737MOL0     C 1610  10.619   9.092   2.946  0.6682  0.0905 -0.0681
  737MOL0     C 1611  10.709   9.125   3.061  0.1644 -0.2430 -0.1090
  737MOL0     C 1612  10.736   9.272   3.081 -0.0348 -0.6305 -0.5678
  737MOL0    Cl 1613  10.833   9.294   3.218 -0.3065 -0.3852 -0.0473
  737MOL0     C 1614   9.774   9.036   2.508  0.2316 -0.0591 -0.1724
  737MOL0     C 1615   9.629   9.054   2.488  0.5027  0.4825  0.0077
  737MOL0     O 1616   9.529   9.306   2.328 -0.0521 -0.1143  0.4257
  737MOL0     C 1617   9.202   9.208   2.394  0.3174  0.3017  0.0279
  737MOL0     C 1618   9.070   9.222   2.354  0.2047  0.0381 -0.7115
  737MOL0     N 1619   8.493   9.358   1.844  0.3485 -0.3020 -0.2854
  737MOL0     N 1620   8.427   9.438   1.774 -0.2391  0.7377 -0.6789
  737MOL0     C 1621   7.919  10.500   2.373  0.8286 -0.2151 -0.5098
  737MOL0     C 1622   7.824  10.599   2.421 -0.1077 -0.5413  1.1066
  737MOL0     C 1623   7.530  10.872   2.635 -0.4139  0.0630 -0.5476
  737MOL0     C 1624   7.392  10.845   2.608 -0.4872  0.5723  0.8297
  737MOL0     C 1625   7.289  10.918   2.666 -0.4924  0.1456 -0.9418
  737MOL0     C 1626   7.318  11.032   2.743 -0.5704 -0.0356 -0.2292
  737MOL0     O 1627   7.214  11.092   2.796  0.4725 -0.2204 -0.6035
  737MOL0     C 1628   7.224  11.187   2.903  0.0837 -0.7791 -0.4218
  737MOL0     C 1629   7.080  11.239   2.924 -0.1879  0.6814 -0.2075
  737MOL0     C 1630   7.014  11.307   2.809 -0.2839  0.1495  0.4446
  737MOL0     C 1631   7.110  11.395   2.727 -0.1472  0.6228 -0.9658
  737MOL0     C 1632   7.165  11.509   2.804 -0.0497  0.4769  0.5687
  737MOL0     C 1633   7.207  11.584   2.887 -0.1619 -0.1139  0.1365
  737MOL0     C 1634   7.448  11.073   2.753  0.7786  0.6123 -0.7443
  737MOL0     C 1635   7.558  10.997   2.700 -0.7971  0.9642 -0.2290
  737MOL0     C 1636   7.697  11.065   2.705  0.6904 -0.0662  0.6455
  737MOL0     H 1637   7.542  10.438   2.428  0.5513 -0.6258 -3.7286
  737MOL0     H 1638   7.702  10.243   2.376 -0.2257 -0.2197  0.2730
  737MOL0     H 1639   8.124  10.274   2.433  1.1986  2.4998 -0.3651
  737MOL0     H 1640   8.141  10.341   2.266 -1.3248 -2.1590 -3.0168
  737MOL0     H 1641   8.249  10.132   2.276  0.2998 -1.7051  2.5139
  737MOL0     H 1642   8.086  10.054   2.308 -1.2186  1.0857  0.5180
  737MOL0     H 1643   8.002  10.130   2.087  0.5292  0.0893  2.1679
  737MOL0     H 1644   8.153  10.202   2.037 -1.7634  2.9337  0.7110
  737MOL0     H 1645   8.269   9.990   2.026 -0.2916  0.7204  0.2716
  737MOL0     H 1646   8.112   9.919   2.099 -0.5059  0.9971  1.8784
  737MOL0     H 1647   8.173  10.024   1.823  0.3016  0.5349  0.0882
  737MOL0     H 1648   8.013  10.013   1.894  0.4643  1.3999 -1.9633
  737MOL0     H 1649   8.023   9.774   1.924  0.9019 -0.7818  0.4155
  737MOL0     H 1650   8.065   9.800   1.754 -2.9395  0.0060  0.4583
  737MOL0     H 1651   8.252   9.724   1.974 -2.4822  0.3273  0.3900
  737MOL0     H 1652   8.312   9.798   1.821 -0.9302 -0.7205 -1.2063
  737MOL0     H 1653   8.131   9.550   1.834 -0.9495  1.0846  1.2014
  737MOL0     H 1654   8.237   9.618   1.704  4.1560  0.9413  0.2142
  737MOL0     H 1655   8.284   9.481   2.070 -1.4988 -0.5686 -0.4476
  737MOL0     H 1656   8.461   9.188   2.075  0.7114  0.6545 -0.9904
  737MOL0     H 1657   8.459   9.322   2.186 -0.8293 -0.4143  0.8392
  737MOL0     H 1658   8.690   9.209   2.170  4.1454  0.3130 -0.8870
  737MOL0     H 1659   8.681   9.240   2.000 -1.2051  1.9196 -1.1529
  737MOL0     H 1660   8.686   9.472   2.021 -0.2086 -0.2576  0.4456
  737MOL0     H 1661   8.677   9.476   2.195  1.8642  1.9686  0.2684
  737MOL0     H 1662   8.900   9.343   2.027 -1.3712 -1.4732  1.0300
  737MOL0     H 1663   8.918   9.505   2.096 -0.2636 -0.2676 -2.6123
  737MOL0     H 1664   9.118   9.432   2.103  0.6298  0.2180  0.6850
  737MOL0     H 1665   9.345   9.442   2.034  3.1914 -3.5954 -2.4455
  737MOL0     H 1666   9.462   9.341   2.100  1.9610  2.7275 -1.3672
  737MOL0     H 1667   9.442   9.497   2.170  0.5486 -0.0448  0.1401
  737MOL0     H 1668   9.597   9.347   2.660  3.4628  2.0224 -1.3362
  737MOL0     H 1669   9.840   9.320   2.683  1.6658  0.1653 -0.9121
  737MOL0     H 1670  10.040   9.275   2.691  0.1787 -0.1933  1.3316
  737MOL0     H 1671  10.008   9.140   2.792  2.4302 -0.6719  1.6583
  737MOL0     H 1672  10.191   9.025   2.724 -0.2675 -0.3625  0.6301
  737MOL0     H 1673  10.218   9.160   2.595  0.8625 -0.2987  0.9107
  737MOL0     H 1674  10.232   9.213   2.896 -0.6785  0.8223 -0.7112
  737MOL0     H 1675  10.315   9.292   2.761  1.6869 -1.1534 -1.1689
  737MOL0     H 1676  10.466   9.081   2.749  0.7739 -0.9624  1.4710
  737MOL0     H 1677  10.365   9.011   2.878 -1.8851  2.1794  2.8868
  737MOL0     H 1678  10.497   9.276   2.922 -0.9845  0.7243  1.3249
  737MOL0     H 1679  10.440   9.174   3.046 -0.3220 -2.0557 -0.2878
  737MOL0     H 1680  10.665   9.109   2.849  1.0738  1.3651  0.3344
  737MOL0     H 1681  10.601   8.984   2.949 -1.2816  0.3689 -0.1470
  737MOL0     H 1682  10.806   9.075   3.053  1.1816  1.4758  0.8409
  737MOL0     H 1683  10.656   9.090   3.150 -2.4586 -0.9731 -1.8471
  737MOL0     H 1684  10.643   9.329   3.093  0.3169  1.6321 -5.8808
  737MOL0     H 1685  10.787   9.321   2.998  0.4660  0.9716  0.6393
  737MOL0     H 1686   9.832   8.948   2.479  0.3624  0.0851 -0.3580
  737MOL0     H 1687   9.568   8.992   2.423  0.6955  0.4903 -0.1848
  737MOL0     H 1688   9.213   9.141   2.479 -0.4913 -0.7856 -0.6998
  737MOL0     H 1689   8.995   9.163   2.405 -0.4687  1.7197  0.3536
  737MOL0     H 1690   8.022  10.530   2.356  1.1727 -0.3561  1.1243
  737MOL0     H 1691   7.857  10.701   2.435 -3.1310  0.5814  0.8476
  737MOL0     H 1692   7.365  10.758   2.550 -1.8986  1.5595 -0.0485
  737MOL0     H 1693   7.186  10.884   2.658 -1.0854  1.9496 -1.6284
  737MOL0     H 1694   7.264  11.147   2.997 -0.9640 -0.1834  0.2928
  737MOL0     H 1695   7.284  11.277   2.888 -2.1825  0.9149  0.2189
  737MOL0     H 1696   7.075  11.313   3.003 -1.1270 -2.3598  2.8097
  737MOL0     H 1697   7.026  11.153   2.965 -1.4042  1.8432  0.6675
  737MOL0     H 1698   6.985  11.227   2.739  1.8884 -0.5979  0.2951
  737MOL0     H 1699   6.928  11.363   2.845 -0.2230  0.4725  0.0944
  737MOL0     H 1700   7.055  11.435   2.641  1.2628 -2.0476 -3.2840
  737MOL0     H 1701   7.188  11.345   2.670 -0.8338  1.4552 -2.7142
  737MOL0     H 1702   7.241  11.640   2.972  2.3524 -0.9535 -0.2154
  737MOL0     H 1703   7.465  11.171   2.797 -0.3813  0.8376 -0.7697
  737MOL0     H 1704   7.718  11.109   2.803 -2.2808  1.8955  0.5330
  737MOL0     H 1705   7.779  10.998   2.680  0.2171 -0.6902  0.7391
  737MOL0     H 1706   7.700  11.152   2.638  2.0311 -0.0804  0.6618
  738MOL0     O 1707   9.957   1.094   7.652  0.2289  0.5569 -0.3965
  738MOL0     C 1708   9.876   1.006   7.658  0.7561 -0.2610  0.7943
  738MOL0     O 1709   9.904   0.870   7.653  0.7494 -0.2214  0.4729
  738MOL0     C 1710  10.037   0.831   7.649 -0.1274  1.6347 -0.5892
  738MOL0     C 1711  10.095   0.771   7.762 -0.3670  0.9688 -0.2023
  738MOL0     C 1712  10.236   0.754   7.767 -0.3770  1.3675  0.3250
  738MOL0     C 1713  10.322   0.807   7.667  0.5124 -0.0723  1.1047
  738MOL0     O 1714  10.457   0.820   7.654  0.2184 -0.4241 -0.5359
  738MOL0     C 1715  10.535   0.798   7.767 -0.1956  0.0119 -0.5442
  738MOL0     C 1716  10.686   0.802   7.746 -0.5218  0.3231  0.2929
  738MOL0     C 1717  10.744   0.709   7.636  0.4945 -0.3501  0.4169
  738MOL0     C 1718  10.890   0.738   7.627 -0.1391  0.0837 -0.2928
  738MOL0     C 1719  10.971   0.738   7.757 -0.3127  0.0746  0.8701
  738MOL0     C 1720  10.970   0.605   7.841 -0.2748 -0.2507 -0.1078
  738MOL0     C 1721  11.008   0.634   7.998 -0.0624 -0.8479  0.4194
  738MOL0     C 1722  11.127   0.730   8.019 -0.4354 -0.8965 -0.0699
  738MOL0     N 1723  11.254   0.654   8.008 -0.0717 -0.3931  0.5116
  738MOL0     C 1724  11.310   0.598   8.117  0.0047  0.4209  0.3862
  738MOL0     C 1725  11.431   0.556   8.087  0.1223  0.8569 -0.1285
  738MOL0     C 1726  11.523   0.494   8.188 -0.3903  0.1900  0.0325
  738MOL0     C 1727  11.524   0.558   8.323  0.2559  0.8370 -0.3178
  738MOL0     C 1728  11.441   0.485   8.427 -0.2537  0.6208 -0.2407
  738MOL0     C 1729  11.457   0.531   8.574  0.4518  0.2815  0.3971
  738MOL0     O 1730  11.597   0.553   8.610  0.0767  0.3000 -0.3279
  738MOL0     C 1731  11.623   0.661   8.684  0.0277 -0.9377  0.1195
  738MOL0     C 1732  11.756   0.699   8.672  0.5117  0.2059  0.7980
  738MOL0     C 1733  11.812   0.808   8.742 -0.1927  0.0630  0.3017
  738MOL0     C 1734  11.960   0.845   8.712  0.1946  1.1282 -0.2746
  738MOL0     C 1735  11.726   0.883   8.829 -0.1886  0.2698 -0.1091
  738MOL0     C 1736  11.780   0.986   8.920 -0.0007 -0.5372 -0.5571
  738MOL0     O 1737  11.906   0.953   8.961 -0.9360  0.8232 -0.8483
  738MOL0     C 1738  11.979   1.045   9.044  0.8369  0.3720 -0.0123
  738MOL0     C 1739  12.067   0.988   9.134 -0.3909 -0.0549 -0.5066
  738MOL0     C 1740  12.156   1.076   9.202 -0.1954 -0.2897  0.0907
  738MOL0     C 1741  12.150   1.213   9.176 -0.2894 -0.6347 -0.7282
  738MOL0     O 1742  12.234   1.282   9.260  0.8393  0.1665  0.3426
  738MOL0     C 1743  12.227   1.427   9.257  0.1298 -0.1474  0.1482
  738MOL0     C 1744  12.244   1.491   9.389  0.5945 -0.1142  0.2751
  738MOL0     C 1745  12.381   1.461   9.440  0.2670 -1.0359 -0.2226
  738MOL0     C 1746  12.419   1.554   9.566 -0.0831 -0.2454  0.1419
  738MOL0     C 1747  12.552   1.519   9.622 -0.3353  0.3103  0.1290
  738MOL0     C 1748  12.666   1.588   9.548  0.0199 -0.0324 -0.0383
  738MOL0     C 1749  12.801   1.562   9.610 -0.2118  0.1565 -0.4142
  738MOL0     C 1750  12.920   1.647   9.563  0.3102 -0.0348  0.1808
  738MOL0    Cl 1751  13.085   1.624   9.650 -0.2358 -0.5502  0.2136
  738MOL0     C 1752  12.061   1.266   9.089 -0.0191  0.2728  0.0909
  738MOL0     C 1753  11.978   1.180   9.022  0.0075 -0.5371 -0.2574
  738MOL0     O 1754  11.710   1.083   8.950  0.5600  0.0452 -0.3312
  738MOL0     C 1755  11.587   0.842   8.843 -0.0262 -1.3361 -0.1434
  738MOL0     C 1756  11.541   0.730   8.771 -0.1266  0.3804  0.0896
  738MOL0     N 1757  11.446   0.589   7.951 -0.0361  0.2728 -0.0972
  738MOL0     N 1758  11.336   0.635   7.902  0.2245 -0.0800  0.0070
  738MOL0     C 1759  10.260   0.856   7.550 -0.5446 -1.4135 -0.6957
  738MOL0     C 1760  10.124   0.862   7.541  0.1336  0.5336  0.0322
  738MOL0     C 1761   9.734   1.058   7.651 -0.0503 -0.6958 -0.0712
  738MOL0     C 1762   9.712   1.201   7.658  0.1037  0.8828 -0.0373
  738MOL0     C 1763   9.587   1.250   7.631  0.3788  0.0464  0.5766
  738MOL0     C 1764   9.470   1.169   7.619 -0.6514  0.4137 -0.0386
  738MOL0     O 1765   9.351   1.213   7.585  0.4186  0.7110 -0.5286
  738MOL0     C 1766   9.308   1.334   7.656  0.3069 -0.0213  0.3333
  738MOL0     C 1767   9.156   1.371   7.633 -0.0206  1.3794 -0.2310
  738MOL0     C 1768   9.131   1.511   7.680  0.4416  0.1375  0.4279
  738MOL0     C 1769   8.975   1.528   7.697  0.0578 -1.1449  0.2057
  738MOL0     C 1770   8.912   1.494   7.568 -0.6598 -0.2557 -0.9574
  738MOL0     C 1771   8.868   1.467   7.459 -0.2554  0.8031  0.2436
  738MOL0     C 1772   9.493   1.034   7.625 -0.2856 -0.3342 -0.4385
  738MOL0     C 1773   9.620   0.975   7.647  1.1964 -0.4751 -0.3170
  738MOL0     C 1774   9.624   0.826   7.651 -0.4325 -0.1126 -0.1387
  738MOL0     H 1775  10.035   0.751   7.850 -0.6402  0.1131 -0.5788
  738MOL0     H 1776  10.281   0.704   7.852 -0.2065 -2.3394 -1.7050
  738MOL0     H 1777  10.503   0.696   7.793  2.5565 -0.9736 -0.6959
  738MOL0     H 1778  10.500   0.856   7.853  0.9076  0.4189 -0.3558
  738MOL0     H 1779  10.714   0.907   7.731  1.1056 -0.4541 -3.2998
  738MOL0     H 1780  10.730   0.769   7.840 -1.1443  0.4429  0.6333
  738MOL0     H 1781  10.733   0.605   7.668 -1.1618  0.3064  2.1675
  738MOL0     H 1782  10.697   0.723   7.538  1.8821  0.5222 -0.1583
  738MOL0     H 1783  10.929   0.657   7.565 -1.3467  0.8674 -2.1787
  738MOL0     H 1784  10.902   0.835   7.576  0.1283 -0.3352 -1.0354
  738MOL0     H 1785  10.941   0.819   7.825 -1.3131 -0.6404  1.3013
  738MOL0     H 1786  11.078   0.745   7.735 -0.8546  2.5633 -1.5641
  738MOL0     H 1787  10.865   0.573   7.848 -0.8933  1.4896 -0.9371
  738MOL0     H 1788  11.027   0.526   7.792 -1.3232 -1.0528 -0.0723
  738MOL0     H 1789  11.011   0.543   8.058 -1.1014 -0.4245  1.1557
  738MOL0     H 1790  10.920   0.683   8.040  0.5910  0.7433  0.0098
  738MOL0     H 1791  11.133   0.820   7.957 -1.9316  3.2109  4.9350
  738MOL0     H 1792  11.117   0.770   8.121  2.9318 -1.2725  0.5135
  738MOL0     H 1793  11.273   0.598   8.219  1.4890 -0.5489  0.9596
  738MOL0     H 1794  11.626   0.499   8.151 -0.3844  3.2678  0.2384
  738MOL0     H 1795  11.500   0.387   8.192 -0.0195  0.1105  0.0071
  738MOL0     H 1796  11.629   0.558   8.354  1.7655  2.0441 -4.6034
  738MOL0     H 1797  11.491   0.662   8.319 -0.2501  1.0130  3.8664
  738MOL0     H 1798  11.333   0.488   8.409 -0.7366  1.9003  2.2847
  738MOL0     H 1799  11.469   0.379   8.416  0.3340  0.8734 -1.3105
  738MOL0     H 1800  11.387   0.614   8.586 -2.0879 -1.9035  1.6792
  738MOL0     H 1801  11.425   0.448   8.638 -0.3686 -0.4976 -0.9807
  738MOL0     H 1802  11.827   0.652   8.605  0.2338  3.4169 -2.0423
  738MOL0     H 1803  11.975   0.953   8.704 -1.5714  1.7018  2.5724
  738MOL0     H 1804  12.003   0.794   8.625 -0.2571 -2.6553  1.5279
  738MOL0     H 1805  12.022   0.808   8.794  0.5921  0.7564 -0.7391
  738MOL0     H 1806  12.073   0.880   9.143 -3.7629 -0.3433 -0.3744
  738MOL0     H 1807  12.220   1.037   9.281 -2.0894 -0.7113  1.4693
  738MOL0     H 1808  12.310   1.450   9.189 -0.6402 -0.6580 -1.0074
  738MOL0     H 1809  12.130   1.464   9.222  0.3390  2.5751  2.1000
  738MOL0     H 1810  12.246   1.598   9.368  0.7393 -0.3405 -0.9052
  738MOL0     H 1811  12.174   1.468   9.470  1.1371 -0.7961  0.5594
  738MOL0     H 1812  12.464   1.479   9.370  1.5429  2.6725  1.9636
  738MOL0     H 1813  12.386   1.356   9.470  0.1472 -0.4868  1.8342
  738MOL0     H 1814  12.344   1.538   9.645  0.5159  1.6837  1.1736
  738MOL0     H 1815  12.424   1.657   9.531  0.4433 -0.1395  0.5151
  738MOL0     H 1816  12.563   1.550   9.726 -0.6221 -2.1577  0.9561
  738MOL0     H 1817  12.570   1.411   9.628  0.1746  0.3752 -0.1669
  738MOL0     H 1818  12.654   1.697   9.542  1.1359  0.2479  2.0766
  738MOL0     H 1819  12.658   1.550   9.446 -2.8524  1.2262 -0.3761
  738MOL0     H 1820  12.828   1.456   9.598  0.7681  0.2182  1.0063
  738MOL0     H 1821  12.782   1.587   9.715 -1.2349 -0.5189 -0.4309
  738MOL0     H 1822  12.888   1.752   9.563  0.7138  0.0945  0.9559
  738MOL0     H 1823  12.927   1.622   9.457 -3.2943  0.3951 -0.2916
  738MOL0     H 1824  12.055   1.369   9.055  2.2027  0.5142  0.2310
  738MOL0     H 1825  11.909   1.230   8.954 -2.5931 -0.6399  2.1098
  738MOL0     H 1826  11.531   0.896   8.919  2.2476 -0.1892  0.8023
  738MOL0     H 1827  11.441   0.690   8.781  0.2831 -1.0681 -1.2450
  738MOL0     H 1828  10.325   0.896   7.473 -2.4199 -1.5043 -2.4149
  738MOL0     H 1829  10.064   0.911   7.464 -2.1285  1.2844  2.1381
  738MOL0     H 1830   9.795   1.271   7.659 -0.7189  1.8784  0.8887
  738MOL0     H 1831   9.572   1.358   7.624  1.1462  0.1901  1.0570
  738MOL0     H 1832   9.329   1.325   7.763 -0.4908 -1.5512  0.3895
  738MOL0     H 1833   9.368   1.419   7.621  0.4255 -0.6883 -1.1662
  738MOL0     H 1834   9.096   1.298   7.688 -0.7904  2.1341 -0.0507
  738MOL0     H 1835   9.140   1.361   7.525  2.6427 -1.1654 -0.5040
  738MOL0     H 1836   9.187   1.541   7.769  1.0987 -1.1434  0.4583
  738MOL0     H 1837   9.163   1.584   7.605 -0.3417  0.4343  0.3630
  738MOL0     H 1838   8.957   1.635   7.715 -0.8583 -1.2611  0.0371
  738MOL0     H 1839   8.932   1.473   7.781 -1.0313  3.0848  2.7198
  738MOL0     H 1840   8.836   1.445   7.359 -3.2267  1.3041  0.9730
  738MOL0     H 1841   9.408   0.966   7.624 -1.3937  1.0057 -2.1007
  738MOL0     H 1842   9.684   0.782   7.731 -0.5097 -3.7542 -1.8840
  738MOL0     H 1843   9.526   0.779   7.663  0.1264 -2.4194 -3.3626
  738MOL0     H 1844   9.679   0.790   7.563 -0.3994 -0.7309  0.1316
  739MOL0     O 1845   3.366   3.488   3.110  0.4104 -0.2844  1.0961
  739MOL0     C 1846   3.275   3.408   3.093 -0.4896 -0.3581  0.7285
  739MOL0     O 1847   3.289   3.282   3.049 -0.1907 -0.1622 -0.1942
  739MOL0     C 1848   3.409   3.237   2.992  0.7431 -0.1925 -0.2724
  739MOL0     C 1849   3.392   3.150   2.891 -0.2315  0.3992  0.1389
  739MOL0     C 1850   3.500   3.091   2.819 -0.0861  1.1078  0.1932
  739MOL0     C 1851   3.637   3.104   2.860  0.1386 -0.3014 -0.0659
  739MOL0     O 1852   3.740   3.047   2.791 -0.4711 -0.4579 -0.4497
  739MOL0     C 1853   3.857   3.022   2.868  0.7721 -0.3707 -0.1841
  739MOL0     C 1854   3.946   2.915   2.803  0.1384  0.0849 -0.4268
  739MOL0     C 1855   4.064   2.871   2.891  0.0562  0.5144 -0.1240
  739MOL0     C 1856   4.191   2.876   2.807 -0.3575  0.2996 -0.5667
  739MOL0     C 1857   4.288   2.811   2.904 -0.4956  0.3131 -0.1568
  739MOL0     C 1858   4.414   2.770   2.822 -1.5085  0.1772  0.0931
  739MOL0     C 1859   4.514   2.686   2.903  0.7410  0.4018  0.5134
  739MOL0     C 1860   4.604   2.749   3.011  0.4650 -0.1418 -0.8067
  739MOL0     N 1861   4.666   2.645   3.098 -0.3163  0.3178  0.4647
  739MOL0     C 1862   4.751   2.550   3.055 -0.1215 -0.3172  0.4070
  739MOL0     C 1863   4.806   2.495   3.171  0.3970 -0.3941 -0.1421
  739MOL0     C 1864   4.922   2.395   3.147  0.2019 -0.2890 -0.3771
  739MOL0     C 1865   4.997   2.357   3.271  0.0277  0.0519 -0.4987
  739MOL0     C 1866   5.095   2.239   3.251 -0.2308 -0.0604 -0.9830
  739MOL0     C 1867   5.183   2.209   3.374  0.5014 -0.0587  0.1277
  739MOL0     O 1868   5.291   2.115   3.327  0.2979 -0.0929 -0.5587
  739MOL0     C 1869   5.405   2.086   3.399  0.2211 -0.5397  0.6578
  739MOL0     C 1870   5.447   2.142   3.518 -0.2477  1.2815 -1.0104
  739MOL0     C 1871   5.567   2.081   3.583  0.4459  0.3845 -0.6828
  739MOL0     C 1872   5.580   2.102   3.735  0.3564 -0.0941 -0.2213
  739MOL0     C 1873   5.659   2.014   3.503  0.8785  0.1191  0.3310
  739MOL0     C 1874   5.789   1.979   3.539 -0.3727 -0.5674 -0.0316
  739MOL0     O 1875   5.888   1.954   3.441 -0.2183 -0.2058  0.8022
  739MOL0     C 1876   6.016   1.922   3.479  0.5087  0.6438  0.1061
  739MOL0     C 1877   6.125   2.005   3.445  0.0988  0.0658 -0.1396
  739MOL0     C 1878   6.253   1.974   3.480 -0.4404 -0.3089 -1.1214
  739MOL0     C 1879   6.277   1.858   3.552  0.1726 -0.6215 -0.2621
  739MOL0     O 1880   6.393   1.814   3.603 -0.6826 -0.1748  0.5687
  739MOL0     C 1881   6.513   1.844   3.528  0.1826 -0.5687  0.7593
  739MOL0     C 1882   6.519   1.741   3.418 -0.1642 -0.5263 -0.7305
  739MOL0     C 1883   6.651   1.769   3.327  0.5446 -0.1827 -0.9589
  739MOL0     C 1884   6.628   1.871   3.210 -0.4003 -0.2568  0.5831
  739MOL0     C 1885   6.760   1.903   3.144 -0.1514  0.2945  0.2539
  739MOL0     C 1886   6.805   1.787   3.052 -0.0481 -0.4365  0.2269
  739MOL0     C 1887   6.936   1.816   2.977  0.5834  0.6695  0.5105
  739MOL0     C 1888   7.049   1.850   3.075  0.8460 -0.4098  0.1833
  739MOL0    Cl 1889   7.215   1.857   2.992  0.0423  0.1440 -0.2345
  739MOL0     C 1890   6.173   1.774   3.577  0.7345  0.1341 -0.7666
  739MOL0     C 1891   6.039   1.804   3.548  0.1253  0.1638  0.8754
  739MOL0     O 1892   5.818   1.980   3.655  0.0306 -0.1783  0.0721
  739MOL0     C 1893   5.613   1.953   3.379  0.5089  0.0278  0.1955
  739MOL0     C 1894   5.481   1.986   3.333  0.5915  0.0047 -0.3130
  739MOL0     N 1895   4.728   2.550   3.279  0.0167  1.4491 -0.0929
  739MOL0     N 1896   4.656   2.640   3.236 -0.5110 -0.2288  0.3479
  739MOL0     C 1897   3.652   3.195   2.968 -0.7900 -0.0271  0.5620
  739MOL0     C 1898   3.545   3.259   3.025  0.3417  0.6981 -0.2299
  739MOL0     C 1899   3.134   3.437   3.110 -0.9014 -0.8071 -0.4083
  739MOL0     C 1900   3.040   3.329   3.119  0.1532  0.1192 -0.1609
  739MOL0     C 1901   2.904   3.349   3.123  0.1192 -0.1357 -0.5510
  739MOL0     C 1902   2.852   3.478   3.116  0.2314  0.8957  0.4483
  739MOL0     O 1903   2.718   3.487   3.114  0.0953 -0.4665 -0.0067
  739MOL0     C 1904   2.678   3.550   3.233  0.2625  0.3637  0.8937
  739MOL0     C 1905   2.527   3.553   3.236 -0.5944 -0.5062 -0.6646
  739MOL0     C 1906   2.463   3.415   3.215  0.5032 -0.3542 -0.0235
  739MOL0     C 1907   2.311   3.433   3.196 -0.6556  0.3162  0.4403
  739MOL0     C 1908   2.228   3.519   3.278 -0.0943  0.2027  0.6727
  739MOL0     C 1909   2.153   3.594   3.341  1.0271  1.1839  0.2344
  739MOL0     C 1910   2.940   3.586   3.106 -0.3937 -0.4120 -0.1504
  739MOL0     C 1911   3.084   3.569   3.109  0.1488  0.1321  0.3435
  739MOL0     C 1912   3.169   3.696   3.118  0.3261 -0.3429  0.1636
  739MOL0     H 1913   3.294   3.110   2.869  0.6803 -2.0807  0.3420
  739MOL0     H 1914   3.474   3.024   2.737  1.5327 -0.1664  0.6612
  739MOL0     H 1915   3.842   3.001   2.975  0.5072  0.5336 -0.0360
  739MOL0     H 1916   3.910   3.116   2.858 -0.6679  0.3374 -1.5942
  739MOL0     H 1917   3.876   2.833   2.785 -0.1850  0.4559 -0.8755
  739MOL0     H 1918   3.984   2.952   2.708  1.5355 -0.9129 -0.2904
  739MOL0     H 1919   4.076   2.937   2.977 -1.1433 -1.1044  1.3510
  739MOL0     H 1920   4.035   2.776   2.938 -1.6169  0.9061 -0.3025
  739MOL0     H 1921   4.185   2.823   2.712 -2.5447  2.5147 -1.7619
  739MOL0     H 1922   4.215   2.977   2.776  0.0312  0.7418  1.0615
  739MOL0     H 1923   4.256   2.712   2.935  2.0978  0.3843  3.3642
  739MOL0     H 1924   4.313   2.871   2.992  2.4715 -0.3826 -0.4238
  739MOL0     H 1925   4.385   2.697   2.746  0.0465 -0.1637 -0.2195
  739MOL0     H 1926   4.462   2.847   2.762  1.1411 -1.8807 -0.6491
  739MOL0     H 1927   4.578   2.635   2.830  0.0606 -1.9744  1.4655
  739MOL0     H 1928   4.459   2.604   2.950 -1.5161  0.5344 -1.6719
  739MOL0     H 1929   4.685   2.810   2.969  0.4379 -1.0496 -2.2599
  739MOL0     H 1930   4.544   2.812   3.077 -3.4565 -2.1985 -2.0945
  739MOL0     H 1931   4.778   2.529   2.952 -0.0345  0.3950  0.2810
  739MOL0     H 1932   4.986   2.431   3.067  3.0195 -2.2148  0.8188
  739MOL0     H 1933   4.879   2.302   3.108 -0.5506 -0.2366  0.2938
  739MOL0     H 1934   5.052   2.447   3.298 -0.0051 -0.1685  0.3148
  739MOL0     H 1935   4.925   2.332   3.349  1.7148  0.3712  1.2241
  739MOL0     H 1936   5.041   2.147   3.225  0.3438 -0.6111 -0.2700
  739MOL0     H 1937   5.156   2.256   3.162 -1.6844  1.8792 -1.7149
  739MOL0     H 1938   5.226   2.307   3.400  0.8505  1.1529 -4.2993
  739MOL0     H 1939   5.128   2.166   3.458 -0.7210  1.7006  0.2878
  739MOL0     H 1940   5.376   2.199   3.577  0.3647  0.2262  0.8592
  739MOL0     H 1941   5.484   2.112   3.786 -0.0826  0.7244 -1.1653
  739MOL0     H 1942   5.649   2.184   3.757  0.5606 -1.1015  3.4299
  739MOL0     H 1943   5.611   2.011   3.786 -1.1830 -0.2143  0.5276
  739MOL0     H 1944   6.094   2.088   3.383  0.6230 -1.4721 -2.6028
  739MOL0     H 1945   6.338   2.039   3.460 -1.1062  0.5041 -1.3472
  739MOL0     H 1946   6.534   1.945   3.491  3.8344 -1.8826 -1.2340
  739MOL0     H 1947   6.591   1.818   3.601 -1.2824  1.1737  3.1228
  739MOL0     H 1948   6.521   1.641   3.464 -4.5944 -0.2619  0.5935
  739MOL0     H 1949   6.434   1.753   3.349 -1.6760 -2.9249  0.5425
  739MOL0     H 1950   6.689   1.676   3.282  1.2957  0.4895 -1.7501
  739MOL0     H 1951   6.728   1.810   3.392  1.0395  1.2960 -2.4004
  739MOL0     H 1952   6.581   1.959   3.255  1.1757  0.9275 -0.0148
  739MOL0     H 1953   6.564   1.823   3.135 -0.1430  1.6225 -0.9195
  739MOL0     H 1954   6.743   1.999   3.095 -2.5493 -0.8937 -1.4386
  739MOL0     H 1955   6.832   1.915   3.226 -0.7994  2.1069  0.5958
  739MOL0     H 1956   6.728   1.781   2.974  0.5670  1.8413 -0.6428
  739MOL0     H 1957   6.816   1.700   3.117 -4.2083 -0.3760  1.2904
  739MOL0     H 1958   6.918   1.908   2.921 -0.1891 -0.7071 -1.6787
  739MOL0     H 1959   6.955   1.731   2.911 -1.3390 -2.2529  3.4036
  739MOL0     H 1960   7.045   1.787   3.165 -0.0296  0.2206  0.5946
  739MOL0     H 1961   7.036   1.953   3.108 -0.4223 -0.5017  0.0137
  739MOL0     H 1962   6.193   1.682   3.632  1.5620  0.9793  0.4074
  739MOL0     H 1963   5.964   1.732   3.580 -1.7200  1.0176 -1.3213
  739MOL0     H 1964   5.673   1.883   3.322 -1.7979 -1.4613 -0.5076
  739MOL0     H 1965   5.439   1.927   3.252 -1.4168 -1.6739  1.8268
  739MOL0     H 1966   3.751   3.206   3.011  1.0030 -2.9119 -2.4351
  739MOL0     H 1967   3.563   3.331   3.104 -0.2100 -3.4418  4.1277
  739MOL0     H 1968   3.077   3.227   3.130  1.4445  0.6674  0.9927
  739MOL0     H 1969   2.842   3.266   3.154  0.6773 -0.5768 -0.5945
  739MOL0     H 1970   2.710   3.488   3.317  1.6615  0.1475  0.2408
  739MOL0     H 1971   2.726   3.649   3.237  3.3414 -1.0344  1.5083
  739MOL0     H 1972   2.496   3.618   3.154 -2.5117 -0.2152  0.2228
  739MOL0     H 1973   2.497   3.602   3.329 -2.1657 -0.3120 -1.2330
  739MOL0     H 1974   2.505   3.363   3.129 -0.6660 -1.0437 -0.1883
  739MOL0     H 1975   2.490   3.354   3.302  0.3776  0.6930  0.7709
  739MOL0     H 1976   2.267   3.335   3.179  0.4961  0.1335 -2.0178
  739MOL0     H 1977   2.304   3.482   3.098 -0.0112 -0.7689 -0.1691
  739MOL0     H 1978   2.088   3.658   3.397 -0.0864  0.5789 -0.3394
  739MOL0     H 1979   2.893   3.682   3.123 -1.2172 -1.3661  4.3316
  739MOL0     H 1980   3.251   3.710   3.047 -0.0749  3.6950  0.2350
  739MOL0     H 1981   3.103   3.780   3.092  0.1434 -0.5473 -0.0434
  739MOL0     H 1982   3.208   3.718   3.218 -0.8057  0.6174  0.4225
  740MOL0     O 1983   1.645   6.925   5.820 -0.2319 -0.0024 -0.0596
  740MOL0     C 1984   1.576   6.951   5.916 -0.5712  0.0133  0.1275
  740MOL0     O 1985   1.629   6.958   6.038  0.1615  0.4756 -0.0175
  740MOL0     C 1986   1.754   6.894   6.058  0.1940  0.1468  0.6470
  740MOL0     C 1987   1.875   6.950   6.033 -0.1869  0.3436 -0.6229
  740MOL0     C 1988   1.996   6.886   6.060  0.1811 -0.0866  0.6767
  740MOL0     C 1989   1.994   6.754   6.118 -0.4382  0.3001  0.6412
  740MOL0     O 1990   2.106   6.686   6.166 -0.1168  0.5306  0.0406
  740MOL0     C 1991   2.226   6.764   6.166 -1.4774 -0.0494  0.2442
  740MOL0     C 1992   2.338   6.690   6.223 -0.5523 -0.2465 -0.5197
  740MOL0     C 1993   2.317   6.656   6.373 -0.4646 -0.5799 -0.0488
  740MOL0     C 1994   2.456   6.658   6.448 -0.1068  0.7421  0.2752
  740MOL0     C 1995   2.440   6.666   6.599 -0.0710 -0.2856  0.0573
  740MOL0     C 1996   2.349   6.562   6.657 -0.4791 -0.2843 -0.6048
  740MOL0     C 1997   2.382   6.421   6.620 -0.0010 -0.4775  0.1524
  740MOL0     C 1998   2.397   6.320   6.741  0.7078  0.0007 -0.4248
  740MOL0     N 1999   2.516   6.342   6.820 -0.2845  0.2345  0.6673
  740MOL0     C 2000   2.643   6.326   6.780 -0.1097  0.3960 -0.1350
  740MOL0     C 2001   2.708   6.337   6.896 -0.5687 -0.9686  0.4754
  740MOL0     C 2002   2.854   6.335   6.914  0.2517 -0.5155  0.3036
  740MOL0     C 2003   2.891   6.365   7.061 -0.1328  0.3707 -0.3891
  740MOL0     C 2004   3.022   6.288   7.107 -0.1423  0.4638 -0.2977
  740MOL0     C 2005   3.137   6.296   7.011 -0.0222 -0.3875  0.7689
  740MOL0     O 2006   3.188   6.429   6.987 -0.1826 -0.3865  0.1089
  740MOL0     C 2007   3.278   6.467   7.080  0.2770 -0.2583  0.6536
  740MOL0     C 2008   3.407   6.442   7.053 -0.3847 -0.1297  0.2931
  740MOL0     C 2009   3.505   6.482   7.146 -0.6235  0.1267  0.1047
  740MOL0     C 2010   3.647   6.442   7.111 -0.5735 -0.1107  0.5750
  740MOL0     C 2011   3.477   6.562   7.260  0.4481  0.9296 -0.7840
  740MOL0     C 2012   3.581   6.608   7.350 -0.6878 -0.9403 -1.0164
  740MOL0     O 2013   3.678   6.677   7.293  0.0949  0.5640 -0.6205
  740MOL0     C 2014   3.799   6.718   7.350  0.2817 -0.4761 -0.4040
  740MOL0     C 2015   3.917   6.692   7.280 -0.2566  1.2456 -0.7842
  740MOL0     C 2016   4.036   6.718   7.337  0.7669  0.5034 -0.1459
  740MOL0     C 2017   4.046   6.796   7.451 -0.0226 -0.0759 -0.6044
  740MOL0     O 2018   4.170   6.825   7.498  0.4324 -0.6568  0.5090
  740MOL0     C 2019   4.180   6.958   7.544  0.4495 -0.1228 -0.3827
  740MOL0     C 2020   4.329   6.992   7.572  0.0285 -0.5471 -0.4995
  740MOL0     C 2021   4.406   7.017   7.450 -0.8999  0.2827  1.4394
  740MOL0     C 2022   4.552   7.020   7.498 -0.9484 -0.6164  0.2898
  740MOL0     C 2023   4.648   7.080   7.398  0.2731 -0.2657 -0.0771
  740MOL0     C 2024   4.789   7.090   7.469  0.4125  0.1297  0.2872
  740MOL0     C 2025   4.890   7.144   7.369  0.1670  0.5615  0.2166
  740MOL0     C 2026   5.027   7.137   7.438  0.1519 -0.2276 -0.1240
  740MOL0    Cl 2027   5.136   7.246   7.347  0.5509 -0.0387  0.1509
  740MOL0     C 2028   3.923   6.835   7.520  0.1359  0.1807  0.5436
  740MOL0     C 2029   3.798   6.798   7.463  0.3898 -0.0649 -0.1146
  740MOL0     O 2030   3.571   6.567   7.464 -0.5710  0.0484 -0.7360
  740MOL0     C 2031   3.337   6.579   7.289 -0.6606 -0.8362  0.6190
  740MOL0     C 2032   3.242   6.531   7.198 -0.0192  0.2819  0.6236
  740MOL0     N 2033   2.621   6.385   6.991 -0.2463  0.6482 -0.0101
  740MOL0     N 2034   2.501   6.378   6.953  0.3342  0.1948 -0.0722
  740MOL0     C 2035   1.870   6.694   6.142 -1.0727  0.9311  0.2167
  740MOL0     C 2036   1.753   6.761   6.111  0.4159 -0.1523 -1.0166
  740MOL0     C 2037   1.431   6.984   5.882 -0.4640 -1.1050 -0.8144
  740MOL0     C 2038   1.390   6.962   5.751  0.8348  0.2330  0.4632
  740MOL0     C 2039   1.252   6.975   5.725  0.2240 -0.3540  0.0461
  740MOL0     C 2040   1.157   7.020   5.813 -0.1208  0.4797  1.2658
  740MOL0     O 2041   1.025   7.023   5.765  0.7089 -0.1054  0.3330
  740MOL0     C 2042   0.921   7.069   5.852 -1.1611  0.6315  0.8828
  740MOL0     C 2043   0.788   7.069   5.777 -0.8787 -1.2368  0.2177
  740MOL0     C 2044   0.736   6.930   5.730  0.1208 -0.1533 -0.5478
  740MOL0     C 2045   0.642   6.956   5.608 -0.1407  0.4008  0.0064
  740MOL0     C 2046   0.522   7.023   5.658 -0.0032  0.2421  1.3316
  740MOL0     C 2047   0.436   7.088   5.712 -0.6023  0.2107 -1.1337
  740MOL0     C 2048   1.198   7.053   5.940 -0.5681 -0.3761 -0.3838
  740MOL0     C 2049   1.333   7.032   5.977 -0.4441  0.2961  0.5577
  740MOL0     C 2050   1.372   7.064   6.123  0.8181  0.7886 -0.0608
  740MOL0     H 2051   1.876   7.035   5.964 -0.0791 -0.6536 -1.8975
  740MOL0     H 2052   2.083   6.942   6.028 -0.8571  1.4911  0.5270
  740MOL0     H 2053   2.223   6.858   6.222  1.4433  1.0545 -1.2458
  740MOL0     H 2054   2.255   6.783   6.062 -3.7775 -0.7252 -0.5821
  740MOL0     H 2055   2.350   6.597   6.166 -1.1025 -1.4553  1.2405
  740MOL0     H 2056   2.424   6.757   6.221 -1.7182  1.2977 -0.8264
  740MOL0     H 2057   2.242   6.716   6.427  1.1155  1.8309 -0.3690
  740MOL0     H 2058   2.272   6.557   6.376 -0.7920 -0.4463 -0.5748
  740MOL0     H 2059   2.513   6.570   6.419 -3.0997 -0.5598 -2.1481
  740MOL0     H 2060   2.512   6.748   6.419  2.2582 -0.9263 -0.6280
  740MOL0     H 2061   2.395   6.764   6.619  1.7175  0.7682 -0.9218
  740MOL0     H 2062   2.535   6.670   6.653 -0.7653 -1.6916  1.4765
  740MOL0     H 2063   2.349   6.577   6.765  1.3541 -0.5036 -0.5348
  740MOL0     H 2064   2.247   6.586   6.628 -0.5092 -0.4271 -0.6189
  740MOL0     H 2065   2.482   6.413   6.575  0.2850  2.7771 -0.0403
  740MOL0     H 2066   2.306   6.395   6.546 -1.6004  1.4543  1.0244
  740MOL0     H 2067   2.309   6.332   6.804  1.6360 -2.6420  1.5328
  740MOL0     H 2068   2.419   6.217   6.713  2.4056 -0.1032  1.0887
  740MOL0     H 2069   2.678   6.292   6.684  1.2186  2.9570 -0.6574
  740MOL0     H 2070   2.904   6.403   6.844  1.4093 -0.9369  0.7049
  740MOL0     H 2071   2.881   6.232   6.889  1.2018 -1.4338  4.3872
  740MOL0     H 2072   2.902   6.472   7.083  2.5005  0.0055  0.5049
  740MOL0     H 2073   2.813   6.333   7.130  1.7466 -2.8363  0.4349
  740MOL0     H 2074   3.054   6.314   7.208  3.3440  0.3580 -1.2568
  740MOL0     H 2075   2.997   6.181   7.109  0.9810  0.1976  0.1345
  740MOL0     H 2076   3.211   6.222   7.041  0.8390 -0.1198 -0.5920
  740MOL0     H 2077   3.101   6.260   6.914 -0.5981  0.7879  0.5229
  740MOL0     H 2078   3.422   6.379   6.966 -1.3378 -1.9136  1.3759
  740MOL0     H 2079   3.664   6.380   7.022 -1.0567  0.8739 -0.2253
  740MOL0     H 2080   3.700   6.402   7.198  0.6844  2.2363  0.9696
  740MOL0     H 2081   3.704   6.529   7.078 -0.2944 -0.4535  0.1357
  740MOL0     H 2082   3.908   6.640   7.186  1.5153  0.4617 -0.5486
  740MOL0     H 2083   4.126   6.690   7.285 -0.1895 -1.9308 -0.6319
  740MOL0     H 2084   4.135   7.025   7.470 -0.5188  0.6765  0.8835
  740MOL0     H 2085   4.129   6.973   7.640 -0.1880  0.3641 -0.7839
  740MOL0     H 2086   4.343   7.072   7.645 -1.0247 -0.3592 -0.4895
  740MOL0     H 2087   4.378   6.906   7.619  1.0506 -1.0436 -2.3615
  740MOL0     H 2088   4.389   7.112   7.398  1.3302  0.4755  0.9776
  740MOL0     H 2089   4.386   6.938   7.378 -0.8760 -1.4336  3.2218
  740MOL0     H 2090   4.582   6.916   7.517 -1.5943 -1.1501 -1.4419
  740MOL0     H 2091   4.563   7.073   7.593  2.8189  1.0410 -0.8684
  740MOL0     H 2092   4.655   7.017   7.308  3.0134  0.2273 -0.3023
  740MOL0     H 2093   4.617   7.180   7.369  1.8211  0.1711 -0.3342
  740MOL0     H 2094   4.821   6.989   7.497  0.7191  0.2476  0.3724
  740MOL0     H 2095   4.779   7.144   7.563 -0.5036  1.4120 -0.5078
  740MOL0     H 2096   4.871   7.248   7.341  0.2534  1.3702  2.9414
  740MOL0     H 2097   4.891   7.082   7.279 -1.4526  0.7923  0.0077
  740MOL0     H 2098   5.075   7.041   7.417  3.6636  1.6456 -1.3133
  740MOL0     H 2099   5.013   7.164   7.543  0.1127  1.7543 -0.6030
  740MOL0     H 2100   3.923   6.889   7.614  1.2267 -1.8025  1.7461
  740MOL0     H 2101   3.702   6.824   7.505 -0.1690  0.6966 -1.7860
  740MOL0     H 2102   3.302   6.618   7.384 -0.3636 -0.0653  0.4206
  740MOL0     H 2103   3.140   6.550   7.228  0.7833  2.8590  2.0464
  740MOL0     H 2104   1.856   6.599   6.194 -1.4369  0.7547 -0.1948
  740MOL0     H 2105   1.669   6.713   6.159  2.5749 -1.7049  1.5285
  740MOL0     H 2106   1.456   6.938   5.669  0.6381  6.1468 -1.9669
  740MOL0     H 2107   1.219   6.955   5.624 -1.4004  2.6707 -0.1609
  740MOL0     H 2108   0.904   6.990   5.925 -1.2330 -0.3708 -0.1913
  740MOL0     H 2109   0.947   7.166   5.896  0.9741 -0.3358  1.9442
  740MOL0     H 2110   0.809   7.138   5.695  1.1115 -1.6940  0.2783
  740MOL0     H 2111   0.708   7.105   5.843  0.6882  0.1217  1.4722
  740MOL0     H 2112   0.828   6.877   5.702  1.3285  0.3712  2.0605
  740MOL0     H 2113   0.690   6.870   5.810 -0.1941  1.9968  0.9787
  740MOL0     H 2114   0.612   6.859   5.567  2.9713  0.1552 -1.9977
  740MOL0     H 2115   0.689   7.010   5.526  1.7418  0.2474  0.9419
  740MOL0     H 2116   0.363   7.130   5.778  1.1065 -0.5002  1.3551
  740MOL0     H 2117   1.136   7.093   6.020  1.8151 -0.1197  1.4667
  740MOL0     H 2118   1.442   7.148   6.127  1.1378  0.4820  1.5238
  740MOL0     H 2119   1.286   7.080   6.189 -0.4243 -1.1463 -1.1120
  740MOL0     H 2120   1.412   6.972   6.167 -1.0900 -0.1026 -0.0697
  741MOL0     O 2121  10.718   7.056   6.576  0.0310 -0.2674 -0.2271
  741MOL0     C 2122  10.690   7.168   6.618  0.3423  0.2805  0.2912
  741MOL0     O 2123  10.784   7.270   6.633  0.3378 -0.3183  0.1447
  741MOL0     C 2124  10.909   7.231   6.610  0.3405  0.8330 -0.4355
  741MOL0     C 2125  10.976   7.254   6.489  0.7992  0.3863 -0.6132
  741MOL0     C 2126  11.107   7.207   6.462 -0.3875  0.0825 -0.0475
  741MOL0     C 2127  11.177   7.142   6.561  0.3335  0.2238 -0.8578
  741MOL0     O 2128  11.308   7.086   6.549  0.8866  0.5454 -0.0141
  741MOL0     C 2129  11.346   7.054   6.418  0.0630 -0.2105 -0.6887
  741MOL0     C 2130  11.440   7.169   6.381 -0.3518 -0.1514  0.4274
  741MOL0     C 2131  11.579   7.152   6.436 -0.6345  0.0768 -0.5458
  741MOL0     C 2132  11.659   7.283   6.449 -0.2116 -1.3003  0.0673
  741MOL0     C 2133  11.808   7.274   6.481 -0.7992  0.2932 -0.0476
  741MOL0     C 2134  11.833   7.212   6.624 -0.9219 -0.1621  0.2507
  741MOL0     C 2135  11.983   7.201   6.683  0.0914 -0.6463  0.2312
  741MOL0     C 2136  12.104   7.192   6.588 -0.6744  0.7250  0.1966
  741MOL0     N 2137  12.211   7.133   6.668  0.4307 -0.6362 -0.7948
  741MOL0     C 2138  12.214   7.001   6.693  0.0375 -0.5507  0.1349
  741MOL0     C 2139  12.340   6.988   6.748  0.5784  0.6724  0.1306
  741MOL0     C 2140  12.389   6.850   6.792 -0.6008 -0.5259  0.2188
  741MOL0     C 2141  12.537   6.858   6.841  0.1232  0.1242  0.0947
  741MOL0     C 2142  12.585   6.736   6.919 -0.5854 -0.4316 -0.0478
  741MOL0     C 2143  12.729   6.749   6.952 -0.3019 -0.3150 -0.5985
  741MOL0     O 2144  12.773   6.627   7.012  0.7239 -0.3684  0.1782
  741MOL0     C 2145  12.897   6.605   7.062 -0.3732  0.2867 -0.1248
  741MOL0     C 2146  13.002   6.693   7.045 -0.7001 -0.2024  0.4829
  741MOL0     C 2147  13.125   6.670   7.097  0.6472 -0.8016 -0.2824
  741MOL0     C 2148  13.217   6.783   7.075  0.3832 -0.0327  0.1017
  741MOL0     C 2149  13.151   6.546   7.165  0.2380 -0.1740  0.6920
  741MOL0     C 2150  13.282   6.514   7.226 -0.3429 -0.2122  0.2156
  741MOL0     O 2151  13.389   6.567   7.159 -0.3089  0.1384 -0.4167
  741MOL0     C 2152  13.510   6.575   7.234  0.1120 -0.7798  0.3691
  741MOL0     C 2153  13.510   6.627   7.361 -1.0404  0.3633 -0.2883
  741MOL0     C 2154  13.633   6.654   7.418  0.3343  0.3991  0.2843
  741MOL0     C 2155  13.757   6.604   7.361  0.2819 -0.6471  0.1301
  741MOL0     O 2156  13.869   6.623   7.439 -0.4515  0.4106 -0.0463
  741MOL0     C 2157  13.973   6.522   7.424 -0.6083  0.1849  0.6578
  741MOL0     C 2158  14.091   6.590   7.507  0.2659  0.7403  0.3147
  741MOL0     C 2159  14.218   6.505   7.512 -0.0104  0.4913  0.3794
  741MOL0     C 2160  14.327   6.591   7.573 -0.6001  0.8154 -0.0743
  741MOL0     C 2161  14.446   6.506   7.620 -0.3938  0.7774  0.1253
  741MOL0     C 2162  14.545   6.587   7.709  0.4937 -0.1706 -0.3994
  741MOL0     C 2163  14.634   6.491   7.790  0.2964  0.5175  0.3199
  741MOL0     C 2164  14.738   6.558   7.873 -0.7723 -0.6008 -0.1435
  741MOL0    Cl 2165  14.665   6.667   7.987 -0.0908  0.4428 -0.1411
  741MOL0     C 2166  13.751   6.548   7.235 -0.3682 -0.3401  0.5894
  741MOL0     C 2167  13.626   6.537   7.171  0.6410  0.4068 -0.2566
  741MOL0     O 2168  13.291   6.421   7.309 -0.0059  0.3348 -0.0167
  741MOL0     C 2169  13.045   6.452   7.175 -0.4304  0.5386  0.6909
  741MOL0     C 2170  12.922   6.481   7.123  0.1620 -0.4681  0.6985
  741MOL0     N 2171  12.406   7.108   6.747  0.1405  0.7434  0.4720
  741MOL0     N 2172  12.325   7.197   6.699 -1.1041 -0.9931  0.1398
  741MOL0     C 2173  11.116   7.136   6.695 -0.0975 -0.1749 -0.4010
  741MOL0     C 2174  10.980   7.176   6.715 -0.2075  0.5665 -1.3178
  741MOL0     C 2175  10.550   7.202   6.645  0.4271 -0.1323  0.1162
  741MOL0     C 2176  10.524   7.305   6.729  0.0380 -0.2958 -0.0078
  741MOL0     C 2177  10.392   7.333   6.775 -0.0454 -0.3537  0.3297
  741MOL0     C 2178  10.287   7.260   6.729 -0.2301 -0.1582  0.2858
  741MOL0     O 2179  10.157   7.293   6.760  0.5845  0.0764  0.3312
  741MOL0     C 2180  10.133   7.399   6.844 -0.4719 -0.3782  0.8029
  741MOL0     C 2181  10.158   7.351   6.989 -0.6328  0.6874 -1.2328
  741MOL0     C 2182  10.112   7.455   7.093  0.2459  0.4778  0.6285
  741MOL0     C 2183  10.214   7.567   7.102  0.5662  0.3771 -0.3875
  741MOL0     C 2184  10.334   7.529   7.181  0.5120  0.1502  0.5023
  741MOL0     C 2185  10.430   7.516   7.248 -0.6828  0.6749 -0.2491
  741MOL0     C 2186  10.315   7.162   6.634 -0.1571  0.0790  0.4277
  741MOL0     C 2187  10.446   7.126   6.589 -0.2491 -0.2844  0.0750
  741MOL0     C 2188  10.452   7.023   6.482 -0.4023  0.4294 -0.3614
  741MOL0     H 2189  10.917   7.296   6.408  4.5415  1.8064 -2.8353
  741MOL0     H 2190  11.139   7.212   6.359  0.7617 -1.0658  0.2232
  741MOL0     H 2191  11.266   7.044   6.345 -0.9024 -0.8649  0.4224
  741MOL0     H 2192  11.402   6.960   6.411  2.2750  0.9171  0.5784
  741MOL0     H 2193  11.445   7.172   6.271  0.0568 -0.6187  0.4281
  741MOL0     H 2194  11.387   7.260   6.410 -1.6684 -0.3922 -1.0632
  741MOL0     H 2195  11.582   7.089   6.526  1.7733 -2.2303 -2.0776
  741MOL0     H 2196  11.631   7.084   6.367 -0.1605 -2.2883  1.9267
  741MOL0     H 2197  11.657   7.320   6.346 -0.6988 -0.0424  0.5203
  741MOL0     H 2198  11.604   7.349   6.516 -0.8996 -2.0643  0.2750
  741MOL0     H 2199  11.859   7.371   6.483 -1.5105  0.8073 -2.8088
  741MOL0     H 2200  11.850   7.218   6.397 -2.4010 -1.9478  0.5774
  741MOL0     H 2201  11.779   7.268   6.702 -0.4823 -0.7069  0.9662
  741MOL0     H 2202  11.790   7.112   6.622  0.9828 -1.0609  1.2534
  741MOL0     H 2203  11.980   7.126   6.763  0.1762 -0.1831  0.6771
  741MOL0     H 2204  11.986   7.298   6.734 -2.1506 -1.2095  1.5353
  741MOL0     H 2205  12.097   7.120   6.506  1.3445  0.5020  0.1762
  741MOL0     H 2206  12.125   7.290   6.544  0.1712 -0.1521 -1.4628
  741MOL0     H 2207  12.141   6.923   6.677 -1.5924  1.0434 -0.4735
  741MOL0     H 2208  12.378   6.774   6.714  1.7398 -2.1178  1.2985
  741MOL0     H 2209  12.332   6.816   6.879 -0.6351  0.5556  0.6340
  741MOL0     H 2210  12.596   6.875   6.750  0.6845 -0.7361  0.2859
  741MOL0     H 2211  12.552   6.950   6.899  2.2986 -0.8340  1.1773
  741MOL0     H 2212  12.522   6.734   7.009  1.8514 -0.2037  1.7622
  741MOL0     H 2213  12.566   6.645   6.862 -3.1740  2.1453 -3.8544
  741MOL0     H 2214  12.781   6.767   6.858  2.9385 -2.1319  0.6949
  741MOL0     H 2215  12.754   6.833   7.019  0.7917 -0.2713 -1.0412
  741MOL0     H 2216  12.988   6.788   6.995  0.1766 -0.7680 -0.9129
  741MOL0     H 2217  13.162   6.877   7.066 -0.4602 -0.6273 -1.3129
  741MOL0     H 2218  13.260   6.769   6.975 -1.1947  1.5566 -0.8628
  741MOL0     H 2219  13.290   6.800   7.155  1.5741  2.0936 -1.3453
  741MOL0     H 2220  13.418   6.665   7.405 -0.7010  1.0751 -0.1726
  741MOL0     H 2221  13.635   6.704   7.514  2.7752 -0.5425  0.8122
  741MOL0     H 2222  13.943   6.426   7.466  2.3635  0.0005  2.7176
  741MOL0     H 2223  14.004   6.509   7.320  0.0833  0.2960  0.8424
  741MOL0     H 2224  14.118   6.681   7.452 -1.7326  0.4068 -1.3665
  741MOL0     H 2225  14.052   6.617   7.605 -3.7807 -1.2495 -0.5204
  741MOL0     H 2226  14.250   6.464   7.416  1.0913  2.1769 -0.0033
  741MOL0     H 2227  14.203   6.417   7.575 -1.0145  0.1001 -0.3684
  741MOL0     H 2228  14.278   6.636   7.661  0.5492  0.2994  0.8507
  741MOL0     H 2229  14.358   6.661   7.496 -1.7161  0.2173 -1.1029
  741MOL0     H 2230  14.409   6.418   7.673  2.3080 -0.1714  0.6174
  741MOL0     H 2231  14.502   6.477   7.530 -2.6316  0.6902 -1.3367
  741MOL0     H 2232  14.490   6.650   7.778  0.7489 -0.2345 -0.1362
  741MOL0     H 2233  14.603   6.651   7.641 -0.0435 -2.9351 -3.7357
  741MOL0     H 2234  14.688   6.421   7.726  0.8449  1.4284 -0.2434
  741MOL0     H 2235  14.574   6.430   7.857 -1.9324  0.8248 -1.2853
  741MOL0     H 2236  14.795   6.611   7.796 -0.1532 -1.7486 -0.5185
  741MOL0     H 2237  14.796   6.479   7.922  2.4830  2.5480  1.5801
  741MOL0     H 2238  13.846   6.523   7.189 -0.4079 -0.9133  0.8051
  741MOL0     H 2239  13.616   6.517   7.065  2.0222 -1.3376 -0.0887
  741MOL0     H 2240  13.068   6.356   7.220  0.7457 -0.2947 -1.5311
  741MOL0     H 2241  12.849   6.402   7.113 -1.4496  0.8849  1.3276
  741MOL0     H 2242  11.174   7.094   6.776  1.1986  2.0182 -0.1011
  741MOL0     H 2243  10.935   7.158   6.812 -0.7875 -0.8237 -1.8115
  741MOL0     H 2244  10.599   7.367   6.777 -1.1036 -0.1732  1.6969
  741MOL0     H 2245  10.387   7.408   6.853 -1.9885 -1.6487  1.5300
  741MOL0     H 2246  10.186   7.491   6.818  2.2667 -1.4445  2.2389
  741MOL0     H 2247  10.028   7.427   6.833 -0.3830 -0.0834  0.6895
  741MOL0     H 2248  10.262   7.322   7.005 -1.1599 -1.4212 -1.2285
  741MOL0     H 2249  10.101   7.258   7.002  1.4139 -0.3520  1.0855
  741MOL0     H 2250  10.016   7.496   7.062 -1.0920 -1.6962  1.6413
  741MOL0     H 2251  10.103   7.411   7.194 -0.1896 -3.3134 -0.8771
  741MOL0     H 2252  10.157   7.641   7.159  0.2832 -0.1748  0.0482
  741MOL0     H 2253  10.231   7.606   7.001 -3.6178  1.7827 -0.7333
  741MOL0     H 2254  10.513   7.495   7.312  0.2016  1.1799 -1.2091
  741MOL0     H 2255  10.219   7.122   6.603  0.6814 -1.4487 -0.2780
  741MOL0     H 2256  10.472   6.928   6.531 -6.2975 -2.3348 -2.4340
  741MOL0     H 2257  10.361   7.012   6.423 -0.5448 -4.7041  0.4309
  741MOL0     H 2258  10.534   7.048   6.413 -0.2308  2.1565  0.3937
  742MOL0     O 2259   5.599   0.104   9.637  0.3613 -0.0881 -0.2117
  742MOL0     C 2260   5.527   0.068   9.726  0.5028 -0.8351 -0.3430
  742MOL0     O 2261   5.558  -0.028   9.823 -0.4021 -0.3783 -0.3773
  742MOL0     C 2262   5.684  -0.080   9.837  0.4085  0.5682 -0.0986
  742MOL0     C 2263   5.694  -0.222   9.856 -0.4449 -0.0029  0.3991
  742MOL0     C 2264   5.817  -0.279   9.885 -0.0695 -0.4315  0.2138
  742MOL0     C 2265   5.926  -0.195   9.905  0.5394  0.1443  0.0325
  742MOL0     O 2266   6.044  -0.257   9.925 -0.0727 -0.3809 -0.7988
  742MOL0     C 2267   6.167  -0.198   9.892  0.9878 -0.6505  0.1925
  742MOL0     C 2268   6.277  -0.269   9.968 -0.3631  0.0451 -1.3561
  742MOL0     C 2269   6.413  -0.243   9.911  0.2702 -0.0690  0.5143
  742MOL0     C 2270   6.522  -0.294   9.996  0.1338  0.5090  0.9247
  742MOL0     C 2271   6.667  -0.271   9.931  0.1708  0.2371 -0.1182
  742MOL0     C 2272   6.763  -0.301  10.035  0.4916 -0.4801  0.4121
  742MOL0     C 2273   6.777  -0.445  10.066  0.6632 -0.0809 -0.7802
  742MOL0     C 2274   6.922  -0.479  10.102  0.7902 -0.1205  0.0267
  742MOL0     N 2275   6.964  -0.400  10.221  1.0064 -0.1558 -0.7828
  742MOL0     C 2276   7.030  -0.285  10.218 -0.5835 -0.0178 -0.5157
  742MOL0     C 2277   7.068  -0.260  10.342  0.3210  0.5864 -0.3186
  742MOL0     C 2278   7.143  -0.147  10.413 -0.0784  0.1882 -0.1465
  742MOL0     C 2279   7.256  -0.191  10.496  0.8224  0.2980 -0.8924
  742MOL0     C 2280   7.351  -0.288  10.426 -0.0005  0.3950 -0.2909
  742MOL0     C 2281   7.400  -0.245  10.291 -0.8227 -0.6437  0.1546
  742MOL0     O 2282   7.481  -0.117  10.308  0.4750  0.0608  0.4668
  742MOL0     C 2283   7.584  -0.102  10.222 -1.4295 -0.3747 -0.1171
  742MOL0     C 2284   7.693  -0.020  10.254 -0.4219  0.3185  0.1434
  742MOL0     C 2285   7.811  -0.012  10.180 -0.4852 -0.5013 -0.1359
  742MOL0     C 2286   7.915   0.092  10.222 -0.4709 -0.2225 -0.0864
  742MOL0     C 2287   7.832  -0.089  10.064 -0.1966  0.7292 -0.2008
  742MOL0     C 2288   7.955  -0.092   9.980 -0.9539 -0.3797  1.0346
  742MOL0     O 2289   7.942  -0.151   9.859  0.0610  0.0603  1.1442
  742MOL0     C 2290   8.048  -0.150   9.761  0.0588 -0.0411 -0.5689
  742MOL0     C 2291   8.014  -0.144   9.627  0.2886 -0.1234 -0.0778
  742MOL0     C 2292   8.112  -0.142   9.529  0.2499 -0.7727  0.5663
  742MOL0     C 2293   8.249  -0.151   9.558  0.2177  0.0162  0.1427
  742MOL0     O 2294   8.346  -0.146   9.460  0.9991  0.0224 -0.0462
  742MOL0     C 2295   8.435  -0.253   9.456  1.3586  0.1318  0.4577
  742MOL0     C 2296   8.562  -0.210   9.511  0.2114 -0.8275 -0.2549
  742MOL0     C 2297   8.646  -0.314   9.586  0.0676 -0.1481 -0.2025
  742MOL0     C 2298   8.789  -0.327   9.547  0.3336  0.0680 -0.0315
  742MOL0     C 2299   8.873  -0.419   9.644 -0.6172 -1.6586 -0.1988
  742MOL0     C 2300   8.904  -0.556   9.584 -0.7732  0.1799 -0.2604
  742MOL0     C 2301   8.776  -0.631   9.553 -0.0332  0.1500 -0.3470
  742MOL0     C 2302   8.802  -0.748   9.456 -0.2412  0.6220 -0.3139
  742MOL0    Cl 2303   8.876  -0.692   9.304 -0.1292  0.1573  0.4686
  742MOL0     C 2304   8.278  -0.157   9.701 -0.4123  0.6824 -0.3442
  742MOL0     C 2305   8.179  -0.174   9.795 -0.1603 -0.3127 -0.1598
  742MOL0     O 2306   8.059  -0.025  10.009 -0.5747 -0.2801 -0.3103
  742MOL0     C 2307   7.726  -0.175  10.032  0.4685 -0.4759  0.2663
  742MOL0     C 2308   7.606  -0.191  10.111 -0.4930 -0.6840  0.3532
  742MOL0     N 2309   7.013  -0.358  10.417  0.4433  0.1055  0.2981
  742MOL0     N 2310   6.949  -0.442  10.352 -0.1114 -0.1082  0.5739
  742MOL0     C 2311   5.918  -0.055   9.896  0.5180  0.6680  0.9543
  742MOL0     C 2312   5.798   0.002   9.863  0.0747  0.6556 -0.4469
  742MOL0     C 2313   5.385   0.108   9.721  0.5943  0.5338  0.8349
  742MOL0     C 2314   5.364   0.246   9.684  0.8541 -0.1676 -0.1300
  742MOL0     C 2315   5.238   0.301   9.673  0.3104 -0.1138 -0.6144
  742MOL0     C 2316   5.121   0.225   9.692 -1.0581 -0.4976  0.3534
  742MOL0     O 2317   4.995   0.285   9.674 -0.0854 -0.0682  0.1647
  742MOL0     C 2318   4.916   0.210   9.572 -0.3455  0.3007 -0.6752
  742MOL0     C 2319   4.928   0.285   9.438  0.2871 -0.0552  0.1101
  742MOL0     C 2320   4.863   0.421   9.433  0.3447  0.1914 -0.2745
  742MOL0     C 2321   4.913   0.532   9.526  0.6979 -0.6423 -0.1175
  742MOL0     C 2322   5.047   0.582   9.493 -0.4254  0.0436  0.4027
  742MOL0     C 2323   5.159   0.616   9.458  0.3822 -0.0693 -0.1062
  742MOL0     C 2324   5.150   0.087   9.728  0.1664 -0.1199 -0.2395
  742MOL0     C 2325   5.276   0.028   9.737  0.3397  0.0261  0.0659
  742MOL0     C 2326   5.285  -0.122   9.754  0.2625  0.3108  0.0816
  742MOL0     H 2327   5.613  -0.291   9.839  1.1491 -1.7127 -0.5645
  742MOL0     H 2328   5.830  -0.386   9.899 -0.0263 -0.1924  2.3020
  742MOL0     H 2329   6.168  -0.091   9.917  0.1106 -0.2834 -1.2340
  742MOL0     H 2330   6.186  -0.208   9.785 -0.0921  0.9085 -0.1812
  742MOL0     H 2331   6.258  -0.227  10.067  1.4156  0.8668 -1.3295
  742MOL0     H 2332   6.270  -0.378   9.966  0.3244 -0.3226  3.6387
  742MOL0     H 2333   6.422  -0.277   9.807 -0.7841 -1.0471  0.7185
  742MOL0     H 2334   6.423  -0.135   9.898  1.0496 -0.0822  1.0072
  742MOL0     H 2335   6.521  -0.252  10.097  2.5110 -1.0466  1.6864
  742MOL0     H 2336   6.506  -0.402   9.991  0.1097  0.5658 -0.7685
  742MOL0     H 2337   6.673  -0.164   9.908 -3.3721  0.1442 -2.3185
  742MOL0     H 2338   6.685  -0.329   9.840  2.0618 -1.6326  1.3449
  742MOL0     H 2339   6.862  -0.273   9.998  1.6396 -0.5949  3.1957
  742MOL0     H 2340   6.738  -0.245  10.126  0.9515 -0.5774  0.5988
  742MOL0     H 2341   6.733  -0.506   9.987  1.5287 -1.0896 -0.4990
  742MOL0     H 2342   6.723  -0.484  10.153  0.5192 -4.7596 -2.6730
  742MOL0     H 2343   6.928  -0.587  10.117 -0.5773 -0.4467 -1.5186
  742MOL0     H 2344   6.986  -0.445  10.020  1.5017 -3.9280 -1.2183
  742MOL0     H 2345   7.067  -0.219  10.140 -2.7746  0.8953 -0.8812
  742MOL0     H 2346   7.075  -0.097  10.483  0.4334  1.9500 -0.8546
  742MOL0     H 2347   7.176  -0.072  10.341  3.4706 -0.3368  0.7541
  742MOL0     H 2348   7.303  -0.101  10.535 -2.3166  1.5682  0.2842
  742MOL0     H 2349   7.199  -0.245  10.572 -3.5917  1.8338 -2.7678
  742MOL0     H 2350   7.435  -0.315  10.491 -0.6067 -0.9185 -0.0191
  742MOL0     H 2351   7.298  -0.383  10.418  1.1163 -0.4187  1.4127
  742MOL0     H 2352   7.459  -0.331  10.257 -0.9310 -0.8405  0.4590
  742MOL0     H 2353   7.322  -0.236  10.216  0.3278  0.2055 -0.9872
  742MOL0     H 2354   7.690   0.035  10.348  2.3210 -0.3402  0.6843
  742MOL0     H 2355   7.866   0.154  10.298  0.7006  0.5114  0.0973
  742MOL0     H 2356   7.955   0.150  10.138  2.4124  0.7598  1.7967
  742MOL0     H 2357   8.008   0.048  10.260 -0.0348  1.3222  0.7334
  742MOL0     H 2358   7.909  -0.143   9.600  0.1377  2.4008  0.4319
  742MOL0     H 2359   8.075  -0.158   9.429  2.0210 -1.3408 -0.0401
  742MOL0     H 2360   8.393  -0.346   9.495  1.4889 -0.2107 -0.1991
  742MOL0     H 2361   8.441  -0.267   9.348 -0.6389  3.6812 -0.2730
  742MOL0     H 2362   8.622  -0.173   9.427 -2.1259  2.3079 -0.7233
  742MOL0     H 2363   8.550  -0.116   9.566 -0.6887 -0.7218 -0.6204
  742MOL0     H 2364   8.594  -0.409   9.588  1.2253 -0.8003  0.3857
  742MOL0     H 2365   8.664  -0.286   9.691  3.2346 -0.1641 -0.6280
  742MOL0     H 2366   8.828  -0.225   9.543  0.1324  0.3713  3.4322
  742MOL0     H 2367   8.798  -0.356   9.442  3.1890  0.1712  0.0983
  742MOL0     H 2368   8.968  -0.368   9.664 -1.2250 -0.5216 -0.0768
  742MOL0     H 2369   8.822  -0.418   9.741 -3.2991 -1.7391 -1.5166
  742MOL0     H 2370   8.964  -0.617   9.652 -2.2143 -1.4422 -0.3649
  742MOL0     H 2371   8.964  -0.544   9.494 -0.4134 -1.6192 -0.3013
  742MOL0     H 2372   8.705  -0.560   9.510 -0.9973 -0.4783  0.1774
  742MOL0     H 2373   8.733  -0.675   9.643  2.6961 -1.0849  0.4473
  742MOL0     H 2374   8.713  -0.805   9.431  0.1887  0.7764 -2.4409
  742MOL0     H 2375   8.864  -0.817   9.513 -1.5468 -0.3072  0.0195
  742MOL0     H 2376   8.376  -0.178   9.741 -1.2972 -1.6168  0.8154
  742MOL0     H 2377   8.196  -0.175   9.902  0.2645  2.5113 -0.1306
  742MOL0     H 2378   7.739  -0.249   9.954  2.2989 -1.5280  1.5015
  742MOL0     H 2379   7.523  -0.256  10.083 -1.0187  0.1308 -0.0351
  742MOL0     H 2380   5.998   0.015   9.915  1.3328  0.4315 -1.2417
  742MOL0     H 2381   5.778   0.108   9.856 -3.8197  0.0811  0.1528
  742MOL0     H 2382   5.446   0.317   9.685  0.9003 -0.2211 -0.1176
  742MOL0     H 2383   5.212   0.405   9.658 -1.4778 -0.5310 -0.6169
  742MOL0     H 2384   4.965   0.114   9.553  1.7992  1.0025  0.9058
  742MOL0     H 2385   4.815   0.195   9.611  0.0902  1.0291  0.7896
  742MOL0     H 2386   4.879   0.225   9.361 -1.0559  2.1052 -0.7902
  742MOL0     H 2387   5.036   0.296   9.422  0.5588 -1.1260  1.0207
  742MOL0     H 2388   4.873   0.466   9.334 -0.1115  1.2139  0.1324
  742MOL0     H 2389   4.755   0.411   9.447  0.6083 -1.5243  0.7551
  742MOL0     H 2390   4.891   0.506   9.631 -2.7935 -0.6159 -0.7240
  742MOL0     H 2391   4.845   0.617   9.515  2.4829  1.0055  1.0197
  742MOL0     H 2392   5.257   0.639   9.421 -0.2223  1.7323 -0.6564
  742MOL0     H 2393   5.067   0.023   9.758 -0.2320 -0.1275 -1.3013
  742MOL0     H 2394   5.196  -0.183   9.736  0.8152 -0.4085 -0.2618
  742MOL0     H 2395   5.359  -0.164   9.686  0.4438 -0.8861  0.9876
  742MOL0     H 2396   5.318  -0.148   9.855  0.5164 -0.2372 -0.1418
  743MOL0     O 2397   0.186   3.609   6.212 -0.2548 -0.6021 -0.7849
  743MOL0     C 2398   0.127   3.547   6.294  0.0814  0.3851 -0.7822
  743MOL0     O 2399   0.178   3.514   6.415 -0.6736 -0.1955  0.0391
  743MOL0     C 2400   0.309   3.553   6.452 -0.0386 -0.5484 -0.1894
  743MOL0     C 2401   0.413   3.455   6.438  0.7154 -0.2981 -0.5048
  743MOL0     C 2402   0.535   3.472   6.506  0.6892 -0.0799 -0.6930
  743MOL0     C 2403   0.560   3.590   6.578  0.9758  0.1584  0.9425
  743MOL0     O 2404   0.677   3.612   6.636  0.9056  0.7774  0.0032
  743MOL0     C 2405   0.807   3.555   6.585 -0.1349  0.0093 -0.1805
  743MOL0     C 2406   0.929   3.638   6.625 -0.4662  0.2110 -0.1068
  743MOL0     C 2407   0.908   3.787   6.587 -0.1456  0.3001  0.2807
  743MOL0     C 2408   0.871   3.816   6.443  0.1050 -0.3845  0.0540
  743MOL0     C 2409   0.892   3.967   6.399 -0.3785 -0.0336 -0.4807
  743MOL0     C 2410   0.885   3.979   6.248  0.2521 -0.3551 -0.3353
  743MOL0     C 2411   0.958   4.105   6.203  0.3456  0.2298  0.4635
  743MOL0     C 2412   0.886   4.240   6.220  0.0670 -0.0170 -0.4096
  743MOL0     N 2413   0.960   4.354   6.175  0.1855 -0.4831 -1.0439
  743MOL0     C 2414   0.930   4.430   6.063 -0.8136  0.5182 -0.3627
  743MOL0     C 2415   1.020   4.528   6.081  0.3737 -0.0671 -0.2756
  743MOL0     C 2416   1.036   4.651   6.002  0.8569  0.0152 -0.4293
  743MOL0     C 2417   1.184   4.682   5.968  0.1233  0.5403  0.0946
  743MOL0     C 2418   1.189   4.803   5.876 -0.6217  0.2826 -0.2874
  743MOL0     C 2419   1.337   4.833   5.842  0.5089 -0.4955  0.1434
  743MOL0     O 2420   1.404   4.721   5.780 -0.5490  0.2310 -0.1584
  743MOL0     C 2421   1.534   4.745   5.741 -0.2957 -0.2490  0.3273
  743MOL0     C 2422   1.636   4.638   5.756 -0.3308 -0.1161  0.0739
  743MOL0     C 2423   1.770   4.657   5.736  0.2553  0.3420 -1.1150
  743MOL0     C 2424   1.848   4.545   5.802  0.4561 -0.0603  0.6948
  743MOL0     C 2425   1.817   4.783   5.701 -0.0628  0.1460  0.3809
  743MOL0     C 2426   1.967   4.792   5.664  0.2182 -0.7781 -1.2605
  743MOL0     O 2427   2.021   4.691   5.584 -0.2778  0.3716 -0.3997
  743MOL0     C 2428   2.137   4.730   5.512 -0.0130 -0.2189 -0.6831
  743MOL0     C 2429   2.122   4.825   5.412  0.2952 -0.5921  0.7076
  743MOL0     C 2430   2.237   4.865   5.337 -0.1591  0.6990 -0.6295
  743MOL0     C 2431   2.362   4.819   5.381  0.3527 -0.1027  0.0928
  743MOL0     O 2432   2.481   4.878   5.326  0.4023 -0.4017 -0.6923
  743MOL0     C 2433   2.483   4.882   5.184 -0.2107  0.2239 -0.2941
  743MOL0     C 2434   2.628   4.899   5.129  0.8689 -0.1367  0.0378
  743MOL0     C 2435   2.678   5.038   5.176  0.3409 -0.0677 -0.5514
  743MOL0     C 2436   2.831   5.034   5.166  0.8605  0.0641  0.3705
  743MOL0     C 2437   2.893   5.164   5.213 -0.7428  0.4375  0.8813
  743MOL0     C 2438   3.051   5.166   5.178 -0.5153 -0.3675 -0.1053
  743MOL0     C 2439   3.123   5.294   5.211 -0.4395 -0.6352 -0.0920
  743MOL0     C 2440   3.278   5.270   5.220  0.1856  0.2584  0.1585
  743MOL0    Cl 2441   3.358   5.410   5.306 -0.2023 -0.3403 -0.0101
  743MOL0     C 2442   2.382   4.732   5.485 -0.2940  0.4748  0.0209
  743MOL0     C 2443   2.263   4.674   5.540 -0.8587 -0.0989 -0.4783
  743MOL0     O 2444   2.021   4.897   5.686  0.0360 -0.8933  0.4101
  743MOL0     C 2445   1.721   4.884   5.677  0.1187  0.2394 -0.0842
  743MOL0     C 2446   1.587   4.872   5.701 -0.0166 -0.1271 -0.8817
  743MOL0     N 2447   1.114   4.505   6.183  0.3476  0.1420 -0.1511
  743MOL0     N 2448   1.067   4.401   6.243 -0.3073  0.5931 -0.3354
  743MOL0     C 2449   0.454   3.686   6.598  0.0903  0.0023  0.4104
  743MOL0     C 2450   0.333   3.671   6.528  0.4497 -0.3197 -0.2542
  743MOL0     C 2451  -0.016   3.510   6.258  0.1799  0.6487 -0.3483
  743MOL0     C 2452  -0.060   3.522   6.128 -0.0636 -0.1705  0.1335
  743MOL0     C 2453  -0.196   3.503   6.090 -0.6194  0.8056 -0.2891
  743MOL0     C 2454  -0.296   3.499   6.187  0.3577 -0.1368 -0.3882
  743MOL0     O 2455  -0.430   3.480   6.152 -0.2201  0.0628  0.2420
  743MOL0     C 2456  -0.526   3.503   6.263  0.1116  0.0578  0.2210
  743MOL0     C 2457  -0.660   3.547   6.204  0.2760 -0.4387  0.4133
  743MOL0     C 2458  -0.755   3.572   6.320 -0.5926  0.0381  0.2153
  743MOL0     C 2459  -0.890   3.623   6.281 -0.1033 -0.5555 -0.5227
  743MOL0     C 2460  -0.948   3.488   6.253  0.4603 -0.7909  1.2481
  743MOL0     C 2461  -0.977   3.369   6.239 -0.3888  0.4486  0.2455
  743MOL0     C 2462  -0.254   3.475   6.314 -0.3456 -0.1535 -0.1787
  743MOL0     C 2463  -0.124   3.486   6.345 -0.2101  0.6386 -0.0969
  743MOL0     C 2464  -0.084   3.448   6.485 -0.8278 -0.1301  0.3300
  743MOL0     H 2465   0.394   3.361   6.387 -1.5885  0.3109 -0.8782
  743MOL0     H 2466   0.615   3.399   6.503  0.1811 -0.6391 -0.7610
  743MOL0     H 2467   0.805   3.550   6.476  3.9555  1.7402 -0.4942
  743MOL0     H 2468   0.826   3.453   6.620  0.1926 -0.2029 -0.9633
  743MOL0     H 2469   0.947   3.626   6.732 -0.0324 -2.2571 -0.4147
  743MOL0     H 2470   1.021   3.603   6.579 -1.1872 -0.3604 -1.1535
  743MOL0     H 2471   0.827   3.830   6.646 -0.2062  1.2093 -0.4306
  743MOL0     H 2472   1.001   3.835   6.621  0.9914 -1.2706 -0.4898
  743MOL0     H 2473   0.941   3.758   6.382  1.0371  0.9609 -0.2118
  743MOL0     H 2474   0.768   3.793   6.418 -0.2861  0.1733  1.1003
  743MOL0     H 2475   0.993   3.991   6.433 -0.8087  1.1108  0.0483
  743MOL0     H 2476   0.826   4.038   6.450  2.3747  1.4918  1.1814
  743MOL0     H 2477   0.943   3.903   6.195  4.0907  1.7947  0.3798
  743MOL0     H 2478   0.784   3.979   6.205  0.7438 -1.1825 -1.5485
  743MOL0     H 2479   0.976   4.089   6.097 -0.8416  2.1884 -0.0728
  743MOL0     H 2480   1.057   4.111   6.248  2.6487 -0.1710 -4.0159
  743MOL0     H 2481   0.786   4.246   6.175 -0.0676  1.8798  0.0707
  743MOL0     H 2482   0.868   4.252   6.327  2.7328 -1.4257  0.2815
  743MOL0     H 2483   0.849   4.426   5.991  0.1682 -1.6818 -1.4404
  743MOL0     H 2484   0.985   4.723   6.067  1.1196  0.7336 -1.0131
  743MOL0     H 2485   0.981   4.653   5.908  1.9763  0.2088 -1.0880
  743MOL0     H 2486   1.239   4.698   6.061  0.7956 -0.9708 -0.0069
  743MOL0     H 2487   1.232   4.601   5.912 -0.9090 -0.0897  0.1155
  743MOL0     H 2488   1.133   4.784   5.784 -0.9907  1.5413 -0.3498
  743MOL0     H 2489   1.137   4.887   5.923 -1.7294  0.0355 -1.0204
  743MOL0     H 2490   1.333   4.922   5.778  2.1737 -1.2026 -0.9935
  743MOL0     H 2491   1.380   4.864   5.937 -3.1237 -1.3135  2.2626
  743MOL0     H 2492   1.600   4.545   5.799  0.5568  0.3497  1.9584
  743MOL0     H 2493   1.783   4.484   5.866 -4.6044 -0.0582 -3.7256
  743MOL0     H 2494   1.931   4.593   5.855  0.2253  0.5712  0.4960
  743MOL0     H 2495   1.876   4.472   5.725 -0.8697 -1.7113  1.7040
  743MOL0     H 2496   2.035   4.883   5.381 -0.0375  0.5188  3.4984
  743MOL0     H 2497   2.223   4.942   5.262 -0.1028 -1.7116 -3.2782
  743MOL0     H 2498   2.444   4.788   5.146  0.2004 -0.2503  0.4362
  743MOL0     H 2499   2.418   4.964   5.151  0.4271  1.2221  0.8310
  743MOL0     H 2500   2.699   4.819   5.154  1.8923  1.2817  1.9839
  743MOL0     H 2501   2.621   4.909   5.020 -0.4188  0.7591  0.1871
  743MOL0     H 2502   2.654   5.045   5.282 -0.6837  0.0445 -0.7850
  743MOL0     H 2503   2.621   5.115   5.123 -2.5134  0.2147  2.6031
  743MOL0     H 2504   2.848   5.011   5.061 -1.6058 -0.4795  0.0092
  743MOL0     H 2505   2.875   4.949   5.217  0.6091 -0.5842 -0.4749
  743MOL0     H 2506   2.844   5.248   5.164  1.7323  2.5429  1.8022
  743MOL0     H 2507   2.871   5.188   5.317 -2.6054 -0.5338  0.7636
  743MOL0     H 2508   3.062   5.144   5.072  2.5770 -0.5069  0.1605
  743MOL0     H 2509   3.102   5.085   5.231 -0.8881 -0.8760 -0.5207
  743MOL0     H 2510   3.096   5.338   5.308  0.7617 -0.3919  0.1562
  743MOL0     H 2511   3.106   5.359   5.125 -1.6028 -0.2881  0.3768
  743MOL0     H 2512   3.318   5.257   5.119 -2.0347  1.3019 -0.9463
  743MOL0     H 2513   3.291   5.175   5.271 -0.3141  0.3231  0.4193
  743MOL0     H 2514   2.484   4.708   5.512 -0.5461 -0.7082 -0.0077
  743MOL0     H 2515   2.263   4.610   5.627 -0.4547  1.1309  0.4490
  743MOL0     H 2516   1.762   4.979   5.646  0.1085 -0.2049 -1.5108
  743MOL0     H 2517   1.532   4.965   5.709 -0.3738 -0.4619  3.7383
  743MOL0     H 2518   0.464   3.777   6.657  1.5420  0.0322  0.1531
  743MOL0     H 2519   0.262   3.750   6.548 -2.2373 -2.6354 -0.0634
  743MOL0     H 2520   0.012   3.528   6.047 -0.5688 -1.4403 -0.4306
  743MOL0     H 2521  -0.229   3.505   5.987 -0.1048 -0.1813 -0.4861
  743MOL0     H 2522  -0.547   3.406   6.309  2.5906  0.2590  1.9375
  743MOL0     H 2523  -0.494   3.584   6.330 -1.3334 -0.9040  2.1944
  743MOL0     H 2524  -0.689   3.464   6.139  1.7291 -0.5093 -0.1889
  743MOL0     H 2525  -0.652   3.637   6.143  0.4613 -0.5166  0.3234
  743MOL0     H 2526  -0.755   3.475   6.372 -2.3447 -1.0201 -1.6188
  743MOL0     H 2527  -0.717   3.653   6.383 -1.4623  1.7726 -1.3944
  743MOL0     H 2528  -0.889   3.681   6.188  0.5268 -0.2956 -0.3631
  743MOL0     H 2529  -0.947   3.684   6.352  1.0996 -0.5901  0.5010
  743MOL0     H 2530  -1.001   3.265   6.243  5.1269 -1.1133  1.0909
  743MOL0     H 2531  -0.327   3.438   6.385  0.8543 -1.8830  0.1947
  743MOL0     H 2532  -0.034   3.535   6.528  1.7041  0.1723 -2.8333
  743MOL0     H 2533  -0.164   3.419   6.554 -2.4958 -0.1340 -1.5277
  743MOL0     H 2534  -0.007   3.370   6.491  0.0324  0.7048  0.3166
  744MOL0     O 2535   4.440   5.955   9.575 -0.0364  0.6085 -0.1482
  744MOL0     C 2536   4.378   5.922   9.676 -0.9933  0.4290  0.0329
  744MOL0     O 2537   4.426   5.929   9.807  0.4851 -0.4169  0.6313
  744MOL0     C 2538   4.554   5.943   9.842  0.0546  0.3606 -0.7079
  744MOL0     C 2539   4.564   5.984   9.969 -0.3578 -0.9599 -0.1441
  744MOL0     C 2540   4.687   6.021  10.026  0.5238 -0.3090 -0.3670
  744MOL0     C 2541   4.808   6.019   9.953  0.5944  0.4293  0.4768
  744MOL0     O 2542   4.930   6.072   9.984  0.5616  0.2464 -0.7742
  744MOL0     C 2543   4.930   6.203  10.041  1.0860  0.0033 -0.0447
  744MOL0     C 2544   5.055   6.217  10.123 -0.9113 -0.3794 -0.0616
  744MOL0     C 2545   5.180   6.236  10.029  0.7011 -0.8778  0.0713
  744MOL0     C 2546   5.280   6.340  10.087 -0.6442 -0.4173 -1.4945
  744MOL0     C 2547   5.412   6.354  10.001  1.7505 -0.1243 -0.4864
  744MOL0     C 2548   5.514   6.452  10.058 -0.1054  0.2580 -0.9706
  744MOL0     C 2549   5.611   6.496   9.952 -0.8672  0.7218  0.1495
  744MOL0     C 2550   5.724   6.588   9.990 -0.5693 -0.3902  0.3985
  744MOL0     N 2551   5.824   6.598   9.887  0.0865 -0.2787  0.1947
  744MOL0     C 2552   5.912   6.494   9.844 -0.0454  0.1555  0.3876
  744MOL0     C 2553   6.013   6.561   9.778  0.1603  1.2374  0.3966
  744MOL0     C 2554   6.124   6.488   9.706  0.6006 -0.8581 -0.3215
  744MOL0     C 2555   6.257   6.510   9.783  0.4425 -0.2531  0.5451
  744MOL0     C 2556   6.363   6.461   9.691  0.5138  0.5250  0.2222
  744MOL0     C 2557   6.509   6.468   9.739 -0.1576  0.0273 -0.2150
  744MOL0     O 2558   6.557   6.597   9.709  0.4606  0.7240  0.7245
  744MOL0     C 2559   6.690   6.626   9.707  0.6459  0.9918 -0.4308
  744MOL0     C 2560   6.735   6.734   9.624 -0.9133 -0.3812 -0.4465
  744MOL0     C 2561   6.862   6.774   9.606 -0.0304 -0.5214  0.0889
  744MOL0     C 2562   6.890   6.892   9.513  0.0816  0.2104 -0.7761
  744MOL0     C 2563   6.959   6.710   9.683  0.1565 -0.2419  0.3239
  744MOL0     C 2564   7.100   6.758   9.690  0.5662 -0.5173 -0.0444
  744MOL0     O 2565   7.177   6.678   9.776  0.5446  0.3723 -0.0389
  744MOL0     C 2566   7.306   6.711   9.814 -0.9465  0.4843  0.0999
  744MOL0     C 2567   7.357   6.840   9.826 -0.1858 -0.1071  0.6357
  744MOL0     C 2568   7.484   6.868   9.874 -0.1279  1.6020 -0.0655
  744MOL0     C 2569   7.563   6.755   9.898  0.1567 -0.0771 -0.0202
  744MOL0     O 2570   7.690   6.774   9.938  0.8219  0.0603 -0.1040
  744MOL0     C 2571   7.785   6.688   9.865 -0.3274  0.0751  0.1116
  744MOL0     C 2572   7.922   6.765   9.863 -0.5923 -0.5245  0.0314
  744MOL0     C 2573   8.041   6.669   9.824  0.0905  0.4853 -0.6100
  744MOL0     C 2574   8.062   6.663   9.680  0.4645 -0.2285  0.8067
  744MOL0     C 2575   8.183   6.583   9.645  0.1241 -0.8562  0.3194
  744MOL0     C 2576   8.320   6.652   9.659 -0.7589 -0.1290 -0.9767
  744MOL0     C 2577   8.345   6.798   9.609  0.1508 -0.0046  0.2951
  744MOL0     C 2578   8.359   6.822   9.456 -0.2301 -0.2207  0.6080
  744MOL0    Cl 2579   8.511   6.735   9.413 -0.3146  0.1143  0.1761
  744MOL0     C 2580   7.515   6.617   9.874  0.0529  0.2470  0.1959
  744MOL0     C 2581   7.386   6.600   9.826 -0.6214 -0.6653  0.4433
  744MOL0     O 2582   7.146   6.849   9.619 -0.3816 -0.5164  0.3335
  744MOL0     C 2583   6.917   6.597   9.758 -0.1938  0.6991 -0.2432
  744MOL0     C 2584   6.786   6.545   9.763 -0.6082 -0.3824  0.1496
  744MOL0     N 2585   5.989   6.699   9.773  0.5820 -0.2376  0.2770
  744MOL0     N 2586   5.879   6.714   9.843  0.4540 -0.0865  0.1516
  744MOL0     C 2587   4.799   5.972   9.825  0.5698  0.3112  0.4332
  744MOL0     C 2588   4.669   5.936   9.772 -0.5553  0.2932  0.6373
  744MOL0     C 2589   4.241   5.891   9.663  0.2834 -0.2378  0.1315
  744MOL0     C 2590   4.185   5.822   9.768 -0.1550  0.9450  0.1610
  744MOL0     C 2591   4.053   5.779   9.767  0.0062 -0.0447  0.0742
  744MOL0     C 2592   3.966   5.801   9.657  0.7154 -0.1242  0.0049
  744MOL0     O 2593   3.834   5.746   9.654 -0.8057  0.0209  0.0848
  744MOL0     C 2594   3.774   5.707   9.781 -0.2108 -0.2993  0.3185
  744MOL0     C 2595   3.624   5.674   9.744  0.3541  0.1714 -0.7846
  744MOL0     C 2596   3.553   5.622   9.878 -0.0967 -0.4611 -0.5774
  744MOL0     C 2597   3.413   5.561   9.860  0.8185  0.1306 -0.1630
  744MOL0     C 2598   3.304   5.648   9.818 -0.5649  0.3273 -0.6844
  744MOL0     C 2599   3.213   5.720   9.773 -0.3290  0.0402 -0.2252
  744MOL0     C 2600   4.022   5.869   9.552 -0.4558 -1.1415  0.4657
  744MOL0     C 2601   4.153   5.923   9.554 -0.4240 -0.3795  0.4026
  744MOL0     C 2602   4.189   5.997   9.426  0.6514 -0.5653 -0.4288
  744MOL0     H 2603   4.477   5.983  10.034 -0.3636  0.5899 -0.0894
  744MOL0     H 2604   4.698   6.048  10.130 -0.3498 -1.2580 -0.0101
  744MOL0     H 2605   4.849   6.206  10.114 -0.9361 -0.3633 -2.1367
  744MOL0     H 2606   4.927   6.279   9.962  1.2887 -0.9840 -1.0286
  744MOL0     H 2607   5.037   6.309  10.181 -2.3683  0.3610 -1.6110
  744MOL0     H 2608   5.062   6.133  10.193 -0.3610 -1.5986 -1.5361
  744MOL0     H 2609   5.243   6.147  10.015  2.3116 -0.0024  1.3914
  744MOL0     H 2610   5.151   6.286   9.937  0.6077 -0.5309  0.2895
  744MOL0     H 2611   5.248   6.445  10.086 -0.1649 -0.1943  0.9742
  744MOL0     H 2612   5.305   6.300  10.186 -1.4011 -0.6077 -1.3727
  744MOL0     H 2613   5.385   6.399   9.905  1.4544  1.7331  0.4115
  744MOL0     H 2614   5.453   6.254   9.985  0.8766 -0.4330 -0.8583
  744MOL0     H 2615   5.466   6.543  10.095 -0.9646 -0.3800 -0.4615
  744MOL0     H 2616   5.566   6.398  10.138 -0.0056  1.3107 -0.3087
  744MOL0     H 2617   5.547   6.546   9.878 -0.9779 -2.0059 -1.7636
  744MOL0     H 2618   5.654   6.404   9.910 -1.7187  0.6167 -0.5404
  744MOL0     H 2619   5.685   6.688  10.010 -0.3087 -0.0544 -0.7185
  744MOL0     H 2620   5.764   6.553  10.085  0.1208  0.0344  0.2664
  744MOL0     H 2621   5.903   6.387   9.862  0.3242  0.0039 -0.2827
  744MOL0     H 2622   6.136   6.532   9.606  0.4894 -2.0023 -0.8499
  744MOL0     H 2623   6.095   6.383   9.710 -1.3289 -0.3500  3.6301
  744MOL0     H 2624   6.255   6.619   9.798 -2.5461  0.2508 -2.3606
  744MOL0     H 2625   6.262   6.462   9.881  2.4137 -1.6046 -0.1525
  744MOL0     H 2626   6.348   6.362   9.647  1.6267  1.4789 -2.5087
  744MOL0     H 2627   6.350   6.519   9.599  0.0196 -0.8926 -0.6318
  744MOL0     H 2628   6.517   6.449   9.847  1.5418 -1.2219 -0.5356
  744MOL0     H 2629   6.560   6.387   9.687  0.0832  0.9379 -1.4401
  744MOL0     H 2630   6.667   6.793   9.563  0.0776  2.1370  0.7325
  744MOL0     H 2631   6.965   6.864   9.438  0.7283  1.6613 -0.7060
  744MOL0     H 2632   6.900   6.985   9.569 -3.7403  0.0484  0.4405
  744MOL0     H 2633   6.810   6.923   9.446 -0.1606 -0.8060 -0.9746
  744MOL0     H 2634   7.295   6.920   9.788 -0.2154 -1.3023 -2.0732
  744MOL0     H 2635   7.510   6.973   9.875  0.8530  1.4064  2.5408
  744MOL0     H 2636   7.797   6.594   9.920 -0.0783  0.2652  0.3863
  744MOL0     H 2637   7.760   6.667   9.761 -0.2697 -0.5532  0.2244
  744MOL0     H 2638   7.932   6.849   9.794  3.2701 -1.1442 -0.4046
  744MOL0     H 2639   7.942   6.811   9.960 -1.1548  0.6681 -0.3999
  744MOL0     H 2640   8.002   6.571   9.853 -1.2957  1.7539  2.1573
  744MOL0     H 2641   8.125   6.710   9.881 -1.1074 -0.6815  2.2026
  744MOL0     H 2642   8.068   6.765   9.642  0.1087 -0.8863 -1.1715
  744MOL0     H 2643   7.973   6.630   9.626 -0.8855  2.3997  1.2754
  744MOL0     H 2644   8.177   6.492   9.705  0.6069 -0.7220  0.5778
  744MOL0     H 2645   8.173   6.547   9.542  0.7689 -4.0156  1.2699
  744MOL0     H 2646   8.399   6.590   9.615  1.8884  1.9072  0.5863
  744MOL0     H 2647   8.336   6.653   9.768 -2.0282  0.5216 -0.7790
  744MOL0     H 2648   8.434   6.832   9.662 -0.2257 -1.3613  1.8981
  744MOL0     H 2649   8.264   6.863   9.644 -0.8609 -0.8332 -0.4266
  744MOL0     H 2650   8.368   6.930   9.441 -0.1060 -0.0610  1.7509
  744MOL0     H 2651   8.271   6.773   9.412  0.7459 -2.4083  0.9664
  744MOL0     H 2652   7.584   6.533   9.880 -0.4815 -0.3327 -1.3535
  744MOL0     H 2653   7.347   6.499   9.815  2.2182 -1.9505  1.2421
  744MOL0     H 2654   6.993   6.544   9.814  0.8119  0.2931 -1.9286
  744MOL0     H 2655   6.768   6.448   9.808  1.4523 -0.8259  0.0982
  744MOL0     H 2656   4.884   5.987   9.760  0.7998  2.2178  1.1151
  744MOL0     H 2657   4.667   5.920   9.665  3.1982  1.9361  0.1546
  744MOL0     H 2658   4.241   5.781   9.851 -1.1946  0.6282  0.7293
  744MOL0     H 2659   4.019   5.733   9.859  0.8616  1.2831  1.1013
  744MOL0     H 2660   3.831   5.620   9.816  1.2990 -1.5526 -4.4898
  744MOL0     H 2661   3.784   5.787   9.855  0.7907 -0.2932  0.1929
  744MOL0     H 2662   3.634   5.606   9.659  1.0796 -1.2591  0.3793
  744MOL0     H 2663   3.577   5.763   9.704 -0.1018 -0.5762 -1.9529
  744MOL0     H 2664   3.605   5.549   9.940  1.3502  3.5112  3.3728
  744MOL0     H 2665   3.544   5.709   9.944 -0.0778 -0.1015 -1.0424
  744MOL0     H 2666   3.392   5.528   9.962  3.5556  3.5578  1.7233
  744MOL0     H 2667   3.419   5.472   9.797 -0.2038  2.1895 -3.4000
  744MOL0     H 2668   3.139   5.783   9.728  0.6933  1.4522 -0.0115
  744MOL0     H 2669   3.953   5.900   9.474  0.1073  0.9112  0.7208
  744MOL0     H 2670   4.226   6.098   9.448 -0.6256 -0.5737  2.1255
  744MOL0     H 2671   4.268   5.942   9.375  0.4605  0.0145 -1.3877
  744MOL0     H 2672   4.104   6.003   9.357 -0.6754 -1.5406  1.0478
  745MOL0     O 2673   8.111   3.743   3.099  0.2364 -0.1283  0.0903
  745MOL0     C 2674   8.114   3.687   2.988 -0.7267 -0.4431 -0.1499
  745MOL0     O 2675   8.228   3.644   2.925 -0.1548 -0.4870 -0.0241
  745MOL0     C 2676   8.338   3.652   2.996 -0.3656  0.2660 -0.2272
  745MOL0     C 2677   8.376   3.571   3.103  0.1241 -0.5260  0.3184
  745MOL0     C 2678   8.502   3.580   3.169 -0.5394 -0.4025  0.1316
  745MOL0     C 2679   8.598   3.665   3.117  0.0099  0.1485  0.5871
  745MOL0     O 2680   8.733   3.659   3.145  0.0007 -0.0512 -0.0745
  745MOL0     C 2681   8.770   3.604   3.275  0.2049 -0.8321  0.1326
  745MOL0     C 2682   8.919   3.619   3.308  0.4865 -0.5577 -0.5693
  745MOL0     C 2683   8.993   3.513   3.226  0.2971 -0.1466 -0.5598
  745MOL0     C 2684   9.140   3.552   3.216  0.3915  0.5553 -0.4616
  745MOL0     C 2685   9.218   3.464   3.117 -0.4015  0.3103 -0.3508
  745MOL0     C 2686   9.361   3.510   3.105  0.2595 -0.3103  0.2178
  745MOL0     C 2687   9.453   3.438   2.997 -0.2407 -0.6408 -0.2361
  745MOL0     C 2688   9.593   3.444   3.053  1.4871 -0.0912  0.3684
  745MOL0     N 2689   9.679   3.420   2.940  0.0434  0.4319  0.2547
  745MOL0     C 2690   9.804   3.462   2.936 -0.0714 -0.9982 -0.2253
  745MOL0     C 2691   9.865   3.389   2.843 -0.7209 -0.1052  0.1982
  745MOL0     C 2692  10.012   3.365   2.813  0.5341  0.2840  0.4571
  745MOL0     C 2693  10.099   3.495   2.818  1.1312 -0.0343  0.0860
  745MOL0     C 2694  10.243   3.470   2.758 -0.0152  1.2928 -0.5362
  745MOL0     C 2695  10.310   3.597   2.708  0.4785 -0.2697  0.2390
  745MOL0     O 2696  10.445   3.552   2.672  0.4781  0.5394 -0.1732
  745MOL0     C 2697  10.565   3.586   2.728 -0.4970 -0.5424 -1.8138
  745MOL0     C 2698  10.675   3.510   2.706 -0.7978 -0.5827 -0.1249
  745MOL0     C 2699  10.797   3.541   2.761 -0.1726 -0.0310  0.9303
  745MOL0     C 2700  10.913   3.449   2.721  0.4332 -0.1610  0.2091
  745MOL0     C 2701  10.820   3.664   2.838  0.4063  1.0344  1.1224
  745MOL0     C 2702  10.954   3.708   2.880  0.3293  0.1712  0.1951
  745MOL0     O 2703  10.951   3.774   3.001  0.2123 -0.1071  0.3748
  745MOL0     C 2704  11.060   3.838   3.058  0.1167  0.0616  0.3213
  745MOL0     C 2705  11.121   3.949   2.992  0.1956 -0.3388  0.5042
  745MOL0     C 2706  11.239   4.016   3.030 -0.3623 -0.1631 -0.1820
  745MOL0     C 2707  11.299   3.982   3.147 -0.3760  0.4201  0.2787
  745MOL0     O 2708  11.416   4.048   3.179  0.2780  0.0544  0.1004
  745MOL0     C 2709  11.481   4.037   3.309 -0.1737 -0.0167  0.1868
  745MOL0     C 2710  11.432   4.150   3.405  0.4069 -0.2962 -0.2288
  745MOL0     C 2711  11.472   4.292   3.373  0.1343 -0.5093  0.0902
  745MOL0     C 2712  11.629   4.305   3.362  0.4279 -0.6532  0.0693
  745MOL0     C 2713  11.649   4.457   3.329  0.1227  0.4521  0.2086
  745MOL0     C 2714  11.803   4.484   3.313 -0.2680  0.1844  0.1107
  745MOL0     C 2715  11.815   4.631   3.268  0.2338  0.3121  0.3288
  745MOL0     C 2716  11.961   4.684   3.278  0.4538 -0.2279  0.3744
  745MOL0    Cl 2717  12.009   4.697   3.445  0.2091 -0.1946 -0.1176
  745MOL0     C 2718  11.245   3.871   3.221  0.1252 -0.4995  0.0324
  745MOL0     C 2719  11.123   3.807   3.177  0.8373 -0.2079 -0.2707
  745MOL0     O 2720  11.056   3.689   2.815 -0.8594 -0.2793 -0.0281
  745MOL0     C 2721  10.699   3.750   2.855 -0.4899  0.3686  0.4389
  745MOL0     C 2722  10.580   3.699   2.812 -0.0346  0.1072 -0.1413
  745MOL0     N 2723   9.769   3.300   2.797 -0.0724  0.4835 -0.0934
  745MOL0     N 2724   9.663   3.310   2.864  0.1679  1.1482  0.2986
  745MOL0     C 2725   8.565   3.752   3.004  0.5158  0.0787 -0.0174
  745MOL0     C 2726   8.438   3.739   2.952  0.9481  0.7739 -0.0300
  745MOL0     C 2727   7.997   3.647   2.919  0.6907  0.0506  0.7578
  745MOL0     C 2728   8.001   3.653   2.782 -0.5090  0.1985  0.6007
  745MOL0     C 2729   7.895   3.622   2.702 -0.5765  0.4960 -0.0907
  745MOL0     C 2730   7.768   3.589   2.744 -0.6886 -0.2077  0.0737
  745MOL0     O 2731   7.665   3.558   2.656 -0.3088 -0.0844 -0.0972
  745MOL0     C 2732   7.543   3.506   2.712 -0.4707  0.3617 -0.3509
  745MOL0     C 2733   7.434   3.493   2.595 -0.2027 -0.5707  0.0559
  745MOL0     C 2734   7.296   3.447   2.632  0.3732  0.2329  0.0611
  745MOL0     C 2735   7.184   3.467   2.515 -0.4616 -0.2053 -0.0460
  745MOL0     C 2736   7.084   3.363   2.526  0.1333  0.8246 -0.2511
  745MOL0     C 2737   7.002   3.269   2.552  0.0875  0.3253  0.2708
  745MOL0     C 2738   7.754   3.591   2.884  0.0804 -1.2397  0.1844
  745MOL0     C 2739   7.864   3.622   2.975 -0.3935  0.5313 -0.0084
  745MOL0     C 2740   7.835   3.644   3.126 -0.9876 -0.1077 -0.3283
  745MOL0     H 2741   8.306   3.496   3.140  1.7051 -1.6726  1.0696
  745MOL0     H 2742   8.522   3.503   3.243  0.3116 -0.1504  0.1724
  745MOL0     H 2743   8.757   3.496   3.269 -1.2355 -0.7564  1.2842
  745MOL0     H 2744   8.705   3.657   3.344  1.0240  1.6170 -0.8601
  745MOL0     H 2745   8.953   3.715   3.268  0.8360 -0.8100 -0.8854
  745MOL0     H 2746   8.942   3.610   3.415 -2.8908 -2.3066  0.1760
  745MOL0     H 2747   8.981   3.418   3.280 -1.4366 -0.8637 -2.1222
  745MOL0     H 2748   8.951   3.510   3.125 -0.4882 -0.2813 -0.2324
  745MOL0     H 2749   9.153   3.657   3.185  0.6214  0.6493 -0.0501
  745MOL0     H 2750   9.174   3.542   3.319 -1.1891 -2.0048 -0.0935
  745MOL0     H 2751   9.166   3.465   3.021  0.1370 -0.2187 -0.6502
  745MOL0     H 2752   9.216   3.364   3.161 -3.4734  0.3441 -0.1586
  745MOL0     H 2753   9.360   3.619   3.095  1.4174  0.0908  3.4127
  745MOL0     H 2754   9.407   3.495   3.203 -0.4419  3.6433  1.3529
  745MOL0     H 2755   9.443   3.500   2.907 -0.0036  1.1740  0.9178
  745MOL0     H 2756   9.432   3.331   2.994  0.0612 -0.7296  0.6169
  745MOL0     H 2757   9.613   3.542   3.098 -0.8636  0.3528  0.5438
  745MOL0     H 2758   9.602   3.373   3.136  0.6807  2.1196  2.4467
  745MOL0     H 2759   9.843   3.536   3.005 -2.3877  0.0796  0.0117
  745MOL0     H 2760  10.017   3.322   2.712 -0.9457  0.3292  0.3401
  745MOL0     H 2761  10.051   3.289   2.881 -2.2325 -0.5854  1.1739
  745MOL0     H 2762  10.044   3.576   2.770  3.1088  0.8285 -0.8205
  745MOL0     H 2763  10.102   3.520   2.924  0.4655  0.8937 -0.1028
  745MOL0     H 2764  10.302   3.415   2.832  0.7505 -0.2921 -2.2388
  745MOL0     H 2765  10.236   3.402   2.672  1.6505  0.7918 -0.3033
  745MOL0     H 2766  10.257   3.627   2.617  1.7996 -1.2135 -0.8835
  745MOL0     H 2767  10.299   3.669   2.790 -0.0661 -0.0423 -0.0285
  745MOL0     H 2768  10.679   3.420   2.646  3.2653 -1.8964  1.7832
  745MOL0     H 2769  10.884   3.347   2.695 -1.8918  0.7305 -0.9789
  745MOL0     H 2770  10.989   3.438   2.799  0.8041 -1.5149 -0.3144
  745MOL0     H 2771  10.965   3.490   2.634 -1.3589  2.1520  0.1437
  745MOL0     H 2772  11.080   3.988   2.899  0.9905  0.8853  0.6469
  745MOL0     H 2773  11.268   4.098   2.965 -2.1494  0.2633 -0.5235
  745MOL0     H 2774  11.465   3.939   3.354 -2.3387 -0.2416 -0.9804
  745MOL0     H 2775  11.586   4.052   3.281  0.2317 -1.0907  1.0136
  745MOL0     H 2776  11.323   4.144   3.393  0.2118 -1.2744  1.6468
  745MOL0     H 2777  11.457   4.114   3.505 -0.8703  2.2638  1.1123
  745MOL0     H 2778  11.437   4.359   3.451 -0.1637  0.8297 -1.1395
  745MOL0     H 2779  11.431   4.321   3.275  1.1543  0.1437 -0.1591
  745MOL0     H 2780  11.684   4.250   3.285  0.6061 -0.4792  0.0701
  745MOL0     H 2781  11.665   4.274   3.461 -1.5945  2.1028  1.8295
  745MOL0     H 2782  11.609   4.472   3.228 -2.1730 -3.6658  0.2849
  745MOL0     H 2783  11.592   4.525   3.392 -2.8301  0.4425 -2.2172
  745MOL0     H 2784  11.846   4.409   3.246  0.0384 -0.7520  1.3100
  745MOL0     H 2785  11.841   4.462   3.413 -0.4727 -3.7550 -0.5224
  745MOL0     H 2786  11.749   4.695   3.326 -0.6021 -0.8931  0.7414
  745MOL0     H 2787  11.779   4.640   3.165 -0.3002  2.8554  0.6580
  745MOL0     H 2788  11.972   4.779   3.224  0.0048 -1.6971 -2.5292
  745MOL0     H 2789  12.033   4.621   3.226 -0.8417 -1.2687 -0.2347
  745MOL0     H 2790  11.280   3.838   3.319  2.2980  0.0285 -0.5202
  745MOL0     H 2791  11.066   3.737   3.238  1.9463  0.6750  1.8641
  745MOL0     H 2792  10.721   3.846   2.900 -0.3229 -0.4551  2.2191
  745MOL0     H 2793  10.494   3.764   2.823  1.5450  2.1922  0.7695
  745MOL0     H 2794   8.621   3.830   2.953 -2.6296  0.4667 -3.3007
  745MOL0     H 2795   8.407   3.806   2.872  1.0560  1.3014  0.3639
  745MOL0     H 2796   8.092   3.691   2.736  0.2360  1.5787  2.9987
  745MOL0     H 2797   7.922   3.621   2.597  2.1080 -2.2489  0.4791
  745MOL0     H 2798   7.555   3.406   2.755 -0.7526 -0.9265 -3.0458
  745MOL0     H 2799   7.493   3.571   2.785 -0.7072  1.0181 -1.0769
  745MOL0     H 2800   7.481   3.411   2.540 -1.4186 -0.4149 -1.3029
  745MOL0     H 2801   7.433   3.575   2.523  0.2008 -0.7753 -0.1892
  745MOL0     H 2802   7.303   3.339   2.644  0.0192 -0.3034 -3.6527
  745MOL0     H 2803   7.260   3.504   2.719 -0.2375  0.8872 -0.6055
  745MOL0     H 2804   7.228   3.471   2.415 -0.8481  1.5080 -0.1796
  745MOL0     H 2805   7.131   3.563   2.522  0.5116  0.5148 -1.7920
  745MOL0     H 2806   6.917   3.204   2.554  1.0950 -1.0362  1.2048
  745MOL0     H 2807   7.665   3.556   2.935  1.7108 -3.1375  1.8861
  745MOL0     H 2808   7.802   3.739   3.169 -0.9468  0.0654 -0.6740
  745MOL0     H 2809   7.759   3.572   3.156  0.7596 -0.5386  3.7000
  745MOL0     H 2810   7.926   3.617   3.181 -0.8199  3.0951  1.1969
  746MOL0     O 2811   0.965  10.220  10.089  0.5143  1.2007 -1.0142
  746MOL0     C 2812   0.940  10.097  10.072 -1.3218 -0.0593  0.2612
  746MOL0     O 2813   1.029  10.010  10.013  0.2199  0.2754  0.2894
  746MOL0     C 2814   1.126  10.050   9.920 -0.3076  0.6643 -0.4117
  746MOL0     C 2815   1.183  10.176   9.899 -0.1395 -0.6277  0.0055
  746MOL0     C 2816   1.298  10.188   9.818  0.0302 -0.1633 -0.9602
  746MOL0     C 2817   1.347  10.081   9.749  0.4938 -0.4357  0.1505
  746MOL0     O 2818   1.460  10.099   9.668  0.2062 -1.2308 -0.7532
  746MOL0     C 2819   1.489  10.010   9.556 -0.2978 -0.3638  0.4898
  746MOL0     C 2820   1.604  10.059   9.475  0.7914  0.1098  0.5241
  746MOL0     C 2821   1.738  10.081   9.549 -0.0432  0.2519  0.9810
  746MOL0     C 2822   1.770   9.958   9.635 -0.0802  0.7233 -0.6977
  746MOL0     C 2823   1.914   9.954   9.702  0.4277 -0.6122  0.0307
  746MOL0     C 2824   2.035   9.969   9.609  0.6697 -0.5238 -0.4683
  746MOL0     C 2825   2.165   9.918   9.675 -0.6311 -0.2223 -0.3227
  746MOL0     C 2826   2.205   9.999   9.810 -0.2228 -0.0924  0.4230
  746MOL0     N 2827   2.339   9.961   9.850  0.6357 -0.0933  0.3434
  746MOL0     C 2828   2.390   9.838   9.851 -0.4428  0.5190  0.7036
  746MOL0     C 2829   2.525   9.847   9.887  0.8752  0.8775  0.1798
  746MOL0     C 2830   2.613   9.725   9.863  0.0238  0.0006  0.0182
  746MOL0     C 2831   2.750   9.780   9.851 -0.4578  0.1204 -0.7509
  746MOL0     C 2832   2.846   9.657   9.843  0.3798 -0.7239  0.5513
  746MOL0     C 2833   2.985   9.696   9.796 -0.8787 -0.9885 -0.0197
  746MOL0     O 2834   3.059   9.767   9.900 -0.2822 -0.7455  0.0596
  746MOL0     C 2835   3.184   9.813   9.865  0.3258 -0.1786  0.6632
  746MOL0     C 2836   3.234   9.845   9.744 -0.8652 -0.2250 -0.3132
  746MOL0     C 2837   3.368   9.890   9.727 -0.2303 -0.0846  0.9802
  746MOL0     C 2838   3.401   9.941   9.585 -0.3391 -0.0162  0.5605
  746MOL0     C 2839   3.452   9.904   9.842 -0.2713  0.3951  0.9239
  746MOL0     C 2840   3.599   9.950   9.848  0.3236  0.2421 -0.3907
  746MOL0     O 2841   3.667   9.933   9.965  0.1763  0.1166  0.5231
  746MOL0     C 2842   3.806   9.943   9.969  0.4681  0.0492  0.7291
  746MOL0     C 2843   3.852   9.984  10.095  0.5283  0.8474 -0.3235
  746MOL0     C 2844   3.982  10.032  10.114 -0.2488 -0.8489 -0.7804
  746MOL0     C 2845   4.079   9.999  10.020  0.6427 -0.3764  0.2891
  746MOL0     O 2846   4.214  10.015  10.046  0.1914 -0.3019 -0.0165
  746MOL0     C 2847   4.262  10.063  10.178 -0.3455  0.6955  0.2288
  746MOL0     C 2848   4.400  10.116  10.165 -0.0647  0.9952  0.7452
  746MOL0     C 2849   4.504   9.998  10.170 -0.0393 -0.4264  1.1129
  746MOL0     C 2850   4.648  10.053  10.205  1.0289  0.4689  0.4163
  746MOL0     C 2851   4.756   9.963  10.151  0.7043 -0.1017 -0.4930
  746MOL0     C 2852   4.894  10.012  10.210  0.9426 -0.8546 -1.2024
  746MOL0     C 2853   5.019   9.927  10.168  0.0179 -0.9276  0.1364
  746MOL0     C 2854   5.149   9.982  10.228 -0.1814  0.2720  0.4417
  746MOL0    Cl 2855   5.282   9.865  10.198 -0.6125 -0.4115 -0.4166
  746MOL0     C 2856   4.044   9.951   9.890 -0.1910  0.1842 -0.7160
  746MOL0     C 2857   3.909   9.934   9.867 -0.2087  0.0310 -0.4432
  746MOL0     O 2858   3.647   9.987   9.739 -0.2969  0.2363  0.0769
  746MOL0     C 2859   3.402   9.854   9.966 -0.2676  0.2616  0.6257
  746MOL0     C 2860   3.270   9.808   9.971  1.1238  0.0751 -0.1208
  746MOL0     N 2861   2.549   9.982   9.905  0.6682  0.7232 -0.2608
  746MOL0     N 2862   2.434  10.045   9.885  0.3057  0.2908  0.0895
  746MOL0     C 2863   1.287   9.955   9.764  0.4421  0.8523  0.0001
  746MOL0     C 2864   1.178   9.939   9.855 -0.2204 -0.0773  0.1307
  746MOL0     C 2865   0.818  10.033  10.127 -0.1928 -0.1956  0.8319
  746MOL0     C 2866   0.782   9.906  10.081  0.0663  0.1608 -0.2354
  746MOL0     C 2867   0.655   9.854  10.108  0.7212 -0.5955  0.3845
  746MOL0     C 2868   0.559   9.921  10.182  0.2959  0.3420 -0.5225
  746MOL0     O 2869   0.439   9.882  10.221  0.1536  0.2653  0.9351
  746MOL0     C 2870   0.397   9.749  10.181  0.5436 -0.0125  0.5993
  746MOL0     C 2871   0.252   9.718  10.210  1.1764  0.7670  1.0225
  746MOL0     C 2872   0.207   9.757  10.349  0.0157 -0.5880  0.8281
  746MOL0     C 2873   0.092   9.668  10.405  1.0847 -0.3557  0.0642
  746MOL0     C 2874   0.046   9.720  10.532  0.8125  0.6721 -0.2238
  746MOL0     C 2875  -0.007   9.762  10.629 -0.0344 -0.4243 -0.0054
  746MOL0     C 2876   0.602  10.044  10.230  0.1580 -0.2630  0.6394
  746MOL0     C 2877   0.724  10.105  10.205  0.0136  0.1083 -0.5844
  746MOL0     C 2878   0.745  10.243  10.267 -0.5826 -0.0945 -0.4113
  746MOL0     H 2879   1.158  10.270   9.947 -1.4922 -0.6328 -0.6436
  746MOL0     H 2880   1.345  10.285   9.810 -0.0031  0.2213  2.2039
  746MOL0     H 2881   1.402   9.984   9.495  0.7760 -1.9630 -0.4156
  746MOL0     H 2882   1.521   9.909   9.586  2.0870 -0.1940 -1.2669
  746MOL0     H 2883   1.618   9.998   9.385 -0.3631  0.3025  0.1976
  746MOL0     H 2884   1.577  10.157   9.435 -0.7673 -1.0404 -1.4999
  746MOL0     H 2885   1.809  10.105   9.470 -2.2893 -0.5970 -1.4300
  746MOL0     H 2886   1.715  10.159   9.623 -1.2490  1.5178 -0.6767
  746MOL0     H 2887   1.698   9.943   9.716  0.1243  1.5305 -0.3590
  746MOL0     H 2888   1.767   9.870   9.569 -1.1496  0.1508  0.0871
  746MOL0     H 2889   1.923   9.855   9.748  2.9769 -0.2688  0.3966
  746MOL0     H 2890   1.912  10.026   9.784  0.1605 -3.7522  2.9782
  746MOL0     H 2891   2.020   9.912   9.518 -3.8081 -0.8401  0.2589
  746MOL0     H 2892   2.061  10.072   9.583  0.9031 -0.8863 -1.7052
  746MOL0     H 2893   2.247   9.928   9.604 -0.6697 -3.8883 -1.0322
  746MOL0     H 2894   2.163   9.810   9.692  3.9750 -0.9596 -2.8523
  746MOL0     H 2895   2.180  10.104   9.790 -0.2809  0.1417  1.6639
  746MOL0     H 2896   2.148   9.970   9.899  0.4798 -0.5821  0.7186
  746MOL0     H 2897   2.343   9.744   9.823  0.7904  0.9230 -3.2554
  746MOL0     H 2898   2.578   9.680   9.770 -1.7088 -0.9790  1.1113
  746MOL0     H 2899   2.604   9.659   9.950 -3.5129  0.5916  0.2438
  746MOL0     H 2900   2.746   9.850   9.767 -2.5942 -1.7160 -2.3059
  746MOL0     H 2901   2.778   9.831   9.944 -1.3997 -4.1671  2.1401
  746MOL0     H 2902   2.851   9.602   9.938  1.7704  1.5715  1.9134
  746MOL0     H 2903   2.800   9.591   9.770  0.4130  0.4128 -0.5277
  746MOL0     H 2904   3.043   9.608   9.766  1.3556  0.4190 -0.0559
  746MOL0     H 2905   2.981   9.752   9.701 -1.1206  1.4040  1.3257
  746MOL0     H 2906   3.180   9.845   9.650  1.8795  0.5191 -1.9986
  746MOL0     H 2907   3.327   9.914   9.509  0.5174  2.0106 -1.0816
  746MOL0     H 2908   3.501   9.910   9.553 -0.4565 -0.8394  0.9657
  746MOL0     H 2909   3.389  10.048   9.603 -6.2237 -0.0643 -1.0181
  746MOL0     H 2910   3.788  10.002  10.180 -0.6576 -0.6758 -0.8454
  746MOL0     H 2911   4.005  10.099  10.197 -1.0382 -3.4334  1.6800
  746MOL0     H 2912   4.197  10.143  10.213  1.8871  1.2540  3.4706
  746MOL0     H 2913   4.262   9.990  10.260  0.5551 -1.2246 -1.3816
  746MOL0     H 2914   4.422  10.176  10.076  0.9412  0.0358  0.3272
  746MOL0     H 2915   4.410  10.179  10.254  0.7574  2.1477 -0.1402
  746MOL0     H 2916   4.491   9.951  10.072 -0.1779  2.1435 -0.2034
  746MOL0     H 2917   4.467   9.938  10.253 -2.2384  2.6693  2.5664
  746MOL0     H 2918   4.662  10.063  10.313  0.2907  0.6139  0.5050
  746MOL0     H 2919   4.654  10.157  10.173 -2.3783  0.7706  0.3959
  746MOL0     H 2920   4.744   9.860  10.186  0.1567  0.4732  1.1072
  746MOL0     H 2921   4.763   9.958  10.042  0.5782  1.1369 -0.5754
  746MOL0     H 2922   4.880  10.004  10.318 -0.9271  0.5246 -1.2966
  746MOL0     H 2923   4.897  10.119  10.188 -1.2927 -0.0158  1.9304
  746MOL0     H 2924   5.035   9.926  10.060  2.0778 -2.9276  0.3944
  746MOL0     H 2925   4.998   9.824  10.198  0.7222 -1.4272 -1.0257
  746MOL0     H 2926   5.141   9.993  10.337  0.8043 -1.1446  0.6841
  746MOL0     H 2927   5.171  10.082  10.189  0.2479 -1.2129 -3.5800
  746MOL0     H 2928   4.126   9.941   9.819 -0.0950  0.1602 -0.6034
  746MOL0     H 2929   3.890   9.906   9.764 -0.5282 -1.0341 -0.0991
  746MOL0     H 2930   3.466   9.850  10.054 -1.2761 -2.2052  1.3131
  746MOL0     H 2931   3.242   9.767  10.067 -1.3345  0.1016 -0.7742
  746MOL0     H 2932   1.314   9.867   9.706  1.3241  0.8322  0.4225
  746MOL0     H 2933   1.130   9.843   9.874 -0.8485 -0.4251 -2.7310
  746MOL0     H 2934   0.847   9.845  10.020 -0.8135 -0.0457 -0.9859
  746MOL0     H 2935   0.633   9.763  10.054 -1.2125  0.8250 -1.4248
  746MOL0     H 2936   0.416   9.732  10.075  0.6983  0.7814  0.4963
  746MOL0     H 2937   0.457   9.675  10.236 -0.3426 -0.8088  0.5277
  746MOL0     H 2938   0.246   9.611  10.187 -0.3378  1.2950 -1.4229
  746MOL0     H 2939   0.186   9.760  10.133 -0.0372 -1.0628  0.9846
  746MOL0     H 2940   0.292   9.743  10.416  0.1491 -0.9077  0.5908
  746MOL0     H 2941   0.172   9.859  10.363 -0.3762 -0.7320  0.9086
  746MOL0     H 2942   0.117   9.562  10.406  0.2836 -0.5498  0.3352
  746MOL0     H 2943   0.010   9.671  10.332  0.6733  0.4637  0.5449
  746MOL0     H 2944  -0.047   9.798  10.722 -0.8768  0.2174 -0.6058
  746MOL0     H 2945   0.528  10.098  10.287  1.2895  0.3446  1.5927
  746MOL0     H 2946   0.665  10.274  10.334 -1.6160 -0.6685 -1.3381
  746MOL0     H 2947   0.840  10.255  10.319  0.1829  1.6725 -2.1145
  746MOL0     H 2948   0.741  10.326  10.196 -1.1050  1.0952  0.9669
  747MOL0     O 2949   3.068   0.442   1.221 -1.1891 -0.3828 -1.1113
  747MOL0     C 2950   3.073   0.458   1.347  0.2946 -0.0875 -0.8304
  747MOL0     O 2951   3.165   0.525   1.412 -0.1138  0.8221  0.3418
  747MOL0     C 2952   3.289   0.538   1.352 -0.3017 -0.1255 -0.1320
  747MOL0     C 2953   3.362   0.447   1.271 -0.2405  0.5730 -0.6889
  747MOL0     C 2954   3.491   0.464   1.232 -0.1680 -0.4505 -0.5197
  747MOL0     C 2955   3.556   0.582   1.278 -0.7239 -0.0806 -0.4486
  747MOL0     O 2956   3.675   0.625   1.237 -0.1388 -0.5360 -0.6525
  747MOL0     C 2957   3.758   0.540   1.158  0.0793  0.7329  0.4474
  747MOL0     C 2958   3.897   0.598   1.128  0.8432  0.8201 -0.1701
  747MOL0     C 2959   3.988   0.495   1.069  0.7200  0.3889 -1.0615
  747MOL0     C 2960   4.129   0.538   1.074  0.1674 -0.2868 -0.3885
  747MOL0     C 2961   4.159   0.672   0.988  0.1944 -0.3663 -0.3805
  747MOL0     C 2962   4.310   0.693   0.975  0.2490  0.3712  0.3323
  747MOL0     C 2963   4.376   0.583   0.875 -0.1623 -0.1275 -0.2372
  747MOL0     C 2964   4.531   0.579   0.894  0.1649  1.1310  0.6089
  747MOL0     N 2965   4.597   0.502   0.780 -0.7012 -0.7015 -0.4162
  747MOL0     C 2966   4.587   0.527   0.648  0.3734 -0.7145 -0.0444
  747MOL0     C 2967   4.652   0.424   0.593 -0.8146  0.0399  0.0517
  747MOL0     C 2968   4.673   0.389   0.443 -0.2254  0.3552 -0.5512
  747MOL0     C 2969   4.789   0.471   0.379 -0.0080 -0.0133 -0.0233
  747MOL0     C 2970   4.923   0.400   0.386  0.1034 -0.5366  0.0084
  747MOL0     C 2971   5.046   0.485   0.360 -0.3308  0.3203 -0.3422
  747MOL0     O 2972   5.151   0.448   0.439 -0.3524 -0.1088 -0.1450
  747MOL0     C 2973   5.264   0.525   0.442 -0.5781 -0.2883  1.3147
  747MOL0     C 2974   5.277   0.652   0.377  0.1709 -0.4939 -0.0248
  747MOL0     C 2975   5.397   0.722   0.387  0.5821  0.1816  0.6093
  747MOL0     C 2976   5.402   0.854   0.311 -0.2969  0.5057 -0.7938
  747MOL0     C 2977   5.514   0.661   0.441 -0.5805 -0.6179 -0.1948
  747MOL0     C 2978   5.647   0.729   0.442  0.2763 -0.2326 -0.3145
  747MOL0     O 2979   5.746   0.636   0.452  0.5609  0.0584 -0.7929
  747MOL0     C 2980   5.874   0.685   0.452 -0.4322 -0.1809  0.4340
  747MOL0     C 2981   5.938   0.795   0.382 -0.1171  0.3026 -0.3579
  747MOL0     C 2982   6.075   0.811   0.369  0.3107 -0.0916 -0.5385
  747MOL0     C 2983   6.169   0.727   0.432  0.6007 -0.1978 -0.0397
  747MOL0     O 2984   6.307   0.747   0.443 -0.1203 -0.1285 -0.4967
  747MOL0     C 2985   6.367   0.863   0.372  0.2298 -0.8956 -0.4503
  747MOL0     C 2986   6.516   0.859   0.402  0.6311  0.2137  0.3743
  747MOL0     C 2987   6.590   0.747   0.320  0.6490  0.1133 -0.2905
  747MOL0     C 2988   6.741   0.735   0.332 -0.3040 -0.1239  0.2922
  747MOL0     C 2989   6.802   0.767   0.464 -0.7856 -0.7070  0.1419
  747MOL0     C 2990   6.948   0.721   0.488 -0.0146 -0.0490  0.6661
  747MOL0     C 2991   7.006   0.779   0.612 -0.0812  0.2016  0.1610
  747MOL0     C 2992   7.161   0.779   0.587 -0.3105  0.5638 -0.6908
  747MOL0    Cl 2993   7.246   0.825   0.742 -0.0929 -0.0963 -0.3623
  747MOL0     C 2994   6.113   0.615   0.492  0.2924 -0.2743 -0.8399
  747MOL0     C 2995   5.974   0.597   0.508 -0.1776 -0.2484  0.5116
  747MOL0     O 2996   5.659   0.847   0.463  0.2651 -0.1685  0.8692
  747MOL0     C 2997   5.499   0.536   0.499  0.0167  0.2279 -0.8080
  747MOL0     C 2998   5.372   0.476   0.509  0.0938 -0.2773  0.0328
  747MOL0     N 2999   4.709   0.348   0.694  0.2826  0.2963  0.0436
  747MOL0     N 3000   4.666   0.391   0.806  0.2104 -0.4581  0.0395
  747MOL0     C 3001   3.483   0.679   1.344 -0.2538  0.0316  0.7312
  747MOL0     C 3002   3.355   0.657   1.382  0.3388  0.6695  0.1981
  747MOL0     C 3003   2.956   0.410   1.415  0.7624  0.1428 -0.1142
  747MOL0     C 3004   2.875   0.485   1.503 -0.9904 -0.4941  0.4716
  747MOL0     C 3005   2.755   0.429   1.551 -0.1482  0.1474  0.1429
  747MOL0     C 3006   2.716   0.299   1.525  0.1272 -0.6075  0.2941
  747MOL0     O 3007   2.593   0.267   1.577 -0.4687  0.0194  0.0709
  747MOL0     C 3008   2.537   0.140   1.546 -0.6382 -0.3812  0.0142
  747MOL0     C 3009   2.396   0.140   1.602  0.0648  0.2621  0.7412
  747MOL0     C 3010   2.395   0.168   1.751  0.4653  0.4723  0.0163
  747MOL0     C 3011   2.253   0.220   1.801 -0.0725  0.2448  0.7391
  747MOL0     C 3012   2.266   0.249   1.941 -0.2087  0.2111  0.4544
  747MOL0     C 3013   2.301   0.259   2.057  0.4765  0.2755 -0.8950
  747MOL0     C 3014   2.804   0.222   1.453  0.4311 -0.4169 -0.4007
  747MOL0     C 3015   2.916   0.276   1.385 -0.8186 -0.4894 -0.1816
  747MOL0     C 3016   3.014   0.166   1.332 -0.5692  0.0748  0.0613
  747MOL0     H 3017   3.332   0.343   1.265 -0.3481  0.6804 -2.6794
  747MOL0     H 3018   3.553   0.387   1.187  2.3470  0.9920  0.2933
  747MOL0     H 3019   3.724   0.524   1.055  2.5460 -0.2519 -0.2926
  747MOL0     H 3020   3.769   0.443   1.205 -0.6080 -0.4298 -1.6547
  747MOL0     H 3021   3.884   0.685   1.063 -2.6544  1.7340  1.5505
  747MOL0     H 3022   3.930   0.636   1.225 -2.4835  0.0346  1.3958
  747MOL0     H 3023   3.966   0.405   1.126  1.4552  1.8806  1.7472
  747MOL0     H 3024   3.963   0.479   0.963  0.2802 -1.9002 -0.6524
  747MOL0     H 3025   4.162   0.553   1.177 -1.6237  3.0779 -0.1572
  747MOL0     H 3026   4.184   0.455   1.029  1.4843  0.5611 -0.3893
  747MOL0     H 3027   4.123   0.758   1.046 -1.6042 -1.5509  0.3464
  747MOL0     H 3028   4.105   0.674   0.893  0.6143 -0.8055 -0.6314
  747MOL0     H 3029   4.335   0.794   0.941  1.7826 -0.6143 -1.6833
  747MOL0     H 3030   4.347   0.682   1.077 -2.5173  1.4600  1.5691
  747MOL0     H 3031   4.358   0.628   0.777  1.1431 -2.0407 -1.4327
  747MOL0     H 3032   4.335   0.482   0.867  1.0511 -0.9297  2.5351
  747MOL0     H 3033   4.580   0.675   0.878  1.3377  0.2417 -1.4933
  747MOL0     H 3034   4.552   0.542   0.995 -0.3904 -4.6785 -1.0411
  747MOL0     H 3035   4.538   0.613   0.602  2.5819 -1.3230 -3.9483
  747MOL0     H 3036   4.578   0.424   0.400 -0.6472 -0.4250 -0.2675
  747MOL0     H 3037   4.683   0.282   0.424  0.1548  0.7161 -2.7081
  747MOL0     H 3038   4.763   0.497   0.275  0.9056  2.1186  0.2184
  747MOL0     H 3039   4.791   0.571   0.423 -1.1086  0.8019 -1.6751
  747MOL0     H 3040   4.936   0.364   0.488  1.8214  0.5565  0.2183
  747MOL0     H 3041   4.923   0.323   0.309 -0.2697 -0.3262 -0.2066
  747MOL0     H 3042   5.079   0.495   0.256 -0.7977 -0.6389 -0.5993
  747MOL0     H 3043   5.028   0.586   0.396  4.1253  1.5511 -0.9597
  747MOL0     H 3044   5.201   0.684   0.306 -0.1485 -0.5313  0.2978
  747MOL0     H 3045   5.447   0.934   0.371  0.0286  0.1830 -0.6065
  747MOL0     H 3046   5.301   0.894   0.297 -1.2872 -1.5435  0.0492
  747MOL0     H 3047   5.443   0.836   0.212  0.3177  1.6799 -0.7738
  747MOL0     H 3048   5.875   0.872   0.339  0.2282  0.7031 -0.1545
  747MOL0     H 3049   6.107   0.898   0.312  3.8116 -0.3986  0.6711
  747MOL0     H 3050   6.352   0.851   0.264 -2.0134 -0.6009 -0.2198
  747MOL0     H 3051   6.318   0.956   0.401  0.4372 -0.8117 -0.3717
  747MOL0     H 3052   6.548   0.955   0.361 -3.0503  0.3921 -2.5472
  747MOL0     H 3053   6.541   0.844   0.508 -1.0077 -0.0270  0.7502
  747MOL0     H 3054   6.580   0.756   0.211  1.9807 -0.0152 -0.4378
  747MOL0     H 3055   6.543   0.651   0.342 -1.8347  0.6180 -2.8122
  747MOL0     H 3056   6.788   0.805   0.263 -2.0041  2.3384  1.4905
  747MOL0     H 3057   6.772   0.633   0.309  1.1980 -0.1104  2.0565
  747MOL0     H 3058   6.803   0.873   0.487 -0.7665 -0.9154  1.1292
  747MOL0     H 3059   6.748   0.712   0.542  1.5493 -1.4469  1.3487
  747MOL0     H 3060   6.994   0.750   0.393 -0.9283  1.5549  0.6792
  747MOL0     H 3061   6.954   0.612   0.488 -1.0142 -0.1241 -0.4325
  747MOL0     H 3062   6.979   0.713   0.694  2.0092  0.2675  0.9502
  747MOL0     H 3063   6.969   0.881   0.624  1.0104  0.4493  1.6112
  747MOL0     H 3064   7.191   0.841   0.502 -0.2729  2.8780  0.8837
  747MOL0     H 3065   7.196   0.676   0.578  0.5504  0.3911  2.8052
  747MOL0     H 3066   6.178   0.546   0.545 -1.9816 -2.0357 -0.1600
  747MOL0     H 3067   5.941   0.506   0.556  1.6419 -1.4578 -0.4174
  747MOL0     H 3068   5.574   0.472   0.544  1.1372  2.4022  0.5682
  747MOL0     H 3069   5.349   0.383   0.561  1.4704 -0.0572  1.1041
  747MOL0     H 3070   3.535   0.773   1.361  1.1782 -0.3873 -1.0256
  747MOL0     H 3071   3.307   0.726   1.451 -0.9153 -1.4253  1.5850
  747MOL0     H 3072   2.886   0.587   1.537  2.1560 -0.9176  0.9868
  747MOL0     H 3073   2.688   0.486   1.614 -0.2294  0.1559  0.0479
  747MOL0     H 3074   2.540   0.125   1.438  3.7730  0.0877 -0.0925
  747MOL0     H 3075   2.596   0.055   1.579 -1.7258 -1.1272  0.1008
  747MOL0     H 3076   2.347   0.045   1.584 -2.6186  1.5360  0.8869
  747MOL0     H 3077   2.345   0.212   1.537  0.0004 -0.6332 -0.2372
  747MOL0     H 3078   2.416   0.073   1.800  0.8481  0.0418 -0.9709
  747MOL0     H 3079   2.474   0.239   1.779 -0.4001  0.9558  1.3739
  747MOL0     H 3080   2.181   0.141   1.774  2.6916 -2.6929  1.4056
  747MOL0     H 3081   2.235   0.311   1.742  0.1870 -1.5985 -2.4129
  747MOL0     H 3082   2.323   0.272   2.161 -0.7797  0.7837 -0.6705
  747MOL0     H 3083   2.772   0.118   1.451 -1.3278  0.0990 -0.3112
  747MOL0     H 3084   2.980   0.069   1.370 -0.8129  0.6768  1.4341
  747MOL0     H 3085   3.017   0.164   1.223  0.9031  1.0381  0.0564
  747MOL0     H 3086   3.108   0.194   1.380 -1.8331  3.3960  0.8171
  748MOL0     O 3087   5.519   4.664   9.602 -0.2771  0.3752  0.1308
  748MOL0     C 3088   5.422   4.655   9.519 -0.0402  0.5008 -0.5740
  748MOL0     O 3089   5.442   4.646   9.383 -0.0751 -0.4192 -0.4836
  748MOL0     C 3090   5.573   4.662   9.334 -0.7843 -0.0894  0.4034
  748MOL0     C 3091   5.613   4.753   9.233  0.2671  0.0459 -0.6536
  748MOL0     C 3092   5.742   4.746   9.187  0.5681  0.9364  0.0723
  748MOL0     C 3093   5.839   4.665   9.245 -0.5059  0.5355  0.2720
  748MOL0     O 3094   5.966   4.676   9.187  0.1258  0.0899 -0.1722
  748MOL0     C 3095   6.060   4.572   9.224 -0.1733 -0.1131 -0.2603
  748MOL0     C 3096   6.195   4.603   9.152 -0.8078 -0.4907 -0.1297
  748MOL0     C 3097   6.185   4.614   8.998  0.4720  0.6231 -0.4212
  748MOL0     C 3098   6.327   4.639   8.924 -0.1741  0.8121 -0.0210
  748MOL0     C 3099   6.316   4.634   8.769 -0.2583  0.6558 -0.7538
  748MOL0     C 3100   6.432   4.704   8.701  0.7062 -0.1772 -0.0846
  748MOL0     C 3101   6.564   4.632   8.733  0.5832  0.3335 -0.4068
  748MOL0     C 3102   6.667   4.689   8.635  0.4802 -0.5608  0.4754
  748MOL0     N 3103   6.807   4.645   8.651  0.2065 -0.2845  0.0791
  748MOL0     C 3104   6.867   4.525   8.653 -0.1193 -0.0984 -0.4389
  748MOL0     C 3105   7.000   4.548   8.660  0.2288  0.1306 -0.2196
  748MOL0     C 3106   7.113   4.449   8.670 -0.2844  0.1216  0.2772
  748MOL0     C 3107   7.101   4.349   8.779  0.1392 -0.5139 -0.0283
  748MOL0     C 3108   7.082   4.404   8.922 -0.7865  0.1160  0.5046
  748MOL0     C 3109   7.220   4.438   8.986 -0.5012  0.5610  0.5025
  748MOL0     O 3110   7.301   4.318   8.974 -0.2607 -0.2656 -0.0632
  748MOL0     C 3111   7.437   4.326   8.997  0.7141 -0.2715 -0.9365
  748MOL0     C 3112   7.520   4.223   8.964 -0.5087 -0.8474  0.1287
  748MOL0     C 3113   7.660   4.222   9.004 -0.1569 -0.5396 -0.1921
  748MOL0     C 3114   7.751   4.125   8.946  0.9168  0.8563 -0.5504
  748MOL0     C 3115   7.716   4.327   9.081 -0.9182 -0.1405 -0.5837
  748MOL0     C 3116   7.857   4.333   9.133 -0.1828 -0.1206 -0.1648
  748MOL0     O 3117   7.920   4.209   9.144 -0.5987 -0.4316  0.3632
  748MOL0     C 3118   8.048   4.199   9.192  0.8081 -0.3303 -0.0937
  748MOL0     C 3119   8.078   4.225   9.326 -0.0240 -0.2991  0.2914
  748MOL0     C 3120   8.214   4.219   9.373  0.2336  0.1004  0.4777
  748MOL0     C 3121   8.314   4.171   9.284 -0.4598 -0.4119  0.0235
  748MOL0     O 3122   8.439   4.147   9.323 -0.3909 -0.5763  0.5087
  748MOL0     C 3123   8.506   4.248   9.394  0.8615  0.3658 -0.0354
  748MOL0     C 3124   8.638   4.185   9.453  0.5679  0.3810 -0.0310
  748MOL0     C 3125   8.730   4.134   9.341 -0.1087  0.0992  0.6573
  748MOL0     C 3126   8.858   4.064   9.390  0.6627  0.9260  0.1712
  748MOL0     C 3127   8.965   4.062   9.287  0.2838  0.0407  0.4816
  748MOL0     C 3128   9.091   3.999   9.332 -1.2018  0.3733 -0.1595
  748MOL0     C 3129   9.182   3.976   9.208  0.2539  0.2021 -0.4813
  748MOL0     C 3130   9.231   4.099   9.139  0.0604  0.3954  0.0641
  748MOL0    Cl 3131   9.332   4.181   9.256  0.0425  0.2362 -0.0811
  748MOL0     C 3132   8.283   4.144   9.149 -1.2097 -0.5734 -0.8506
  748MOL0     C 3133   8.153   4.167   9.106  0.2657  0.2134 -0.6153
  748MOL0     O 3134   7.904   4.447   9.157  0.2576 -0.2827  0.1681
  748MOL0     C 3135   7.628   4.428   9.126  0.0039  0.8723  0.4507
  748MOL0     C 3136   7.492   4.425   9.086 -0.1791  0.0928 -0.4317
  748MOL0     N 3137   7.017   4.690   8.644 -0.0810 -0.2013  0.1932
  748MOL0     N 3138   6.898   4.741   8.640  0.9928  0.3687 -0.4134
  748MOL0     C 3139   5.800   4.573   9.344 -0.0003 -0.0190  0.2784
  748MOL0     C 3140   5.669   4.572   9.385  0.2460  0.9800  0.1349
  748MOL0     C 3141   5.277   4.627   9.565  0.4724  0.6210 -0.8750
  748MOL0     C 3142   5.173   4.640   9.479 -0.1298 -0.3437 -0.5397
  748MOL0     C 3143   5.043   4.627   9.515 -0.3096  0.1927  0.0661
  748MOL0     C 3144   5.006   4.601   9.648 -0.1389 -0.3868 -0.0291
  748MOL0     O 3145   4.877   4.579   9.683  0.9713  0.3471 -0.4890
  748MOL0     C 3146   4.775   4.670   9.650 -0.9521  0.5117 -1.0001
  748MOL0     C 3147   4.656   4.582   9.615  0.3705 -0.3030 -0.3095
  748MOL0     C 3148   4.576   4.520   9.734 -0.1908 -0.2374 -0.7358
  748MOL0     C 3149   4.494   4.627   9.810  0.2415 -0.0110 -0.2463
  748MOL0     C 3150   4.432   4.565   9.920 -0.4463  1.0447 -0.4056
  748MOL0     C 3151   4.375   4.509  10.010 -0.4089  0.6929 -0.3767
  748MOL0     C 3152   5.112   4.578   9.742 -0.2674 -0.1219  0.0007
  748MOL0     C 3153   5.253   4.589   9.704 -0.3689 -0.5812  0.0961
  748MOL0     C 3154   5.362   4.582   9.813  1.0707  0.0825  0.1368
  748MOL0     H 3155   5.542   4.829   9.203  0.3741  1.4743  2.3134
  748MOL0     H 3156   5.772   4.805   9.100 -0.0254 -0.6026 -1.2271
  748MOL0     H 3157   6.020   4.478   9.186 -0.1833  0.9285 -3.0477
  748MOL0     H 3158   6.073   4.570   9.332 -0.7106 -3.5044 -0.1336
  748MOL0     H 3159   6.236   4.700   9.181  1.5493 -0.9802 -1.5151
  748MOL0     H 3160   6.263   4.522   9.179 -0.8783 -0.4841  0.0719
  748MOL0     H 3161   6.133   4.530   8.952  2.1330  0.6881 -2.5731
  748MOL0     H 3162   6.121   4.700   8.975  0.4545  0.9665  0.8402
  748MOL0     H 3163   6.351   4.743   8.949  1.5067  0.2867  0.7805
  748MOL0     H 3164   6.394   4.561   8.963 -4.1371 -2.4253  1.0090
  748MOL0     H 3165   6.220   4.681   8.745 -1.2762 -0.5855  0.6797
  748MOL0     H 3166   6.318   4.530   8.735 -0.5049  1.3876 -3.2117
  748MOL0     H 3167   6.418   4.704   8.593  2.0803  3.6096 -0.4156
  748MOL0     H 3168   6.435   4.808   8.736 -1.6957 -0.5409  1.5210
  748MOL0     H 3169   6.555   4.527   8.705 -0.0149 -1.2261  4.5780
  748MOL0     H 3170   6.592   4.648   8.838 -0.9079  2.3589 -0.2532
  748MOL0     H 3171   6.628   4.670   8.534 -1.1845  3.2246  0.2463
  748MOL0     H 3172   6.665   4.798   8.646 -1.7580 -0.5704  0.6723
  748MOL0     H 3173   6.831   4.425   8.670 -0.0223 -0.2224 -0.9421
  748MOL0     H 3174   7.204   4.509   8.686 -0.7969  0.8799  0.4284
  748MOL0     H 3175   7.121   4.403   8.571  0.6208  1.4801 -0.3176
  748MOL0     H 3176   7.008   4.295   8.760 -1.1131  1.9193 -1.3012
  748MOL0     H 3177   7.188   4.283   8.768 -0.5060 -1.4701  0.4664
  748MOL0     H 3178   7.025   4.496   8.939  1.8719  1.5534  2.3188
  748MOL0     H 3179   7.052   4.319   8.983  0.5791 -0.1398  0.8282
  748MOL0     H 3180   7.266   4.525   8.938 -0.8320 -0.7214 -2.3539
  748MOL0     H 3181   7.203   4.464   9.091 -1.6682 -1.3628  0.8322
  748MOL0     H 3182   7.481   4.150   8.893 -1.8159  0.4432 -0.5170
  748MOL0     H 3183   7.834   4.176   8.896  2.5983 -4.6368 -4.2680
  748MOL0     H 3184   7.708   4.065   8.866  0.6747 -0.7238  0.7126
  748MOL0     H 3185   7.778   4.045   9.016 -1.0895 -0.1968 -0.8824
  748MOL0     H 3186   7.999   4.255   9.394  0.4141 -0.4277  0.8635
  748MOL0     H 3187   8.231   4.223   9.481  2.3796 -3.1377  0.3756
  748MOL0     H 3188   8.534   4.332   9.329  1.7684 -1.5842 -2.2946
  748MOL0     H 3189   8.451   4.272   9.486  0.4529  2.1296 -0.6826
  748MOL0     H 3190   8.696   4.262   9.507  1.7345  0.9956 -2.0632
  748MOL0     H 3191   8.614   4.102   9.520 -1.8508 -1.0386 -2.4726
  748MOL0     H 3192   8.761   4.221   9.283  0.4806 -1.3123 -1.2145
  748MOL0     H 3193   8.672   4.060   9.285  1.7951 -0.3870 -0.7585
  748MOL0     H 3194   8.830   3.964   9.426 -1.0586  0.3961 -2.3996
  748MOL0     H 3195   8.897   4.112   9.481  0.6157  0.8910  0.2097
  748MOL0     H 3196   8.926   4.001   9.205  0.0515 -0.6438  1.0917
  748MOL0     H 3197   8.987   4.164   9.254  1.6555 -0.2014  0.5763
  748MOL0     H 3198   9.064   3.901   9.374 -0.5657  1.4691  3.1500
  748MOL0     H 3199   9.140   4.069   9.401 -1.2127  1.1493 -0.9279
  748MOL0     H 3200   9.123   3.925   9.131  0.6054  1.5000 -1.6484
  748MOL0     H 3201   9.271   3.916   9.230 -0.3256 -1.2248 -1.8512
  748MOL0     H 3202   9.154   4.165   9.097 -0.4538 -0.0562  0.2816
  748MOL0     H 3203   9.299   4.087   9.054  1.2654 -1.5791  1.2287
  748MOL0     H 3204   8.356   4.122   9.072 -1.7004  1.1313 -1.8481
  748MOL0     H 3205   8.140   4.168   8.998 -1.9503  2.8687 -0.4343
  748MOL0     H 3206   7.664   4.509   9.189 -3.2331  1.8640  1.2277
  748MOL0     H 3207   7.433   4.505   9.129  1.8117  0.9068  0.9133
  748MOL0     H 3208   5.869   4.498   9.381 -0.8472 -0.3756  1.1747
  748MOL0     H 3209   5.648   4.495   9.458 -1.3074 -0.9748 -2.1906
  748MOL0     H 3210   5.192   4.643   9.373  2.3211  0.8867 -0.1428
  748MOL0     H 3211   4.970   4.608   9.436  0.6780 -1.6737 -0.4541
  748MOL0     H 3212   4.754   4.738   9.733  1.4092 -1.1110  1.0370
  748MOL0     H 3213   4.806   4.731   9.564  3.2827 -0.3687 -0.3013
  748MOL0     H 3214   4.698   4.498   9.558  1.6803 -0.0382  0.2454
  748MOL0     H 3215   4.587   4.643   9.556 -1.9169  0.5512  2.9513
  748MOL0     H 3216   4.511   4.451   9.680  1.3864 -1.7623 -0.7543
  748MOL0     H 3217   4.646   4.464   9.797 -0.5734  0.3388  0.2267
  748MOL0     H 3218   4.413   4.667   9.749  1.0486 -0.0253 -1.3635
  748MOL0     H 3219   4.561   4.706   9.843 -0.7533  1.2685 -1.1982
  748MOL0     H 3220   4.324   4.449  10.082 -1.7759 -0.7537 -2.4249
  748MOL0     H 3221   5.096   4.568   9.849  1.1592  0.3504  0.2762
  748MOL0     H 3222   5.333   4.557   9.916  3.1238 -0.3827  0.6613
  748MOL0     H 3223   5.446   4.518   9.783  3.9204  3.1517  0.8955
  748MOL0     H 3224   5.390   4.686   9.832 -2.1236  1.3291 -1.2394
  749MOL0     O 3225   0.391  10.409   3.256  0.0897  0.3479  0.1247
  749MOL0     C 3226   0.381  10.512   3.192  0.0355 -0.6412  0.9558
  749MOL0     O 3227   0.439  10.630   3.215  0.0892 -0.4460 -0.1083
  749MOL0     C 3228   0.557  10.631   3.284  0.8529  0.5255  0.1786
  749MOL0     C 3229   0.662  10.540   3.271  0.1380  0.0366  0.1489
  749MOL0     C 3230   0.780  10.549   3.347 -0.4036  0.3342  0.6584
  749MOL0     C 3231   0.795  10.654   3.431 -0.5656 -0.3928 -0.6830
  749MOL0     O 3232   0.920  10.670   3.486  0.1534  0.4137  0.1156
  749MOL0     C 3233   0.957  10.806   3.511  0.2523 -0.2135 -0.8225
  749MOL0     C 3234   1.108  10.810   3.529 -0.0472 -0.6638 -0.9442
  749MOL0     C 3235   1.186  10.944   3.556  0.1487 -0.3004 -0.7304
  749MOL0     C 3236   1.212  11.024   3.428 -0.3718  0.0506  0.2742
  749MOL0     C 3237   1.285  11.155   3.463 -0.0126  0.2310 -0.1798
  749MOL0     C 3238   1.283  11.241   3.337 -0.2107 -0.3343  0.4694
  749MOL0     C 3239   1.380  11.363   3.348  0.1346  0.0942  0.1464
  749MOL0     C 3240   1.482  11.358   3.226 -0.1079  0.4264 -0.0099
  749MOL0     N 3241   1.528  11.493   3.202  0.2897 -0.1072 -0.1323
  749MOL0     C 3242   1.460  11.607   3.163  0.5141 -0.1652 -1.4645
  749MOL0     C 3243   1.561  11.693   3.142  0.7110  0.1098  0.8697
  749MOL0     C 3244   1.527  11.830   3.099  0.0261  1.0128  0.0649
  749MOL0     C 3245   1.490  11.914   3.219 -0.6739  0.3298  0.0955
  749MOL0     C 3246   1.420  12.054   3.192 -0.2972  0.1172  0.0075
  749MOL0     C 3247   1.514  12.135   3.106 -0.2580 -0.0210 -0.1570
  749MOL0     O 3248   1.642  12.150   3.165 -0.3070 -0.3904 -0.1674
  749MOL0     C 3249   1.736  12.222   3.091  0.1869 -0.0176  0.2074
  749MOL0     C 3250   1.705  12.309   2.990 -0.0493  0.4364  0.6560
  749MOL0     C 3251   1.790  12.382   2.920  0.2032  0.1368 -0.1858
  749MOL0     C 3252   1.744  12.452   2.794  0.4951  0.6189  0.8359
  749MOL0     C 3253   1.931  12.372   2.955  0.5629  0.0769  0.0663
  749MOL0     C 3254   2.046  12.442   2.892 -0.9530 -0.4999  0.2774
  749MOL0     O 3255   2.170  12.423   2.941  0.0802 -0.3303  0.0619
  749MOL0     C 3256   2.284  12.440   2.872 -0.0603 -0.5262  0.3239
  749MOL0     C 3257   2.365  12.554   2.899 -1.2600 -0.1636  0.5266
  749MOL0     C 3258   2.497  12.563   2.852 -0.1529  0.1074  0.1875
  749MOL0     C 3259   2.542  12.476   2.754 -0.0515 -0.4314 -0.5019
  749MOL0     O 3260   2.664  12.493   2.694 -0.2582 -0.1688 -0.4053
  749MOL0     C 3261   2.691  12.447   2.563  0.0578  0.3467 -0.3765
  749MOL0     C 3262   2.827  12.503   2.519  0.9267 -0.1646 -0.7360
  749MOL0     C 3263   2.851  12.461   2.377  0.6500 -0.1874  0.4608
  749MOL0     C 3264   2.984  12.529   2.331 -1.1294 -0.3125 -0.4671
  749MOL0     C 3265   3.008  12.480   2.191 -0.6201 -0.5673 -0.1515
  749MOL0     C 3266   3.127  12.532   2.120  0.7227  0.7165 -0.1782
  749MOL0     C 3267   3.099  12.681   2.075 -0.0428  0.3415  0.7456
  749MOL0     C 3268   3.224  12.744   2.016  0.0928  0.5411  0.9061
  749MOL0    Cl 3269   3.355  12.778   2.143  0.2067  0.1446  0.2405
  749MOL0     C 3270   2.464  12.361   2.730 -0.4722  0.0183  0.0503
  749MOL0     C 3271   2.330  12.343   2.793 -0.3145  0.7705 -0.3346
  749MOL0     O 3272   2.029  12.517   2.799  0.2377 -0.6368  0.5970
  749MOL0     C 3273   1.968  12.277   3.053 -0.7395 -0.4015  0.2280
  749MOL0     C 3274   1.868  12.207   3.127 -0.1977 -0.8240  0.2582
  749MOL0     N 3275   1.685  11.637   3.152 -0.0463 -0.6008 -0.4870
  749MOL0     N 3276   1.658  11.513   3.191 -0.3293 -0.3723  0.1076
  749MOL0     C 3277   0.685  10.748   3.450 -0.7127  0.4322 -0.0649
  749MOL0     C 3278   0.568  10.732   3.371 -0.2939 -0.3905  0.9424
  749MOL0     C 3279   0.273  10.511   3.093 -0.1750  0.8940  0.2818
  749MOL0     C 3280   0.183  10.397   3.103 -0.3221 -0.6594 -0.5487
  749MOL0     C 3281   0.066  10.395   3.028 -0.0822  0.0848 -0.5134
  749MOL0     C 3282   0.047  10.498   2.937 -0.0746  0.5788  0.3451
  749MOL0     O 3283  -0.067  10.487   2.864  0.1842  0.2966 -0.6124
  749MOL0     C 3284  -0.095  10.582   2.759 -0.0626  0.1545  0.4947
  749MOL0     C 3285  -0.218  10.546   2.675  0.7784  0.6492 -0.3421
  749MOL0     C 3286  -0.257  10.666   2.590 -0.6122 -0.2942  0.0469
  749MOL0     C 3287  -0.394  10.658   2.522  0.6054 -0.0813 -0.5608
  749MOL0     C 3288  -0.394  10.560   2.406 -0.1233  0.4739 -0.4260
  749MOL0     C 3289  -0.394  10.484   2.310 -0.8483 -0.2608  0.2428
  749MOL0     C 3290   0.128  10.605   2.913 -0.2116 -0.2237 -0.3092
  749MOL0     C 3291   0.239  10.613   2.995  0.4449 -1.0413 -0.2174
  749MOL0     C 3292   0.326  10.732   2.956 -1.1372  0.3762 -0.5876
  749MOL0     H 3293   0.637  10.453   3.210  0.2190 -0.0181  0.1937
  749MOL0     H 3294   0.858  10.479   3.318 -0.3334  1.3562 -1.8595
  749MOL0     H 3295   0.921  10.847   3.606  1.6915  1.0282 -0.7791
  749MOL0     H 3296   0.937  10.871   3.426 -2.5387  0.3973  0.1838
  749MOL0     H 3297   1.127  10.758   3.624 -1.6774  0.6496  0.1817
  749MOL0     H 3298   1.153  10.754   3.448  0.1060  2.7498 -3.4340
  749MOL0     H 3299   1.115  11.002   3.617 -1.2083 -1.9885 -0.6064
  749MOL0     H 3300   1.280  10.923   3.607 -0.2780  0.7648  0.5458
  749MOL0     H 3301   1.275  10.960   3.365 -1.2725  0.3161 -0.9056
  749MOL0     H 3302   1.122  11.047   3.372 -0.3349 -0.5363 -0.0379
  749MOL0     H 3303   1.386  11.127   3.492  0.2724  0.3874 -1.0104
  749MOL0     H 3304   1.249  11.224   3.540 -2.8560  1.7040 -2.6135
  749MOL0     H 3305   1.311  11.176   3.254 -0.4324 -1.5309  1.3097
  749MOL0     H 3306   1.186  11.290   3.327  1.4304  2.9332 -0.7824
  749MOL0     H 3307   1.438  11.347   3.439  0.4514 -2.9014 -0.4729
  749MOL0     H 3308   1.324  11.457   3.350 -1.8871 -1.0489  3.0499
  749MOL0     H 3309   1.567  11.292   3.245 -0.3033 -0.8112 -2.8490
  749MOL0     H 3310   1.438  11.321   3.133  0.2084  0.6182 -0.2365
  749MOL0     H 3311   1.353  11.621   3.159  0.7964  3.3938  0.2036
  749MOL0     H 3312   1.434  11.809   3.046 -0.4001 -0.6786  1.3791
  749MOL0     H 3313   1.599  11.870   3.027  0.0893 -0.4813 -0.7428
  749MOL0     H 3314   1.428  11.858   3.290  0.4199 -0.1344  0.7015
  749MOL0     H 3315   1.588  11.927   3.265  1.6412 -1.2212 -3.9654
  749MOL0     H 3316   1.319  12.052   3.150 -0.8865  1.5802  1.2353
  749MOL0     H 3317   1.403  12.102   3.289 -1.7658  2.1216 -1.1659
  749MOL0     H 3318   1.534  12.084   3.011 -0.0378  0.9298 -0.6318
  749MOL0     H 3319   1.476  12.235   3.087  2.5345  1.5306  1.7456
  749MOL0     H 3320   1.599  12.314   2.967 -0.0246 -1.7656 -0.2228
  749MOL0     H 3321   1.791  12.421   2.700  0.8538  1.7843  0.6234
  749MOL0     H 3322   1.761  12.559   2.803 -1.7260  0.9834  1.3357
  749MOL0     H 3323   1.636  12.445   2.778  0.7449 -0.7025 -0.6479
  749MOL0     H 3324   2.326  12.631   2.965 -3.0882 -0.4660 -0.1268
  749MOL0     H 3325   2.569  12.638   2.885 -2.2502  1.9913  0.7840
  749MOL0     H 3326   2.684  12.339   2.548 -3.7108  0.4804 -0.3486
  749MOL0     H 3327   2.617  12.488   2.494  0.0624  1.5839  0.3346
  749MOL0     H 3328   2.826  12.612   2.521  1.4735 -0.1460  1.6072
  749MOL0     H 3329   2.899  12.455   2.586 -0.8927 -1.0881  0.6491
  749MOL0     H 3330   2.769  12.475   2.307  0.8506  0.3573  0.3272
  749MOL0     H 3331   2.858  12.352   2.380 -1.3776 -0.4155 -1.3111
  749MOL0     H 3332   3.062  12.502   2.403 -0.3861  2.2174 -0.2083
  749MOL0     H 3333   2.962  12.637   2.332 -0.9889 -0.2718 -1.2900
  749MOL0     H 3334   3.029  12.374   2.208  0.2572 -0.2415  0.9006
  749MOL0     H 3335   2.926  12.492   2.118  1.6155  2.5863 -2.4447
  749MOL0     H 3336   3.143  12.459   2.040  4.0085  0.8958  0.1977
  749MOL0     H 3337   3.212  12.532   2.188  0.1482 -1.1775  0.6138
  749MOL0     H 3338   3.070  12.742   2.161  2.3776 -0.0158  1.8917
  749MOL0     H 3339   3.012  12.676   2.009  1.7584 -1.8453 -1.6873
  749MOL0     H 3340   3.200  12.839   1.967  1.3136 -0.9760 -3.0464
  749MOL0     H 3341   3.261  12.680   1.935 -0.6214  0.6368  0.5015
  749MOL0     H 3342   2.515  12.287   2.668  0.5301  1.2369 -0.6109
  749MOL0     H 3343   2.267  12.257   2.777 -0.3506  0.1685  2.5052
  749MOL0     H 3344   2.070  12.266   3.087 -0.8578  1.1225  1.1574
  749MOL0     H 3345   1.916  12.135   3.193  0.6343 -0.1308  0.4240
  749MOL0     H 3346   0.706  10.839   3.504 -0.3898 -0.5138  1.4420
  749MOL0     H 3347   0.493  10.810   3.377 -1.3683 -0.7200 -4.1000
  749MOL0     H 3348   0.193  10.316   3.175  1.3732 -1.5764 -1.7417
  749MOL0     H 3349  -0.003  10.315   3.051  1.6267 -0.9845  1.1366
  749MOL0     H 3350  -0.107  10.685   2.795 -1.3584  0.7647 -1.5065
  749MOL0     H 3351  -0.009  10.576   2.693  0.7263 -0.7037  1.5582
  749MOL0     H 3352  -0.301  10.517   2.740  2.6155 -1.0074  1.4183
  749MOL0     H 3353  -0.187  10.453   2.627  0.5870 -0.0193  0.7848
  749MOL0     H 3354  -0.268  10.753   2.655  1.2653 -0.5188  0.7467
  749MOL0     H 3355  -0.173  10.683   2.521 -0.6786 -0.1614 -0.0016
  749MOL0     H 3356  -0.409  10.758   2.480  0.9760  0.2398  0.0624
  749MOL0     H 3357  -0.470  10.630   2.596  0.3585 -0.2812 -0.8881
  749MOL0     H 3358  -0.373  10.414   2.232  0.1285 -0.5896  0.7831
  749MOL0     H 3359   0.114  10.691   2.848 -0.8579  1.1593  1.5809
  749MOL0     H 3360   0.276  10.815   3.007  1.8230  1.0949  1.3466
  749MOL0     H 3361   0.423  10.707   3.000 -1.4204  0.5761  0.1650
  749MOL0     H 3362   0.329  10.762   2.851 -1.5459  2.0506 -0.1491
  750MOL0     O 3363   9.464   2.847   7.520  0.1972 -0.4792 -0.0896
  750MOL0     C 3364   9.417   2.860   7.630 -0.5462 -0.8090 -0.0345
  750MOL0     O 3365   9.479   2.916   7.730 -0.1537  0.6681 -0.8416
  750MOL0     C 3366   9.597   3.001   7.697  0.5193 -0.0745 -0.9649
  750MOL0     C 3367   9.579   3.132   7.652 -0.3160 -0.1120  0.1082
  750MOL0     C 3368   9.695   3.211   7.641  0.3699 -0.9740  0.2494
  750MOL0     C 3369   9.817   3.177   7.695  0.9907 -0.1829 -0.5697
  750MOL0     O 3370   9.919   3.262   7.688 -0.0630  0.6328 -0.8875
  750MOL0     C 3371  10.043   3.229   7.753  0.5730  0.4679 -0.0140
  750MOL0     C 3372  10.122   3.359   7.773  0.4958 -0.2976 -1.3324
  750MOL0     C 3373  10.246   3.340   7.867 -0.5382 -0.6062  0.8395
  750MOL0     C 3374  10.335   3.467   7.836 -0.0845  0.7037  0.0995
  750MOL0     C 3375  10.471   3.473   7.911  0.0904 -0.0238  0.2707
  750MOL0     C 3376  10.556   3.344   7.886  0.7685 -0.0196 -0.2570
  750MOL0     C 3377  10.709   3.352   7.925  0.1086  0.3393 -1.2483
  750MOL0     C 3378  10.798   3.414   7.815  0.2618  0.1823 -0.1054
  750MOL0     N 3379  10.920   3.453   7.886 -0.1476 -0.6025  0.2612
  750MOL0     C 3380  10.999   3.552   7.838 -0.2055 -0.3606  0.1292
  750MOL0     C 3381  11.109   3.559   7.920 -0.9147  0.7207  0.2905
  750MOL0     C 3382  11.241   3.636   7.905  1.2153  0.1383 -0.2036
  750MOL0     C 3383  11.347   3.556   7.815 -0.1745 -0.4931  0.6920
  750MOL0     C 3384  11.480   3.633   7.797  0.2001 -0.8716 -0.3524
  750MOL0     C 3385  11.579   3.565   7.711 -0.1663  0.4626  0.2062
  750MOL0     O 3386  11.668   3.480   7.785 -0.0124 -0.3383  0.6023
  750MOL0     C 3387  11.795   3.451   7.753 -0.4309  0.8411  0.1030
  750MOL0     C 3388  11.879   3.392   7.844 -0.4371  0.4584  0.0230
  750MOL0     C 3389  12.014   3.349   7.813  0.0185 -0.0789  0.9812
  750MOL0     C 3390  12.087   3.263   7.908  0.5164  0.3236  0.2841
  750MOL0     C 3391  12.067   3.380   7.679 -0.3142  0.0866 -0.4656
  750MOL0     C 3392  12.195   3.335   7.621  0.6792  0.2155 -0.9223
  750MOL0     O 3393  12.294   3.430   7.634  0.1670  0.9255 -0.3286
  750MOL0     C 3394  12.421   3.396   7.595  0.7030  0.5294  0.4861
  750MOL0     C 3395  12.496   3.286   7.654 -0.2766 -0.0168  0.5497
  750MOL0     C 3396  12.630   3.273   7.601 -0.0498  0.4012 -0.2433
  750MOL0     C 3397  12.687   3.348   7.499 -0.3592 -0.0865  0.4890
  750MOL0     O 3398  12.819   3.325   7.452  0.3236  0.2567 -0.1307
  750MOL0     C 3399  12.852   3.372   7.316  0.0488  0.0261  1.2939
  750MOL0     C 3400  12.985   3.317   7.279 -0.4154  0.4656  0.1033
  750MOL0     C 3401  13.046   3.371   7.153  0.3882 -0.3818 -0.3945
  750MOL0     C 3402  13.172   3.285   7.127 -0.4977 -0.3295 -0.5678
  750MOL0     C 3403  13.277   3.338   7.021  0.6460  1.0517 -0.3402
  750MOL0     C 3404  13.379   3.427   7.096  0.0433  0.2880 -0.1632
  750MOL0     C 3405  13.502   3.455   7.002  0.1693  0.3869  0.3436
  750MOL0     C 3406  13.621   3.534   7.066 -0.5552 -0.8003 -0.5194
  750MOL0    Cl 3407  13.750   3.551   6.947 -0.0372 -0.1632  0.3338
  750MOL0     C 3408  12.610   3.454   7.457 -0.8417 -0.5738 -0.9321
  750MOL0     C 3409  12.483   3.477   7.500  0.0801 -0.4183 -0.3490
  750MOL0     O 3410  12.198   3.235   7.555  0.3018  0.6730  0.2510
  750MOL0     C 3411  11.984   3.445   7.587  0.2465 -0.1612 -0.2193
  750MOL0     C 3412  11.851   3.488   7.625 -0.3375  0.0286  0.5085
  750MOL0     N 3413  11.090   3.462   8.020  0.2646  0.9256 -0.1616
  750MOL0     N 3414  10.984   3.391   7.989  0.5113 -0.2056  0.6734
  750MOL0     C 3415   9.835   3.037   7.730  0.2165  0.4802  1.2367
  750MOL0     C 3416   9.724   2.952   7.735 -0.7107 -0.9549  0.2168
  750MOL0     C 3417   9.275   2.825   7.652 -0.0536  0.4872  0.8401
  750MOL0     C 3418   9.234   2.774   7.786  0.5542 -0.2651 -0.0990
  750MOL0     C 3419   9.099   2.735   7.804 -0.1355  0.1259 -0.0858
  750MOL0     C 3420   8.999   2.769   7.710 -0.3898  0.1574  0.1728
  750MOL0     O 3421   8.864   2.762   7.729 -0.1388  0.2718  0.4946
  750MOL0     C 3422   8.815   2.681   7.838 -0.0719  0.0257 -0.6731
  750MOL0     C 3423   8.663   2.659   7.826  0.0479  0.2072 -0.3689
  750MOL0     C 3424   8.616   2.558   7.935  0.4152  0.2728 -0.8412
  750MOL0     C 3425   8.465   2.555   7.953  0.7323 -0.2784  0.0046
  750MOL0     C 3426   8.408   2.494   7.829  0.0013 -0.0789  0.2204
  750MOL0     C 3427   8.351   2.460   7.732  0.2753  0.3163 -0.5500
  750MOL0     C 3428   9.035   2.824   7.587  0.1059 -0.0286  0.3581
  750MOL0     C 3429   9.174   2.832   7.549  0.5391 -0.6384  0.4749
  750MOL0     C 3430   9.194   2.888   7.409  0.4722 -0.4946  0.7242
  750MOL0     H 3431   9.486   3.183   7.630  0.0889  1.1624  1.2277
  750MOL0     H 3432   9.700   3.313   7.604 -1.4871 -0.3951  1.4591
  750MOL0     H 3433  10.099   3.148   7.705 -1.3677  0.1717 -1.9327
  750MOL0     H 3434  10.021   3.198   7.856  1.9525 -1.0887 -0.1427
  750MOL0     H 3435  10.152   3.393   7.673  1.0933 -2.1313 -1.8190
  750MOL0     H 3436  10.051   3.426   7.821 -2.1517 -1.9616 -2.7311
  750MOL0     H 3437  10.220   3.334   7.973  3.5369  0.3530  2.0960
  750MOL0     H 3438  10.299   3.249   7.837  0.9230  0.8751 -1.3539
  750MOL0     H 3439  10.348   3.459   7.727  2.4648 -0.9850  0.4485
  750MOL0     H 3440  10.290   3.566   7.850  2.4216  2.0178 -0.5049
  750MOL0     H 3441  10.449   3.481   8.018 -0.2229 -0.4075  0.2375
  750MOL0     H 3442  10.528   3.565   7.895  2.1000 -1.0414  1.2501
  750MOL0     H 3443  10.516   3.261   7.946  2.2461 -0.2393  0.4578
  750MOL0     H 3444  10.550   3.319   7.780 -3.7708  1.0856 -0.4554
  750MOL0     H 3445  10.739   3.250   7.948 -2.6506 -0.1678  0.5703
  750MOL0     H 3446  10.721   3.410   8.017  0.2781 -2.2431  0.4642
  750MOL0     H 3447  10.807   3.345   7.731 -3.6496 -1.6040  0.6948
  750MOL0     H 3448  10.745   3.501   7.775 -1.9560 -1.3146 -0.5731
  750MOL0     H 3449  10.990   3.601   7.741  1.2525  0.3907  0.3513
  750MOL0     H 3450  11.283   3.665   8.002  0.0719 -0.9647  0.6587
  750MOL0     H 3451  11.219   3.728   7.849 -1.2099  0.3407  0.9405
  750MOL0     H 3452  11.364   3.464   7.872 -2.8377  0.1894  2.8477
  750MOL0     H 3453  11.298   3.520   7.725 -0.3994 -1.5442  1.2213
  750MOL0     H 3454  11.459   3.736   7.765 -1.3781 -0.5119  1.5846
  750MOL0     H 3455  11.523   3.646   7.897  3.0093  2.2364 -1.7780
  750MOL0     H 3456  11.538   3.513   7.625  1.0098  3.4480 -2.3693
  750MOL0     H 3457  11.633   3.652   7.670 -1.4295  1.5666  0.8103
  750MOL0     H 3458  11.839   3.370   7.943 -1.1487 -2.5418 -0.8201
  750MOL0     H 3459  12.159   3.329   7.958  2.2742  1.0985 -2.9795
  750MOL0     H 3460  12.122   3.177   7.850 -1.8708 -1.8105  1.7920
  750MOL0     H 3461  12.011   3.217   7.972 -1.7223 -1.1567 -3.1826
  750MOL0     H 3462  12.453   3.222   7.730 -0.9319  0.8965  0.9714
  750MOL0     H 3463  12.691   3.192   7.640 -1.3116  0.0311  1.0655
  750MOL0     H 3464  12.771   3.349   7.246 -0.5726  2.5581  1.0930
  750MOL0     H 3465  12.847   3.480   7.304  1.6132 -0.1534 -1.9180
  750MOL0     H 3466  13.054   3.341   7.360 -1.0884  0.4219  0.7010
  750MOL0     H 3467  12.988   3.208   7.276  1.1880  0.4131  2.1771
  750MOL0     H 3468  13.076   3.476   7.154 -2.8364  0.6608  0.3476
  750MOL0     H 3469  12.968   3.360   7.077 -0.9475 -0.6040  0.9577
  750MOL0     H 3470  13.135   3.185   7.106 -0.7137  0.1500 -2.6510
  750MOL0     H 3471  13.223   3.277   7.223  2.2553 -1.4284 -2.0105
  750MOL0     H 3472  13.326   3.252   6.973 -0.4632 -0.2913  0.8559
  750MOL0     H 3473  13.226   3.390   6.939 -1.1835 -1.8845 -1.2192
  750MOL0     H 3474  13.422   3.372   7.180 -0.9490 -0.7873 -0.3338
  750MOL0     H 3475  13.330   3.520   7.128  2.9059  2.3019 -1.2073
  750MOL0     H 3476  13.462   3.505   6.913 -1.4808 -2.3587 -0.5766
  750MOL0     H 3477  13.544   3.365   6.955 -0.8211  1.3577 -2.6224
  750MOL0     H 3478  13.656   3.468   7.146 -0.1739  0.0794  0.0524
  750MOL0     H 3479  13.591   3.632   7.104 -1.7020 -0.6284 -1.7818
  750MOL0     H 3480  12.643   3.535   7.392 -0.4605 -1.2052 -1.5376
  750MOL0     H 3481  12.426   3.561   7.463 -0.4794 -0.2869  0.7598
  750MOL0     H 3482  12.029   3.469   7.491  1.2752 -1.1084  0.0057
  750MOL0     H 3483  11.785   3.551   7.566 -0.3856 -0.4752  0.0196
  750MOL0     H 3484   9.929   2.994   7.762 -0.2418 -0.3997  1.4182
  750MOL0     H 3485   9.718   2.854   7.780 -2.1339 -0.4820  1.1490
  750MOL0     H 3486   9.294   2.761   7.875 -1.1278  0.2027  1.1443
  750MOL0     H 3487   9.070   2.695   7.900 -2.1309 -2.5954 -1.7012
  750MOL0     H 3488   8.851   2.578   7.845  0.2486  0.1246 -0.8626
  750MOL0     H 3489   8.835   2.726   7.935 -2.3315  0.9873 -0.5950
  750MOL0     H 3490   8.648   2.618   7.725  0.5605 -0.7267 -0.0757
  750MOL0     H 3491   8.609   2.753   7.841  0.2895  1.2080 -4.4112
  750MOL0     H 3492   8.655   2.457   7.919 -0.9475 -0.7120  1.5052
  750MOL0     H 3493   8.655   2.590   8.031  0.9390 -1.9678 -0.2751
  750MOL0     H 3494   8.442   2.661   7.967  1.2827 -0.0231 -0.9588
  750MOL0     H 3495   8.442   2.496   8.042 -1.3263  3.5271  2.2853
  750MOL0     H 3496   8.310   2.435   7.636 -0.8018 -1.6603  0.3615
  750MOL0     H 3497   8.959   2.863   7.519  1.8037  0.3218 -1.4465
  750MOL0     H 3498   9.243   2.820   7.339  1.1526 -0.5421  1.2371
  750MOL0     H 3499   9.101   2.911   7.356  1.1172 -1.9057 -1.1324
  750MOL0     H 3500   9.252   2.981   7.410  0.9291 -0.6948 -1.5150
  751MOL0     O 3501   8.697   8.520   1.157  0.7640 -0.2892 -0.0841
  751MOL0     C 3502   8.632   8.483   1.055 -0.8660 -0.7606 -1.0113
  751MOL0     O 3503   8.688   8.415   0.951  0.0864  1.1816  0.1321
  751MOL0     C 3504   8.820   8.414   0.941 -0.4579  0.8249  0.0823
  751MOL0     C 3505   8.872   8.496   0.842 -0.0601 -0.0056  0.2899
  751MOL0     C 3506   9.014   8.497   0.814 -0.1184 -0.6008  0.3175
  751MOL0     C 3507   9.101   8.419   0.887  0.4733 -0.6017  0.2196
  751MOL0     O 3508   9.238   8.416   0.861 -0.3999  0.1568  0.1319
  751MOL0     C 3509   9.316   8.320   0.933  0.0075  0.4982  0.9285
  751MOL0     C 3510   9.431   8.290   0.836 -0.6672  0.4099 -0.1601
  751MOL0     C 3511   9.491   8.418   0.768  0.0916  0.1917 -0.0121
  751MOL0     C 3512   9.640   8.400   0.774 -0.3005  0.0356  0.2285
  751MOL0     C 3513   9.698   8.539   0.737  0.7840 -0.1858  0.0314
  751MOL0     C 3514   9.841   8.556   0.784  0.5501  0.5709 -0.2926
  751MOL0     C 3515   9.912   8.686   0.733  0.2447  0.9157  0.5411
  751MOL0     C 3516  10.069   8.677   0.762 -0.4684  0.7082  0.0524
  751MOL0     N 3517  10.132   8.813   0.765  0.1327  0.3669 -0.0368
  751MOL0     C 3518  10.150   8.887   0.648  0.9760  0.0593 -1.0535
  751MOL0     C 3519  10.177   9.013   0.699 -0.7190  0.2661  0.5438
  751MOL0     C 3520  10.225   9.128   0.607  0.3914  0.2600 -0.2797
  751MOL0     C 3521  10.369   9.107   0.573 -0.0771 -0.6621 -0.1981
  751MOL0     C 3522  10.420   9.226   0.486 -0.1653  0.3146 -0.2012
  751MOL0     C 3523  10.567   9.219   0.432  0.0596  0.4964  0.3400
  751MOL0     O 3524  10.591   9.108   0.343  0.6425  0.7842  0.2979
  751MOL0     C 3525  10.562   9.125   0.211  0.4341  0.0585  0.2102
  751MOL0     C 3526  10.446   9.073   0.149  0.1436  0.0674 -0.4951
  751MOL0     C 3527  10.434   9.081   0.007  0.1214 -0.5104 -0.5574
  751MOL0     C 3528  10.291   9.042  -0.042  1.3708  0.9128  0.1623
  751MOL0     C 3529  10.523   9.155  -0.067 -0.0359 -0.2520  1.1696
  751MOL0     C 3530  10.517   9.160  -0.212  0.8631 -0.0591  0.6545
  751MOL0     O 3531  10.605   9.252  -0.277 -0.3830  0.0754 -0.6539
  751MOL0     C 3532  10.596   9.268  -0.413 -0.1392 -0.3547  0.3540
  751MOL0     C 3533  10.487   9.332  -0.470 -0.3934  0.3825 -0.9103
  751MOL0     C 3534  10.485   9.343  -0.610  0.3445 -0.0459 -1.2238
  751MOL0     C 3535  10.584   9.300  -0.689 -0.0676 -1.1500  1.0576
  751MOL0     O 3536  10.571   9.301  -0.829 -0.2292 -0.0392 -0.0835
  751MOL0     C 3537  10.646   9.411  -0.881 -0.3025  0.6212  0.4278
  751MOL0     C 3538  10.673   9.397  -1.031 -0.0095 -0.1599  0.2909
  751MOL0     C 3539  10.751   9.264  -1.063  0.1734  0.1812 -0.4581
  751MOL0     C 3540  10.802   9.270  -1.207 -0.5122 -0.1297 -0.2643
  751MOL0     C 3541  10.848   9.138  -1.252 -0.2717  0.7513 -0.0479
  751MOL0     C 3542  10.923   9.140  -1.386 -0.6118  0.2848  0.0863
  751MOL0     C 3543  10.826   9.139  -1.513  0.0803  0.2558 -0.0687
  751MOL0     C 3544  10.888   9.219  -1.623  0.3399  0.0771  0.1449
  751MOL0    Cl 3545  10.898   9.384  -1.555 -0.3205 -0.9132  0.0004
  751MOL0     C 3546  10.704   9.252  -0.634  0.4492 -0.0225  0.3036
  751MOL0     C 3547  10.708   9.228  -0.494  0.0971  0.6099  0.2443
  751MOL0     O 3548  10.437   9.089  -0.279  0.2903 -0.2692 -0.7942
  751MOL0     C 3549  10.638   9.207  -0.003  1.2625  0.0165  0.8522
  751MOL0     C 3550  10.652   9.195   0.130 -0.4211  1.3239 -0.0654
  751MOL0     N 3551  10.171   9.020   0.841  0.4706 -0.2647 -0.2074
  751MOL0     N 3552  10.143   8.898   0.874  0.6904 -0.1180  0.5332
  751MOL0     C 3553   9.044   8.350   0.997  0.0830 -0.2674  0.8674
  751MOL0     C 3554   8.909   8.351   1.028 -0.0753  0.5846  0.4069
  751MOL0     C 3555   8.498   8.534   1.046  0.3359  0.4753  0.0920
  751MOL0     C 3556   8.461   8.643   1.114  0.0246  0.1824 -0.1540
  751MOL0     C 3557   8.332   8.696   1.128 -0.4483  0.4486 -0.7694
  751MOL0     C 3558   8.225   8.633   1.061  0.4464  0.0268 -0.2133
  751MOL0     O 3559   8.102   8.691   1.071  0.5176 -0.3360  0.1362
  751MOL0     C 3560   7.987   8.634   1.020 -0.8226 -0.5428 -0.3543
  751MOL0     C 3561   7.869   8.696   1.086  0.4210 -1.0152 -0.1945
  751MOL0     C 3562   7.845   8.640   1.224  0.4147  1.1164 -0.7093
  751MOL0     C 3563   7.700   8.636   1.286  0.2031 -0.5544  0.2367
  751MOL0     C 3564   7.627   8.757   1.254 -0.2211 -0.2222  0.3416
  751MOL0     C 3565   7.579   8.864   1.222 -0.0662 -0.9018 -0.0924
  751MOL0     C 3566   8.256   8.519   0.983 -0.3999  0.1083  0.3551
  751MOL0     C 3567   8.391   8.464   0.984 -0.2318  0.5775  0.3307
  751MOL0     C 3568   8.418   8.335   0.910  0.1764  0.4635 -0.0734
  751MOL0     H 3569   8.812   8.565   0.785  2.3852  0.2494 -2.2214
  751MOL0     H 3570   9.062   8.569   0.748  0.4261  0.5359  1.8773
  751MOL0     H 3571   9.261   8.228   0.954 -1.6028  0.7230 -1.8707
  751MOL0     H 3572   9.342   8.363   1.031 -0.8826 -1.4813  2.1074
  751MOL0     H 3573   9.505   8.234   0.894 -0.9294  0.6288  0.3933
  751MOL0     H 3574   9.386   8.215   0.770 -1.2365  0.4297  0.2006
  751MOL0     H 3575   9.446   8.434   0.669 -0.4746 -1.5555 -0.0656
  751MOL0     H 3576   9.459   8.505   0.825  0.5903 -0.9309  2.0666
  751MOL0     H 3577   9.667   8.394   0.880 -0.2844  1.2554  0.3081
  751MOL0     H 3578   9.676   8.318   0.711  0.7089  2.5201 -2.7038
  751MOL0     H 3579   9.641   8.619   0.786  1.2340 -0.2425  0.6696
  751MOL0     H 3580   9.695   8.536   0.628  1.6095 -2.4171  0.0254
  751MOL0     H 3581   9.845   8.548   0.893 -2.6923  0.3457 -0.0995
  751MOL0     H 3582   9.887   8.465   0.746  1.9353  2.1810 -2.7708
  751MOL0     H 3583   9.865   8.769   0.788  2.3987  3.2415 -0.9251
  751MOL0     H 3584   9.895   8.688   0.625  0.9722  1.3600  0.4298
  751MOL0     H 3585  10.083   8.619   0.854  2.3732 -2.6625 -2.2756
  751MOL0     H 3586  10.111   8.623   0.677 -1.6864  3.6444 -2.6514
  751MOL0     H 3587  10.154   8.849   0.546  1.2396  1.8155 -1.7384
  751MOL0     H 3588  10.209   9.221   0.662 -0.1941 -0.9539  1.7190
  751MOL0     H 3589  10.169   9.114   0.514 -0.3643 -2.2845  0.4710
  751MOL0     H 3590  10.432   9.101   0.662  0.7926  1.4569 -0.6227
  751MOL0     H 3591  10.386   9.011   0.523  0.9165 -1.7352  2.0229
  751MOL0     H 3592  10.349   9.241   0.403 -3.1142 -2.5658  1.5243
  751MOL0     H 3593  10.405   9.319   0.540 -0.4847  0.2633 -0.1941
  751MOL0     H 3594  10.587   9.308   0.371  0.2096 -1.0744 -2.0443
  751MOL0     H 3595  10.631   9.213   0.520 -1.8543 -1.9360  1.7061
  751MOL0     H 3596  10.386   9.015   0.219 -1.1646 -1.5631 -2.8132
  751MOL0     H 3597  10.295   8.958  -0.112  0.8671  2.1417 -1.3888
  751MOL0     H 3598  10.241   9.117  -0.103 -1.0733 -0.6592  0.0985
  751MOL0     H 3599  10.217   9.018   0.035  0.9399  0.6673 -0.3233
  751MOL0     H 3600  10.400   9.359  -0.409  1.6158  1.6001  1.6266
  751MOL0     H 3601  10.387   9.382  -0.637 -1.5725 -1.9323  2.3759
  751MOL0     H 3602  10.580   9.499  -0.875  2.9462  3.5779 -2.3675
  751MOL0     H 3603  10.741   9.419  -0.828 -1.3479  1.0822  2.3034
  751MOL0     H 3604  10.582   9.398  -1.092  0.2725 -0.9897 -0.1593
  751MOL0     H 3605  10.732   9.487  -1.051 -1.1492  1.7133  4.2306
  751MOL0     H 3606  10.680   9.181  -1.058 -0.3615  0.7140  1.3145
  751MOL0     H 3607  10.831   9.241  -0.993  1.0468 -0.0117 -1.4924
  751MOL0     H 3608  10.882   9.344  -1.216  0.8737 -1.6494 -1.0690
  751MOL0     H 3609  10.713   9.293  -1.266 -0.2528 -1.2716 -1.1378
  751MOL0     H 3610  10.917   9.091  -1.181 -1.3863 -1.6997 -0.4677
  751MOL0     H 3611  10.761   9.072  -1.256 -0.8065  0.8980  4.3578
  751MOL0     H 3612  10.984   9.049  -1.389  0.3999  0.9627 -1.4430
  751MOL0     H 3613  10.999   9.220  -1.388  0.2882 -0.4740  1.9730
  751MOL0     H 3614  10.728   9.176  -1.482  0.0293 -0.5334  0.7804
  751MOL0     H 3615  10.805   9.040  -1.555 -1.2914  0.8798 -0.9063
  751MOL0     H 3616  10.830   9.218  -1.716  2.3533 -1.7798 -1.1750
  751MOL0     H 3617  10.980   9.166  -1.646 -2.3653 -4.0831 -2.3717
  751MOL0     H 3618  10.777   9.217  -0.707 -1.3149  2.6420 -3.0777
  751MOL0     H 3619  10.796   9.184  -0.447  0.2458 -1.3183 -1.7161
  751MOL0     H 3620  10.727   9.246  -0.051  2.8689 -1.8214  2.1769
  751MOL0     H 3621  10.740   9.244   0.170 -0.6760  1.3692  0.4459
  751MOL0     H 3622   9.103   8.288   1.064  1.3720  1.4316  1.3785
  751MOL0     H 3623   8.873   8.291   1.111  1.2656 -0.3916  0.3175
  751MOL0     H 3624   8.540   8.682   1.176  1.6360 -4.0756  0.7939
  751MOL0     H 3625   8.318   8.790   1.181  2.4815  1.2895 -1.2968
  751MOL0     H 3626   7.986   8.639   0.911  0.2349  1.7691 -0.3306
  751MOL0     H 3627   7.992   8.527   1.040  1.1635 -0.8566 -2.1507
  751MOL0     H 3628   7.784   8.679   1.019  0.1681  2.5548 -1.0079
  751MOL0     H 3629   7.873   8.805   1.081  2.6623 -1.0617 -0.3743
  751MOL0     H 3630   7.884   8.538   1.232 -0.2850  0.8775 -0.2841
  751MOL0     H 3631   7.905   8.694   1.298 -0.1731  1.3666 -0.4091
  751MOL0     H 3632   7.706   8.625   1.395  2.3939 -0.4538  0.1763
  751MOL0     H 3633   7.639   8.557   1.241 -0.4365 -1.7348  2.9547
  751MOL0     H 3634   7.550   8.964   1.195  0.2259 -1.2258 -1.7079
  751MOL0     H 3635   8.170   8.467   0.945  0.1519 -0.4966 -0.0824
  751MOL0     H 3636   8.477   8.368   0.824  1.1947 -0.8537  0.0908
  751MOL0     H 3637   8.469   8.270   0.982  3.8675  0.8211 -2.1245
  751MOL0     H 3638   8.317   8.300   0.884 -0.4549  1.7134  0.6260
  752MOL0     O 3639   1.984  10.498   7.838 -0.1828 -0.3887  0.6589
  752MOL0     C 3640   1.957  10.445   7.950  0.6244  0.4949 -0.6810
  752MOL0     O 3641   2.048  10.391   8.039  0.7104  0.0308  0.0815
  752MOL0     C 3642   2.166  10.332   7.994 -0.2700 -0.0358 -0.4567
  752MOL0     C 3643   2.176  10.274   7.869 -0.1833  0.7299  0.4823
  752MOL0     C 3644   2.290  10.214   7.828  0.3054  0.6118  0.4707
  752MOL0     C 3645   2.396  10.192   7.909  0.5322  1.0408 -1.0001
  752MOL0     O 3646   2.509  10.120   7.869 -0.1955 -0.0557  0.1766
  752MOL0     C 3647   2.618  10.082   7.961  1.1243  0.1233  0.4516
  752MOL0     C 3648   2.731  10.010   7.883  0.6569  0.2706 -0.2083
  752MOL0     C 3649   2.825  10.103   7.815 -0.5882  0.7129 -0.1108
  752MOL0     C 3650   2.931  10.038   7.729  0.2894 -0.3268 -0.4480
  752MOL0     C 3651   3.017  10.146   7.669  0.5588 -0.4741 -0.0910
  752MOL0     C 3652   3.080  10.085   7.542  0.1083 -0.2942  0.4620
  752MOL0     C 3653   3.130  10.194   7.447  0.4971  0.6462 -0.5616
  752MOL0     C 3654   3.209  10.131   7.331  0.9353 -0.2690 -0.7243
  752MOL0     N 3655   3.330  10.066   7.396  0.7263  0.4087  0.9526
  752MOL0     C 3656   3.422  10.138   7.462  0.0290  0.3214  0.1136
  752MOL0     C 3657   3.530  10.059   7.468 -0.3378  0.6709 -0.0437
  752MOL0     C 3658   3.659  10.100   7.540 -0.1092 -0.8955 -0.2229
  752MOL0     C 3659   3.753   9.982   7.579 -0.5247  0.3307 -0.7455
  752MOL0     C 3660   3.693   9.922   7.717  0.0830 -0.2008  0.3304
  752MOL0     C 3661   3.775   9.806   7.782  0.7190 -0.4973 -0.2327
  752MOL0     O 3662   3.912   9.839   7.779  0.2731  0.0605 -0.3458
  752MOL0     C 3663   4.008   9.747   7.810 -0.0536  0.3183 -0.2044
  752MOL0     C 3664   3.972   9.616   7.863  0.5550 -0.1293  0.5935
  752MOL0     C 3665   4.072   9.520   7.902 -0.3246  0.3090  0.1806
  752MOL0     C 3666   4.025   9.377   7.957  0.3853 -0.5462 -0.0880
  752MOL0     C 3667   4.214   9.554   7.888  0.2353 -0.3314 -0.3707
  752MOL0     C 3668   4.328   9.466   7.928  0.0744 -0.9883 -0.8452
  752MOL0     O 3669   4.447   9.509   7.871 -0.2112 -0.4312  0.5316
  752MOL0     C 3670   4.566   9.481   7.923  0.3967  0.8830  0.7658
  752MOL0     C 3671   4.616   9.351   7.901  0.3260 -0.2761  0.4471
  752MOL0     C 3672   4.748   9.324   7.937 -0.2159 -0.1718  0.4381
  752MOL0     C 3673   4.824   9.406   8.013 -0.5313 -0.1757 -0.4990
  752MOL0     O 3674   4.956   9.374   8.047 -0.1865  0.1103  0.7463
  752MOL0     C 3675   4.991   9.240   8.052  0.4696  0.1635  0.2133
  752MOL0     C 3676   5.128   9.222   8.119  0.2685 -0.3215  0.3535
  752MOL0     C 3677   5.154   9.075   8.158 -0.2418  1.1320 -0.2915
  752MOL0     C 3678   5.153   8.975   8.037  0.9463 -0.0686 -0.6122
  752MOL0     C 3679   5.225   8.842   8.076  0.3899 -0.0533  0.0558
  752MOL0     C 3680   5.225   8.737   7.952 -0.2016 -0.3421 -0.2108
  752MOL0     C 3681   5.286   8.607   7.997  0.3435 -0.3726 -0.1815
  752MOL0     C 3682   5.228   8.495   7.919 -0.2322 -0.5938  0.1938
  752MOL0    Cl 3683   5.299   8.343   7.954 -0.0424 -0.0723 -0.0233
  752MOL0     C 3684   4.770   9.526   8.054 -0.3042 -0.1671  0.4756
  752MOL0     C 3685   4.645   9.568   7.996  0.5962 -0.0165 -0.0180
  752MOL0     O 3686   4.317   9.369   8.011 -0.5964 -0.4669  0.5471
  752MOL0     C 3687   4.238   9.685   7.843  0.0342 -0.2836  0.0890
  752MOL0     C 3688   4.145   9.782   7.812 -0.8062 -0.6841 -0.5839
  752MOL0     N 3689   3.494   9.937   7.405  0.0133 -0.0733  0.3165
  752MOL0     N 3690   3.377   9.946   7.369  0.8233 -0.1840  0.1922
  752MOL0     C 3691   2.384  10.247   8.038 -0.2287  0.3528 -0.6745
  752MOL0     C 3692   2.275  10.322   8.083  0.5519 -0.2970  0.9251
  752MOL0     C 3693   1.816  10.439   7.991 -1.1655  0.4605 -0.5310
  752MOL0     C 3694   1.753  10.564   7.986 -0.2061 -0.1154  0.1312
  752MOL0     C 3695   1.622  10.571   8.034 -0.2839  0.0509 -0.5923
  752MOL0     C 3696   1.554  10.463   8.091  0.5529  0.1241 -0.3649
  752MOL0     O 3697   1.425  10.480   8.134 -0.5987  0.5791  0.0880
  752MOL0     C 3698   1.360  10.369   8.209  0.7121 -0.1902 -0.4591
  752MOL0     C 3699   1.235  10.431   8.271 -0.0971 -0.9498  0.2545
  752MOL0     C 3700   1.168  10.348   8.378 -0.1510  0.0184  0.0112
  752MOL0     C 3701   1.049  10.428   8.432  0.0522  0.9671  0.2740
  752MOL0     C 3702   0.948  10.341   8.493 -0.5411  0.4444 -1.3853
  752MOL0     C 3703   0.874  10.274   8.558  0.4479  0.7842 -0.4561
  752MOL0     C 3704   1.627  10.342   8.104  0.1528 -0.3806  0.3993
  752MOL0     C 3705   1.755  10.328   8.057 -0.1499  0.8893 -0.0267
  752MOL0     C 3706   1.821  10.190   8.068 -0.8701  0.2605 -0.5009
  752MOL0     H 3707   2.092  10.272   7.800  1.1358  0.0868 -1.1546
  752MOL0     H 3708   2.303  10.175   7.727  1.4181  0.6424  0.5901
  752MOL0     H 3709   2.592  10.012   8.041  0.5277 -1.4225 -1.0248
  752MOL0     H 3710   2.653  10.176   8.004  0.4742  0.1434  0.9430
  752MOL0     H 3711   2.795   9.950   7.949 -0.3940  0.2075  0.7750
  752MOL0     H 3712   2.693   9.939   7.809  1.5375  0.3757 -0.7768
  752MOL0     H 3713   2.764  10.169   7.754  0.2750  0.2136 -1.5696
  752MOL0     H 3714   2.882  10.166   7.884 -0.1027 -1.7741  1.9032
  752MOL0     H 3715   2.983   9.954   7.776 -0.9885 -0.7178  0.3601
  752MOL0     H 3716   2.873   9.996   7.646  0.0263 -0.7343 -0.0726
  752MOL0     H 3717   3.082  10.194   7.742 -1.9305  0.4901  1.6344
  752MOL0     H 3718   2.954  10.224   7.625  1.3840 -1.4189 -3.1947
  752MOL0     H 3719   3.164  10.024   7.578  1.3529  0.6038 -0.7840
  752MOL0     H 3720   3.013  10.019   7.487 -1.4679  1.8293 -0.3315
  752MOL0     H 3721   3.187  10.272   7.498 -1.8305  2.3621 -0.4379
  752MOL0     H 3722   3.043  10.243   7.402 -0.9987 -2.1614 -0.9896
  752MOL0     H 3723   3.150  10.048   7.293 -1.3546  0.5125  0.8918
  752MOL0     H 3724   3.229  10.203   7.251  0.9709 -0.3760 -0.8116
  752MOL0     H 3725   3.413  10.242   7.495 -1.1802  1.0348 -2.2663
  752MOL0     H 3726   3.628  10.148   7.633  2.4138  0.1940  0.1457
  752MOL0     H 3727   3.710  10.170   7.473 -2.7670 -1.9074 -3.6088
  752MOL0     H 3728   3.770   9.908   7.499 -2.4125  0.0012 -0.8913
  752MOL0     H 3729   3.849  10.031   7.594 -0.8370  0.8877 -0.5434
  752MOL0     H 3730   3.705  10.006   7.786 -2.6314  0.1114  0.5137
  752MOL0     H 3731   3.587   9.898   7.709 -0.2256  0.5530  1.8034
  752MOL0     H 3732   3.745   9.793   7.886 -1.0711  2.3746 -0.2772
  752MOL0     H 3733   3.763   9.718   7.717  1.3593 -0.5040 -0.3405
  752MOL0     H 3734   3.870   9.580   7.869  0.6581 -0.3570  0.9709
  752MOL0     H 3735   3.925   9.350   7.922  0.8277 -1.2945 -0.8113
  752MOL0     H 3736   4.021   9.385   8.066  0.4642 -2.4423  0.0754
  752MOL0     H 3737   4.090   9.299   7.916 -0.3893 -1.5340  0.5174
  752MOL0     H 3738   4.555   9.275   7.851  1.7726 -1.4775  0.4515
  752MOL0     H 3739   4.786   9.227   7.904  1.4297  0.4437  0.4054
  752MOL0     H 3740   4.916   9.184   8.108  1.3843 -0.1221  1.1937
  752MOL0     H 3741   4.988   9.211   7.947 -0.3758 -0.9118  0.5190
  752MOL0     H 3742   5.214   9.244   8.054 -1.4213 -2.6903 -2.9742
  752MOL0     H 3743   5.139   9.289   8.205  2.9579 -1.1394  0.7468
  752MOL0     H 3744   5.075   9.052   8.229  1.2890  0.2229  1.1889
  752MOL0     H 3745   5.251   9.079   8.208 -0.2410  3.6742 -0.3337
  752MOL0     H 3746   5.200   9.012   7.945  1.6812 -0.6838 -0.4905
  752MOL0     H 3747   5.047   8.957   8.016  0.7078 -1.4995  1.5492
  752MOL0     H 3748   5.328   8.865   8.107 -0.1730  2.3032  0.3856
  752MOL0     H 3749   5.178   8.797   8.164 -0.0013 -1.2885 -0.7601
  752MOL0     H 3750   5.279   8.778   7.866 -2.2965 -0.0915 -1.4770
  752MOL0     H 3751   5.121   8.736   7.916 -0.6619  0.1712  1.0449
  752MOL0     H 3752   5.278   8.597   8.105 -0.9691  0.8746 -0.1413
  752MOL0     H 3753   5.393   8.590   7.978  0.6693  0.3638  0.9004
  752MOL0     H 3754   5.230   8.517   7.812 -4.1582  3.7158  0.6473
  752MOL0     H 3755   5.123   8.490   7.949 -0.2520 -1.8491 -0.0408
  752MOL0     H 3756   4.833   9.593   8.111 -0.5495 -0.0832  0.6474
  752MOL0     H 3757   4.609   9.668   8.014  1.7909  0.4899 -0.3156
  752MOL0     H 3758   4.337   9.728   7.836 -0.5969  1.1885 -0.1903
  752MOL0     H 3759   4.185   9.882   7.799  1.8720 -1.6286 -0.2322
  752MOL0     H 3760   2.469  10.236   8.105 -1.1422 -0.6142  0.3677
  752MOL0     H 3761   2.280  10.369   8.181  1.7269  0.3923  0.5506
  752MOL0     H 3762   1.801  10.654   7.950  0.3098 -0.3935  0.1100
  752MOL0     H 3763   1.565  10.664   8.037 -3.2862 -1.6773  1.8521
  752MOL0     H 3764   1.314  10.287   8.153  0.8227 -0.0994 -0.6827
  752MOL0     H 3765   1.428  10.333   8.287 -0.4210  0.5333  0.9005
  752MOL0     H 3766   1.161  10.450   8.193 -0.0093 -2.0706 -0.1238
  752MOL0     H 3767   1.261  10.526   8.318  0.2103  0.0687 -1.8835
  752MOL0     H 3768   1.145  10.254   8.328  1.0207  0.5913 -1.6893
  752MOL0     H 3769   1.238  10.322   8.459 -0.5421 -2.0972 -0.2795
  752MOL0     H 3770   0.998  10.482   8.351  1.6930 -0.1284 -1.5646
  752MOL0     H 3771   1.074  10.506   8.504 -1.8344  0.6944  1.2870
  752MOL0     H 3772   0.810  10.217   8.622  0.5787 -2.0253 -2.6377
  752MOL0     H 3773   1.581  10.254   8.149  1.3613 -1.5946 -0.6411
  752MOL0     H 3774   1.862  10.155   7.973  0.9400  2.8368 -0.7453
  752MOL0     H 3775   1.905  10.194   8.137 -2.1918 -0.0445  1.2138
  752MOL0     H 3776   1.755  10.119   8.120 -0.2320 -0.9069 -1.2347
  753MOL0     O 3777   5.781   9.905   6.276 -0.2671 -0.3777  0.1724
  753MOL0     C 3778   5.746   9.861   6.387 -0.7554  0.2075 -0.6577
  753MOL0     O 3779   5.798   9.892   6.507 -0.0963 -0.0437  0.2781
  753MOL0     C 3780   5.891   9.992   6.514 -0.4745 -0.4688  0.2841
  753MOL0     C 3781   6.016   9.961   6.570 -0.1089  0.2562  0.3543
  753MOL0     C 3782   6.113  10.060   6.600  0.4769 -0.5168 -0.0144
  753MOL0     C 3783   6.100  10.188   6.552 -0.1458 -1.5400 -0.1493
  753MOL0     O 3784   6.200  10.279   6.568  0.1113 -0.6844 -0.2737
  753MOL0     C 3785   6.283  10.296   6.456  0.1338  0.5234  0.0854
  753MOL0     C 3786   6.379  10.416   6.487  0.1457 -0.1058  1.2030
  753MOL0     C 3787   6.455  10.458   6.357 -0.1383  0.2711  0.6030
  753MOL0     C 3788   6.565  10.347   6.324  0.6071 -0.3525 -0.2930
  753MOL0     C 3789   6.699  10.404   6.273  0.2683 -0.5759 -0.2067
  753MOL0     C 3790   6.805  10.300   6.279 -0.1632  0.1590  1.5268
  753MOL0     C 3791   6.924  10.359   6.192 -0.0693 -0.1733  0.3193
  753MOL0     C 3792   7.034  10.260   6.209  0.2949  0.5515  1.2649
  753MOL0     N 3793   7.164  10.314   6.168 -0.3871 -0.0569 -0.4106
  753MOL0     C 3794   7.235  10.423   6.216  0.7635  0.0217  0.2308
  753MOL0     C 3795   7.345  10.436   6.135 -0.5871 -0.0300  0.1009
  753MOL0     C 3796   7.454  10.539   6.134  0.0599 -0.7800  0.4980
  753MOL0     C 3797   7.592  10.476   6.177  1.0627 -0.6846  0.3335
  753MOL0     C 3798   7.656  10.420   6.046  0.9666  0.2192  0.4103
  753MOL0     C 3799   7.782  10.342   6.082  0.0347 -0.5955  0.1381
  753MOL0     O 3800   7.832  10.272   5.965 -0.8300  0.1959  0.3437
  753MOL0     C 3801   7.967  10.279   5.947 -0.2675  0.7080  0.0481
  753MOL0     C 3802   8.016  10.320   5.828  0.4954 -0.2826  0.7535
  753MOL0     C 3803   8.156  10.339   5.799  1.3890  0.0907 -0.2304
  753MOL0     C 3804   8.190  10.384   5.659  0.2816 -0.4442 -0.8308
  753MOL0     C 3805   8.243  10.280   5.899  0.0252  0.0512  0.8219
  753MOL0     C 3806   8.396  10.270   5.885 -0.1524  0.7752  0.8999
  753MOL0     O 3807   8.464  10.181   5.958  0.4465  0.0715 -0.0922
  753MOL0     C 3808   8.604  10.177   5.962 -0.2146  1.2504  1.0186
  753MOL0     C 3809   8.663  10.210   6.077  0.1386 -0.2462 -0.0382
  753MOL0     C 3810   8.804  10.233   6.078  0.3689 -0.0043 -0.0895
  753MOL0     C 3811   8.882  10.233   5.966 -0.3960 -0.4375  0.7914
  753MOL0     O 3812   9.011  10.277   5.965 -0.9647 -0.1247  0.3877
  753MOL0     C 3813   9.087  10.292   6.087  0.9988  0.4258 -0.2189
  753MOL0     C 3814   9.223  10.328   6.050  0.4660  0.1999  0.2811
  753MOL0     C 3815   9.306  10.355   6.179  0.5655 -0.1084 -0.1884
  753MOL0     C 3816   9.450  10.396   6.154  0.5196  0.9027 -0.1223
  753MOL0     C 3817   9.530  10.368   6.275  0.8061  0.2612  1.0405
  753MOL0     C 3818   9.678  10.378   6.256  0.3615  0.3286  0.6130
  753MOL0     C 3819   9.720  10.528   6.249  0.2401  0.0011 -0.2206
  753MOL0     C 3820   9.869  10.553   6.241  0.3685  0.9581  0.3808
  753MOL0    Cl 3821   9.959  10.505   6.391 -0.0784  0.0737  0.2567
  753MOL0     C 3822   8.823  10.183   5.844 -0.1105 -0.3039 -0.3950
  753MOL0     C 3823   8.686  10.158   5.846  0.0200 -0.4029  0.3486
  753MOL0     O 3824   8.443  10.353   5.810  0.2819  0.2920 -0.0915
  753MOL0     C 3825   8.197  10.238   6.023 -0.0036  0.4177 -0.6716
  753MOL0     C 3826   8.060  10.234   6.048  0.0364 -0.6186  0.3661
  753MOL0     N 3827   7.339  10.330   6.042  0.3652 -0.6974 -0.3201
  753MOL0     N 3828   7.231  10.263   6.064  0.3143  0.2975 -0.4968
  753MOL0     C 3829   5.981  10.223   6.482 -0.9836  0.3228  0.1916
  753MOL0     C 3830   5.879  10.128   6.464  0.2118  0.4901 -0.2534
  753MOL0     C 3831   5.631   9.777   6.383 -0.2994  0.5067 -0.2130
  753MOL0     C 3832   5.560   9.769   6.255 -0.2863  0.2139 -0.6443
  753MOL0     C 3833   5.443   9.700   6.255  0.6471 -0.7392 -0.3097
  753MOL0     C 3834   5.382   9.638   6.369  0.2083  0.9700  0.2820
  753MOL0     O 3835   5.264   9.574   6.380 -0.2902 -0.5846  0.5142
  753MOL0     C 3836   5.172   9.581   6.274  0.5167  0.7692 -0.0531
  753MOL0     C 3837   5.052   9.494   6.313  0.4967 -0.9609 -0.5509
  753MOL0     C 3838   4.950   9.506   6.203 -0.8098 -0.1619 -0.5234
  753MOL0     C 3839   4.806   9.458   6.245 -0.2884  0.0299  0.5960
  753MOL0     C 3840   4.813   9.317   6.272  0.3501  0.5254  0.6348
  753MOL0     C 3841   4.801   9.198   6.292 -0.1295  0.4753  0.2265
  753MOL0     C 3842   5.457   9.643   6.483 -0.3004 -0.3905  0.6144
  753MOL0     C 3843   5.578   9.713   6.493 -0.5291 -0.5139  0.0195
  753MOL0     C 3844   5.653   9.697   6.626 -0.6575  0.7714  0.4177
  753MOL0     H 3845   6.035   9.859   6.603  1.9260  0.0018 -1.3927
  753MOL0     H 3846   6.210  10.035   6.641 -0.1798  1.0251  2.7462
  753MOL0     H 3847   6.222  10.319   6.368  0.0288 -2.7079 -0.8065
  753MOL0     H 3848   6.338  10.205   6.430 -0.1851 -0.1689  1.6648
  753MOL0     H 3849   6.325  10.509   6.508 -1.1617 -0.7698  0.8782
  753MOL0     H 3850   6.457  10.388   6.558  2.9382  0.3050 -1.4503
  753MOL0     H 3851   6.385  10.475   6.274  0.5000  1.4298  0.2811
  753MOL0     H 3852   6.509  10.549   6.386  2.1849 -1.2828  1.3930
  753MOL0     H 3853   6.586  10.284   6.410  0.4718  0.7235  0.5482
  753MOL0     H 3854   6.521  10.279   6.250  2.5665  0.4960 -2.3592
  753MOL0     H 3855   6.729  10.494   6.327 -0.8956 -0.2759 -0.0315
  753MOL0     H 3856   6.685  10.424   6.167 -1.4883 -1.4021 -0.1816
  753MOL0     H 3857   6.843  10.286   6.381 -1.0188  1.8582  2.1297
  753MOL0     H 3858   6.775  10.200   6.247  1.4598 -0.6841  2.5065
  753MOL0     H 3859   6.949  10.458   6.231 -3.4047  1.7603 -1.8587
  753MOL0     H 3860   6.904  10.362   6.084  2.5811 -0.6686 -0.2452
  753MOL0     H 3861   7.043  10.244   6.317  2.2051  3.5626  1.6608
  753MOL0     H 3862   7.014  10.170   6.149  2.1670  2.2709 -2.2413
  753MOL0     H 3863   7.204  10.472   6.307 -1.0200 -3.6422  1.8096
  753MOL0     H 3864   7.424  10.607   6.214 -0.6171 -2.3959  1.6671
  753MOL0     H 3865   7.459  10.599   6.042  0.7413  2.4020  2.4479
  753MOL0     H 3866   7.666  10.543   6.220  0.4443 -1.6610  3.1576
  753MOL0     H 3867   7.557  10.407   6.254  0.4627  0.4665  1.1241
  753MOL0     H 3868   7.589  10.356   5.988  0.2413  0.5726  0.8376
  753MOL0     H 3869   7.676  10.502   5.977  0.7260 -0.8939 -1.0346
  753MOL0     H 3870   7.855  10.413   6.122  0.7370 -1.6620  0.7971
  753MOL0     H 3871   7.760  10.269   6.160  1.9354 -1.0108  0.3342
  753MOL0     H 3872   7.947  10.357   5.753  0.8827 -3.2238 -1.2586
  753MOL0     H 3873   8.177  10.308   5.580  2.7555  1.1170 -2.9097
  753MOL0     H 3874   8.293  10.422   5.654  0.1036  0.1869  0.1130
  753MOL0     H 3875   8.120  10.463   5.630 -0.0035  0.2526  1.5912
  753MOL0     H 3876   8.609  10.221   6.171  1.3865  2.2132  0.4899
  753MOL0     H 3877   8.850  10.251   6.174 -0.7150  3.9996 -0.1738
  753MOL0     H 3878   9.056  10.377   6.149  2.3922  2.5539 -2.2837
  753MOL0     H 3879   9.082  10.205   6.153 -1.5444  2.3180  2.3731
  753MOL0     H 3880   9.264  10.247   5.990  0.5730 -0.7562  1.5946
  753MOL0     H 3881   9.224  10.422   5.994 -4.3914  1.1890  1.3831
  753MOL0     H 3882   9.300  10.258   6.228 -0.8034 -0.8949 -1.8106
  753MOL0     H 3883   9.254  10.427   6.242  2.9488 -0.0411  1.8750
  753MOL0     H 3884   9.466  10.497   6.116  3.7436  0.7902  0.6579
  753MOL0     H 3885   9.481  10.329   6.073  1.3410  0.0137  0.8978
  753MOL0     H 3886   9.499  10.448   6.343 -1.7473  2.2772 -2.1811
  753MOL0     H 3887   9.500  10.270   6.315 -2.8763  0.4489 -0.8238
  753MOL0     H 3888   9.702  10.327   6.162  1.2766  0.1381  0.9425
  753MOL0     H 3889   9.736  10.323   6.331  0.7652  1.4907  1.1723
  753MOL0     H 3890   9.690  10.576   6.343  3.9445  1.6300  0.3122
  753MOL0     H 3891   9.673  10.565   6.158  0.4084  1.0048  0.0869
  753MOL0     H 3892   9.878  10.661   6.225 -1.8441  1.2123  0.5514
  753MOL0     H 3893   9.913  10.498   6.157  0.3669  1.1136  0.2772
  753MOL0     H 3894   8.889  10.169   5.759  0.2641  0.2828 -0.2146
  753MOL0     H 3895   8.652  10.118   5.750  2.4153  0.0219 -0.7540
  753MOL0     H 3896   8.258  10.196   6.102 -0.2807  0.4850 -0.4159
  753MOL0     H 3897   8.009  10.203   6.139 -1.6069  1.7486  0.3470
  753MOL0     H 3898   5.970  10.324   6.443  1.6506  0.4994 -0.2389
  753MOL0     H 3899   5.787  10.158   6.414 -0.0133 -0.5570 -0.5034
  753MOL0     H 3900   5.589   9.831   6.170  0.3312 -0.0202 -0.6099
  753MOL0     H 3901   5.385   9.709   6.163  0.5296  2.1064 -0.0536
  753MOL0     H 3902   5.145   9.685   6.254  1.8187  1.3754  1.1480
  753MOL0     H 3903   5.209   9.541   6.179 -1.2365  0.9334 -0.8461
  753MOL0     H 3904   5.011   9.543   6.402  0.4083  2.3022 -2.2465
  753MOL0     H 3905   5.077   9.389   6.333 -0.8885 -0.8109  2.5547
  753MOL0     H 3906   4.942   9.609   6.168 -0.2832 -0.1389 -0.5869
  753MOL0     H 3907   4.987   9.453   6.115 -0.5048  0.8317 -0.9983
  753MOL0     H 3908   4.726   9.472   6.172  0.5433 -3.1816 -1.1231
  753MOL0     H 3909   4.770   9.508   6.335  0.6945 -0.5532  1.3298
  753MOL0     H 3910   4.788   9.092   6.300  0.9399  0.4524  2.1213
  753MOL0     H 3911   5.418   9.575   6.558 -1.4135 -1.4351 -0.8586
  753MOL0     H 3912   5.610   9.607   6.671  0.9091  0.4379  1.2937
  753MOL0     H 3913   5.756   9.674   6.599 -0.7194 -0.6336  1.2870
  753MOL0     H 3914   5.637   9.780   6.696 -1.5659  0.2522  0.8390
  754MOL0     O 3915   6.825   6.560   8.012 -0.0334  0.3917 -0.6792
  754MOL0     C 3916   6.790   6.470   8.088  0.2431 -0.2307 -0.0174
  754MOL0     O 3917   6.872   6.396   8.165  0.2516  0.6397  0.0751
  754MOL0     C 3918   6.995   6.446   8.186 -0.6959 -0.6821  0.6846
  754MOL0     C 3919   7.030   6.555   8.274  1.3721  0.7107  0.1579
  754MOL0     C 3920   7.164   6.582   8.298 -0.3442 -0.2226  0.5680
  754MOL0     C 3921   7.263   6.516   8.227 -0.4399  0.4368 -0.1347
  754MOL0     O 3922   7.402   6.544   8.241  0.0661 -0.6574  0.5757
  754MOL0     C 3923   7.431   6.641   8.349 -0.0185  0.4291  0.3939
  754MOL0     C 3924   7.592   6.663   8.365  0.2788  0.3205 -0.4490
  754MOL0     C 3925   7.646   6.749   8.256 -0.2588 -0.4383  0.7954
  754MOL0     C 3926   7.791   6.702   8.225 -0.9132 -0.2450 -0.1020
  754MOL0     C 3927   7.890   6.739   8.336 -0.8083 -0.3826  0.2774
  754MOL0     C 3928   8.034   6.723   8.284  0.1056 -1.0063 -0.3377
  754MOL0     C 3929   8.129   6.674   8.400  0.9807  0.1977 -0.2828
  754MOL0     C 3930   8.165   6.781   8.498  0.1425 -0.2991  0.3403
  754MOL0     N 3931   8.307   6.768   8.544 -0.2908  0.0165  0.4314
  754MOL0     C 3932   8.355   6.742   8.672 -0.5405  0.7170  0.0307
  754MOL0     C 3933   8.493   6.744   8.652 -0.5462  0.8790  0.3516
  754MOL0     C 3934   8.585   6.688   8.748  0.2210 -0.5474  0.1533
  754MOL0     C 3935   8.742   6.723   8.733  0.5248  0.1454  0.2093
  754MOL0     C 3936   8.811   6.650   8.621  0.4975 -0.1871  0.4378
  754MOL0     C 3937   8.959   6.661   8.611  0.4861  0.3507 -0.2002
  754MOL0     O 3938   9.027   6.632   8.734 -0.5729 -0.2271 -0.2135
  754MOL0     C 3939   9.161   6.673   8.729 -0.5491 -0.1641  0.2279
  754MOL0     C 3940   9.231   6.644   8.850  0.3401  0.3079 -0.0995
  754MOL0     C 3941   9.372   6.651   8.861 -0.0473 -0.0426  0.5612
  754MOL0     C 3942   9.436   6.613   8.999 -0.4352  0.4654  0.2739
  754MOL0     C 3943   9.440   6.696   8.742  0.1491  0.0432  0.0179
  754MOL0     C 3944   9.590   6.705   8.737  0.9320  0.2237 -0.1169
  754MOL0     O 3945   9.644   6.672   8.622  0.2332  0.4437  0.2988
  754MOL0     C 3946   9.781   6.666   8.611  0.3890  0.6748  0.7501
  754MOL0     C 3947   9.843   6.541   8.574 -0.2952  0.0355 -0.5156
  754MOL0     C 3948   9.986   6.538   8.557 -0.1278 -0.1333  0.1824
  754MOL0     C 3949  10.068   6.648   8.594  0.4110  0.6859 -0.8382
  754MOL0     O 3950  10.207   6.655   8.596  0.3020  0.1454 -0.2095
  754MOL0     C 3951  10.276   6.526   8.589 -0.9516 -0.1887  0.5180
  754MOL0     C 3952  10.426   6.568   8.603  0.1537 -0.2603  0.1039
  754MOL0     C 3953  10.508   6.444   8.555 -0.3566 -0.3127 -0.1840
  754MOL0     C 3954  10.659   6.482   8.590  0.3513 -0.5069  0.6344
  754MOL0     C 3955  10.740   6.351   8.565  0.8813  0.2846 -0.4660
  754MOL0     C 3956  10.887   6.379   8.604  0.3061 -0.4390 -0.0665
  754MOL0     C 3957  10.960   6.247   8.601 -0.5722  0.5801  0.0162
  754MOL0     C 3958  11.101   6.263   8.650 -0.3752 -0.5502 -0.3246
  754MOL0    Cl 3959  11.192   6.112   8.634  0.0534  0.2012  0.3083
  754MOL0     C 3960  10.008   6.768   8.634 -0.5006 -0.5506 -0.7936
  754MOL0     C 3961   9.866   6.776   8.646 -0.9121  0.8246 -0.5421
  754MOL0     O 3962   9.644   6.722   8.844 -0.4741 -0.2180 -0.0842
  754MOL0     C 3963   9.368   6.732   8.625 -0.4954  0.6104 -0.0772
  754MOL0     C 3964   9.236   6.717   8.618  1.3526  0.1349  0.0859
  754MOL0     N 3965   8.524   6.799   8.526  0.3524 -0.5004  0.7352
  754MOL0     N 3966   8.414   6.819   8.473  0.0170  0.7135  0.6258
  754MOL0     C 3967   7.229   6.423   8.128 -0.1445  0.2000 -0.9027
  754MOL0     C 3968   7.099   6.386   8.112  0.6355 -0.2516  0.9869
  754MOL0     C 3969   6.646   6.438   8.100  0.4188 -0.0015 -0.7015
  754MOL0     C 3970   6.620   6.311   8.146  0.4810 -0.7121  0.0216
  754MOL0     C 3971   6.487   6.276   8.169 -0.2112 -0.3518 -0.6971
  754MOL0     C 3972   6.378   6.367   8.154  0.5211 -0.2905 -0.3780
  754MOL0     O 3973   6.252   6.324   8.205  0.3303  0.2090 -0.1982
  754MOL0     C 3974   6.132   6.404   8.198 -0.2129 -0.5396  0.0709
  754MOL0     C 3975   6.019   6.306   8.218  0.5764  0.8801 -0.7041
  754MOL0     C 3976   6.024   6.229   8.353  0.1557 -0.1807 -1.0127
  754MOL0     C 3977   5.914   6.116   8.361  0.8986 -0.4977 -0.0008
  754MOL0     C 3978   5.836   6.136   8.489  0.2014 -0.6346  1.5058
  754MOL0     C 3979   5.766   6.160   8.588  0.1191  0.9830  0.8149
  754MOL0     C 3980   6.410   6.499   8.110  0.8123 -0.4750  0.3547
  754MOL0     C 3981   6.538   6.530   8.078  0.0339  0.6706  0.1581
  754MOL0     C 3982   6.550   6.671   8.024 -0.6032  0.4919 -0.6305
  754MOL0     H 3983   6.943   6.604   8.318  0.9864 -0.1567  0.3723
  754MOL0     H 3984   7.181   6.668   8.362 -1.9349  0.5186  0.0570
  754MOL0     H 3985   7.405   6.588   8.441  0.4153  0.0802  0.3182
  754MOL0     H 3986   7.378   6.736   8.339  1.2975  0.9654 -2.3102
  754MOL0     H 3987   7.619   6.705   8.462 -1.9960 -1.0701  0.8668
  754MOL0     H 3988   7.633   6.562   8.358 -1.0013 -0.1410 -2.1383
  754MOL0     H 3989   7.594   6.729   8.162  3.5683 -2.5466 -1.1282
  754MOL0     H 3990   7.639   6.855   8.280 -0.0027 -0.1977 -0.1420
  754MOL0     H 3991   7.799   6.595   8.201  2.8880  0.7393 -4.6874
  754MOL0     H 3992   7.825   6.752   8.134 -2.6267  0.8009 -0.2271
  754MOL0     H 3993   7.880   6.662   8.414  1.3750 -1.5137 -0.4640
  754MOL0     H 3994   7.869   6.838   8.377 -2.4365 -0.3385 -0.5726
  754MOL0     H 3995   8.040   6.647   8.206  0.4999  0.7861 -2.1443
  754MOL0     H 3996   8.057   6.813   8.227 -1.2831 -1.6067 -1.9143
  754MOL0     H 3997   8.219   6.637   8.350  0.7641 -0.2305 -0.3546
  754MOL0     H 3998   8.088   6.590   8.457  0.1451 -0.8848 -2.3546
  754MOL0     H 3999   8.151   6.879   8.453 -2.4705 -1.2554 -1.1226
  754MOL0     H 4000   8.098   6.775   8.585  1.4000 -0.9763  1.3064
  754MOL0     H 4001   8.296   6.704   8.755 -0.2107 -0.4893 -0.2727
  754MOL0     H 4002   8.566   6.582   8.726 -1.3815 -0.2363 -0.0889
  754MOL0     H 4003   8.543   6.723   8.842  0.7490  1.7043 -0.3928
  754MOL0     H 4004   8.756   6.830   8.716 -0.0023  0.1208 -0.4067
  754MOL0     H 4005   8.787   6.685   8.825  0.5290 -1.6071 -0.4760
  754MOL0     H 4006   8.785   6.544   8.628 -0.4920  0.1309  2.1813
  754MOL0     H 4007   8.772   6.685   8.525 -0.2531 -0.6274  0.5753
  754MOL0     H 4008   8.995   6.585   8.542  2.0616  0.6094  0.2900
  754MOL0     H 4009   8.978   6.764   8.578 -1.9644  0.9249 -0.0039
  754MOL0     H 4010   9.176   6.604   8.935  0.5296 -3.6955 -1.6715
  754MOL0     H 4011   9.373   6.541   9.054  0.4823 -0.1704  0.5137
  754MOL0     H 4012   9.450   6.703   9.060 -0.6828  1.7506 -1.4951
  754MOL0     H 4013   9.535   6.568   8.988 -0.0107  0.3781  3.4286
  754MOL0     H 4014   9.779   6.457   8.552  0.3709 -0.4183 -0.7719
  754MOL0     H 4015  10.031   6.450   8.512  1.8386 -0.6255  2.7985
  754MOL0     H 4016  10.251   6.469   8.679 -0.0573  2.2937  2.4510
  754MOL0     H 4017  10.258   6.470   8.496  1.5084 -1.8741  0.9717
  754MOL0     H 4018  10.449   6.649   8.534  0.3758 -3.0797 -3.4122
  754MOL0     H 4019  10.451   6.606   8.703  1.6963  2.5327 -1.2503
  754MOL0     H 4020  10.494   6.410   8.452  1.1019 -1.4486 -0.0364
  754MOL0     H 4021  10.473   6.356   8.609  0.5324 -1.0263 -0.7302
  754MOL0     H 4022  10.657   6.516   8.694 -4.6131  1.0203  0.2935
  754MOL0     H 4023  10.702   6.564   8.531  0.5989 -0.0086  1.4884
  754MOL0     H 4024  10.696   6.274   8.630 -0.4491  0.4455 -1.1249
  754MOL0     H 4025  10.730   6.306   8.466  0.8999 -2.1195  0.5583
  754MOL0     H 4026  10.900   6.417   8.706 -0.7452 -1.7103  0.5735
  754MOL0     H 4027  10.935   6.450   8.537  0.5092  2.1403  2.6182
  754MOL0     H 4028  10.962   6.210   8.498  3.9509 -0.3505  0.2484
  754MOL0     H 4029  10.908   6.171   8.661  1.1271 -1.0391 -0.4836
  754MOL0     H 4030  11.100   6.299   8.754  1.2981  1.3079 -0.8710
  754MOL0     H 4031  11.147   6.336   8.582 -1.5048  0.8884  0.3774
  754MOL0     H 4032  10.056   6.857   8.673 -1.3282 -1.3566  2.3277
  754MOL0     H 4033   9.827   6.871   8.683  0.3394  1.3761 -0.6092
  754MOL0     H 4034   9.417   6.783   8.542 -1.0622  1.4834  0.1132
  754MOL0     H 4035   9.187   6.749   8.527 -1.5306 -5.0912 -0.6268
  754MOL0     H 4036   7.295   6.359   8.071 -0.3891 -2.9084  1.9541
  754MOL0     H 4037   7.075   6.305   8.043 -0.4884  1.4001 -0.6660
  754MOL0     H 4038   6.702   6.241   8.159  1.1336  0.5030  3.5868
  754MOL0     H 4039   6.468   6.178   8.212 -0.4858  0.7066  1.7748
  754MOL0     H 4040   6.133   6.489   8.266  0.5235  1.1898 -1.9971
  754MOL0     H 4041   6.116   6.460   8.106  0.7539 -0.6722 -0.1878
  754MOL0     H 4042   6.034   6.240   8.133 -0.9012  0.0915 -0.3740
  754MOL0     H 4043   5.920   6.351   8.215 -0.1098 -0.5756 -0.5375
  754MOL0     H 4044   6.123   6.192   8.383 -0.5798 -0.5837  1.0580
  754MOL0     H 4045   6.004   6.307   8.427  1.2071 -1.0414  0.2329
  754MOL0     H 4046   5.960   6.017   8.360  0.2429 -0.9109  2.6426
  754MOL0     H 4047   5.832   6.125   8.288 -0.8721  0.4875  1.9906
  754MOL0     H 4048   5.701   6.186   8.669 -0.8628 -0.6812  0.6045
  754MOL0     H 4049   6.328   6.571   8.105  0.3778 -0.8122  1.9542
  754MOL0     H 4050   6.611   6.677   7.933 -0.9433 -1.1649 -1.0060
  754MOL0     H 4051   6.455   6.724   8.017 -0.7275  1.1805  3.5404
  754MOL0     H 4052   6.592   6.731   8.105  1.6515 -1.0172 -0.5824
  755MOL0     O 4053  10.406   9.255   8.596  0.4333 -0.0800 -0.0652
  755MOL0     C 4054  10.411   9.141   8.652 -0.5019  0.4753  0.6332
  755MOL0     O 4055  10.326   9.034   8.629  0.2683 -0.5193  0.1791
  755MOL0     C 4056  10.229   9.032   8.535 -0.6906  0.0007 -0.3884
  755MOL0     C 4057  10.213   8.929   8.435 -0.5154 -0.4531 -0.0586
  755MOL0     C 4058  10.107   8.936   8.348  1.7134 -0.0461  0.6824
  755MOL0     C 4059  10.017   9.041   8.350 -0.1494  0.3888  0.0019
  755MOL0     O 4060   9.922   9.036   8.254  0.2780 -0.2560  0.0494
  755MOL0     C 4061   9.821   9.134   8.259  0.3401  0.2143 -0.2589
  755MOL0     C 4062   9.718   9.101   8.152 -0.2507  0.3437  0.2155
  755MOL0     C 4063   9.596   9.194   8.148  0.5293 -0.1075 -0.2080
  755MOL0     C 4064   9.505   9.154   8.034 -0.9731  0.0206  0.3511
  755MOL0     C 4065   9.390   9.243   8.003  0.0341  0.2771 -0.6819
  755MOL0     C 4066   9.444   9.364   7.923  0.3522 -0.9719  0.4042
  755MOL0     C 4067   9.330   9.466   7.900  0.2059  0.4046 -1.0353
  755MOL0     C 4068   9.382   9.584   7.817  0.1115 -0.7407  0.2875
  755MOL0     N 4069   9.475   9.687   7.866  0.2956 -0.7271 -1.3038
  755MOL0     C 4070   9.565   9.760   7.794 -0.3469  0.4104 -0.2970
  755MOL0     C 4071   9.634   9.836   7.885 -1.0724  0.8826  0.3962
  755MOL0     C 4072   9.755   9.914   7.848 -0.0100  0.0792  0.0487
  755MOL0     C 4073   9.874   9.841   7.904  0.0678  0.0334 -0.3962
  755MOL0     C 4074   9.903   9.714   7.839  0.7993  0.6070  0.3671
  755MOL0     C 4075  10.049   9.678   7.844 -0.9304 -0.2347  0.3638
  755MOL0     O 4076  10.145   9.788   7.815  0.3079 -0.7245 -0.0657
  755MOL0     C 4077  10.270   9.737   7.780  0.2632 -0.1659  0.3582
  755MOL0     C 4078  10.309   9.767   7.648 -0.5396 -0.3955 -0.4161
  755MOL0     C 4079  10.442   9.730   7.601 -0.1716 -0.5847 -0.1003
  755MOL0     C 4080  10.475   9.787   7.471  0.8091  0.2906  0.2166
  755MOL0     C 4081  10.521   9.657   7.693 -0.2713 -0.4658 -0.2737
  755MOL0     C 4082  10.658   9.610   7.659  0.1041  0.3663 -0.2285
  755MOL0     O 4083  10.737   9.701   7.582  0.3159 -0.4653  0.8195
  755MOL0     C 4084  10.866   9.654   7.530  0.8120  0.5305  0.5446
  755MOL0     C 4085  10.966   9.591   7.597  0.6885  0.1048 -0.3797
  755MOL0     C 4086  11.090   9.570   7.538 -0.3550  0.5313  0.1311
  755MOL0     C 4087  11.109   9.612   7.400 -0.7829  1.3673 -0.8082
  755MOL0     O 4088  11.232   9.582   7.351  0.4085 -0.0977  0.3741
  755MOL0     C 4089  11.309   9.690   7.293  0.0318 -0.4402  0.0127
  755MOL0     C 4090  11.360   9.798   7.399 -0.4991 -0.7989 -0.1114
  755MOL0     C 4091  11.446   9.725   7.511  0.1811  0.3194 -0.4189
  755MOL0     C 4092  11.580   9.670   7.458 -1.0764  0.3502  1.4913
  755MOL0     C 4093  11.696   9.624   7.554  0.5297 -0.0741  0.2924
  755MOL0     C 4094  11.653   9.508   7.654 -0.2235 -0.8388  1.0574
  755MOL0     C 4095  11.601   9.381   7.593  0.2182  0.3526  0.2979
  755MOL0     C 4096  11.694   9.263   7.616  0.0480  0.3610  0.0713
  755MOL0    Cl 4097  11.698   9.240   7.789 -0.2100 -0.4240  0.2899
  755MOL0     C 4098  11.004   9.677   7.334  0.9535 -0.6708  0.3891
  755MOL0     C 4099  10.885   9.689   7.394  0.2032  0.2821  0.4638
  755MOL0     O 4100  10.704   9.507   7.704  0.4632  0.1502  0.0382
  755MOL0     C 4101  10.475   9.627   7.826  0.3208  0.8190  0.5249
  755MOL0     C 4102  10.353   9.679   7.868  0.5620  0.3303 -0.1396
  755MOL0     N 4103   9.583   9.799   8.006  0.2394  0.2143 -0.5815
  755MOL0     N 4104   9.494   9.705   7.997  0.2636  0.4426 -0.4952
  755MOL0     C 4105  10.025   9.135   8.457 -1.0889 -0.0609  0.2307
  755MOL0     C 4106  10.126   9.127   8.551 -0.3654 -0.0780  0.2888
  755MOL0     C 4107  10.522   9.127   8.752  0.0147 -0.6625 -0.5033
  755MOL0     C 4108  10.626   9.226   8.759  0.2052 -1.2839 -0.4945
  755MOL0     C 4109  10.733   9.216   8.852  0.8817  0.3414  0.2574
  755MOL0     C 4110  10.745   9.112   8.940  0.2947  0.4109 -0.5531
  755MOL0     O 4111  10.852   9.090   9.028 -0.5943 -0.3582  0.3505
  755MOL0     C 4112  10.942   9.201   9.037  0.1086  0.2346 -0.1939
  755MOL0     C 4113  11.052   9.163   9.130 -0.5232  0.6628  0.0064
  755MOL0     C 4114  11.176   9.244   9.106 -0.4032 -0.2729 -0.1508
  755MOL0     C 4115  11.290   9.198   9.201  0.2375 -0.7034  0.5547
  755MOL0     C 4116  11.403   9.289   9.169 -0.8222  1.0108 -0.5506
  755MOL0     C 4117  11.482   9.376   9.149  0.2238  0.0689  1.0586
  755MOL0     C 4118  10.635   9.017   8.933  0.6344 -0.4258 -0.1856
  755MOL0     C 4119  10.533   9.020   8.848  0.4818  0.3293 -0.2505
  755MOL0     C 4120  10.430   8.920   8.863 -0.3101  0.1612  0.0198
  755MOL0     H 4121  10.298   8.862   8.425 -1.0116 -1.1975  0.5794
  755MOL0     H 4122  10.085   8.861   8.273  0.7155 -0.0895  1.0056
  755MOL0     H 4123   9.866   9.232   8.239 -0.4994  0.2892 -1.9026
  755MOL0     H 4124   9.774   9.140   8.357  1.6783  0.6041  0.3925
  755MOL0     H 4125   9.763   9.096   8.052 -2.5163  0.6362 -0.8678
  755MOL0     H 4126   9.677   9.003   8.177  0.8959 -0.1585  0.2327
  755MOL0     H 4127   9.541   9.185   8.242  1.6424 -0.3431  0.4347
  755MOL0     H 4128   9.634   9.295   8.132 -0.1674  0.0616 -0.8674
  755MOL0     H 4129   9.566   9.149   7.943  0.9862  0.3037  1.5796
  755MOL0     H 4130   9.469   9.054   8.059  1.0243 -0.6227  0.7966
  755MOL0     H 4131   9.341   9.281   8.093  1.5090  0.7252 -0.0325
  755MOL0     H 4132   9.316   9.195   7.940  1.5191 -2.9118 -0.1900
  755MOL0     H 4133   9.523   9.424   7.971 -0.7972  2.3932 -1.5410
  755MOL0     H 4134   9.489   9.341   7.826  0.8168  2.7043 -0.4091
  755MOL0     H 4135   9.296   9.501   7.998 -0.8825  3.3320 -2.3603
  755MOL0     H 4136   9.240   9.421   7.857 -0.6861  2.6048 -1.5864
  755MOL0     H 4137   9.425   9.538   7.727  1.5061 -0.0986  0.6053
  755MOL0     H 4138   9.293   9.640   7.787  1.3468  0.5005 -1.2657
  755MOL0     H 4139   9.589   9.747   7.689  3.1391  0.4107  0.3683
  755MOL0     H 4140   9.749  10.005   7.909  2.3823 -0.5442  1.3586
  755MOL0     H 4141   9.750   9.926   7.740 -0.4569 -3.9919 -0.5590
  755MOL0     H 4142   9.961   9.908   7.906 -0.0916  0.2580 -1.0037
  755MOL0     H 4143   9.852   9.832   8.011 -1.5104  0.6303 -0.6381
  755MOL0     H 4144   9.844   9.632   7.882  1.8441 -0.9649 -1.0880
  755MOL0     H 4145   9.880   9.728   7.733  1.3310  1.1223  0.3148
  755MOL0     H 4146  10.066   9.642   7.946  0.6134  0.0016  0.2151
  755MOL0     H 4147  10.080   9.591   7.784  0.1430  0.5935 -0.3201
  755MOL0     H 4148  10.247   9.830   7.586 -0.0249 -0.4726 -1.0155
  755MOL0     H 4149  10.568   9.747   7.429  0.8493  1.8074 -1.2456
  755MOL0     H 4150  10.484   9.896   7.476  2.6036  0.1437  1.0225
  755MOL0     H 4151  10.397   9.780   7.394 -2.3779  0.6824  3.2004
  755MOL0     H 4152  10.952   9.573   7.703 -0.4223 -1.8565 -0.8122
  755MOL0     H 4153  11.170   9.522   7.593 -0.0371  0.6054 -0.2629
  755MOL0     H 4154  11.394   9.646   7.239 -0.4777  1.1948 -2.2961
  755MOL0     H 4155  11.258   9.745   7.213  2.7581  0.4131 -1.2723
  755MOL0     H 4156  11.428   9.869   7.350 -0.7497 -0.1357  0.4728
  755MOL0     H 4157  11.275   9.856   7.435  0.8445  1.3549 -0.1819
  755MOL0     H 4158  11.394   9.642   7.558  1.6315 -0.7374 -0.6072
  755MOL0     H 4159  11.458   9.789   7.599 -3.4624 -0.6026  0.9083
  755MOL0     H 4160  11.621   9.729   7.376 -0.7937 -2.0319 -0.1749
  755MOL0     H 4161  11.547   9.580   7.406 -0.6523  0.7136  0.5697
  755MOL0     H 4162  11.781   9.587   7.497 -1.4396 -0.5499 -2.5073
  755MOL0     H 4163  11.739   9.708   7.610  0.4736  0.5011 -0.5137
  755MOL0     H 4164  11.566   9.542   7.712 -2.1794 -1.9437 -1.0848
  755MOL0     H 4165  11.732   9.489   7.727  1.6982  0.3093 -0.6027
  755MOL0     H 4166  11.600   9.383   7.483  2.4546  0.0746  0.2304
  755MOL0     H 4167  11.503   9.346   7.628 -0.1290  0.6308 -0.3539
  755MOL0     H 4168  11.794   9.300   7.589  0.6883 -1.2891  0.0849
  755MOL0     H 4169  11.662   9.173   7.562  1.4283  0.9402 -1.8142
  755MOL0     H 4170  11.022   9.715   7.234  1.3178 -0.9918  0.3310
  755MOL0     H 4171  10.816   9.742   7.329  1.3883 -0.8921 -1.8885
  755MOL0     H 4172  10.540   9.577   7.898 -0.5404 -1.1362  0.0307
  755MOL0     H 4173  10.310   9.673   7.968  0.2109  0.2702 -0.2945
  755MOL0     H 4174   9.955   9.216   8.476 -0.1298  1.6763 -2.8520
  755MOL0     H 4175  10.139   9.184   8.643  0.8401  0.1656 -0.0083
  755MOL0     H 4176  10.626   9.317   8.699  0.6105 -0.6185  0.4930
  755MOL0     H 4177  10.806   9.295   8.839 -0.5400  1.8219  0.9022
  755MOL0     H 4178  10.975   9.224   8.936  0.5710 -2.5699 -0.7420
  755MOL0     H 4179  10.893   9.290   9.078  0.1398 -0.0518  0.4920
  755MOL0     H 4180  11.072   9.059   9.105  0.4188  0.4682  1.4732
  755MOL0     H 4181  11.020   9.163   9.234 -2.0114  0.3368 -0.4270
  755MOL0     H 4182  11.216   9.227   9.005  3.1633 -3.9780  1.5776
  755MOL0     H 4183  11.164   9.352   9.115 -0.3458 -0.3739  1.2914
  755MOL0     H 4184  11.325   9.096   9.181  1.6011 -0.3285  0.9551
  755MOL0     H 4185  11.270   9.225   9.305  0.2504  3.8851 -0.4247
  755MOL0     H 4186  11.545   9.455   9.114 -1.0969  1.2150  1.2004
  755MOL0     H 4187  10.650   8.929   8.995  2.5580 -1.7331 -2.3338
  755MOL0     H 4188  10.458   8.856   8.947 -0.3968 -1.1252 -0.9132
  755MOL0     H 4189  10.333   8.966   8.887 -0.4104  1.1186 -2.0314
  755MOL0     H 4190  10.416   8.857   8.775 -3.6551 -0.6506  0.9917
  756MOL0     O 4191   3.633   7.881   4.206  0.3018  0.0886 -0.3334
  756MOL0     C 4192   3.642   7.885   4.329  1.0004  0.1693 -0.8282
  756MOL0     O 4193   3.741   7.837   4.409 -0.6274 -0.4861  0.8650
  756MOL0     C 4194   3.863   7.799   4.357  0.0209 -0.5891  0.8940
  756MOL0     C 4195   3.925   7.851   4.243  0.8852  0.1060  0.5380
  756MOL0     C 4196   4.044   7.798   4.191  0.1233 -0.2430 -0.3382
  756MOL0     C 4197   4.097   7.678   4.252 -1.0626 -0.9912  0.1278
  756MOL0     O 4198   4.195   7.603   4.194  0.9777  0.2895 -0.3940
  756MOL0     C 4199   4.255   7.646   4.072  0.0557  0.0379  0.0790
  756MOL0     C 4200   4.372   7.557   4.025  0.1744  0.2059  0.0382
  756MOL0     C 4201   4.508   7.583   4.094 -0.0282  0.2316  0.6858
  756MOL0     C 4202   4.607   7.479   4.039  0.2798 -0.8268 -0.1378
  756MOL0     C 4203   4.745   7.501   4.082  0.2718 -0.1526 -0.1934
  756MOL0     C 4204   4.829   7.387   4.040 -0.1537 -0.1005 -0.4800
  756MOL0     C 4205   4.939   7.347   4.132  0.4762  0.0963  0.0716
  756MOL0     C 4206   5.035   7.456   4.168  0.0374  0.0281 -0.3846
  756MOL0     N 4207   5.110   7.505   4.052 -0.5554  0.9062 -0.0517
  756MOL0     C 4208   5.202   7.433   3.981  0.1316  0.2612 -0.1906
  756MOL0     C 4209   5.241   7.507   3.882  0.1935 -0.2632 -0.0774
  756MOL0     C 4210   5.352   7.481   3.773  0.3328  0.1285  0.2675
  756MOL0     C 4211   5.412   7.607   3.703 -0.3064 -0.3247  0.5950
  756MOL0     C 4212   5.505   7.679   3.802 -0.7849  0.0362 -0.3273
  756MOL0     C 4213   5.569   7.809   3.739  0.3615 -0.4530 -0.2833
  756MOL0     O 4214   5.600   7.796   3.601  0.1407 -0.4784  0.4075
  756MOL0     C 4215   5.714   7.732   3.566 -0.2678  1.0254 -0.8502
  756MOL0     C 4216   5.735   7.706   3.434  0.0154 -0.6780 -0.3311
  756MOL0     C 4217   5.848   7.637   3.382  0.4055 -0.7629 -0.3075
  756MOL0     C 4218   5.850   7.608   3.235  0.2313  0.1519  0.8682
  756MOL0     C 4219   5.958   7.615   3.468 -0.1543  0.5707 -0.0123
  756MOL0     C 4220   6.093   7.554   3.419 -0.1991 -0.0852 -1.1146
  756MOL0     O 4221   6.156   7.493   3.513  0.5119 -0.0749 -0.3479
  756MOL0     C 4222   6.281   7.442   3.484 -0.0306  0.2129 -0.3942
  756MOL0     C 4223   6.300   7.337   3.396  0.0586  0.4733  0.2408
  756MOL0     C 4224   6.420   7.277   3.389 -0.2924  0.3313  0.1460
  756MOL0     C 4225   6.527   7.320   3.468 -0.5632 -0.0815  0.4683
  756MOL0     O 4226   6.655   7.269   3.447  1.4018 -0.5334 -0.5812
  756MOL0     C 4227   6.721   7.306   3.327  0.5018 -0.6196 -0.4722
  756MOL0     C 4228   6.798   7.445   3.343  1.0923 -0.2486  0.4085
  756MOL0     C 4229   6.876   7.459   3.472  0.6315 -0.2127 -0.0051
  756MOL0     C 4230   6.965   7.571   3.459 -1.5305 -0.2776  0.4281
  756MOL0     C 4231   7.023   7.620   3.589 -0.7272 -0.2147  0.1127
  756MOL0     C 4232   7.106   7.747   3.576  0.1267  0.8837  0.0433
  756MOL0     C 4233   7.247   7.717   3.515 -0.5732  0.0488 -0.1418
  756MOL0     C 4234   7.346   7.829   3.540  0.3794  0.3754 -1.0544
  756MOL0    Cl 4235   7.416   7.809   3.707  0.4260 -0.3903  0.1448
  756MOL0     C 4236   6.512   7.423   3.550  0.2987 -0.2397  0.7897
  756MOL0     C 4237   6.384   7.483   3.565  0.0596  0.0444 -0.2980
  756MOL0     O 4238   6.136   7.564   3.305  0.0339  0.1406  0.9593
  756MOL0     C 4239   5.936   7.628   3.605 -0.3045  0.2697 -0.1617
  756MOL0     C 4240   5.816   7.680   3.655 -0.6221  0.4731 -0.2078
  756MOL0     N 4241   5.174   7.625   3.886 -0.0568 -0.4461  0.2353
  756MOL0     N 4242   5.087   7.617   3.987  0.6467  0.2192  0.3992
  756MOL0     C 4243   4.048   7.628   4.370 -0.7219 -0.2802  0.0657
  756MOL0     C 4244   3.933   7.691   4.421  0.2874 -0.2936  0.4701
  756MOL0     C 4245   3.512   7.893   4.406 -0.5924 -0.2965 -0.1846
  756MOL0     C 4246   3.493   7.799   4.513  0.3040 -0.3402 -0.0486
  756MOL0     C 4247   3.372   7.795   4.580 -0.6165  0.4107 -0.9306
  756MOL0     C 4248   3.274   7.891   4.563  0.1528 -0.5813  0.3336
  756MOL0     O 4249   3.165   7.872   4.644 -0.5939  0.3429  0.9996
  756MOL0     C 4250   3.063   7.972   4.651  0.4754 -0.0521 -0.1612
  756MOL0     C 4251   2.954   7.913   4.745 -0.5613 -0.0691 -0.2000
  756MOL0     C 4252   2.829   7.986   4.721  0.5721  0.2704  0.2225
  756MOL0     C 4253   2.704   7.947   4.815 -0.2251  0.4702  0.9635
  756MOL0     C 4254   2.656   7.811   4.792 -0.5153 -0.3600 -0.6191
  756MOL0     C 4255   2.614   7.696   4.781 -1.1647 -0.1736  0.1206
  756MOL0     C 4256   3.291   7.994   4.465 -0.5745  0.1516  0.5445
  756MOL0     C 4257   3.406   7.992   4.386 -0.1199  0.2389 -0.1897
  756MOL0     C 4258   3.416   8.109   4.290  0.3032 -0.1362 -0.9659
  756MOL0     H 4259   3.878   7.930   4.185 -0.1132 -1.5220 -0.9577
  756MOL0     H 4260   4.081   7.846   4.101 -0.2948  2.1636  0.6805
  756MOL0     H 4261   4.297   7.746   4.082  3.0211 -1.0073 -0.7636
  756MOL0     H 4262   4.172   7.642   4.001  0.6443  1.3598 -0.7154
  756MOL0     H 4263   4.339   7.453   4.026 -3.9447  1.3223 -1.1633
  756MOL0     H 4264   4.387   7.582   3.919  1.5921  0.5557  0.2946
  756MOL0     H 4265   4.550   7.679   4.064 -1.7585 -0.1493 -3.5470
  756MOL0     H 4266   4.497   7.571   4.203  0.4607 -2.8034  0.4985
  756MOL0     H 4267   4.566   7.383   4.070  1.2809 -0.9675  0.8053
  756MOL0     H 4268   4.608   7.485   3.930 -1.0851 -1.7790 -0.2178
  756MOL0     H 4269   4.732   7.510   4.190 -0.2426  0.6292 -0.3094
  756MOL0     H 4270   4.784   7.596   4.043 -0.7870  0.7183  0.7728
  756MOL0     H 4271   4.763   7.301   4.028  1.6247 -1.5257 -0.6007
  756MOL0     H 4272   4.882   7.397   3.945  2.3539  0.7626  0.9115
  756MOL0     H 4273   4.987   7.259   4.087  2.3666  1.1191 -0.0247
  756MOL0     H 4274   4.898   7.313   4.227  1.0873  0.9400  0.6495
  756MOL0     H 4275   4.982   7.542   4.211  1.9482  2.4813 -2.6129
  756MOL0     H 4276   5.106   7.432   4.248  2.1435  1.1417 -1.8334
  756MOL0     H 4277   5.246   7.334   3.989  2.8957  1.3549 -0.7198
  756MOL0     H 4278   5.300   7.419   3.698  0.7435 -0.2905  0.3230
  756MOL0     H 4279   5.435   7.431   3.824  1.1755  0.9961 -0.2240
  756MOL0     H 4280   5.464   7.574   3.613 -0.1405  0.8628  0.2338
  756MOL0     H 4281   5.338   7.681   3.671 -0.3233 -0.6202 -0.0603
  756MOL0     H 4282   5.450   7.719   3.888 -0.8847 -1.5759  0.3784
  756MOL0     H 4283   5.584   7.617   3.844 -0.2714  1.0401  0.2246
  756MOL0     H 4284   5.487   7.881   3.747  0.8659 -0.0499  1.5413
  756MOL0     H 4285   5.657   7.841   3.794 -0.9579  1.1237  1.0200
  756MOL0     H 4286   5.650   7.731   3.371  1.3560 -0.8415 -2.3012
  756MOL0     H 4287   5.938   7.657   3.192 -0.7158  2.9942  1.8814
  756MOL0     H 4288   5.755   7.629   3.185  2.0868 -1.6781 -3.9821
  756MOL0     H 4289   5.872   7.503   3.218 -1.1051 -0.0559  0.3113
  756MOL0     H 4290   6.218   7.307   3.331 -1.5982  0.8485  2.0696
  756MOL0     H 4291   6.439   7.207   3.309 -0.2912  1.3116 -0.7422
  756MOL0     H 4292   6.799   7.231   3.311 -0.5329 -1.3038 -2.8661
  756MOL0     H 4293   6.654   7.318   3.241 -0.7989  0.4529  0.6586
  756MOL0     H 4294   6.845   7.472   3.248  1.0364 -0.1308  0.4132
  756MOL0     H 4295   6.712   7.512   3.350  0.7765 -0.7436  1.5091
  756MOL0     H 4296   6.928   7.365   3.494 -0.9814 -0.9764  0.7090
  756MOL0     H 4297   6.807   7.475   3.555  0.5374 -0.1413 -0.0968
  756MOL0     H 4298   6.909   7.652   3.412  1.5809  0.6307 -2.0090
  756MOL0     H 4299   7.051   7.548   3.395  0.2113  0.4585  2.4058
  756MOL0     H 4300   6.949   7.647   3.665 -1.1877  0.7716 -0.6646
  756MOL0     H 4301   7.097   7.544   3.615 -0.8049 -1.7613 -3.5879
  756MOL0     H 4302   7.109   7.800   3.672 -1.2508  2.5298 -0.7579
  756MOL0     H 4303   7.044   7.810   3.512 -0.7116  0.1595  0.1171
  756MOL0     H 4304   7.241   7.704   3.407 -1.1893 -0.9408 -0.0038
  756MOL0     H 4305   7.283   7.630   3.571 -0.6106  1.1948  1.7498
  756MOL0     H 4306   7.289   7.922   3.537  0.2478  0.4352  1.2473
  756MOL0     H 4307   7.423   7.816   3.464 -3.7034 -2.2099 -5.3081
  756MOL0     H 4308   6.599   7.451   3.610  0.6326  0.6184 -0.0721
  756MOL0     H 4309   6.365   7.562   3.638 -3.3820  0.0864 -1.0956
  756MOL0     H 4310   6.010   7.592   3.676 -2.5414 -4.7078  0.1175
  756MOL0     H 4311   5.808   7.665   3.762 -0.2818 -2.1189 -0.4758
  756MOL0     H 4312   4.100   7.540   4.406  1.1853  1.4373  1.7704
  756MOL0     H 4313   3.890   7.667   4.517  0.8074 -2.8930  0.1320
  756MOL0     H 4314   3.573   7.731   4.540 -0.0661 -0.8761 -0.2909
  756MOL0     H 4315   3.366   7.711   4.648 -0.6376  0.8948 -0.3246
  756MOL0     H 4316   3.094   8.071   4.684 -0.3723 -0.1567  1.0377
  756MOL0     H 4317   3.022   7.984   4.550  1.3300  1.5255 -0.3593
  756MOL0     H 4318   2.992   7.930   4.846 -0.0827 -1.0065 -0.2181
  756MOL0     H 4319   2.944   7.806   4.725  1.7487  0.0563 -2.5287
  756MOL0     H 4320   2.845   8.092   4.742  1.0492 -0.0070  1.3083
  756MOL0     H 4321   2.812   7.968   4.614 -0.4619 -0.7891  0.5589
  756MOL0     H 4322   2.620   8.013   4.793  0.0893  0.0202 -1.9792
  756MOL0     H 4323   2.741   7.960   4.917  0.1543  1.8961  0.6658
  756MOL0     H 4324   2.589   7.591   4.775 -0.1033 -0.4474  0.3416
  756MOL0     H 4325   3.224   8.076   4.443 -1.0899 -0.6187 -0.9008
  756MOL0     H 4326   3.523   8.130   4.276  0.4990 -0.5443 -0.1537
  756MOL0     H 4327   3.372   8.092   4.192 -2.6342  1.6533 -0.0723
  756MOL0     H 4328   3.365   8.197   4.330 -0.4514 -0.1974 -1.7592
  757MOL0     O 4329   7.569   9.629   4.026  0.4766  0.2744  0.3546
  757MOL0     C 4330   7.538   9.662   4.142 -0.7518 -0.1286 -0.1289
  757MOL0     O 4331   7.622   9.654   4.249  0.4988 -0.0710  0.2214
  757MOL0     C 4332   7.756   9.619   4.229 -0.3235 -0.2890  0.4001
  757MOL0     C 4333   7.784   9.483   4.213  0.8677  0.5919  0.3128
  757MOL0     C 4334   7.917   9.445   4.172 -0.1047  0.0893  0.5968
  757MOL0     C 4335   8.019   9.543   4.144  0.3695 -0.0268 -0.5556
  757MOL0     O 4336   8.147   9.493   4.139 -0.5774  0.2220 -0.1003
  757MOL0     C 4337   8.265   9.583   4.146 -0.3874  0.3302 -0.5781
  757MOL0     C 4338   8.390   9.500   4.160 -1.1578 -0.3524 -0.2480
  757MOL0     C 4339   8.446   9.444   4.022 -0.3679 -0.8031 -0.4302
  757MOL0     C 4340   8.512   9.558   3.941 -0.6025 -0.9200  0.0289
  757MOL0     C 4341   8.533   9.532   3.785 -0.6622  0.2508  0.4852
  757MOL0     C 4342   8.408   9.542   3.703  0.2884 -0.2261  0.2813
  757MOL0     C 4343   8.443   9.524   3.554 -0.7923 -0.5869  0.2254
  757MOL0     C 4344   8.331   9.574   3.466 -0.4066 -0.2016  0.2552
  757MOL0     N 4345   8.364   9.559   3.325 -0.1034 -1.1695 -0.5637
  757MOL0     C 4346   8.411   9.654   3.246  1.0452 -0.6510  0.3424
  757MOL0     C 4347   8.399   9.609   3.120 -0.1682 -0.4129 -0.0421
  757MOL0     C 4348   8.429   9.692   2.994  0.5168 -0.5612 -0.2290
  757MOL0     C 4349   8.585   9.695   2.974 -0.1110  0.4874 -0.1603
  757MOL0     C 4350   8.610   9.722   2.822 -0.4192  0.0277 -0.2263
  757MOL0     C 4351   8.751   9.759   2.780  0.1245  0.1369 -0.3858
  757MOL0     O 4352   8.774   9.892   2.814 -0.3059  0.0364 -0.2433
  757MOL0     C 4353   8.902   9.936   2.794 -0.0799 -0.1548 -0.7034
  757MOL0     C 4354   9.017   9.871   2.740 -0.2948 -0.3276 -1.0249
  757MOL0     C 4355   9.138   9.945   2.750 -0.2336 -0.0979  0.0897
  757MOL0     C 4356   9.252   9.858   2.711  0.6077  0.2048 -1.1351
  757MOL0     C 4357   9.146  10.083   2.787  0.4474  0.3460 -0.2324
  757MOL0     C 4358   9.275  10.156   2.783  0.3265 -0.5066  0.0663
  757MOL0     O 4359   9.265  10.294   2.811  0.2848  0.5822 -0.4148
  757MOL0     C 4360   9.384  10.360   2.837  0.2590 -0.7018 -0.8339
  757MOL0     C 4361   9.383  10.492   2.794 -0.2024 -0.2250 -0.5944
  757MOL0     C 4362   9.499  10.565   2.816  0.6429  0.3019 -0.1246
  757MOL0     C 4363   9.601  10.515   2.897 -0.0940 -0.0216  0.7159
  757MOL0     O 4364   9.703  10.605   2.917  0.5023  0.5891 -0.1255
  757MOL0     C 4365   9.791  10.585   3.034  0.2272 -0.7735 -0.7202
  757MOL0     C 4366   9.925  10.523   2.987  0.4509  0.1567 -0.4478
  757MOL0     C 4367  10.028  10.495   3.091 -0.1782 -0.5639 -0.8568
  757MOL0     C 4368  10.013  10.348   3.144 -0.6673  0.2711 -0.9568
  757MOL0     C 4369  10.098  10.326   3.272  0.3467  0.1698 -0.7405
  757MOL0     C 4370  10.245  10.321   3.232  0.7168  0.2737  0.8293
  757MOL0     C 4371  10.330  10.334   3.355  0.0927 -0.2305 -0.0638
  757MOL0     C 4372  10.333  10.201   3.430  1.0131  0.3424  0.4469
  757MOL0    Cl 4373  10.475  10.194   3.548  0.1600 -0.2405 -0.7355
  757MOL0     C 4374   9.599  10.391   2.946 -0.0208  0.4526  0.3553
  757MOL0     C 4375   9.488  10.313   2.918  0.0279  0.2362  0.3751
  757MOL0     O 4376   9.380  10.105   2.745  0.9129  0.1587 -0.6222
  757MOL0     C 4377   9.028  10.141   2.834  0.1332  0.2365 -0.5891
  757MOL0     C 4378   8.915  10.069   2.837  0.4279 -0.1807  0.1434
  757MOL0     N 4379   8.340   9.483   3.132  0.7470  0.3905 -0.3615
  757MOL0     N 4380   8.321   9.452   3.256 -1.0440  0.5310 -0.0107
  757MOL0     C 4381   7.980   9.681   4.163 -0.6429  0.6321  0.6629
  757MOL0     C 4382   7.852   9.715   4.199  0.5625 -0.0998 -0.8939
  757MOL0     C 4383   7.403   9.704   4.175 -0.0606 -0.6255 -0.0042
  757MOL0     C 4384   7.357   9.700   4.305 -1.0297  0.2142 -0.1630
  757MOL0     C 4385   7.241   9.763   4.344  0.9486 -0.1309 -0.0816
  757MOL0     C 4386   7.156   9.823   4.250  0.9416 -0.8673 -0.0268
  757MOL0     O 4387   7.045   9.892   4.291  0.2582 -0.9274  0.6274
  757MOL0     C 4388   6.949   9.937   4.199  0.2196 -0.1703 -0.0322
  757MOL0     C 4389   6.836  10.007   4.269  0.5811  0.5260  0.3796
  757MOL0     C 4390   6.736   9.902   4.320 -0.2268  0.6798 -1.4602
  757MOL0     C 4391   6.637   9.967   4.417  0.1912  0.1948 -0.5466
  757MOL0     C 4392   6.569  10.087   4.360 -0.7381  0.0925  0.4481
  757MOL0     C 4393   6.519  10.184   4.310  0.3323  0.2518 -0.1980
  757MOL0     C 4394   7.194   9.816   4.119 -0.0780  0.6099 -0.2896
  757MOL0     C 4395   7.318   9.772   4.084 -0.2175  0.5221 -0.2195
  757MOL0     C 4396   7.347   9.774   3.940 -0.2197 -0.3650  0.0176
  757MOL0     H 4397   7.710   9.410   4.242  3.4468 -1.6929  1.6256
  757MOL0     H 4398   7.955   9.345   4.157  1.7655  0.3614  2.8700
  757MOL0     H 4399   8.259   9.658   4.225 -1.8398  3.2845 -3.2733
  757MOL0     H 4400   8.280   9.638   4.053  2.8419  0.8964  0.1373
  757MOL0     H 4401   8.476   9.556   4.200 -1.2337 -0.9920  0.8629
  757MOL0     H 4402   8.372   9.419   4.232 -0.9720 -0.1994 -0.0242
  757MOL0     H 4403   8.524   9.373   4.050  1.1410  0.6079 -0.9125
  757MOL0     H 4404   8.365   9.393   3.969 -2.3896  2.0831 -0.3606
  757MOL0     H 4405   8.460   9.653   3.954  1.7782  0.4426  0.1479
  757MOL0     H 4406   8.617   9.566   3.970 -0.2110  1.2574 -1.7357
  757MOL0     H 4407   8.581   9.434   3.776  1.8833  1.6135 -2.9224
  757MOL0     H 4408   8.603   9.612   3.758  0.8977 -0.9056  0.9431
  757MOL0     H 4409   8.336   9.464   3.730  1.5518 -2.9511 -3.3713
  757MOL0     H 4410   8.364   9.641   3.711 -0.6350 -0.4895 -1.1905
  757MOL0     H 4411   8.466   9.420   3.531  1.6353 -0.6167  2.3397
  757MOL0     H 4412   8.530   9.586   3.535 -0.3194 -0.5204  2.3196
  757MOL0     H 4413   8.234   9.526   3.479 -1.0080 -0.2237 -3.4181
  757MOL0     H 4414   8.323   9.682   3.482 -1.5828 -0.1745 -0.4255
  757MOL0     H 4415   8.437   9.753   3.282  0.9576 -0.4481 -0.1369
  757MOL0     H 4416   8.391   9.794   3.000  0.8988 -0.3932 -0.5723
  757MOL0     H 4417   8.375   9.649   2.909 -1.5791  0.5557  0.4670
  757MOL0     H 4418   8.624   9.775   3.037 -1.6434  0.1768  1.2498
  757MOL0     H 4419   8.633   9.602   3.007  0.1809  0.0646 -1.6996
  757MOL0     H 4420   8.595   9.629   2.766  0.0637  0.0400 -0.3883
  757MOL0     H 4421   8.546   9.804   2.789  0.6060  1.4489  1.1475
  757MOL0     H 4422   8.815   9.685   2.828 -1.9844 -0.4573  1.6793
  757MOL0     H 4423   8.764   9.752   2.671  0.5912  0.6278 -0.3633
  757MOL0     H 4424   9.017   9.766   2.712  1.4314 -1.7702  3.4575
  757MOL0     H 4425   9.308   9.875   2.803 -0.2986  0.4719 -0.6193
  757MOL0     H 4426   9.308   9.887   2.621  1.7065  2.1717  0.1104
  757MOL0     H 4427   9.226   9.752   2.701  1.9925 -0.2052 -0.5646
  757MOL0     H 4428   9.307  10.544   2.737 -0.9405 -1.0413 -0.3757
  757MOL0     H 4429   9.510  10.660   2.766 -1.2931  0.0679 -1.0866
  757MOL0     H 4430   9.823  10.686   3.064  1.0410 -0.4506 -2.5603
  757MOL0     H 4431   9.740  10.529   3.113 -0.6019  0.3695 -0.4085
  757MOL0     H 4432   9.897  10.421   2.960 -3.3061  1.1048 -0.6401
  757MOL0     H 4433   9.962  10.583   2.904 -3.0092 -0.5189 -2.6402
  757MOL0     H 4434  10.020  10.575   3.165  0.6260 -0.7655 -0.5400
  757MOL0     H 4435  10.125  10.504   3.040  0.9524 -1.9828  0.9404
  757MOL0     H 4436  10.033  10.281   3.060 -0.2221  3.2237 -3.3638
  757MOL0     H 4437   9.910  10.338   3.179 -0.0120  0.7039  1.2460
  757MOL0     H 4438  10.086  10.402   3.350  0.2740 -0.3095 -0.2781
  757MOL0     H 4439  10.080  10.227   3.317 -0.2945  0.9420  0.7913
  757MOL0     H 4440  10.272  10.394   3.155 -1.7012 -0.3171 -0.6703
  757MOL0     H 4441  10.271  10.224   3.188 -2.4761 -0.2923 -0.0504
  757MOL0     H 4442  10.292  10.410   3.423  1.4317  0.5468 -0.1420
  757MOL0     H 4443  10.426  10.379   3.324 -0.0711 -0.0529 -0.3192
  757MOL0     H 4444  10.355  10.114   3.367  1.3886  0.6048  0.2060
  757MOL0     H 4445  10.242  10.177   3.486  2.0554 -2.6859  0.9973
  757MOL0     H 4446   9.684  10.363   3.009  0.1927  3.2555  1.4606
  757MOL0     H 4447   9.475  10.214   2.963 -0.0111  0.0309 -0.0813
  757MOL0     H 4448   9.032  10.248   2.854  2.6538  0.1000  0.0559
  757MOL0     H 4449   8.826  10.118   2.876  0.3486  0.5210 -0.8740
  757MOL0     H 4450   8.051   9.757   4.132  2.3585 -2.4397 -0.7451
  757MOL0     H 4451   7.822   9.819   4.209 -2.9737 -1.0428 -0.1881
  757MOL0     H 4452   7.420   9.670   4.388 -0.0572 -0.0403 -0.9768
  757MOL0     H 4453   7.213   9.757   4.449 -1.5325 -0.7087 -0.7237
  757MOL0     H 4454   6.990  10.017   4.137  2.1358 -2.8012 -2.4471
  757MOL0     H 4455   6.906   9.856   4.139 -2.8218  0.0276  1.6638
  757MOL0     H 4456   6.791  10.073   4.194  0.2002 -1.3685 -1.1259
  757MOL0     H 4457   6.877  10.067   4.350 -2.0459  0.9290  1.5344
  757MOL0     H 4458   6.683   9.862   4.233 -0.4852 -2.8395  0.1359
  757MOL0     H 4459   6.788   9.814   4.358 -1.1812  0.0172 -1.6201
  757MOL0     H 4460   6.693  10.004   4.503  0.1462 -2.5036  0.7388
  757MOL0     H 4461   6.569   9.891   4.457 -0.1951 -1.6792 -4.3116
  757MOL0     H 4462   6.472  10.266   4.261 -0.0388  0.2489  0.1440
  757MOL0     H 4463   7.140   9.869   4.041  1.1555  3.0101  0.4021
  757MOL0     H 4464   7.339   9.674   3.897  2.6436 -1.5331  1.9020
  757MOL0     H 4465   7.284   9.847   3.889  1.0248  2.3270  2.0709
  757MOL0     H 4466   7.443   9.825   3.924 -0.3273  0.5057  1.9012
  758MOL0     O 4467  10.396  11.086   2.560 -0.3798 -0.5159  0.8796
  758MOL0     C 4468  10.355  10.970   2.556 -0.3623  0.2502 -0.1526
  758MOL0     O 4469  10.428  10.858   2.602  0.0916 -0.5215 -0.2584
  758MOL0     C 4470  10.549  10.870   2.672  0.6952 -0.2239 -1.3354
  758MOL0     C 4471  10.586  10.741   2.714 -0.3231  0.2332  0.1252
  758MOL0     C 4472  10.703  10.723   2.794  0.2395 -0.0007  0.3047
  758MOL0     C 4473  10.790  10.828   2.814 -1.0310 -0.1896 -0.3331
  758MOL0     O 4474  10.910  10.815   2.876 -0.5908  0.2794  0.6526
  758MOL0     C 4475  10.971  10.933   2.932 -0.2196 -0.6473  0.7866
  758MOL0     C 4476  11.031  10.908   3.065  0.0011 -0.5421  0.0600
  758MOL0     C 4477  11.156  10.819   3.061 -0.1966  0.1275  0.0721
  758MOL0     C 4478  11.204  10.793   3.207  0.1724  0.5450 -0.2630
  758MOL0     C 4479  11.329  10.711   3.228 -0.9465 -0.7427  0.0809
  758MOL0     C 4480  11.338  10.677   3.377  0.1947 -0.2318 -0.3569
  758MOL0     C 4481  11.466  10.585   3.390  0.3656 -0.9230 -0.0406
  758MOL0     C 4482  11.477  10.525   3.533  0.0155 -0.6731 -0.0932
  758MOL0     N 4483  11.598  10.581   3.600 -0.2189 -0.3427 -0.2284
  758MOL0     C 4484  11.726  10.513   3.598 -0.1823 -0.8326  0.2912
  758MOL0     C 4485  11.789  10.588   3.688 -0.0028  0.3373  0.2742
  758MOL0     C 4486  11.935  10.551   3.728  0.0381  0.3495 -0.9229
  758MOL0     C 4487  11.944  10.542   3.887  0.1338 -0.0324  0.3783
  758MOL0     C 4488  12.066  10.464   3.930 -0.0710 -0.3769  0.6756
  758MOL0     C 4489  12.120  10.521   4.061  0.6133  0.1717 -0.5714
  758MOL0     O 4490  12.195  10.417   4.125  0.2178 -0.3412  0.4912
  758MOL0     C 4491  12.332  10.401   4.110 -0.7082 -0.8309 -0.0549
  758MOL0     C 4492  12.397  10.303   4.185 -0.3894 -0.0235  0.5341
  758MOL0     C 4493  12.533  10.272   4.161 -0.3351  0.9983  0.2150
  758MOL0     C 4494  12.593  10.150   4.233  0.0466 -0.2711 -0.6275
  758MOL0     C 4495  12.607  10.342   4.058  0.1469  0.0206 -0.4459
  758MOL0     C 4496  12.748  10.320   4.018  0.1553 -0.3024  0.0429
  758MOL0     O 4497  12.831  10.278   4.116 -0.0955 -0.2904  0.0302
  758MOL0     C 4498  12.952  10.221   4.075  1.2175 -0.4077 -0.1482
  758MOL0     C 4499  12.996  10.133   4.178 -0.2400  0.3858  0.4303
  758MOL0     C 4500  13.125  10.073   4.176 -0.1173 -0.2300  0.1647
  758MOL0     C 4501  13.209  10.109   4.073 -0.6876  0.4818 -0.7264
  758MOL0     O 4502  13.334  10.058   4.074  0.6532 -0.5215 -0.2333
  758MOL0     C 4503  13.432  10.156   4.128  0.5751  0.0223  0.5668
  758MOL0     C 4504  13.561  10.086   4.161  0.9480 -0.8306 -0.7915
  758MOL0     C 4505  13.590  10.093   4.311  0.6441 -0.6760  0.2474
  758MOL0     C 4506  13.699   9.991   4.349 -0.3798  0.1597 -0.0770
  758MOL0     C 4507  13.845  10.044   4.316 -0.0205  0.2490  0.4238
  758MOL0     C 4508  13.927   9.917   4.348 -0.2712  1.4323  0.6788
  758MOL0     C 4509  14.079   9.941   4.364  0.1072 -0.2978 -0.2634
  758MOL0     C 4510  14.148  10.000   4.234 -0.0605  0.7137 -0.1012
  758MOL0    Cl 4511  14.128   9.885   4.094 -0.1485 -0.4048  0.5574
  758MOL0     C 4512  13.165  10.200   3.976 -0.7107 -0.1417 -0.4314
  758MOL0     C 4513  13.042  10.257   3.970  0.8943  0.5072  0.3351
  758MOL0     O 4514  12.781  10.353   3.903 -0.8326  0.0237  0.7386
  758MOL0     C 4515  12.538  10.452   3.991 -0.5054  0.4385  0.3565
  758MOL0     C 4516  12.404  10.475   4.013 -0.4685  0.5485 -0.1616
  758MOL0     N 4517  11.721  10.705   3.732  0.5519 -0.0696  0.1796
  758MOL0     N 4518  11.603  10.697   3.673 -0.1319  0.6155 -0.4962
  758MOL0     C 4519  10.760  10.950   2.758  0.2039 -0.4064  0.1668
  758MOL0     C 4520  10.641  10.974   2.694  0.7382  1.1966 -0.2453
  758MOL0     C 4521  10.229  10.932   2.482 -0.6305 -0.1223  0.5153
  758MOL0     C 4522  10.183  10.797   2.472 -0.1782 -0.6440 -0.4943
  758MOL0     C 4523  10.072  10.756   2.417 -0.4468 -0.0618 -0.5236
  758MOL0     C 4524   9.986  10.847   2.367 -0.0996  0.8682 -0.5589
  758MOL0     O 4525   9.858  10.811   2.314 -0.8734  0.3824  0.4798
  758MOL0     C 4526   9.807  10.680   2.332 -0.0083  0.3471  0.1783
  758MOL0     C 4527   9.670  10.684   2.266  0.3386 -0.7360 -0.3015
  758MOL0     C 4528   9.581  10.792   2.324  0.3316  0.2915 -0.1205
  758MOL0     C 4529   9.520  10.769   2.460  0.5274 -0.4443 -1.1697
  758MOL0     C 4530   9.390  10.698   2.443  0.0072 -1.6068  0.1936
  758MOL0     C 4531   9.281  10.655   2.430  1.0292 -0.1753  0.0944
  758MOL0     C 4532  10.017  10.977   2.372  0.2518  0.1305 -0.0253
  758MOL0     C 4533  10.134  11.029   2.436 -0.1497 -0.2054  0.2920
  758MOL0     C 4534  10.147  11.174   2.452  0.4465  0.3243  0.3042
  758MOL0     H 4535  10.524  10.661   2.675  1.2475 -0.0840 -1.8875
  758MOL0     H 4536  10.727  10.622   2.828 -1.1249 -0.0329  1.2542
  758MOL0     H 4537  10.894  11.008   2.954  0.0268 -0.0142 -0.3927
  758MOL0     H 4538  11.047  10.974   2.864  0.1105 -1.1715  0.8348
  758MOL0     H 4539  11.069  11.005   3.098  1.7237 -0.5215 -1.8076
  758MOL0     H 4540  10.967  10.861   3.140  2.0881 -1.9124  1.0713
  758MOL0     H 4541  11.138  10.724   3.010  1.6277 -0.2101 -0.0059
  758MOL0     H 4542  11.242  10.871   3.019  0.8862 -0.3863  1.5708
  758MOL0     H 4543  11.224  10.893   3.247  0.6080 -0.0429  1.0336
  758MOL0     H 4544  11.132  10.735   3.266 -0.8392  1.4085 -0.6208
  758MOL0     H 4545  11.416  10.767   3.193 -0.5088 -1.1394  0.5254
  758MOL0     H 4546  11.330  10.615   3.176  0.8798 -0.9281  0.4144
  758MOL0     H 4547  11.356  10.764   3.441  1.5583  0.1536 -1.2167
  758MOL0     H 4548  11.260  10.605   3.404  0.5404 -1.6073 -2.6995
  758MOL0     H 4549  11.554  10.644   3.364 -1.0085  0.2270 -2.3888
  758MOL0     H 4550  11.460  10.506   3.315 -1.5718 -0.6152 -0.2613
  758MOL0     H 4551  11.387  10.554   3.588 -0.0312 -0.1738 -0.4241
  758MOL0     H 4552  11.489  10.417   3.522 -0.7433 -0.9395  1.3790
  758MOL0     H 4553  11.774  10.426   3.556  0.0265 -0.7144  0.2820
  758MOL0     H 4554  12.011  10.623   3.693  0.2066  0.1171 -1.0378
  758MOL0     H 4555  11.953  10.454   3.680 -0.7883  0.6617 -1.9125
  758MOL0     H 4556  11.952  10.648   3.912  0.2942  0.1763 -0.5302
  758MOL0     H 4557  11.853  10.505   3.936 -0.6425  0.1488 -0.8668
  758MOL0     H 4558  12.037  10.359   3.934  0.4291 -0.4899  1.4013
  758MOL0     H 4559  12.144  10.476   3.854  0.4577 -1.7302  0.9785
  758MOL0     H 4560  12.169  10.618   4.063  3.5874 -1.2438  0.0769
  758MOL0     H 4561  12.036  10.539   4.128  1.6196  0.0684  0.7416
  758MOL0     H 4562  12.345  10.244   4.260  0.3289  0.9549  1.8277
  758MOL0     H 4563  12.642  10.078   4.168 -0.6004 -1.5569  0.2555
  758MOL0     H 4564  12.517  10.088   4.283  0.8892 -2.2537 -1.7050
  758MOL0     H 4565  12.665  10.186   4.307  0.2582  0.8027 -1.3421
  758MOL0     H 4566  12.932  10.102   4.260  0.4954 -1.1729  0.4648
  758MOL0     H 4567  13.161  10.017   4.262 -2.4094 -0.5574  0.9604
  758MOL0     H 4568  13.434  10.236   4.054 -2.9840 -0.4646 -0.2064
  758MOL0     H 4569  13.394  10.202   4.219  1.5348 -0.9992  1.5284
  758MOL0     H 4570  13.546   9.981   4.133 -0.5593 -1.9668  3.5287
  758MOL0     H 4571  13.643  10.126   4.100  1.7624 -0.8263  0.2890
  758MOL0     H 4572  13.497  10.074   4.365  0.2430  1.1096  0.2292
  758MOL0     H 4573  13.627  10.190   4.345  0.6583 -0.5026 -0.2552
  758MOL0     H 4574  13.674   9.891   4.314 -0.9237  0.1937  0.2044
  758MOL0     H 4575  13.687   9.992   4.458 -5.1020  2.4151 -0.3727
  758MOL0     H 4576  13.858  10.069   4.210 -1.6440 -1.3651 -0.2199
  758MOL0     H 4577  13.870  10.121   4.389 -1.7455  1.4660 -0.2061
  758MOL0     H 4578  13.910   9.845   4.268 -0.6154  1.5779  0.6214
  758MOL0     H 4579  13.906   9.858   4.437  3.1598 -1.3214 -0.1157
  758MOL0     H 4580  14.125   9.846   4.390  1.2599  0.6686  1.3938
  758MOL0     H 4581  14.098  10.014   4.443  0.3197 -0.4480 -0.1753
  758MOL0     H 4582  14.255  10.017   4.245 -0.1035  1.2458 -0.4828
  758MOL0     H 4583  14.109  10.101   4.218  1.3577  1.1290 -1.1051
  758MOL0     H 4584  13.234  10.227   3.897  0.3192  1.2764  0.8836
  758MOL0     H 4585  13.022  10.324   3.887  1.1316  1.1320  0.7794
  758MOL0     H 4586  12.597  10.506   3.917  0.7583 -0.6353  0.5439
  758MOL0     H 4587  12.342  10.544   3.957 -1.7164 -1.1112 -0.9346
  758MOL0     H 4588  10.823  11.037   2.767  2.3197 -2.0209  2.3888
  758MOL0     H 4589  10.616  11.073   2.657 -0.1831  0.8032 -0.7272
  758MOL0     H 4590  10.237  10.717   2.520  0.8856  1.2324  1.6446
  758MOL0     H 4591  10.042  10.652   2.422  0.1395 -0.2764 -1.3380
  758MOL0     H 4592   9.866  10.600   2.288  1.4414  0.4722  1.7701
  758MOL0     H 4593   9.805  10.654   2.438  0.4118  0.3025  0.1764
  758MOL0     H 4594   9.617  10.589   2.279 -0.6824 -0.0108  0.9812
  758MOL0     H 4595   9.680  10.696   2.158 -1.3275  2.3209 -0.2157
  758MOL0     H 4596   9.633  10.889   2.323  0.4987  0.2136 -1.3724
  758MOL0     H 4597   9.497  10.796   2.254  1.0194 -2.1968 -1.2018
  758MOL0     H 4598   9.503  10.867   2.506  0.9884  0.7478 -3.3884
  758MOL0     H 4599   9.589  10.714   2.524  1.2254  3.0492  1.3892
  758MOL0     H 4600   9.177  10.634   2.416  0.2478  1.5828  2.6113
  758MOL0     H 4601   9.939  11.045   2.340  1.9244  2.8720  1.3277
  758MOL0     H 4602  10.215  11.228   2.386 -0.3629 -0.3487 -1.1363
  758MOL0     H 4603  10.044  11.209   2.447  0.0558 -0.7204  0.7053
  758MOL0     H 4604  10.178  11.195   2.555 -0.5499 -2.1826  1.1926
  759MOL0     O 4605   9.449   5.077   4.912  0.4998  0.6300 -0.7098
  759MOL0     C 4606   9.462   5.053   4.797 -0.4311  0.1106 -0.0887
  759MOL0     O 4607   9.584   5.026   4.733 -0.3927 -0.3639 -0.0834
  759MOL0     C 4608   9.694   5.010   4.804 -0.1642  0.8217  0.4070
  759MOL0     C 4609   9.714   4.957   4.931 -0.3181  0.1615 -0.8061
  759MOL0     C 4610   9.847   4.967   4.985  0.4086  0.7384  0.9981
  759MOL0     C 4611   9.950   5.013   4.916 -0.1236 -0.5754  0.5178
  759MOL0     O 4612  10.081   5.014   4.964  0.2792 -0.1591  0.2305
  759MOL0     C 4613  10.096   5.068   5.096  0.1067 -0.0008  0.4172
  759MOL0     C 4614  10.197   5.179   5.075 -0.1956  0.3525  0.9895
  759MOL0     C 4615  10.341   5.121   5.058 -0.1106  0.0092  1.0470
  759MOL0     C 4616  10.438   5.243   5.035 -0.5587 -0.8034 -0.1506
  759MOL0     C 4617  10.577   5.201   5.010 -0.7311 -0.4822  0.1531
  759MOL0     C 4618  10.664   5.322   4.972 -0.7054 -0.1169  0.0317
  759MOL0     C 4619  10.812   5.296   4.970 -0.1275  0.5056 -0.1055
  759MOL0     C 4620  10.848   5.214   4.850 -0.7688 -0.1600  0.4066
  759MOL0     N 4621  11.000   5.182   4.866 -0.5032 -0.1131 -0.3623
  759MOL0     C 4622  11.106   5.273   4.864 -0.8783  0.6356  0.3184
  759MOL0     C 4623  11.219   5.196   4.894  0.2965  0.0330 -0.1266
  759MOL0     C 4624  11.358   5.235   4.924 -0.5970 -0.4742  0.2712
  759MOL0     C 4625  11.462   5.162   4.832 -1.0809 -0.3558 -1.1597
  759MOL0     C 4626  11.605   5.211   4.839 -0.0070  0.7607 -0.4571
  759MOL0     C 4627  11.692   5.118   4.748  0.8461  0.2486  0.8901
  759MOL0     O 4628  11.818   5.177   4.755 -0.6024 -0.0608  0.6330
  759MOL0     C 4629  11.921   5.125   4.679 -0.5702 -0.3213  0.9347
  759MOL0     C 4630  11.904   5.023   4.587  0.2281 -0.0196  0.5109
  759MOL0     C 4631  12.011   4.972   4.514 -0.2814  0.2251  0.5340
  759MOL0     C 4632  11.982   4.853   4.429  0.8239  0.1800 -0.3370
  759MOL0     C 4633  12.144   5.030   4.521  0.0545 -0.6385 -0.3054
  759MOL0     C 4634  12.270   4.985   4.445  0.2784 -0.1226 -0.2934
  759MOL0     O 4635  12.388   5.057   4.469  0.1456  0.1853  0.3043
  759MOL0     C 4636  12.506   4.998   4.438  0.6440  0.0211  0.6033
  759MOL0     C 4637  12.612   5.091   4.426 -0.1538  0.7674  0.9308
  759MOL0     C 4638  12.731   5.037   4.393 -0.6184  0.7204 -0.4003
  759MOL0     C 4639  12.766   4.905   4.386 -0.1706  0.4442 -0.1038
  759MOL0     O 4640  12.882   4.841   4.356  0.3499 -0.5909  0.6761
  759MOL0     C 4641  13.005   4.911   4.368 -0.1782 -0.4086 -0.0210
  759MOL0     C 4642  13.106   4.801   4.315  0.4536 -0.0303 -0.3779
  759MOL0     C 4643  13.255   4.840   4.332  0.3905  0.0784 -0.0626
  759MOL0     C 4644  13.296   4.828   4.485  1.5397 -0.5940  0.3570
  759MOL0     C 4645  13.438   4.883   4.504 -0.4475 -0.1553  0.3486
  759MOL0     C 4646  13.488   4.893   4.651  0.0863  0.3009  0.8749
  759MOL0     C 4647  13.534   4.765   4.717  0.0998 -0.2788 -1.0384
  759MOL0     C 4648  13.673   4.763   4.766 -0.7542  0.5441  0.1742
  759MOL0    Cl 4649  13.696   4.889   4.891 -0.0880 -0.3954 -0.1043
  759MOL0     C 4650  12.661   4.817   4.416  0.2627 -0.5449  0.5829
  759MOL0     C 4651  12.532   4.859   4.442 -0.4824  0.7516  0.0391
  759MOL0     O 4652  12.260   4.885   4.375 -0.3660  0.4778  0.9177
  759MOL0     C 4653  12.156   5.145   4.606 -1.0534 -0.0468 -0.2275
  759MOL0     C 4654  12.048   5.191   4.683 -0.7759  0.3255 -0.3813
  759MOL0     N 4655  11.179   5.071   4.926 -0.4436 -0.1103 -0.0005
  759MOL0     N 4656  11.051   5.064   4.914  1.0793 -0.0119  0.0558
  759MOL0     C 4657   9.935   5.055   4.789 -0.9132 -0.5889  0.1640
  759MOL0     C 4658   9.807   5.051   4.733 -0.1775  0.0857 -1.3159
  759MOL0     C 4659   9.341   5.066   4.715 -0.2018  0.1841 -1.0235
  759MOL0     C 4660   9.215   5.028   4.769  0.3173 -0.1215  0.1212
  759MOL0     C 4661   9.098   5.035   4.693  0.5939  0.5008  0.2383
  759MOL0     C 4662   9.096   5.086   4.562  0.7499  0.0375  0.2972
  759MOL0     O 4663   8.985   5.106   4.484 -0.3783 -0.5464  0.3743
  759MOL0     C 4664   8.850   5.090   4.536  0.1854  0.8187 -0.0037
  759MOL0     C 4665   8.753   5.150   4.438  0.3891  0.5463 -0.6068
  759MOL0     C 4666   8.602   5.113   4.471  0.0490 -0.8319  0.0520
  759MOL0     C 4667   8.556   4.971   4.456  0.1423  0.4126 -0.5123
  759MOL0     C 4668   8.409   4.968   4.461 -0.6555 -0.7648 -0.7597
  759MOL0     C 4669   8.287   4.971   4.458 -0.2561  0.3091  0.4906
  759MOL0     C 4670   9.222   5.124   4.510 -0.8032  0.3599  0.2374
  759MOL0     C 4671   9.348   5.121   4.581  0.5046  0.4102  0.2824
  759MOL0     C 4672   9.470   5.187   4.521  0.1544  0.0782 -0.2369
  759MOL0     H 4673   9.639   4.907   4.991 -1.6317  3.4774  0.5304
  759MOL0     H 4674   9.862   4.926   5.084 -2.3643  1.0646  1.6137
  759MOL0     H 4675  10.117   4.988   5.167 -0.7392  0.6764  1.4621
  759MOL0     H 4676   9.999   5.110   5.124  0.3245  0.2040  0.8782
  759MOL0     H 4677  10.169   5.245   4.993  0.8335 -1.3472 -0.8303
  759MOL0     H 4678  10.199   5.227   5.173  0.9925 -0.6669  1.4938
  759MOL0     H 4679  10.376   5.059   5.141 -1.0369 -1.4389  0.3832
  759MOL0     H 4680  10.352   5.052   4.974 -1.4368 -0.7359  1.4629
  759MOL0     H 4681  10.402   5.287   4.941  2.5914  1.2029 -0.5543
  759MOL0     H 4682  10.430   5.324   5.108  0.3505  0.2823 -1.2156
  759MOL0     H 4683  10.571   5.130   4.926  1.6503  1.6103 -1.9461
  759MOL0     H 4684  10.617   5.150   5.098  1.9441 -1.4711 -1.5134
  759MOL0     H 4685  10.635   5.370   4.878  1.2966  0.2656 -0.4449
  759MOL0     H 4686  10.643   5.403   5.044 -0.9902 -0.9556  0.9138
  759MOL0     H 4687  10.844   5.249   5.063  2.6863  0.7324 -0.8796
  759MOL0     H 4688  10.866   5.392   4.972  0.6461  0.0730  0.5221
  759MOL0     H 4689  10.792   5.121   4.865  1.1213 -1.1196  1.8875
  759MOL0     H 4690  10.828   5.253   4.750  1.0333 -0.2243 -0.0038
  759MOL0     H 4691  11.112   5.380   4.847 -0.2792  0.1834 -3.1679
  759MOL0     H 4692  11.384   5.191   5.021  4.5913 -1.6995 -1.3745
  759MOL0     H 4693  11.380   5.342   4.924  0.7515 -0.7200 -0.8294
  759MOL0     H 4694  11.448   5.058   4.863 -1.6482 -0.1056 -0.5424
  759MOL0     H 4695  11.435   5.171   4.726  0.1698  1.8801 -1.3514
  759MOL0     H 4696  11.617   5.313   4.801  0.7165  0.9220  0.1765
  759MOL0     H 4697  11.642   5.202   4.942 -2.2045  0.3603  0.3458
  759MOL0     H 4698  11.703   5.016   4.785  0.3422 -0.6312 -1.2837
  759MOL0     H 4699  11.661   5.110   4.644  1.2685 -1.4940  0.8734
  759MOL0     H 4700  11.812   4.969   4.570 -0.0367  0.8229 -0.9138
  759MOL0     H 4701  11.878   4.844   4.398  0.6975  1.9989 -0.5632
  759MOL0     H 4702  12.010   4.767   4.490  0.9629  0.5858  0.1813
  759MOL0     H 4703  12.039   4.865   4.336 -0.1363 -0.1637 -0.9909
  759MOL0     H 4704  12.602   5.199   4.427 -0.3786  0.8107 -1.3057
  759MOL0     H 4705  12.812   5.108   4.379  0.6277 -0.6296 -0.2918
  759MOL0     H 4706  13.020   5.001   4.308  1.6744 -0.7314 -0.1169
  759MOL0     H 4707  13.020   4.940   4.473  1.0255  2.5768 -0.9037
  759MOL0     H 4708  13.082   4.710   4.370  0.0182  0.4729  0.2869
  759MOL0     H 4709  13.090   4.786   4.208 -2.3010  0.1403 -0.0746
  759MOL0     H 4710  13.267   4.947   4.309  2.1378 -0.1427 -0.3200
  759MOL0     H 4711  13.320   4.787   4.262  1.4655  1.4022 -0.1194
  759MOL0     H 4712  13.288   4.728   4.530 -0.1406 -2.0291 -2.8599
  759MOL0     H 4713  13.226   4.892   4.539  0.7197 -0.8420 -0.4045
  759MOL0     H 4714  13.507   4.826   4.442  1.5359 -0.0270  2.2891
  759MOL0     H 4715  13.434   4.987   4.470  0.3299 -0.3887 -0.4587
  759MOL0     H 4716  13.405   4.924   4.715 -0.5432 -1.4007  0.9415
  759MOL0     H 4717  13.572   4.962   4.657 -1.3527  2.3546 -0.8332
  759MOL0     H 4718  13.519   4.683   4.645 -1.3155  0.4753 -1.6398
  759MOL0     H 4719  13.471   4.749   4.805 -0.6807 -3.0952 -1.9838
  759MOL0     H 4720  13.741   4.781   4.683  0.6256  0.5013  1.2524
  759MOL0     H 4721  13.692   4.669   4.819 -1.1333  0.5968  0.4109
  759MOL0     H 4722  12.691   4.713   4.410 -0.8015 -0.8171 -0.4410
  759MOL0     H 4723  12.460   4.785   4.475 -0.8696  1.5269  0.9592
  759MOL0     H 4724  12.254   5.187   4.626 -0.4446 -0.8616 -1.4001
  759MOL0     H 4725  12.058   5.264   4.762 -3.4384 -0.3684  0.7286
  759MOL0     H 4726  10.020   5.089   4.731 -2.7233  4.2740 -0.1165
  759MOL0     H 4727   9.803   5.070   4.626  2.2469  3.4558 -0.9825
  759MOL0     H 4728   9.200   4.988   4.869 -1.0513  1.3964  0.5694
  759MOL0     H 4729   9.001   5.008   4.735 -0.4293 -1.6624 -3.1129
  759MOL0     H 4730   8.824   4.984   4.539  1.3632  0.4129 -2.1488
  759MOL0     H 4731   8.843   5.138   4.634  2.3841 -0.1950  0.7173
  759MOL0     H 4732   8.788   5.111   4.342  4.3017 -2.2776  1.6884
  759MOL0     H 4733   8.755   5.259   4.430  1.7365  0.4002 -4.0226
  759MOL0     H 4734   8.592   5.146   4.575  0.1001 -0.9247  0.0865
  759MOL0     H 4735   8.533   5.176   4.415  1.0624  0.8626  0.6495
  759MOL0     H 4736   8.594   4.906   4.536 -0.2673 -0.2121 -0.8145
  759MOL0     H 4737   8.571   4.941   4.352 -1.6402 -0.9773 -0.4345
  759MOL0     H 4738   8.185   4.968   4.426 -0.4186  7.8339 -1.5079
  759MOL0     H 4739   9.221   5.160   4.407 -1.4128 -1.4833 -0.4483
  759MOL0     H 4740   9.514   5.270   4.578 -0.0554  0.9848 -1.3392
  759MOL0     H 4741   9.550   5.115   4.504 -0.2912 -1.1691  2.5575
  759MOL0     H 4742   9.451   5.231   4.422  0.2311 -1.4643 -0.9666
  760MOL0     O 4743  11.223   5.219   1.676 -0.6763 -0.3167 -0.1560
  760MOL0     C 4744  11.145   5.182   1.761  0.3378 -0.1026 -0.4676
  760MOL0     O 4745  11.177   5.151   1.895 -0.6833  0.0385 -0.4218
  760MOL0     C 4746  11.305   5.133   1.933 -0.2616  0.0045 -0.5155
  760MOL0     C 4747  11.318   5.118   2.066 -0.0690  0.3936 -0.1359
  760MOL0     C 4748  11.446   5.082   2.116  0.7133  0.5313 -1.0394
  760MOL0     C 4749  11.561   5.071   2.044 -0.0214 -0.5222 -0.7334
  760MOL0     O 4750  11.680   5.064   2.108 -0.1007  0.3136 -0.5205
  760MOL0     C 4751  11.800   5.126   2.050  0.7584  0.8273 -1.3007
  760MOL0     C 4752  11.890   5.170   2.167 -0.6678 -0.1333  0.6532
  760MOL0     C 4753  12.032   5.221   2.129 -0.0730 -0.8852  0.0689
  760MOL0     C 4754  12.110   5.278   2.253 -0.1017  0.1719  0.9569
  760MOL0     C 4755  12.246   5.297   2.202  0.0547 -0.0043 -0.1010
  760MOL0     C 4756  12.335   5.362   2.312  0.0741  0.3844  0.0216
  760MOL0     C 4757  12.474   5.406   2.258  0.9822 -0.2744 -0.1514
  760MOL0     C 4758  12.546   5.300   2.173  0.2811 -0.1574  0.4640
  760MOL0     N 4759  12.686   5.349   2.162  0.0452  0.1299 -0.6864
  760MOL0     C 4760  12.787   5.280   2.222 -0.7162 -0.4348 -1.0924
  760MOL0     C 4761  12.900   5.337   2.181 -0.4353 -0.2095  0.0211
  760MOL0     C 4762  13.037   5.301   2.221 -0.2997  0.1740  0.0431
  760MOL0     C 4763  13.101   5.238   2.099 -0.0221  0.2752  0.7761
  760MOL0     C 4764  13.217   5.151   2.134 -0.5180  0.1857 -0.6541
  760MOL0     C 4765  13.335   5.228   2.188 -0.4233 -0.3863  0.2278
  760MOL0     O 4766  13.388   5.308   2.085  0.1978 -0.4048 -0.1049
  760MOL0     C 4767  13.520   5.299   2.067  0.1231 -1.0454 -0.4006
  760MOL0     C 4768  13.610   5.292   2.171  0.5072  0.2669 -0.3223
  760MOL0     C 4769  13.752   5.271   2.154 -0.4203 -0.9813 -0.4404
  760MOL0     C 4770  13.832   5.253   2.275  0.1201 -0.4989 -0.2831
  760MOL0     C 4771  13.798   5.257   2.023 -0.2745 -0.9523  0.3090
  760MOL0     C 4772  13.941   5.228   1.988  0.2048 -0.4400  0.1655
  760MOL0     O 4773  13.977   5.233   1.856  0.5384 -0.0059 -0.0691
  760MOL0     C 4774  14.070   5.153   1.792  0.0086  0.1160 -0.2413
  760MOL0     C 4775  14.124   5.033   1.842 -0.0310  0.5879 -0.0954
  760MOL0     C 4776  14.215   4.957   1.768  0.6574  0.1445 -0.2400
  760MOL0     C 4777  14.247   5.002   1.640 -0.0590  0.5073  0.2100
  760MOL0     O 4778  14.321   4.922   1.555 -0.3405 -0.1480 -0.5449
  760MOL0     C 4779  14.365   4.791   1.595  0.3593 -0.0907 -0.0164
  760MOL0     C 4780  14.497   4.791   1.672 -0.5644  0.1213 -0.5793
  760MOL0     C 4781  14.604   4.866   1.582 -0.0510  0.5714 -0.3749
  760MOL0     C 4782  14.741   4.871   1.653  0.2721 -0.7730 -1.0380
  760MOL0     C 4783  14.849   4.954   1.588 -0.0782 -0.9089  0.2844
  760MOL0     C 4784  14.982   4.883   1.609 -0.1915  0.8030 -0.0550
  760MOL0     C 4785  15.096   4.985   1.566  0.2191  0.5055 -0.4673
  760MOL0     C 4786  15.216   4.909   1.525 -0.3820  0.0190  0.2814
  760MOL0    Cl 4787  15.188   4.818   1.373 -0.2982 -0.3345 -0.0215
  760MOL0     C 4788  14.194   5.123   1.584 -0.1343 -0.5251 -0.1493
  760MOL0     C 4789  14.103   5.195   1.663 -0.3347 -0.5206 -0.3276
  760MOL0     O 4790  14.022   5.202   2.078  0.8452  0.4489  0.1948
  760MOL0     C 4791  13.711   5.271   1.920 -0.9487  0.1414 -0.9913
  760MOL0     C 4792  13.578   5.302   1.945  0.6247 -0.4852  0.8982
  760MOL0     N 4793  12.868   5.436   2.088  0.0768 -0.4264 -0.0037
  760MOL0     N 4794  12.740   5.434   2.069 -0.0421 -0.5056  0.2053
  760MOL0     C 4795  11.545   5.108   1.907 -0.0482  0.2683 -0.2028
  760MOL0     C 4796  11.421   5.131   1.853 -0.1138  1.0369 -0.0624
  760MOL0     C 4797  10.999   5.169   1.741 -0.2151 -0.7555 -0.3849
  760MOL0     C 4798  10.935   5.085   1.836  0.1326  0.3186 -0.7113
  760MOL0     C 4799  10.795   5.063   1.819 -0.4170 -0.5715  0.3508
  760MOL0     C 4800  10.727   5.109   1.707 -0.1065  0.5693  0.2850
  760MOL0     O 4801  10.594   5.074   1.701 -0.0409 -0.2895  0.8895
  760MOL0     C 4802  10.512   5.128   1.596 -0.3158  0.2502 -0.0948
  760MOL0     C 4803  10.371   5.147   1.644 -0.4501 -0.4096  0.5229
  760MOL0     C 4804  10.359   5.224   1.778  0.5133 -0.2360 -0.0925
  760MOL0     C 4805  10.221   5.220   1.851  0.7792  0.2580 -0.2605
  760MOL0     C 4806  10.235   5.307   1.967  0.3786 -0.3058 -1.0929
  760MOL0     C 4807  10.256   5.378   2.059  0.4085 -0.2360  0.0123
  760MOL0     C 4808  10.801   5.177   1.605  0.0533  0.4296  0.0917
  760MOL0     C 4809  10.934   5.217   1.624  0.2360  0.5749 -0.8157
  760MOL0     C 4810  11.007   5.312   1.526 -0.2722 -0.4008 -0.2013
  760MOL0     H 4811  11.231   5.099   2.128 -0.7090  1.2064 -0.7606
  760MOL0     H 4812  11.452   5.048   2.219 -0.1092  0.8999 -0.8630
  760MOL0     H 4813  11.774   5.217   1.995 -0.6450  2.1130  1.2918
  760MOL0     H 4814  11.855   5.068   1.976 -0.2257  1.7874 -2.8484
  760MOL0     H 4815  11.839   5.249   2.223  1.3907  2.3733 -0.8189
  760MOL0     H 4816  11.907   5.088   2.238  2.7741  2.3675  3.0090
  760MOL0     H 4817  12.095   5.151   2.073  2.5861  1.9333 -0.8038
  760MOL0     H 4818  12.020   5.300   2.054  2.2019 -0.4694  0.0689
  760MOL0     H 4819  12.063   5.374   2.272 -0.4430  0.4212 -0.9622
  760MOL0     H 4820  12.100   5.218   2.344  0.3770 -1.2252  0.1318
  760MOL0     H 4821  12.235   5.361   2.114  1.6015  1.4196  0.6895
  760MOL0     H 4822  12.287   5.200   2.171  1.0731  0.3483  0.1175
  760MOL0     H 4823  12.289   5.444   2.368  3.8452  2.4990  0.3355
  760MOL0     H 4824  12.349   5.283   2.386  2.7556  1.2443  0.5419
  760MOL0     H 4825  12.532   5.436   2.345 -3.3206  3.5658  1.8138
  760MOL0     H 4826  12.460   5.493   2.193 -1.7679  1.2626  2.2668
  760MOL0     H 4827  12.544   5.200   2.218  2.4829 -1.6174 -2.3645
  760MOL0     H 4828  12.502   5.295   2.073 -1.5967 -0.7413  1.2614
  760MOL0     H 4829  12.777   5.210   2.305  0.3599  1.4330  0.6850
  760MOL0     H 4830  13.039   5.227   2.301  1.6448 -0.6554 -0.7154
  760MOL0     H 4831  13.090   5.394   2.244 -0.0409 -0.1845  0.9315
  760MOL0     H 4832  13.024   5.172   2.057 -2.3266  1.4338  2.8789
  760MOL0     H 4833  13.114   5.314   2.021 -2.4264 -0.9169 -0.9274
  760MOL0     H 4834  13.183   5.072   2.202  0.9264 -0.5776 -0.7818
  760MOL0     H 4835  13.253   5.100   2.044 -1.1341  1.5881 -1.7401
  760MOL0     H 4836  13.301   5.289   2.273  0.5455 -0.8796  0.9936
  760MOL0     H 4837  13.414   5.159   2.218  1.8279  1.0593 -1.9490
  760MOL0     H 4838  13.573   5.309   2.272 -0.0997 -1.5723 -0.1972
  760MOL0     H 4839  13.938   5.281   2.281  0.2226 -1.1216  1.5564
  760MOL0     H 4840  13.843   5.147   2.303 -1.7141 -1.0998 -1.6959
  760MOL0     H 4841  13.787   5.308   2.358  2.1323 -4.1236  3.6162
  760MOL0     H 4842  14.101   5.005   1.944 -2.3952 -0.7892 -0.9265
  760MOL0     H 4843  14.248   4.863   1.812  0.9829  0.8137  1.0082
  760MOL0     H 4844  14.284   4.753   1.657  0.8041  1.7313  1.7629
  760MOL0     H 4845  14.386   4.739   1.500  1.2242  0.2282 -0.0073
  760MOL0     H 4846  14.481   4.845   1.766  0.0234 -1.0694  0.2393
  760MOL0     H 4847  14.513   4.685   1.693 -1.7536 -0.0481 -0.4410
  760MOL0     H 4848  14.574   4.969   1.560 -1.4674 -0.0856 -1.6676
  760MOL0     H 4849  14.610   4.819   1.484  1.3605 -0.5284  0.2098
  760MOL0     H 4850  14.773   4.767   1.671  1.2585 -0.4780 -1.0401
  760MOL0     H 4851  14.725   4.907   1.755  2.1753 -2.8918  0.1057
  760MOL0     H 4852  14.829   4.978   1.484  1.4516  1.4944  0.4873
  760MOL0     H 4853  14.863   5.046   1.646  1.4577 -1.8709  1.5194
  760MOL0     H 4854  14.989   4.792   1.550 -1.1369 -0.3345  1.5183
  760MOL0     H 4855  14.997   4.853   1.713 -0.1163  2.2783  0.3802
  760MOL0     H 4856  15.122   5.035   1.660  0.2369  1.2798 -0.8710
  760MOL0     H 4857  15.065   5.059   1.491 -1.4358  0.4680  0.1441
  760MOL0     H 4858  15.243   4.830   1.595 -1.8385 -0.7573  0.0090
  760MOL0     H 4859  15.299   4.979   1.517 -1.8820  1.8756  0.0896
  760MOL0     H 4860  14.223   5.145   1.481  1.6515 -1.1752  0.1766
  760MOL0     H 4861  14.049   5.284   1.633  1.8661  1.4306  1.1013
  760MOL0     H 4862  13.754   5.276   1.821  2.9530 -0.5043  0.4782
  760MOL0     H 4863  13.509   5.319   1.863  0.8107 -3.0636  0.1068
  760MOL0     H 4864  11.632   5.098   1.843  0.9702  3.6501  0.4216
  760MOL0     H 4865  11.424   5.140   1.745  1.5200 -0.9896 -0.2636
  760MOL0     H 4866  10.973   5.053   1.933 -1.4499 -2.0522 -0.8097
  760MOL0     H 4867  10.740   5.013   1.899 -0.4713 -0.8670  0.1304
  760MOL0     H 4868  10.558   5.224   1.570  0.8719 -0.5893 -1.2640
  760MOL0     H 4869  10.510   5.070   1.503  2.6194  2.0767 -1.4537
  760MOL0     H 4870  10.321   5.050   1.644  0.8179 -1.0899 -0.8124
  760MOL0     H 4871  10.312   5.205   1.571 -2.1357  1.8921  3.4849
  760MOL0     H 4872  10.428   5.167   1.841 -2.9753 -3.4663  1.2224
  760MOL0     H 4873  10.386   5.328   1.757 -0.7451  0.2755  0.6860
  760MOL0     H 4874  10.188   5.122   1.885 -0.1233  1.0653  1.2766
  760MOL0     H 4875  10.141   5.258   1.787  0.9608  1.9119  0.4380
  760MOL0     H 4876  10.277   5.447   2.139  0.0765  0.1909 -0.2630
  760MOL0     H 4877  10.755   5.199   1.510  0.0038 -0.9129 -0.2063
  760MOL0     H 4878  11.037   5.396   1.591  0.1358  0.7689 -1.8383
  760MOL0     H 4879  11.085   5.252   1.478  0.0032  0.6597 -1.1097
  760MOL0     H 4880  10.955   5.355   1.440  0.4176  0.1544 -0.3554
  761MOL0     O 4881   0.777   5.479   6.252  0.0808  0.3485  0.4792
  761MOL0     C 4882   0.690   5.526   6.183 -0.4639 -0.1083 -0.1035
  761MOL0     O 4883   0.709   5.603   6.074 -0.2385 -0.7056 -0.4149
  761MOL0     C 4884   0.832   5.619   6.022 -0.1972  0.1004 -0.0029
  761MOL0     C 4885   0.922   5.513   6.002 -0.6527 -0.2176  0.6967
  761MOL0     C 4886   1.045   5.529   5.932  0.7973 -0.1439  0.1271
  761MOL0     C 4887   1.080   5.657   5.894  0.2166  0.2267  0.3284
  761MOL0     O 4888   1.198   5.685   5.832  0.6326 -0.0936 -0.2514
  761MOL0     C 4889   1.274   5.580   5.773  0.0914 -0.3358  0.4456
  761MOL0     C 4890   1.398   5.634   5.708 -0.3375  0.5543  0.1500
  761MOL0     C 4891   1.359   5.704   5.571 -0.3703  0.4947 -0.5098
  761MOL0     C 4892   1.479   5.732   5.483 -0.9097 -0.8157  0.3388
  761MOL0     C 4893   1.583   5.823   5.552  0.8157 -0.2201 -0.5138
  761MOL0     C 4894   1.700   5.839   5.457  0.2600  0.8576 -1.0690
  761MOL0     C 4895   1.804   5.943   5.522 -0.0663  0.5142  0.0193
  761MOL0     C 4896   1.930   5.948   5.436 -0.2161  0.3413  0.8394
  761MOL0     N 4897   2.023   6.048   5.487 -0.6213 -0.6114  0.4840
  761MOL0     C 4898   2.038   6.182   5.442  0.0886 -0.2436  0.2448
  761MOL0     C 4899   2.150   6.227   5.498  0.0188  0.1414 -0.4542
  761MOL0     C 4900   2.199   6.365   5.465  0.0020  0.4776 -0.0321
  761MOL0     C 4901   2.248   6.395   5.323 -0.0923  0.5145 -0.3163
  761MOL0     C 4902   2.353   6.293   5.272  0.0598 -0.2235 -0.1390
  761MOL0     C 4903   2.472   6.282   5.371  0.1814  0.1900  0.0804
  761MOL0     O 4904   2.522   6.419   5.391  0.0907 -0.0150 -0.6885
  761MOL0     C 4905   2.653   6.458   5.375 -0.0012  0.7112  0.3161
  761MOL0     C 4906   2.750   6.387   5.306 -0.2151 -0.2324 -0.0279
  761MOL0     C 4907   2.880   6.426   5.276  0.0237  0.0063  0.8160
  761MOL0     C 4908   2.962   6.325   5.200 -0.7019 -0.2392  0.6025
  761MOL0     C 4909   2.924   6.552   5.330  1.2738 -0.0055  0.0210
  761MOL0     C 4910   3.066   6.608   5.314  0.1046 -0.6812 -0.3946
  761MOL0     O 4911   3.095   6.740   5.353  0.2743  0.4489  0.5375
  761MOL0     C 4912   3.227   6.765   5.358 -1.2313 -0.1242  0.1532
  761MOL0     C 4913   3.279   6.784   5.489 -0.4551 -0.4367  0.0113
  761MOL0     C 4914   3.410   6.827   5.515  0.6030 -0.2613 -0.5817
  761MOL0     C 4915   3.498   6.844   5.399 -0.6626 -0.0194 -0.2751
  761MOL0     O 4916   3.627   6.874   5.426 -0.3301  0.1330 -0.0132
  761MOL0     C 4917   3.686   6.971   5.332  0.6098 -0.1638  0.9345
  761MOL0     C 4918   3.797   7.045   5.405 -0.5631  0.6254  0.5113
  761MOL0     C 4919   3.743   7.114   5.534 -0.5561 -0.4528 -0.2098
  761MOL0     C 4920   3.857   7.142   5.626 -0.4414 -0.3076 -0.4794
  761MOL0     C 4921   3.807   7.195   5.755  0.5056  0.0469  0.1303
  761MOL0     C 4922   3.908   7.262   5.842 -0.0265  0.0945 -0.3192
  761MOL0     C 4923   4.034   7.176   5.857  0.4207 -0.9884  0.7739
  761MOL0     C 4924   4.115   7.234   5.974  0.4471  0.0246  0.2694
  761MOL0    Cl 4925   4.172   7.399   5.921 -0.4158 -0.0994  0.0983
  761MOL0     C 4926   3.446   6.825   5.268  0.7419  0.3810 -0.9199
  761MOL0     C 4927   3.314   6.786   5.249  0.4619 -0.1219 -0.2715
  761MOL0     O 4928   3.148   6.532   5.271  0.5976 -0.0200  0.1800
  761MOL0     C 4929   2.824   6.626   5.398  0.2478  0.3480  0.1559
  761MOL0     C 4930   2.693   6.584   5.420 -0.6119  0.3941  0.1322
  761MOL0     N 4931   2.205   6.132   5.587  0.1029 -1.3101 -0.2759
  761MOL0     N 4932   2.133   6.029   5.571  0.2865  0.4413 -0.2369
  761MOL0     C 4933   0.985   5.759   5.905  0.6409 -0.1132 -0.2895
  761MOL0     C 4934   0.868   5.744   5.973 -0.2070 -0.3033 -0.7464
  761MOL0     C 4935   0.555   5.518   6.253  0.5379 -0.4298 -0.1751
  761MOL0     C 4936   0.558   5.489   6.390  0.4210  0.1441 -1.0857
  761MOL0     C 4937   0.442   5.494   6.472  0.4783 -1.2262 -0.4909
  761MOL0     C 4938   0.315   5.510   6.410 -1.2177 -0.6436  0.5016
  761MOL0     O 4939   0.199   5.498   6.473  0.0546  0.1174 -0.0669
  761MOL0     C 4940   0.188   5.439   6.607 -0.1528  0.5037  0.7192
  761MOL0     C 4941   0.041   5.432   6.638 -0.7590  0.3288 -0.9908
  761MOL0     C 4942  -0.037   5.361   6.524  0.6098  0.1943  0.0487
  761MOL0     C 4943  -0.176   5.308   6.562 -0.7985 -0.4400  0.1480
  761MOL0     C 4944  -0.223   5.218   6.455 -0.1991  0.0392  0.3444
  761MOL0     C 4945  -0.270   5.139   6.379 -1.4441  0.0849  0.3056
  761MOL0     C 4946   0.314   5.539   6.275  0.5753 -0.1763 -0.8517
  761MOL0     C 4947   0.432   5.555   6.201  0.3225 -0.2384  0.4039
  761MOL0     C 4948   0.411   5.600   6.055  0.3768  0.2424 -0.1706
  761MOL0     H 4949   0.915   5.411   6.040 -0.5615 -0.0918  1.0448
  761MOL0     H 4950   1.119   5.450   5.919  1.5916  0.7424 -0.8778
  761MOL0     H 4951   1.215   5.540   5.690 -0.9067  3.0106 -0.5951
  761MOL0     H 4952   1.299   5.507   5.850 -2.2206  0.5889  2.1746
  761MOL0     H 4953   1.448   5.710   5.769 -0.1186 -0.7980  1.7286
  761MOL0     H 4954   1.470   5.551   5.704 -1.0916 -0.4099  3.5195
  761MOL0     H 4955   1.290   5.644   5.512 -0.8394 -0.6073  1.0772
  761MOL0     H 4956   1.323   5.804   5.597  0.8271  1.2109 -1.4936
  761MOL0     H 4957   1.525   5.638   5.452  2.4525  1.1262 -1.0370
  761MOL0     H 4958   1.440   5.780   5.392  1.1574  0.0136 -0.1634
  761MOL0     H 4959   1.609   5.779   5.649 -1.2805 -2.5055 -0.8733
  761MOL0     H 4960   1.545   5.922   5.579  1.0688  0.1662 -1.5391
  761MOL0     H 4961   1.746   5.740   5.444 -0.1401  0.3295  1.0610
  761MOL0     H 4962   1.653   5.871   5.364 -2.2654  0.7598  0.0767
  761MOL0     H 4963   1.832   5.910   5.623  1.9718  1.3708 -0.2106
  761MOL0     H 4964   1.759   6.042   5.525  1.8976  1.4202  1.8420
  761MOL0     H 4965   1.987   5.855   5.430  1.2616  1.2414  0.2052
  761MOL0     H 4966   1.896   5.978   5.337  1.4908 -0.1408  0.0582
  761MOL0     H 4967   1.986   6.239   5.366 -0.0459 -1.9410 -0.9888
  761MOL0     H 4968   2.280   6.381   5.537 -0.1191  3.7282 -0.4509
  761MOL0     H 4969   2.134   6.447   5.498  0.2247  0.6858 -0.1082
  761MOL0     H 4970   2.164   6.383   5.254 -0.6854  0.1015  0.4647
  761MOL0     H 4971   2.289   6.496   5.318 -1.3023  1.0520  0.2857
  761MOL0     H 4972   2.313   6.191   5.270 -0.1628 -0.3859  4.0715
  761MOL0     H 4973   2.384   6.325   5.172 -2.9145  1.1492 -0.7227
  761MOL0     H 4974   2.432   6.241   5.464 -0.7173  1.4006  0.2569
  761MOL0     H 4975   2.540   6.215   5.318 -0.0428  2.0995 -2.8732
  761MOL0     H 4976   2.720   6.295   5.258  2.3615 -0.7184 -0.8470
  761MOL0     H 4977   3.049   6.300   5.261 -2.0908  1.2991  3.3902
  761MOL0     H 4978   3.009   6.369   5.111 -0.0445 -1.8748  0.0972
  761MOL0     H 4979   2.903   6.239   5.167  1.1181 -1.0582 -0.6908
  761MOL0     H 4980   3.208   6.768   5.569  0.2892 -0.9606  0.5829
  761MOL0     H 4981   3.461   6.830   5.610 -1.0765 -2.6022  0.5003
  761MOL0     H 4982   3.722   6.925   5.240  0.1536 -1.1965  1.2566
  761MOL0     H 4983   3.605   7.042   5.311  0.0453 -1.1939 -0.5174
  761MOL0     H 4984   3.875   6.970   5.422 -0.9372  0.3490  1.0487
  761MOL0     H 4985   3.843   7.124   5.346 -1.1390  0.4661 -0.1519
  761MOL0     H 4986   3.670   7.052   5.587 -0.2785 -1.7727 -1.3170
  761MOL0     H 4987   3.697   7.209   5.507 -0.0639 -0.5766 -1.5664
  761MOL0     H 4988   3.911   7.232   5.594  0.0769 -0.4808 -0.0877
  761MOL0     H 4989   3.914   7.050   5.638 -0.4239 -0.2410 -0.0612
  761MOL0     H 4990   3.720   7.260   5.740 -0.5546 -0.7970  2.2862
  761MOL0     H 4991   3.773   7.108   5.812  2.1714  1.2488  3.1864
  761MOL0     H 4992   3.869   7.276   5.943 -0.7081  0.7914 -0.6716
  761MOL0     H 4993   3.932   7.355   5.791  0.1597  0.8709  1.1364
  761MOL0     H 4994   4.095   7.180   5.766 -0.7730 -0.2687 -0.0315
  761MOL0     H 4995   4.001   7.074   5.876 -3.6064 -0.7760 -3.2365
  761MOL0     H 4996   4.205   7.175   5.994  1.1700  1.0783  0.1702
  761MOL0     H 4997   4.056   7.240   6.066  2.3157 -4.0318  1.9563
  761MOL0     H 4998   3.494   6.842   5.172  0.0143  2.4449 -0.9682
  761MOL0     H 4999   3.274   6.782   5.148 -0.7838 -0.2990  0.2029
  761MOL0     H 5000   2.852   6.720   5.445  1.5113  0.4507 -0.7299
  761MOL0     H 5001   2.627   6.645   5.482  0.5895  1.1506  0.7149
  761MOL0     H 5002   1.002   5.861   5.872  4.3926  0.5176  2.8359
  761MOL0     H 5003   0.798   5.825   5.989  1.2608  0.3719  3.6321
  761MOL0     H 5004   0.652   5.469   6.440  0.0745  0.8610 -0.1064
  761MOL0     H 5005   0.450   5.464   6.576 -1.1333  1.1811  0.4133
  761MOL0     H 5006   0.233   5.340   6.599  1.2061  1.1300  0.1305
  761MOL0     H 5007   0.238   5.487   6.691 -0.6408  1.1753  0.6344
  761MOL0     H 5008   0.001   5.533   6.651  0.3121  0.5369  1.1566
  761MOL0     H 5009   0.034   5.383   6.736  1.5275  0.0115 -0.9195
  761MOL0     H 5010  -0.035   5.437   6.445  2.1221 -0.3256 -0.4552
  761MOL0     H 5011   0.028   5.281   6.486 -0.1064 -0.8691  0.9936
  761MOL0     H 5012  -0.239   5.396   6.576 -0.8035 -0.2197 -1.1353
  761MOL0     H 5013  -0.168   5.251   6.655  1.0508 -2.8107 -1.3236
  761MOL0     H 5014  -0.303   5.058   6.317  3.4950 -3.0358  1.1209
  761MOL0     H 5015   0.216   5.562   6.234 -0.1972  0.8852  1.4403
  761MOL0     H 5016   0.498   5.639   6.002  0.1127 -0.4546 -1.1524
  761MOL0     H 5017   0.375   5.518   5.993  0.2042 -2.3750  3.1176
  761MOL0     H 5018   0.331   5.675   6.051 -0.3401 -0.3763  1.6891
  762MOL0     O 5019   6.041   4.544   5.197 -0.1566 -0.5119 -0.2931
  762MOL0     C 5020   6.066   4.665   5.194 -0.4196 -0.0170  0.1639
  762MOL0     O 5021   6.196   4.721   5.203  0.1487 -0.6838  0.1441
  762MOL0     C 5022   6.311   4.646   5.214 -0.2659 -0.0999 -0.3404
  762MOL0     C 5023   6.426   4.722   5.218 -0.3398 -0.3722 -0.3497
  762MOL0     C 5024   6.553   4.665   5.242  0.8157 -0.1817  0.0379
  762MOL0     C 5025   6.560   4.529   5.277 -0.1389  0.3897 -0.0952
  762MOL0     O 5026   6.683   4.473   5.327  0.0728 -0.2711 -0.3297
  762MOL0     C 5027   6.772   4.565   5.393  0.0520 -0.6710  0.2488
  762MOL0     C 5028   6.837   4.504   5.518  0.0897 -0.6093  0.4040
  762MOL0     C 5029   6.949   4.587   5.562  0.2365 -0.1237 -0.6211
  762MOL0     C 5030   7.009   4.517   5.689  0.0437 -0.0701 -0.0885
  762MOL0     C 5031   7.149   4.563   5.714 -0.4327  0.4572  0.9725
  762MOL0     C 5032   7.204   4.529   5.854  0.3046 -0.5037 -0.3303
  762MOL0     C 5033   7.365   4.539   5.861  0.1863  0.0969 -0.1552
  762MOL0     C 5034   7.428   4.427   5.784 -0.2609  0.9577 -0.4145
  762MOL0     N 5035   7.565   4.413   5.838  0.6744 -0.3296  0.7929
  762MOL0     C 5036   7.608   4.314   5.922 -0.3282  1.0915  0.2400
  762MOL0     C 5037   7.742   4.308   5.898 -0.5004  0.2732  0.2590
  762MOL0     C 5038   7.839   4.218   5.964 -0.0662 -1.3375  0.7822
  762MOL0     C 5039   7.849   4.270   6.115 -0.0372  0.6027 -0.5334
  762MOL0     C 5040   7.911   4.408   6.146  0.7011  0.2837  1.4531
  762MOL0     C 5041   8.066   4.414   6.143 -0.0671  0.1944 -0.8874
  762MOL0     O 5042   8.121   4.355   6.022  0.1843  0.4261 -0.2539
  762MOL0     C 5043   8.257   4.336   6.029 -0.9350  1.1105 -0.6790
  762MOL0     C 5044   8.313   4.288   5.916  0.5142 -0.1896  0.4157
  762MOL0     C 5045   8.446   4.255   5.897  0.8980 -0.4028 -0.4425
  762MOL0     C 5046   8.488   4.188   5.773  0.2913  0.1657  0.9285
  762MOL0     C 5047   8.527   4.267   6.009  0.0934  0.4681 -0.2643
  762MOL0     C 5048   8.670   4.215   6.025 -0.1226  0.8700  0.1629
  762MOL0     O 5049   8.747   4.210   5.907 -0.2541 -0.2671  0.6044
  762MOL0     C 5050   8.881   4.177   5.914 -0.2779  0.3595 -0.4952
  762MOL0     C 5051   8.909   4.040   5.935  0.1492 -0.0420 -0.4312
  762MOL0     C 5052   9.041   3.992   5.932  0.8298  0.8118 -0.2824
  762MOL0     C 5053   9.148   4.081   5.895 -0.5032  0.3320 -0.4797
  762MOL0     O 5054   9.280   4.034   5.888  0.5231  0.1923 -0.2743
  762MOL0     C 5055   9.357   4.045   6.002 -0.0249 -0.2578  0.5562
  762MOL0     C 5056   9.473   4.150   5.978  0.5894 -0.2581 -0.5816
  762MOL0     C 5057   9.593   4.093   5.896  0.1053 -0.0669 -0.2903
  762MOL0     C 5058   9.578   4.102   5.736 -0.0052  0.0018 -0.2564
  762MOL0     C 5059   9.709   4.062   5.668 -0.1175  0.3682 -1.2048
  762MOL0     C 5060   9.734   4.114   5.525 -0.1666 -0.0026  0.5966
  762MOL0     C 5061   9.888   4.126   5.494  0.4201 -0.3020  0.6059
  762MOL0     C 5062   9.964   3.994   5.489  0.1048  0.0996  0.7552
  762MOL0    Cl 5063  10.127   4.043   5.432  0.0627 -0.0440  0.0905
  762MOL0     C 5064   9.121   4.217   5.887  0.3822 -0.0967  0.5819
  762MOL0     C 5065   8.988   4.260   5.896 -0.0896  0.3180  0.4355
  762MOL0     O 5066   8.708   4.179   6.138  0.0591 -0.0159 -0.0504
  762MOL0     C 5067   8.477   4.322   6.124  0.0027  0.6274 -0.8164
  762MOL0     C 5068   8.348   4.363   6.139 -0.3397  0.4928 -0.5533
  762MOL0     N 5069   7.780   4.418   5.819 -0.2326 -0.3627  0.0725
  762MOL0     N 5070   7.675   4.481   5.785  0.0282  0.6127  0.7256
  762MOL0     C 5071   6.443   4.452   5.266 -0.2723 -0.0686  0.4753
  762MOL0     C 5072   6.324   4.505   5.227 -0.2485 -0.5998 -0.0976
  762MOL0     C 5073   5.958   4.762   5.188 -0.2398 -0.5842 -1.2700
  762MOL0     C 5074   5.984   4.888   5.244  0.3342  0.3658  0.2536
  762MOL0     C 5075   5.896   4.986   5.232  1.0209 -0.0008  0.4600
  762MOL0     C 5076   5.764   4.967   5.185 -0.3201  0.5608 -0.1503
  762MOL0     O 5077   5.671   5.062   5.167  0.3036 -0.3465 -0.3192
  762MOL0     C 5078   5.604   5.140   5.270 -0.0072  0.3932  0.1079
  762MOL0     C 5079   5.549   5.259   5.189  0.7963 -0.5130  0.2286
  762MOL0     C 5080   5.454   5.223   5.075  0.1047  0.5689 -0.3683
  762MOL0     C 5081   5.392   5.344   5.007  0.5778  0.2623 -0.4846
  762MOL0     C 5082   5.496   5.434   4.945 -0.4199  0.4544  0.4441
  762MOL0     C 5083   5.586   5.497   4.899  0.4252 -0.3382 -0.2436
  762MOL0     C 5084   5.723   4.838   5.141 -0.3929 -0.9225 -0.3942
  762MOL0     C 5085   5.824   4.740   5.144  0.7220 -0.7802  0.4229
  762MOL0     C 5086   5.787   4.613   5.075 -0.1121  0.2888  0.9852
  762MOL0     H 5087   6.407   4.826   5.193  1.5206  0.1643  0.2492
  762MOL0     H 5088   6.640   4.729   5.240  0.1738  0.7330  0.6715
  762MOL0     H 5089   6.716   4.654   5.423 -0.1023 -0.0304 -1.7615
  762MOL0     H 5090   6.851   4.597   5.325  1.2717 -0.9274  1.5066
  762MOL0     H 5091   6.773   4.507   5.606  0.3563  3.7737  0.6535
  762MOL0     H 5092   6.865   4.402   5.490  0.2129 -0.0879 -1.4632
  762MOL0     H 5093   7.028   4.593   5.486 -0.6715 -1.7387 -1.7586
  762MOL0     H 5094   6.901   4.683   5.583 -1.6029 -1.0037 -0.6017
  762MOL0     H 5095   6.945   4.531   5.777  0.4779  1.2373  0.0297
  762MOL0     H 5096   7.022   4.410   5.667 -1.6390 -0.1157 -1.0626
  762MOL0     H 5097   7.155   4.671   5.692 -2.8996  0.3783 -0.5573
  762MOL0     H 5098   7.213   4.530   5.632 -1.0815  0.0769  0.6072
  762MOL0     H 5099   7.170   4.605   5.925 -0.1661 -0.4676 -0.5909
  762MOL0     H 5100   7.170   4.429   5.882 -0.3651 -0.1272  0.2229
  762MOL0     H 5101   7.385   4.510   5.965 -1.2450 -1.4144 -0.2658
  762MOL0     H 5102   7.408   4.633   5.826 -0.4311  0.6012  0.4302
  762MOL0     H 5103   7.372   4.334   5.797  0.2649  1.0514  4.1127
  762MOL0     H 5104   7.435   4.452   5.677 -0.6044 -1.8781 -1.1993
  762MOL0     H 5105   7.553   4.256   5.996  0.2052 -1.4624 -1.2580
  762MOL0     H 5106   7.934   4.230   5.911 -1.0656 -0.4813 -0.9158
  762MOL0     H 5107   7.800   4.116   5.953 -0.2849 -1.3889  1.9298
  762MOL0     H 5108   7.745   4.285   6.145 -0.0184  1.7067 -0.9586
  762MOL0     H 5109   7.899   4.204   6.186 -1.2981  1.9316  1.6777
  762MOL0     H 5110   7.866   4.481   6.079 -0.4333 -1.1240  0.6380
  762MOL0     H 5111   7.884   4.447   6.245  0.4452 -0.4289  1.6739
  762MOL0     H 5112   8.091   4.520   6.141 -5.0441  1.6900  0.7623
  762MOL0     H 5113   8.097   4.364   6.236  0.9089  1.4646 -0.5060
  762MOL0     H 5114   8.250   4.269   5.830 -1.6993 -0.1608  1.9438
  762MOL0     H 5115   8.419   4.207   5.690 -0.0203  0.2653  1.2074
  762MOL0     H 5116   8.500   4.082   5.794 -2.4705 -0.9347 -2.1721
  762MOL0     H 5117   8.584   4.232   5.746  0.4182  0.9973  2.6054
  762MOL0     H 5118   8.826   3.973   5.958 -0.8779  1.2161 -0.3365
  762MOL0     H 5119   9.060   3.888   5.958  0.3092  1.0103  0.9330
  762MOL0     H 5120   9.301   4.071   6.092 -0.1070 -0.0929  0.4571
  762MOL0     H 5121   9.395   3.944   6.020  2.7007  0.4876 -0.4974
  762MOL0     H 5122   9.433   4.238   5.928 -1.4444 -1.3791 -1.0560
  762MOL0     H 5123   9.506   4.178   6.078 -2.7257  0.9634  0.3130
  762MOL0     H 5124   9.611   3.989   5.925 -3.3335 -0.5837  0.4451
  762MOL0     H 5125   9.681   4.150   5.929 -0.5578  0.5051  0.5385
  762MOL0     H 5126   9.550   4.204   5.708  0.4581  0.3173  0.4014
  762MOL0     H 5127   9.492   4.039   5.713  0.7164 -2.3494  2.8427
  762MOL0     H 5128   9.792   4.090   5.734 -0.5811 -0.9959  0.0163
  762MOL0     H 5129   9.706   3.952   5.668 -1.3395  0.3374  1.4065
  762MOL0     H 5130   9.678   4.204   5.501  0.8806 -0.1291 -2.8187
  762MOL0     H 5131   9.691   4.046   5.450  0.6928  0.6304 -0.4940
  762MOL0     H 5132   9.930   4.205   5.557 -2.2753 -0.1009  2.3073
  762MOL0     H 5133   9.900   4.168   5.394  1.3932 -2.0000 -0.0248
  762MOL0     H 5134   9.931   3.937   5.401 -0.8132  1.1148  0.4096
  762MOL0     H 5135   9.969   3.934   5.580 -2.5244  0.7408  1.4109
  762MOL0     H 5136   9.203   4.286   5.868 -0.3434  0.0006 -2.9952
  762MOL0     H 5137   8.982   4.368   5.882 -1.5823 -0.1159 -3.6694
  762MOL0     H 5138   8.539   4.332   6.213  2.0507  0.5435 -2.1498
  762MOL0     H 5139   8.322   4.395   6.239 -3.1893 -3.0351  0.0509
  762MOL0     H 5140   6.445   4.349   5.302  0.8808 -0.0635  0.4569
  762MOL0     H 5141   6.251   4.429   5.200  1.1001 -1.8598 -0.3092
  762MOL0     H 5142   6.074   4.904   5.304  0.2746  0.5426  0.2958
  762MOL0     H 5143   5.927   5.087   5.259  0.2759  2.7801 -6.8634
  762MOL0     H 5144   5.530   5.076   5.319  0.8915 -2.3895 -1.8956
  762MOL0     H 5145   5.683   5.165   5.342  1.6295 -1.7344 -0.8061
  762MOL0     H 5146   5.633   5.311   5.142  0.7297 -0.2033  0.4477
  762MOL0     H 5147   5.486   5.327   5.248  1.7871  1.1176 -0.5206
  762MOL0     H 5148   5.509   5.159   5.006 -0.1766 -2.3986  1.9748
  762MOL0     H 5149   5.366   5.168   5.109 -0.3456  0.8851 -0.9945
  762MOL0     H 5150   5.316   5.397   5.065 -1.9124 -1.9184 -1.5225
  762MOL0     H 5151   5.331   5.301   4.927 -0.8822 -1.2849  1.3626
  762MOL0     H 5152   5.667   5.546   4.848 -1.8002  1.1979 -2.5993
  762MOL0     H 5153   5.620   4.824   5.111 -0.1385 -1.3002 -1.1099
  762MOL0     H 5154   5.868   4.570   5.015 -1.6668 -1.7543  0.2318
  762MOL0     H 5155   5.762   4.528   5.139  0.0976 -1.4802 -1.1537
  762MOL0     H 5156   5.707   4.633   5.003  1.4019  1.3483 -0.4826
  763MOL0     O 5157   1.076   7.152   3.524 -1.2732  0.4183  0.2659
  763MOL0     C 5158   1.077   7.249   3.444  0.4815  0.3075  0.5268
  763MOL0     O 5159   1.011   7.247   3.325  0.4787 -0.1555 -0.2407
  763MOL0     C 5160   0.894   7.179   3.293  0.8626  0.3317 -0.4368
  763MOL0     C 5161   0.819   7.091   3.378  0.0429 -0.2970  0.7450
  763MOL0     C 5162   0.695   7.033   3.339 -0.5854  0.1436 -0.1611
  763MOL0     C 5163   0.643   7.065   3.209  0.3222 -0.2285 -0.9280
  763MOL0     O 5164   0.518   7.029   3.158 -0.1989 -1.1075 -0.2368
  763MOL0     C 5165   0.440   6.935   3.227  0.3324 -0.3407 -0.0777
  763MOL0     C 5166   0.324   6.868   3.154  0.0456 -1.4838  0.5362
  763MOL0     C 5167   0.266   6.751   3.231 -0.2420 -0.0845  0.5349
  763MOL0     C 5168   0.173   6.667   3.143 -0.5076 -0.1203 -0.0998
  763MOL0     C 5169   0.172   6.524   3.188  0.0921 -0.0815  0.4562
  763MOL0     C 5170   0.108   6.430   3.090 -0.3434  0.2554 -0.1187
  763MOL0     C 5171   0.049   6.311   3.164 -0.0276 -0.1612  0.0839
  763MOL0     C 5172   0.148   6.198   3.172 -0.3339 -0.2259 -0.3891
  763MOL0     N 5173   0.240   6.217   3.287  0.1613  0.4327  0.4663
  763MOL0     C 5174   0.196   6.249   3.412  0.5515 -1.3810 -0.3087
  763MOL0     C 5175   0.313   6.268   3.487  0.0698  0.4676 -0.6229
  763MOL0     C 5176   0.334   6.285   3.636  0.6838  0.6055 -0.0988
  763MOL0     C 5177   0.286   6.428   3.681  0.9133  0.3993 -0.0003
  763MOL0     C 5178   0.385   6.546   3.662 -0.9052 -0.0628  1.3858
  763MOL0     C 5179   0.463   6.560   3.524 -0.5057  0.0158 -0.0778
  763MOL0     O 5180   0.511   6.701   3.501  0.5730  0.3484 -0.2818
  763MOL0     C 5181   0.629   6.734   3.559 -0.2525  0.3075 -0.0460
  763MOL0     C 5182   0.745   6.729   3.474 -0.1996  0.4605  0.4229
  763MOL0     C 5183   0.871   6.763   3.521  0.1428  0.5980 -0.6538
  763MOL0     C 5184   0.984   6.746   3.424 -1.1216  0.2540 -0.0933
  763MOL0     C 5185   0.879   6.818   3.654 -0.2144  0.1609 -0.3959
  763MOL0     C 5186   1.004   6.878   3.719 -0.4162  0.5488  0.1304
  763MOL0     O 5187   1.120   6.829   3.673  0.3335 -0.3278 -0.7073
  763MOL0     C 5188   1.242   6.888   3.690  0.1363  0.6804  0.9980
  763MOL0     C 5189   1.286   7.002   3.752 -0.0514 -0.6894  0.4870
  763MOL0     C 5190   1.416   7.056   3.737 -0.3082  0.4238 -0.8872
  763MOL0     C 5191   1.500   6.993   3.643 -0.7238 -0.6371  0.3941
  763MOL0     O 5192   1.609   7.047   3.583 -0.5722  0.2355 -0.2771
  763MOL0     C 5193   1.696   7.131   3.661  0.0441 -0.2068  0.3899
  763MOL0     C 5194   1.825   7.144   3.582  0.8714  0.4881 -0.4039
  763MOL0     C 5195   1.805   7.228   3.459 -0.7760 -0.4184 -0.6577
  763MOL0     C 5196   1.796   7.378   3.505 -0.5197  0.3721  0.3381
  763MOL0     C 5197   1.883   7.478   3.427 -0.4820  0.0269  0.2425
  763MOL0     C 5198   1.873   7.630   3.452  0.1309  0.4252  0.5283
  763MOL0     C 5199   1.740   7.695   3.500  0.0634  0.3565 -0.9206
  763MOL0     C 5200   1.644   7.728   3.383 -0.8312  0.1943 -0.7171
  763MOL0    Cl 5201   1.691   7.893   3.330  0.4785 -0.1022  0.0135
  763MOL0     C 5202   1.462   6.868   3.585 -0.0351 -1.1327  0.2809
  763MOL0     C 5203   1.336   6.814   3.615  0.6667  0.4275  0.4560
  763MOL0     O 5204   0.994   6.954   3.811  0.5538  0.3882  0.1440
  763MOL0     C 5205   0.757   6.826   3.732  0.2310 -0.1814 -0.1196
  763MOL0     C 5206   0.633   6.788   3.682 -0.6477  0.0347  0.1016
  763MOL0     N 5207   0.423   6.244   3.402  0.4297  0.1645 -0.1813
  763MOL0     N 5208   0.372   6.236   3.282 -0.4332  0.1713 -0.2384
  763MOL0     C 5209   0.722   7.134   3.118  0.1142 -0.7766 -0.2748
  763MOL0     C 5210   0.846   7.195   3.161 -1.2404 -0.1709 -0.0701
  763MOL0     C 5211   1.149   7.363   3.481 -0.0409 -0.5290 -0.5823
  763MOL0     C 5212   1.251   7.352   3.577 -0.1175  0.2280 -0.5201
  763MOL0     C 5213   1.324   7.462   3.618 -0.1268 -0.3698 -0.3034
  763MOL0     C 5214   1.308   7.590   3.562  0.0476  0.2191  0.8418
  763MOL0     O 5215   1.386   7.696   3.605 -0.3224 -0.4626 -1.1688
  763MOL0     C 5216   1.323   7.777   3.714  0.2394  0.6172  1.4050
  763MOL0     C 5217   1.396   7.900   3.743  1.1646 -0.0284 -0.1477
  763MOL0     C 5218   1.399   7.995   3.624  0.0405  0.1150  0.2709
  763MOL0     C 5219   1.503   8.110   3.645  0.4035 -0.3764 -0.0769
  763MOL0     C 5220   1.484   8.230   3.566  0.9182  0.0724 -0.2076
  763MOL0     C 5221   1.477   8.332   3.500 -0.5915 -0.0574  0.2053
  763MOL0     C 5222   1.211   7.603   3.465 -0.7060  0.2983  0.6955
  763MOL0     C 5223   1.136   7.495   3.426 -0.1691  0.2017  0.4766
  763MOL0     C 5224   1.046   7.530   3.313 -0.7939 -0.0694  0.4368
  763MOL0     H 5225   0.853   7.069   3.479  0.6724 -2.4823  0.1057
  763MOL0     H 5226   0.649   6.959   3.404 -0.3914 -3.0892 -3.3730
  763MOL0     H 5227   0.387   6.971   3.315 -2.0706 -2.7685 -0.4010
  763MOL0     H 5228   0.508   6.850   3.242 -0.7022 -1.1491  0.1549
  763MOL0     H 5229   0.242   6.940   3.147  1.0495 -0.1726  1.7413
  763MOL0     H 5230   0.362   6.840   3.055  0.9544 -2.8425  1.2280
  763MOL0     H 5231   0.351   6.687   3.256  0.5178  0.8635  0.4467
  763MOL0     H 5232   0.215   6.792   3.319 -1.3639 -0.7199  0.1914
  763MOL0     H 5233   0.072   6.708   3.150 -1.2041 -1.6303 -0.8935
  763MOL0     H 5234   0.208   6.679   3.040 -1.0813 -1.8236 -0.5225
  763MOL0     H 5235   0.122   6.526   3.285 -0.8285 -0.5436 -0.0014
  763MOL0     H 5236   0.274   6.492   3.213 -0.3243 -0.9486  1.0866
  763MOL0     H 5237   0.028   6.477   3.033 -1.1565 -0.3147  0.5288
  763MOL0     H 5238   0.180   6.424   3.008  0.7855  3.5393  0.4585
  763MOL0     H 5239  -0.030   6.271   3.099  3.7419 -3.7573 -2.7877
  763MOL0     H 5240   0.002   6.335   3.259 -1.4908 -0.4851 -0.5234
  763MOL0     H 5241   0.081   6.114   3.190  0.2342 -0.4019  1.0269
  763MOL0     H 5242   0.200   6.186   3.076 -0.0436 -0.1608 -0.2424
  763MOL0     H 5243   0.095   6.254   3.450  0.5328 -0.5010 -0.4478
  763MOL0     H 5244   0.439   6.275   3.666  0.5065  0.9264  0.6640
  763MOL0     H 5245   0.286   6.201   3.687  3.5031 -0.4573  0.9956
  763MOL0     H 5246   0.200   6.456   3.620  0.9525 -0.3271 -0.4053
  763MOL0     H 5247   0.248   6.430   3.783  1.3831  3.2723  0.1889
  763MOL0     H 5248   0.321   6.635   3.673 -1.5407 -0.5676  1.8249
  763MOL0     H 5249   0.460   6.548   3.742 -0.0414  0.6038  0.5801
  763MOL0     H 5250   0.546   6.488   3.518  0.6591  1.3546 -0.7117
  763MOL0     H 5251   0.390   6.520   3.454 -0.3102 -0.7746  0.1556
  763MOL0     H 5252   0.733   6.678   3.379  0.1238  2.3723 -0.6982
  763MOL0     H 5253   1.050   6.833   3.419 -2.4594  1.2829 -0.4148
  763MOL0     H 5254   0.938   6.748   3.324  2.3106  0.9269 -1.8019
  763MOL0     H 5255   1.046   6.656   3.436  0.4336  1.5436  2.3924
  763MOL0     H 5256   1.222   7.069   3.808 -0.8330 -0.4364 -0.6662
  763MOL0     H 5257   1.436   7.150   3.787 -2.3102  0.5932 -0.3251
  763MOL0     H 5258   1.652   7.231   3.665 -0.3478 -0.3505 -0.2210
  763MOL0     H 5259   1.718   7.091   3.760  2.0569 -2.8057 -0.9883
  763MOL0     H 5260   1.910   7.168   3.646  0.5027 -1.3061  0.8191
  763MOL0     H 5261   1.849   7.041   3.554 -0.5424  0.4463 -1.6015
  763MOL0     H 5262   1.718   7.195   3.400 -1.7144  0.9284 -0.0649
  763MOL0     H 5263   1.900   7.222   3.405  0.0706 -0.0378  0.7733
  763MOL0     H 5264   1.817   7.400   3.610 -1.2242  1.8869  0.1947
  763MOL0     H 5265   1.694   7.413   3.488  0.1703  2.2668 -0.2298
  763MOL0     H 5266   1.983   7.439   3.446 -2.5406 -5.2741  2.1434
  763MOL0     H 5267   1.876   7.466   3.318 -0.7037  2.7026 -0.1005
  763MOL0     H 5268   1.896   7.673   3.354 -0.5282 -2.7341 -1.1450
  763MOL0     H 5269   1.944   7.653   3.532 -2.4232  1.0010  2.7913
  763MOL0     H 5270   1.765   7.793   3.541  1.1858  0.1079 -0.9654
  763MOL0     H 5271   1.698   7.638   3.583  2.0816 -0.7458 -0.5810
  763MOL0     H 5272   1.543   7.732   3.423 -0.3130  1.2323  0.5622
  763MOL0     H 5273   1.644   7.663   3.294 -1.3141 -0.9814  0.1234
  763MOL0     H 5274   1.529   6.827   3.510 -0.1709 -0.5857 -0.1409
  763MOL0     H 5275   1.304   6.737   3.546 -0.5651  1.4387 -0.1414
  763MOL0     H 5276   0.764   6.860   3.835  2.1958 -0.9032  0.0356
  763MOL0     H 5277   0.544   6.804   3.742 -1.0080  1.3873 -0.7530
  763MOL0     H 5278   0.688   7.149   3.016  0.5414  2.0164 -0.0816
  763MOL0     H 5279   0.904   7.265   3.102  1.1543 -1.9164  0.0496
  763MOL0     H 5280   1.268   7.251   3.614 -1.1875  0.2773  0.1700
  763MOL0     H 5281   1.396   7.452   3.699 -0.6053 -0.9569  0.0593
  763MOL0     H 5282   1.218   7.795   3.689  0.5242 -0.3634 -0.7202
  763MOL0     H 5283   1.325   7.718   3.807  0.7360  2.1247  2.3834
  763MOL0     H 5284   1.495   7.856   3.758 -0.0057 -2.5431  0.7372
  763MOL0     H 5285   1.362   7.948   3.834  0.1190 -1.0321  0.0137
  763MOL0     H 5286   1.416   7.932   3.537  1.7255 -0.2062  0.7938
  763MOL0     H 5287   1.300   8.040   3.618 -0.9128 -1.0753  4.0001
  763MOL0     H 5288   1.598   8.073   3.603  0.9069  0.7288  0.0484
  763MOL0     H 5289   1.508   8.141   3.750 -1.8473  0.7677 -0.2397
  763MOL0     H 5290   1.484   8.430   3.456  0.5025 -0.7436 -1.2422
  763MOL0     H 5291   1.191   7.701   3.421 -1.9423 -0.7351 -1.1871
  763MOL0     H 5292   1.036   7.637   3.291 -1.8346 -0.3761 -0.7222
  763MOL0     H 5293   1.074   7.482   3.218 -0.7075  3.0489 -1.2575
  763MOL0     H 5294   0.946   7.489   3.330 -1.7025  2.5266  1.9175
  764MOL0     O 5295  10.019   6.277   1.889 -0.0394 -0.4755 -0.3039
  764MOL0     C 5296  10.104   6.314   1.817  1.1378 -0.6845 -0.0162
  764MOL0     O 5297  10.097   6.302   1.676 -0.4505  0.5248 -0.9915
  764MOL0     C 5298   9.994   6.229   1.620  0.3805 -0.1712 -0.0395
  764MOL0     C 5299   9.939   6.105   1.673  0.7263 -0.3088  0.0841
  764MOL0     C 5300   9.829   6.039   1.621 -1.0907 -0.2823 -0.3401
  764MOL0     C 5301   9.765   6.088   1.506  0.0050  0.0068  0.7852
  764MOL0     O 5302   9.663   6.020   1.433  0.5839  0.0393  0.4395
  764MOL0     C 5303   9.603   5.902   1.478  0.2521  0.1167 -0.6509
  764MOL0     C 5304   9.476   5.891   1.400  0.1045  0.2798 -0.0114
  764MOL0     C 5305   9.389   6.015   1.439 -0.3554  1.1002  0.0507
  764MOL0     C 5306   9.274   6.045   1.340  0.6902  0.4227 -0.2524
  764MOL0     C 5307   9.182   6.159   1.376 -0.0208 -0.5098 -0.1403
  764MOL0     C 5308   9.079   6.186   1.271 -0.0188 -0.2959  0.3156
  764MOL0     C 5309   8.967   6.265   1.328 -0.0962  0.2170 -0.6852
  764MOL0     C 5310   8.826   6.230   1.274 -0.4857 -0.6721 -0.3080
  764MOL0     N 5311   8.757   6.105   1.323 -0.6471 -0.5726  0.0372
  764MOL0     C 5312   8.778   5.977   1.287 -0.3560 -0.6523  0.2236
  764MOL0     C 5313   8.682   5.905   1.351 -0.3918  0.2677 -0.0268
  764MOL0     C 5314   8.664   5.757   1.352  0.2632  0.2484  0.6728
  764MOL0     C 5315   8.719   5.690   1.477 -0.1338 -0.3649 -0.3231
  764MOL0     C 5316   8.873   5.704   1.488  0.8579 -0.3307 -0.0333
  764MOL0     C 5317   8.943   5.611   1.387  0.2693  0.6831  0.5041
  764MOL0     O 5318   9.081   5.604   1.423  0.4828 -0.0157 -0.1313
  764MOL0     C 5319   9.163   5.519   1.343 -1.2345 -0.4635 -0.5163
  764MOL0     C 5320   9.123   5.439   1.237  0.0852 -0.0536  0.9636
  764MOL0     C 5321   9.221   5.368   1.161 -0.2449  0.0933 -0.0275
  764MOL0     C 5322   9.175   5.277   1.054 -0.0154  0.0483  0.1902
  764MOL0     C 5323   9.358   5.383   1.185  0.1389  0.2739 -1.0106
  764MOL0     C 5324   9.456   5.301   1.111 -0.4861  0.3711  0.1864
  764MOL0     O 5325   9.559   5.259   1.181  0.1738  0.4076 -0.4466
  764MOL0     C 5326   9.665   5.215   1.117  0.1907  0.3616 -0.0603
  764MOL0     C 5327   9.750   5.305   1.055 -0.2640  0.0377  0.2514
  764MOL0     C 5328   9.875   5.272   1.012 -0.3309  0.3101 -0.8551
  764MOL0     C 5329   9.912   5.140   0.999  0.7857 -0.2923  0.1580
  764MOL0     O 5330  10.030   5.106   0.936 -0.1409  0.1073  0.7782
  764MOL0     C 5331  10.089   5.198   0.840  0.3018 -1.0096 -0.5431
  764MOL0     C 5332  10.212   5.144   0.782 -1.7555 -0.6232 -0.8777
  764MOL0     C 5333  10.320   5.252   0.765 -0.0088  0.5655  0.0176
  764MOL0     C 5334  10.443   5.187   0.703 -0.3638  0.7274 -1.1583
  764MOL0     C 5335  10.554   5.281   0.713  0.0559 -0.7658  0.3485
  764MOL0     C 5336  10.682   5.238   0.654 -0.0568 -0.9707  0.0443
  764MOL0     C 5337  10.754   5.129   0.740  0.1480 -0.0897 -0.5272
  764MOL0     C 5338  10.910   5.121   0.715 -0.1999  0.3016 -0.1559
  764MOL0    Cl 5339  11.005   5.273   0.746  0.0148 -0.0692  0.1845
  764MOL0     C 5340   9.820   5.044   1.044 -0.3247  0.1356 -0.1529
  764MOL0     C 5341   9.698   5.086   1.113  0.2995 -0.5168 -0.8146
  764MOL0     O 5342   9.447   5.296   0.987 -0.0157 -0.6367 -0.1898
  764MOL0     C 5343   9.393   5.438   1.305 -0.2640  0.1293 -0.2512
  764MOL0     C 5344   9.302   5.517   1.375  0.2859  0.0423 -0.8924
  764MOL0     N 5345   8.597   5.993   1.420  0.3503 -0.4088  0.8168
  764MOL0     N 5346   8.648   6.108   1.403 -0.9509 -0.3898 -0.5536
  764MOL0     C 5347   9.807   6.215   1.457 -0.0361  0.0251  0.0707
  764MOL0     C 5348   9.923   6.285   1.509 -0.7933 -0.3940 -0.6688
  764MOL0     C 5349  10.239   6.363   1.870 -0.2799 -1.1141 -0.0396
  764MOL0     C 5350  10.344   6.382   1.776  0.7116 -0.3668 -0.5272
  764MOL0     C 5351  10.471   6.411   1.834  0.6255  0.1661  0.0750
  764MOL0     C 5352  10.504   6.422   1.968  0.6524 -0.3266 -0.5494
  764MOL0     O 5353  10.622   6.440   2.028  0.2388 -0.1650 -0.7120
  764MOL0     C 5354  10.739   6.462   1.940  0.7416 -1.0881  0.4077
  764MOL0     C 5355  10.740   6.599   1.887 -0.3808 -0.1437  0.1150
  764MOL0     C 5356  10.858   6.624   1.789 -0.4476 -0.4806  1.0324
  764MOL0     C 5357  10.834   6.552   1.654  1.2144  0.2742 -0.7408
  764MOL0     C 5358  10.950   6.571   1.561 -0.2651  1.1199  0.3270
  764MOL0     C 5359  11.049   6.586   1.487  0.1161 -1.0862 -0.0019
  764MOL0     C 5360  10.396   6.412   2.050  0.3307  0.3583 -0.0708
  764MOL0     C 5361  10.265   6.378   2.011  0.0019  0.3847  0.2474
  764MOL0     C 5362  10.161   6.351   2.125 -0.0136 -0.5057  0.8906
  764MOL0     H 5363   9.969   6.067   1.770 -1.4600  0.6732  1.1955
  764MOL0     H 5364   9.796   5.947   1.668  0.8649 -0.4756  0.7571
  764MOL0     H 5365   9.578   5.916   1.584  0.2900  0.5731 -0.6983
  764MOL0     H 5366   9.663   5.812   1.462  0.1378  0.2483 -1.9118
  764MOL0     H 5367   9.492   5.892   1.291 -1.0508 -4.1963 -0.4275
  764MOL0     H 5368   9.422   5.803   1.436 -0.8360  1.1285  0.7064
  764MOL0     H 5369   9.344   5.995   1.537  1.0561  3.3685  1.2252
  764MOL0     H 5370   9.448   6.106   1.447  0.1485  0.7861 -0.0586
  764MOL0     H 5371   9.322   6.063   1.243  0.2571  3.1140 -0.0565
  764MOL0     H 5372   9.214   5.953   1.338 -0.2555  0.9939  0.7684
  764MOL0     H 5373   9.240   6.252   1.385 -1.2190  0.1951  0.5476
  764MOL0     H 5374   9.140   6.135   1.474  0.3898 -2.7331 -0.4624
  764MOL0     H 5375   9.129   6.237   1.188  0.0608  0.1567  0.6389
  764MOL0     H 5376   9.044   6.086   1.242 -0.5293 -0.7062  2.2129
  764MOL0     H 5377   8.985   6.372   1.308  1.2160 -0.1715 -1.7428
  764MOL0     H 5378   8.962   6.248   1.436 -0.9952  2.0559 -0.3942
  764MOL0     H 5379   8.762   6.317   1.290  1.9869  1.1621  0.3174
  764MOL0     H 5380   8.833   6.213   1.166  0.7795  1.9875 -0.7384
  764MOL0     H 5381   8.849   5.926   1.221  0.1273 -0.1472  0.3416
  764MOL0     H 5382   8.709   5.714   1.263 -0.5991  1.6712 -0.4944
  764MOL0     H 5383   8.557   5.737   1.355  0.0404  1.2878  3.4227
  764MOL0     H 5384   8.673   5.744   1.560  2.8662  1.5004  0.2490
  764MOL0     H 5385   8.703   5.581   1.475  0.1035 -0.3915 -1.2613
  764MOL0     H 5386   8.900   5.806   1.460 -0.3227 -0.6700 -2.7072
  764MOL0     H 5387   8.914   5.674   1.585  1.7649 -0.3617 -0.4209
  764MOL0     H 5388   8.891   5.515   1.394 -0.5970  0.7730 -2.9145
  764MOL0     H 5389   8.927   5.650   1.287  1.1689  0.3617  0.2230
  764MOL0     H 5390   9.019   5.418   1.211  0.9619 -2.3414 -1.1228
  764MOL0     H 5391   9.067   5.277   1.041  0.1018 -1.1387 -0.9560
  764MOL0     H 5392   9.200   5.173   1.075 -0.7397 -0.4634 -1.3194
  764MOL0     H 5393   9.215   5.318   0.961  1.2799  0.4258  0.8908
  764MOL0     H 5394   9.716   5.408   1.058 -2.9682 -0.7953  1.3176
  764MOL0     H 5395   9.944   5.353   0.990 -0.5724  1.1968  1.3457
  764MOL0     H 5396  10.022   5.229   0.759  2.3717  2.8016 -1.0503
  764MOL0     H 5397  10.108   5.294   0.889 -0.9741 -0.8402 -0.3404
  764MOL0     H 5398  10.248   5.069   0.854 -1.8074  1.9929  2.0921
  764MOL0     H 5399  10.193   5.101   0.683 -1.0943  1.4721 -1.9652
  764MOL0     H 5400  10.337   5.286   0.867  3.1606 -0.9643  0.1116
  764MOL0     H 5401  10.287   5.334   0.701  5.0871  2.6664 -0.4313
  764MOL0     H 5402  10.430   5.151   0.601  1.6917 -2.8429 -0.3614
  764MOL0     H 5403  10.476   5.102   0.764  1.5122 -0.0690 -3.1958
  764MOL0     H 5404  10.532   5.373   0.658  0.7393 -0.2106  0.9795
  764MOL0     H 5405  10.577   5.310   0.816  0.9763  0.0234 -0.0539
  764MOL0     H 5406  10.746   5.326   0.641 -0.8192 -0.3479  0.3490
  764MOL0     H 5407  10.671   5.192   0.556 -0.0083  0.5685 -0.7173
  764MOL0     H 5408  10.708   5.032   0.715  1.7692 -0.5950 -1.6868
  764MOL0     H 5409  10.729   5.137   0.846  1.9980  0.1002 -0.0829
  764MOL0     H 5410  10.931   5.064   0.623 -0.3240 -1.2133  0.7219
  764MOL0     H 5411  10.942   5.050   0.792 -0.6220  1.0860  0.7618
  764MOL0     H 5412   9.863   4.945   1.031 -1.2394 -0.4014  0.7712
  764MOL0     H 5413   9.630   5.009   1.149  0.7618 -1.0564 -1.0842
  764MOL0     H 5414   9.497   5.428   1.333 -0.0554 -0.9706 -1.3350
  764MOL0     H 5415   9.330   5.571   1.464  2.0827 -0.1616 -1.2963
  764MOL0     H 5416   9.764   6.269   1.374 -1.2879 -0.9891  0.0369
  764MOL0     H 5417   9.957   6.377   1.463  0.2607 -0.2048  0.4239
  764MOL0     H 5418  10.331   6.366   1.670  1.2126  0.1542 -0.6684
  764MOL0     H 5419  10.539   6.430   1.752 -0.7701  1.4679 -0.8489
  764MOL0     H 5420  10.828   6.442   2.000  2.5576  1.2574 -1.3222
  764MOL0     H 5421  10.736   6.403   1.849  0.1807  0.2898 -0.5047
  764MOL0     H 5422  10.733   6.677   1.964 -1.3610  0.0700 -0.1790
  764MOL0     H 5423  10.644   6.619   1.839 -0.8003 -1.3269  0.4235
  764MOL0     H 5424  10.859   6.732   1.772 -1.7926 -0.7337 -0.9964
  764MOL0     H 5425  10.954   6.593   1.832 -1.2429  0.1833  3.4284
  764MOL0     H 5426  10.741   6.589   1.611 -0.3859 -1.5135  0.9568
  764MOL0     H 5427  10.824   6.443   1.663  0.1144  0.3583 -0.8232
  764MOL0     H 5428  11.133   6.610   1.425  0.5061  1.2960  1.3431
  764MOL0     H 5429  10.412   6.438   2.154 -0.0751  2.6566 -0.5287
  764MOL0     H 5430  10.157   6.242   2.137  0.6689 -0.4425  1.7924
  764MOL0     H 5431  10.198   6.394   2.218 -2.4320 -0.2543  1.8132
  764MOL0     H 5432  10.061   6.392   2.107  0.0908 -0.0779  1.2794
  765MOL0     O 5433   1.751   6.202   2.519 -0.0250 -0.7078  0.2911
  765MOL0     C 5434   1.738   6.209   2.641  0.5981  0.1053  0.0380
  765MOL0     O 5435   1.831   6.164   2.736  0.0052 -0.0875 -0.6480
  765MOL0     C 5436   1.950   6.127   2.685  0.4154  0.5582 -0.3241
  765MOL0     C 5437   2.054   6.215   2.675  0.6309  0.0727 -0.1235
  765MOL0     C 5438   2.167   6.178   2.608 -0.0374  0.3411 -0.2325
  765MOL0     C 5439   2.179   6.044   2.552 -0.6909  0.6982 -0.6883
  765MOL0     O 5440   2.287   6.009   2.483 -0.0130 -0.2801 -0.3719
  765MOL0     C 5441   2.418   6.047   2.540 -0.0999 -0.3801  0.6303
  765MOL0     C 5442   2.523   5.957   2.466  0.0424 -0.5760  0.2759
  765MOL0     C 5443   2.660   6.008   2.513  0.2852 -0.3314 -0.4845
  765MOL0     C 5444   2.774   5.931   2.456 -0.0016  0.0638  0.5235
  765MOL0     C 5445   2.910   5.962   2.516 -0.4928  0.8866  0.1484
  765MOL0     C 5446   3.020   5.863   2.471  0.6895 -0.6860 -0.0445
  765MOL0     C 5447   3.159   5.920   2.508  0.7263  0.1205  0.3184
  765MOL0     C 5448   3.257   5.823   2.437 -0.2900 -0.3934  0.5532
  765MOL0     N 5449   3.397   5.835   2.492  0.1856 -0.3800 -0.6322
  765MOL0     C 5450   3.438   5.780   2.607  0.3208  0.5370 -0.1326
  765MOL0     C 5451   3.576   5.801   2.611  0.2283 -0.2628  0.0907
  765MOL0     C 5452   3.666   5.762   2.723  0.1290 -0.0569  0.1189
  765MOL0     C 5453   3.655   5.610   2.731 -0.0468 -0.3759  1.7617
  765MOL0     C 5454   3.692   5.527   2.592 -0.2551  0.3764 -0.3280
  765MOL0     C 5455   3.843   5.544   2.567 -0.0644  0.0786 -0.7726
  765MOL0     O 5456   3.890   5.464   2.462 -0.1929  0.4317 -0.6381
  765MOL0     C 5457   4.027   5.466   2.434  0.2770  0.6553 -0.8042
  765MOL0     C 5458   4.064   5.380   2.334  0.2591  0.5579 -0.7656
  765MOL0     C 5459   4.186   5.395   2.267 -0.2423  0.0316  0.1246
  765MOL0     C 5460   4.202   5.310   2.141  0.2465  0.2669  0.2541
  765MOL0     C 5461   4.283   5.484   2.322 -0.3260  1.1092  0.0339
  765MOL0     C 5462   4.420   5.499   2.256  0.5910  0.9008 -0.2410
  765MOL0     O 5463   4.531   5.518   2.337  0.6902  0.1308  0.4698
  765MOL0     C 5464   4.649   5.547   2.273  0.4507  0.1133  0.1145
  765MOL0     C 5465   4.765   5.478   2.290  0.1147  0.3873  0.5173
  765MOL0     C 5466   4.883   5.510   2.222 -0.0499 -1.2994 -0.2631
  765MOL0     C 5467   4.897   5.624   2.151 -0.9075 -0.0610  0.7042
  765MOL0     O 5468   5.013   5.662   2.086  0.5737 -0.8875  0.6677
  765MOL0     C 5469   5.048   5.591   1.968  0.1293  0.6196  0.4203
  765MOL0     C 5470   5.137   5.475   2.002 -0.2093  0.5686  0.9817
  765MOL0     C 5471   5.262   5.521   2.073 -0.1261 -0.5617  0.6960
  765MOL0     C 5472   5.375   5.429   2.035  0.8510  0.2631  0.1522
  765MOL0     C 5473   5.509   5.467   2.100 -0.1405  0.0893 -0.3122
  765MOL0     C 5474   5.615   5.376   2.042 -1.0224 -0.7089 -0.3416
  765MOL0     C 5475   5.751   5.390   2.117  0.2969  0.2235 -0.1175
  765MOL0     C 5476   5.846   5.272   2.105 -0.2233  1.0159 -0.4718
  765MOL0    Cl 5477   6.020   5.307   2.139 -0.1243 -0.0507 -0.1053
  765MOL0     C 5478   4.783   5.690   2.132  0.6792 -1.0477  0.8155
  765MOL0     C 5479   4.661   5.655   2.186 -0.2074  0.2789  0.1167
  765MOL0     O 5480   4.417   5.483   2.133 -0.9656 -0.2606 -0.3939
  765MOL0     C 5481   4.255   5.565   2.441  0.3728 -0.4582  0.0021
  765MOL0     C 5482   4.117   5.563   2.482 -0.0526 -0.4955 -0.3308
  765MOL0     N 5483   3.610   5.877   2.502  0.3795  0.3503  0.5456
  765MOL0     N 5484   3.500   5.896   2.429 -0.3941 -0.2808  0.1831
  765MOL0     C 5485   2.068   5.966   2.555 -0.0575 -0.0106  0.2325
  765MOL0     C 5486   1.952   6.008   2.625 -0.1080 -0.5259  0.6847
  765MOL0     C 5487   1.624   6.283   2.704  0.2685  0.1342  0.6042
  765MOL0     C 5488   1.645   6.403   2.773  0.3153 -0.6207  0.2744
  765MOL0     C 5489   1.539   6.480   2.811  0.0878  0.0240  0.0521
  765MOL0     C 5490   1.410   6.435   2.801  0.3270  0.5593 -0.0945
  765MOL0     O 5491   1.317   6.510   2.858 -0.1054 -0.2095  0.0657
  765MOL0     C 5492   1.184   6.462   2.884 -0.0249  0.4677 -0.0038
  765MOL0     C 5493   1.176   6.371   3.009 -0.2046  0.7958 -0.2680
  765MOL0     C 5494   1.028   6.370   3.063  0.9375 -0.5072  0.5071
  765MOL0     C 5495   0.999   6.270   3.170  1.1407  0.6277  0.3053
  765MOL0     C 5496   0.855   6.260   3.196 -0.0865 -0.0589  0.4154
  765MOL0     C 5497   0.735   6.268   3.224  0.4119  0.3307  0.7203
  765MOL0     C 5498   1.391   6.311   2.739  0.8892  0.1097 -0.2473
  765MOL0     C 5499   1.490   6.235   2.689 -0.4162 -0.6430 -0.5277
  765MOL0     C 5500   1.456   6.104   2.620  0.5087  0.1434 -0.5761
  765MOL0     H 5501   2.057   6.314   2.717 -2.2128  0.5350 -0.8115
  765MOL0     H 5502   2.249   6.250   2.611  0.2973 -0.0292  1.9754
  765MOL0     H 5503   2.415   6.032   2.648 -1.3883  0.2996  0.7049
  765MOL0     H 5504   2.438   6.153   2.518  1.1008 -0.8478 -0.7456
  765MOL0     H 5505   2.508   5.850   2.483 -0.0915 -0.7866 -1.0585
  765MOL0     H 5506   2.521   5.979   2.359  0.7120  0.0413  0.3825
  765MOL0     H 5507   2.685   6.114   2.510  2.4552 -0.7940 -0.8773
  765MOL0     H 5508   2.652   5.990   2.621 -4.6630 -0.2908 -0.6281
  765MOL0     H 5509   2.753   5.824   2.452  1.4645 -0.2896  1.4882
  765MOL0     H 5510   2.770   5.957   2.350  1.7638 -1.5285  0.0214
  765MOL0     H 5511   2.907   5.954   2.625  1.1401  0.7247  0.2185
  765MOL0     H 5512   2.936   6.063   2.483  1.9311 -0.3469 -2.1428
  765MOL0     H 5513   3.011   5.769   2.527  0.4310  0.8853  2.7737
  765MOL0     H 5514   3.002   5.833   2.368 -0.1532 -1.1524  0.2273
  765MOL0     H 5515   3.185   5.906   2.614  1.7476 -0.0283  0.0571
  765MOL0     H 5516   3.169   6.023   2.473 -0.8157  0.3852  0.5746
  765MOL0     H 5517   3.224   5.720   2.453  2.3456 -1.6236 -1.1220
  765MOL0     H 5518   3.259   5.855   2.332  2.2690  0.2534  0.7184
  765MOL0     H 5519   3.382   5.737   2.690 -3.6792  2.0061 -1.8179
  765MOL0     H 5520   3.648   5.813   2.818  1.0895 -1.0038  0.8416
  765MOL0     H 5521   3.763   5.789   2.679 -0.2414 -3.6052 -3.5092
  765MOL0     H 5522   3.708   5.568   2.817 -0.9281 -1.2582  1.8952
  765MOL0     H 5523   3.549   5.586   2.746 -0.7004  0.5371 -0.8864
  765MOL0     H 5524   3.675   5.421   2.610 -1.1574  0.3713 -1.1164
  765MOL0     H 5525   3.637   5.561   2.504 -0.3769 -1.9426 -1.2210
  765MOL0     H 5526   3.855   5.649   2.539 -2.0459  1.0814  1.7445
  765MOL0     H 5527   3.895   5.523   2.661  1.0559  4.5223 -0.1878
  765MOL0     H 5528   3.994   5.311   2.287 -0.6297 -0.2182  1.5659
  765MOL0     H 5529   4.304   5.269   2.133 -1.0819 -3.0736 -2.3802
  765MOL0     H 5530   4.188   5.376   2.055  0.4009  0.1669  0.1518
  765MOL0     H 5531   4.127   5.231   2.131 -0.5225  0.9364  0.7138
  765MOL0     H 5532   4.755   5.398   2.363 -0.8653  0.6881  0.7316
  765MOL0     H 5533   4.969   5.446   2.242  0.9778  0.6052  1.8487
  765MOL0     H 5534   4.962   5.552   1.913  0.3114  1.0312 -0.1671
  765MOL0     H 5535   5.099   5.661   1.902  0.4377  0.1568  0.1587
  765MOL0     H 5536   5.081   5.397   2.055  0.0478 -1.9660 -2.1492
  765MOL0     H 5537   5.164   5.435   1.903 -2.2642  1.7540 -0.1316
  765MOL0     H 5538   5.237   5.529   2.179 -1.8760  0.6530  0.2296
  765MOL0     H 5539   5.287   5.624   2.045  0.5372 -1.2370 -1.3957
  765MOL0     H 5540   5.392   5.452   1.929 -0.7296  1.1516  0.0633
  765MOL0     H 5541   5.352   5.323   2.050 -0.4384  0.6890  1.3099
  765MOL0     H 5542   5.528   5.574   2.088 -2.2794  0.8544  2.0756
  765MOL0     H 5543   5.485   5.446   2.204 -0.2427 -0.2057 -0.3961
  765MOL0     H 5544   5.627   5.398   1.936  1.7989 -1.9671 -0.3711
  765MOL0     H 5545   5.571   5.277   2.056 -1.5019 -0.2811  1.5002
  765MOL0     H 5546   5.734   5.406   2.224  2.0344 -0.8035  0.3479
  765MOL0     H 5547   5.801   5.477   2.073 -0.4104  1.3112  1.1273
  765MOL0     H 5548   5.847   5.233   2.003  2.1889 -0.2096 -0.0531
  765MOL0     H 5549   5.811   5.193   2.171 -1.0579  0.4029 -1.6055
  765MOL0     H 5550   4.781   5.782   2.075  0.1042 -1.6974 -0.2420
  765MOL0     H 5551   4.577   5.697   2.132 -0.1046 -0.3809 -0.5796
  765MOL0     H 5552   4.336   5.629   2.475  0.6054 -0.1420 -1.1145
  765MOL0     H 5553   4.087   5.634   2.559 -2.2711  0.2780 -1.8190
  765MOL0     H 5554   2.073   5.870   2.505  1.0797  0.6645 -0.9989
  765MOL0     H 5555   1.869   5.938   2.624  0.9474 -1.8057 -0.2355
  765MOL0     H 5556   1.748   6.434   2.783  0.4113 -0.8831  0.0867
  765MOL0     H 5557   1.564   6.573   2.861  1.0044  0.3950 -1.0788
  765MOL0     H 5558   1.113   6.543   2.903 -2.0057 -0.7478 -1.8228
  765MOL0     H 5559   1.137   6.410   2.800 -0.9780 -1.0726  1.4109
  765MOL0     H 5560   1.250   6.406   3.082  2.2690 -2.5858 -0.8903
  765MOL0     H 5561   1.208   6.272   2.975  0.1131  1.4154 -1.8276
  765MOL0     H 5562   1.014   6.466   3.113  3.7684  0.3296 -0.1438
  765MOL0     H 5563   0.947   6.345   2.993  1.0444  0.4888 -0.0012
  765MOL0     H 5564   1.050   6.306   3.260 -1.9057  3.0702  1.2474
  765MOL0     H 5565   1.038   6.170   3.146  0.0364  0.2773 -0.1140
  765MOL0     H 5566   0.628   6.261   3.237 -0.0161 -3.2737 -2.8409
  765MOL0     H 5567   1.293   6.267   2.724  0.7708 -0.5624  2.0990
  765MOL0     H 5568   1.348   6.085   2.618  0.3819 -0.3252  3.1169
  765MOL0     H 5569   1.511   6.102   2.525  0.5720  0.4981 -0.5459
  765MOL0     H 5570   1.491   6.013   2.671  0.7481 -0.6604 -2.1161
  766MOL0     O 5571   8.204   3.656   9.852  0.0543 -0.5281 -0.1611
  766MOL0     C 5572   8.191   3.548   9.806  0.1978  0.4096  0.0839
  766MOL0     O 5573   8.292   3.458   9.801 -0.1159  0.2011  0.3599
  766MOL0     C 5574   8.393   3.474   9.893  0.9061  0.0624  0.3706
  766MOL0     C 5575   8.516   3.457   9.847 -0.7723  0.3992 -0.2800
  766MOL0     C 5576   8.620   3.441   9.938 -0.3793 -0.0505 -0.3096
  766MOL0     C 5577   8.593   3.445  10.079  0.2299  1.1732  0.7738
  766MOL0     O 5578   8.689   3.434  10.184  1.1351 -0.7856  0.8769
  766MOL0     C 5579   8.825   3.447  10.142  0.1753 -0.1077 -0.6484
  766MOL0     C 5580   8.902   3.401  10.261 -0.1644  0.2909 -0.6853
  766MOL0     C 5581   9.052   3.393  10.246 -0.6077  0.2121  0.0754
  766MOL0     C 5582   9.108   3.357  10.387 -0.5106 -0.6510 -0.3114
  766MOL0     C 5583   9.256   3.322  10.374  0.4219  0.9415  0.4160
  766MOL0     C 5584   9.336   3.285  10.495  0.4179  0.4458 -0.1764
  766MOL0     C 5585   9.491   3.272  10.461  0.9583 -0.4196  0.8029
  766MOL0     C 5586   9.557   3.220  10.584 -0.7974 -0.4644  0.6547
  766MOL0     N 5587   9.697   3.181  10.565  0.3203 -0.7664 -0.5865
  766MOL0     C 5588   9.727   3.055  10.526 -0.5211  0.7100  0.0094
  766MOL0     C 5589   9.859   3.053  10.528 -0.3964 -0.1982  0.4095
  766MOL0     C 5590   9.964   2.944  10.497  0.4437  0.7509  0.5632
  766MOL0     C 5591   9.908   2.833  10.406 -0.1631  0.4581 -0.5146
  766MOL0     C 5592  10.013   2.729  10.343  0.1673  1.2562 -0.7082
  766MOL0     C 5593  10.136   2.689  10.419 -0.1443 -0.1798  0.1203
  766MOL0     O 5594  10.201   2.586  10.353  0.1841  0.9750 -0.1684
  766MOL0     C 5595  10.336   2.574  10.371  0.4655  0.5809 -0.3334
  766MOL0     C 5596  10.398   2.621  10.483  0.2193 -0.2157 -0.1201
  766MOL0     C 5597  10.537   2.626  10.511 -0.0967  0.7164 -0.2720
  766MOL0     C 5598  10.587   2.688  10.637 -0.0469  0.4995 -0.3637
  766MOL0     C 5599  10.618   2.575  10.403  0.8146  0.7797  0.2775
  766MOL0     C 5600  10.765   2.570  10.414  1.2862  0.7690  0.0673
  766MOL0     O 5601  10.820   2.598  10.528 -0.3902 -0.4245 -0.5548
  766MOL0     C 5602  10.961   2.587  10.545  0.5931  0.0161  1.1820
  766MOL0     C 5603  11.000   2.552  10.671  0.2254 -0.1969 -0.0628
  766MOL0     C 5604  11.133   2.525  10.708 -0.0649 -0.1700 -0.9032
  766MOL0     C 5605  11.225   2.552  10.613  0.5103 -0.0831 -0.6353
  766MOL0     O 5606  11.352   2.526  10.646 -0.2013  0.3061 -0.0301
  766MOL0     C 5607  11.459   2.584  10.554  0.0130 -1.0849  0.1268
  766MOL0     C 5608  11.602   2.547  10.606 -0.3625 -0.6198 -0.0820
  766MOL0     C 5609  11.704   2.650  10.545 -0.0613  0.0462  0.1240
  766MOL0     C 5610  11.848   2.615  10.588  0.6183 -0.5151  0.1083
  766MOL0     C 5611  11.947   2.717  10.533  0.8796  0.6011  0.5642
  766MOL0     C 5612  12.072   2.696  10.608  0.0051 -0.3924  0.5671
  766MOL0     C 5613  12.191   2.740  10.526 -0.0919 -0.0092  0.0741
  766MOL0     C 5614  12.316   2.740  10.611 -0.6946  1.2652 -1.2143
  766MOL0    Cl 5615  12.468   2.777  10.519  0.2930  0.3752  0.0881
  766MOL0     C 5616  11.187   2.589  10.479 -0.4432 -0.6926 -0.4909
  766MOL0     C 5617  11.056   2.613  10.442 -0.4042  0.4171 -0.8243
  766MOL0     O 5618  10.817   2.549  10.305 -0.5068 -0.0835  0.5686
  766MOL0     C 5619  10.550   2.528  10.286 -0.3163  0.1559 -0.2535
  766MOL0     C 5620  10.415   2.521  10.272 -0.3649  0.3828 -0.5617
  766MOL0     N 5621   9.909   3.171  10.586 -0.0475  0.4553 -0.3526
  766MOL0     N 5622   9.811   3.247  10.617  0.5914 -0.4917 -0.2471
  766MOL0     C 5623   8.467   3.486  10.122 -0.1024  0.4466  1.2720
  766MOL0     C 5624   8.365   3.499  10.028  0.1367 -0.2210 -0.8712
  766MOL0     C 5625   8.063   3.513   9.740 -1.2293 -0.1186  0.7941
  766MOL0     C 5626   7.968   3.611   9.711  0.0473  0.6892  0.0045
  766MOL0     C 5627   7.842   3.577   9.658 -0.5200  0.6747 -0.0616
  766MOL0     C 5628   7.811   3.448   9.626  0.2155 -0.6708  0.4832
  766MOL0     O 5629   7.696   3.399   9.578  0.8145  0.4884 -0.3849
  766MOL0     C 5630   7.582   3.441   9.653 -0.1584 -0.0421 -0.3432
  766MOL0     C 5631   7.482   3.318   9.657  0.1975 -0.4140 -0.7990
  766MOL0     C 5632   7.379   3.326   9.771 -0.1441 -0.1346 -0.0363
  766MOL0     C 5633   7.286   3.210   9.748  0.7631 -0.1176  1.2571
  766MOL0     C 5634   7.227   3.182   9.618  0.8941  0.0088  0.4907
  766MOL0     C 5635   7.182   3.186   9.503 -0.5471  0.6702 -0.0112
  766MOL0     C 5636   7.910   3.351   9.645 -1.2817  0.1222 -0.0000
  766MOL0     C 5637   8.031   3.377   9.711  0.4324 -0.3494  0.1276
  766MOL0     C 5638   8.112   3.250   9.732  0.0654  0.0456  0.2617
  766MOL0     H 5639   8.542   3.433   9.745 -0.1425 -1.5684  0.2971
  766MOL0     H 5640   8.720   3.414   9.905 -1.1091 -3.3591 -0.1796
  766MOL0     H 5641   8.844   3.554  10.130 -1.5291  0.2151 -0.7820
  766MOL0     H 5642   8.859   3.381  10.062  1.4882 -0.0897 -0.1224
  766MOL0     H 5643   8.882   3.475  10.339  2.0301 -0.4154  0.6411
  766MOL0     H 5644   8.876   3.299  10.293  0.7674  0.6631  1.4640
  766MOL0     H 5645   9.068   3.317  10.170 -0.3673  2.4429 -2.2554
  766MOL0     H 5646   9.100   3.488  10.220 -0.9089  0.9599  2.1057
  766MOL0     H 5647   9.103   3.443  10.453 -1.6844 -0.0970 -1.0932
  766MOL0     H 5648   9.062   3.263  10.420 -1.9157 -0.5912 -1.9195
  766MOL0     H 5649   9.308   3.408  10.330  2.1076 -0.6241 -0.7930
  766MOL0     H 5650   9.262   3.240  10.302 -1.0057  1.9163 -0.8815
  766MOL0     H 5651   9.336   3.359  10.576 -0.6563  1.5784 -1.1737
  766MOL0     H 5652   9.293   3.191  10.530 -1.5504  1.3191 -0.1226
  766MOL0     H 5653   9.531   3.363  10.417 -2.4901  0.4934 -0.8461
  766MOL0     H 5654   9.510   3.208  10.374  3.1487  2.1050 -0.7052
  766MOL0     H 5655   9.553   3.300  10.659 -0.0551 -0.0068  0.2100
  766MOL0     H 5656   9.492   3.136  10.612 -2.7334  1.0027  0.8293
  766MOL0     H 5657   9.673   2.969  10.486  1.2380 -0.8844  0.8932
  766MOL0     H 5658  10.002   2.900  10.590 -0.8630  1.2564  1.3722
  766MOL0     H 5659  10.054   2.985  10.451  1.2671 -0.5716  0.9683
  766MOL0     H 5660   9.838   2.774  10.466 -0.4914  0.4797 -0.8681
  766MOL0     H 5661   9.862   2.882  10.320  0.2957  0.9649 -0.4776
  766MOL0     H 5662   9.960   2.639  10.313  1.3512  0.3084 -0.0607
  766MOL0     H 5663  10.047   2.768  10.246  1.0890  1.3428 -0.3649
  766MOL0     H 5664  10.199   2.779  10.425  1.3537 -1.0088 -1.8662
  766MOL0     H 5665  10.093   2.665  10.516 -0.4486 -0.0147  0.0282
  766MOL0     H 5666  10.332   2.659  10.561  1.1421 -0.6499  0.9167
  766MOL0     H 5667  10.646   2.614  10.694 -0.6004 -0.5944 -1.1736
  766MOL0     H 5668  10.508   2.725  10.704  0.7809  1.2083  0.2447
  766MOL0     H 5669  10.650   2.771  10.605 -2.7066  2.1575 -1.6385
  766MOL0     H 5670  10.918   2.528  10.738 -0.3817  0.2299 -0.6402
  766MOL0     H 5671  11.159   2.489  10.807  1.5535  0.3484 -1.1005
  766MOL0     H 5672  11.450   2.533  10.457  2.0513  2.1535 -1.9936
  766MOL0     H 5673  11.438   2.692  10.550  1.6404 -0.7083  1.1131
  766MOL0     H 5674  11.602   2.557  10.715  1.4045 -0.6208 -0.0655
  766MOL0     H 5675  11.616   2.445  10.571 -1.2685 -0.7494 -0.0911
  766MOL0     H 5676  11.669   2.746  10.584 -3.5263  0.2501 -2.8523
  766MOL0     H 5677  11.698   2.645  10.436 -3.4121  0.9862  0.1570
  766MOL0     H 5678  11.889   2.517  10.563  1.7540 -0.0157 -0.0741
  766MOL0     H 5679  11.856   2.623  10.697 -0.2425  2.8539  0.0267
  766MOL0     H 5680  11.960   2.700  10.426 -1.6568  3.1052 -0.2478
  766MOL0     H 5681  11.903   2.815  10.549 -3.3367 -1.0072  0.0474
  766MOL0     H 5682  12.080   2.591  10.636 -1.4624  0.0923  3.1162
  766MOL0     H 5683  12.061   2.749  10.703 -1.5843 -0.2190  0.3270
  766MOL0     H 5684  12.174   2.842  10.490  1.1612  0.2275  0.1183
  766MOL0     H 5685  12.212   2.682  10.436  2.3004 -1.8754  1.7211
  766MOL0     H 5686  12.326   2.641  10.655 -2.7154  1.7825  0.6099
  766MOL0     H 5687  12.305   2.802  10.701 -1.3107 -0.9821  0.3285
  766MOL0     H 5688  11.260   2.621  10.406  2.3798  3.0118  3.4558
  766MOL0     H 5689  11.019   2.642  10.344 -2.0363  1.1713 -0.0287
  766MOL0     H 5690  10.604   2.498  10.197 -0.5317 -1.3123  0.0848
  766MOL0     H 5691  10.366   2.506  10.176 -3.1930 -1.3490  1.0167
  766MOL0     H 5692   8.452   3.496  10.229  0.1604  0.9959  1.2638
  766MOL0     H 5693   8.267   3.532  10.062 -0.7184 -1.4603 -2.0083
  766MOL0     H 5694   7.991   3.716   9.725 -0.8599  0.6904  1.7094
  766MOL0     H 5695   7.767   3.652   9.632  1.1515  3.0281  1.4225
  766MOL0     H 5696   7.606   3.476   9.754  1.5739  2.9353 -1.6660
  766MOL0     H 5697   7.537   3.530   9.608 -1.1600 -0.0547  0.5876
  766MOL0     H 5698   7.539   3.230   9.687 -2.5200 -1.2557  2.5180
  766MOL0     H 5699   7.431   3.306   9.561 -2.0184 -1.2604  0.4215
  766MOL0     H 5700   7.437   3.326   9.863 -0.5030 -2.5636  0.2611
  766MOL0     H 5701   7.321   3.419   9.775 -2.6718 -1.6094  4.6381
  766MOL0     H 5702   7.193   3.233   9.801 -0.4849  0.7964 -1.1413
  766MOL0     H 5703   7.328   3.114   9.780 -2.6186 -2.1806  0.0826
  766MOL0     H 5704   7.131   3.180   9.409 -2.8438 -0.3656  1.2524
  766MOL0     H 5705   7.878   3.253   9.609  0.3722  0.0366 -1.3187
  766MOL0     H 5706   8.169   3.254   9.825  3.1169 -0.1918 -1.4645
  766MOL0     H 5707   8.062   3.153   9.735 -0.8142  0.4404 -0.9333
  766MOL0     H 5708   8.171   3.243   9.639 -1.7209  1.2705 -1.0151
  767MOL0     O 5709   2.708   2.778   9.144  0.4107  0.4177 -0.4378
  767MOL0     C 5710   2.642   2.713   9.224 -0.5388  0.5246  0.0783
  767MOL0     O 5711   2.686   2.608   9.302 -0.3278  0.5333 -0.3347
  767MOL0     C 5712   2.826   2.588   9.311 -0.9438  0.3888  0.7518
  767MOL0     C 5713   2.926   2.692   9.338 -0.7133 -0.6426 -0.2942
  767MOL0     C 5714   3.062   2.675   9.345 -0.0674  0.7366 -0.6427
  767MOL0     C 5715   3.108   2.544   9.332 -0.2411  0.7240 -0.1969
  767MOL0     O 5716   3.239   2.510   9.344 -0.9921 -0.0616 -0.5595
  767MOL0     C 5717   3.326   2.579   9.257  0.2923  0.0703 -0.1185
  767MOL0     C 5718   3.450   2.491   9.246 -0.3915  0.1254  0.4255
  767MOL0     C 5719   3.550   2.537   9.137  0.0663 -0.4492 -0.2016
  767MOL0     C 5720   3.697   2.503   9.188 -0.2791  0.3767  0.5560
  767MOL0     C 5721   3.818   2.539   9.093 -0.1457 -0.0664 -0.5109
  767MOL0     C 5722   3.825   2.683   9.067 -0.2572 -0.8329  0.0963
  767MOL0     C 5723   3.961   2.716   8.989  0.1975  1.3963 -0.2236
  767MOL0     C 5724   3.978   2.859   8.933 -0.9231  0.3722 -0.8781
  767MOL0     N 5725   4.067   2.950   9.007 -0.6276 -0.4704  0.0951
  767MOL0     C 5726   4.053   2.983   9.138 -0.2033  0.1266  0.2278
  767MOL0     C 5727   4.165   3.063   9.158 -1.2864  0.8768 -0.0707
  767MOL0     C 5728   4.241   3.103   9.283  0.4078 -0.3776  0.0289
  767MOL0     C 5729   4.194   3.241   9.331 -0.2951 -0.8633  0.1947
  767MOL0     C 5730   4.259   3.284   9.462  1.0450 -0.5414  0.0908
  767MOL0     C 5731   4.373   3.385   9.446 -0.5530 -0.3383 -0.0552
  767MOL0     O 5732   4.409   3.431   9.568 -1.0663  0.3579  0.5168
  767MOL0     C 5733   4.331   3.476   9.670 -0.2768  0.3597  0.7812
  767MOL0     C 5734   4.378   3.435   9.793  0.3599  0.3447 -0.2673
  767MOL0     C 5735   4.317   3.488   9.908 -0.3724  0.5575  0.5077
  767MOL0     C 5736   4.368   3.427  10.039 -0.5494 -0.1993 -0.4887
  767MOL0     C 5737   4.207   3.573   9.895  0.7203  0.5319 -0.6591
  767MOL0     C 5738   4.111   3.609   9.996  0.3435  0.5598 -0.8173
  767MOL0     O 5739   3.979   3.629   9.964  0.5227  0.3299  0.2487
  767MOL0     C 5740   3.881   3.613  10.068 -0.0408  0.7399 -0.9225
  767MOL0     C 5741   3.766   3.687  10.058 -0.8765  0.2332 -0.0771
  767MOL0     C 5742   3.667   3.672  10.154 -0.4437 -0.5607 -0.2410
  767MOL0     C 5743   3.680   3.583  10.263 -0.5957 -0.3039  1.1972
  767MOL0     O 5744   3.591   3.569  10.371  0.9417 -0.5419  0.0308
  767MOL0     C 5745   3.449   3.579  10.339 -0.9759 -0.3289 -0.2316
  767MOL0     C 5746   3.386   3.442  10.290  0.5678 -0.7293  0.5751
  767MOL0     C 5747   3.254   3.481  10.215 -0.2931 -0.4760 -0.4946
  767MOL0     C 5748   3.141   3.542  10.306  0.5007 -0.0986 -0.1686
  767MOL0     C 5749   3.003   3.526  10.246 -0.1230 -0.2143  0.1204
  767MOL0     C 5750   2.903   3.579  10.336  0.4320  0.6114 -0.2373
  767MOL0     C 5751   2.759   3.566  10.289 -0.1428 -0.1944  0.1766
  767MOL0     C 5752   2.661   3.581  10.411 -0.2581  0.2462  1.1731
  767MOL0    Cl 5753   2.679   3.753  10.472  0.2166 -0.4519  0.2400
  767MOL0     C 5754   3.796   3.519  10.280 -0.2093 -1.1227 -0.9664
  767MOL0     C 5755   3.900   3.532  10.190 -0.5960  0.2534  1.0733
  767MOL0     O 5756   4.167   3.644  10.106 -0.2464 -0.3155 -0.2540
  767MOL0     C 5757   4.165   3.613   9.762 -1.3341 -0.3984  0.1342
  767MOL0     C 5758   4.227   3.563   9.651 -0.6053  0.8290  0.1454
  767MOL0     N 5759   4.229   3.089   9.039  1.1049  0.4321 -0.4444
  767MOL0     N 5760   4.169   3.020   8.946 -0.4294 -0.5569  0.5981
  767MOL0     C 5761   3.016   2.434   9.320 -0.0064  0.2232 -0.6272
  767MOL0     C 5762   2.878   2.455   9.310 -0.4418  0.1071 -0.1206
  767MOL0     C 5763   2.495   2.719   9.221 -0.0422  0.1312  0.8501
  767MOL0     C 5764   2.422   2.606   9.266 -0.8196 -0.0429  0.1281
  767MOL0     C 5765   2.279   2.604   9.267  0.9315  0.1583  0.7339
  767MOL0     C 5766   2.205   2.711   9.223 -0.0326  0.2706 -0.2269
  767MOL0     O 5767   2.071   2.702   9.222  0.0799 -0.6956 -1.0608
  767MOL0     C 5768   1.999   2.829   9.207  0.4534 -0.2695 -0.2281
  767MOL0     C 5769   1.852   2.803   9.239  0.9081  0.2132  0.2394
  767MOL0     C 5770   1.802   2.694   9.140 -0.2069  0.8973 -0.6666
  767MOL0     C 5771   1.664   2.640   9.185  0.2770 -0.0423  0.4956
  767MOL0     C 5772   1.544   2.723   9.173  0.0318  0.0643  0.1699
  767MOL0     C 5773   1.448   2.795   9.162  0.3881  0.7006  0.2392
  767MOL0     C 5774   2.278   2.821   9.183 -0.1775 -0.7270  0.0279
  767MOL0     C 5775   2.414   2.828   9.174 -0.5587 -1.0866 -0.7479
  767MOL0     C 5776   2.471   2.944   9.103 -0.5726  0.7950  0.0862
  767MOL0     H 5777   2.891   2.794   9.354 -1.0915 -0.7547 -0.3922
  767MOL0     H 5778   3.130   2.755   9.374 -1.4621  1.4142  0.9818
  767MOL0     H 5779   3.357   2.678   9.292 -1.6918  1.0662 -1.0394
  767MOL0     H 5780   3.284   2.598   9.158  3.7951  0.0414 -1.7765
  767MOL0     H 5781   3.494   2.495   9.346 -0.7348 -0.8923  0.6253
  767MOL0     H 5782   3.422   2.387   9.228  1.1236 -0.2104 -0.1087
  767MOL0     H 5783   3.536   2.491   9.039  0.6598 -0.2614 -0.3816
  767MOL0     H 5784   3.545   2.646   9.130  0.3438 -0.4023  0.2374
  767MOL0     H 5785   3.707   2.562   9.279  1.9216 -0.3495  0.8428
  767MOL0     H 5786   3.703   2.394   9.200  1.0081  0.4118  0.2940
  767MOL0     H 5787   3.803   2.487   8.998 -0.0441  0.5194 -0.8579
  767MOL0     H 5788   3.901   2.495   9.148 -1.4727  0.2321  1.8836
  767MOL0     H 5789   3.740   2.711   9.005  0.4628  0.7065 -0.2320
  767MOL0     H 5790   3.814   2.741   9.159  0.5991  1.8695 -1.4203
  767MOL0     H 5791   3.981   2.644   8.909  0.5621  0.3152  0.7989
  767MOL0     H 5792   4.041   2.700   9.062  1.3616 -1.8770 -2.0353
  767MOL0     H 5793   4.013   2.852   8.829 -0.2709  0.6201 -0.6814
  767MOL0     H 5794   3.877   2.899   8.930  0.1167  3.6817  1.7015
  767MOL0     H 5795   3.985   2.944   9.213 -0.9591  0.1251 -0.4442
  767MOL0     H 5796   4.349   3.105   9.268  0.2228  0.6066 -1.3183
  767MOL0     H 5797   4.223   3.028   9.361 -1.5493  0.9344  0.9211
  767MOL0     H 5798   4.229   3.309   9.252  1.7013 -2.4436 -0.3650
  767MOL0     H 5799   4.085   3.246   9.327 -0.2302 -0.0794 -1.5787
  767MOL0     H 5800   4.182   3.340   9.516  1.6435  0.1609  0.2224
  767MOL0     H 5801   4.296   3.199   9.520  0.4752 -0.9539 -0.1277
  767MOL0     H 5802   4.458   3.334   9.400 -0.3134  1.2225 -1.4529
  767MOL0     H 5803   4.348   3.465   9.376  1.5113  0.8643  0.4769
  767MOL0     H 5804   4.451   3.355   9.798 -3.4410 -3.4379  1.2924
  767MOL0     H 5805   4.384   3.509  10.111 -0.2124 -1.6727  1.1785
  767MOL0     H 5806   4.458   3.366  10.035 -0.8720 -0.8269  1.1759
  767MOL0     H 5807   4.283   3.376  10.084  1.3249 -0.7579  2.7083
  767MOL0     H 5808   3.759   3.759   9.977 -1.7749  0.8618  0.5387
  767MOL0     H 5809   3.580   3.737  10.152 -0.2668 -0.3474 -1.6406
  767MOL0     H 5810   3.401   3.604  10.434 -0.8570  0.0796 -0.2771
  767MOL0     H 5811   3.428   3.662  10.271 -1.0462  0.2581  0.4848
  767MOL0     H 5812   3.459   3.390  10.228 -0.1897 -0.0678 -0.9293
  767MOL0     H 5813   3.361   3.373  10.371  0.5205  0.0515  1.2413
  767MOL0     H 5814   3.222   3.388  10.167  0.3109 -1.4119  0.8566
  767MOL0     H 5815   3.283   3.542  10.129  0.4001 -1.3454 -0.8903
  767MOL0     H 5816   3.168   3.643  10.337 -0.8410  0.1740  0.1851
  767MOL0     H 5817   3.136   3.480  10.396  0.4017 -3.1077 -2.1261
  767MOL0     H 5818   3.006   3.572  10.147 -2.4299 -0.5618 -0.1580
  767MOL0     H 5819   2.978   3.421  10.224 -4.0519  0.0025  2.5737
  767MOL0     H 5820   2.932   3.679  10.368  1.9613  0.8412 -2.1438
  767MOL0     H 5821   2.892   3.511  10.421 -1.0647 -0.6567 -1.3901
  767MOL0     H 5822   2.736   3.464  10.257 -2.2243  0.7527 -1.6601
  767MOL0     H 5823   2.734   3.629  10.203  0.0190  4.1577  2.9978
  767MOL0     H 5824   2.685   3.509  10.491  0.8221 -0.2610  0.4169
  767MOL0     H 5825   2.559   3.566  10.374 -0.0484 -2.0503  1.3944
  767MOL0     H 5826   3.806   3.462  10.371  1.3213 -0.9514 -1.0099
  767MOL0     H 5827   3.997   3.490  10.210 -0.1050 -0.1869 -1.8623
  767MOL0     H 5828   4.097   3.698   9.758 -0.0062  0.6733 -0.3520
  767MOL0     H 5829   4.204   3.592   9.549 -0.4493  1.2825  0.2346
  767MOL0     H 5830   3.049   2.330   9.319 -0.2728  0.0254  1.9362
  767MOL0     H 5831   2.809   2.372   9.317  2.6059 -2.4568  1.8971
  767MOL0     H 5832   2.467   2.522   9.318  0.5325 -1.0428 -2.4774
  767MOL0     H 5833   2.227   2.516   9.305 -0.3077  1.1984  1.5449
  767MOL0     H 5834   2.038   2.907   9.273 -1.8396  0.0405  0.8494
  767MOL0     H 5835   2.004   2.872   9.106  0.0862 -1.0376 -0.5802
  767MOL0     H 5836   1.800   2.896   9.214  0.8394 -0.5460 -2.8564
  767MOL0     H 5837   1.839   2.775   9.344 -1.0939 -1.9576 -0.5049
  767MOL0     H 5838   1.797   2.731   9.037  1.4883  1.3726 -0.6065
  767MOL0     H 5839   1.867   2.606   9.140  0.4823  1.3165  2.2324
  767MOL0     H 5840   1.664   2.623   9.293 -0.9323 -2.4064  0.2075
  767MOL0     H 5841   1.638   2.545   9.137 -1.7877  0.3754  0.7010
  767MOL0     H 5842   1.375   2.872   9.148 -2.1173 -1.7659 -1.0324
  767MOL0     H 5843   2.211   2.894   9.137 -2.1545 -1.4190  1.6455
  767MOL0     H 5844   2.391   3.019   9.109 -1.9919 -0.7296  0.9319
  767MOL0     H 5845   2.562   2.988   9.145  0.9095  0.5498 -2.6456
  767MOL0     H 5846   2.487   2.925   8.996  0.2421  0.6958  0.2204
  768MOL0     O 5847   1.086   3.833   1.517  0.4151  0.2152 -0.8728
  768MOL0     C 5848   1.025   3.863   1.621  0.2510  0.6748 -0.0929
  768MOL0     O 5849   1.075   3.852   1.744  0.1075 -0.4896 -0.2982
  768MOL0     C 5850   1.204   3.812   1.774  0.4261 -1.1259 -0.1755
  768MOL0     C 5851   1.266   3.874   1.883 -0.6617 -0.5964  0.8030
  768MOL0     C 5852   1.385   3.833   1.930  0.7805  0.0019  0.1300
  768MOL0     C 5853   1.452   3.727   1.868 -0.4113  0.0169  0.7707
  768MOL0     O 5854   1.577   3.690   1.915 -0.0537 -1.2029 -0.0144
  768MOL0     C 5855   1.688   3.643   1.835  0.6029 -0.1198  0.1745
  768MOL0     C 5856   1.777   3.763   1.805 -1.0500 -0.7046  0.0968
  768MOL0     C 5857   1.894   3.724   1.718  0.3797 -0.2462 -0.3961
  768MOL0     C 5858   1.862   3.719   1.571  0.0458  0.4923  0.3668
  768MOL0     C 5859   1.964   3.636   1.493 -0.6520  0.1937 -0.0826
  768MOL0     C 5860   1.940   3.646   1.344 -0.1367 -0.0324 -0.1706
  768MOL0     C 5861   2.032   3.540   1.273 -0.8555 -0.1324  0.2986
  768MOL0     C 5862   2.188   3.571   1.275  0.6858 -0.1560  0.2695
  768MOL0     N 5863   2.225   3.680   1.180  0.3108  0.1286  0.2399
  768MOL0     C 5864   2.219   3.812   1.194 -0.7783 -0.5383  0.5459
  768MOL0     C 5865   2.280   3.868   1.084  0.5452 -0.6058 -0.5378
  768MOL0     C 5866   2.287   4.012   1.053  0.4108  1.1263 -0.0616
  768MOL0     C 5867   2.433   4.062   1.031 -0.1015 -0.3101 -0.7148
  768MOL0     C 5868   2.420   4.203   0.964 -0.0929 -1.0897 -0.6775
  768MOL0     C 5869   2.552   4.280   0.977  0.3158  0.0726  0.0533
  768MOL0     O 5870   2.657   4.204   0.919 -0.3638 -0.2141 -0.4214
  768MOL0     C 5871   2.786   4.236   0.940  0.0034  0.4435 -0.1186
  768MOL0     C 5872   2.828   4.364   0.969 -0.5824  0.3189 -0.4609
  768MOL0     C 5873   2.965   4.386   0.998  0.0172  0.1787 -0.6062
  768MOL0     C 5874   2.997   4.527   1.040  0.6444 -0.2095 -0.2019
  768MOL0     C 5875   3.061   4.278   0.989 -0.1357 -0.5942 -0.2055
  768MOL0     C 5876   3.211   4.291   1.015  0.1506 -0.8245  0.0210
  768MOL0     O 5877   3.272   4.168   1.023 -0.1888 -0.5620 -0.1609
  768MOL0     C 5878   3.410   4.144   1.019 -0.2562  0.4254  0.7507
  768MOL0     C 5879   3.499   4.209   0.920  0.3934 -0.1273 -0.9830
  768MOL0     C 5880   3.631   4.169   0.918 -0.2645 -0.1866  0.0832
  768MOL0     C 5881   3.689   4.080   1.003 -0.0086 -0.1556 -0.6137
  768MOL0     O 5882   3.823   4.067   0.980 -0.5158 -0.1756 -1.3311
  768MOL0     C 5883   3.906   4.019   1.094 -0.3903  0.3705  0.6621
  768MOL0     C 5884   3.944   4.137   1.186 -0.4863  0.5640  1.2393
  768MOL0     C 5885   4.049   4.236   1.129  0.5960 -0.8676 -0.1010
  768MOL0     C 5886   4.055   4.364   1.213  0.3663  0.1553 -0.1770
  768MOL0     C 5887   4.166   4.455   1.182 -0.1236  0.2995 -0.0720
  768MOL0     C 5888   4.142   4.593   1.230  0.1574 -0.7235 -0.2694
  768MOL0     C 5889   4.120   4.594   1.382  0.7279 -1.0294 -0.6248
  768MOL0     C 5890   4.206   4.515   1.469 -0.7080  0.9093  0.2654
  768MOL0    Cl 5891   4.381   4.557   1.463 -0.2437  0.2294 -0.0048
  768MOL0     C 5892   3.607   4.019   1.101 -0.3210 -0.4112 -0.2307
  768MOL0     C 5893   3.469   4.043   1.105  0.9003  0.4141  0.0438
  768MOL0     O 5894   3.265   4.400   1.009  0.1638 -0.4109 -0.5880
  768MOL0     C 5895   3.015   4.155   0.943 -0.4012 -0.4991  0.2367
  768MOL0     C 5896   2.882   4.135   0.923 -0.2111 -0.4234 -0.2985
  768MOL0     N 5897   2.330   3.760   1.010 -0.3130 -0.2081  0.6973
  768MOL0     N 5898   2.288   3.647   1.062 -0.2546  0.1815  0.5157
  768MOL0     C 5899   1.393   3.660   1.760 -0.1161 -0.5309 -0.0597
  768MOL0     C 5900   1.271   3.703   1.713 -0.1709  0.2037  0.5066
  768MOL0     C 5901   0.888   3.910   1.615  0.3136 -0.2144 -0.4849
  768MOL0     C 5902   0.851   4.042   1.656  0.2594  0.3576 -0.1582
  768MOL0     C 5903   0.718   4.085   1.662  0.6347 -0.6680 -0.1040
  768MOL0     C 5904   0.618   4.009   1.598 -0.4535  1.2019 -1.5340
  768MOL0     O 5905   0.488   4.045   1.593  0.3231  0.1776  1.0479
  768MOL0     C 5906   0.434   4.156   1.656 -0.0396 -0.1296 -0.0939
  768MOL0     C 5907   0.280   4.159   1.647  0.0702 -0.1759 -0.6909
  768MOL0     C 5908   0.234   4.192   1.502 -0.5320  0.3309 -0.5020
  768MOL0     C 5909   0.136   4.088   1.444 -0.0516  0.2157  0.6928
  768MOL0     C 5910   0.007   4.114   1.504  0.1830  0.0126 -0.7056
  768MOL0     C 5911  -0.106   4.144   1.542  0.6533  1.3401 -0.8644
  768MOL0     C 5912   0.647   3.874   1.549  0.1135 -0.0330 -0.3910
  768MOL0     C 5913   0.775   3.822   1.565 -0.9276  0.0443 -0.6752
  768MOL0     C 5914   0.807   3.683   1.529 -0.7700  0.9262  0.3257
  768MOL0     H 5915   1.231   3.968   1.923 -1.2031 -1.5863  2.7780
  768MOL0     H 5916   1.440   3.862   2.019  0.0086  1.3395  0.2040
  768MOL0     H 5917   1.651   3.598   1.743 -1.6395  2.6072 -0.4069
  768MOL0     H 5918   1.743   3.565   1.888  0.5720 -1.9803 -2.3498
  768MOL0     H 5919   1.725   3.845   1.754 -2.2404 -0.5343  1.5269
  768MOL0     H 5920   1.817   3.812   1.894  1.0841 -0.2181 -1.0632
  768MOL0     H 5921   1.975   3.795   1.738  0.4022 -0.3461 -0.1168
  768MOL0     H 5922   1.929   3.630   1.763 -1.4419  0.4995  2.9377
  768MOL0     H 5923   1.760   3.683   1.562 -0.0768  0.1092  2.8409
  768MOL0     H 5924   1.858   3.823   1.535 -0.1110  0.5409  0.5255
  768MOL0     H 5925   1.972   3.529   1.518  3.6338  0.7146  1.6830
  768MOL0     H 5926   2.065   3.677   1.500 -0.2436 -0.3724 -2.0424
  768MOL0     H 5927   1.834   3.626   1.330 -0.2061  0.1442  0.0870
  768MOL0     H 5928   1.960   3.747   1.305 -0.2586  0.2048  0.3721
  768MOL0     H 5929   2.001   3.532   1.168  0.5037  0.6420 -0.1908
  768MOL0     H 5930   2.018   3.442   1.319 -0.2290  0.4842  1.8655
  768MOL0     H 5931   2.217   3.599   1.377 -2.6321 -1.9962  1.8682
  768MOL0     H 5932   2.242   3.481   1.244  0.2925 -0.1033 -0.5786
  768MOL0     H 5933   2.178   3.873   1.274 -1.2844 -0.9033  0.5666
  768MOL0     H 5934   2.237   4.067   1.133 -3.6643  0.2512 -1.7477
  768MOL0     H 5935   2.238   4.028   0.957 -1.2166 -1.0149  0.3255
  768MOL0     H 5936   2.484   4.076   1.127 -2.0014  1.6189  0.0977
  768MOL0     H 5937   2.489   3.992   0.969  2.0484  0.3243  0.3812
  768MOL0     H 5938   2.408   4.185   0.856  2.3792 -1.8963 -0.8740
  768MOL0     H 5939   2.337   4.259   1.008  0.5247 -0.9317  0.3015
  768MOL0     H 5940   2.554   4.372   0.918  2.4324 -1.5663 -2.6583
  768MOL0     H 5941   2.578   4.301   1.081  3.3078  0.1656 -0.6138
  768MOL0     H 5942   2.757   4.445   0.975  0.6837  1.4484 -0.3131
  768MOL0     H 5943   3.055   4.573   0.959  0.5804  0.5192  0.1595
  768MOL0     H 5944   3.068   4.530   1.122  0.4898  0.5488 -0.0815
  768MOL0     H 5945   2.912   4.591   1.068  1.5040 -0.0469  2.2345
  768MOL0     H 5946   3.470   4.296   0.863  2.0927  0.6178 -0.7427
  768MOL0     H 5947   3.699   4.232   0.861 -0.0851  2.6571  3.1580
  768MOL0     H 5948   3.856   3.938   1.149  0.5317 -1.3962 -0.9620
  768MOL0     H 5949   3.999   3.973   1.059 -1.2543 -0.7103 -0.3138
  768MOL0     H 5950   3.854   4.188   1.222 -1.4281 -2.3791  3.4752
  768MOL0     H 5951   3.996   4.094   1.272 -0.3023 -0.1158  0.7979
  768MOL0     H 5952   4.000   4.270   1.037 -2.0844  0.2927  1.6496
  768MOL0     H 5953   4.152   4.199   1.127  1.0532  0.3343  0.2955
  768MOL0     H 5954   4.069   4.328   1.315 -2.1413  0.5391  0.3571
  768MOL0     H 5955   3.957   4.412   1.215  0.5327  0.4901 -0.1281
  768MOL0     H 5956   4.265   4.425   1.219  0.7278 -2.2314 -3.8108
  768MOL0     H 5957   4.181   4.457   1.073 -0.8288  1.9481 -0.1714
  768MOL0     H 5958   4.050   4.627   1.182 -0.0317  1.1166  1.3119
  768MOL0     H 5959   4.228   4.657   1.210 -0.2229 -0.0465  0.2240
  768MOL0     H 5960   4.017   4.558   1.394 -0.8154  1.7052 -3.9709
  768MOL0     H 5961   4.117   4.700   1.409  1.9834 -1.0819 -0.2260
  768MOL0     H 5962   4.194   4.407   1.462 -0.9559  0.8766  1.1378
  768MOL0     H 5963   4.185   4.539   1.573  0.6109 -2.7713  1.5341
  768MOL0     H 5964   3.642   3.950   1.178  1.4173 -0.1545 -0.7537
  768MOL0     H 5965   3.407   3.996   1.180  1.3974  0.5939  0.5775
  768MOL0     H 5966   3.081   4.072   0.920  1.2554  0.5322  1.1197
  768MOL0     H 5967   2.851   4.037   0.890  0.9434 -1.5315  1.7301
  768MOL0     H 5968   1.446   3.578   1.714  0.1253  0.9797 -2.7116
  768MOL0     H 5969   1.225   3.655   1.628 -0.1976 -0.3239  0.8155
  768MOL0     H 5970   0.931   4.097   1.705 -1.3860  0.5763  2.4345
  768MOL0     H 5971   0.683   4.184   1.692  0.2228 -0.4438 -1.2816
  768MOL0     H 5972   0.472   4.158   1.759  1.7607  2.2161 -0.7077
  768MOL0     H 5973   0.462   4.253   1.613  1.3466 -0.5797 -0.2289
  768MOL0     H 5974   0.254   4.243   1.712  1.1087  0.6908 -1.3582
  768MOL0     H 5975   0.230   4.067   1.680 -0.5204  0.3706 -0.0206
  768MOL0     H 5976   0.184   4.289   1.502 -0.3736  0.4387 -2.0071
  768MOL0     H 5977   0.324   4.215   1.445 -0.1298  1.2113  0.4583
  768MOL0     H 5978   0.176   3.987   1.461  0.8372  0.8616  2.7460
  768MOL0     H 5979   0.131   4.109   1.337  0.4274 -1.5290  0.2852
  768MOL0     H 5980  -0.209   4.167   1.563  0.3806 -0.2167 -0.3168
  768MOL0     H 5981   0.573   3.814   1.497  0.7275 -1.7016  0.5777
  768MOL0     H 5982   0.719   3.620   1.509  0.4575 -0.9870  0.7036
  768MOL0     H 5983   0.873   3.691   1.442 -0.6688  1.8678  0.4745
  768MOL0     H 5984   0.858   3.634   1.612 -0.1854  2.3521  0.8437
  769MOL0     O 5985   0.419   2.582   8.813 -0.0848 -0.6468  0.4011
  769MOL0     C 5986   0.351   2.552   8.716 -0.2821 -0.1488 -0.5809
  769MOL0     O 5987   0.381   2.584   8.589 -0.2358  0.4236 -0.0604
  769MOL0     C 5988   0.510   2.616   8.552  0.9238 -0.2323 -0.0739
  769MOL0     C 5989   0.561   2.748   8.560 -0.2391 -0.7790 -0.1617
  769MOL0     C 5990   0.692   2.777   8.525 -0.2177 -0.3969 -0.8490
  769MOL0     C 5991   0.780   2.678   8.487 -0.1229 -0.1917  0.0416
  769MOL0     O 5992   0.911   2.713   8.451 -0.8452 -0.5296  0.3217
  769MOL0     C 5993   0.962   2.673   8.320  0.7700  0.1420  0.1253
  769MOL0     C 5994   1.078   2.758   8.262 -0.2711  1.1540 -0.0671
  769MOL0     C 5995   1.204   2.708   8.328 -0.5632 -0.8090 -0.8925
  769MOL0     C 5996   1.311   2.818   8.335 -0.5610  0.2626  0.6492
  769MOL0     C 5997   1.435   2.783   8.416  1.5807  0.5453  0.1572
  769MOL0     C 5998   1.535   2.688   8.342 -0.8482  0.2922  0.1649
  769MOL0     C 5999   1.657   2.655   8.438 -1.2854  0.0783  0.6147
  769MOL0     C 6000   1.782   2.745   8.411 -0.2443 -0.2224  0.4327
  769MOL0     N 6001   1.859   2.720   8.292  0.3998  0.2015 -0.7440
  769MOL0     C 6002   1.906   2.596   8.251  0.7938  0.6920 -0.1076
  769MOL0     C 6003   1.970   2.621   8.136  0.1940  0.3620 -0.4470
  769MOL0     C 6004   2.033   2.509   8.064 -0.4264  0.2807 -0.1238
  769MOL0     C 6005   1.938   2.404   8.020 -0.5583 -0.0890 -0.0225
  769MOL0     C 6006   2.008   2.280   7.952  0.2639 -0.1054 -0.1272
  769MOL0     C 6007   2.133   2.314   7.865  0.4030 -0.1278  0.5783
  769MOL0     O 6008   2.260   2.324   7.934 -0.6137  0.1211 -0.3553
  769MOL0     C 6009   2.379   2.337   7.862  0.0736 -0.8834  0.7103
  769MOL0     C 6010   2.492   2.349   7.947 -0.3280  0.7958 -0.1080
  769MOL0     C 6011   2.621   2.372   7.888  0.6176  0.4718 -0.0835
  769MOL0     C 6012   2.737   2.378   7.987 -1.0984  0.8531  0.6904
  769MOL0     C 6013   2.623   2.379   7.741 -0.7222  0.8491  0.5115
  769MOL0     C 6014   2.750   2.396   7.667 -0.5453  0.1680  0.7253
  769MOL0     O 6015   2.755   2.362   7.537 -0.2287  0.5482  0.3683
  769MOL0     C 6016   2.875   2.387   7.464 -0.7026  0.4349  0.1552
  769MOL0     C 6017   2.987   2.294   7.480 -0.0851  0.1872 -0.0138
  769MOL0     C 6018   3.106   2.326   7.402 -0.4316 -0.4507 -0.5661
  769MOL0     C 6019   3.130   2.451   7.338 -0.2096  0.0991  0.1885
  769MOL0     O 6020   3.254   2.478   7.286 -0.1110  0.4714 -0.4086
  769MOL0     C 6021   3.289   2.596   7.226 -0.2657  0.1831  0.1003
  769MOL0     C 6022   3.438   2.605   7.211 -0.6754  0.5316 -0.0177
  769MOL0     C 6023   3.476   2.747   7.165  0.4509  0.7324 -0.3872
  769MOL0     C 6024   3.610   2.734   7.090 -0.1500  1.0276 -0.1330
  769MOL0     C 6025   3.637   2.875   7.042  0.2911  0.1883  0.5275
  769MOL0     C 6026   3.788   2.899   6.987  0.5403  0.2542 -0.2661
  769MOL0     C 6027   3.795   3.043   6.923 -0.1880 -1.3898 -0.7447
  769MOL0     C 6028   3.940   3.080   6.880 -0.2393 -0.9941 -0.3782
  769MOL0    Cl 6029   4.044   3.086   7.028 -0.5197 -0.0765  0.4815
  769MOL0     C 6030   3.015   2.534   7.332 -0.1460 -0.0192 -0.7357
  769MOL0     C 6031   2.895   2.501   7.387  0.4407 -0.3050  0.1353
  769MOL0     O 6032   2.840   2.454   7.724  0.0183 -0.3554 -0.0827
  769MOL0     C 6033   2.504   2.360   7.661  0.2128  0.1881 -0.4844
  769MOL0     C 6034   2.384   2.353   7.723 -0.1261 -0.4758  0.2053
  769MOL0     N 6035   1.963   2.751   8.110  0.1451  0.7588 -0.5314
  769MOL0     N 6036   1.898   2.814   8.205 -0.5865 -0.3328  0.4355
  769MOL0     C 6037   0.739   2.545   8.479 -0.2634  0.6429  0.0208
  769MOL0     C 6038   0.604   2.515   8.511 -0.1651 -0.5547  0.4171
  769MOL0     C 6039   0.221   2.483   8.734  0.2355 -0.4371 -0.4413
  769MOL0     C 6040   0.146   2.453   8.621 -0.0732  0.2007 -0.4875
  769MOL0     C 6041   0.012   2.402   8.626 -0.4108  0.7997  0.2347
  769MOL0     C 6042  -0.038   2.373   8.751  0.0249  0.0065  1.2729
  769MOL0     O 6043  -0.167   2.329   8.761 -0.0354  0.4355 -0.2400
  769MOL0     C 6044  -0.274   2.360   8.655  0.0385 -0.3848  0.3520
  769MOL0     C 6045  -0.298   2.517   8.674 -0.1080 -0.1513  1.1048
  769MOL0     C 6046  -0.441   2.553   8.640 -0.1001 -0.5494 -0.0092
  769MOL0     C 6047  -0.452   2.701   8.600  0.2015 -0.3279  0.1237
  769MOL0     C 6048  -0.593   2.731   8.599  0.0213  0.3707  0.8239
  769MOL0     C 6049  -0.711   2.770   8.597  0.1344 -0.2432  0.1398
  769MOL0     C 6050   0.036   2.395   8.867  0.1820  0.6921  0.1455
  769MOL0     C 6051   0.161   2.451   8.863 -0.5748  0.2199 -0.4604
  769MOL0     C 6052   0.232   2.471   8.993 -0.1080 -0.3065 -0.4863
  769MOL0     H 6053   0.498   2.833   8.584  2.7742  2.6133 -3.2468
  769MOL0     H 6054   0.731   2.878   8.537 -1.3962 -0.1400  1.4121
  769MOL0     H 6055   0.888   2.661   8.240  1.1555 -0.0821 -0.2065
  769MOL0     H 6056   0.983   2.566   8.334 -0.9759 -0.0971  1.1977
  769MOL0     H 6057   1.093   2.743   8.155 -1.1621  2.5454 -0.4201
  769MOL0     H 6058   1.055   2.863   8.285  3.1162  2.1977 -0.8800
  769MOL0     H 6059   1.198   2.672   8.431  0.9234 -1.4144 -0.9829
  769MOL0     H 6060   1.249   2.621   8.278 -1.1176 -2.9452  2.0301
  769MOL0     H 6061   1.350   2.850   8.237  0.4692  0.2153  1.0274
  769MOL0     H 6062   1.260   2.906   8.373 -0.2279  0.8780 -0.2800
  769MOL0     H 6063   1.417   2.738   8.514  1.5135 -2.0718 -0.9854
  769MOL0     H 6064   1.487   2.876   8.440  1.0580  0.7782  0.3955
  769MOL0     H 6065   1.490   2.599   8.298  0.5129 -0.7916  0.8997
  769MOL0     H 6066   1.575   2.739   8.253  2.9693 -1.5096  0.6358
  769MOL0     H 6067   1.693   2.553   8.417 -2.1327 -0.2160  0.5725
  769MOL0     H 6068   1.635   2.664   8.545  4.9162 -0.8977  2.3665
  769MOL0     H 6069   1.752   2.850   8.404  2.7453  0.5723 -2.5152
  769MOL0     H 6070   1.857   2.754   8.490  0.9113  1.1124 -0.7469
  769MOL0     H 6071   1.891   2.503   8.306  0.1025  1.2925  0.7449
  769MOL0     H 6072   2.102   2.453   8.128 -0.8059 -0.1316 -0.0713
  769MOL0     H 6073   2.102   2.547   7.988 -0.5483 -0.9731 -0.8943
  769MOL0     H 6074   1.875   2.372   8.103 -0.1691 -0.9991 -0.0638
  769MOL0     H 6075   1.871   2.455   7.950  1.1041  2.5357  0.1763
  769MOL0     H 6076   2.048   2.212   8.028 -0.4270  0.4957  0.7982
  769MOL0     H 6077   1.939   2.216   7.897  2.4597 -2.7103 -0.0639
  769MOL0     H 6078   2.140   2.246   7.779 -1.2530 -0.4934  0.6961
  769MOL0     H 6079   2.118   2.408   7.811 -0.8366 -0.3959  0.4190
  769MOL0     H 6080   2.487   2.335   8.054 -1.1486  0.9493 -0.1198
  769MOL0     H 6081   2.812   2.454   7.960 -1.7572  0.4487 -2.7755
  769MOL0     H 6082   2.780   2.278   7.978 -2.6890  0.2720 -1.0067
  769MOL0     H 6083   2.701   2.395   8.089  0.3707  0.9222  1.2234
  769MOL0     H 6084   2.982   2.208   7.545  0.7505  1.7876  2.3000
  769MOL0     H 6085   3.192   2.260   7.395  0.1815  0.3446 -0.7252
  769MOL0     H 6086   3.241   2.594   7.128 -0.8878  0.4255  0.3957
  769MOL0     H 6087   3.246   2.673   7.291 -1.4946 -1.1828  0.9628
  769MOL0     H 6088   3.492   2.583   7.304 -1.8500 -3.3862 -0.0854
  769MOL0     H 6089   3.475   2.535   7.136  0.6070 -0.8833  1.8384
  769MOL0     H 6090   3.475   2.821   7.245 -1.5753 -0.9712  1.2494
  769MOL0     H 6091   3.405   2.781   7.089  0.1223  0.4932 -0.1862
  769MOL0     H 6092   3.594   2.667   7.005  1.7995 -0.5527  0.6628
  769MOL0     H 6093   3.688   2.686   7.149  0.2744 -0.0484 -1.5248
  769MOL0     H 6094   3.565   2.897   6.962  2.5935 -1.2491 -2.1326
  769MOL0     H 6095   3.619   2.933   7.133 -0.7815 -1.9824  1.7751
  769MOL0     H 6096   3.800   2.822   6.911  0.2494 -3.1744  2.8436
  769MOL0     H 6097   3.863   2.890   7.066 -0.6537 -1.0730  0.7960
  769MOL0     H 6098   3.752   3.122   6.985 -1.4601 -0.1842 -3.0461
  769MOL0     H 6099   3.726   3.044   6.839 -1.9799  0.2458  0.6641
  769MOL0     H 6100   3.956   3.175   6.828  0.2649 -0.8073  0.1029
  769MOL0     H 6101   3.980   3.002   6.815  1.2630 -1.1948  0.7419
  769MOL0     H 6102   3.019   2.636   7.295 -0.1186  0.4987  0.6395
  769MOL0     H 6103   2.806   2.561   7.374  2.3262  2.1813 -2.4016
  769MOL0     H 6104   2.502   2.361   7.552  1.1284  0.3310 -0.5047
  769MOL0     H 6105   2.294   2.341   7.665 -0.2022 -0.0213  0.2300
  769MOL0     H 6106   0.814   2.471   8.452 -1.6240 -1.2767  1.2605
  769MOL0     H 6107   0.572   2.411   8.505 -1.6387 -0.1062 -4.9457
  769MOL0     H 6108   0.180   2.478   8.521  1.2194  2.8389  0.5170
  769MOL0     H 6109  -0.039   2.404   8.530  1.4248  0.4302 -0.8140
  769MOL0     H 6110  -0.244   2.335   8.553 -0.9299  0.6772 -0.2119
  769MOL0     H 6111  -0.357   2.298   8.691  0.5949 -0.4010  1.6814
  769MOL0     H 6112  -0.229   2.578   8.614 -0.2846 -0.3179  0.7335
  769MOL0     H 6113  -0.282   2.539   8.780  2.7551 -1.3501  1.0184
  769MOL0     H 6114  -0.483   2.491   8.560  2.1665 -0.9461 -0.9971
  769MOL0     H 6115  -0.501   2.534   8.730 -0.1069 -0.2982  0.0373
  769MOL0     H 6116  -0.406   2.726   8.504  3.1914  2.1621  2.0094
  769MOL0     H 6117  -0.402   2.758   8.678 -0.4765 -2.4596  2.2497
  769MOL0     H 6118  -0.807   2.816   8.583  0.5807  1.6080  2.4758
  769MOL0     H 6119  -0.008   2.362   8.961  1.2219 -1.6889 -0.1429
  769MOL0     H 6120   0.277   2.571   9.004  0.1926 -0.4157 -0.7070
  769MOL0     H 6121   0.162   2.456   9.076  2.2365 -0.0320  1.7061
  769MOL0     H 6122   0.311   2.398   9.011 -1.0664 -1.4423 -0.8138
  770MOL0     O 6123   9.314  10.356   4.174 -0.3487  0.2966  0.2701
  770MOL0     C 6124   9.225  10.378   4.088 -0.5652  0.0195 -0.4436
  770MOL0     O 6125   9.246  10.411   3.963 -0.6937 -0.0051 -0.0284
  770MOL0     C 6126   9.360  10.378   3.892  0.5626 -0.2580  0.9432
  770MOL0     C 6127   9.457  10.286   3.936  0.0673 -0.0139  0.0172
  770MOL0     C 6128   9.574  10.270   3.857  0.0837 -0.2321 -0.0947
  770MOL0     C 6129   9.587  10.345   3.740 -0.3911  0.8215  0.4946
  770MOL0     O 6130   9.696  10.320   3.675  0.0593  0.9425 -0.5856
  770MOL0     C 6131   9.688  10.331   3.524 -0.3206 -0.6702  0.2904
  770MOL0     C 6132   9.798  10.239   3.467  0.0298  0.0235 -0.4746
  770MOL0     C 6133   9.756  10.092   3.494 -0.0599  0.0320 -0.2465
  770MOL0     C 6134   9.817  10.031   3.626  0.4799 -0.4498  0.3592
  770MOL0     C 6135   9.793   9.878   3.628  0.0632 -0.3790  0.1332
  770MOL0     C 6136   9.648   9.846   3.659  1.0356 -0.1834 -0.4418
  770MOL0     C 6137   9.592   9.928   3.783 -0.0008  0.0437  0.1957
  770MOL0     C 6138   9.459   9.864   3.840 -0.5099 -0.5591 -0.0140
  770MOL0     N 6139   9.449   9.719   3.839  0.3613  0.3182 -0.5175
  770MOL0     C 6140   9.504   9.628   3.924  0.9990 -0.2137  0.1317
  770MOL0     C 6141   9.452   9.510   3.903  0.4722 -0.5206  0.7970
  770MOL0     C 6142   9.463   9.384   3.992 -0.7376 -0.6693 -0.0378
  770MOL0     C 6143   9.488   9.264   3.902 -0.1726 -0.3574  0.1486
  770MOL0     C 6144   9.535   9.138   3.977  0.2775 -0.7208 -0.4128
  770MOL0     C 6145   9.684   9.140   4.034  0.3413  0.8607  0.6990
  770MOL0     O 6146   9.772   9.125   3.917  0.2343  0.0154 -0.2941
  770MOL0     C 6147   9.905   9.130   3.937 -0.2447  0.5733 -0.3805
  770MOL0     C 6148   9.975   9.060   4.047  0.2683  0.3022  0.2692
  770MOL0     C 6149  10.115   9.060   4.063 -0.2343 -0.6137  0.6355
  770MOL0     C 6150  10.175   9.001   4.193 -0.2549 -0.9265  0.3023
  770MOL0     C 6151  10.195   9.143   3.969 -0.0089  0.7979 -0.2585
  770MOL0     C 6152  10.341   9.174   3.981  0.9397 -0.4729 -0.4974
  770MOL0     O 6153  10.393   9.179   4.112  0.0355  0.6706 -0.2917
  770MOL0     C 6154  10.517   9.228   4.144 -0.4626  0.1377 -0.6836
  770MOL0     C 6155  10.559   9.197   4.268 -0.0090  0.6599 -0.1932
  770MOL0     C 6156  10.679   9.251   4.315  0.7392  0.4048 -0.3735
  770MOL0     C 6157  10.763   9.337   4.243 -0.3838 -0.2284 -0.9215
  770MOL0     O 6158  10.873   9.382   4.314  0.6423  0.4468 -0.2736
  770MOL0     C 6159  10.969   9.449   4.237  0.1647  0.2024 -0.1943
  770MOL0     C 6160  11.100   9.457   4.307 -0.5831 -0.8039 -0.2945
  770MOL0     C 6161  11.148   9.311   4.339  0.4349 -0.2639 -0.6490
  770MOL0     C 6162  11.300   9.298   4.361  0.0621 -0.4991  0.6322
  770MOL0     C 6163  11.345   9.160   4.346 -0.0503 -0.8841 -0.6264
  770MOL0     C 6164  11.498   9.136   4.354 -0.0367  0.5937  0.1600
  770MOL0     C 6165  11.578   9.216   4.463  0.2801 -0.4038  0.7604
  770MOL0     C 6166  11.717   9.154   4.470  0.6682  0.1500  0.1310
  770MOL0    Cl 6167  11.802   9.189   4.320 -0.5192 -0.1192  0.3286
  770MOL0     C 6168  10.719   9.359   4.112 -0.1005 -0.1872  0.1844
  770MOL0     C 6169  10.604   9.303   4.065  0.9357  0.1131 -0.0385
  770MOL0     O 6170  10.399   9.192   3.872 -0.1112  0.6821 -0.3321
  770MOL0     C 6171  10.130   9.206   3.859  0.8604 -0.5315 -0.1133
  770MOL0     C 6172   9.987   9.204   3.850 -0.1767  0.2334  0.3694
  770MOL0     N 6173   9.350   9.527   3.814  0.3205 -0.5079 -0.0203
  770MOL0     N 6174   9.348   9.652   3.778  0.1797 -0.1028  0.1265
  770MOL0     C 6175   9.491  10.437   3.695  0.3609  0.6019  0.1417
  770MOL0     C 6176   9.378  10.452   3.777  0.1298 -0.3807 -0.0090
  770MOL0     C 6177   9.079  10.389   4.127 -0.1369 -0.1996 -0.2835
  770MOL0     C 6178   9.001  10.479   4.051 -0.5465  0.0345 -0.1139
  770MOL0     C 6179   8.866  10.503   4.074 -0.4236 -0.6673 -0.7163
  770MOL0     C 6180   8.804  10.434   4.179 -0.9357 -0.5582  0.3130
  770MOL0     O 6181   8.669  10.461   4.209 -0.1513  0.7091  0.3108
  770MOL0     C 6182   8.592  10.371   4.297 -0.1456 -0.4047 -0.0952
  770MOL0     C 6183   8.444  10.380   4.249  1.0735 -0.7615 -0.1439
  770MOL0     C 6184   8.422  10.407   4.093  0.0575 -0.0977  0.9400
  770MOL0     C 6185   8.494  10.297   4.022 -1.0105  0.6001 -0.4708
  770MOL0     C 6186   8.474  10.296   3.874 -0.5443  0.2799 -0.1930
  770MOL0     C 6187   8.440  10.289   3.761 -0.0545 -0.5018  0.1139
  770MOL0     C 6188   8.882  10.350   4.259  0.4289 -0.8037  0.2420
  770MOL0     C 6189   9.018  10.320   4.231 -0.3488 -0.8119 -0.7063
  770MOL0     C 6190   9.086  10.225   4.323 -0.6571  0.1590  0.1721
  770MOL0     H 6191   9.452  10.222   4.023 -1.8622 -0.1765 -0.1696
  770MOL0     H 6192   9.655  10.204   3.885  0.6946  1.2930  2.0476
  770MOL0     H 6193   9.705  10.436   3.498 -1.3127 -0.7340 -0.6923
  770MOL0     H 6194   9.593  10.300   3.479 -0.8380 -3.1838  2.8082
  770MOL0     H 6195   9.815  10.259   3.360  2.8990  3.6801  0.4684
  770MOL0     H 6196   9.888  10.259   3.526  0.2549 -0.4592 -0.6456
  770MOL0     H 6197   9.647  10.089   3.500 -0.1646 -1.5644 -2.1256
  770MOL0     H 6198   9.784  10.035   3.405 -0.5138 -0.6161  0.0180
  770MOL0     H 6199   9.925  10.045   3.636 -0.0251  2.2359  4.0224
  770MOL0     H 6200   9.777  10.075   3.717  0.0862  0.4854 -0.2443
  770MOL0     H 6201   9.862   9.840   3.705  1.3466  3.1692  0.8996
  770MOL0     H 6202   9.817   9.845   3.527  1.5087  1.4650 -0.1708
  770MOL0     H 6203   9.588   9.851   3.568  1.2456  0.8466 -0.5374
  770MOL0     H 6204   9.642   9.738   3.679  0.4947 -0.4945 -2.1394
  770MOL0     H 6205   9.564  10.030   3.760 -1.1910 -0.3103  0.0375
  770MOL0     H 6206   9.675   9.939   3.854  1.7646 -0.4459 -1.6672
  770MOL0     H 6207   9.426   9.903   3.937 -0.9124 -0.9968  0.0277
  770MOL0     H 6208   9.378   9.899   3.776 -1.8758 -3.0585  0.2141
  770MOL0     H 6209   9.583   9.656   3.992  0.5120 -2.0895  1.5587
  770MOL0     H 6210   9.386   9.367   4.069 -0.2303  1.8568  1.1621
  770MOL0     H 6211   9.557   9.410   4.042 -0.0113  2.0664 -2.5005
  770MOL0     H 6212   9.392   9.235   3.860 -0.3414  1.0060 -0.4545
  770MOL0     H 6213   9.559   9.288   3.823  0.4629  0.1931  0.8671
  770MOL0     H 6214   9.466   9.114   4.058 -1.1891  1.9157 -0.7771
  770MOL0     H 6215   9.532   9.055   3.905 -0.6428 -2.0615  1.0865
  770MOL0     H 6216   9.713   9.233   4.085  2.8313  0.9495 -0.7492
  770MOL0     H 6217   9.696   9.047   4.090  1.5264  0.0396 -0.8750
  770MOL0     H 6218   9.923   9.005   4.126  0.6727 -0.4165  0.0438
  770MOL0     H 6219  10.099   8.929   4.226 -0.4924 -1.0693 -0.5538
  770MOL0     H 6220  10.187   9.083   4.264  4.3851  0.6227 -1.9382
  770MOL0     H 6221  10.270   8.951   4.172 -0.6330 -2.3085  1.6577
  770MOL0     H 6222  10.481   9.150   4.327  0.8938 -1.4441 -0.5866
  770MOL0     H 6223  10.699   9.236   4.421 -0.2135 -2.5667 -0.5251
  770MOL0     H 6224  10.988   9.396   4.143  0.4031  0.0934 -0.0864
  770MOL0     H 6225  10.935   9.551   4.213 -0.9981 -0.8868 -3.8727
  770MOL0     H 6226  11.180   9.509   4.254 -2.1462  0.7147 -1.2840
  770MOL0     H 6227  11.090   9.516   4.399  1.3868  0.9735 -1.1254
  770MOL0     H 6228  11.117   9.237   4.264  1.2350 -0.1236 -1.1244
  770MOL0     H 6229  11.100   9.279   4.432  0.6016 -1.1286 -0.8467
  770MOL0     H 6230  11.331   9.343   4.455  3.9953  1.1579 -1.2171
  770MOL0     H 6231  11.351   9.357   4.285 -1.2454 -0.7417 -0.4894
  770MOL0     H 6232  11.289   9.109   4.426 -2.2854 -0.7714 -2.0207
  770MOL0     H 6233  11.309   9.120   4.250 -1.1625 -2.0027  0.2074
  770MOL0     H 6234  11.542   9.157   4.256 -0.5933  3.1110  0.3920
  770MOL0     H 6235  11.507   9.028   4.368 -1.0495  0.7585  2.6095
  770MOL0     H 6236  11.530   9.222   4.561 -1.5920  1.9411 -0.2195
  770MOL0     H 6237  11.591   9.320   4.433  2.9797 -0.6784  0.7358
  770MOL0     H 6238  11.715   9.049   4.499  0.6148 -0.7166 -2.7073
  770MOL0     H 6239  11.779   9.202   4.547 -0.7969 -0.5293  1.7995
  770MOL0     H 6240  10.755   9.429   4.038 -1.4432  0.5996  0.2412
  770MOL0     H 6241  10.577   9.326   3.962  2.0753 -1.2917 -0.6790
  770MOL0     H 6242  10.189   9.254   3.782  1.4898  0.6497  1.0703
  770MOL0     H 6243   9.941   9.251   3.764 -1.6421 -0.3170  0.8328
  770MOL0     H 6244   9.506  10.502   3.609 -1.7930  1.4716  0.3603
  770MOL0     H 6245   9.301  10.526   3.758 -0.5280 -0.9303  0.4664
  770MOL0     H 6246   9.050  10.520   3.963 -2.1933 -1.8685 -2.0317
  770MOL0     H 6247   8.817  10.576   4.011  1.0439  0.4700 -0.5926
  770MOL0     H 6248   8.636  10.271   4.292 -0.9879 -0.9076  1.7732
  770MOL0     H 6249   8.598  10.414   4.397 -0.9240  0.4340 -0.3931
  770MOL0     H 6250   8.395  10.455   4.314 -0.6576 -2.7247  0.9473
  770MOL0     H 6251   8.400  10.283   4.275  2.0457 -1.4203 -0.8974
  770MOL0     H 6252   8.315  10.402   4.069  0.5690 -0.7783 -1.5012
  770MOL0     H 6253   8.475  10.494   4.053  2.1926 -2.8254 -2.9029
  770MOL0     H 6254   8.463  10.203   4.068  0.6230  0.6624  0.8633
  770MOL0     H 6255   8.602  10.304   4.039 -1.2507  0.8257  1.0260
  770MOL0     H 6256   8.413  10.275   3.658  0.6840  1.2745 -0.3589
  770MOL0     H 6257   8.840  10.323   4.355  2.0077  1.3938  1.6577
  770MOL0     H 6258   9.126  10.261   4.418 -2.5999  1.8902  0.4029
  770MOL0     H 6259   9.015  10.151   4.359 -1.5782  0.6654 -0.5552
  770MOL0     H 6260   9.159  10.166   4.267 -1.1013  0.0805 -0.3309
  771MOL0     O 6261   7.178   7.975   9.659  0.4147 -0.0839 -0.2091
  771MOL0     C 6262   7.223   8.068   9.593  0.6728 -0.2608 -0.3529
  771MOL0     O 6263   7.344   8.071   9.530  0.2665  1.0077  0.1766
  771MOL0     C 6264   7.437   7.976   9.560 -0.6220 -0.0311 -0.0616
  771MOL0     C 6265   7.492   7.964   9.683 -0.3474  0.1062 -0.4195
  771MOL0     C 6266   7.602   7.884   9.706 -0.0786  0.2992 -0.6116
  771MOL0     C 6267   7.651   7.803   9.608  0.0117 -0.1275 -1.2134
  771MOL0     O 6268   7.753   7.707   9.628  0.2484  0.2709 -0.0327
  771MOL0     C 6269   7.779   7.648   9.754  0.1633  0.3686 -0.1545
  771MOL0     C 6270   7.887   7.735   9.809  0.2291 -0.6388  1.0691
  771MOL0     C 6271   8.020   7.687   9.757 -0.4935  0.1489  0.8896
  771MOL0     C 6272   8.117   7.801   9.784  0.6565 -0.4543  0.1929
  771MOL0     C 6273   8.269   7.773   9.788 -0.3447  1.0313  0.5324
  771MOL0     C 6274   8.328   7.701   9.669 -0.2806 -0.4916  0.1585
  771MOL0     C 6275   8.472   7.660   9.675  0.4364 -0.0335  0.2922
  771MOL0     C 6276   8.555   7.788   9.642 -0.2625 -0.0993  0.9383
  771MOL0     N 6277   8.695   7.766   9.681 -0.0993 -0.1800  0.7093
  771MOL0     C 6278   8.799   7.698   9.611  0.9032  0.3868 -0.6723
  771MOL0     C 6279   8.910   7.725   9.677  0.3268  0.1478 -0.5782
  771MOL0     C 6280   9.051   7.698   9.642 -0.7309  0.0358 -0.0643
  771MOL0     C 6281   9.137   7.664   9.765 -0.0945  0.1024 -0.3306
  771MOL0     C 6282   9.283   7.632   9.725  0.0086 -0.1568  0.3177
  771MOL0     C 6283   9.315   7.496   9.657 -0.4880 -0.4149  0.5945
  771MOL0     O 6284   9.441   7.500   9.593  0.2547  0.5856 -0.1044
  771MOL0     C 6285   9.559   7.515   9.656  0.1968 -0.0363  0.0298
  771MOL0     C 6286   9.666   7.582   9.585  1.0000 -0.3355 -0.3230
  771MOL0     C 6287   9.786   7.613   9.644 -0.3637 -0.4496  0.5677
  771MOL0     C 6288   9.879   7.702   9.562  0.6133  0.3804  0.3475
  771MOL0     C 6289   9.818   7.556   9.769  0.0612 -0.1439  0.2024
  771MOL0     C 6290   9.955   7.560   9.831 -0.5154 -0.1874  0.1837
  771MOL0     O 6291   9.972   7.523   9.956 -0.3866  0.3885 -0.4661
  771MOL0     C 6292  10.099   7.506  10.015 -0.0739  0.1137  0.1891
  771MOL0     C 6293  10.160   7.376  10.010  0.1094  0.7605 -0.5417
  771MOL0     C 6294  10.296   7.376  10.050 -0.5395 -0.3686  0.1692
  771MOL0     C 6295  10.367   7.483  10.101  0.1006 -0.0506 -0.9016
  771MOL0     O 6296  10.497   7.451  10.124 -0.6065 -0.4364 -0.3698
  771MOL0     C 6297  10.591   7.549  10.087 -0.0841  0.6525 -0.1404
  771MOL0     C 6298  10.736   7.504  10.107 -0.1241  0.1581  0.5837
  771MOL0     C 6299  10.844   7.613  10.080  0.0233 -0.2357  0.3011
  771MOL0     C 6300  10.983   7.556  10.105 -0.7138  0.4389  0.0793
  771MOL0     C 6301  11.082   7.652  10.036  0.3218  0.3370  0.1788
  771MOL0     C 6302  11.229   7.594  10.035 -0.1123  0.5389 -0.4729
  771MOL0     C 6303  11.337   7.700   9.980 -0.2178 -0.1056 -0.4535
  771MOL0     C 6304  11.486   7.661   9.999  0.7025 -0.5105  0.3182
  771MOL0    Cl 6305  11.549   7.539   9.883 -0.0878  0.6418  0.1283
  771MOL0     C 6306  10.298   7.611  10.115  0.7278  0.8674 -0.3190
  771MOL0     C 6307  10.167   7.619  10.061  0.1067 -0.0602 -0.3340
  771MOL0     O 6308  10.049   7.597   9.760 -0.6383 -0.4336  0.1900
  771MOL0     C 6309   9.720   7.491   9.842 -0.5414 -0.3465  0.0103
  771MOL0     C 6310   9.590   7.484   9.795  0.1188 -0.0130  0.3167
  771MOL0     N 6311   8.875   7.801   9.792  0.1593  0.6353  0.0075
  771MOL0     N 6312   8.751   7.822   9.793 -0.4673 -0.0236  0.7676
  771MOL0     C 6313   7.599   7.824   9.478 -0.0358 -0.6904  0.3285
  771MOL0     C 6314   7.487   7.906   9.449 -0.1251 -0.1164 -0.3448
  771MOL0     C 6315   7.123   8.178   9.568  0.6669  0.3391  1.0742
  771MOL0     C 6316   7.140   8.260   9.453 -0.0628  0.4317  0.8847
  771MOL0     C 6317   7.047   8.350   9.415 -1.5046  0.3415  1.2675
  771MOL0     C 6318   6.929   8.364   9.483 -0.0033  0.1683  0.1769
  771MOL0     O 6319   6.832   8.443   9.417 -0.5645 -0.7364  0.8307
  771MOL0     C 6320   6.697   8.401   9.434 -0.2446 -0.9068 -0.5855
  771MOL0     C 6321   6.617   8.455   9.320 -0.5322 -0.4205 -0.1019
  771MOL0     C 6322   6.469   8.412   9.319 -0.3165 -0.7125  0.2493
  771MOL0     C 6323   6.399   8.436   9.188  0.0465 -0.2032  0.4071
  771MOL0     C 6324   6.261   8.396   9.191  0.1136 -0.1645  0.7974
  771MOL0     C 6325   6.141   8.384   9.197  0.0695  0.1505  0.3293
  771MOL0     C 6326   6.906   8.298   9.598 -0.2243 -0.2701  0.0880
  771MOL0     C 6327   7.004   8.203   9.643  0.1768 -0.0479 -0.3437
  771MOL0     C 6328   6.996   8.148   9.783  0.2231  0.3812  0.7262
  771MOL0     H 6329   7.431   8.013   9.758 -0.5210 -0.3475 -0.2572
  771MOL0     H 6330   7.643   7.882   9.807  1.1359  0.5055 -1.0761
  771MOL0     H 6331   7.824   7.551   9.734  0.2408  0.1510  1.0161
  771MOL0     H 6332   7.704   7.651   9.834  2.3408  0.2062  2.0257
  771MOL0     H 6333   7.873   7.841   9.787 -0.4622 -0.6459  1.4488
  771MOL0     H 6334   7.884   7.738   9.918  1.6130  2.7032  1.1276
  771MOL0     H 6335   8.056   7.593   9.800 -1.0721 -0.7835 -0.5830
  771MOL0     H 6336   8.011   7.673   9.649 -3.5475  0.3896  1.0260
  771MOL0     H 6337   8.109   7.879   9.707  0.8526 -1.1306 -0.5334
  771MOL0     H 6338   8.094   7.856   9.876  0.9051 -1.4018  0.8319
  771MOL0     H 6339   8.283   7.709   9.875  1.3461 -0.0226 -0.4465
  771MOL0     H 6340   8.334   7.860   9.803  1.4143  0.0942 -1.1605
  771MOL0     H 6341   8.272   7.609   9.651 -0.4075 -0.0880 -1.7578
  771MOL0     H 6342   8.312   7.766   9.583 -2.2681  1.6672  2.0074
  771MOL0     H 6343   8.484   7.573   9.610  0.3279 -0.3394  0.6830
  771MOL0     H 6344   8.502   7.630   9.776 -0.1511 -2.2038 -0.1297
  771MOL0     H 6345   8.565   7.800   9.533 -0.0600 -0.6781  0.8943
  771MOL0     H 6346   8.507   7.871   9.696 -0.0790  0.0182  0.9220
  771MOL0     H 6347   8.778   7.655   9.514 -3.0301  3.7301 -1.5665
  771MOL0     H 6348   9.094   7.791   9.603 -1.6928  2.1374  3.4639
  771MOL0     H 6349   9.055   7.633   9.554  2.7102  0.8670 -0.6648
  771MOL0     H 6350   9.141   7.755   9.824  0.4167  0.1037 -0.3596
  771MOL0     H 6351   9.090   7.580   9.817  0.7529 -0.3090 -0.2119
  771MOL0     H 6352   9.308   7.705   9.647  2.1525 -1.4993 -0.3368
  771MOL0     H 6353   9.353   7.647   9.808  1.4455 -2.3589 -0.4026
  771MOL0     H 6354   9.334   7.419   9.733  0.8234 -0.8282 -0.1144
  771MOL0     H 6355   9.236   7.476   9.584 -1.3981 -4.0900  2.3496
  771MOL0     H 6356   9.649   7.598   9.479  0.6449  2.0617  0.0242
  771MOL0     H 6357   9.947   7.643   9.500  1.3176  0.6665  0.8383
  771MOL0     H 6358   9.946   7.772   9.612 -0.9826  1.9210  0.4475
  771MOL0     H 6359   9.821   7.756   9.486 -0.1851  0.0753  0.7263
  771MOL0     H 6360  10.110   7.286   9.978 -1.8675  2.0736 -1.3610
  771MOL0     H 6361  10.362   7.291  10.036  1.3643  0.8693  1.1908
  771MOL0     H 6362  10.566   7.597   9.992 -0.1162  0.5293 -0.1936
  771MOL0     H 6363  10.574   7.627  10.163  0.7535 -1.0348  1.8945
  771MOL0     H 6364  10.749   7.467  10.209 -0.1560  1.4092  1.0523
  771MOL0     H 6365  10.763   7.420  10.042  1.0817  0.6548  0.4193
  771MOL0     H 6366  10.826   7.708  10.131 -2.7930 -1.6830  2.2907
  771MOL0     H 6367  10.835   7.642   9.974 -1.7173  1.3736  0.8195
  771MOL0     H 6368  10.992   7.458  10.056 -0.1663 -0.6554  2.2703
  771MOL0     H 6369  11.001   7.559  10.212  1.6322 -1.4677 -0.1910
  771MOL0     H 6370  11.040   7.675   9.937 -0.5804  2.2495  0.9430
  771MOL0     H 6371  11.068   7.749  10.086  1.1561  0.9648 -0.7790
  771MOL0     H 6372  11.236   7.508   9.968  1.1018 -0.1926  0.5620
  771MOL0     H 6373  11.265   7.559  10.132  4.2979 -1.8983 -2.7083
  771MOL0     H 6374  11.322   7.801  10.021 -0.5639 -1.1497  2.2016
  771MOL0     H 6375  11.327   7.707   9.871  0.6663 -1.1185 -0.6113
  771MOL0     H 6376  11.500   7.624  10.101  2.5217  2.6010  1.3382
  771MOL0     H 6377  11.544   7.754  10.000 -0.8462  0.4828  1.1692
  771MOL0     H 6378  10.355   7.681  10.176  0.1861 -0.4955  1.8639
  771MOL0     H 6379  10.119   7.716  10.064  2.6012  1.2853 -0.7593
  771MOL0     H 6380   9.745   7.458   9.942  0.0932  0.7064  0.2101
  771MOL0     H 6381   9.510   7.442   9.855 -0.4847  1.2904  0.4665
  771MOL0     H 6382   7.657   7.776   9.400  0.5520 -0.6705  0.7513
  771MOL0     H 6383   7.438   7.924   9.353 -2.9082  2.0641  1.3228
  771MOL0     H 6384   7.225   8.230   9.394 -0.7339 -0.0476  0.1369
  771MOL0     H 6385   7.059   8.394   9.317  0.7682 -3.4533 -0.3759
  771MOL0     H 6386   6.690   8.292   9.443 -1.6545 -0.8660 -0.8636
  771MOL0     H 6387   6.659   8.440   9.530 -3.4873  0.3292 -2.2030
  771MOL0     H 6388   6.672   8.418   9.233 -3.4022 -0.1330 -2.1453
  771MOL0     H 6389   6.628   8.564   9.327  0.6858 -0.4595 -1.0694
  771MOL0     H 6390   6.462   8.308   9.352 -1.0500 -0.7275  0.0600
  771MOL0     H 6391   6.417   8.463   9.400 -0.2590 -1.9526  1.0874
  771MOL0     H 6392   6.444   8.377   9.107  3.0023  1.2977  0.8296
  771MOL0     H 6393   6.397   8.543   9.168  1.2633 -0.5621 -2.0042
  771MOL0     H 6394   6.035   8.381   9.189  0.1015  0.3834 -0.3021
  771MOL0     H 6395   6.824   8.317   9.667  1.0973  1.1696  1.3485
  771MOL0     H 6396   6.926   8.208   9.842  0.6138 -0.3954  2.0122
  771MOL0     H 6397   6.955   8.047   9.790 -1.5488  1.1453  2.0418
  771MOL0     H 6398   7.096   8.147   9.829  0.7717 -0.6113 -0.4285
  772MOL0     O 6399   8.847   9.583   2.494  0.2547  0.5336  0.2684
  772MOL0     C 6400   8.821   9.651   2.396  1.1580  0.3290  0.0323
  772MOL0     O 6401   8.906   9.715   2.318 -0.2549 -0.1416 -0.3179
  772MOL0     C 6402   9.043   9.702   2.329 -0.4477 -0.2062  0.3768
  772MOL0     C 6403   9.123   9.780   2.238 -0.5583 -0.2897 -0.7514
  772MOL0     C 6404   9.262   9.787   2.243  0.2461  0.5002  0.1385
  772MOL0     C 6405   9.331   9.703   2.332 -0.8660 -0.0343  0.0428
  772MOL0     O 6406   9.469   9.710   2.329 -0.9956 -0.5892  0.0354
  772MOL0     C 6407   9.536   9.639   2.432 -0.7445 -0.2725  0.1073
  772MOL0     C 6408   9.693   9.646   2.420 -0.2183 -0.0421 -0.0479
  772MOL0     C 6409   9.748   9.590   2.283  0.4451 -0.5579 -0.4607
  772MOL0     C 6410   9.903   9.574   2.282  0.0756  0.4864 -0.5213
  772MOL0     C 6411   9.950   9.469   2.182  0.3671  0.5447  0.5925
  772MOL0     C 6412   9.929   9.522   2.034 -0.1901 -0.0442  0.3132
  772MOL0     C 6413   9.967   9.415   1.919 -0.5162 -0.1223  0.6309
  772MOL0     C 6414  10.114   9.391   1.901  0.0742  0.6211 -0.3555
  772MOL0     N 6415  10.188   9.508   1.866 -0.6345  0.8152  0.3298
  772MOL0     C 6416  10.170   9.558   1.733 -0.4115  0.2473  0.3128
  772MOL0     C 6417  10.289   9.618   1.704 -0.0886 -0.0929 -0.9451
  772MOL0     C 6418  10.339   9.665   1.570 -0.3569  0.3041  0.3644
  772MOL0     C 6419  10.348   9.553   1.474  0.6506  0.5448 -0.0828
  772MOL0     C 6420  10.442   9.444   1.538 -0.0338  0.1328  0.4298
  772MOL0     C 6421  10.481   9.343   1.432  0.0240  0.2855 -0.5065
  772MOL0     O 6422  10.521   9.404   1.306  0.0895 -0.4274 -0.2986
  772MOL0     C 6423  10.639   9.468   1.292  0.5534  0.4656 -0.2352
  772MOL0     C 6424  10.637   9.565   1.195  0.4619 -0.5947  0.0095
  772MOL0     C 6425  10.761   9.627   1.158 -0.1821  0.3713  0.8084
  772MOL0     C 6426  10.765   9.730   1.052  0.3130  0.4385  0.0151
  772MOL0     C 6427  10.879   9.580   1.226  0.2816  0.4425 -0.2484
  772MOL0     C 6428  11.012   9.625   1.182  0.3790 -0.5811 -0.6694
  772MOL0     O 6429  11.102   9.622   1.290 -0.5211  0.5552  0.5500
  772MOL0     C 6430  11.226   9.671   1.259 -0.3528  0.0776 -0.7384
  772MOL0     C 6431  11.329   9.589   1.327 -0.2829 -0.7650  0.1103
  772MOL0     C 6432  11.466   9.629   1.325 -0.3128 -0.5248  0.0814
  772MOL0     C 6433  11.492   9.749   1.272  0.0603 -0.9814  0.3745
  772MOL0     O 6434  11.622   9.814   1.260  0.0588  0.7919 -0.1732
  772MOL0     C 6435  11.731   9.730   1.282 -0.0267 -0.0687  0.0001
  772MOL0     C 6436  11.869   9.788   1.265  0.0870 -0.7191 -0.3784
  772MOL0     C 6437  11.912   9.800   1.117 -0.7995  0.1375 -0.7070
  772MOL0     C 6438  12.052   9.854   1.103 -0.0319 -0.3019 -0.3701
  772MOL0     C 6439  12.077  10.005   1.068 -0.0561 -0.0082  0.4329
  772MOL0     C 6440  12.043  10.099   1.194  0.7530  1.3649 -0.3878
  772MOL0     C 6441  12.058  10.240   1.151 -0.8115  0.5119 -0.3188
  772MOL0     C 6442  12.198  10.282   1.127 -0.1269  0.3559 -0.3961
  772MOL0    Cl 6443  12.307  10.263   1.275 -0.0203 -0.0561 -0.1525
  772MOL0     C 6444  11.394   9.821   1.203 -0.3237  0.9817 -0.5963
  772MOL0     C 6445  11.259   9.792   1.203  0.1440  0.6527 -0.1681
  772MOL0     O 6446  11.038   9.648   1.065  0.0225 -0.1976  0.7573
  772MOL0     C 6447  10.871   9.492   1.332 -0.5554  1.1883 -0.0259
  772MOL0     C 6448  10.756   9.432   1.372  0.8032  0.4538  0.2638
  772MOL0     N 6449  10.364   9.617   1.823  0.2219  0.3637  0.0019
  772MOL0     N 6450  10.308   9.544   1.917  0.2412 -0.4345  0.2836
  772MOL0     C 6451   9.254   9.625   2.419  0.1865  0.0976 -0.2546
  772MOL0     C 6452   9.113   9.621   2.418 -0.7671 -0.2680 -0.1866
  772MOL0     C 6453   8.668   9.672   2.381  0.8576  0.5258  0.1609
  772MOL0     C 6454   8.572   9.592   2.459 -0.3424  0.9132  1.1014
  772MOL0     C 6455   8.438   9.593   2.426 -0.6276 -0.2763 -0.8157
  772MOL0     C 6456   8.385   9.674   2.330  0.1836 -0.5376  0.5826
  772MOL0     O 6457   8.253   9.660   2.286  0.0735 -0.4307 -0.3581
  772MOL0     C 6458   8.151   9.667   2.388 -0.7105 -0.2091  0.2365
  772MOL0     C 6459   8.019   9.652   2.321 -0.1548  0.1877 -0.6796
  772MOL0     C 6460   7.915   9.701   2.422 -0.1332  0.0908 -0.0516
  772MOL0     C 6461   7.777   9.708   2.380 -0.0407  0.1733 -0.1113
  772MOL0     C 6462   7.764   9.768   2.247  1.0388 -0.3296 -0.8562
  772MOL0     C 6463   7.740   9.818   2.140  0.0151  0.8610  0.6005
  772MOL0     C 6464   8.474   9.760   2.270  0.0472  0.1940  0.4504
  772MOL0     C 6465   8.615   9.762   2.288  0.2267 -0.2005  0.3814
  772MOL0     C 6466   8.688   9.862   2.204  0.3671  0.9013  0.3284
  772MOL0     H 6467   9.068   9.849   2.175 -1.1816  0.3680  0.4833
  772MOL0     H 6468   9.308   9.854   2.170  1.8009  0.9746  1.4799
  772MOL0     H 6469   9.510   9.534   2.448  0.6262 -0.5460  0.7578
  772MOL0     H 6470   9.524   9.697   2.524  0.8735  0.2256  0.0469
  772MOL0     H 6471   9.723   9.747   2.448  2.7977 -0.8826  0.1358
  772MOL0     H 6472   9.726   9.584   2.504 -1.7748 -0.2757  0.4340
  772MOL0     H 6473   9.699   9.493   2.268 -0.7748 -0.0947  0.4128
  772MOL0     H 6474   9.709   9.654   2.203 -1.9730  2.1974  2.6521
  772MOL0     H 6475   9.948   9.672   2.260 -2.1809  1.8139  0.4308
  772MOL0     H 6476   9.933   9.550   2.384  1.4017  4.6212  0.2707
  772MOL0     H 6477   9.890   9.379   2.193  0.2675  0.8705  3.2357
  772MOL0     H 6478  10.058   9.456   2.195  0.1504  0.4711  2.5094
  772MOL0     H 6479   9.826   9.558   2.021  0.6657  1.6320 -2.5353
  772MOL0     H 6480   9.988   9.610   2.009  1.1937 -0.3553  2.2648
  772MOL0     H 6481   9.922   9.453   1.827 -1.4977 -0.9902  0.7332
  772MOL0     H 6482   9.915   9.320   1.939  0.6651 -1.0919 -0.7154
  772MOL0     H 6483  10.150   9.357   1.999 -0.6024 -2.4438 -1.0646
  772MOL0     H 6484  10.125   9.305   1.835 -1.6113  1.0970 -1.3257
  772MOL0     H 6485  10.099   9.530   1.656  0.1534 -0.1482 -0.0716
  772MOL0     H 6486  10.438   9.706   1.589  0.3124 -1.4523  0.8720
  772MOL0     H 6487  10.283   9.747   1.525 -0.2251  0.0043 -0.3694
  772MOL0     H 6488  10.253   9.510   1.443  1.0789 -0.5491  0.0675
  772MOL0     H 6489  10.398   9.596   1.387  2.6496  0.2468  0.8572
  772MOL0     H 6490  10.534   9.493   1.571  0.0819  0.3866 -0.2422
  772MOL0     H 6491  10.389   9.402   1.623  1.5119  0.3567  1.5536
  772MOL0     H 6492  10.560   9.278   1.471  0.3890  0.7379 -0.4716
  772MOL0     H 6493  10.397   9.276   1.414  0.0335  0.3740 -0.8802
  772MOL0     H 6494  10.544   9.597   1.149  1.2605  2.1381  0.0985
  772MOL0     H 6495  10.814   9.691   0.962  1.9047  1.4455  0.3873
  772MOL0     H 6496  10.819   9.820   1.086  0.6039  0.3960 -0.3294
  772MOL0     H 6497  10.662   9.759   1.033  0.4678  1.4056  0.5299
  772MOL0     H 6498  11.312   9.503   1.391  0.3922 -0.5401  0.6094
  772MOL0     H 6499  11.549   9.572   1.365 -0.8106 -3.2835 -2.4792
  772MOL0     H 6500  11.734   9.692   1.385  2.1272 -1.2037 -0.4204
  772MOL0     H 6501  11.720   9.639   1.221  0.2177  0.4085 -0.7627
  772MOL0     H 6502  11.878   9.884   1.315 -0.5177  0.0793 -1.7462
  772MOL0     H 6503  11.940   9.716   1.309  0.5852 -0.3470 -0.5595
  772MOL0     H 6504  11.850   9.874   1.066 -0.9764 -0.1426 -0.9018
  772MOL0     H 6505  11.900   9.705   1.065  2.0579 -0.6174 -0.1665
  772MOL0     H 6506  12.099   9.789   1.028  1.7426 -1.4339  1.6203
  772MOL0     H 6507  12.110   9.829   1.192 -0.2083  0.4453 -0.0392
  772MOL0     H 6508  12.183  10.013   1.045 -0.2931 -0.6128 -0.9578
  772MOL0     H 6509  12.007  10.024   0.986 -1.8136 -2.3915  1.2719
  772MOL0     H 6510  12.113  10.076   1.275  0.3445 -0.2893 -0.4625
  772MOL0     H 6511  11.939  10.084   1.224  0.9996  0.4738  0.0665
  772MOL0     H 6512  12.015  10.308   1.225 -0.0465  0.7297 -0.0613
  772MOL0     H 6513  12.003  10.260   1.058  1.5691  2.3600 -1.4664
  772MOL0     H 6514  12.181  10.385   1.095 -1.2056  0.3464  0.1108
  772MOL0     H 6515  12.243  10.236   1.038 -0.0709 -1.0604  0.3254
  772MOL0     H 6516  11.414   9.925   1.180 -0.4835  1.8689  2.7891
  772MOL0     H 6517  11.188   9.865   1.166 -0.7175 -0.4299 -0.6656
  772MOL0     H 6518  10.962   9.466   1.386 -0.0049  1.4643 -0.8087
  772MOL0     H 6519  10.760   9.355   1.449  2.2970  0.0939 -0.1546
  772MOL0     H 6520   9.297   9.562   2.496 -1.0031 -1.1305 -0.5571
  772MOL0     H 6521   9.069   9.554   2.491  0.9365  0.1322  1.2821
  772MOL0     H 6522   8.605   9.522   2.535 -2.3136  1.7277  2.7826
  772MOL0     H 6523   8.381   9.506   2.459  1.6757 -1.0790  1.4312
  772MOL0     H 6524   8.161   9.584   2.458 -0.6664 -2.2987 -2.0820
  772MOL0     H 6525   8.165   9.761   2.441 -2.2938  0.2487 -0.1332
  772MOL0     H 6526   8.004   9.546   2.295  3.8417 -0.8571  0.5445
  772MOL0     H 6527   8.018   9.708   2.226 -1.2116  2.1101  0.4120
  772MOL0     H 6528   7.909   9.640   2.512 -0.8615 -0.6449 -0.5755
  772MOL0     H 6529   7.935   9.800   2.462 -1.2105 -0.4902  2.0894
  772MOL0     H 6530   7.719   9.750   2.463 -1.0392 -1.5202  0.1010
  772MOL0     H 6531   7.734   9.608   2.373  0.7910 -0.1227 -1.3242
  772MOL0     H 6532   7.706   9.864   2.049 -4.3731 -3.1909 -0.2219
  772MOL0     H 6533   8.433   9.830   2.199  0.8305  0.8675  0.6343
  772MOL0     H 6534   8.772   9.901   2.261  1.5405  1.6476 -1.7865
  772MOL0     H 6535   8.732   9.822   2.112 -0.4067 -0.5460  0.5715
  772MOL0     H 6536   8.626   9.950   2.181  0.9772  1.2665  0.0446
  773MOL0     O 6537  11.321  10.821   5.868 -0.0932  0.0565 -0.4868
  773MOL0     C 6538  11.327  10.943   5.870  0.3893  0.2223  0.0619
  773MOL0     O 6539  11.432  11.019   5.926 -0.6159  0.4391  0.1505
  773MOL0     C 6540  11.527  10.963   5.998 -0.3411 -0.2930  0.4805
  773MOL0     C 6541  11.534  10.828   6.046  0.2635  0.1214  0.3042
  773MOL0     C 6542  11.651  10.781   6.108 -0.1115  0.4423 -0.3087
  773MOL0     C 6543  11.764  10.860   6.122  0.0257 -0.3883 -0.5529
  773MOL0     O 6544  11.879  10.811   6.181  0.2741  0.6764 -0.3737
  773MOL0     C 6545  11.990  10.897   6.203 -0.0542  0.0058 -0.3232
  773MOL0     C 6546  12.092  10.839   6.305  0.5671  0.4381  0.6063
  773MOL0     C 6547  12.129  10.691   6.289 -0.2128  0.2858 -0.3910
  773MOL0     C 6548  12.196  10.659   6.151  0.2723  0.9235 -0.1034
  773MOL0     C 6549  12.324  10.577   6.171 -0.3269 -0.0248 -0.1882
  773MOL0     C 6550  12.436  10.644   6.253 -0.0893 -0.5286 -0.2573
  773MOL0     C 6551  12.521  10.532   6.313  0.6424 -0.4422  0.1076
  773MOL0     C 6552  12.598  10.591   6.431 -1.3147 -0.1869  1.1515
  773MOL0     N 6553  12.684  10.505   6.514 -0.0692  0.2564  0.0208
  773MOL0     C 6554  12.774  10.419   6.459 -0.4804 -0.1736  0.0889
  773MOL0     C 6555  12.844  10.357   6.557 -0.1873  0.4131 -0.8233
  773MOL0     C 6556  12.954  10.256   6.560  0.1594 -0.2981  0.3883
  773MOL0     C 6557  13.087  10.333   6.572  0.2371  0.4229 -1.1601
  773MOL0     C 6558  13.187  10.226   6.543  0.2514  0.3996 -0.2122
  773MOL0     C 6559  13.333  10.266   6.593  1.0593 -0.6029  0.3063
  773MOL0     O 6560  13.380  10.394   6.543 -0.1144  0.4761  0.1129
  773MOL0     C 6561  13.516  10.410   6.542  0.5658  0.4626  0.5518
  773MOL0     C 6562  13.563  10.482   6.433 -0.8486  0.0901  0.8710
  773MOL0     C 6563  13.694  10.499   6.400 -0.7002 -0.5934 -0.3701
  773MOL0     C 6564  13.732  10.576   6.273 -0.0466 -0.2291 -0.0813
  773MOL0     C 6565  13.789  10.453   6.491 -1.5100  0.7175  0.3001
  773MOL0     C 6566  13.937  10.488   6.481 -0.7507 -0.4075 -0.1138
  773MOL0     O 6567  13.987  10.553   6.375  0.1239 -0.3728 -0.3100
  773MOL0     C 6568  14.121  10.549   6.346  0.4450  0.7673 -0.6904
  773MOL0     C 6569  14.183  10.431   6.310 -0.4695  0.2612  0.6173
  773MOL0     C 6570  14.315  10.438   6.269  0.6048  0.3573 -1.2294
  773MOL0     C 6571  14.390  10.554   6.266 -0.5850  0.1726 -0.1803
  773MOL0     O 6572  14.525  10.563   6.235  0.0347  0.0806  0.7873
  773MOL0     C 6573  14.595  10.438   6.242  0.4069 -0.2300  0.6843
  773MOL0     C 6574  14.744  10.449   6.217  0.5767 -0.0104  0.0198
  773MOL0     C 6575  14.815  10.568   6.280 -0.6813  1.0695  0.2276
  773MOL0     C 6576  14.784  10.587   6.430 -0.7699 -0.1163 -0.3480
  773MOL0     C 6577  14.853  10.717   6.481  1.0420 -0.3446  0.1079
  773MOL0     C 6578  14.983  10.696   6.571  0.3209 -0.1806  1.0180
  773MOL0     C 6579  15.013  10.817   6.657  0.2296  0.4368  0.2626
  773MOL0     C 6580  15.086  10.933   6.585  0.4168  0.6626 -0.6037
  773MOL0    Cl 6581  15.096  11.072   6.701  0.5101 -0.0005  0.1482
  773MOL0     C 6582  14.324  10.672   6.302  0.8784  0.5282  0.9671
  773MOL0     C 6583  14.189  10.670   6.342 -0.4961 -0.0222  0.9237
  773MOL0     O 6584  14.006  10.457   6.575  0.8870  0.0228  0.0002
  773MOL0     C 6585  13.746  10.373   6.596 -0.3427  0.6547 -0.1229
  773MOL0     C 6586  13.613  10.343   6.621  0.0159 -0.6491  0.0650
  773MOL0     N 6587  12.796  10.420   6.673 -0.0191 -0.5335  0.2645
  773MOL0     N 6588  12.701  10.511   6.649 -0.6007  0.2141 -0.1368
  773MOL0     C 6589  11.757  10.989   6.076 -0.0588 -0.4873 -0.0152
  773MOL0     C 6590  11.647  11.044   6.016  0.5947 -0.5399 -0.4588
  773MOL0     C 6591  11.208  11.018   5.803 -0.0481  0.5424 -0.0475
  773MOL0     C 6592  11.225  11.153   5.789  0.1023 -0.3194  1.0362
  773MOL0     C 6593  11.126  11.235   5.737 -0.1681 -0.0844  0.1621
  773MOL0     C 6594  11.002  11.180   5.707 -0.2892 -0.4488 -0.0884
  773MOL0     O 6595  10.897  11.257   5.665 -0.1440  0.4663  0.1712
  773MOL0     C 6596  10.921  11.400   5.657  0.0792 -0.3890 -0.9812
  773MOL0     C 6597  10.786  11.478   5.632 -0.0038  0.1383 -0.4623
  773MOL0     C 6598  10.695  11.454   5.751  1.0364  0.0402 -0.4372
  773MOL0     C 6599  10.569  11.548   5.727  1.1912 -0.5444  0.5739
  773MOL0     C 6600  10.469  11.488   5.635  0.5009  0.2595 -0.2979
  773MOL0     C 6601  10.381  11.449   5.557  0.0685 -0.0972 -0.6044
  773MOL0     C 6602  10.981  11.047   5.722 -0.1114  0.4694  0.2567
  773MOL0     C 6603  11.087  10.963   5.766 -0.9794  0.2371 -0.2956
  773MOL0     C 6604  11.059  10.814   5.765 -0.2915 -0.2793  0.6426
  773MOL0     H 6605  11.453  10.756   6.038  0.8272 -0.3142 -2.4076
  773MOL0     H 6606  11.661  10.680   6.145 -0.1729 -0.0759 -1.6594
  773MOL0     H 6607  11.953  10.987   6.254 -1.1896  0.5790 -2.0721
  773MOL0     H 6608  12.027  10.927   6.105 -4.0012  2.7188 -1.2411
  773MOL0     H 6609  12.182  10.900   6.305  1.4396 -0.7434 -1.3239
  773MOL0     H 6610  12.047  10.853   6.404 -1.4689  0.8688 -0.3234
  773MOL0     H 6611  12.188  10.657   6.375 -0.6248 -3.3185 -1.3792
  773MOL0     H 6612  12.038  10.629   6.297  1.2965 -1.8267  1.9903
  773MOL0     H 6613  12.116  10.611   6.095 -0.1744 -1.9097  2.6749
  773MOL0     H 6614  12.206  10.760   6.109  1.9719  1.8410  2.3063
  773MOL0     H 6615  12.367  10.538   6.078 -4.2468  1.9100 -3.0824
  773MOL0     H 6616  12.288  10.490   6.226 -1.8698  1.1207  0.6954
  773MOL0     H 6617  12.490  10.706   6.180 -0.8932  0.3523 -0.1262
  773MOL0     H 6618  12.409  10.704   6.340  3.9915  0.5999  0.4490
  773MOL0     H 6619  12.578  10.483   6.234 -1.6786  0.3560 -2.1871
  773MOL0     H 6620  12.454  10.456   6.354 -0.6127  1.0662  0.9907
  773MOL0     H 6621  12.659  10.670   6.386 -0.9268 -2.2951 -2.3549
  773MOL0     H 6622  12.530  10.640   6.501 -0.1897  0.9396  1.4797
  773MOL0     H 6623  12.794  10.391   6.356  2.3080  1.8083 -0.0134
  773MOL0     H 6624  12.949  10.194   6.470  6.0939 -0.4887 -0.1766
  773MOL0     H 6625  12.932  10.193   6.647  1.6584  0.2811  1.2347
  773MOL0     H 6626  13.097  10.418   6.504 -0.3080  2.0351  0.6723
  773MOL0     H 6627  13.101  10.366   6.676 -1.1172  1.0615 -1.1608
  773MOL0     H 6628  13.162  10.127   6.582 -2.0936 -0.4347 -3.4653
  773MOL0     H 6629  13.200  10.208   6.436 -0.6054 -1.7083  0.0088
  773MOL0     H 6630  13.323  10.268   6.701  1.7525 -1.0046  0.3820
  773MOL0     H 6631  13.398  10.182   6.570 -0.1609 -1.1038 -1.6287
  773MOL0     H 6632  13.493  10.513   6.356  0.6958  1.9205  0.1230
  773MOL0     H 6633  13.765  10.680   6.287  1.8928 -0.7120 -0.8746
  773MOL0     H 6634  13.640  10.581   6.214  0.7111  0.4419 -1.2367
  773MOL0     H 6635  13.810  10.532   6.212  1.6120 -0.9098  2.3884
  773MOL0     H 6636  14.130  10.337   6.317  0.6004 -0.2803  1.9225
  773MOL0     H 6637  14.358  10.340   6.250 -0.8566 -0.1074 -2.3030
  773MOL0     H 6638  14.591  10.397   6.344 -2.9847 -2.2211 -0.1178
  773MOL0     H 6639  14.560  10.364   6.170  2.5503  1.1102 -1.8879
  773MOL0     H 6640  14.788  10.351   6.235 -1.4716 -0.7877  1.1399
  773MOL0     H 6641  14.757  10.468   6.110  0.7697  0.2938  0.0955
  773MOL0     H 6642  14.780  10.658   6.229 -1.1838 -0.0123 -1.4160
  773MOL0     H 6643  14.921  10.567   6.251 -1.2175 -0.9346 -1.9367
  773MOL0     H 6644  14.825  10.504   6.488  0.1993  1.9513  2.0785
  773MOL0     H 6645  14.676  10.590   6.451 -0.7893 -3.7838  0.8059
  773MOL0     H 6646  14.880  10.787   6.401 -2.1132  0.8288 -0.0800
  773MOL0     H 6647  14.782  10.774   6.541 -0.7535 -2.6935  0.3633
  773MOL0     H 6648  15.065  10.672   6.503  0.2576  0.5722  0.6671
  773MOL0     H 6649  14.966  10.605   6.630 -2.3699 -1.2571 -1.1895
  773MOL0     H 6650  15.085  10.785   6.734  2.5008  2.7010 -0.7822
  773MOL0     H 6651  14.922  10.859   6.702  0.7346  1.7210  0.1422
  773MOL0     H 6652  15.027  10.968   6.500  0.6228  2.3100 -0.1184
  773MOL0     H 6653  15.188  10.904   6.558  0.7305  2.6789 -1.7764
  773MOL0     H 6654  14.385  10.761   6.314  3.3904 -0.9104 -0.3253
  773MOL0     H 6655  14.153  10.763   6.384  1.3802  1.0197  0.3221
  773MOL0     H 6656  13.818  10.335   6.668 -0.3357 -2.2629 -1.4969
  773MOL0     H 6657  13.583  10.261   6.686 -2.3546  0.0929  0.0131
  773MOL0     H 6658  11.848  11.048   6.073 -1.2977  1.5012 -0.5517
  773MOL0     H 6659  11.655  11.145   5.978  2.4809  0.8364  3.0780
  773MOL0     H 6660  11.320  11.200   5.814  0.2285 -0.9937  1.8605
  773MOL0     H 6661  11.151  11.337   5.711  1.7861 -1.3488 -3.6858
  773MOL0     H 6662  10.962  11.443   5.749  1.2795  1.2790 -2.2275
  773MOL0     H 6663  10.989  11.428   5.576  2.7259  1.5184  1.6661
  773MOL0     H 6664  10.734  11.430   5.549  1.1425 -1.0287 -0.5412
  773MOL0     H 6665  10.813  11.582   5.613 -1.6191  0.1903 -2.9388
  773MOL0     H 6666  10.663  11.351   5.772  1.7469  0.2844  2.2051
  773MOL0     H 6667  10.744  11.475   5.846  0.8480 -0.5263 -0.2100
  773MOL0     H 6668  10.619  11.636   5.686  0.9921 -0.6781  0.0377
  773MOL0     H 6669  10.519  11.561   5.824 -0.2095 -0.1960 -0.1611
  773MOL0     H 6670  10.299  11.426   5.492 -2.4685  0.7351  2.0395
  773MOL0     H 6671  10.881  11.010   5.704  0.3216 -2.8379  3.3549
  773MOL0     H 6672  10.959  10.791   5.727  0.0125 -1.4089  0.4660
  773MOL0     H 6673  11.130  10.772   5.692  2.2464 -1.4728  3.5585
  773MOL0     H 6674  11.079  10.768   5.863  0.1723  3.2939  2.3637
  774MOL0     O 6675   9.210   4.718   1.200 -0.1652  0.0503 -0.3544
  774MOL0     C 6676   9.200   4.838   1.219 -0.6193 -0.4360  0.3872
  774MOL0     O 6677   9.314   4.919   1.256  0.0436 -0.0821  0.4738
  774MOL0     C 6678   9.433   4.858   1.276 -0.0127 -0.2524 -0.0058
  774MOL0     C 6679   9.487   4.883   1.403 -0.9821  0.7936 -0.2485
  774MOL0     C 6680   9.609   4.825   1.427  0.5390  0.3160 -0.1600
  774MOL0     C 6681   9.679   4.754   1.323  0.3834  0.8165 -0.5218
  774MOL0     O 6682   9.786   4.683   1.354  0.2477  0.1987 -0.3755
  774MOL0     C 6683   9.781   4.573   1.444 -0.4220 -0.1065 -0.7480
  774MOL0     C 6684   9.881   4.470   1.424  0.3472 -0.0290  0.0375
  774MOL0     C 6685   9.944   4.415   1.559  0.3530  0.3926  0.3914
  774MOL0     C 6686  10.066   4.322   1.526 -0.5911 -0.0280  0.7629
  774MOL0     C 6687  10.150   4.287   1.651  0.5124 -0.5031 -0.3514
  774MOL0     C 6688  10.090   4.161   1.724  0.1810  0.2220  0.9211
  774MOL0     C 6689  10.197   4.104   1.813 -0.3789  0.3482 -0.5333
  774MOL0     C 6690  10.213   4.183   1.944 -0.3214  0.2023 -0.4417
  774MOL0     N 6691  10.353   4.215   1.966  0.0456  0.0592 -0.4106
  774MOL0     C 6692  10.438   4.286   1.887  0.2746 -0.4575 -0.6634
  774MOL0     C 6693  10.554   4.273   1.951  0.3502 -0.4598 -0.1123
  774MOL0     C 6694  10.686   4.332   1.917  0.6382 -0.0530  0.4766
  774MOL0     C 6695  10.762   4.259   1.812 -1.0299 -0.5335 -0.1199
  774MOL0     C 6696  10.892   4.320   1.755 -0.2052 -0.2927 -0.3632
  774MOL0     C 6697  11.009   4.309   1.855 -0.1114  0.4590 -0.2898
  774MOL0     O 6698  11.018   4.173   1.893  0.3630  0.1041 -0.2070
  774MOL0     C 6699  11.142   4.134   1.930 -0.3166  0.7873  0.2992
  774MOL0     C 6700  11.243   4.200   2.004 -0.7187  0.2227  0.3461
  774MOL0     C 6701  11.366   4.139   2.034  0.9514  0.4288  0.3265
  774MOL0     C 6702  11.467   4.224   2.105  0.2064  1.0370 -0.4196
  774MOL0     C 6703  11.386   4.002   2.004  0.2054  0.2788  0.0860
  774MOL0     C 6704  11.509   3.931   2.042  0.4159 -1.3669 -0.5304
  774MOL0     O 6705  11.489   3.813   2.099  0.2725  0.0465 -0.1399
  774MOL0     C 6706  11.586   3.746   2.166 -0.5046 -0.8562 -0.4375
  774MOL0     C 6707  11.717   3.716   2.113  0.4101  0.1059  0.3284
  774MOL0     C 6708  11.811   3.649   2.193 -0.0539 -0.3194  0.9305
  774MOL0     C 6709  11.775   3.604   2.321 -0.3666  0.7583  0.6391
  774MOL0     O 6710  11.873   3.563   2.407  0.1418  0.0678 -0.4634
  774MOL0     C 6711  12.012   3.579   2.371  0.9511  0.1239  0.4516
  774MOL0     C 6712  12.107   3.534   2.483 -0.0866  0.3281  0.2061
  774MOL0     C 6713  12.120   3.388   2.501 -0.4715  0.7641  0.7172
  774MOL0     C 6714  12.180   3.355   2.644 -0.3721 -0.7965 -0.2194
  774MOL0     C 6715  12.140   3.208   2.683  0.0765 -0.6798 -0.5195
  774MOL0     C 6716  12.189   3.099   2.594 -0.2424  0.0448  0.3604
  774MOL0     C 6717  12.179   2.962   2.661 -0.2190  0.3931  0.1161
  774MOL0     C 6718  12.219   2.857   2.554  0.4234  0.1230 -0.0712
  774MOL0    Cl 6719  12.366   2.889   2.447  0.0301  0.1249  0.0892
  774MOL0     C 6720  11.647   3.637   2.371  0.6708  1.0691  0.9979
  774MOL0     C 6721  11.552   3.705   2.290 -0.1267  1.1345 -0.5112
  774MOL0     O 6722  11.618   3.983   2.018 -0.3964  0.3705  0.4776
  774MOL0     C 6723  11.282   3.933   1.945 -0.7453  0.3654  0.4863
  774MOL0     C 6724  11.167   3.995   1.901  0.5567  0.1901 -0.4523
  774MOL0     N 6725  10.539   4.210   2.072  0.4345  0.2884  0.5458
  774MOL0     N 6726  10.418   4.174   2.081  0.6218  0.3989  0.3344
  774MOL0     C 6727   9.625   4.740   1.196 -0.0937  0.2984 -0.1557
  774MOL0     C 6728   9.502   4.791   1.173  0.5830  0.6874 -0.8670
  774MOL0     C 6729   9.072   4.915   1.229  0.1254  1.5338 -0.6262
  774MOL0     C 6730   9.064   5.033   1.290  0.7235 -0.1318 -0.5185
  774MOL0     C 6731   8.942   5.098   1.306 -0.4922 -0.4359  0.4808
  774MOL0     C 6732   8.827   5.058   1.248  0.4119 -0.2010 -0.3008
  774MOL0     O 6733   8.707   5.121   1.248 -0.1639  0.1097 -0.4737
  774MOL0     C 6734   8.681   5.197   1.365  0.5308 -0.3215  0.0035
  774MOL0     C 6735   8.534   5.179   1.420 -0.0906  0.8292 -0.3146
  774MOL0     C 6736   8.423   5.253   1.340  0.0741  0.5322  0.1510
  774MOL0     C 6737   8.284   5.220   1.407  0.0912  0.4645  0.4523
  774MOL0     C 6738   8.174   5.290   1.334 -0.0983  0.1375  0.9975
  774MOL0     C 6739   8.079   5.344   1.269 -0.5440  0.5681  0.1956
  774MOL0     C 6740   8.830   4.931   1.183 -0.5275  0.1500  0.3741
  774MOL0     C 6741   8.949   4.858   1.179 -0.4124 -0.5019 -0.6594
  774MOL0     C 6742   8.932   4.717   1.111 -0.1943 -0.0851  0.6572
  774MOL0     H 6743   9.419   4.932   1.471 -0.8095  1.0459 -0.2575
  774MOL0     H 6744   9.652   4.836   1.526 -2.4238  1.8187  1.0749
  774MOL0     H 6745   9.683   4.523   1.443  0.3458 -1.6924  0.1146
  774MOL0     H 6746   9.800   4.633   1.534  2.8786  1.7601 -2.5205
  774MOL0     H 6747   9.829   4.389   1.372 -0.9939  1.9116 -1.8475
  774MOL0     H 6748   9.960   4.501   1.355 -1.7487  0.3606 -2.3328
  774MOL0     H 6749   9.975   4.503   1.617  1.8571  0.2435 -0.1453
  774MOL0     H 6750   9.881   4.351   1.620  2.0242  0.6559  2.5070
  774MOL0     H 6751  10.021   4.230   1.489 -4.1271  1.5564  0.7109
  774MOL0     H 6752  10.122   4.372   1.447  0.4522  1.7706  2.5308
  774MOL0     H 6753  10.165   4.361   1.730  1.8071 -1.1329  0.0062
  774MOL0     H 6754  10.250   4.260   1.616  2.0270  1.7462  1.9308
  774MOL0     H 6755   9.992   4.182   1.768  0.1627 -1.9156  1.9987
  774MOL0     H 6756  10.064   4.076   1.660  2.1301 -0.3326  0.8248
  774MOL0     H 6757  10.291   4.094   1.758 -0.3142  3.0874 -1.0553
  774MOL0     H 6758  10.172   4.000   1.838 -0.7475  0.7471  0.8178
  774MOL0     H 6759  10.159   4.278   1.945 -1.0640 -0.2121  1.2050
  774MOL0     H 6760  10.181   4.126   2.031  1.6385 -1.1696 -0.5598
  774MOL0     H 6761  10.416   4.343   1.797  0.7575 -0.4890 -0.8052
  774MOL0     H 6762  10.744   4.334   2.010 -0.3669 -0.0750  1.1206
  774MOL0     H 6763  10.667   4.435   1.887 -0.8351 -0.7280 -1.1243
  774MOL0     H 6764  10.794   4.161   1.849  4.4537  1.2676  0.8524
  774MOL0     H 6765  10.701   4.243   1.722  0.6160 -0.3230 -1.3183
  774MOL0     H 6766  10.920   4.263   1.666 -1.3013 -3.1514  0.9876
  774MOL0     H 6767  10.881   4.427   1.733  1.7289  0.2694  1.1099
  774MOL0     H 6768  11.104   4.344   1.813  0.2841  0.1811  0.3541
  774MOL0     H 6769  10.982   4.369   1.942  1.7455 -0.9702  1.3931
  774MOL0     H 6770  11.226   4.305   2.022 -1.6637  0.5140 -1.9544
  774MOL0     H 6771  11.418   4.314   2.143 -0.9400  0.4906 -0.5566
  774MOL0     H 6772  11.555   4.246   2.043  1.4712 -1.3665  0.3864
  774MOL0     H 6773  11.506   4.165   2.189 -2.8124 -0.2754  0.1888
  774MOL0     H 6774  11.745   3.752   2.015 -0.0494  0.3424  0.2826
  774MOL0     H 6775  11.905   3.638   2.141 -0.4123 -0.1646  0.2290
  774MOL0     H 6776  12.045   3.518   2.287  0.4477  0.0253  0.3226
  774MOL0     H 6777  12.029   3.685   2.347  0.0112  0.4753  1.2597
  774MOL0     H 6778  12.210   3.565   2.460  0.3659 -1.3411 -0.1330
  774MOL0     H 6779  12.073   3.593   2.569  1.8668  1.7986  0.0635
  774MOL0     H 6780  12.176   3.346   2.417 -0.7581 -0.8240  1.2838
  774MOL0     H 6781  12.018   3.352   2.489 -1.0940  2.5693  0.2143
  774MOL0     H 6782  12.138   3.425   2.717  1.2705  1.8013 -1.5838
  774MOL0     H 6783  12.289   3.365   2.646 -0.5248  1.2344  0.3329
  774MOL0     H 6784  12.203   3.191   2.771 -0.3420 -1.2105 -0.3217
  774MOL0     H 6785  12.033   3.197   2.707  0.0071  2.0311  0.8895
  774MOL0     H 6786  12.287   3.127   2.555 -0.0916  0.1858  0.8245
  774MOL0     H 6787  12.121   3.097   2.508  1.4351  1.4332 -1.0614
  774MOL0     H 6788  12.077   2.943   2.695 -0.0200  0.9628  1.0729
  774MOL0     H 6789  12.247   2.956   2.746  0.3174  1.0949 -0.2533
  774MOL0     H 6790  12.134   2.835   2.489  0.2091 -1.0101  0.5670
  774MOL0     H 6791  12.238   2.758   2.596 -1.1705 -0.5577 -0.8305
  774MOL0     H 6792  11.615   3.596   2.467  0.2710 -0.7116  0.1461
  774MOL0     H 6793  11.452   3.705   2.330  0.0255 -0.6848 -0.0616
  774MOL0     H 6794  11.296   3.830   1.915  2.6238  0.6362  0.7278
  774MOL0     H 6795  11.080   3.949   1.857 -0.0805 -2.0450  2.8072
  774MOL0     H 6796   9.684   4.689   1.121  1.9329 -0.3686  1.7657
  774MOL0     H 6797   9.449   4.792   1.078  0.1531 -3.6207 -0.8938
  774MOL0     H 6798   9.148   5.080   1.341 -0.1000 -0.4320  1.1860
  774MOL0     H 6799   8.938   5.194   1.357  0.0330  0.8679 -1.7997
  774MOL0     H 6800   8.752   5.167   1.443  0.7237 -2.4558 -0.9240
  774MOL0     H 6801   8.691   5.305   1.351  0.3681  0.2658  3.5581
  774MOL0     H 6802   8.532   5.217   1.522 -0.6969  1.0529 -0.3996
  774MOL0     H 6803   8.510   5.072   1.414 -1.8677  1.1829 -0.0529
  774MOL0     H 6804   8.437   5.361   1.333 -0.4775  0.8771  2.9483
  774MOL0     H 6805   8.429   5.200   1.244 -2.4064 -1.5041  0.9888
  774MOL0     H 6806   8.301   5.244   1.513  4.2917  3.1723 -0.5917
  774MOL0     H 6807   8.265   5.113   1.397  2.0203  0.1782 -0.5756
  774MOL0     H 6808   7.989   5.377   1.220 -2.6500 -2.0227  1.9849
  774MOL0     H 6809   8.742   4.885   1.140 -0.2106 -1.1021  1.0139
  774MOL0     H 6810   8.943   4.636   1.183  0.0687 -2.6151 -2.0052
  774MOL0     H 6811   8.830   4.706   1.073  0.7935 -1.0976 -1.9363
  774MOL0     H 6812   8.993   4.702   1.021 -2.2140 -1.6348 -0.5476
  775MOL0     O 6813   7.267   8.661  10.583  0.0315  0.2424  0.4819
  775MOL0     C 6814   7.318   8.694  10.471  0.0576  0.0929  0.1906
  775MOL0     O 6815   7.410   8.798  10.443 -0.5054  0.8151 -0.1084
  775MOL0     C 6816   7.425   8.904  10.530 -0.2890  0.8555 -0.1123
  775MOL0     C 6817   7.538   8.986  10.512 -0.0455  0.1766 -0.3321
  775MOL0     C 6818   7.567   9.098  10.590 -0.7870 -0.2372 -1.2673
  775MOL0     C 6819   7.475   9.133  10.695 -0.6311 -0.4261  0.2114
  775MOL0     O 6820   7.497   9.235  10.791  0.1188  0.2691  0.6698
  775MOL0     C 6821   7.613   9.318  10.787 -0.3107  0.0190 -0.1066
  775MOL0     C 6822   7.556   9.456  10.799 -0.1252 -0.6170 -0.1152
  775MOL0     C 6823   7.460   9.462  10.921  0.6409  0.5994 -0.8206
  775MOL0     C 6824   7.429   9.616  10.939  0.4813  0.6843 -0.4987
  775MOL0     C 6825   7.348   9.648  11.068  1.2248  0.4840 -0.1341
  775MOL0     C 6826   7.295   9.798  11.067 -0.5740 -0.4210  0.0463
  775MOL0     C 6827   7.177   9.800  10.962  0.7552 -0.1716  0.1380
  775MOL0     C 6828   7.081   9.926  10.977 -0.7242  0.3531 -0.0413
  775MOL0     N 6829   7.155  10.048  10.968  0.5588  0.2021  0.4502
  775MOL0     C 6830   7.224  10.095  10.861  0.0860 -0.3640  0.2135
  775MOL0     C 6831   7.289  10.204  10.914  0.3829 -0.1413 -0.2637
  775MOL0     C 6832   7.377  10.294  10.833  0.1034  0.6190  0.3515
  775MOL0     C 6833   7.526  10.281  10.881  0.6398 -0.8030 -0.5382
  775MOL0     C 6834   7.608  10.349  10.775  0.0899 -0.2731 -0.4136
  775MOL0     C 6835   7.753  10.312  10.784  0.1333 -0.2002 -0.8139
  775MOL0     O 6836   7.779  10.168  10.807  0.0061 -0.0331 -0.2786
  775MOL0     C 6837   7.913  10.130  10.806 -0.3135 -0.4146 -0.0316
  775MOL0     C 6838   7.933   9.998  10.812 -0.2666 -0.3723  0.5581
  775MOL0     C 6839   8.061   9.938  10.826 -0.3108 -0.5202 -0.0909
  775MOL0     C 6840   8.059   9.785  10.831  0.6801 -0.0511  0.2765
  775MOL0     C 6841   8.176  10.021  10.828  1.0238 -0.3620 -1.0311
  775MOL0     C 6842   8.316   9.974  10.841  0.3120  0.1088 -0.0001
  775MOL0     O 6843   8.350   9.864  10.772 -0.2817 -0.2545 -0.1400
  775MOL0     C 6844   8.471   9.797  10.788 -0.1540 -0.1701  0.1339
  775MOL0     C 6845   8.586   9.829  10.871  0.4684 -0.2136  0.2326
  775MOL0     C 6846   8.693   9.746  10.888 -0.4741  0.7456  0.2016
  775MOL0     C 6847   8.700   9.629  10.819  0.0206 -0.0551  0.5344
  775MOL0     O 6848   8.807   9.549  10.840  0.2771 -1.0189  0.3779
  775MOL0     C 6849   8.832   9.424  10.772 -0.1611 -0.5051 -0.1386
  775MOL0     C 6850   8.981   9.406  10.802 -0.3608 -0.0150 -0.4447
  775MOL0     C 6851   9.065   9.490  10.703  0.3336 -0.4706  0.3407
  775MOL0     C 6852   9.174   9.548  10.783 -0.6524  0.1362 -0.4744
  775MOL0     C 6853   9.271   9.620  10.682  0.6609 -0.3873 -0.8689
  775MOL0     C 6854   9.386   9.680  10.778 -1.1192  0.2854 -0.0229
  775MOL0     C 6855   9.487   9.569  10.809  0.4257  0.1824 -0.1799
  775MOL0     C 6856   9.627   9.600  10.761  0.5874  0.3068  0.1128
  775MOL0    Cl 6857   9.628   9.598  10.586  0.1445  0.2086  0.2729
  775MOL0     C 6858   8.592   9.591  10.736 -0.1715 -0.1284 -1.0306
  775MOL0     C 6859   8.475   9.670  10.724  0.0051  0.1858 -0.0875
  775MOL0     O 6860   8.388  10.042  10.907  0.2199  0.3170  0.3550
  775MOL0     C 6861   8.152  10.161  10.829 -0.5863  0.1493 -0.0313
  775MOL0     C 6862   8.024  10.215  10.822  0.6855  0.4486  0.1480
  775MOL0     N 6863   7.252  10.220  11.046 -0.2526 -0.0200 -0.1651
  775MOL0     N 6864   7.158  10.134  11.076 -0.5261 -0.1461 -0.0196
  775MOL0     C 6865   7.353   9.059  10.702  0.2117 -0.1149 -0.2314
  775MOL0     C 6866   7.335   8.940  10.629 -0.3467 -0.0683 -0.3660
  775MOL0     C 6867   7.290   8.608  10.347  0.5123 -0.1862  0.5979
  775MOL0     C 6868   7.348   8.650  10.223 -1.1752  0.1264 -0.4338
  775MOL0     C 6869   7.350   8.572  10.109 -0.2467  0.4726  0.5054
  775MOL0     C 6870   7.263   8.462  10.100 -0.2747  0.1876 -0.2199
  775MOL0     O 6871   7.234   8.388   9.990  0.2129  0.1956  0.7240
  775MOL0     C 6872   7.264   8.452   9.866  0.4350 -0.5574  0.7132
  775MOL0     C 6873   7.399   8.390   9.826  0.1838 -0.2891  0.5659
  775MOL0     C 6874   7.416   8.428   9.681  0.3806 -0.8499  0.5646
  775MOL0     C 6875   7.555   8.373   9.625  0.6398  0.1940  0.3806
  775MOL0     C 6876   7.677   8.429   9.683 -0.8008 -0.7016  0.2957
  775MOL0     C 6877   7.774   8.479   9.737  0.1314  0.0741  0.5290
  775MOL0     C 6878   7.195   8.420  10.211 -0.1682  0.2276 -0.0073
  775MOL0     C 6879   7.221   8.481  10.337  0.5420 -0.5236 -0.0079
  775MOL0     C 6880   7.148   8.419  10.453  0.2440 -0.1990 -0.0972
  775MOL0     H 6881   7.601   8.953  10.430  1.8027  1.0217  0.6829
  775MOL0     H 6882   7.656   9.157  10.573 -0.4735 -0.7704 -1.5114
  775MOL0     H 6883   7.674   9.323  10.696  0.8916  1.8854  0.7350
  775MOL0     H 6884   7.688   9.289  10.861  0.2807 -1.2678 -1.1652
  775MOL0     H 6885   7.635   9.532  10.799  0.2812 -1.0317  0.3951
  775MOL0     H 6886   7.501   9.470  10.706 -1.0296  0.8056  0.6028
  775MOL0     H 6887   7.366   9.408  10.907  2.3794 -2.6077 -0.9655
  775MOL0     H 6888   7.504   9.418  11.011 -0.0420  0.0647 -0.7397
  775MOL0     H 6889   7.518   9.679  10.941 -0.2364  1.7984  3.0984
  775MOL0     H 6890   7.360   9.645  10.859 -0.4100 -1.7127 -0.7054
  775MOL0     H 6891   7.406   9.624  11.157 -2.6372  0.6295  2.6541
  775MOL0     H 6892   7.263   9.579  11.078  2.0793 -0.4696  0.7544
  775MOL0     H 6893   7.263   9.822  11.169 -2.6632  0.6488 -0.8191
  775MOL0     H 6894   7.379   9.862  11.038 -1.4555  0.2158 -1.1296
  775MOL0     H 6895   7.115   9.711  10.973  2.6365 -1.5460  0.0974
  775MOL0     H 6896   7.227   9.803  10.864 -0.8228 -0.0601 -0.7051
  775MOL0     H 6897   6.994   9.926  10.911 -2.1405 -0.8537  1.7658
  775MOL0     H 6898   7.053   9.919  11.082 -0.2676  1.4310  0.1689
  775MOL0     H 6899   7.227  10.055  10.760  3.2290  0.1769 -0.0077
  775MOL0     H 6900   7.340  10.396  10.847 -0.7432  0.1173  1.9123
  775MOL0     H 6901   7.377  10.259  10.729 -0.3846 -3.2093  1.5192
  775MOL0     H 6902   7.546  10.334  10.974  0.6789 -1.5096 -0.1384
  775MOL0     H 6903   7.543  10.175  10.902 -2.4176 -1.0764  1.0854
  775MOL0     H 6904   7.575  10.326  10.673 -0.1425  2.6569 -1.1012
  775MOL0     H 6905   7.591  10.457  10.789 -0.2711 -0.2907 -0.6864
  775MOL0     H 6906   7.814  10.344  10.698  0.2308  0.2349 -0.5853
  775MOL0     H 6907   7.796  10.367  10.868 -2.6166 -0.4183  0.8521
  775MOL0     H 6908   7.852   9.927  10.804 -0.7895  0.3541 -1.0696
  775MOL0     H 6909   8.156   9.749  10.868  1.1301  0.5176 -0.3260
  775MOL0     H 6910   8.045   9.750  10.728 -1.8515  0.7400  0.2961
  775MOL0     H 6911   7.980   9.738  10.891  0.6056 -0.9026 -0.4552
  775MOL0     H 6912   8.574   9.929  10.914 -4.5776 -0.6561  0.4168
  775MOL0     H 6913   8.776   9.770  10.954  0.7756 -0.1910 -0.9831
  775MOL0     H 6914   8.773   9.347  10.820 -0.2195 -0.5489 -0.2805
  775MOL0     H 6915   8.821   9.418  10.663 -0.2632  0.4685 -0.1940
  775MOL0     H 6916   8.992   9.438  10.906 -0.6933  2.7286 -1.1632
  775MOL0     H 6917   9.002   9.299  10.798 -0.2058 -0.0115  0.1085
  775MOL0     H 6918   9.009   9.582  10.683  0.6375 -0.1967  0.7396
  775MOL0     H 6919   9.097   9.432  10.616 -0.6031  0.2768 -0.5324
  775MOL0     H 6920   9.223   9.462  10.831 -1.4273 -0.0253  0.0526
  775MOL0     H 6921   9.131   9.617  10.856 -0.8232 -0.8479  0.3910
  775MOL0     H 6922   9.310   9.564  10.596 -1.3455 -1.1929 -1.3137
  775MOL0     H 6923   9.212   9.701  10.637  1.8562  0.9888 -0.0484
  775MOL0     H 6924   9.345   9.708  10.876  0.1009  1.9051  0.0533
  775MOL0     H 6925   9.423   9.774  10.735  2.1528 -0.2889  1.2358
  775MOL0     H 6926   9.450   9.475  10.766  2.5504 -1.1266  0.6986
  775MOL0     H 6927   9.491   9.552  10.917 -0.5934 -1.4558 -0.3698
  775MOL0     H 6928   9.693   9.522  10.800 -0.0980 -0.0830  0.5325
  775MOL0     H 6929   9.668   9.694  10.799  1.0241  0.7438 -1.3717
  775MOL0     H 6930   8.606   9.498  10.682  0.2951  0.0356 -1.1948
  775MOL0     H 6931   8.385   9.634  10.674 -2.3533  1.3649  2.9379
  775MOL0     H 6932   8.239  10.223  10.814  0.4012 -1.2083 -0.1404
  775MOL0     H 6933   8.017  10.324  10.829 -0.5467  0.3083  1.5353
  775MOL0     H 6934   7.282   9.100  10.772 -3.7001  0.5454 -4.1381
  775MOL0     H 6935   7.240   8.891  10.647 -1.7598  2.8240  0.7615
  775MOL0     H 6936   7.383   8.752  10.215  0.1256 -0.4279 -4.0294
  775MOL0     H 6937   7.400   8.601  10.017 -2.8554 -1.5560 -1.7313
  775MOL0     H 6938   7.190   8.426   9.789 -2.2263  0.3456  2.8223
  775MOL0     H 6939   7.269   8.561   9.868 -2.2641 -0.3539 -0.1432
  775MOL0     H 6940   7.395   8.281   9.826  1.9611 -0.5051 -2.8665
  775MOL0     H 6941   7.476   8.423   9.896 -1.0700 -1.2346  2.4632
  775MOL0     H 6942   7.325   8.397   9.628  1.3419 -1.5119 -0.7581
  775MOL0     H 6943   7.414   8.537   9.671  2.7478 -0.8366 -0.6598
  775MOL0     H 6944   7.575   8.385   9.518  2.3606  1.6051  0.8154
  775MOL0     H 6945   7.550   8.264   9.629 -1.1046  0.1667 -1.1295
  775MOL0     H 6946   7.850   8.539   9.783  0.6275  1.8872 -2.3924
  775MOL0     H 6947   7.128   8.335  10.200  0.7221 -0.3868 -0.7448
  775MOL0     H 6948   7.056   8.473  10.482 -0.2372 -0.5963 -0.8655
  775MOL0     H 6949   7.126   8.314  10.435  1.1161 -0.6793  1.4703
  775MOL0     H 6950   7.213   8.421  10.541  0.4045 -1.4038 -0.1814
  776MOL0     O 6951   5.996   0.685   0.844 -0.8210  0.7898  0.6330
  776MOL0     C 6952   5.948   0.578   0.855  0.5315  0.2001 -1.0579
  776MOL0     O 6953   6.022   0.464   0.853  0.2004 -0.0210 -0.0230
  776MOL0     C 6954   6.160   0.452   0.828 -0.0117 -0.1738 -0.0591
  776MOL0     C 6955   6.222   0.324   0.828  0.6411  0.0898 -0.4622
  776MOL0     C 6956   6.353   0.309   0.793 -0.1202 -0.3051  0.4051
  776MOL0     C 6957   6.428   0.417   0.757 -0.4011 -0.3019  1.1784
  776MOL0     O 6958   6.562   0.395   0.715  0.7363  0.0935 -0.5662
  776MOL0     C 6959   6.663   0.385   0.818  1.0019 -0.4470  0.5570
  776MOL0     C 6960   6.725   0.520   0.856  0.4899 -0.3519  0.2405
  776MOL0     C 6961   6.851   0.492   0.947 -0.6103 -0.0599  0.1363
  776MOL0     C 6962   6.910   0.623   1.004  0.9224  0.7280  0.3833
  776MOL0     C 6963   7.035   0.597   1.087 -0.1411 -0.7511 -0.3832
  776MOL0     C 6964   7.078   0.737   1.138 -0.0959 -0.8139  0.7965
  776MOL0     C 6965   7.235   0.722   1.166 -0.1352  0.3314  0.4165
  776MOL0     C 6966   7.250   0.657   1.301  0.0863 -0.0156  0.3272
  776MOL0     N 6967   7.384   0.693   1.365  0.2995  0.2851 -0.8564
  776MOL0     C 6968   7.514   0.700   1.311  0.4604  0.4550 -0.4920
  776MOL0     C 6969   7.594   0.727   1.416 -0.0254  0.1514 -0.3990
  776MOL0     C 6970   7.745   0.746   1.400 -0.2436  0.0906  0.0167
  776MOL0     C 6971   7.801   0.824   1.516 -0.2141  1.1061 -0.1386
  776MOL0     C 6972   7.960   0.809   1.515  0.8888 -0.3197 -0.8373
  776MOL0     C 6973   8.016   0.902   1.612  0.1518  0.3357  0.3227
  776MOL0     O 6974   7.983   1.031   1.574  0.0364 -0.2444 -0.3692
  776MOL0     C 6975   8.081   1.124   1.609  0.5403 -0.6770 -0.6685
  776MOL0     C 6976   8.065   1.250   1.547 -0.2752 -0.8684  0.3679
  776MOL0     C 6977   8.138   1.361   1.575  0.5513 -0.4621 -0.9050
  776MOL0     C 6978   8.108   1.494   1.503  0.4603  0.3364 -0.7273
  776MOL0     C 6979   8.247   1.344   1.668 -0.5851  0.0655 -0.3619
  776MOL0     C 6980   8.347   1.458   1.705  0.2153  0.2612  0.1221
  776MOL0     O 6981   8.444   1.410   1.796 -0.2246  0.3848 -0.1606
  776MOL0     C 6982   8.544   1.495   1.819 -0.8972 -0.0962 -0.0734
  776MOL0     C 6983   8.667   1.486   1.751  0.3299 -0.1392  0.5905
  776MOL0     C 6984   8.775   1.578   1.773 -0.8117  0.4072  0.1971
  776MOL0     C 6985   8.756   1.683   1.872 -0.2739  0.6599 -0.3159
  776MOL0     O 6986   8.870   1.763   1.896  0.5549  0.0612 -0.4407
  776MOL0     C 6987   8.853   1.875   1.987 -0.6743 -0.1365  0.3017
  776MOL0     C 6988   8.988   1.941   2.015  0.2795 -0.2596 -0.0658
  776MOL0     C 6989   8.959   2.068   2.101  0.5982  0.0109  0.5837
  776MOL0     C 6990   9.078   2.130   2.165  1.1787 -0.0887 -0.0204
  776MOL0     C 6991   9.052   2.252   2.254  0.8427 -0.8767  0.4105
  776MOL0     C 6992   9.176   2.297   2.334 -0.2636 -0.3931  0.6023
  776MOL0     C 6993   9.139   2.420   2.412  0.0770  0.6563 -0.5769
  776MOL0     C 6994   9.247   2.471   2.498  0.1512 -0.6284  0.5755
  776MOL0    Cl 6995   9.386   2.523   2.408 -0.0004 -0.0285 -0.0048
  776MOL0     C 6996   8.634   1.685   1.940  1.0234 -1.2134 -0.2930
  776MOL0     C 6997   8.528   1.599   1.916 -0.2022 -0.1181  0.0908
  776MOL0     O 6998   8.343   1.575   1.661  0.4172  0.3694  0.2438
  776MOL0     C 6999   8.268   1.222   1.738  1.1900  0.0722 -0.1876
  776MOL0     C 7000   8.178   1.120   1.711 -0.3840 -0.5073  0.7007
  776MOL0     N 7001   7.515   0.752   1.530  0.4090  0.7123 -0.2949
  776MOL0     N 7002   7.390   0.716   1.501  0.4707  0.0198  0.1908
  776MOL0     C 7003   6.377   0.547   0.753  0.2901 -0.8552  0.2804
  776MOL0     C 7004   6.246   0.566   0.803  0.6774 -0.7176 -0.3126
  776MOL0     C 7005   5.799   0.570   0.869 -0.5385 -0.0206  0.4182
  776MOL0     C 7006   5.744   0.446   0.900 -0.0088 -0.1897 -0.8133
  776MOL0     C 7007   5.601   0.426   0.907 -0.5909 -0.3357  0.6226
  776MOL0     C 7008   5.524   0.537   0.890  0.0725  0.3107  0.2777
  776MOL0     O 7009   5.386   0.541   0.909 -0.8486  0.0283 -0.7590
  776MOL0     C 7010   5.304   0.423   0.917  0.3070  0.0155 -0.2420
  776MOL0     C 7011   5.155   0.455   0.949 -0.3670  0.1240  1.0112
  776MOL0     C 7012   5.111   0.555   0.832 -0.6679 -0.0848  0.6626
  776MOL0     C 7013   4.953   0.574   0.858 -0.0682 -0.0454  0.4172
  776MOL0     C 7014   4.893   0.663   0.756 -0.4400 -0.1367 -0.3682
  776MOL0     C 7015   4.847   0.728   0.668  0.5547  0.2216  0.4369
  776MOL0     C 7016   5.579   0.660   0.861  0.0121  0.0314  0.0786
  776MOL0     C 7017   5.715   0.678   0.849  0.0515 -0.4268 -0.6029
  776MOL0     C 7018   5.758   0.824   0.809 -0.0892 -0.1312 -0.1001
  776MOL0     H 7019   6.167   0.233   0.847  2.5063 -1.3597 -1.6921
  776MOL0     H 7020   6.399   0.211   0.783 -1.8056 -0.9702 -1.5885
  776MOL0     H 7021   6.735   0.311   0.783  0.3706 -1.7570  1.9386
  776MOL0     H 7022   6.618   0.334   0.904 -0.3973  0.5557  0.4495
  776MOL0     H 7023   6.746   0.575   0.763  0.0356 -1.1016 -0.3168
  776MOL0     H 7024   6.652   0.579   0.911 -0.0120 -0.8086  0.0712
  776MOL0     H 7025   6.817   0.428   1.029  0.4387 -0.8029  0.0241
  776MOL0     H 7026   6.931   0.439   0.893 -1.2358  2.2614 -3.4154
  776MOL0     H 7027   6.930   0.690   0.920 -0.0628  1.2317  0.5415
  776MOL0     H 7028   6.832   0.664   1.069  1.0644 -0.7199  1.5377
  776MOL0     H 7029   7.114   0.558   1.022 -1.4276 -0.9452 -1.9119
  776MOL0     H 7030   7.009   0.533   1.172 -2.4097  0.3415 -0.1728
  776MOL0     H 7031   7.059   0.819   1.069 -1.8517  0.9331  3.2163
  776MOL0     H 7032   7.030   0.772   1.229 -0.2239 -1.0753  0.8305
  776MOL0     H 7033   7.292   0.815   1.166 -0.9348  0.8613  2.2917
  776MOL0     H 7034   7.268   0.661   1.081 -0.5640 -2.5150  2.1484
  776MOL0     H 7035   7.170   0.680   1.372  1.2471 -2.0946  2.4406
  776MOL0     H 7036   7.232   0.555   1.266 -1.2226  1.4048 -3.7528
  776MOL0     H 7037   7.532   0.664   1.210  1.6338  1.4739 -0.6714
  776MOL0     H 7038   7.759   0.784   1.299 -2.5923 -0.1532 -0.4709
  776MOL0     H 7039   7.778   0.641   1.402 -2.2592 -0.5917  0.7379
  776MOL0     H 7040   7.770   0.929   1.510 -1.6779  0.7042  0.1163
  776MOL0     H 7041   7.763   0.782   1.610  1.4364 -1.2087 -0.4288
  776MOL0     H 7042   7.980   0.707   1.548  0.3954 -0.3597 -0.6605
  776MOL0     H 7043   8.000   0.835   1.416  0.9024 -1.0910 -1.0394
  776MOL0     H 7044   7.970   0.870   1.706  1.0085 -0.9343  0.3332
  776MOL0     H 7045   8.122   0.885   1.633 -0.0909 -2.1333 -0.1460
  776MOL0     H 7046   7.988   1.268   1.473  2.3728  1.1619 -2.1463
  776MOL0     H 7047   8.050   1.563   1.565 -0.5853 -0.1342 -1.1564
  776MOL0     H 7048   8.054   1.470   1.411  1.0955 -0.4514 -0.9135
  776MOL0     H 7049   8.202   1.535   1.464  0.3476  0.5751 -0.7474
  776MOL0     H 7050   8.665   1.416   1.668  0.2296 -0.8271  1.1702
  776MOL0     H 7051   8.868   1.576   1.716  1.0001  2.9817  2.7934
  776MOL0     H 7052   8.776   1.939   1.942 -2.7910 -1.3514  2.0064
  776MOL0     H 7053   8.818   1.842   2.085  1.7068  1.3447  1.7316
  776MOL0     H 7054   9.054   1.869   2.065  1.4026  1.3842  0.9153
  776MOL0     H 7055   9.035   1.986   1.927  2.7775 -1.1633  0.7174
  776MOL0     H 7056   8.867   2.062   2.160 -0.4057  4.1618 -0.2063
  776MOL0     H 7057   8.921   2.147   2.036 -2.9113  1.5536  4.0801
  776MOL0     H 7058   9.150   2.154   2.086  4.8809 -0.2725  3.0115
  776MOL0     H 7059   9.131   2.057   2.227  2.3659  2.2291  1.8969
  776MOL0     H 7060   9.018   2.333   2.189  1.0491 -0.5377  0.7251
  776MOL0     H 7061   8.976   2.218   2.325 -1.7087 -0.7612 -2.0613
  776MOL0     H 7062   9.255   2.321   2.262 -1.4883 -1.8714 -1.3221
  776MOL0     H 7063   9.202   2.213   2.400 -1.5681 -0.6134  0.8652
  776MOL0     H 7064   9.052   2.398   2.474  1.5123  1.4499  1.8366
  776MOL0     H 7065   9.114   2.508   2.351 -2.3692  0.1615 -0.3901
  776MOL0     H 7066   9.277   2.393   2.568  1.8230 -0.3708  0.1908
  776MOL0     H 7067   9.204   2.560   2.546  0.1509  0.6016 -1.5632
  776MOL0     H 7068   8.611   1.765   2.011  1.4631 -1.4089  0.0747
  776MOL0     H 7069   8.426   1.614   1.950  0.0057  3.5734 -0.5312
  776MOL0     H 7070   8.334   1.209   1.823  2.5343 -1.7611 -1.4272
  776MOL0     H 7071   8.171   1.030   1.772 -1.6071 -0.9728 -0.1023
  776MOL0     H 7072   6.424   0.634   0.708  0.8625 -0.4226  1.6672
  776MOL0     H 7073   6.207   0.666   0.790  1.4175 -0.4774 -0.7185
  776MOL0     H 7074   5.812   0.362   0.914 -0.3312 -0.3359 -0.0403
  776MOL0     H 7075   5.559   0.327   0.923 -2.8437  0.8597  2.7864
  776MOL0     H 7076   5.308   0.360   0.828 -1.7269 -1.0874  0.3927
  776MOL0     H 7077   5.348   0.363   0.996 -1.8122 -1.1187  0.1509
  776MOL0     H 7078   5.147   0.511   1.043 -0.0370  1.7845  0.0703
  776MOL0     H 7079   5.091   0.367   0.937 -3.3084  2.2715 -0.2403
  776MOL0     H 7080   5.176   0.643   0.834 -0.7005 -0.0522  0.3302
  776MOL0     H 7081   5.126   0.522   0.728 -0.3292  0.0341  0.6696
  776MOL0     H 7082   4.940   0.612   0.960  1.3101 -0.2369  0.6857
  776MOL0     H 7083   4.900   0.478   0.856  1.9136 -1.2392  1.5446
  776MOL0     H 7084   4.815   0.772   0.576 -1.8139  1.6136  1.8194
  776MOL0     H 7085   5.502   0.736   0.851  0.3688  0.5265  1.0113
  776MOL0     H 7086   5.845   0.864   0.861  0.2457 -0.6436 -0.2567
  776MOL0     H 7087   5.780   0.832   0.702  0.2316  2.6040  0.1096
  776MOL0     H 7088   5.682   0.897   0.838 -0.0245 -0.1577  0.1300
  777MOL0     O 7089   0.433   6.881   1.999 -0.5970 -0.5264  0.1608
  777MOL0     C 7090   0.398   6.997   1.990 -0.8047  0.4591 -0.2041
  777MOL0     O 7091   0.456   7.090   1.918  0.2768  0.5365 -0.5427
  777MOL0     C 7092   0.567   7.092   1.838 -0.3298 -0.2795  0.1282
  777MOL0     C 7093   0.585   7.213   1.775  0.9415 -0.7209  0.4165
  777MOL0     C 7094   0.685   7.226   1.678  0.2985  0.1412 -0.9352
  777MOL0     C 7095   0.781   7.124   1.655  0.7318  0.7207  1.0883
  777MOL0     O 7096   0.876   7.133   1.559 -0.3268  0.8054 -0.3578
  777MOL0     C 7097   0.889   7.254   1.495  0.0537 -0.0493 -0.3783
  777MOL0     C 7098   0.994   7.236   1.383 -0.2737 -0.1593  0.1040
  777MOL0     C 7099   1.035   7.371   1.323  0.6597 -0.5997  0.3174
  777MOL0     C 7100   1.188   7.375   1.309  0.4584  0.8475 -0.1727
  777MOL0     C 7101   1.234   7.478   1.203  0.5128 -0.3069  0.3580
  777MOL0     C 7102   1.374   7.512   1.207 -0.1900  0.3296  0.2639
  777MOL0     C 7103   1.429   7.569   1.341 -0.2356 -0.9182 -0.5785
  777MOL0     C 7104   1.345   7.688   1.384  0.3312  0.2068 -0.6641
  777MOL0     N 7105   1.413   7.777   1.487 -0.1438  0.0257 -0.3881
  777MOL0     C 7106   1.441   7.743   1.617 -0.0018 -0.0095 -0.6797
  777MOL0     C 7107   1.535   7.819   1.664  0.4188 -1.0163 -0.0176
  777MOL0     C 7108   1.585   7.805   1.807  0.2332  0.4528  0.4733
  777MOL0     C 7109   1.719   7.728   1.801  0.4707  0.2091  0.1086
  777MOL0     C 7110   1.847   7.808   1.766  0.7325  0.2315 -0.6502
  777MOL0     C 7111   1.973   7.721   1.770  0.2031 -0.1554 -0.6586
  777MOL0     O 7112   2.091   7.800   1.750  0.5827 -0.3142 -0.3197
  777MOL0     C 7113   2.211   7.744   1.737  0.6344  0.8301  0.0928
  777MOL0     C 7114   2.310   7.801   1.667 -0.2993  0.8102  0.3538
  777MOL0     C 7115   2.434   7.751   1.642  1.1383 -0.7020 -0.2122
  777MOL0     C 7116   2.524   7.844   1.566  0.7123 -0.1591 -0.2833
  777MOL0     C 7117   2.465   7.624   1.699  0.3130  1.4838 -0.3170
  777MOL0     C 7118   2.592   7.561   1.669 -0.5958 -0.2319  0.5527
  777MOL0     O 7119   2.646   7.488   1.769  0.2640 -0.3881  0.2300
  777MOL0     C 7120   2.777   7.451   1.781  0.0768 -1.4086 -0.6026
  777MOL0     C 7121   2.834   7.474   1.904  0.7675  0.2143 -0.0614
  777MOL0     C 7122   2.963   7.429   1.930  0.2766  0.6818 -0.3659
  777MOL0     C 7123   3.038   7.367   1.823  0.3143 -0.1687 -0.2836
  777MOL0     O 7124   3.164   7.323   1.845 -0.3454 -0.0692  0.3452
  777MOL0     C 7125   3.243   7.373   1.949  0.6090  0.4664 -0.0900
  777MOL0     C 7126   3.389   7.350   1.914  0.0590  0.3980 -0.5036
  777MOL0     C 7127   3.467   7.446   2.000 -0.5312  0.3748  0.0161
  777MOL0     C 7128   3.617   7.433   1.973  1.1810  0.2288 -0.0394
  777MOL0     C 7129   3.701   7.509   2.077 -1.1868  0.3296 -0.8444
  777MOL0     C 7130   3.841   7.466   2.049 -0.4470  0.5756  0.6938
  777MOL0     C 7131   3.931   7.532   2.151 -0.2549  0.0314 -0.0409
  777MOL0     C 7132   4.081   7.491   2.140  0.1004 -0.2731  0.8651
  777MOL0    Cl 7133   4.093   7.334   2.238  1.1870  0.0883  0.3039
  777MOL0     C 7134   2.971   7.338   1.701 -0.2300 -0.1406 -0.1861
  777MOL0     C 7135   2.841   7.383   1.675  0.4462 -0.1177 -0.2496
  777MOL0     O 7136   2.635   7.568   1.552  0.4173 -0.6382 -0.4515
  777MOL0     C 7137   2.374   7.564   1.795  0.5935 -0.1695  0.4033
  777MOL0     C 7138   2.246   7.630   1.813 -0.4636  0.8565 -0.9332
  777MOL0     N 7139   1.552   7.922   1.572 -0.0427 -0.4282  0.4822
  777MOL0     N 7140   1.477   7.890   1.467 -0.3214 -0.3807 -0.5710
  777MOL0     C 7141   0.775   7.008   1.733  0.1635 -0.1427  0.6948
  777MOL0     C 7142   0.662   6.992   1.816 -0.2603 -0.3325 -0.6892
  777MOL0     C 7143   0.276   7.040   2.053 -0.3077 -0.0396 -0.2189
  777MOL0     C 7144   0.255   6.989   2.182 -0.2469 -0.6034 -0.2453
  777MOL0     C 7145   0.137   7.022   2.245 -0.0241  0.8329  0.1720
  777MOL0     C 7146   0.043   7.106   2.192  0.3481 -0.2525  0.5410
  777MOL0     O 7147  -0.085   7.112   2.244  0.2312 -0.0972  0.3282
  777MOL0     C 7148  -0.152   7.235   2.263  0.5986  0.0662 -0.1871
  777MOL0     C 7149  -0.090   7.308   2.392  0.0353  0.3065  1.2339
  777MOL0     C 7150   0.053   7.357   2.377  0.4144  0.0451  0.4324
  777MOL0     C 7151   0.085   7.449   2.488  0.0955 -0.0400 -1.0697
  777MOL0     C 7152   0.224   7.483   2.476 -0.1363  0.1244 -1.1222
  777MOL0     C 7153   0.338   7.510   2.458 -0.0125  0.6094  0.3829
  777MOL0     C 7154   0.061   7.157   2.063 -0.2172 -0.1960  0.1567
  777MOL0     C 7155   0.176   7.125   1.989  0.0574 -0.0445 -0.1945
  777MOL0     C 7156   0.185   7.171   1.846 -0.3285 -0.0961 -0.3727
  777MOL0     H 7157   0.512   7.293   1.779  0.9828 -0.7149  1.2348
  777MOL0     H 7158   0.687   7.320   1.624  2.0248  1.6852  1.6133
  777MOL0     H 7159   0.930   7.329   1.564  1.1854 -1.9553  1.1306
  777MOL0     H 7160   0.800   7.292   1.444  0.6518 -0.2227 -1.5961
  777MOL0     H 7161   1.076   7.176   1.423 -0.0962 -1.3650 -1.9288
  777MOL0     H 7162   0.962   7.174   1.298  0.7113 -0.2807 -0.1987
  777MOL0     H 7163   0.980   7.401   1.234 -1.1355  1.0523  1.8725
  777MOL0     H 7164   1.019   7.454   1.393 -4.6393 -2.6143  2.0163
  777MOL0     H 7165   1.226   7.402   1.407 -0.9943  0.0195  0.6623
  777MOL0     H 7166   1.232   7.278   1.285 -1.0669 -0.0779  0.5995
  777MOL0     H 7167   1.178   7.572   1.212  1.9265  0.6517 -0.5163
  777MOL0     H 7168   1.210   7.430   1.108 -1.9624 -0.6544  1.0820
  777MOL0     H 7169   1.427   7.420   1.181 -2.7700 -1.8083  1.9539
  777MOL0     H 7170   1.393   7.581   1.124 -0.8324  1.1241  0.7536
  777MOL0     H 7171   1.533   7.595   1.318 -1.1429  1.5809 -2.2182
  777MOL0     H 7172   1.433   7.489   1.417  1.2265 -0.1280  0.2319
  777MOL0     H 7173   1.319   7.753   1.300 -0.4212  0.5221 -0.1886
  777MOL0     H 7174   1.251   7.659   1.432  1.9298 -1.6647  1.5428
  777MOL0     H 7175   1.407   7.657   1.673 -0.8589  1.1759  0.6864
  777MOL0     H 7176   1.512   7.740   1.857  0.8899 -1.7719 -1.2581
  777MOL0     H 7177   1.590   7.900   1.861 -0.7333  0.3371  0.7858
  777MOL0     H 7178   1.729   7.686   1.901  1.6052  0.0483 -0.0559
  777MOL0     H 7179   1.712   7.648   1.727 -1.3146  2.5708 -2.4667
  777MOL0     H 7180   1.841   7.851   1.666 -3.3905  1.4888 -0.0687
  777MOL0     H 7181   1.863   7.888   1.839 -3.2773 -0.4454  1.2459
  777MOL0     H 7182   1.977   7.676   1.870  1.5286  1.9515  0.3239
  777MOL0     H 7183   1.976   7.629   1.711  0.7717 -2.7113  2.9890
  777MOL0     H 7184   2.272   7.893   1.624  1.7549  2.0506  1.0538
  777MOL0     H 7185   2.609   7.866   1.630  0.7196  0.8888 -0.6254
  777MOL0     H 7186   2.474   7.941   1.553  2.0214  0.4661 -0.8345
  777MOL0     H 7187   2.561   7.803   1.471  0.0946 -0.7812 -0.2646
  777MOL0     H 7188   2.782   7.523   1.986 -1.9874 -0.1617 -1.4669
  777MOL0     H 7189   3.001   7.440   2.031 -0.9101 -1.0470  0.3112
  777MOL0     H 7190   3.222   7.481   1.951  0.0437  0.3521  0.4838
  777MOL0     H 7191   3.213   7.331   2.045 -0.3250  0.0569 -0.5460
  777MOL0     H 7192   3.409   7.246   1.941 -2.8067  0.2655  1.6017
  777MOL0     H 7193   3.405   7.376   1.809  1.4431 -2.3208 -1.0520
  777MOL0     H 7194   3.450   7.419   2.105 -2.7950 -0.7602 -0.5668
  777MOL0     H 7195   3.435   7.549   1.983 -0.7979  0.1470 -0.8979
  777MOL0     H 7196   3.639   7.461   1.870  0.0517  0.5776 -0.1967
  777MOL0     H 7197   3.633   7.325   1.986  1.1250  0.1939 -0.2614
  777MOL0     H 7198   3.697   7.618   2.077  0.0469  0.4069  0.3567
  777MOL0     H 7199   3.672   7.476   2.177  0.0972 -0.9178 -0.8439
  777MOL0     H 7200   3.875   7.476   1.945  1.5571  1.2491  1.3600
  777MOL0     H 7201   3.845   7.361   2.077 -0.6508  0.3861  0.0345
  777MOL0     H 7202   3.900   7.531   2.256  0.2167  0.7391  0.1132
  777MOL0     H 7203   3.926   7.640   2.132  1.5968 -0.0027 -0.8899
  777MOL0     H 7204   4.146   7.565   2.188  0.0225  1.5122 -1.5946
  777MOL0     H 7205   4.110   7.469   2.037  1.0369 -2.5047  1.5300
  777MOL0     H 7206   3.028   7.284   1.626  2.0104  1.2335  0.4464
  777MOL0     H 7207   2.792   7.363   1.580 -0.1008 -3.4074  0.6024
  777MOL0     H 7208   2.408   7.473   1.843  1.0743 -0.2205 -0.0141
  777MOL0     H 7209   2.181   7.582   1.886  1.5309 -1.5475 -0.6109
  777MOL0     H 7210   0.841   6.922   1.728 -1.3834 -1.3239 -0.3992
  777MOL0     H 7211   0.649   6.894   1.861 -1.8750  0.2401  0.1590
  777MOL0     H 7212   0.326   6.927   2.235  0.6518 -1.9284 -2.7821
  777MOL0     H 7213   0.114   6.983   2.343 -1.6630 -1.9877 -1.2301
  777MOL0     H 7214  -0.156   7.296   2.173 -0.2403  0.1409 -0.1112
  777MOL0     H 7215  -0.256   7.222   2.293  1.2188  3.3297  4.4234
  777MOL0     H 7216  -0.093   7.250   2.484 -2.5461  1.0833  1.7099
  777MOL0     H 7217  -0.148   7.400   2.406 -2.3972 -0.3111 -3.0974
  777MOL0     H 7218   0.114   7.266   2.380 -2.5130 -2.0199  1.9901
  777MOL0     H 7219   0.062   7.407   2.280 -0.2071 -0.8125 -0.0791
  777MOL0     H 7220   0.084   7.398   2.584  2.4539  1.4278 -0.1683
  777MOL0     H 7221   0.031   7.542   2.506  0.5569  0.2523 -1.1546
  777MOL0     H 7222   0.441   7.538   2.445  0.6894 -1.4914  1.0153
  777MOL0     H 7223  -0.021   7.204   2.010  0.0166 -0.3490 -0.3425
  777MOL0     H 7224   0.082   7.202   1.829 -0.5184 -1.4278 -1.9249
  777MOL0     H 7225   0.258   7.252   1.834 -0.9370  0.2941 -1.5756
  777MOL0     H 7226   0.203   7.081   1.786  1.1201  0.3542 -0.6475
  778MOL0     O 7227   4.395   6.549   7.833 -1.1173 -0.7001 -0.4388
  778MOL0     C 7228   4.382   6.523   7.955  0.3002 -0.1045 -0.2126
  778MOL0     O 7229   4.480   6.524   8.046 -0.3417  0.4450 -0.6315
  778MOL0     C 7230   4.610   6.537   8.013 -0.4983  0.5300 -0.4779
  778MOL0     C 7231   4.704   6.459   8.075  0.3286  0.2816  0.0416
  778MOL0     C 7232   4.841   6.475   8.065 -0.5810 -0.1892  0.5302
  778MOL0     C 7233   4.889   6.585   7.994 -0.1516 -0.1608  0.5435
  778MOL0     O 7234   5.026   6.608   8.002  0.2276 -0.3442  1.1031
  778MOL0     C 7235   5.075   6.741   8.022 -0.7654 -0.5121 -0.4714
  778MOL0     C 7236   5.215   6.740   8.077  0.1671  0.2197  0.0822
  778MOL0     C 7237   5.259   6.889   8.088 -0.1059 -0.2134 -0.5909
  778MOL0     C 7238   5.403   6.895   8.124  0.2237 -0.3491  0.5282
  778MOL0     C 7239   5.448   7.039   8.163 -0.0849  0.0181 -0.2393
  778MOL0     C 7240   5.602   7.039   8.201 -0.7656 -0.1627 -0.0208
  778MOL0     C 7241   5.665   7.176   8.227 -0.5225  0.6630 -0.4975
  778MOL0     C 7242   5.793   7.171   8.310 -0.6313 -1.0674  0.6993
  778MOL0     N 7243   5.912   7.121   8.236 -0.7935  0.0671 -0.2520
  778MOL0     C 7244   5.920   6.999   8.189 -0.3384  0.7324  0.6488
  778MOL0     C 7245   6.051   6.990   8.151 -0.6871  0.2713 -0.3760
  778MOL0     C 7246   6.113   6.866   8.103  0.4210 -0.3083 -0.5133
  778MOL0     C 7247   6.121   6.865   7.950 -0.0425  0.6794 -0.4363
  778MOL0     C 7248   6.213   6.964   7.889 -0.5407 -0.7431  0.0771
  778MOL0     C 7249   6.244   6.952   7.736 -0.1590  0.2420  0.2311
  778MOL0     O 7250   6.384   6.981   7.711  0.3622  0.8882 -0.2391
  778MOL0     C 7251   6.422   7.097   7.652 -0.0448 -0.2044  0.0918
  778MOL0     C 7252   6.345   7.189   7.577  0.6001 -0.4642 -0.0710
  778MOL0     C 7253   6.397   7.299   7.512  0.1385 -1.5840  0.1007
  778MOL0     C 7254   6.304   7.398   7.454  0.1461  0.4972  0.4011
  778MOL0     C 7255   6.540   7.325   7.518 -0.0985  0.6875 -1.0798
  778MOL0     C 7256   6.614   7.429   7.435  0.7476  0.6019  0.7393
  778MOL0     O 7257   6.742   7.460   7.468  0.6972  0.0070 -0.5506
  778MOL0     C 7258   6.826   7.511   7.368 -0.3053  0.0422 -0.3174
  778MOL0     C 7259   6.942   7.431   7.348  0.0157 -0.0288  0.7559
  778MOL0     C 7260   7.032   7.473   7.254 -0.1542  1.1308  0.7919
  778MOL0     C 7261   7.017   7.590   7.185 -0.1394 -0.3164 -0.2735
  778MOL0     O 7262   7.123   7.613   7.100 -0.2465 -0.0489 -0.2766
  778MOL0     C 7263   7.146   7.754   7.069  0.3133 -0.1653 -0.9340
  778MOL0     C 7264   7.183   7.858   7.178 -0.3214 -0.0186 -0.2902
  778MOL0     C 7265   7.201   8.007   7.134 -0.7070  0.3835  0.2849
  778MOL0     C 7266   7.349   8.026   7.088 -0.0198  1.2788  0.7275
  778MOL0     C 7267   7.365   8.176   7.070 -0.6254 -0.6158 -0.1499
  778MOL0     C 7268   7.502   8.224   7.025 -0.2277  0.7759 -0.0970
  778MOL0     C 7269   7.517   8.370   7.012 -0.3998 -0.3683 -0.4029
  778MOL0     C 7270   7.520   8.437   7.147  0.2628  0.4711 -0.1441
  778MOL0    Cl 7271   7.565   8.603   7.133 -0.0749 -0.0848 -0.0096
  778MOL0     C 7272   6.901   7.672   7.207 -0.1071 -0.9077 -0.4635
  778MOL0     C 7273   6.801   7.629   7.292 -0.2214 -0.2324 -0.9016
  778MOL0     O 7274   6.555   7.472   7.338 -0.2918  0.2020  0.6733
  778MOL0     C 7275   6.610   7.243   7.607  0.0488 -0.3240 -0.3455
  778MOL0     C 7276   6.557   7.129   7.662 -0.7235  0.8370 -0.0811
  778MOL0     N 7277   6.114   7.108   8.171 -0.6703 -0.0964  1.1112
  778MOL0     N 7278   6.025   7.187   8.222 -1.1627 -0.9760  0.3698
  778MOL0     C 7279   4.801   6.668   7.922 -0.4306  0.9528  0.5266
  778MOL0     C 7280   4.663   6.641   7.932 -0.4978  0.7468 -0.1146
  778MOL0     C 7281   4.240   6.520   8.019  0.0823 -0.1895  0.1207
  778MOL0     C 7282   4.229   6.492   8.156 -0.3426  0.0645 -0.6835
  778MOL0     C 7283   4.115   6.475   8.229  0.0996 -0.0584  0.5919
  778MOL0     C 7284   3.992   6.512   8.163  0.2272 -0.3691 -0.4298
  778MOL0     O 7285   3.867   6.511   8.223  0.1363  0.3337 -0.2467
  778MOL0     C 7286   3.848   6.460   8.353 -0.3908  0.5376 -0.3310
  778MOL0     C 7287   3.712   6.497   8.413  0.6710  0.1223 -0.2162
  778MOL0     C 7288   3.718   6.624   8.497  1.0416 -0.4243  0.4096
  778MOL0     C 7289   3.766   6.745   8.419 -0.8774  0.0706 -0.1065
  778MOL0     C 7290   3.645   6.800   8.353  0.6254  0.3958 -0.4347
  778MOL0     C 7291   3.546   6.834   8.292 -0.0043 -0.3840  0.6377
  778MOL0     C 7292   4.004   6.549   8.028 -0.2252 -0.3020  0.6812
  778MOL0     C 7293   4.120   6.547   7.950  0.3608 -0.5557 -0.1384
  778MOL0     C 7294   4.118   6.578   7.808 -0.2931  0.7457  0.0673
  778MOL0     H 7295   4.661   6.379   8.133 -0.4224  1.5270  1.2783
  778MOL0     H 7296   4.910   6.410   8.119  1.2720  0.1785 -1.2847
  778MOL0     H 7297   5.012   6.787   8.099 -1.9212 -1.6156 -0.7304
  778MOL0     H 7298   5.077   6.799   7.929 -1.2829 -0.3922 -0.4100
  778MOL0     H 7299   5.213   6.672   8.162 -0.4355  0.3684  0.1938
  778MOL0     H 7300   5.275   6.688   8.002 -0.4513 -1.3561  0.6475
  778MOL0     H 7301   5.232   6.949   8.002 -1.3191 -2.5449 -1.9487
  778MOL0     H 7302   5.203   6.930   8.172  1.6161 -0.9228  0.9927
  778MOL0     H 7303   5.420   6.830   8.210 -1.2247 -2.4208 -0.6699
  778MOL0     H 7304   5.458   6.854   8.039 -0.1952 -1.3143  0.7144
  778MOL0     H 7305   5.387   7.084   8.242 -0.5527  1.9301 -1.6054
  778MOL0     H 7306   5.430   7.097   8.072 -0.6396 -2.2303 -1.6458
  778MOL0     H 7307   5.603   6.983   8.295 -0.2498  3.0153  2.0429
  778MOL0     H 7308   5.657   6.992   8.119 -0.3905  1.2356 -0.6006
  778MOL0     H 7309   5.601   7.220   8.304 -0.0241 -0.3587  0.5312
  778MOL0     H 7310   5.665   7.242   8.139  0.6696  1.0407 -0.2329
  778MOL0     H 7311   5.806   7.270   8.353 -0.4918 -0.7365 -0.0751
  778MOL0     H 7312   5.774   7.098   8.389 -1.2164 -3.2583 -1.3450
  778MOL0     H 7313   5.848   6.918   8.189 -0.1548  0.5317 -1.1313
  778MOL0     H 7314   6.053   6.778   8.129  3.5224 -2.9316 -1.4739
  778MOL0     H 7315   6.211   6.855   8.149  0.1979 -1.4728 -0.2957
  778MOL0     H 7316   6.145   6.760   7.928  0.2783  1.0274 -1.8544
  778MOL0     H 7317   6.017   6.871   7.917 -0.1856  1.2712  0.1009
  778MOL0     H 7318   6.173   7.064   7.908 -1.5686 -1.0952 -0.1886
  778MOL0     H 7319   6.308   6.961   7.944  0.5322 -1.2811 -1.7017
  778MOL0     H 7320   6.240   6.846   7.707  3.0603  0.4892 -1.6576
  778MOL0     H 7321   6.178   7.017   7.677  2.1146  2.0260 -0.4804
  778MOL0     H 7322   6.238   7.171   7.574  0.1318  1.8825  0.6587
  778MOL0     H 7323   6.305   7.498   7.498  1.2424  0.6962 -0.0266
  778MOL0     H 7324   6.200   7.364   7.463  0.5313 -0.4613  1.5328
  778MOL0     H 7325   6.325   7.415   7.348  0.7565 -1.1593  0.2270
  778MOL0     H 7326   6.956   7.341   7.407 -0.1391 -0.3946  0.2339
  778MOL0     H 7327   7.114   7.403   7.246 -1.1490 -0.2250  1.9723
  778MOL0     H 7328   7.211   7.766   6.982  0.0518  0.2685 -1.0767
  778MOL0     H 7329   7.052   7.799   7.035  1.4891  2.6564 -0.7354
  778MOL0     H 7330   7.108   7.865   7.258  1.1266  0.8165  1.0457
  778MOL0     H 7331   7.279   7.833   7.223 -0.8565  0.6395  1.2896
  778MOL0     H 7332   7.178   8.071   7.219  0.2476  2.2450 -0.8033
  778MOL0     H 7333   7.129   8.048   7.062  0.0611 -0.6646 -1.1386
  778MOL0     H 7334   7.373   7.975   6.995  1.3808  3.1348  0.0185
  778MOL0     H 7335   7.422   7.990   7.161 -0.7118 -0.0627  0.8008
  778MOL0     H 7336   7.300   8.219   6.993 -1.5529 -0.4904  0.6821
  778MOL0     H 7337   7.339   8.232   7.161  4.0390  0.1960  0.9163
  778MOL0     H 7338   7.533   8.166   6.937  1.7474  1.9366 -0.2279
  778MOL0     H 7339   7.577   8.194   7.100  0.7193 -0.1620 -1.3525
  778MOL0     H 7340   7.433   8.411   6.954  0.3700  1.0877 -0.5320
  778MOL0     H 7341   7.610   8.400   6.965  0.1373  1.1073  1.4572
  778MOL0     H 7342   7.594   8.391   7.213 -0.4700  1.1260  1.1734
  778MOL0     H 7343   7.423   8.445   7.197 -0.1354  1.7319 -1.0360
  778MOL0     H 7344   6.885   7.771   7.165 -1.3827  0.4538  2.8434
  778MOL0     H 7345   6.709   7.682   7.315  1.6070  2.6550  0.3038
  778MOL0     H 7346   6.714   7.265   7.631 -0.4988  2.0382  0.0928
  778MOL0     H 7347   6.618   7.057   7.716  0.1560 -0.3830 -2.5477
  778MOL0     H 7348   4.830   6.757   7.867 -0.9543  0.2353 -0.9745
  778MOL0     H 7349   4.598   6.716   7.886 -1.1064  0.1278 -0.2821
  778MOL0     H 7350   4.318   6.463   8.212 -2.3866 -2.4235  1.5298
  778MOL0     H 7351   4.126   6.441   8.331  0.3478  0.7209  0.8310
  778MOL0     H 7352   3.857   6.351   8.352 -1.0175  0.4671  0.2912
  778MOL0     H 7353   3.935   6.490   8.411  2.2095 -3.9492 -1.4351
  778MOL0     H 7354   3.681   6.419   8.483 -1.2418 -0.0917 -1.2219
  778MOL0     H 7355   3.636   6.512   8.336  1.8537  0.6227 -1.3250
  778MOL0     H 7356   3.622   6.646   8.545  0.5572  0.8135 -1.0396
  778MOL0     H 7357   3.792   6.609   8.576  1.6406 -1.2100 -0.2854
  778MOL0     H 7358   3.858   6.716   8.368 -0.1064 -2.4921  2.4932
  778MOL0     H 7359   3.800   6.821   8.489 -1.4340  0.4023 -0.1874
  778MOL0     H 7360   3.454   6.848   8.237 -0.3259 -1.2948  0.9315
  778MOL0     H 7361   3.909   6.573   7.980 -0.2093 -0.9489  0.3088
  778MOL0     H 7362   4.159   6.491   7.755  0.8603  1.3860 -0.1322
  778MOL0     H 7363   4.019   6.592   7.765 -0.4115 -0.4328 -0.0875
  778MOL0     H 7364   4.180   6.666   7.787 -0.6964  1.0178  0.0145
  779MOL0     O 7365   1.077   9.938   3.981 -0.9801 -0.1082 -0.7449
  779MOL0     C 7366   1.041   9.923   3.865 -0.0354  0.8186 -0.4690
  779MOL0     O 7367   1.125   9.924   3.760  0.1503 -0.2932 -0.2933
  779MOL0     C 7368   1.263   9.894   3.779  0.6322 -0.3717 -0.7934
  779MOL0     C 7369   1.291   9.763   3.745 -0.8262 -0.1261 -1.0764
  779MOL0     C 7370   1.421   9.711   3.758  0.4136 -0.2292  0.5975
  779MOL0     C 7371   1.517   9.798   3.818 -0.1238  0.2659 -0.0801
  779MOL0     O 7372   1.640   9.741   3.834  0.4359  0.1677  0.2226
  779MOL0     C 7373   1.756   9.825   3.858  0.1710 -0.0103  0.0967
  779MOL0     C 7374   1.870   9.740   3.929 -0.3638  0.0398  0.1644
  779MOL0     C 7375   1.814   9.676   4.056 -0.0985  0.5906 -0.6640
  779MOL0     C 7376   1.929   9.623   4.142 -0.2493 -0.0111 -0.1812
  779MOL0     C 7377   1.968   9.730   4.250 -0.1222  0.4493  0.2234
  779MOL0     C 7378   2.055   9.670   4.366  0.8796  0.2988 -0.3147
  779MOL0     C 7379   2.041   9.765   4.488  0.3213 -0.4079 -0.5892
  779MOL0     C 7380   2.099   9.694   4.613  0.8305  0.1885  0.0880
  779MOL0     N 7381   2.249   9.685   4.620  0.6510  0.2102 -0.3367
  779MOL0     C 7382   2.339   9.624   4.533  0.1257  0.2066 -0.4239
  779MOL0     C 7383   2.460   9.648   4.588 -0.6336 -0.3900 -0.4880
  779MOL0     C 7384   2.594   9.605   4.532  0.2245  0.6805  0.0272
  779MOL0     C 7385   2.709   9.594   4.632 -0.6154  0.0310  0.3687
  779MOL0     C 7386   2.835   9.527   4.590  0.5249  0.0273 -0.0998
  779MOL0     C 7387   2.923   9.614   4.487 -0.2946  0.3248  0.8402
  779MOL0     O 7388   3.060   9.569   4.483  0.0224 -0.3258  0.4407
  779MOL0     C 7389   3.157   9.636   4.418 -0.5280 -0.2070 -0.2021
  779MOL0     C 7390   3.133   9.748   4.338 -0.4963 -0.2928  0.2283
  779MOL0     C 7391   3.235   9.805   4.258 -0.2488  1.1325 -0.3102
  779MOL0     C 7392   3.209   9.917   4.165  0.0758 -0.7606  0.6242
  779MOL0     C 7393   3.362   9.737   4.262  0.1858 -0.4713 -0.7924
  779MOL0     C 7394   3.475   9.773   4.177 -1.1632 -0.2773  0.2909
  779MOL0     O 7395   3.562   9.675   4.147 -0.2193  0.5119 -0.7875
  779MOL0     C 7396   3.678   9.719   4.098  0.0907 -0.5733  0.4530
  779MOL0     C 7397   3.795   9.739   4.171 -0.9530 -0.2406  0.1948
  779MOL0     C 7398   3.917   9.764   4.105  0.0454  0.5045  0.4409
  779MOL0     C 7399   3.929   9.791   3.968  0.3630 -0.7225  0.6915
  779MOL0     O 7400   4.047   9.820   3.902 -0.0431 -0.3021 -0.3969
  779MOL0     C 7401   4.165   9.768   3.955 -0.3533  0.3282  0.3636
  779MOL0     C 7402   4.274   9.798   3.859 -0.1554 -0.6018  0.3849
  779MOL0     C 7403   4.255   9.726   3.718  0.7609  0.8721 -0.1472
  779MOL0     C 7404   4.381   9.740   3.623  0.1150  0.1778  0.6781
  779MOL0     C 7405   4.500   9.645   3.647  0.2105  0.1042  0.9517
  779MOL0     C 7406   4.631   9.672   3.568  0.7687  0.2463  0.2260
  779MOL0     C 7407   4.748   9.621   3.647 -0.4816  1.0309  0.2751
  779MOL0     C 7408   4.890   9.651   3.599 -0.0629  0.4555  0.1273
  779MOL0    Cl 7409   4.919   9.572   3.443 -0.1561  0.0842  0.2369
  779MOL0     C 7410   3.812   9.790   3.904 -0.2096 -0.5377  0.9342
  779MOL0     C 7411   3.687   9.751   3.957 -0.9227 -0.2864  0.7720
  779MOL0     O 7412   3.489   9.891   4.146  0.1544 -0.1556  0.1836
  779MOL0     C 7413   3.382   9.627   4.350  0.2170  0.5901 -1.0822
  779MOL0     C 7414   3.280   9.575   4.427  0.2119 -0.0190 -1.1686
  779MOL0     N 7415   2.437   9.731   4.703 -0.2524  0.6096  0.2726
  779MOL0     N 7416   2.308   9.746   4.720 -0.3673 -1.0495 -0.2367
  779MOL0     C 7417   1.481   9.926   3.859 -0.3584  0.3314 -0.1792
  779MOL0     C 7418   1.356   9.975   3.838  0.7128  0.3073 -0.3791
  779MOL0     C 7419   0.901   9.895   3.838 -0.6522 -0.7026  1.1730
  779MOL0     C 7420   0.868   9.823   3.718 -0.0874 -0.5336 -0.9215
  779MOL0     C 7421   0.746   9.787   3.681  0.6076  0.2290  0.2621
  779MOL0     C 7422   0.633   9.814   3.759 -0.4966  0.5389  0.7007
  779MOL0     O 7423   0.507   9.785   3.707  0.3483  1.0157 -0.9825
  779MOL0     C 7424   0.481   9.799   3.564 -0.0110  0.2819 -0.4067
  779MOL0     C 7425   0.495   9.942   3.506  0.2925  0.1166 -0.6886
  779MOL0     C 7426   0.423  10.048   3.587 -0.0325  0.4920  0.5783
  779MOL0     C 7427   0.273  10.048   3.568  0.1960 -0.8330 -0.0118
  779MOL0     C 7428   0.209  10.146   3.661  0.3174  0.2474  0.0498
  779MOL0     C 7429   0.169  10.228   3.745 -0.0022  0.3412 -0.6355
  779MOL0     C 7430   0.659   9.868   3.879 -0.0450  0.3947 -0.1128
  779MOL0     C 7431   0.787   9.906   3.923 -0.1891  0.1490  0.4043
  779MOL0     C 7432   0.790   9.962   4.062 -0.5391 -0.6339  0.7116
  779MOL0     H 7433   1.217   9.699   3.699 -0.6470  1.1862 -3.3162
  779MOL0     H 7434   1.450   9.614   3.717 -0.2249 -0.7200  1.2824
  779MOL0     H 7435   1.732   9.897   3.936 -0.1209 -0.4187  0.3913
  779MOL0     H 7436   1.800   9.878   3.773 -0.7241  0.2896 -0.1849
  779MOL0     H 7437   1.915   9.666   3.863 -1.7046 -0.1247 -0.6087
  779MOL0     H 7438   1.944   9.817   3.952 -1.8137  2.1630 -1.7729
  779MOL0     H 7439   1.755   9.748   4.114  0.6102 -1.0210  2.2573
  779MOL0     H 7440   1.749   9.596   4.021 -0.2223 -0.4238  1.6706
  779MOL0     H 7441   1.898   9.528   4.186 -1.7925  0.7128  0.3623
  779MOL0     H 7442   2.020   9.604   4.083  1.2639  1.3162  1.5839
  779MOL0     H 7443   1.884   9.786   4.292 -2.9483 -4.2924  1.6612
  779MOL0     H 7444   2.027   9.799   4.189 -1.1540  0.0527 -1.2626
  779MOL0     H 7445   2.012   9.575   4.399 -2.3393  1.2954 -1.2733
  779MOL0     H 7446   2.155   9.647   4.330  0.3580  0.7726 -2.1758
  779MOL0     H 7447   1.938   9.786   4.518  1.0368  0.8496  1.1766
  779MOL0     H 7448   2.086   9.861   4.460  0.5071  0.3535  2.0968
  779MOL0     H 7449   2.048   9.740   4.699  1.4585  0.1100  0.5164
  779MOL0     H 7450   2.064   9.591   4.616  2.3074 -0.3323  0.3445
  779MOL0     H 7451   2.327   9.571   4.439  0.1577 -0.9330  0.1966
  779MOL0     H 7452   2.619   9.678   4.454  0.8792  1.0923  0.6132
  779MOL0     H 7453   2.587   9.513   4.472  1.6896  0.9556 -0.6026
  779MOL0     H 7454   2.730   9.697   4.659  0.9102  0.7167 -2.8962
  779MOL0     H 7455   2.680   9.536   4.720 -1.6451 -1.8719 -1.1264
  779MOL0     H 7456   2.899   9.504   4.675 -1.0335  0.6296  1.2847
  779MOL0     H 7457   2.812   9.429   4.546 -3.9841 -0.1985  2.1319
  779MOL0     H 7458   2.875   9.605   4.389 -0.2164  0.5138  0.7857
  779MOL0     H 7459   2.917   9.722   4.503  0.9478  0.8016 -1.4927
  779MOL0     H 7460   3.034   9.792   4.344 -1.1525 -1.8374  1.1446
  779MOL0     H 7461   3.281   9.998   4.178 -0.8639  0.2707 -0.3240
  779MOL0     H 7462   3.112   9.967   4.168  1.0672  1.2514  0.9304
  779MOL0     H 7463   3.220   9.874   4.065  0.2208 -1.2312  0.8401
  779MOL0     H 7464   3.800   9.723   4.278  1.6799  0.6974  0.2787
  779MOL0     H 7465   4.007   9.756   4.166  2.4586 -1.7996 -3.0784
  779MOL0     H 7466   4.188   9.821   4.048 -1.7105  0.3733  0.6913
  779MOL0     H 7467   4.151   9.661   3.975 -0.5511  0.4495  0.8941
  779MOL0     H 7468   4.261   9.904   3.837 -1.0084 -0.7715  0.0513
  779MOL0     H 7469   4.373   9.779   3.902 -0.0281  1.3377  1.0568
  779MOL0     H 7470   4.164   9.765   3.671  0.1598  0.7021  0.8618
  779MOL0     H 7471   4.231   9.621   3.740 -2.3103  1.2130 -1.3033
  779MOL0     H 7472   4.417   9.843   3.629  0.3554  0.0414  1.7072
  779MOL0     H 7473   4.351   9.724   3.519  0.6798 -1.1668  0.7048
  779MOL0     H 7474   4.522   9.640   3.755  1.1395  1.2028  0.8343
  779MOL0     H 7475   4.471   9.543   3.620 -0.2612  0.5697 -0.3825
  779MOL0     H 7476   4.644   9.780   3.565 -2.6491  0.7869  0.4784
  779MOL0     H 7477   4.632   9.640   3.464 -3.3203 -0.3865  0.2236
  779MOL0     H 7478   4.747   9.512   3.655 -0.9816  0.9872 -0.3410
  779MOL0     H 7479   4.742   9.655   3.751 -1.2288 -0.8080  0.8618
  779MOL0     H 7480   4.961   9.610   3.671 -0.1416 -0.5031 -0.3329
  779MOL0     H 7481   4.897   9.760   3.586  0.6926  0.4049  0.1166
  779MOL0     H 7482   3.798   9.801   3.797  0.9949 -1.4456  0.6710
  779MOL0     H 7483   3.602   9.750   3.889 -1.3909 -1.7458  1.3348
  779MOL0     H 7484   3.484   9.593   4.366  0.0062  0.7959  0.9456
  779MOL0     H 7485   3.295   9.485   4.486  0.9670  1.8749  1.7317
  779MOL0     H 7486   1.545   9.993   3.916  0.2672  0.7543 -1.3465
  779MOL0     H 7487   1.320  10.074   3.863  2.0978  1.2397 -1.9110
  779MOL0     H 7488   0.936   9.800   3.637 -1.0535 -0.0347 -1.8984
  779MOL0     H 7489   0.729   9.742   3.584 -0.1534 -1.0274  0.9510
  779MOL0     H 7490   0.541   9.732   3.502  1.0206 -0.1649  1.0342
  779MOL0     H 7491   0.376   9.766   3.560 -0.7310  2.5052 -0.8221
  779MOL0     H 7492   0.473   9.943   3.399  0.6898 -1.5250 -0.8111
  779MOL0     H 7493   0.602   9.965   3.509  0.7046 -1.6918  1.0935
  779MOL0     H 7494   0.436  10.026   3.693  0.6786 -0.9840  0.2111
  779MOL0     H 7495   0.457  10.150   3.566  0.1702  1.1497  3.6320
  779MOL0     H 7496   0.230   9.950   3.593 -2.1361  1.0142  4.4175
  779MOL0     H 7497   0.241  10.076   3.467 -0.3282 -1.4162 -0.0185
  779MOL0     H 7498   0.158  10.301   3.823 -1.9487 -1.7540  1.1854
  779MOL0     H 7499   0.569   9.881   3.939 -0.4935 -2.6397  0.0328
  779MOL0     H 7500   0.826   9.892   4.139 -2.1999  1.0670  3.1800
  779MOL0     H 7501   0.851  10.053   4.065  1.5937 -1.8803 -1.4272
  779MOL0     H 7502   0.688   9.990   4.088 -0.6892  0.1075 -0.5792
  780MOL0     O 7503   4.119   4.358   7.329  0.5949  0.3275  0.0985
  780MOL0     C 7504   4.090   4.474   7.302 -0.1083 -0.1285 -0.0092
  780MOL0     O 7505   4.175   4.582   7.310  0.0859  0.1210  0.7477
  780MOL0     C 7506   4.312   4.562   7.337 -0.2101 -0.3374 -0.1456
  780MOL0     C 7507   4.386   4.652   7.410 -0.1584 -0.5471 -0.3071
  780MOL0     C 7508   4.517   4.635   7.460  0.1042  0.4610 -0.1688
  780MOL0     C 7509   4.583   4.520   7.422 -0.3798  0.6245 -0.5502
  780MOL0     O 7510   4.716   4.501   7.456  0.3338  0.3233 -0.1036
  780MOL0     C 7511   4.775   4.368   7.446  0.3102  0.5159 -0.9129
  780MOL0     C 7512   4.923   4.365   7.483  0.7550 -0.4179  0.1012
  780MOL0     C 7513   5.018   4.417   7.379 -0.2368 -0.0009 -0.1846
  780MOL0     C 7514   5.162   4.398   7.419  0.2558 -0.3056  0.5828
  780MOL0     C 7515   5.260   4.478   7.329  0.3061  0.9466 -0.8488
  780MOL0     C 7516   5.392   4.510   7.383  0.8935  0.4825  0.0188
  780MOL0     C 7517   5.482   4.594   7.286  0.3266 -0.7264 -0.2084
  780MOL0     C 7518   5.420   4.714   7.213  0.1100  0.2598 -0.2071
  780MOL0     N 7519   5.510   4.795   7.144 -0.1476 -0.0974 -0.0598
  780MOL0     C 7520   5.584   4.903   7.193  0.8839  0.8782 -0.5172
  780MOL0     C 7521   5.653   4.935   7.087  0.0286  0.6390  0.5414
  780MOL0     C 7522   5.749   5.049   7.079  0.1888 -0.5420 -0.1284
  780MOL0     C 7523   5.779   5.103   6.936  0.2975 -0.3851  0.1720
  780MOL0     C 7524   5.843   5.245   6.937 -0.2911  0.2111  0.2544
  780MOL0     C 7525   5.975   5.225   6.998 -0.0634 -0.5636  0.3810
  780MOL0     O 7526   6.055   5.351   6.978 -0.2657  0.2266  0.4770
  780MOL0     C 7527   6.169   5.365   7.058 -0.7276 -0.2077  0.4763
  780MOL0     C 7528   6.228   5.494   7.068 -0.2477  0.8850 -0.3269
  780MOL0     C 7529   6.350   5.514   7.135  0.4233  0.2836  0.1236
  780MOL0     C 7530   6.404   5.655   7.152 -0.0434 -1.3016 -0.0745
  780MOL0     C 7531   6.419   5.406   7.191 -1.1972 -0.4236  0.3705
  780MOL0     C 7532   6.559   5.429   7.252 -0.7278  0.9661 -0.3108
  780MOL0     O 7533   6.640   5.521   7.189  0.0517 -0.1955 -1.1872
  780MOL0     C 7534   6.777   5.527   7.230  0.3281 -0.3559 -0.3488
  780MOL0     C 7535   6.869   5.439   7.178 -0.4615 -0.1010 -0.1576
  780MOL0     C 7536   6.999   5.423   7.219  0.4501 -0.9466 -0.2175
  780MOL0     C 7537   7.043   5.515   7.318  0.1404  0.1999  0.3433
  780MOL0     O 7538   7.173   5.545   7.353 -0.2555  0.4924 -0.0971
  780MOL0     C 7539   7.284   5.474   7.289  0.7118  0.5544 -0.1456
  780MOL0     C 7540   7.328   5.525   7.152  0.7259 -0.4843  0.4254
  780MOL0     C 7541   7.453   5.453   7.100 -0.0367  0.2563 -0.3630
  780MOL0     C 7542   7.564   5.456   7.209  0.2203  0.2348 -0.3548
  780MOL0     C 7543   7.705   5.436   7.152  0.5322  0.3170  0.9295
  780MOL0     C 7544   7.807   5.475   7.258  1.0625  0.3324 -1.0210
  780MOL0     C 7545   7.943   5.398   7.245 -0.1277  0.0344 -0.0574
  780MOL0     C 7546   8.008   5.379   7.379  0.2849  0.5997  0.4495
  780MOL0    Cl 7547   8.171   5.310   7.346  0.1272 -0.0735  0.0416
  780MOL0     C 7548   6.952   5.613   7.365 -0.3067  0.0037  1.3284
  780MOL0     C 7549   6.827   5.618   7.323  0.5935  0.5197 -0.2363
  780MOL0     O 7550   6.592   5.349   7.340 -0.6361 -0.4637 -0.2787
  780MOL0     C 7551   6.365   5.277   7.175 -0.2012  0.0493  0.3051
  780MOL0     C 7552   6.241   5.257   7.115 -0.3087 -0.2152  1.0649
  780MOL0     N 7553   5.639   4.849   6.984  0.3112  0.5830  0.8579
  780MOL0     N 7554   5.546   4.769   7.015  0.2200 -0.4019 -0.1510
  780MOL0     C 7555   4.520   4.437   7.326 -0.2003 -0.7866 -0.0268
  780MOL0     C 7556   4.390   4.456   7.283 -0.2308  0.3047  0.7870
  780MOL0     C 7557   3.946   4.500   7.286 -0.5479  0.3285 -0.3203
  780MOL0     C 7558   3.883   4.605   7.355 -0.2602  0.4491  0.0155
  780MOL0     C 7559   3.743   4.617   7.361 -0.4244 -1.0337 -0.5956
  780MOL0     C 7560   3.662   4.531   7.287 -0.2280 -0.3128  0.1010
  780MOL0     O 7561   3.522   4.539   7.269 -0.0957  0.2548 -0.2366
  780MOL0     C 7562   3.451   4.652   7.319 -0.7880  0.2921 -0.2316
  780MOL0     C 7563   3.306   4.615   7.317  0.5696 -0.9569 -0.0217
  780MOL0     C 7564   3.209   4.737   7.343 -1.0301  0.4060 -0.2576
  780MOL0     C 7565   3.060   4.704   7.335  0.0433  0.0460  0.2233
  780MOL0     C 7566   3.003   4.595   7.423  0.3158  0.0199  0.4853
  780MOL0     C 7567   2.948   4.518   7.501 -0.4149 -0.1015 -0.1794
  780MOL0     C 7568   3.726   4.424   7.222  0.6389  0.3175  0.3786
  780MOL0     C 7569   3.860   4.407   7.219 -0.2361  0.9423  0.2413
  780MOL0     C 7570   3.914   4.283   7.143  0.2762 -0.1268 -0.2908
  780MOL0     H 7571   4.335   4.746   7.430 -2.7338 -1.5802 -1.5887
  780MOL0     H 7572   4.561   4.710   7.526  4.3046 -0.4775 -1.5765
  780MOL0     H 7573   4.750   4.311   7.356 -1.2192 -1.3931  0.6367
  780MOL0     H 7574   4.729   4.308   7.525 -0.8726 -1.5194 -3.0310
  780MOL0     H 7575   4.927   4.429   7.572  0.8368 -0.4980  0.1551
  780MOL0     H 7576   4.957   4.264   7.509  1.6947 -0.2344 -0.4027
  780MOL0     H 7577   4.995   4.375   7.281 -1.8833  0.0508  0.1613
  780MOL0     H 7578   5.003   4.524   7.359 -0.2348  0.1625  0.6550
  780MOL0     H 7579   5.180   4.430   7.522  2.2711  0.7150 -0.0361
  780MOL0     H 7580   5.186   4.292   7.424 -2.1978 -0.8752  2.1170
  780MOL0     H 7581   5.205   4.569   7.304 -2.1086 -0.6638 -1.7429
  780MOL0     H 7582   5.277   4.412   7.243 -2.7127 -0.4054 -0.5148
  780MOL0     H 7583   5.380   4.558   7.481  2.3742 -1.2297  1.1093
  780MOL0     H 7584   5.432   4.410   7.401  0.0375  0.2364  0.6129
  780MOL0     H 7585   5.519   4.527   7.209 -0.7859  1.6901 -3.0199
  780MOL0     H 7586   5.567   4.632   7.345  0.0552  0.6938 -0.6875
  780MOL0     H 7587   5.344   4.673   7.146 -0.3314 -0.0010  0.4394
  780MOL0     H 7588   5.372   4.763   7.299  2.0409 -1.3296  1.9084
  780MOL0     H 7589   5.574   4.951   7.290 -1.0188 -1.9093  0.8114
  780MOL0     H 7590   5.848   5.012   7.106  1.4985 -1.1612 -4.8296
  780MOL0     H 7591   5.720   5.133   7.143  0.9868  0.2509 -0.7830
  780MOL0     H 7592   5.854   5.041   6.885 -0.5912 -1.7371  0.4513
  780MOL0     H 7593   5.691   5.107   6.872  0.8712 -0.8521 -0.6820
  780MOL0     H 7594   5.846   5.278   6.833  0.8931  2.2176  0.8733
  780MOL0     H 7595   5.786   5.321   6.990 -1.0144 -1.6599  2.3282
  780MOL0     H 7596   5.961   5.205   7.105  1.3750 -2.4607  0.2749
  780MOL0     H 7597   6.027   5.135   6.963 -0.2074 -1.0200  1.3267
  780MOL0     H 7598   6.192   5.582   7.017 -2.7155  0.6851  0.8986
  780MOL0     H 7599   6.328   5.729   7.127  1.4073  0.2243 -0.1444
  780MOL0     H 7600   6.486   5.659   7.080 -0.0120  0.5117  0.0183
  780MOL0     H 7601   6.433   5.685   7.253 -1.2372  1.6722 -0.5088
  780MOL0     H 7602   6.830   5.388   7.091  0.6810 -2.7034  0.7497
  780MOL0     H 7603   7.075   5.362   7.173  0.2432 -1.5614  0.2490
  780MOL0     H 7604   7.358   5.483   7.369  0.0081 -2.3893  0.9772
  780MOL0     H 7605   7.263   5.368   7.272 -0.4978  1.0471 -2.0592
  780MOL0     H 7606   7.245   5.518   7.082 -1.0918  2.8039  2.0182
  780MOL0     H 7607   7.366   5.627   7.156 -1.0624  0.1846  1.3298
  780MOL0     H 7608   7.484   5.517   7.016  2.8860  0.1441  0.5020
  780MOL0     H 7609   7.425   5.350   7.076  0.8088 -0.3421  1.1090
  780MOL0     H 7610   7.549   5.373   7.279  0.8033 -0.1918 -0.7244
  780MOL0     H 7611   7.564   5.549   7.267 -2.5359 -1.0861  2.0231
  780MOL0     H 7612   7.713   5.334   7.115 -1.8514  1.0805 -2.0483
  780MOL0     H 7613   7.717   5.505   7.068  1.0530  0.1010  0.8237
  780MOL0     H 7614   7.763   5.442   7.352 -2.6100  0.8554 -2.3976
  780MOL0     H 7615   7.817   5.583   7.270  0.5037  0.2053  0.8507
  780MOL0     H 7616   8.006   5.459   7.181  0.3483 -1.3225 -0.9346
  780MOL0     H 7617   7.931   5.302   7.194  4.1548  0.0631 -1.5134
  780MOL0     H 7618   7.949   5.319   7.448  0.7865 -0.6238 -0.1631
  780MOL0     H 7619   8.030   5.475   7.427  2.7724 -0.1755  1.0279
  780MOL0     H 7620   6.982   5.680   7.445  0.0047 -1.2308  2.2798
  780MOL0     H 7621   6.776   5.703   7.368 -0.8992 -0.8153  0.7176
  780MOL0     H 7622   6.411   5.186   7.213 -1.3576 -2.0904 -2.9347
  780MOL0     H 7623   6.200   5.159   7.097 -0.6019 -0.0688  0.9209
  780MOL0     H 7624   4.570   4.349   7.287  1.1250  0.4371 -1.2107
  780MOL0     H 7625   4.349   4.391   7.205  0.1423 -1.1733  1.7713
  780MOL0     H 7626   3.956   4.663   7.410  1.4680 -1.0760 -0.5700
  780MOL0     H 7627   3.703   4.696   7.424  1.4859  1.4539 -2.2809
  780MOL0     H 7628   3.470   4.673   7.425 -0.3762  2.4464 -0.7059
  780MOL0     H 7629   3.464   4.742   7.259 -1.0706  1.7775  1.8081
  780MOL0     H 7630   3.273   4.530   7.376 -1.2138  0.3456  0.9522
  780MOL0     H 7631   3.279   4.581   7.217 -1.8975 -0.0420  0.2784
  780MOL0     H 7632   3.225   4.795   7.435  2.5309  0.7784 -0.9705
  780MOL0     H 7633   3.225   4.805   7.259  0.0797 -2.1189 -2.2466
  780MOL0     H 7634   3.030   4.672   7.235 -1.5626 -1.9639  1.2755
  780MOL0     H 7635   3.005   4.799   7.342  0.3437  0.4515 -2.2168
  780MOL0     H 7636   2.893   4.467   7.578 -0.2674  2.0035  1.4245
  780MOL0     H 7637   3.673   4.342   7.175 -0.1742  0.1718  1.4928
  780MOL0     H 7638   3.991   4.314   7.072 -0.4530 -1.8941 -1.9153
  780MOL0     H 7639   3.947   4.205   7.211 -0.7125 -0.7129 -0.4566
  780MOL0     H 7640   3.836   4.238   7.081  0.9138 -0.4490 -0.8683
  781MOL0     O 7641   6.957   1.499   0.199  0.2539  0.2522  0.3599
  781MOL0     C 7642   6.914   1.506   0.081  0.1815 -0.5604  0.2477
  781MOL0     O 7643   6.977   1.571  -0.018  0.2665 -0.3148  0.1818
  781MOL0     C 7644   7.104   1.616   0.002  0.2607  0.3920 -0.0162
  781MOL0     C 7645   7.135   1.753   0.006 -0.2828  0.1634 -0.1183
  781MOL0     C 7646   7.267   1.806   0.008  0.6604 -0.0441 -0.0744
  781MOL0     C 7647   7.373   1.718   0.027 -0.1068 -0.0383 -0.5961
  781MOL0     O 7648   7.501   1.769   0.010  0.3756  0.3107  0.5538
  781MOL0     C 7649   7.618   1.700   0.050 -0.1795 -0.1820 -0.2735
  781MOL0     C 7650   7.741   1.732  -0.039  0.2742  0.8191  0.6106
  781MOL0     C 7651   7.870   1.699   0.039 -0.7677 -0.0144  0.0684
  781MOL0     C 7652   7.986   1.780  -0.026 -0.1682  0.4114 -0.4895
  781MOL0     C 7653   8.108   1.783   0.067  0.4360 -0.2663 -0.1053
  781MOL0     C 7654   8.229   1.868   0.021  0.0240 -0.1861 -0.5143
  781MOL0     C 7655   8.249   1.846  -0.131 -0.0377  0.5112 -0.1858
  781MOL0     C 7656   8.379   1.925  -0.170  0.3979 -0.1977 -0.3413
  781MOL0     N 7657   8.427   1.881  -0.303  0.2505  0.1072 -0.4351
  781MOL0     C 7658   8.381   1.953  -0.408 -0.9985  0.0592 -0.0973
  781MOL0     C 7659   8.470   1.917  -0.505 -0.0420 -0.9351 -0.2943
  781MOL0     C 7660   8.475   1.951  -0.654  0.5658  0.1022  0.3600
  781MOL0     C 7661   8.330   1.937  -0.707  0.1848 -1.1510 -0.4066
  781MOL0     C 7662   8.331   1.924  -0.864 -0.0222  0.3311 -0.1595
  781MOL0     C 7663   8.197   1.930  -0.929  0.0923  0.8184 -0.0749
  781MOL0     O 7664   8.153   2.068  -0.924  0.7292 -0.2546 -0.0303
  781MOL0     C 7665   8.066   2.108  -1.027  0.1541 -0.8392 -0.1441
  781MOL0     C 7666   8.010   2.024  -1.119  0.3309 -0.4795  0.0555
  781MOL0     C 7667   7.936   2.072  -1.231  0.1966  0.3283  0.0846
  781MOL0     C 7668   7.874   1.980  -1.330 -1.1597  0.0054 -0.4233
  781MOL0     C 7669   7.903   2.215  -1.231 -0.5145  0.5332  0.6689
  781MOL0     C 7670   7.824   2.279  -1.343 -0.8942 -0.5637 -0.3715
  781MOL0     O 7671   7.726   2.361  -1.296  0.5710  0.2168  0.6151
  781MOL0     C 7672   7.630   2.406  -1.379  0.9256  0.1433  0.3912
  781MOL0     C 7673   7.572   2.524  -1.338 -0.0966  0.3866 -0.0930
  781MOL0     C 7674   7.467   2.584  -1.410 -0.3256 -0.3387 -0.0062
  781MOL0     C 7675   7.412   2.513  -1.522  0.2206 -0.1589 -0.0861
  781MOL0     O 7676   7.304   2.555  -1.600  0.2814  0.2459 -0.3876
  781MOL0     C 7677   7.188   2.593  -1.526  0.7490  0.4429  0.1537
  781MOL0     C 7678   7.067   2.563  -1.620  0.8685  0.5121  0.1672
  781MOL0     C 7679   7.083   2.645  -1.754  0.5249 -0.5447 -0.1033
  781MOL0     C 7680   6.976   2.638  -1.870 -0.1924  1.4129  0.1531
  781MOL0     C 7681   6.824   2.661  -1.832 -0.3383  0.3162 -0.3191
  781MOL0     C 7682   6.724   2.655  -1.945 -1.3310  0.0786  0.5880
  781MOL0     C 7683   6.579   2.690  -1.921 -0.0278 -0.3637 -0.9402
  781MOL0     C 7684   6.522   2.745  -2.044 -0.2337  0.1832 -0.4553
  781MOL0    Cl 7685   6.502   2.623  -2.180  0.4412  0.3131  0.4445
  781MOL0     C 7686   7.467   2.394  -1.560 -0.8409  0.2077 -0.1843
  781MOL0     C 7687   7.576   2.344  -1.490 -0.8571  1.1856 -0.3649
  781MOL0     O 7688   7.854   2.256  -1.465 -0.3737  0.1405 -0.3982
  781MOL0     C 7689   7.951   2.290  -1.125 -0.7728 -0.3706 -0.2297
  781MOL0     C 7690   8.035   2.249  -1.029  0.4360  0.2097  0.3451
  781MOL0     N 7691   8.564   1.834  -0.451 -0.2189 -0.8938 -0.2531
  781MOL0     N 7692   8.545   1.825  -0.328 -0.0736 -0.1542  0.3629
  781MOL0     C 7693   7.345   1.578   0.038  0.3818 -0.3128  0.3674
  781MOL0     C 7694   7.213   1.530   0.024 -0.0935  1.1346  0.9280
  781MOL0     C 7695   6.771   1.475   0.054 -0.5238  0.0993 -0.7439
  781MOL0     C 7696   6.722   1.351   0.094  0.2238 -0.4106  0.1150
  781MOL0     C 7697   6.599   1.308   0.048 -0.1523 -0.4164  0.2667
  781MOL0     C 7698   6.515   1.381  -0.042 -0.0494 -0.2733  0.4150
  781MOL0     O 7699   6.400   1.347  -0.100  0.5148  0.0282  0.1931
  781MOL0     C 7700   6.362   1.208  -0.110  0.5023  0.4260  0.3819
  781MOL0     C 7701   6.318   1.177  -0.252 -0.3282 -0.0885 -0.2219
  781MOL0     C 7702   6.268   1.034  -0.256  0.3279 -0.5735  0.4530
  781MOL0     C 7703   6.219   0.980  -0.390 -0.1189 -0.0477  0.0445
  781MOL0     C 7704   6.196   0.833  -0.370 -0.8965  0.2553  0.6207
  781MOL0     C 7705   6.162   0.713  -0.365 -0.6634 -0.0004 -0.2048
  781MOL0     C 7706   6.563   1.505  -0.070 -0.0633  0.1063  0.3355
  781MOL0     C 7707   6.686   1.561  -0.027  0.1972 -0.6162 -0.7014
  781MOL0     C 7708   6.726   1.693  -0.081 -0.6716  0.9939 -0.1640
  781MOL0     H 7709   7.054   1.825  -0.002  1.2906  1.7963 -3.6176
  781MOL0     H 7710   7.275   1.914  -0.002 -1.5003 -0.0266 -3.0100
  781MOL0     H 7711   7.604   1.592   0.052 -1.3951 -0.0338  0.9119
  781MOL0     H 7712   7.633   1.749   0.146 -1.8994  0.2162 -0.1610
  781MOL0     H 7713   7.730   1.680  -0.134 -1.9989 -1.1677  1.8526
  781MOL0     H 7714   7.733   1.838  -0.064  3.0441  0.7211 -1.0826
  781MOL0     H 7715   7.880   1.725   0.145  3.5880 -2.0837  0.4191
  781MOL0     H 7716   7.899   1.593   0.032 -0.7721 -0.0650  0.7544
  781MOL0     H 7717   8.020   1.735  -0.120  0.4787 -0.0387 -0.0413
  781MOL0     H 7718   7.948   1.881  -0.044  1.3904  0.9780 -0.6975
  781MOL0     H 7719   8.139   1.683   0.098  0.4933  0.0804  1.0041
  781MOL0     H 7720   8.065   1.832   0.155  1.3571  0.1944  0.1080
  781MOL0     H 7721   8.201   1.974   0.032  1.0856  0.0303  0.2338
  781MOL0     H 7722   8.321   1.851   0.077  0.1867  0.4676 -0.5696
  781MOL0     H 7723   8.166   1.887  -0.190 -2.4401  0.1283  2.7147
  781MOL0     H 7724   8.249   1.740  -0.158 -1.6591  0.6025 -0.6172
  781MOL0     H 7725   8.374   2.034  -0.175  0.1660 -0.2623 -1.6703
  781MOL0     H 7726   8.451   1.898  -0.092  0.9441 -2.9475 -1.6499
  781MOL0     H 7727   8.302   2.027  -0.416 -1.1910 -0.2861 -2.0199
  781MOL0     H 7728   8.534   1.884  -0.717 -1.6391  0.3443 -2.1805
  781MOL0     H 7729   8.513   2.053  -0.662 -1.9308  1.0865  0.0809
  781MOL0     H 7730   8.276   1.850  -0.669 -1.8150  0.6687  1.1878
  781MOL0     H 7731   8.272   2.025  -0.678  0.0307 -0.6887 -2.0160
  781MOL0     H 7732   8.397   2.001  -0.905 -0.1239  0.4799 -0.0468
  781MOL0     H 7733   8.386   1.832  -0.887 -0.5306  0.1181 -0.5457
  781MOL0     H 7734   8.222   1.905  -1.032  2.9995  0.1007  0.7138
  781MOL0     H 7735   8.120   1.865  -0.886 -1.0145  2.8814  1.2304
  781MOL0     H 7736   8.023   1.917  -1.111  1.6886 -0.1613  3.9062
  781MOL0     H 7737   7.858   1.880  -1.289  3.1548 -0.6567  0.0472
  781MOL0     H 7738   7.946   1.971  -1.412  0.0337  0.4744  0.5514
  781MOL0     H 7739   7.774   2.005  -1.369 -1.2050  0.8578  0.1919
  781MOL0     H 7740   7.600   2.576  -1.248  3.9425 -0.3562 -0.7249
  781MOL0     H 7741   7.430   2.681  -1.378  1.9620  0.9138 -0.8684
  781MOL0     H 7742   7.186   2.547  -1.427  0.1932  1.3468  0.5798
  781MOL0     H 7743   7.183   2.700  -1.505 -1.4828  0.3376  0.4296
  781MOL0     H 7744   7.058   2.455  -1.638 -3.6181 -0.1782  4.5394
  781MOL0     H 7745   6.967   2.586  -1.583 -0.0432  1.5591 -2.7051
  781MOL0     H 7746   7.181   2.633  -1.801  1.0948  1.1266  0.5915
  781MOL0     H 7747   7.085   2.749  -1.722 -0.3602 -0.3913 -0.5109
  781MOL0     H 7748   6.981   2.545  -1.926 -0.9163  0.8378  1.0152
  781MOL0     H 7749   7.006   2.714  -1.942  0.0002  1.0237 -0.1727
  781MOL0     H 7750   6.798   2.591  -1.752  2.4491 -1.5730 -0.9417
  781MOL0     H 7751   6.812   2.759  -1.784 -0.5754  0.6240 -0.9980
  781MOL0     H 7752   6.730   2.556  -1.992 -0.5990  0.7995 -0.8776
  781MOL0     H 7753   6.762   2.713  -2.030 -3.4442 -0.9476 -1.1353
  781MOL0     H 7754   6.581   2.771  -1.847 -2.3288 -0.4534 -0.6908
  781MOL0     H 7755   6.530   2.609  -1.867  1.7547  0.7428  2.6375
  781MOL0     H 7756   6.578   2.828  -2.088  0.8974  0.0190  0.6217
  781MOL0     H 7757   6.427   2.792  -2.018  1.3254  3.4937 -0.2987
  781MOL0     H 7758   7.413   2.345  -1.640 -3.3268  0.8149  1.0254
  781MOL0     H 7759   7.614   2.253  -1.536 -2.8624  0.6930 -1.1524
  781MOL0     H 7760   7.925   2.396  -1.120  0.0032 -0.0471 -2.1342
  781MOL0     H 7761   8.074   2.318  -0.954 -1.2968 -1.2217  2.6936
  781MOL0     H 7762   7.425   1.504   0.039 -0.7495 -1.5795  2.0326
  781MOL0     H 7763   7.191   1.423   0.028  2.7561  0.2932 -1.8025
  781MOL0     H 7764   6.784   1.282   0.151  0.1875 -0.0620  0.5838
  781MOL0     H 7765   6.575   1.205   0.071 -0.5423 -0.9226 -2.1600
  781MOL0     H 7766   6.447   1.146  -0.081  1.7991  2.9056  2.3603
  781MOL0     H 7767   6.276   1.192  -0.045  0.7609  0.0984  0.6533
  781MOL0     H 7768   6.408   1.196  -0.311  2.9350  0.6212  4.4553
  781MOL0     H 7769   6.230   1.237  -0.278 -0.6151 -0.6829 -0.6303
  781MOL0     H 7770   6.359   0.976  -0.239  0.9920 -0.1246 -1.3387
  781MOL0     H 7771   6.203   1.008  -0.173  0.1016  2.6050  1.4229
  781MOL0     H 7772   6.295   1.000  -0.466 -1.5178  0.6084 -1.2377
  781MOL0     H 7773   6.123   1.026  -0.416  0.1584  1.3737  1.4041
  781MOL0     H 7774   6.134   0.609  -0.368  1.3112 -0.7834  3.1646
  781MOL0     H 7775   6.503   1.574  -0.128  0.7473 -0.6439 -1.4843
  781MOL0     H 7776   6.779   1.745  -0.001 -0.6316  0.4149  0.1917
  781MOL0     H 7777   6.803   1.684  -0.158  0.2862 -0.0083  0.8762
  781MOL0     H 7778   6.646   1.753  -0.124 -0.7009  0.3281 -1.0664
  782MOL0     O 7779   5.383   0.826  10.456  0.0470 -0.9627  0.1653
  782MOL0     C 7780   5.370   0.943  10.486 -0.7563 -0.4833  0.6179
  782MOL0     O 7781   5.473   1.033  10.509 -0.6729 -0.1352  0.4235
  782MOL0     C 7782   5.595   0.985  10.517  0.9509  0.0137 -0.4986
  782MOL0     C 7783   5.656   0.966  10.393  0.8512 -0.1454 -0.0538
  782MOL0     C 7784   5.792   0.927  10.384  0.0494  0.8460 -0.4937
  782MOL0     C 7785   5.869   0.918  10.501  0.7619 -0.1366 -0.1205
  782MOL0     O 7786   6.000   0.884  10.487 -0.4514  0.8131 -0.1523
  782MOL0     C 7787   6.067   0.836  10.599 -0.4691 -0.6777  0.8523
  782MOL0     C 7788   6.182   0.750  10.543 -0.5006  0.2302  0.0152
  782MOL0     C 7789   6.248   0.661  10.643  0.4263 -0.3737 -0.2345
  782MOL0     C 7790   6.363   0.584  10.572  0.1615  0.2982  0.1614
  782MOL0     C 7791   6.471   0.519  10.655  0.1092  0.4186  0.6213
  782MOL0     C 7792   6.548   0.623  10.730 -0.4429 -0.1313  0.9649
  782MOL0     C 7793   6.687   0.576  10.774 -0.6505 -0.8057  0.1242
  782MOL0     C 7794   6.742   0.675  10.874 -0.0255 -0.0343  1.2704
  782MOL0     N 7795   6.887   0.642  10.891 -0.2103 -0.2339 -0.6449
  782MOL0     C 7796   6.945   0.523  10.893 -0.3430 -0.0557  0.2292
  782MOL0     C 7797   7.079   0.549  10.877  0.0973  0.0376  0.6257
  782MOL0     C 7798   7.194   0.446  10.854  0.7926  0.6072  0.4690
  782MOL0     C 7799   7.160   0.366  10.732  0.1188 -0.1685  0.3053
  782MOL0     C 7800   7.284   0.301  10.676  0.4066  0.4695  0.1712
  782MOL0     C 7801   7.253   0.226  10.546 -0.2980  0.0801 -0.0046
  782MOL0     O 7802   7.250   0.306  10.426 -0.6417 -0.6759  0.4401
  782MOL0     C 7803   7.368   0.366  10.397  0.2903  0.6666 -0.5206
  782MOL0     C 7804   7.377   0.500  10.355  1.0653 -0.2698  0.8376
  782MOL0     C 7805   7.498   0.559  10.320 -0.2008  0.0509 -0.0750
  782MOL0     C 7806   7.486   0.700  10.275 -0.7534  0.5167  0.0594
  782MOL0     C 7807   7.614   0.476  10.316 -0.0019 -0.1590 -0.6404
  782MOL0     C 7808   7.754   0.529  10.296 -0.0168  0.4133 -0.2416
  782MOL0     O 7809   7.857   0.439  10.322  0.1204 -0.3791  0.3098
  782MOL0     C 7810   7.983   0.489  10.302  0.3377  1.1872  0.3793
  782MOL0     C 7811   8.043   0.584  10.391  0.0170  1.2381  0.2737
  782MOL0     C 7812   8.177   0.622  10.371  0.1767 -0.1510 -0.5556
  782MOL0     C 7813   8.259   0.576  10.262  0.0546  0.2226 -0.0589
  782MOL0     O 7814   8.393   0.617  10.253  0.2877 -0.2392  0.1917
  782MOL0     C 7815   8.470   0.561  10.140 -0.0528 -0.1307 -0.1528
  782MOL0     C 7816   8.612   0.627  10.116  1.0412  0.5972  1.0556
  782MOL0     C 7817   8.694   0.640  10.244  0.6399  0.1604 -0.1887
  782MOL0     C 7818   8.811   0.723  10.210  0.1039  0.2952  0.4334
  782MOL0     C 7819   8.905   0.722  10.339  0.0392  0.9240  0.0746
  782MOL0     C 7820   9.041   0.802  10.335 -0.2990  0.5733 -0.3137
  782MOL0     C 7821   9.163   0.744  10.416  0.4818  0.7260  0.7161
  782MOL0     C 7822   9.264   0.665  10.333  0.3781 -0.6676 -0.3613
  782MOL0    Cl 7823   9.197   0.517  10.263  0.0473 -0.1101  0.2357
  782MOL0     C 7824   8.194   0.486  10.178 -0.2618 -0.0027  0.2462
  782MOL0     C 7825   8.059   0.446  10.197  0.3050 -0.1589 -0.1047
  782MOL0     O 7826   7.762   0.650  10.261  0.2007 -0.2635 -0.2463
  782MOL0     C 7827   7.603   0.345  10.355  0.4020 -0.2837 -0.0483
  782MOL0     C 7828   7.484   0.286  10.387  0.0137 -0.6254 -0.2723
  782MOL0     N 7829   7.092   0.685  10.878 -0.1826  0.6899 -0.1242
  782MOL0     N 7830   6.976   0.746  10.868 -0.4085  0.2248 -0.4785
  782MOL0     C 7831   5.807   0.945  10.625  0.4053 -0.3632  0.5091
  782MOL0     C 7832   5.667   0.977  10.632 -0.0326 -0.2151 -0.1332
  782MOL0     C 7833   5.240   1.002  10.496  0.1366 -0.7378  0.8267
  782MOL0     C 7834   5.221   1.138  10.456 -0.6943 -0.1867 -0.1420
  782MOL0     C 7835   5.094   1.192  10.472  0.0788  0.3184  0.0912
  782MOL0     C 7836   4.978   1.127  10.524  0.9279 -0.1748  0.2971
  782MOL0     O 7837   4.853   1.182  10.528  0.3555 -0.2100  0.3710
  782MOL0     C 7838   4.735   1.092  10.531 -0.8944 -0.8215 -1.0590
  782MOL0     C 7839   4.605   1.166  10.530  0.4409  0.3766  0.1420
  782MOL0     C 7840   4.546   1.202  10.669 -0.3794 -0.7242  0.6834
  782MOL0     C 7841   4.398   1.242  10.644  0.1108  0.4761 -0.2066
  782MOL0     C 7842   4.323   1.114  10.642  0.3410 -0.5519  0.0171
  782MOL0     C 7843   4.246   1.018  10.639  0.1462 -0.4017  0.6235
  782MOL0     C 7844   5.003   0.995  10.564 -0.3980  0.7155 -0.3724
  782MOL0     C 7845   5.128   0.928  10.546  0.3889 -0.3812 -0.0686
  782MOL0     C 7846   5.142   0.785  10.592 -0.2935  0.3713  0.0492
  782MOL0     H 7847   5.595   0.976  10.304 -1.5119  0.0054  1.4922
  782MOL0     H 7848   5.843   0.921  10.288 -0.0898  1.8158 -0.6419
  782MOL0     H 7849   6.004   0.780  10.668  2.6855 -2.6164  2.4236
  782MOL0     H 7850   6.109   0.920  10.656  1.2190 -0.4877 -0.5852
  782MOL0     H 7851   6.149   0.686  10.461 -0.8379  1.6986 -1.0368
  782MOL0     H 7852   6.249   0.827  10.505 -2.4072  0.6599 -2.6889
  782MOL0     H 7853   6.293   0.715  10.726  0.4828 -1.1731  0.2610
  782MOL0     H 7854   6.181   0.588  10.690 -3.6639  2.4576 -1.0780
  782MOL0     H 7855   6.313   0.498  10.526 -0.4217  0.2737  0.8176
  782MOL0     H 7856   6.413   0.648  10.499 -0.8639  0.6769 -0.2156
  782MOL0     H 7857   6.543   0.468  10.591  1.7136 -1.6875  3.8580
  782MOL0     H 7858   6.422   0.449  10.724 -1.2688  2.7055  2.1058
  782MOL0     H 7859   6.569   0.707  10.664 -3.9334  1.2269  1.3351
  782MOL0     H 7860   6.487   0.655  10.815  1.1490 -2.8744  3.3300
  782MOL0     H 7861   6.756   0.567  10.690  0.4847 -1.5054  1.0876
  782MOL0     H 7862   6.689   0.474  10.815  0.8841  0.0733  2.4835
  782MOL0     H 7863   6.730   0.774  10.829  0.0279  0.5984  2.5997
  782MOL0     H 7864   6.686   0.676  10.968 -0.2912  0.5715  1.1068
  782MOL0     H 7865   6.898   0.425  10.901  1.7874 -1.1954 -0.3282
  782MOL0     H 7866   7.191   0.378  10.940  1.6827 -0.4311 -0.3089
  782MOL0     H 7867   7.292   0.493  10.840 -0.6077  2.7909 -3.1363
  782MOL0     H 7868   7.079   0.295  10.753 -0.9252  0.9585  0.1891
  782MOL0     H 7869   7.127   0.432  10.652 -3.0081 -0.6738  1.0599
  782MOL0     H 7870   7.374   0.361  10.684 -0.9205  3.1837 -3.1066
  782MOL0     H 7871   7.306   0.222  10.749  0.5327  1.0508  0.7715
  782MOL0     H 7872   7.312   0.136  10.526 -0.6560 -0.2340  0.3331
  782MOL0     H 7873   7.162   0.170  10.572  0.1183 -1.4454 -1.6487
  782MOL0     H 7874   7.286   0.559  10.359 -0.4249 -2.1293 -2.1631
  782MOL0     H 7875   7.487   0.778  10.352  0.4056  1.3020 -0.7177
  782MOL0     H 7876   7.385   0.713  10.236 -1.0791  0.3969  0.8368
  782MOL0     H 7877   7.549   0.730  10.191  0.5914  2.4589  1.6581
  782MOL0     H 7878   7.993   0.612  10.483 -2.4346  0.0257 -0.6190
  782MOL0     H 7879   8.226   0.696  10.435  0.4406 -0.9076  0.1344
  782MOL0     H 7880   8.490   0.455  10.156  2.2531  0.3478  0.4205
  782MOL0     H 7881   8.430   0.575  10.039  2.2835 -0.7274 -1.2185
  782MOL0     H 7882   8.660   0.565  10.040  0.2062  2.2631 -0.9001
  782MOL0     H 7883   8.609   0.726  10.070  2.5794  1.0884  1.9133
  782MOL0     H 7884   8.716   0.538  10.275  0.5193 -0.0922 -0.9187
  782MOL0     H 7885   8.643   0.700  10.320 -1.4617 -2.8540  0.9235
  782MOL0     H 7886   8.791   0.830  10.196  0.5745  0.5360  1.4887
  782MOL0     H 7887   8.870   0.679  10.129  0.7173 -0.2763  1.1669
  782MOL0     H 7888   8.854   0.780  10.416 -0.1129  0.5115  0.2853
  782MOL0     H 7889   8.924   0.619  10.370  1.2388  1.7475  2.2464
  782MOL0     H 7890   9.012   0.900  10.375 -4.2405 -0.3181 -0.5914
  782MOL0     H 7891   9.067   0.812  10.229  0.4162 -1.6806 -0.3939
  782MOL0     H 7892   9.115   0.693  10.500 -0.5932 -2.8484 -1.8278
  782MOL0     H 7893   9.226   0.819  10.463  0.5071  0.4797  1.0814
  782MOL0     H 7894   9.348   0.636  10.396 -1.5066 -3.5547  1.0201
  782MOL0     H 7895   9.286   0.725  10.244 -0.8119 -0.3871 -0.4855
  782MOL0     H 7896   8.245   0.457  10.087  0.9131 -0.3937  1.0099
  782MOL0     H 7897   8.022   0.370  10.128  0.8417 -1.3075  0.8365
  782MOL0     H 7898   7.688   0.278  10.349  2.0409  1.7684 -1.1093
  782MOL0     H 7899   7.489   0.180  10.411  3.5701 -0.3894  0.4786
  782MOL0     H 7900   5.861   0.944  10.719  1.0851  1.0513  0.1670
  782MOL0     H 7901   5.629   0.996  10.731  2.3163 -1.5436  1.1029
  782MOL0     H 7902   5.299   1.205  10.420  0.3697 -1.1456  0.3426
  782MOL0     H 7903   5.080   1.294  10.437  1.7875  0.6880  0.4100
  782MOL0     H 7904   4.739   1.019  10.450  0.2765 -3.8935  1.5433
  782MOL0     H 7905   4.744   1.031  10.622  0.5489  0.1549 -0.5005
  782MOL0     H 7906   4.539   1.102  10.471 -0.7780  3.2539 -1.7847
  782MOL0     H 7907   4.620   1.257  10.471 -0.7859 -0.6310 -1.8357
  782MOL0     H 7908   4.556   1.117  10.738  1.4454  0.0627  1.4582
  782MOL0     H 7909   4.594   1.285  10.722  0.7487 -0.0142 -1.3493
  782MOL0     H 7910   4.367   1.301  10.557 -1.2518 -1.4775 -1.1207
  782MOL0     H 7911   4.362   1.297  10.731 -0.4362 -0.3072  0.0695
  782MOL0     H 7912   4.168   0.946  10.654 -0.6932  0.2968 -0.2777
  782MOL0     H 7913   4.928   0.939  10.619 -0.1774  0.0655 -0.7227
  782MOL0     H 7914   5.050   0.759  10.647 -0.5936  0.0820 -0.5852
  782MOL0     H 7915   5.163   0.711  10.515  0.6709 -0.2400  0.8799
  782MOL0     H 7916   5.221   0.779  10.668 -0.7868  0.4405  0.5806
  783MOL0     O 7917   7.605   3.565   8.445  0.1513 -0.2377  0.6766
  783MOL0     C 7918   7.485   3.557   8.468  0.2969 -0.6253 -0.1185
  783MOL0     O 7919   7.432   3.548   8.593 -0.1654  0.1473 -0.1447
  783MOL0     C 7920   7.505   3.511   8.704  0.4158  0.5821  0.7467
  783MOL0     C 7921   7.629   3.439   8.710 -0.3793  0.1187  0.2372
  783MOL0     C 7922   7.694   3.391   8.828 -0.1023  0.3162 -0.2172
  783MOL0     C 7923   7.632   3.414   8.953  0.8432 -0.8174  0.0966
  783MOL0     O 7924   7.705   3.369   9.064 -0.7217  0.5088  0.1199
  783MOL0     C 7925   7.641   3.340   9.187  0.0554  0.0774 -0.3282
  783MOL0     C 7926   7.678   3.197   9.222 -0.3545  0.2603 -0.0677
  783MOL0     C 7927   7.827   3.178   9.258 -0.2185 -0.3840  0.0133
  783MOL0     C 7928   7.853   3.041   9.325 -0.3818 -0.7471 -0.0983
  783MOL0     C 7929   8.007   3.026   9.343  0.5744 -0.1787 -0.7655
  783MOL0     C 7930   8.032   2.885   9.403 -0.5108 -0.6629  0.4860
  783MOL0     C 7931   8.182   2.857   9.424  0.1195  0.1030  0.0635
  783MOL0     C 7932   8.232   2.948   9.536 -0.0786 -0.6061  0.0272
  783MOL0     N 7933   8.367   2.922   9.575  0.5537  0.3344  0.4861
  783MOL0     C 7934   8.413   2.802   9.616  0.3347 -0.3876  1.0530
  783MOL0     C 7935   8.538   2.827   9.665 -0.4294 -0.0714 -0.1119
  783MOL0     C 7936   8.615   2.720   9.728  0.1700  0.7826  0.4428
  783MOL0     C 7937   8.748   2.768   9.771 -0.5823  0.6158 -0.9066
  783MOL0     C 7938   8.831   2.660   9.845 -0.5463  0.5370 -0.3466
  783MOL0     C 7939   8.777   2.577   9.963 -0.0832 -0.7310 -0.0747
  783MOL0     O 7940   8.783   2.437   9.954  0.2544 -0.2085 -0.1387
  783MOL0     C 7941   8.904   2.369   9.956  0.7053 -0.4087 -0.5934
  783MOL0     C 7942   8.893   2.234   9.935 -0.1367 -0.4802  0.7698
  783MOL0     C 7943   9.000   2.139   9.914  0.0267 -1.2377 -0.4462
  783MOL0     C 7944   8.969   2.005   9.870  0.7221  0.1871  0.4820
  783MOL0     C 7945   9.135   2.199   9.935 -0.5035  0.5632  0.8298
  783MOL0     C 7946   9.260   2.117   9.922 -0.2701  0.4928 -0.3449
  783MOL0     O 7947   9.250   1.983   9.948 -0.4694  0.3465  0.2142
  783MOL0     C 7948   9.365   1.908   9.930  0.6853  0.5646 -0.0850
  783MOL0     C 7949   9.474   1.908  10.020 -0.2397  1.1883  0.5228
  783MOL0     C 7950   9.585   1.820  10.002 -0.8323 -0.9796 -0.3144
  783MOL0     C 7951   9.589   1.745   9.892  0.1492  0.3604 -0.1067
  783MOL0     O 7952   9.696   1.657   9.888 -0.0384  0.2902 -0.0334
  783MOL0     C 7953   9.780   1.664   9.772 -0.4077  0.1505  0.1159
  783MOL0     C 7954   9.893   1.559   9.786 -0.0414 -0.1512  0.3090
  783MOL0     C 7955   9.991   1.584   9.899 -0.1990 -0.1067  0.1416
  783MOL0     C 7956  10.056   1.729   9.890 -0.2274  0.1639  0.0533
  783MOL0     C 7957  10.147   1.761  10.013 -0.0917  0.2443  0.6466
  783MOL0     C 7958  10.290   1.712   9.993 -0.7482  0.1340  0.2877
  783MOL0     C 7959  10.386   1.805  10.073 -0.5285 -0.3095 -0.2669
  783MOL0     C 7960  10.514   1.734  10.105  0.4915  0.1054  0.0935
  783MOL0    Cl 7961  10.602   1.694   9.962 -0.2187  0.1150  0.0755
  783MOL0     C 7962   9.480   1.746   9.804 -0.9352 -0.3247 -1.4700
  783MOL0     C 7963   9.368   1.826   9.823  0.1674 -0.7177 -0.8175
  783MOL0     O 7964   9.362   2.175   9.890  0.2773 -0.2019 -0.3373
  783MOL0     C 7965   9.150   2.342   9.961 -0.2321 -0.6538  0.7094
  783MOL0     C 7966   9.033   2.420   9.974 -0.0479  0.3144  0.2332
  783MOL0     N 7967   8.564   2.963   9.644  0.4229  0.6076 -0.1582
  783MOL0     N 7968   8.464   3.020   9.593  0.3259 -0.1397 -0.1887
  783MOL0     C 7969   7.513   3.487   8.958  1.0743  0.3769 -0.3804
  783MOL0     C 7970   7.451   3.539   8.837 -0.1010 -0.1904 -0.0127
  783MOL0     C 7971   7.384   3.569   8.355 -0.2209  0.8628 -0.4602
  783MOL0     C 7972   7.254   3.530   8.391 -0.9841  0.2198  0.6675
  783MOL0     C 7973   7.152   3.534   8.304  0.0203 -0.3529  0.3442
  783MOL0     C 7974   7.168   3.574   8.175 -0.0389 -0.6969 -0.8167
  783MOL0     O 7975   7.060   3.590   8.091 -0.4377  0.2050 -0.2495
  783MOL0     C 7976   7.058   3.679   7.983  0.3250 -0.3066  0.8032
  783MOL0     C 7977   7.051   3.826   8.033 -0.2737 -0.9305  0.1758
  783MOL0     C 7978   7.033   3.926   7.913 -0.0327  0.2236 -0.0535
  783MOL0     C 7979   7.161   3.955   7.841  0.8039 -0.8960  0.9148
  783MOL0     C 7980   7.136   4.065   7.745  0.5129  0.1895 -0.9188
  783MOL0     C 7981   7.098   4.149   7.667  0.6548 -0.5653  0.3136
  783MOL0     C 7982   7.301   3.601   8.135 -0.7118  0.2860 -0.2053
  783MOL0     C 7983   7.413   3.590   8.220 -0.7415  0.3213 -0.3824
  783MOL0     C 7984   7.551   3.620   8.162 -0.1450 -0.4264 -0.0388
  783MOL0     H 7985   7.673   3.402   8.618  0.1400  1.0072  0.1249
  783MOL0     H 7986   7.788   3.337   8.818 -0.4957 -1.0765  2.7319
  783MOL0     H 7987   7.532   3.343   9.195  0.1782  0.3161  1.7534
  783MOL0     H 7988   7.670   3.400   9.273 -1.9306 -2.2863  2.1741
  783MOL0     H 7989   7.619   3.158   9.305  0.5439 -3.1553 -0.8626
  783MOL0     H 7990   7.662   3.133   9.135  0.3090 -0.7578  0.5330
  783MOL0     H 7991   7.894   3.190   9.172 -0.1134  0.0807  0.1577
  783MOL0     H 7992   7.852   3.253   9.332  1.1709 -2.5801  1.9040
  783MOL0     H 7993   7.802   3.016   9.419 -1.5415 -1.3973 -0.8647
  783MOL0     H 7994   7.820   2.963   9.255  0.7723 -1.7856  0.4674
  783MOL0     H 7995   8.035   3.108   9.409 -0.2848 -0.4192 -0.0870
  783MOL0     H 7996   8.065   3.040   9.251 -0.7181  0.7106 -1.4705
  783MOL0     H 7997   7.979   2.877   9.499 -1.9939  0.9687 -0.1618
  783MOL0     H 7998   7.987   2.812   9.336 -0.9894  1.4411 -1.5990
  783MOL0     H 7999   8.245   2.875   9.336  0.4786  1.2121  0.5264
  783MOL0     H 8000   8.199   2.752   9.449  2.2751 -0.3640 -2.8158
  783MOL0     H 8001   8.229   3.052   9.501  1.2841 -0.6855 -0.3864
  783MOL0     H 8002   8.165   2.936   9.621 -1.4567 -1.0227 -1.0772
  783MOL0     H 8003   8.370   2.703   9.603  0.2850 -0.1893 -0.5086
  783MOL0     H 8004   8.637   2.639   9.658  0.2076  0.3461  0.9573
  783MOL0     H 8005   8.557   2.681   9.813  1.5812 -0.4629  0.8783
  783MOL0     H 8006   8.809   2.798   9.685 -0.1717 -1.7755 -1.5434
  783MOL0     H 8007   8.719   2.848   9.839  0.0296  2.1091 -2.3256
  783MOL0     H 8008   8.873   2.589   9.774  0.6164  0.8445  0.0086
  783MOL0     H 8009   8.913   2.721   9.884  1.9464 -1.8665 -1.5557
  783MOL0     H 8010   8.836   2.606  10.051 -0.6415  1.5407 -0.3902
  783MOL0     H 8011   8.678   2.607   9.997  0.6135 -0.6080  1.9981
  783MOL0     H 8012   8.794   2.194   9.915 -0.0339  0.3409 -1.7048
  783MOL0     H 8013   8.869   1.998   9.826  0.1063 -3.1739  2.1108
  783MOL0     H 8014   8.964   1.929   9.948  0.0764  0.8247  1.0781
  783MOL0     H 8015   9.039   1.969   9.794 -2.4742 -0.7605 -2.2752
  783MOL0     H 8016   9.475   1.960  10.115  0.3716  2.5139 -0.1848
  783MOL0     H 8017   9.664   1.833  10.075  0.8822  1.8179 -2.4374
  783MOL0     H 8018   9.722   1.636   9.683 -0.9387  1.5676 -0.0165
  783MOL0     H 8019   9.812   1.767   9.754  1.4978 -0.5729 -0.8559
  783MOL0     H 8020   9.840   1.467   9.812 -1.2615  0.7296  1.0149
  783MOL0     H 8021   9.950   1.547   9.693 -1.6578 -1.3166 -0.5761
  783MOL0     H 8022  10.068   1.506   9.902 -0.4063 -0.3117  2.4745
  783MOL0     H 8023   9.941   1.564   9.994  0.0703  1.7225  0.7050
  783MOL0     H 8024   9.982   1.809   9.885  2.0477  2.4340  0.7339
  783MOL0     H 8025  10.105   1.730   9.792 -1.9562 -3.8846 -1.0878
  783MOL0     H 8026  10.141   1.867  10.037 -0.6469  0.0390  1.4708
  783MOL0     H 8027  10.108   1.714  10.104  0.4646 -2.7564 -0.5493
  783MOL0     H 8028  10.323   1.720   9.889 -1.0320  1.4714  0.2868
  783MOL0     H 8029  10.294   1.607  10.025  0.7750  0.3166  0.7677
  783MOL0     H 8030  10.348   1.830  10.172 -0.6051  3.9080 -1.1945
  783MOL0     H 8031  10.408   1.900  10.024 -1.3027 -1.8755 -4.0612
  783MOL0     H 8032  10.482   1.645  10.161 -1.2624 -0.0791 -1.0927
  783MOL0     H 8033  10.575   1.786  10.179  0.4185 -1.3736  1.2547
  783MOL0     H 8034   9.484   1.683   9.715  2.6684  0.4440 -2.0075
  783MOL0     H 8035   9.288   1.819   9.750  1.0841 -3.5137 -1.6866
  783MOL0     H 8036   9.251   2.383   9.954 -0.2857 -0.8689 -3.2526
  783MOL0     H 8037   9.029   2.525  10.001 -1.0348  0.7904 -1.6054
  783MOL0     H 8038   7.460   3.495   9.052 -1.3549 -0.9057 -1.5485
  783MOL0     H 8039   7.356   3.589   8.849 -1.7885 -3.0547 -0.6618
  783MOL0     H 8040   7.219   3.516   8.493 -2.5965  2.0481  0.4196
  783MOL0     H 8041   7.055   3.515   8.350 -0.6500  0.8922 -0.4941
  783MOL0     H 8042   7.148   3.666   7.922 -1.6955 -1.1200 -2.2068
  783MOL0     H 8043   6.973   3.668   7.915  0.7166  1.7624 -0.0868
  783MOL0     H 8044   7.143   3.849   8.087 -0.3470 -2.0547  0.7957
  783MOL0     H 8045   6.970   3.844   8.105  0.0949 -0.4355  0.4766
  783MOL0     H 8046   6.964   3.882   7.840 -0.2779  0.6172 -0.0620
  783MOL0     H 8047   6.990   4.021   7.945 -1.9587 -0.7125  0.2342
  783MOL0     H 8048   7.186   3.861   7.792 -2.9452 -0.2396 -2.7684
  783MOL0     H 8049   7.239   3.977   7.915  1.7344  1.5523 -0.6877
  783MOL0     H 8050   7.049   4.218   7.601 -0.3267 -1.7040 -0.1911
  783MOL0     H 8051   7.326   3.637   8.036  2.2389 -1.2906 -0.1635
  783MOL0     H 8052   7.609   3.528   8.162  2.2705  0.9577 -2.0561
  783MOL0     H 8053   7.549   3.657   8.059  0.4003  0.9731  0.4271
  783MOL0     H 8054   7.599   3.688   8.233  1.4786  0.0572 -1.5339
  784MOL0     O 8055   0.013   6.827   0.305 -0.2090  0.2581 -0.6169
  784MOL0     C 8056   0.023   6.765   0.412  0.6310  0.5395  0.0663
  784MOL0     O 8057   0.127   6.772   0.503 -0.2497  0.8241 -0.8772
  784MOL0     C 8058   0.247   6.824   0.472 -0.0903 -0.2155 -0.5657
  784MOL0     C 8059   0.318   6.826   0.348  0.8282 -0.0137 -0.6506
  784MOL0     C 8060   0.451   6.886   0.349  0.1354  1.0046 -0.3201
  784MOL0     C 8061   0.510   6.934   0.471  0.3866 -1.2061  0.7210
  784MOL0     O 8062   0.635   6.996   0.467  0.2463  0.4193 -0.4502
  784MOL0     C 8063   0.747   6.919   0.422 -1.0355  0.2405  0.2105
  784MOL0     C 8064   0.881   6.990   0.464  0.1854  0.2692 -0.1931
  784MOL0     C 8065   1.009   6.936   0.407  0.5695  1.1406  0.8567
  784MOL0     C 8066   1.013   6.970   0.262 -0.4661  0.0081  0.1919
  784MOL0     C 8067   1.155   6.926   0.198 -0.1808  1.1198  0.2980
  784MOL0     C 8068   1.188   6.992   0.067 -0.1418  0.4433  0.2734
  784MOL0     C 8069   1.330   6.948   0.010  0.3734  0.8303  0.1123
  784MOL0     C 8070   1.318   6.813  -0.068 -0.5365  0.8088  0.2841
  784MOL0     N 8071   1.454   6.762  -0.119  0.2619  0.3428  0.3403
  784MOL0     C 8072   1.509   6.781  -0.245 -0.4566 -0.0118  0.1397
  784MOL0     C 8073   1.643   6.751  -0.228  0.1797  0.3393 -0.8298
  784MOL0     C 8074   1.759   6.773  -0.316  0.0050  0.1383  0.3751
  784MOL0     C 8075   1.876   6.847  -0.248  0.1869 -0.1390  0.2968
  784MOL0     C 8076   1.991   6.852  -0.345 -0.4125  0.2628  1.1131
  784MOL0     C 8077   2.088   6.947  -0.288 -0.1805  0.2499 -1.1423
  784MOL0     O 8078   2.185   6.971  -0.393  0.3298 -0.0114  0.0292
  784MOL0     C 8079   2.294   7.034  -0.350  0.6221 -0.7937  0.3645
  784MOL0     C 8080   2.301   7.097  -0.229 -0.6123 -0.4203 -0.0883
  784MOL0     C 8081   2.429   7.132  -0.180  0.2237 -0.6072 -0.1326
  784MOL0     C 8082   2.430   7.195  -0.039  0.4083 -0.1852 -0.5128
  784MOL0     C 8083   2.544   7.133  -0.262 -1.3451 -0.3512 -0.2663
  784MOL0     C 8084   2.677   7.190  -0.216  0.6092  0.4805 -0.1622
  784MOL0     O 8085   2.786   7.134  -0.276 -0.1905 -0.2537  0.3621
  784MOL0     C 8086   2.916   7.153  -0.238 -0.1116 -0.2155  0.2311
  784MOL0     C 8087   2.964   7.230  -0.122  0.3576  0.3127  0.4232
  784MOL0     C 8088   3.094   7.226  -0.080  0.1580  0.0937 -0.0754
  784MOL0     C 8089   3.184   7.153  -0.155 -0.1672 -0.8133  0.6377
  784MOL0     O 8090   3.318   7.167  -0.120 -0.2504  0.1656 -0.4974
  784MOL0     C 8091   3.424   7.108  -0.196  0.4069 -0.8171  0.0361
  784MOL0     C 8092   3.454   6.977  -0.146 -0.1428  0.6297  0.3693
  784MOL0     C 8093   3.563   6.896  -0.229 -0.0168  0.3091 -0.2194
  784MOL0     C 8094   3.703   6.914  -0.170 -0.0944 -1.1089  0.1206
  784MOL0     C 8095   3.811   6.848  -0.261 -0.5745 -0.0614 -0.2714
  784MOL0     C 8096   3.952   6.889  -0.225  0.3098 -0.8410 -0.5590
  784MOL0     C 8097   3.964   7.041  -0.236 -0.2284 -0.0705  0.0290
  784MOL0     C 8098   4.116   7.078  -0.241  0.2137 -0.9421 -0.6710
  784MOL0    Cl 8099   4.194   6.992  -0.098  0.0927  0.0987  0.0045
  784MOL0     C 8100   3.139   7.072  -0.259  0.2808  0.3154  0.2034
  784MOL0     C 8101   3.009   7.077  -0.303  0.8123  0.9216 -0.8945
  784MOL0     O 8102   2.683   7.281  -0.137  0.5506  0.1737  0.3532
  784MOL0     C 8103   2.539   7.081  -0.389  0.0791 -0.4566  0.1323
  784MOL0     C 8104   2.414   7.037  -0.429  1.9222 -0.1062  0.8618
  784MOL0     N 8105   1.650   6.693  -0.100 -0.4519  0.9081  0.2444
  784MOL0     N 8106   1.535   6.687  -0.044  0.5615  0.5200 -0.9257
  784MOL0     C 8107   0.433   6.934   0.580  0.5936 -0.3125 -0.2023
  784MOL0     C 8108   0.308   6.868   0.589 -0.8640 -0.0991  0.4324
  784MOL0     C 8109  -0.080   6.666   0.440  0.3209  0.2428 -0.1190
  784MOL0     C 8110  -0.122   6.655   0.577  0.1552 -0.1627 -0.2335
  784MOL0     C 8111  -0.212   6.548   0.608 -0.3552 -0.4942 -0.4364
  784MOL0     C 8112  -0.267   6.461   0.511  0.8265  0.0016 -0.0009
  784MOL0     O 8113  -0.352   6.355   0.545  0.2486  0.1514  0.6375
  784MOL0     C 8114  -0.391   6.259   0.443 -0.6318  0.2818 -0.5093
  784MOL0     C 8115  -0.465   6.144   0.508 -0.0568 -0.3283  0.4396
  784MOL0     C 8116  -0.519   6.040   0.402 -0.6682 -0.0571  0.2421
  784MOL0     C 8117  -0.581   5.919   0.471 -0.2990 -0.6859 -0.7016
  784MOL0     C 8118  -0.491   5.807   0.493  0.4085  0.4064 -0.2509
  784MOL0     C 8119  -0.426   5.708   0.527  0.4814  0.7149 -0.3641
  784MOL0     C 8120  -0.232   6.485   0.382  0.2187 -0.3277  0.0509
  784MOL0     C 8121  -0.134   6.584   0.343 -0.9291  0.0062 -0.3793
  784MOL0     C 8122  -0.092   6.596   0.199  0.1179 -0.6485 -0.0165
  784MOL0     H 8123   0.273   6.793   0.255  0.2738 -2.8242  0.4842
  784MOL0     H 8124   0.499   6.884   0.252  2.6048  0.7222  0.8419
  784MOL0     H 8125   0.752   6.909   0.313 -0.9810  0.8884  0.1528
  784MOL0     H 8126   0.742   6.817   0.463 -1.2344 -0.9430 -2.5218
  784MOL0     H 8127   0.878   7.092   0.426  2.7193 -0.3935 -2.4414
  784MOL0     H 8128   0.880   6.987   0.574  1.0354 -0.1332 -0.1857
  784MOL0     H 8129   1.099   6.976   0.455  1.1912  0.4948  0.2507
  784MOL0     H 8130   1.015   6.827   0.416  0.2994  1.0114 -0.3775
  784MOL0     H 8131   0.935   6.919   0.205  1.3418 -2.4389 -0.2866
  784MOL0     H 8132   1.007   7.077   0.244  1.2048 -0.2435 -2.4762
  784MOL0     H 8133   1.158   6.817   0.189  0.5076  1.0879  0.8127
  784MOL0     H 8134   1.244   6.938   0.261  1.1150  0.3895 -1.3286
  784MOL0     H 8135   1.111   6.964  -0.005 -1.0945 -1.3267  1.8841
  784MOL0     H 8136   1.182   7.100   0.082 -2.0612  0.3284  0.5821
  784MOL0     H 8137   1.396   6.931   0.095 -1.5071 -1.1501  1.2636
  784MOL0     H 8138   1.363   7.028  -0.058 -1.3768 -0.8008 -2.8967
  784MOL0     H 8139   1.292   6.737   0.006  0.2863  0.1718 -0.0669
  784MOL0     H 8140   1.247   6.814  -0.151 -0.0127 -1.8264 -0.2749
  784MOL0     H 8141   1.468   6.837  -0.329  0.7291  1.5069  0.5091
  784MOL0     H 8142   1.736   6.830  -0.406 -1.3308 -0.1603  0.5006
  784MOL0     H 8143   1.787   6.672  -0.347 -2.4225  0.1001 -2.0756
  784MOL0     H 8144   1.854   6.948  -0.215 -0.2979 -0.7334  1.8612
  784MOL0     H 8145   1.900   6.785  -0.161 -2.0439 -1.4860  0.0445
  784MOL0     H 8146   2.031   6.750  -0.356  1.7481  0.9552  2.0778
  784MOL0     H 8147   1.958   6.892  -0.441 -0.3465  1.1711  1.4621
  784MOL0     H 8148   2.038   7.038  -0.253  1.5409  0.7096  0.2711
  784MOL0     H 8149   2.133   6.894  -0.204  1.0500 -1.1183 -2.6032
  784MOL0     H 8150   2.217   7.110  -0.162 -0.5839  1.0271 -0.3065
  784MOL0     H 8151   2.420   7.303  -0.047 -0.4835 -0.2432 -0.3351
  784MOL0     H 8152   2.517   7.163   0.019 -0.1672  3.3493  2.6670
  784MOL0     H 8153   2.346   7.155   0.018 -0.0697 -0.4955 -1.4133
  784MOL0     H 8154   2.890   7.275  -0.058 -2.0026 -0.6439 -1.4985
  784MOL0     H 8155   3.127   7.279   0.009 -3.2117  2.1139  0.1468
  784MOL0     H 8156   3.402   7.105  -0.303  0.7274 -2.7364 -0.0085
  784MOL0     H 8157   3.510   7.175  -0.189  1.4476 -1.9961 -1.0522
  784MOL0     H 8158   3.487   6.975  -0.041  1.1387 -0.6948 -0.0269
  784MOL0     H 8159   3.359   6.925  -0.156  0.1024  0.4802 -1.5781
  784MOL0     H 8160   3.566   6.920  -0.336  0.5364 -1.1048 -0.5455
  784MOL0     H 8161   3.544   6.789  -0.221  0.5047  0.0505 -2.0819
  784MOL0     H 8162   3.722   6.875  -0.070  0.4275  0.4435  0.6565
  784MOL0     H 8163   3.724   7.022  -0.168  0.6097 -1.2422  1.5638
  784MOL0     H 8164   3.805   6.739  -0.258 -2.2761 -0.0308 -1.4335
  784MOL0     H 8165   3.782   6.871  -0.364 -3.7458 -3.8384 -0.4480
  784MOL0     H 8166   4.026   6.837  -0.286  1.4160 -1.5872  1.3203
  784MOL0     H 8167   3.964   6.854  -0.122 -1.8528  1.9488  0.8067
  784MOL0     H 8168   3.920   7.089  -0.148 -0.4573  1.1642 -0.7329
  784MOL0     H 8169   3.919   7.079  -0.328  1.3643  2.4598  0.1973
  784MOL0     H 8170   4.135   7.186  -0.238 -1.4198 -0.6580  0.9275
  784MOL0     H 8171   4.162   7.044  -0.335 -0.4785 -0.9483 -1.0141
  784MOL0     H 8172   3.220   7.012  -0.301  1.0627 -0.4184  2.6105
  784MOL0     H 8173   2.974   7.011  -0.381  0.1433 -2.4221  1.9733
  784MOL0     H 8174   2.625   7.064  -0.452 -0.7094 -0.5599 -0.9430
  784MOL0     H 8175   2.398   6.995  -0.528 -1.4685  0.7658  0.9303
  784MOL0     H 8176   0.478   6.978   0.668  0.2909  0.9084 -0.6285
  784MOL0     H 8177   0.257   6.843   0.682 -1.8447  1.6176  0.4221
  784MOL0     H 8178  -0.080   6.713   0.659  0.0284 -0.2549 -0.1041
  784MOL0     H 8179  -0.237   6.543   0.714  1.2383 -1.1448 -0.0613
  784MOL0     H 8180  -0.453   6.304   0.365 -0.8164  1.2767  0.1926
  784MOL0     H 8181  -0.299   6.220   0.399  1.9183  3.2010  1.7413
  784MOL0     H 8182  -0.547   6.186   0.567  2.1412  2.7365  1.5836
  784MOL0     H 8183  -0.395   6.095   0.576  0.2295  0.1221  0.4779
  784MOL0     H 8184  -0.588   6.082   0.328  1.7679 -0.7014 -2.5668
  784MOL0     H 8185  -0.433   6.014   0.340  0.3072  0.7473  1.2207
  784MOL0     H 8186  -0.669   5.881   0.417  0.4736 -1.2565 -1.5887
  784MOL0     H 8187  -0.615   5.950   0.570 -0.5113 -3.1685  0.0767
  784MOL0     H 8188  -0.368   5.621   0.552  0.4903 -0.0600 -2.8134
  784MOL0     H 8189  -0.270   6.423   0.301 -0.8390  1.1555 -0.6444
  784MOL0     H 8190  -0.141   6.523   0.133  2.4898 -2.5684  0.2134
  784MOL0     H 8191  -0.115   6.693   0.154  0.5612  0.1298  1.3986
  784MOL0     H 8192   0.012   6.571   0.175  0.3754 -0.0421  0.4646
  785MOL0     O 8193   4.760  10.630   6.122  0.3396 -0.0144  0.3349
  785MOL0     C 8194   4.693  10.534   6.152 -0.0440  0.4057 -0.4031
  785MOL0     O 8195   4.731  10.442   6.238 -0.2963  0.0881 -0.4583
  785MOL0     C 8196   4.861  10.427   6.281  0.3608 -0.0970  0.4298
  785MOL0     C 8197   4.889  10.354   6.398 -0.0485 -0.0868  0.3026
  785MOL0     C 8198   5.026  10.317   6.430  0.2883 -0.0566 -0.6685
  785MOL0     C 8199   5.128  10.342   6.348  0.2155 -0.1763 -0.3253
  785MOL0     O 8200   5.249  10.301   6.390 -0.0169  0.2890  0.0006
  785MOL0     C 8201   5.344  10.394   6.419 -0.4901 -0.5147  0.3543
  785MOL0     C 8202   5.456  10.353   6.327 -1.1174 -0.1159  0.2799
  785MOL0     C 8203   5.583  10.430   6.332 -0.4642 -0.6105 -0.3159
  785MOL0     C 8204   5.571  10.579   6.306  0.3049  0.5367  0.4617
  785MOL0     C 8205   5.706  10.637   6.260  0.0908 -0.2497  0.5811
  785MOL0     C 8206   5.837  10.590   6.335 -0.3782  0.1298  0.1308
  785MOL0     C 8207   5.955  10.677   6.296  0.5291 -0.3765  0.0108
  785MOL0     C 8208   6.074  10.634   6.374  0.5105  0.7790  0.5145
  785MOL0     N 8209   6.178  10.724   6.329 -0.4095  0.8511 -0.3154
  785MOL0     C 8210   6.186  10.855   6.347  0.1410  0.3043  0.1166
  785MOL0     C 8211   6.291  10.891   6.268 -0.0279 -1.0387  0.4149
  785MOL0     C 8212   6.338  11.035   6.256 -0.0403  0.0915 -0.0836
  785MOL0     C 8213   6.419  11.080   6.382  0.3110  0.4225  0.1516
  785MOL0     C 8214   6.469  11.224   6.367  0.3957 -0.0171 -0.1323
  785MOL0     C 8215   6.606  11.229   6.302 -0.5069  0.6752  0.4338
  785MOL0     O 8216   6.594  11.205   6.163 -0.0918  0.2328  0.4142
  785MOL0     C 8217   6.709  11.159   6.109  0.5903  0.3983  0.7603
  785MOL0     C 8218   6.837  11.194   6.143  0.1023 -0.2235  0.1581
  785MOL0     C 8219   6.950  11.150   6.070  0.3308 -0.2182 -0.3172
  785MOL0     C 8220   7.092  11.194   6.112 -0.4320 -0.2906 -0.1766
  785MOL0     C 8221   6.934  11.075   5.951  1.6911  1.0573 -0.2589
  785MOL0     C 8222   7.032  11.034   5.857 -0.4694  0.8070 -0.1388
  785MOL0     O 8223   6.990  10.994   5.732  0.8349 -0.8616  0.0261
  785MOL0     C 8224   7.072  10.924   5.653  0.7771 -0.5519  1.0182
  785MOL0     C 8225   7.031  10.801   5.597  0.3289 -0.0902  0.4291
  785MOL0     C 8226   7.126  10.742   5.512  0.6127 -0.9306  0.7363
  785MOL0     C 8227   7.246  10.804   5.471  0.2178  0.2660  0.5310
  785MOL0     O 8228   7.320  10.735   5.378  0.1654 -0.1530  0.6837
  785MOL0     C 8229   7.447  10.673   5.426  0.8079 -0.2182 -0.2040
  785MOL0     C 8230   7.414  10.556   5.517  0.5168 -0.1641  0.1056
  785MOL0     C 8231   7.540  10.515   5.594  0.2064 -0.6421  0.9498
  785MOL0     C 8232   7.523  10.398   5.683  0.4722 -0.8101  0.0742
  785MOL0     C 8233   7.512  10.274   5.601  0.3856  0.1931 -0.4138
  785MOL0     C 8234   7.536  10.148   5.681 -0.2883  0.4548  0.4856
  785MOL0     C 8235   7.409  10.098   5.751  0.5065  0.1931 -0.1918
  785MOL0     C 8236   7.441   9.966   5.823  0.9248  0.8500 -0.2806
  785MOL0    Cl 8237   7.511   9.977   5.990 -0.1416 -0.1470 -0.2197
  785MOL0     C 8238   7.279  10.930   5.518  0.8911  0.0495 -0.5893
  785MOL0     C 8239   7.188  10.994   5.604 -0.3278 -0.1068  0.1283
  785MOL0     O 8240   7.138  11.005   5.904  0.2583  0.2044 -0.6990
  785MOL0     C 8241   6.795  11.045   5.919 -0.6337  0.3000 -0.1667
  785MOL0     C 8242   6.686  11.085   5.992  0.1137  0.1468 -0.4503
  785MOL0     N 8243   6.346  10.779   6.205 -0.9553 -0.4356  0.0066
  785MOL0     N 8244   6.269  10.681   6.238 -0.0115  0.3477 -0.0253
  785MOL0     C 8245   5.106  10.416   6.233  0.6418  1.1366  0.0003
  785MOL0     C 8246   4.972  10.452   6.196  0.1111 -0.0624 -0.2835
  785MOL0     C 8247   4.553  10.529   6.084  0.1795  0.4133  0.9192
  785MOL0     C 8248   4.522  10.627   5.994  1.1343 -0.1575 -0.3707
  785MOL0     C 8249   4.413  10.619   5.907 -0.3629  0.4743  1.4834
  785MOL0     C 8250   4.319  10.519   5.925 -0.0542 -0.3852 -0.0340
  785MOL0     O 8251   4.211  10.519   5.844 -0.1207 -0.7458  0.3133
  785MOL0     C 8252   4.084  10.484   5.900  0.4119 -0.7861 -0.4876
  785MOL0     C 8253   3.984  10.445   5.791 -0.7346 -0.2358 -0.3405
  785MOL0     C 8254   3.839  10.425   5.833 -0.0366  0.2074  0.4001
  785MOL0     C 8255   3.807  10.274   5.844  0.1738  0.1329 -0.1894
  785MOL0     C 8256   3.676  10.255   5.899  0.2520  0.2365 -1.0301
  785MOL0     C 8257   3.561  10.251   5.940 -0.2896 -0.1917 -0.1259
  785MOL0     C 8258   4.343  10.424   6.028 -1.0489  0.1233  0.3706
  785MOL0     C 8259   4.460  10.428   6.105 -0.2673  0.5180  0.1471
  785MOL0     C 8260   4.478  10.326   6.213 -0.1999 -0.5395 -0.1594
  785MOL0     H 8261   4.810  10.318   6.464 -0.8576 -0.0437 -0.6094
  785MOL0     H 8262   5.049  10.264   6.522 -0.3538  0.5943 -0.1319
  785MOL0     H 8263   5.366  10.380   6.525  3.0939  2.5913  0.2188
  785MOL0     H 8264   5.309  10.497   6.407  0.6918 -0.2728 -1.3959
  785MOL0     H 8265   5.481  10.248   6.344 -1.6293 -0.1688  0.7391
  785MOL0     H 8266   5.426  10.354   6.222  4.3032 -1.1589 -1.5985
  785MOL0     H 8267   5.627  10.412   6.431  0.2182 -0.1846 -0.5422
  785MOL0     H 8268   5.650  10.388   6.257  0.8493  2.2206 -0.8328
  785MOL0     H 8269   5.494  10.585   6.228 -0.1183 -1.3799  0.6986
  785MOL0     H 8270   5.535  10.634   6.394  0.0293 -0.7639  1.1819
  785MOL0     H 8271   5.708  10.746   6.268  4.6749  0.3969 -4.1048
  785MOL0     H 8272   5.723  10.615   6.155  0.1117  1.2000  0.2688
  785MOL0     H 8273   5.820  10.606   6.442  2.4463  0.0057  0.6625
  785MOL0     H 8274   5.865  10.486   6.316  4.8277  1.0261  1.4196
  785MOL0     H 8275   5.936  10.781   6.326 -0.4690 -0.2162 -1.0906
  785MOL0     H 8276   5.960  10.670   6.187 -0.4534 -1.4280  0.0176
  785MOL0     H 8277   6.051  10.655   6.479  0.2924 -3.1074  1.3934
  785MOL0     H 8278   6.098  10.530   6.352 -1.7381  0.4508 -0.7861
  785MOL0     H 8279   6.124  10.920   6.408  2.4495  1.1858  1.6678
  785MOL0     H 8280   6.258  11.108   6.243  1.2530  1.3143 -1.7536
  785MOL0     H 8281   6.404  11.043   6.169 -1.7103  2.6465 -1.2230
  785MOL0     H 8282   6.350  11.073   6.466 -1.6080 -0.2968 -1.4017
  785MOL0     H 8283   6.498  11.011   6.414 -1.6796 -0.5745  3.3682
  785MOL0     H 8284   6.391  11.280   6.315 -1.4270 -0.4925  1.9566
  785MOL0     H 8285   6.478  11.267   6.467  1.8011  0.0809 -0.2796
  785MOL0     H 8286   6.650  11.327   6.324  0.6625  0.4689 -0.8540
  785MOL0     H 8287   6.672  11.156   6.352 -0.9636  1.0602  1.6364
  785MOL0     H 8288   6.844  11.260   6.229 -5.0959 -0.5381  1.1683
  785MOL0     H 8289   7.158  11.108   6.129  2.6039  1.7628 -0.7057
  785MOL0     H 8290   7.107  11.246   6.207  2.5871 -1.5003  0.1211
  785MOL0     H 8291   7.144  11.246   6.030  0.0015 -1.0076 -0.3599
  785MOL0     H 8292   6.937  10.759   5.631 -0.9068  1.2885 -1.1237
  785MOL0     H 8293   7.108  10.641   5.476 -0.0687 -0.3273 -0.6518
  785MOL0     H 8294   7.501  10.629   5.341  2.3815 -1.0456  1.1702
  785MOL0     H 8295   7.504  10.750   5.480 -1.3634  1.8641 -0.7232
  785MOL0     H 8296   7.347  10.588   5.597  0.7145 -0.4140  0.3749
  785MOL0     H 8297   7.374  10.469   5.464 -0.5361 -0.1621  0.8766
  785MOL0     H 8298   7.584  10.590   5.660  1.3851 -1.8374  1.5898
  785MOL0     H 8299   7.614  10.488   5.518 -2.0370  0.3006 -1.7263
  785MOL0     H 8300   7.428  10.407   5.736  0.0229 -4.3744  0.0999
  785MOL0     H 8301   7.604  10.395   5.757 -0.7326  1.3183  1.6002
  785MOL0     H 8302   7.417  10.267   5.545  0.0125 -2.0332  0.4137
  785MOL0     H 8303   7.592  10.276   5.527  0.4034  0.5422 -0.3879
  785MOL0     H 8304   7.624  10.150   5.746 -1.4631  0.2277  2.1644
  785MOL0     H 8305   7.559  10.065   5.613  2.2898  1.8972 -0.5139
  785MOL0     H 8306   7.332  10.079   5.676 -1.2951  3.2525  0.6974
  785MOL0     H 8307   7.370  10.170   5.823  1.5797  0.1442  0.4620
  785MOL0     H 8308   7.514   9.901   5.774 -0.8333 -2.8303  1.5947
  785MOL0     H 8309   7.350   9.906   5.828  1.1108  0.6304  0.9993
  785MOL0     H 8310   7.377  10.974   5.502  1.4672 -0.2146  1.8711
  785MOL0     H 8311   7.202  11.092   5.647 -0.4255 -1.1844  2.8535
  785MOL0     H 8312   6.767  10.980   5.836 -0.7901  0.5804 -0.3357
  785MOL0     H 8313   6.588  11.061   5.953  0.0958 -0.7410  0.1324
  785MOL0     H 8314   5.177  10.446   6.157 -0.0137 -0.2635 -1.2339
  785MOL0     H 8315   4.968  10.501   6.099  0.7080 -1.6410 -1.1448
  785MOL0     H 8316   4.586  10.711   5.970  0.8574  0.6454  1.4892
  785MOL0     H 8317   4.408  10.688   5.823  0.6249 -0.3848  0.7035
  785MOL0     H 8318   4.087  10.404   5.974 -3.0740  0.3187  1.0139
  785MOL0     H 8319   4.040  10.576   5.939 -0.3284 -0.4560 -2.0353
  785MOL0     H 8320   4.015  10.354   5.739  1.0821  2.1178 -3.7670
  785MOL0     H 8321   3.977  10.527   5.719 -0.7022 -0.2365 -0.3438
  785MOL0     H 8322   3.825  10.481   5.926 -0.8628 -1.4438  1.3158
  785MOL0     H 8323   3.770  10.473   5.764  1.4101  0.4061 -0.9742
  785MOL0     H 8324   3.872  10.215   5.909 -0.3633 -0.0750  0.1664
  785MOL0     H 8325   3.817  10.230   5.745 -0.3692 -0.5184  0.0404
  785MOL0     H 8326   3.458  10.243   5.966 -0.8036  1.5973 -1.3898
  785MOL0     H 8327   4.275  10.340   6.044 -1.3728  0.1594 -0.7741
  785MOL0     H 8328   4.498  10.370   6.311 -0.7782  2.2118 -1.1802
  785MOL0     H 8329   4.386  10.269   6.228 -0.1647 -1.3979 -2.7029
  785MOL0     H 8330   4.575  10.276   6.201  0.0091 -0.8726  2.4407
  786MOL0     O 8331   8.061   9.841   4.698 -0.8382  0.0327  0.2764
  786MOL0     C 8332   8.022   9.796   4.595  0.9016  0.8370  0.3593
  786MOL0     O 8333   8.092   9.720   4.499  0.2162 -0.2760 -0.1649
  786MOL0     C 8334   8.211   9.672   4.537  0.7337  0.0979  0.3422
  786MOL0     C 8335   8.316   9.746   4.590 -0.7614  0.6416 -0.2317
  786MOL0     C 8336   8.443   9.688   4.610 -0.0989  0.2072 -0.7904
  786MOL0     C 8337   8.478   9.555   4.557  0.3279 -0.4234  0.3084
  786MOL0     O 8338   8.605   9.494   4.558 -0.2297  0.3818  0.0491
  786MOL0     C 8339   8.692   9.527   4.660 -0.1027  0.2145  0.5712
  786MOL0     C 8340   8.821   9.439   4.655 -0.2953 -0.0353  0.0874
  786MOL0     C 8341   8.912   9.469   4.534 -0.5493  0.2279  0.8016
  786MOL0     C 8342   8.846   9.460   4.392 -0.3023 -0.3981 -0.5706
  786MOL0     C 8343   8.955   9.489   4.285 -0.5803  0.5849 -0.0463
  786MOL0     C 8344   8.914   9.503   4.136  0.3672  0.6372  0.2846
  786MOL0     C 8345   9.044   9.514   4.054  0.1017 -0.0487  0.2793
  786MOL0     C 8346   8.999   9.501   3.908  0.0478  1.3368 -0.9764
  786MOL0     N 8347   8.973   9.358   3.863  0.3411  0.2863  0.3136
  786MOL0     C 8348   9.061   9.263   3.819 -0.0620  0.0738 -0.4683
  786MOL0     C 8349   8.987   9.155   3.783  0.0878  0.7003 -0.1488
  786MOL0     C 8350   9.029   9.025   3.729 -0.9963  0.3400 -0.1818
  786MOL0     C 8351   9.179   8.994   3.759  0.9510 -0.3592 -0.3894
  786MOL0     C 8352   9.211   8.848   3.751 -0.8620 -0.9472 -0.1499
  786MOL0     C 8353   9.358   8.812   3.727  0.9283  0.6335 -0.9878
  786MOL0     O 8354   9.418   8.788   3.856 -0.2494 -0.4997 -0.3901
  786MOL0     C 8355   9.555   8.776   3.863  0.3568  0.3212 -0.1842
  786MOL0     C 8356   9.610   8.757   3.991  0.3016  0.1010  0.2728
  786MOL0     C 8357   9.744   8.737   4.014  0.1917  0.0514 -0.1766
  786MOL0     C 8358   9.783   8.708   4.164 -0.0377 -0.3692  0.2727
  786MOL0     C 8359   9.840   8.745   3.911 -0.1819  0.2109 -0.0391
  786MOL0     C 8360   9.987   8.737   3.928  0.2963 -0.5122 -0.0427
  786MOL0     O 8361  10.062   8.766   3.822 -0.0103 -0.0372 -0.0692
  786MOL0     C 8362  10.193   8.777   3.827 -0.2368  0.6148  1.7007
  786MOL0     C 8363  10.272   8.691   3.894 -0.1287 -0.0655  0.5013
  786MOL0     C 8364  10.414   8.715   3.897 -0.1327  0.2251  0.4116
  786MOL0     C 8365  10.467   8.816   3.825 -0.0707 -0.7298 -0.3236
  786MOL0     O 8366  10.604   8.829   3.823  0.5282 -0.6188 -0.0139
  786MOL0     C 8367  10.654   8.951   3.868  0.0577 -0.2569 -0.5962
  786MOL0     C 8368  10.801   8.949   3.909 -0.4001  0.8152  0.2944
  786MOL0     C 8369  10.846   9.075   3.978  0.0277 -0.1307 -0.5928
  786MOL0     C 8370  11.005   9.067   3.999  0.3086  0.6607 -0.0503
  786MOL0     C 8371  11.052   8.949   4.090  0.6020  0.1146 -0.7596
  786MOL0     C 8372  10.996   8.957   4.228  0.7269 -0.2322 -0.7070
  786MOL0     C 8373  11.059   8.860   4.337 -0.0857  0.1645 -0.4250
  786MOL0     C 8374  11.060   8.708   4.291  1.1473 -0.2900 -0.0013
  786MOL0    Cl 8375  11.132   8.610   4.423  0.6104 -0.2936 -0.0315
  786MOL0     C 8376  10.380   8.896   3.746 -0.0242 -0.5078  0.4589
  786MOL0     C 8377  10.247   8.879   3.749 -0.0390  0.3807 -0.6268
  786MOL0     O 8378  10.036   8.714   4.037 -0.8107  0.1406 -0.0558
  786MOL0     C 8379   9.786   8.752   3.782 -1.6691  0.7518 -0.2830
  786MOL0     C 8380   9.646   8.766   3.754 -0.7776  1.0100  0.4540
  786MOL0     N 8381   8.856   9.184   3.805 -0.5427  0.1042  0.1381
  786MOL0     N 8382   8.846   9.304   3.855 -0.4286  0.1021  0.6385
  786MOL0     C 8383   8.372   9.487   4.491 -0.3606  0.0866 -0.0769
  786MOL0     C 8384   8.245   9.546   4.478  0.5719  0.2848 -0.6279
  786MOL0     C 8385   7.879   9.814   4.567 -1.0701 -0.6295  0.2082
  786MOL0     C 8386   7.843   9.940   4.526  0.2482  0.5331  0.0728
  786MOL0     C 8387   7.708   9.961   4.513 -0.2173 -0.0829  0.3133
  786MOL0     C 8388   7.609   9.875   4.548  0.0846 -0.6932  0.0352
  786MOL0     O 8389   7.477   9.913   4.543  0.1359  0.0478  0.5826
  786MOL0     C 8390   7.402   9.871   4.657 -0.0930 -0.6057 -0.7951
  786MOL0     C 8391   7.331   9.990   4.715  0.7209 -0.3742 -0.1399
  786MOL0     C 8392   7.271   9.957   4.851 -0.3663  0.3501 -0.1399
  786MOL0     C 8393   7.157   9.854   4.864  0.8875 -0.9102 -0.0498
  786MOL0     C 8394   7.049   9.884   4.764 -0.7257 -0.8393  0.5806
  786MOL0     C 8395   6.972   9.908   4.679  0.2016 -0.6969 -0.1880
  786MOL0     C 8396   7.649   9.748   4.585  0.1166  0.0913  0.3116
  786MOL0     C 8397   7.782   9.713   4.582 -0.1515 -0.4323 -0.6225
  786MOL0     C 8398   7.811   9.568   4.620  0.4921 -0.7301  0.1164
  786MOL0     H 8399   8.293   9.841   4.637 -0.5613 -0.2900  1.9126
  786MOL0     H 8400   8.517   9.748   4.663 -0.0106  0.0059 -0.6872
  786MOL0     H 8401   8.638   9.510   4.754 -2.2554  0.9448 -0.4650
  786MOL0     H 8402   8.718   9.633   4.657 -1.5414  0.5684  0.0020
  786MOL0     H 8403   8.864   9.459   4.753 -0.3921  1.1261 -0.0972
  786MOL0     H 8404   8.784   9.336   4.646  0.8419 -0.3540 -1.5217
  786MOL0     H 8405   8.964   9.565   4.536 -0.5365  0.2610  3.6836
  786MOL0     H 8406   8.996   9.399   4.542 -0.8654 -0.2152  0.3293
  786MOL0     H 8407   8.818   9.357   4.368  1.9134 -0.6370 -2.4316
  786MOL0     H 8408   8.766   9.533   4.383 -0.7315 -0.4853  1.9397
  786MOL0     H 8409   9.027   9.407   4.291 -1.2656 -0.0929 -0.7781
  786MOL0     H 8410   9.020   9.574   4.306 -0.7773  0.6271  0.4170
  786MOL0     H 8411   8.856   9.414   4.111 -0.4892  0.0693  3.7454
  786MOL0     H 8412   8.847   9.590   4.137  0.2154  0.5976  2.9675
  786MOL0     H 8413   9.113   9.431   4.071 -1.4163 -1.7928 -1.5600
  786MOL0     H 8414   9.094   9.608   4.077 -0.7566  0.3019  0.7315
  786MOL0     H 8415   8.925   9.580   3.889 -0.8709  1.1599  1.4528
  786MOL0     H 8416   9.087   9.520   3.846  2.6038 -1.6461  1.3890
  786MOL0     H 8417   9.169   9.270   3.805  0.1817  1.9466  1.7100
  786MOL0     H 8418   9.015   9.025   3.620 -2.4444 -2.3981 -0.0694
  786MOL0     H 8419   8.972   8.941   3.769  1.8981 -2.9632 -2.4598
  786MOL0     H 8420   9.237   9.058   3.691  1.6323  2.3845  2.5535
  786MOL0     H 8421   9.214   9.032   3.855  0.9636  0.0795 -0.5613
  786MOL0     H 8422   9.173   8.799   3.842 -2.2414 -0.8329 -0.6342
  786MOL0     H 8423   9.151   8.814   3.666 -1.0483  1.4918 -1.0488
  786MOL0     H 8424   9.375   8.723   3.665  0.9478  0.6898 -1.0628
  786MOL0     H 8425   9.411   8.889   3.670  1.1928  0.3902 -1.0755
  786MOL0     H 8426   9.537   8.759   4.071  1.1451 -1.1753  1.0994
  786MOL0     H 8427   9.704   8.708   4.238 -0.5814 -2.0249 -0.2655
  786MOL0     H 8428   9.861   8.773   4.205  2.1528 -2.1050 -0.8991
  786MOL0     H 8429   9.829   8.612   4.185 -1.5291 -1.4081 -0.9715
  786MOL0     H 8430  10.223   8.617   3.956 -0.1433  0.1794  0.7813
  786MOL0     H 8431  10.483   8.634   3.919 -1.7340 -1.2994  0.0389
  786MOL0     H 8432  10.630   9.032   3.798 -1.3290 -0.7548 -0.7366
  786MOL0     H 8433  10.616   8.977   3.967  2.6259  2.7457 -0.2380
  786MOL0     H 8434  10.822   8.862   3.972  0.1355  1.2004  0.6610
  786MOL0     H 8435  10.851   8.942   3.812 -1.5293  0.9100 -0.3110
  786MOL0     H 8436  10.804   9.094   4.077 -0.0248  1.0984 -0.8312
  786MOL0     H 8437  10.821   9.159   3.912 -0.9554 -0.2523 -0.3926
  786MOL0     H 8438  11.033   9.161   4.048 -1.7423  0.3508  1.8632
  786MOL0     H 8439  11.051   9.057   3.900 -1.5893 -0.1620 -0.8994
  786MOL0     H 8440  11.029   8.853   4.041 -0.5906 -0.3828  0.6832
  786MOL0     H 8441  11.161   8.955   4.104  0.4816 -1.4673  1.5200
  786MOL0     H 8442  10.889   8.937   4.217 -0.0848  1.7119  2.3181
  786MOL0     H 8443  11.000   9.056   4.274 -0.1493 -1.0416  1.2184
  786MOL0     H 8444  11.014   8.867   4.437  3.5662  1.5162  1.2957
  786MOL0     H 8445  11.160   8.892   4.363  0.7307 -2.6285  0.0978
  786MOL0     H 8446  11.125   8.694   4.204 -0.4903 -1.2883 -1.1301
  786MOL0     H 8447  10.955   8.682   4.269  0.2096  3.3345 -0.4123
  786MOL0     H 8448  10.411   8.979   3.684  0.7034 -1.8883 -1.1139
  786MOL0     H 8449  10.187   8.947   3.689 -2.0421 -3.2182 -3.0695
  786MOL0     H 8450   9.859   8.766   3.703  2.1540 -0.7951  2.6618
  786MOL0     H 8451   9.605   8.767   3.654  2.1816  2.0523 -0.8489
  786MOL0     H 8452   8.406   9.394   4.447  0.2185  0.2742 -0.0316
  786MOL0     H 8453   8.169   9.490   4.424 -0.4737  1.8599 -0.8509
  786MOL0     H 8454   7.921  10.009   4.498  1.8014 -1.9626 -2.2115
  786MOL0     H 8455   7.679  10.052   4.461  2.1936 -0.8305 -2.5837
  786MOL0     H 8456   7.340   9.786   4.625  1.9991 -2.2754 -0.6077
  786MOL0     H 8457   7.465   9.831   4.737  4.3147  1.9861 -2.6027
  786MOL0     H 8458   7.259  10.042   4.652  0.1009  1.3023  1.8598
  786MOL0     H 8459   7.406  10.068   4.729  0.3100  0.2633 -1.3381
  786MOL0     H 8460   7.361   9.931   4.907  0.4845  1.1165 -1.0999
  786MOL0     H 8461   7.231  10.046   4.899  1.2100  0.9570  0.1047
  786MOL0     H 8462   7.117   9.884   4.961  1.3074  2.8435 -0.9026
  786MOL0     H 8463   7.198   9.752   4.863  0.8856 -0.9159 -1.1499
  786MOL0     H 8464   6.893   9.945   4.618 -1.1272 -1.6295  0.9022
  786MOL0     H 8465   7.573   9.673   4.604 -1.0090  0.5319 -2.0889
  786MOL0     H 8466   7.908   9.537   4.580  1.0769  1.6238 -0.4157
  786MOL0     H 8467   7.813   9.555   4.728  1.9039  1.4384  0.4022
  786MOL0     H 8468   7.731   9.512   4.569 -1.4271  1.4449  0.5826
  787MOL0     O 8469  10.344   2.296   3.326 -0.2987 -0.1365  0.4229
  787MOL0     C 8470  10.221   2.317   3.329  0.9624  0.4577  1.1017
  787MOL0     O 8471  10.147   2.335   3.439 -0.3271  0.4450  0.1929
  787MOL0     C 8472  10.207   2.357   3.557 -0.3792 -0.6172  0.2241
  787MOL0     C 8473  10.163   2.266   3.661 -0.0726 -0.0072  0.3232
  787MOL0     C 8474  10.216   2.278   3.785 -0.6452  0.2187 -0.4378
  787MOL0     C 8475  10.308   2.378   3.808  0.2979 -0.1018 -0.1328
  787MOL0     O 8476  10.364   2.386   3.935  0.7517 -0.3887 -0.4988
  787MOL0     C 8477  10.445   2.498   3.974 -0.3977  0.4287 -0.1517
  787MOL0     C 8478  10.508   2.463   4.107 -0.1291  0.0351 -0.4472
  787MOL0     C 8479  10.419   2.518   4.217 -0.6017 -0.3464 -0.3018
  787MOL0     C 8480  10.490   2.526   4.351 -0.6617  0.9297  0.4998
  787MOL0     C 8481  10.396   2.581   4.460  0.4403 -0.7115  0.0698
  787MOL0     C 8482  10.487   2.635   4.565 -1.1670  0.5133 -0.5898
  787MOL0     C 8483  10.406   2.692   4.678  0.0060 -0.4497 -0.9620
  787MOL0     C 8484  10.491   2.784   4.764  0.1965  0.5517  0.0044
  787MOL0     N 8485  10.582   2.708   4.858 -0.1713  1.1374  0.1959
  787MOL0     C 8486  10.556   2.687   4.991  0.4145  0.0887 -0.1528
  787MOL0     C 8487  10.645   2.599   5.030  0.5550  0.1439  0.2431
  787MOL0     C 8488  10.690   2.563   5.170 -0.9898  0.8949 -0.1471
  787MOL0     C 8489  10.838   2.547   5.173 -0.4113  0.3247  0.8608
  787MOL0     C 8490  10.891   2.509   5.311 -0.0365 -0.3975  0.3017
  787MOL0     C 8491  11.035   2.547   5.335 -1.0038  0.3889 -0.1957
  787MOL0     O 8492  11.071   2.509   5.470  0.2585 -0.4596 -0.3557
  787MOL0     C 8493  11.205   2.524   5.515 -0.3759  0.8667  0.3636
  787MOL0     C 8494  11.232   2.460   5.633 -0.3939 -0.0787  0.6006
  787MOL0     C 8495  11.356   2.459   5.700 -0.6801 -0.6977 -1.0506
  787MOL0     C 8496  11.361   2.388   5.837 -0.2531  0.2340  0.1626
  787MOL0     C 8497  11.466   2.521   5.637  0.0757 -0.5382  0.9298
  787MOL0     C 8498  11.608   2.522   5.694 -0.1151  0.2018  0.1127
  787MOL0     O 8499  11.644   2.427   5.786 -0.4329  0.2697 -0.2518
  787MOL0     C 8500  11.775   2.406   5.814 -0.4845 -1.3912  0.4167
  787MOL0     C 8501  11.805   2.357   5.942 -0.0727  0.4633  0.1292
  787MOL0     C 8502  11.930   2.304   5.983  0.4542 -0.0125 -0.0594
  787MOL0     C 8503  12.034   2.314   5.893  0.1168 -0.2294 -1.2196
  787MOL0     O 8504  12.165   2.276   5.925  0.1877 -0.1189 -0.1857
  787MOL0     C 8505  12.201   2.218   6.052  0.1611  0.1928  0.4547
  787MOL0     C 8506  12.184   2.069   6.046  0.2994 -0.9245 -0.5253
  787MOL0     C 8507  12.159   2.005   6.182  0.1799  0.7278 -0.4596
  787MOL0     C 8508  12.088   1.866   6.179  0.7847 -0.1377 -0.8473
  787MOL0     C 8509  12.052   1.817   6.320 -1.0021 -0.3566  0.2941
  787MOL0     C 8510  12.171   1.760   6.398 -0.2832  0.5301  0.2699
  787MOL0     C 8511  12.115   1.701   6.532 -0.0229  0.1015  0.2418
  787MOL0     C 8512  12.222   1.700   6.632  0.5871 -0.0059 -0.9403
  787MOL0    Cl 8513  12.363   1.613   6.577  0.1990 -0.2119 -0.4977
  787MOL0     C 8514  12.003   2.365   5.764 -0.5553  0.4462  0.5668
  787MOL0     C 8515  11.881   2.416   5.724  0.9979 -0.5864  0.8775
  787MOL0     O 8516  11.686   2.609   5.655  0.7271 -0.3970 -0.1555
  787MOL0     C 8517  11.444   2.593   5.520  0.9437 -0.6348  0.0824
  787MOL0     C 8518  11.309   2.594   5.464 -0.1425  0.0757  1.0593
  787MOL0     N 8519  10.704   2.538   4.918  0.3503 -0.9434 -0.0658
  787MOL0     N 8520  10.676   2.619   4.821 -1.0289  0.4125  1.3417
  787MOL0     C 8521  10.358   2.469   3.706 -0.3466  1.0824 -0.4784
  787MOL0     C 8522  10.303   2.453   3.584 -0.2351  0.0893  0.1982
  787MOL0     C 8523  10.145   2.313   3.201 -0.1735  0.2105 -0.6644
  787MOL0     C 8524  10.206   2.319   3.076 -0.3323 -0.0142  0.1742
  787MOL0     C 8525  10.144   2.290   2.954 -0.2433  0.3643 -0.1466
  787MOL0     C 8526  10.009   2.258   2.952  0.8770 -0.3526 -0.4461
  787MOL0     O 8527   9.954   2.204   2.837  0.4174  1.0843 -0.8992
  787MOL0     C 8528   9.814   2.198   2.817 -0.3651  0.3789 -1.1619
  787MOL0     C 8529   9.749   2.059   2.852 -0.0472  0.6250  0.7586
  787MOL0     C 8530   9.734   1.987   2.717  0.6957  0.3747 -0.6056
  787MOL0     C 8531   9.749   1.831   2.739  0.5496  0.2985  0.4253
  787MOL0     C 8532   9.735   1.750   2.612  0.1066 -0.6080  0.7912
  787MOL0     C 8533   9.708   1.675   2.517 -0.2429 -0.1761  0.9001
  787MOL0     C 8534   9.938   2.261   3.071  0.1044 -0.0184 -0.4174
  787MOL0     C 8535  10.005   2.283   3.194 -0.4079 -0.3011 -0.4259
  787MOL0     C 8536   9.909   2.274   3.313 -0.1149 -0.1772 -0.1662
  787MOL0     H 8537  10.086   2.192   3.644 -3.1107  2.6896  1.3397
  787MOL0     H 8538  10.192   2.204   3.860  0.8179 -0.3501 -0.5020
  787MOL0     H 8539  10.372   2.579   3.984 -0.3258  0.2647  2.3673
  787MOL0     H 8540  10.526   2.527   3.906  0.0844  1.2366  0.7364
  787MOL0     H 8541  10.513   2.354   4.112 -1.1828  0.0063  0.3502
  787MOL0     H 8542  10.607   2.510   4.112 -0.3140  0.4658 -0.7122
  787MOL0     H 8543  10.401   2.621   4.183  1.5910  0.3730  0.4987
  787MOL0     H 8544  10.326   2.461   4.224 -0.0091 -1.2148  0.8589
  787MOL0     H 8545  10.523   2.428   4.386  1.4126  1.6343  0.6375
  787MOL0     H 8546  10.572   2.595   4.332 -0.7409  0.8253 -0.2749
  787MOL0     H 8547  10.324   2.505   4.490  2.0836 -2.6482 -0.6310
  787MOL0     H 8548  10.346   2.670   4.422  2.1325  1.2418  2.1467
  787MOL0     H 8549  10.553   2.554   4.595  1.0321  2.1462 -0.7858
  787MOL0     H 8550  10.547   2.709   4.512 -2.0498 -0.0061 -2.4098
  787MOL0     H 8551  10.374   2.610   4.743 -1.0763  1.1813  0.6716
  787MOL0     H 8552  10.320   2.740   4.630 -0.1752 -2.3230 -2.6268
  787MOL0     H 8553  10.547   2.850   4.697  1.3878 -0.5209 -0.0987
  787MOL0     H 8554  10.415   2.841   4.818  0.0571 -1.3864  2.0085
  787MOL0     H 8555  10.491   2.746   5.056 -0.8044  0.7246 -1.8623
  787MOL0     H 8556  10.641   2.469   5.197 -1.1757  1.2191  0.6636
  787MOL0     H 8557  10.657   2.634   5.246 -0.2018  4.5488 -2.9383
  787MOL0     H 8558  10.863   2.458   5.115  0.4162  0.6558  0.6963
  787MOL0     H 8559  10.891   2.634   5.135  2.3177 -0.3783  2.8148
  787MOL0     H 8560  10.825   2.542   5.392 -1.6490 -0.7527 -0.8248
  787MOL0     H 8561  10.885   2.400   5.318 -2.6660 -0.4511 -1.3770
  787MOL0     H 8562  11.107   2.507   5.262 -0.0830  0.8633  0.4197
  787MOL0     H 8563  11.047   2.655   5.321 -2.6852  0.8883  1.8165
  787MOL0     H 8564  11.144   2.420   5.683 -0.4329 -1.1058 -0.2463
  787MOL0     H 8565  11.430   2.442   5.902  1.9018 -0.5241 -1.3713
  787MOL0     H 8566  11.379   2.282   5.819 -1.3250  0.2788 -1.3816
  787MOL0     H 8567  11.265   2.395   5.890 -1.5054  1.3438 -2.1024
  787MOL0     H 8568  11.722   2.346   6.012 -0.7981 -1.9044 -0.9655
  787MOL0     H 8569  11.935   2.260   6.082  0.4949  0.9771  0.3940
  787MOL0     H 8570  12.309   2.235   6.049  0.3784 -1.1585 -1.3832
  787MOL0     H 8571  12.148   2.259   6.138  0.7838 -0.0498  0.9638
  787MOL0     H 8572  12.095   2.056   5.984  0.2039  1.7618 -1.0813
  787MOL0     H 8573  12.263   2.008   5.999  1.2207 -0.3734  0.2621
  787MOL0     H 8574  12.101   2.069   6.250 -0.9889  1.5692 -2.1574
  787MOL0     H 8575  12.255   1.989   6.231 -0.0198  1.4751  0.2068
  787MOL0     H 8576  12.148   1.787   6.132  2.9304  0.2900  0.9852
  787MOL0     H 8577  11.993   1.884   6.127 -0.3124 -0.9269  0.8217
  787MOL0     H 8578  12.008   1.905   6.366  0.1411  0.1162  0.5324
  787MOL0     H 8579  11.974   1.741   6.309 -2.1492  0.1211  3.8641
  787MOL0     H 8580  12.240   1.845   6.410 -0.7967  0.8433  1.0917
  787MOL0     H 8581  12.222   1.687   6.335  1.9599  1.2143  1.1821
  787MOL0     H 8582  12.083   1.597   6.519  3.0863 -0.9216  0.0353
  787MOL0     H 8583  12.031   1.765   6.561  1.3184  1.3914  1.4317
  787MOL0     H 8584  12.192   1.653   6.726 -1.5765  0.1831 -1.4790
  787MOL0     H 8585  12.253   1.802   6.657  1.0034 -0.7577  1.9713
  787MOL0     H 8586  12.089   2.365   5.697  0.5717 -4.3335  1.6812
  787MOL0     H 8587  11.875   2.450   5.621 -0.3634  1.2200  1.4882
  787MOL0     H 8588  11.526   2.639   5.467  0.0434 -0.2787 -1.0335
  787MOL0     H 8589  11.288   2.643   5.370  0.5927  1.9321  1.8168
  787MOL0     H 8590  10.442   2.536   3.716 -0.7877  1.8718 -1.8300
  787MOL0     H 8591  10.329   2.514   3.499 -0.1440  0.3489  0.4116
  787MOL0     H 8592  10.314   2.330   3.070 -0.2827 -0.0557  0.8858
  787MOL0     H 8593  10.201   2.291   2.861  0.5234  0.1903  0.3127
  787MOL0     H 8594   9.760   2.271   2.877 -2.1229  1.3151 -3.7087
  787MOL0     H 8595   9.791   2.225   2.713  0.8551 -0.6600 -1.7296
  787MOL0     H 8596   9.650   2.061   2.898 -1.4492 -2.9587 -1.6675
  787MOL0     H 8597   9.821   2.006   2.915  2.8950 -0.0857 -2.8041
  787MOL0     H 8598   9.634   2.015   2.682 -0.0915  0.1628  1.3288
  787MOL0     H 8599   9.814   2.022   2.651  2.4352  0.9310  1.6713
  787MOL0     H 8600   9.679   1.790   2.812  0.2885  0.0818  0.0619
  787MOL0     H 8601   9.843   1.792   2.777  0.7809 -1.0375 -1.3504
  787MOL0     H 8602   9.708   1.611   2.431 -0.7485  0.9867  0.0069
  787MOL0     H 8603   9.833   2.232   3.067 -0.0789  0.1929  1.9110
  787MOL0     H 8604   9.905   2.371   3.363 -1.3928  1.0557 -2.4833
  787MOL0     H 8605   9.808   2.244   3.282 -0.1918 -0.2254  0.1269
  787MOL0     H 8606   9.931   2.195   3.386  1.1735  0.8353  0.5867
  788MOL0     O 8607   0.006   5.232   8.426 -0.0855 -0.0770 -0.5351
  788MOL0     C 8608  -0.076   5.138   8.395 -0.8121 -0.5432 -0.0058
  788MOL0     O 8609  -0.053   5.005   8.393  0.3029  0.4969 -0.7203
  788MOL0     C 8610   0.076   4.958   8.377  0.0711 -0.0248 -1.0195
  788MOL0     C 8611   0.172   4.997   8.281  0.0357  0.3433  0.6853
  788MOL0     C 8612   0.296   4.935   8.265 -0.1587 -0.6676  1.0803
  788MOL0     C 8613   0.329   4.825   8.346 -0.3532  0.4793 -0.9358
  788MOL0     O 8614   0.449   4.746   8.340  0.4693 -0.1334  0.3399
  788MOL0     C 8615   0.563   4.807   8.272  0.9580 -0.3555 -0.6489
  788MOL0     C 8616   0.673   4.699   8.251  0.6348 -0.0316  0.7022
  788MOL0     C 8617   0.806   4.745   8.186  0.2375 -0.3633 -0.1215
  788MOL0     C 8618   0.908   4.625   8.183 -0.0864 -0.8789  0.1612
  788MOL0     C 8619   1.037   4.679   8.129  0.0512  0.2409  0.4416
  788MOL0     C 8620   1.148   4.566   8.141  0.5341 -0.5165  0.4634
  788MOL0     C 8621   1.282   4.616   8.098 -0.2866 -0.3482 -0.7418
  788MOL0     C 8622   1.389   4.501   8.085  0.0403 -0.3240  0.4221
  788MOL0     N 8623   1.488   4.555   7.995 -0.4045 -0.4547  0.1384
  788MOL0     C 8624   1.573   4.473   7.923 -0.8338  0.1560 -0.8661
  788MOL0     C 8625   1.664   4.546   7.863  0.6822  0.3057 -0.1945
  788MOL0     C 8626   1.765   4.502   7.767  0.0928 -0.2274 -0.2429
  788MOL0     C 8627   1.905   4.472   7.828  0.3010 -1.6083  0.4942
  788MOL0     C 8628   1.900   4.381   7.944 -0.5089  0.5840  0.0441
  788MOL0     C 8629   2.041   4.346   7.999 -0.3471  0.1557  0.1563
  788MOL0     O 8630   2.104   4.233   7.933  0.0486 -0.2465 -0.1045
  788MOL0     C 8631   2.228   4.253   7.887  0.0448 -0.2762 -0.2072
  788MOL0     C 8632   2.258   4.341   7.780  0.0623  0.0896  0.3531
  788MOL0     C 8633   2.383   4.362   7.729  0.0708  0.4353 -0.3557
  788MOL0     C 8634   2.388   4.470   7.617 -0.0774 -0.1635  1.0304
  788MOL0     C 8635   2.488   4.283   7.781 -0.4788 -0.4376 -0.1519
  788MOL0     C 8636   2.631   4.300   7.742  0.5256  0.2082  0.7383
  788MOL0     O 8637   2.713   4.204   7.780 -0.1918 -0.1410  0.2833
  788MOL0     C 8638   2.850   4.229   7.759  0.7942  0.7611 -0.5962
  788MOL0     C 8639   2.920   4.174   7.649  0.2773  0.5084  0.3432
  788MOL0     C 8640   3.058   4.197   7.639 -0.8435 -0.0798 -0.4667
  788MOL0     C 8641   3.120   4.268   7.734  0.2978 -0.0554 -0.7026
  788MOL0     O 8642   3.258   4.291   7.717 -0.2768  0.3495 -0.3691
  788MOL0     C 8643   3.292   4.429   7.726  0.4157  0.0527 -0.3469
  788MOL0     C 8644   3.436   4.446   7.761 -0.1216  0.5020  0.1270
  788MOL0     C 8645   3.482   4.591   7.780  0.0631 -0.5996  0.1907
  788MOL0     C 8646   3.634   4.575   7.796  0.4146  0.2084  0.4847
  788MOL0     C 8647   3.698   4.703   7.749 -1.0137  1.0301 -1.0055
  788MOL0     C 8648   3.849   4.691   7.766 -0.2487 -0.2112  0.4031
  788MOL0     C 8649   3.912   4.830   7.737 -0.3797  0.8308 -0.3393
  788MOL0     C 8650   4.059   4.832   7.749  0.0622 -0.9546 -0.5864
  788MOL0    Cl 8651   4.147   4.709   7.660  0.0889 -0.5335 -0.3561
  788MOL0     C 8652   3.056   4.308   7.851  0.2058 -0.3156  0.0909
  788MOL0     C 8653   2.916   4.286   7.857  0.4063  0.2870 -0.8748
  788MOL0     O 8654   2.672   4.410   7.698 -0.0379  0.0371  1.1575
  788MOL0     C 8655   2.456   4.186   7.871  0.6215  0.5041  0.3002
  788MOL0     C 8656   2.333   4.175   7.933 -0.4996 -0.5214  0.1877
  788MOL0     N 8657   1.650   4.671   7.902 -0.4124  0.0118  0.4450
  788MOL0     N 8658   1.542   4.683   7.976 -0.9070  0.3759 -0.2142
  788MOL0     C 8659   0.228   4.777   8.434  0.1415  0.5584 -0.4946
  788MOL0     C 8660   0.106   4.841   8.450  0.1944  0.2325  0.3610
  788MOL0     C 8661  -0.215   5.170   8.368 -0.1988 -0.1761 -0.5036
  788MOL0     C 8662  -0.281   5.090   8.278 -0.2021 -0.2129  0.3570
  788MOL0     C 8663  -0.413   5.116   8.240  0.1973 -0.6756  0.6049
  788MOL0     C 8664  -0.474   5.233   8.273 -0.4324  0.3157  0.1559
  788MOL0     O 8665  -0.595   5.287   8.239  0.1212  0.6839  0.9083
  788MOL0     C 8666  -0.676   5.211   8.151 -0.2542  1.0737  0.3710
  788MOL0     C 8667  -0.808   5.282   8.128 -0.1392  0.5201 -0.4058
  788MOL0     C 8668  -0.793   5.394   8.019  0.3667 -0.4116 -0.1390
  788MOL0     C 8669  -0.932   5.431   7.971 -1.3732  0.6548  0.0840
  788MOL0     C 8670  -0.926   5.545   7.877  0.0168 -0.2257  0.2272
  788MOL0     C 8671  -0.900   5.650   7.814  0.5087  0.3708 -0.5269
  788MOL0     C 8672  -0.408   5.319   8.354 -0.1739 -0.3792 -0.4673
  788MOL0     C 8673  -0.279   5.293   8.397 -0.2940 -0.4394  0.3075
  788MOL0     C 8674  -0.225   5.405   8.492  0.6266 -0.5783 -0.0952
  788MOL0     H 8675   0.148   5.080   8.216 -0.1226 -0.5813 -0.4523
  788MOL0     H 8676   0.363   4.966   8.185 -1.0180 -2.7365 -0.5447
  788MOL0     H 8677   0.608   4.890   8.325 -0.4278 -0.0736  0.1302
  788MOL0     H 8678   0.542   4.838   8.169 -1.3815 -1.8571 -0.7016
  788MOL0     H 8679   0.699   4.688   8.357  1.7638  3.0540  0.8377
  788MOL0     H 8680   0.628   4.614   8.199  0.5624  1.0778 -1.1304
  788MOL0     H 8681   0.789   4.778   8.083  1.1620  0.0578 -0.1485
  788MOL0     H 8682   0.858   4.820   8.248  1.3532 -1.6061  0.5153
  788MOL0     H 8683   0.916   4.583   8.284  0.3563 -2.0045 -0.3253
  788MOL0     H 8684   0.860   4.548   8.123 -0.8747 -1.0641  1.0123
  788MOL0     H 8685   1.080   4.764   8.182  3.2467 -0.9228 -0.1033
  788MOL0     H 8686   1.015   4.712   8.027 -2.0487  0.3622  0.8773
  788MOL0     H 8687   1.157   4.531   8.244  1.3406  1.7049  1.2168
  788MOL0     H 8688   1.131   4.489   8.065  4.0913  2.0708 -3.3698
  788MOL0     H 8689   1.307   4.703   8.161 -1.6226  0.0636 -0.7331
  788MOL0     H 8690   1.274   4.652   7.995  0.8462 -0.2655 -0.8087
  788MOL0     H 8691   1.449   4.499   8.177  3.7278  2.5386 -1.6549
  788MOL0     H 8692   1.339   4.409   8.055 -0.6098  0.1376  0.0472
  788MOL0     H 8693   1.568   4.364   7.915  2.2374 -0.1380  0.0955
  788MOL0     H 8694   1.763   4.576   7.687 -3.2182  0.1296  0.0493
  788MOL0     H 8695   1.735   4.409   7.717  2.5084 -0.7025 -0.9505
  788MOL0     H 8696   1.955   4.423   7.745 -0.1002 -1.1695 -0.0113
  788MOL0     H 8697   1.966   4.560   7.850  0.3068 -0.9234 -1.9663
  788MOL0     H 8698   1.839   4.415   8.027 -0.9709 -2.0315  0.8795
  788MOL0     H 8699   1.859   4.283   7.917 -0.7321  0.4723  0.7618
  788MOL0     H 8700   2.104   4.436   8.000  0.8843 -0.6427  2.8723
  788MOL0     H 8701   2.027   4.317   8.103  0.7651 -0.1442  0.2239
  788MOL0     H 8702   2.178   4.391   7.727 -0.0184  0.0780  0.4650
  788MOL0     H 8703   2.290   4.506   7.585  0.1692 -0.3230  0.0442
  788MOL0     H 8704   2.431   4.430   7.524  0.9943  0.4883  1.2263
  788MOL0     H 8705   2.453   4.553   7.647 -0.0271 -0.5581  2.0465
  788MOL0     H 8706   2.864   4.128   7.568  0.5073  0.2719  0.3186
  788MOL0     H 8707   3.109   4.156   7.552 -0.7472  1.9523 -1.4196
  788MOL0     H 8708   3.261   4.475   7.632 -1.5986 -0.3151  0.0927
  788MOL0     H 8709   3.227   4.470   7.804  2.0157 -1.2908  1.7885
  788MOL0     H 8710   3.456   4.392   7.854  2.0630 -0.1919 -0.6788
  788MOL0     H 8711   3.494   4.392   7.685 -1.6837 -1.5286  0.2918
  788MOL0     H 8712   3.442   4.643   7.867  1.5682  0.9476  0.0222
  788MOL0     H 8713   3.447   4.648   7.693  0.8233 -0.2800  0.0794
  788MOL0     H 8714   3.672   4.490   7.738 -0.4085  0.3566 -0.2920
  788MOL0     H 8715   3.648   4.557   7.903 -4.0438 -2.4383  0.8831
  788MOL0     H 8716   3.663   4.716   7.646  0.1932 -1.6011 -1.8143
  788MOL0     H 8717   3.661   4.779   7.820  0.9297  1.3872 -0.3140
  788MOL0     H 8718   3.887   4.620   7.692 -1.9313 -1.7368  0.9278
  788MOL0     H 8719   3.877   4.665   7.868 -0.5946 -1.5499  0.1822
  788MOL0     H 8720   3.869   4.895   7.815 -3.1541  2.3892 -2.9334
  788MOL0     H 8721   3.888   4.882   7.644  2.5084  1.7748 -0.6514
  788MOL0     H 8722   4.081   4.814   7.855  0.9194 -0.9658 -0.7573
  788MOL0     H 8723   4.093   4.935   7.733 -0.5913 -0.1014  2.7846
  788MOL0     H 8724   3.106   4.349   7.938  0.6381  2.5210 -1.3818
  788MOL0     H 8725   2.861   4.326   7.942  0.9014 -1.5441  0.3792
  788MOL0     H 8726   2.533   4.120   7.909  1.4984  0.0781 -2.0551
  788MOL0     H 8727   2.311   4.099   8.007 -0.8862  1.1040  1.8100
  788MOL0     H 8728   0.249   4.684   8.485  2.4998  1.1921 -0.1878
  788MOL0     H 8729   0.022   4.808   8.510 -1.4639  1.4238 -1.1991
  788MOL0     H 8730  -0.237   5.001   8.234  0.4542  1.5615 -2.9056
  788MOL0     H 8731  -0.468   5.036   8.191 -2.7341  3.2812 -3.3968
  788MOL0     H 8732  -0.619   5.206   8.058  0.2788 -2.5826  0.7396
  788MOL0     H 8733  -0.682   5.110   8.192 -0.2766  0.3115 -1.4507
  788MOL0     H 8734  -0.851   5.322   8.220 -1.2035  0.2923 -0.7848
  788MOL0     H 8735  -0.877   5.205   8.091 -2.8404  2.3180  0.6241
  788MOL0     H 8736  -0.762   5.490   8.060 -1.8869  1.2389 -2.0259
  788MOL0     H 8737  -0.726   5.366   7.937  2.4582  2.7310  0.3141
  788MOL0     H 8738  -0.991   5.461   8.057 -2.2192 -0.0073 -0.2542
  788MOL0     H 8739  -0.986   5.353   7.917 -1.2358  1.3088 -1.0314
  788MOL0     H 8740  -0.879   5.744   7.766 -0.1625  1.0030  0.3693
  788MOL0     H 8741  -0.457   5.415   8.369 -0.8970 -0.4884 -1.9866
  788MOL0     H 8742  -0.135   5.449   8.449  0.4266  1.2257  1.2269
  788MOL0     H 8743  -0.292   5.487   8.518 -1.6018 -2.1662 -0.4661
  788MOL0     H 8744  -0.196   5.360   8.587  0.2272  0.4842  0.5397
  789MOL0     O 8745   4.658   1.570  10.856 -0.1051 -0.0096  0.5175
  789MOL0     C 8746   4.737   1.535  10.768  0.2142 -0.4868 -0.6574
  789MOL0     O 8747   4.857   1.482  10.792 -0.4732  0.2996 -0.3171
  789MOL0     C 8748   4.902   1.465  10.916 -0.0204 -0.2469  0.1001
  789MOL0     C 8749   5.000   1.546  10.965  0.3156  0.3052 -0.6950
  789MOL0     C 8750   5.069   1.523  11.087  0.2293  0.8427  0.1532
  789MOL0     C 8751   5.010   1.428  11.182  0.4300 -0.5188 -0.4475
  789MOL0     O 8752   5.064   1.422  11.312  0.5370 -0.4940 -0.2888
  789MOL0     C 8753   4.981   1.389  11.422 -0.4201 -0.0422 -0.0220
  789MOL0     C 8754   5.016   1.465  11.553 -0.4409  0.5928  0.6995
  789MOL0     C 8755   5.153   1.430  11.615  1.1008  0.6518  0.6998
  789MOL0     C 8756   5.189   1.505  11.735  0.8691 -0.0419 -0.5148
  789MOL0     C 8757   5.323   1.466  11.797  0.1680  0.1388 -0.0499
  789MOL0     C 8758   5.342   1.542  11.928 -0.0455  0.2063 -1.0232
  789MOL0     C 8759   5.493   1.545  11.965 -0.4517  0.1185 -0.2585
  789MOL0     C 8760   5.501   1.643  12.090  0.3597 -0.0080  0.2337
  789MOL0     N 8761   5.634   1.671  12.147  0.1051 -0.5430 -0.0913
  789MOL0     C 8762   5.742   1.592  12.157 -0.0895  0.5522 -0.1879
  789MOL0     C 8763   5.841   1.674  12.215  0.0509  0.1125  0.1078
  789MOL0     C 8764   5.972   1.617  12.247 -0.6561  0.3393  0.0238
  789MOL0     C 8765   6.086   1.686  12.175 -0.6250 -0.2150 -0.5208
  789MOL0     C 8766   6.221   1.604  12.194  0.1881 -0.7737 -0.5663
  789MOL0     C 8767   6.340   1.678  12.134 -0.4408  0.1019  0.2481
  789MOL0     O 8768   6.461   1.607  12.181 -0.7607 -0.6723 -0.2479
  789MOL0     C 8769   6.586   1.647  12.141 -0.2481  0.3147 -0.0262
  789MOL0     C 8770   6.618   1.763  12.072  0.3111 -0.0014  0.0479
  789MOL0     C 8771   6.743   1.800  12.032  0.4339  0.2665 -0.5666
  789MOL0     C 8772   6.759   1.949  11.973  0.2738  0.7266  0.4289
  789MOL0     C 8773   6.848   1.711  12.058 -0.0059  0.0967 -0.3341
  789MOL0     C 8774   6.986   1.739  12.021  1.3873 -0.8006  0.4925
  789MOL0     O 8775   7.068   1.636  12.006 -0.5234 -0.2186  0.4710
  789MOL0     C 8776   7.198   1.659  11.963 -0.0266  0.3706 -0.7096
  789MOL0     C 8777   7.239   1.587  11.848 -0.3065  0.9614 -0.7991
  789MOL0     C 8778   7.374   1.582  11.809  0.6573  0.1416  0.3652
  789MOL0     C 8779   7.478   1.651  11.873  0.0573 -0.4665  1.0261
  789MOL0     O 8780   7.606   1.653  11.827 -0.9188 -0.0321 -0.6975
  789MOL0     C 8781   7.647   1.532  11.758 -0.0017  0.2108  0.6911
  789MOL0     C 8782   7.803   1.525  11.760 -0.1013 -0.0385 -0.3488
  789MOL0     C 8783   7.857   1.432  11.657  0.3641 -0.3260 -1.2113
  789MOL0     C 8784   7.806   1.290  11.674  0.1453 -0.7441 -0.6527
  789MOL0     C 8785   7.845   1.202  11.565 -0.7696 -0.7732  0.0597
  789MOL0     C 8786   7.994   1.194  11.538  0.6250 -0.2626 -0.2940
  789MOL0     C 8787   8.025   1.079  11.454 -1.0107 -0.1280  0.7826
  789MOL0     C 8788   8.174   1.067  11.412 -0.3363  0.3811 -0.5129
  789MOL0    Cl 8789   8.295   1.098  11.534  0.2326 -0.1523 -0.3875
  789MOL0     C 8790   7.439   1.719  11.995 -0.1802  1.0482  0.5095
  789MOL0     C 8791   7.300   1.725  12.027 -0.1884 -0.3282 -0.1898
  789MOL0     O 8792   7.011   1.857  12.011 -0.3374 -0.5789  0.5821
  789MOL0     C 8793   6.814   1.588  12.127 -0.5179 -0.1941 -0.9007
  789MOL0     C 8794   6.689   1.561  12.174  0.2669  0.5261  0.4083
  789MOL0     N 8795   5.791   1.802  12.238 -0.2382 -0.0650  0.0234
  789MOL0     N 8796   5.668   1.798  12.196  0.3175  0.7365 -0.7813
  789MOL0     C 8797   4.904   1.343  11.138  0.9815  0.6007  0.0329
  789MOL0     C 8798   4.856   1.364  11.007  0.2048  0.5413 -0.1366
  789MOL0     C 8799   4.700   1.552  10.624 -0.1236  0.1488 -0.2713
  789MOL0     C 8800   4.789   1.492  10.545 -0.7974  0.1548  0.4017
  789MOL0     C 8801   4.773   1.506  10.402  0.4834  0.1374 -0.4823
  789MOL0     C 8802   4.661   1.566  10.353 -0.5661 -0.3789 -0.1738
  789MOL0     O 8803   4.666   1.559  10.215  0.3054 -0.3289 -0.3269
  789MOL0     C 8804   4.566   1.622  10.140  0.1690 -0.0927  0.1669
  789MOL0     C 8805   4.481   1.525  10.058 -0.1664  0.2506 -0.5078
  789MOL0     C 8806   4.401   1.439  10.151  0.7878  0.6287 -0.2527
  789MOL0     C 8807   4.319   1.348  10.057 -0.2927  0.1562 -0.3766
  789MOL0     C 8808   4.229   1.261  10.136 -0.4831 -0.4201  0.3870
  789MOL0     C 8809   4.170   1.183  10.203 -0.3345 -0.3459 -0.3527
  789MOL0     C 8810   4.576   1.630  10.437  1.2573  0.0383  0.7572
  789MOL0     C 8811   4.579   1.614  10.578 -0.8135 -0.3449  0.8120
  789MOL0     C 8812   4.465   1.687  10.649  0.3038 -0.5296 -0.6704
  789MOL0     H 8813   5.036   1.635  10.913  2.7344  0.7199  1.4594
  789MOL0     H 8814   5.159   1.574  11.119 -0.1308  2.6561 -1.5228
  789MOL0     H 8815   4.991   1.281  11.435 -1.0755 -0.0455  0.5476
  789MOL0     H 8816   4.874   1.401  11.403 -0.8492 -2.6808  0.3424
  789MOL0     H 8817   5.022   1.571  11.527 -2.8718  0.5155 -0.3799
  789MOL0     H 8818   4.932   1.448  11.620  0.6367 -0.3369  1.8693
  789MOL0     H 8819   5.146   1.323  11.638 -1.1869  0.3487 -1.1043
  789MOL0     H 8820   5.228   1.444  11.537 -0.4212 -0.3873 -1.0085
  789MOL0     H 8821   5.191   1.612  11.714  2.3125 -0.3074 -1.9643
  789MOL0     H 8822   5.114   1.492  11.813 -0.3197  2.0345 -1.2444
  789MOL0     H 8823   5.402   1.488  11.726 -1.6046  1.5961 -1.6910
  789MOL0     H 8824   5.325   1.357  11.809 -0.9668 -0.1896 -2.3459
  789MOL0     H 8825   5.305   1.641  11.901 -1.1589 -0.4986 -2.1836
  789MOL0     H 8826   5.280   1.491  12.002  0.4491 -0.4097 -1.0221
  789MOL0     H 8827   5.555   1.590  11.887 -0.3713 -0.5723 -0.6017
  789MOL0     H 8828   5.534   1.447  11.991  0.9783  0.2530 -1.8281
  789MOL0     H 8829   5.467   1.741  12.056 -3.9132 -1.9374 -1.8040
  789MOL0     H 8830   5.436   1.604  12.169  0.1303  1.7116  0.9422
  789MOL0     H 8831   5.735   1.484  12.145 -0.4922  0.1540  2.8696
  789MOL0     H 8832   5.981   1.511  12.222 -1.1294  0.2858  0.0609
  789MOL0     H 8833   5.990   1.620  12.354  2.6070  0.7380 -0.4522
  789MOL0     H 8834   6.063   1.694  12.068  0.3358  1.2655 -0.6394
  789MOL0     H 8835   6.100   1.791  12.202 -0.1887 -0.3848 -0.0754
  789MOL0     H 8836   6.243   1.596  12.301 -0.9297  0.2748 -0.2353
  789MOL0     H 8837   6.214   1.503  12.152 -2.4779 -0.1697 -1.7568
  789MOL0     H 8838   6.329   1.678  12.026 -0.3595  0.2813  0.2386
  789MOL0     H 8839   6.341   1.783  12.166 -1.7942  1.1051 -2.6381
  789MOL0     H 8840   6.540   1.836  12.053  1.5924  2.3287  2.8821
  789MOL0     H 8841   6.663   1.984  11.933  0.4401 -1.6851 -2.4387
  789MOL0     H 8842   6.832   1.956  11.892 -0.8461 -0.6792 -0.7531
  789MOL0     H 8843   6.789   2.009  12.059 -2.5276  1.0984  1.2394
  789MOL0     H 8844   7.162   1.533  11.795 -0.2603 -0.5820  0.6457
  789MOL0     H 8845   7.401   1.525  11.721  2.8791  1.6536 -0.0114
  789MOL0     H 8846   7.603   1.448  11.813 -0.9053 -0.5095 -1.0427
  789MOL0     H 8847   7.604   1.520  11.658 -1.7291 -3.1353  1.6534
  789MOL0     H 8848   7.832   1.628  11.736 -0.8257 -0.2174 -2.1248
  789MOL0     H 8849   7.836   1.494  11.860  0.2551  2.4870  0.3966
  789MOL0     H 8850   7.966   1.432  11.665  0.2684 -2.1555  1.7053
  789MOL0     H 8851   7.823   1.459  11.557 -3.3518 -0.6795 -0.1825
  789MOL0     H 8852   7.697   1.275  11.681  0.1452 -0.6311 -0.3949
  789MOL0     H 8853   7.843   1.249  11.769  0.9700  1.4298  0.0348
  789MOL0     H 8854   7.815   1.099  11.590 -0.1786 -0.6889  1.1621
  789MOL0     H 8855   7.801   1.225  11.467 -0.0074 -0.0506 -0.1196
  789MOL0     H 8856   8.059   1.180  11.624  0.7130 -1.6127 -0.5622
  789MOL0     H 8857   8.029   1.287  11.491 -1.6240  2.4307  2.9188
  789MOL0     H 8858   7.967   1.101  11.364 -1.5704  0.8549  1.3578
  789MOL0     H 8859   7.995   0.995  11.517  2.4405  0.6389  3.8347
  789MOL0     H 8860   8.186   1.132  11.325  0.5825 -0.3038 -0.9077
  789MOL0     H 8861   8.189   0.962  11.385  2.0777 -0.2704  2.7453
  789MOL0     H 8862   7.512   1.769  12.059  0.4799  1.0718 -0.2417
  789MOL0     H 8863   7.273   1.781  12.116  1.3808  0.4234 -0.1537
  789MOL0     H 8864   6.896   1.525  12.160  2.0025  3.5038  0.5904
  789MOL0     H 8865   6.683   1.469  12.231 -1.0399  0.8464  0.8352
  789MOL0     H 8866   4.848   1.287  11.212  2.7806 -0.8458  0.3636
  789MOL0     H 8867   4.772   1.307  10.968  2.1938 -1.1885 -2.1810
  789MOL0     H 8868   4.878   1.442  10.582 -1.3167  0.7447  2.5766
  789MOL0     H 8869   4.846   1.469  10.331  0.8291  1.2635 -0.7312
  789MOL0     H 8870   4.503   1.702  10.181  0.5407  0.8343 -1.0072
  789MOL0     H 8871   4.620   1.682  10.067 -0.4721  0.7091  0.3342
  789MOL0     H 8872   4.547   1.454  10.007 -1.1278 -1.3483  0.3684
  789MOL0     H 8873   4.420   1.582   9.988 -1.4590  0.2702  0.5935
  789MOL0     H 8874   4.464   1.376  10.216  2.4011  2.2318 -0.1958
  789MOL0     H 8875   4.325   1.493  10.209 -2.1641 -0.3043 -2.9216
  789MOL0     H 8876   4.369   1.278   9.989 -2.7686 -1.5629 -0.5546
  789MOL0     H 8877   4.261   1.413   9.991 -2.1475 -1.4284 -0.4193
  789MOL0     H 8878   4.116   1.121  10.272  0.2773 -2.8101 -1.9812
  789MOL0     H 8879   4.490   1.682  10.396  0.9422 -0.1846  1.1200
  789MOL0     H 8880   4.395   1.738  10.583 -0.3643  1.3656  1.3746
  789MOL0     H 8881   4.414   1.611  10.710  2.4831  0.3715  2.5083
  789MOL0     H 8882   4.502   1.756  10.725  1.9137 -3.3821  1.3305
  790MOL0     O 8883   0.310   7.402   1.003 -0.6611 -0.6353  0.3431
  790MOL0     C 8884   0.269   7.287   1.018 -0.0134  0.2503 -0.2828
  790MOL0     O 8885   0.340   7.167   0.988 -0.0633 -0.0399  0.0116
  790MOL0     C 8886   0.472   7.175   0.952  0.1089 -0.1792 -0.4672
  790MOL0     C 8887   0.570   7.134   1.047  0.1866 -0.3293 -0.3457
  790MOL0     C 8888   0.704   7.111   1.011 -0.1270 -0.8405 -0.3378
  790MOL0     C 8889   0.744   7.147   0.877  0.1117  0.0243 -0.0510
  790MOL0     O 8890   0.862   7.139   0.829 -0.5975  0.0722 -0.3331
  790MOL0     C 8891   0.971   7.172   0.919 -0.4936 -0.4638  0.7531
  790MOL0     C 8892   1.097   7.178   0.833  0.1527 -1.1799  0.0989
  790MOL0     C 8893   1.218   7.207   0.912 -0.5257 -0.2176  0.1663
  790MOL0     C 8894   1.344   7.245   0.816  0.3074  0.8490  1.0688
  790MOL0     C 8895   1.470   7.255   0.902 -0.0356  0.2440 -0.4119
  790MOL0     C 8896   1.581   7.323   0.819 -0.5947 -0.2859 -0.1514
  790MOL0     C 8897   1.708   7.361   0.891 -0.7217 -0.7895 -0.1677
  790MOL0     C 8898   1.828   7.396   0.805  0.1672 -0.1957  0.9890
  790MOL0     N 8899   1.953   7.416   0.878 -0.1665  0.1920 -0.0667
  790MOL0     C 8900   2.055   7.330   0.878  0.2230  0.2023  0.0097
  790MOL0     C 8901   2.141   7.383   0.971 -0.7999 -0.4242 -0.5241
  790MOL0     C 8902   2.269   7.324   1.018 -0.5071  0.1252 -0.6272
  790MOL0     C 8903   2.370   7.349   0.905  0.1458  0.1606  0.1441
  790MOL0     C 8904   2.512   7.299   0.920  0.2177 -0.1494  0.6664
  790MOL0     C 8905   2.582   7.339   1.045 -0.0676 -0.1027  0.0675
  790MOL0     O 8906   2.708   7.265   1.037  0.2937 -0.1691  0.1700
  790MOL0     C 8907   2.819   7.289   1.114 -0.4664 -0.2896  0.9577
  790MOL0     C 8908   2.827   7.394   1.205 -0.2212  0.6642  0.2388
  790MOL0     C 8909   2.950   7.431   1.279  0.1932  0.9632 -0.0162
  790MOL0     C 8910   2.941   7.543   1.382 -0.2537 -0.6325 -0.2559
  790MOL0     C 8911   3.066   7.349   1.251  0.3618  0.1599  0.1603
  790MOL0     C 8912   3.200   7.360   1.322  0.7854  0.1979  0.3823
  790MOL0     O 8913   3.304   7.277   1.281 -0.9702  0.0011 -0.5838
  790MOL0     C 8914   3.429   7.306   1.333  0.0810 -0.2568  0.2980
  790MOL0     C 8915   3.450   7.325   1.475  0.3048 -0.2939  0.6983
  790MOL0     C 8916   3.582   7.355   1.517 -0.6582  0.9180 -0.4021
  790MOL0     C 8917   3.691   7.360   1.432  0.0566  0.5164 -0.2792
  790MOL0     O 8918   3.802   7.412   1.482  0.0244 -0.1901  0.5199
  790MOL0     C 8919   3.926   7.374   1.423 -0.7111  0.3548  0.6484
  790MOL0     C 8920   4.034   7.456   1.487  0.0446  0.6722 -0.0451
  790MOL0     C 8921   4.040   7.602   1.466 -0.3302  0.4251  0.3101
  790MOL0     C 8922   4.120   7.644   1.345 -0.1811 -0.5667  0.8106
  790MOL0     C 8923   4.142   7.795   1.315 -0.6484  0.1717  0.1260
  790MOL0     C 8924   4.027   7.860   1.238 -0.0815 -0.1603 -0.0121
  790MOL0     C 8925   4.046   8.012   1.240  0.1878  0.6454 -0.1356
  790MOL0     C 8926   3.958   8.087   1.131  0.3089  0.8177 -0.5741
  790MOL0    Cl 8927   3.998   8.034   0.971 -0.2059  0.3367 -0.1263
  790MOL0     C 8928   3.669   7.333   1.301  0.5979  0.1668 -0.2614
  790MOL0     C 8929   3.538   7.301   1.249 -0.3877 -0.3160  0.0150
  790MOL0     O 8930   3.204   7.443   1.413  0.0822  0.4034 -0.3171
  790MOL0     C 8931   3.060   7.251   1.149 -0.4495 -0.4664 -0.0059
  790MOL0     C 8932   2.939   7.217   1.085  0.4804  0.0425  0.5421
  790MOL0     N 8933   2.106   7.504   1.013  1.1717  0.1049 -0.8538
  790MOL0     N 8934   1.989   7.530   0.957  0.8508  0.0356  0.7291
  790MOL0     C 8935   0.650   7.200   0.792 -0.2434 -0.2827  0.5183
  790MOL0     C 8936   0.513   7.201   0.820 -0.9495  0.4445  0.7575
  790MOL0     C 8937   0.117   7.269   1.059 -0.1359 -0.7507  0.5461
  790MOL0     C 8938   0.086   7.147   1.118  0.8165 -0.1263 -0.9068
  790MOL0     C 8939  -0.048   7.109   1.152 -0.3831 -0.6732 -0.2870
  790MOL0     C 8940  -0.141   7.206   1.127  0.3467  0.4514  0.1089
  790MOL0     O 8941  -0.273   7.168   1.160 -0.0660 -0.0583  0.2706
  790MOL0     C 8942  -0.385   7.244   1.128  0.1579 -0.1708  0.2036
  790MOL0     C 8943  -0.511   7.168   1.165 -0.3158 -0.2220 -0.6121
  790MOL0     C 8944  -0.527   7.050   1.074 -0.6344  0.1215 -0.6559
  790MOL0     C 8945  -0.658   6.974   1.103 -0.0728  0.2993  0.1938
  790MOL0     C 8946  -0.644   6.867   1.206  0.0556 -0.7734 -0.3427
  790MOL0     C 8947  -0.627   6.714   1.329 -0.9599 -0.4646 -0.6633
  790MOL0     C 8948  -0.110   7.337   1.087 -0.2118 -0.3106  0.4632
  790MOL0     C 8949   0.015   7.371   1.043  0.1821  0.0786 -0.0748
  790MOL0     C 8950   0.033   7.500   0.977 -0.3740 -0.2230 -0.4372
  790MOL0     H 8951   0.533   7.112   1.147 -0.2753 -1.2627 -0.7012
  790MOL0     H 8952   0.780   7.075   1.078 -0.2815 -2.3566 -0.9393
  790MOL0     H 8953   0.977   7.093   0.994 -0.7118 -0.5707  0.6583
  790MOL0     H 8954   0.965   7.270   0.968 -1.1662  1.3878 -2.6480
  790MOL0     H 8955   1.111   7.079   0.789 -2.2391 -2.2031  1.4574
  790MOL0     H 8956   1.083   7.253   0.755  2.5396 -2.1980 -1.4162
  790MOL0     H 8957   1.186   7.283   0.983  1.1281 -1.4277  2.3211
  790MOL0     H 8958   1.240   7.112   0.962 -2.2400 -0.7498 -0.0304
  790MOL0     H 8959   1.351   7.159   0.749 -2.5309  0.9846  0.4757
  790MOL0     H 8960   1.326   7.335   0.757 -1.6218 -0.1666  0.0205
  790MOL0     H 8961   1.500   7.156   0.938  0.0906  1.0273  1.7183
  790MOL0     H 8962   1.446   7.324   0.983  1.0693  0.2445 -0.0726
  790MOL0     H 8963   1.600   7.257   0.734 -1.6871  0.5989 -1.1115
  790MOL0     H 8964   1.540   7.413   0.773  2.5481  2.6423  2.2810
  790MOL0     H 8965   1.748   7.282   0.955  0.9278 -0.4301 -0.7249
  790MOL0     H 8966   1.680   7.449   0.951 -0.4420 -0.4961 -0.4631
  790MOL0     H 8967   1.843   7.317   0.731  1.7339  1.6392 -0.7615
  790MOL0     H 8968   1.808   7.486   0.746 -0.3817 -0.1513  1.2348
  790MOL0     H 8969   2.054   7.237   0.823  0.6909  0.4494 -0.4259
  790MOL0     H 8970   2.256   7.217   1.039 -1.0105  0.7195  2.4891
  790MOL0     H 8971   2.293   7.379   1.109  0.1730 -1.0757 -0.0589
  790MOL0     H 8972   2.320   7.306   0.818 -1.7746  2.3586  0.0489
  790MOL0     H 8973   2.374   7.458   0.898 -1.5974  0.2129 -0.7159
  790MOL0     H 8974   2.506   7.189   0.920  0.6551 -0.1748  0.4010
  790MOL0     H 8975   2.566   7.321   0.827 -1.0753  0.4342  0.0269
  790MOL0     H 8976   2.598   7.447   1.043  0.6444 -0.1955  0.5020
  790MOL0     H 8977   2.522   7.309   1.131  0.8561 -1.3413  0.3174
  790MOL0     H 8978   2.737   7.445   1.237 -1.2282 -1.1178  0.3738
  790MOL0     H 8979   2.999   7.629   1.347  0.8942 -0.8152  1.1045
  790MOL0     H 8980   2.975   7.511   1.481  0.7389 -0.3077 -0.4792
  790MOL0     H 8981   2.841   7.584   1.399 -0.8645 -1.7040 -1.1134
  790MOL0     H 8982   3.370   7.319   1.548 -1.3921 -0.0096 -1.0763
  790MOL0     H 8983   3.598   7.359   1.624 -0.3342 -2.0980 -0.2444
  790MOL0     H 8984   3.946   7.268   1.443  3.0954  0.5408 -1.2938
  790MOL0     H 8985   3.942   7.377   1.315 -0.1756 -3.3066  0.4833
  790MOL0     H 8986   4.015   7.451   1.595 -1.2656  3.1272 -0.0859
  790MOL0     H 8987   4.129   7.406   1.469 -0.3002 -0.8074  1.8577
  790MOL0     H 8988   4.085   7.653   1.551 -1.6960  2.7020 -0.2402
  790MOL0     H 8989   3.934   7.628   1.455 -0.8267 -1.0729  1.3322
  790MOL0     H 8990   4.068   7.591   1.264  1.0199 -1.2659  0.4802
  790MOL0     H 8991   4.215   7.593   1.356  0.8655  0.9653 -0.5607
  790MOL0     H 8992   4.169   7.846   1.408 -0.4239  0.2581  0.0140
  790MOL0     H 8993   4.226   7.800   1.246 -2.0975 -0.5333 -1.7784
  790MOL0     H 8994   3.928   7.833   1.276  0.1349 -2.8989 -1.1713
  790MOL0     H 8995   4.034   7.816   1.138  3.4584 -3.0594  1.2613
  790MOL0     H 8996   4.151   8.042   1.232 -0.0179  1.3805 -0.1764
  790MOL0     H 8997   4.013   8.037   1.341  1.0472  0.0312  0.3139
  790MOL0     H 8998   3.963   8.196   1.136 -4.1040  1.1989 -0.7620
  790MOL0     H 8999   3.850   8.069   1.137  0.2275  0.2095 -2.8713
  790MOL0     H 9000   3.750   7.344   1.229 -0.0563 -0.0853 -1.0453
  790MOL0     H 9001   3.520   7.286   1.143  2.8303 -0.1618 -0.6516
  790MOL0     H 9002   3.154   7.204   1.122  0.4226  1.4578 -0.4954
  790MOL0     H 9003   2.943   7.143   1.005  1.5975  0.9287 -0.2637
  790MOL0     H 9004   0.682   7.220   0.690 -1.4641  1.4982  0.4420
  790MOL0     H 9005   0.441   7.229   0.744  2.0041  1.0525 -2.0720
  790MOL0     H 9006   0.152   7.066   1.145 -1.5883 -1.9529 -0.1521
  790MOL0     H 9007  -0.081   7.015   1.196 -1.2835  0.4577  1.5961
  790MOL0     H 9008  -0.379   7.347   1.165  1.0721 -0.7920  1.8817
  790MOL0     H 9009  -0.382   7.244   1.019  2.8308 -2.4645  0.1719
  790MOL0     H 9010  -0.593   7.238   1.152 -0.7294 -0.8414 -1.4236
  790MOL0     H 9011  -0.511   7.133   1.269 -1.3923  2.0873  0.2209
  790MOL0     H 9012  -0.540   7.082   0.971 -2.3500  0.4816 -0.3560
  790MOL0     H 9013  -0.445   6.977   1.077  0.0666  0.8441  3.3606
  790MOL0     H 9014  -0.690   6.925   1.011  1.6870 -1.8656  0.6379
  790MOL0     H 9015  -0.741   7.030   1.145  0.3607  2.4406 -1.6112
  790MOL0     H 9016  -0.623   6.629   1.394 -1.5882  2.3788  3.4799
  790MOL0     H 9017  -0.185   7.412   1.063 -0.0568  0.7967  3.1087
  790MOL0     H 9018   0.116   7.562   1.011 -1.7830  2.1342 -1.0510
  790MOL0     H 9019   0.046   7.469   0.872  2.3808 -3.3043  0.6545
  790MOL0     H 9020  -0.056   7.563   0.987 -1.6105 -1.7992 -0.9925
  791MOL0     O 9021   8.225   1.366   7.368  0.0572 -0.1741 -0.6800
  791MOL0     C 9022   8.145   1.319   7.293 -0.0020  0.4618  0.1502
  791MOL0     O 9023   8.161   1.202   7.217 -0.5031 -0.1958  0.0038
  791MOL0     C 9024   8.280   1.125   7.224 -0.0980 -0.4262  0.3742
  791MOL0     C 9025   8.408   1.176   7.244  0.1269  0.0446  0.4710
  791MOL0     C 9026   8.517   1.095   7.252 -0.1162 -0.1369 -0.0056
  791MOL0     C 9027   8.503   0.959   7.219 -0.8681 -0.0121 -0.0905
  791MOL0     O 9028   8.610   0.878   7.225 -0.3987 -0.4360 -0.4503
  791MOL0     C 9029   8.603   0.738   7.218  0.1886  0.6032  0.2258
  791MOL0     C 9030   8.746   0.685   7.196 -0.1586 -0.8126  0.0550
  791MOL0     C 9031   8.801   0.741   7.064 -0.2727  0.1208  0.2983
  791MOL0     C 9032   8.943   0.689   7.056 -0.2083 -0.2209 -0.0451
  791MOL0     C 9033   9.016   0.780   6.948  0.0699 -0.3288  0.2688
  791MOL0     C 9034   8.963   0.759   6.805  0.0917  0.2352  0.1382
  791MOL0     C 9035   9.042   0.844   6.706 -0.2244 -0.3561  0.5480
  791MOL0     C 9036   8.993   0.813   6.566 -0.0036  0.2728  0.2080
  791MOL0     N 9037   9.051   0.903   6.465  0.0484 -0.4171 -0.5441
  791MOL0     C 9038   9.008   0.927   6.338  0.5755 -0.0571  0.1865
  791MOL0     C 9039   9.093   1.032   6.294  0.1636  0.0081  0.2729
  791MOL0     C 9040   9.068   1.109   6.170 -0.3191  0.9539  0.2440
  791MOL0     C 9041   9.100   1.032   6.044  0.5952  0.8580 -0.4539
  791MOL0     C 9042   9.198   1.096   5.954 -0.3379 -0.9615 -0.9048
  791MOL0     C 9043   9.199   1.006   5.831 -0.0932 -0.6513 -0.4669
  791MOL0     O 9044   9.245   0.875   5.862  0.3413  0.0028  0.6263
  791MOL0     C 9045   9.380   0.853   5.867 -0.3160  0.9704  0.2107
  791MOL0     C 9046   9.419   0.718   5.887  0.3943 -0.1004  0.2983
  791MOL0     C 9047   9.553   0.686   5.908  0.3083  0.0905 -0.3457
  791MOL0     C 9048   9.585   0.545   5.948 -0.5532 -1.1044  0.1401
  791MOL0     C 9049   9.660   0.786   5.907 -0.3520 -0.2483  0.4438
  791MOL0     C 9050   9.804   0.769   5.931 -0.4269 -0.5034 -0.0715
  791MOL0     O 9051   9.889   0.850   5.851 -0.4829  1.1047 -0.3937
  791MOL0     C 9052  10.028   0.829   5.857  0.8528  0.7872 -0.3299
  791MOL0     C 9053  10.088   0.818   5.735 -0.8843 -0.2432  0.2414
  791MOL0     C 9054  10.231   0.817   5.717 -0.0483 -0.3843  0.6547
  791MOL0     C 9055  10.309   0.829   5.824  0.0413  0.4500  0.4731
  791MOL0     O 9056  10.447   0.851   5.812  0.5895 -0.0150  0.6119
  791MOL0     C 9057  10.519   0.789   5.706 -0.4857  0.0984 -0.2105
  791MOL0     C 9058  10.668   0.804   5.715 -0.3753  0.1703  0.3792
  791MOL0     C 9059  10.709   0.943   5.739  0.6923 -0.4267 -0.2012
  791MOL0     C 9060  10.859   0.961   5.742  0.5800 -0.4243 -0.7669
  791MOL0     C 9061  10.915   0.984   5.602 -0.2558 -0.4989  0.3478
  791MOL0     C 9062  11.067   0.980   5.592  0.1589  0.4076  0.1095
  791MOL0     C 9063  11.111   0.953   5.444  0.3897  0.1196 -0.2146
  791MOL0     C 9064  11.261   0.963   5.425 -0.0533  0.5828 -0.5311
  791MOL0    Cl 9065  11.324   1.128   5.485  0.0143 -0.5484 -0.4548
  791MOL0     C 9066  10.256   0.855   5.950 -0.1674  0.3604 -0.6681
  791MOL0     C 9067  10.118   0.848   5.966  0.5125 -0.2791 -0.0471
  791MOL0     O 9068   9.847   0.688   6.014  1.1275 -0.3869 -0.1528
  791MOL0     C 9069   9.611   0.914   5.867 -0.5425  0.1156 -0.0103
  791MOL0     C 9070   9.482   0.950   5.847  0.4196  0.1734  0.0558
  791MOL0     N 9071   9.178   1.063   6.393 -0.1825  0.5437 -0.2609
  791MOL0     N 9072   9.152   0.988   6.498 -0.2604 -0.2240  0.9843
  791MOL0     C 9073   8.376   0.901   7.207 -0.0933  0.2907  0.2720
  791MOL0     C 9074   8.265   0.989   7.211 -0.7598 -0.5261  1.0239
  791MOL0     C 9075   8.014   1.395   7.266  0.3709  0.3147 -0.2311
  791MOL0     C 9076   7.907   1.329   7.196  0.6302  0.5167 -0.7842
  791MOL0     C 9077   7.779   1.382   7.195  0.3298  0.7569 -0.1739
  791MOL0     C 9078   7.750   1.503   7.242 -0.3442 -0.6697 -0.4466
  791MOL0     O 9079   7.630   1.568   7.236 -0.0000  0.2951  0.4283
  791MOL0     C 9080   7.511   1.494   7.200 -0.8549  0.4609  0.7648
  791MOL0     C 9081   7.394   1.587   7.193  0.4582 -0.1764 -1.0448
  791MOL0     C 9082   7.258   1.524   7.138 -0.2536  0.7457  0.0907
  791MOL0     C 9083   7.142   1.600   7.204  0.1257 -0.0924  0.0670
  791MOL0     C 9084   7.014   1.577   7.143  0.6665  0.7834  0.4405
  791MOL0     C 9085   6.911   1.565   7.074 -0.0538 -0.0613 -0.2415
  791MOL0     C 9086   7.856   1.573   7.301 -0.2614 -0.5186 -0.7828
  791MOL0     C 9087   7.990   1.526   7.309  0.0833 -0.1370 -0.1253
  791MOL0     C 9088   8.098   1.620   7.355 -0.2275  0.4861 -0.0786
  791MOL0     H 9089   8.424   1.283   7.240  0.7857 -0.0804 -2.0241
  791MOL0     H 9090   8.618   1.134   7.266 -0.4714 -0.0231  2.7227
  791MOL0     H 9091   8.546   0.709   7.129  2.9184  0.5227 -1.6344
  791MOL0     H 9092   8.555   0.686   7.302 -1.4732 -1.5630 -1.8973
  791MOL0     H 9093   8.812   0.703   7.281 -0.0357 -1.6783  0.1579
  791MOL0     H 9094   8.743   0.575   7.196 -1.1465 -0.7920 -0.4707
  791MOL0     H 9095   8.739   0.698   6.984  1.3526 -2.8176  0.4830
  791MOL0     H 9096   8.790   0.849   7.055  0.1496  0.1408 -0.0009
  791MOL0     H 9097   8.999   0.714   7.146 -1.0202  0.3715  0.3100
  791MOL0     H 9098   8.942   0.582   7.035  1.6214 -0.2331 -0.2305
  791MOL0     H 9099   9.120   0.744   6.952  0.2296  0.2084  1.4926
  791MOL0     H 9100   9.012   0.888   6.966  0.9351 -0.3902  0.9000
  791MOL0     H 9101   8.967   0.653   6.780  1.3130  0.0733  0.9383
  791MOL0     H 9102   8.859   0.793   6.801  0.2872  0.7159 -1.7166
  791MOL0     H 9103   9.149   0.822   6.713  0.6405  1.2918 -3.9839
  791MOL0     H 9104   9.026   0.952   6.715  0.2290 -0.3454  1.2206
  791MOL0     H 9105   9.012   0.707   6.548 -1.9725 -0.1546  0.3294
  791MOL0     H 9106   8.885   0.829   6.573 -0.1345  0.7702 -2.2297
  791MOL0     H 9107   8.923   0.890   6.282 -0.2883  0.0772  1.3595
  791MOL0     H 9108   9.121   1.205   6.170 -0.4021  1.0501 -1.7299
  791MOL0     H 9109   8.964   1.138   6.157 -1.3348 -1.9901  0.9971
  791MOL0     H 9110   9.135   0.932   6.073  0.2297  0.1376 -2.3301
  791MOL0     H 9111   9.006   1.006   5.994  0.4573 -1.3552  0.8112
  791MOL0     H 9112   9.185   1.203   5.931 -1.6040 -0.8173  0.4268
  791MOL0     H 9113   9.297   1.096   6.000 -0.2917  0.4024 -0.9564
  791MOL0     H 9114   9.092   1.003   5.807 -0.4635  2.4564  0.3737
  791MOL0     H 9115   9.261   1.040   5.748  0.9552 -1.8604 -0.2138
  791MOL0     H 9116   9.348   0.636   5.886 -1.8480  1.7536 -0.5363
  791MOL0     H 9117   9.649   0.499   5.872  1.5436  0.4301  0.9022
  791MOL0     H 9118   9.493   0.486   5.959 -0.1892 -2.2764 -2.2794
  791MOL0     H 9119   9.636   0.545   6.045 -1.7208  0.4970  0.7832
  791MOL0     H 9120  10.017   0.801   5.654 -0.2802  0.2386 -0.4048
  791MOL0     H 9121  10.268   0.813   5.615 -0.8549 -1.8851  0.4019
  791MOL0     H 9122  10.492   0.683   5.697 -0.0787 -0.3511  2.8627
  791MOL0     H 9123  10.492   0.842   5.614 -1.7680  3.2080  1.8081
  791MOL0     H 9124  10.714   0.735   5.788 -0.7929 -2.1999 -1.4653
  791MOL0     H 9125  10.708   0.769   5.619 -1.3178  0.0568  0.0218
  791MOL0     H 9126  10.660   0.976   5.832 -1.0428 -2.4117 -0.3244
  791MOL0     H 9127  10.674   1.008   5.658  2.9959 -0.6002 -1.4151
  791MOL0     H 9128  10.912   0.875   5.785  3.8466  0.9346 -1.7443
  791MOL0     H 9129  10.874   1.052   5.801 -1.0555 -0.0909 -0.8320
  791MOL0     H 9130  10.876   0.909   5.533  2.8770 -1.3418 -0.6669
  791MOL0     H 9131  10.871   1.078   5.568  0.4066  0.1906  1.3528
  791MOL0     H 9132  11.103   0.904   5.662 -0.0335  0.9095  0.7609
  791MOL0     H 9133  11.107   1.077   5.623  1.7540 -0.2595  0.2162
  791MOL0     H 9134  11.065   1.026   5.377 -0.8451  0.1458  0.6236
  791MOL0     H 9135  11.083   0.854   5.406 -0.8352 -0.3963  1.8235
  791MOL0     H 9136  11.285   0.952   5.319  1.3843  0.1182 -0.1734
  791MOL0     H 9137  11.311   0.883   5.480  0.4293  1.5336  0.4439
  791MOL0     H 9138  10.327   0.862   6.032  0.8379  0.4044 -1.5229
  791MOL0     H 9139  10.075   0.840   6.065  0.0809 -1.8062 -0.3205
  791MOL0     H 9140   9.682   0.996   5.870  0.4679 -0.7385  0.4887
  791MOL0     H 9141   9.468   1.055   5.822  1.9091  0.2267 -0.6918
  791MOL0     H 9142   8.359   0.794   7.195  0.0430  0.2924  0.0477
  791MOL0     H 9143   8.164   0.949   7.218 -0.1943 -1.9069  1.6708
  791MOL0     H 9144   7.926   1.234   7.147 -1.7679  0.5980 -2.0557
  791MOL0     H 9145   7.696   1.322   7.159  0.0921 -0.0349  1.5846
  791MOL0     H 9146   7.526   1.452   7.100 -0.1871 -0.7352  1.3382
  791MOL0     H 9147   7.498   1.408   7.267 -1.3721  2.4272  3.3106
  791MOL0     H 9148   7.418   1.669   7.125  0.6004 -0.6567 -1.5813
  791MOL0     H 9149   7.371   1.633   7.290 -0.6407  0.6347 -1.6528
  791MOL0     H 9150   7.251   1.539   7.030  0.9969  1.8816  0.1303
  791MOL0     H 9151   7.250   1.416   7.153  0.9759  0.6110 -0.1146
  791MOL0     H 9152   7.165   1.706   7.193  0.6924 -0.3369 -1.4993
  791MOL0     H 9153   7.150   1.571   7.309  3.1281  1.0524  0.2433
  791MOL0     H 9154   6.828   1.553   7.007 -0.3348  0.0844  0.0778
  791MOL0     H 9155   7.836   1.671   7.345  2.9982  0.1294 -0.5242
  791MOL0     H 9156   8.138   1.593   7.453  2.5383 -1.0675 -1.5165
  791MOL0     H 9157   8.176   1.602   7.280 -1.3361 -2.0007 -0.7134
  791MOL0     H 9158   8.068   1.725   7.368  1.6961  0.8894  1.7831
  792MOL0     O 9159   5.927   7.295  11.281 -0.0095 -0.2617  0.1429
  792MOL0     C 9160   5.905   7.219  11.381 -0.1353 -0.0363  1.4133
  792MOL0     O 9161   6.004   7.173  11.470 -0.5083  0.3786 -0.0942
  792MOL0     C 9162   6.130   7.226  11.450  0.5470 -0.4787  0.1408
  792MOL0     C 9163   6.170   7.368  11.437  0.4595 -0.5546  0.8799
  792MOL0     C 9164   6.309   7.399  11.436 -0.1580  0.0606 -0.1620
  792MOL0     C 9165   6.413   7.309  11.438  0.3641  0.2299 -0.4811
  792MOL0     O 9166   6.540   7.346  11.432  0.0629  0.4997  0.5839
  792MOL0     C 9167   6.630   7.253  11.491 -0.4894 -0.5405 -0.2969
  792MOL0     C 9168   6.749   7.338  11.538  0.5604 -0.0034  0.5287
  792MOL0     C 9169   6.865   7.253  11.584 -0.4027 -0.0495 -0.2192
  792MOL0     C 9170   6.982   7.339  11.639  0.5334 -0.5018  0.2011
  792MOL0     C 9171   7.106   7.258  11.655  0.5667 -0.0355 -0.4658
  792MOL0     C 9172   7.218   7.352  11.715  0.7857 -0.1009  0.3183
  792MOL0     C 9173   7.339   7.271  11.774 -0.1831 -0.2171 -0.1023
  792MOL0     C 9174   7.450   7.363  11.826  0.4448 -0.2006  0.0003
  792MOL0     N 9175   7.556   7.288  11.890  0.6694 -0.1940 -0.3648
  792MOL0     C 9176   7.669   7.246  11.821  0.5169  0.0777 -0.0327
  792MOL0     C 9177   7.748   7.204  11.919  0.2592 -0.4575  0.6031
  792MOL0     C 9178   7.891   7.161  11.904  0.1352  0.6259 -0.3157
  792MOL0     C 9179   7.973   7.198  12.026  0.4900 -0.4246  0.2033
  792MOL0     C 9180   8.094   7.287  11.989 -0.0449 -0.3737  0.0461
  792MOL0     C 9181   8.196   7.196  11.915  0.6262 -0.7128  0.3576
  792MOL0     O 9182   8.258   7.108  12.013  0.4786  0.2139  0.5128
  792MOL0     C 9183   8.372   7.144  12.077 -0.1180  0.4270  0.2670
  792MOL0     C 9184   8.454   7.041  12.111 -0.7120  0.9652 -0.1564
  792MOL0     C 9185   8.577   7.059  12.183  0.2663 -0.4301  0.4952
  792MOL0     C 9186   8.653   6.930  12.215  0.4351  0.2062  0.3148
  792MOL0     C 9187   8.624   7.191  12.205  0.6883  0.9172  0.0828
  792MOL0     C 9188   8.762   7.211  12.262 -0.5240 -0.1842 -0.1219
  792MOL0     O 9189   8.780   7.321  12.344  0.0775  0.1517  0.2628
  792MOL0     C 9190   8.916   7.352  12.358  0.0493  0.4157 -1.0531
  792MOL0     C 9191   8.983   7.290  12.468  0.2949  0.0028 -0.6560
  792MOL0     C 9192   9.114   7.324  12.499 -0.5441 -1.0384 -0.9735
  792MOL0     C 9193   9.184   7.409  12.423 -0.0636 -0.3405 -0.0603
  792MOL0     O 9194   9.306   7.443  12.472  0.2228  0.4671  0.0799
  792MOL0     C 9195   9.373   7.563  12.409  0.6081  0.0721  0.1402
  792MOL0     C 9196   9.497   7.599  12.494 -1.0143 -0.2712 -0.0603
  792MOL0     C 9197   9.457   7.643  12.641 -0.6279  0.2547  0.4180
  792MOL0     C 9198   9.573   7.700  12.718 -0.2019 -0.6077  0.3749
  792MOL0     C 9199   9.557   7.697  12.874  0.0210 -0.0624  0.7698
  792MOL0     C 9200   9.650   7.800  12.929  0.2733 -0.8038 -1.4052
  792MOL0     C 9201   9.644   7.792  13.080 -0.0517  0.6282 -0.2232
  792MOL0     C 9202   9.781   7.820  13.146  0.2422 -0.2887  0.2461
  792MOL0    Cl 9203   9.789   7.789  13.318  0.1777  0.0471  0.1997
  792MOL0     C 9204   9.119   7.477  12.315  0.2076 -0.4143  0.8996
  792MOL0     C 9205   8.985   7.447  12.278  0.2308 -0.1883 -0.0647
  792MOL0     O 9206   8.853   7.129  12.248 -0.5647 -0.0720  0.5119
  792MOL0     C 9207   8.539   7.301  12.169 -0.0026  0.3484 -0.2561
  792MOL0     C 9208   8.418   7.272  12.108 -0.2948 -0.4638 -0.0787
  792MOL0     N 9209   7.671   7.208  12.038 -0.1309  0.2988  0.2593
  792MOL0     N 9210   7.557   7.264  12.022  0.0971 -0.0033  0.2817
  792MOL0     C 9211   6.368   7.168  11.439 -0.4900 -0.2240  0.2285
  792MOL0     C 9212   6.232   7.129  11.449 -0.0519 -0.4994  0.5742
  792MOL0     C 9213   5.763   7.164  11.395 -0.8927  0.5459 -0.6032
  792MOL0     C 9214   5.667   7.190  11.301  0.1475  0.1038 -0.0819
  792MOL0     C 9215   5.537   7.152  11.317 -0.5762  0.5630 -0.0008
  792MOL0     C 9216   5.493   7.070  11.424  0.2270  0.6030  0.0151
  792MOL0     O 9217   5.369   7.009  11.442 -0.2086  0.1015 -0.9755
  792MOL0     C 9218   5.260   7.032  11.346  0.4010 -0.2898 -0.6775
  792MOL0     C 9219   5.144   6.945  11.387 -0.7209 -0.3143 -0.0794
  792MOL0     C 9220   5.007   6.983  11.322  0.4006 -0.7967 -0.2129
  792MOL0     C 9221   4.912   6.873  11.362 -0.8994 -0.3295 -0.1112
  792MOL0     C 9222   4.933   6.758  11.272  0.8177  0.0114  0.2287
  792MOL0     C 9223   4.944   6.663  11.200 -0.0504 -0.3762  0.2370
  792MOL0     C 9224   5.584   7.044  11.522 -0.8747  0.3961 -0.1531
  792MOL0     C 9225   5.721   7.084  11.508 -0.9546 -0.8112  0.3746
  792MOL0     C 9226   5.812   7.046  11.626  0.2962 -0.2712  0.6918
  792MOL0     H 9227   6.095   7.446  11.433 -0.4141 -1.3816 -3.0383
  792MOL0     H 9228   6.321   7.506  11.452 -1.4075  0.0908  0.7614
  792MOL0     H 9229   6.661   7.175  11.421 -1.2442 -1.6093  0.5251
  792MOL0     H 9230   6.587   7.203  11.578  0.9289 -1.2119  0.0561
  792MOL0     H 9231   6.792   7.407  11.464 -0.6937 -0.0858 -0.3091
  792MOL0     H 9232   6.705   7.397  11.620  0.1720  0.6274 -0.1224
  792MOL0     H 9233   6.830   7.180  11.658 -1.1675  0.2963 -0.2293
  792MOL0     H 9234   6.891   7.180  11.507 -1.5695 -2.3232  1.4213
  792MOL0     H 9235   7.000   7.419  11.567 -1.7715 -1.0788 -1.1348
  792MOL0     H 9236   6.962   7.379  11.738  3.1055 -3.7029  2.2401
  792MOL0     H 9237   7.148   7.235  11.556  0.3363 -1.9676 -0.1612
  792MOL0     H 9238   7.091   7.166  11.713  1.3118  0.2742  0.2283
  792MOL0     H 9239   7.259   7.413  11.635  0.3646  1.0569  0.9608
  792MOL0     H 9240   7.190   7.424  11.793 -1.0685 -1.1632  0.7040
  792MOL0     H 9241   7.378   7.212  11.690 -0.4769 -0.2657 -0.2050
  792MOL0     H 9242   7.304   7.197  11.846  2.8799 -1.5817  0.1283
  792MOL0     H 9243   7.498   7.427  11.750  0.6995  1.1150  1.2263
  792MOL0     H 9244   7.412   7.439  11.894  0.1246  0.7337 -1.1818
  792MOL0     H 9245   7.693   7.244  11.716  1.3823  0.5002  0.1538
  792MOL0     H 9246   7.936   7.213  11.818  1.4576 -1.8415 -1.2043
  792MOL0     H 9247   7.917   7.058  11.879 -0.5530 -0.0995  1.7410
  792MOL0     H 9248   7.913   7.245  12.105  1.0535 -2.1859  1.7431
  792MOL0     H 9249   8.012   7.102  12.062  0.2275 -0.6666 -0.1468
  792MOL0     H 9250   8.061   7.376  11.935 -1.6038 -0.1269  1.3240
  792MOL0     H 9251   8.142   7.319  12.082  1.2445 -0.8380 -0.4414
  792MOL0     H 9252   8.143   7.137  11.840 -0.5595 -0.6174  1.0883
  792MOL0     H 9253   8.271   7.261  11.868  0.7518 -0.5572  0.7635
  792MOL0     H 9254   8.413   6.941  12.100  1.9975 -0.2564 -0.0490
  792MOL0     H 9255   8.711   6.929  12.308  0.2876 -1.1857  0.4249
  792MOL0     H 9256   8.709   6.891  12.129 -1.7340 -0.2230 -0.9952
  792MOL0     H 9257   8.576   6.858  12.245  2.5430 -2.1309  0.5000
  792MOL0     H 9258   8.938   7.219  12.536  2.8006 -0.2088  0.8980
  792MOL0     H 9259   9.173   7.286  12.582  3.7771  0.9372 -2.8279
  792MOL0     H 9260   9.415   7.544  12.310  2.1308  0.7652  0.6194
  792MOL0     H 9261   9.308   7.651  12.414 -0.5335 -0.8269  3.1635
  792MOL0     H 9262   9.562   7.511  12.494  0.0195  0.4605 -1.4179
  792MOL0     H 9263   9.548   7.683  12.448  0.2456 -0.9804  0.0037
  792MOL0     H 9264   9.432   7.552  12.695 -0.2888 -0.0342  0.0926
  792MOL0     H 9265   9.376   7.716  12.642 -1.3121 -0.5026  1.0655
  792MOL0     H 9266   9.585   7.805  12.687  1.6921 -0.7738  0.4441
  792MOL0     H 9267   9.664   7.652  12.681 -0.8489 -0.9095 -0.8726
  792MOL0     H 9268   9.453   7.729  12.890 -0.1656  1.0393 -2.0681
  792MOL0     H 9269   9.567   7.597  12.917 -1.2136 -0.4967  0.1032
  792MOL0     H 9270   9.608   7.895  12.894  1.0770 -0.0362 -0.3767
  792MOL0     H 9271   9.751   7.781  12.892  0.2453 -3.7941 -0.1942
  792MOL0     H 9272   9.616   7.688  13.101  2.4582 -0.2365 -0.7621
  792MOL0     H 9273   9.567   7.854  13.127  0.0756  2.0151 -1.7591
  792MOL0     H 9274   9.813   7.924  13.130 -1.2051  0.2293  0.5470
  792MOL0     H 9275   9.862   7.763  13.101  0.9816 -1.4405  2.8467
  792MOL0     H 9276   9.176   7.546  12.254  2.0924 -1.7166  1.0901
  792MOL0     H 9277   8.935   7.480  12.188  0.2600  2.2578  0.7378
  792MOL0     H 9278   8.576   7.401  12.188 -0.5050  0.3369  0.8545
  792MOL0     H 9279   8.360   7.361  12.087  2.2474  1.4205  0.3204
  792MOL0     H 9280   6.433   7.083  11.422 -1.4894 -0.5477 -2.4550
  792MOL0     H 9281   6.206   7.024  11.456 -0.1951 -0.5558 -0.5860
  792MOL0     H 9282   5.692   7.259  11.221  3.6838 -0.6673  0.1868
  792MOL0     H 9283   5.461   7.163  11.240 -2.3321  0.2333  1.5950
  792MOL0     H 9284   5.230   7.137  11.356 -0.7165 -0.7638  1.8910
  792MOL0     H 9285   5.300   7.026  11.245 -2.1454  1.0205 -1.8683
  792MOL0     H 9286   5.134   6.962  11.494 -0.3469  0.6722 -0.1889
  792MOL0     H 9287   5.183   6.843  11.379 -0.3042 -0.2785  1.3460
  792MOL0     H 9288   4.974   7.085  11.344  0.4843 -1.0276  1.1013
  792MOL0     H 9289   5.027   6.988  11.215 -0.4166 -2.2099 -0.4547
  792MOL0     H 9290   4.807   6.904  11.360 -0.2463  2.0494 -0.2693
  792MOL0     H 9291   4.936   6.841  11.464  0.6631 -0.5632 -0.5324
  792MOL0     H 9292   4.956   6.573  11.144  0.8114  0.1940 -0.5279
  792MOL0     H 9293   5.539   6.994  11.607  1.1992  0.6737  1.1828
  792MOL0     H 9294   5.874   7.131  11.656  2.0255 -1.1592 -0.2065
  792MOL0     H 9295   5.750   7.028  11.714 -0.8776 -1.5679 -0.3559
  792MOL0     H 9296   5.869   6.961  11.589  0.0118 -0.2903  0.2982
  793MOL0     O 9297   6.718  10.845   1.352 -0.5738 -0.0321  1.3626
  793MOL0     C 9298   6.629  10.906   1.288 -0.3633 -0.0799 -0.4795
  793MOL0     O 9299   6.629  10.951   1.157 -0.1041  0.3459 -0.8490
  793MOL0     C 9300   6.748  10.933   1.099  0.0416  0.2377  0.2953
  793MOL0     C 9301   6.849  11.028   1.111 -0.5435  0.6910 -0.6410
  793MOL0     C 9302   6.966  11.011   1.033 -0.3706  0.2342 -0.5211
  793MOL0     C 9303   6.981  10.905   0.943 -0.2713  0.5822 -0.1327
  793MOL0     O 9304   7.096  10.896   0.861  0.3414 -0.0293 -0.2672
  793MOL0     C 9305   7.065  10.883   0.724  0.9687  0.3626  0.3328
  793MOL0     C 9306   7.159  10.786   0.656  0.1547  0.2448  0.2723
  793MOL0     C 9307   7.148  10.639   0.704 -0.5462  0.8864 -1.2021
  793MOL0     C 9308   7.175  10.539   0.595 -0.1008  0.0451  0.6162
  793MOL0     C 9309   7.185  10.394   0.643  0.6634  0.5146  0.1813
  793MOL0     C 9310   7.178  10.288   0.528 -0.5146  0.3688  0.3127
  793MOL0     C 9311   7.223  10.146   0.568  0.2927  0.1035 -0.3107
  793MOL0     C 9312   7.164  10.022   0.491 -0.3591 -0.1144 -0.3071
  793MOL0     N 9313   7.193  10.027   0.349  0.3138  0.0130  0.2689
  793MOL0     C 9314   7.314  10.069   0.290 -0.4665  0.4727  1.0386
  793MOL0     C 9315   7.280  10.096   0.162  0.2391  0.6051  0.9454
  793MOL0     C 9316   7.366  10.160   0.052 -0.7268 -0.3434 -0.3499
  793MOL0     C 9317   7.446  10.056  -0.023  0.5065  0.4180  0.5708
  793MOL0     C 9318   7.533  10.103  -0.143  0.1230  0.4813  0.1471
  793MOL0     C 9319   7.667  10.028  -0.151 -0.0333  0.5868 -0.0280
  793MOL0     O 9320   7.650   9.882  -0.159 -0.6468  0.4366 -0.3283
  793MOL0     C 9321   7.759   9.806  -0.160  0.1224 -0.0246  0.6666
  793MOL0     C 9322   7.733   9.669  -0.167 -0.6624 -0.0825  0.1737
  793MOL0     C 9323   7.840   9.576  -0.163  0.2114 -0.3385  0.4219
  793MOL0     C 9324   7.801   9.429  -0.169 -0.4581 -0.5152 -1.1079
  793MOL0     C 9325   7.977   9.616  -0.163  0.2373  0.1512  0.0778
  793MOL0     C 9326   8.101   9.522  -0.166  0.2718 -0.0024  0.5120
  793MOL0     O 9327   8.219   9.587  -0.189  0.8229 -0.3660 -0.9366
  793MOL0     C 9328   8.339   9.522  -0.158 -0.8069 -0.1832 -0.2321
  793MOL0     C 9329   8.447   9.559  -0.232  0.1436 -0.0240 -0.1075
  793MOL0     C 9330   8.567   9.502  -0.205 -0.3657 -0.6054 -0.6044
  793MOL0     C 9331   8.589   9.410  -0.102  0.2350  0.3924  0.7218
  793MOL0     O 9332   8.710   9.352  -0.083 -0.0754  0.6565  0.0193
  793MOL0     C 9333   8.742   9.238  -0.157 -0.0925 -0.1549  0.2851
  793MOL0     C 9334   8.886   9.239  -0.188  0.7856  0.1544  0.9585
  793MOL0     C 9335   8.932   9.130  -0.287 -0.3635 -0.7277 -0.1607
  793MOL0     C 9336   9.083   9.134  -0.303 -0.4195 -0.4766 -0.3052
  793MOL0     C 9337   9.129   9.036  -0.420  0.8117  0.0882 -0.6847
  793MOL0     C 9338   9.283   9.023  -0.414 -1.1692  0.0650  0.8585
  793MOL0     C 9339   9.367   9.149  -0.447 -0.3280 -0.1371 -0.5506
  793MOL0     C 9340   9.511   9.124  -0.415  0.5108  0.7302  0.0082
  793MOL0    Cl 9341   9.604   9.271  -0.442 -0.1003 -0.3182  0.0358
  793MOL0     C 9342   8.483   9.378  -0.021  0.0744 -0.2332 -0.1956
  793MOL0     C 9343   8.357   9.435  -0.045  0.6181 -0.0314 -1.1285
  793MOL0     O 9344   8.091   9.396  -0.160  0.1782  0.5177  0.8634
  793MOL0     C 9345   8.001   9.757  -0.167 -0.1057  0.2357 -0.3872
  793MOL0     C 9346   7.892   9.848  -0.169  0.6476 -0.4620  0.1438
  793MOL0     N 9347   7.146  10.064   0.141 -0.1848  0.1044 -0.1610
  793MOL0     N 9348   7.100  10.015   0.250  0.2509 -0.3991 -0.2364
  793MOL0     C 9349   6.876  10.817   0.928 -0.9294  0.0593 -0.3042
  793MOL0     C 9350   6.759  10.823   1.009  1.0369 -0.0937  0.9389
  793MOL0     C 9351   6.511  10.942   1.372 -0.2624  0.4680  0.4135
  793MOL0     C 9352   6.451  10.838   1.438  0.1783  0.3888  0.5589
  793MOL0     C 9353   6.326  10.858   1.497 -1.0362  0.0903 -0.3654
  793MOL0     C 9354   6.269  10.981   1.495 -0.0975  1.1175 -0.0949
  793MOL0     O 9355   6.147  11.011   1.555 -0.0696 -0.1132 -0.2805
  793MOL0     C 9356   6.064  10.912   1.606  0.3136 -0.6045 -0.9390
  793MOL0     C 9357   5.927  10.964   1.648 -0.3288  0.5637  0.5607
  793MOL0     C 9358   5.954  11.084   1.747  0.1305  0.2689 -0.0987
  793MOL0     C 9359   5.827  11.151   1.798 -0.2015 -0.3524 -0.2812
  793MOL0     C 9360   5.848  11.283   1.864  0.3950 -0.0502  0.0549
  793MOL0     C 9361   5.859  11.401   1.896  0.8644  0.1105  0.3951
  793MOL0     C 9362   6.327  11.079   1.417 -1.0212 -0.0910 -0.5842
  793MOL0     C 9363   6.455  11.065   1.361  0.6939  0.2507  0.2448
  793MOL0     C 9364   6.523  11.183   1.293  0.2603  0.2928 -0.0229
  793MOL0     H 9365   6.834  11.117   1.171  0.8477  1.3431 -1.2443
  793MOL0     H 9366   7.045  11.085   1.041 -0.9381  0.7410  0.7066
  793MOL0     H 9367   7.058  10.981   0.677 -0.7760  0.4417  0.6701
  793MOL0     H 9368   6.965  10.845   0.701  1.1750 -2.0889  2.9009
  793MOL0     H 9369   7.159  10.790   0.547  1.5984  0.3740  0.2603
  793MOL0     H 9370   7.258  10.822   0.686  0.6347  0.0364 -1.0254
  793MOL0     H 9371   7.213  10.621   0.791 -1.8914  1.2894 -0.0826
  793MOL0     H 9372   7.050  10.616   0.745  0.5298 -2.3755 -0.1654
  793MOL0     H 9373   7.101  10.556   0.515  2.4506  1.3421 -1.6474
  793MOL0     H 9374   7.269  10.562   0.544 -0.5590  0.3971 -0.0951
  793MOL0     H 9375   7.100  10.391   0.712  0.5888  1.2021  0.1296
  793MOL0     H 9376   7.275  10.383   0.704 -0.1783 -0.9925  1.2301
  793MOL0     H 9377   7.079  10.290   0.482  0.8848 -0.0422 -3.0926
  793MOL0     H 9378   7.249  10.326   0.453 -1.3020  2.7784  0.7051
  793MOL0     H 9379   7.196  10.129   0.673 -3.1437  0.1196 -1.0538
  793MOL0     H 9380   7.332  10.141   0.564  0.3214  0.8566 -0.7069
  793MOL0     H 9381   7.210   9.931   0.531 -1.0114 -0.5513 -0.5376
  793MOL0     H 9382   7.057  10.010   0.510  0.0470  1.1214  3.5320
  793MOL0     H 9383   7.412  10.076   0.336  1.1761 -1.8119 -1.7709
  793MOL0     H 9384   7.436  10.231   0.097 -0.4175  0.5408 -2.1505
  793MOL0     H 9385   7.296  10.204  -0.020  0.5647  0.9328 -0.8672
  793MOL0     H 9386   7.511  10.012   0.054  0.2781 -0.6406  0.1699
  793MOL0     H 9387   7.366   9.989  -0.056  1.2943 -0.2395 -0.0618
  793MOL0     H 9388   7.472  10.084  -0.231 -1.3931  0.7650  1.1041
  793MOL0     H 9389   7.547  10.211  -0.129 -0.7700  0.3975  2.1071
  793MOL0     H 9390   7.719  10.068  -0.238  0.6821  2.6339  1.2623
  793MOL0     H 9391   7.719  10.045  -0.056 -0.1403 -0.8542  0.3003
  793MOL0     H 9392   7.630   9.635  -0.171 -1.8302  2.3701  3.9369
  793MOL0     H 9393   7.827   9.382  -0.264 -2.1911 -0.2105 -1.7695
  793MOL0     H 9394   7.693   9.418  -0.155 -0.4762  1.6904  1.2230
  793MOL0     H 9395   7.854   9.378  -0.088 -0.6869  0.2965 -0.4375
  793MOL0     H 9396   8.440   9.632  -0.312 -2.0261 -0.4766 -0.3984
  793MOL0     H 9397   8.652   9.539  -0.261 -1.4648  2.5179 -0.4577
  793MOL0     H 9398   8.708   9.148  -0.106  1.4015 -1.0987 -0.3271
  793MOL0     H 9399   8.701   9.235  -0.259  1.1192  0.3807 -0.2384
  793MOL0     H 9400   8.918   9.332  -0.236  1.2597 -0.7548 -0.5925
  793MOL0     H 9401   8.944   9.222  -0.097  1.5686  0.3451  0.5108
  793MOL0     H 9402   8.872   9.134  -0.378 -1.7312  1.5763  0.7587
  793MOL0     H 9403   8.917   9.038  -0.229  1.6171 -0.8346  0.2544
  793MOL0     H 9404   9.136   9.104  -0.212  2.0110  1.5838 -0.9188
  793MOL0     H 9405   9.106   9.239  -0.325 -1.9028 -0.2229 -0.8040
  793MOL0     H 9406   9.085   8.938  -0.401 -0.2557  0.5700 -0.6029
  793MOL0     H 9407   9.103   9.071  -0.521 -2.5342 -5.4209 -2.1673
  793MOL0     H 9408   9.314   8.942  -0.481 -0.6143  0.0376  1.1371
  793MOL0     H 9409   9.299   8.991  -0.310 -2.9393  1.2677  1.5609
  793MOL0     H 9410   9.339   9.237  -0.388  2.7925  1.0339 -0.6164
  793MOL0     H 9411   9.349   9.174  -0.552  2.9229 -0.5429 -1.3095
  793MOL0     H 9412   9.559   9.055  -0.486  0.3401  1.3143 -0.6835
  793MOL0     H 9413   9.520   9.088  -0.312  0.3464 -0.2146 -0.2903
  793MOL0     H 9414   8.485   9.288   0.039  1.7602  0.9027  1.5812
  793MOL0     H 9415   8.269   9.399   0.007  1.7536  1.0993  1.7583
  793MOL0     H 9416   8.103   9.795  -0.177  0.0879  0.1910  1.0710
  793MOL0     H 9417   7.909   9.950  -0.203  0.8033  0.1751  1.9927
  793MOL0     H 9418   6.880  10.742   0.851 -1.4552 -1.4405  1.0746
  793MOL0     H 9419   6.675  10.755   1.011  0.5204  0.4901 -0.1804
  793MOL0     H 9420   6.500  10.742   1.449 -0.0662  0.1630 -0.2896
  793MOL0     H 9421   6.279  10.781   1.558 -0.3100  0.3489  0.5451
  793MOL0     H 9422   6.042  10.832   1.534 -0.3085  1.0594 -2.6793
  793MOL0     H 9423   6.118  10.868   1.690  2.6746  2.6534 -0.5767
  793MOL0     H 9424   5.873  10.886   1.702 -0.6971 -0.0204 -0.6100
  793MOL0     H 9425   5.874  10.991   1.556 -1.6389 -0.1727  1.0679
  793MOL0     H 9426   6.007  11.045   1.834  0.1948  0.2381 -0.1522
  793MOL0     H 9427   6.002  11.167   1.693 -0.9535  1.3069  0.4767
  793MOL0     H 9428   5.793  11.081   1.875 -0.0814 -0.9724 -0.7853
  793MOL0     H 9429   5.753  11.155   1.717  1.0381 -1.6228 -1.5101
  793MOL0     H 9430   5.874  11.506   1.906  1.4342 -0.1941  3.7586
  793MOL0     H 9431   6.283  11.176   1.399 -1.8659  0.0472  1.8141
  793MOL0     H 9432   6.478  11.278   1.322  0.6024  0.3321  0.3854
  793MOL0     H 9433   6.628  11.191   1.323  0.2191  0.2043  0.1470
  793MOL0     H 9434   6.521  11.168   1.185  0.7861 -0.3050  0.0445
  794MOL0     O 9435   1.628   1.260   7.896 -1.3643 -0.4544 -0.5814
  794MOL0     C 9436   1.558   1.244   7.798 -0.3020 -0.4121 -0.4033
  794MOL0     O 9437   1.604   1.263   7.673 -0.2679 -0.2227  0.2010
  794MOL0     C 9438   1.723   1.325   7.671 -0.2416  0.0613 -0.0657
  794MOL0     C 9439   1.836   1.241   7.681 -0.6887 -0.6325  0.0039
  794MOL0     C 9440   1.961   1.297   7.712 -0.8229 -0.6753  0.2688
  794MOL0     C 9441   1.979   1.436   7.720  0.3430  0.3151 -1.1356
  794MOL0     O 9442   2.101   1.498   7.739  0.5223  0.1378  0.1913
  794MOL0     C 9443   2.209   1.407   7.761 -0.9983 -0.1109 -0.2596
  794MOL0     C 9444   2.331   1.495   7.805 -0.8503  0.2011  0.4970
  794MOL0     C 9445   2.474   1.427   7.817 -0.2439 -0.5466  0.1295
  794MOL0     C 9446   2.571   1.522   7.881 -0.3672 -0.2222  0.8486
  794MOL0     C 9447   2.716   1.471   7.892 -0.5231 -0.8258  0.6436
  794MOL0     C 9448   2.777   1.446   7.750  0.6416  0.7844 -0.0553
  794MOL0     C 9449   2.933   1.440   7.751  0.2042 -0.4019  0.4267
  794MOL0     C 9450   2.998   1.461   7.612  0.7831 -0.4359 -0.0278
  794MOL0     N 9451   3.136   1.476   7.636 -0.2823  0.8131  0.4168
  794MOL0     C 9452   3.187   1.597   7.677 -0.3050 -0.4130  0.0267
  794MOL0     C 9453   3.324   1.573   7.687 -0.5048  0.0183 -0.0150
  794MOL0     C 9454   3.438   1.660   7.719 -0.3714  0.6210  0.2007
  794MOL0     C 9455   3.556   1.583   7.784  0.4400 -0.5799 -0.7215
  794MOL0     C 9456   3.680   1.672   7.783  0.9404 -0.5183 -0.8266
  794MOL0     C 9457   3.770   1.630   7.898 -0.6422  0.5460  1.0659
  794MOL0     O 9458   3.829   1.500   7.876  0.7256  0.3142  0.1183
  794MOL0     C 9459   3.941   1.464   7.948 -0.0255 -0.3076  0.1473
  794MOL0     C 9460   3.989   1.340   7.915  0.1138 -0.0064  0.0154
  794MOL0     C 9461   4.104   1.280   7.969  0.1423  0.3938  0.3230
  794MOL0     C 9462   4.158   1.148   7.910  0.4634  0.4182 -0.4677
  794MOL0     C 9463   4.163   1.352   8.074  0.5480  0.5425 -0.3263
  794MOL0     C 9464   4.281   1.310   8.149 -0.3451  0.6248 -0.4874
  794MOL0     O 9465   4.309   1.388   8.256 -0.3269  0.0775 -0.0521
  794MOL0     C 9466   4.389   1.334   8.350  0.0254  0.2665 -0.1619
  794MOL0     C 9467   4.350   1.305   8.481  0.9850 -0.5030 -0.3381
  794MOL0     C 9468   4.445   1.260   8.578  0.6664  0.5683  1.0867
  794MOL0     C 9469   4.580   1.250   8.551 -0.1479  0.1130  0.3033
  794MOL0     O 9470   4.654   1.226   8.656 -0.4390  0.1120 -0.5010
  794MOL0     C 9471   4.791   1.277   8.652 -0.0623 -0.5422 -0.1705
  794MOL0     C 9472   4.842   1.293   8.795  0.1164  0.3474 -0.0109
  794MOL0     C 9473   4.968   1.378   8.792 -1.0045 -0.5601 -0.3247
  794MOL0     C 9474   5.040   1.374   8.931 -0.0377  0.5698 -0.0431
  794MOL0     C 9475   5.167   1.466   8.943  0.1694 -0.0803 -0.5700
  794MOL0     C 9476   5.281   1.439   8.845 -0.2608  0.5016 -0.9729
  794MOL0     C 9477   5.392   1.547   8.833 -0.2053 -0.1490  0.2589
  794MOL0     C 9478   5.484   1.518   8.715 -0.0067 -0.0885  0.3583
  794MOL0    Cl 9479   5.555   1.363   8.763  0.1641 -0.5925 -0.1737
  794MOL0     C 9480   4.621   1.281   8.421  0.1425 -0.3098  0.4226
  794MOL0     C 9481   4.525   1.321   8.324  0.0600 -0.0003 -0.3018
  794MOL0     O 9482   4.348   1.213   8.120  0.1313  0.1201 -0.2638
  794MOL0     C 9483   4.120   1.486   8.102 -0.3832  0.1203 -0.4684
  794MOL0     C 9484   4.011   1.544   8.041  0.1118 -0.9387 -0.7223
  794MOL0     N 9485   3.348   1.448   7.642  0.3626 -0.7317  0.2543
  794MOL0     N 9486   3.238   1.390   7.615  0.6691  0.4010 -0.6440
  794MOL0     C 9487   1.864   1.520   7.697 -0.2162  0.6822 -0.2000
  794MOL0     C 9488   1.737   1.466   7.676 -0.2094  0.6640  1.1338
  794MOL0     C 9489   1.412   1.210   7.817  0.1004 -0.3095  1.0253
  794MOL0     C 9490   1.355   1.171   7.700 -0.0588  0.3844 -0.2584
  794MOL0     C 9491   1.223   1.129   7.688  0.2927  0.5330 -0.8211
  794MOL0     C 9492   1.137   1.138   7.797  0.4481 -0.2431  0.0577
  794MOL0     O 9493   1.004   1.095   7.807  0.8207 -0.4998  0.6551
  794MOL0     C 9494   0.926   1.075   7.690  0.3284  0.4666 -0.6379
  794MOL0     C 9495   0.776   1.084   7.729  0.2281  0.7735 -0.2573
  794MOL0     C 9496   0.739   0.962   7.811 -0.6981  0.3779  0.1580
  794MOL0     C 9497   0.702   0.996   7.956 -0.9818  0.8928  1.1314
  794MOL0     C 9498   0.788   1.089   8.031  0.3476 -0.8712 -0.7170
  794MOL0     C 9499   0.856   1.151   8.112 -0.3311  0.1892 -0.2863
  794MOL0     C 9500   1.192   1.177   7.920  0.4020 -0.0464  0.3915
  794MOL0     C 9501   1.331   1.212   7.932  1.1975  0.4828 -0.2624
  794MOL0     C 9502   1.385   1.231   8.066 -0.4441  0.0308 -0.0760
  794MOL0     H 9503   1.837   1.134   7.666 -1.7293 -0.7960  0.8981
  794MOL0     H 9504   2.048   1.233   7.726 -0.1646  0.4435  1.5346
  794MOL0     H 9505   2.243   1.366   7.665  0.2699  1.0727 -0.3496
  794MOL0     H 9506   2.186   1.330   7.835 -0.0770  0.4775  0.6687
  794MOL0     H 9507   2.335   1.582   7.738 -0.7148 -0.6753 -0.6633
  794MOL0     H 9508   2.297   1.525   7.905 -0.5656 -3.7119  1.9258
  794MOL0     H 9509   2.474   1.332   7.871  1.8046 -0.9045 -0.3967
  794MOL0     H 9510   2.508   1.394   7.718 -2.3919  0.5161 -1.0287
  794MOL0     H 9511   2.577   1.614   7.823 -0.0440 -0.5996  0.2687
  794MOL0     H 9512   2.532   1.558   7.977  0.4050  0.9164  0.7559
  794MOL0     H 9513   2.713   1.382   7.955  2.7477 -1.3455  0.1977
  794MOL0     H 9514   2.784   1.543   7.939  0.8528 -2.5042  1.3230
  794MOL0     H 9515   2.730   1.354   7.714 -2.5799  1.6226  1.5783
  794MOL0     H 9516   2.743   1.515   7.672 -2.8223 -2.9293 -2.2495
  794MOL0     H 9517   2.953   1.340   7.791 -3.0120 -1.4612 -0.2775
  794MOL0     H 9518   2.964   1.513   7.826 -0.0310 -0.7863  0.9038
  794MOL0     H 9519   2.974   1.377   7.546  1.8985 -2.3220  1.8420
  794MOL0     H 9520   2.953   1.551   7.570  1.1467 -0.2831 -0.0909
  794MOL0     H 9521   3.139   1.692   7.696  2.0625  1.2346 -1.5491
  794MOL0     H 9522   3.405   1.740   7.786  1.3495  2.3719 -0.9172
  794MOL0     H 9523   3.470   1.714   7.629  0.7595 -3.4722 -2.0915
  794MOL0     H 9524   3.533   1.557   7.888 -0.7788  1.0154 -0.5557
  794MOL0     H 9525   3.578   1.495   7.723 -1.1198 -2.5598  1.3571
  794MOL0     H 9526   3.726   1.674   7.683  0.8057  4.8102 -1.0712
  794MOL0     H 9527   3.642   1.773   7.805  0.7448 -1.1124  1.8038
  794MOL0     H 9528   3.847   1.708   7.894 -1.4702  1.3354 -1.6467
  794MOL0     H 9529   3.706   1.627   7.987 -1.6126 -0.5619  0.3464
  794MOL0     H 9530   3.939   1.296   7.829 -2.1155  1.3892  0.5175
  794MOL0     H 9531   4.114   1.068   7.971 -0.4148  0.6090 -0.8422
  794MOL0     H 9532   4.266   1.139   7.895  0.4834  1.3900 -0.9681
  794MOL0     H 9533   4.114   1.140   7.810 -3.3532 -0.7942  1.1087
  794MOL0     H 9534   4.247   1.330   8.502  1.3458  1.3172 -0.5154
  794MOL0     H 9535   4.407   1.234   8.677  0.8086 -3.3681  0.2539
  794MOL0     H 9536   4.854   1.207   8.597  2.2210  1.5336 -0.3199
  794MOL0     H 9537   4.799   1.375   8.604  4.1959  0.2771  1.7437
  794MOL0     H 9538   4.763   1.334   8.858  0.3130 -0.6696  0.9232
  794MOL0     H 9539   4.867   1.192   8.828 -0.0905 -0.1633 -1.3451
  794MOL0     H 9540   4.954   1.484   8.768  0.9935 -0.0434  0.5098
  794MOL0     H 9541   5.026   1.335   8.710  1.5872  0.7548  0.6810
  794MOL0     H 9542   5.075   1.273   8.955  0.9453  0.7982 -0.4440
  794MOL0     H 9543   4.974   1.411   9.009  0.6768  1.5058  0.1250
  794MOL0     H 9544   5.134   1.568   8.923  1.6039  0.0112 -2.8045
  794MOL0     H 9545   5.207   1.454   9.045 -1.1559  0.0793 -0.0103
  794MOL0     H 9546   5.236   1.417   8.747 -0.6048 -1.3520 -0.4364
  794MOL0     H 9547   5.331   1.353   8.889  0.1592  1.3860  0.3254
  794MOL0     H 9548   5.451   1.549   8.925  1.0425 -1.8529 -0.4435
  794MOL0     H 9549   5.343   1.643   8.812 -0.4008 -0.1588  0.6701
  794MOL0     H 9550   5.557   1.598   8.732  1.1895 -0.7891 -1.2407
  794MOL0     H 9551   5.442   1.523   8.614 -2.9240 -1.8984  1.3349
  794MOL0     H 9552   4.725   1.276   8.389  0.2260 -0.4597  0.7111
  794MOL0     H 9553   4.551   1.340   8.220 -1.5468 -2.5894 -1.2686
  794MOL0     H 9554   4.174   1.547   8.173 -0.6691  0.5628 -0.6265
  794MOL0     H 9555   3.978   1.644   8.066  0.3272 -0.6908 -1.4092
  794MOL0     H 9556   1.869   1.623   7.730 -0.0224  0.4771  0.4366
  794MOL0     H 9557   1.653   1.534   7.667 -0.6821 -0.0021  0.3214
  794MOL0     H 9558   1.409   1.167   7.605  2.8253  0.1989  1.2754
  794MOL0     H 9559   1.173   1.101   7.595  1.0200 -2.9739 -0.2761
  794MOL0     H 9560   0.954   1.142   7.608  0.4741  0.2203 -0.7891
  794MOL0     H 9561   0.940   0.972   7.655 -1.9878 -1.7664  4.0960
  794MOL0     H 9562   0.708   1.073   7.644 -0.1252 -0.0144  0.1166
  794MOL0     H 9563   0.749   1.178   7.779 -1.3672 -0.8246  2.1276
  794MOL0     H 9564   0.659   0.910   7.758  0.9668 -0.4546 -1.6597
  794MOL0     H 9565   0.825   0.894   7.813 -0.0506  1.0745  4.2112
  794MOL0     H 9566   0.690   0.906   8.017 -2.5699  0.6591  0.5187
  794MOL0     H 9567   0.601   1.032   7.936  0.2846  2.3759 -4.1189
  794MOL0     H 9568   0.919   1.196   8.186 -0.3639 -3.1425  1.9704
  794MOL0     H 9569   1.131   1.171   8.010 -0.1351  2.0912  0.2328
  794MOL0     H 9570   1.316   1.187   8.140 -0.9810  1.0235  0.0393
  794MOL0     H 9571   1.472   1.167   8.080 -0.5236 -0.1981 -0.6159
  794MOL0     H 9572   1.406   1.337   8.083 -0.3188 -0.0192  0.0825
  795MOL0     O 9573   4.596   1.938   2.612  0.1869  0.4064  0.1434
  795MOL0     C 9574   4.656   1.858   2.677  0.6566  0.2122 -0.3136
  795MOL0     O 9575   4.789   1.818   2.675  0.7018 -0.4537 -0.1758
  795MOL0     C 9576   4.868   1.881   2.581  0.6236  0.0854 -0.2178
  795MOL0     C 9577   5.000   1.902   2.612  0.7344  0.6604 -0.0149
  795MOL0     C 9578   5.093   1.963   2.517 -0.5720  0.5145 -0.1063
  795MOL0     C 9579   5.053   2.005   2.387 -0.1857 -0.9896 -0.0338
  795MOL0     O 9580   5.153   2.070   2.311 -0.2401 -0.0529  0.0503
  795MOL0     C 9581   5.134   2.077   2.169  0.2983 -1.1854 -0.7401
  795MOL0     C 9582   5.265   2.121   2.106 -0.2642  0.1123 -0.0024
  795MOL0     C 9583   5.368   2.008   2.090 -0.9626  0.1283  1.5684
  795MOL0     C 9584   5.482   2.041   1.977  0.6721  0.5945  0.0252
  795MOL0     C 9585   5.563   1.910   1.953 -0.1033 -1.4134  0.7515
  795MOL0     C 9586   5.675   1.944   1.852  1.3805 -0.2385 -0.3730
  795MOL0     C 9587   5.744   1.817   1.802  0.6655  0.2908 -0.5655
  795MOL0     C 9588   5.661   1.730   1.706 -0.5989  0.5223 -0.8350
  795MOL0     N 9589   5.564   1.801   1.629 -0.4472  0.6371 -0.5799
  795MOL0     C 9590   5.592   1.848   1.508 -0.8003  0.1899 -0.0097
  795MOL0     C 9591   5.465   1.878   1.461  0.7254 -0.8048 -0.5601
  795MOL0     C 9592   5.415   1.923   1.323  0.1874 -0.5037  0.1862
  795MOL0     C 9593   5.537   1.943   1.228  0.3810  0.2061 -0.0318
  795MOL0     C 9594   5.604   2.069   1.219 -0.0871 -0.4068  0.4552
  795MOL0     C 9595   5.693   2.087   1.100 -0.3447  0.0255  0.1334
  795MOL0     O 9596   5.819   2.024   1.128  0.3970  0.4969 -1.0622
  795MOL0     C 9597   5.923   2.053   1.047 -0.5799  0.5098 -0.6219
  795MOL0     C 9598   5.907   2.108   0.920  0.2711 -0.4670 -0.1731
  795MOL0     C 9599   6.018   2.142   0.838  0.4670 -0.2311  0.2648
  795MOL0     C 9600   5.978   2.215   0.714 -0.2965  0.4525  0.0525
  795MOL0     C 9601   6.146   2.128   0.896  0.0438  0.5942  0.7383
  795MOL0     C 9602   6.268   2.169   0.831 -0.4077  0.1219  0.4336
  795MOL0     O 9603   6.275   2.288   0.770 -0.1503  0.7128  0.1376
  795MOL0     C 9604   6.360   2.313   0.666 -0.2298  0.4026 -0.2034
  795MOL0     C 9605   6.420   2.435   0.668 -0.3081 -0.2246  0.4315
  795MOL0     C 9606   6.507   2.463   0.566  0.9175 -0.0627  0.6971
  795MOL0     C 9607   6.537   2.375   0.468  0.1668 -0.5277 -0.1731
  795MOL0     O 9608   6.628   2.387   0.373 -0.2864 -0.1408  0.3289
  795MOL0     C 9609   6.725   2.484   0.390 -0.3233 -0.5130 -0.8974
  795MOL0     C 9610   6.802   2.497   0.259 -0.3194 -0.0470  0.5275
  795MOL0     C 9611   6.905   2.613   0.257  0.0043  0.0458  0.2523
  795MOL0     C 9612   6.867   2.718   0.160 -0.3048  0.4683  0.4857
  795MOL0     C 9613   6.967   2.825   0.179  0.3804  0.6044  0.5581
  795MOL0     C 9614   7.103   2.796   0.132 -0.1948 -0.3009  0.0824
  795MOL0     C 9615   7.187   2.926   0.098 -0.1709  0.1540 -0.6318
  795MOL0     C 9616   7.339   2.898   0.110 -0.7374 -0.7148  0.7907
  795MOL0    Cl 9617   7.421   3.044   0.039  0.0364  0.5238 -0.0818
  795MOL0     C 9618   6.470   2.255   0.461 -0.2730 -0.2678 -0.8034
  795MOL0     C 9619   6.385   2.221   0.565  0.3176 -0.0114 -0.3013
  795MOL0     O 9620   6.368   2.086   0.841  0.2101 -0.1798  0.3470
  795MOL0     C 9621   6.160   2.070   1.028 -0.3446  0.0504  0.8004
  795MOL0     C 9622   6.049   2.041   1.099 -0.2733  0.2535 -0.2291
  795MOL0     N 9623   5.369   1.857   1.561  0.0645 -0.8222  0.6958
  795MOL0     N 9624   5.435   1.817   1.667 -0.2996  0.0789  0.4273
  795MOL0     C 9625   4.924   1.970   2.349  0.1362  0.4100  0.1169
  795MOL0     C 9626   4.831   1.915   2.444 -0.1482 -0.8659  0.2941
  795MOL0     C 9627   4.578   1.786   2.786 -0.2197  0.1279  0.0987
  795MOL0     C 9628   4.654   1.687   2.858 -0.5011  0.5924  0.2149
  795MOL0     C 9629   4.596   1.611   2.960  0.3786 -0.8682 -0.3866
  795MOL0     C 9630   4.459   1.630   2.992  0.5724 -0.1250 -0.3801
  795MOL0     O 9631   4.407   1.564   3.095 -0.7250  0.0032  0.3687
  795MOL0     C 9632   4.393   1.632   3.223  1.4848 -0.3627 -0.0571
  795MOL0     C 9633   4.245   1.627   3.268 -0.2150 -1.0187 -0.0170
  795MOL0     C 9634   4.175   1.505   3.220  0.0139 -0.6996 -0.2052
  795MOL0     C 9635   4.049   1.460   3.295  0.2883 -0.8995  0.1927
  795MOL0     C 9636   3.939   1.561   3.283 -0.1439  0.0439  0.2039
  795MOL0     C 9637   3.853   1.648   3.275 -0.0890  0.4065  0.3590
  795MOL0     C 9638   4.385   1.721   2.917  0.0121 -0.2009 -0.4199
  795MOL0     C 9639   4.435   1.792   2.809  0.2831 -0.5946 -0.2317
  795MOL0     C 9640   4.340   1.894   2.735 -0.0272 -0.7044 -0.1089
  795MOL0     H 9641   5.033   1.872   2.711  0.1477  3.8522  1.2734
  795MOL0     H 9642   5.199   1.967   2.542 -0.7672  1.4564  0.6129
  795MOL0     H 9643   5.053   2.150   2.156  0.7684 -0.2640  1.0658
  795MOL0     H 9644   5.097   1.981   2.133 -0.0875 -0.4812 -2.2836
  795MOL0     H 9645   5.245   2.161   2.006 -2.0591  0.1604  0.3608
  795MOL0     H 9646   5.307   2.208   2.158 -2.8700  1.0607  0.6251
  795MOL0     H 9647   5.415   1.992   2.187  2.0644  0.7713  0.3358
  795MOL0     H 9648   5.315   1.920   2.053 -0.6559  0.3831  0.4633
  795MOL0     H 9649   5.443   2.069   1.879  1.3169 -0.5222 -0.5793
  795MOL0     H 9650   5.552   2.118   2.011  1.3785  0.1524 -0.3954
  795MOL0     H 9651   5.498   1.828   1.919  1.0591 -0.9239 -3.0835
  795MOL0     H 9652   5.611   1.884   2.048  2.0578 -0.1042  0.0664
  795MOL0     H 9653   5.651   2.009   1.767  0.6278 -0.0284 -0.0118
  795MOL0     H 9654   5.739   2.016   1.904 -0.1267  0.6459  0.3194
  795MOL0     H 9655   5.770   1.752   1.886  0.5067  1.4308  0.4024
  795MOL0     H 9656   5.836   1.842   1.750  1.3116  3.6288  1.8188
  795MOL0     H 9657   5.734   1.672   1.647  0.4426  1.6799 -0.7178
  795MOL0     H 9658   5.607   1.659   1.770  2.5566 -1.6504 -0.3386
  795MOL0     H 9659   5.684   1.867   1.455 -0.5730  0.6035  0.5180
  795MOL0     H 9660   5.348   2.009   1.322  1.7752  0.7698  0.0789
  795MOL0     H 9661   5.352   1.839   1.294 -0.1126 -0.1985 -0.0467
  795MOL0     H 9662   5.615   1.869   1.251  1.3690  1.7068  1.6805
  795MOL0     H 9663   5.507   1.915   1.126 -0.4817 -0.6825  0.4556
  795MOL0     H 9664   5.528   2.146   1.201  1.8289  0.6817 -4.4580
  795MOL0     H 9665   5.663   2.084   1.310  0.1054  2.7130 -0.0726
  795MOL0     H 9666   5.637   2.056   1.011 -1.4432 -0.8721  1.1069
  795MOL0     H 9667   5.719   2.193   1.099  3.2395 -0.7182 -1.4636
  795MOL0     H 9668   5.808   2.122   0.879  0.5324  2.7738  0.0798
  795MOL0     H 9669   6.061   2.272   0.673 -0.7150 -0.1308 -1.6697
  795MOL0     H 9670   5.894   2.284   0.728 -0.6276  1.0074 -3.6210
  795MOL0     H 9671   5.952   2.140   0.639 -2.4117  2.5094 -1.4097
  795MOL0     H 9672   6.381   2.507   0.739 -1.7318 -1.7830  1.3115
  795MOL0     H 9673   6.559   2.558   0.567 -0.7535  0.9066 -0.2920
  795MOL0     H 9674   6.683   2.585   0.400 -1.9035 -1.1101 -1.1531
  795MOL0     H 9675   6.785   2.469   0.480 -2.1989  2.8004  1.1154
  795MOL0     H 9676   6.857   2.403   0.250  2.3386  1.3886  0.5242
  795MOL0     H 9677   6.736   2.499   0.172  0.7392  3.1190 -0.3307
  795MOL0     H 9678   6.998   2.573   0.215  0.2056  1.3343 -0.5924
  795MOL0     H 9679   6.932   2.646   0.358 -0.2006  1.9361 -0.2733
  795MOL0     H 9680   6.765   2.754   0.178  0.5786  2.8282  1.0308
  795MOL0     H 9681   6.874   2.687   0.055  2.5988  2.2029  0.0533
  795MOL0     H 9682   6.939   2.916   0.125 -0.8315 -1.0092 -1.7052
  795MOL0     H 9683   6.963   2.860   0.282  3.8572 -0.4760  1.1964
  795MOL0     H 9684   7.096   2.738   0.040  2.2668  0.0635 -0.4115
  795MOL0     H 9685   7.149   2.736   0.211 -0.7079 -0.3788  0.3237
  795MOL0     H 9686   7.157   3.008   0.164 -0.9907 -1.3376  0.9338
  795MOL0     H 9687   7.150   2.948  -0.003  0.0428  1.2027 -0.4916
  795MOL0     H 9688   7.372   2.810   0.054  0.4392  0.4997 -0.5109
  795MOL0     H 9689   7.379   2.894   0.211  2.1968 -0.8526 -0.2805
  795MOL0     H 9690   6.512   2.182   0.394  0.1457 -1.5302  0.7669
  795MOL0     H 9691   6.345   2.120   0.572 -1.3958  0.4230 -2.6092
  795MOL0     H 9692   6.253   2.045   1.078  1.2295  1.4364 -1.2346
  795MOL0     H 9693   6.058   1.991   1.195 -2.1411  2.0757  0.9745
  795MOL0     H 9694   4.897   1.981   2.244  3.2513  0.1651 -0.8154
  795MOL0     H 9695   4.731   1.883   2.414 -0.5822  0.1754  0.5655
  795MOL0     H 9696   4.760   1.672   2.842 -0.1215  3.4906 -0.3821
  795MOL0     H 9697   4.660   1.543   3.016  0.9183 -0.2332 -0.2260
  795MOL0     H 9698   4.460   1.576   3.289  2.8949 -1.8948 -2.6044
  795MOL0     H 9699   4.433   1.733   3.215  0.2300  0.1252 -0.3717
  795MOL0     H 9700   4.204   1.713   3.214 -0.7331 -1.8438 -0.9837
  795MOL0     H 9701   4.228   1.632   3.376 -2.2318 -0.8122 -0.3019
  795MOL0     H 9702   4.141   1.531   3.120  0.5913  2.5427  0.3401
  795MOL0     H 9703   4.241   1.418   3.226  0.3218 -0.3902  3.0149
  795MOL0     H 9704   4.073   1.435   3.399 -0.5464 -3.6020 -0.1947
  795MOL0     H 9705   4.011   1.368   3.250 -0.1740 -1.3655  1.4648
  795MOL0     H 9706   3.786   1.730   3.259  0.5342  0.7448 -0.6014
  795MOL0     H 9707   4.282   1.733   2.949 -0.6308 -0.9442 -2.1519
  795MOL0     H 9708   4.235   1.871   2.756 -0.1790 -0.8461 -0.9744
  795MOL0     H 9709   4.351   1.993   2.782 -0.8888 -0.9787  0.7039
  795MOL0     H 9710   4.366   1.896   2.629  0.1219 -0.9003 -0.0754
  796MOL0     O 9711   0.331   0.589   6.945  0.6547 -0.1932 -0.2433
  796MOL0     C 9712   0.263   0.688   6.949 -0.0548 -0.8254 -1.4987
  796MOL0     O 9713   0.314   0.808   6.991  0.0079  0.0107  0.7538
  796MOL0     C 9714   0.435   0.800   7.058 -0.4520  0.3826  0.2592
  796MOL0     C 9715   0.558   0.773   6.993  0.6229  0.1868  0.6694
  796MOL0     C 9716   0.672   0.747   7.058  0.4396 -1.3130 -0.0072
  796MOL0     C 9717   0.686   0.771   7.197 -0.3534 -0.6880 -1.2031
  796MOL0     O 9718   0.803   0.738   7.255 -0.0649  0.2575 -0.3582
  796MOL0     C 9719   0.821   0.741   7.393 -0.1979 -0.5340 -0.0805
  796MOL0     C 9720   0.957   0.701   7.442 -0.0390  0.5412  0.2270
  796MOL0     C 9721   1.062   0.802   7.382  1.0148 -0.6693  0.2119
  796MOL0     C 9722   1.205   0.759   7.417  0.6246 -0.2664 -0.2644
  796MOL0     C 9723   1.313   0.857   7.369 -0.3997  0.6966 -0.7465
  796MOL0     C 9724   1.444   0.802   7.433 -0.6103  0.0881  0.8130
  796MOL0     C 9725   1.565   0.896   7.399  0.7950 -0.5186  0.0937
  796MOL0     C 9726   1.683   0.844   7.483 -0.8224 -0.2583  0.5247
  796MOL0     N 9727   1.807   0.907   7.429 -0.6419  0.1361 -0.1392
  796MOL0     C 9728   1.825   1.041   7.404 -0.0063 -0.9953  0.1333
  796MOL0     C 9729   1.955   1.051   7.369 -0.2087 -1.4733 -0.6024
  796MOL0     C 9730   2.008   1.191   7.341 -0.0860  0.4495  0.3624
  796MOL0     C 9731   2.160   1.183   7.379  0.3156  0.1627  0.6771
  796MOL0     C 9732   2.225   1.328   7.361 -0.3115 -0.1861 -0.1596
  796MOL0     C 9733   2.375   1.329   7.360 -0.0692 -0.3908 -0.0380
  796MOL0     O 9734   2.414   1.284   7.485 -0.4046  0.3426 -0.1418
  796MOL0     C 9735   2.517   1.195   7.483 -0.5641 -0.6981  1.5011
  796MOL0     C 9736   2.500   1.058   7.485  0.5066 -0.5017 -0.8117
  796MOL0     C 9737   2.603   0.965   7.495  0.2928 -0.1807  0.2352
  796MOL0     C 9738   2.572   0.817   7.490  0.1263  0.0010 -0.4332
  796MOL0     C 9739   2.736   1.026   7.495 -0.0709 -0.1136 -0.5199
  796MOL0     C 9740   2.855   0.941   7.516 -0.6644  0.8383  0.0804
  796MOL0     O 9741   2.975   1.006   7.501  0.3199 -0.7353  0.0966
  796MOL0     C 9742   3.102   0.948   7.524  0.9225 -0.4705 -0.0368
  796MOL0     C 9743   3.208   1.035   7.561  0.6863  0.3803  0.4036
  796MOL0     C 9744   3.333   0.987   7.591  0.0872 -0.8797 -0.5223
  796MOL0     C 9745   3.360   0.847   7.579  0.0121 -0.0912  0.3755
  796MOL0     O 9746   3.494   0.809   7.602  0.5475 -0.0107 -0.1251
  796MOL0     C 9747   3.530   0.680   7.558  0.1640  0.1837  0.0524
  796MOL0     C 9748   3.687   0.673   7.559  0.6069  0.2836  0.8340
  796MOL0     C 9749   3.744   0.764   7.444 -1.1518  0.2221 -0.4261
  796MOL0     C 9750   3.894   0.745   7.425  0.5046 -0.4348 -0.2245
  796MOL0     C 9751   3.949   0.865   7.344 -0.6006 -0.0474 -0.9710
  796MOL0     C 9752   4.100   0.844   7.325  0.1590 -1.2556 -0.4360
  796MOL0     C 9753   4.174   0.914   7.436 -0.7404  0.1403  0.0771
  796MOL0     C 9754   4.160   0.874   7.587  0.0251  0.7649  0.6049
  796MOL0    Cl 9755   4.209   0.707   7.611 -0.2006 -0.1007  0.1635
  796MOL0     C 9756   3.253   0.760   7.549  0.7655 -0.2860  0.3314
  796MOL0     C 9757   3.127   0.813   7.517 -0.2999  0.7227 -0.0102
  796MOL0     O 9758   2.846   0.832   7.572 -0.4902 -0.5041  0.2887
  796MOL0     C 9759   2.751   1.167   7.479  0.8387 -0.3647 -0.2761
  796MOL0     C 9760   2.642   1.251   7.465 -0.9612  0.2945  0.4559
  796MOL0     N 9761   2.017   0.928   7.369 -0.1005 -0.0424  0.5388
  796MOL0     N 9762   1.922   0.842   7.405 -0.4037  0.4782 -0.3730
  796MOL0     C 9763   0.566   0.817   7.260  0.0709  0.0402  0.1304
  796MOL0     C 9764   0.439   0.824   7.198 -0.0495 -0.8681 -0.3166
  796MOL0     C 9765   0.119   0.689   6.908  1.1219  0.1205  0.3050
  796MOL0     C 9766   0.054   0.812   6.881 -1.1429 -0.1438 -0.0524
  796MOL0     C 9767  -0.083   0.822   6.850 -0.8065 -0.0404  0.1121
  796MOL0     C 9768  -0.167   0.712   6.843 -0.2064 -0.7357 -0.7665
  796MOL0     O 9769  -0.299   0.725   6.822  0.3059  0.0713  0.5367
  796MOL0     C 9770  -0.380   0.604   6.839 -0.1227 -2.0045  0.1518
  796MOL0     C 9771  -0.528   0.628   6.802  0.8667  0.0284  0.7068
  796MOL0     C 9772  -0.591   0.736   6.887 -0.2501 -0.4350 -0.0864
  796MOL0     C 9773  -0.741   0.738   6.859  0.7120 -0.3140  0.0076
  796MOL0     C 9774  -0.793   0.868   6.901  0.9610  0.8166  0.1148
  796MOL0     C 9775  -0.842   0.967   6.941  0.0936  0.0386  0.2358
  796MOL0     C 9776  -0.100   0.583   6.860  0.6286  0.6185 -1.1733
  796MOL0     C 9777   0.038   0.573   6.888  0.3368 -0.1892 -0.7843
  796MOL0     C 9778   0.090   0.434   6.900  0.0700 -0.0785 -0.4766
  796MOL0     H 9779   0.550   0.771   6.885  0.2646  1.1859  0.6610
  796MOL0     H 9780   0.768   0.716   7.017  1.2150  1.2063 -0.2418
  796MOL0     H 9781   0.743   0.678   7.438 -1.1649 -0.4577 -1.6006
  796MOL0     H 9782   0.803   0.845   7.425  0.7069  0.1319 -1.6508
  796MOL0     H 9783   0.951   0.726   7.548 -2.5662  0.7181  0.1095
  796MOL0     H 9784   0.972   0.596   7.415  1.9598  0.9246 -0.3107
  796MOL0     H 9785   1.044   0.788   7.276  0.0713 -1.9402  0.5235
  796MOL0     H 9786   1.031   0.904   7.403  0.8535 -0.5165 -0.7307
  796MOL0     H 9787   1.214   0.763   7.526  1.9216  1.1448 -0.3870
  796MOL0     H 9788   1.217   0.656   7.382 -2.3625 -1.1184  0.9323
  796MOL0     H 9789   1.289   0.956   7.408  1.2081  0.3968  1.1292
  796MOL0     H 9790   1.322   0.869   7.260 -0.7436 -2.4895 -1.2217
  796MOL0     H 9791   1.440   0.790   7.542  1.5424  1.6651  1.1455
  796MOL0     H 9792   1.468   0.702   7.396  0.0547  0.6386 -0.3208
  796MOL0     H 9793   1.545   0.999   7.431 -0.5195 -0.9182  0.6006
  796MOL0     H 9794   1.579   0.903   7.291  1.6502 -0.8461  0.1793
  796MOL0     H 9795   1.663   0.854   7.590  1.8590 -2.7318  1.3809
  796MOL0     H 9796   1.693   0.736   7.470  2.5340  0.1103 -1.1306
  796MOL0     H 9797   1.753   1.122   7.408  0.2698  0.0416 -5.8244
  796MOL0     H 9798   1.944   1.258   7.399 -3.7398 -1.3878 -1.1901
  796MOL0     H 9799   2.004   1.209   7.234 -1.8592 -0.4726  0.2336
  796MOL0     H 9800   2.160   1.154   7.484 -1.0927  0.4619  0.7760
  796MOL0     H 9801   2.202   1.100   7.322 -1.5672 -0.0534 -0.4955
  796MOL0     H 9802   2.198   1.373   7.265  5.2671  0.6920 -1.6875
  796MOL0     H 9803   2.184   1.390   7.441  1.1352 -0.5248  0.8861
  796MOL0     H 9804   2.411   1.271   7.274 -0.5563 -1.1332  0.2410
  796MOL0     H 9805   2.411   1.430   7.340 -0.5764 -0.0018  0.9727
  796MOL0     H 9806   2.398   1.021   7.474  0.3976 -0.3254 -0.4099
  796MOL0     H 9807   2.567   0.770   7.589  0.9448  0.1625 -0.3079
  796MOL0     H 9808   2.646   0.768   7.427  0.0754 -2.4611  1.2739
  796MOL0     H 9809   2.476   0.801   7.440  0.9980 -0.6344 -1.9705
  796MOL0     H 9810   3.198   1.142   7.553  1.4968  0.3479 -1.6131
  796MOL0     H 9811   3.410   1.059   7.615 -0.5686  0.0437 -1.1561
  796MOL0     H 9812   3.490   0.621   7.641 -1.0543  1.3871  0.3628
  796MOL0     H 9813   3.477   0.656   7.466  0.3604 -0.6566  0.1557
  796MOL0     H 9814   3.721   0.711   7.656  2.1200 -0.1171  0.4921
  796MOL0     H 9815   3.724   0.570   7.551  0.3373  0.2983 -0.8488
  796MOL0     H 9816   3.729   0.864   7.484 -0.2185  0.0711  0.3423
  796MOL0     H 9817   3.698   0.740   7.347  0.4038  0.1491 -1.1768
  796MOL0     H 9818   3.907   0.658   7.360  0.3879  0.1985 -1.1076
  796MOL0     H 9819   3.940   0.735   7.524 -0.1517  2.8763  0.5612
  796MOL0     H 9820   3.891   0.858   7.251 -0.1152  0.4856 -1.3218
  796MOL0     H 9821   3.928   0.963   7.387 -0.9212 -0.5145 -0.0274
  796MOL0     H 9822   4.137   0.899   7.238 -0.0897  1.4732  1.0789
  796MOL0     H 9823   4.118   0.737   7.322 -1.6779 -1.5962 -0.9018
  796MOL0     H 9824   4.140   1.018   7.438 -1.5173 -0.1092  0.4668
  796MOL0     H 9825   4.280   0.913   7.409 -0.1450  0.3793  2.2567
  796MOL0     H 9826   4.056   0.874   7.622  0.3750  1.7754  1.6994
  796MOL0     H 9827   4.213   0.944   7.652  0.2892  1.6771 -0.5634
  796MOL0     H 9828   3.270   0.653   7.544  0.6879 -0.3052  0.4839
  796MOL0     H 9829   3.047   0.746   7.486 -0.7169  1.2671 -0.1095
  796MOL0     H 9830   2.849   1.214   7.486 -0.2822  2.2115 -0.9191
  796MOL0     H 9831   2.667   1.355   7.449 -1.5538  0.1880 -1.3736
  796MOL0     H 9832   0.562   0.831   7.368 -0.7418 -0.8436  0.2375
  796MOL0     H 9833   0.347   0.856   7.245  0.7283  3.3469 -1.3104
  796MOL0     H 9834   0.121   0.898   6.887  2.8367 -3.0783  1.5235
  796MOL0     H 9835  -0.124   0.920   6.827 -2.8837 -0.6988  0.7461
  796MOL0     H 9836  -0.332   0.532   6.772  0.9793 -0.6550 -0.5503
  796MOL0     H 9837  -0.374   0.571   6.943 -1.5287 -2.0684  0.2310
  796MOL0     H 9838  -0.585   0.536   6.822  1.3418 -0.5099 -0.3691
  796MOL0     H 9839  -0.539   0.643   6.695  1.1567 -1.3156  0.4685
  796MOL0     H 9840  -0.587   0.712   6.994 -2.1708 -1.5320 -0.2197
  796MOL0     H 9841  -0.551   0.836   6.871 -0.1109 -0.5697 -0.5745
  796MOL0     H 9842  -0.797   0.655   6.904 -3.0258  2.4702  0.9636
  796MOL0     H 9843  -0.760   0.731   6.752 -2.3003  0.4496  0.3979
  796MOL0     H 9844  -0.881   1.057   6.983  2.4748  2.3848 -2.1450
  796MOL0     H 9845  -0.156   0.490   6.862  1.2091  0.2011  2.4901
  796MOL0     H 9846   0.180   0.420   6.839 -0.1392 -2.1649 -0.3951
  796MOL0     H 9847   0.116   0.415   7.005  0.5915  2.6996 -0.0264
  796MOL0     H 9848   0.009   0.367   6.871  0.3998 -0.6064 -0.2035
  797MOL0     O 9849  10.287   6.020   1.098  0.1951 -0.1424  0.5447
  797MOL0     C 9850  10.189   5.998   1.172 -1.1677 -1.5283  0.1773
  797MOL0     O 9851  10.194   5.971   1.305 -0.4170 -0.3080 -0.3921
  797MOL0     C 9852  10.317   6.004   1.373 -0.4990 -0.5451 -0.1781
  797MOL0     C 9853  10.314   6.082   1.485 -0.1910  0.3342 -0.5183
  797MOL0     C 9854  10.421   6.087   1.567 -0.4202 -0.5121 -1.5433
  797MOL0     C 9855  10.532   6.005   1.543  0.2826 -0.4080 -0.2735
  797MOL0     O 9856  10.633   5.994   1.634  0.3519  0.7179 -0.0025
  797MOL0     C 9857  10.635   6.077   1.746 -0.9111 -0.9730 -0.0621
  797MOL0     C 9858  10.739   6.041   1.847  0.5847 -0.2034  0.4373
  797MOL0     C 9859  10.885   6.032   1.807 -0.8474 -0.3452 -0.1440
  797MOL0     C 9860  10.974   6.149   1.812  0.7887  0.2946 -0.4798
  797MOL0     C 9861  11.115   6.137   1.757  0.8239 -0.3477  0.1434
  797MOL0     C 9862  11.176   6.273   1.710  0.4350 -1.2159  0.3389
  797MOL0     C 9863  11.311   6.240   1.645 -0.0887  0.3505 -0.3732
  797MOL0     C 9864  11.360   6.347   1.553 -0.4648  0.4711 -0.0195
  797MOL0     N 9865  11.502   6.322   1.521  0.5759  0.2394 -0.0454
  797MOL0     C 9866  11.598   6.421   1.522 -0.6980  0.0662  0.6686
  797MOL0     C 9867  11.709   6.367   1.474 -0.7672 -0.7705 -0.1519
  797MOL0     C 9868  11.838   6.435   1.430  0.1911 -0.3556 -0.5848
  797MOL0     C 9869  11.880   6.393   1.291  0.3177 -0.4782  0.5753
  797MOL0     C 9870  12.025   6.424   1.249  0.0742 -0.5480  0.5229
  797MOL0     C 9871  12.069   6.345   1.130  0.1807 -0.5482  0.3230
  797MOL0     O 9872  12.211   6.367   1.107  0.2041  0.4311 -0.0993
  797MOL0     C 9873  12.262   6.314   0.995  0.1763  0.1046 -0.2002
  797MOL0     C 9874  12.207   6.208   0.915  0.1399 -0.1275 -0.5673
  797MOL0     C 9875  12.268   6.177   0.796  0.8874 -0.4433  1.0318
  797MOL0     C 9876  12.198   6.082   0.708  0.1298  0.3545  0.3010
  797MOL0     C 9877  12.390   6.243   0.751  0.1528 -1.1500 -0.3671
  797MOL0     C 9878  12.471   6.214   0.627 -1.3631 -0.9403  0.5684
  797MOL0     O 9879  12.553   6.315   0.582 -0.2934 -0.1035 -0.3949
  797MOL0     C 9880  12.663   6.282   0.504  0.2491 -0.2013  0.0464
  797MOL0     C 9881  12.792   6.278   0.565  0.2657  0.2685  0.5022
  797MOL0     C 9882  12.916   6.270   0.491 -0.1741 -0.9939 -0.0934
  797MOL0     C 9883  12.906   6.245   0.354 -0.6335  0.2247  0.1696
  797MOL0     O 9884  13.024   6.244   0.285  0.0490 -0.9763  0.4111
  797MOL0     C 9885  13.011   6.264   0.144 -0.6702  0.4123 -0.7390
  797MOL0     C 9886  13.142   6.291   0.072  0.7290  0.8979  0.1088
  797MOL0     C 9887  13.128   6.274  -0.083 -0.3021  0.1906  0.2072
  797MOL0     C 9888  13.250   6.316  -0.167 -0.3467  0.0522  0.0127
  797MOL0     C 9889  13.239   6.276  -0.327  0.2281  0.2129  0.2249
  797MOL0     C 9890  13.351   6.328  -0.418  0.0297  1.0186  1.0255
  797MOL0     C 9891  13.322   6.313  -0.570 -0.3845  0.5369 -1.1856
  797MOL0     C 9892  13.290   6.169  -0.614  0.9145 -0.1008 -0.3503
  797MOL0    Cl 9893  13.301   6.174  -0.794  0.2518 -0.1980  0.1535
  797MOL0     C 9894  12.778   6.223   0.298  0.5223  0.2976 -0.0005
  797MOL0     C 9895  12.658   6.231   0.373  0.0102 -0.2318  0.0375
  797MOL0     O 9896  12.454   6.106   0.569  0.0047 -1.0206  0.4773
  797MOL0     C 9897  12.442   6.336   0.834  0.1862 -0.8218 -1.0529
  797MOL0     C 9898  12.377   6.380   0.954 -0.1577  0.2152  0.2070
  797MOL0     N 9899  11.684   6.232   1.456 -0.2701 -0.2442  0.0812
  797MOL0     N 9900  11.556   6.206   1.481 -0.9542 -0.3971  0.3095
  797MOL0     C 9901  10.542   5.934   1.428  0.1310  0.2035 -0.1117
  797MOL0     C 9902  10.432   5.930   1.334 -0.8419 -0.8349  0.2616
  797MOL0     C 9903  10.051   5.982   1.110  0.2031 -0.0050  0.4281
  797MOL0     C 9904   9.942   5.956   1.196  0.3287  1.4788 -0.6018
  797MOL0     C 9905   9.814   5.933   1.150 -0.2508 -0.0198 -0.6999
  797MOL0     C 9906   9.782   5.935   1.019  0.2973 -0.0958 -0.7271
  797MOL0     O 9907   9.651   5.920   0.992  0.2293  0.1223  0.1075
  797MOL0     C 9908   9.600   5.923   0.855 -0.1601  0.1677  0.5555
  797MOL0     C 9909   9.452   5.877   0.843  0.1760 -0.4146  0.8447
  797MOL0     C 9910   9.376   5.988   0.910 -0.5415  0.7712 -0.4351
  797MOL0     C 9911   9.229   5.953   0.918  0.3619  0.2246 -1.0383
  797MOL0     C 9912   9.199   5.866   1.036 -0.0718  0.1467  0.5425
  797MOL0     C 9913   9.182   5.804   1.135 -0.1441 -0.3426 -0.8869
  797MOL0     C 9914   9.880   5.964   0.927 -0.0775  0.0385 -0.0150
  797MOL0     C 9915  10.012   5.989   0.970 -0.4498  0.9303 -0.3307
  797MOL0     C 9916  10.104   6.028   0.859  0.6837 -0.5019 -0.0579
  797MOL0     H 9917  10.219   6.126   1.516  0.3423  1.8817 -1.0001
  797MOL0     H 9918  10.421   6.143   1.660  1.6389  0.6039 -2.1537
  797MOL0     H 9919  10.541   6.091   1.801 -1.0666  2.0588 -0.9644
  797MOL0     H 9920  10.668   6.178   1.722 -1.3660 -0.6120  0.7603
  797MOL0     H 9921  10.721   6.119   1.921  0.0939 -0.9278  1.1015
  797MOL0     H 9922  10.709   5.942   1.882 -2.2866  0.0810 -0.9338
  797MOL0     H 9923  10.919   5.957   1.879  2.1961  1.6714  0.7372
  797MOL0     H 9924  10.902   5.987   1.708 -2.0081 -0.4539 -0.3036
  797MOL0     H 9925  10.915   6.226   1.761 -0.8580 -0.7169 -0.1795
  797MOL0     H 9926  10.978   6.190   1.914  1.5334 -1.9114  0.4307
  797MOL0     H 9927  11.116   6.069   1.671  0.7353  1.6883 -1.5641
  797MOL0     H 9928  11.176   6.108   1.843  0.5095 -0.9785  0.1546
  797MOL0     H 9929  11.113   6.332   1.643  2.7149 -2.3856 -3.0557
  797MOL0     H 9930  11.204   6.336   1.795  0.8453 -1.0953  0.1174
  797MOL0     H 9931  11.305   6.151   1.582  1.7298 -1.0646  1.3501
  797MOL0     H 9932  11.387   6.223   1.722  0.4052 -2.2713 -1.3491
  797MOL0     H 9933  11.299   6.356   1.462 -1.7465  0.1349  0.7771
  797MOL0     H 9934  11.342   6.439   1.609 -0.0503  0.8744 -0.5323
  797MOL0     H 9935  11.584   6.526   1.547  2.7934  1.6576 -3.1209
  797MOL0     H 9936  11.916   6.410   1.503  0.4165  2.8480  0.4319
  797MOL0     H 9937  11.835   6.544   1.423 -1.3297 -0.4190 -1.2644
  797MOL0     H 9938  11.863   6.286   1.279  0.2066 -0.7403  2.6876
  797MOL0     H 9939  11.799   6.449   1.242 -2.2620 -1.4760  3.3645
  797MOL0     H 9940  12.029   6.531   1.227 -0.2914 -1.1633 -3.1866
  797MOL0     H 9941  12.085   6.394   1.336  0.6323 -2.6909 -0.5414
  797MOL0     H 9942  12.052   6.240   1.155  0.8838  0.1119  4.2476
  797MOL0     H 9943  12.011   6.369   1.041  1.6076  2.8013  0.1510
  797MOL0     H 9944  12.122   6.147   0.945 -0.5074  0.5138 -1.0812
  797MOL0     H 9945  12.253   5.988   0.704  1.0956  0.9329 -0.6344
  797MOL0     H 9946  12.188   6.099   0.600  1.1995 -3.9378 -0.6505
  797MOL0     H 9947  12.100   6.057   0.748 -0.4056  1.7271 -0.0823
  797MOL0     H 9948  12.793   6.300   0.671  0.5517 -2.6562  1.1946
  797MOL0     H 9949  13.012   6.290   0.537  0.1503 -1.2066 -0.6744
  797MOL0     H 9950  12.966   6.174   0.101 -0.3846 -0.4295  0.6605
  797MOL0     H 9951  12.937   6.343   0.128 -0.3916  0.9533  0.5589
  797MOL0     H 9952  13.170   6.391   0.105  0.8814  0.4480  1.4345
  797MOL0     H 9953  13.218   6.219   0.105  0.7926  0.1149 -1.6483
  797MOL0     H 9954  13.046   6.343  -0.101  0.6494  2.1523  2.8005
  797MOL0     H 9955  13.097   6.172  -0.107 -0.8473 -0.7907  4.3284
  797MOL0     H 9956  13.341   6.265  -0.133 -0.3068  0.6809  0.8902
  797MOL0     H 9957  13.271   6.423  -0.158 -0.0374 -0.1333  1.9735
  797MOL0     H 9958  13.238   6.166  -0.334  0.1951  0.2537 -0.4887
  797MOL0     H 9959  13.151   6.325  -0.370  0.8605  1.0974 -0.0752
  797MOL0     H 9960  13.446   6.290  -0.378 -0.1200  1.9008  2.2737
  797MOL0     H 9961  13.365   6.436  -0.408  0.8644  0.9209  0.9603
  797MOL0     H 9962  13.415   6.342  -0.620  0.8728  2.1449  1.7830
  797MOL0     H 9963  13.238   6.378  -0.597 -1.7130 -0.8951 -0.6768
  797MOL0     H 9964  13.190   6.140  -0.583  0.1864  2.3940 -0.2228
  797MOL0     H 9965  13.365   6.101  -0.572  0.6002  0.4933  1.2078
  797MOL0     H 9966  12.766   6.199   0.193  0.6453  1.8864 -0.3897
  797MOL0     H 9967  12.558   6.218   0.332 -0.1175  3.9586 -1.4532
  797MOL0     H 9968  12.538   6.383   0.817 -1.2730  2.8285 -0.1986
  797MOL0     H 9969  12.412   6.459   1.019 -0.1976 -1.1986  2.0233
  797MOL0     H 9970  10.638   5.886   1.413 -0.2152 -0.9374  1.1233
  797MOL0     H 9971  10.439   5.884   1.235  1.4432  1.5481 -0.7882
  797MOL0     H 9972   9.952   5.954   1.304  0.1043 -0.1052 -0.5856
  797MOL0     H 9973   9.743   5.913   1.230 -1.0543 -0.5541 -1.5219
  797MOL0     H 9974   9.609   6.025   0.816  0.8366 -0.5027 -1.0743
  797MOL0     H 9975   9.670   5.863   0.796  1.0198  2.4434 -0.4738
  797MOL0     H 9976   9.435   5.782   0.893  0.4978  0.1010  1.9812
  797MOL0     H 9977   9.418   5.866   0.739  1.1130 -2.2807  0.6923
  797MOL0     H 9978   9.423   5.978   1.009 -0.0271 -2.9697 -0.9010
  797MOL0     H 9979   9.403   6.087   0.874  0.0482  1.0901  0.8117
  797MOL0     H 9980   9.196   5.902   0.827 -1.3361 -1.1605  0.2759
  797MOL0     H 9981   9.165   6.041   0.925 -1.7881 -1.3816  1.0280
  797MOL0     H 9982   9.167   5.759   1.231 -2.5134  1.7451 -0.1468
  797MOL0     H 9983   9.859   5.965   0.821  0.5946 -0.3854 -0.1589
  797MOL0     H 9984  10.195   6.070   0.904 -0.8737  0.6626  2.1755
  797MOL0     H 9985  10.128   5.945   0.792 -1.6141  0.3461 -2.0960
  797MOL0     H 9986  10.061   6.108   0.798 -1.2357 -0.0189  1.8408
  798MOL0     O 9987  11.330   7.540   4.259 -0.6625 -0.3899 -0.6548
  798MOL0     C 9988  11.263   7.646   4.268  0.2648  0.1693  0.0443
  798MOL0     O 9989  11.318   7.770   4.268 -0.2129  0.7837 -0.3221
  798MOL0     C 9990  11.447   7.786   4.320 -0.4074  0.5106  0.1826
  798MOL0     C 9991  11.467   7.854   4.440  0.1089  0.3441  0.3240
  798MOL0     C 9992  11.584   7.858   4.507 -0.4474  0.4207 -0.0786
  798MOL0     C 9993  11.699   7.804   4.453 -0.8755 -0.1450  0.3020
  798MOL0     O 9994  11.819   7.825   4.523  0.4217  0.2358 -0.0142
  798MOL0     C 9995  11.944   7.833   4.462 -0.6942 -0.9209 -0.0171
  798MOL0     C 9996  12.031   7.926   4.547  0.1565 -0.3445 -0.2440
  798MOL0     C 9997  12.184   7.890   4.536 -0.4320  1.1746 -0.5356
  798MOL0     C 9998  12.268   7.989   4.607  0.5016  0.0251 -0.2037
  798MOL0     C 9999  12.421   7.969   4.593 -0.0748  1.1031 -0.8568
  798MOL0     C10000  12.466   7.838   4.663 -0.2786  0.4073 -0.1311
  798MOL0     C10001  12.435   7.810   4.813  0.8460  0.0045  0.2432
  798MOL0     C10002  12.462   7.935   4.900  0.3028  0.2233 -0.1619
  798MOL0     N10003  12.600   7.974   4.920 -0.0133  0.3815  0.0375
  798MOL0     C10004  12.687   8.028   4.823  0.1715 -0.4324 -0.0474
  798MOL0     C10005  12.801   8.050   4.891 -0.6172 -0.2327  0.0696
  798MOL0     C10006  12.932   8.103   4.828 -0.4172  0.5702 -0.3172
  798MOL0     C10007  12.999   7.968   4.796 -0.1788  0.0979  0.2157
  798MOL0     C10008  13.142   7.985   4.752  0.2503  0.3397  0.1600
  798MOL0     C10009  13.209   7.863   4.701  0.0604 -0.0558 -0.6576
  798MOL0     O10010  13.354   7.880   4.677  0.0988  0.0329  0.3342
  798MOL0     C10011  13.434   7.883   4.790  0.1154  0.7669 -0.2912
  798MOL0     C10012  13.398   7.845   4.917 -1.0169 -0.2143 -0.1231
  798MOL0     C10013  13.494   7.837   5.021 -0.2924 -0.1357  0.4572
  798MOL0     C10014  13.448   7.805   5.162 -0.0551 -0.4230  0.2727
  798MOL0     C10015  13.630   7.861   4.990  0.2708  0.1637 -0.3456
  798MOL0     C10016  13.747   7.868   5.089 -0.4408  0.6034  0.6502
  798MOL0     O10017  13.829   7.976   5.089 -0.1244  1.3418 -0.5506
  798MOL0     C10018  13.936   7.971   5.179  0.3964 -1.2270  0.3696
  798MOL0     C10019  13.948   8.073   5.280 -0.3563  0.0171 -0.2444
  798MOL0     C10020  14.056   8.082   5.366 -0.3105  0.2868  0.4207
  798MOL0     C10021  14.168   8.006   5.344  0.4590 -0.4151 -0.3147
  798MOL0     O10022  14.271   8.033   5.424 -0.3480 -0.1482 -0.0042
  798MOL0     C10023  14.399   8.064   5.361  0.0782 -0.2153  0.4814
  798MOL0     C10024  14.397   8.187   5.271 -0.5234 -0.0179  0.0256
  798MOL0     C10025  14.537   8.213   5.224 -0.1527 -0.0982  0.5741
  798MOL0     C10026  14.600   8.320   5.304 -0.5740 -0.3486 -0.5616
  798MOL0     C10027  14.751   8.332   5.268  0.2250  0.0976 -0.1308
  798MOL0     C10028  14.775   8.405   5.142 -0.0439  0.7746  0.2658
  798MOL0     C10029  14.918   8.379   5.086  0.4464  0.3173  0.0533
  798MOL0     C10030  14.955   8.475   4.969 -0.0864  0.2347 -0.1533
  798MOL0    Cl10031  15.022   8.632   5.035  0.7268 -0.4761  0.3165
  798MOL0     C10032  14.170   7.913   5.242 -0.6467 -0.0934  0.5407
  798MOL0     C10033  14.055   7.897   5.159  0.7863  0.3237  0.2162
  798MOL0     O10034  13.756   7.769   5.165 -0.3148  0.3790  0.2863
  798MOL0     C10035  13.664   7.887   4.862  0.2108  0.1058 -0.6733
  798MOL0     C10036  13.570   7.906   4.767  0.1871  0.0187  0.8810
  798MOL0     N10037  12.782   8.028   5.020  0.3041  0.8671 -0.5029
  798MOL0     N10038  12.662   7.975   5.041 -0.3248  0.0878  0.0549
  798MOL0     C10039  11.693   7.733   4.332 -0.5042 -0.2498 -0.3311
  798MOL0     C10040  11.566   7.732   4.266 -0.5540 -0.5892 -0.1388
  798MOL0     C10041  11.115   7.640   4.264  0.2599  1.2184  0.4306
  798MOL0     C10042  11.041   7.760   4.280 -0.1847  0.1881  0.1670
  798MOL0     C10043  10.904   7.765   4.277 -0.2354 -0.5653  0.0880
  798MOL0     C10044  10.825   7.648   4.252 -0.1903  0.5797 -0.0553
  798MOL0     O10045  10.692   7.641   4.233 -0.8831 -0.1224 -0.1434
  798MOL0     C10046  10.611   7.761   4.223  0.0961 -0.4025  0.8282
  798MOL0     C10047  10.475   7.708   4.172  0.4589 -0.1168  0.1369
  798MOL0     C10048  10.384   7.646   4.284  0.4681 -0.5300 -0.1376
  798MOL0     C10049  10.366   7.735   4.401  0.9060  1.2153  0.1643
  798MOL0     C10050  10.271   7.675   4.496 -0.5489  0.0675 -0.3343
  798MOL0     C10051  10.186   7.643   4.579  0.4913 -0.6865  0.2196
  798MOL0     C10052  10.898   7.530   4.245  0.4773  0.3214  0.1705
  798MOL0     C10053  11.041   7.519   4.242 -0.7901 -0.2049 -0.3639
  798MOL0     C10054  11.099   7.375   4.223  0.3678 -0.1222 -0.1698
  798MOL0     H10055  11.383   7.896   4.494  0.2510 -1.0497  1.7227
  798MOL0     H10056  11.600   7.916   4.597 -2.6330  2.4402 -0.8701
  798MOL0     H10057  11.934   7.877   4.362  2.9219 -0.5166 -0.3296
  798MOL0     H10058  11.985   7.732   4.449  1.5353 -0.1654  0.8465
  798MOL0     H10059  11.995   8.026   4.521 -2.2337 -1.0625 -0.0321
  798MOL0     H10060  12.017   7.915   4.655  0.9534 -0.3359 -0.1366
  798MOL0     H10061  12.205   7.791   4.577  0.1953  1.6740  0.4055
  798MOL0     H10062  12.217   7.886   4.432  1.0558 -3.4634 -0.1070
  798MOL0     H10063  12.245   8.089   4.570 -3.0224 -0.1625  1.1190
  798MOL0     H10064  12.238   7.976   4.711 -0.9767 -2.1159 -0.8336
  798MOL0     H10065  12.474   8.051   4.641 -0.4243 -0.0188  1.6492
  798MOL0     H10066  12.447   7.975   4.487  0.2780 -0.7168 -0.9101
  798MOL0     H10067  12.428   7.752   4.607  3.9833 -0.9193 -1.3323
  798MOL0     H10068  12.574   7.827   4.646 -0.4676  1.2663 -2.3118
  798MOL0     H10069  12.503   7.727   4.832  1.9610  0.8913  0.2201
  798MOL0     H10070  12.331   7.778   4.829  1.3721 -0.7742  2.4892
  798MOL0     H10071  12.417   8.023   4.853  0.4669  0.5703  0.3135
  798MOL0     H10072  12.422   7.917   5.001  3.8329  0.9944  1.5110
  798MOL0     H10073  12.669   8.036   4.716  0.4897  2.2446  0.0416
  798MOL0     H10074  12.993   8.167   4.891 -1.2559  0.9154  0.1702
  798MOL0     H10075  12.904   8.164   4.741  1.7674 -0.5634 -1.9161
  798MOL0     H10076  12.993   7.896   4.878 -1.2251 -0.9093 -0.7058
  798MOL0     H10077  12.951   7.915   4.712 -0.4370  0.5753  0.0594
  798MOL0     H10078  13.133   8.059   4.672  3.0154 -1.4250 -1.9713
  798MOL0     H10079  13.197   8.022   4.839  0.7080  0.2450 -0.0900
  798MOL0     H10080  13.191   7.778   4.767 -1.4613  1.9082  1.6104
  798MOL0     H10081  13.163   7.834   4.606  1.2567 -0.8463 -1.0257
  798MOL0     H10082  13.296   7.826   4.948 -0.2840  0.9363  3.4696
  798MOL0     H10083  13.358   7.865   5.181  1.1918  1.5890  0.1258
  798MOL0     H10084  13.517   7.833   5.241 -0.4141  2.6010 -0.3453
  798MOL0     H10085  13.416   7.700   5.167 -2.4044  0.2499  0.7984
  798MOL0     H10086  13.856   8.129   5.299 -0.4632 -1.3028  4.5446
  798MOL0     H10087  14.056   8.155   5.447  0.5750 -1.7529  2.3665
  798MOL0     H10088  14.479   8.080   5.434  1.2962  2.3467 -1.2685
  798MOL0     H10089  14.440   7.980   5.303 -0.9497 -0.2197 -0.2740
  798MOL0     H10090  14.331   8.169   5.187  0.2952 -1.5697 -0.3239
  798MOL0     H10091  14.342   8.271   5.313 -1.3781 -0.5335 -0.0460
  798MOL0     H10092  14.522   8.247   5.121  1.1285 -1.3709 -0.0679
  798MOL0     H10093  14.597   8.122   5.229 -0.0656 -0.0334  0.7470
  798MOL0     H10094  14.585   8.294   5.410 -4.1101  3.8615  0.2589
  798MOL0     H10095  14.552   8.417   5.287 -0.2261 -0.1694 -0.5421
  798MOL0     H10096  14.788   8.392   5.351  0.5490 -2.7382  1.9106
  798MOL0     H10097  14.797   8.234   5.258 -0.9008 -0.3441 -1.2803
  798MOL0     H10098  14.746   8.510   5.152  1.5317  1.3421 -0.6780
  798MOL0     H10099  14.703   8.368   5.068 -2.5163  0.6144  2.5920
  798MOL0     H10100  14.918   8.274   5.055  1.0683  0.1000  0.7469
  798MOL0     H10101  14.997   8.407   5.157  2.1323 -3.9834  0.2005
  798MOL0     H10102  14.859   8.481   4.917 -0.0201 -0.0768 -0.3169
  798MOL0     H10103  15.026   8.428   4.900 -0.0448  0.3050 -0.1580
  798MOL0     H10104  14.260   7.854   5.228 -1.4453 -1.2203  0.0161
  798MOL0     H10105  14.056   7.833   5.071  2.1402  2.4639 -1.4308
  798MOL0     H10106  13.766   7.909   4.830  0.8361  1.5376  1.9464
  798MOL0     H10107  13.598   7.918   4.663 -2.6307  0.7304  0.1240
  798MOL0     H10108  11.782   7.689   4.288  0.0102  0.4297  0.0012
  798MOL0     H10109  11.561   7.680   4.171 -0.5360 -2.8590  1.0485
  798MOL0     H10110  11.081   7.858   4.303 -1.0405  0.3934  0.8558
  798MOL0     H10111  10.838   7.849   4.292  0.5073  0.0024  0.2235
  798MOL0     H10112  10.600   7.808   4.321  4.3952  2.7001  0.1225
  798MOL0     H10113  10.653   7.829   4.148  1.8016 -1.2000  0.9920
  798MOL0     H10114  10.500   7.637   4.093  1.1066 -0.1609  0.3715
  798MOL0     H10115  10.418   7.788   4.124 -2.0532 -2.5180 -1.1503
  798MOL0     H10116  10.287   7.608   4.253 -0.4767 -0.8664  2.9555
  798MOL0     H10117  10.432   7.551   4.309 -1.7388 -1.3721  1.0725
  798MOL0     H10118  10.329   7.833   4.370 -1.1490  0.1310 -1.0543
  798MOL0     H10119  10.456   7.745   4.462  0.7463 -0.4102  0.7046
  798MOL0     H10120  10.115   7.597   4.644  1.1383 -2.9815 -0.6109
  798MOL0     H10121  10.840   7.439   4.240 -0.9718  1.2243  0.2124
  798MOL0     H10122  11.019   7.303   4.207  0.2628 -0.8843  2.9781
  798MOL0     H10123  11.165   7.372   4.137 -1.7960  2.1373 -2.0669
  798MOL0     H10124  11.149   7.338   4.313 -0.1731 -2.9170 -0.9245
  799MOL0     O10125   5.885   0.086   3.789  0.2276 -0.5948 -0.5668
  799MOL0     C10126   5.815  -0.005   3.838  0.6074 -0.5864 -0.0783
  799MOL0     O10127   5.823  -0.051   3.964 -0.5666 -0.0554 -0.2097
  799MOL0     C10128   5.935  -0.040   4.049  0.3008  0.0109  0.5648
  799MOL0     C10129   6.064  -0.019   3.997 -0.5272 -0.7063  0.1996
  799MOL0     C10130   6.174  -0.004   4.088  0.7122  0.5973 -0.0370
  799MOL0     C10131   6.150  -0.011   4.227  0.1882 -0.6345 -0.1975
  799MOL0     O10132   6.254   0.002   4.316 -0.3041  0.2081  0.0571
  799MOL0     C10133   6.356   0.106   4.303 -1.0177 -0.9241 -0.5700
  799MOL0     C10134   6.452   0.104   4.431 -0.3170 -0.3156  0.8549
  799MOL0     C10135   6.582   0.183   4.416 -0.3193 -0.2431  0.4098
  799MOL0     C10136   6.572   0.327   4.476  0.9973  0.4757  0.3406
  799MOL0     C10137   6.702   0.404   4.463 -0.6949  0.1610 -0.4788
  799MOL0     C10138   6.725   0.527   4.551  0.4942  0.5689  0.1038
  799MOL0     C10139   6.851   0.611   4.530 -0.4285  0.3532 -0.2585
  799MOL0     C10140   6.973   0.534   4.583 -0.5945 -1.7659  0.3955
  799MOL0     N10141   7.091   0.610   4.559  0.7033 -0.2335  0.2266
  799MOL0     C10142   7.132   0.660   4.440 -0.4630 -0.6399 -0.3365
  799MOL0     C10143   7.248   0.728   4.456  0.4609 -0.0507  0.6268
  799MOL0     C10144   7.335   0.782   4.345  0.0817  0.3240  0.0350
  799MOL0     C10145   7.478   0.837   4.384  1.1600 -0.0832 -0.8441
  799MOL0     C10146   7.476   0.964   4.469  0.0086 -1.3731  0.0575
  799MOL0     C10147   7.624   1.017   4.462  0.7284 -0.4287 -0.1065
  799MOL0     O10148   7.639   1.138   4.544  0.6381 -0.7712  0.1113
  799MOL0     C10149   7.772   1.171   4.567  0.0706  0.5475 -0.7500
  799MOL0     C10150   7.889   1.106   4.511  0.8219 -0.2695  1.2852
  799MOL0     C10151   8.021   1.141   4.548  0.7647  1.1620 -0.5926
  799MOL0     C10152   8.136   1.077   4.480  0.7606  0.8115  0.2579
  799MOL0     C10153   8.030   1.247   4.645  0.0376 -1.3326 -0.3167
  799MOL0     C10154   8.157   1.301   4.698  0.2320  0.2426  1.2324
  799MOL0     O10155   8.273   1.233   4.661  0.5163 -0.5453 -0.4829
  799MOL0     C10156   8.402   1.265   4.710  0.3993  1.0866  0.1982
  799MOL0     C10157   8.440   1.315   4.840 -1.2514  0.1793  0.2160
  799MOL0     C10158   8.568   1.312   4.887  0.0584  0.2288  0.5219
  799MOL0     C10159   8.673   1.281   4.801  0.3851 -0.4307  0.3013
  799MOL0     O10160   8.805   1.278   4.833 -0.0593  0.8269  0.6645
  799MOL0     C10161   8.868   1.350   4.939  0.0929 -0.1138  0.1180
  799MOL0     C10162   9.017   1.301   4.936 -0.4752 -1.3664 -0.1744
  799MOL0     C10163   9.102   1.376   5.040  0.1802 -0.8723  0.5372
  799MOL0     C10164   9.254   1.347   5.026 -0.3073 -0.2110 -0.5802
  799MOL0     C10165   9.312   1.323   5.162 -0.9564 -0.1327  0.3298
  799MOL0     C10166   9.471   1.333   5.165  0.5462  0.4025  0.0987
  799MOL0     C10167   9.550   1.227   5.087 -0.0661 -1.6175  0.0142
  799MOL0     C10168   9.665   1.268   5.006 -0.6231 -0.0545 -0.3410
  799MOL0    Cl10169   9.804   1.330   5.093 -0.3521  0.0038 -0.0366
  799MOL0     C10170   8.644   1.240   4.667  0.7732  0.1294  0.2709
  799MOL0     C10171   8.512   1.222   4.628 -0.1406  0.1514  0.6288
  799MOL0     O10172   8.158   1.406   4.765 -0.2707  0.5061 -0.1171
  799MOL0     C10173   7.912   1.311   4.700  0.0518  0.1641 -0.7417
  799MOL0     C10174   7.794   1.275   4.665  0.3422  1.3401 -0.0747
  799MOL0     N10175   7.275   0.727   4.586 -0.1715  0.2874  0.7873
  799MOL0     N10176   7.179   0.676   4.649  0.2067 -0.2690  0.0463
  799MOL0     C10177   6.021  -0.022   4.279  0.7484 -0.0394  0.0535
  799MOL0     C10178   5.912  -0.045   4.189  0.3161  0.1759  0.1250
  799MOL0     C10179   5.699  -0.051   3.763  0.2056  0.1503  0.9481
  799MOL0     C10180   5.651   0.046   3.673 -0.0987 -0.0568 -0.8481
  799MOL0     C10181   5.540   0.012   3.596 -0.0743 -0.7338 -0.2450
  799MOL0     C10182   5.476  -0.115   3.603 -0.5504 -1.0444 -0.1280
  799MOL0     O10183   5.387  -0.130   3.503  0.5858  0.4199 -0.2587
  799MOL0     C10184   5.323  -0.254   3.497 -0.1116  0.9525 -0.4815
  799MOL0     C10185   5.217  -0.276   3.605  0.5990  0.0756 -0.0917
  799MOL0     C10186   5.102  -0.171   3.605 -0.0762 -1.0370  0.6011
  799MOL0     C10187   5.080  -0.096   3.475 -0.2387 -0.0233 -0.0489
  799MOL0     C10188   4.979   0.004   3.509 -1.1525  1.3385 -0.9442
  799MOL0     C10189   4.903   0.091   3.545  0.0851 -0.3214  0.3767
  799MOL0     C10190   5.522  -0.205   3.699 -1.0699 -0.6753 -0.4178
  799MOL0     C10191   5.634  -0.177   3.780 -0.0701  0.6727 -0.2162
  799MOL0     C10192   5.671  -0.282   3.882 -0.2321 -0.9688  0.0222
  799MOL0     H10193   6.081  -0.001   3.892 -1.0600  0.6854  0.3242
  799MOL0     H10194   6.275   0.018   4.054  0.7812  1.2429  0.5774
  799MOL0     H10195   6.324   0.211   4.294  1.9857  0.1229 -0.3265
  799MOL0     H10196   6.417   0.082   4.215  0.6966 -2.9346  1.0834
  799MOL0     H10197   6.392   0.134   4.517 -2.3988 -0.9284 -0.3286
  799MOL0     H10198   6.484   0.000   4.444 -1.7253 -0.9151 -0.2163
  799MOL0     H10199   6.662   0.127   4.466  0.7089  0.3741 -0.4927
  799MOL0     H10200   6.609   0.187   4.310 -0.1185  0.5305  0.4799
  799MOL0     H10201   6.482   0.379   4.441 -0.9055 -1.0306  2.7043
  799MOL0     H10202   6.547   0.321   4.583  1.9124  0.9573  0.5949
  799MOL0     H10203   6.717   0.437   4.360  0.6428 -0.0607 -0.3779
  799MOL0     H10204   6.793   0.344   4.478  0.2665  1.1190 -2.1813
  799MOL0     H10205   6.635   0.586   4.531 -0.3694 -0.9463 -0.6424
  799MOL0     H10206   6.719   0.506   4.658 -2.4755  1.4994  0.2265
  799MOL0     H10207   6.838   0.702   4.590 -0.5618  1.0758 -1.3548
  799MOL0     H10208   6.864   0.640   4.425 -1.2036 -0.2236 -0.5152
  799MOL0     H10209   6.965   0.502   4.687  0.2011 -0.2222  0.9705
  799MOL0     H10210   6.972   0.446   4.519 -0.7444 -1.2143 -0.3677
  799MOL0     H10211   7.094   0.637   4.341  0.7698 -0.3898 -0.8929
  799MOL0     H10212   7.283   0.867   4.300 -2.5443 -0.3186  1.5993
  799MOL0     H10213   7.353   0.703   4.272  0.6029  0.9015 -0.4599
  799MOL0     H10214   7.532   0.759   4.438  1.2280  1.6939  1.8086
  799MOL0     H10215   7.525   0.855   4.287  1.5181  2.2660 -0.2890
  799MOL0     H10216   7.406   1.042   4.437  1.8422  0.3170 -0.0887
  799MOL0     H10217   7.457   0.943   4.574 -1.9077  0.0466  0.0407
  799MOL0     H10218   7.690   0.932   4.479 -1.0947 -1.7892  0.4547
  799MOL0     H10219   7.647   1.044   4.359  2.3352 -1.1599  0.0401
  799MOL0     H10220   7.873   1.028   4.437 -1.0183 -0.9616  2.3605
  799MOL0     H10221   8.212   1.152   4.457  2.1908 -0.4939  0.5964
  799MOL0     H10222   8.101   1.049   4.380 -0.6368 -0.3374  1.0319
  799MOL0     H10223   8.178   0.996   4.541 -1.3604  0.2125  0.9989
  799MOL0     H10224   8.360   1.331   4.912 -0.0078 -1.1491  1.9744
  799MOL0     H10225   8.583   1.348   4.988  0.0315  0.8493  0.3068
  799MOL0     H10226   8.859   1.458   4.925  0.4996  0.0075  0.7550
  799MOL0     H10227   8.827   1.321   5.036 -1.5621 -4.1756 -1.5566
  799MOL0     H10228   9.023   1.196   4.968 -1.3323 -1.3334  0.1189
  799MOL0     H10229   9.061   1.312   4.836  0.5299  1.4139  0.5164
  799MOL0     H10230   9.067   1.356   5.142  0.3460 -2.4361  0.3120
  799MOL0     H10231   9.079   1.482   5.023  0.0202 -0.8247  1.0508
  799MOL0     H10232   9.303   1.429   4.974 -3.5950  1.5214 -1.2266
  799MOL0     H10233   9.270   1.256   4.967  1.5219 -1.3477  1.5454
  799MOL0     H10234   9.276   1.398   5.233 -1.8626  0.9448 -1.1916
  799MOL0     H10235   9.270   1.232   5.205 -0.5230  0.3283  1.7976
  799MOL0     H10236   9.492   1.321   5.272 -2.5141  1.0675  0.8659
  799MOL0     H10237   9.500   1.434   5.134  0.0544  0.6807  0.5272
  799MOL0     H10238   9.483   1.166   5.025  2.7974 -0.6071 -4.5727
  799MOL0     H10239   9.586   1.160   5.166  0.0074  0.8409  2.1852
  799MOL0     H10240   9.624   1.332   4.928 -0.9084  0.3846  0.1664
  799MOL0     H10241   9.708   1.179   4.960  0.4729 -1.2225  2.6862
  799MOL0     H10242   8.729   1.222   4.601  1.0917  0.6415  0.5342
  799MOL0     H10243   8.488   1.182   4.531  1.1508 -0.1549  0.4233
  799MOL0     H10244   7.920   1.395   4.768 -2.1959 -0.4643  0.4055
  799MOL0     H10245   7.708   1.323   4.711 -0.8713  0.0281 -0.8742
  799MOL0     H10246   6.012  -0.035   4.387  1.6625 -4.0631 -0.1998
  799MOL0     H10247   5.818  -0.068   4.237 -1.3055 -0.1814 -2.9608
  799MOL0     H10248   5.693   0.146   3.665 -1.0642  0.2811 -2.2991
  799MOL0     H10249   5.497   0.080   3.523  0.1491 -2.4025 -2.0151
  799MOL0     H10250   5.274  -0.263   3.400  0.5505 -1.4838 -0.6700
  799MOL0     H10251   5.397  -0.335   3.503  1.3261  2.3234  2.0844
  799MOL0     H10252   5.263  -0.272   3.704  1.3588 -0.4166 -0.4077
  799MOL0     H10253   5.168  -0.373   3.594 -1.6687  1.0926  0.4764
  799MOL0     H10254   5.004  -0.207   3.638 -0.2588 -1.6644 -0.5531
  799MOL0     H10255   5.133  -0.102   3.684  3.2257 -1.2369 -0.3669
  799MOL0     H10256   5.046  -0.163   3.396 -2.6415 -1.2607  1.9013
  799MOL0     H10257   5.169  -0.044   3.438 -0.0730 -0.4709 -0.2901
  799MOL0     H10258   4.833   0.168   3.571  0.6160 -0.1504  1.3664
  799MOL0     H10259   5.486  -0.305   3.725 -0.3008 -1.1106 -0.9790
  799MOL0     H10260   5.779  -0.296   3.893  0.0842  1.3453  0.3694
  799MOL0     H10261   5.637  -0.245   3.979 -0.9855 -1.1416 -0.1689
  799MOL0     H10262   5.615  -0.373   3.859 -2.3339 -0.0134  1.0325
  800MOL0     O10263   5.678   7.265   9.184  0.4348 -0.7630 -0.2291
  800MOL0     C10264   5.697   7.341   9.273  0.0385 -0.2437 -0.1503
  800MOL0     O10265   5.824   7.384   9.312 -0.2981  0.0931  0.2099
  800MOL0     C10266   5.932   7.405   9.225  0.0389  0.7450 -0.1766
  800MOL0     C10267   6.064   7.421   9.270 -0.3279 -0.2352 -0.1572
  800MOL0     C10268   6.167   7.439   9.180  0.8004 -1.0423 -0.1950
  800MOL0     C10269   6.143   7.458   9.048  0.8908  0.4754  0.6313
  800MOL0     O10270   6.252   7.493   8.980  0.3850  1.2586 -0.0308
  800MOL0     C10271   6.231   7.555   8.856  0.2911 -0.4163  0.5336
  800MOL0     C10272   6.350   7.640   8.826  0.4053 -0.1222  0.5406
  800MOL0     C10273   6.353   7.705   8.688 -0.0313 -0.6382  0.4999
  800MOL0     C10274   6.500   7.725   8.640 -0.0944 -0.4484  0.1376
  800MOL0     C10275   6.496   7.791   8.501  0.2900  0.0755  0.0139
  800MOL0     C10276   6.620   7.737   8.419 -0.5110 -0.1088  0.2650
  800MOL0     C10277   6.659   7.839   8.314 -0.6881  0.1039  0.0112
  800MOL0     C10278   6.791   7.792   8.256 -1.2196  0.0832 -0.1809
  800MOL0     N10279   6.867   7.895   8.179  0.3189 -0.0376  0.4526
  800MOL0     C10280   6.818   7.973   8.079  0.5042 -0.3993  1.1578
  800MOL0     C10281   6.925   8.044   8.042 -0.3331 -0.5544  0.8075
  800MOL0     C10282   6.921   8.157   7.937  0.2257  0.3645 -0.3356
  800MOL0     C10283   6.884   8.106   7.796 -0.8287  0.1603  0.4969
  800MOL0     C10284   7.005   8.056   7.715 -0.4068 -0.2799 -0.0233
  800MOL0     C10285   6.978   7.991   7.581  0.3092  0.1045 -1.1991
  800MOL0     O10286   7.076   7.886   7.550 -0.5099  0.3173 -0.1661
  800MOL0     C10287   7.214   7.909   7.540 -0.5826  0.3499 -0.1237
  800MOL0     C10288   7.267   8.034   7.505 -0.9100  0.7696 -0.0194
  800MOL0     C10289   7.401   8.050   7.470 -0.6985  0.2917  0.7063
  800MOL0     C10290   7.443   8.184   7.416  0.6539  0.7125 -0.3403
  800MOL0     C10291   7.492   7.941   7.476 -0.4356 -0.2171  0.4290
  800MOL0     C10292   7.643   7.954   7.464  0.0899  0.6898 -0.6359
  800MOL0     O10293   7.715   7.845   7.435 -0.4150  0.1613  1.0815
  800MOL0     C10294   7.850   7.847   7.461  0.1967 -0.2348  0.2917
  800MOL0     C10295   7.935   7.935   7.397 -1.2966 -0.8442 -0.3905
  800MOL0     C10296   8.072   7.942   7.433  0.2262 -0.3705  0.3012
  800MOL0     C10297   8.120   7.864   7.537 -0.1160 -0.0003  0.2498
  800MOL0     O10298   8.247   7.878   7.581  0.4742  0.5831 -0.3794
  800MOL0     C10299   8.330   7.759   7.592  0.0094  0.3756  0.8797
  800MOL0     C10300   8.448   7.810   7.670 -0.9461 -0.6503  0.5395
  800MOL0     C10301   8.559   7.713   7.663  0.0531  0.0952  0.0246
  800MOL0     C10302   8.674   7.750   7.754 -0.2351 -0.0126 -0.4509
  800MOL0     C10303   8.800   7.658   7.742  0.3777 -0.3333  0.3488
  800MOL0     C10304   8.765   7.510   7.762  0.0729 -0.5859 -0.5087
  800MOL0     C10305   8.892   7.417   7.729  0.5467  0.2271  0.6381
  800MOL0     C10306   8.854   7.275   7.722  0.3890  0.8240 -0.0918
  800MOL0    Cl10307   8.806   7.219   7.884 -0.2234  0.1624  0.2146
  800MOL0     C10308   8.029   7.765   7.596  0.3417 -0.2839 -0.6234
  800MOL0     C10309   7.898   7.755   7.551 -0.2653 -0.1778 -0.1267
  800MOL0     O10310   7.689   8.060   7.485  0.4564  0.2755  0.6388
  800MOL0     C10311   7.437   7.814   7.516 -0.7782 -0.3730 -1.2474
  800MOL0     C10312   7.299   7.798   7.542  0.5759  0.6174  0.4706
  800MOL0     N10313   7.029   8.033   8.136  0.4177  0.3399  0.3867
  800MOL0     N10314   6.992   7.936   8.211 -0.5216 -0.1878 -0.3471
  800MOL0     C10315   6.013   7.446   8.996  0.3301 -0.0117 -0.1628
  800MOL0     C10316   5.904   7.419   9.089  0.3849  0.1368  0.2058
  800MOL0     C10317   5.571   7.361   9.373 -0.9566 -1.2692 -0.0437
  800MOL0     C10318   5.606   7.370   9.508 -0.1887  1.0261  0.3300
  800MOL0     C10319   5.518   7.392   9.608  0.3635  0.2895  0.4593
  800MOL0     C10320   5.381   7.402   9.580  0.7252 -0.2476  0.1313
  800MOL0     O10321   5.289   7.443   9.674 -0.0583  0.6001 -0.4944
  800MOL0     C10322   5.327   7.422   9.816 -0.1982  0.7350  1.1103
  800MOL0     C10323   5.207   7.486   9.880  0.1512  0.3677 -0.4624
  800MOL0     C10324   5.077   7.405   9.852  0.1618 -0.8292  0.1545
  800MOL0     C10325   4.969   7.485   9.916  0.6601 -0.1699  0.1256
  800MOL0     C10326   4.849   7.405   9.912 -0.0410  1.1068 -0.1991
  800MOL0     C10327   4.752   7.331   9.907  0.0897  0.2597  0.4075
  800MOL0     C10328   5.346   7.402   9.446 -0.6731  0.0059  0.0051
  800MOL0     C10329   5.436   7.368   9.337  0.1587 -0.1353  0.1227
  800MOL0     C10330   5.395   7.368   9.195  0.4266 -0.2012 -0.1629
  800MOL0     H10331   6.078   7.430   9.377  0.1086  0.4402 -0.2608
  800MOL0     H10332   6.272   7.450   9.206  1.1392 -2.1926 -1.0057
  800MOL0     H10333   6.140   7.616   8.859  1.2630  1.1078  0.4393
  800MOL0     H10334   6.217   7.487   8.771 -1.0746  1.7915 -1.1224
  800MOL0     H10335   6.338   7.728   8.889  0.4203  0.0611  0.2853
  800MOL0     H10336   6.437   7.576   8.842  0.4717 -0.1586  0.0444
  800MOL0     H10337   6.294   7.645   8.618 -0.9232 -1.8550  2.2274
  800MOL0     H10338   6.306   7.803   8.700  1.1730 -0.0565  0.7111
  800MOL0     H10339   6.549   7.792   8.712  0.4302 -0.5934 -0.0794
  800MOL0     H10340   6.551   7.629   8.650  1.1328  0.0927 -0.6512
  800MOL0     H10341   6.507   7.900   8.500  0.2034  0.0852 -1.3015
  800MOL0     H10342   6.403   7.765   8.449  0.0705  1.2266 -0.2087
  800MOL0     H10343   6.702   7.718   8.489  0.0959 -2.1915 -0.9241
  800MOL0     H10344   6.611   7.639   8.371  5.6299 -1.2792  0.6872
  800MOL0     H10345   6.664   7.943   8.346  0.7119  0.7486 -2.0850
  800MOL0     H10346   6.578   7.841   8.240  0.2669 -1.1285 -1.1317
  800MOL0     H10347   6.853   7.756   8.338 -0.7207 -0.6713 -0.8742
  800MOL0     H10348   6.770   7.703   8.196 -0.4019 -0.6567  0.6037
  800MOL0     H10349   6.722   7.968   8.029  0.2949 -0.7629  1.5867
  800MOL0     H10350   7.022   8.196   7.925 -0.1804  1.4347 -0.3927
  800MOL0     H10351   6.848   8.231   7.971  0.4136  1.3479 -1.9569
  800MOL0     H10352   6.804   8.033   7.794 -2.3084  1.7297 -0.2614
  800MOL0     H10353   6.844   8.191   7.740 -0.8254 -1.1767 -1.6368
  800MOL0     H10354   7.071   8.142   7.698 -0.6603 -0.1325 -0.2783
  800MOL0     H10355   7.074   7.992   7.769  1.4149  1.8004  0.2422
  800MOL0     H10356   6.884   7.937   7.598  0.7858 -0.1597  0.8363
  800MOL0     H10357   6.964   8.063   7.500  0.8097 -0.2055 -1.5645
  800MOL0     H10358   7.200   8.118   7.491 -0.3220  0.9687 -1.8430
  800MOL0     H10359   7.492   8.238   7.497  1.9048 -1.3044  0.3013
  800MOL0     H10360   7.360   8.247   7.380  1.2821  0.0338 -3.2721
  800MOL0     H10361   7.509   8.164   7.331 -2.5754 -4.7330 -2.0619
  800MOL0     H10362   7.903   8.011   7.326 -0.5501 -0.2563 -0.1197
  800MOL0     H10363   8.136   8.016   7.386 -0.1202  1.8713  3.0599
  800MOL0     H10364   8.279   7.680   7.647  2.4271 -1.6554  0.3796
  800MOL0     H10365   8.360   7.713   7.497 -1.8695  0.4206  0.2138
  800MOL0     H10366   8.484   7.911   7.648  0.6016 -1.0062  1.3010
  800MOL0     H10367   8.413   7.822   7.773 -3.4054  1.5367 -0.4453
  800MOL0     H10368   8.599   7.704   7.561 -1.8166 -1.3714 -0.6341
  800MOL0     H10369   8.513   7.621   7.697  1.6562 -0.0174  2.0358
  800MOL0     H10370   8.633   7.760   7.856  0.2741 -2.5064  0.0431
  800MOL0     H10371   8.709   7.852   7.731  1.7497 -0.5355  0.0560
  800MOL0     H10372   8.833   7.666   7.638  0.1870 -1.9558  0.1416
  800MOL0     H10373   8.879   7.697   7.806  0.8115  1.2652 -1.0982
  800MOL0     H10374   8.694   7.488   7.682  0.3462  2.6931 -1.7641
  800MOL0     H10375   8.721   7.499   7.862 -0.0150  1.4104 -0.2930
  800MOL0     H10376   8.976   7.427   7.798  2.2300 -4.0645 -0.4556
  800MOL0     H10377   8.924   7.446   7.628 -1.4488 -0.1497 -0.1516
  800MOL0     H10378   8.931   7.206   7.686 -2.8565 -1.6180 -2.9847
  800MOL0     H10379   8.768   7.265   7.655 -1.1186  0.1998  1.8472
  800MOL0     H10380   8.063   7.719   7.688  1.4502 -1.2396 -1.4899
  800MOL0     H10381   7.834   7.674   7.586 -0.4223 -2.0631 -4.1328
  800MOL0     H10382   7.506   7.730   7.526 -1.4058 -1.0988 -2.6865
  800MOL0     H10383   7.258   7.699   7.560 -1.5326  1.0018 -1.7192
  800MOL0     H10384   5.986   7.457   8.892  1.7984 -0.6381 -0.6499
  800MOL0     H10385   5.800   7.426   9.059  0.4051  2.8294  0.5602
  800MOL0     H10386   5.712   7.358   9.528 -0.2272 -1.0043 -0.5258
  800MOL0     H10387   5.547   7.395   9.712 -1.0855  0.9664  0.8785
  800MOL0     H10388   5.342   7.315   9.833  1.2659  1.0028  1.6354
  800MOL0     H10389   5.418   7.477   9.842  2.6472 -2.9794 -0.0427
  800MOL0     H10390   5.197   7.588   9.840  2.3332  1.2109  1.0199
  800MOL0     H10391   5.218   7.497   9.988  0.9532  1.1185 -0.6122
  800MOL0     H10392   5.052   7.396   9.745  1.0368  3.5066 -0.6284
  800MOL0     H10393   5.086   7.304   9.893  1.8250 -1.7056 -2.1334
  800MOL0     H10394   4.957   7.574   9.854  0.0549  0.4731  1.1340
  800MOL0     H10395   5.000   7.506  10.019  0.7473 -0.3966  0.1449
  800MOL0     H10396   4.664   7.271   9.897  0.6456 -0.9466  2.2734
  800MOL0     H10397   5.240   7.409   9.425 -0.6677  0.1376  0.0170
  800MOL0     H10398   5.310   7.433   9.172 -0.1669 -1.7591 -2.6949
  800MOL0     H10399   5.476   7.414   9.138 -1.5179  2.2482 -1.1288
  800MOL0     H10400   5.365   7.271   9.154 -1.2174 -0.3435  1.2748
  801MOL0     O10401   2.487  11.086   0.802  0.1975 -0.4053 -0.0587
  801MOL0     C10402   2.419  11.143   0.717  0.1773  0.1225 -0.1418
  801MOL0     O10403   2.354  11.265   0.726 -0.2732 -0.5323  0.0639
  801MOL0     C10404   2.392  11.347   0.824 -0.5420  0.6848 -0.9976
  801MOL0     C10405   2.526  11.363   0.867  0.0129  0.0238  0.8161
  801MOL0     C10406   2.556  11.456   0.965 -0.0285  0.6246 -0.1392
  801MOL0     C10407   2.452  11.522   1.032 -0.3456  0.1548  0.0366
  801MOL0     O10408   2.476  11.626   1.124  0.0904  0.3571 -0.1644
  801MOL0     C10409   2.607  11.663   1.168  1.1161 -0.6439 -0.2966
  801MOL0     C10410   2.667  11.778   1.082 -0.9869 -0.1137  0.0588
  801MOL0     C10411   2.768  11.747   0.977 -0.0416 -0.0209  1.1724
  801MOL0     C10412   2.814  11.873   0.907 -0.3280 -0.4117  0.6669
  801MOL0     C10413   2.914  11.843   0.794  0.1379 -0.6424  0.7298
  801MOL0     C10414   2.962  11.978   0.723  0.5857  0.2118 -0.0227
  801MOL0     C10415   3.053  11.936   0.616 -0.4746 -0.9749 -0.0663
  801MOL0     C10416   3.072  12.054   0.517 -0.1435 -0.1312  0.6955
  801MOL0     N10417   3.125  12.002   0.384  0.0803  0.4068 -0.1541
  801MOL0     C10418   3.248  11.962   0.346 -0.3104 -0.8417 -0.3466
  801MOL0     C10419   3.241  11.929   0.214  1.6899  0.0822  0.0565
  801MOL0     C10420   3.352  11.895   0.111  0.1556 -0.9388 -0.7358
  801MOL0     C10421   3.406  11.755   0.142  0.5548  0.1172  1.2194
  801MOL0     C10422   3.345  11.642   0.060 -0.1833  0.0242 -0.0369
  801MOL0     C10423   3.420  11.613  -0.074 -0.0413  0.5945  0.5892
  801MOL0     O10424   3.393  11.490  -0.135  0.2433 -0.4971 -0.3360
  801MOL0     C10425   3.448  11.378  -0.089  0.4495 -0.0095 -0.4875
  801MOL0     C10426   3.418  11.264  -0.159  0.5754 -0.5952  0.0577
  801MOL0     C10427   3.469  11.140  -0.129  0.1503 -0.3369  0.1429
  801MOL0     C10428   3.425  11.027  -0.218  0.4776  0.6510  0.0999
  801MOL0     C10429   3.569  11.127  -0.021  0.6176 -0.2548 -0.4359
  801MOL0     C10430   3.630  10.998   0.027 -0.2557  0.2402 -0.2278
  801MOL0     O10431   3.728  10.993   0.124 -0.4861 -0.4168 -0.3521
  801MOL0     C10432   3.777  10.871   0.176 -0.2601  0.7366  0.1959
  801MOL0     C10433   3.911  10.834   0.153 -0.1069  0.0182  0.1654
  801MOL0     C10434   3.971  10.733   0.234 -0.8858 -0.2647  0.0273
  801MOL0     C10435   3.897  10.651   0.316  0.0164  0.1458 -0.2399
  801MOL0     O10436   3.970  10.557   0.386 -0.2751  0.2916 -0.1541
  801MOL0     C10437   3.898  10.440   0.437 -0.6089  0.3575  0.2427
  801MOL0     C10438   3.999  10.331   0.466  0.4117  0.2984  0.3888
  801MOL0     C10439   4.102  10.369   0.569 -0.1729 -0.3651 -0.2696
  801MOL0     C10440   4.238  10.308   0.536 -0.5506  0.2972 -0.9431
  801MOL0     C10441   4.335  10.332   0.653 -0.5782  0.0420 -0.2018
  801MOL0     C10442   4.474  10.285   0.621  1.4798  0.0433  0.0105
  801MOL0     C10443   4.574  10.328   0.730 -0.5493  0.4709 -0.5807
  801MOL0     C10444   4.709  10.256   0.711  0.2321  0.5805  0.2219
  801MOL0    Cl10445   4.718  10.072   0.713 -0.0121  0.0836  0.4863
  801MOL0     C10446   3.760  10.684   0.336  0.6078  0.0793  0.3325
  801MOL0     C10447   3.703  10.797   0.269 -0.0437  0.0935  0.5015
  801MOL0     O10448   3.577  10.894  -0.013 -1.0961 -0.7193  0.0586
  801MOL0     C10449   3.597  11.249   0.041  0.5166  0.1269  0.0985
  801MOL0     C10450   3.536  11.365   0.016 -0.1181 -0.3913  0.5776
  801MOL0     N10451   3.111  11.947   0.172  0.7924 -0.0869  0.0838
  801MOL0     N10452   3.043  11.990   0.270 -0.5723 -0.5298  0.3406
  801MOL0     C10453   2.323  11.501   0.992 -0.1223 -0.4055 -0.5815
  801MOL0     C10454   2.290  11.419   0.887  0.3069 -0.0258 -0.7751
  801MOL0     C10455   2.398  11.085   0.591  0.1043 -0.5061 -0.4431
  801MOL0     C10456   2.270  11.092   0.539  1.6786 -0.2313  0.7568
  801MOL0     C10457   2.247  11.049   0.407 -0.3642 -0.2113 -0.5278
  801MOL0     C10458   2.346  10.997   0.323  0.2777  0.2468  0.3030
  801MOL0     O10459   2.313  10.965   0.196  0.3956 -0.3749 -0.3099
  801MOL0     C10460   2.379  10.864   0.122 -0.0651  0.2641  0.5092
  801MOL0     C10461   2.310  10.847  -0.006 -0.4778  0.1352 -0.2476
  801MOL0     C10462   2.177  10.767   0.011  0.5141 -0.3954 -0.7842
  801MOL0     C10463   2.073  10.805   0.119  0.5461  0.0543 -0.2245
  801MOL0     C10464   1.937  10.774   0.068 -0.4667  0.5316  0.5627
  801MOL0     C10465   1.832  10.741   0.006  0.2137 -0.8407 -0.1618
  801MOL0     C10466   2.469  10.966   0.380  0.5836 -1.0322 -0.6807
  801MOL0     C10467   2.498  11.017   0.507 -0.7573  0.5562 -0.0246
  801MOL0     C10468   2.634  10.991   0.559  1.3523 -0.5578  0.0736
  801MOL0     H10469   2.604  11.311   0.811 -0.6956  0.6487 -0.8281
  801MOL0     H10470   2.661  11.474   0.986  1.3694 -0.0553 -5.3133
  801MOL0     H10471   2.678  11.583   1.193  0.8426 -0.6411  0.5400
  801MOL0     H10472   2.593  11.712   1.265  1.3047 -0.4697 -0.3577
  801MOL0     H10473   2.589  11.840   1.035 -1.6926 -1.5666 -0.7569
  801MOL0     H10474   2.723  11.850   1.142 -0.5278  1.1225 -1.7451
  801MOL0     H10475   2.858  11.693   1.010 -0.9321 -2.1292  0.3399
  801MOL0     H10476   2.721  11.685   0.900  0.2284  2.3041 -0.9811
  801MOL0     H10477   2.725  11.926   0.870 -0.0488 -1.0446 -0.9778
  801MOL0     H10478   2.855  11.954   0.968 -3.0666  1.5079  0.1704
  801MOL0     H10479   2.870  11.765   0.732 -0.6305 -1.1337  1.8530
  801MOL0     H10480   2.998  11.794   0.844  0.5573 -0.2080  0.4579
  801MOL0     H10481   2.879  12.022   0.667  0.3655 -0.0173  0.1184
  801MOL0     H10482   3.004  12.040   0.802 -0.8029  1.9215 -0.5699
  801MOL0     H10483   3.029  11.844   0.560  0.0497 -1.5455  0.6378
  801MOL0     H10484   3.152  11.920   0.661 -0.7907 -0.1205  0.9564
  801MOL0     H10485   2.978  12.103   0.491  1.4834  2.5183 -0.6768
  801MOL0     H10486   3.131  12.134   0.564 -1.4892 -0.0388  2.3351
  801MOL0     H10487   3.340  11.971   0.403 -0.1572 -0.1362 -0.6858
  801MOL0     H10488   3.433  11.969   0.105 -0.1317 -0.7316 -4.2904
  801MOL0     H10489   3.308  11.898   0.011  0.2483  2.7576 -0.8017
  801MOL0     H10490   3.513  11.761   0.120  0.0301  2.9914 -1.2205
  801MOL0     H10491   3.393  11.735   0.249  1.9911  1.8223  1.7764
  801MOL0     H10492   3.356  11.555   0.127 -1.3826  0.0425  0.2037
  801MOL0     H10493   3.242  11.673   0.041  0.7577  5.1682  1.5408
  801MOL0     H10494   3.389  11.690  -0.145 -0.4024  0.5650  0.7147
  801MOL0     H10495   3.528  11.613  -0.055  0.3263 -3.2361 -0.5625
  801MOL0     H10496   3.344  11.280  -0.237  3.5717  1.0729 -2.6686
  801MOL0     H10497   3.514  10.970  -0.243  1.2236  2.7657 -2.5707
  801MOL0     H10498   3.372  11.058  -0.310  0.1647  2.8709  0.9606
  801MOL0     H10499   3.363  10.958  -0.161  0.7530  0.8259  0.6122
  801MOL0     H10500   3.983  10.891   0.096 -0.5379  1.8780  1.4039
  801MOL0     H10501   4.077  10.711   0.221 -0.6437  1.4821 -1.2874
  801MOL0     H10502   3.839  10.462   0.527 -3.5867  0.6396 -1.6460
  801MOL0     H10503   3.834  10.399   0.359  1.2440  2.2869 -2.4971
  801MOL0     H10504   3.944  10.242   0.498  1.0867 -0.5565 -0.7598
  801MOL0     H10505   4.052  10.295   0.377  0.7614 -2.5714  1.6437
  801MOL0     H10506   4.054  10.330   0.659 -0.7710  1.1318  0.0916
  801MOL0     H10507   4.125  10.476   0.578  4.2416 -1.3245  4.1051
  801MOL0     H10508   4.284  10.360   0.451  1.8408 -0.0809  0.0399
  801MOL0     H10509   4.229  10.202   0.512 -1.5571 -0.2931  1.6782
  801MOL0     H10510   4.336  10.436   0.687  1.2314  0.5667 -1.7224
  801MOL0     H10511   4.307  10.277   0.744 -0.7606  2.4514  1.3053
  801MOL0     H10512   4.516  10.317   0.525 -0.4537 -0.7834 -1.1494
  801MOL0     H10513   4.474  10.176   0.619 -0.4855 -0.0271  1.2250
  801MOL0     H10514   4.533  10.306   0.829  2.8350  3.6938  1.8534
  801MOL0     H10515   4.595  10.436   0.726  1.5376  0.0753 -1.8446
  801MOL0     H10516   4.771  10.296   0.792 -0.8590  2.5985  0.1349
  801MOL0     H10517   4.752  10.283   0.614 -0.0503 -3.7057 -1.2897
  801MOL0     H10518   3.707  10.628   0.412  0.8554  1.1996  1.3648
  801MOL0     H10519   3.601  10.823   0.295 -0.2771 -2.2471  2.3175
  801MOL0     H10520   3.677  11.248   0.115  1.0313 -0.1609 -0.4505
  801MOL0     H10521   3.572  11.443   0.083 -0.8235  0.9620 -0.5575
  801MOL0     H10522   2.246  11.551   1.050 -0.3695 -1.8891  0.4320
  801MOL0     H10523   2.189  11.418   0.845 -0.0921 -2.6059  0.0495
  801MOL0     H10524   2.182  11.134   0.588 -0.2485 -0.3680 -2.2921
  801MOL0     H10525   2.149  11.069   0.364 -0.1122  1.6608 -0.3389
  801MOL0     H10526   2.481  10.898   0.099 -0.8859  1.4536 -1.6994
  801MOL0     H10527   2.388  10.774   0.184 -1.2931  0.6470  1.2809
  801MOL0     H10528   2.372  10.794  -0.078  2.4753 -0.8229  2.7721
  801MOL0     H10529   2.296  10.948  -0.045  1.0259 -0.1612 -1.6448
  801MOL0     H10530   2.129  10.766  -0.087 -2.3907 -0.5332  0.5170
  801MOL0     H10531   2.213  10.667   0.035  2.5753  0.2058 -1.2448
  801MOL0     H10532   2.088  10.911   0.139 -0.2547  0.1717 -0.1839
  801MOL0     H10533   2.100  10.748   0.208 -0.2533  2.7243  1.8420
  801MOL0     H10534   1.735  10.726  -0.036 -1.0032  1.4384  1.6161
  801MOL0     H10535   2.542  10.911   0.322 -0.2608 -2.3315 -0.5531
  801MOL0     H10536   2.681  11.085   0.589  1.8643  0.5547 -3.7198
  801MOL0     H10537   2.619  10.932   0.650 -1.9784 -1.4522 -0.9439
  801MOL0     H10538   2.702  10.936   0.493  1.0301  0.0785 -0.8086
  802MOL0     O10539   3.737   2.940   3.328 -0.1677  0.4029  0.3503
  802MOL0     C10540   3.761   2.864   3.231  0.3383 -0.1990  0.1553
  802MOL0     O10541   3.875   2.792   3.219  0.5157  0.3013  0.4677
  802MOL0     C10542   3.974   2.805   3.311 -0.1434 -0.6028 -0.6387
  802MOL0     C10543   4.046   2.924   3.321  0.6068 -0.3540 -0.1752
  802MOL0     C10544   4.163   2.932   3.403  1.0087  0.9508 -0.5790
  802MOL0     C10545   4.192   2.827   3.493  0.0374 -0.2526 -0.3976
  802MOL0     O10546   4.298   2.829   3.581  0.5047 -0.8888  0.2773
  802MOL0     C10547   4.421   2.870   3.528  0.5240  0.0069 -0.3333
  802MOL0     C10548   4.544   2.839   3.626 -0.0045  0.1792 -1.0284
  802MOL0     C10549   4.523   2.900   3.768 -0.0353 -0.1080  0.1025
  802MOL0     C10550   4.519   3.056   3.771  0.1782 -0.2202 -0.3168
  802MOL0     C10551   4.474   3.105   3.910 -0.7586  0.6876  0.5229
  802MOL0     C10552   4.442   3.252   3.910  0.5198 -0.4070 -0.5367
  802MOL0     C10553   4.405   3.309   4.056 -0.4548 -0.0857 -0.0250
  802MOL0     C10554   4.461   3.253   4.181 -0.4078  0.3252 -0.2975
  802MOL0     N10555   4.592   3.301   4.217 -0.6512 -0.3587 -0.3767
  802MOL0     C10556   4.709   3.231   4.207 -0.1947  0.1926  0.8089
  802MOL0     C10557   4.798   3.312   4.262  0.6748  0.6338 -0.1718
  802MOL0     C10558   4.944   3.273   4.296  0.6522 -0.0065 -0.5621
  802MOL0     C10559   5.040   3.293   4.183 -1.0120  0.1801 -0.0035
  802MOL0     C10560   5.017   3.413   4.090 -0.2897  0.9877  0.6271
  802MOL0     C10561   5.147   3.441   4.001  0.7818  0.5046 -0.4723
  802MOL0     O10562   5.261   3.461   4.091 -0.1155 -0.1104 -0.3331
  802MOL0     C10563   5.390   3.453   4.043 -0.9335  0.0030 -0.0844
  802MOL0     C10564   5.425   3.461   3.905  0.2824  0.5566  0.6366
  802MOL0     C10565   5.566   3.463   3.865  0.4994 -0.0831  0.0435
  802MOL0     C10566   5.592   3.485   3.713  0.8056  0.8548  0.3952
  802MOL0     C10567   5.667   3.452   3.962  0.6811 -0.3014  0.6700
  802MOL0     C10568   5.808   3.462   3.927 -0.9288 -0.2442 -0.5592
  802MOL0     O10569   5.890   3.473   4.036 -0.6566  0.2397 -0.6145
  802MOL0     C10570   6.025   3.496   4.026 -0.4193  0.1369  0.5679
  802MOL0     C10571   6.111   3.411   3.947  0.7768 -0.0120 -0.7526
  802MOL0     C10572   6.239   3.447   3.923 -0.7300  0.9105 -0.4753
  802MOL0     C10573   6.294   3.564   3.980  0.3480  0.0342 -0.4754
  802MOL0     O10574   6.424   3.598   3.986 -0.4737 -0.1561  0.2780
  802MOL0     C10575   6.502   3.587   3.867 -1.3124  0.1077  0.3569
  802MOL0     C10576   6.645   3.628   3.888 -1.1300  0.7142 -0.3317
  802MOL0     C10577   6.715   3.640   3.752  0.3221 -0.8816  0.3736
  802MOL0     C10578   6.857   3.689   3.785 -0.2633  0.3924  0.4744
  802MOL0     C10579   6.932   3.729   3.658  0.8858 -0.2990  0.4770
  802MOL0     C10580   6.879   3.867   3.603  0.1201 -0.3961 -0.3037
  802MOL0     C10581   6.959   3.926   3.488 -0.2426  0.2562  1.3644
  802MOL0     C10582   7.003   3.836   3.370  0.2137  0.2475  0.3063
  802MOL0    Cl10583   6.862   3.770   3.270  0.3327  0.0230  0.3040
  802MOL0     C10584   6.210   3.653   4.041 -0.3177  0.2774 -0.1131
  802MOL0     C10585   6.076   3.616   4.073  0.4634 -1.1845  0.1469
  802MOL0     O10586   5.847   3.468   3.809 -0.2987 -0.1947 -0.2075
  802MOL0     C10587   5.625   3.431   4.097  0.7527 -0.3919  0.2529
  802MOL0     C10588   5.494   3.426   4.133 -0.0700  0.5559 -0.3833
  802MOL0     N10589   4.741   3.434   4.302  0.0685  0.6182 -0.3587
  802MOL0     N10590   4.617   3.420   4.279 -0.3395 -0.1479  0.0500
  802MOL0     C10591   4.110   2.716   3.494  0.6642  0.3149 -0.9228
  802MOL0     C10592   4.005   2.703   3.398  0.6782 -0.2834 -0.9964
  802MOL0     C10593   3.651   2.841   3.133  0.1001 -0.4504  0.1900
  802MOL0     C10594   3.680   2.747   3.034 -0.5726 -0.0357  0.6234
  802MOL0     C10595   3.585   2.718   2.940 -0.1838 -0.5603  0.2285
  802MOL0     C10596   3.455   2.775   2.945 -0.0242 -0.5637  0.2769
  802MOL0     O10597   3.354   2.735   2.866 -0.6272  0.3696  0.0893
  802MOL0     C10598   3.386   2.656   2.751 -0.1839  0.1775  0.4239
  802MOL0     C10599   3.478   2.727   2.651  0.1948 -0.3082  0.0149
  802MOL0     C10600   3.533   2.636   2.539  0.8949  0.5463  0.5804
  802MOL0     C10601   3.636   2.701   2.455 -0.0220 -0.0833  0.6226
  802MOL0     C10602   3.704   2.607   2.353  0.9465 -0.8884  0.3849
  802MOL0     C10603   3.768   2.533   2.283  0.3229 -0.0469 -1.0599
  802MOL0     C10604   3.425   2.862   3.042 -0.2338 -0.1250  0.2697
  802MOL0     C10605   3.523   2.910   3.131 -0.8825 -0.1310 -0.5961
  802MOL0     C10606   3.482   3.017   3.229  0.9490 -0.2441 -0.2581
  802MOL0     H10607   4.014   2.999   3.249 -2.1172  0.4054  1.6504
  802MOL0     H10608   4.210   3.029   3.399 -0.1081  1.6194  1.2613
  802MOL0     H10609   4.425   2.978   3.513 -1.1304  0.4188  1.7627
  802MOL0     H10610   4.440   2.823   3.430  0.1712 -0.4021 -0.2100
  802MOL0     H10611   4.558   2.732   3.639  1.3090  0.5682  1.3051
  802MOL0     H10612   4.639   2.875   3.585  1.1649 -0.5250  0.9298
  802MOL0     H10613   4.431   2.859   3.810 -0.0465 -0.5142 -0.3170
  802MOL0     H10614   4.598   2.855   3.833 -2.4067 -3.8374  0.5565
  802MOL0     H10615   4.623   3.088   3.760  1.2580 -3.1344  0.4737
  802MOL0     H10616   4.447   3.106   3.706 -1.7346 -0.9494  1.1737
  802MOL0     H10617   4.540   3.074   3.991 -0.1998 -0.3876 -0.3183
  802MOL0     H10618   4.379   3.051   3.926  0.0868 -1.2825 -0.7143
  802MOL0     H10619   4.530   3.302   3.870  0.0851  1.7028  0.9844
  802MOL0     H10620   4.365   3.275   3.836 -0.1600  1.7052  0.7528
  802MOL0     H10621   4.296   3.295   4.057 -0.5990  0.9089  0.9278
  802MOL0     H10622   4.418   3.416   4.075 -0.4129 -0.0428 -0.2938
  802MOL0     H10623   4.391   3.262   4.265  2.5186  2.1346  2.1243
  802MOL0     H10624   4.464   3.144   4.172 -4.7625 -0.0140  0.2434
  802MOL0     H10625   4.717   3.129   4.172 -1.9448  0.7089 -1.3239
  802MOL0     H10626   4.944   3.169   4.330  0.2156  0.0091 -0.5002
  802MOL0     H10627   4.984   3.335   4.376  1.3711  1.0389 -1.6948
  802MOL0     H10628   5.141   3.305   4.224 -0.1832 -0.6312 -1.7113
  802MOL0     H10629   5.047   3.202   4.124  4.1666 -0.1593  0.5922
  802MOL0     H10630   4.935   3.394   4.021 -1.0481  3.5128  0.7480
  802MOL0     H10631   4.996   3.504   4.148 -0.3440 -0.0527  2.3296
  802MOL0     H10632   5.164   3.359   3.932 -0.4070 -0.5739  0.4672
  802MOL0     H10633   5.126   3.525   3.934  1.3163 -0.2575 -1.6040
  802MOL0     H10634   5.352   3.471   3.826  2.1306 -0.6103 -1.3428
  802MOL0     H10635   5.618   3.383   3.683 -2.1128  0.3786 -0.7908
  802MOL0     H10636   5.667   3.555   3.674  2.0770 -0.9918 -0.6206
  802MOL0     H10637   5.501   3.508   3.657 -0.0189 -3.0601 -0.1491
  802MOL0     H10638   6.066   3.323   3.902  0.8629 -1.3184  1.5775
  802MOL0     H10639   6.293   3.365   3.877  0.3228  1.5052 -0.3387
  802MOL0     H10640   6.511   3.484   3.830  1.5788  0.8364 -1.2596
  802MOL0     H10641   6.450   3.644   3.789 -2.9954 -1.1929  0.4696
  802MOL0     H10642   6.645   3.732   3.924 -1.9542  0.3506  0.7705
  802MOL0     H10643   6.699   3.567   3.960  1.9888  1.7991 -1.5623
  802MOL0     H10644   6.663   3.711   3.688  2.3458  1.5491  1.2699
  802MOL0     H10645   6.706   3.548   3.692 -1.1580 -0.0941 -0.6815
  802MOL0     H10646   6.915   3.609   3.832 -0.5280 -0.7988 -1.1340
  802MOL0     H10647   6.855   3.783   3.841  0.2846  0.0658  1.0552
  802MOL0     H10648   7.039   3.733   3.681  0.8677 -2.2373  1.1032
  802MOL0     H10649   6.908   3.649   3.587  0.3287 -0.3709  0.7462
  802MOL0     H10650   6.883   3.939   3.686 -1.6289 -0.8588  0.2284
  802MOL0     H10651   6.776   3.858   3.570  0.3555  1.3666 -1.6653
  802MOL0     H10652   7.059   3.951   3.526  0.2089 -2.2156  1.9792
  802MOL0     H10653   6.904   4.012   3.448  1.1028  0.7848  0.5640
  802MOL0     H10654   7.054   3.747   3.408  0.0814  0.6545  1.4506
  802MOL0     H10655   7.070   3.888   3.301 -0.3496 -1.3898 -1.5836
  802MOL0     H10656   6.260   3.740   4.080  0.8156 -0.3907 -0.0352
  802MOL0     H10657   6.011   3.676   4.136 -2.8250 -2.4380 -1.7938
  802MOL0     H10658   5.705   3.408   4.168  0.6436 -0.0643  0.4857
  802MOL0     H10659   5.468   3.425   4.238  0.8813  1.3854 -0.1219
  802MOL0     H10660   4.120   2.630   3.559 -0.3840 -0.7729 -2.1578
  802MOL0     H10661   3.953   2.607   3.393  0.4765 -0.4338  2.0412
  802MOL0     H10662   3.766   2.681   3.031  0.5789  1.4376 -1.4817
  802MOL0     H10663   3.603   2.631   2.878  1.6156  0.4916 -0.8395
  802MOL0     H10664   3.425   2.558   2.782  0.4963 -0.1905 -1.4392
  802MOL0     H10665   3.294   2.622   2.703 -0.1671 -0.7553  1.0216
  802MOL0     H10666   3.566   2.776   2.695 -0.1267 -1.2143  1.7569
  802MOL0     H10667   3.424   2.814   2.612  0.2796 -0.8246 -1.3141
  802MOL0     H10668   3.574   2.547   2.587 -0.2056 -0.4761 -0.3052
  802MOL0     H10669   3.456   2.605   2.467  0.2431  2.2749  0.4767
  802MOL0     H10670   3.710   2.748   2.520 -1.2951  0.5039  1.6929
  802MOL0     H10671   3.600   2.780   2.388  2.0780  1.4482  1.2044
  802MOL0     H10672   3.810   2.452   2.226 -1.5215 -0.4137 -1.9635
  802MOL0     H10673   3.324   2.901   3.046  0.4886  2.0212 -0.6345
  802MOL0     H10674   3.380   3.049   3.205  1.6006  1.5490 -0.7627
  802MOL0     H10675   3.480   2.976   3.330  0.7976 -2.0260 -0.9373
  802MOL0     H10676   3.542   3.108   3.228 -1.4128  1.4818  2.3551
  803MOL0     O10677   9.331   9.140   7.668 -0.3402  0.0027  0.1229
  803MOL0     C10678   9.297   9.080   7.563 -0.7680 -0.3214  0.3037
  803MOL0     O10679   9.381   9.016   7.480  0.2305  0.2004  0.3698
  803MOL0     C10680   9.520   8.986   7.493 -0.3498  0.0716  0.3946
  803MOL0     C10681   9.600   9.006   7.609  0.4250 -0.1605 -0.2403
  803MOL0     C10682   9.722   8.948   7.611 -0.0805 -0.0490 -0.0115
  803MOL0     C10683   9.786   8.888   7.503  0.3843 -0.0824  0.0635
  803MOL0     O10684   9.905   8.824   7.513 -0.0055  0.1905  0.3134
  803MOL0     C10685   9.999   8.848   7.413  0.3100  0.4015  0.4387
  803MOL0     C10686  10.138   8.845   7.481 -0.5410  0.2025  0.5342
  803MOL0     C10687  10.244   8.879   7.378  0.8375 -0.5028 -0.5000
  803MOL0     C10688  10.386   8.869   7.444  0.8366 -0.7224 -0.0335
  803MOL0     C10689  10.496   8.939   7.368 -0.1588 -0.0535  0.0021
  803MOL0     C10690  10.525   8.866   7.242 -0.3015  0.1499  0.2166
  803MOL0     C10691  10.633   8.944   7.165  0.1151  0.6002  0.3853
  803MOL0     C10692  10.686   8.878   7.032  0.4738 -0.8084 -0.5023
  803MOL0     N10693  10.752   8.747   7.048 -0.2588 -0.1657  0.4428
  803MOL0     C10694  10.876   8.724   7.108  0.0404  0.3228 -1.0115
  803MOL0     C10695  10.888   8.586   7.117  0.6805 -0.1304  0.9660
  803MOL0     C10696  11.006   8.500   7.150  0.3260 -0.2012  0.5802
  803MOL0     C10697  11.105   8.556   7.246 -0.2097 -0.2794  0.6839
  803MOL0     C10698  11.244   8.482   7.240 -0.1337 -0.4907 -0.7637
  803MOL0     C10699  11.329   8.524   7.120 -0.9724 -0.6419 -0.2485
  803MOL0     O10700  11.439   8.439   7.097 -0.6312  0.3922 -0.4580
  803MOL0     C10701  11.558   8.477   7.152  0.3862  0.2443  0.2170
  803MOL0     C10702  11.608   8.607   7.133  0.4612  0.6002  0.5244
  803MOL0     C10703  11.727   8.646   7.184 -0.0309 -0.0213 -0.2444
  803MOL0     C10704  11.777   8.794   7.163  0.2881 -0.1265  0.4251
  803MOL0     C10705  11.805   8.539   7.246  0.6402 -0.7321  0.3675
  803MOL0     C10706  11.948   8.569   7.304  0.2835 -0.4892  0.1227
  803MOL0     O10707  12.041   8.476   7.297  0.5760  0.1760  0.7795
  803MOL0     C10708  12.160   8.493   7.363 -0.7014  0.3782 -0.1561
  803MOL0     C10709  12.279   8.526   7.291 -1.1216  0.4387  0.0704
  803MOL0     C10710  12.397   8.563   7.360 -0.1879 -0.2070  0.6395
  803MOL0     C10711  12.400   8.554   7.496 -0.7587  0.3189 -0.0270
  803MOL0     O10712  12.521   8.591   7.548 -0.8052  0.9520 -0.0150
  803MOL0     C10713  12.517   8.667   7.667  0.0909 -0.9393 -0.3871
  803MOL0     C10714  12.659   8.692   7.702  0.0219  0.2498 -0.3203
  803MOL0     C10715  12.715   8.815   7.625 -0.6069  0.7385  0.1089
  803MOL0     C10716  12.688   8.949   7.694  0.1646  0.2228  0.0452
  803MOL0     C10717  12.764   9.067   7.629  0.3271 -0.1495  0.6765
  803MOL0     C10718  12.762   9.188   7.727 -0.3582  0.7266  0.1193
  803MOL0     C10719  12.805   9.315   7.666 -0.6886  0.4798 -0.1497
  803MOL0     C10720  12.953   9.309   7.632 -0.6556 -0.2367 -0.7604
  803MOL0    Cl10721  13.030   9.471   7.616  0.6309 -0.3439 -0.4212
  803MOL0     C10722  12.286   8.506   7.564  0.7758  0.4581 -0.0843
  803MOL0     C10723  12.166   8.470   7.500  0.8930 -0.1624 -0.4874
  803MOL0     O10724  11.957   8.678   7.358  0.0764  0.5467 -0.0353
  803MOL0     C10725  11.758   8.409   7.255 -0.4861  0.1716  0.4589
  803MOL0     C10726  11.634   8.378   7.202 -0.9364  0.2556 -0.0587
  803MOL0     N10727  10.770   8.530   7.071 -0.2277 -0.1743  0.1946
  803MOL0     N10728  10.688   8.624   7.033  0.4325 -0.0491  0.4394
  803MOL0     C10729   9.712   8.883   7.381  0.3536  0.3993 -0.3257
  803MOL0     C10730   9.577   8.934   7.381 -0.2976  1.0785 -0.0686
  803MOL0     C10731   9.156   9.043   7.529 -0.1889 -0.4775  0.6594
  803MOL0     C10732   9.133   8.924   7.455  0.1679  0.0575 -0.5799
  803MOL0     C10733   9.005   8.885   7.418  0.4542  0.0550 -0.4504
  803MOL0     C10734   8.895   8.972   7.441  0.6947  0.6976  0.0764
  803MOL0     O10735   8.775   8.944   7.381  0.3049 -0.4568 -0.1929
  803MOL0     C10736   8.770   8.861   7.266  0.2069  0.1611  0.1620
  803MOL0     C10737   8.633   8.863   7.201  0.1076  0.0754 -0.4192
  803MOL0     C10738   8.526   8.798   7.286 -0.4301 -0.4933 -0.4938
  803MOL0     C10739   8.387   8.818   7.221  0.0152  0.1407 -0.9223
  803MOL0     C10740   8.289   8.711   7.262 -0.4207 -0.4326 -0.2757
  803MOL0     C10741   8.234   8.605   7.286  0.4922  0.5340  0.1201
  803MOL0     C10742   8.911   9.086   7.515 -0.0021 -0.1430 -0.3377
  803MOL0     C10743   9.042   9.121   7.565 -0.4684  0.0461  0.1641
  803MOL0     C10744   9.053   9.259   7.636 -1.1167  0.7179 -0.3190
  803MOL0     H10745   9.562   9.053   7.699 -2.7336 -1.0265 -0.9994
  803MOL0     H10746   9.782   8.937   7.701  0.4494  0.3721 -0.3070
  803MOL0     H10747   9.980   8.949   7.376  0.8577 -0.1644 -1.4734
  803MOL0     H10748   9.991   8.775   7.332  0.1921  0.6777  0.2010
  803MOL0     H10749  10.144   8.921   7.560  1.7316  2.3784 -1.5405
  803MOL0     H10750  10.164   8.746   7.519  0.6198 -0.2974 -1.4288
  803MOL0     H10751  10.232   8.813   7.292  2.5243 -0.6448 -0.6716
  803MOL0     H10752  10.223   8.982   7.346 -0.2138  0.1744  2.1285
  803MOL0     H10753  10.380   8.908   7.546  1.9931 -1.1420  0.2037
  803MOL0     H10754  10.396   8.760   7.449 -1.2629 -1.0470 -1.3665
  803MOL0     H10755  10.591   8.933   7.421  0.0240 -1.1967 -0.4225
  803MOL0     H10756  10.462   9.041   7.353 -2.1513 -0.2613  2.3201
  803MOL0     H10757  10.583   8.776   7.266 -2.5616 -1.0879  1.4244
  803MOL0     H10758  10.444   8.842   7.172  0.1981  0.5917 -0.5256
  803MOL0     H10759  10.720   8.964   7.227  0.6676 -2.9691  1.0002
  803MOL0     H10760  10.585   9.035   7.129 -0.8130  0.0431  0.1696
  803MOL0     H10761  10.604   8.867   6.961  0.3263  1.2682 -0.7079
  803MOL0     H10762  10.751   8.954   6.987 -1.2185  0.3825 -1.0141
  803MOL0     H10763  10.951   8.795   7.142  0.5355 -0.4053 -0.5493
  803MOL0     H10764  11.058   8.464   7.061 -0.4847 -2.3180  0.9224
  803MOL0     H10765  10.966   8.408   7.193  0.5302  0.0583  1.3319
  803MOL0     H10766  11.118   8.661   7.217 -2.1155  0.0689  0.9596
  803MOL0     H10767  11.055   8.549   7.342 -1.0775  1.1698  0.3772
  803MOL0     H10768  11.299   8.503   7.332 -2.3001 -0.3225  0.5657
  803MOL0     H10769  11.231   8.374   7.238 -1.9118 -0.3045 -1.9671
  803MOL0     H10770  11.275   8.509   7.027 -2.0493  1.1421  0.0394
  803MOL0     H10771  11.353   8.631   7.125 -1.0299 -0.6419  0.0719
  803MOL0     H10772  11.547   8.670   7.069  1.1069 -2.8314 -4.0120
  803MOL0     H10773  11.885   8.795   7.147  0.1169  2.2709 -1.0139
  803MOL0     H10774  11.753   8.851   7.253 -0.5609 -0.1774  0.2423
  803MOL0     H10775  11.736   8.845   7.075  0.0315 -0.4762  0.3365
  803MOL0     H10776  12.279   8.535   7.183 -2.5027  0.0157  0.0107
  803MOL0     H10777  12.487   8.597   7.309  0.8061  1.4106  3.2782
  803MOL0     H10778  12.470   8.764   7.650 -0.8557 -1.5995 -1.8109
  803MOL0     H10779  12.460   8.611   7.742  0.5575 -4.1575 -2.2243
  803MOL0     H10780  12.656   8.711   7.810 -2.4194  1.0572 -0.4656
  803MOL0     H10781  12.716   8.601   7.684 -0.4587  0.1515 -1.4026
  803MOL0     H10782  12.666   8.807   7.528  1.0292  0.1116 -0.7018
  803MOL0     H10783  12.823   8.806   7.614 -0.8350 -2.2536 -0.6436
  803MOL0     H10784  12.705   8.941   7.802 -1.8975  2.3901  0.5958
  803MOL0     H10785  12.581   8.971   7.691 -0.1059 -0.9584  0.4337
  803MOL0     H10786  12.865   9.032   7.607 -0.1188 -0.6697 -0.6449
  803MOL0     H10787  12.713   9.095   7.536  1.2227 -2.6363 -0.6429
  803MOL0     H10788  12.831   9.164   7.809 -0.0850  2.5860  0.4770
  803MOL0     H10789  12.662   9.200   7.769  0.0735 -0.0065  1.4224
  803MOL0     H10790  12.787   9.395   7.738  0.9171 -0.1630  1.0049
  803MOL0     H10791  12.743   9.319   7.576  0.0742 -2.0273 -0.8604
  803MOL0     H10792  12.981   9.252   7.543  2.1082 -1.1014  0.5416
  803MOL0     H10793  13.003   9.258   7.715 -0.3865 -0.2613 -0.9341
  803MOL0     H10794  12.294   8.485   7.670 -0.3845 -0.7984 -0.2128
  803MOL0     H10795  12.075   8.439   7.551  1.1809 -0.8166 -0.3569
  803MOL0     H10796  11.825   8.336   7.298  0.8078  1.1508  0.1654
  803MOL0     H10797  11.620   8.271   7.210  0.0355  0.2857  3.3307
  803MOL0     H10798   9.752   8.838   7.291  4.7790 -2.3508  2.5979
  803MOL0     H10799   9.519   8.910   7.293  1.3291  0.8606 -1.1114
  803MOL0     H10800   9.218   8.863   7.426  1.3303  0.7539  1.1385
  803MOL0     H10801   8.991   8.797   7.357 -1.6162 -0.1270  0.2144
  803MOL0     H10802   8.842   8.899   7.193 -0.6443 -0.8578 -1.2723
  803MOL0     H10803   8.796   8.758   7.293  3.1254  0.3199 -1.5840
  803MOL0     H10804   8.624   8.823   7.100  3.1814  1.5831 -1.4247
  803MOL0     H10805   8.616   8.969   7.177  1.9472  0.2008 -1.3745
  803MOL0     H10806   8.544   8.691   7.288  1.0010 -0.2671  0.4674
  803MOL0     H10807   8.529   8.834   7.390  3.3565 -0.8068 -0.3821
  803MOL0     H10808   8.408   8.816   7.114 -1.0090  0.4245 -1.1366
  803MOL0     H10809   8.349   8.915   7.252  3.7203  0.6127  3.0864
  803MOL0     H10810   8.178   8.515   7.300  3.2700 -1.6412 -1.6510
  803MOL0     H10811   8.824   9.143   7.547  0.5973  0.0385  1.0325
  803MOL0     H10812   8.954   9.301   7.657 -0.2863  2.6335 -0.1386
  803MOL0     H10813   9.120   9.268   7.723  0.0381  4.1191 -1.4116
  803MOL0     H10814   9.088   9.331   7.562 -3.5369 -1.2055 -3.5972
  804MOL0     O10815  10.141   9.614   1.268  0.7048  0.1743  0.1040
  804MOL0     C10816  10.045   9.694   1.254 -0.3733  0.0696  0.1666
  804MOL0     O10817  10.068   9.836   1.246  0.6062  0.1572 -0.2991
  804MOL0     C10818  10.200   9.881   1.243  0.3591 -0.3259  0.5272
  804MOL0     C10819  10.247   9.968   1.333 -1.2320 -0.1276  0.1032
  804MOL0     C10820  10.384  10.006   1.341 -0.0798 -0.2474 -0.4885
  804MOL0     C10821  10.467   9.965   1.238 -0.0538  0.0255  0.0582
  804MOL0     O10822  10.603   9.989   1.228 -0.4614 -0.2587 -0.4010
  804MOL0     C10823  10.660  10.079   1.320 -0.0916 -0.9311 -0.3546
  804MOL0     C10824  10.810  10.110   1.293  0.7244 -0.0306 -0.5132
  804MOL0     C10825  10.871  10.216   1.396 -0.2126  0.6069 -0.1489
  804MOL0     C10826  11.017  10.233   1.364 -0.3091  0.0102 -0.2726
  804MOL0     C10827  11.075  10.344   1.464  0.2022 -0.0143  0.9269
  804MOL0     C10828  11.221  10.362   1.446 -0.1336  0.6665 -0.8590
  804MOL0     C10829  11.265  10.449   1.325  0.4288  0.1588  0.9689
  804MOL0     C10830  11.413  10.479   1.340 -0.1508 -0.7157  0.0625
  804MOL0     N10831  11.466  10.584   1.251  0.5162 -0.6565  0.2319
  804MOL0     C10832  11.478  10.720   1.287  0.3592  0.1902 -0.1547
  804MOL0     C10833  11.511  10.788   1.178 -0.8059  0.6854 -0.1418
  804MOL0     C10834  11.555  10.931   1.163 -1.2646 -0.0313  0.2241
  804MOL0     C10835  11.709  10.940   1.163  0.0745 -0.1895 -0.3035
  804MOL0     C10836  11.777  10.938   1.300 -0.3268 -0.1270  0.4490
  804MOL0     C10837  11.925  10.969   1.285 -0.4400  0.4432  0.7086
  804MOL0     O10838  11.992  10.972   1.409  0.0493 -0.2470  0.4720
  804MOL0     C10839  12.124  11.010   1.422 -0.1229 -0.0058  0.2162
  804MOL0     C10840  12.182  11.058   1.543  0.4462  0.3464  0.9858
  804MOL0     C10841  12.317  11.089   1.550  0.3788  0.2559 -0.0918
  804MOL0     C10842  12.367  11.099   1.687  0.3164 -0.8849 -0.1979
  804MOL0     C10843  12.397  11.087   1.436  1.0774  0.1101 -0.7463
  804MOL0     C10844  12.540  11.128   1.435 -0.3873  0.3142  1.1944
  804MOL0     O10845  12.597  11.113   1.308 -0.1629  0.0511 -0.2350
  804MOL0     C10846  12.721  11.156   1.266  1.1233 -1.1647 -0.0834
  804MOL0     C10847  12.728  11.183   1.128 -0.3610 -0.3414  0.6466
  804MOL0     C10848  12.841  11.235   1.072 -0.4618 -0.1916  0.3853
  804MOL0     C10849  12.955  11.264   1.155 -0.0477  0.8124  0.4223
  804MOL0     O10850  13.078  11.311   1.116 -0.0389  0.6075  0.3637
  804MOL0     C10851  13.089  11.401   1.005 -0.0340  0.5564 -1.1812
  804MOL0     C10852  13.182  11.338   0.901  1.0961 -0.6161  0.9509
  804MOL0     C10853  13.105  11.233   0.817  0.5573  0.4047  0.2006
  804MOL0     C10854  13.200  11.168   0.717 -0.0436 -0.4190  0.4377
  804MOL0     C10855  13.120  11.064   0.625 -0.6911 -0.2858 -0.1583
  804MOL0     C10856  13.212  10.995   0.511 -0.5266 -0.4077 -0.2245
  804MOL0     C10857  13.161  10.867   0.456 -0.2869 -0.0098  0.1690
  804MOL0     C10858  13.013  10.879   0.425  0.1291 -0.2785 -0.4496
  804MOL0    Cl10859  12.958  10.745   0.328 -0.1683  0.0161  0.0581
  804MOL0     C10860  12.948  11.229   1.302 -0.5165  0.7417  0.3844
  804MOL0     C10861  12.836  11.166   1.346 -0.1016  0.2061  0.1828
  804MOL0     O10862  12.594  11.161   1.535  0.0395  0.1828 -0.2373
  804MOL0     C10863  12.340  11.044   1.315  0.3767  0.4741  0.2169
  804MOL0     C10864  12.203  11.009   1.305  0.9933  0.2184  0.4548
  804MOL0     N10865  11.523  10.689   1.075 -0.0434 -0.3137 -0.8286
  804MOL0     N10866  11.487  10.576   1.113 -0.1796 -0.0426 -1.0096
  804MOL0     C10867  10.411   9.887   1.137 -0.4042  0.3847  0.2068
  804MOL0     C10868  10.284   9.842   1.137 -0.6751 -0.0020 -0.3303
  804MOL0     C10869   9.899   9.649   1.264  0.0116 -0.2529 -0.4993
  804MOL0     C10870   9.805   9.743   1.217 -0.2486  0.8086 -0.2413
  804MOL0     C10871   9.673   9.703   1.213 -0.2884 -0.4175  0.1294
  804MOL0     C10872   9.632   9.577   1.253  0.4698  0.6112 -0.2176
  804MOL0     O10873   9.504   9.541   1.247 -0.2788  0.6265  0.1410
  804MOL0     C10874   9.432   9.577   1.361  0.4603 -0.4639 -0.9359
  804MOL0     C10875   9.287   9.587   1.320  0.1917  0.4119  0.4893
  804MOL0     C10876   9.209   9.448   1.329  0.2109 -0.6122 -0.0237
  804MOL0     C10877   9.088   9.439   1.235  0.2899  0.2005  0.3716
  804MOL0     C10878   9.038   9.302   1.219 -0.2429  0.7754 -0.3364
  804MOL0     C10879   8.990   9.189   1.220  0.7519  0.0928 -0.0033
  804MOL0     C10880   9.726   9.480   1.284 -0.6124 -0.8339  0.2413
  804MOL0     C10881   9.858   9.515   1.292 -0.5891  1.1105 -0.4885
  804MOL0     C10882   9.941   9.411   1.354 -0.3505  0.1900  0.9251
  804MOL0     H10883  10.188  10.011   1.413  0.3645 -1.0455  1.8556
  804MOL0     H10884  10.407  10.062   1.431 -2.9038 -0.1406  0.2820
  804MOL0     H10885  10.652  10.030   1.418  1.9594 -3.1797 -1.2288
  804MOL0     H10886  10.601  10.171   1.320 -0.5275 -1.1949 -1.2437
  804MOL0     H10887  10.852  10.012   1.317  0.8637  0.1011 -0.2077
  804MOL0     H10888  10.828  10.128   1.187  2.5491 -1.9202 -0.5918
  804MOL0     H10889  10.823  10.314   1.398 -0.8800  0.2801  0.0984
  804MOL0     H10890  10.844  10.174   1.493 -1.6385  3.2423  0.7008
  804MOL0     H10891  11.072  10.140   1.381 -0.0182 -0.0734 -1.5196
  804MOL0     H10892  11.026  10.270   1.261  1.8863  3.4544  0.9617
  804MOL0     H10893  11.068  10.317   1.569 -0.2274 -0.1986  0.8521
  804MOL0     H10894  11.036  10.446   1.450  0.4426 -0.1902 -1.5740
  804MOL0     H10895  11.275  10.389   1.537  1.3693 -3.1258 -0.4621
  804MOL0     H10896  11.256  10.263   1.417  0.9964  0.4619  1.0136
  804MOL0     H10897  11.212  10.545   1.323  2.9544  1.7004  2.3024
  804MOL0     H10898  11.248  10.397   1.230  2.3427  1.2076 -0.0015
  804MOL0     H10899  11.432  10.518   1.441  1.2323  0.7332 -0.7176
  804MOL0     H10900  11.457  10.380   1.327  3.5828  0.5618  1.6261
  804MOL0     H10901  11.484  10.748   1.392  1.1463 -2.3929  0.5747
  804MOL0     H10902  11.515  11.005   1.233  3.0468  3.1236 -0.2374
  804MOL0     H10903  11.514  10.964   1.067 -0.6245  2.5620  0.7674
  804MOL0     H10904  11.750  10.853   1.111  1.1240 -0.8670  1.5728
  804MOL0     H10905  11.743  11.034   1.118  1.6873 -0.2261  0.7383
  804MOL0     H10906  11.727  11.009   1.366 -1.6729 -0.9118  0.3074
  804MOL0     H10907  11.775  10.839   1.347 -3.5385  0.5347  1.9764
  804MOL0     H10908  11.972  10.903   1.212 -1.4331 -1.3940  1.6236
  804MOL0     H10909  11.932  11.069   1.244 -0.2130  0.4915  0.8643
  804MOL0     H10910  12.107  11.044   1.621 -1.6160  0.2701 -0.8865
  804MOL0     H10911  12.289  11.068   1.758  1.2498 -0.4236  1.0792
  804MOL0     H10912  12.398  11.202   1.708 -2.7700 -0.2749  2.1573
  804MOL0     H10913  12.454  11.038   1.717  1.5527  1.3854  1.1232
  804MOL0     H10914  12.650  11.157   1.057 -0.7964 -2.2808  1.7596
  804MOL0     H10915  12.847  11.257   0.966  0.4341 -1.4830  0.1393
  804MOL0     H10916  12.992  11.430   0.965 -0.9199 -1.3918 -0.5631
  804MOL0     H10917  13.145  11.482   1.053  1.0144 -0.4476 -0.6593
  804MOL0     H10918  13.211  11.409   0.824  1.7833 -3.5130 -1.6801
  804MOL0     H10919  13.269  11.287   0.943  1.9872 -1.2063 -1.5040
  804MOL0     H10920  13.016  11.275   0.770 -0.7552 -2.0317  0.3634
  804MOL0     H10921  13.058  11.151   0.870  1.2789 -0.2734 -0.1823
  804MOL0     H10922  13.285  11.125   0.771  0.3857  0.1728  0.2418
  804MOL0     H10923  13.237  11.246   0.651  2.3768 -2.6109 -0.9918
  804MOL0     H10924  13.083  10.984   0.689 -2.1320 -1.9253 -2.8457
  804MOL0     H10925  13.032  11.120   0.594 -0.9945 -1.5241 -1.6458
  804MOL0     H10926  13.310  10.977   0.557 -1.5661 -1.0583  1.8400
  804MOL0     H10927  13.225  11.077   0.440 -1.5243  0.7371  0.8576
  804MOL0     H10928  13.180  10.786   0.527  2.3176  1.5963  1.4557
  804MOL0     H10929  13.203  10.847   0.357 -2.2200 -0.7152 -0.5493
  804MOL0     H10930  12.992  10.971   0.370  0.6278  0.5406  0.6760
  804MOL0     H10931  12.955  10.877   0.518 -0.1253  1.0808 -0.5517
  804MOL0     H10932  13.041  11.235   1.357  1.2930 -1.1662 -2.1928
  804MOL0     H10933  12.821  11.133   1.449 -0.9856 -0.8709 -0.2786
  804MOL0     H10934  12.398  11.050   1.223  0.0988 -0.9096 -0.0682
  804MOL0     H10935  12.158  10.991   1.208  2.2113  0.1243 -0.1194
  804MOL0     H10936  10.480   9.868   1.056 -0.8822  1.1194 -0.3794
  804MOL0     H10937  10.246   9.780   1.056  0.9039 -0.1756 -0.9874
  804MOL0     H10938   9.832   9.847   1.199 -0.4056  1.0768  0.9735
  804MOL0     H10939   9.597   9.774   1.183  0.1387 -0.2792 -0.6336
  804MOL0     H10940   9.437   9.511   1.448  0.9512 -0.2610 -0.8103
  804MOL0     H10941   9.456   9.677   1.398 -0.8616 -0.3951 -0.1768
  804MOL0     H10942   9.286   9.626   1.218  1.9300 -1.9556 -0.5298
  804MOL0     H10943   9.229   9.652   1.387  0.0229 -0.0128  0.7588
  804MOL0     H10944   9.287   9.376   1.306  1.7451  1.4940 -1.8256
  804MOL0     H10945   9.178   9.447   1.434  0.0447  4.3658  0.2178
  804MOL0     H10946   9.118   9.480   1.138  1.0130  1.1328  0.9795
  804MOL0     H10947   9.006   9.505   1.266 -3.2152 -1.5257 -3.9831
  804MOL0     H10948   8.940   9.094   1.214  0.0534  0.5309 -2.6385
  804MOL0     H10949   9.686   9.386   1.322  0.7640 -1.5379  0.0116
  804MOL0     H10950  10.026   9.395   1.287 -0.0456  1.4267  0.9792
  804MOL0     H10951   9.979   9.443   1.451  0.7179 -1.8849  1.2370
  804MOL0     H10952   9.889   9.315   1.361  3.9560 -2.3568  1.7324
  805MOL0     O10953  10.671   3.783   8.613 -0.1387  0.8295  0.4640
  805MOL0     C10954  10.587   3.773   8.531  0.6548  0.4699  0.2729
  805MOL0     O10955  10.603   3.760   8.396 -0.2648 -0.0335 -0.0938
  805MOL0     C10956  10.722   3.786   8.330  0.1534  0.0033  0.0075
  805MOL0     C10957  10.815   3.883   8.376 -0.0629  0.2749  1.0573
  805MOL0     C10958  10.932   3.902   8.296  0.6290  0.1138  0.5421
  805MOL0     C10959  10.960   3.836   8.181 -0.4710  0.2593  0.0961
  805MOL0     O10960  11.064   3.873   8.101  0.3169 -0.0954  0.0829
  805MOL0     C10961  11.191   3.883   8.169 -0.2670 -0.4241  0.8432
  805MOL0     C10962  11.285   3.949   8.067  0.1957  0.1253  0.0357
  805MOL0     C10963  11.434   3.919   8.105  0.6454  0.2214  0.2915
  805MOL0     C10964  11.531   3.979   8.002  0.0671  0.2854 -0.3087
  805MOL0     C10965  11.678   3.948   8.034  0.4689  0.0034  0.5521
  805MOL0     C10966  11.720   3.806   8.004  0.2911  0.2218 -0.1404
  805MOL0     C10967  11.874   3.775   8.022  0.7433 -0.5381 -0.4889
  805MOL0     C10968  11.967   3.824   7.916  0.1569  0.6203 -0.3917
  805MOL0     N10969  12.098   3.769   7.957 -0.7095 -0.4788  0.3037
  805MOL0     C10970  12.158   3.650   7.932  0.7837  0.1225 -0.3257
  805MOL0     C10971  12.277   3.653   7.991 -0.3858 -0.9445  0.1771
  805MOL0     C10972  12.377   3.545   8.001 -0.3005  0.0324 -0.3329
  805MOL0     C10973  12.523   3.588   7.984  0.0674 -0.1778  0.1188
  805MOL0     C10974  12.624   3.471   7.966 -0.5032  0.2004  0.3217
  805MOL0     C10975  12.734   3.507   7.862  0.2376  0.1269 -0.0782
  805MOL0     O10976  12.841   3.421   7.868 -0.6896  0.2707  0.2018
  805MOL0     C10977  12.950   3.448   7.785 -0.0615  0.4007  0.8097
  805MOL0     C10978  12.952   3.539   7.677  0.8145  0.5352  0.0125
  805MOL0     C10979  13.061   3.551   7.589  0.5607  0.1610 -0.0553
  805MOL0     C10980  13.037   3.660   7.485 -0.5902  0.2959  0.0922
  805MOL0     C10981  13.174   3.466   7.611  0.5099  0.4902  0.1309
  805MOL0     C10982  13.292   3.475   7.513  0.3821 -0.7294  0.4547
  805MOL0     O10983  13.387   3.380   7.536 -0.0508  0.3743 -0.2928
  805MOL0     C10984  13.510   3.403   7.484 -0.5907 -0.1494 -0.6176
  805MOL0     C10985  13.586   3.295   7.425  0.5079 -0.6502 -0.5885
  805MOL0     C10986  13.718   3.315   7.383 -0.0792  0.1771  0.1508
  805MOL0     C10987  13.784   3.431   7.393  0.3762  0.1037 -0.6026
  805MOL0     O10988  13.908   3.450   7.336 -0.0135  0.4040 -0.6652
  805MOL0     C10989  13.965   3.581   7.306  0.3105  0.3003  0.5254
  805MOL0     C10990  14.091   3.576   7.234 -0.7759 -0.2338 -0.3015
  805MOL0     C10991  14.163   3.705   7.252  0.3497 -0.4935 -0.0302
  805MOL0     C10992  14.258   3.719   7.134 -0.3425  0.4708  0.2342
  805MOL0     C10993  14.379   3.800   7.184  0.2667 -0.3213 -0.3226
  805MOL0     C10994  14.489   3.799   7.080 -0.0746  0.4596 -0.3736
  805MOL0     C10995  14.617   3.877   7.124  0.8071  0.3160 -0.4211
  805MOL0     C10996  14.738   3.885   7.030 -0.3608  0.3509 -0.0135
  805MOL0    Cl10997  14.678   3.964   6.883  0.0129 -0.1491 -0.4486
  805MOL0     C10998  13.715   3.542   7.451  0.4968 -0.2196 -0.1992
  805MOL0     C10999  13.579   3.522   7.500 -0.4089 -0.3543 -0.0909
  805MOL0     O11000  13.297   3.562   7.421  0.1795 -0.4268 -0.5118
  805MOL0     C11001  13.190   3.394   7.736 -0.1462  0.2480  0.3272
  805MOL0     C11002  13.071   3.382   7.813  0.8578  0.4794 -0.2182
  805MOL0     N11003  12.296   3.781   8.037  0.9248  0.7226 -0.2406
  805MOL0     N11004  12.186   3.846   8.025 -0.3580 -0.1870  0.6496
  805MOL0     C11005  10.867   3.744   8.140 -0.1710  0.3969  0.7655
  805MOL0     C11006  10.751   3.708   8.209 -0.8605 -0.7806 -0.4931
  805MOL0     C11007  10.445   3.768   8.574 -0.4902 -0.5230 -0.2042
  805MOL0     C11008  10.342   3.810   8.483  0.1863  0.6005 -0.3309
  805MOL0     C11009  10.210   3.813   8.525 -0.4407 -0.0569  0.0965
  805MOL0     C11010  10.176   3.780   8.655 -0.8856 -0.4387 -0.6088
  805MOL0     O11011  10.046   3.781   8.690  0.2927 -0.6487 -0.0902
  805MOL0     C11012   9.988   3.910   8.718 -0.8564 -0.4154 -0.3000
  805MOL0     C11013   9.863   3.894   8.808 -0.2325 -0.8614 -0.6735
  805MOL0     C11014   9.812   4.030   8.863  0.0732  0.5688 -0.1696
  805MOL0     C11015   9.887   4.083   8.992  0.0899 -0.8557  0.7852
  805MOL0     C11016   9.801   4.051   9.105  0.3818 -0.7396  0.4006
  805MOL0     C11017   9.732   4.035   9.206  0.0396  0.7015  0.7845
  805MOL0     C11018  10.270   3.735   8.742  0.1037  0.2572  0.5195
  805MOL0     C11019  10.407   3.730   8.704  0.6345 -0.4590  0.1311
  805MOL0     C11020  10.497   3.682   8.817  0.1727 -0.1635  0.7363
  805MOL0     H11021  10.794   3.948   8.461 -0.2319  1.2714  0.2762
  805MOL0     H11022  10.997   3.980   8.335 -1.3385  2.2395 -0.2106
  805MOL0     H11023  11.231   3.785   8.197 -1.2579 -0.3290  2.7935
  805MOL0     H11024  11.184   3.955   8.251 -2.7085 -0.8672  1.1083
  805MOL0     H11025  11.267   3.921   7.962 -2.3500 -2.0921  0.9414
  805MOL0     H11026  11.263   4.056   8.076 -0.5177  0.0894 -1.0348
  805MOL0     H11027  11.445   3.947   8.210 -2.3514 -0.6685  0.9286
  805MOL0     H11028  11.443   3.811   8.118 -1.9009  0.0344  1.0285
  805MOL0     H11029  11.509   3.935   7.904  2.3574 -3.0041  0.4672
  805MOL0     H11030  11.513   4.087   7.999  1.7825  0.6536  1.1226
  805MOL0     H11031  11.710   3.973   8.136 -1.9781  0.4589  1.2627
  805MOL0     H11032  11.738   4.009   7.966  2.5660  1.1602  3.2188
  805MOL0     H11033  11.668   3.743   8.078  3.3661 -0.7077  1.3713
  805MOL0     H11034  11.679   3.779   7.906 -2.1496 -0.8733  1.0818
  805MOL0     H11035  11.878   3.666   8.029  0.9057 -0.5565 -0.8601
  805MOL0     H11036  11.907   3.821   8.116  0.8147 -1.4272 -0.0720
  805MOL0     H11037  11.943   3.791   7.814 -0.6688  3.2378 -1.1368
  805MOL0     H11038  11.964   3.934   7.914 -0.0300  0.6340  0.3378
  805MOL0     H11039  12.096   3.576   7.882  0.8328  1.2164 -2.1027
  805MOL0     H11040  12.351   3.473   7.923  3.5847 -2.7529  0.6460
  805MOL0     H11041  12.348   3.485   8.088 -2.7609 -2.1872 -2.4988
  805MOL0     H11042  12.525   3.645   7.891 -0.7989  0.5383  0.5180
  805MOL0     H11043  12.536   3.658   8.067 -2.5330  0.5974 -0.0216
  805MOL0     H11044  12.665   3.460   8.067  0.2660 -1.2345 -0.1243
  805MOL0     H11045  12.580   3.375   7.940 -1.0910  1.0183 -1.8772
  805MOL0     H11046  12.691   3.509   7.762  3.1887 -3.3266 -1.6702
  805MOL0     H11047  12.763   3.609   7.891  0.2303  0.2844 -0.6072
  805MOL0     H11048  12.875   3.613   7.661 -0.3599 -0.6388  0.1164
  805MOL0     H11049  13.110   3.742   7.482  0.6759 -0.8090 -0.7233
  805MOL0     H11050  12.940   3.707   7.501 -1.0199 -1.0799  2.0139
  805MOL0     H11051  13.036   3.620   7.383  1.6851  0.4217 -0.0469
  805MOL0     H11052  13.537   3.199   7.409 -1.9563  0.3139  0.5265
  805MOL0     H11053  13.768   3.238   7.325  4.0977 -0.7508  4.4221
  805MOL0     H11054  13.906   3.645   7.239  2.0346 -0.7816 -2.1651
  805MOL0     H11055  13.978   3.627   7.405  0.2096  3.3139 -0.7427
  805MOL0     H11056  14.144   3.490   7.275 -1.3041 -0.1183  0.6405
  805MOL0     H11057  14.075   3.550   7.129 -4.5342  1.1907 -0.2086
  805MOL0     H11058  14.216   3.703   7.348  0.7468 -0.4545 -0.2479
  805MOL0     H11059  14.102   3.795   7.238  1.0724  0.0273  0.1201
  805MOL0     H11060  14.212   3.764   7.046 -0.3987  1.0451  0.5536
  805MOL0     H11061  14.287   3.616   7.108 -0.6166  0.7253 -1.1658
  805MOL0     H11062  14.349   3.905   7.199  0.7917 -0.2294  0.1264
  805MOL0     H11063  14.414   3.759   7.279  0.9165  0.2148 -0.3284
  805MOL0     H11064  14.451   3.847   6.989  0.6846  1.3593 -0.2305
  805MOL0     H11065  14.502   3.691   7.071 -1.0405  0.1132  1.8151
  805MOL0     H11066  14.661   3.825   7.209  3.6089  0.5276 -1.6277
  805MOL0     H11067  14.585   3.978   7.151  1.4872  1.0492 -2.1752
  805MOL0     H11068  14.782   3.788   7.003  2.2056  1.0904  1.2187
  805MOL0     H11069  14.823   3.941   7.069  1.5090 -1.7562 -0.8564
  805MOL0     H11070  13.765   3.639   7.456  0.1806 -0.0188 -0.8464
  805MOL0     H11071  13.529   3.608   7.544 -2.0908 -1.1484 -0.3744
  805MOL0     H11072  13.282   3.342   7.761  0.3611  0.9124 -0.1426
  805MOL0     H11073  13.083   3.325   7.905 -0.1051 -1.0249 -0.9856
  805MOL0     H11074  10.885   3.675   8.059  0.3903  1.3687  0.0529
  805MOL0     H11075  10.697   3.623   8.168  2.1487 -2.5523 -1.0796
  805MOL0     H11076  10.374   3.843   8.385 -0.5598 -0.0772 -0.8148
  805MOL0     H11077  10.135   3.855   8.458  0.1542  0.1601 -0.4471
  805MOL0     H11078  10.064   3.970   8.769 -0.3936 -2.2095  1.2464
  805MOL0     H11079   9.971   3.957   8.621  2.2860  1.4410 -0.0951
  805MOL0     H11080   9.881   3.833   8.896 -1.1427  0.0484  0.1749
  805MOL0     H11081   9.782   3.837   8.762 -2.6635 -0.0890  2.3186
  805MOL0     H11082   9.827   4.104   8.784 -1.3667  0.1614 -0.8596
  805MOL0     H11083   9.704   4.042   8.878 -0.5821  1.3657 -4.3278
  805MOL0     H11084   9.897   4.191   8.980  0.1626 -1.0827 -2.0665
  805MOL0     H11085   9.988   4.042   8.995  0.3374 -0.1876  1.9609
  805MOL0     H11086   9.670   4.030   9.294 -2.8235 -1.8138 -1.1503
  805MOL0     H11087  10.231   3.689   8.833 -2.0067 -1.5591 -1.2054
  805MOL0     H11088  10.547   3.764   8.870  0.3815 -0.3684  0.8596
  805MOL0     H11089  10.442   3.624   8.891  2.2043 -2.0029  0.9037
  805MOL0     H11090  10.570   3.617   8.768 -0.5915  1.2571 -2.5309
  806MOL0     O11091   4.564  10.225   5.681 -0.7341  1.1928 -0.0184
  806MOL0     C11092   4.559  10.147   5.777 -0.7668  0.4005  0.2640
  806MOL0     O11093   4.652  10.139   5.875  0.0332  0.4023 -0.3603
  806MOL0     C11094   4.768  10.211   5.851 -0.1901  0.6043  0.7115
  806MOL0     C11095   4.871  10.135   5.810 -0.2993 -0.3455 -0.2476
  806MOL0     C11096   4.995  10.204   5.788  0.3687  0.5009 -0.7933
  806MOL0     C11097   5.008  10.333   5.795  0.9588 -0.1186  0.1089
  806MOL0     O11098   5.129  10.389   5.763 -0.3393  0.1851 -0.0004
  806MOL0     C11099   5.149  10.528   5.790 -0.4613  0.9426 -0.2542
  806MOL0     C11100   5.309  10.547   5.792  1.4246 -0.0882  0.0110
  806MOL0     C11101   5.386  10.432   5.870 -0.7777  0.2782  0.2576
  806MOL0     C11102   5.540  10.472   5.846  0.5089 -0.2610 -0.3826
  806MOL0     C11103   5.631  10.384   5.929  0.1222  0.1391 -0.2440
  806MOL0     C11104   5.776  10.431   5.898 -0.2439  0.1162 -0.6227
  806MOL0     C11105   5.873  10.333   5.971  0.9630  0.0072  0.2132
  806MOL0     C11106   5.906  10.217   5.876  0.0100 -1.4192 -0.0435
  806MOL0     N11107   6.007  10.136   5.944 -0.1816 -0.4883  0.6777
  806MOL0     C11108   5.990  10.065   6.059 -0.6864 -0.5173 -0.1038
  806MOL0     C11109   6.100   9.994   6.089 -0.5808  0.1599 -0.1323
  806MOL0     C11110   6.122   9.922   6.221  0.2313  0.4324  0.4910
  806MOL0     C11111   6.269   9.930   6.277  0.2875  1.2616 -0.1030
  806MOL0     C11112   6.310   9.808   6.369  0.1268  0.5376 -1.1085
  806MOL0     C11113   6.446   9.835   6.435  0.7753  0.7252  0.8724
  806MOL0     O11114   6.440   9.948   6.524  0.7237 -0.6983 -0.0800
  806MOL0     C11115   6.554  10.009   6.576 -0.2268 -0.4139 -0.0664
  806MOL0     C11116   6.690   9.995   6.535  1.0125 -0.0345 -0.5571
  806MOL0     C11117   6.798  10.065   6.576  0.0961  0.0794 -0.4109
  806MOL0     C11118   6.939  10.030   6.532 -0.8784  0.2184  0.0209
  806MOL0     C11119   6.778  10.161   6.679 -0.4373  0.0657  0.5572
  806MOL0     C11120   6.881  10.252   6.731 -0.3802 -0.5115  0.5821
  806MOL0     O11121   6.952  10.322   6.632 -0.1570  0.1918  0.2617
  806MOL0     C11122   7.046  10.422   6.674 -0.1773 -0.2527 -0.2008
  806MOL0     C11123   7.151  10.399   6.762  0.2650  0.0511 -0.8182
  806MOL0     C11124   7.244  10.498   6.799 -0.4559 -0.3998 -0.5211
  806MOL0     C11125   7.237  10.622   6.739 -1.2621 -0.2156  0.0288
  806MOL0     O11126   7.339  10.716   6.759 -0.4376 -0.1503  0.0063
  806MOL0     C11127   7.330  10.848   6.695  0.5828  0.2454 -0.3279
  806MOL0     C11128   7.417  10.948   6.777  0.2640  0.1613 -0.0024
  806MOL0     C11129   7.335  11.028   6.879 -0.1101  0.7258 -0.0575
  806MOL0     C11130   7.419  11.115   6.972  0.1217 -0.3968  0.0132
  806MOL0     C11131   7.318  11.161   7.077 -0.6374  0.3011 -0.3335
  806MOL0     C11132   7.386  11.263   7.171  0.1009 -0.4177 -0.9794
  806MOL0     C11133   7.282  11.330   7.257 -0.3593 -0.1447  0.4694
  806MOL0     C11134   7.327  11.460   7.315 -0.2513 -0.3372  0.4438
  806MOL0    Cl11135   7.208  11.529   7.427  0.1340 -0.0178  0.1136
  806MOL0     C11136   7.138  10.639   6.647  0.5331 -0.5355 -0.3082
  806MOL0     C11137   7.045  10.546   6.606 -0.5106  0.0423  0.7132
  806MOL0     O11138   6.895  10.272   6.851 -0.2781  0.0680 -0.0720
  806MOL0     C11139   6.650  10.185   6.720 -0.0992  0.6338 -0.3604
  806MOL0     C11140   6.544  10.104   6.674 -0.0732 -0.9895  0.3936
  806MOL0     N11141   6.196  10.030   5.992  0.0313  0.9365 -0.5368
  806MOL0     N11142   6.138  10.114   5.912 -0.3018  0.0118 -0.0374
  806MOL0     C11143   4.898  10.411   5.828  0.0507  0.4581 -0.1030
  806MOL0     C11144   4.781  10.350   5.860 -0.0305  0.1692  0.7513
  806MOL0     C11145   4.434  10.072   5.782  0.2227  0.2471  0.2097
  806MOL0     C11146   4.310  10.133   5.786 -1.0187  0.3585  0.1133
  806MOL0     C11147   4.190  10.070   5.805  0.2816  0.1989  0.6379
  806MOL0     C11148   4.173   9.931   5.809 -0.4604 -0.1016 -0.3116
  806MOL0     O11149   4.054   9.880   5.845  0.4179  0.1063  0.1492
  806MOL0     C11150   4.056   9.736   5.848  0.5447 -0.6309  0.3411
  806MOL0     C11151   3.928   9.687   5.903 -0.4464  0.3980 -0.0830
  806MOL0     C11152   3.839   9.663   5.784 -0.0229 -0.3119  0.6725
  806MOL0     C11153   3.703   9.628   5.840 -0.1239 -0.4024  0.3749
  806MOL0     C11154   3.617   9.747   5.870 -0.1922  0.3605  0.5940
  806MOL0     C11155   3.552   9.840   5.899 -0.4766 -0.3295 -0.7397
  806MOL0     C11156   4.296   9.859   5.804  0.1102  0.4430  0.1876
  806MOL0     C11157   4.423   9.928   5.779  0.4327  0.4552 -0.5335
  806MOL0     C11158   4.547   9.847   5.786 -0.0369  0.1846  0.0834
  806MOL0     H11159   4.866  10.027   5.801 -0.0738 -0.4791  1.0732
  806MOL0     H11160   5.080  10.143   5.759 -1.4103 -1.4399 -2.1956
  806MOL0     H11161   5.111  10.549   5.890  1.1795  0.2899  0.5510
  806MOL0     H11162   5.103  10.597   5.718  1.0036  0.8606 -1.3148
  806MOL0     H11163   5.336  10.569   5.688 -0.4949  0.7633 -0.3515
  806MOL0     H11164   5.327  10.641   5.844 -0.8253 -0.1871  1.0773
  806MOL0     H11165   5.365  10.434   5.977  0.5956 -3.4441  0.7334
  806MOL0     H11166   5.365  10.330   5.838  0.3078 -0.0641  0.5993
  806MOL0     H11167   5.575  10.456   5.743  0.0733  0.7151 -0.6993
  806MOL0     H11168   5.554  10.578   5.869  0.0489 -0.2395 -0.1874
  806MOL0     H11169   5.606  10.283   5.894 -3.7197  1.2101 -1.1099
  806MOL0     H11170   5.619  10.402   6.036 -0.9289  1.5148 -0.5640
  806MOL0     H11171   5.804  10.443   5.793  1.6974  0.2254 -0.1301
  806MOL0     H11172   5.763  10.529   5.945  0.7544  0.7604 -1.6319
  806MOL0     H11173   5.834  10.305   6.069 -2.0369  1.7819 -0.3470
  806MOL0     H11174   5.961  10.396   5.982  1.1772 -0.5314  1.7925
  806MOL0     H11175   5.819  10.155   5.851  0.5350 -1.2018 -2.7449
  806MOL0     H11176   5.947  10.254   5.782  0.7086 -3.3354 -0.5310
  806MOL0     H11177   5.908  10.068   6.130 -0.2821  2.8086  0.3503
  806MOL0     H11178   6.078   9.822   6.210  0.5073  0.2923  0.6550
  806MOL0     H11179   6.050   9.960   6.294 -1.2942 -1.1446 -0.1078
  806MOL0     H11180   6.346   9.925   6.199 -1.4922 -1.8874 -1.9108
  806MOL0     H11181   6.291  10.025   6.326  0.3592  2.0560 -1.6138
  806MOL0     H11182   6.240   9.794   6.451 -0.1324  1.3873 -1.1768
  806MOL0     H11183   6.313   9.715   6.311 -1.5354 -1.4070  1.6985
  806MOL0     H11184   6.469   9.745   6.493 -1.9573  0.2613  1.3658
  806MOL0     H11185   6.526   9.849   6.361 -0.3127  2.2282 -0.0707
  806MOL0     H11186   6.709   9.917   6.462 -3.2994 -0.4537 -1.4531
  806MOL0     H11187   6.974  10.114   6.471 -0.6689 -0.2291 -0.4882
  806MOL0     H11188   6.944   9.939   6.472 -1.8912  0.6352 -0.7208
  806MOL0     H11189   7.014  10.013   6.610 -0.2759 -0.5287 -0.7090
  806MOL0     H11190   7.165  10.301   6.805  0.8316  0.2424 -0.5522
  806MOL0     H11191   7.323  10.480   6.872 -0.8584 -0.4158 -0.0858
  806MOL0     H11192   7.356  10.841   6.589 -4.3598  0.9567 -1.8440
  806MOL0     H11193   7.228  10.887   6.696  1.5735  3.2579 -2.0679
  806MOL0     H11194   7.497  10.898   6.832 -2.1570 -0.7487  3.0343
  806MOL0     H11195   7.455  11.025   6.710  1.2023  0.5016  0.8960
  806MOL0     H11196   7.263  10.963   6.930 -1.1446  2.0177  0.1847
  806MOL0     H11197   7.277  11.101   6.821 -0.4399  2.0846  1.8741
  806MOL0     H11198   7.471  11.196   6.921  0.3852 -0.9305 -0.5666
  806MOL0     H11199   7.500  11.062   7.023  0.8542  0.3726 -0.3270
  806MOL0     H11200   7.233  11.209   7.029 -1.9227 -0.4414  1.1368
  806MOL0     H11201   7.291  11.074   7.139  1.3692  0.6923  1.2109
  806MOL0     H11202   7.452  11.333   7.120 -0.6292  1.6334  0.7659
  806MOL0     H11203   7.458  11.217   7.240 -0.4983  2.8958  2.1476
  806MOL0     H11204   7.253  11.261   7.337  3.1410 -3.4048 -0.8018
  806MOL0     H11205   7.188  11.346   7.204 -2.4231 -1.6901  3.3351
  806MOL0     H11206   7.323  11.534   7.235 -3.6961 -0.0245  0.7289
  806MOL0     H11207   7.429  11.460   7.353 -0.9375  1.1054  2.4874
  806MOL0     H11208   7.135  10.729   6.586 -4.6426 -0.1663  0.0488
  806MOL0     H11209   6.974  10.557   6.525  2.0578  2.7453 -1.4080
  806MOL0     H11210   6.638  10.243   6.811 -0.7096 -0.2989  0.1634
  806MOL0     H11211   6.441  10.117   6.706 -1.0864 -5.5339 -0.3627
  806MOL0     H11212   4.909  10.519   5.823 -1.2749  0.7341  1.6458
  806MOL0     H11213   4.693  10.408   5.888 -0.4904 -0.8608  1.4929
  806MOL0     H11214   4.314  10.241   5.778 -1.5108  0.4163  0.5592
  806MOL0     H11215   4.103  10.134   5.814  0.7215  0.9035 -0.0410
  806MOL0     H11216   4.065   9.685   5.752 -1.9581  0.6897 -0.6806
  806MOL0     H11217   4.124   9.691   5.922  4.5861  0.5055 -2.3567
  806MOL0     H11218   3.889   9.768   5.965 -1.2517 -0.2159  0.2256
  806MOL0     H11219   3.936   9.595   5.961 -0.1026 -0.5856 -1.6258
  806MOL0     H11220   3.834   9.751   5.719 -1.5267 -1.1683 -0.4641
  806MOL0     H11221   3.868   9.582   5.716  1.7178  0.8310 -0.0016
  806MOL0     H11222   3.701   9.560   5.925  0.7425 -1.8524 -0.7207
  806MOL0     H11223   3.653   9.569   5.762  2.1150  0.0725 -1.5341
  806MOL0     H11224   3.485   9.920   5.922 -0.4895 -0.7968  1.0561
  806MOL0     H11225   4.292   9.752   5.823 -1.0451  0.6082  1.0061
  806MOL0     H11226   4.621   9.902   5.728  2.2193 -1.4046  1.3030
  806MOL0     H11227   4.586   9.838   5.888  2.2076  0.6770 -0.6837
  806MOL0     H11228   4.534   9.742   5.756 -0.5710  0.7927 -1.9611
  807MOL0     O11229   7.777   2.723   2.509 -0.7300  0.3850 -0.0336
  807MOL0     C11230   7.696   2.671   2.582  0.6828  0.9052  0.3941
  807MOL0     O11231   7.724   2.614   2.708 -0.0513 -0.1890  0.3790
  807MOL0     C11232   7.838   2.658   2.768  0.8854 -0.2952  0.2374
  807MOL0     C11233   7.946   2.574   2.776 -1.2236 -0.0662  1.2976
  807MOL0     C11234   8.066   2.610   2.833  0.4605 -0.2632 -0.3826
  807MOL0     C11235   8.090   2.746   2.864 -0.5202  0.2607 -0.3940
  807MOL0     O11236   8.220   2.780   2.906 -0.4401 -0.0747 -0.4789
  807MOL0     C11237   8.230   2.806   3.048  0.2553 -0.1880  0.4448
  807MOL0     C11238   8.362   2.767   3.100 -0.2907 -0.3056  0.0153
  807MOL0     C11239   8.471   2.825   3.012  0.8407  1.0704  0.2400
  807MOL0     C11240   8.613   2.781   3.058  0.4500  0.7884 -0.4249
  807MOL0     C11241   8.719   2.870   2.998 -0.0307  0.1365 -0.8107
  807MOL0     C11242   8.704   2.900   2.850 -0.5271  0.2669  0.0515
  807MOL0     C11243   8.707   2.776   2.763 -0.5457  0.3517  1.4946
  807MOL0     C11244   8.754   2.800   2.621  0.2009 -0.2958 -0.3012
  807MOL0     N11245   8.890   2.823   2.599 -0.6609 -0.4333 -0.3325
  807MOL0     C11246   8.947   2.947   2.586  1.0926 -0.0165  0.1504
  807MOL0     C11247   9.075   2.924   2.573 -0.6725  0.4713 -0.6634
  807MOL0     C11248   9.185   3.019   2.548 -1.0915 -0.0653  0.8583
  807MOL0     C11249   9.305   2.995   2.641  0.2903 -0.1786  0.8767
  807MOL0     C11250   9.407   2.904   2.563  0.7480 -0.1741 -0.1436
  807MOL0     C11251   9.502   2.834   2.663 -0.2519 -0.0936 -0.1285
  807MOL0     O11252   9.597   2.915   2.728 -0.3243 -0.3097  0.4498
  807MOL0     C11253   9.716   2.936   2.655  0.4086  0.2717 -0.0282
  807MOL0     C11254   9.818   2.978   2.726  0.6120 -0.0501 -0.4545
  807MOL0     C11255   9.946   2.999   2.677 -0.4139 -0.1196  0.7098
  807MOL0     C11256  10.045   3.030   2.784  0.0294 -0.2893 -1.4159
  807MOL0     C11257   9.982   2.969   2.542  0.2227  0.0890  0.8134
  807MOL0     C11258  10.115   2.982   2.473  0.0409  0.3697  0.1019
  807MOL0     O11259  10.214   3.054   2.535  0.0362  0.5532  0.4401
  807MOL0     C11260  10.352   3.052   2.504  0.0877 -0.2095  0.4182
  807MOL0     C11261  10.419   2.945   2.442  0.4233 -0.1914 -0.1875
  807MOL0     C11262  10.561   2.934   2.438  0.4139  0.1912 -0.6337
  807MOL0     C11263  10.630   3.046   2.485 -0.1398 -0.1177  1.1801
  807MOL0     O11264  10.767   3.059   2.492 -0.2033  0.3859 -0.0819
  807MOL0     C11265  10.843   2.930   2.474 -0.8115  0.6971 -0.0521
  807MOL0     C11266  10.983   2.961   2.545  0.4945 -1.1797  0.0802
  807MOL0     C11267  10.969   3.001   2.696 -0.2444  0.1573  0.4164
  807MOL0     C11268  11.097   3.066   2.752  0.8320 -0.7159 -0.1221
  807MOL0     C11269  11.089   3.058   2.899 -0.8253 -0.1234 -0.6453
  807MOL0     C11270  11.230   3.068   2.976 -1.0414  0.0304  0.4668
  807MOL0     C11271  11.310   3.188   2.916 -0.3483 -0.5029  0.0375
  807MOL0     C11272  11.426   3.242   3.000  0.3426  0.2696 -0.1807
  807MOL0    Cl11273  11.500   3.113   3.100 -0.0980 -0.4139 -0.3161
  807MOL0     C11274  10.565   3.158   2.531 -0.4784 -0.3149 -0.6282
  807MOL0     C11275  10.429   3.165   2.544  0.3425  0.4996  0.8134
  807MOL0     O11276  10.136   2.915   2.375  0.1025 -0.4426  0.4704
  807MOL0     C11277   9.869   2.932   2.459 -0.0196  0.3141  1.3316
  807MOL0     C11278   9.737   2.917   2.513 -0.0012 -0.1575 -0.3180
  807MOL0     N11279   9.100   2.783   2.585  0.4295 -0.3231 -1.2035
  807MOL0     N11280   8.987   2.725   2.601  0.3990 -0.1061  0.1491
  807MOL0     C11281   7.986   2.843   2.850 -0.2683 -0.4186  0.7627
  807MOL0     C11282   7.856   2.794   2.802 -0.2231 -0.0090  0.5850
  807MOL0     C11283   7.560   2.667   2.534 -0.1852  0.1278  0.0383
  807MOL0     C11284   7.529   2.676   2.398 -0.0493  0.9849  0.3157
  807MOL0     C11285   7.401   2.667   2.336  0.5317 -0.3882 -0.0895
  807MOL0     C11286   7.293   2.644   2.423  0.0369  0.1016  0.1047
  807MOL0     O11287   7.161   2.632   2.378 -0.3927 -0.9268 -0.3165
  807MOL0     C11288   7.140   2.574   2.245  0.4200 -0.3523  0.0237
  807MOL0     C11289   7.163   2.420   2.255  0.7753  0.1332  1.0185
  807MOL0     C11290   7.092   2.341   2.147 -0.0546  0.3802 -0.0421
  807MOL0     C11291   7.069   2.190   2.184  0.2102  0.2401 -0.5259
  807MOL0     C11292   6.971   2.184   2.291  0.1660  0.3940 -1.0077
  807MOL0     C11293   6.891   2.180   2.380  0.0028 -0.4774 -0.0384
  807MOL0     C11294   7.315   2.636   2.560 -0.2023 -0.4228 -0.3777
  807MOL0     C11295   7.444   2.650   2.621 -0.5587  0.8099 -0.2671
  807MOL0     C11296   7.446   2.596   2.772 -0.4190 -0.2332 -0.0378
  807MOL0     H11297   7.947   2.470   2.742 -1.9413  0.6828 -1.2375
  807MOL0     H11298   8.153   2.548   2.813  0.1213 -0.3579 -1.5923
  807MOL0     H11299   8.149   2.755   3.101 -0.8645  0.1305 -0.8939
  807MOL0     H11300   8.210   2.911   3.071  1.0349  0.1131 -0.1856
  807MOL0     H11301   8.368   2.805   3.202  1.0399  2.1567 -0.8812
  807MOL0     H11302   8.367   2.658   3.100 -1.7952 -0.5323 -3.6709
  807MOL0     H11303   8.453   2.786   2.912 -0.1092 -1.9326  1.4509
  807MOL0     H11304   8.461   2.933   3.017 -0.0627  1.1291 -1.9351
  807MOL0     H11305   8.601   2.798   3.165 -0.9025  1.0050 -0.5985
  807MOL0     H11306   8.628   2.677   3.025 -1.3737 -0.3359  2.0093
  807MOL0     H11307   8.814   2.825   3.031 -1.8669 -2.2911  1.6469
  807MOL0     H11308   8.708   2.970   3.041 -0.0092  0.3647 -1.3364
  807MOL0     H11309   8.612   2.957   2.833 -0.6251 -0.3202 -1.6187
  807MOL0     H11310   8.792   2.957   2.820  2.0659 -2.0078  2.7068
  807MOL0     H11311   8.604   2.740   2.762 -0.0737 -1.0728  1.0136
  807MOL0     H11312   8.774   2.699   2.804 -1.4804 -0.6439  1.1891
  807MOL0     H11313   8.741   2.707   2.565 -1.4402 -0.6044  0.5402
  807MOL0     H11314   8.690   2.879   2.579 -0.7445 -0.7994  0.1545
  807MOL0     H11315   8.904   3.046   2.583  0.6095 -0.1961  1.0564
  807MOL0     H11316   9.142   3.119   2.559  0.3400  1.1564 -3.0283
  807MOL0     H11317   9.214   3.039   2.445 -1.7935  2.7777  1.1403
  807MOL0     H11318   9.353   3.091   2.658  1.6968 -1.1894  2.9907
  807MOL0     H11319   9.281   2.951   2.738 -1.6389  0.6605  0.8326
  807MOL0     H11320   9.355   2.823   2.512 -0.9187 -0.6096  2.1159
  807MOL0     H11321   9.453   2.970   2.488 -1.2782  0.1886 -1.1387
  807MOL0     H11322   9.432   2.784   2.731 -0.9230 -1.0342 -1.4781
  807MOL0     H11323   9.550   2.750   2.612 -0.6640  0.4916 -1.5233
  807MOL0     H11324   9.806   2.996   2.832 -5.2922  1.8185 -1.0357
  807MOL0     H11325   9.999   3.083   2.868 -0.7424  3.9584 -4.2318
  807MOL0     H11326  10.122   3.105   2.762  0.5961  0.8067  3.1959
  807MOL0     H11327  10.105   2.945   2.818  1.3250  0.7480 -0.9728
  807MOL0     H11328  10.366   2.869   2.386  1.1258  0.9784 -2.5833
  807MOL0     H11329  10.608   2.843   2.403 -0.9544 -1.0988  0.7677
  807MOL0     H11330  10.796   2.843   2.521  1.1185 -0.4859 -0.2229
  807MOL0     H11331  10.858   2.908   2.368  1.8596  0.5743  0.2836
  807MOL0     H11332  11.045   2.871   2.529  0.5239 -0.8850 -1.7426
  807MOL0     H11333  11.030   3.045   2.494 -1.8529  0.5439  0.6034
  807MOL0     H11334  10.956   2.900   2.737 -0.1573 -0.0245  0.0073
  807MOL0     H11335  10.886   3.067   2.724  0.7393  1.9805 -0.7899
  807MOL0     H11336  11.091   3.172   2.723  2.2429 -0.8140 -0.8646
  807MOL0     H11337  11.185   3.015   2.712 -0.0166 -1.2852 -1.2904
  807MOL0     H11338  11.020   3.129   2.944  1.3485  1.0328  1.0654
  807MOL0     H11339  11.058   2.956   2.924  0.1446 -1.0259 -2.8864
  807MOL0     H11340  11.287   2.977   2.956  1.3248  1.8161 -1.3752
  807MOL0     H11341  11.231   3.070   3.086 -1.4051 -0.6377  0.4893
  807MOL0     H11342  11.237   3.267   2.895 -0.4994 -1.1950 -2.3987
  807MOL0     H11343  11.347   3.155   2.818  0.9264 -0.3625  0.4648
  807MOL0     H11344  11.394   3.326   3.062  0.7021 -0.0816  0.5049
  807MOL0     H11345  11.505   3.274   2.932 -0.7084 -1.4211 -2.3076
  807MOL0     H11346  10.621   3.247   2.558 -0.9174  0.0853 -1.0119
  807MOL0     H11347  10.366   3.246   2.577 -2.6827 -1.4838  0.3098
  807MOL0     H11348   9.887   2.891   2.361  0.0569  1.6879  0.7418
  807MOL0     H11349   9.662   2.882   2.443 -0.0410  0.8939 -0.8241
  807MOL0     H11350   8.001   2.945   2.883  1.0445 -0.9927  2.0788
  807MOL0     H11351   7.771   2.859   2.786 -2.2934 -2.7630 -0.5328
  807MOL0     H11352   7.616   2.678   2.333 -0.0179 -3.7683 -0.1379
  807MOL0     H11353   7.396   2.677   2.228 -0.0426 -2.2603 -0.2606
  807MOL0     H11354   7.043   2.602   2.203  0.5917 -0.4995 -0.4816
  807MOL0     H11355   7.207   2.616   2.169 -0.5937  0.0523 -0.6718
  807MOL0     H11356   7.119   2.389   2.351  0.8824 -0.8171  0.7666
  807MOL0     H11357   7.268   2.393   2.249  0.5208 -0.6578 -4.7474
  807MOL0     H11358   6.990   2.378   2.128 -0.6365 -0.4785  1.2758
  807MOL0     H11359   7.141   2.365   2.052  2.0080 -0.1338  0.8557
  807MOL0     H11360   7.164   2.150   2.219 -0.0514 -1.2712 -1.4345
  807MOL0     H11361   7.035   2.135   2.096 -2.2876  0.3397  0.2928
  807MOL0     H11362   6.821   2.186   2.461  0.0409  0.5647 -0.0674
  807MOL0     H11363   7.231   2.613   2.626  0.8690 -0.6210  0.9548
  807MOL0     H11364   7.343   2.570   2.798 -0.5527 -1.7961 -1.9348
  807MOL0     H11365   7.510   2.507   2.767  2.5307  1.8184 -1.1181
  807MOL0     H11366   7.492   2.668   2.840  2.1928  0.2545 -2.1555
  808MOL0     O11367   6.121   7.561   5.538  0.0811 -0.6741 -0.6320
  808MOL0     C11368   6.092   7.442   5.545 -0.5097 -0.2943  0.1409
  808MOL0     O11369   6.174   7.335   5.495  0.4220  0.3591  0.2974
  808MOL0     C11370   6.281   7.357   5.408  0.3957 -0.1928 -0.3827
  808MOL0     C11371   6.306   7.457   5.317 -0.4479  0.4039  0.4028
  808MOL0     C11372   6.424   7.472   5.239  0.4737  0.2195 -0.1469
  808MOL0     C11373   6.523   7.373   5.256 -0.1131 -0.7936  0.1421
  808MOL0     O11374   6.643   7.374   5.190  0.2078 -0.7804  0.0583
  808MOL0     C11375   6.686   7.476   5.102  0.5431  0.4327 -0.5468
  808MOL0     C11376   6.810   7.438   5.029 -0.6180 -0.6175 -0.3755
  808MOL0     C11377   6.840   7.533   4.912 -0.7239 -0.3184  1.2407
  808MOL0     C11378   6.921   7.664   4.957  0.2334  0.8136 -0.1869
  808MOL0     C11379   6.991   7.747   4.848  0.7067 -0.4465 -1.0310
  808MOL0     C11380   6.899   7.845   4.768  0.6580  0.0503  0.3055
  808MOL0     C11381   6.756   7.803   4.738 -0.6500  0.2385 -0.2868
  808MOL0     C11382   6.754   7.694   4.627 -0.7511 -0.1297  0.7385
  808MOL0     N11383   6.665   7.753   4.517 -0.2606  0.9562 -0.3703
  808MOL0     C11384   6.530   7.716   4.496  0.1845 -0.5339  0.2213
  808MOL0     C11385   6.496   7.774   4.380 -1.1885 -1.0351 -0.2413
  808MOL0     C11386   6.367   7.781   4.317 -0.4636  0.0731  0.6134
  808MOL0     C11387   6.269   7.660   4.349 -0.6343  0.1051 -0.4409
  808MOL0     C11388   6.138   7.677   4.275 -0.0049 -0.4051  0.1940
  808MOL0     C11389   6.034   7.566   4.288  0.0070 -0.2968  0.3977
  808MOL0     O11390   6.040   7.525   4.424  0.4392 -0.2240  0.0014
  808MOL0     C11391   5.969   7.418   4.451 -0.1076  0.3497 -0.1770
  808MOL0     C11392   5.978   7.387   4.587 -0.3476  0.7526 -0.3930
  808MOL0     C11393   5.889   7.295   4.650  0.9181 -0.1604 -0.4441
  808MOL0     C11394   5.889   7.272   4.806 -0.0980 -0.3254  0.0979
  808MOL0     C11395   5.789   7.231   4.564  0.4592  0.6287 -0.3284
  808MOL0     C11396   5.677   7.139   4.612  0.7000 -0.4811  0.5208
  808MOL0     O11397   5.612   7.059   4.526 -0.1886 -0.4957  0.0586
  808MOL0     C11398   5.499   6.993   4.572  0.1262  0.0457  0.4757
  808MOL0     C11399   5.501   6.858   4.623  0.4293 -0.4968  0.5548
  808MOL0     C11400   5.388   6.802   4.674 -0.3829  0.3955 -0.8830
  808MOL0     C11401   5.267   6.853   4.671  0.4564 -0.0864  0.4397
  808MOL0     O11402   5.158   6.772   4.701 -0.1506  0.3236  0.4408
  808MOL0     C11403   5.026   6.782   4.643  0.3819 -0.5199 -0.1054
  808MOL0     C11404   4.935   6.664   4.672 -0.4840  0.8875 -0.0709
  808MOL0     C11405   4.789   6.704   4.645 -0.7800 -0.4210 -0.7013
  808MOL0     C11406   4.694   6.596   4.690  0.1759  0.8472 -1.1889
  808MOL0     C11407   4.656   6.592   4.843 -0.0467  0.0702 -0.1616
  808MOL0     C11408   4.546   6.491   4.866 -1.1975  0.0243 -0.2105
  808MOL0     C11409   4.481   6.499   5.003 -0.2871 -0.2139  0.2674
  808MOL0     C11410   4.366   6.398   5.011 -0.4072 -0.3564 -0.3876
  808MOL0    Cl11411   4.224   6.427   4.918 -0.1628  0.3225  0.1506
  808MOL0     C11412   5.257   6.988   4.611 -0.6378 -0.1125  0.6123
  808MOL0     C11413   5.373   7.055   4.569  0.5173  0.3012 -0.9797
  808MOL0     O11414   5.642   7.142   4.735 -0.0727  0.3709  0.6587
  808MOL0     C11415   5.795   7.253   4.428 -0.0889 -0.2803 -0.2082
  808MOL0     C11416   5.880   7.350   4.367 -0.6525  0.2697  0.2222
  808MOL0     N11417   6.610   7.838   4.337  0.3843 -0.5625 -0.7759
  808MOL0     N11418   6.711   7.809   4.409 -0.5283  0.3748  0.0772
  808MOL0     C11419   6.489   7.257   5.326 -0.0389 -0.3238  0.7702
  808MOL0     C11420   6.368   7.248   5.405 -0.1995 -0.0614  0.3139
  808MOL0     C11421   5.983   7.408   5.634  1.1427  0.3936  1.0624
  808MOL0     C11422   5.931   7.281   5.622  0.1582 -0.8097  0.7147
  808MOL0     C11423   5.833   7.228   5.702  0.8473  0.9095  0.2349
  808MOL0     C11424   5.785   7.299   5.818 -0.5747  0.2485  0.9827
  808MOL0     O11425   5.691   7.254   5.902  0.3187 -0.3829 -0.5224
  808MOL0     C11426   5.587   7.169   5.847  0.3936  0.0768  0.1166
  808MOL0     C11427   5.457   7.166   5.935  0.1941 -0.1636 -0.0280
  808MOL0     C11428   5.491   7.164   6.089  0.0429 -0.1915  0.2118
  808MOL0     C11429   5.371   7.113   6.169  0.2549 -0.3231 -0.2811
  808MOL0     C11430   5.401   7.027   6.278 -0.4754  0.0271 -0.5212
  808MOL0     C11431   5.431   6.956   6.369  0.1492  0.4241 -0.2070
  808MOL0     C11432   5.823   7.426   5.829 -0.1042 -0.3421 -0.1851
  808MOL0     C11433   5.919   7.483   5.738 -0.3541 -0.1309 -1.2463
  808MOL0     C11434   5.956   7.620   5.761  0.5066 -0.1504 -0.2644
  808MOL0     H11435   6.238   7.541   5.305  0.2608  1.0197  0.5793
  808MOL0     H11436   6.428   7.557   5.171 -2.5957 -1.8340 -3.2047
  808MOL0     H11437   6.697   7.577   5.142 -0.1522  0.3541 -0.1323
  808MOL0     H11438   6.607   7.477   5.026 -0.7961  0.1876  0.7865
  808MOL0     H11439   6.898   7.439   5.093  1.3484 -1.1381 -2.8774
  808MOL0     H11440   6.802   7.341   4.978  1.4633  0.3343 -2.7089
  808MOL0     H11441   6.895   7.479   4.834 -0.9188 -0.0051  0.8865
  808MOL0     H11442   6.744   7.562   4.868 -0.4998  4.9661  3.4873
  808MOL0     H11443   6.856   7.730   5.015 -0.8312  1.9987 -2.5887
  808MOL0     H11444   7.004   7.621   5.014  1.0446  1.2196 -1.0350
  808MOL0     H11445   7.027   7.673   4.776 -1.2970 -0.0907 -2.4737
  808MOL0     H11446   7.073   7.810   4.884 -1.1899  1.7646 -0.3406
  808MOL0     H11447   6.885   7.925   4.841  1.5927 -1.0098  1.7101
  808MOL0     H11448   6.955   7.883   4.681  0.1940 -0.8303 -0.3857
  808MOL0     H11449   6.681   7.879   4.715 -2.4941 -1.4830 -0.1750
  808MOL0     H11450   6.714   7.756   4.827  3.0662 -1.2322  0.8997
  808MOL0     H11451   6.854   7.682   4.584 -1.0003 -0.1916  0.1573
  808MOL0     H11452   6.713   7.599   4.663  0.0768 -0.2482  1.3721
  808MOL0     H11453   6.466   7.649   4.552  0.0714 -0.4542  0.1879
  808MOL0     H11454   6.391   7.792   4.211  3.4085  3.4408  1.5928
  808MOL0     H11455   6.322   7.878   4.338 -1.7250  0.1186 -1.9685
  808MOL0     H11456   6.319   7.565   4.328  2.5941  1.5958 -0.2137
  808MOL0     H11457   6.238   7.667   4.453 -0.8065  2.0309 -0.5927
  808MOL0     H11458   6.085   7.766   4.311  0.2977 -0.4093  0.6637
  808MOL0     H11459   6.163   7.696   4.170  3.6564 -0.2812  0.9522
  808MOL0     H11460   5.932   7.599   4.264 -0.0424 -1.0301 -0.4489
  808MOL0     H11461   6.052   7.479   4.225 -1.6632  0.1600 -0.7840
  808MOL0     H11462   6.049   7.440   4.650 -1.7576 -0.1861  2.1454
  808MOL0     H11463   5.881   7.164   4.818  0.6949 -0.6206 -1.6805
  808MOL0     H11464   5.805   7.332   4.843 -0.4724 -1.2966  0.8610
  808MOL0     H11465   5.977   7.307   4.861 -0.3795 -2.3580  1.9623
  808MOL0     H11466   5.601   6.824   4.650  0.5383 -0.8505 -0.2572
  808MOL0     H11467   5.392   6.710   4.732 -3.3013 -0.5501 -1.9895
  808MOL0     H11468   4.976   6.874   4.677  1.9964 -0.1047  1.2957
  808MOL0     H11469   5.049   6.783   4.537  0.5494  2.5288 -0.1377
  808MOL0     H11470   4.948   6.574   4.610  0.3514 -0.2775  1.7099
  808MOL0     H11471   4.951   6.638   4.777  2.2177 -0.9119 -0.8096
  808MOL0     H11472   4.769   6.720   4.539  1.3557  1.7611 -0.8678
  808MOL0     H11473   4.758   6.795   4.698  0.9069 -0.5387  0.5554
  808MOL0     H11474   4.732   6.499   4.654  1.7259  1.8700 -2.4453
  808MOL0     H11475   4.606   6.618   4.629  0.5367  0.7597 -1.7515
  808MOL0     H11476   4.742   6.546   4.892  0.1200 -0.2950 -0.7784
  808MOL0     H11477   4.627   6.689   4.884  0.0199 -0.1896  0.5054
  808MOL0     H11478   4.595   6.394   4.856  0.3865  0.8604 -1.0097
  808MOL0     H11479   4.473   6.506   4.786 -0.6709 -0.9151 -0.8835
  808MOL0     H11480   4.447   6.601   5.024  2.5590  0.9489 -0.3701
  808MOL0     H11481   4.559   6.482   5.078  0.0868 -1.1674 -0.3239
  808MOL0     H11482   4.326   6.397   5.113 -1.8762 -0.7576 -0.9482
  808MOL0     H11483   4.411   6.302   4.984  0.6948 -0.6432  2.1630
  808MOL0     H11484   5.165   7.044   4.603 -0.3170  0.5091  1.1905
  808MOL0     H11485   5.361   7.158   4.538  1.9219  1.1531  1.0861
  808MOL0     H11486   5.721   7.214   4.359 -0.8419 -0.1852  0.5269
  808MOL0     H11487   5.860   7.369   4.262  1.9966 -2.7552 -1.0121
  808MOL0     H11488   6.547   7.167   5.314  0.5423 -0.2524  2.7572
  808MOL0     H11489   6.345   7.159   5.463 -1.2664 -1.6994 -2.4199
  808MOL0     H11490   5.960   7.211   5.544  2.5756  0.8822 -0.0191
  808MOL0     H11491   5.800   7.125   5.686 -2.5671  2.2168 -2.5541
  808MOL0     H11492   5.559   7.209   5.749  0.8956 -1.3209 -0.6230
  808MOL0     H11493   5.635   7.071   5.838  0.2128 -0.3446  2.9311
  808MOL0     H11494   5.382   7.091   5.908  0.2054  0.4161 -1.8028
  808MOL0     H11495   5.405   7.261   5.924  0.5676  0.3659  2.2492
  808MOL0     H11496   5.582   7.108   6.111  0.6119  0.0091 -1.4751
  808MOL0     H11497   5.520   7.264   6.121 -1.3180 -0.0455  1.0379
  808MOL0     H11498   5.288   7.070   6.113  0.6949 -1.6598  0.0696
  808MOL0     H11499   5.325   7.206   6.205  0.5582 -0.2082 -0.1848
  808MOL0     H11500   5.455   6.877   6.437 -0.8640 -0.3395 -0.7062
  808MOL0     H11501   5.784   7.480   5.914 -3.1915 -1.5461 -0.6962
  808MOL0     H11502   5.892   7.662   5.839 -1.0542 -1.5960 -0.7184
  808MOL0     H11503   6.064   7.631   5.779  0.7540  0.8270 -2.1194
  808MOL0     H11504   5.931   7.680   5.674  1.4992 -0.6301 -0.9117
  809MOL0     O11505   4.220   9.081   2.039  0.2698  0.3837 -0.3712
  809MOL0     C11506   4.205   8.989   2.119 -0.1643 -0.2968 -0.4885
  809MOL0     O11507   4.306   8.919   2.184 -0.3920  0.4104 -0.2266
  809MOL0     C11508   4.439   8.932   2.149  0.2585 -1.0002  0.0035
  809MOL0     C11509   4.494   8.964   2.023 -0.2483  1.4357  0.3145
  809MOL0     C11510   4.631   8.984   2.008  0.3399 -0.1177 -0.4846
  809MOL0     C11511   4.709   8.981   2.124  0.9306 -0.7841  0.7638
  809MOL0     O11512   4.843   9.003   2.104 -0.5586 -0.2045  0.4236
  809MOL0     C11513   4.884   9.140   2.104  0.5306  0.3535 -0.4165
  809MOL0     C11514   5.041   9.142   2.091  0.7849  0.2621 -0.0712
  809MOL0     C11515   5.093   9.282   2.136 -0.4707  0.7452 -0.5604
  809MOL0     C11516   5.245   9.274   2.103 -0.4996  0.0240 -0.6611
  809MOL0     C11517   5.317   9.396   2.136  0.1324 -0.4495 -0.0820
  809MOL0     C11518   5.454   9.370   2.206 -0.4072  0.9172  0.5744
  809MOL0     C11519   5.516   9.512   2.228 -1.1672 -0.7463  0.6995
  809MOL0     C11520   5.670   9.505   2.261 -0.0649 -0.0221  1.0808
  809MOL0     N11521   5.729   9.639   2.287 -0.1244 -0.1602 -0.0513
  809MOL0     C11522   5.685   9.745   2.366  0.3182 -0.8396 -0.3283
  809MOL0     C11523   5.773   9.839   2.353  0.4733 -0.2283 -0.1142
  809MOL0     C11524   5.759   9.973   2.419  0.3327  0.0086 -0.0455
  809MOL0     C11525   5.736  10.087   2.311 -0.4118  0.0699  0.1314
  809MOL0     C11526   5.753  10.232   2.367 -0.3719  0.5126 -0.1076
  809MOL0     C11527   5.778  10.333   2.265 -0.3647  0.3526  0.3308
  809MOL0     O11528   5.901  10.308   2.195 -0.0003 -0.3869 -0.7074
  809MOL0     C11529   6.021  10.348   2.253 -0.8731 -0.2211  0.5592
  809MOL0     C11530   6.049  10.447   2.347 -0.5917 -0.6617 -0.0023
  809MOL0     C11531   6.175  10.478   2.404 -0.3136  0.0777 -0.3822
  809MOL0     C11532   6.182  10.590   2.500  0.2322 -0.0092  0.5133
  809MOL0     C11533   6.284  10.418   2.343 -1.0423  0.7285 -0.8866
  809MOL0     C11534   6.425  10.456   2.363  0.2233  0.7280 -0.0728
  809MOL0     O11535   6.517  10.369   2.322 -0.3464 -0.1178  0.3957
  809MOL0     C11536   6.645  10.394   2.364 -0.4495 -1.1024  0.1902
  809MOL0     C11537   6.688  10.339   2.477  0.0577  0.0925 -0.1549
  809MOL0     C11538   6.821  10.339   2.523 -0.4314 -0.1229 -0.1392
  809MOL0     C11539   6.912  10.408   2.448  0.1717  0.7803 -1.1583
  809MOL0     O11540   7.037  10.407   2.498  1.1183  0.1160 -0.4416
  809MOL0     C11541   7.141  10.478   2.443 -0.3893 -0.6769  0.6992
  809MOL0     C11542   7.269  10.443   2.521  0.4135 -0.2900  0.1719
  809MOL0     C11543   7.315  10.289   2.525  0.4304 -0.0012 -0.2961
  809MOL0     C11544   7.337  10.215   2.394  0.3974 -0.1082 -0.6728
  809MOL0     C11545   7.401  10.080   2.426  0.4747  0.3868 -0.3055
  809MOL0     C11546   7.466  10.016   2.302 -0.2086  0.0224  0.6354
  809MOL0     C11547   7.360   9.990   2.201  0.2892  0.3292  0.0485
  809MOL0     C11548   7.426   9.954   2.073  0.4209  1.4046  0.1022
  809MOL0    Cl11549   7.284   9.929   1.968 -0.1271 -0.0632 -0.0481
  809MOL0     C11550   6.874  10.484   2.332 -0.1436  0.6113 -1.1725
  809MOL0     C11551   6.737  10.480   2.291  0.0760  0.3999  0.4355
  809MOL0     O11552   6.452  10.565   2.421 -0.0007  0.1652 -0.3180
  809MOL0     C11553   6.264  10.328   2.240  0.5479 -0.5887  0.9462
  809MOL0     C11554   6.134  10.296   2.186 -0.2353 -0.4059 -0.3881
  809MOL0     N11555   5.872   9.797   2.276  0.1227  0.2722 -0.1864
  809MOL0     N11556   5.839   9.686   2.225  0.7141 -0.6892 -0.6660
  809MOL0     C11557   4.660   8.955   2.247 -0.3180  0.6716  0.3186
  809MOL0     C11558   4.530   8.917   2.256  0.0281  0.1339 -0.6202
  809MOL0     C11559   4.061   8.957   2.157  0.6529 -0.0710 -1.0984
  809MOL0     C11560   3.976   9.061   2.199 -0.0097 -0.0144 -0.4746
  809MOL0     C11561   3.844   9.035   2.249 -0.7085 -0.2818  0.7326
  809MOL0     C11562   3.799   8.908   2.255 -0.1645  0.0892  0.0859
  809MOL0     O11563   3.682   8.876   2.326  0.1094 -0.3211  0.1577
  809MOL0     C11564   3.577   8.810   2.248  0.4752  0.0722 -0.1960
  809MOL0     C11565   3.495   8.719   2.340  0.1154 -0.2119  0.6142
  809MOL0     C11566   3.415   8.805   2.444 -0.6579 -0.7048 -0.5727
  809MOL0     C11567   3.333   8.710   2.531 -0.4954  0.1230 -0.1529
  809MOL0     C11568   3.247   8.790   2.626 -0.3587 -0.4007  0.4720
  809MOL0     C11569   3.171   8.852   2.699 -0.3400  0.5255 -0.4722
  809MOL0     C11570   3.885   8.803   2.222 -0.4436  0.1791  0.3043
  809MOL0     C11571   4.011   8.827   2.169  0.1667 -0.3513  0.1823
  809MOL0     C11572   4.086   8.705   2.130  0.5945  0.4922 -0.7362
  809MOL0     H11573   4.435   8.977   1.933  2.9120  4.7456 -1.5092
  809MOL0     H11574   4.670   8.997   1.907  0.5908 -0.3113 -0.4150
  809MOL0     H11575   4.877   9.183   2.204  0.8189 -1.6032  0.5085
  809MOL0     H11576   4.846   9.203   2.024 -0.9724  0.3728  0.2820
  809MOL0     H11577   5.072   9.063   2.161 -1.1198  1.0575  1.7852
  809MOL0     H11578   5.076   9.108   1.993 -0.4326  1.6003 -1.0009
  809MOL0     H11579   5.037   9.360   2.084 -1.5933 -2.5666 -4.8721
  809MOL0     H11580   5.072   9.289   2.243  1.0359 -2.4736  0.0756
  809MOL0     H11581   5.280   9.192   2.166 -0.9118 -0.7481 -1.4283
  809MOL0     H11582   5.259   9.258   1.996 -2.3748  2.0641 -1.3119
  809MOL0     H11583   5.262   9.463   2.204  1.2514 -0.1924  0.5894
  809MOL0     H11584   5.332   9.445   2.039 -0.3913 -0.5882 -0.2380
  809MOL0     H11585   5.445   9.314   2.300 -2.3543  2.5054  1.4115
  809MOL0     H11586   5.525   9.314   2.145  0.6626  1.3704  1.3701
  809MOL0     H11587   5.471   9.569   2.310 -0.3013  0.6777  0.2159
  809MOL0     H11588   5.505   9.571   2.137  3.1981  0.9806  1.0596
  809MOL0     H11589   5.683   9.446   2.351 -1.7861 -1.2392  0.5722
  809MOL0     H11590   5.720   9.467   2.171 -1.7184  0.2904 -0.0255
  809MOL0     H11591   5.601   9.752   2.434  0.2251 -0.9931 -0.4264
  809MOL0     H11592   5.852   9.996   2.473  2.9083 -1.1701 -3.5742
  809MOL0     H11593   5.672   9.965   2.484 -0.5993  0.9419 -1.1177
  809MOL0     H11594   5.807  10.071   2.230 -1.0641 -0.0617 -0.4257
  809MOL0     H11595   5.632  10.087   2.275 -0.0524 -0.4769 -0.9498
  809MOL0     H11596   5.663  10.254   2.425  1.7173  1.6441  2.9984
  809MOL0     H11597   5.843  10.235   2.429 -1.3116  0.2227  1.3151
  809MOL0     H11598   5.702  10.334   2.186  1.4697 -1.8549 -1.6163
  809MOL0     H11599   5.776  10.434   2.307  3.0704 -0.2393  2.2992
  809MOL0     H11600   5.962  10.499   2.385  1.2463  1.4947  1.5517
  809MOL0     H11601   6.228  10.560   2.595 -1.9718 -1.3516  1.2236
  809MOL0     H11602   6.086  10.634   2.529  1.0283  1.7761  0.6257
  809MOL0     H11603   6.233  10.678   2.458  0.3761  0.7800  2.2444
  809MOL0     H11604   6.609  10.298   2.539 -1.7096 -0.2679 -2.5140
  809MOL0     H11605   6.853  10.280   2.608 -1.7002 -1.2121 -0.3906
  809MOL0     H11606   7.153  10.453   2.337  1.0253 -0.2213  0.7275
  809MOL0     H11607   7.127  10.586   2.452  0.3565 -0.2717 -2.0545
  809MOL0     H11608   7.343  10.504   2.469 -2.9604  2.1746 -2.1711
  809MOL0     H11609   7.246  10.489   2.618 -2.3356 -1.8630  0.3872
  809MOL0     H11610   7.239  10.240   2.586  1.4706 -0.9683  0.2639
  809MOL0     H11611   7.407  10.287   2.584  0.3677 -0.2798 -0.2071
  809MOL0     H11612   7.407  10.269   2.329  1.2533 -1.4240 -0.8869
  809MOL0     H11613   7.247  10.184   2.340  0.4464 -1.9585  0.2176
  809MOL0     H11614   7.477  10.087   2.504 -2.0687  1.0178  2.2877
  809MOL0     H11615   7.323  10.020   2.472  1.2425  0.2639  0.8766
  809MOL0     H11616   7.506   9.917   2.326 -1.7329 -0.5237  1.0263
  809MOL0     H11617   7.553  10.067   2.260 -0.8713  1.1425  0.6126
  809MOL0     H11618   7.309  10.082   2.171  0.2588  0.6438  1.0245
  809MOL0     H11619   7.283   9.922   2.239 -1.2650 -0.1637 -3.5807
  809MOL0     H11620   7.485   9.862   2.078 -1.4020  0.1743  0.1408
  809MOL0     H11621   7.490  10.030   2.028  1.7689  0.3812  0.2438
  809MOL0     H11622   6.944  10.541   2.271 -0.9289  2.1356 -0.6948
  809MOL0     H11623   6.699  10.528   2.202 -0.5549 -0.7566  0.0545
  809MOL0     H11624   6.342  10.287   2.177  0.1718 -1.7989  1.2520
  809MOL0     H11625   6.120  10.228   2.102 -0.0301 -0.1883 -0.6004
  809MOL0     H11626   4.723   8.962   2.335  1.3515  0.7496 -0.8449
  809MOL0     H11627   4.489   8.898   2.355  3.8638 -1.1175  0.8939
  809MOL0     H11628   4.011   9.163   2.192  1.8754 -0.5333  0.8471
  809MOL0     H11629   3.776   9.114   2.279 -0.8438 -0.0446 -0.1581
  809MOL0     H11630   3.514   8.882   2.196 -1.8816 -1.2539  0.7037
  809MOL0     H11631   3.622   8.751   2.167  1.5522 -0.9809  1.1009
  809MOL0     H11632   3.558   8.650   2.396  0.4101 -2.2179 -1.9782
  809MOL0     H11633   3.429   8.650   2.287  1.0425 -3.2612  3.1550
  809MOL0     H11634   3.485   8.860   2.507 -0.6776 -1.6246  0.2773
  809MOL0     H11635   3.343   8.877   2.403 -1.8567 -0.0555  2.3484
  809MOL0     H11636   3.388   8.630   2.580 -0.5110  0.2616  0.0936
  809MOL0     H11637   3.260   8.665   2.462  0.1249  0.5683 -1.1125
  809MOL0     H11638   3.084   8.895   2.743 -0.7029  0.0823 -0.7552
  809MOL0     H11639   3.848   8.702   2.233  1.5919 -0.7392 -0.9229
  809MOL0     H11640   4.130   8.722   2.032 -2.1871  0.9876 -1.9875
  809MOL0     H11641   4.160   8.686   2.209 -0.1954 -1.5277 -0.4202
  809MOL0     H11642   4.027   8.612   2.129  3.2575 -1.3220 -1.8871
  810MOL0     O11643   1.208   7.123   5.126 -0.4180  0.8322 -0.1982
  810MOL0     C11644   1.194   7.049   5.223  0.1331  0.2177  0.5425
  810MOL0     O11645   1.282   7.034   5.329 -0.1423  0.1135  0.2692
  810MOL0     C11646   1.397   7.110   5.329 -0.6408  0.0588  0.1856
  810MOL0     C11647   1.508   7.093   5.237  0.0512 -0.1507 -0.9079
  810MOL0     C11648   1.608   7.192   5.251  0.8157 -0.7598  1.0135
  810MOL0     C11649   1.612   7.289   5.350  0.3172 -0.3715  0.6453
  810MOL0     O11650   1.716   7.376   5.342 -0.7408 -0.4613  0.5654
  810MOL0     C11651   1.785   7.412   5.461 -0.6334 -0.5026  0.5150
  810MOL0     C11652   1.909   7.494   5.416 -0.4715  0.7935  0.1173
  810MOL0     C11653   1.984   7.551   5.536 -0.3092  0.0954 -0.7922
  810MOL0     C11654   2.092   7.648   5.500 -0.2865  0.7477 -0.0383
  810MOL0     C11655   2.163   7.680   5.636  0.2996  0.4434 -0.1033
  810MOL0     C11656   2.257   7.799   5.625 -0.2951  0.2612 -1.4100
  810MOL0     C11657   2.372   7.761   5.530 -0.4848  1.0535  0.1812
  810MOL0     C11658   2.492   7.858   5.532 -0.6988  0.4904  0.0052
  810MOL0     N11659   2.572   7.868   5.656 -0.6251 -0.2207  0.8457
  810MOL0     C11660   2.617   7.769   5.739  0.2349  0.2799 -0.3961
  810MOL0     C11661   2.694   7.843   5.828 -0.3778 -0.5645  0.4415
  810MOL0     C11662   2.753   7.770   5.941 -0.3744 -0.3829 -0.2133
  810MOL0     C11663   2.671   7.813   6.073  0.7394 -0.1084 -0.1762
  810MOL0     C11664   2.726   7.783   6.214  0.2019  1.2879 -0.6044
  810MOL0     C11665   2.853   7.864   6.258 -0.2725 -0.4512 -0.2991
  810MOL0     O11666   2.922   7.809   6.377 -0.0098  0.1292 -0.9070
  810MOL0     C11667   3.057   7.807   6.347  0.7357  0.4298 -0.2869
  810MOL0     C11668   3.150   7.909   6.397  0.7415  1.1637  0.1338
  810MOL0     C11669   3.284   7.912   6.366  0.3119  0.5288  0.2181
  810MOL0     C11670   3.363   8.038   6.412  0.2462  0.5454 -0.2268
  810MOL0     C11671   3.333   7.806   6.284 -0.7534 -0.2116 -1.0195
  810MOL0     C11672   3.485   7.803   6.247  0.0921 -0.0002 -0.2154
  810MOL0     O11673   3.536   7.685   6.191  0.3998  0.3872 -0.4606
  810MOL0     C11674   3.641   7.681   6.097  0.2473 -0.7557  0.6419
  810MOL0     C11675   3.649   7.791   6.007 -0.4175 -0.0406  0.1254
  810MOL0     C11676   3.755   7.795   5.918 -0.4927  0.3534 -0.0093
  810MOL0     C11677   3.847   7.689   5.904 -0.1399  0.5496 -0.6301
  810MOL0     O11678   3.938   7.685   5.808  0.2546 -0.1140 -0.3662
  810MOL0     C11679   4.055   7.742   5.858  0.0160 -0.1685 -0.2010
  810MOL0     C11680   4.155   7.774   5.747  0.0679 -0.5093 -0.1898
  810MOL0     C11681   4.218   7.663   5.660  0.4417 -0.8249  0.2466
  810MOL0     C11682   4.348   7.722   5.593  0.2368  0.3755  0.5349
  810MOL0     C11683   4.407   7.624   5.492  0.4262  0.2554  0.7796
  810MOL0     C11684   4.474   7.505   5.560 -0.1420  0.2321  0.3670
  810MOL0     C11685   4.510   7.397   5.455 -0.1550  0.6164 -0.6618
  810MOL0     C11686   4.639   7.334   5.486 -0.2634  0.4874  0.1880
  810MOL0    Cl11687   4.711   7.224   5.365  0.0449  0.0727  0.2803
  810MOL0     C11688   3.837   7.577   5.988  0.8510  0.1221  0.6469
  810MOL0     C11689   3.729   7.566   6.082  0.4578 -0.0566 -0.1844
  810MOL0     O11690   3.558   7.906   6.264 -0.1790  0.0907 -0.2425
  810MOL0     C11691   3.246   7.708   6.242 -0.7802 -0.1023 -0.1956
  810MOL0     C11692   3.108   7.708   6.269  0.0171  0.2408 -1.0340
  810MOL0     N11693   2.697   7.974   5.799  0.3407  0.2564 -0.1227
  810MOL0     N11694   2.614   7.993   5.700 -0.3800  0.3527 -0.5074
  810MOL0     C11695   1.503   7.310   5.423  0.2967  0.2624  0.0948
  810MOL0     C11696   1.402   7.220   5.418  0.4334 -0.2697 -0.5933
  810MOL0     C11697   1.069   6.967   5.233 -0.6999 -0.3639 -0.4427
  810MOL0     C11698   1.043   6.910   5.362  0.3100 -0.8558  1.0079
  810MOL0     C11699   0.931   6.831   5.387  0.0846  1.0447 -0.6868
  810MOL0     C11700   0.840   6.789   5.286 -0.3713 -0.2306  0.7080
  810MOL0     O11701   0.729   6.707   5.317 -0.7363  0.4893 -0.1517
  810MOL0     C11702   0.641   6.645   5.219  0.0887  0.0642  0.4448
  810MOL0     C11703   0.516   6.721   5.188 -0.0846  0.0197  0.1224
  810MOL0     C11704   0.407   6.735   5.302  0.3901  0.8544 -1.0992
  810MOL0     C11705   0.343   6.869   5.326  0.3612  0.8087  1.1253
  810MOL0     C11706   0.236   6.841   5.418  0.4495 -0.2970 -0.3063
  810MOL0     C11707   0.147   6.825   5.496  0.6739 -1.1551 -0.5391
  810MOL0     C11708   0.874   6.836   5.155 -0.5739 -0.4938  0.2166
  810MOL0     C11709   0.983   6.918   5.132 -0.8410 -0.4307  0.5821
  810MOL0     C11710   1.006   6.960   4.982 -0.1916 -1.1434 -0.2842
  810MOL0     H11711   1.512   7.014   5.162 -1.7580 -1.5978  0.3989
  810MOL0     H11712   1.695   7.196   5.187 -0.0254 -1.0258 -0.1976
  810MOL0     H11713   1.803   7.323   5.523 -0.2938 -0.2757  0.7433
  810MOL0     H11714   1.711   7.470   5.518 -1.9890  0.0351 -1.6693
  810MOL0     H11715   1.973   7.420   5.367 -0.6748  0.3435  0.5333
  810MOL0     H11716   1.887   7.573   5.344 -0.7281  1.5456  1.0025
  810MOL0     H11717   1.927   7.610   5.607  1.3036 -0.3468  0.9425
  810MOL0     H11718   2.025   7.464   5.588 -2.5009 -2.1587 -2.5815
  810MOL0     H11719   2.169   7.601   5.438 -0.3458 -1.1760  1.2768
  810MOL0     H11720   2.046   7.739   5.460 -1.5158  0.3014  0.3095
  810MOL0     H11721   2.206   7.590   5.679 -0.9442 -0.8487 -1.4484
  810MOL0     H11722   2.090   7.702   5.714 -0.0431 -1.8084  0.2714
  810MOL0     H11723   2.204   7.891   5.599 -1.9290 -0.5149 -0.9687
  810MOL0     H11724   2.304   7.816   5.722 -1.1011 -0.3901 -0.8910
  810MOL0     H11725   2.337   7.743   5.428  1.8359  1.5057 -0.7601
  810MOL0     H11726   2.412   7.666   5.565  2.3608  1.4401 -1.7229
  810MOL0     H11727   2.564   7.830   5.455  0.2448 -0.0578  1.0515
  810MOL0     H11728   2.444   7.956   5.518 -2.2282 -0.1762  0.4169
  810MOL0     H11729   2.613   7.661   5.734 -0.1460  0.2330  0.5859
  810MOL0     H11730   2.853   7.812   5.956 -1.5067  2.5534 -0.2591
  810MOL0     H11731   2.761   7.662   5.929  0.8348 -0.7955  3.2113
  810MOL0     H11732   2.650   7.920   6.074  0.4631 -0.1491  1.9281
  810MOL0     H11733   2.574   7.763   6.062 -0.6646  2.7338 -1.8063
  810MOL0     H11734   2.658   7.820   6.291  1.0852  0.1809  0.7539
  810MOL0     H11735   2.756   7.679   6.232  1.4501  1.9236  1.3154
  810MOL0     H11736   2.919   7.880   6.173  0.5003 -0.5346  0.2679
  810MOL0     H11737   2.818   7.964   6.284 -0.9434 -1.1063  1.5067
  810MOL0     H11738   3.109   7.988   6.459 -3.6287 -0.8235  0.1370
  810MOL0     H11739   3.293   8.107   6.459  0.6951  0.6054  0.3590
  810MOL0     H11740   3.404   8.086   6.322 -1.4758 -1.1996 -2.0684
  810MOL0     H11741   3.441   8.013   6.484 -0.7032  0.2778  0.7277
  810MOL0     H11742   3.592   7.882   6.019  0.2236  1.3262 -4.7953
  810MOL0     H11743   3.768   7.890   5.866  1.6623  0.6049  0.8531
  810MOL0     H11744   4.028   7.838   5.903  0.6818 -0.3354  0.5768
  810MOL0     H11745   4.097   7.676   5.934  1.8635 -1.3099 -2.0786
  810MOL0     H11746   4.100   7.838   5.677  1.7329 -0.5257 -1.6026
  810MOL0     H11747   4.228   7.841   5.794 -0.8330 -0.2516  0.8647
  810MOL0     H11748   4.156   7.617   5.583  1.0931  1.8067 -2.0403
  810MOL0     H11749   4.253   7.577   5.718  1.0419 -0.4456  0.4599
  810MOL0     H11750   4.427   7.749   5.664  1.6010  0.1853 -0.8551
  810MOL0     H11751   4.320   7.808   5.533  0.2278  0.0191  0.0234
  810MOL0     H11752   4.325   7.581   5.433 -0.4322  1.3515  1.1133
  810MOL0     H11753   4.471   7.679   5.422 -0.1306  0.8114  0.6933
  810MOL0     H11754   4.423   7.459   5.645 -0.5082 -2.1493 -1.0584
  810MOL0     H11755   4.570   7.538   5.600 -0.3155 -0.1234  1.0953
  810MOL0     H11756   4.521   7.444   5.357  1.8405  0.1039 -0.7346
  810MOL0     H11757   4.437   7.317   5.469  0.6692  0.3042  2.5269
  810MOL0     H11758   4.641   7.281   5.582  1.3500  0.9082  0.4239
  810MOL0     H11759   4.713   7.415   5.487 -0.3035  0.5247  1.0401
  810MOL0     H11760   3.909   7.497   5.987  0.1128 -0.5531 -0.6119
  810MOL0     H11761   3.717   7.474   6.139 -2.1497  0.3892  0.1365
  810MOL0     H11762   3.286   7.632   6.175  0.7883 -1.7871  2.4677
  810MOL0     H11763   3.041   7.630   6.236 -0.9810 -0.5102  2.4001
  810MOL0     H11764   1.509   7.398   5.487 -0.5162  0.1402  0.3628
  810MOL0     H11765   1.314   7.229   5.480  1.8228  0.3779  1.3650
  810MOL0     H11766   1.106   6.948   5.442  1.1611  4.1019 -1.6415
  810MOL0     H11767   0.907   6.806   5.489  0.4895 -0.1266 -0.8643
  810MOL0     H11768   0.697   6.625   5.127 -0.5186 -1.4327  0.3750
  810MOL0     H11769   0.606   6.548   5.255 -1.1675  0.3097 -0.0391
  810MOL0     H11770   0.469   6.665   5.107  1.0916  0.8820 -1.2249
  810MOL0     H11771   0.533   6.820   5.144 -1.4298  0.0248 -0.4300
  810MOL0     H11772   0.330   6.659   5.293  2.0939 -0.9323 -1.3358
  810MOL0     H11773   0.465   6.711   5.392 -0.4106 -1.5080 -1.1692
  810MOL0     H11774   0.318   6.915   5.231  1.6130 -0.0764  0.3342
  810MOL0     H11775   0.414   6.933   5.380  0.5793 -0.6797  2.7306
  810MOL0     H11776   0.062   6.812   5.560  0.4958 -2.6276 -1.0474
  810MOL0     H11777   0.808   6.815   5.071 -0.9759 -0.3338  0.4868
  810MOL0     H11778   1.107   6.951   4.941 -0.2154 -0.9089 -0.3935
  810MOL0     H11779   0.938   6.903   4.918 -1.4164 -3.3831  2.7634
  810MOL0     H11780   0.971   7.063   4.974  1.9269 -0.5315 -2.9297
  811MOL0     O11781   2.060   9.157   7.431  0.1906 -0.0790 -0.1968
  811MOL0     C11782   1.936   9.159   7.401  0.4260  0.6226 -0.1643
  811MOL0     O11783   1.870   9.266   7.344  0.3302 -0.1857 -0.7347
  811MOL0     C11784   1.941   9.364   7.286  0.3192  0.5736 -0.6993
  811MOL0     C11785   1.995   9.349   7.160 -0.6363 -0.0541  0.7543
  811MOL0     C11786   2.064   9.457   7.096  0.2470 -0.7336  0.3358
  811MOL0     C11787   2.061   9.582   7.152  0.1781 -0.3444 -0.4931
  811MOL0     O11788   2.119   9.692   7.095 -0.2491  0.3020  0.1303
  811MOL0     C11789   2.143   9.810   7.171  0.1598 -0.4052 -0.3087
  811MOL0     C11790   2.270   9.890   7.121  0.4393  0.2290 -0.1917
  811MOL0     C11791   2.369   9.808   7.042  0.3019 -0.1451  0.6400
  811MOL0     C11792   2.434   9.695   7.135 -0.7879  0.6043  0.1848
  811MOL0     C11793   2.546   9.619   7.066  0.4963 -0.2042 -0.3067
  811MOL0     C11794   2.509   9.529   6.947 -0.0797 -0.3090 -1.1374
  811MOL0     C11795   2.598   9.552   6.826  0.5520  0.1343  1.2147
  811MOL0     C11796   2.578   9.688   6.755  0.2954 -0.8239 -0.8904
  811MOL0     N11797   2.540   9.661   6.614 -0.2803  0.0389  0.9013
  811MOL0     C11798   2.608   9.644   6.498  0.7283 -0.3976 -0.3023
  811MOL0     C11799   2.517   9.610   6.408 -0.6088 -0.3243 -0.2515
  811MOL0     C11800   2.535   9.567   6.269  0.5173 -0.7977  0.1981
  811MOL0     C11801   2.648   9.472   6.246 -0.0681 -0.5569  0.3103
  811MOL0     C11802   2.668   9.444   6.099 -0.2517 -0.7559  0.0063
  811MOL0     C11803   2.812   9.398   6.071  0.4213  0.3972  0.2560
  811MOL0     O11804   2.824   9.317   5.951  0.0373 -0.2743  0.4572
  811MOL0     C11805   2.957   9.324   5.906 -0.2633  0.3081 -0.2076
  811MOL0     C11806   2.980   9.345   5.769 -0.6062 -0.0300 -0.1419
  811MOL0     C11807   3.101   9.338   5.703 -0.2992  0.7098 -0.2135
  811MOL0     C11808   3.108   9.349   5.559 -0.0766 -0.2572  0.8092
  811MOL0     C11809   3.213   9.318   5.780 -0.1517  0.0945  1.0223
  811MOL0     C11810   3.355   9.302   5.724  0.1801 -0.3244 -0.7261
  811MOL0     O11811   3.380   9.266   5.596 -0.5725  0.9439 -0.1765
  811MOL0     C11812   3.508   9.266   5.547  0.2493  0.3835  0.2140
  811MOL0     C11813   3.580   9.384   5.513  0.0677  0.2237 -0.7682
  811MOL0     C11814   3.710   9.378   5.457  0.1087 -0.4570 -0.7977
  811MOL0     C11815   3.781   9.253   5.450 -0.1213 -0.1246 -0.0835
  811MOL0     O11816   3.909   9.259   5.409  0.2019  0.1525  0.3246
  811MOL0     C11817   3.988   9.145   5.399  0.8151 -0.2810 -0.5478
  811MOL0     C11818   4.134   9.162   5.363 -0.0105 -0.8542  0.1710
  811MOL0     C11819   4.222   9.044   5.422 -0.1001  0.1022  0.9858
  811MOL0     C11820   4.203   8.912   5.340  0.5398 -0.2103  0.1719
  811MOL0     C11821   4.085   8.829   5.381 -0.5515  0.3538  0.2389
  811MOL0     C11822   4.091   8.691   5.313 -1.0089  0.4637  0.5033
  811MOL0     C11823   3.969   8.622   5.367  0.4638  0.0531 -0.3884
  811MOL0     C11824   3.944   8.484   5.298  0.8844 -0.4898 -0.3815
  811MOL0    Cl11825   3.804   8.412   5.396  0.1626  0.1731 -0.1709
  811MOL0     C11826   3.710   9.142   5.488  0.0632  0.1336  0.8672
  811MOL0     C11827   3.582   9.150   5.546 -0.3024  0.5258  0.8417
  811MOL0     O11828   3.433   9.356   5.796 -0.3612 -0.2976 -0.2135
  811MOL0     C11829   3.201   9.306   5.917  0.4803  0.2553 -0.3793
  811MOL0     C11830   3.073   9.294   5.981 -0.5081  0.2338 -0.1151
  811MOL0     N11831   2.396   9.608   6.466 -0.4053  0.9099 -0.3292
  811MOL0     N11832   2.409   9.633   6.589  0.4810 -1.0684  0.2094
  811MOL0     C11833   1.999   9.595   7.274 -0.3769  0.0778 -0.1963
  811MOL0     C11834   1.935   9.490   7.343  0.0725 -0.1178  0.4296
  811MOL0     C11835   1.857   9.041   7.433  0.4857  0.3409  0.7230
  811MOL0     C11836   1.891   8.949   7.539 -0.4075 -0.1538 -0.1469
  811MOL0     C11837   1.824   8.828   7.564  0.4295 -0.8794 -0.5699
  811MOL0     C11838   1.729   8.781   7.479  0.6003 -0.0711 -0.1133
  811MOL0     O11839   1.663   8.656   7.487 -1.0075 -0.9427  0.3358
  811MOL0     C11840   1.573   8.614   7.379 -0.2577  0.8843 -0.8640
  811MOL0     C11841   1.538   8.460   7.384  0.1753  0.7440 -0.8960
  811MOL0     C11842   1.422   8.428   7.293  0.4199  0.4348  0.4363
  811MOL0     C11843   1.452   8.424   7.144 -0.2930  0.4718 -0.0353
  811MOL0     C11844   1.331   8.447   7.074  0.2212  0.1739 -1.1471
  811MOL0     C11845   1.226   8.470   7.014  0.7657  0.0858 -0.7940
  811MOL0     C11846   1.682   8.874   7.379 -0.2915 -0.1197 -0.8787
  811MOL0     C11847   1.753   8.991   7.348 -0.1637  0.4654 -0.2825
  811MOL0     C11848   1.702   9.069   7.225  0.9247  0.0136  0.5897
  811MOL0     H11849   1.991   9.254   7.107 -0.2372  1.2112 -1.6816
  811MOL0     H11850   2.118   9.446   7.002 -0.8216 -0.3025 -0.3473
  811MOL0     H11851   2.166   9.789   7.276  0.6185 -0.4762 -0.4200
  811MOL0     H11852   2.049   9.866   7.170  0.5378  0.2881  0.9228
  811MOL0     H11853   2.228   9.970   7.060 -1.6029  0.0445  0.8935
  811MOL0     H11854   2.328   9.930   7.205  3.3956  0.1124 -2.0175
  811MOL0     H11855   2.323   9.758   6.955 -1.6312 -0.1247  1.5866
  811MOL0     H11856   2.455   9.864   7.004  0.2507  0.0129  0.7593
  811MOL0     H11857   2.468   9.740   7.228 -2.9427  1.4480  0.6042
  811MOL0     H11858   2.352   9.626   7.156 -2.5459  1.9018 -1.9732
  811MOL0     H11859   2.597   9.563   7.145  0.9674 -0.8314 -1.0526
  811MOL0     H11860   2.619   9.695   7.038  0.8740  0.2707  1.7903
  811MOL0     H11861   2.501   9.427   6.984 -0.3985  0.1867  0.2383
  811MOL0     H11862   2.411   9.555   6.907 -0.4153  0.9680  0.4061
  811MOL0     H11863   2.571   9.470   6.759 -0.0231 -0.3681  2.0443
  811MOL0     H11864   2.702   9.544   6.859 -0.1644 -1.0927  3.3460
  811MOL0     H11865   2.500   9.744   6.806  1.3762  0.1706 -0.3046
  811MOL0     H11866   2.669   9.746   6.740 -0.6707  0.5553 -1.6836
  811MOL0     H11867   2.716   9.653   6.495  0.6491  0.5436 -1.9149
  811MOL0     H11868   2.551   9.662   6.218 -0.3318 -0.2795  0.8667
  811MOL0     H11869   2.446   9.522   6.225 -1.6036  1.2543  2.1042
  811MOL0     H11870   2.736   9.508   6.301 -1.4608  1.4186  1.3848
  811MOL0     H11871   2.617   9.387   6.307 -0.7525  0.5466  1.5583
  811MOL0     H11872   2.596   9.371   6.063  1.5903 -1.7810 -1.8375
  811MOL0     H11873   2.656   9.544   6.057  2.3091  0.5994  2.1370
  811MOL0     H11874   2.876   9.486   6.063 -1.3416  1.8015  1.0366
  811MOL0     H11875   2.841   9.337   6.157 -1.1074 -1.1144 -0.2403
  811MOL0     H11876   2.885   9.353   5.718  0.2049 -1.9788 -2.1725
  811MOL0     H11877   3.195   9.408   5.526 -0.3070 -0.5952 -0.4652
  811MOL0     H11878   3.018   9.398   5.521  0.5252 -2.0981 -3.5736
  811MOL0     H11879   3.109   9.249   5.516  0.1647  0.1394 -0.1400
  811MOL0     H11880   3.534   9.483   5.519 -0.2470  0.2621 -2.9493
  811MOL0     H11881   3.765   9.464   5.423 -0.8902  0.3343 -0.4503
  811MOL0     H11882   3.986   9.086   5.491 -0.3153 -0.5090 -0.7035
  811MOL0     H11883   3.951   9.088   5.313  0.9272  2.2844 -2.4027
  811MOL0     H11884   4.142   9.186   5.256 -0.4592 -0.2785  0.2648
  811MOL0     H11885   4.163   9.255   5.412 -3.2118 -0.5956  1.8349
  811MOL0     H11886   4.199   9.019   5.526 -1.2014 -1.5086  0.3927
  811MOL0     H11887   4.328   9.071   5.415  0.1939 -1.0715  0.6938
  811MOL0     H11888   4.297   8.856   5.341  3.0347  3.5706 -0.4784
  811MOL0     H11889   4.201   8.930   5.232  2.0921 -1.3407 -0.0970
  811MOL0     H11890   4.101   8.819   5.488 -0.4846 -0.8466  0.1350
  811MOL0     H11891   3.993   8.882   5.352 -1.0240 -1.8114 -2.7854
  811MOL0     H11892   4.181   8.630   5.325  0.0550  1.3302 -2.1408
  811MOL0     H11893   4.088   8.703   5.204  1.2085 -2.9302 -0.0945
  811MOL0     H11894   3.882   8.688   5.367  0.7596  0.4632  0.4467
  811MOL0     H11895   3.989   8.597   5.471  1.5452 -0.8441 -0.7843
  811MOL0     H11896   4.035   8.425   5.309 -0.1498 -2.9617 -3.4646
  811MOL0     H11897   3.924   8.492   5.191 -0.6215 -0.6017 -0.1320
  811MOL0     H11898   3.738   9.038   5.500 -0.4708 -0.1542 -0.2556
  811MOL0     H11899   3.539   9.058   5.585  1.4871 -0.3600  0.8234
  811MOL0     H11900   3.292   9.297   5.976 -0.4635  0.6214  1.1953
  811MOL0     H11901   3.073   9.262   6.085  1.5348  0.0967 -0.1051
  811MOL0     H11902   2.003   9.690   7.326  1.1728 -0.8380  1.4541
  811MOL0     H11903   1.889   9.520   7.437  2.0111 -1.4191  1.8729
  811MOL0     H11904   1.979   8.964   7.599  0.3410  0.1851 -1.2861
  811MOL0     H11905   1.856   8.770   7.650 -0.8944 -1.1450 -0.2400
  811MOL0     H11906   1.479   8.668   7.391 -1.7581 -2.2260  3.8272
  811MOL0     H11907   1.611   8.621   7.276  2.2473  0.6710 -0.0110
  811MOL0     H11908   1.520   8.429   7.487 -2.0031  1.3497 -1.0271
  811MOL0     H11909   1.618   8.391   7.355  0.0140 -1.0096  2.3296
  811MOL0     H11910   1.372   8.332   7.307 -5.4921  3.3100  2.7706
  811MOL0     H11911   1.335   8.492   7.312 -1.0587 -0.9682 -1.2519
  811MOL0     H11912   1.482   8.323   7.113 -3.2681 -0.3089 -0.6375
  811MOL0     H11913   1.524   8.502   7.118  0.1954  1.3368  3.4224
  811MOL0     H11914   1.141   8.477   6.949 -1.0915 -1.3192  1.3479
  811MOL0     H11915   1.597   8.859   7.314 -0.8404 -0.9402  0.0028
  811MOL0     H11916   1.643   9.155   7.259  2.1890  0.5156  1.5959
  811MOL0     H11917   1.786   9.108   7.166 -1.3062  0.7794 -2.3364
  811MOL0     H11918   1.643   9.004   7.159  1.7164 -1.8937  1.6929
  812MOL0     O11919   1.125   1.093   9.702 -0.1018  1.1188  0.4156
  812MOL0     C11920   1.174   1.047   9.804  0.0659  0.0616 -0.2633
  812MOL0     O11921   1.302   1.030   9.841  0.2366 -0.2655  0.5652
  812MOL0     C11922   1.400   1.027   9.741  0.1441 -0.6211  0.1634
  812MOL0     C11923   1.433   0.914   9.658 -0.5559  0.2886  0.5911
  812MOL0     C11924   1.535   0.925   9.558  0.2298  0.5136  0.1243
  812MOL0     C11925   1.612   1.038   9.544  0.2431 -0.9515  1.0810
  812MOL0     O11926   1.708   1.061   9.448 -0.2636 -1.0887  0.2264
  812MOL0     C11927   1.779   0.943   9.408  0.1899  0.1482  0.4771
  812MOL0     C11928   1.883   0.989   9.302 -0.1210  0.2031  0.3198
  812MOL0     C11929   2.022   0.994   9.359  0.0252  0.0900 -0.5320
  812MOL0     C11930   2.121   1.050   9.253  0.2302 -0.2300 -0.0228
  812MOL0     C11931   2.262   1.047   9.309 -0.0984  0.0060 -0.6012
  812MOL0     C11932   2.375   1.068   9.201 -0.1155 -0.5650 -0.4288
  812MOL0     C11933   2.514   1.076   9.269  0.2019  0.5248 -0.3940
  812MOL0     C11934   2.613   1.119   9.162 -0.1640  0.7582 -0.3131
  812MOL0     N11935   2.742   1.121   9.219 -0.6054  0.1480 -0.7558
  812MOL0     C11936   2.856   1.043   9.177  0.0445 -0.4517 -0.0444
  812MOL0     C11937   2.957   1.078   9.256  0.4950  0.3371  0.6902
  812MOL0     C11938   3.099   1.031   9.256  0.3693 -0.0430 -0.9733
  812MOL0     C11939   3.192   1.123   9.342  0.1426  0.1967 -0.0174
  812MOL0     C11940   3.340   1.083   9.316  0.8783 -0.2224 -0.9486
  812MOL0     C11941   3.424   1.147   9.421 -0.0969  0.0510 -0.3385
  812MOL0     O11942   3.562   1.102   9.402 -0.4479 -0.0840 -0.0881
  812MOL0     C11943   3.668   1.158   9.470  0.0025 -0.7113 -1.0261
  812MOL0     C11944   3.656   1.239   9.582  0.4210  0.5802  0.2521
  812MOL0     C11945   3.772   1.275   9.655 -0.6053  0.7073  0.7311
  812MOL0     C11946   3.739   1.353   9.779 -0.4555  0.6081 -0.0121
  812MOL0     C11947   3.902   1.232   9.622 -0.1170  1.8005 -0.0392
  812MOL0     C11948   4.033   1.270   9.690 -0.1894  0.2069 -0.0688
  812MOL0     O11949   4.146   1.195   9.656  0.2434  0.2296 -0.2074
  812MOL0     C11950   4.278   1.240   9.644 -0.1665 -0.8644 -0.2965
  812MOL0     C11951   4.377   1.155   9.609 -0.5980 -0.5630 -0.4605
  812MOL0     C11952   4.510   1.202   9.590  0.0649  0.3755  0.0900
  812MOL0     C11953   4.540   1.336   9.599  0.0324 -0.8825 -0.1059
  812MOL0     O11954   4.676   1.382   9.587  0.1256 -0.2132 -0.1148
  812MOL0     C11955   4.703   1.525   9.598  0.4055  0.6360  0.0555
  812MOL0     C11956   4.721   1.558   9.749 -0.1259  0.2925  1.3834
  812MOL0     C11957   4.871   1.560   9.790 -0.8777 -0.4481  0.7760
  812MOL0     C11958   4.889   1.550   9.946  0.1594  0.3728  0.0977
  812MOL0     C11959   5.040   1.530   9.995  0.4926  0.0811  0.4956
  812MOL0     C11960   5.076   1.534  10.140  0.3641  0.2273  0.3468
  812MOL0     C11961   5.228   1.512  10.166  0.6588 -0.0204  0.4174
  812MOL0     C11962   5.315   1.617  10.099 -0.3079 -0.3526  0.0455
  812MOL0    Cl11963   5.495   1.585  10.116  0.1170  0.1800  0.3956
  812MOL0     C11964   4.438   1.425   9.637 -0.2079 -0.3869  0.4800
  812MOL0     C11965   4.309   1.375   9.658  0.0560  0.1030 -0.6524
  812MOL0     O11966   4.030   1.359   9.778 -0.0763  0.0092 -0.1029
  812MOL0     C11967   3.902   1.142   9.513 -0.7279  0.3231  0.5843
  812MOL0     C11968   3.787   1.099   9.443 -0.0405  0.4054  0.2866
  812MOL0     N11969   2.914   1.188   9.329  0.3271 -0.2542 -0.9599
  812MOL0     N11970   2.786   1.207   9.311 -0.5184 -0.3770  0.1081
  812MOL0     C11971   1.577   1.148   9.616  0.0209  0.6188 -0.0743
  812MOL0     C11972   1.484   1.141   9.718  0.6474 -0.3201  0.1569
  812MOL0     C11973   1.069   0.998   9.894 -0.8999 -0.3516 -0.3395
  812MOL0     C11974   0.961   1.086   9.924 -0.7900  0.2937 -0.6228
  812MOL0     C11975   0.847   1.046   9.996  0.4668  0.3575  0.8703
  812MOL0     C11976   0.847   0.919  10.043 -0.0118 -0.6089 -0.2087
  812MOL0     O11977   0.738   0.872  10.110  0.2554  0.2246  0.0085
  812MOL0     C11978   0.733   0.749  10.181  1.6542  0.4438  0.1918
  812MOL0     C11979   0.605   0.744  10.275 -0.4973  0.2822  0.2007
  812MOL0     C11980   0.630   0.821  10.412  0.2356 -0.2075  0.0422
  812MOL0     C11981   0.491   0.858  10.473  0.0413  0.1627  0.2777
  812MOL0     C11982   0.393   0.743  10.478 -0.0181  0.4755  0.5310
  812MOL0     C11983   0.311   0.654  10.490  0.4585  0.1733 -0.4981
  812MOL0     C11984   0.956   0.834  10.018  0.4208 -0.0800  0.6372
  812MOL0     C11985   1.072   0.868   9.949  0.7138 -0.2931  0.1329
  812MOL0     C11986   1.180   0.770   9.926 -1.0448  0.3363 -0.0159
  812MOL0     H11987   1.383   0.821   9.683 -1.2538  0.3371 -0.5406
  812MOL0     H11988   1.561   0.841   9.494  0.0877  0.3499  0.2822
  812MOL0     H11989   1.699   0.890   9.355 -1.7426  3.4703 -0.1953
  812MOL0     H11990   1.833   0.879   9.478 -1.3156 -4.8085 -2.3688
  812MOL0     H11991   1.870   0.925   9.214 -2.1269  0.2284  0.5458
  812MOL0     H11992   1.863   1.093   9.274 -1.5142  0.3731  1.8500
  812MOL0     H11993   2.038   1.056   9.447  2.7107 -1.4561  0.1693
  812MOL0     H11994   2.043   0.893   9.394  2.3949  1.0940  1.1682
  812MOL0     H11995   2.108   0.982   9.169 -2.1340  2.0682 -1.6905
  812MOL0     H11996   2.096   1.151   9.220 -1.9197 -0.3064  1.1942
  812MOL0     H11997   2.280   0.949   9.354  1.4047  1.2354  1.7029
  812MOL0     H11998   2.274   1.133   9.376  2.1744  1.2747 -2.4750
  812MOL0     H11999   2.379   0.991   9.124 -0.8836 -0.9988 -0.0504
  812MOL0     H12000   2.350   1.169   9.165  0.4607  0.2639  1.3699
  812MOL0     H12001   2.533   0.980   9.318 -1.4413  0.8496  0.9841
  812MOL0     H12002   2.509   1.155   9.345  1.3645  0.4965 -0.2671
  812MOL0     H12003   2.613   1.058   9.071  1.6089 -0.1387  0.2430
  812MOL0     H12004   2.596   1.223   9.132 -1.5765 -0.2920 -3.5709
  812MOL0     H12005   2.861   0.969   9.097 -0.4924 -0.2037 -0.3129
  812MOL0     H12006   3.136   1.021   9.154 -0.0085  2.1250 -1.3724
  812MOL0     H12007   3.092   0.935   9.309  1.8877 -0.6671 -1.8598
  812MOL0     H12008   3.167   1.227   9.322 -2.4655  0.3807  3.2986
  812MOL0     H12009   3.167   1.105   9.447  0.6955 -0.5163  0.0009
  812MOL0     H12010   3.351   0.975   9.325  2.3426 -0.0281 -0.1825
  812MOL0     H12011   3.369   1.123   9.218  3.1715  0.4369 -0.0659
  812MOL0     H12012   3.412   1.256   9.425 -2.0209 -0.0987 -1.2144
  812MOL0     H12013   3.385   1.112   9.517 -0.0752 -0.8349 -0.6465
  812MOL0     H12014   3.558   1.275   9.612  0.2703 -1.4789  2.5879
  812MOL0     H12015   3.789   1.306   9.864 -3.4881 -0.4339  1.3569
  812MOL0     H12016   3.630   1.355   9.786 -0.3982 -0.0912  1.4681
  812MOL0     H12017   3.775   1.455   9.768  4.0770 -0.7849  0.1185
  812MOL0     H12018   4.342   1.057   9.576 -3.6099 -0.5651  2.2577
  812MOL0     H12019   4.595   1.143   9.559 -0.4560 -0.2711 -0.1529
  812MOL0     H12020   4.791   1.546   9.538  0.9970 -2.8628 -0.5071
  812MOL0     H12021   4.619   1.581   9.557  1.2473 -0.5228 -3.5984
  812MOL0     H12022   4.686   1.659   9.774  0.1692  0.7036  0.2016
  812MOL0     H12023   4.674   1.481   9.811 -0.1519 -3.8949 -3.2370
  812MOL0     H12024   4.922   1.652   9.760  1.7052 -2.4111 -1.4842
  812MOL0     H12025   4.929   1.484   9.737 -0.3753  0.1105  0.5169
  812MOL0     H12026   4.828   1.463   9.971 -1.2315  0.5356 -2.3374
  812MOL0     H12027   4.837   1.633   9.995  0.7214  0.6930  0.1592
  812MOL0     H12028   5.073   1.433   9.957  3.3312  0.9571  0.4917
  812MOL0     H12029   5.100   1.603   9.939 -1.3351  1.9916  0.8973
  812MOL0     H12030   5.024   1.454  10.192  0.8997 -0.7928 -0.6484
  812MOL0     H12031   5.043   1.633  10.174 -0.4633 -0.6672  2.2694
  812MOL0     H12032   5.240   1.409  10.130 -3.0715  0.3405 -2.4259
  812MOL0     H12033   5.235   1.523  10.275 -0.6252 -1.7272  0.7112
  812MOL0     H12034   5.303   1.711  10.153  0.3669  0.8253 -1.7538
  812MOL0     H12035   5.286   1.629   9.994 -1.7439 -0.0626  0.4539
  812MOL0     H12036   4.453   1.531   9.658 -0.5134  0.0042 -1.1182
  812MOL0     H12037   4.228   1.439   9.693 -1.2646 -0.5833 -2.2926
  812MOL0     H12038   3.994   1.105   9.468 -3.0572 -0.9988 -3.6706
  812MOL0     H12039   3.794   1.027   9.363 -2.1876  1.9994 -1.4821
  812MOL0     H12040   1.639   1.237   9.613  0.4949  0.2773 -3.4449
  812MOL0     H12041   1.458   1.227   9.780 -2.0705 -1.2529  0.4589
  812MOL0     H12042   0.976   1.186   9.885 -0.8351 -0.3460 -2.3612
  812MOL0     H12043   0.755   1.103  10.007 -1.1735 -1.4944 -1.9453
  812MOL0     H12044   0.716   0.669  10.108 -0.9527 -1.2233  2.4510
  812MOL0     H12045   0.821   0.720  10.240  1.1116 -0.4742  0.5773
  812MOL0     H12046   0.579   0.639  10.295  1.7214 -0.1851  1.0066
  812MOL0     H12047   0.522   0.790  10.222 -2.1312 -0.8820  1.6210
  812MOL0     H12048   0.684   0.766  10.490  0.1635  0.1978  0.3793
  812MOL0     H12049   0.680   0.916  10.394  0.1436  1.5040  6.3257
  812MOL0     H12050   0.458   0.944  10.415  0.0161 -1.0498 -1.5788
  812MOL0     H12051   0.490   0.892  10.577 -2.9486 -2.2232  1.1837
  812MOL0     H12052   0.217   0.603  10.495 -0.1447  1.3874  1.5318
  812MOL0     H12053   0.939   0.733  10.053  0.0243  0.6750  2.7917
  812MOL0     H12054   1.276   0.789   9.975 -0.3783 -2.7590  0.0603
  812MOL0     H12055   1.152   0.675   9.973  0.8166 -0.0594  0.3478
  812MOL0     H12056   1.195   0.766   9.817 -0.1857  3.4174 -0.1220
  813MOL0     O12057  10.594  10.302   1.603 -0.2837 -0.3977 -0.8010
  813MOL0     C12058  10.565  10.237   1.704  0.1453 -0.0003 -0.3142
  813MOL0     O12059  10.645  10.220   1.820  0.3113 -0.0952 -0.0248
  813MOL0     C12060  10.781  10.247   1.821 -1.0187 -0.9356 -1.1018
  813MOL0     C12061  10.823  10.379   1.826 -0.1282 -0.2269  0.5867
  813MOL0     C12062  10.959  10.414   1.869  0.5088  0.2439 -0.1609
  813MOL0     C12063  11.056  10.309   1.881 -0.4028 -0.6315  1.2790
  813MOL0     O12064  11.180  10.361   1.926  0.7243  0.4021  0.3224
  813MOL0     C12065  11.293  10.298   1.878  0.4130 -0.3955  0.0702
  813MOL0     C12066  11.407  10.393   1.900  0.6076 -0.8543 -0.2203
  813MOL0     C12067  11.541  10.322   1.898  0.5685 -0.3810 -0.0972
  813MOL0     C12068  11.641  10.408   1.982  0.0912 -0.4564 -0.1607
  813MOL0     C12069  11.765  10.335   2.043  0.5255 -0.2345  0.5159
  813MOL0     C12070  11.728  10.245   2.157  0.0838 -0.2017  0.0931
  813MOL0     C12071  11.860  10.209   2.231  1.0346  1.4803  0.1431
  813MOL0     C12072  11.852  10.096   2.335 -0.0269  1.2723  0.4785
  813MOL0     N12073  11.773  10.143   2.456 -0.0591  0.8197  1.2131
  813MOL0     C12074  11.821  10.214   2.567 -0.7762  0.6397  0.2927
  813MOL0     C12075  11.715  10.209   2.654  0.6225  0.1018  0.1945
  813MOL0     C12076  11.720  10.278   2.787 -0.3242  0.0103  0.1170
  813MOL0     C12077  11.738  10.191   2.910 -0.4824  0.7583 -0.5243
  813MOL0     C12078  11.819  10.064   2.882  0.1973  0.7987  0.0241
  813MOL0     C12079  11.830   9.979   3.012  0.6627 -0.2942 -0.1053
  813MOL0     O12080  11.880  10.056   3.123  0.9150  0.0254  0.1193
  813MOL0     C12081  12.018  10.062   3.138 -0.0656  0.0603 -0.3922
  813MOL0     C12082  12.122  10.008   3.052 -0.2943 -0.9221  0.4656
  813MOL0     C12083  12.262  10.022   3.065 -1.3388 -0.0103  0.4818
  813MOL0     C12084  12.351   9.970   2.955  0.3098  0.0718  0.2704
  813MOL0     C12085  12.302  10.088   3.185  0.0976  0.1586 -0.8265
  813MOL0     C12086  12.450  10.119   3.226 -0.2601  0.3686 -0.4831
  813MOL0     O12087  12.546  10.083   3.139 -1.0544 -0.5692 -0.5033
  813MOL0     C12088  12.681  10.087   3.164 -0.2404  0.1822  0.2670
  813MOL0     C12089  12.752  10.193   3.210 -0.5222  0.0999  0.3092
  813MOL0     C12090  12.890  10.191   3.226  0.5905  0.8496 -0.4527
  813MOL0     C12091  12.972  10.080   3.193  0.3630  0.7995  0.2297
  813MOL0     O12092  13.107  10.071   3.216  0.5441 -1.4103  0.2601
  813MOL0     C12093  13.184  10.189   3.240  0.4874 -0.3383  0.0450
  813MOL0     C12094  13.336  10.165   3.250 -0.4885 -0.0358  0.7837
  813MOL0     C12095  13.416  10.295   3.255 -0.2556  1.1429  1.0132
  813MOL0     C12096  13.548  10.269   3.316  0.8979  0.0764  0.8052
  813MOL0     C12097  13.613  10.408   3.340 -0.3595  0.3143  0.1431
  813MOL0     C12098  13.737  10.389   3.434 -0.5164 -0.3739 -0.0557
  813MOL0     C12099  13.824  10.511   3.446 -0.0513 -0.7646  0.6807
  813MOL0     C12100  13.758  10.623   3.523 -1.2331  0.6314 -0.6092
  813MOL0    Cl12101  13.812  10.615   3.705 -0.2087  0.2794  0.0707
  813MOL0     C12102  12.900   9.961   3.151  0.1508 -0.2421  0.0086
  813MOL0     C12103  12.758   9.967   3.135  0.3858 -0.1362 -0.1193
  813MOL0     O12104  12.475  10.168   3.337  0.5342 -0.2972  0.5126
  813MOL0     C12105  12.205  10.135   3.274  0.0370 -0.1493 -0.5694
  813MOL0     C12106  12.066  10.127   3.251  0.0274  0.6915  0.7278
  813MOL0     N12107  11.608  10.123   2.602 -0.0416  0.0140 -0.1569
  813MOL0     N12108  11.645  10.097   2.479  0.2611 -0.1298  0.0803
  813MOL0     C12109  11.015  10.179   1.864 -0.0451 -0.1110 -0.2874
  813MOL0     C12110  10.881  10.151   1.838 -0.2424  0.2158 -0.3468
  813MOL0     C12111  10.434  10.172   1.696 -0.0130 -1.0243 -0.7738
  813MOL0     C12112  10.323  10.242   1.642 -0.3323  0.3366  0.8705
  813MOL0     C12113  10.194  10.195   1.634 -0.1321 -0.0925 -0.4703
  813MOL0     C12114  10.166  10.069   1.683 -0.0246 -0.6731 -0.2995
  813MOL0     O12115  10.037  10.026   1.665 -0.4313  0.0345 -0.0747
  813MOL0     C12116  10.016   9.887   1.685  0.3013  0.0990 -0.2845
  813MOL0     C12117   9.875   9.853   1.648  0.4573 -0.7697  0.3669
  813MOL0     C12118   9.852   9.702   1.634  0.2981  0.0731 -0.8788
  813MOL0     C12119   9.718   9.649   1.689  0.7624 -0.2191 -0.6042
  813MOL0     C12120   9.693   9.707   1.816  0.1954 -0.1874 -0.2781
  813MOL0     C12121   9.662   9.765   1.919 -0.0398  0.1931 -0.2670
  813MOL0     C12122  10.275   9.998   1.737 -0.1918 -0.7958 -0.4159
  813MOL0     C12123  10.407  10.046   1.748 -0.6720 -0.4092  0.4725
  813MOL0     C12124  10.511   9.961   1.812 -0.4701 -0.3444 -0.3793
  813MOL0     H12125  10.746  10.452   1.804  0.7278  1.0837  1.7967
  813MOL0     H12126  10.990  10.518   1.881 -1.2729  0.9693 -1.4529
  813MOL0     H12127  11.290  10.275   1.771  3.5884  0.2248 -0.2334
  813MOL0     H12128  11.308  10.202   1.929  1.0330 -1.2133 -1.5801
  813MOL0     H12129  11.421  10.465   1.819  0.2999  0.7004  1.0567
  813MOL0     H12130  11.379  10.450   1.989 -0.6536 -1.3135 -0.2943
  813MOL0     H12131  11.527  10.222   1.940 -2.4321 -0.6155 -1.3998
  813MOL0     H12132  11.575  10.309   1.795  3.2261 -1.8600  0.8726
  813MOL0     H12133  11.683  10.488   1.920 -0.9299  2.9432  3.1783
  813MOL0     H12134  11.590  10.441   2.072 -0.4085 -1.6153  0.0053
  813MOL0     H12135  11.837  10.409   2.078  0.6449 -0.2745  0.3528
  813MOL0     H12136  11.815  10.282   1.961  0.9259 -0.3224  0.8126
  813MOL0     H12137  11.662  10.297   2.227  1.6126  2.2896 -0.1939
  813MOL0     H12138  11.684  10.150   2.124  0.5921 -0.1570 -0.7557
  813MOL0     H12139  11.888  10.303   2.279  1.9417  0.5771  1.4658
  813MOL0     H12140  11.941  10.172   2.167  1.4454  0.7240  1.0644
  813MOL0     H12141  11.806  10.002   2.301  0.3954  0.8877  0.9452
  813MOL0     H12142  11.955  10.071   2.360 -0.2855  2.4222  3.0820
  813MOL0     H12143  11.912  10.272   2.581  2.3230 -3.6933  0.2986
  813MOL0     H12144  11.628  10.334   2.804  0.2912  1.3575 -0.7798
  813MOL0     H12145  11.796  10.357   2.790 -0.9038  0.6650 -1.3637
  813MOL0     H12146  11.787  10.253   2.986  1.6966  0.8380 -1.8929
  813MOL0     H12147  11.637  10.166   2.943 -0.2774  0.3612 -0.1833
  813MOL0     H12148  11.778  10.010   2.797  2.2643  0.2092 -0.6563
  813MOL0     H12149  11.920  10.090   2.849 -0.6762 -0.3246 -4.0563
  813MOL0     H12150  11.724   9.962   3.036  0.2127 -0.6222 -2.1307
  813MOL0     H12151  11.878   9.881   3.004  4.4476  1.0644  2.7489
  813MOL0     H12152  12.090   9.954   2.963 -0.9175 -1.5891  1.0761
  813MOL0     H12153  12.414   9.886   2.988  0.2667 -0.0183  0.1203
  813MOL0     H12154  12.414  10.054   2.922  0.2831  1.4812  3.4415
  813MOL0     H12155  12.296   9.942   2.865 -1.4682 -0.0192  1.3491
  813MOL0     H12156  12.691  10.274   3.248 -3.5893 -1.4573 -0.9729
  813MOL0     H12157  12.932  10.275   3.279 -3.7193  2.7965  0.3071
  813MOL0     H12158  13.175  10.259   3.156 -1.0184 -2.7661 -1.9455
  813MOL0     H12159  13.158  10.239   3.334 -0.5832 -0.9509  0.0873
  813MOL0     H12160  13.352  10.108   3.341 -1.0093 -0.3407  0.6873
  813MOL0     H12161  13.367  10.106   3.163  0.1006 -0.3362  1.1903
  813MOL0     H12162  13.362  10.364   3.320  2.4153  2.7863  1.6312
  813MOL0     H12163  13.437  10.341   3.158  1.6942  0.2376  0.9503
  813MOL0     H12164  13.606  10.204   3.250 -1.9702 -1.5042 -0.2929
  813MOL0     H12165  13.534  10.215   3.410  1.8193 -3.3129 -0.8693
  813MOL0     H12166  13.651  10.448   3.245  0.3770  0.0039  0.2947
  813MOL0     H12167  13.545  10.479   3.387 -1.6016 -0.9829  0.3830
  813MOL0     H12168  13.801  10.306   3.402 -1.3290 -1.5131  1.1898
  813MOL0     H12169  13.715  10.351   3.534  3.8468  1.2397  1.7784
  813MOL0     H12170  13.841  10.538   3.341 -1.5509  0.5689  0.7210
  813MOL0     H12171  13.921  10.495   3.493  0.5081 -0.8168 -0.4552
  813MOL0     H12172  13.649  10.622   3.514 -1.1399  1.9918 -2.5447
  813MOL0     H12173  13.794  10.718   3.483  0.0677  0.3238 -0.2142
  813MOL0     H12174  12.945   9.863   3.145 -1.9557 -1.8238  5.2182
  813MOL0     H12175  12.711   9.871   3.113  0.3701 -0.0411 -0.5059
  813MOL0     H12176  12.228  10.165   3.376  1.8701  0.1851 -1.0450
  813MOL0     H12177  11.991  10.176   3.313 -0.8714  0.8150 -0.4269
  813MOL0     H12178  11.099  10.113   1.883  1.1546  1.3522 -0.3580
  813MOL0     H12179  10.851  10.047   1.847 -0.3540  0.2543 -0.2732
  813MOL0     H12180  10.337  10.343   1.605 -0.8685  0.7910  1.8708
  813MOL0     H12181  10.117  10.258   1.592 -1.9362 -1.1840  1.0444
  813MOL0     H12182  10.080   9.834   1.614  0.1793  1.4577 -1.4597
  813MOL0     H12183  10.044   9.850   1.784  3.1641 -1.9377 -1.7019
  813MOL0     H12184   9.853   9.896   1.550  1.2269  0.3512  0.6675
  813MOL0     H12185   9.816   9.903   1.725 -1.0152  0.7140 -1.6229
  813MOL0     H12186   9.860   9.695   1.526  1.1360  0.4017 -0.8454
  813MOL0     H12187   9.935   9.651   1.686  1.6734  2.1012 -0.9700
  813MOL0     H12188   9.718   9.540   1.703  1.4061 -0.3694 -1.6704
  813MOL0     H12189   9.634   9.678   1.626  0.5253 -0.0319 -0.2057
  813MOL0     H12190   9.632   9.816   2.008  0.4972 -1.8497  1.1638
  813MOL0     H12191  10.254   9.903   1.786 -2.2472  0.4999  1.3923
  813MOL0     H12192  10.475   9.862   1.841  0.0483 -0.0090  1.5491
  813MOL0     H12193  10.585   9.945   1.733 -1.3834  1.5705 -1.7101
  813MOL0     H12194  10.551  10.007   1.903 -2.8549  2.4306 -0.5808
  814MOL0     O12195   4.056   5.053   5.620 -1.3439  0.0451 -0.4028
  814MOL0     C12196   4.174   5.069   5.659 -0.9050 -0.8272  0.3606
  814MOL0     O12197   4.284   5.056   5.585 -0.5354 -0.3657  0.6327
  814MOL0     C12198   4.271   4.981   5.471  0.2607 -0.1730  0.6927
  814MOL0     C12199   4.304   5.038   5.345 -0.3522  0.3012  0.8181
  814MOL0     C12200   4.296   4.969   5.227 -1.0836  1.1507 -0.0423
  814MOL0     C12201   4.265   4.832   5.222  0.4250 -0.5259  0.2676
  814MOL0     O12202   4.279   4.767   5.107 -0.0623  0.7602 -0.3432
  814MOL0     C12203   4.260   4.622   5.107 -0.4012 -0.7766 -0.3065
  814MOL0     C12204   4.236   4.570   4.966 -0.2381  0.9751  0.1173
  814MOL0     C12205   4.355   4.528   4.883 -0.7550  0.4226 -0.5099
  814MOL0     C12206   4.473   4.629   4.890  0.5100  1.0054 -0.8305
  814MOL0     C12207   4.581   4.582   4.794 -0.2147 -0.5076  0.2825
  814MOL0     C12208   4.687   4.488   4.850  0.5021 -0.8006 -0.2955
  814MOL0     C12209   4.782   4.554   4.959  0.1446 -0.7326 -0.7227
  814MOL0     C12210   4.882   4.454   5.013 -0.1973 -0.1574 -0.5646
  814MOL0     N12211   4.940   4.517   5.126 -0.2832  0.0306 -0.0753
  814MOL0     C12212   4.913   4.479   5.258  0.4013  0.1441  0.2815
  814MOL0     C12213   4.974   4.581   5.329  0.1971  0.3059  0.6589
  814MOL0     C12214   4.980   4.603   5.476  0.5856  0.5239  0.0648
  814MOL0     C12215   5.110   4.581   5.541  0.3844  0.1119  0.6108
  814MOL0     C12216   5.140   4.440   5.564  0.0726  0.7123 -0.5615
  814MOL0     C12217   5.285   4.435   5.625  0.1378 -0.2264 -0.3355
  814MOL0     O12218   5.324   4.306   5.651 -0.1232  0.2372 -0.7596
  814MOL0     C12219   5.446   4.283   5.710  0.5242  0.3521  0.0083
  814MOL0     C12220   5.477   4.145   5.720 -0.7727 -0.4925 -0.3156
  814MOL0     C12221   5.592   4.103   5.790  0.9455 -0.9520  0.6820
  814MOL0     C12222   5.622   3.960   5.815 -0.4091  0.0575 -0.0822
  814MOL0     C12223   5.677   4.208   5.840  0.0648  0.1037 -0.1827
  814MOL0     C12224   5.797   4.178   5.923 -0.0438  0.1531  0.1785
  814MOL0     O12225   5.874   4.069   5.888  0.2257 -0.0865  0.2204
  814MOL0     C12226   5.987   4.046   5.961 -0.1901 -0.1808  1.0083
  814MOL0     C12227   5.982   3.983   6.082  0.3951  0.0522 -0.3800
  814MOL0     C12228   6.094   3.951   6.161  0.3251  1.2165  0.2987
  814MOL0     C12229   6.219   3.980   6.104 -0.4993  0.7562 -0.4669
  814MOL0     O12230   6.322   3.940   6.178  0.3283 -0.6483 -0.0537
  814MOL0     C12231   6.457   3.963   6.141 -0.4098 -0.0073  0.0761
  814MOL0     C12232   6.558   3.918   6.253 -0.1742 -0.2066  0.4097
  814MOL0     C12233   6.610   3.780   6.229 -0.1069 -0.4970 -0.6172
  814MOL0     C12234   6.715   3.759   6.347  0.2213 -0.0125 -0.1850
  814MOL0     C12235   6.788   3.635   6.314 -0.1943  0.5995  0.6588
  814MOL0     C12236   6.879   3.568   6.422 -0.6273 -0.3433 -0.2970
  814MOL0     C12237   6.969   3.462   6.371  0.2638  0.5637  0.3171
  814MOL0     C12238   7.049   3.399   6.488  0.3512  0.4769  0.0076
  814MOL0    Cl12239   7.136   3.246   6.438 -0.0128 -0.0540 -0.3170
  814MOL0     C12240   6.225   4.050   5.979 -0.6122 -0.4038 -0.3702
  814MOL0     C12241   6.112   4.074   5.905  0.2042  0.2401 -0.3697
  814MOL0     O12242   5.823   4.255   6.012  0.3280 -0.3985 -0.3331
  814MOL0     C12243   5.645   4.342   5.830  0.7007 -0.8302 -0.0978
  814MOL0     C12244   5.536   4.373   5.752  0.4767 -0.8412  0.0182
  814MOL0     N12245   5.038   4.671   5.244  0.2287 -0.8663 -0.3029
  814MOL0     N12246   5.023   4.623   5.122 -0.6140 -0.0825 -0.1898
  814MOL0     C12247   4.239   4.767   5.349 -0.2084 -1.1300  0.1602
  814MOL0     C12248   4.256   4.838   5.470  0.3343 -0.8033 -0.6131
  814MOL0     C12249   4.196   5.085   5.808  0.5493  0.0521  0.0522
  814MOL0     C12250   4.084   5.090   5.893  0.1498  0.6566  0.3854
  814MOL0     C12251   4.089   5.074   6.029  0.0264 -1.0601  0.8771
  814MOL0     C12252   4.215   5.077   6.090 -0.8938  0.5321 -0.1714
  814MOL0     O12253   4.226   5.064   6.230 -0.4484 -0.8765 -0.1934
  814MOL0     C12254   4.120   5.098   6.316 -0.0158 -0.0631 -0.1532
  814MOL0     C12255   4.109   5.247   6.308  0.2263 -0.1937 -0.5814
  814MOL0     C12256   4.235   5.324   6.313 -0.2481 -0.3973  0.4520
  814MOL0     C12257   4.214   5.468   6.356  0.1207 -0.1647 -0.1595
  814MOL0     C12258   4.336   5.541   6.394  0.1318  0.3077  0.7157
  814MOL0     C12259   4.410   5.618   6.439  0.0508 -0.0248  0.7685
  814MOL0     C12260   4.329   5.077   6.014  0.6683  0.6637  0.0849
  814MOL0     C12261   4.321   5.080   5.877  0.1811  0.5941  0.4366
  814MOL0     C12262   4.463   5.067   5.807 -0.4748 -0.9315 -0.4671
  814MOL0     H12263   4.333   5.142   5.334  2.1439 -0.4525 -0.3898
  814MOL0     H12264   4.326   5.017   5.135 -0.5729  0.2720 -0.3399
  814MOL0     H12265   4.172   4.598   5.169  0.0913 -3.4855 -0.5754
  814MOL0     H12266   4.350   4.583   5.154  0.3883  3.8021  2.7230
  814MOL0     H12267   4.171   4.484   4.984  1.1900  0.1747  1.7446
  814MOL0     H12268   4.181   4.645   4.909  1.0161  0.1456 -2.3277
  814MOL0     H12269   4.386   4.431   4.925 -0.2784  1.5710  1.9511
  814MOL0     H12270   4.330   4.506   4.779 -3.9526 -1.0237  0.4387
  814MOL0     H12271   4.433   4.726   4.859 -1.1771 -0.4531 -3.6245
  814MOL0     H12272   4.509   4.628   4.993  0.0353  1.0016 -0.6614
  814MOL0     H12273   4.635   4.676   4.788 -1.7795  0.7475  3.5022
  814MOL0     H12274   4.545   4.556   4.694 -1.3240  1.5732  0.0837
  814MOL0     H12275   4.637   4.398   4.888 -1.4702  1.0234  1.6820
  814MOL0     H12276   4.744   4.446   4.767  2.7665 -0.7727  1.1372
  814MOL0     H12277   4.721   4.580   5.046  1.1504  0.9204 -0.4653
  814MOL0     H12278   4.830   4.647   4.926 -4.9316  2.1343 -1.0796
  814MOL0     H12279   4.827   4.366   5.047 -1.4003  0.7093 -0.1760
  814MOL0     H12280   4.957   4.431   4.937 -1.2553 -1.2926 -1.3044
  814MOL0     H12281   4.862   4.387   5.283 -0.0623  0.0953 -0.7805
  814MOL0     H12282   4.902   4.544   5.527 -0.4094 -0.1017 -2.0476
  814MOL0     H12283   4.957   4.709   5.486 -0.1667  0.6039 -2.0336
  814MOL0     H12284   5.193   4.632   5.490 -2.0090  2.8747 -0.8004
  814MOL0     H12285   5.093   4.632   5.636 -0.5644  0.1093  0.4521
  814MOL0     H12286   5.074   4.396   5.639  1.1563 -0.2595 -0.1697
  814MOL0     H12287   5.135   4.382   5.471 -0.6633 -1.9682  1.0593
  814MOL0     H12288   5.352   4.483   5.554 -0.3599 -2.2570 -2.2986
  814MOL0     H12289   5.280   4.504   5.710 -1.6892 -1.8605  0.9919
  814MOL0     H12290   5.391   4.087   5.688 -1.6550  0.8875 -0.5090
  814MOL0     H12291   5.533   3.898   5.803 -0.2332  0.0364 -1.4334
  814MOL0     H12292   5.658   3.947   5.917  0.5559  0.8658 -0.3005
  814MOL0     H12293   5.701   3.928   5.746 -0.6303 -0.3455 -0.1554
  814MOL0     H12294   5.889   3.958   6.132  0.6941  2.4297  1.5876
  814MOL0     H12295   6.083   3.913   6.262  1.3008 -0.3191 -0.1391
  814MOL0     H12296   6.469   3.908   6.047  0.9202  1.6068 -0.7468
  814MOL0     H12297   6.469   4.069   6.118 -0.0856  0.1906  1.0912
  814MOL0     H12298   6.641   3.988   6.264  0.0648 -0.6637  1.6405
  814MOL0     H12299   6.507   3.925   6.349 -0.7329 -0.1814  0.1167
  814MOL0     H12300   6.667   3.772   6.136 -0.9565 -1.9216 -1.0398
  814MOL0     H12301   6.524   3.712   6.229 -1.3481  0.9290  1.7995
  814MOL0     H12302   6.658   3.746   6.439  1.7090 -0.8378  0.6583
  814MOL0     H12303   6.780   3.847   6.351  1.4074 -0.7972 -1.2997
  814MOL0     H12304   6.718   3.562   6.274 -1.6570  2.4668 -0.3595
  814MOL0     H12305   6.849   3.669   6.230 -0.8437 -0.0815 -0.0937
  814MOL0     H12306   6.806   3.530   6.495 -1.0739  0.2031 -0.4535
  814MOL0     H12307   6.938   3.648   6.468 -0.5591 -0.3763 -0.3276
  814MOL0     H12308   7.040   3.505   6.300 -0.6912  0.8935 -0.4768
  814MOL0     H12309   6.917   3.386   6.312  1.8961  0.7653 -1.4730
  814MOL0     H12310   6.989   3.376   6.576  1.8323  2.4050  1.6230
  814MOL0     H12311   7.127   3.472   6.510  1.4190 -0.6950  0.2092
  814MOL0     H12312   6.318   4.082   5.933 -0.8504  4.2785  1.8296
  814MOL0     H12313   6.110   4.128   5.810 -1.8129 -0.6349 -0.8790
  814MOL0     H12314   5.706   4.422   5.872 -0.7342 -1.1193  2.7556
  814MOL0     H12315   5.506   4.473   5.723  2.8052 -0.3734 -0.9795
  814MOL0     H12316   4.237   4.659   5.362  0.9242 -1.1361  0.3046
  814MOL0     H12317   4.268   4.780   5.561 -0.1173  1.0562  0.6922
  814MOL0     H12318   3.979   5.098   5.864  0.3656 -0.2262 -0.7143
  814MOL0     H12319   3.991   5.070   6.074 -1.1871  4.3690 -0.5732
  814MOL0     H12320   4.028   5.045   6.289  0.7659 -1.3078 -0.4539
  814MOL0     H12321   4.142   5.077   6.422 -0.9935  1.3797  0.3686
  814MOL0     H12322   4.037   5.276   6.385 -1.0000 -2.1680 -0.9029
  814MOL0     H12323   4.051   5.269   6.218  1.1292  0.0460 -1.1214
  814MOL0     H12324   4.306   5.265   6.372  1.3873  0.2500 -0.8108
  814MOL0     H12325   4.271   5.326   6.210  0.9096  1.5900  0.8428
  814MOL0     H12326   4.142   5.483   6.437 -0.6411  1.1232 -1.0327
  814MOL0     H12327   4.172   5.525   6.272  0.6280  0.4378 -0.0162
  814MOL0     H12328   4.486   5.687   6.470  1.7060 -0.1973 -2.4696
  814MOL0     H12329   4.423   5.059   6.066  1.9606 -1.8220 -2.7832
  814MOL0     H12330   4.487   5.156   5.749  1.9784 -0.1785  1.5202
  814MOL0     H12331   4.542   5.067   5.883  0.3194 -2.0590 -1.2593
  814MOL0     H12332   4.470   4.975   5.749  0.7782 -2.8640  2.4771
  815MOL0     O12333   2.049  10.811   9.667 -0.3467 -0.0748  0.8162
  815MOL0     C12334   2.007  10.797   9.550  1.3592 -0.0888  0.8943
  815MOL0     O12335   2.087  10.780   9.441  0.1258 -0.6408  0.2622
  815MOL0     C12336   2.218  10.778   9.459  0.9469  0.2116 -0.7765
  815MOL0     C12337   2.285  10.896   9.480 -0.2876  1.2933 -0.6570
  815MOL0     C12338   2.424  10.893   9.479 -0.0681 -0.8658 -0.7472
  815MOL0     C12339   2.497  10.776   9.460 -1.3798 -0.2917  0.1352
  815MOL0     O12340   2.635  10.777   9.471 -0.2818 -0.5243 -0.1812
  815MOL0     C12341   2.708  10.664   9.424  0.4293 -0.1465 -0.0541
  815MOL0     C12342   2.848  10.678   9.473 -0.3427  1.1474  0.0387
  815MOL0     C12343   2.939  10.764   9.388  0.0416  1.0777 -0.4065
  815MOL0     C12344   3.059  10.811   9.468  0.2073  0.1380 -0.4635
  815MOL0     C12345   3.177  10.856   9.390 -0.6712 -0.6621  0.1378
  815MOL0     C12346   3.281  10.921   9.475 -0.1210 -0.5887 -0.0235
  815MOL0     C12347   3.410  10.959   9.403 -0.5789 -0.0544  0.0394
  815MOL0     C12348   3.513  11.007   9.504 -0.3975  0.1274 -0.7446
  815MOL0     N12349   3.648  11.031   9.449 -0.2324 -0.7394 -0.3397
  815MOL0     C12350   3.754  11.100   9.506  0.0861 -0.2606 -0.9107
  815MOL0     C12351   3.840  11.115   9.403 -0.5036 -0.1480 -0.3123
  815MOL0     C12352   3.967  11.189   9.416  0.0766 -0.1017  0.0304
  815MOL0     C12353   4.075  11.107   9.488 -0.3150  0.4586 -0.2210
  815MOL0     C12354   4.201  11.192   9.493 -0.4003  0.5880 -0.1130
  815MOL0     C12355   4.199  11.303   9.605 -0.0964 -0.1175  0.0914
  815MOL0     O12356   4.219  11.237   9.732 -0.1675  0.3511 -0.5977
  815MOL0     C12357   4.339  11.195   9.778  0.0050 -0.8845 -0.6116
  815MOL0     C12358   4.458  11.230   9.718 -0.5967 -1.2404 -0.4706
  815MOL0     C12359   4.590  11.200   9.761  0.0794  0.0878  0.5018
  815MOL0     C12360   4.706  11.266   9.695  0.1691 -0.4046 -0.1740
  815MOL0     C12361   4.605  11.124   9.880  0.1197  0.1600  0.3601
  815MOL0     C12362   4.733  11.076   9.948 -0.2602  0.0996  0.7397
  815MOL0     O12363   4.717  11.056  10.087  1.0013 -0.8267  0.4495
  815MOL0     C12364   4.835  11.036  10.154  0.5096  0.9392  0.0904
  815MOL0     C12365   4.894  10.907  10.155 -0.4387  0.5744 -0.4554
  815MOL0     C12366   5.021  10.891  10.202 -0.6275  0.5991 -0.0813
  815MOL0     C12367   5.095  10.988  10.269  0.1847  0.0438  0.1907
  815MOL0     O12368   5.225  10.980  10.309 -0.0517 -0.2616 -0.9195
  815MOL0     C12369   5.281  10.852  10.340  0.2477  0.3248  0.0935
  815MOL0     C12370   5.386  10.882  10.452  0.1130 -0.4286 -0.0697
  815MOL0     C12371   5.507  10.788  10.448 -0.2555  0.3439 -0.2297
  815MOL0     C12372   5.614  10.827  10.562 -0.0555  0.3701  0.1454
  815MOL0     C12373   5.723  10.727  10.572 -0.4811  0.1956  0.5570
  815MOL0     C12374   5.805  10.728  10.698  0.6401  0.7151  0.4586
  815MOL0     C12375   5.932  10.644  10.663  0.6160 -0.3058 -0.9795
  815MOL0     C12376   6.016  10.631  10.796  0.4433 -0.8181  0.1417
  815MOL0    Cl12377   6.077  10.790  10.848 -0.0490 -0.2661  0.2072
  815MOL0     C12378   5.030  11.111  10.284 -0.4045  0.4186 -0.3892
  815MOL0     C12379   4.899  11.131  10.227  0.1352 -0.1877 -0.3167
  815MOL0     O12380   4.837  11.063   9.880 -0.0182 -0.1705  0.1896
  815MOL0     C12381   4.480  11.091   9.942  0.3453  0.3711  0.6165
  815MOL0     C12382   4.352  11.113   9.887  0.7608  0.1491 -1.0427
  815MOL0     N12383   3.795  11.043   9.286 -0.1344  0.1232 -0.2910
  815MOL0     N12384   3.678  11.007   9.319  0.4778 -0.4237  0.2148
  815MOL0     C12385   2.427  10.665   9.416  0.1066 -0.5511  0.1377
  815MOL0     C12386   2.285  10.667   9.420 -0.1666 -0.0579 -0.3787
  815MOL0     C12387   1.859  10.805   9.534  0.5297  0.2391  0.4148
  815MOL0     C12388   1.779  10.844   9.645  0.5583  0.0115 -0.3107
  815MOL0     C12389   1.642  10.867   9.626  0.7717 -0.8516 -0.0913
  815MOL0     C12390   1.570  10.856   9.506  0.4283 -0.7561  0.1848
  815MOL0     O12391   1.435  10.877   9.482  0.0258 -0.3624  0.4755
  815MOL0     C12392   1.341  10.923   9.577  0.6708  0.3704 -0.4774
  815MOL0     C12393   1.277  10.794   9.637  0.1367  0.7122 -0.8010
  815MOL0     C12394   1.171  10.830   9.747 -0.2549 -0.1238  0.8769
  815MOL0     C12395   1.089  10.704   9.781 -0.0299  0.3742  0.1853
  815MOL0     C12396   1.183  10.611   9.847 -0.3283 -1.0537  0.3778
  815MOL0     C12397   1.248  10.538   9.924  0.7339 -0.6063 -0.7794
  815MOL0     C12398   1.646  10.800   9.401 -0.1042 -0.7769  0.5278
  815MOL0     C12399   1.790  10.791   9.405  0.6830  0.5740 -0.8252
  815MOL0     C12400   1.854  10.737   9.287 -0.2264  0.5684  0.1015
  815MOL0     H12401   2.231  10.990   9.489 -1.0104  0.9691 -1.4255
  815MOL0     H12402   2.463  10.994   9.489  0.0021 -1.0969  2.3134
  815MOL0     H12403   2.695  10.657   9.315 -2.4995 -0.4391  0.2382
  815MOL0     H12404   2.659  10.580   9.472  0.5956 -0.2364 -0.0390
  815MOL0     H12405   2.850  10.717   9.575 -1.0671  1.8083 -0.1960
  815MOL0     H12406   2.892  10.578   9.473 -2.7561  0.0243  0.3431
  815MOL0     H12407   2.961  10.711   9.295 -0.7314  0.3711 -0.2034
  815MOL0     H12408   2.889  10.856   9.355 -1.4915  0.0477 -1.0755
  815MOL0     H12409   3.031  10.898   9.528 -1.0657 -1.3782  1.2739
  815MOL0     H12410   3.086  10.726   9.532 -0.1835  0.6622  0.4053
  815MOL0     H12411   3.151  10.923   9.307  2.1455 -0.5412 -0.7432
  815MOL0     H12412   3.227  10.776   9.336  1.1765 -0.2445  1.1561
  815MOL0     H12413   3.242  11.013   9.519  0.1784 -1.1499  1.5087
  815MOL0     H12414   3.296  10.856   9.562 -1.5438 -0.7829  0.0932
  815MOL0     H12415   3.387  11.034   9.327 -0.3145  0.1090  0.1239
  815MOL0     H12416   3.459  10.876   9.352  0.8766  0.2212  0.9361
  815MOL0     H12417   3.478  11.101   9.548  0.5446 -0.2494  0.9028
  815MOL0     H12418   3.528  10.926   9.576 -1.2186  0.2939 -0.3706
  815MOL0     H12419   3.752  11.150   9.602 -2.8371  1.2502 -1.6432
  815MOL0     H12420   3.951  11.281   9.473  0.5999  1.5216 -2.2850
  815MOL0     H12421   3.999  11.225   9.317 -1.3664 -1.6826 -1.0667
  815MOL0     H12422   4.048  11.075   9.589 -2.9044  1.8874 -0.3833
  815MOL0     H12423   4.096  11.015   9.433  1.8903  0.8197 -0.0904
  815MOL0     H12424   4.273  11.113   9.517 -1.1454  0.1491  0.7406
  815MOL0     H12425   4.218  11.240   9.396  0.1778 -0.5504 -0.5900
  815MOL0     H12426   4.283  11.368   9.579 -0.2563  0.4618  0.9927
  815MOL0     H12427   4.101  11.350   9.611 -1.1341 -2.1837  0.4389
  815MOL0     H12428   4.460  11.284   9.624  1.4956 -2.8153 -1.4118
  815MOL0     H12429   4.723  11.216   9.599 -0.9773 -2.2611  0.5357
  815MOL0     H12430   4.793  11.274   9.762  0.1543 -0.2275 -0.1752
  815MOL0     H12431   4.680  11.369   9.671  0.0075 -0.4914 -0.3744
  815MOL0     H12432   4.847  10.814  10.124  1.1698  0.0023 -1.2807
  815MOL0     H12433   5.053  10.788  10.190 -3.8334 -0.4491 -0.7863
  815MOL0     H12434   5.208  10.781  10.381 -0.4987 -0.4114 -2.3691
  815MOL0     H12435   5.325  10.821  10.245  1.0119  1.4818  0.0507
  815MOL0     H12436   5.427  10.982  10.437  1.5425 -0.6220  2.0812
  815MOL0     H12437   5.337  10.873  10.549 -1.1750 -0.6775 -0.7267
  815MOL0     H12438   5.555  10.763  10.353  2.8108  1.4301  0.9032
  815MOL0     H12439   5.472  10.691  10.482  1.2717  0.5463  2.1445
  815MOL0     H12440   5.559  10.841  10.656 -2.5979 -0.0484 -1.2111
  815MOL0     H12441   5.672  10.916  10.537  1.7518  0.2979  3.4473
  815MOL0     H12442   5.676  10.628  10.562 -2.9737  1.5555 -4.8136
  815MOL0     H12443   5.783  10.737  10.481 -1.3842 -1.7852 -0.3223
  815MOL0     H12444   5.748  10.674  10.775 -1.1608  0.7533 -0.7767
  815MOL0     H12445   5.826  10.826  10.740 -0.1375  0.5401  1.2957
  815MOL0     H12446   5.982  10.697  10.582 -0.5342 -0.1129 -1.5889
  815MOL0     H12447   5.901  10.540  10.647  1.0759 -1.2152  2.8935
  815MOL0     H12448   6.101  10.562  10.790  1.3653 -0.6736  5.8675
  815MOL0     H12449   5.955  10.594  10.879  0.9125  0.7754  1.2440
  815MOL0     H12450   5.082  11.190  10.337 -0.7284  1.0214 -0.9584
  815MOL0     H12451   4.852  11.229  10.231  0.8970  0.2210 -1.0718
  815MOL0     H12452   4.477  11.034  10.034 -2.4480  2.7554  2.1796
  815MOL0     H12453   4.272  11.067   9.944  2.3565 -2.3408 -0.6668
  815MOL0     H12454   2.466  10.568   9.388 -0.1856 -0.5496 -0.2781
  815MOL0     H12455   2.232  10.585   9.374  0.1834  0.3124 -1.4761
  815MOL0     H12456   1.822  10.872   9.740 -0.9722 -1.3321  0.8310
  815MOL0     H12457   1.596  10.920   9.709  4.0232  2.0836  0.0753
  815MOL0     H12458   1.387  10.976   9.661  1.5670 -2.9297  1.3277
  815MOL0     H12459   1.262  10.975   9.523 -2.6425 -0.9416  2.6778
  815MOL0     H12460   1.360  10.742   9.686 -0.7049 -0.9623 -1.0766
  815MOL0     H12461   1.236  10.728   9.560  3.1600 -1.3800 -0.8044
  815MOL0     H12462   1.212  10.867   9.842 -1.0540  0.0893  1.1515
  815MOL0     H12463   1.098  10.907   9.721  0.3154  0.9621  2.3011
  815MOL0     H12464   1.046  10.661   9.690 -0.0895 -0.6953  0.7025
  815MOL0     H12465   1.004  10.734   9.843  0.3642 -1.1210  1.5149
  815MOL0     H12466   1.303  10.473   9.989 -3.4712 -1.4950  2.2609
  815MOL0     H12467   1.582  10.784   9.315 -1.0148  1.9950  0.6030
  815MOL0     H12468   1.781  10.706   9.212 -1.0766  1.1280  0.6841
  815MOL0     H12469   1.914  10.808   9.229 -1.3263  1.9518  0.5993
  815MOL0     H12470   1.916  10.657   9.328  0.5637  1.3128  0.3906
  816MOL0     O12471   9.877  10.472   1.747 -0.3854 -0.0737  0.0480
  816MOL0     C12472   9.819  10.501   1.851  0.7354  0.3942 -0.4045
  816MOL0     O12473   9.882  10.527   1.973  0.3903 -0.5017  0.1397
  816MOL0     C12474  10.018  10.531   1.980 -0.1764 -0.7176  0.6230
  816MOL0     C12475  10.106  10.434   1.937 -0.4437  0.1501  0.3794
  816MOL0     C12476  10.243  10.445   1.959 -0.2729  0.2361  0.1887
  816MOL0     C12477  10.297  10.558   2.030 -1.0370 -0.1034  0.4046
  816MOL0     O12478  10.430  10.594   2.049  0.7456 -0.1195 -0.2822
  816MOL0     C12479  10.538  10.506   2.025 -0.2247 -0.7062  0.0082
  816MOL0     C12480  10.546  10.403   2.133 -0.1537 -0.2416 -0.0162
  816MOL0     C12481  10.543  10.467   2.271  0.1424  0.2793  0.9199
  816MOL0     C12482  10.580  10.361   2.378  0.3289  0.5862 -0.2776
  816MOL0     C12483  10.584  10.421   2.524  0.3138  0.1599 -0.4500
  816MOL0     C12484  10.666  10.336   2.618 -0.1022  0.0036 -0.4266
  816MOL0     C12485  10.606  10.200   2.635  0.6597  0.2511 -0.5419
  816MOL0     C12486  10.659  10.114   2.754  0.3091 -0.5644  0.2597
  816MOL0     N12487  10.796  10.090   2.729  0.3865 -0.6666 -0.1520
  816MOL0     C12488  10.911  10.162   2.784  0.3375 -0.3394  0.8424
  816MOL0     C12489  11.018  10.106   2.728 -0.4236 -0.9392  0.4255
  816MOL0     C12490  11.158  10.166   2.745 -0.9045  0.0677 -0.6724
  816MOL0     C12491  11.251  10.059   2.820  0.0338 -0.3815  0.1075
  816MOL0     C12492  11.310   9.961   2.715  0.3574  1.0115 -0.1660
  816MOL0     C12493  11.408   9.871   2.788 -0.7229  0.5877 -0.5444
  816MOL0     O12494  11.447   9.764   2.704 -0.7659  0.2322 -0.2638
  816MOL0     C12495  11.581   9.729   2.726 -0.2117 -0.0993 -0.2303
  816MOL0     C12496  11.686   9.789   2.659 -1.3682 -0.2973 -0.0512
  816MOL0     C12497  11.820   9.751   2.677  0.1321 -0.3275 -0.5345
  816MOL0     C12498  11.913   9.811   2.581  0.5505 -0.3762  0.4656
  816MOL0     C12499  11.844   9.652   2.780  0.2004 -1.3227  0.0468
  816MOL0     C12500  11.976   9.631   2.843  0.0358 -0.3906 -0.1390
  816MOL0     O12501  12.087   9.653   2.756 -0.7990  0.1260  0.0694
  816MOL0     C12502  12.216   9.642   2.799 -0.3786 -0.2766  0.7882
  816MOL0     C12503  12.323   9.666   2.699  0.4226  0.1801 -0.2626
  816MOL0     C12504  12.451   9.672   2.724 -0.2753 -0.8686 -0.0796
  816MOL0     C12505  12.500   9.639   2.848 -0.2417 -0.2449  0.9893
  816MOL0     O12506  12.636   9.637   2.870 -0.9263 -0.7897 -0.7640
  816MOL0     C12507  12.692   9.585   2.994  0.6108  0.5927 -0.1892
  816MOL0     C12508  12.841   9.583   2.979  0.1314 -0.5752  0.1269
  816MOL0     C12509  12.899   9.485   2.880  0.6497 -0.0961 -0.1670
  816MOL0     C12510  13.048   9.473   2.897 -0.6057 -0.5010  0.5692
  816MOL0     C12511  13.119   9.385   2.788  0.1749 -0.5698 -0.3326
  816MOL0     C12512  13.274   9.374   2.816 -0.2140 -0.3183  0.1241
  816MOL0     C12513  13.336   9.278   2.710 -0.4436  0.5196  0.0273
  816MOL0     C12514  13.411   9.349   2.599 -0.4633  0.2085 -0.5885
  816MOL0    Cl12515  13.281   9.444   2.500 -0.2304  0.1513 -0.2207
  816MOL0     C12516  12.407   9.608   2.945  0.0172  0.2728  0.1340
  816MOL0     C12517  12.266   9.619   2.925 -0.0843  0.0216  0.0570
  816MOL0     O12518  11.983   9.583   2.959 -0.7167 -0.1555  0.0948
  816MOL0     C12519  11.737   9.593   2.840 -0.0733  0.7419 -0.4101
  816MOL0     C12520  11.605   9.625   2.811  0.2702  0.2541 -0.2966
  816MOL0     N12521  10.970  10.022   2.633  0.1422 -0.0478 -0.0891
  816MOL0     N12522  10.840  10.007   2.634 -0.0154 -0.0133 -0.7320
  816MOL0     C12523  10.207  10.651   2.084 -0.2854 -0.4887 -0.0327
  816MOL0     C12524  10.068  10.634   2.060 -0.6785 -0.1665 -0.3947
  816MOL0     C12525   9.668  10.495   1.842  0.0242  1.2240  0.0811
  816MOL0     C12526   9.600  10.499   1.960 -0.4380  0.0872 -0.1695
  816MOL0     C12527   9.460  10.493   1.964  0.7269  0.7349  1.0232
  816MOL0     C12528   9.384  10.474   1.844 -0.0806 -0.0760  0.7590
  816MOL0     O12529   9.250  10.474   1.855  0.2140 -0.5157 -0.0295
  816MOL0     C12530   9.188  10.564   1.764  0.1271  0.6774 -0.4448
  816MOL0     C12531   9.058  10.617   1.833 -0.6642 -0.4532  1.0456
  816MOL0     C12532   9.077  10.745   1.915  0.0337  0.8045 -0.5649
  816MOL0     C12533   9.150  10.739   2.052  0.2934 -1.2825 -0.1812
  816MOL0     C12534   9.062  10.662   2.145 -0.2031 -0.0965 -0.0354
  816MOL0     C12535   8.983  10.615   2.224  0.1090  0.3069 -0.9272
  816MOL0     C12536   9.452  10.475   1.719 -0.2463  0.0011  0.7198
  816MOL0     C12537   9.593  10.477   1.720 -0.9015  0.0699  0.0242
  816MOL0     C12538   9.648  10.460   1.581 -0.1444  0.2023 -0.4939
  816MOL0     H12539  10.069  10.345   1.888 -1.3893  1.0824 -0.6337
  816MOL0     H12540  10.316  10.371   1.926  0.8881  0.6180  1.7810
  816MOL0     H12541  10.630  10.564   2.027  0.8333 -2.3667  1.5655
  816MOL0     H12542  10.535  10.471   1.921  0.8093 -0.4193 -0.1247
  816MOL0     H12543  10.462  10.334   2.120  0.6497 -1.1956 -0.2097
  816MOL0     H12544  10.642  10.351   2.122 -0.9062 -1.2676 -2.5104
  816MOL0     H12545  10.612  10.550   2.285 -1.3397  1.5792  0.7863
  816MOL0     H12546  10.442  10.505   2.290 -0.1330 -0.8347  1.7983
  816MOL0     H12547  10.512  10.275   2.378  0.1033  0.7583  0.1678
  816MOL0     H12548  10.677  10.319   2.351  0.2166 -0.1104  0.3683
  816MOL0     H12549  10.482  10.426   2.564 -0.4856 -1.8907 -2.0493
  816MOL0     H12550  10.626  10.522   2.522  0.1617  0.3160  1.7812
  816MOL0     H12551  10.769  10.337   2.581  0.7447  0.5320  1.8061
  816MOL0     H12552  10.666  10.385   2.716 -1.6861  2.5018 -1.5812
  816MOL0     H12553  10.628  10.145   2.543  2.1693  2.4502 -1.5703
  816MOL0     H12554  10.498  10.216   2.641  0.5981  0.0761 -1.0992
  816MOL0     H12555  10.640  10.167   2.848  0.9739  0.4705 -0.1682
  816MOL0     H12556  10.603  10.021   2.768 -1.1253  0.4645  1.6363
  816MOL0     H12557  10.914  10.242   2.857 -0.2251 -1.2163  1.8469
  816MOL0     H12558  11.160  10.260   2.800  0.4816 -0.7876  0.8488
  816MOL0     H12559  11.193  10.187   2.643  1.5071  1.8377  0.4371
  816MOL0     H12560  11.325  10.121   2.872 -0.4122 -2.1325  3.0598
  816MOL0     H12561  11.194  10.012   2.901 -0.5504  0.9599  0.5076
  816MOL0     H12562  11.229   9.897   2.678 -0.4951  0.8029  1.9008
  816MOL0     H12563  11.352  10.007   2.625 -0.7216 -0.0527 -1.2522
  816MOL0     H12564  11.493   9.932   2.819 -1.0557  0.2320  1.1896
  816MOL0     H12565  11.364   9.835   2.881 -2.7622 -1.7574 -2.2851
  816MOL0     H12566  11.667   9.866   2.584 -1.7631 -0.6723 -0.3435
  816MOL0     H12567  11.913   9.755   2.488  0.9087 -0.9538  0.8075
  816MOL0     H12568  12.019   9.811   2.611  0.9155 -1.1342 -0.7748
  816MOL0     H12569  11.884   9.916   2.568  1.9449 -0.2268 -1.9807
  816MOL0     H12570  12.287   9.657   2.597 -1.7339 -0.9729  0.5384
  816MOL0     H12571  12.530   9.680   2.650 -0.1140 -2.5276 -0.1097
  816MOL0     H12572  12.664   9.652   3.075  0.2791  1.1214 -0.7246
  816MOL0     H12573  12.657   9.484   3.018 -1.3561  1.1401 -0.5937
  816MOL0     H12574  12.884   9.683   2.968  0.1915 -0.7473 -1.4161
  816MOL0     H12575  12.880   9.560   3.079  3.2067 -0.2306 -0.8848
  816MOL0     H12576  12.889   9.521   2.777 -1.0861  0.9033  0.3148
  816MOL0     H12577  12.856   9.385   2.895 -0.1533  0.6211  2.9462
  816MOL0     H12578  13.066   9.429   2.996  4.7906 -0.2139  0.0241
  816MOL0     H12579  13.091   9.574   2.896 -0.0060 -0.7343 -1.7543
  816MOL0     H12580  13.074   9.285   2.786  0.3351 -0.6321 -2.1156
  816MOL0     H12581  13.091   9.429   2.692 -0.5888  0.9473  0.5585
  816MOL0     H12582  13.303   9.342   2.916 -0.1007 -0.5296  0.0264
  816MOL0     H12583  13.318   9.473   2.810  0.0876 -0.1711  3.2039
  816MOL0     H12584  13.259   9.210   2.672  0.3701 -0.8821  0.7763
  816MOL0     H12585  13.407   9.209   2.757 -0.3795 -0.5909 -1.6168
  816MOL0     H12586  13.468   9.279   2.537 -0.2185  0.3797 -0.5583
  816MOL0     H12587  13.484   9.419   2.641 -2.2030  0.6497  1.9429
  816MOL0     H12588  12.444   9.586   3.045  0.0043  1.7271  0.4810
  816MOL0     H12589  12.212   9.593   3.015  0.0783 -0.9077 -0.1035
  816MOL0     H12590  11.737   9.520   2.920 -1.6643  0.1831 -0.8883
  816MOL0     H12591  11.526   9.569   2.860 -2.0885  1.3065 -2.5754
  816MOL0     H12592  10.254  10.733   2.138 -0.2259  1.5584 -2.9711
  816MOL0     H12593   9.992  10.699   2.102 -1.1552 -2.2789  2.3556
  816MOL0     H12594   9.651  10.513   2.055 -1.0842  1.2179  0.0351
  816MOL0     H12595   9.419  10.498   2.064  0.9538 -0.5715  1.1940
  816MOL0     H12596   9.253  10.645   1.730 -1.9227  2.0972 -1.2026
  816MOL0     H12597   9.156  10.514   1.671  0.1095  0.8025 -0.5062
  816MOL0     H12598   9.017  10.543   1.902 -0.5613  1.1589  2.9365
  816MOL0     H12599   8.984  10.639   1.756  1.6678  4.4133 -0.2079
  816MOL0     H12600   9.141  10.808   1.853  0.4572  0.2694 -0.6748
  816MOL0     H12601   8.982  10.800   1.928 -0.7034 -0.4720 -0.4002
  816MOL0     H12602   9.170  10.836   2.098 -1.9840 -0.6419 -0.3900
  816MOL0     H12603   9.246  10.688   2.046  0.9804 -0.6725  3.3730
  816MOL0     H12604   8.922  10.561   2.294  0.3604  0.4049 -0.6332
  816MOL0     H12605   9.392  10.473   1.629 -2.9546 -1.5611  2.4137
  816MOL0     H12606   9.581  10.433   1.498 -0.7438  1.1943 -0.3438
  816MOL0     H12607   9.697  10.555   1.557  2.2744 -0.0653  2.7089
  816MOL0     H12608   9.721  10.379   1.578 -2.0788 -1.6165 -1.1249
  817MOL0     O12609   8.421  10.911   0.683 -0.6257 -0.4393  1.0450
  817MOL0     C12610   8.340  10.894   0.596 -0.0394  0.6729  0.0121
  817MOL0     O12611   8.345  10.943   0.467 -0.1148 -0.5689 -0.2842
  817MOL0     C12612   8.456  11.009   0.429 -0.1345  0.2360 -0.7327
  817MOL0     C12613   8.546  10.950   0.340 -0.3550 -0.0517  0.1904
  817MOL0     C12614   8.661  11.027   0.298  0.2457  0.1147  0.7738
  817MOL0     C12615   8.676  11.157   0.337 -0.3222 -0.0159 -0.7970
  817MOL0     O12616   8.782  11.238   0.312 -0.6608  0.4685 -0.4729
  817MOL0     C12617   8.882  11.192   0.224  0.1275  0.5138 -0.0742
  817MOL0     C12618   8.966  11.310   0.194 -0.2823  0.6455  0.0280
  817MOL0     C12619   9.065  11.289   0.080 -0.8200 -0.0420  0.3450
  817MOL0     C12620   9.198  11.230   0.136  0.2098  0.2562  1.1856
  817MOL0     C12621   9.294  11.199   0.020  0.3834  0.2614 -0.1064
  817MOL0     C12622   9.417  11.113   0.058  0.5005 -0.0598  0.2651
  817MOL0     C12623   9.391  10.981   0.130  0.4860  0.7156 -0.3354
  817MOL0     C12624   9.297  10.887   0.053 -0.0884 -0.0381 -0.4097
  817MOL0     N12625   9.279  10.762   0.123  0.0124 -0.1693  0.2611
  817MOL0     C12626   9.182  10.722   0.202  0.6445 -0.3301  0.2176
  817MOL0     C12627   9.185  10.591   0.195 -0.0266  0.7938  0.5254
  817MOL0     C12628   9.105  10.480   0.259 -0.0763 -1.3066 -0.5848
  817MOL0     C12629   9.117  10.506   0.409  0.2862 -0.2313  0.8395
  817MOL0     C12630   9.019  10.408   0.486 -0.2932  0.0373  0.2507
  817MOL0     C12631   8.997  10.447   0.632  0.5478  0.2409 -0.8464
  817MOL0     O12632   9.122  10.470   0.697 -0.1105  0.9961 -0.0117
  817MOL0     C12633   9.126  10.491   0.832 -0.0631 -0.5368 -0.1479
  817MOL0     C12634   9.013  10.519   0.908  1.1431 -0.4133 -0.4126
  817MOL0     C12635   9.026  10.568   1.040 -0.5937 -0.1363  0.1226
  817MOL0     C12636   8.900  10.614   1.109  1.2167  0.0761  0.0636
  817MOL0     C12637   9.157  10.579   1.098  0.3622  0.2631 -0.0407
  817MOL0     C12638   9.171  10.608   1.246 -0.4251  1.0506  0.2038
  817MOL0     O12639   9.282  10.667   1.283 -0.0055  0.2693 -0.5736
  817MOL0     C12640   9.307  10.722   1.406  0.6681  0.1288 -0.0022
  817MOL0     C12641   9.223  10.817   1.479  0.4224 -0.9016  1.1003
  817MOL0     C12642   9.273  10.895   1.581 -0.8444 -0.1805  0.3257
  817MOL0     C12643   9.406  10.877   1.618  0.7178  0.4549 -0.1006
  817MOL0     O12644   9.441  10.962   1.721 -0.3125  0.1810  0.0206
  817MOL0     C12645   9.502  10.900   1.835 -0.1188  0.2821 -0.0085
  817MOL0     C12646   9.576  11.008   1.916 -0.6466  0.0973  0.6935
  817MOL0     C12647   9.484  11.106   1.983  0.6008  0.1424  0.0643
  817MOL0     C12648   9.435  11.040   2.107 -0.2285 -0.2574 -0.1303
  817MOL0     C12649   9.369  11.145   2.196  0.0851  0.1446 -1.1122
  817MOL0     C12650   9.308  11.077   2.319 -0.0458  0.2572 -0.4443
  817MOL0     C12651   9.178  11.141   2.371  0.3411  0.4404 -0.1968
  817MOL0     C12652   9.144  11.082   2.515  0.0961  0.9035  0.5118
  817MOL0    Cl12653   9.017  11.177   2.584  0.5793  0.0442 -0.4644
  817MOL0     C12654   9.484  10.779   1.562 -0.2900  0.3533 -0.2192
  817MOL0     C12655   9.442  10.711   1.446 -0.5434  0.0840 -0.3912
  817MOL0     O12656   9.082  10.572   1.324  0.3921 -0.2281  0.1337
  817MOL0     C12657   9.265  10.532   1.026 -0.2055  0.1023 -0.1559
  817MOL0     C12658   9.250  10.500   0.896 -0.1763 -0.4907  0.6365
  817MOL0     N12659   9.280  10.549   0.102 -0.3184 -0.9086  0.3458
  817MOL0     N12660   9.344  10.656   0.063 -0.0719 -0.5025  0.0877
  817MOL0     C12661   8.580  11.218   0.425 -0.0615 -0.4437  0.0250
  817MOL0     C12662   8.464  11.145   0.470 -0.5347  0.1733 -0.3961
  817MOL0     C12663   8.227  10.807   0.639  0.2808  0.1872  0.1423
  817MOL0     C12664   8.141  10.761   0.535  0.1604 -0.8148  0.3695
  817MOL0     C12665   8.037  10.672   0.568  0.3024 -0.8494  0.7301
  817MOL0     C12666   8.021  10.612   0.693  0.4015 -0.6557  0.3689
  817MOL0     O12667   7.933  10.513   0.699  0.8985 -0.5041  0.2255
  817MOL0     C12668   7.956  10.405   0.792  0.3438 -1.0404 -0.4956
  817MOL0     C12669   8.087  10.326   0.773  0.6065  0.6798  0.5418
  817MOL0     C12670   8.107  10.259   0.635  0.9711  0.3922 -0.2635
  817MOL0     C12671   7.991  10.260   0.534  0.3698 -0.2344  0.2539
  817MOL0     C12672   8.041  10.188   0.417  0.3033  0.3843  0.0369
  817MOL0     C12673   8.077  10.126   0.319 -0.3149  0.6330  0.1919
  817MOL0     C12674   8.095  10.669   0.799  0.0518  0.0545 -0.8701
  817MOL0     C12675   8.200  10.762   0.771  0.6554  0.5889 -0.0280
  817MOL0     C12676   8.272  10.804   0.896  0.3683 -0.2462 -0.4017
  817MOL0     H12677   8.520  10.850   0.306 -0.3684  0.3391 -0.9698
  817MOL0     H12678   8.734  10.977   0.235 -1.6803  0.1053 -1.6189
  817MOL0     H12679   8.830  11.167   0.131 -1.1737  0.3431  0.6657
  817MOL0     H12680   8.937  11.107   0.265 -2.8500 -1.0849  0.9586
  817MOL0     H12681   8.891  11.387   0.173 -1.2384  0.4389  2.3279
  817MOL0     H12682   9.011  11.349   0.286  0.0918 -1.3325  0.7192
  817MOL0     H12683   9.019  11.209   0.021  1.3584 -1.5266  0.5456
  817MOL0     H12684   9.083  11.378   0.018  1.7055 -1.1725 -0.6824
  817MOL0     H12685   9.246  11.302   0.203 -0.2599  0.4503  1.3171
  817MOL0     H12686   9.186  11.133   0.185 -1.8627 -1.4740 -2.3220
  817MOL0     H12687   9.319  11.299  -0.017 -0.1752  0.5590  0.3046
  817MOL0     H12688   9.232  11.151  -0.056 -2.4173 -0.2839  2.3497
  817MOL0     H12689   9.468  11.089  -0.036  0.6632 -0.1694  0.3784
  817MOL0     H12690   9.485  11.162   0.129  2.7233 -2.0169 -0.3555
  817MOL0     H12691   9.342  11.002   0.226  1.7291  0.4601  0.3714
  817MOL0     H12692   9.485  10.930   0.150 -1.2981 -3.1003 -0.8203
  817MOL0     H12693   9.198  10.932   0.042 -1.7806 -3.0256  1.1181
  817MOL0     H12694   9.346  10.862  -0.041  0.4852 -2.1464  0.3712
  817MOL0     H12695   9.113  10.791   0.251 -0.1316  0.2950 -1.6796
  817MOL0     H12696   9.143  10.381   0.233 -1.2632 -1.4590 -1.8033
  817MOL0     H12697   9.002  10.478   0.223 -1.2792 -0.5667  2.4782
  817MOL0     H12698   9.218  10.492   0.448  0.6308  1.4510  0.6163
  817MOL0     H12699   9.096  10.612   0.427 -1.0320 -0.6411  1.9182
  817MOL0     H12700   8.921  10.397   0.440 -0.6333  2.6986  0.2229
  817MOL0     H12701   9.063  10.308   0.474  0.8384  0.7326 -2.1384
  817MOL0     H12702   8.940  10.540   0.637 -0.1859 -0.2470  2.5374
  817MOL0     H12703   8.947  10.362   0.680  2.0230  0.8209  1.8957
  817MOL0     H12704   8.914  10.513   0.864  0.8727  2.3303 -0.3732
  817MOL0     H12705   8.845  10.668   1.032  0.8157 -0.5155 -0.0715
  817MOL0     H12706   8.926  10.687   1.186  0.7614 -1.9910  2.3076
  817MOL0     H12707   8.835  10.535   1.147  2.6822 -1.4919 -0.5627
  817MOL0     H12708   9.124  10.832   1.436  2.0138  2.8290 -1.9292
  817MOL0     H12709   9.207  10.958   1.638 -0.8584 -0.7460  0.9472
  817MOL0     H12710   9.428  10.853   1.901  0.8239 -0.0862  0.8220
  817MOL0     H12711   9.571  10.819   1.808 -0.2075  1.6701 -5.5919
  817MOL0     H12712   9.654  10.973   1.985  0.2289  0.0249 -0.2935
  817MOL0     H12713   9.625  11.075   1.845 -1.5542  1.3407  1.2184
  817MOL0     H12714   9.401  11.131   1.916  0.2465 -1.5458 -0.1711
  817MOL0     H12715   9.541  11.194   2.014  0.5157 -0.7521  3.0455
  817MOL0     H12716   9.523  11.004   2.161  0.7009 -0.3168 -1.6167
  817MOL0     H12717   9.369  10.954   2.093 -0.7694 -0.2124  1.8005
  817MOL0     H12718   9.444  11.218   2.228  1.4406 -1.7945  0.4008
  817MOL0     H12719   9.293  11.205   2.144  0.2760  1.5862  0.2063
  817MOL0     H12720   9.375  11.061   2.404  2.1816  2.0383 -1.7580
  817MOL0     H12721   9.270  10.979   2.287  1.7029 -0.8925  0.7955
  817MOL0     H12722   9.094  11.133   2.302 -1.2893  2.7928  1.3851
  817MOL0     H12723   9.199  11.247   2.391 -0.5640  0.5463  0.2100
  817MOL0     H12724   9.227  11.087   2.586 -0.0977  4.2585  0.6704
  817MOL0     H12725   9.118  10.976   2.504 -1.1559  1.1587  0.8900
  817MOL0     H12726   9.583  10.758   1.601 -0.8264 -0.5218  0.6873
  817MOL0     H12727   9.526  10.663   1.398 -0.4678 -1.4150  1.1632
  817MOL0     H12728   9.367  10.537   1.062  0.5896 -0.4075 -2.2092
  817MOL0     H12729   9.339  10.491   0.835 -0.3532  3.0705 -0.3455
  817MOL0     H12730   8.599  11.319   0.461  0.0706 -0.9116  1.3495
  817MOL0     H12731   8.405  11.190   0.548 -1.4884 -0.2569 -0.8562
  817MOL0     H12732   8.156  10.794   0.433  1.3891 -1.6713  0.2538
  817MOL0     H12733   7.962  10.644   0.496 -2.3258 -1.4082  3.5157
  817MOL0     H12734   7.950  10.444   0.894  0.1752 -0.3543 -0.7663
  817MOL0     H12735   7.867  10.344   0.777  1.0199 -1.3100 -4.4041
  817MOL0     H12736   8.080  10.248   0.850  0.9893 -0.8862 -0.9352
  817MOL0     H12737   8.178  10.379   0.804  1.5489 -0.8068  0.4321
  817MOL0     H12738   8.188  10.314   0.586  0.6664  1.1475  0.0809
  817MOL0     H12739   8.143  10.156   0.648 -0.4731 -0.0751  0.2156
  817MOL0     H12740   7.960  10.361   0.508 -0.7440 -0.0075  2.2416
  817MOL0     H12741   7.905  10.211   0.581 -0.5870  1.4847  0.3768
  817MOL0     H12742   8.090  10.074   0.226  1.4133 -1.5664  1.5455
  817MOL0     H12743   8.078  10.624   0.896 -0.9722 -1.4234 -1.6988
  817MOL0     H12744   8.371  10.757   0.901  0.5175  0.1932  1.2066
  817MOL0     H12745   8.284  10.913   0.892 -0.4523 -0.0774  1.1352
  817MOL0     H12746   8.217  10.777   0.986 -2.6843  1.0787 -1.7110
  818MOL0     O12747   1.880   4.488   8.767  0.2045 -0.6017 -0.0172
  818MOL0     C12748   1.887   4.455   8.888 -0.0455 -0.7126  0.5628
  818MOL0     O12749   1.983   4.501   8.968 -0.2436  0.5560 -0.5837
  818MOL0     C12750   2.079   4.573   8.912  0.7908 -0.1519 -1.0938
  818MOL0     C12751   2.065   4.711   8.885 -0.3034  0.0575  0.1348
  818MOL0     C12752   2.167   4.764   8.803  0.5421 -0.6292 -0.2296
  818MOL0     C12753   2.283   4.697   8.777 -0.0292  0.7531 -0.1712
  818MOL0     O12754   2.385   4.759   8.720 -1.1402  0.5731 -0.3412
  818MOL0     C12755   2.359   4.812   8.586  0.3038  0.1190 -0.0719
  818MOL0     C12756   2.486   4.817   8.493 -0.2839  0.2316  0.7437
  818MOL0     C12757   2.569   4.686   8.489 -1.4498  0.2576 -0.0476
  818MOL0     C12758   2.641   4.645   8.616 -0.4839 -0.5492 -0.4877
  818MOL0     C12759   2.756   4.550   8.577 -0.2341  0.2985 -0.0307
  818MOL0     C12760   2.837   4.506   8.700 -0.3645 -0.9075  0.1202
  818MOL0     C12761   2.761   4.431   8.809  0.4431 -0.1108  0.6143
  818MOL0     C12762   2.861   4.360   8.900  0.1887 -0.1702  0.0793
  818MOL0     N12763   2.910   4.237   8.837 -0.0943 -0.2196 -0.2485
  818MOL0     C12764   3.027   4.215   8.771 -0.3040 -0.0233  0.9510
  818MOL0     C12765   3.028   4.080   8.746  0.8033 -0.0966  0.9280
  818MOL0     C12766   3.132   3.988   8.690 -0.3916 -0.2924  0.4573
  818MOL0     C12767   3.269   4.063   8.671 -0.0773 -0.1807  0.1841
  818MOL0     C12768   3.385   3.959   8.645  0.1235  0.5699  1.0742
  818MOL0     C12769   3.517   4.015   8.600 -0.4139  0.1667 -0.2902
  818MOL0     O12770   3.573   4.074   8.718  0.3754  0.3086 -0.2880
  818MOL0     C12771   3.704   4.113   8.701 -0.6219 -0.0955  0.3453
  818MOL0     C12772   3.757   4.170   8.814 -0.3139  0.2234 -0.7556
  818MOL0     C12773   3.889   4.216   8.826 -0.1011 -0.2700  0.2154
  818MOL0     C12774   3.931   4.272   8.958 -0.2857 -0.4780  1.1934
  818MOL0     C12775   3.971   4.224   8.714  0.6652 -0.2119  0.1897
  818MOL0     C12776   4.104   4.298   8.702  0.4110 -0.3982 -0.1676
  818MOL0     O12777   4.177   4.319   8.809  0.3762  0.2161  0.8384
  818MOL0     C12778   4.304   4.375   8.788 -0.0460  0.7055  0.9444
  818MOL0     C12779   4.337   4.487   8.858  1.0746 -0.7073  0.5315
  818MOL0     C12780   4.472   4.532   8.858  0.4752  0.0400 -1.2727
  818MOL0     C12781   4.564   4.476   8.771 -0.3117  0.0997 -0.1923
  818MOL0     O12782   4.690   4.526   8.771  0.2742 -0.1445 -0.5682
  818MOL0     C12783   4.791   4.468   8.685  0.1002 -0.4101 -1.1539
  818MOL0     C12784   4.923   4.534   8.737  0.4265  0.4540 -0.4769
  818MOL0     C12785   5.032   4.446   8.673 -0.7842  1.1344  0.6427
  818MOL0     C12786   5.173   4.482   8.692  0.0691  0.6091 -0.5776
  818MOL0     C12787   5.276   4.398   8.614  0.9114 -0.3825 -0.0427
  818MOL0     C12788   5.418   4.424   8.660 -0.0135  0.0240 -0.5761
  818MOL0     C12789   5.531   4.379   8.555  0.0272  0.5166  0.4410
  818MOL0     C12790   5.531   4.218   8.537  0.3948  0.0304 -0.0580
  818MOL0    Cl12791   5.571   4.143   8.696 -0.2197 -0.1470  0.0851
  818MOL0     C12792   4.529   4.360   8.703 -0.3825  1.0938 -0.2262
  818MOL0     C12793   4.398   4.304   8.718 -0.7997  0.0660  0.2737
  818MOL0     O12794   4.123   4.351   8.590 -0.0499  0.8646  0.4334
  818MOL0     C12795   3.912   4.176   8.594  0.9326 -0.6297 -0.1817
  818MOL0     C12796   3.791   4.116   8.588  0.3665  0.3899  0.7940
  818MOL0     N12797   2.904   4.035   8.783  0.7481 -0.4212  0.3001
  818MOL0     N12798   2.843   4.123   8.850 -0.1035 -0.2875 -0.2877
  818MOL0     C12799   2.295   4.562   8.816 -0.3132  0.2537  0.1159
  818MOL0     C12800   2.190   4.497   8.885  0.3996  0.0238 -0.6169
  818MOL0     C12801   1.794   4.354   8.942  1.1389  0.2096 -0.5509
  818MOL0     C12802   1.784   4.340   9.085  0.2802 -0.1201 -0.4521
  818MOL0     C12803   1.693   4.250   9.148 -0.8436 -0.6495  0.2319
  818MOL0     C12804   1.597   4.185   9.066  0.8505  0.3335 -0.8831
  818MOL0     O12805   1.506   4.090   9.105  0.5838 -1.0162 -1.4712
  818MOL0     C12806   1.533   4.003   9.212  0.4526 -0.3823  1.2956
  818MOL0     C12807   1.451   3.877   9.197  0.7956  0.2668 -0.2544
  818MOL0     C12808   1.496   3.810   9.063 -0.4044  0.4158 -0.0579
  818MOL0     C12809   1.406   3.695   9.017  0.4564 -1.0346  0.2813
  818MOL0     C12810   1.406   3.575   9.116  0.2122  0.0706  0.0973
  818MOL0     C12811   1.420   3.470   9.175  0.8054 -0.1411 -0.5535
  818MOL0     C12812   1.600   4.202   8.925  1.0627 -0.8059 -0.3508
  818MOL0     C12813   1.699   4.281   8.864  0.4693  0.4165  0.1530
  818MOL0     C12814   1.699   4.280   8.713  0.5306 -0.1922  0.2402
  818MOL0     H12815   1.973   4.760   8.915 -1.3423 -2.6645  1.7843
  818MOL0     H12816   2.158   4.863   8.760 -1.2221 -0.3778  0.6598
  818MOL0     H12817   2.328   4.917   8.593 -0.7480 -0.2010  0.1937
  818MOL0     H12818   2.273   4.761   8.544 -1.0285  0.0486  2.5596
  818MOL0     H12819   2.463   4.846   8.390  2.3581 -1.6014 -0.5056
  818MOL0     H12820   2.549   4.890   8.545  3.5838 -4.8655  4.3413
  818MOL0     H12821   2.500   4.603   8.466 -0.3473 -0.7931  0.3421
  818MOL0     H12822   2.641   4.698   8.408 -2.0828 -0.4130 -0.7231
  818MOL0     H12823   2.681   4.731   8.672 -0.3605 -0.1274 -1.2189
  818MOL0     H12824   2.566   4.580   8.662 -2.5715  1.2452 -1.1883
  818MOL0     H12825   2.826   4.603   8.512  0.3533 -1.1214 -0.6177
  818MOL0     H12826   2.712   4.468   8.518  0.6152 -0.3029  0.1433
  818MOL0     H12827   2.926   4.449   8.671  0.4425 -0.6979  2.0709
  818MOL0     H12828   2.879   4.599   8.740 -1.5634  0.9940 -2.6482
  818MOL0     H12829   2.707   4.346   8.767  0.9349 -0.6040  0.9716
  818MOL0     H12830   2.697   4.497   8.868  1.3065  1.7337 -0.4198
  818MOL0     H12831   2.946   4.426   8.920  1.2501 -1.6116  0.4959
  818MOL0     H12832   2.813   4.332   8.994  0.7549 -1.4930 -0.0093
  818MOL0     H12833   3.102   4.291   8.750 -0.8827  0.6487  1.2751
  818MOL0     H12834   3.102   3.964   8.588 -0.4801 -0.5733  0.5510
  818MOL0     H12835   3.149   3.902   8.755  5.6232 -0.3844 -0.6052
  818MOL0     H12836   3.263   4.134   8.587  1.6542 -0.5397 -0.2761
  818MOL0     H12837   3.284   4.119   8.763  1.8185  0.6661 -0.5851
  818MOL0     H12838   3.398   3.910   8.742  0.2705 -2.2886 -0.2642
  818MOL0     H12839   3.365   3.894   8.559  2.3461 -0.0827  0.9601
  818MOL0     H12840   3.579   3.936   8.557 -1.3632 -1.4383  1.1258
  818MOL0     H12841   3.508   4.087   8.519  2.5181 -0.2728 -1.0878
  818MOL0     H12842   3.690   4.166   8.899  0.8366 -1.3594  0.1262
  818MOL0     H12843   3.924   4.380   8.943 -0.3739 -0.8398 -2.2291
  818MOL0     H12844   4.030   4.232   8.983  1.1400  0.5589 -2.1382
  818MOL0     H12845   3.862   4.245   9.038 -1.2273 -0.8695  0.2705
  818MOL0     H12846   4.255   4.525   8.919 -1.1289  0.2852 -2.7534
  818MOL0     H12847   4.488   4.618   8.922 -0.9379 -1.5032  1.2842
  818MOL0     H12848   4.800   4.360   8.700  1.3717 -0.6036 -3.0418
  818MOL0     H12849   4.767   4.498   8.583  0.5171  0.3333 -1.0390
  818MOL0     H12850   4.930   4.636   8.698  1.2295  1.2697  1.6611
  818MOL0     H12851   4.925   4.530   8.846  1.0844 -0.8128 -0.5158
  818MOL0     H12852   5.012   4.441   8.565 -0.2416 -1.4933  0.6092
  818MOL0     H12853   5.029   4.340   8.698  0.8464  0.7894 -0.4755
  818MOL0     H12854   5.188   4.476   8.800 -3.9666 -2.2594  0.0525
  818MOL0     H12855   5.181   4.587   8.661 -1.2922  1.2326  1.0502
  818MOL0     H12856   5.255   4.295   8.643 -2.1168  0.4740  1.1290
  818MOL0     H12857   5.265   4.396   8.505  0.9449 -1.5706 -0.0420
  818MOL0     H12858   5.433   4.385   8.761 -0.3089 -1.5171 -1.1071
  818MOL0     H12859   5.426   4.533   8.664 -1.5851  0.1328  0.6930
  818MOL0     H12860   5.627   4.423   8.582 -0.0812  1.7580 -1.0766
  818MOL0     H12861   5.515   4.422   8.455  1.6376 -1.0906 -0.5585
  818MOL0     H12862   5.607   4.192   8.463  0.9209  2.6608 -0.5578
  818MOL0     H12863   5.434   4.181   8.505  1.0864  1.4767 -4.5177
  818MOL0     H12864   4.603   4.302   8.649 -1.5073 -1.1187  0.4751
  818MOL0     H12865   4.371   4.206   8.680 -0.6623  0.1787 -0.1242
  818MOL0     H12866   3.968   4.176   8.501  2.4301 -0.9933  0.6804
  818MOL0     H12867   3.756   4.091   8.488 -0.4443  0.5343  1.0397
  818MOL0     H12868   2.379   4.504   8.779 -0.7153 -0.3742  0.1602
  818MOL0     H12869   2.192   4.390   8.904 -3.2882  0.2615  1.9973
  818MOL0     H12870   1.849   4.402   9.147 -1.3676  1.2994 -0.0737
  818MOL0     H12871   1.682   4.247   9.256 -2.4708 -1.3537  0.0805
  818MOL0     H12872   1.641   3.988   9.222  0.6346  0.6044  0.9112
  818MOL0     H12873   1.510   4.066   9.298  1.1087  3.0401 -0.8273
  818MOL0     H12874   1.344   3.895   9.188  1.1026  3.5038  1.0402
  818MOL0     H12875   1.473   3.811   9.281  0.3633 -1.5274 -1.5071
  818MOL0     H12876   1.482   3.885   8.985  2.0396  1.5986  0.5346
  818MOL0     H12877   1.600   3.775   9.060 -0.9335 -1.2217 -1.4666
  818MOL0     H12878   1.423   3.674   8.911  1.3039  3.0201 -0.5648
  818MOL0     H12879   1.304   3.734   9.026  1.3715  1.4218  0.9421
  818MOL0     H12880   1.437   3.387   9.241 -0.6208  0.7424  1.0013
  818MOL0     H12881   1.525   4.147   8.869  3.2740 -1.0935 -3.2788
  818MOL0     H12882   1.668   4.186   8.667 -3.1782  1.9356 -2.1741
  818MOL0     H12883   1.630   4.356   8.675  0.6672 -0.2310 -0.0878
  818MOL0     H12884   1.800   4.297   8.673 -0.1621  0.5958 -1.2577
  819MOL0     O12885   9.537   3.031  11.267  0.0963  0.1012 -0.1326
  819MOL0     C12886   9.443   3.075  11.340 -0.0162 -0.1772  0.0389
  819MOL0     O12887   9.335   3.142  11.292 -0.1970  0.3331 -0.1600
  819MOL0     C12888   9.336   3.206  11.166  0.3685  0.9992 -0.3572
  819MOL0     C12889   9.206   3.249  11.123  0.3533 -1.0867  0.1460
  819MOL0     C12890   9.185   3.328  11.007  0.1478 -0.7339 -0.5957
  819MOL0     C12891   9.293   3.366  10.935 -0.6746 -0.3253 -0.3482
  819MOL0     O12892   9.283   3.437  10.825 -0.2808 -0.0517 -0.2541
  819MOL0     C12893   9.162   3.461  10.757 -0.5434 -0.6965 -0.9946
  819MOL0     C12894   9.082   3.574  10.819 -0.5461 -0.6094 -0.1427
  819MOL0     C12895   8.936   3.583  10.781 -0.5529 -0.1163  0.0175
  819MOL0     C12896   8.920   3.650  10.644  0.0200  0.5059  0.3780
  819MOL0     C12897   8.778   3.671  10.596 -0.7919 -0.4991 -0.0286
  819MOL0     C12898   8.764   3.781  10.488 -0.1478 -0.1643 -0.0617
  819MOL0     C12899   8.612   3.806  10.465 -0.7622  0.0545 -0.4783
  819MOL0     C12900   8.528   3.677  10.448  0.3269 -0.3052 -0.2569
  819MOL0     N12901   8.399   3.699  10.392  0.2491  0.2522 -0.4569
  819MOL0     C12902   8.360   3.801  10.312 -0.1156  0.2930 -0.0738
  819MOL0     C12903   8.230   3.776  10.295 -0.3757  0.4186  1.1070
  819MOL0     C12904   8.143   3.866  10.217  0.3499  0.3519 -0.6552
  819MOL0     C12905   8.030   3.791  10.152  0.0261  0.2188 -0.1008
  819MOL0     C12906   7.940   3.914  10.104 -0.6569  0.1234  0.2089
  819MOL0     C12907   7.816   3.867  10.035 -0.1999 -0.5805  0.3191
  819MOL0     O12908   7.708   3.856  10.129  0.2694  0.8050 -0.0107
  819MOL0     C12909   7.575   3.853  10.075  0.4838 -0.4600 -0.4219
  819MOL0     C12910   7.543   3.812   9.944 -0.5067 -0.0522 -0.0323
  819MOL0     C12911   7.418   3.795   9.891 -0.2342 -0.4796  0.0502
  819MOL0     C12912   7.402   3.748   9.750 -0.6079 -0.3803  0.3471
  819MOL0     C12913   7.309   3.833   9.974 -0.7532 -0.1388  1.3271
  819MOL0     C12914   7.169   3.807   9.936 -0.4720  0.2830 -0.1667
  819MOL0     O12915   7.075   3.804  10.041 -0.0529  0.1378  1.1925
  819MOL0     C12916   6.940   3.799  10.002 -0.0405  0.5574  0.2323
  819MOL0     C12917   6.851   3.906  10.029  0.3255 -0.0652  0.1743
  819MOL0     C12918   6.718   3.894   9.993 -0.0716  0.1719  0.0519
  819MOL0     C12919   6.665   3.775   9.932  0.9379  0.5165  0.1401
  819MOL0     O12920   6.531   3.789   9.900 -0.1319 -0.1587 -0.0998
  819MOL0     C12921   6.467   3.668   9.875 -0.3061 -0.7235  0.2938
  819MOL0     C12922   6.312   3.675   9.888 -0.4145  0.0168  0.7809
  819MOL0     C12923   6.246   3.781   9.798  0.6116  0.3140 -0.1289
  819MOL0     C12924   6.244   3.726   9.659  0.2301 -0.1134  1.5259
  819MOL0     C12925   6.190   3.838   9.562  0.4247 -0.4461 -0.5060
  819MOL0     C12926   6.141   3.783   9.430 -0.7483  1.0497 -0.0301
  819MOL0     C12927   6.071   3.897   9.363  0.5228  0.0050  0.4030
  819MOL0     C12928   6.033   3.858   9.221 -0.3591  0.2862  0.7046
  819MOL0    Cl12929   6.182   3.830   9.126 -0.3697 -0.2068 -0.0547
  819MOL0     C12930   6.753   3.667   9.917 -0.5084  0.2264  0.1035
  819MOL0     C12931   6.885   3.677   9.950 -0.3699  0.2022  0.3972
  819MOL0     O12932   7.137   3.796   9.819  0.0239  0.0037  0.0380
  819MOL0     C12933   7.336   3.878  10.102  0.8221  0.0154  0.4533
  819MOL0     C12934   7.460   3.883  10.154 -0.8817 -0.5102  0.0333
  819MOL0     N12935   8.206   3.648  10.345  0.5091 -0.9729  0.3556
  819MOL0     N12936   8.304   3.606  10.414 -0.8255  0.6863 -0.7937
  819MOL0     C12937   9.414   3.305  10.966  0.0537 -0.4360 -0.1911
  819MOL0     C12938   9.437   3.233  11.084 -0.4893 -1.1068 -0.0742
  819MOL0     C12939   9.454   3.062  11.489 -0.3090  0.2212 -0.9490
  819MOL0     C12940   9.373   3.143  11.573  0.0222  0.1696 -0.0203
  819MOL0     C12941   9.390   3.143  11.710 -0.5787  0.1795  0.0091
  819MOL0     C12942   9.474   3.051  11.769 -0.3166 -0.5902 -0.4788
  819MOL0     O12943   9.488   3.052  11.907 -0.2216  0.0191  0.0710
  819MOL0     C12944   9.459   2.926  11.976 -0.5434 -0.3138 -0.4278
  819MOL0     C12945   9.315   2.920  12.023 -0.0302  0.5448  0.0716
  819MOL0     C12946   9.221   2.891  11.904  0.6236  0.7594  0.0972
  819MOL0     C12947   9.086   2.884  11.961  0.6512 -0.1387  0.1483
  819MOL0     C12948   8.988   2.844  11.862  0.4795 -0.7546 -0.2612
  819MOL0     C12949   8.915   2.819  11.772 -0.7250 -0.2498  0.0482
  819MOL0     C12950   9.558   2.977  11.691 -0.4872 -0.3448 -0.0118
  819MOL0     C12951   9.554   2.984  11.552  0.8741 -0.3569 -0.2103
  819MOL0     C12952   9.653   2.903  11.474 -0.2787 -0.5192 -0.2239
  819MOL0     H12953   9.120   3.207  11.176  0.3458  0.4895  1.4501
  819MOL0     H12954   9.080   3.353  10.991 -0.6334  0.4659  4.5199
  819MOL0     H12955   9.104   3.368  10.754  0.1154 -1.1161 -3.7306
  819MOL0     H12956   9.193   3.497  10.658  0.0827  0.2958 -0.4547
  819MOL0     H12957   9.087   3.550  10.925 -0.7812  1.3573  0.3565
  819MOL0     H12958   9.129   3.671  10.801 -0.3835 -0.4258  1.1996
  819MOL0     H12959   8.883   3.488  10.788 -0.7577  0.0578  0.9873
  819MOL0     H12960   8.890   3.653  10.852  0.2431 -0.1668  0.5997
  819MOL0     H12961   8.965   3.750  10.645  0.7413  0.2081 -0.7933
  819MOL0     H12962   8.974   3.593  10.568 -0.3805  1.1223 -0.3866
  819MOL0     H12963   8.718   3.689  10.686  0.1315 -1.7171  0.8722
  819MOL0     H12964   8.732   3.584  10.549  0.3712 -1.7833  1.1084
  819MOL0     H12965   8.814   3.874  10.519  0.4861 -0.7389  0.6736
  819MOL0     H12966   8.811   3.743  10.397  0.2460 -1.3669  0.6225
  819MOL0     H12967   8.595   3.885  10.390 -2.2775 -0.2808 -0.5286
  819MOL0     H12968   8.579   3.847  10.561  0.2021 -1.3191  0.4701
  819MOL0     H12969   8.586   3.607  10.387  1.8277  0.8619 -0.2225
  819MOL0     H12970   8.520   3.638  10.550 -0.5624  0.3130 -0.0816
  819MOL0     H12971   8.409   3.891  10.276  0.9862 -0.7605 -1.2904
  819MOL0     H12972   8.202   3.914  10.138  3.3821 -1.8095  0.1206
  819MOL0     H12973   8.111   3.941  10.290  0.1105 -1.9404  1.7469
  819MOL0     H12974   8.075   3.735  10.070  0.0434 -0.5630  0.4289
  819MOL0     H12975   7.971   3.732  10.223  2.0014 -2.1393 -0.2805
  819MOL0     H12976   7.910   3.979  10.187  0.4444  1.3541 -0.3240
  819MOL0     H12977   7.990   3.967  10.023 -1.9290  1.1857  0.0937
  819MOL0     H12978   7.778   3.949   9.974 -1.4367 -1.1297  0.3320
  819MOL0     H12979   7.837   3.781   9.971 -4.1678 -1.3696 -0.1522
  819MOL0     H12980   7.628   3.767   9.893 -1.1698 -0.2041 -1.0259
  819MOL0     H12981   7.356   3.649   9.744 -0.3288 -0.5195  0.4898
  819MOL0     H12982   7.498   3.733   9.700 -0.5230 -0.8331  0.6399
  819MOL0     H12983   7.349   3.813   9.680  2.6214  1.0955 -0.9460
  819MOL0     H12984   6.906   3.993  10.066  0.0154  0.4253 -0.4940
  819MOL0     H12985   6.653   3.980  10.004  0.5214  0.5890  0.3817
  819MOL0     H12986   6.496   3.629   9.777 -1.1186  0.2286 -0.3413
  819MOL0     H12987   6.493   3.602   9.958  0.6957  1.2576  1.6243
  819MOL0     H12988   6.262   3.579   9.870  1.7595 -0.8541 -0.9611
  819MOL0     H12989   6.288   3.697   9.993 -2.8533 -0.6723  0.4273
  819MOL0     H12990   6.303   3.873   9.811 -2.3746  2.0941  1.2648
  819MOL0     H12991   6.144   3.795   9.835 -0.2013 -1.8281 -1.3837
  819MOL0     H12992   6.174   3.642   9.660  0.6089 -0.5206 -0.9195
  819MOL0     H12993   6.343   3.688   9.632 -0.2044 -0.4906  0.4242
  819MOL0     H12994   6.100   3.881   9.606  0.2191 -0.7483 -0.6286
  819MOL0     H12995   6.263   3.916   9.540  0.7177 -0.8163 -0.8756
  819MOL0     H12996   6.077   3.700   9.461  2.4062 -0.1564  4.3762
  819MOL0     H12997   6.228   3.749   9.372 -0.1322  3.4647 -0.6361
  819MOL0     H12998   6.140   3.981   9.357 -1.2747  1.5498  0.3232
  819MOL0     H12999   5.983   3.933   9.418 -0.9983 -2.9671  0.1216
  819MOL0     H13000   5.969   3.936   9.178  2.4711  1.7197 -1.2840
  819MOL0     H13001   5.975   3.767   9.238 -0.7303  0.8026  2.4224
  819MOL0     H13002   6.720   3.569   9.883 -1.1212  0.2752  0.5469
  819MOL0     H13003   6.941   3.585   9.939 -1.2141 -0.3816  0.9129
  819MOL0     H13004   7.248   3.903  10.161  1.1154  1.5222  0.2818
  819MOL0     H13005   7.474   3.912  10.257 -0.9136  0.1943 -0.1577
  819MOL0     H13006   9.496   3.322  10.897  1.3992  0.9950  1.6247
  819MOL0     H13007   9.538   3.199  11.102 -1.0986 -1.8113  2.3883
  819MOL0     H13008   9.295   3.212  11.540 -0.3892  0.8539  2.2199
  819MOL0     H13009   9.332   3.200  11.782 -1.3837 -1.7268  0.9311
  819MOL0     H13010   9.474   2.839  11.912  1.8579  0.3265 -0.8164
  819MOL0     H13011   9.525   2.913  12.063 -1.2205  0.0192  0.1512
  819MOL0     H13012   9.299   3.014  12.077  2.8479  0.7232  0.7954
  819MOL0     H13013   9.314   2.836  12.093 -0.2472  2.3092  2.2951
  819MOL0     H13014   9.215   2.958  11.817 -2.6857 -2.4980 -2.5442
  819MOL0     H13015   9.243   2.793  11.860 -3.0397 -0.8347  1.3752
  819MOL0     H13016   9.066   2.987  11.993  0.4999  0.0980 -0.6764
  819MOL0     H13017   9.090   2.818  12.048 -2.4988 -1.9032 -0.8935
  819MOL0     H13018   8.836   2.780  11.710 -0.8021 -4.3687  2.3636
  819MOL0     H13019   9.638   2.915  11.731  0.7956  0.4158 -1.2810
  819MOL0     H13020   9.719   2.843  11.539  3.9563  0.6643 -2.9986
  819MOL0     H13021   9.604   2.826  11.415 -2.5284 -1.2525  2.3741
  819MOL0     H13022   9.720   2.966  11.416 -0.1960  0.7851  1.2099
  820MOL0     O13023   0.789   1.782   4.856  0.2218  0.1114 -0.4205
  820MOL0     C13024   0.867   1.692   4.846  0.1389 -0.1863  0.1644
  820MOL0     O13025   0.992   1.697   4.903 -0.4377 -0.3746  0.4709
  820MOL0     C13026   1.053   1.815   4.944 -0.4000 -0.2714  0.0246
  820MOL0     C13027   1.154   1.822   5.042  1.2878  0.1984 -0.8290
  820MOL0     C13028   1.229   1.936   5.074  0.4670 -0.7115  0.4277
  820MOL0     C13029   1.208   2.054   4.993  0.3911  0.6091  0.4533
  820MOL0     O13030   1.267   2.180   5.012 -0.3365 -0.1074  0.3966
  820MOL0     C13031   1.351   2.194   5.125  0.6209 -0.1374 -0.0372
  820MOL0     C13032   1.493   2.161   5.089  0.1032  0.0425  0.7732
  820MOL0     C13033   1.583   2.251   5.169  0.4763 -0.4746  0.6156
  820MOL0     C13034   1.599   2.199   5.313  0.2719 -0.3866 -0.9366
  820MOL0     C13035   1.722   2.260   5.379  0.2261 -0.0248  0.8113
  820MOL0     C13036   1.761   2.178   5.508  0.7342 -0.0455 -0.2943
  820MOL0     C13037   1.876   2.253   5.579  0.2918 -0.2343  0.1278
  820MOL0     C13038   1.914   2.175   5.703 -0.4776  0.2799 -0.2576
  820MOL0     N13039   2.032   2.237   5.770  0.0186 -0.9172 -0.2350
  820MOL0     C13040   2.162   2.240   5.724  0.9924  1.1877  0.3151
  820MOL0     C13041   2.239   2.276   5.829 -0.2956  0.2560 -1.0794
  820MOL0     C13042   2.393   2.304   5.823 -0.7509  0.6256  0.0929
  820MOL0     C13043   2.423   2.448   5.764 -0.5276 -0.0261  0.1334
  820MOL0     C13044   2.363   2.558   5.846  0.3821 -0.1098 -0.1238
  820MOL0     C13045   2.446   2.610   5.961 -0.8649 -1.3578  0.4499
  820MOL0     O13046   2.541   2.709   5.907  0.6936 -1.1206  0.0421
  820MOL0     C13047   2.671   2.680   5.938 -0.7431  0.2744 -0.3639
  820MOL0     C13048   2.758   2.637   5.847 -0.6359  0.0901 -0.3667
  820MOL0     C13049   2.900   2.635   5.860  0.0815 -0.8372  0.0672
  820MOL0     C13050   2.988   2.595   5.744  0.5541 -1.2188  0.6758
  820MOL0     C13051   2.958   2.668   5.988  0.3471 -0.7987  0.1863
  820MOL0     C13052   3.091   2.656   6.027  0.1763  0.5398 -0.5327
  820MOL0     O13053   3.118   2.646   6.162  0.2134  0.0429  0.3271
  820MOL0     C13054   3.240   2.656   6.210 -0.1933  0.6228  0.8907
  820MOL0     C13055   3.306   2.543   6.257 -0.0991 -0.6381  0.2544
  820MOL0     C13056   3.441   2.553   6.291 -0.5299  0.0689  0.1097
  820MOL0     C13057   3.510   2.674   6.274  0.1117  0.7049 -0.6959
  820MOL0     O13058   3.646   2.685   6.283 -0.2505 -0.1943 -0.6290
  820MOL0     C13059   3.732   2.574   6.259 -0.4258 -0.1879  0.2848
  820MOL0     C13060   3.876   2.624   6.261 -0.1429 -0.5752  0.1748
  820MOL0     C13061   3.914   2.662   6.407  0.2836 -0.3826 -0.1263
  820MOL0     C13062   4.062   2.673   6.428 -0.3938  0.0283 -0.4282
  820MOL0     C13063   4.093   2.689   6.575 -0.5291 -0.2735 -0.1880
  820MOL0     C13064   4.235   2.740   6.581 -0.3093  0.0045  0.1054
  820MOL0     C13065   4.297   2.715   6.720 -0.8583 -0.0123  0.1689
  820MOL0     C13066   4.225   2.803   6.833 -0.3226 -0.6067  0.3505
  820MOL0    Cl13067   4.278   2.965   6.806  0.6269  0.2679  0.0431
  820MOL0     C13068   3.433   2.787   6.243  0.1808  0.4906 -0.0556
  820MOL0     C13069   3.301   2.781   6.208  0.9350  0.7662 -0.4367
  820MOL0     O13070   3.177   2.682   5.950 -0.3030 -0.6398  0.2866
  820MOL0     C13071   2.868   2.709   6.086  0.2165  0.5128  1.1440
  820MOL0     C13072   2.735   2.724   6.059 -0.0763  0.1394  0.1650
  820MOL0     N13073   2.155   2.291   5.938 -0.5165  0.0073  0.0418
  820MOL0     N13074   2.035   2.277   5.900  0.6864  0.3879 -0.4934
  820MOL0     C13075   1.105   2.048   4.901  0.8278  0.0781 -0.0462
  820MOL0     C13076   1.027   1.933   4.870  0.5976 -0.5472 -0.0125
  820MOL0     C13077   0.825   1.564   4.781  0.2342  0.3918 -0.8159
  820MOL0     C13078   0.693   1.549   4.734 -0.4464 -0.6765  0.2115
  820MOL0     C13079   0.648   1.428   4.679 -0.0820 -0.9108  0.0498
  820MOL0     C13080   0.728   1.310   4.688  0.4222 -0.7976 -0.0144
  820MOL0     O13081   0.688   1.192   4.637 -0.1457  0.2572 -0.4391
  820MOL0     C13082   0.556   1.179   4.570 -0.0600 -0.6200  0.6079
  820MOL0     C13083   0.433   1.165   4.663  0.7723  0.0748  0.6622
  820MOL0     C13084   0.306   1.234   4.625  0.3945  0.1367 -0.3482
  820MOL0     C13085   0.200   1.220   4.738 -1.1878 -0.2916 -0.4389
  820MOL0     C13086   0.057   1.221   4.698  0.0810 -0.3505 -0.4562
  820MOL0     C13087  -0.056   1.195   4.676  0.1560  0.0096 -0.8405
  820MOL0     C13088   0.853   1.321   4.738  0.0763 -0.2510  0.5064
  820MOL0     C13089   0.908   1.450   4.776  0.4716 -0.4438 -0.2893
  820MOL0     C13090   1.054   1.450   4.789  0.6752  0.3134  0.4197
  820MOL0     H13091   1.174   1.723   5.082 -0.0712  0.5727  0.9124
  820MOL0     H13092   1.298   1.934   5.158 -0.0635  2.0516  1.0059
  820MOL0     H13093   1.324   2.137   5.214 -2.2555  0.0899 -0.6819
  820MOL0     H13094   1.346   2.296   5.163 -0.4601 -1.5954  4.3658
  820MOL0     H13095   1.499   2.053   5.105 -1.9877 -0.2958 -0.4956
  820MOL0     H13096   1.510   2.180   4.983  2.2250 -0.6307  0.9397
  820MOL0     H13097   1.685   2.257   5.130  1.5346  0.2932  3.2820
  820MOL0     H13098   1.546   2.353   5.150 -1.2495 -1.6335 -3.2414
  820MOL0     H13099   1.506   2.218   5.368  0.2560  1.6008 -1.5814
  820MOL0     H13100   1.615   2.091   5.303  2.8731 -0.1705  0.2296
  820MOL0     H13101   1.702   2.364   5.409  0.9571  0.3315  0.1206
  820MOL0     H13102   1.811   2.254   5.315 -0.0997  0.3264  0.3219
  820MOL0     H13103   1.674   2.164   5.574 -0.6287  2.0728 -1.5002
  820MOL0     H13104   1.786   2.075   5.484 -1.0493 -0.6770  0.3324
  820MOL0     H13105   1.849   2.348   5.627  2.9375  0.1310  1.0559
  820MOL0     H13106   1.964   2.267   5.516  1.1958  1.7728  1.7213
  820MOL0     H13107   1.830   2.160   5.771  1.1857 -0.1814  1.8025
  820MOL0     H13108   1.938   2.071   5.677 -2.1600 -0.1159 -0.3494
  820MOL0     H13109   2.204   2.208   5.629 -0.8778 -0.8011  0.0571
  820MOL0     H13110   2.438   2.226   5.760 -1.1689 -0.4700  1.1118
  820MOL0     H13111   2.444   2.293   5.919 -1.9797 -0.2738  0.6843
  820MOL0     H13112   2.532   2.449   5.748 -0.7970  2.4242 -2.2604
  820MOL0     H13113   2.382   2.461   5.664 -1.8873  2.7314  0.9481
  820MOL0     H13114   2.328   2.645   5.789  0.4484  0.8707  1.2850
  820MOL0     H13115   2.269   2.513   5.881  2.5456 -2.2622  3.5578
  820MOL0     H13116   2.388   2.666   6.036 -1.1603  2.7042 -2.4896
  820MOL0     H13117   2.501   2.525   6.002 -0.1672 -2.7343 -3.0467
  820MOL0     H13118   2.726   2.620   5.745 -3.1255  0.3352  0.3158
  820MOL0     H13119   3.046   2.681   5.709 -1.3870  0.2214  0.8161
  820MOL0     H13120   2.932   2.565   5.655  4.6917 -0.1978 -2.6079
  820MOL0     H13121   3.053   2.510   5.767  2.5734  0.2758  0.7603
  820MOL0     H13122   3.263   2.443   6.251 -0.1133 -0.6060 -0.1590
  820MOL0     H13123   3.500   2.467   6.320 -0.8138  0.4595  1.9481
  820MOL0     H13124   3.733   2.498   6.338 -0.2602 -0.3434  0.1345
  820MOL0     H13125   3.707   2.525   6.164 -1.1221 -0.6442  0.6923
  820MOL0     H13126   3.937   2.543   6.221  0.1936 -0.0435 -0.4102
  820MOL0     H13127   3.889   2.705   6.188  1.7109 -2.2533 -1.4684
  820MOL0     H13128   3.891   2.572   6.465 -2.2533 -0.7943 -1.6217
  820MOL0     H13129   3.858   2.752   6.433  1.3699 -0.8240  4.4442
  820MOL0     H13130   4.095   2.762   6.375 -0.2970  0.9414  1.1171
  820MOL0     H13131   4.112   2.585   6.385 -1.4420 -1.4386  1.2050
  820MOL0     H13132   4.023   2.768   6.603 -0.6009 -0.7197  0.9392
  820MOL0     H13133   4.070   2.603   6.638  1.1424 -1.1594 -0.7232
  820MOL0     H13134   4.252   2.848   6.570  1.5968  0.3970  4.6630
  820MOL0     H13135   4.294   2.684   6.509 -2.0306  1.6324 -2.7724
  820MOL0     H13136   4.404   2.738   6.721 -0.7316 -0.4965 -1.1559
  820MOL0     H13137   4.275   2.610   6.743 -0.1206 -0.0273  0.8632
  820MOL0     H13138   4.249   2.761   6.930  1.1222 -1.4148 -0.3295
  820MOL0     H13139   4.116   2.803   6.825 -0.4237 -0.9217  1.6280
  820MOL0     H13140   3.493   2.876   6.225 -1.1675  1.3645 -0.3346
  820MOL0     H13141   3.254   2.870   6.166  2.2885  2.1108  0.8029
  820MOL0     H13142   2.902   2.715   6.189  1.5691 -1.5985  0.8867
  820MOL0     H13143   2.680   2.775   6.138 -1.6117 -1.4297  0.1828
  820MOL0     H13144   1.078   2.142   4.853  0.7658 -0.1702 -0.5020
  820MOL0     H13145   0.939   1.950   4.809 -1.0571  0.8047  2.5724
  820MOL0     H13146   0.633   1.640   4.728  1.2641  0.4067 -1.1704
  820MOL0     H13147   0.543   1.438   4.653  0.3391 -0.2048 -1.5549
  820MOL0     H13148   0.547   1.258   4.495 -0.2828 -0.1599  1.1176
  820MOL0     H13149   0.563   1.085   4.514  0.5969  0.9286 -2.1326
  820MOL0     H13150   0.451   1.218   4.757  1.7171  2.4469 -0.7734
  820MOL0     H13151   0.415   1.060   4.690 -1.9866  0.8482  2.1810
  820MOL0     H13152   0.322   1.341   4.606 -0.6705  0.2148 -0.9009
  820MOL0     H13153   0.276   1.184   4.532  2.7130  0.2107 -1.1977
  820MOL0     H13154   0.219   1.310   4.797  0.1473 -0.0324 -1.2139
  820MOL0     H13155   0.220   1.134   4.801 -2.8317  1.9869  3.5442
  820MOL0     H13156  -0.163   1.203   4.665  0.1564  1.9064  0.0788
  820MOL0     H13157   0.919   1.236   4.733  2.3937  1.4254  0.9040
  820MOL0     H13158   1.079   1.461   4.895  1.6909 -0.2801  0.2597
  820MOL0     H13159   1.098   1.354   4.759  0.7260 -0.2787  2.2778
  820MOL0     H13160   1.093   1.540   4.740 -0.1139  1.0277  1.0912
  821MOL0     O13161   0.238   9.079   8.884 -0.7138  0.3438  0.4484
  821MOL0     C13162   0.178   9.027   8.977  0.3601 -0.1003  0.2590
  821MOL0     O13163   0.229   8.995   9.101 -0.4364 -0.2325 -0.1874
  821MOL0     C13164   0.365   9.020   9.126 -0.6323 -0.5805 -0.4235
  821MOL0     C13165   0.452   8.922   9.186 -0.6760  0.7982  1.0022
  821MOL0     C13166   0.586   8.951   9.212  0.4005 -0.0098 -0.1817
  821MOL0     C13167   0.635   9.084   9.196 -0.5693  0.3809 -0.3773
  821MOL0     O13168   0.759   9.123   9.241 -0.3496  0.2268  0.2005
  821MOL0     C13169   0.816   9.068   9.358  0.0093 -0.7066  0.7836
  821MOL0     C13170   0.954   8.998   9.329 -0.5508 -0.3487 -0.4180
  821MOL0     C13171   1.050   9.101   9.263  0.6394  0.0709  0.1780
  821MOL0     C13172   1.115   9.208   9.350  0.3308  0.7032 -0.1677
  821MOL0     C13173   1.192   9.315   9.266  0.5313 -0.4157 -0.4725
  821MOL0     C13174   1.318   9.376   9.345  1.2560  0.1252  0.4660
  821MOL0     C13175   1.425   9.411   9.252  0.5359  0.2446  0.7532
  821MOL0     C13176   1.526   9.508   9.313 -0.0566  1.1287  0.5301
  821MOL0     N13177   1.638   9.521   9.215  0.1447 -0.0480 -0.6683
  821MOL0     C13178   1.765   9.572   9.247  0.2216 -0.2493 -0.5109
  821MOL0     C13179   1.832   9.599   9.134 -0.1407  1.1334  0.4869
  821MOL0     C13180   1.969   9.653   9.109 -0.5945  0.0319 -0.5650
  821MOL0     C13181   2.012   9.772   9.195  0.3087 -0.1723 -0.2015
  821MOL0     C13182   1.922   9.896   9.184 -0.0802  0.3172  0.2136
  821MOL0     C13183   1.995  10.020   9.220 -0.3288  0.4707 -0.1619
  821MOL0     O13184   2.085  10.055   9.116 -0.0941  0.4225 -0.2442
  821MOL0     C13185   2.198  10.122   9.138  0.2705 -0.7356 -0.0303
  821MOL0     C13186   2.278  10.115   9.021 -1.0715  0.0475 -1.3110
  821MOL0     C13187   2.402  10.183   9.013 -0.1645  0.2048  0.0830
  821MOL0     C13188   2.483  10.162   8.886  0.2970 -0.6493 -0.2598
  821MOL0     C13189   2.447  10.261   9.124  0.4672  0.0845 -0.5054
  821MOL0     C13190   2.579  10.325   9.132 -0.6488  0.4346 -0.1070
  821MOL0     O13191   2.682  10.300   9.046  0.1601  0.1408 -0.0011
  821MOL0     C13192   2.795  10.375   9.058 -0.1676  0.0474 -0.8487
  821MOL0     C13193   2.798  10.498   9.007  0.9289 -1.0049 -0.0259
  821MOL0     C13194   2.926  10.558   8.987  0.7796 -0.4724 -0.8170
  821MOL0     C13195   3.042  10.513   9.049 -0.7926  0.3662  0.2896
  821MOL0     O13196   3.166  10.581   9.036 -0.3426 -0.7412 -0.4131
  821MOL0     C13197   3.167  10.710   8.979 -0.0073  0.2007  0.6489
  821MOL0     C13198   3.317  10.753   8.999 -0.4999 -0.0781  0.1027
  821MOL0     C13199   3.338  10.906   8.987 -0.2281 -0.2193 -0.1495
  821MOL0     C13200   3.484  10.948   8.970  0.1399  0.5954  0.3867
  821MOL0     C13201   3.480  11.099   8.958  0.7217 -0.3998  0.2610
  821MOL0     C13202   3.618  11.167   8.962 -0.7316 -0.3560 -0.2981
  821MOL0     C13203   3.597  11.320   8.941 -0.3783  0.1650 -0.1459
  821MOL0     C13204   3.724  11.405   8.930  0.0514 -0.0216 -0.4625
  821MOL0    Cl13205   3.687  11.581   8.930 -0.0297 -0.0961  0.0108
  821MOL0     C13206   3.035  10.387   9.108  0.7646  0.1434 -0.0067
  821MOL0     C13207   2.910  10.318   9.109 -0.4073 -0.3623  0.2351
  821MOL0     O13208   2.594  10.409   9.225 -0.5457  0.1921 -0.6036
  821MOL0     C13209   2.362  10.261   9.241 -0.5271 -1.1606  0.6493
  821MOL0     C13210   2.234  10.198   9.248 -0.5279 -0.3531 -0.2931
  821MOL0     N13211   1.751   9.548   9.029  0.9173 -0.8435 -0.7230
  821MOL0     N13212   1.639   9.485   9.077  0.5147  1.1233 -0.3992
  821MOL0     C13213   0.548   9.178   9.141 -0.2916  0.1354  0.3589
  821MOL0     C13214   0.413   9.154   9.109  0.1913  0.2670  0.0266
  821MOL0     C13215   0.034   8.980   8.947 -0.5708  0.3152 -0.0544
  821MOL0     C13216  -0.041   9.050   8.857 -0.6749  0.5149  0.7404
  821MOL0     C13217  -0.167   9.013   8.809 -0.0848  0.0740  0.3879
  821MOL0     C13218  -0.225   8.903   8.868  0.6854 -0.1087 -0.0797
  821MOL0     O13219  -0.348   8.856   8.836  0.0559  0.2598 -0.4616
  821MOL0     C13220  -0.397   8.886   8.711  1.0334 -0.2468 -0.5895
  821MOL0     C13221  -0.516   8.790   8.689  0.0324 -0.4010 -0.1110
  821MOL0     C13222  -0.592   8.820   8.560  0.2059 -0.2968 -0.1415
  821MOL0     C13223  -0.552   8.730   8.447 -0.2282  0.0699 -0.1392
  821MOL0     C13224  -0.621   8.768   8.322  0.4192 -0.0851  0.1807
  821MOL0     C13225  -0.668   8.794   8.219  0.1149 -0.6328  0.4724
  821MOL0     C13226  -0.155   8.829   8.964 -0.0299 -0.0658 -0.2264
  821MOL0     C13227  -0.033   8.867   9.008 -0.1863 -0.5274 -0.4143
  821MOL0     C13228   0.042   8.762   9.098  0.0868  0.1666  0.0385
  821MOL0     H13229   0.428   8.817   9.195 -1.7936  0.9582  0.2018
  821MOL0     H13230   0.661   8.881   9.248 -0.3455 -0.6083  0.2224
  821MOL0     H13231   0.748   9.001   9.411 -0.7375  0.1817  0.9801
  821MOL0     H13232   0.837   9.152   9.425  0.8354  0.0169 -0.3543
  821MOL0     H13233   0.985   8.961   9.427 -3.5407 -1.1038  0.3702
  821MOL0     H13234   0.943   8.906   9.270 -1.4668 -1.3494  1.2399
  821MOL0     H13235   1.133   9.039   9.229  2.1105  1.5553  0.9149
  821MOL0     H13236   1.001   9.150   9.178  1.5498 -1.5313 -1.3390
  821MOL0     H13237   1.049   9.250   9.426 -1.3248  2.2111 -2.3450
  821MOL0     H13238   1.197   9.150   9.395  2.1717  1.8110 -1.9174
  821MOL0     H13239   1.120   9.397   9.255  0.2910  0.0492  3.2663
  821MOL0     H13240   1.228   9.273   9.171 -1.2259 -0.8928 -0.9693
  821MOL0     H13241   1.280   9.459   9.404 -2.2447 -2.2787  1.9327
  821MOL0     H13242   1.356   9.298   9.412 -0.6626 -0.6388  0.7162
  821MOL0     H13243   1.379   9.463   9.168 -2.3974 -1.3956  1.2261
  821MOL0     H13244   1.473   9.320   9.213 -0.6419 -0.3781  0.6993
  821MOL0     H13245   1.482   9.604   9.342 -3.0886 -0.0382  0.1751
  821MOL0     H13246   1.576   9.463   9.399 -0.8239  1.4543  1.1676
  821MOL0     H13247   1.808   9.589   9.345  1.6416  0.5268 -1.2347
  821MOL0     H13248   1.983   9.672   9.002 -1.1060 -1.0039 -0.8186
  821MOL0     H13249   2.037   9.572   9.135 -0.6002  0.4090  0.6734
  821MOL0     H13250   2.021   9.742   9.299  1.4651  0.0302 -0.2276
  821MOL0     H13251   2.113   9.796   9.161 -0.1793 -1.9382 -3.2257
  821MOL0     H13252   1.904   9.913   9.078 -0.8514  1.3235  0.4863
  821MOL0     H13253   1.824   9.890   9.233 -0.6148  0.1091 -0.8518
  821MOL0     H13254   1.928  10.103   9.245  0.9835  1.9257 -1.2775
  821MOL0     H13255   2.062  10.007   9.306  0.6908  0.1774 -0.9861
  821MOL0     H13256   2.237  10.060   8.937 -1.6810  1.1290 -1.7367
  821MOL0     H13257   2.542  10.254   8.876 -1.6903  0.6011 -1.3198
  821MOL0     H13258   2.419  10.142   8.799 -0.5577 -0.7613  0.3897
  821MOL0     H13259   2.554  10.079   8.896  2.2986  0.8590 -1.1061
  821MOL0     H13260   2.717  10.547   8.955  1.2737  0.3670  0.6700
  821MOL0     H13261   2.922  10.643   8.919 -0.3538  0.2702  0.1380
  821MOL0     H13262   3.141  10.706   8.873  0.8119 -1.2011  0.4714
  821MOL0     H13263   3.106  10.781   9.034 -0.0872  1.2612 -0.7548
  821MOL0     H13264   3.346  10.722   9.100 -2.8016 -4.6529 -0.3807
  821MOL0     H13265   3.378  10.701   8.924  0.6620  0.1969  0.8287
  821MOL0     H13266   3.310  10.962   9.076  0.7732  2.4933 -1.4423
  821MOL0     H13267   3.276  10.941   8.904 -1.0343 -0.4010  0.3635
  821MOL0     H13268   3.522  10.909   8.875 -0.6987  2.0591 -0.6120
  821MOL0     H13269   3.537  10.920   9.061 -2.0010  2.9050  2.4911
  821MOL0     H13270   3.421  11.121   8.868 -2.5546 -3.0962  1.5157
  821MOL0     H13271   3.421  11.146   9.037  1.1773  1.1386 -0.2773
  821MOL0     H13272   3.674  11.125   8.878  0.3590  1.4677 -0.5243
  821MOL0     H13273   3.665  11.142   9.058 -1.8401  1.0391  0.6539
  821MOL0     H13274   3.552  11.371   9.026  2.5087  1.3167  0.8231
  821MOL0     H13275   3.533  11.337   8.854  1.1976  2.6686 -0.9281
  821MOL0     H13276   3.775  11.373   8.839  1.3312 -0.1051  0.2511
  821MOL0     H13277   3.777  11.369   9.019 -1.7766  0.2593  0.7842
  821MOL0     H13278   3.131  10.355   9.147 -0.5759 -3.4074  0.8260
  821MOL0     H13279   2.908  10.215   9.146 -1.9949 -1.2415 -2.0745
  821MOL0     H13280   2.392  10.327   9.322  0.3669 -1.2705  0.4235
  821MOL0     H13281   2.176  10.198   9.340  2.2023  0.2878  1.5827
  821MOL0     H13282   0.597   9.270   9.112 -0.9094  0.7237  1.1156
  821MOL0     H13283   0.351   9.226   9.057  0.9727  1.3254  0.5221
  821MOL0     H13284   0.002   9.140   8.815  0.9522 -0.7572 -0.4424
  821MOL0     H13285  -0.220   9.068   8.733 -1.1986 -0.3065  0.8744
  821MOL0     H13286  -0.430   8.991   8.713 -2.1235 -1.1232  0.2449
  821MOL0     H13287  -0.319   8.876   8.636 -0.8061  1.2610 -2.8638
  821MOL0     H13288  -0.586   8.788   8.773  0.3550 -0.1542  0.1670
  821MOL0     H13289  -0.466   8.693   8.679 -0.1250 -0.5257  0.2897
  821MOL0     H13290  -0.698   8.798   8.576 -0.5560  2.2389 -1.2597
  821MOL0     H13291  -0.583   8.926   8.537 -1.0778 -0.2198 -0.3437
  821MOL0     H13292  -0.565   8.623   8.464  1.4112 -0.0233  0.7357
  821MOL0     H13293  -0.444   8.743   8.436 -0.4292  0.4186 -2.0284
  821MOL0     H13294  -0.716   8.819   8.127 -1.5546 -3.1296  0.5611
  821MOL0     H13295  -0.201   8.738   8.999  1.2615 -0.7401 -0.2282
  821MOL0     H13296   0.144   8.749   9.058 -0.3575  1.8070 -1.8336
  821MOL0     H13297   0.053   8.792   9.202 -0.1972 -0.6795  0.3239
  821MOL0     H13298  -0.007   8.665   9.109  1.0777 -0.2480  1.0190
  822MOL0     O13299   9.573   8.478   9.956 -0.3708  0.8248  0.4243
  822MOL0     C13300   9.548   8.451   9.840 -0.7972  0.1296 -0.9843
  822MOL0     O13301   9.645   8.414   9.756  0.6602  0.1415 -1.0899
  822MOL0     C13302   9.777   8.404   9.795  0.3831 -0.8206  0.0559
  822MOL0     C13303   9.839   8.289   9.777 -0.1813  0.8651 -0.3109
  822MOL0     C13304   9.975   8.274   9.794 -0.5552  0.5413  0.3549
  822MOL0     C13305  10.053   8.384   9.845 -0.8022  0.0221 -0.2739
  822MOL0     O13306  10.189   8.373   9.858 -0.0966 -0.9083 -0.1992
  822MOL0     C13307  10.270   8.466   9.940 -0.2233 -0.9186  0.5930
  822MOL0     C13308  10.412   8.416   9.954  1.5741  0.2476 -0.0146
  822MOL0     C13309  10.490   8.429   9.828 -0.5694 -0.1268 -0.0908
  822MOL0     C13310  10.639   8.388   9.855 -0.1215 -0.1226 -0.8759
  822MOL0     C13311  10.733   8.399   9.736 -0.3174 -0.0753  0.2513
  822MOL0     C13312  10.866   8.320   9.777 -0.7317 -0.2541 -0.2125
  822MOL0     C13313  10.970   8.323   9.663  0.0637  0.0654  0.1212
  822MOL0     C13314  11.106   8.373   9.707  1.2253 -0.0579  0.2795
  822MOL0     N13315  11.215   8.344   9.602 -0.1738 -0.8665 -0.0484
  822MOL0     C13316  11.280   8.455   9.534  0.7432  0.3012 -0.6924
  822MOL0     C13317  11.361   8.392   9.441  0.5095  0.6591  0.0209
  822MOL0     C13318  11.471   8.453   9.362  0.4795  0.3923  0.3175
  822MOL0     C13319  11.585   8.466   9.468 -0.1457 -0.0054  0.0464
  822MOL0     C13320  11.698   8.539   9.397 -0.4815  0.4523 -0.1722
  822MOL0     C13321  11.831   8.546   9.477  0.8861  0.6918  0.5157
  822MOL0     O13322  11.926   8.599   9.386 -0.0106  0.5455  0.3744
  822MOL0     C13323  12.052   8.615   9.429  0.0457 -0.2583  0.3238
  822MOL0     C13324  12.098   8.587   9.561  0.8799 -0.0819 -0.2739
  822MOL0     C13325  12.230   8.610   9.597 -0.7801  0.7239 -0.5841
  822MOL0     C13326  12.273   8.585   9.745  0.7286  0.7277  0.7601
  822MOL0     C13327  12.329   8.645   9.499 -0.3420 -0.1047 -0.1592
  822MOL0     C13328  12.473   8.669   9.525 -0.5496 -0.1852  0.9795
  822MOL0     O13329  12.550   8.660   9.411  0.5603 -0.0831  0.1948
  822MOL0     C13330  12.670   8.714   9.408  0.6947  0.8866 -0.3413
  822MOL0     C13331  12.699   8.796   9.300 -0.8373  0.0450  0.0027
  822MOL0     C13332  12.824   8.851   9.280  0.0067 -0.1808  0.7874
  822MOL0     C13333  12.935   8.820   9.349  0.8430  0.4103  0.1962
  822MOL0     O13334  13.051   8.878   9.311 -0.2268 -0.1149 -0.4475
  822MOL0     C13335  13.171   8.800   9.320 -0.0710 -0.1659 -0.2704
  822MOL0     C13336  13.286   8.868   9.239  0.5767  1.4748  0.4706
  822MOL0     C13337  13.402   8.766   9.247 -0.8510 -0.2283  0.6043
  822MOL0     C13338  13.531   8.827   9.194  0.5311 -0.9482 -0.5210
  822MOL0     C13339  13.656   8.744   9.218 -0.8175 -0.6536  0.6413
  822MOL0     C13340  13.783   8.808   9.162 -1.1439 -0.6933 -0.2347
  822MOL0     C13341  13.916   8.735   9.199  0.0379  0.3299 -1.4998
  822MOL0     C13342  14.034   8.800   9.130 -0.2471  0.0429 -0.5269
  822MOL0    Cl13343  14.182   8.688   9.121 -0.2903  0.3968  0.1480
  822MOL0     C13344  12.912   8.734   9.460  0.5961  0.1233  0.6653
  822MOL0     C13345  12.777   8.680   9.488 -0.3325 -0.1848  0.1930
  822MOL0     O13346  12.514   8.707   9.638  0.7430 -0.1244  0.1049
  822MOL0     C13347  12.283   8.661   9.364  0.3628  0.2111  0.5530
  822MOL0     C13348  12.147   8.652   9.334 -0.7044 -0.0886  0.9918
  822MOL0     N13349  11.342   8.258   9.453 -0.8931  0.0896  0.2720
  822MOL0     N13350  11.256   8.230   9.547  0.1056  0.9308 -0.8120
  822MOL0     C13351   9.991   8.506   9.871  0.3782 -0.2462 -0.0843
  822MOL0     C13352   9.853   8.514   9.847  0.2064  0.3863  0.1869
  822MOL0     C13353   9.417   8.498   9.794 -0.0448  0.5631 -0.7840
  822MOL0     C13354   9.403   8.538   9.664  0.1083 -0.4839  0.9492
  822MOL0     C13355   9.286   8.589   9.613  1.1598  0.1920  0.3794
  822MOL0     C13356   9.173   8.593   9.695 -0.1064 -0.6399 -0.0453
  822MOL0     O13357   9.063   8.644   9.637  0.4421 -0.3044  0.0159
  822MOL0     C13358   8.947   8.666   9.723  0.5184  0.4200 -0.3598
  822MOL0     C13359   8.842   8.742   9.641  0.1083 -0.4105  0.3482
  822MOL0     C13360   8.756   8.663   9.535  0.2824  0.1858 -1.2880
  822MOL0     C13361   8.826   8.656   9.402  0.2753  0.1835 -0.8784
  822MOL0     C13362   8.764   8.562   9.299 -0.0274 -0.3168  0.9903
  822MOL0     C13363   8.715   8.499   9.204  0.1707  0.0174  0.2843
  822MOL0     C13364   9.185   8.553   9.828  0.8943  0.1858  0.5436
  822MOL0     C13365   9.306   8.504   9.881 -0.2227 -1.0836 -0.0499
  822MOL0     C13366   9.302   8.452  10.020  0.0177  0.9003 -0.7329
  822MOL0     H13367   9.776   8.210   9.735  0.9679  0.3468 -1.0996
  822MOL0     H13368  10.026   8.181   9.772  0.8838  0.5448  3.2232
  822MOL0     H13369  10.229   8.500  10.035 -2.4922  1.4315 -1.0928
  822MOL0     H13370  10.281   8.557   9.880  2.4068  0.3639  2.8017
  822MOL0     H13371  10.467   8.480  10.024  3.5520  1.3029 -2.3754
  822MOL0     H13372  10.420   8.317  10.001  4.6829  0.3174 -0.1862
  822MOL0     H13373  10.453   8.361   9.751 -0.5591  1.0781 -1.2024
  822MOL0     H13374  10.496   8.535   9.803  1.1185 -0.1098  0.2923
  822MOL0     H13375  10.681   8.434   9.945 -0.9895 -0.1765 -0.4374
  822MOL0     H13376  10.637   8.281   9.879  1.1172 -0.3154 -1.5389
  822MOL0     H13377  10.764   8.503   9.720 -1.5409  0.1203 -1.1685
  822MOL0     H13378  10.687   8.360   9.645  1.5161 -2.5058  0.2748
  822MOL0     H13379  10.899   8.363   9.872 -3.9272 -0.4983  1.1456
  822MOL0     H13380  10.846   8.214   9.793  2.2690 -0.6638  1.6933
  822MOL0     H13381  10.932   8.398   9.593  0.1250  0.6113  0.6697
  822MOL0     H13382  10.984   8.221   9.624 -0.6635  0.1829 -0.4777
  822MOL0     H13383  11.114   8.478   9.735  1.0986 -0.7706  3.3500
  822MOL0     H13384  11.124   8.325   9.804  0.3956 -0.1124  0.4095
  822MOL0     H13385  11.265   8.563   9.541  1.8671  0.5101 -1.3005
  822MOL0     H13386  11.428   8.551   9.339 -2.8428 -0.8429  0.8047
  822MOL0     H13387  11.504   8.399   9.273  2.9409 -0.7251  1.7984
  822MOL0     H13388  11.556   8.527   9.553 -0.0472  1.2953 -0.8274
  822MOL0     H13389  11.632   8.372   9.501 -0.1563 -0.2797 -0.6967
  822MOL0     H13390  11.712   8.484   9.304 -2.5462 -0.4113 -0.0311
  822MOL0     H13391  11.663   8.641   9.385 -3.5122 -0.5209 -0.5521
  822MOL0     H13392  11.798   8.586   9.574 -1.4515  1.0400 -0.3540
  822MOL0     H13393  11.862   8.444   9.504 -1.9277  0.2597  2.6587
  822MOL0     H13394  12.027   8.553   9.636 -1.2942 -0.7440 -2.5159
  822MOL0     H13395  12.306   8.670   9.805  1.3628 -0.1446  1.6869
  822MOL0     H13396  12.350   8.508   9.753  0.0084 -0.0516  0.3363
  822MOL0     H13397  12.190   8.548   9.805  3.6833 -2.3335  3.3814
  822MOL0     H13398  12.618   8.832   9.237 -1.5363  3.9031  2.7732
  822MOL0     H13399  12.845   8.912   9.193  1.8830 -0.5307  0.9486
  822MOL0     H13400  13.200   8.802   9.425 -3.2889  4.9269  0.9192
  822MOL0     H13401  13.149   8.701   9.279 -1.5441  0.4609 -1.0614
  822MOL0     H13402  13.263   8.888   9.134 -3.7865  0.1568  0.9639
  822MOL0     H13403  13.311   8.962   9.288 -0.2712  1.6462  0.5934
  822MOL0     H13404  13.389   8.679   9.182 -0.1069  0.5235 -0.6051
  822MOL0     H13405  13.428   8.734   9.348  1.5792 -1.3759 -0.2952
  822MOL0     H13406  13.551   8.924   9.240 -0.9679  0.2673 -2.2725
  822MOL0     H13407  13.517   8.853   9.089 -1.5512 -1.3012 -0.3791
  822MOL0     H13408  13.661   8.726   9.326  0.3657 -0.8351  0.5771
  822MOL0     H13409  13.643   8.653   9.159 -0.1706 -0.1062 -0.3699
  822MOL0     H13410  13.802   8.907   9.204  0.9197 -0.9483 -0.4474
  822MOL0     H13411  13.771   8.836   9.057  1.8540  2.1976  0.0612
  822MOL0     H13412  13.907   8.631   9.164  0.3028 -0.0424 -0.5191
  822MOL0     H13413  13.940   8.725   9.305 -2.1108  2.2234 -0.7767
  822MOL0     H13414  14.069   8.879   9.198  2.1847 -0.0957 -1.4957
  822MOL0     H13415  14.010   8.835   9.029  1.3776 -0.2685 -1.0614
  822MOL0     H13416  12.991   8.701   9.527  0.4757 -0.5351  0.4887
  822MOL0     H13417  12.753   8.608   9.565 -1.0312 -2.2198 -1.8310
  822MOL0     H13418  12.343   8.684   9.277 -2.4503  0.4556 -1.4308
  822MOL0     H13419  12.116   8.655   9.230 -1.9655  1.1350  1.3795
  822MOL0     H13420  10.040   8.602   9.890  0.3466 -0.3021  0.2958
  822MOL0     H13421   9.808   8.612   9.858  2.8152  2.1634 -3.0234
  822MOL0     H13422   9.488   8.532   9.597 -0.2273 -0.3501  0.5105
  822MOL0     H13423   9.300   8.624   9.511 -0.0182  0.1583  0.1958
  822MOL0     H13424   8.907   8.573   9.765  2.5470 -2.6331 -4.4585
  822MOL0     H13425   8.984   8.725   9.807  0.8780 -2.1508  1.3713
  822MOL0     H13426   8.899   8.819   9.588 -1.0648 -0.4205 -0.9939
  822MOL0     H13427   8.777   8.794   9.712  0.1291  2.8917 -1.8426
  822MOL0     H13428   8.742   8.559   9.566  2.2427 -0.2927 -1.8529
  822MOL0     H13429   8.658   8.712   9.528  1.6980  3.7826  1.0606
  822MOL0     H13430   8.925   8.613   9.416 -0.2313 -0.8176 -0.2146
  822MOL0     H13431   8.838   8.755   9.357  3.3270 -0.6725 -2.1378
  822MOL0     H13432   8.692   8.437   9.120  2.4433 -1.8742  0.9486
  822MOL0     H13433   9.100   8.562   9.894  1.6406  1.2240  1.3777
  822MOL0     H13434   9.359   8.359  10.022 -0.3584  0.6707 -0.6452
  822MOL0     H13435   9.344   8.515  10.100  1.1334 -1.0683  0.3148
  822MOL0     H13436   9.196   8.434  10.042 -0.2146 -0.2824 -2.6314
  823MOL0     O13437  11.029   1.390   8.343  0.1012  0.2809  0.4920
  823MOL0     C13438  10.984   1.454   8.245 -0.0725  0.2914 -0.5823
  823MOL0     O13439  11.064   1.540   8.173 -0.3936  0.2293 -0.1366
  823MOL0     C13440  11.193   1.552   8.215  0.8956  0.2089 -0.5627
  823MOL0     C13441  11.239   1.660   8.285 -0.5222  0.0549  0.1114
  823MOL0     C13442  11.377   1.675   8.313  0.2039 -0.0139  0.2404
  823MOL0     C13443  11.462   1.575   8.269 -0.0922  0.1364  0.1992
  823MOL0     O13444  11.590   1.585   8.288 -0.0880  0.0008  0.3257
  823MOL0     C13445  11.655   1.716   8.283  0.6674  0.2909 -0.4509
  823MOL0     C13446  11.808   1.711   8.277 -0.2542  0.0152 -0.2438
  823MOL0     C13447  11.853   1.853   8.260  0.0568  0.0637  0.1776
  823MOL0     C13448  11.994   1.848   8.204  0.2898  0.0778 -0.2148
  823MOL0     C13449  12.059   1.985   8.190 -0.3457 -0.4143 -1.2220
  823MOL0     C13450  12.190   1.978   8.100  0.1123  0.5126  0.0848
  823MOL0     C13451  12.307   1.908   8.168  0.2110 -0.1991  0.2191
  823MOL0     C13452  12.397   1.983   8.269  0.7027 -0.8807 -0.9575
  823MOL0     N13453  12.482   1.891   8.350 -0.4464 -0.5516  0.5792
  823MOL0     C13454  12.546   1.780   8.295 -0.4721 -0.5486 -0.2991
  823MOL0     C13455  12.615   1.739   8.398  0.2799 -0.0329  0.0021
  823MOL0     C13456  12.717   1.631   8.396 -0.5914 -0.4356  0.4575
  823MOL0     C13457  12.855   1.688   8.366  0.3862  1.1226  0.1459
  823MOL0     C13458  12.942   1.567   8.345 -0.0586 -0.2477  0.1368
  823MOL0     C13459  13.084   1.612   8.318  0.4996  0.4652 -0.4474
  823MOL0     O13460  13.152   1.629   8.446  0.0375 -0.1594  0.4950
  823MOL0     C13461  13.285   1.672   8.434  0.3711  0.1382 -0.2089
  823MOL0     C13462  13.328   1.770   8.533 -0.4082 -0.1053  0.2430
  823MOL0     C13463  13.456   1.827   8.525 -0.5832 -0.1729  0.2449
  823MOL0     C13464  13.485   1.919   8.642  0.8233 -0.0921  0.9305
  823MOL0     C13465  13.546   1.793   8.418  0.4095 -0.3985  0.2090
  823MOL0     C13466  13.681   1.858   8.402 -0.3779 -0.3338 -0.4402
  823MOL0     O13467  13.752   1.816   8.290  0.1011 -0.0735 -0.7449
  823MOL0     C13468  13.872   1.883   8.266 -0.2469  0.3523  0.3127
  823MOL0     C13469  13.987   1.830   8.297 -1.2429 -0.6297 -0.0930
  823MOL0     C13470  14.109   1.889   8.268 -0.0457  0.4725  0.8429
  823MOL0     C13471  14.114   2.012   8.197  1.1002 -0.1797 -0.2057
  823MOL0     O13472  14.237   2.080   8.170  0.2718  0.2903  0.0716
  823MOL0     C13473  14.357   2.010   8.168  0.5011  0.5170 -0.5878
  823MOL0     C13474  14.460   2.085   8.097  1.1837 -1.0559  0.1246
  823MOL0     C13475  14.513   2.206   8.178 -0.6826  0.1616  0.3685
  823MOL0     C13476  14.580   2.313   8.102  0.9028  0.0554 -0.0747
  823MOL0     C13477  14.493   2.385   7.999  0.3407 -0.3071 -0.6024
  823MOL0     C13478  14.583   2.492   7.933  0.1677 -0.1457  0.3041
  823MOL0     C13479  14.568   2.507   7.777 -0.4003 -0.4496  0.5858
  823MOL0     C13480  14.668   2.605   7.716 -0.3292 -0.8612 -0.5366
  823MOL0    Cl13481  14.835   2.512   7.708 -0.4144 -0.2797 -0.0959
  823MOL0     C13482  13.993   2.078   8.169  0.2397 -0.1363 -0.5427
  823MOL0     C13483  13.871   2.010   8.201 -0.5656 -1.3268  0.1251
  823MOL0     O13484  13.726   1.944   8.479  0.4283 -0.2052  0.5975
  823MOL0     C13485  13.499   1.700   8.322  0.2669 -0.9314  0.0870
  823MOL0     C13486  13.371   1.641   8.327 -0.0523  0.3567 -0.1032
  823MOL0     N13487  12.577   1.799   8.518 -0.0642 -0.6004 -0.5003
  823MOL0     N13488  12.480   1.887   8.486 -0.8016  0.1372  0.1592
  823MOL0     C13489  11.415   1.455   8.224  0.5488  0.2443 -0.0722
  823MOL0     C13490  11.282   1.443   8.192  0.4246  0.2807 -0.0746
  823MOL0     C13491  10.842   1.465   8.235 -0.2367 -0.2741  0.6181
  823MOL0     C13492  10.777   1.560   8.151 -0.2279 -0.2341  0.1420
  823MOL0     C13493  10.638   1.566   8.127 -0.3282  0.4821  0.1742
  823MOL0     C13494  10.555   1.473   8.184 -0.4728 -0.1422  0.3990
  823MOL0     O13495  10.416   1.487   8.180 -0.6233 -0.1345 -0.4241
  823MOL0     C13496  10.364   1.456   8.050  0.2185  1.0783  0.2724
  823MOL0     C13497  10.321   1.585   7.976 -0.2718  0.4067  1.2530
  823MOL0     C13498  10.258   1.687   8.065  0.5257  0.6975  0.2879
  823MOL0     C13499  10.114   1.652   8.096  0.4649  0.5238  0.1302
  823MOL0     C13500  10.050   1.748   8.184 -0.3502 -0.6382  0.4414
  823MOL0     C13501  10.006   1.830   8.263 -0.1895  0.1713  0.6832
  823MOL0     C13502  10.616   1.381   8.265  0.7750 -0.4947  0.7901
  823MOL0     C13503  10.750   1.376   8.299  0.6894  1.2293 -0.0274
  823MOL0     C13504  10.800   1.251   8.373  0.0113 -0.1127  0.1606
  823MOL0     H13505  11.179   1.747   8.308  2.9659  3.3149 -1.8092
  823MOL0     H13506  11.413   1.770   8.349  0.1307  0.1586 -0.1339
  823MOL0     H13507  11.630   1.778   8.370 -0.7633 -0.7097 -0.1104
  823MOL0     H13508  11.603   1.766   8.200  0.1991  0.5246 -0.0203
  823MOL0     H13509  11.837   1.677   8.377 -0.7932  1.3109  0.3685
  823MOL0     H13510  11.843   1.649   8.194  2.9502  0.4568  0.6166
  823MOL0     H13511  11.790   1.898   8.183  1.2049 -0.7851 -1.3190
  823MOL0     H13512  11.861   1.910   8.353 -1.3997  3.2896 -1.5247
  823MOL0     H13513  12.057   1.791   8.273 -0.2916  1.3801  1.4473
  823MOL0     H13514  11.979   1.803   8.105  0.0574  1.0458 -0.6308
  823MOL0     H13515  12.087   2.028   8.287  1.7016 -2.9808 -0.5469
  823MOL0     H13516  11.984   2.051   8.147 -1.0668  0.7173  1.5729
  823MOL0     H13517  12.162   1.919   8.012 -1.7675 -1.4375  1.8950
  823MOL0     H13518  12.216   2.079   8.068 -0.2966 -0.3156 -3.2218
  823MOL0     H13519  12.372   1.873   8.087 -1.3853  0.3810 -1.3752
  823MOL0     H13520  12.259   1.826   8.221 -0.8409  0.6847  0.6657
  823MOL0     H13521  12.458   2.056   8.215  1.1534 -0.5156  0.0254
  823MOL0     H13522  12.329   2.043   8.331  1.3045 -1.5780  0.4099
  823MOL0     H13523  12.547   1.750   8.191 -0.7369 -0.2607 -0.3879
  823MOL0     H13524  12.688   1.568   8.311  1.3826  1.2684 -1.6139
  823MOL0     H13525  12.725   1.573   8.488 -1.9507  0.5255  1.2154
  823MOL0     H13526  12.846   1.746   8.274 -3.6171  0.1115 -0.2850
  823MOL0     H13527  12.885   1.748   8.453 -2.7217  3.5819 -0.2760
  823MOL0     H13528  12.933   1.499   8.430  1.3410  0.3808  0.8292
  823MOL0     H13529  12.903   1.516   8.256  0.8648 -0.3046 -0.2508
  823MOL0     H13530  13.128   1.531   8.260  0.1616  0.0232 -0.0847
  823MOL0     H13531  13.093   1.700   8.254  0.0787  0.3229 -0.7003
  823MOL0     H13532  13.270   1.795   8.621  1.8181 -2.7934  2.6978
  823MOL0     H13533  13.562   1.870   8.703 -0.3905 -1.2432  1.6004
  823MOL0     H13534  13.400   1.926   8.711 -0.5915 -3.9277 -0.1333
  823MOL0     H13535  13.514   2.018   8.606  0.4130  0.3383  1.7679
  823MOL0     H13536  13.993   1.747   8.367  2.0068  1.3522  2.2713
  823MOL0     H13537  14.196   1.828   8.294 -0.7889 -1.2233 -0.4235
  823MOL0     H13538  14.393   1.983   8.268 -0.5375  2.4718  0.3653
  823MOL0     H13539  14.339   1.914   8.118  1.1003  0.7933 -1.3601
  823MOL0     H13540  14.541   2.016   8.071 -0.5181 -1.9244 -3.4927
  823MOL0     H13541  14.414   2.119   8.004 -2.8186 -1.2147  1.8324
  823MOL0     H13542  14.587   2.159   8.244  0.5045 -1.8171 -2.1874
  823MOL0     H13543  14.444   2.256   8.247  1.6814  0.9164  2.3119
  823MOL0     H13544  14.673   2.278   8.057  0.7537 -0.6449  0.1519
  823MOL0     H13545  14.614   2.388   8.174  0.2094  0.2836  0.0239
  823MOL0     H13546  14.459   2.314   7.923  0.4145 -0.4732 -0.4808
  823MOL0     H13547  14.416   2.442   8.051 -0.8572 -1.7090 -0.7805
  823MOL0     H13548  14.690   2.481   7.952 -0.1534  0.0127  2.4803
  823MOL0     H13549  14.557   2.584   7.986  2.5598 -0.9867  3.2281
  823MOL0     H13550  14.471   2.542   7.741  2.2141  3.3300 -3.9713
  823MOL0     H13551  14.575   2.409   7.729 -1.9836 -1.3614  2.1013
  823MOL0     H13552  14.683   2.703   7.762 -2.3777  0.2188 -2.0174
  823MOL0     H13553  14.631   2.642   7.620  0.6272  0.1636 -0.5250
  823MOL0     H13554  13.994   2.178   8.128  0.2010  0.5878  1.1239
  823MOL0     H13555  13.780   2.056   8.162  1.9579  1.7768 -2.6436
  823MOL0     H13556  13.547   1.673   8.228 -0.1616 -0.1768 -0.3661
  823MOL0     H13557  13.359   1.574   8.242  0.3690  0.9405 -0.6372
  823MOL0     H13558  11.485   1.374   8.203  3.2503  1.4309  3.4737
  823MOL0     H13559  11.256   1.367   8.119 -0.1650  2.1976 -1.9667
  823MOL0     H13560  10.848   1.628   8.105  1.5036 -1.2984  1.1235
  823MOL0     H13561  10.609   1.658   8.078  1.6799  0.9497 -0.2035
  823MOL0     H13562  10.437   1.403   7.989 -0.1391  1.0949 -0.1794
  823MOL0     H13563  10.274   1.397   8.067 -0.2420  1.0513 -2.0173
  823MOL0     H13564  10.276   1.570   7.877  2.2988  2.1268 -0.3166
  823MOL0     H13565  10.415   1.627   7.939  0.9623 -0.4583  3.2362
  823MOL0     H13566  10.318   1.703   8.154  1.9231  0.0232 -0.5009
  823MOL0     H13567  10.253   1.780   8.009 -0.5428  0.6455  0.2635
  823MOL0     H13568  10.099   1.557   8.148 -3.2066  0.6673 -0.3619
  823MOL0     H13569  10.060   1.650   8.001 -2.0123 -1.4254  1.4458
  823MOL0     H13570   9.967   1.907   8.327  1.6959 -0.0306  2.1596
  823MOL0     H13571  10.553   1.303   8.306 -0.7072  0.5120  0.5135
  823MOL0     H13572  10.880   1.202   8.316  0.7411  1.5299 -0.2706
  823MOL0     H13573  10.839   1.284   8.470 -1.6238  2.0094  0.1746
  823MOL0     H13574  10.724   1.173   8.390 -1.8248  1.8487  1.5177
  824MOL0     O13575   0.154   3.294   2.509  0.1945 -0.1126  0.3906
  824MOL0     C13576   0.062   3.367   2.497 -0.4898 -0.2283 -0.3340
  824MOL0     O13577   0.024   3.465   2.586 -0.1379 -0.2557  0.0538
  824MOL0     C13578   0.107   3.505   2.690 -0.3239 -0.1545  0.1276
  824MOL0     C13579   0.243   3.476   2.703 -0.6547 -0.5911 -0.0155
  824MOL0     C13580   0.327   3.534   2.803 -0.5593  0.5802  0.8992
  824MOL0     C13581   0.277   3.625   2.893  0.2372  0.0532  0.0733
  824MOL0     O13582   0.368   3.684   2.981 -0.2218 -0.6848 -0.7008
  824MOL0     C13583   0.325   3.807   3.036  0.5485  0.6060  0.2119
  824MOL0     C13584   0.435   3.881   3.104  0.0016 -0.3882 -0.7964
  824MOL0     C13585   0.536   3.935   3.006  0.4994  0.4836 -0.5415
  824MOL0     C13586   0.663   3.969   3.083  0.3400  0.4770 -0.6722
  824MOL0     C13587   0.776   4.037   2.993  0.1864  0.3060 -0.4406
  824MOL0     C13588   0.751   4.192   2.981  0.2082  0.7014  0.2478
  824MOL0     C13589   0.852   4.259   2.885 -1.3036  0.3203  0.1794
  824MOL0     C13590   0.873   4.411   2.914 -1.3071 -0.0190  0.0130
  824MOL0     N13591   0.751   4.492   2.893  0.2687  0.4954  0.6170
  824MOL0     C13592   0.677   4.503   2.778  0.9400  0.3133 -0.7385
  824MOL0     C13593   0.574   4.582   2.817 -0.1705 -0.5036  0.2312
  824MOL0     C13594   0.457   4.615   2.723 -0.7269  0.2347 -0.5798
  824MOL0     C13595   0.431   4.763   2.721 -0.7330 -0.0947  0.5841
  824MOL0     C13596   0.400   4.812   2.576 -0.4069  0.2771 -0.7973
  824MOL0     C13597   0.519   4.835   2.497  0.4778  0.1734 -0.3950
  824MOL0     O13598   0.607   4.942   2.537  0.3294  0.3416 -0.7465
  824MOL0     C13599   0.726   4.957   2.486 -0.2268 -0.1203  0.4988
  824MOL0     C13600   0.764   4.948   2.347 -0.1257  0.9864 -1.1966
  824MOL0     C13601   0.896   4.933   2.316  0.1470 -0.6055  0.5675
  824MOL0     C13602   0.925   4.932   2.168  0.5056 -0.1837 -0.0981
  824MOL0     C13603   0.998   4.937   2.420  0.6246  0.3681  0.5792
  824MOL0     C13604   1.141   4.924   2.394 -0.7715 -0.6350 -0.1914
  824MOL0     O13605   1.216   4.958   2.498 -0.0035  0.1027 -0.1813
  824MOL0     C13606   1.359   4.944   2.486  0.1781  0.3306  0.5709
  824MOL0     C13607   1.426   4.858   2.400  0.0021 -0.1438 -0.8945
  824MOL0     C13608   1.567   4.860   2.384 -0.8594 -0.2984  0.1169
  824MOL0     C13609   1.641   4.936   2.478  0.9363  0.0745 -0.6232
  824MOL0     O13610   1.775   4.955   2.485 -0.0508  0.0171  0.3396
  824MOL0     C13611   1.859   4.865   2.416 -0.5194 -0.0492  0.5636
  824MOL0     C13612   2.008   4.906   2.417  0.2060 -0.2142 -1.1138
  824MOL0     C13613   2.074   4.869   2.553 -0.5615  0.1751  0.2111
  824MOL0     C13614   2.229   4.907   2.544  0.3646  0.3066  0.0292
  824MOL0     C13615   2.285   4.875   2.684 -1.4743  0.4060  0.3856
  824MOL0     C13616   2.439   4.891   2.661  0.4570  0.0320 -1.0952
  824MOL0     C13617   2.524   4.849   2.781  0.2968  0.1833  0.4810
  824MOL0     C13618   2.675   4.895   2.763 -0.1576 -0.1565 -0.2445
  824MOL0    Cl13619   2.739   4.858   2.607 -0.0547  0.0249  0.2562
  824MOL0     C13620   1.568   5.014   2.566 -0.3546  0.5559 -0.4593
  824MOL0     C13621   1.435   5.021   2.563  0.0179  0.0094 -0.3387
  824MOL0     O13622   1.186   4.911   2.280 -0.0304  0.0602  0.1371
  824MOL0     C13623   0.957   4.976   2.555  0.0416  0.2667 -0.2083
  824MOL0     C13624   0.821   4.977   2.581  0.3389 -0.5259 -0.4625
  824MOL0     N13625   0.603   4.634   2.947 -0.0013 -0.4957  0.2161
  824MOL0     N13626   0.693   4.570   3.000 -0.9830 -0.7724  0.4651
  824MOL0     C13627   0.140   3.651   2.881 -0.5867 -0.4178 -0.5926
  824MOL0     C13628   0.055   3.594   2.785 -0.1588  0.2452  0.4891
  824MOL0     C13629  -0.035   3.335   2.388 -0.7857  1.0997  0.8670
  824MOL0     C13630  -0.021   3.211   2.330 -0.3214  0.6645  0.6924
  824MOL0     C13631  -0.112   3.164   2.237  0.4262  0.1260  0.0979
  824MOL0     C13632  -0.226   3.231   2.203 -0.3555  0.3479  0.0444
  824MOL0     O13633  -0.324   3.163   2.134  0.2045 -0.1978  0.0653
  824MOL0     C13634  -0.460   3.212   2.143  0.3247  0.6144 -0.6654
  824MOL0     C13635  -0.543   3.117   2.064  0.3562  0.7725 -1.4917
  824MOL0     C13636  -0.688   3.134   2.101  0.5225  0.2722  0.1345
  824MOL0     C13637  -0.775   3.065   2.003  1.2986  0.0938  1.0191
  824MOL0     C13638  -0.913   3.073   2.043  0.2157 -0.2985  0.7073
  824MOL0     C13639  -1.022   3.082   2.106 -0.5319  0.0471  0.1375
  824MOL0     C13640  -0.240   3.359   2.260  0.5764  0.3656  0.4569
  824MOL0     C13641  -0.147   3.408   2.352 -0.7953 -0.5705  0.3148
  824MOL0     C13642  -0.165   3.554   2.399  0.2226 -0.2879 -0.0891
  824MOL0     H13643   0.308   3.419   2.638 -0.7811 -4.2355  2.7369
  824MOL0     H13644   0.430   3.499   2.805 -1.0053 -0.9448 -0.7581
  824MOL0     H13645   0.237   3.794   3.100 -0.7139 -1.4065 -1.7690
  824MOL0     H13646   0.298   3.874   2.954 -0.2397  0.9632  0.7453
  824MOL0     H13647   0.392   3.964   3.161  4.4042  2.7379 -1.5062
  824MOL0     H13648   0.480   3.814   3.179  0.2008  0.1032 -0.4719
  824MOL0     H13649   0.563   3.855   2.935  3.2159  1.5925 -0.8977
  824MOL0     H13650   0.501   4.026   2.957 -0.6214  0.8787  0.9371
  824MOL0     H13651   0.658   4.042   3.164  0.0724 -1.7605  1.4643
  824MOL0     H13652   0.685   3.873   3.132 -3.4171  0.4337  1.3439
  824MOL0     H13653   0.778   3.992   2.893  1.1943 -1.4154  0.3275
  824MOL0     H13654   0.867   4.015   3.049  0.6887  0.0249 -1.3487
  824MOL0     H13655   0.651   4.213   2.941  0.2563  1.0875  0.3247
  824MOL0     H13656   0.755   4.227   3.085  1.3189 -2.0059  1.2051
  824MOL0     H13657   0.824   4.250   2.780 -0.0480  0.8847 -0.2242
  824MOL0     H13658   0.947   4.209   2.904 -0.9292  0.6776 -0.6938
  824MOL0     H13659   0.908   4.418   3.018 -1.9463  6.0034  0.1623
  824MOL0     H13660   0.949   4.458   2.851  1.2143  0.7572  3.3336
  824MOL0     H13661   0.690   4.454   2.682 -4.5822 -0.0982 -1.6260
  824MOL0     H13662   0.364   4.562   2.747 -0.1672 -0.0038  1.2463
  824MOL0     H13663   0.484   4.575   2.625  0.8345  0.4513 -0.2641
  824MOL0     H13664   0.344   4.788   2.781 -0.8866  2.8837 -0.7002
  824MOL0     H13665   0.507   4.826   2.767 -0.6992  1.7853 -1.8445
  824MOL0     H13666   0.343   4.734   2.525 -3.7348  0.8017  1.7848
  824MOL0     H13667   0.350   4.909   2.581 -0.0899  0.3950  1.9992
  824MOL0     H13668   0.570   4.738   2.494 -0.4818 -0.5344  2.7714
  824MOL0     H13669   0.485   4.852   2.394 -1.7958 -1.0536  0.1038
  824MOL0     H13670   0.696   4.930   2.265  0.3655  0.5988 -1.5268
  824MOL0     H13671   0.998   5.003   2.128 -0.6670  0.9605 -0.2874
  824MOL0     H13672   0.834   4.952   2.109  0.8426  0.4020 -0.4358
  824MOL0     H13673   0.960   4.830   2.153 -0.6250 -0.3659 -1.9206
  824MOL0     H13674   1.374   4.786   2.338  0.5622  2.2170 -4.4180
  824MOL0     H13675   1.605   4.811   2.295  1.2807  1.1651  0.1559
  824MOL0     H13676   1.841   4.764   2.453 -2.1837 -0.7816 -2.0248
  824MOL0     H13677   1.839   4.865   2.309  1.6943 -0.0229  0.0936
  824MOL0     H13678   2.052   4.847   2.335 -2.9461 -1.5808 -1.9887
  824MOL0     H13679   2.016   5.015   2.412 -0.8986  0.1198  2.2296
  824MOL0     H13680   2.051   4.764   2.575  0.2982 -0.0388  0.1623
  824MOL0     H13681   2.044   4.935   2.634  2.6682 -1.1117  2.7093
  824MOL0     H13682   2.238   5.015   2.534 -1.1345  0.6244  1.6453
  824MOL0     H13683   2.283   4.860   2.461 -0.9516  1.5357 -1.5834
  824MOL0     H13684   2.253   4.938   2.768  2.1987  0.2065  2.0823
  824MOL0     H13685   2.264   4.770   2.704  2.0872 -0.2239  1.4539
  824MOL0     H13686   2.454   4.999   2.654 -3.6128  1.0267  2.0682
  824MOL0     H13687   2.471   4.843   2.568 -4.2114 -1.2439 -2.3043
  824MOL0     H13688   2.518   4.740   2.787 -0.0939  0.1640 -0.2085
  824MOL0     H13689   2.485   4.898   2.870 -0.3163 -0.0492  0.3440
  824MOL0     H13690   2.742   4.836   2.826  2.0067  1.3268 -1.0366
  824MOL0     H13691   2.685   5.002   2.785  0.8386 -0.3746  0.4025
  824MOL0     H13692   1.621   5.050   2.654 -1.2299 -1.7320  1.1195
  824MOL0     H13693   1.386   5.086   2.634 -0.2569 -0.5456 -0.0157
  824MOL0     H13694   1.035   4.994   2.629  1.1734 -0.2780 -1.2304
  824MOL0     H13695   0.791   5.002   2.682  1.3802  0.3750 -0.3581
  824MOL0     H13696   0.090   3.729   2.938 -2.1191 -1.2694 -0.7268
  824MOL0     H13697  -0.046   3.633   2.772 -0.3168 -0.4075 -0.3257
  824MOL0     H13698   0.056   3.140   2.359 -0.8322 -0.6858 -1.0475
  824MOL0     H13699  -0.092   3.066   2.196 -1.6744 -0.2119 -0.2533
  824MOL0     H13700  -0.490   3.206   2.248 -0.5359 -1.7794 -0.9891
  824MOL0     H13701  -0.467   3.315   2.107  0.0929  0.5973 -0.6669
  824MOL0     H13702  -0.515   3.012   2.081 -0.7420  0.7416  0.3791
  824MOL0     H13703  -0.536   3.135   1.957 -2.6450  0.6752 -1.7933
  824MOL0     H13704  -0.697   3.091   2.200  1.4806 -0.2223  0.0197
  824MOL0     H13705  -0.702   3.243   2.104  0.4596  0.2424  1.5641
  824MOL0     H13706  -0.750   2.960   1.989  2.4781  0.5606 -0.8313
  824MOL0     H13707  -0.757   3.107   1.903  1.5410 -0.9249  0.6178
  824MOL0     H13708  -1.114   3.107   2.154 -2.9904 -1.5405 -3.2660
  824MOL0     H13709  -0.335   3.411   2.255 -1.1777 -2.0627  4.1417
  824MOL0     H13710  -0.066   3.599   2.400 -0.4552  1.2796 -0.5294
  824MOL0     H13711  -0.227   3.612   2.330 -1.9539 -1.5288  0.7120
  824MOL0     H13712  -0.202   3.567   2.501  1.3154  2.4287  0.0297
  825MOL0     O13713   3.362   7.599   3.099  0.3446  0.2872 -0.3506
  825MOL0     C13714   3.321   7.600   3.218 -0.9757  0.8934  0.7470
  825MOL0     O13715   3.403   7.606   3.327 -0.3016 -0.2539  0.4301
  825MOL0     C13716   3.543   7.618   3.305  1.2012  0.4930 -0.8041
  825MOL0     C13717   3.610   7.717   3.367  0.3006 -0.0016 -0.2202
  825MOL0     C13718   3.749   7.729   3.364  0.6113  0.8222  0.5145
  825MOL0     C13719   3.820   7.621   3.302 -1.0639 -0.1974  0.8770
  825MOL0     O13720   3.962   7.630   3.313  0.4005 -0.3653 -0.5137
  825MOL0     C13721   4.044   7.520   3.270 -0.1241 -0.5538  0.3792
  825MOL0     C13722   4.194   7.561   3.289  0.0148 -0.8778  0.3136
  825MOL0     C13723   4.228   7.668   3.192 -0.6887 -0.6787  0.3228
  825MOL0     C13724   4.376   7.714   3.194 -0.5374  0.3157 -0.1636
  825MOL0     C13725   4.406   7.842   3.121 -0.1225  0.9249  0.3197
  825MOL0     C13726   4.545   7.888   3.169 -0.6893  0.1154 -0.2327
  825MOL0     C13727   4.655   7.788   3.124  0.0781  0.1455  0.1351
  825MOL0     C13728   4.789   7.851   3.138 -0.2733 -0.5310  0.3276
  825MOL0     N13729   4.819   7.950   3.028  0.3943  0.3495 -0.1785
  825MOL0     C13730   4.912   7.919   2.937  0.0280 -0.0184 -0.3426
  825MOL0     C13731   4.925   8.032   2.861 -0.5168 -0.5104  0.4568
  825MOL0     C13732   5.035   8.049   2.760  0.5981 -0.1650  0.2995
  825MOL0     C13733   5.035   8.182   2.673  0.3656 -0.1175  0.0327
  825MOL0     C13734   5.059   8.299   2.763 -0.4293 -0.1096 -0.6081
  825MOL0     C13735   5.089   8.422   2.682 -0.1225 -0.6803  0.2014
  825MOL0     O13736   5.227   8.452   2.636 -0.0055  0.1347 -0.1196
  825MOL0     C13737   5.317   8.487   2.735  0.5996  0.1586 -0.2550
  825MOL0     C13738   5.290   8.485   2.873  0.4292 -0.2950 -0.8971
  825MOL0     C13739   5.386   8.521   2.965  0.0759  0.2362  0.2721
  825MOL0     C13740   5.344   8.491   3.105 -0.0882  0.0012 -0.3705
  825MOL0     C13741   5.512   8.574   2.931 -0.0258 -0.7909 -0.1804
  825MOL0     C13742   5.616   8.606   3.027 -0.8513  1.2264 -0.1388
  825MOL0     O13743   5.735   8.642   2.969  0.7306  0.0703  0.3102
  825MOL0     C13744   5.839   8.660   3.047 -0.7671 -0.1868  0.1453
  825MOL0     C13745   5.889   8.779   3.088  0.2031 -0.2911 -0.0070
  825MOL0     C13746   6.003   8.796   3.170  0.2802 -0.1522 -0.2303
  825MOL0     C13747   6.074   8.681   3.208 -0.5864  0.6940 -0.5709
  825MOL0     O13748   6.193   8.679   3.280  0.2937 -0.1743  0.0670
  825MOL0     C13749   6.201   8.775   3.388 -0.9947  0.4189  0.0519
  825MOL0     C13750   6.266   8.706   3.504  0.0357  0.7023  0.0151
  825MOL0     C13751   6.415   8.661   3.476 -0.0774  0.5011 -0.0369
  825MOL0     C13752   6.516   8.773   3.465  0.0104  0.5982  0.0359
  825MOL0     C13753   6.653   8.717   3.452 -0.6651 -0.2397  0.5696
  825MOL0     C13754   6.722   8.671   3.580 -0.1639 -0.0321  0.0436
  825MOL0     C13755   6.871   8.633   3.541  0.7509  1.0849  0.0026
  825MOL0     C13756   6.930   8.523   3.627 -0.5240 -0.1460 -0.1267
  825MOL0    Cl13757   6.942   8.574   3.801 -0.2284 -1.0151  0.0870
  825MOL0     C13758   6.025   8.559   3.160 -0.1398  0.0760  0.1412
  825MOL0     C13759   5.907   8.550   3.083  0.0932  0.6468  0.4222
  825MOL0     O13760   5.602   8.587   3.148  0.5035 -0.0773  0.0652
  825MOL0     C13761   5.533   8.596   2.793  0.0915 -0.7501 -0.9429
  825MOL0     C13762   5.438   8.549   2.695 -0.5524  0.5528 -0.0399
  825MOL0     N13763   4.829   8.122   2.908 -0.5552  0.1147  0.5483
  825MOL0     N13764   4.772   8.069   3.014  0.2772  0.0740 -0.2047
  825MOL0     C13765   3.745   7.506   3.254 -0.4958  0.3584 -0.8435
  825MOL0     C13766   3.608   7.509   3.250 -0.6916 -0.7371  0.1448
  825MOL0     C13767   3.180   7.592   3.232 -0.9241  0.4938 -0.2089
  825MOL0     C13768   3.144   7.668   3.342 -0.1683  0.7693  0.6247
  825MOL0     C13769   3.009   7.677   3.374  0.3863  0.3339 -0.2656
  825MOL0     C13770   2.909   7.612   3.308 -0.1877  0.1535 -0.8951
  825MOL0     O13771   2.775   7.620   3.339  0.6849 -0.2868  0.1435
  825MOL0     C13772   2.732   7.706   3.443 -0.6817  0.4769 -0.0617
  825MOL0     C13773   2.578   7.689   3.464  0.0490 -0.0525  0.1475
  825MOL0     C13774   2.556   7.542   3.508 -0.7698  0.0547  0.2040
  825MOL0     C13775   2.416   7.517   3.568  1.0033  0.1509 -0.1220
  825MOL0     C13776   2.346   7.405   3.497  0.3560 -0.2778 -0.5422
  825MOL0     C13777   2.277   7.313   3.460  0.2040  0.7122  0.4138
  825MOL0     C13778   2.946   7.540   3.199 -0.0987 -0.2153 -0.0303
  825MOL0     C13779   3.079   7.532   3.158  0.2113  0.6609  0.4836
  825MOL0     C13780   3.107   7.454   3.023  0.9471 -0.7380 -0.5217
  825MOL0     H13781   3.558   7.797   3.419 -0.1211  1.1249 -2.2666
  825MOL0     H13782   3.806   7.809   3.408  1.0489  1.0976 -0.5210
  825MOL0     H13783   4.015   7.509   3.166 -0.1652  0.3777  0.2768
  825MOL0     H13784   4.020   7.428   3.323 -2.4730  0.5086  1.3397
  825MOL0     H13785   4.211   7.605   3.388  1.9712  2.1823 -1.2102
  825MOL0     H13786   4.245   7.465   3.282  1.3136 -0.2203  0.5408
  825MOL0     H13787   4.213   7.630   3.091  0.0262 -1.5217  0.5212
  825MOL0     H13788   4.163   7.756   3.199 -1.5843 -1.2895 -0.0645
  825MOL0     H13789   4.412   7.729   3.296  1.1931  4.1876 -1.1598
  825MOL0     H13790   4.443   7.638   3.152 -0.7070 -0.4079  0.8389
  825MOL0     H13791   4.339   7.927   3.134 -1.2403  0.6472 -2.8013
  825MOL0     H13792   4.412   7.827   3.013 -1.9862  0.4053  0.2535
  825MOL0     H13793   4.564   7.987   3.126 -2.2808  1.1058  1.2061
  825MOL0     H13794   4.550   7.890   3.278  1.3046 -1.4869 -0.2409
  825MOL0     H13795   4.630   7.757   3.023 -1.4814 -1.2125  0.8933
  825MOL0     H13796   4.643   7.700   3.188  0.4763  0.8180  1.1702
  825MOL0     H13797   4.792   7.902   3.234  2.7921 -1.0045  0.5740
  825MOL0     H13798   4.868   7.775   3.145  0.4677  0.1307 -0.5721
  825MOL0     H13799   4.986   7.840   2.932 -0.5729 -0.6256  0.2657
  825MOL0     H13800   5.045   7.960   2.697  0.1080 -0.9719  1.3377
  825MOL0     H13801   5.128   8.043   2.817  1.6185  0.5087 -1.2417
  825MOL0     H13802   5.119   8.177   2.604  2.0982  1.5855  1.8731
  825MOL0     H13803   4.942   8.194   2.617  0.9717  0.6499 -0.8324
  825MOL0     H13804   4.971   8.316   2.825 -0.9996  0.4866 -1.5480
  825MOL0     H13805   5.146   8.275   2.824  1.6102  1.9830 -2.4815
  825MOL0     H13806   5.024   8.424   2.594  0.0634 -2.3764 -0.0172
  825MOL0     H13807   5.061   8.509   2.742 -1.2976 -2.1300  1.8884
  825MOL0     H13808   5.187   8.462   2.897 -0.3152  2.4045 -1.2106
  825MOL0     H13809   5.408   8.420   3.159 -0.2596 -0.5635 -0.9076
  825MOL0     H13810   5.244   8.445   3.108  0.1911 -0.6296 -0.6703
  825MOL0     H13811   5.348   8.579   3.169  0.5340 -0.4659  0.2503
  825MOL0     H13812   5.826   8.864   3.064  0.0205  0.4549  2.7363
  825MOL0     H13813   6.044   8.890   3.206 -0.8007  0.4604 -0.5466
  825MOL0     H13814   6.255   8.866   3.362  0.8763 -1.3893 -2.8882
  825MOL0     H13815   6.102   8.812   3.416  0.3629  3.6090  1.1393
  825MOL0     H13816   6.256   8.761   3.598 -2.8251  0.1823  0.0948
  825MOL0     H13817   6.206   8.615   3.511  0.9035  0.2173  2.0563
  825MOL0     H13818   6.424   8.597   3.387  1.9777  1.6360 -0.7134
  825MOL0     H13819   6.441   8.592   3.557 -1.3752 -0.3811 -0.3441
  825MOL0     H13820   6.506   8.835   3.555  0.6675  2.0376 -0.8386
  825MOL0     H13821   6.488   8.831   3.377  1.9233  2.2657  0.4358
  825MOL0     H13822   6.652   8.639   3.376 -2.4358  0.1181  0.1915
  825MOL0     H13823   6.725   8.795   3.425 -0.7880  0.1940  1.4644
  825MOL0     H13824   6.664   8.588   3.621 -3.6257  2.0114 -0.3045
  825MOL0     H13825   6.723   8.751   3.654  0.5058  0.2723 -0.2912
  825MOL0     H13826   6.934   8.723   3.542 -0.0344  1.6849 -1.6024
  825MOL0     H13827   6.872   8.586   3.442 -0.1232 -1.4779  1.1365
  825MOL0     H13828   7.029   8.511   3.582 -0.6248  0.2953 -0.4784
  825MOL0     H13829   6.872   8.431   3.612 -0.6869  0.1320 -1.2399
  825MOL0     H13830   6.081   8.468   3.182  2.6085  0.8115 -2.9426
  825MOL0     H13831   5.873   8.456   3.040 -1.2700  0.2132  2.3298
  825MOL0     H13832   5.625   8.640   2.756  1.4302 -1.6728  1.1012
  825MOL0     H13833   5.460   8.562   2.590  0.7596  0.7058  0.2297
  825MOL0     H13834   3.798   7.417   3.223  1.5227  2.1674 -3.0427
  825MOL0     H13835   3.544   7.438   3.199  1.0262 -0.3686 -2.7704
  825MOL0     H13836   3.211   7.735   3.394  1.6795 -0.0865 -0.5781
  825MOL0     H13837   2.978   7.737   3.459 -2.9837 -2.2947  0.5454
  825MOL0     H13838   2.786   7.669   3.531 -1.1447 -1.4640 -0.5409
  825MOL0     H13839   2.761   7.808   3.416  0.0267 -0.7720 -4.9816
  825MOL0     H13840   2.518   7.718   3.377 -1.8864  0.2786  1.5194
  825MOL0     H13841   2.559   7.749   3.554  1.3567 -2.1202  1.8995
  825MOL0     H13842   2.578   7.484   3.418 -1.7784  1.4662 -1.0168
  825MOL0     H13843   2.628   7.516   3.585 -0.1640 -0.3123 -0.4786
  825MOL0     H13844   2.340   7.594   3.550  0.4065 -0.4988 -0.4358
  825MOL0     H13845   2.413   7.488   3.674  0.9097  0.2872 -0.0870
  825MOL0     H13846   2.210   7.235   3.431  2.9117 -1.9515  0.8748
  825MOL0     H13847   2.867   7.505   3.133 -0.9750  1.6957 -0.0940
  825MOL0     H13848   3.110   7.348   3.048  1.9134 -0.3091  1.2717
  825MOL0     H13849   3.018   7.464   2.960 -2.6447 -3.1885  3.6299
  825MOL0     H13850   3.206   7.476   2.983  0.7830  2.2481  0.4687
  826MOL0     O13851   4.612   9.870   7.419  0.0994 -0.3271 -0.5580
  826MOL0     C13852   4.520   9.913   7.487  0.5217  0.7231  0.7976
  826MOL0     O13853   4.538   9.981   7.610 -0.2967  0.1090  0.0765
  826MOL0     C13854   4.658   9.967   7.671  0.7250 -0.7299 -0.5342
  826MOL0     C13855   4.706   9.843   7.716 -1.2767 -1.0318  0.7503
  826MOL0     C13856   4.830   9.827   7.779 -0.1376 -0.6297  0.2473
  826MOL0     C13857   4.905   9.941   7.801  0.1682 -0.1714  0.3235
  826MOL0     O13858   5.016   9.928   7.881  0.2838 -0.3004  0.3035
  826MOL0     C13859   5.112  10.030   7.899  0.0055  0.1348 -0.0355
  826MOL0     C13860   5.249   9.972   7.940 -0.3377  0.1001  0.3027
  826MOL0     C13861   5.346  10.081   7.985 -0.5235  0.5128 -0.3595
  826MOL0     C13862   5.405  10.044   8.129  0.4807 -0.2052  0.0152
  826MOL0     C13863   5.553  10.106   8.135  0.4354  0.1622  0.5753
  826MOL0     C13864   5.546  10.256   8.150 -0.5348  0.3173  0.0259
  826MOL0     C13865   5.678  10.326   8.103  0.3734 -0.2729 -0.4446
  826MOL0     C13866   5.718  10.439   8.189  0.7505 -0.5994 -0.9469
  826MOL0     N13867   5.852  10.494   8.167 -0.2749 -0.1188  0.6420
  826MOL0     C13868   5.877  10.607   8.086  0.3421 -0.0581  0.0594
  826MOL0     C13869   6.017  10.621   8.096  0.5532  0.8398  0.3174
  826MOL0     C13870   6.113  10.711   8.022  0.2090 -0.1738  0.6192
  826MOL0     C13871   6.062  10.859   8.026 -0.0738  0.1187  0.7526
  826MOL0     C13872   6.139  10.942   7.918 -0.5881  0.5730  0.3631
  826MOL0     C13873   6.127  11.090   7.947  1.1936 -0.7265  0.1979
  826MOL0     O13874   6.169  11.135   8.076  0.0245 -0.1850 -1.1607
  826MOL0     C13875   6.293  11.180   8.101  0.3349  0.3227  0.5807
  826MOL0     C13876   6.311  11.266   8.213 -0.2013  0.7362 -0.0058
  826MOL0     C13877   6.435  11.323   8.258  0.1659  0.5770 -0.1133
  826MOL0     C13878   6.428  11.406   8.379 -0.3691  0.0285 -0.4866
  826MOL0     C13879   6.550  11.286   8.180 -0.2769 -0.3008 -0.0906
  826MOL0     C13880   6.678  11.340   8.221  0.5248 -0.2324  0.3632
  826MOL0     O13881   6.754  11.402   8.131 -0.2192 -0.5753 -0.1076
  826MOL0     C13882   6.866  11.459   8.177 -0.9663  0.3827  0.3720
  826MOL0     C13883   6.985  11.403   8.141 -0.5336  0.1505 -0.2612
  826MOL0     C13884   7.113  11.467   8.171  0.9692  0.6352 -0.5024
  826MOL0     C13885   7.123  11.585   8.242  0.6793 -0.1240 -0.7503
  826MOL0     O13886   7.244  11.639   8.288  0.8093  0.1386  0.4828
  826MOL0     C13887   7.238  11.768   8.336  0.8273  0.2605  0.4730
  826MOL0     C13888   7.370  11.846   8.316  0.4975 -0.0078 -0.0486
  826MOL0     C13889   7.508  11.774   8.335 -0.1714  0.0163  0.6770
  826MOL0     C13890   7.550  11.696   8.211 -0.6622  0.2881 -0.3034
  826MOL0     C13891   7.692  11.638   8.220 -0.3581  0.9666 -0.4048
  826MOL0     C13892   7.804  11.741   8.234 -0.2445  0.5747 -0.4298
  826MOL0     C13893   7.925  11.679   8.308  0.9087  0.4136  0.1350
  826MOL0     C13894   8.033  11.782   8.339  0.5705  0.9391  0.1564
  826MOL0    Cl13895   7.980  11.901   8.476 -0.5175  0.1387 -0.2603
  826MOL0     C13896   6.997  11.637   8.280 -0.2274  1.1791 -0.5236
  826MOL0     C13897   6.869  11.580   8.249  0.2507  0.9033  0.3450
  826MOL0     O13898   6.713  11.311   8.336  0.8280 -0.0110 -0.1783
  826MOL0     C13899   6.531  11.212   8.061 -0.2277  1.1312 -0.6744
  826MOL0     C13900   6.409  11.153   8.025 -1.0622  0.1348 -0.1609
  826MOL0     N13901   6.067  10.518   8.183 -0.0299 -0.3864  0.2764
  826MOL0     N13902   5.967  10.444   8.215 -0.5403 -0.0026 -0.3865
  826MOL0     C13903   4.875  10.062   7.744  0.1693  0.5597  0.6332
  826MOL0     C13904   4.752  10.074   7.671  0.4558  0.1937 -1.1713
  826MOL0     C13905   4.384   9.910   7.425 -0.4202  0.1205  0.1933
  826MOL0     C13906   4.281   9.972   7.506  0.0015  0.0950  0.4716
  826MOL0     C13907   4.148   9.968   7.464 -0.3397 -0.2107  0.9669
  826MOL0     C13908   4.117   9.889   7.358  0.0797 -0.4300  1.6284
  826MOL0     O13909   3.983   9.873   7.342 -0.0909  0.4912 -0.7377
  826MOL0     C13910   3.933   9.792   7.240  0.5726  0.5602 -0.6001
  826MOL0     C13911   3.929   9.855   7.109 -0.2065  0.3597 -0.1960
  826MOL0     C13912   3.823   9.967   7.100  0.1163  0.1685  0.3687
  826MOL0     C13913   3.796  10.023   6.959 -0.4893  0.3358  0.8902
  826MOL0     C13914   3.914  10.092   6.909 -0.2039  0.7751  0.0058
  826MOL0     C13915   4.015  10.139   6.861  0.4065 -0.5357  0.1033
  826MOL0     C13916   4.212   9.819   7.277  0.5989 -0.6378 -0.2745
  826MOL0     C13917   4.351   9.839   7.309  1.3018  0.3297 -0.4484
  826MOL0     C13918   4.462   9.777   7.226 -0.6871  1.3067  1.0493
  826MOL0     H13919   4.642   9.755   7.722 -0.4033 -1.8316 -1.0357
  826MOL0     H13920   4.864   9.731   7.816  1.0908 -0.5692 -0.6450
  826MOL0     H13921   5.073  10.099   7.974 -0.7206 -1.3724  1.0271
  826MOL0     H13922   5.131  10.079   7.803  1.1940 -0.1856  0.0177
  826MOL0     H13923   5.235   9.895   8.017  0.8318 -1.4912 -1.0170
  826MOL0     H13924   5.296   9.925   7.853  0.5628 -1.4230  1.5625
  826MOL0     H13925   5.424  10.079   7.908 -0.5762 -3.2674 -0.4810
  826MOL0     H13926   5.308  10.184   7.987 -0.5553  0.5143 -0.9859
  826MOL0     H13927   5.348  10.078   8.215 -1.7728  0.4698 -1.6503
  826MOL0     H13928   5.406   9.937   8.151 -2.0468  0.1665  2.4555
  826MOL0     H13929   5.604  10.087   8.040  0.2901  0.8704  0.3467
  826MOL0     H13930   5.612  10.061   8.214  1.6219  0.3817 -0.1618
  826MOL0     H13931   5.467  10.308   8.096  0.4828  0.7112 -1.1279
  826MOL0     H13932   5.534  10.278   8.257 -1.2569 -1.7990  0.4334
  826MOL0     H13933   5.672  10.358   7.998  0.2994 -0.0967 -0.3864
  826MOL0     H13934   5.756  10.250   8.118  1.1768  0.6048 -0.1178
  826MOL0     H13935   5.643  10.514   8.161  1.0515 -0.8284 -2.4588
  826MOL0     H13936   5.706  10.421   8.296  3.2164  0.2642 -0.4519
  826MOL0     H13937   5.800  10.668   8.038 -1.5694 -0.4651  2.4153
  826MOL0     H13938   6.121  10.694   7.914  0.5160  0.1396  0.5898
  826MOL0     H13939   6.211  10.703   8.070  0.2126 -0.0826  0.6291
  826MOL0     H13940   5.954  10.863   8.006  0.0219  0.2965  0.2624
  826MOL0     H13941   6.075  10.900   8.127 -0.6100  2.3100 -0.0093
  826MOL0     H13942   6.246  10.923   7.928  0.0470  4.5088  3.8992
  826MOL0     H13943   6.107  10.912   7.817 -0.1709 -3.4972  1.2595
  826MOL0     H13944   6.182  11.158   7.880  0.6050 -1.9429 -1.5786
  826MOL0     H13945   6.022  11.115   7.927  0.2111 -3.2750  1.7484
  826MOL0     H13946   6.224  11.288   8.275 -1.6047 -2.3013 -0.6937
  826MOL0     H13947   6.501  11.375   8.454 -0.8190 -0.4322 -0.2302
  826MOL0     H13948   6.331  11.409   8.429  0.3176  1.3811  0.8240
  826MOL0     H13949   6.454  11.507   8.346  0.6675  0.0835  0.4150
  826MOL0     H13950   6.996  11.306   8.095  0.2282 -0.5087  1.2283
  826MOL0     H13951   7.203  11.405   8.175 -1.3001 -3.0944  4.6109
  826MOL0     H13952   7.168  11.827   8.276  1.4654  0.1914 -0.3616
  826MOL0     H13953   7.197  11.780   8.436 -0.1936  0.9150  0.0001
  826MOL0     H13954   7.354  11.867   8.210 -2.1731 -2.7970 -0.3271
  826MOL0     H13955   7.371  11.933   8.382  1.9211 -0.5715  0.7157
  826MOL0     H13956   7.510  11.704   8.419  4.1340 -0.2011  0.5933
  826MOL0     H13957   7.583  11.850   8.352 -0.5576  0.4845  0.3223
  826MOL0     H13958   7.537  11.757   8.121 -0.2417 -0.9390 -1.2338
  826MOL0     H13959   7.483  11.610   8.201 -0.2347  0.1651 -2.6541
  826MOL0     H13960   7.703  11.573   8.307 -0.8329  2.1586  0.5623
  826MOL0     H13961   7.710  11.577   8.131 -1.5269  1.3871 -0.9563
  826MOL0     H13962   7.773  11.830   8.290  0.3129  1.0856 -0.9129
  826MOL0     H13963   7.828  11.776   8.133 -0.8796 -0.6894 -1.0388
  826MOL0     H13964   7.955  11.592   8.249 -2.3386 -2.0620  1.8210
  826MOL0     H13965   7.896  11.635   8.404  0.1933 -3.8701 -1.8209
  826MOL0     H13966   8.056  11.832   8.245 -0.1598 -0.0604 -0.5743
  826MOL0     H13967   8.122  11.732   8.377  1.5210  2.3997 -0.0781
  826MOL0     H13968   6.979  11.718   8.350 -4.0397 -1.2012  1.6790
  826MOL0     H13969   6.780  11.632   8.285 -2.3028 -2.5769 -0.3963
  826MOL0     H13970   6.622  11.198   8.003  0.0834  0.2563  0.0021
  826MOL0     H13971   6.408  11.099   7.931  2.3881  1.6194 -1.2071
  826MOL0     H13972   4.942  10.147   7.756 -0.6000  1.1520  0.8252
  826MOL0     H13973   4.714  10.165   7.626 -0.0850  2.3553  3.0913
  826MOL0     H13974   4.307  10.030   7.594 -0.7267  1.3511 -0.1055
  826MOL0     H13975   4.076  10.012   7.532  0.0272  1.1547  0.5195
  826MOL0     H13976   3.994   9.701   7.234  0.0033  0.2679 -2.8696
  826MOL0     H13977   3.830   9.763   7.259  0.8100  1.0926  1.7309
  826MOL0     H13978   3.903   9.777   7.036 -0.3972  0.7071 -0.5030
  826MOL0     H13979   4.025   9.902   7.086  1.6494 -2.1941  1.7523
  826MOL0     H13980   3.723   9.935   7.132  0.3548 -0.3450  0.6132
  826MOL0     H13981   3.857  10.049   7.165  2.3159  2.0372 -2.8701
  826MOL0     H13982   3.718  10.100   6.966 -0.5087  0.4406 -0.2762
  826MOL0     H13983   3.763   9.960   6.876  0.0273  0.9930  0.1678
  826MOL0     H13984   4.110  10.168   6.822  0.4965 -0.4771  0.3637
  826MOL0     H13985   4.177   9.755   7.197 -0.0998 -0.1228 -0.3806
  826MOL0     H13986   4.506   9.690   7.277  0.1956  0.7154 -0.6438
  826MOL0     H13987   4.421   9.740   7.132  2.8449  3.8791 -1.7641
  826MOL0     H13988   4.540   9.847   7.196  0.2534  0.1768  0.7511
  827MOL0     O13989   2.501   9.131   9.482  0.3755  0.5336 -0.2257
  827MOL0     C13990   2.517   9.033   9.547 -0.5447 -0.3265 -0.1295
  827MOL0     O13991   2.641   8.989   9.591  0.7698 -0.2817 -0.8671
  827MOL0     C13992   2.763   9.031   9.539  0.0826  0.6954 -0.5798
  827MOL0     C13993   2.777   9.090   9.409 -0.2290 -0.0954  0.1726
  827MOL0     C13994   2.904   9.133   9.362  0.0402  0.1317 -0.4075
  827MOL0     C13995   3.016   9.124   9.450 -1.3878  1.2312  0.6224
  827MOL0     O13996   3.139   9.178   9.412 -0.0094  0.0894 -0.1432
  827MOL0     C13997   3.244   9.090   9.455  0.4026  0.1839 -0.4641
  827MOL0     C13998   3.371   9.128   9.364 -0.7274 -0.2160 -0.6330
  827MOL0     C13999   3.494   9.042   9.404  0.1118  0.1249  0.7907
  827MOL0     C14000   3.605   9.062   9.300 -0.4673 -1.1218 -0.6026
  827MOL0     C14001   3.704   8.948   9.301  0.3645 -1.0020 -0.3340
  827MOL0     C14002   3.805   8.964   9.183 -0.2384  0.0155  0.1466
  827MOL0     C14003   3.875   9.103   9.195  0.1290  0.4087  0.1815
  827MOL0     C14004   3.994   9.107   9.096 -0.3628  0.6960  0.1839
  827MOL0     N14005   4.106   9.008   9.107  0.1343  0.0447 -0.2648
  827MOL0     C14006   4.133   8.914   9.014 -0.3388  0.2488  0.2952
  827MOL0     C14007   4.254   8.867   9.066 -0.3264 -0.0160  0.0273
  827MOL0     C14008   4.348   8.774   8.995 -0.0339  0.4497 -1.0568
  827MOL0     C14009   4.498   8.821   9.011  0.7689  0.1951  0.8126
  827MOL0     C14010   4.584   8.730   8.917  0.3567 -0.1630 -0.1714
  827MOL0     C14011   4.730   8.776   8.930 -0.3459 -0.3371 -0.1703
  827MOL0     O14012   4.803   8.661   8.874 -0.4148 -0.2199 -0.1600
  827MOL0     C14013   4.940   8.666   8.882  0.1446 -0.4914 -1.2441
  827MOL0     C14014   5.001   8.560   8.816 -0.4720  0.1876  0.0576
  827MOL0     C14015   5.139   8.548   8.813 -0.6080  0.6685  0.5829
  827MOL0     C14016   5.199   8.438   8.727  0.8408 -0.3882  0.0327
  827MOL0     C14017   5.215   8.638   8.886  0.0116  0.3550  0.2795
  827MOL0     C14018   5.364   8.638   8.899  0.0379 -0.1993 -0.2351
  827MOL0     O14019   5.417   8.517   8.916 -0.8484 -0.0470 -0.5243
  827MOL0     C14020   5.555   8.504   8.901  0.0328  1.1254  0.8027
  827MOL0     C14021   5.640   8.556   9.004 -0.1055  0.6011  0.4078
  827MOL0     C14022   5.780   8.540   8.993 -0.2264 -0.5895  0.2726
  827MOL0     C14023   5.836   8.477   8.884  0.0429 -0.6422 -0.1535
  827MOL0     O14024   5.975   8.466   8.880 -0.1733  0.5299 -0.3742
  827MOL0     C14025   6.039   8.544   8.769  0.4630  0.4189 -0.2022
  827MOL0     C14026   6.184   8.555   8.806 -0.1717 -0.2282  0.2000
  827MOL0     C14027   6.272   8.643   8.716  0.1517 -0.4264 -0.4671
  827MOL0     C14028   6.415   8.599   8.703 -0.1240 -0.0760 -1.0108
  827MOL0     C14029   6.501   8.707   8.647 -0.2557 -0.3075  1.3545
  827MOL0     C14030   6.653   8.664   8.635 -0.5506 -0.1913 -0.2114
  827MOL0     C14031   6.726   8.794   8.606  0.4432 -0.2021  0.7541
  827MOL0     C14032   6.868   8.756   8.568  0.1272  0.2356  0.3456
  827MOL0    Cl14033   6.887   8.708   8.400 -0.2099  0.3703  0.1976
  827MOL0     C14034   5.749   8.441   8.786 -0.2682  0.4033 -0.5047
  827MOL0     C14035   5.613   8.439   8.796  0.3312  0.1643  0.1632
  827MOL0     O14036   5.427   8.748   8.920  0.0691  0.6645 -0.0711
  827MOL0     C14037   5.148   8.738   8.960 -0.6301 -0.7365 -0.2359
  827MOL0     C14038   5.015   8.767   8.942 -0.0211  0.6186  0.6238
  827MOL0     N14039   4.280   8.919   9.190  0.4967 -0.1379  0.0385
  827MOL0     N14040   4.193   9.012   9.213  0.7099 -0.0036  0.1464
  827MOL0     C14041   2.998   9.066   9.576  0.5279 -0.4046  0.0798
  827MOL0     C14042   2.875   9.007   9.617  0.1505 -0.0160 -0.2932
  827MOL0     C14043   2.393   8.966   9.586  0.0987  0.5057 -0.3736
  827MOL0     C14044   2.283   8.985   9.503  0.0149  0.3593 -0.0072
  827MOL0     C14045   2.154   8.946   9.542 -0.1159 -0.4340  0.4364
  827MOL0     C14046   2.124   8.877   9.657  0.2274 -1.3134  0.0516
  827MOL0     O14047   2.001   8.819   9.671  0.5120  0.0333 -0.3176
  827MOL0     C14048   1.931   8.812   9.796 -0.8482  0.1250 -0.7144
  827MOL0     C14049   1.809   8.714   9.785 -0.5542  0.3279 -0.6049
  827MOL0     C14050   1.760   8.691   9.930  0.2803 -0.1995  0.7094
  827MOL0     C14051   1.690   8.555   9.948 -0.4526  0.6250 -0.8800
  827MOL0     C14052   1.568   8.549   9.872  0.7865 -0.0936 -0.5860
  827MOL0     C14053   1.461   8.544   9.810  0.1219 -0.7315 -1.0316
  827MOL0     C14054   2.234   8.857   9.741  0.0981  0.9941  0.3602
  827MOL0     C14055   2.371   8.890   9.705  0.2170 -0.1578 -0.8559
  827MOL0     C14056   2.477   8.866   9.818 -0.1248 -0.1807 -0.2637
  827MOL0     H14057   2.690   9.106   9.346 -0.7575  0.2190  0.9697
  827MOL0     H14058   2.903   9.176   9.262  1.7969 -2.6399 -1.7269
  827MOL0     H14059   3.226   8.984   9.437 -0.1534  0.1459  0.2693
  827MOL0     H14060   3.270   9.105   9.560 -0.6959  0.8792 -0.2681
  827MOL0     H14061   3.353   9.108   9.258  0.2750  1.2716 -1.1270
  827MOL0     H14062   3.396   9.234   9.379 -0.2147 -0.5995  1.5419
  827MOL0     H14063   3.533   9.061   9.504  1.3883  4.4042 -0.2883
  827MOL0     H14064   3.456   8.941   9.389  1.0217  0.2665 -5.2644
  827MOL0     H14065   3.562   9.064   9.200 -1.5246 -1.2739 -0.1586
  827MOL0     H14066   3.654   9.158   9.316  1.1438 -2.0431  0.2973
  827MOL0     H14067   3.655   8.851   9.288 -2.7177  0.2390  1.0103
  827MOL0     H14068   3.770   8.946   9.388  0.8152  0.6513 -0.6037
  827MOL0     H14069   3.879   8.885   9.192  0.2644  0.5981  1.3487
  827MOL0     H14070   3.758   8.954   9.085 -0.3979  3.2692 -0.2172
  827MOL0     H14071   3.921   9.119   9.293 -0.2090 -0.9100  0.5886
  827MOL0     H14072   3.812   9.187   9.165 -1.2364 -0.0996  1.4622
  827MOL0     H14073   3.957   9.099   8.994 -0.3474  0.9981  0.1557
  827MOL0     H14074   4.050   9.200   9.100  1.8311 -0.4383 -1.7426
  827MOL0     H14075   4.088   8.898   8.917  2.9982  0.1330 -1.3824
  827MOL0     H14076   4.320   8.770   8.890  2.3303 -1.7460 -1.6970
  827MOL0     H14077   4.325   8.674   9.031 -1.6419  1.4625  0.9386
  827MOL0     H14078   4.495   8.925   8.975  0.3077  0.2399  0.9807
  827MOL0     H14079   4.537   8.810   9.113  0.8501 -2.3340  0.5578
  827MOL0     H14080   4.574   8.628   8.954 -1.9493  0.6474  1.7073
  827MOL0     H14081   4.556   8.737   8.811  0.2403  2.0714 -0.0583
  827MOL0     H14082   4.754   8.872   8.884 -0.3414 -1.3334 -2.3602
  827MOL0     H14083   4.759   8.775   9.036  3.4876  0.6869 -1.0332
  827MOL0     H14084   4.936   8.485   8.772  0.0329  0.1718 -0.6829
  827MOL0     H14085   5.233   8.356   8.791  0.1958  0.2835  1.2773
  827MOL0     H14086   5.296   8.472   8.691  1.0203 -1.2832 -0.3557
  827MOL0     H14087   5.128   8.403   8.651  1.1540 -0.5416 -0.1923
  827MOL0     H14088   5.588   8.610   9.082 -3.8044  0.8833 -1.9575
  827MOL0     H14089   5.842   8.584   9.070 -0.0029 -0.2124 -0.1167
  827MOL0     H14090   6.035   8.496   8.671  1.9550 -1.3365  0.5489
  827MOL0     H14091   6.002   8.647   8.765 -0.8543 -0.0787 -1.8266
  827MOL0     H14092   6.197   8.593   8.907  1.9271 -1.3532  0.4298
  827MOL0     H14093   6.226   8.454   8.806 -0.0057 -0.1686  1.0301
  827MOL0     H14094   6.257   8.747   8.747 -0.5963 -0.9002  0.8551
  827MOL0     H14095   6.230   8.640   8.616  0.0861 -1.3560 -0.4200
  827MOL0     H14096   6.410   8.510   8.639 -1.9360 -0.0277 -0.9965
  827MOL0     H14097   6.447   8.562   8.800 -1.2202  0.9989 -0.1972
  827MOL0     H14098   6.475   8.715   8.541  2.3086 -3.8440  0.2373
  827MOL0     H14099   6.501   8.795   8.712  1.4529  1.1925 -0.5155
  827MOL0     H14100   6.660   8.597   8.548  1.7054  0.7337 -0.8065
  827MOL0     H14101   6.695   8.612   8.722 -1.6900  1.2884  1.2793
  827MOL0     H14102   6.736   8.865   8.688  1.3299  1.8528 -1.0220
  827MOL0     H14103   6.680   8.845   8.520 -1.3569 -0.0569  1.7678
  827MOL0     H14104   6.901   8.680   8.641  1.4954  0.4086 -0.0570
  827MOL0     H14105   6.941   8.834   8.590  2.0877 -1.9568  2.2280
  827MOL0     H14106   5.804   8.414   8.696  1.7989 -1.4757  1.2216
  827MOL0     H14107   5.556   8.412   8.708  4.6912 -2.2708 -2.2592
  827MOL0     H14108   5.206   8.799   9.027  0.3767 -1.4929 -0.4036
  827MOL0     H14109   4.967   8.855   8.983 -3.0854 -0.8032  0.4334
  827MOL0     H14110   3.087   9.048   9.635  0.9714  0.1170 -0.4162
  827MOL0     H14111   2.858   8.964   9.715 -1.5613  0.0938 -0.5076
  827MOL0     H14112   2.291   9.044   9.412  0.5726 -0.2295 -0.3438
  827MOL0     H14113   2.070   8.969   9.477 -0.1283  0.3586  0.7148
  827MOL0     H14114   2.006   8.781   9.870 -0.4124 -1.3757 -1.7262
  827MOL0     H14115   1.896   8.910   9.828 -0.3051 -0.4132  1.7363
  827MOL0     H14116   1.839   8.618   9.743 -0.6828 -0.0603  0.1808
  827MOL0     H14117   1.729   8.766   9.731  0.4069  1.4144 -1.0403
  827MOL0     H14118   1.847   8.700   9.995 -1.4670  1.1548  3.0340
  827MOL0     H14119   1.688   8.771   9.950  1.4945  1.4251 -1.0335
  827MOL0     H14120   1.668   8.556  10.055 -1.9273 -2.9098 -1.0053
  827MOL0     H14121   1.743   8.461   9.926 -4.0494 -2.0046  0.6682
  827MOL0     H14122   1.364   8.547   9.764  0.7854 -0.1318 -2.4494
  827MOL0     H14123   2.232   8.799   9.833 -1.9187 -0.5892 -0.6124
  827MOL0     H14124   2.433   8.831   9.911  3.0365 -0.8930  1.0880
  827MOL0     H14125   2.552   8.794   9.785  1.5142  1.1822  0.3402
  827MOL0     H14126   2.528   8.960   9.845 -0.0016  0.5644 -2.7893
  828MOL0     O14127  11.029   6.982  10.709 -0.6739  0.3288  0.2791
  828MOL0     C14128  11.057   6.878  10.763 -0.3336  0.5585 -0.0409
  828MOL0     O14129  11.181   6.835  10.799 -0.0613 -0.9479 -0.2707
  828MOL0     C14130  11.289   6.915  10.798  0.1309 -0.0324 -0.4384
  828MOL0     C14131  11.298   7.017  10.903 -0.6742  0.1550 -0.5294
  828MOL0     C14132  11.410   7.090  10.920 -0.2596 -0.1942 -0.3768
  828MOL0     C14133  11.516   7.084  10.829  0.0092 -0.4917 -0.4023
  828MOL0     O14134  11.618   7.164  10.859 -0.1671  0.2053  0.0530
  828MOL0     C14135  11.700   7.198  10.747 -0.1967 -0.1556 -0.2802
  828MOL0     C14136  11.806   7.316  10.777 -0.1583 -0.5338  0.0613
  828MOL0     C14137  11.931   7.264  10.857  0.2379 -0.8874 -0.5630
  828MOL0     C14138  12.039   7.371  10.855  0.7000 -0.5469 -0.6685
  828MOL0     C14139  12.166   7.326  10.926 -0.3426  0.3198 -0.0958
  828MOL0     C14140  12.283   7.431  10.932 -0.4971 -0.0158  0.2626
  828MOL0     C14141  12.254   7.545  11.031  0.6351 -0.0352 -0.0257
  828MOL0     C14142  12.236   7.486  11.169 -0.0910 -0.1835  0.3670
  828MOL0     N14143  12.354   7.409  11.208  0.2755 -0.2203 -0.1838
  828MOL0     C14144  12.478   7.462  11.238 -0.3263  0.2156 -0.0910
  828MOL0     C14145  12.561   7.355  11.238 -0.4180 -0.0497 -0.3493
  828MOL0     C14146  12.706   7.345  11.272 -0.5455  0.5753 -0.0852
  828MOL0     C14147  12.767   7.468  11.334 -0.1259  0.0259 -0.2209
  828MOL0     C14148  12.906   7.466  11.382 -0.6739  0.5687  0.3889
  828MOL0     C14149  13.017   7.460  11.278 -0.3318 -0.2304  0.0769
  828MOL0     O14150  13.029   7.331  11.212 -0.4057  0.4829 -0.0919
  828MOL0     C14151  13.120   7.246  11.277  0.9520 -0.1973  0.5099
  828MOL0     C14152  13.069   7.131  11.339  0.0674  0.6839  0.5526
  828MOL0     C14153  13.159   7.046  11.407 -0.0283  0.0488  0.4737
  828MOL0     C14154  13.101   6.929  11.478  0.1026 -0.0173 -0.0130
  828MOL0     C14155  13.298   7.075  11.411  0.7140  0.1938 -0.2920
  828MOL0     C14156  13.391   6.998  11.485 -0.0042 -0.1006  0.3807
  828MOL0     O14157  13.515   6.977  11.431  0.4291  0.0787 -0.4151
  828MOL0     C14158  13.634   6.925  11.487 -0.6375  0.0600 -1.0728
  828MOL0     C14159  13.726   6.868  11.402 -0.4341 -0.0533  0.3706
  828MOL0     C14160  13.836   6.800  11.451  0.0888 -0.2574  0.3680
  828MOL0     C14161  13.850   6.792  11.592 -0.2213  0.1592 -0.0557
  828MOL0     O14162  13.964   6.728  11.648  0.4104  0.6368  0.2180
  828MOL0     C14163  14.035   6.629  11.573  0.0331  0.1290  0.0202
  828MOL0     C14164  14.161   6.681  11.499  0.2678 -0.0720 -0.1256
  828MOL0     C14165  14.255   6.753  11.592  0.8006 -0.1329  0.2491
  828MOL0     C14166  14.394   6.771  11.517  0.9195  0.4944  0.1525
  828MOL0     C14167  14.502   6.812  11.613 -0.3931 -0.1749  1.0533
  828MOL0     C14168  14.635   6.820  11.537 -0.1365 -0.3956 -0.8962
  828MOL0     C14169  14.738   6.850  11.648  0.0435 -0.9392  0.0395
  828MOL0     C14170  14.871   6.902  11.598  0.6541 -0.0773  0.9658
  828MOL0    Cl14171  14.982   6.916  11.737  0.0733 -0.1897 -0.8589
  828MOL0     C14172  13.761   6.853  11.672 -0.3865  0.3833 -0.7334
  828MOL0     C14173  13.652   6.924  11.625 -0.8133 -0.1854 -1.0193
  828MOL0     O14174  13.362   6.966  11.598  0.1081  0.4412  0.1798
  828MOL0     C14175  13.351   7.189  11.350 -0.0401  0.6401  0.3349
  828MOL0     C14176  13.255   7.276  11.290 -0.3988  0.3742  0.2568
  828MOL0     N14177  12.490   7.240  11.198 -0.6740  0.6699 -0.7382
  828MOL0     N14178  12.362   7.268  11.187 -0.5134 -0.6207  0.2181
  828MOL0     C14179  11.508   6.985  10.728  0.6860  0.2153  0.8498
  828MOL0     C14180  11.397   6.893  10.716 -0.8913  0.5375 -0.2237
  828MOL0     C14181  10.950   6.776  10.780 -0.6128 -0.0268 -0.7618
  828MOL0     C14182  10.968   6.695  10.889 -0.1833 -0.3387  0.1983
  828MOL0     C14183  10.871   6.604  10.922  0.2829  0.7768  0.1204
  828MOL0     C14184  10.749   6.586  10.846  0.2934  0.3797  0.5551
  828MOL0     O14185  10.649   6.506  10.879  0.2590  0.5263  0.3932
  828MOL0     C14186  10.599   6.510  11.013  1.0400  0.4551 -1.1611
  828MOL0     C14187  10.533   6.651  11.037  0.1980  0.3088 -0.2575
  828MOL0     C14188  10.438   6.643  11.160  0.3358  0.7459  0.0826
  828MOL0     C14189  10.505   6.660  11.299 -0.6476  0.6137  0.0399
  828MOL0     C14190  10.414   6.686  11.410 -0.0074  0.7505  0.2394
  828MOL0     C14191  10.333   6.729  11.490 -1.2327 -0.1642 -0.0647
  828MOL0     C14192  10.725   6.679  10.745 -0.5087 -0.6186 -0.3938
  828MOL0     C14193  10.825   6.772  10.706 -0.1767  0.0803  0.4364
  828MOL0     C14194  10.803   6.850  10.583  0.1608  0.1832  0.6827
  828MOL0     H14195  11.231   7.028  10.988  1.2068 -1.1593  1.1906
  828MOL0     H14196  11.401   7.162  11.000 -1.3628 -1.2560  0.4930
  828MOL0     H14197  11.636   7.236  10.668  0.3225  1.6214  0.1037
  828MOL0     H14198  11.755   7.109  10.715  1.9140  0.3076  1.7342
  828MOL0     H14199  11.843   7.346  10.679  3.0849 -1.7975  0.7797
  828MOL0     H14200  11.760   7.399  10.832 -3.3444 -1.0157 -1.6559
  828MOL0     H14201  11.904   7.238  10.960 -2.0350  2.4395 -0.1311
  828MOL0     H14202  11.953   7.172  10.803 -0.4012 -0.1227 -2.1802
  828MOL0     H14203  12.070   7.405  10.755  1.7522  1.0294  0.1455
  828MOL0     H14204  12.003   7.458  10.910 -0.0554 -0.6979 -0.9101
  828MOL0     H14205  12.199   7.239  10.867  1.6077  0.3810  0.8213
  828MOL0     H14206  12.133   7.284  11.022  2.0553 -2.7814 -0.4397
  828MOL0     H14207  12.373   7.375  10.960 -2.2272 -2.0432  2.1188
  828MOL0     H14208  12.295   7.471  10.831  1.3943  0.0346  0.4746
  828MOL0     H14209  12.165   7.604  11.011 -0.5097 -1.7694 -0.3178
  828MOL0     H14210  12.343   7.608  11.030  0.1105  0.8170  2.1344
  828MOL0     H14211  12.238   7.568  11.242  1.7845 -1.4660  1.8869
  828MOL0     H14212  12.144   7.429  11.184 -0.6398  0.5483 -0.1585
  828MOL0     H14213  12.505   7.562  11.270 -1.1808  0.5872 -0.4886
  828MOL0     H14214  12.772   7.320  11.188  2.6830  0.1709  2.3612
  828MOL0     H14215  12.704   7.259  11.340 -2.9723 -1.0173 -1.9682
  828MOL0     H14216  12.764   7.549  11.260  2.3010  1.5360  1.1909
  828MOL0     H14217  12.708   7.486  11.424 -0.3563  2.9374 -0.8462
  828MOL0     H14218  12.928   7.553  11.444  2.7298 -0.0545  0.2558
  828MOL0     H14219  12.921   7.372  11.436  0.2829 -0.1770 -1.0906
  828MOL0     H14220  13.000   7.529  11.195 -2.0353 -0.9151 -0.1908
  828MOL0     H14221  13.113   7.481  11.326  0.6925  0.1490 -2.0067
  828MOL0     H14222  12.961   7.131  11.348 -0.2197 -0.1763 -2.0255
  828MOL0     H14223  13.110   6.944  11.586  0.5788  0.7001 -0.1498
  828MOL0     H14224  13.157   6.839  11.450 -1.2437 -0.4666 -1.3901
  828MOL0     H14225  12.993   6.915  11.463  0.0226  0.5643  0.0177
  828MOL0     H14226  13.704   6.872  11.295 -1.1918 -0.0796  0.5175
  828MOL0     H14227  13.910   6.758  11.383  0.4595 -0.4462  0.8882
  828MOL0     H14228  14.081   6.564  11.647  2.2063  3.6880  2.0419
  828MOL0     H14229  13.966   6.584  11.500  0.4761  0.3711 -0.5613
  828MOL0     H14230  14.201   6.587  11.459  0.0857  0.2697 -1.1195
  828MOL0     H14231  14.136   6.744  11.414 -1.4446  0.1412  0.5115
  828MOL0     H14232  14.270   6.702  11.688  0.3552 -1.0095 -0.1397
  828MOL0     H14233  14.216   6.852  11.618 -2.0861 -1.2701  0.6324
  828MOL0     H14234  14.397   6.836  11.429  2.6181 -0.9960 -0.9713
  828MOL0     H14235  14.417   6.669  11.484 -0.9722 -0.0286  0.2965
  828MOL0     H14236  14.471   6.911  11.650 -0.4337 -0.5169  1.9552
  828MOL0     H14237  14.511   6.739  11.694 -0.8423 -2.0176 -0.4822
  828MOL0     H14238  14.629   6.908  11.473  1.6334  0.9926  0.7508
  828MOL0     H14239  14.674   6.733  11.483 -0.6652  0.1464 -2.2063
  828MOL0     H14240  14.742   6.754  11.701 -1.3083 -0.8070  0.4195
  828MOL0     H14241  14.697   6.923  11.719  0.9569 -2.0905  1.8396
  828MOL0     H14242  14.874   6.999  11.549  4.6014  0.5829  2.1496
  828MOL0     H14243  14.914   6.841  11.518 -1.0875  1.6503 -1.4260
  828MOL0     H14244  13.769   6.844  11.780 -0.2218  0.4531 -0.7400
  828MOL0     H14245  13.579   6.972  11.688  0.2332  0.8185 -0.5314
  828MOL0     H14246  13.453   7.225  11.354 -0.1304  1.7793 -3.5211
  828MOL0     H14247  13.270   7.378  11.256 -4.6995  1.3197  0.5848
  828MOL0     H14248  11.590   6.955  10.664  0.3276 -0.4303  0.6784
  828MOL0     H14249  11.396   6.828  10.629  3.0030 -0.4689  0.3107
  828MOL0     H14250  11.059   6.686  10.946  1.3595 -0.6478 -2.1498
  828MOL0     H14251  10.881   6.537  11.006 -4.5772 -2.1218 -1.2238
  828MOL0     H14252  10.522   6.433  11.022 -0.8649  2.2952 -0.9594
  828MOL0     H14253  10.676   6.483  11.085  0.2177 -1.4900 -0.9381
  828MOL0     H14254  10.491   6.688  10.943  0.8298  1.6185 -0.0408
  828MOL0     H14255  10.610   6.725  11.059 -0.7153  2.1478 -2.7086
  828MOL0     H14256  10.372   6.729  11.143  0.2198  0.2552 -2.2179
  828MOL0     H14257  10.368   6.558  11.157  0.0245  0.9429  1.0756
  828MOL0     H14258  10.565   6.752  11.299  1.1158 -0.4736  1.0715
  828MOL0     H14259  10.574   6.577  11.318 -1.6951 -0.1517  0.6188
  828MOL0     H14260  10.281   6.767  11.576 -3.4601 -2.0059 -0.4858
  828MOL0     H14261  10.625   6.680  10.701 -0.6796 -2.9183 -0.1496
  828MOL0     H14262  10.729   6.792  10.527  0.2718 -1.9402  2.5714
  828MOL0     H14263  10.767   6.951  10.600 -0.0465  0.2676 -0.1887
  828MOL0     H14264  10.892   6.856  10.519  1.4222 -0.3514  2.3273
  829MOL0     O14265   2.264   3.076   9.401 -0.0443  0.3715  0.0140
  829MOL0     C14266   2.185   3.167   9.403 -0.0008  0.1940 -1.0139
  829MOL0     O14267   2.225   3.299   9.396  0.4895  0.5957 -0.1181
  829MOL0     C14268   2.350   3.326   9.359 -0.4580 -0.4651  0.0565
  829MOL0     C14269   2.448   3.360   9.456  0.9342  0.1683 -1.2916
  829MOL0     C14270   2.577   3.389   9.424 -0.4613 -0.4131 -0.4347
  829MOL0     C14271   2.619   3.386   9.289 -0.2871  0.8302 -0.2584
  829MOL0     O14272   2.752   3.410   9.271 -0.2958 -0.0851  0.3887
  829MOL0     C14273   2.810   3.369   9.144  0.0957  0.0031 -0.4000
  829MOL0     C14274   2.962   3.414   9.132 -0.2665 -0.1021  0.2973
  829MOL0     C14275   2.994   3.557   9.185  0.3520 -0.2614 -0.4878
  829MOL0     C14276   3.132   3.622   9.150 -0.1569  0.2886  0.1663
  829MOL0     C14277   3.246   3.521   9.143  0.3056 -1.1158  0.6804
  829MOL0     C14278   3.280   3.492   9.286 -0.3433  0.9127  0.3129
  829MOL0     C14279   3.409   3.414   9.301  0.2197 -0.4400 -0.1827
  829MOL0     C14280   3.528   3.487   9.357 -0.2646  0.2533  0.2242
  829MOL0     N14281   3.567   3.593   9.259 -0.3590  0.3587  0.3703
  829MOL0     C14282   3.605   3.571   9.128  0.1685  0.1528 -0.1451
  829MOL0     C14283   3.609   3.700   9.076  1.1457  0.6688  0.0686
  829MOL0     C14284   3.662   3.721   8.937 -0.2590 -0.5214 -0.3539
  829MOL0     C14285   3.796   3.805   8.931 -0.3933 -0.7958 -0.6664
  829MOL0     C14286   3.913   3.723   8.971 -0.3206 -0.4483  0.5265
  829MOL0     C14287   4.047   3.806   8.981 -0.2396  0.1767  0.1090
  829MOL0     O14288   4.074   3.866   8.852  1.3553  0.1238  0.2533
  829MOL0     C14289   4.204   3.844   8.807 -0.0092  0.0514  0.6852
  829MOL0     C14290   4.234   3.777   8.687 -0.3528 -0.5573  0.1529
  829MOL0     C14291   4.361   3.780   8.635  0.0070  0.3008 -0.6877
  829MOL0     C14292   4.372   3.701   8.509  0.1805 -0.3449 -0.1770
  829MOL0     C14293   4.467   3.848   8.699 -0.4405 -0.2919  1.0276
  829MOL0     C14294   4.611   3.841   8.645 -0.4650 -0.5242 -0.7330
  829MOL0     O14295   4.700   3.918   8.704  0.8374  0.1759  0.0507
  829MOL0     C14296   4.829   3.915   8.666 -0.0754  1.0515 -0.2126
  829MOL0     C14297   4.896   3.793   8.655 -0.4400 -0.5362 -0.0829
  829MOL0     C14298   5.034   3.779   8.619 -0.0518  0.2880  0.2910
  829MOL0     C14299   5.102   3.897   8.601 -0.2230 -0.5985  0.7594
  829MOL0     O14300   5.227   3.904   8.543  0.1035 -0.0156  0.2546
  829MOL0     C14301   5.316   3.804   8.593  0.5111 -0.2827 -0.0594
  829MOL0     C14302   5.461   3.847   8.552 -0.5327 -0.3223  1.7630
  829MOL0     C14303   5.492   3.789   8.409  0.6638  0.0729  0.0215
  829MOL0     C14304   5.520   3.641   8.394  0.6634 -0.2917  0.5047
  829MOL0     C14305   5.614   3.581   8.495  0.2490 -0.0564  0.0020
  829MOL0     C14306   5.667   3.443   8.450  0.2571  0.2340  0.9172
  829MOL0     C14307   5.755   3.373   8.562  0.5289  0.2721  0.1546
  829MOL0     C14308   5.700   3.375   8.704 -0.1094  0.1819 -0.7727
  829MOL0    Cl14309   5.539   3.303   8.708  0.1415  0.1061 -0.0241
  829MOL0     C14310   5.043   4.026   8.625  0.9174  0.0749  0.6274
  829MOL0     C14311   4.907   4.029   8.660 -0.2004 -0.1152 -0.1404
  829MOL0     O14312   4.628   3.780   8.536  0.0443  0.6905 -0.5529
  829MOL0     C14313   4.436   3.916   8.815 -0.5092 -1.2351 -0.0881
  829MOL0     C14314   4.310   3.916   8.861  0.4367 -0.1318  0.1646
  829MOL0     N14315   3.583   3.784   9.178  0.1419  0.2220  0.1289
  829MOL0     N14316   3.554   3.721   9.285  0.8867  0.1300  0.6184
  829MOL0     C14317   2.527   3.369   9.190 -0.0506 -0.1139  0.4303
  829MOL0     C14318   2.390   3.349   9.224 -0.0696 -0.1139 -0.2643
  829MOL0     C14319   2.035   3.147   9.424  0.0911  0.2826  0.3538
  829MOL0     C14320   1.994   3.028   9.486 -0.0421 -0.0841  0.0682
  829MOL0     C14321   1.860   3.002   9.506 -0.2061  0.3978  0.8332
  829MOL0     C14322   1.758   3.081   9.460  0.5252  0.1122 -0.7295
  829MOL0     O14323   1.625   3.059   9.480  0.1737  0.3961 -0.4711
  829MOL0     C14324   1.575   2.982   9.593 -0.3201 -0.9904  0.4056
  829MOL0     C14325   1.426   3.004   9.614  0.4872  0.3305 -0.3571
  829MOL0     C14326   1.386   2.912   9.723  0.0317 -0.0270 -0.3940
  829MOL0     C14327   1.259   2.973   9.789 -0.1743 -0.5759 -0.9134
  829MOL0     C14328   1.189   2.867   9.861  0.8909 -0.9698 -0.4141
  829MOL0     C14329   1.146   2.764   9.923  0.1862 -0.6202 -0.0025
  829MOL0     C14330   1.798   3.183   9.383  0.2829 -0.4740  0.6378
  829MOL0     C14331   1.928   3.221   9.367 -0.2172  0.2599 -0.1309
  829MOL0     C14332   1.952   3.348   9.292  1.1514  1.2954  0.4883
  829MOL0     H14333   2.409   3.359   9.558  0.6296  4.1133 -1.2303
  829MOL0     H14334   2.643   3.414   9.506 -3.1166 -1.0751  2.1089
  829MOL0     H14335   2.755   3.420   9.064 -1.3092 -1.1989 -0.2445
  829MOL0     H14336   2.801   3.265   9.109 -0.5387  1.1626 -4.1599
  829MOL0     H14337   3.023   3.341   9.185  2.3681 -0.3569 -2.7997
  829MOL0     H14338   2.986   3.423   9.026 -2.9343  0.8444 -0.3276
  829MOL0     H14339   2.908   3.624   9.177  2.0581  1.8406 -2.7323
  829MOL0     H14340   2.993   3.542   9.293 -1.7512 -1.5947 -0.6357
  829MOL0     H14341   3.117   3.665   9.050  0.0943 -1.0467 -0.4579
  829MOL0     H14342   3.150   3.698   9.227  2.1195  2.0612 -1.9566
  829MOL0     H14343   3.331   3.557   9.085 -1.5308 -2.8024 -3.4772
  829MOL0     H14344   3.225   3.428   9.089 -5.6946  0.6880 -0.9106
  829MOL0     H14345   3.292   3.586   9.340  2.1850 -0.9754  3.4427
  829MOL0     H14346   3.201   3.433   9.332  0.7750  0.0216  1.1649
  829MOL0     H14347   3.435   3.366   9.206 -0.2493 -0.8012 -0.1290
  829MOL0     H14348   3.384   3.335   9.371  0.0328  0.6207  0.9820
  829MOL0     H14349   3.506   3.529   9.456 -0.3086 -1.4816  0.9777
  829MOL0     H14350   3.605   3.410   9.366 -0.9822 -0.7221 -1.5046
  829MOL0     H14351   3.633   3.480   9.075 -2.8114 -0.0245 -1.6197
  829MOL0     H14352   3.585   3.780   8.886 -0.4747 -0.2115  0.3100
  829MOL0     H14353   3.669   3.635   8.871  1.0591 -0.1350 -0.7489
  829MOL0     H14354   3.812   3.843   8.830 -2.6188  0.0176 -0.7752
  829MOL0     H14355   3.786   3.896   8.992  0.3970  0.0176 -1.7083
  829MOL0     H14356   3.898   3.667   9.064 -2.4145 -1.0950 -0.1369
  829MOL0     H14357   3.939   3.659   8.886 -0.3231 -2.0410  1.6879
  829MOL0     H14358   4.038   3.886   9.055 -1.6808 -0.1768  0.3370
  829MOL0     H14359   4.134   3.744   9.004  0.4233  0.7241 -0.8286
  829MOL0     H14360   4.154   3.726   8.634 -0.0342 -2.1934  1.1709
  829MOL0     H14361   4.421   3.737   8.419  0.7647 -1.1131 -0.1828
  829MOL0     H14362   4.270   3.668   8.489 -0.7458  0.2456  2.9520
  829MOL0     H14363   4.436   3.616   8.536  0.7612  0.4117  0.9441
  829MOL0     H14364   4.846   3.696   8.657  1.7628 -1.7331  1.2511
  829MOL0     H14365   5.072   3.679   8.603 -2.2171 -0.5304 -0.1246
  829MOL0     H14366   5.304   3.809   8.702  1.7723 -0.8957  0.1192
  829MOL0     H14367   5.298   3.704   8.555  2.9619  0.2533 -2.9554
  829MOL0     H14368   5.454   3.954   8.533  0.3266 -0.2914  1.6136
  829MOL0     H14369   5.547   3.833   8.618  3.4237 -0.6453 -2.8943
  829MOL0     H14370   5.577   3.843   8.366  2.0564 -1.3353  0.9249
  829MOL0     H14371   5.408   3.824   8.349  0.4473 -1.0323 -0.3361
  829MOL0     H14372   5.554   3.623   8.292 -0.8240  3.4668 -0.8276
  829MOL0     H14373   5.430   3.579   8.403 -1.9210  3.2029  0.7024
  829MOL0     H14374   5.697   3.651   8.495  0.1602  0.0699 -1.3571
  829MOL0     H14375   5.562   3.576   8.592  0.1374 -0.1192 -0.0613
  829MOL0     H14376   5.731   3.455   8.362  2.8654  1.0249  2.8212
  829MOL0     H14377   5.586   3.374   8.424  1.1557 -0.4374 -0.1776
  829MOL0     H14378   5.854   3.421   8.561  0.4620  0.4344  0.7250
  829MOL0     H14379   5.772   3.269   8.532 -0.6212  0.0478  0.2566
  829MOL0     H14380   5.691   3.479   8.737 -1.7930  0.2585 -1.3745
  829MOL0     H14381   5.769   3.331   8.777  1.7054  3.3655 -0.4024
  829MOL0     H14382   5.085   4.121   8.593 -0.6647 -0.0888 -2.3030
  829MOL0     H14383   4.871   4.132   8.664  0.1419  0.0907 -1.7412
  829MOL0     H14384   4.504   3.984   8.866 -3.0445  2.6348 -1.4238
  829MOL0     H14385   4.273   3.975   8.944  0.4559  0.7380 -0.4277
  829MOL0     H14386   2.561   3.368   9.087  0.8840  1.5066  0.6929
  829MOL0     H14387   2.313   3.344   9.148 -1.8953  4.1356  0.9631
  829MOL0     H14388   2.074   2.959   9.511  0.1809 -0.2638 -1.0753
  829MOL0     H14389   1.842   2.913   9.566  1.2906 -1.3192 -1.1373
  829MOL0     H14390   1.597   2.877   9.574 -1.8830 -1.0302 -1.5449
  829MOL0     H14391   1.624   3.020   9.683 -0.7363  1.7628 -0.4354
  829MOL0     H14392   1.367   2.985   9.524  1.2956 -1.5848 -0.5186
  829MOL0     H14393   1.409   3.109   9.640 -0.3321 -0.0956  0.9409
  829MOL0     H14394   1.359   2.813   9.684 -1.3227  0.4902 -0.8543
  829MOL0     H14395   1.459   2.905   9.803 -0.9105  0.0222  0.4913
  829MOL0     H14396   1.194   3.018   9.713 -0.8684  2.7541  1.4709
  829MOL0     H14397   1.294   3.050   9.858 -3.3506  0.4538 -0.2826
  829MOL0     H14398   1.124   2.673   9.974  1.6408  1.5704  5.2363
  829MOL0     H14399   1.719   3.247   9.345 -1.1181 -0.8769  2.7103
  829MOL0     H14400   2.020   3.320   9.210  0.6473  1.1863  0.1063
  829MOL0     H14401   1.862   3.388   9.246  2.0527  2.3957 -0.4027
  829MOL0     H14402   1.989   3.429   9.356  1.6230  1.2376  0.2985
  830MOL0     O14403   4.490   4.456  11.119  0.8002 -0.8914  0.3464
  830MOL0     C14404   4.470   4.337  11.122 -1.2943 -0.2885  0.1015
  830MOL0     O14405   4.560   4.240  11.081 -0.4854 -0.0822  0.0442
  830MOL0     C14406   4.683   4.284  11.031  0.6008 -0.7256 -0.8129
  830MOL0     C14407   4.782   4.309  11.127  0.2837  0.2233  0.1079
  830MOL0     C14408   4.920   4.351  11.095  0.6308  0.2012 -0.1401
  830MOL0     C14409   4.955   4.339  10.960  0.1821 -0.2006 -0.6704
  830MOL0     O14410   5.077   4.390  10.915  0.4784  0.3368  0.1269
  830MOL0     C14411   5.193   4.372  10.997  0.0213  0.5444 -0.0743
  830MOL0     C14412   5.312   4.448  10.944 -0.1363 -0.6939 -0.4924
  830MOL0     C14413   5.445   4.414  11.007 -0.7581 -0.0090 -0.3317
  830MOL0     C14414   5.434   4.422  11.161 -0.4129 -0.5355 -0.5370
  830MOL0     C14415   5.570   4.443  11.226  0.3402 -0.4857 -0.2110
  830MOL0     C14416   5.547   4.441  11.377 -0.2109 -0.6311  0.1643
  830MOL0     C14417   5.671   4.496  11.436 -0.4116  0.0492 -0.7904
  830MOL0     C14418   5.673   4.502  11.585 -0.1113  0.1011  0.7416
  830MOL0     N14419   5.768   4.611  11.631 -0.4632  0.3455  0.5118
  830MOL0     C14420   5.893   4.632  11.571  0.0477  0.7620 -0.0877
  830MOL0     C14421   5.943   4.740  11.638  0.8315  0.2936 -1.1014
  830MOL0     C14422   6.081   4.801  11.634 -0.6989 -0.0534  0.3006
  830MOL0     C14423   6.189   4.745  11.727  0.7682  0.2825 -0.6000
  830MOL0     C14424   6.317   4.827  11.708  0.0735  0.1785 -0.5570
  830MOL0     C14425   6.413   4.773  11.601  0.6590 -0.1323  0.6485
  830MOL0     O14426   6.466   4.641  11.629  0.1593  0.0274  1.0075
  830MOL0     C14427   6.558   4.589  11.542 -0.5810  0.0358 -0.5842
  830MOL0     C14428   6.583   4.637  11.415  0.1805  0.0709 -0.6261
  830MOL0     C14429   6.686   4.592  11.328 -0.6957  0.2054  0.2607
  830MOL0     C14430   6.706   4.656  11.193  0.7856  0.0037 -0.2171
  830MOL0     C14431   6.767   4.483  11.382  0.1067  0.4500 -1.0930
  830MOL0     C14432   6.873   4.416  11.301  0.1132 -0.2707  0.1714
  830MOL0     O14433   6.953   4.332  11.372  0.2207  0.9936  0.8048
  830MOL0     C14434   7.086   4.327  11.325 -0.5072 -0.0157  0.4578
  830MOL0     C14435   7.159   4.218  11.375 -0.7102  0.2029 -0.6533
  830MOL0     C14436   7.297   4.219  11.371 -0.4416  0.3187  0.7913
  830MOL0     C14437   7.367   4.322  11.315 -0.2111 -0.2426  0.0200
  830MOL0     O14438   7.498   4.303  11.320  0.1692  0.1486 -0.3278
  830MOL0     C14439   7.579   4.416  11.282 -0.3665  0.2663  0.2275
  830MOL0     C14440   7.728   4.380  11.307 -0.4518 -0.6705  0.3623
  830MOL0     C14441   7.826   4.494  11.275  0.3646 -0.0605  0.4265
  830MOL0     C14442   7.970   4.451  11.302 -0.2956  0.0545  0.5912
  830MOL0     C14443   8.068   4.566  11.273  0.1573 -0.4210  0.0042
  830MOL0     C14444   8.215   4.517  11.302 -0.0187 -0.6727  0.2699
  830MOL0     C14445   8.318   4.618  11.299  0.6435 -0.0370 -0.1528
  830MOL0     C14446   8.463   4.550  11.295  0.5410 -0.5582 -0.5962
  830MOL0    Cl14447   8.566   4.691  11.257  0.3713  0.0695 -0.1814
  830MOL0     C14448   7.294   4.434  11.269  0.2870 -0.4905 -0.1945
  830MOL0     C14449   7.149   4.440  11.274 -0.0287 -0.0508 -0.0878
  830MOL0     O14450   6.876   4.433  11.180 -0.5506 -0.3270  0.4770
  830MOL0     C14451   6.751   4.445  11.518 -0.5264  0.5857  0.5354
  830MOL0     C14452   6.647   4.494  11.596 -0.0089 -0.8769  0.1988
  830MOL0     N14453   5.867   4.770  11.750 -0.0459 -0.3348  0.0719
  830MOL0     N14454   5.761   4.691  11.744 -0.0493 -0.0415  0.0870
  830MOL0     C14455   4.852   4.316  10.869 -0.0489  0.6785 -0.3250
  830MOL0     C14456   4.726   4.274  10.897  0.2233 -0.2223 -0.2547
  830MOL0     C14457   4.342   4.287  11.163 -0.0925 -0.0164 -0.0832
  830MOL0     C14458   4.331   4.204  11.275 -0.8527  0.9127 -0.2388
  830MOL0     C14459   4.214   4.161  11.318 -0.2672 -0.3167 -0.6140
  830MOL0     C14460   4.097   4.184  11.245  0.0460  0.5755 -0.1513
  830MOL0     O14461   3.983   4.127  11.297  0.6036  0.5611  0.5757
  830MOL0     C14462   3.861   4.145  11.225 -0.3952  0.3559  0.2790
  830MOL0     C14463   3.747   4.097  11.309  0.6276  0.7057  0.0642
  830MOL0     C14464   3.640   4.033  11.223 -0.1020  0.3695 -0.2458
  830MOL0     C14465   3.519   3.998  11.302  0.3774  0.0505  0.2717
  830MOL0     C14466   3.402   4.012  11.210 -0.0283  0.2568 -0.5227
  830MOL0     C14467   3.305   4.045  11.155 -0.3196 -0.0784  0.6899
  830MOL0     C14468   4.110   4.260  11.126 -0.7964 -0.3001  0.9685
  830MOL0     C14469   4.231   4.297  11.081 -0.1502 -0.0695 -0.3279
  830MOL0     C14470   4.237   4.358  10.934 -0.4016 -0.1631 -0.1091
  830MOL0     H14471   4.750   4.303  11.230  1.0653 -0.5394  0.3168
  830MOL0     H14472   4.981   4.377  11.181 -1.1551 -1.4855  1.7832
  830MOL0     H14473   5.211   4.265  10.990 -0.9853  0.4486 -1.4462
  830MOL0     H14474   5.175   4.402  11.101 -0.4283  1.1432 -0.3202
  830MOL0     H14475   5.319   4.436  10.836 -2.0183  0.9710 -0.8631
  830MOL0     H14476   5.277   4.551  10.951 -1.5445 -1.1853  0.2052
  830MOL0     H14477   5.481   4.314  10.982 -2.4314 -0.7688  0.1093
  830MOL0     H14478   5.521   4.489  10.985 -2.6304  1.8708 -0.7279
  830MOL0     H14479   5.364   4.502  11.186 -0.1177 -0.4066 -0.1156
  830MOL0     H14480   5.390   4.331  11.203  0.2244 -0.8768 -0.5924
  830MOL0     H14481   5.612   4.539  11.195  0.9572 -0.0473  1.8745
  830MOL0     H14482   5.632   4.361  11.189  2.9352  1.2887 -0.0155
  830MOL0     H14483   5.468   4.517  11.385 -1.2453 -1.1902 -3.1629
  830MOL0     H14484   5.505   4.346  11.411 -4.1654  1.3317  1.3512
  830MOL0     H14485   5.688   4.597  11.398 -2.2590 -0.7570 -4.1818
  830MOL0     H14486   5.755   4.435  11.402 -0.7561 -1.6238  1.2215
  830MOL0     H14487   5.576   4.532  11.625  1.1992  3.2168  1.9118
  830MOL0     H14488   5.709   4.407  11.624 -0.7462 -0.6928 -0.5415
  830MOL0     H14489   5.941   4.567  11.498 -2.3406 -0.6176 -0.5317
  830MOL0     H14490   6.072   4.909  11.649 -1.3893 -0.0317 -0.2180
  830MOL0     H14491   6.115   4.786  11.531 -0.1877  0.9235  0.3214
  830MOL0     H14492   6.158   4.764  11.831  0.2644  0.4392 -0.7773
  830MOL0     H14493   6.190   4.636  11.729 -1.0015  0.2292  0.3867
  830MOL0     H14494   6.296   4.933  11.696 -1.1798 -0.3233 -3.6954
  830MOL0     H14495   6.384   4.817  11.795  0.2760  2.8151 -0.3431
  830MOL0     H14496   6.358   4.774  11.507  1.5205 -0.4440  0.1381
  830MOL0     H14497   6.498   4.841  11.590  1.8082 -1.7396 -0.9200
  830MOL0     H14498   6.527   4.721  11.376  0.4824  0.6227  0.1148
  830MOL0     H14499   6.665   4.756  11.178  0.2998 -0.2045 -0.3001
  830MOL0     H14500   6.668   4.588  11.117  1.6760 -0.5594 -0.1679
  830MOL0     H14501   6.810   4.687  11.178  0.1646  1.4521 -1.8876
  830MOL0     H14502   7.107   4.138  11.426 -1.0043  0.8084  0.0038
  830MOL0     H14503   7.350   4.139  11.420  1.6715  2.2014  1.7646
  830MOL0     H14504   7.562   4.457  11.182 -1.2735  2.0859  1.0758
  830MOL0     H14505   7.560   4.493  11.357 -0.0099  0.7463 -0.1673
  830MOL0     H14506   7.731   4.353  11.413  4.7006 -0.5563  0.4628
  830MOL0     H14507   7.765   4.290  11.258 -1.2722  0.4067 -2.4447
  830MOL0     H14508   7.801   4.574  11.345 -2.2038 -1.8788  1.7471
  830MOL0     H14509   7.811   4.540  11.177 -0.4800  0.5866  0.8469
  830MOL0     H14510   7.979   4.375  11.224 -0.1136 -0.2101  0.8708
  830MOL0     H14511   7.976   4.411  11.403 -0.1891 -0.8115  0.2493
  830MOL0     H14512   8.060   4.600  11.169  1.0859 -1.0700 -0.2915
  830MOL0     H14513   8.049   4.645  11.346 -1.2953 -2.3567  1.8381
  830MOL0     H14514   8.240   4.441  11.227 -3.6292 -0.2283 -1.5879
  830MOL0     H14515   8.225   4.470  11.400  0.2974 -1.5966 -0.1899
  830MOL0     H14516   8.307   4.675  11.392  0.2498 -4.4148  2.8335
  830MOL0     H14517   8.312   4.692  11.219  0.3668  0.4742  0.3319
  830MOL0     H14518   8.482   4.472  11.220  0.5105 -1.4076  0.2573
  830MOL0     H14519   8.464   4.510  11.397 -0.5095  1.4168  0.2421
  830MOL0     H14520   7.347   4.527  11.253  1.2878 -0.9996  0.0409
  830MOL0     H14521   7.093   4.530  11.250 -1.9076 -0.9943  0.5504
  830MOL0     H14522   6.815   4.372  11.566 -2.2858 -2.6270 -1.6335
  830MOL0     H14523   6.640   4.462  11.700  1.2058 -2.5046 -0.1795
  830MOL0     H14524   4.888   4.313  10.767  0.9548  2.3703 -0.0635
  830MOL0     H14525   4.650   4.245  10.826 -2.8286  1.6282  1.9880
  830MOL0     H14526   4.426   4.194  11.326 -0.1023  0.0093 -1.7454
  830MOL0     H14527   4.214   4.098  11.406  2.7989 -2.1532 -1.7699
  830MOL0     H14528   3.849   4.251  11.202 -0.0838  0.4280  0.4512
  830MOL0     H14529   3.876   4.076  11.141  1.6060  1.6835 -0.5357
  830MOL0     H14530   3.715   4.186  11.365 -1.4446 -0.7976  1.3952
  830MOL0     H14531   3.776   4.018  11.380 -1.5692 -0.6145 -0.4324
  830MOL0     H14532   3.627   4.108  11.144  1.0760 -1.2732 -2.0621
  830MOL0     H14533   3.687   3.947  11.176  3.8952  2.9107 -1.4310
  830MOL0     H14534   3.501   4.053  11.395  0.7963 -1.2562  1.1390
  830MOL0     H14535   3.537   3.893  11.326 -1.4765 -0.1074  1.2130
  830MOL0     H14536   3.217   4.095  11.120  0.0101  1.4788  1.9943
  830MOL0     H14537   4.025   4.262  11.058 -0.4863 -2.4802  0.4465
  830MOL0     H14538   4.297   4.293  10.870 -0.0813 -1.7167  1.6655
  830MOL0     H14539   4.135   4.352  10.897 -1.1508 -7.1644  1.7644
  830MOL0     H14540   4.265   4.464  10.923  0.9902 -0.5001 -0.0059
  831MOL0     O14541   0.290   3.790   1.228  1.1334 -0.0885  0.1396
  831MOL0     C14542   0.286   3.749   1.109 -0.0832 -0.4426 -0.8227
  831MOL0     O14543   0.388   3.700   1.033 -0.0273  0.2715 -0.5604
  831MOL0     C14544   0.522   3.716   1.052  0.9888  0.1200  0.7499
  831MOL0     C14545   0.609   3.638   0.971  0.0949 -0.3464  0.2141
  831MOL0     C14546   0.750   3.662   0.983 -0.6592  1.1563  0.0488
  831MOL0     C14547   0.803   3.746   1.081 -0.0665  0.5127 -0.6615
  831MOL0     O14548   0.943   3.766   1.085  0.3182  0.0853  0.0426
  831MOL0     C14549   0.986   3.895   1.139 -0.5447  0.0554 -0.6527
  831MOL0     C14550   1.146   3.897   1.127 -0.1280  0.1633 -0.5141
  831MOL0     C14551   1.212   4.007   1.218  0.5543  0.0737 -0.0738
  831MOL0     C14552   1.179   4.149   1.167 -0.3374 -0.1170  0.1384
  831MOL0     C14553   1.228   4.200   1.030 -0.1466  0.1140  0.2659
  831MOL0     C14554   1.216   4.354   1.015  0.4188  0.9599  0.6439
  831MOL0     C14555   1.227   4.383   0.864  0.2311  0.0939  0.0936
  831MOL0     C14556   1.213   4.531   0.832  0.8402 -0.0078 -0.9768
  831MOL0     N14557   1.327   4.608   0.888 -0.3532  0.3303  0.1266
  831MOL0     C14558   1.358   4.630   1.020  0.5743 -1.1240  0.3926
  831MOL0     C14559   1.480   4.672   1.021  0.0804  0.1205  0.2399
  831MOL0     C14560   1.571   4.684   1.139  0.7063 -0.3156 -0.4797
  831MOL0     C14561   1.582   4.563   1.222 -0.9905  0.8404  0.1012
  831MOL0     C14562   1.646   4.437   1.146  0.6255 -0.2098  0.0273
  831MOL0     C14563   1.678   4.316   1.229  0.0478 -0.2108  0.3880
  831MOL0     O14564   1.742   4.354   1.355  0.4922 -0.1145 -0.6834
  831MOL0     C14565   1.878   4.383   1.354 -0.1676 -0.0505  0.1265
  831MOL0     C14566   1.936   4.448   1.463 -0.5956 -0.2749  0.1859
  831MOL0     C14567   2.064   4.488   1.478  0.7264  0.6767 -0.2344
  831MOL0     C14568   2.101   4.553   1.614 -0.5021 -0.0707  0.1012
  831MOL0     C14569   2.149   4.466   1.365 -0.1601  0.0983  0.4064
  831MOL0     C14570   2.292   4.504   1.363 -0.1377  0.4582  0.4242
  831MOL0     O14571   2.365   4.499   1.247  0.3608  0.2191  1.0196
  831MOL0     C14572   2.488   4.559   1.252 -0.6774  0.2626 -0.0904
  831MOL0     C14573   2.605   4.491   1.287 -0.1999 -0.2654  0.4326
  831MOL0     C14574   2.732   4.546   1.286  0.1863 -0.6341 -0.6656
  831MOL0     C14575   2.745   4.680   1.275 -0.5241 -0.1362  0.0459
  831MOL0     O14576   2.870   4.737   1.272 -0.0558 -0.3149 -0.6843
  831MOL0     C14577   2.892   4.868   1.223  0.2078  0.3146 -0.0243
  831MOL0     C14578   3.038   4.916   1.205 -0.1216  0.3821  0.6681
  831MOL0     C14579   3.127   4.814   1.143  0.3187  0.2238  0.7186
  831MOL0     C14580   3.260   4.880   1.123  0.8276 -0.5624  0.5007
  831MOL0     C14581   3.353   4.763   1.078 -0.3461 -0.8417 -0.3739
  831MOL0     C14582   3.503   4.806   1.070 -0.2993 -0.3803  0.2916
  831MOL0     C14583   3.519   4.926   0.974 -0.3594  0.3603 -0.3196
  831MOL0     C14584   3.661   4.949   0.955  0.0937 -0.5454  0.3364
  831MOL0    Cl14585   3.684   5.107   0.871  0.3489  0.1092 -0.0200
  831MOL0     C14586   2.634   4.749   1.228  0.9985 -0.1690 -0.4084
  831MOL0     C14587   2.501   4.690   1.214 -0.4143 -0.5471  0.5189
  831MOL0     O14588   2.348   4.520   1.469  0.1157 -0.2877  0.5425
  831MOL0     C14589   2.097   4.402   1.249  0.5043 -0.0121  0.1829
  831MOL0     C14590   1.964   4.360   1.246  0.1681  0.1117  0.2113
  831MOL0     N14591   1.534   4.681   0.898 -0.0204 -0.5450 -0.0481
  831MOL0     N14592   1.441   4.646   0.809 -0.3355 -0.4256 -0.4084
  831MOL0     C14593   0.714   3.810   1.166 -0.1258  0.5510  0.6161
  831MOL0     C14594   0.576   3.789   1.154 -0.6249 -1.4826 -0.1827
  831MOL0     C14595   0.150   3.736   1.055 -0.5193  0.4915  0.4257
  831MOL0     C14596   0.049   3.785   1.124 -0.3643 -0.1919 -1.2330
  831MOL0     C14597  -0.080   3.771   1.084  0.7235  0.2966  0.4665
  831MOL0     C14598  -0.115   3.704   0.969  0.9247  0.1922  0.1310
  831MOL0     O14599  -0.245   3.695   0.919 -0.1187  0.7086  0.3152
  831MOL0     C14600  -0.344   3.778   0.983  0.0979 -0.7000  0.7151
  831MOL0     C14601  -0.425   3.714   1.094 -0.4636  0.2905 -0.5125
  831MOL0     C14602  -0.516   3.815   1.163 -0.3819  0.7666  0.2796
  831MOL0     C14603  -0.646   3.830   1.097  0.1023 -0.6399  1.0854
  831MOL0     C14604  -0.694   3.962   1.135  0.5453 -0.2824 -0.2854
  831MOL0     C14605  -0.710   4.060   1.192  0.6108 -0.4420  0.8929
  831MOL0     C14606  -0.014   3.643   0.890  0.1462 -0.1679  0.1619
  831MOL0     C14607   0.127   3.661   0.930 -0.1934 -0.8374 -0.5033
  831MOL0     C14608   0.225   3.587   0.842 -1.1307  0.2630 -0.1351
  831MOL0     H14609   0.570   3.565   0.900  1.4104  0.7689 -1.7683
  831MOL0     H14610   0.828   3.619   0.922 -0.5897  0.2911  0.7208
  831MOL0     H14611   0.955   3.900   1.244  1.0964  1.2389 -0.1928
  831MOL0     H14612   0.946   3.987   1.093 -0.0979  1.9450  2.4710
  831MOL0     H14613   1.180   3.800   1.165  1.9112  0.5994 -1.1472
  831MOL0     H14614   1.177   3.908   1.022 -1.0867  2.2901 -0.6249
  831MOL0     H14615   1.189   3.981   1.322 -1.9877 -4.1368 -1.4195
  831MOL0     H14616   1.319   3.983   1.218  0.0339 -2.9334 -2.2814
  831MOL0     H14617   1.071   4.164   1.159 -0.1981  1.6508  1.0334
  831MOL0     H14618   1.216   4.218   1.244 -0.2046 -0.0386  0.0067
  831MOL0     H14619   1.176   4.140   0.955  2.2729 -3.4419  1.1405
  831MOL0     H14620   1.334   4.174   1.018  0.3423  2.6398 -1.9850
  831MOL0     H14621   1.121   4.396   1.049  0.1678  1.1950 -0.3418
  831MOL0     H14622   1.295   4.399   1.077  0.3113  2.7657 -0.4680
  831MOL0     H14623   1.161   4.317   0.806 -0.4454 -0.7922  1.8050
  831MOL0     H14624   1.328   4.350   0.838 -0.2488  1.1818 -3.8843
  831MOL0     H14625   1.217   4.549   0.724 -1.3025 -0.3604 -1.1688
  831MOL0     H14626   1.116   4.564   0.872  0.2119 -1.3549 -1.3123
  831MOL0     H14627   1.293   4.612   1.104  2.0042 -1.1761  1.5327
  831MOL0     H14628   1.543   4.774   1.196  1.7558 -0.9413  1.0954
  831MOL0     H14629   1.667   4.711   1.094 -0.5083  1.1430 -2.3715
  831MOL0     H14630   1.650   4.586   1.305  1.0376  0.3477 -1.3307
  831MOL0     H14631   1.493   4.525   1.273  1.3845 -1.6433  2.8441
  831MOL0     H14632   1.563   4.419   1.077 -1.4657  1.4223  1.9722
  831MOL0     H14633   1.735   4.476   1.095  0.8924  1.1978  1.4934
  831MOL0     H14634   1.582   4.264   1.242 -0.3399  0.9355  2.7270
  831MOL0     H14635   1.732   4.247   1.163  0.1799 -1.4999  1.7827
  831MOL0     H14636   1.866   4.472   1.543  0.0916 -2.6060  1.5789
  831MOL0     H14637   2.159   4.476   1.666 -1.4355 -2.6576 -2.4347
  831MOL0     H14638   2.014   4.578   1.676  0.2217  3.4253 -0.0645
  831MOL0     H14639   2.150   4.649   1.595 -0.5140 -0.2768 -1.0113
  831MOL0     H14640   2.587   4.385   1.304 -2.0988  0.0653  0.6753
  831MOL0     H14641   2.821   4.493   1.321  0.9441  1.2654  0.4174
  831MOL0     H14642   2.838   4.884   1.129  0.5868  0.2279 -0.2597
  831MOL0     H14643   2.854   4.942   1.293  1.2644 -0.1352  1.0693
  831MOL0     H14644   3.041   5.003   1.138 -0.4764 -1.1061 -1.3777
  831MOL0     H14645   3.077   4.953   1.300 -0.7099  0.3831  0.9107
  831MOL0     H14646   3.083   4.794   1.044 -1.1790  2.4964  0.8573
  831MOL0     H14647   3.135   4.726   1.207  2.5370  0.5407  0.9593
  831MOL0     H14648   3.295   4.919   1.220  0.2404  0.7240  0.2272
  831MOL0     H14649   3.247   4.958   1.047  1.1081 -0.6131  0.3983
  831MOL0     H14650   3.346   4.683   1.153  1.4933  0.1341  0.9510
  831MOL0     H14651   3.329   4.713   0.984  0.5257  2.7055 -2.6755
  831MOL0     H14652   3.558   4.717   1.038  0.9994  0.2259  0.7876
  831MOL0     H14653   3.532   4.844   1.168  0.1926  2.2558 -0.8031
  831MOL0     H14654   3.492   5.023   1.016  2.8511  1.8263 -1.3063
  831MOL0     H14655   3.474   4.908   0.876  1.0367  0.8682 -1.0919
  831MOL0     H14656   3.692   4.860   0.900 -0.6928 -1.1244  0.8161
  831MOL0     H14657   3.726   4.949   1.043  0.0246  2.0828  0.4759
  831MOL0     H14658   2.644   4.856   1.208 -1.2698  0.0564 -0.6836
  831MOL0     H14659   2.416   4.749   1.180  1.8767  1.9407 -1.4513
  831MOL0     H14660   2.152   4.362   1.165  0.3140  0.9715 -0.4248
  831MOL0     H14661   1.941   4.302   1.157  0.2544 -1.2031  1.0219
  831MOL0     H14662   0.750   3.884   1.238 -1.9047  1.2011  0.8928
  831MOL0     H14663   0.516   3.846   1.224 -1.2486  1.4927 -2.8595
  831MOL0     H14664   0.055   3.834   1.221  1.5469  0.3693 -1.5843
  831MOL0     H14665  -0.155   3.821   1.144 -0.1911 -1.7086  1.0699
  831MOL0     H14666  -0.313   3.878   1.015 -0.3249 -0.7616  1.3429
  831MOL0     H14667  -0.424   3.801   0.912 -1.2025  0.1915  2.4005
  831MOL0     H14668  -0.357   3.669   1.167 -2.4598 -0.2144  1.1433
  831MOL0     H14669  -0.481   3.625   1.062 -0.3939 -1.6408  4.0208
  831MOL0     H14670  -0.521   3.792   1.270 -0.5812  3.1858  0.8602
  831MOL0     H14671  -0.460   3.908   1.151 -1.5205  1.3973 -0.2675
  831MOL0     H14672  -0.717   3.750   1.118  1.7952 -2.2983  0.6984
  831MOL0     H14673  -0.631   3.835   0.989  2.8205 -0.8245  1.3866
  831MOL0     H14674  -0.736   4.159   1.225 -0.1776  0.4105 -1.9960
  831MOL0     H14675  -0.037   3.603   0.792 -1.3640  0.2717  0.3026
  831MOL0     H14676   0.180   3.532   0.759  0.8289  1.1252 -1.8586
  831MOL0     H14677   0.297   3.665   0.813 -0.2959  1.4690  4.2799
  831MOL0     H14678   0.282   3.513   0.899  0.7241  2.3927  0.9478
  832MOL0     O14679   9.450   9.923   5.936 -0.6012 -0.0564 -0.2393
  832MOL0     C14680   9.410   9.963   6.044 -0.2392 -0.3920  0.4059
  832MOL0     O14681   9.497  10.019   6.148  0.5271  0.0224  0.2604
  832MOL0     C14682   9.623  10.033   6.119  0.1088 -0.5610 -0.0484
  832MOL0     C14683   9.678  10.099   6.007 -0.1227 -0.1144 -0.1311
  832MOL0     C14684   9.812  10.129   6.000 -0.2749  0.1162 -1.0532
  832MOL0     C14685   9.894  10.067   6.099 -0.0406 -0.2109 -0.6294
  832MOL0     O14686  10.026  10.087   6.112 -0.4478 -0.0382 -0.1210
  832MOL0     C14687  10.070  10.223   6.093  0.3632 -0.4909  0.3238
  832MOL0     C14688  10.171  10.259   6.203  0.2432 -0.6490  0.1857
  832MOL0     C14689  10.146  10.212   6.342  0.0064  0.0282  0.8022
  832MOL0     C14690  10.243  10.281   6.432  0.3356 -0.0698 -0.2175
  832MOL0     C14691  10.204  10.252   6.574  0.5217 -0.1243  0.7030
  832MOL0     C14692  10.256  10.364   6.668  0.1878  0.7769 -0.4203
  832MOL0     C14693  10.398  10.403   6.648  0.4004 -0.2934 -0.2246
  832MOL0     C14694  10.468  10.482   6.753 -0.1971  0.3045 -0.4424
  832MOL0     N14695  10.394  10.602   6.779 -0.3981 -0.0404  0.2861
  832MOL0     C14696  10.429  10.728   6.744  0.2715  0.7575 -0.4216
  832MOL0     C14697  10.356  10.817   6.814  0.0089  0.7155 -0.3774
  832MOL0     C14698  10.389  10.963   6.822 -0.7580  0.0970  0.4044
  832MOL0     C14699  10.346  11.018   6.690  0.4650  0.0234  0.4739
  832MOL0     C14700  10.192  10.993   6.661  0.2087  0.2777  0.2171
  832MOL0     C14701  10.091  11.050   6.761 -0.0847  0.0341 -0.1645
  832MOL0     O14702   9.961  11.072   6.695  0.6407  0.8781  0.1987
  832MOL0     C14703   9.877  10.966   6.657  0.6441 -0.7984 -0.1307
  832MOL0     C14704   9.888  10.833   6.698 -0.8645 -0.4086  0.2243
  832MOL0     C14705   9.802  10.737   6.652 -0.1416 -0.3448 -0.1617
  832MOL0     C14706   9.828  10.598   6.692  0.2520  0.2555  0.7442
  832MOL0     C14707   9.684  10.780   6.583  0.3371 -0.7377  0.0640
  832MOL0     C14708   9.564  10.706   6.552 -0.0649  0.1692 -0.4997
  832MOL0     O14709   9.497  10.741   6.439  0.2922 -0.8112 -0.0050
  832MOL0     C14710   9.371  10.709   6.402 -0.6539  0.0950  0.6274
  832MOL0     C14711   9.273  10.636   6.469 -0.2402 -1.1404  0.0443
  832MOL0     C14712   9.147  10.614   6.419  0.5141  0.3036 -0.4136
  832MOL0     C14713   9.095  10.685   6.307 -0.1834 -0.1629  1.0077
  832MOL0     O14714   8.965  10.668   6.274  0.0521  0.2205  0.3426
  832MOL0     C14715   8.926  10.694   6.141 -0.0495  0.1911  0.2917
  832MOL0     C14716   8.796  10.615   6.108  0.2268  0.3542  0.2870
  832MOL0     C14717   8.682  10.692   6.167  0.3375 -0.1508  0.6784
  832MOL0     C14718   8.547  10.626   6.165 -0.3223 -0.3801 -0.1304
  832MOL0     C14719   8.436  10.712   6.202  0.3394 -0.2867  0.7577
  832MOL0     C14720   8.300  10.642   6.237  0.2710 -0.3027  0.7854
  832MOL0     C14721   8.192  10.750   6.265  0.3273 -0.2944  0.3630
  832MOL0     C14722   8.059  10.706   6.328  0.0179  0.2200 -0.2359
  832MOL0    Cl14723   8.028  10.533   6.277  0.3276 -0.6137 -0.0762
  832MOL0     C14724   9.188  10.765   6.241 -0.5233  0.1533  0.7945
  832MOL0     C14725   9.322  10.767   6.280  0.0948 -0.0112 -0.1750
  832MOL0     O14726   9.521  10.625   6.636 -0.1801 -0.3104 -0.2883
  832MOL0     C14727   9.675  10.915   6.547  0.0812 -0.6688  0.9494
  832MOL0     C14728   9.770  11.007   6.584 -0.2633  0.0431 -1.0115
  832MOL0     N14729  10.271  10.742   6.889  0.0262  0.2954  0.4091
  832MOL0     N14730  10.302  10.615   6.875 -0.1425  0.2575  0.7704
  832MOL0     C14731   9.845  10.002   6.206 -0.4545 -1.0786  0.3083
  832MOL0     C14732   9.706   9.994   6.222 -0.2141  0.1803 -0.2199
  832MOL0     C14733   9.269   9.944   6.073 -0.1225  0.6766  0.2278
  832MOL0     C14734   9.223   9.922   6.210 -0.1629  0.1769 -0.1878
  832MOL0     C14735   9.086   9.902   6.243 -0.0184 -0.4631 -1.4016
  832MOL0     C14736   8.989   9.901   6.144 -0.8474 -0.7663  0.7380
  832MOL0     O14737   8.861   9.876   6.194 -0.1995  0.4965 -0.7130
  832MOL0     C14738   8.760   9.857   6.090  0.0446 -0.3576 -0.0505
  832MOL0     C14739   8.627   9.869   6.158 -0.3459 -0.4921 -0.5285
  832MOL0     C14740   8.512   9.847   6.058 -0.2228 -0.2319  0.2188
  832MOL0     C14741   8.376   9.882   6.118  0.5249  0.3353  0.3881
  832MOL0     C14742   8.282   9.830   6.021  0.3281 -0.3377 -0.2533
  832MOL0     C14743   8.198   9.785   5.947  0.0850 -0.1537 -0.0438
  832MOL0     C14744   9.034   9.934   6.012  0.6190 -0.2224 -1.0603
  832MOL0     C14745   9.171   9.954   5.977  0.6988 -0.3135 -0.1117
  832MOL0     C14746   9.192   9.996   5.836 -0.2084  0.0306  0.3345
  832MOL0     H14747   9.599  10.129   5.938 -0.0067  3.0278  0.9275
  832MOL0     H14748   9.853  10.187   5.919 -1.9130  0.5574 -1.6208
  832MOL0     H14749   9.986  10.293   6.096 -1.5741 -2.5932 -1.1862
  832MOL0     H14750  10.108  10.243   5.993 -3.8833  1.5935 -1.1366
  832MOL0     H14751  10.269  10.220   6.173  0.7728  0.5509  0.2978
  832MOL0     H14752  10.178  10.368   6.201 -1.8765 -0.4675 -1.7779
  832MOL0     H14753  10.041  10.223   6.371 -0.0974 -0.4198  0.5962
  832MOL0     H14754  10.163  10.105   6.354 -1.5346 -0.3009  0.2931
  832MOL0     H14755  10.347  10.253   6.414  0.6671  0.1211  1.2903
  832MOL0     H14756  10.228  10.387   6.412 -2.8668 -0.2867  0.3924
  832MOL0     H14757  10.235  10.153   6.612  0.0063 -0.5138  0.1157
  832MOL0     H14758  10.095  10.253   6.565  0.6542  1.8512 -1.3694
  832MOL0     H14759  10.206  10.461   6.660  1.1325  1.4461  1.2441
  832MOL0     H14760  10.238  10.338   6.773 -0.4219  0.3991 -0.6135
  832MOL0     H14761  10.407  10.474   6.565  0.7765 -1.5511 -1.3087
  832MOL0     H14762  10.457  10.314   6.621  1.8142  0.5714 -0.0883
  832MOL0     H14763  10.475  10.417   6.840  0.5188 -1.6455 -1.8758
  832MOL0     H14764  10.568  10.512   6.719  0.3218  0.6589  1.3143
  832MOL0     H14765  10.508  10.759   6.676  1.4926 -0.8916  0.1860
  832MOL0     H14766  10.497  10.974   6.835 -0.6393  1.2251 -1.3161
  832MOL0     H14767  10.332  10.996   6.909 -1.6157 -1.8300  0.6326
  832MOL0     H14768  10.365  11.125   6.699 -3.6852  0.9453  0.3981
  832MOL0     H14769  10.406  10.972   6.611  1.2650  1.1395  0.4184
  832MOL0     H14770  10.159  11.033   6.565 -2.7494 -0.6983  0.7180
  832MOL0     H14771  10.181  10.884   6.649  2.9323  0.0909 -1.7262
  832MOL0     H14772  10.088  10.991   6.854 -0.5417  1.6988  0.9226
  832MOL0     H14773  10.128  11.148   6.794 -2.1160  0.3787  1.3225
  832MOL0     H14774   9.961  10.809   6.775  0.8449  0.3840 -1.0680
  832MOL0     H14775   9.778  10.522   6.631 -0.3153 -0.6858  2.3306
  832MOL0     H14776   9.775  10.589   6.788 -3.0709 -0.8371 -1.0153
  832MOL0     H14777   9.936  10.582   6.696  0.5497  2.1611  1.1338
  832MOL0     H14778   9.294  10.586   6.563  3.9364  0.3734  0.1066
  832MOL0     H14779   9.076  10.552   6.473 -0.8922  0.0607 -2.4194
  832MOL0     H14780   8.904  10.801   6.130 -1.3387 -0.0361  0.4808
  832MOL0     H14781   8.999  10.659   6.067  0.4986 -0.4500  1.1258
  832MOL0     H14782   8.795  10.603   5.999  0.2009 -1.0413  0.4300
  832MOL0     H14783   8.805  10.521   6.163  0.9406  2.1838  3.5788
  832MOL0     H14784   8.665  10.779   6.103 -0.2911  0.1970  1.2907
  832MOL0     H14785   8.697  10.715   6.273 -1.0725  0.3957  0.7921
  832MOL0     H14786   8.543  10.533   6.223 -1.0423 -0.5643 -0.4552
  832MOL0     H14787   8.519  10.605   6.061  1.4550  1.8193 -1.1521
  832MOL0     H14788   8.468  10.771   6.288  0.7482 -0.5660  0.7973
  832MOL0     H14789   8.409  10.778   6.119 -1.2443 -2.5353 -0.6490
  832MOL0     H14790   8.318  10.585   6.328  3.6319  0.5895  0.8186
  832MOL0     H14791   8.266  10.577   6.156 -1.4591 -2.1569  2.8787
  832MOL0     H14792   8.173  10.809   6.175 -1.4752  2.0959  2.1726
  832MOL0     H14793   8.231  10.834   6.323  0.9190 -0.2337 -0.1141
  832MOL0     H14794   7.979  10.774   6.300  1.6213  2.1396 -0.3282
  832MOL0     H14795   8.064  10.700   6.437 -0.6707 -0.6746 -0.2311
  832MOL0     H14796   9.162  10.812   6.147  0.1930  0.4370  0.7302
  832MOL0     H14797   9.385  10.821   6.210  0.2526 -1.2486 -1.0164
  832MOL0     H14798   9.584  10.947   6.499 -0.6772 -3.5854  0.2152
  832MOL0     H14799   9.749  11.114   6.581 -0.7733  0.1076  1.6191
  832MOL0     H14800   9.917   9.967   6.279  0.5125  1.3733  0.6389
  832MOL0     H14801   9.666   9.948   6.311 -0.5411  0.7397 -0.0706
  832MOL0     H14802   9.309   9.924   6.277 -0.1093 -1.2547 -0.1776
  832MOL0     H14803   9.050   9.891   6.344 -1.5990 -0.7243 -1.9751
  832MOL0     H14804   8.767   9.945   6.026 -1.7750  0.6867  1.0825
  832MOL0     H14805   8.767   9.764   6.034  2.1195 -1.6514  2.1811
  832MOL0     H14806   8.613   9.975   6.184 -3.0748 -1.1666  1.2167
  832MOL0     H14807   8.601   9.808   6.245  0.3977  1.9814  1.5413
  832MOL0     H14808   8.527   9.926   5.983 -2.6222  1.5845  1.5397
  832MOL0     H14809   8.516   9.752   6.003  0.4776 -0.7717  1.1759
  832MOL0     H14810   8.360   9.990   6.125 -3.5180 -0.0250 -0.7726
  832MOL0     H14811   8.362   9.835   6.216 -0.7096  0.5857  0.3426
  832MOL0     H14812   8.129   9.743   5.877  1.6169 -2.1759 -0.4705
  832MOL0     H14813   8.964   9.950   5.931  1.6807  1.1642 -1.7488
  832MOL0     H14814   9.104  10.038   5.787  0.9507  1.2551 -0.8050
  832MOL0     H14815   9.276  10.065   5.826 -0.8653  0.8510  0.4535
  832MOL0     H14816   9.215   9.908   5.775 -1.8944  0.2843 -0.7212
  833MOL0     O14817   8.601   2.861   6.617  0.6909 -0.0960 -0.0349
  833MOL0     C14818   8.565   2.955   6.539  0.6819 -0.4830 -0.3248
  833MOL0     O14819   8.655   3.039   6.468  0.6987 -0.0532 -0.0024
  833MOL0     C14820   8.787   3.032   6.507  0.5280 -0.4356  0.4313
  833MOL0     C14821   8.890   3.024   6.409 -0.0913 -0.8380  0.1565
  833MOL0     C14822   9.024   3.016   6.436 -0.0655  0.2593 -1.1116
  833MOL0     C14823   9.070   3.028   6.568  0.0684  0.7293 -0.8362
  833MOL0     O14824   9.206   3.024   6.594 -0.0480  0.1935 -0.6267
  833MOL0     C14825   9.265   3.054   6.717 -0.2901 -0.1599  0.7428
  833MOL0     C14826   9.415   3.054   6.720  0.4382 -0.3397  0.4010
  833MOL0     C14827   9.480   3.128   6.600  0.2832  0.1327  0.3439
  833MOL0     C14828   9.501   3.036   6.483  0.0434  0.3613  0.1578
  833MOL0     C14829   9.609   3.101   6.392  0.0680  0.5259  0.0359
  833MOL0     C14830   9.533   3.184   6.278  0.3424 -0.2350 -0.1098
  833MOL0     C14831   9.624   3.290   6.228 -0.7856 -0.5602 -0.0133
  833MOL0     C14832   9.758   3.227   6.168 -0.0174 -0.4530 -0.5963
  833MOL0     N14833   9.819   3.324   6.072 -0.8261 -0.5593  0.4536
  833MOL0     C14834   9.916   3.417   6.101  0.6268 -0.3760 -0.1412
  833MOL0     C14835   9.967   3.457   5.985  0.3793  0.7245 -0.2564
  833MOL0     C14836  10.056   3.573   5.975 -0.0214  0.0325 -0.3630
  833MOL0     C14837  10.194   3.515   5.953 -0.1294 -0.1182  1.6384
  833MOL0     C14838  10.288   3.619   5.908 -0.6122 -0.3600  0.2060
  833MOL0     C14839  10.423   3.568   5.864  0.7171  0.0818  0.3292
  833MOL0     O14840  10.512   3.677   5.852  0.2333  0.3641  0.2291
  833MOL0     C14841  10.640   3.653   5.806 -0.0058  0.4558 -0.1105
  833MOL0     C14842  10.712   3.538   5.839  0.1671 -0.6409 -0.6535
  833MOL0     C14843  10.835   3.505   5.785 -0.8258 -0.7729  0.1596
  833MOL0     C14844  10.903   3.375   5.819 -0.1578  0.5705  0.5309
  833MOL0     C14845  10.901   3.612   5.705 -0.5756  0.0588 -0.5137
  833MOL0     C14846  11.035   3.601   5.626  0.1206  0.1304 -0.5666
  833MOL0     O14847  11.088   3.478   5.617 -0.4613  0.6960 -1.1935
  833MOL0     C14848  11.223   3.465   5.587  0.8832 -0.2650  0.9740
  833MOL0     C14849  11.276   3.428   5.464 -0.3736 -0.9439 -0.0317
  833MOL0     C14850  11.411   3.433   5.431 -0.0166 -0.6375  0.6078
  833MOL0     C14851  11.503   3.471   5.531  0.0619  0.7244  0.0881
  833MOL0     O14852  11.641   3.468   5.531  0.4919 -0.0406  0.7081
  833MOL0     C14853  11.709   3.461   5.404  0.3415  0.2627 -0.5886
  833MOL0     C14854  11.848   3.497   5.431 -1.0748  0.7884 -0.1045
  833MOL0     C14855  11.875   3.648   5.418 -0.6854 -0.1808 -0.7204
  833MOL0     C14856  12.028   3.669   5.423 -0.4006 -0.5997 -0.4899
  833MOL0     C14857  12.042   3.818   5.413 -0.0399  0.0585 -0.2391
  833MOL0     C14858  12.178   3.870   5.428  0.6039 -0.2663 -0.0393
  833MOL0     C14859  12.262   3.841   5.305 -0.4596 -0.3262 -0.4431
  833MOL0     C14860  12.378   3.946   5.299  0.2586  0.7330  0.0490
  833MOL0    Cl14861  12.482   3.948   5.446 -0.1994 -0.3966 -0.4806
  833MOL0     C14862  11.455   3.499   5.662  0.3641 -0.6647 -0.3918
  833MOL0     C14863  11.312   3.503   5.687  0.1346  0.1611  0.7401
  833MOL0     O14864  11.086   3.700   5.581 -0.8778  0.1512  0.4439
  833MOL0     C14865  10.830   3.735   5.693 -0.4409 -0.2499 -0.0965
  833MOL0     C14866  10.700   3.743   5.733  0.5691 -0.8301  0.0377
  833MOL0     N14867   9.903   3.393   5.878 -0.5296  0.0430 -0.2839
  833MOL0     N14868   9.812   3.317   5.932  0.2636 -0.0479  0.0741
  833MOL0     C14869   8.970   3.051   6.666  0.2855  0.7581  0.2644
  833MOL0     C14870   8.835   3.042   6.638  0.9835  0.4157 -0.7930
  833MOL0     C14871   8.422   2.960   6.499 -0.7945  0.5619 -0.4706
  833MOL0     C14872   8.402   2.976   6.358 -0.0710 -0.4930 -0.3927
  833MOL0     C14873   8.268   2.967   6.309  0.2620  0.1319  0.1795
  833MOL0     C14874   8.154   2.949   6.403  0.0720  0.2901 -0.0505
  833MOL0     O14875   8.028   2.942   6.349 -0.3533  0.2089 -0.1749
  833MOL0     C14876   7.990   2.968   6.211  0.4338 -0.3861 -0.2974
  833MOL0     C14877   7.843   2.929   6.189 -0.6482  0.0742 -0.8872
  833MOL0     C14878   7.757   3.016   6.285 -1.2808 -0.1009 -0.0986
  833MOL0     C14879   7.607   3.024   6.248 -0.3634  0.0425  0.0912
  833MOL0     C14880   7.537   2.902   6.293  0.1483  0.1192  0.2107
  833MOL0     C14881   7.460   2.813   6.322 -0.2682  0.4290  0.4348
  833MOL0     C14882   8.186   2.943   6.536  0.9781  0.2769 -1.0034
  833MOL0     C14883   8.312   2.942   6.589 -0.7138  0.1514 -0.5040
  833MOL0     C14884   8.317   2.907   6.732 -0.8246 -0.7674 -0.1134
  833MOL0     H14885   8.862   3.023   6.305 -0.6433  0.5738  0.2740
  833MOL0     H14886   9.097   3.001   6.358  0.7909 -1.9408  0.0166
  833MOL0     H14887   9.238   2.966   6.776  2.9608 -2.5149 -0.9325
  833MOL0     H14888   9.224   3.149   6.753  2.5277  2.0747 -1.4366
  833MOL0     H14889   9.442   3.092   6.819  1.2901  2.3771 -0.7635
  833MOL0     H14890   9.451   2.952   6.707  0.2136 -0.2252 -1.4109
  833MOL0     H14891   9.419   3.213   6.569  1.7182  0.4180 -1.8747
  833MOL0     H14892   9.578   3.168   6.629  1.5676 -0.5387 -2.7566
  833MOL0     H14893   9.553   2.952   6.530  0.6146  1.2521  1.1459
  833MOL0     H14894   9.408   3.002   6.435 -0.5971  2.1874  0.0534
  833MOL0     H14895   9.668   3.026   6.338  0.1057  0.4911  0.1254
  833MOL0     H14896   9.681   3.160   6.448  1.2471 -1.3266  0.5531
  833MOL0     H14897   9.503   3.114   6.200  1.6813 -0.0333 -0.8352
  833MOL0     H14898   9.445   3.221   6.332 -0.0836 -1.8651  0.3939
  833MOL0     H14899   9.658   3.362   6.303  1.8976 -1.6983 -0.0527
  833MOL0     H14900   9.573   3.346   6.149 -1.3633 -0.8955  0.1158
  833MOL0     H14901   9.822   3.190   6.248  1.5217 -0.9353 -1.9982
  833MOL0     H14902   9.735   3.142   6.103  1.3208 -0.1263 -1.5267
  833MOL0     H14903   9.928   3.466   6.197  0.3730 -1.1349  0.2854
  833MOL0     H14904  10.075   3.629   6.067 -0.3301 -0.4397 -0.0040
  833MOL0     H14905  10.015   3.629   5.891 -4.1546  0.0360  1.3994
  833MOL0     H14906  10.229   3.471   6.047  0.4985  0.0606  1.4981
  833MOL0     H14907  10.184   3.433   5.880 -1.2196  0.6231  0.9196
  833MOL0     H14908  10.250   3.678   5.824 -0.0024  0.5586  0.5558
  833MOL0     H14909  10.312   3.696   5.983 -0.4910  0.3657 -0.5682
  833MOL0     H14910  10.444   3.492   5.940 -0.9820  1.8904  2.7975
  833MOL0     H14911  10.416   3.517   5.768  0.4701  1.3213 -0.3356
  833MOL0     H14912  10.667   3.473   5.913  2.0767 -1.0163  0.2399
  833MOL0     H14913  10.861   3.324   5.906 -0.0745 -0.0284  0.2252
  833MOL0     H14914  11.003   3.399   5.855 -0.1477 -0.0490  0.9344
  833MOL0     H14915  10.915   3.308   5.733 -1.6859  1.5142 -0.4631
  833MOL0     H14916  11.203   3.402   5.387 -1.5539 -2.6678  1.5673
  833MOL0     H14917  11.446   3.415   5.330  1.4169 -0.9921  1.1426
  833MOL0     H14918  11.693   3.365   5.353  2.1197 -0.0270 -0.6829
  833MOL0     H14919  11.660   3.535   5.341  0.2967 -0.3515 -1.2868
  833MOL0     H14920  11.887   3.459   5.526  0.0677  2.0723 -0.0237
  833MOL0     H14921  11.904   3.442   5.356 -1.1811 -0.1629  0.4977
  833MOL0     H14922  11.816   3.686   5.502  0.1498 -0.1353 -0.1381
  833MOL0     H14923  11.839   3.685   5.321 -1.8396 -1.3925 -0.7872
  833MOL0     H14924  12.074   3.621   5.336 -0.0039 -0.0991 -0.5652
  833MOL0     H14925  12.067   3.638   5.520  2.7813  1.4013 -0.9568
  833MOL0     H14926  12.005   3.857   5.318  0.6376  0.6393 -0.2727
  833MOL0     H14927  11.995   3.867   5.498  0.0846 -1.9727  1.0727
  833MOL0     H14928  12.224   3.815   5.510 -0.7891  1.0828  1.7151
  833MOL0     H14929  12.166   3.979   5.432 -0.8391 -0.3944 -0.0450
  833MOL0     H14930  12.204   3.850   5.213 -1.5122 -2.0570  0.0126
  833MOL0     H14931  12.311   3.743   5.310  0.7835  0.2900 -0.1931
  833MOL0     H14932  12.328   4.042   5.281  2.1652  1.8503  0.3845
  833MOL0     H14933  12.436   3.931   5.208 -0.1871 -1.2176  0.0574
  833MOL0     H14934  11.523   3.515   5.746  1.1023 -0.7795 -0.9584
  833MOL0     H14935  11.266   3.526   5.782  0.1240  3.1430  0.1330
  833MOL0     H14936  10.878   3.821   5.648 -2.0194 -0.1344 -1.6347
  833MOL0     H14937  10.646   3.836   5.722  1.0608 -0.5452  0.0227
  833MOL0     H14938   9.003   3.070   6.767  3.1706  3.0279 -0.9359
  833MOL0     H14939   8.763   3.061   6.716 -0.3618 -3.8485 -0.7803
  833MOL0     H14940   8.478   2.992   6.283  0.1665  0.1295 -0.0178
  833MOL0     H14941   8.263   2.975   6.201 -0.8119  3.4389  0.3758
  833MOL0     H14942   8.006   3.071   6.177  1.5815 -0.6199 -0.5132
  833MOL0     H14943   8.045   2.913   6.135  1.1649  1.7707 -1.4157
  833MOL0     H14944   7.843   2.825   6.220  4.0401  1.1028  4.0458
  833MOL0     H14945   7.822   2.949   6.083  1.4629  0.5784 -1.2573
  833MOL0     H14946   7.764   2.967   6.383  0.2096 -0.2335 -0.2446
  833MOL0     H14947   7.798   3.117   6.286 -1.7818  0.1084  0.9284
  833MOL0     H14948   7.580   3.044   6.144  2.5005 -1.0589 -0.9677
  833MOL0     H14949   7.562   3.103   6.308 -0.9390  0.5250 -0.9484
  833MOL0     H14950   7.393   2.735   6.351  0.1960 -0.3159 -0.4410
  833MOL0     H14951   8.107   2.941   6.611  0.1690 -1.2922 -1.8517
  833MOL0     H14952   8.364   2.808   6.730  1.5551  0.2914 -0.3904
  833MOL0     H14953   8.378   2.982   6.783 -3.2250  0.6063  0.9236
  833MOL0     H14954   8.217   2.911   6.776 -0.8444  0.8069 -0.2460
  834MOL0     O14955   5.696   9.662   9.833 -0.5758 -0.4061  0.2378
  834MOL0     C14956   5.672   9.693   9.717  0.4088  0.0911  0.0786
  834MOL0     O14957   5.761   9.668   9.609  0.0691  0.0260 -0.4113
  834MOL0     C14958   5.892   9.641   9.643  0.0863 -0.3382  0.4610
  834MOL0     C14959   5.955   9.523   9.609  0.4600 -0.4138 -0.8318
  834MOL0     C14960   6.089   9.501   9.634 -0.1733  0.2040  0.5406
  834MOL0     C14961   6.168   9.599   9.702 -0.2303 -0.3716  0.3556
  834MOL0     O14962   6.291   9.559   9.745  0.0338  0.6467 -0.2168
  834MOL0     C14963   6.392   9.659   9.773  0.7815  0.2482 -0.0482
  834MOL0     C14964   6.522   9.591   9.813  0.7276  0.1184  0.8971
  834MOL0     C14965   6.616   9.676   9.900 -0.3553  0.0214  0.1724
  834MOL0     C14966   6.554   9.702  10.045 -0.0246 -0.6680  0.7071
  834MOL0     C14967   6.651   9.722  10.166  0.7822  0.3233  0.1824
  834MOL0     C14968   6.763   9.812  10.140 -0.6180  0.4659  1.5004
  834MOL0     C14969   6.858   9.821  10.267  0.0100  0.5191  0.4977
  834MOL0     C14970   6.957   9.708  10.272 -0.1609 -0.2797  0.5273
  834MOL0     N14971   7.048   9.692  10.160 -0.8341 -0.7250  0.3724
  834MOL0     C14972   7.128   9.790  10.107 -0.0284  0.3760  0.2488
  834MOL0     C14973   7.223   9.727  10.031  0.4503 -0.3049  0.8950
  834MOL0     C14974   7.324   9.802   9.952 -0.0059  0.1704 -0.4951
  834MOL0     C14975   7.256   9.862   9.835 -0.7541 -0.1547  0.4115
  834MOL0     C14976   7.355   9.929   9.730 -0.5542 -0.4214  0.6983
  834MOL0     C14977   7.424  10.052   9.783  0.1059  0.1169 -0.4300
  834MOL0     O14978   7.518  10.021   9.887  0.0536  0.3647 -0.0435
  834MOL0     C14979   7.648   9.989   9.862  0.5372  0.3247  0.3346
  834MOL0     C14980   7.730   9.960   9.970  0.6686  0.7421  0.3265
  834MOL0     C14981   7.860   9.913   9.956  0.4580 -0.8432 -0.1715
  834MOL0     C14982   7.927   9.889  10.089  0.3426  0.1473  0.2206
  834MOL0     C14983   7.921   9.903   9.829 -0.7136  0.3373  0.1163
  834MOL0     C14984   8.053   9.846   9.810 -0.2755  0.1445 -0.1452
  834MOL0     O14985   8.124   9.813   9.921 -0.0782 -0.1983 -0.2924
  834MOL0     C14986   8.266   9.822   9.931 -0.2878  0.3225  0.5054
  834MOL0     C14987   8.341   9.897   9.837 -0.6634 -0.1177 -0.5895
  834MOL0     C14988   8.480   9.915   9.857  1.2631  0.1250  1.2803
  834MOL0     C14989   8.546   9.870   9.972  0.1376  1.0976 -0.3634
  834MOL0     O14990   8.681   9.896   9.973  0.5855 -0.4247 -0.2126
  834MOL0     C14991   8.760   9.866  10.091 -0.9973  0.3217 -0.4551
  834MOL0     C14992   8.889   9.791  10.047  0.2560  0.2839  0.2445
  834MOL0     C14993   8.991   9.753  10.155 -0.2284 -0.2482  0.2107
  834MOL0     C14994   9.117   9.682  10.107 -0.4196  0.7098  0.4065
  834MOL0     C14995   9.220   9.657  10.228 -0.0248  0.2939 -0.4821
  834MOL0     C14996   9.350   9.607  10.188 -0.4680  0.2532 -0.2945
  834MOL0     C14997   9.446   9.648  10.299  0.2803  0.3248  0.2762
  834MOL0     C14998   9.589   9.613  10.258  0.9563 -0.2314  0.1544
  834MOL0    Cl14999   9.616   9.430  10.257  0.2285  0.0406 -0.2908
  834MOL0     C15000   8.468   9.801  10.069 -0.0862 -0.1003  0.0878
  834MOL0     C15001   8.331   9.769  10.049 -0.4932  0.7417 -0.6022
  834MOL0     O15002   8.085   9.821   9.699 -0.5711 -0.2029  0.7835
  834MOL0     C15003   7.838   9.941   9.718  0.1809 -0.3501  0.0076
  834MOL0     C15004   7.707   9.977   9.737  0.0583  0.6153  0.5169
  834MOL0     N15005   7.197   9.594  10.037  0.4262 -0.4156 -0.0199
  834MOL0     N15006   7.095   9.576  10.117 -0.3484  0.6785 -0.3119
  834MOL0     C15007   6.109   9.726   9.732 -0.1387  0.1534 -0.7973
  834MOL0     C15008   5.971   9.743   9.706  0.5916  0.4508  0.2872
  834MOL0     C15009   5.544   9.772   9.681 -0.1054 -0.3260  0.6173
  834MOL0     C15010   5.535   9.812   9.546 -0.0309 -0.3203  0.1132
  834MOL0     C15011   5.433   9.890   9.496  0.8322 -0.5254 -0.0156
  834MOL0     C15012   5.329   9.933   9.577 -0.9361 -0.2235  0.8996
  834MOL0     O15013   5.218   9.999   9.527  0.0084 -0.0482  0.8044
  834MOL0     C15014   5.215  10.063   9.400 -0.5167 -0.5552  0.7302
  834MOL0     C15015   5.332  10.168   9.381 -0.7265  0.7478  0.8982
  834MOL0     C15016   5.333  10.278   9.492 -0.2410 -0.0222 -0.1149
  834MOL0     C15017   5.453  10.374   9.466 -0.2792  0.6004 -0.6698
  834MOL0     C15018   5.460  10.492   9.559  0.0784 -0.2908  0.8519
  834MOL0     C15019   5.458  10.586   9.640  0.5205 -0.2565  1.2443
  834MOL0     C15020   5.325   9.895   9.707 -0.1789 -0.3304  0.4803
  834MOL0     C15021   5.434   9.815   9.764  0.3743 -0.2858  0.1286
  834MOL0     C15022   5.429   9.789   9.912  0.2287 -0.2754  0.7262
  834MOL0     H15023   5.894   9.453   9.553 -0.1675  0.1779 -0.9133
  834MOL0     H15024   6.135   9.404   9.627 -1.7847 -0.8140  2.8509
  834MOL0     H15025   6.354   9.720   9.855 -1.8243  0.3198 -1.2280
  834MOL0     H15026   6.394   9.732   9.692 -1.4046 -1.8759 -2.1878
  834MOL0     H15027   6.496   9.496   9.860 -1.5583  0.2464  0.0023
  834MOL0     H15028   6.577   9.566   9.721  2.6657  0.6039  1.8691
  834MOL0     H15029   6.710   9.621   9.891 -0.8976 -0.6705 -2.1552
  834MOL0     H15030   6.632   9.773   9.852 -4.2872  0.7356 -0.0478
  834MOL0     H15031   6.493   9.791  10.033 -2.1691 -2.0778  0.6490
  834MOL0     H15032   6.487   9.619  10.070 -0.0980 -0.3379  1.6113
  834MOL0     H15033   6.700   9.631  10.200 -3.9965 -1.9176  1.8865
  834MOL0     H15034   6.591   9.764  10.247  2.1834  2.3090  0.2806
  834MOL0     H15035   6.826   9.773  10.060 -0.4152  2.4601  0.6121
  834MOL0     H15036   6.721   9.908  10.107  0.9920  0.9357  0.7142
  834MOL0     H15037   6.797   9.818  10.358 -1.1566  0.8135 -0.2439
  834MOL0     H15038   6.915   9.914  10.271  0.1005  0.5098 -0.4864
  834MOL0     H15039   7.032   9.721  10.351  2.2815  3.3252 -2.0100
  834MOL0     H15040   6.904   9.614  10.288 -0.3098 -0.3429 -0.3011
  834MOL0     H15041   7.121   9.898  10.120 -1.3950  0.5724 -1.6231
  834MOL0     H15042   7.401   9.730   9.924  0.5396  0.0859  1.1392
  834MOL0     H15043   7.369   9.879  10.015  1.1080  0.6356 -1.7947
  834MOL0     H15044   7.207   9.777   9.787 -1.1402  0.0800  0.3942
  834MOL0     H15045   7.187   9.941   9.863 -0.7803  0.5341 -1.5144
  834MOL0     H15046   7.439   9.867   9.698  0.0602  0.1509  1.1934
  834MOL0     H15047   7.302   9.969   9.643  1.6248 -1.9233 -1.4589
  834MOL0     H15048   7.471  10.108   9.701  1.0704  0.1536  0.1325
  834MOL0     H15049   7.345  10.114   9.826  2.4452  2.0262  1.3889
  834MOL0     H15050   7.687   9.956  10.070 -1.4512  0.0435 -0.5728
  834MOL0     H15051   7.860   9.914  10.172  1.1562  1.3701  0.5350
  834MOL0     H15052   8.015   9.953  10.107  0.2788 -0.6658  4.4290
  834MOL0     H15053   7.965   9.787  10.098 -0.3822  0.0589  3.4979
  834MOL0     H15054   8.308   9.942   9.744 -1.6465  0.0254 -0.1803
  834MOL0     H15055   8.528   9.969   9.776 -1.9789  0.7892 -0.3419
  834MOL0     H15056   8.778   9.960  10.145 -0.2995  0.2351 -0.5288
  834MOL0     H15057   8.716   9.796  10.162  0.5861 -0.2423 -0.0012
  834MOL0     H15058   8.861   9.703   9.988  2.4250 -0.5403  0.3501
  834MOL0     H15059   8.933   9.860   9.975  1.2616  1.0473  1.5516
  834MOL0     H15060   8.944   9.684  10.227 -0.0266 -1.1692 -0.5281
  834MOL0     H15061   9.025   9.837  10.216 -0.7954 -0.9694  1.5783
  834MOL0     H15062   9.161   9.740  10.025 -0.3911 -0.2637 -0.2776
  834MOL0     H15063   9.087   9.586  10.065  0.3837  0.6322 -0.0020
  834MOL0     H15064   9.222   9.753  10.281 -2.3216 -0.3409  0.8914
  834MOL0     H15065   9.187   9.583  10.300  1.6714 -0.4958 -0.4606
  834MOL0     H15066   9.384   9.641  10.090  0.6631  0.2122  0.0670
  834MOL0     H15067   9.343   9.498  10.189  1.1449  0.1211  1.4536
  834MOL0     H15068   9.414   9.593  10.388 -2.1969  2.3754  0.7554
  834MOL0     H15069   9.423   9.752  10.324 -1.8405  0.1870 -0.8642
  834MOL0     H15070   9.660   9.656  10.329 -1.4273  1.1812  1.8634
  834MOL0     H15071   9.603   9.655  10.158  0.1353  0.9522  0.5067
  834MOL0     H15072   8.515   9.781  10.165  0.7991  1.7085  0.0696
  834MOL0     H15073   8.278   9.720  10.130  1.8527 -1.8552 -0.4926
  834MOL0     H15074   7.876   9.929   9.617  0.6050 -1.8797  0.3220
  834MOL0     H15075   7.667  10.005   9.640 -1.2390  2.9575  1.6334
  834MOL0     H15076   6.160   9.798   9.794 -0.0654  1.0671 -1.8960
  834MOL0     H15077   5.924   9.833   9.744  0.6162  0.2212  0.8699
  834MOL0     H15078   5.614   9.790   9.474  1.5161  0.0222  1.6398
  834MOL0     H15079   5.434   9.907   9.389 -1.0864  3.4791  0.4067
  834MOL0     H15080   5.231   9.982   9.329  2.4940  1.8411 -1.6130
  834MOL0     H15081   5.122  10.116   9.383  1.6512  3.3011 -0.2591
  834MOL0     H15082   5.322  10.219   9.284  2.8498  0.8956  0.4580
  834MOL0     H15083   5.430  10.119   9.372 -1.7441 -0.9427 -3.0282
  834MOL0     H15084   5.242  10.339   9.495  0.8243  1.8409 -2.2646
  834MOL0     H15085   5.352  10.234   9.590  0.3652 -1.0225 -0.6621
  834MOL0     H15086   5.443  10.418   9.367  0.6100 -0.8079 -1.4158
  834MOL0     H15087   5.553  10.329   9.467  1.0395  3.3153 -0.9525
  834MOL0     H15088   5.475  10.665   9.711 -0.3922 -0.2886  1.5114
  834MOL0     H15089   5.238   9.922   9.766  1.0760  0.0157  2.2399
  834MOL0     H15090   5.511   9.827   9.974  1.3541 -1.9972  0.3754
  834MOL0     H15091   5.337   9.824   9.960 -0.0128 -0.2759  0.2698
  834MOL0     H15092   5.417   9.681   9.923  1.2592 -0.6203 -1.1952
  835MOL0     O15093   4.139  10.171   6.310 -0.4928  0.0762  0.4141
  835MOL0     C15094   4.069  10.134   6.402  0.1430 -0.1383  0.4782
  835MOL0     O15095   4.091  10.162   6.534 -0.0908 -0.0262 -0.5598
  835MOL0     C15096   4.215  10.221   6.571  0.8710  0.2543  0.3390
  835MOL0     C15097   4.220  10.358   6.590 -0.0360  1.0415 -0.0479
  835MOL0     C15098   4.345  10.420   6.610  0.6064  0.3742  0.3689
  835MOL0     C15099   4.467  10.344   6.611 -0.0885  0.3988  0.3385
  835MOL0     O15100   4.595  10.394   6.632  0.1833  0.1650 -0.2706
  835MOL0     C15101   4.608  10.535   6.655  0.5869 -1.0390 -0.4123
  835MOL0     C15102   4.751  10.562   6.715  0.4071  0.7705  0.6299
  835MOL0     C15103   4.752  10.533   6.868 -0.0391  1.3391  0.7735
  835MOL0     C15104   4.694  10.654   6.941 -0.4648  0.0233 -0.2194
  835MOL0     C15105   4.705  10.646   7.091  0.5865 -0.2744  0.1056
  835MOL0     C15106   4.669  10.786   7.158  0.7197  0.3297 -0.3123
  835MOL0     C15107   4.689  10.778   7.318 -0.3984 -0.5638  0.5771
  835MOL0     C15108   4.697  10.925   7.369 -1.0554  0.0645  0.1420
  835MOL0     N15109   4.669  10.938   7.510  0.0054  0.1041  0.1256
  835MOL0     C15110   4.583  11.030   7.561  0.4526  0.3242 -0.2050
  835MOL0     C15111   4.593  11.008   7.694  0.2259  0.4033 -0.1882
  835MOL0     C15112   4.523  11.083   7.808 -0.2426  0.2929 -0.2770
  835MOL0     C15113   4.607  11.196   7.863 -0.2578  0.0112  0.2084
  835MOL0     C15114   4.582  11.311   7.756  0.5974 -0.0361 -0.2786
  835MOL0     C15115   4.666  11.439   7.799  0.0986 -0.1235  0.5073
  835MOL0     O15116   4.806  11.412   7.806 -0.0898  0.2416  0.2992
  835MOL0     C15117   4.887  11.502   7.753  0.0218 -0.2886  1.1041
  835MOL0     C15118   4.972  11.468   7.649 -1.0278  1.0783  1.0370
  835MOL0     C15119   5.049  11.559   7.571  0.4654  0.5952 -0.0428
  835MOL0     C15120   5.106  11.509   7.440 -0.2540 -0.0559  0.1421
  835MOL0     C15121   5.046  11.690   7.611 -0.6698  0.7564 -0.3660
  835MOL0     C15122   5.123  11.800   7.544  0.0701 -1.3910 -0.3025
  835MOL0     O15123   5.127  11.918   7.613  0.4006 -0.0703  0.6965
  835MOL0     C15124   5.198  12.021   7.562 -0.3743 -0.9014  0.9944
  835MOL0     C15125   5.144  12.103   7.457  0.9609  0.5930 -0.6206
  835MOL0     C15126   5.227  12.207   7.406  0.0992  0.1972 -0.9024
  835MOL0     C15127   5.353  12.234   7.459  0.8717  0.1278 -0.8367
  835MOL0     O15128   5.423  12.332   7.384  0.3986  0.3833  0.3237
  835MOL0     C15129   5.564  12.339   7.422  0.2958  1.0413  0.0783
  835MOL0     C15130   5.625  12.445   7.326 -0.2179  0.1295  0.2417
  835MOL0     C15131   5.781  12.468   7.352  0.2557  0.1491 -0.5653
  835MOL0     C15132   5.840  12.562   7.251 -0.2142 -0.0744  0.9629
  835MOL0     C15133   5.993  12.584   7.282 -0.1744  0.2876 -0.6656
  835MOL0     C15134   6.060  12.691   7.183 -0.5984 -0.5655 -0.0964
  835MOL0     C15135   6.052  12.654   7.035 -0.2075  0.1454  0.2279
  835MOL0     C15136   6.021  12.777   6.946 -0.4040 -0.3907  0.3575
  835MOL0    Cl15137   6.058  12.730   6.775  0.3086  0.5487 -0.0929
  835MOL0     C15138   5.407  12.159   7.566 -0.5174  0.3143  0.6776
  835MOL0     C15139   5.324  12.054   7.615 -0.1720 -0.4620  0.6308
  835MOL0     O15140   5.170  11.789   7.431 -0.4550  0.6908 -0.2684
  835MOL0     C15141   4.975  11.724   7.730  0.1678 -0.5705 -0.1034
  835MOL0     C15142   4.896  11.637   7.803  0.3701 -0.4566 -0.0270
  835MOL0     N15143   4.687  10.909   7.725 -0.4045 -0.0806  0.4765
  835MOL0     N15144   4.735  10.873   7.611 -0.6631  0.0293 -0.0139
  835MOL0     C15145   4.454  10.203   6.600 -0.3474  0.8593  1.0450
  835MOL0     C15146   4.325  10.139   6.580  0.0425 -0.1431  0.0290
  835MOL0     C15147   3.943  10.059   6.370  0.6441  0.1596 -0.5867
  835MOL0     C15148   3.852  10.021   6.467 -0.5486 -0.3633  0.2540
  835MOL0     C15149   3.727   9.960   6.442  0.0721 -0.1135  0.5810
  835MOL0     C15150   3.684   9.943   6.312 -0.5437  0.3916 -0.1907
  835MOL0     O15151   3.556   9.923   6.265  0.3132  0.5349 -0.7856
  835MOL0     C15152   3.454   9.941   6.348 -0.6088 -0.9007 -0.1732
  835MOL0     C15153   3.326   9.950   6.266  0.0068 -0.2324  0.2450
  835MOL0     C15154   3.325  10.070   6.165 -0.5492  1.2995 -0.1279
  835MOL0     C15155   3.210  10.048   6.067 -0.0796 -0.3446  0.5701
  835MOL0     C15156   3.079  10.079   6.127 -0.4673 -0.0360  0.7627
  835MOL0     C15157   2.976  10.103   6.193  0.8940  0.8478  0.6299
  835MOL0     C15158   3.777   9.963   6.211 -0.7354  0.0596 -0.5310
  835MOL0     C15159   3.904  10.016   6.240  0.1986 -0.3241  0.0450
  835MOL0     C15160   3.987  10.032   6.118  0.4013  0.4111  0.2249
  835MOL0     H15161   4.125  10.409   6.578 -1.6973 -1.0866  2.8142
  835MOL0     H15162   4.353  10.528   6.624  2.1701 -0.0555  3.8468
  835MOL0     H15163   4.538  10.582   6.724  1.5565  2.9545 -1.8684
  835MOL0     H15164   4.580  10.592   6.567 -1.6305  0.6890  1.3184
  835MOL0     H15165   4.818  10.493   6.661 -1.9413 -0.3344 -1.0679
  835MOL0     H15166   4.779  10.665   6.694  2.2100  0.0077 -1.0294
  835MOL0     H15167   4.683  10.448   6.878  1.7241 -0.2994 -0.1458
  835MOL0     H15168   4.848  10.503   6.911  0.3431  1.4016 -0.0111
  835MOL0     H15169   4.758  10.734   6.902 -0.4100 -0.3638 -0.9369
  835MOL0     H15170   4.589  10.673   6.918 -0.7666  0.1588  1.2279
  835MOL0     H15171   4.800  10.625   7.140 -0.7699 -0.2683  2.9295
  835MOL0     H15172   4.637  10.571   7.133  0.3747  0.7218  1.6127
  835MOL0     H15173   4.743  10.852   7.113  0.0120  0.4544 -1.3396
  835MOL0     H15174   4.567  10.819   7.134 -0.9069 -2.1094  2.6112
  835MOL0     H15175   4.782  10.725   7.338 -0.6939 -1.2692  0.1368
  835MOL0     H15176   4.606  10.730   7.370 -1.5448  2.2906  1.5707
  835MOL0     H15177   4.797  10.965   7.352 -1.4000  1.8452  1.8939
  835MOL0     H15178   4.622  10.985   7.318 -1.5524 -1.4651 -1.0052
  835MOL0     H15179   4.513  11.100   7.516 -0.1093 -0.8645 -1.2234
  835MOL0     H15180   4.516  11.018   7.896  0.7746 -0.3329 -0.6398
  835MOL0     H15181   4.420  11.116   7.789  0.1200  1.8266  0.3374
  835MOL0     H15182   4.577  11.234   7.961  1.2971 -1.2903  1.2506
  835MOL0     H15183   4.713  11.167   7.859  0.3341  1.8668  1.4895
  835MOL0     H15184   4.597  11.281   7.653  2.3605  4.3878 -1.5488
  835MOL0     H15185   4.474  11.329   7.757 -0.0718 -3.2220 -2.0959
  835MOL0     H15186   4.647  11.515   7.723 -2.2177 -0.5994  0.5385
  835MOL0     H15187   4.628  11.480   7.892  1.7111  0.0846  1.1100
  835MOL0     H15188   4.977  11.363   7.621  0.1431  0.9394  1.6959
  835MOL0     H15189   5.053  11.532   7.348  2.1035 -1.7822 -1.7847
  835MOL0     H15190   5.120  11.400   7.443  0.8680  0.0457 -0.7546
  835MOL0     H15191   5.209  11.545   7.425 -0.8160  1.3181 -0.5796
  835MOL0     H15192   5.046  12.070   7.423  0.2642 -1.9899  3.2386
  835MOL0     H15193   5.188  12.270   7.326  2.1129  1.5425 -0.8820
  835MOL0     H15194   5.587  12.373   7.523  1.3712 -0.3995  0.3572
  835MOL0     H15195   5.616  12.245   7.400 -1.0078 -0.2228  2.0868
  835MOL0     H15196   5.614  12.419   7.220 -1.2001 -1.1401  0.6195
  835MOL0     H15197   5.577  12.539   7.352  0.5760  0.9008 -0.9609
  835MOL0     H15198   5.828  12.370   7.338  1.0970  0.5639 -0.7025
  835MOL0     H15199   5.798  12.512   7.451  0.2414  1.8435 -1.2769
  835MOL0     H15200   5.786  12.655   7.272 -0.4135 -0.4645  2.2638
  835MOL0     H15201   5.824  12.517   7.153 -1.1688  2.7513 -0.2732
  835MOL0     H15202   6.002  12.619   7.386  2.5799  0.4120 -0.8660
  835MOL0     H15203   6.049  12.490   7.280  1.9674  1.1943  3.3784
  835MOL0     H15204   6.168  12.693   7.203 -0.1709 -1.4051 -2.1126
  835MOL0     H15205   6.022  12.792   7.199 -0.7805 -0.0480 -3.1972
  835MOL0     H15206   5.971  12.581   7.027  0.0319 -0.3132  1.6978
  835MOL0     H15207   6.151  12.610   7.018  0.6151  1.3874  1.6240
  835MOL0     H15208   6.077  12.868   6.969  0.2794 -0.7500  0.1395
  835MOL0     H15209   5.916  12.804   6.959 -0.0971 -0.2154  2.8848
  835MOL0     H15210   5.509  12.168   7.601 -0.4348  2.0744  0.1031
  835MOL0     H15211   5.358  11.995   7.699 -1.7873  3.3639  4.3723
  835MOL0     H15212   4.980  11.824   7.773 -2.2504 -0.3593 -0.1938
  835MOL0     H15213   4.831  11.669   7.883 -0.4868 -2.4525  0.1159
  835MOL0     H15214   4.540  10.137   6.612 -1.0120 -0.4783 -1.0796
  835MOL0     H15215   4.314  10.031   6.577  1.9795 -0.3668 -0.3412
  835MOL0     H15216   3.871  10.041   6.572 -0.2407 -1.1777  0.3586
  835MOL0     H15217   3.666   9.930   6.527  0.2567 -0.8973  0.4472
  835MOL0     H15218   3.440   9.856   6.416 -2.1941 -1.7712 -1.5252
  835MOL0     H15219   3.463  10.030   6.412  0.9211 -0.5469 -0.8600
  835MOL0     H15220   3.243   9.963   6.336  1.7313 -0.6058  2.4645
  835MOL0     H15221   3.303   9.859   6.210 -1.1130 -0.3759  0.9060
  835MOL0     H15222   3.315  10.171   6.206  0.4723  2.2375 -2.0648
  835MOL0     H15223   3.419  10.068   6.110 -1.4763  0.3833 -1.7602
  835MOL0     H15224   3.220   9.946   6.029  1.6145 -0.7175  1.8558
  835MOL0     H15225   3.222  10.113   5.980  1.1358  0.0698  1.0187
  835MOL0     H15226   2.885  10.126   6.244  0.4971 -0.1764  0.4121
  835MOL0     H15227   3.751   9.940   6.109 -1.6048 -3.8915  0.4144
  835MOL0     H15228   4.008  10.135   6.089  0.1088  0.0397 -1.3974
  835MOL0     H15229   4.082   9.981   6.133 -0.6589 -1.1520  2.0385
  835MOL0     H15230   3.937   9.995   6.028 -0.9739 -0.6956  1.3961
  836MOL0     O15231   8.809  11.163   4.529 -0.2625  0.5878 -0.0972
  836MOL0     C15232   8.776  11.126   4.642 -0.1976 -0.7108  0.3606
  836MOL0     O15233   8.862  11.095   4.748  0.4075 -0.1882  0.8373
  836MOL0     C15234   8.998  11.087   4.731 -0.6689 -0.1974  0.6774
  836MOL0     C15235   9.088  11.105   4.616 -0.1471  0.0342  0.0231
  836MOL0     C15236   9.224  11.095   4.627 -0.1291 -0.2535 -0.9106
  836MOL0     C15237   9.281  11.078   4.753 -0.2515  0.0727 -0.2057
  836MOL0     O15238   9.418  11.060   4.774 -0.7790 -0.6318  0.2257
  836MOL0     C15239   9.510  11.066   4.662  0.1600 -0.8153 -0.1825
  836MOL0     C15240   9.638  11.002   4.720  0.3399 -0.4337  1.1919
  836MOL0     C15241   9.751  11.018   4.625  0.5375 -0.4970  0.4836
  836MOL0     C15242   9.745  10.953   4.484 -0.8655 -0.4794  0.3022
  836MOL0     C15243   9.846  11.021   4.392 -0.1759  1.3904 -0.1454
  836MOL0     C15244   9.860  10.950   4.258 -0.6704 -0.7304 -0.3811
  836MOL0     C15245   9.949  10.826   4.263  0.1669  0.5953 -1.2670
  836MOL0     C15246   9.979  10.773   4.126  0.2315  0.7211 -0.1934
  836MOL0     N15247  10.051  10.855   4.036 -0.4099  0.0759  0.3819
  836MOL0     C15248  10.024  10.877   3.900  0.8845 -0.7337  0.3001
  836MOL0     C15249  10.129  10.944   3.847  0.2472  0.6196 -0.5932
  836MOL0     C15250  10.165  10.961   3.707 -0.3824  0.2680  0.2742
  836MOL0     C15251  10.187  11.103   3.666 -0.4929 -0.3474  0.4366
  836MOL0     C15252  10.217  11.103   3.524  0.7333 -0.0805 -1.0452
  836MOL0     C15253  10.195  11.246   3.464  0.3894 -0.8535 -0.4414
  836MOL0     O15254  10.241  11.248   3.325 -0.3103 -0.5789  0.4439
  836MOL0     C15255  10.372  11.269   3.295 -0.0992 -0.7079 -1.5118
  836MOL0     C15256  10.408  11.236   3.167 -0.8713 -0.0517  0.8656
  836MOL0     C15257  10.542  11.236   3.114  0.1766 -0.6466 -0.0435
  836MOL0     C15258  10.564  11.211   2.965  0.4108  0.6450 -0.1654
  836MOL0     C15259  10.643  11.265   3.212 -0.5632 -0.6810 -0.1977
  836MOL0     C15260  10.786  11.288   3.175 -0.6362  0.6351  0.1780
  836MOL0     O15261  10.880  11.303   3.274  0.1442  0.4817 -0.5629
  836MOL0     C15262  11.008  11.334   3.236  0.6526  0.5650  0.9719
  836MOL0     C15263  11.100  11.246   3.260 -0.9719 -0.1828  0.3929
  836MOL0     C15264  11.234  11.256   3.222 -0.5777  0.3386 -0.3612
  836MOL0     C15265  11.273  11.378   3.161  0.1695 -0.0067  0.1851
  836MOL0     O15266  11.408  11.388   3.137 -0.4061  0.0296  0.2248
  836MOL0     C15267  11.456  11.451   3.017 -1.2205 -0.1936 -0.1773
  836MOL0     C15268  11.609  11.465   2.986 -0.0458 -0.2814 -0.6461
  836MOL0     C15269  11.667  11.546   3.109  0.8917 -0.5170  0.2818
  836MOL0     C15270  11.818  11.558   3.111 -0.0286  0.2566  0.7766
  836MOL0     C15271  11.899  11.423   3.104  0.0420 -0.2368  0.0467
  836MOL0     C15272  12.051  11.426   3.141 -0.7525  0.6267  0.6618
  836MOL0     C15273  12.132  11.297   3.108  0.0634 -0.1354 -0.7322
  836MOL0     C15274  12.271  11.291   3.171 -0.5988 -0.0765  0.3631
  836MOL0    Cl15275  12.371  11.404   3.087 -0.0083 -0.5109 -0.1427
  836MOL0     C15276  11.180  11.485   3.140  0.1092  0.4167 -0.4005
  836MOL0     C15277  11.049  11.456   3.178 -0.0842 -0.0225  0.9808
  836MOL0     O15278  10.816  11.296   3.056  0.2524  0.1131 -0.6866
  836MOL0     C15279  10.607  11.292   3.345 -0.4522 -0.1920  0.0588
  836MOL0     C15280  10.472  11.302   3.386 -1.3698  0.2955 -0.5735
  836MOL0     N15281  10.222  10.963   3.954  0.7343  0.7725  0.1410
  836MOL0     N15282  10.174  10.909   4.063  0.2979  0.0006 -0.0162
  836MOL0     C15283   9.210  11.040   4.861  0.5383  0.6046  0.2759
  836MOL0     C15284   9.068  11.057   4.854 -0.9939 -0.2412 -0.5558
  836MOL0     C15285   8.629  11.137   4.658  1.2241  0.9714  0.1013
  836MOL0     C15286   8.549  11.201   4.562  0.5218  0.5720  0.0313
  836MOL0     C15287   8.410  11.212   4.575  0.2828  0.4080 -0.0661
  836MOL0     C15288   8.341  11.156   4.680  0.0175 -0.6756  0.7634
  836MOL0     O15289   8.204  11.168   4.680  0.6663 -0.7135  0.4265
  836MOL0     C15290   8.134  11.140   4.802 -0.0914 -0.1896 -0.6266
  836MOL0     C15291   8.168  11.234   4.916  0.1947 -0.2895  0.3979
  836MOL0     C15292   8.185  11.377   4.863 -0.1122 -0.8670  0.0855
  836MOL0     C15293   8.173  11.484   4.981  0.8442  0.1694 -0.8682
  836MOL0     C15294   8.037  11.509   5.019  0.3698 -0.7177  0.7258
  836MOL0     C15295   7.926  11.517   5.066 -0.8671  0.8812 -0.5282
  836MOL0     C15296   8.414  11.086   4.770 -0.5846  0.6399 -1.0945
  836MOL0     C15297   8.551  11.085   4.770 -1.0700  0.4016 -0.0531
  836MOL0     C15298   8.616  10.998   4.868  0.1652 -0.0381 -0.5941
  836MOL0     H15299   9.048  11.129   4.518  0.4840 -0.9256 -0.4875
  836MOL0     H15300   9.279  11.120   4.537  1.1654  2.6187  0.5197
  836MOL0     H15301   9.524  11.169   4.627  0.6862 -0.2804  1.5199
  836MOL0     H15302   9.467  11.031   4.567  1.3918  0.2734 -1.1868
  836MOL0     H15303   9.668  11.049   4.814 -0.3380  1.9888  0.2933
  836MOL0     H15304   9.615  10.896   4.731  0.6095 -0.6162  0.0748
  836MOL0     H15305   9.770  11.124   4.609 -1.1252  0.2165  2.7640
  836MOL0     H15306   9.838  10.979   4.678  0.1559 -0.8107  0.8941
  836MOL0     H15307   9.783  10.853   4.508  1.0924  0.1444 -0.0300
  836MOL0     H15308   9.643  10.959   4.444 -0.7175  0.1390  0.0011
  836MOL0     H15309   9.947  11.025   4.434 -1.1484  0.2889  2.5853
  836MOL0     H15310   9.815  11.123   4.371 -0.0850  1.7490  1.3205
  836MOL0     H15311   9.760  10.932   4.218 -1.3987  1.9334  0.0253
  836MOL0     H15312   9.900  11.023   4.187 -2.2270  0.1183 -0.4230
  836MOL0     H15313   9.899  10.746   4.319  1.7237  0.7171  0.3946
  836MOL0     H15314  10.045  10.842   4.313  0.4198  1.6270 -2.0585
  836MOL0     H15315  10.029  10.677   4.141 -1.5655 -0.1282  0.6494
  836MOL0     H15316   9.884  10.748   4.077 -0.4168  1.2697  0.7587
  836MOL0     H15317   9.944  10.831   3.843  1.1104 -0.9119  0.1253
  836MOL0     H15318  10.091  10.910   3.644  0.9418 -0.7748 -0.4915
  836MOL0     H15319  10.255  10.905   3.680 -1.9044 -1.7479 -0.8969
  836MOL0     H15320  10.091  11.153   3.678  0.0939  1.5221 -1.9947
  836MOL0     H15321  10.264  11.147   3.731  1.3153 -0.7832 -1.2966
  836MOL0     H15322  10.321  11.073   3.510  1.1598  1.0643 -0.4893
  836MOL0     H15323  10.149  11.030   3.480 -1.2300  1.7769 -1.2982
  836MOL0     H15324  10.090  11.275   3.463  0.7258  0.5030 -2.0961
  836MOL0     H15325  10.243  11.323   3.525 -1.0836  0.4537 -0.8651
  836MOL0     H15326  10.325  11.208   3.102 -0.8613  2.2777 -0.2778
  836MOL0     H15327  10.634  11.127   2.959 -1.5928 -1.1421 -0.0652
  836MOL0     H15328  10.619  11.295   2.922  0.7613  0.1655 -0.6775
  836MOL0     H15329  10.471  11.187   2.912  0.7992  0.8383 -0.9599
  836MOL0     H15330  11.070  11.154   3.309 -2.0877  0.3474  0.7333
  836MOL0     H15331  11.308  11.183   3.252 -2.3000 -0.7019  1.6377
  836MOL0     H15332  11.417  11.377   2.947 -0.5840  0.6304 -1.4482
  836MOL0     H15333  11.404  11.548   3.018  2.2530  1.8408  0.3255
  836MOL0     H15334  11.661  11.374   2.952 -0.7594 -0.4436 -1.3216
  836MOL0     H15335  11.615  11.528   2.897  1.6418 -0.5313 -0.7593
  836MOL0     H15336  11.625  11.498   3.198 -0.6674  2.0535  1.0404
  836MOL0     H15337  11.620  11.644   3.101  0.3635 -0.6836  1.2167
  836MOL0     H15338  11.848  11.620   3.196  1.2414 -1.0173  1.2958
  836MOL0     H15339  11.831  11.616   3.019  1.4710 -1.0188  0.1482
  836MOL0     H15340  11.849  11.361   3.179  1.5106  1.7491  2.8083
  836MOL0     H15341  11.888  11.384   3.002  1.1833  1.9264 -0.9553
  836MOL0     H15342  12.065  11.453   3.246 -1.4316  0.0718  0.9007
  836MOL0     H15343  12.096  11.507   3.083  2.6580 -1.1021  0.6375
  836MOL0     H15344  12.146  11.268   3.003 -1.4015 -1.3473 -0.6373
  836MOL0     H15345  12.079  11.211   3.149 -2.0614  1.7240  0.6841
  836MOL0     H15346  12.317  11.193   3.157  1.6175  1.3267 -3.7495
  836MOL0     H15347  12.259  11.322   3.276 -3.2847 -1.5818  0.6004
  836MOL0     H15348  11.206  11.580   3.095  0.8259  1.3224  1.7927
  836MOL0     H15349  10.974  11.532   3.161  1.0947  0.4183 -3.2315
  836MOL0     H15350  10.687  11.309   3.416  0.5584 -2.3770 -0.4530
  836MOL0     H15351  10.454  11.306   3.493 -0.6902  1.6288 -0.4944
  836MOL0     H15352   9.257  11.004   4.952  2.3480  1.6697 -0.1848
  836MOL0     H15353   9.014  11.054   4.948  1.1653 -0.1759  0.7668
  836MOL0     H15354   8.596  11.246   4.475  0.5249 -0.6948 -0.6466
  836MOL0     H15355   8.351  11.267   4.502  2.4369  1.0045 -1.4374
  836MOL0     H15356   8.026  11.145   4.791 -0.3216 -1.8052  0.5973
  836MOL0     H15357   8.162  11.040   4.837  0.2590 -0.4232 -1.5330
  836MOL0     H15358   8.260  11.203   4.966  0.2534  2.1126  1.9487
  836MOL0     H15359   8.079  11.228   4.980 -1.8368  3.8235 -1.6634
  836MOL0     H15360   8.282  11.386   4.814  0.6128  1.5174  1.7787
  836MOL0     H15361   8.113  11.407   4.787  1.0161 -1.9712 -1.4645
  836MOL0     H15362   8.216  11.580   4.952  2.2107  0.2284  1.1101
  836MOL0     H15363   8.230  11.450   5.068  3.7854  3.7483 -1.1246
  836MOL0     H15364   7.827  11.515   5.108 -0.3588 -2.5552  0.8416
  836MOL0     H15365   8.364  11.038   4.854 -1.1236  4.9483  1.3141
  836MOL0     H15366   8.696  10.938   4.824  0.6727 -1.2868  1.8533
  836MOL0     H15367   8.652  11.057   4.953 -0.5548 -1.9556  1.1376
  836MOL0     H15368   8.550  10.915   4.895  0.7061 -0.9256 -1.8957
  837MOL0     O15369   5.929   0.876   6.151 -0.0078 -0.4841  0.5421
  837MOL0     C15370   5.926   0.903   6.031 -0.4117 -0.0224  0.6550
  837MOL0     O15371   6.017   0.979   5.963 -0.1638 -0.5732 -0.2810
  837MOL0     C15372   6.109   1.050   6.039  0.2196  1.2638 -0.7003
  837MOL0     C15373   6.242   1.013   6.051 -0.7255  0.0480 -0.7605
  837MOL0     C15374   6.335   1.104   6.118  0.1938  0.7380  0.3674
  837MOL0     C15375   6.289   1.219   6.175  0.4365 -0.0102  0.1263
  837MOL0     O15376   6.369   1.316   6.220  0.2389  0.1710  0.4636
  837MOL0     C15377   6.442   1.290   6.335  0.2088 -0.8708 -0.1576
  837MOL0     C15378   6.343   1.311   6.463 -0.6320 -0.2407  0.4497
  837MOL0     C15379   6.405   1.238   6.584 -0.5448 -0.0470 -0.6093
  837MOL0     C15380   6.525   1.309   6.642 -0.1319  0.3512  0.0014
  837MOL0     C15381   6.533   1.279   6.790 -0.7043  0.5268 -0.1341
  837MOL0     C15382   6.671   1.316   6.851  0.3123  0.3247  0.1480
  837MOL0     C15383   6.693   1.256   6.993 -0.1755 -0.0727  0.1214
  837MOL0     C15384   6.575   1.275   7.092 -0.0221  0.0598  0.2055
  837MOL0     N15385   6.576   1.412   7.153  0.0231  0.2306 -0.0084
  837MOL0     C15386   6.655   1.443   7.266  0.1590 -0.0473  0.5904
  837MOL0     C15387   6.625   1.567   7.298  0.0165 -0.1408 -0.2256
  837MOL0     C15388   6.680   1.640   7.416  0.0733  0.2270  0.2902
  837MOL0     C15389   6.829   1.689   7.398 -0.0950 -0.6706  0.0902
  837MOL0     C15390   6.866   1.804   7.488 -0.0421  0.3075  0.0206
  837MOL0     C15391   7.019   1.851   7.475  0.0559 -0.3424 -1.6756
  837MOL0     O15392   7.102   1.749   7.531 -0.6691 -0.0711  0.0038
  837MOL0     C15393   7.241   1.761   7.534 -0.7679 -0.2604  0.1863
  837MOL0     C15394   7.312   1.878   7.504 -0.0519  0.3693 -0.1861
  837MOL0     C15395   7.453   1.881   7.519 -0.0428  0.0822  0.6050
  837MOL0     C15396   7.521   2.019   7.507  0.2954  0.4735  0.7312
  837MOL0     C15397   7.525   1.766   7.564  0.0389 -0.3833  0.5676
  837MOL0     C15398   7.666   1.754   7.602 -0.0806 -0.1645 -0.1479
  837MOL0     O15399   7.710   1.635   7.657 -0.4779 -0.0984 -0.0391
  837MOL0     C15400   7.846   1.605   7.687  0.0266  0.4419  0.6197
  837MOL0     C15401   7.897   1.482   7.640 -0.4787  0.4654 -0.6056
  837MOL0     C15402   8.036   1.448   7.673  0.1183  0.9398  0.1501
  837MOL0     C15403   8.110   1.532   7.752 -0.9665 -0.0883  0.2683
  837MOL0     O15404   8.247   1.510   7.788  0.3428 -0.6488 -0.0308
  837MOL0     C15405   8.325   1.405   7.725  0.3966  0.1680  0.1346
  837MOL0     C15406   8.464   1.391   7.773  0.4984 -0.1600 -0.4397
  837MOL0     C15407   8.529   1.284   7.687  0.7504 -0.4843  0.5636
  837MOL0     C15408   8.664   1.243   7.731 -0.5947 -0.5141 -0.7203
  837MOL0     C15409   8.707   1.104   7.661 -0.5417 -0.7637 -0.7963
  837MOL0     C15410   8.861   1.092   7.694  0.4132  0.1129  0.2283
  837MOL0     C15411   8.942   1.002   7.607  0.0939 -0.0078  0.3653
  837MOL0     C15412   8.972   1.053   7.462  0.4390  0.7590 -1.3405
  837MOL0    Cl15413   9.007   0.915   7.365 -0.6812 -0.3382  0.3043
  837MOL0     C15414   8.059   1.657   7.793  0.9202 -0.0826 -0.2706
  837MOL0     C15415   7.924   1.689   7.766 -0.3135 -1.0782 -0.5352
  837MOL0     O15416   7.738   1.850   7.589  0.1711  0.3460  0.3766
  837MOL0     C15417   7.448   1.649   7.592  0.6327 -0.1388  0.0212
  837MOL0     C15418   7.310   1.645   7.581 -0.2496  0.1348 -0.1669
  837MOL0     N15419   6.518   1.618   7.213 -0.0270  0.0838 -1.4466
  837MOL0     N15420   6.486   1.518   7.137 -1.0564  0.0127  0.1772
  837MOL0     C15421   6.149   1.248   6.161  0.7024  0.3535  0.7864
  837MOL0     C15422   6.069   1.165   6.092  0.9565 -0.3954  0.1010
  837MOL0     C15423   5.806   0.867   5.944 -0.9671 -0.2376  0.1751
  837MOL0     C15424   5.826   0.804   5.823  0.4232 -1.2017 -0.6402
  837MOL0     C15425   5.725   0.769   5.737  0.2270  0.5873 -0.6368
  837MOL0     C15426   5.602   0.802   5.772  1.7766  0.2910  0.4822
  837MOL0     O15427   5.486   0.778   5.701  1.0865 -0.0212 -0.1702
  837MOL0     C15428   5.488   0.718   5.573 -0.6563  0.2367  0.0527
  837MOL0     C15429   5.347   0.695   5.513 -0.3791 -0.1639  0.1405
  837MOL0     C15430   5.346   0.690   5.361 -0.9753 -0.7215  0.1852
  837MOL0     C15431   5.259   0.579   5.295 -0.2514  0.2858 -0.0576
  837MOL0     C15432   5.118   0.604   5.323 -0.8560 -0.7240  1.1453
  837MOL0     C15433   4.997   0.604   5.329  0.0047 -0.2828  0.0782
  837MOL0     C15434   5.576   0.857   5.890  0.1274 -0.1320 -0.0575
  837MOL0     C15435   5.674   0.894   5.978 -0.2909 -0.0026 -0.5296
  837MOL0     C15436   5.634   0.974   6.105 -0.2203 -0.0546  0.2559
  837MOL0     H15437   6.276   0.925   5.997 -0.7264  1.0073 -2.3790
  837MOL0     H15438   6.442   1.088   6.114  0.2629 -0.4961  3.7643
  837MOL0     H15439   6.534   1.349   6.343  0.8141 -1.8889  0.5925
  837MOL0     H15440   6.479   1.187   6.341 -2.4210 -1.9159 -0.5571
  837MOL0     H15441   6.338   1.418   6.483  2.3755 -0.1200  1.0431
  837MOL0     H15442   6.246   1.264   6.442 -0.7831 -0.3942  1.4365
  837MOL0     H15443   6.321   1.236   6.654 -2.0337 -4.6758 -2.1443
  837MOL0     H15444   6.446   1.141   6.555  1.0518  0.2210  0.6306
  837MOL0     H15445   6.617   1.273   6.596  0.2249  0.0299  0.9442
  837MOL0     H15446   6.527   1.417   6.623  3.3852  1.3285  4.2284
  837MOL0     H15447   6.521   1.173   6.813  0.3976  0.8476  2.1737
  837MOL0     H15448   6.445   1.323   6.840 -1.7550 -1.7238  0.1337
  837MOL0     H15449   6.745   1.266   6.787  1.3338  1.0115  0.7515
  837MOL0     H15450   6.688   1.423   6.842 -1.2082  0.4799 -1.3571
  837MOL0     H15451   6.787   1.302   7.025 -0.2493  0.1667 -0.0075
  837MOL0     H15452   6.720   1.151   6.977 -1.6128 -0.3308 -0.8291
  837MOL0     H15453   6.485   1.259   7.031  1.0074 -1.0508 -1.1017
  837MOL0     H15454   6.586   1.196   7.166  0.7327 -0.4497 -0.4433
  837MOL0     H15455   6.731   1.380   7.312  0.6393  0.8160  1.0164
  837MOL0     H15456   6.667   1.585   7.510 -2.2123 -0.2533 -0.2367
  837MOL0     H15457   6.621   1.732   7.413 -1.6039 -0.8044 -2.4030
  837MOL0     H15458   6.900   1.609   7.421  1.0643  1.0817  3.2821
  837MOL0     H15459   6.836   1.723   7.295 -2.0650  0.6272  0.3348
  837MOL0     H15460   6.796   1.884   7.465 -0.4444 -0.3606 -1.1069
  837MOL0     H15461   6.850   1.772   7.592  2.8224 -2.2850 -0.1816
  837MOL0     H15462   7.035   1.868   7.368  0.4340 -1.0529 -1.7407
  837MOL0     H15463   7.043   1.935   7.541 -1.5289 -1.7450  0.8463
  837MOL0     H15464   7.268   1.973   7.476  1.0581  1.8083  2.5734
  837MOL0     H15465   7.447   2.097   7.485  0.2195  0.4121  0.7698
  837MOL0     H15466   7.605   2.022   7.437 -0.6203  0.1900 -0.4048
  837MOL0     H15467   7.554   2.045   7.608 -0.9957 -0.5553  1.4591
  837MOL0     H15468   7.853   1.403   7.579  1.7090 -0.5031 -1.0621
  837MOL0     H15469   8.075   1.353   7.638 -2.0303  0.0606  0.0060
  837MOL0     H15470   8.272   1.312   7.749  0.7652  0.7976  3.9290
  837MOL0     H15471   8.335   1.421   7.617  0.0687 -2.3955 -0.3574
  837MOL0     H15472   8.522   1.483   7.769 -0.0250  0.1682 -0.5294
  837MOL0     H15473   8.444   1.364   7.877 -1.1575  1.7746 -0.2046
  837MOL0     H15474   8.529   1.327   7.587 -0.4310 -0.9814  0.3290
  837MOL0     H15475   8.463   1.197   7.691 -1.9223  1.3286 -1.0694
  837MOL0     H15476   8.662   1.230   7.840  1.8592 -2.0590 -0.8062
  837MOL0     H15477   8.744   1.310   7.697  0.6941 -0.6620  1.7298
  837MOL0     H15478   8.651   1.015   7.689  1.8739 -2.7731 -1.9553
  837MOL0     H15479   8.689   1.104   7.553 -2.1888 -2.7757 -0.5874
  837MOL0     H15480   8.858   1.047   7.794 -0.8364 -1.6587 -0.5451
  837MOL0     H15481   8.916   1.186   7.698 -0.6036  0.8909 -2.1414
  837MOL0     H15482   8.896   0.903   7.609  0.1803 -0.1830 -2.2660
  837MOL0     H15483   9.044   0.993   7.646  0.5024  1.1659 -0.3843
  837MOL0     H15484   9.049   1.130   7.471  1.4743 -0.3637 -0.2629
  837MOL0     H15485   8.883   1.109   7.431 -0.6654  0.8586  1.7326
  837MOL0     H15486   8.119   1.717   7.861 -0.7936  0.2300  1.0348
  837MOL0     H15487   7.887   1.787   7.795 -0.0687 -0.6887 -1.5142
  837MOL0     H15488   7.493   1.562   7.640 -0.2407 -0.4556  0.2811
  837MOL0     H15489   7.236   1.568   7.603  0.4492 -0.4167  0.3230
  837MOL0     H15490   6.113   1.345   6.193  3.2094  1.1828  1.3130
  837MOL0     H15491   5.963   1.181   6.077  0.8866 -1.5307 -0.7330
  837MOL0     H15492   5.926   0.776   5.790  0.4478 -1.1776 -0.5856
  837MOL0     H15493   5.749   0.711   5.648  2.5799 -2.2439  1.6209
  837MOL0     H15494   5.548   0.780   5.506  0.5765  0.5038  1.3688
  837MOL0     H15495   5.535   0.619   5.573  1.8548  1.2924 -2.6099
  837MOL0     H15496   5.288   0.780   5.548  0.0569 -0.1214  0.7897
  837MOL0     H15497   5.308   0.608   5.567  1.8602 -0.0509  2.1441
  837MOL0     H15498   5.327   0.790   5.322 -1.0036 -0.3146  1.2380
  837MOL0     H15499   5.444   0.661   5.321  0.4961  4.9370 -1.1587
  837MOL0     H15500   5.282   0.477   5.324 -0.2815  0.1359 -0.5504
  837MOL0     H15501   5.267   0.571   5.186  2.3626 -0.9338  0.1527
  837MOL0     H15502   4.890   0.613   5.330  0.1287  1.5266 -0.5809
  837MOL0     H15503   5.469   0.863   5.909 -0.3428 -0.5028 -2.2852
  837MOL0     H15504   5.529   1.004   6.099  0.1389  0.9998 -2.0847
  837MOL0     H15505   5.650   0.912   6.194  3.9382 -3.2639 -2.3332
  837MOL0     H15506   5.685   1.070   6.113 -1.4885  0.7630 -0.8859
  838MOL0     O15507   3.432   2.174   6.129  0.2252  0.3300 -0.1281
  838MOL0     C15508   3.358   2.242   6.064 -0.4993  1.0632  1.0791
  838MOL0     O15509   3.396   2.321   5.958 -1.0458  0.1180 -0.3159
  838MOL0     C15510   3.526   2.376   5.948 -0.5621 -0.3799 -0.1407
  838MOL0     C15511   3.527   2.515   5.917  0.5973 -0.4625 -0.3900
  838MOL0     C15512   3.647   2.587   5.928 -0.2956  0.0063 -0.2564
  838MOL0     C15513   3.770   2.517   5.924  0.0708  0.4143  0.1683
  838MOL0     O15514   3.895   2.569   5.916  0.2032  0.0066  0.1183
  838MOL0     C15515   3.906   2.711   5.904 -0.0884 -0.5645  0.3436
  838MOL0     C15516   4.059   2.749   5.896 -0.5375 -0.6597 -0.8794
  838MOL0     C15517   4.114   2.747   6.036 -0.2952  0.2221  0.4435
  838MOL0     C15518   4.262   2.773   6.033  0.1710 -0.4027 -0.2833
  838MOL0     C15519   4.317   2.780   6.181 -0.4238  0.1999  0.0820
  838MOL0     C15520   4.468   2.820   6.168 -0.1893 -0.2250 -0.6200
  838MOL0     C15521   4.540   2.855   6.305 -0.4169 -0.7714  0.2073
  838MOL0     C15522   4.506   3.002   6.352  0.9882 -0.5811  0.4906
  838MOL0     N15523   4.579   3.046   6.473  0.1469 -0.1594 -0.0207
  838MOL0     C15524   4.523   3.095   6.591  0.4099 -0.0094  0.6233
  838MOL0     C15525   4.628   3.146   6.663  0.1924 -0.0790  0.0518
  838MOL0     C15526   4.591   3.210   6.798 -0.2164 -0.0174  0.6794
  838MOL0     C15527   4.628   3.354   6.795  0.6241  0.1490  0.5205
  838MOL0     C15528   4.547   3.442   6.689  0.5432 -0.0786 -0.2272
  838MOL0     C15529   4.617   3.577   6.666  0.7003 -0.0324  0.3540
  838MOL0     O15530   4.579   3.639   6.543 -0.6446 -0.0714 -0.3818
  838MOL0     C15531   4.454   3.677   6.504 -0.5586 -0.1563  0.0306
  838MOL0     C15532   4.344   3.700   6.582 -0.3804 -0.5608  0.1305
  838MOL0     C15533   4.221   3.746   6.545  0.0334  0.0459 -0.7660
  838MOL0     C15534   4.120   3.776   6.659  0.6758 -0.0927  0.0533
  838MOL0     C15535   4.207   3.770   6.410 -0.5161 -0.2783 -0.4935
  838MOL0     C15536   4.070   3.801   6.352  0.1378  0.1913  0.0676
  838MOL0     O15537   4.079   3.879   6.241  0.1502 -0.1024  0.2781
  838MOL0     C15538   3.965   3.921   6.174  0.4841 -0.4642 -0.5418
  838MOL0     C15539   3.932   4.050   6.188 -0.6787 -0.2029  0.6640
  838MOL0     C15540   3.812   4.099   6.134  0.0533 -0.1315 -0.9863
  838MOL0     C15541   3.726   4.020   6.062  0.1516 -0.2463  0.4283
  838MOL0     O15542   3.613   4.062   6.002  0.2273  0.0608  0.3335
  838MOL0     C15543   3.532   4.163   6.048  0.1838 -0.2912 -0.4338
  838MOL0     C15544   3.391   4.132   5.998 -0.2310  0.0620  0.5300
  838MOL0     C15545   3.274   4.229   6.053 -0.0712  0.3698 -0.2643
  838MOL0     C15546   3.150   4.204   5.976  0.3434 -0.1637  0.4322
  838MOL0     C15547   3.027   4.268   6.040 -0.3102 -0.6403 -0.2573
  838MOL0     C15548   2.913   4.281   5.940 -0.3833 -0.6747  0.6091
  838MOL0     C15549   2.794   4.357   5.997 -0.0492 -0.3419 -0.4533
  838MOL0     C15550   2.699   4.363   5.887  0.7719 -0.1935  0.8691
  838MOL0    Cl15551   2.755   4.430   5.726  0.2733 -0.3626 -0.0875
  838MOL0     C15552   3.768   3.884   6.043  0.2745 -0.2046  0.5283
  838MOL0     C15553   3.879   3.835   6.103  0.1138  0.1129 -0.2482
  838MOL0     O15554   3.968   3.769   6.412 -0.0144 -0.3276  0.4264
  838MOL0     C15555   4.316   3.752   6.331 -0.3747 -0.0600  0.6037
  838MOL0     C15556   4.446   3.714   6.370  0.1539 -0.1151 -0.2318
  838MOL0     N15557   4.740   3.128   6.593 -0.2982  0.4240 -0.4250
  838MOL0     N15558   4.713   3.069   6.479  0.6182  0.7675  0.5959
  838MOL0     C15559   3.770   2.386   5.961  0.1872  0.2991  0.0899
  838MOL0     C15560   3.647   2.316   5.982  0.3676 -0.2097  0.9856
  838MOL0     C15561   3.212   2.235   6.099  0.2193 -1.1658 -0.6149
  838MOL0     C15562   3.126   2.321   6.021 -0.5491  0.3154 -0.0562
  838MOL0     C15563   2.985   2.315   6.040 -0.4104  0.4464  0.5445
  838MOL0     C15564   2.927   2.233   6.147 -0.2642 -0.1183  1.9026
  838MOL0     O15565   2.797   2.224   6.177 -0.4359 -0.4260  0.5310
  838MOL0     C15566   2.728   2.346   6.162  0.6377 -0.2190  0.5166
  838MOL0     C15567   2.610   2.350   6.268 -0.8774 -0.0170  0.4624
  838MOL0     C15568   2.634   2.332   6.412  0.8688 -0.0656 -0.0590
  838MOL0     C15569   2.762   2.388   6.464 -0.1642 -0.9828 -0.8042
  838MOL0     C15570   2.759   2.408   6.609 -0.0039  0.3261  0.2187
  838MOL0     C15571   2.755   2.427   6.726  0.7842 -0.5119  0.7951
  838MOL0     C15572   3.011   2.154   6.208  0.0305  0.5147 -0.1775
  838MOL0     C15573   3.148   2.139   6.185 -0.0586  0.1162  0.5487
  838MOL0     C15574   3.225   2.027   6.254 -0.2496 -0.1935  0.0876
  838MOL0     H15575   3.435   2.568   5.891 -0.5820 -3.1198 -2.1374
  838MOL0     H15576   3.626   2.693   5.915 -2.0945  0.1019  2.6222
  838MOL0     H15577   3.860   2.774   5.981  0.8813  2.6233 -1.4711
  838MOL0     H15578   3.865   2.724   5.804  3.5657  0.4709 -1.2229
  838MOL0     H15579   4.109   2.678   5.830  1.7250  0.2812 -0.2761
  838MOL0     H15580   4.082   2.853   5.875 -0.1886 -0.8120 -1.2493
  838MOL0     H15581   4.056   2.820   6.093  0.4281  1.4105 -0.3124
  838MOL0     H15582   4.094   2.651   6.084 -0.9456  0.4162  0.5799
  838MOL0     H15583   4.312   2.700   5.970 -1.6051 -0.3522 -1.8431
  838MOL0     H15584   4.287   2.867   5.984  0.6775 -0.0559  0.6118
  838MOL0     H15585   4.314   2.686   6.237  1.1556 -0.2316 -0.5238
  838MOL0     H15586   4.260   2.852   6.241 -1.5841  1.5797 -2.4932
  838MOL0     H15587   4.522   2.735   6.125 -1.5283 -0.4860 -1.8718
  838MOL0     H15588   4.476   2.898   6.092 -0.8615 -1.0514 -1.5591
  838MOL0     H15589   4.649   2.852   6.295 -0.3910  0.0301  0.1940
  838MOL0     H15590   4.505   2.783   6.379  0.8247 -1.0751  0.5310
  838MOL0     H15591   4.535   3.080   6.281  2.7885 -0.5342  1.2235
  838MOL0     H15592   4.401   3.022   6.375  1.1634  1.1805 -0.1336
  838MOL0     H15593   4.421   3.084   6.625 -0.0498  0.3105 -0.6137
  838MOL0     H15594   4.649   3.157   6.875  1.6151  2.7107  1.3103
  838MOL0     H15595   4.483   3.201   6.808 -0.2524 -2.9900 -1.0340
  838MOL0     H15596   4.589   3.398   6.887 -1.4722 -1.6570  0.5645
  838MOL0     H15597   4.736   3.362   6.779  0.6904 -1.2313  0.1276
  838MOL0     H15598   4.546   3.393   6.591  0.5174  0.9913 -0.7665
  838MOL0     H15599   4.444   3.449   6.726  0.0342 -2.0766 -1.1349
  838MOL0     H15600   4.590   3.644   6.749  1.4150  1.5265 -0.6234
  838MOL0     H15601   4.724   3.567   6.648  0.4593 -0.4019 -0.9886
  838MOL0     H15602   4.352   3.690   6.690  0.9838 -1.5245 -0.0283
  838MOL0     H15603   4.165   3.789   6.758 -0.3692 -0.7545  0.6252
  838MOL0     H15604   4.053   3.690   6.670  2.0176 -0.9962  1.6707
  838MOL0     H15605   4.060   3.863   6.631  2.1466  0.5940 -1.1041
  838MOL0     H15606   3.998   4.121   6.236 -1.3134 -0.0176  1.2680
  838MOL0     H15607   3.795   4.206   6.145  2.0327  0.2323 -1.1871
  838MOL0     H15608   3.532   4.156   6.157  3.9604 -1.4738 -0.3446
  838MOL0     H15609   3.566   4.263   6.020  0.3460  0.2657  1.5703
  838MOL0     H15610   3.398   4.136   5.889  0.5758 -2.0033  0.4645
  838MOL0     H15611   3.371   4.027   6.019 -1.1527  0.0926 -0.1363
  838MOL0     H15612   3.321   4.321   6.019  5.6521 -2.0765 -0.2275
  838MOL0     H15613   3.267   4.211   6.161  2.2829 -1.4257 -0.3195
  838MOL0     H15614   3.127   4.097   5.970 -0.0708 -0.0844  0.5633
  838MOL0     H15615   3.161   4.231   5.871  0.4858  1.3498  0.8261
  838MOL0     H15616   3.004   4.220   6.137  2.1817 -1.3054  0.0697
  838MOL0     H15617   3.068   4.367   6.058  0.5443 -0.7114 -1.6828
  838MOL0     H15618   2.879   4.179   5.917 -2.4287  0.4943 -2.1932
  838MOL0     H15619   2.963   4.325   5.853 -2.8493 -1.0076 -1.0986
  838MOL0     H15620   2.809   4.462   6.022  2.5134 -0.1531 -2.4028
  838MOL0     H15621   2.756   4.304   6.085  3.2690 -1.4327  0.4575
  838MOL0     H15622   2.611   4.421   5.918  1.3366  1.8580 -1.1161
  838MOL0     H15623   2.656   4.264   5.867 -0.7524  0.4072  1.0583
  838MOL0     H15624   3.708   3.812   5.987  2.6452 -2.4050  0.5972
  838MOL0     H15625   3.904   3.729   6.098  0.7048  0.2619 -0.5485
  838MOL0     H15626   4.303   3.762   6.223  0.4702 -0.5380  0.4468
  838MOL0     H15627   4.531   3.697   6.304  0.7623 -1.4904  0.8442
  838MOL0     H15628   3.860   2.329   5.981 -1.9035 -3.2912  0.2767
  838MOL0     H15629   3.650   2.211   6.009  1.2492 -1.0466 -1.9833
  838MOL0     H15630   3.164   2.384   5.941 -2.4069 -0.6478 -1.7947
  838MOL0     H15631   2.910   2.368   5.982 -0.0335  0.5059  0.1059
  838MOL0     H15632   2.798   2.428   6.181  3.7808 -2.8076  1.0046
  838MOL0     H15633   2.684   2.367   6.064  3.4840  0.2538 -0.7622
  838MOL0     H15634   2.529   2.288   6.228  0.0657 -0.9196 -0.1157
  838MOL0     H15635   2.581   2.455   6.256  2.8644  0.8587 -3.4216
  838MOL0     H15636   2.550   2.358   6.477  0.1117 -4.0365  0.7723
  838MOL0     H15637   2.641   2.224   6.426  3.1681 -0.0343 -0.6096
  838MOL0     H15638   2.771   2.493   6.434  0.1203 -1.2478 -1.6673
  838MOL0     H15639   2.853   2.339   6.429 -1.0322 -2.6014 -0.9024
  838MOL0     H15640   2.756   2.459   6.828 -0.1361  1.4337  0.2496
  838MOL0     H15641   2.966   2.094   6.286  0.5097 -0.6355 -0.7720
  838MOL0     H15642   3.245   1.947   6.183 -3.9556 -2.3083  1.1820
  838MOL0     H15643   3.316   2.058   6.306 -0.0839  1.2706 -0.9845
  838MOL0     H15644   3.163   1.968   6.322 -0.0322 -1.0353 -0.4373
  839MOL0     O15645   9.582   2.565   9.574 -0.6709 -0.6698  0.2913
  839MOL0     C15646   9.535   2.540   9.468  0.4882 -0.5300  0.2116
  839MOL0     O15647   9.606   2.523   9.350 -0.5451 -0.2492 -0.1612
  839MOL0     C15648   9.738   2.491   9.374  0.5808  0.1277 -0.6324
  839MOL0     C15649   9.829   2.593   9.419  0.8661 -0.0311  0.3728
  839MOL0     C15650   9.957   2.560   9.466  0.0053 -0.3404  0.1965
  839MOL0     C15651  10.006   2.429   9.442  0.1256 -0.8066  0.4009
  839MOL0     O15652  10.140   2.406   9.472 -0.5177  0.3447  0.3270
  839MOL0     C15653  10.206   2.284   9.430 -0.4187 -0.0205 -0.3801
  839MOL0     C15654  10.354   2.289   9.469 -0.1384  0.2438  0.1647
  839MOL0     C15655  10.419   2.165   9.409  0.0065  0.0934  0.2639
  839MOL0     C15656  10.570   2.172   9.409  0.3812  0.4637  0.3949
  839MOL0     C15657  10.638   2.025   9.408  0.1154 -0.3523 -0.0839
  839MOL0     C15658  10.658   1.962   9.270 -0.1263 -0.1597  0.0757
  839MOL0     C15659  10.735   1.831   9.287  0.0246  0.2038  1.1575
  839MOL0     C15660  10.773   1.754   9.156  1.1223 -0.2276  0.2273
  839MOL0     N15661  10.862   1.834   9.071  0.8462  0.5395 -0.5160
  839MOL0     C15662  10.999   1.850   9.106  0.1615  0.0724  0.6146
  839MOL0     C15663  11.054   1.920   9.006 -0.0519 -0.5442  0.0648
  839MOL0     C15664  11.194   1.968   8.998  0.1044 -0.7945 -0.0647
  839MOL0     C15665  11.304   1.863   8.988  0.0857  0.5104  0.8783
  839MOL0     C15666  11.334   1.822   9.137 -0.3600  0.8481  0.4343
  839MOL0     C15667  11.480   1.781   9.170 -0.7538 -0.7622 -0.3424
  839MOL0     O15668  11.560   1.901   9.132  0.1068 -0.1018 -0.8183
  839MOL0     C15669  11.697   1.898   9.127  0.0995 -0.3012  0.1021
  839MOL0     C15670  11.760   2.023   9.135  0.0345 -0.3519 -0.6383
  839MOL0     C15671  11.897   2.038   9.134  0.3020  0.3486  0.6991
  839MOL0     C15672  11.951   2.178   9.128 -0.0157 -0.1798  0.4985
  839MOL0     C15673  11.986   1.923   9.140 -0.2038 -0.4524  0.5202
  839MOL0     C15674  12.130   1.935   9.147 -0.0614  0.8705 -0.1048
  839MOL0     O15675  12.189   1.838   9.214  0.1985  0.2442 -0.0656
  839MOL0     C15676  12.329   1.851   9.209  0.2589  0.3708  0.1766
  839MOL0     C15677  12.404   1.902   9.316  0.2966  0.0482  0.0305
  839MOL0     C15678  12.541   1.899   9.315 -0.9858  0.3425  0.3292
  839MOL0     C15679  12.608   1.821   9.217  0.7867 -0.0908  0.2035
  839MOL0     O15680  12.742   1.806   9.230 -0.3510 -0.5792 -0.4530
  839MOL0     C15681  12.808   1.747   9.117 -0.0806 -0.1640 -0.1092
  839MOL0     C15682  12.962   1.756   9.128 -0.4579  0.6304  0.0196
  839MOL0     C15683  13.015   1.848   9.018 -0.6170  0.0986 -0.4629
  839MOL0     C15684  13.169   1.829   9.020  0.5720 -0.0295 -0.5154
  839MOL0     C15685  13.246   1.904   8.908 -0.3043  0.0658  0.0921
  839MOL0     C15686  13.244   2.059   8.916  0.8014  0.6301  0.2245
  839MOL0     C15687  13.282   2.119   9.049 -0.1392  0.4287  0.2365
  839MOL0     C15688  13.302   2.264   9.039  0.7642 -0.4782  0.0822
  839MOL0    Cl15689  13.383   2.330   9.186  0.6164 -0.4825  0.4604
  839MOL0     C15690  12.533   1.753   9.125  0.5696  1.1044  0.1461
  839MOL0     C15691  12.397   1.770   9.124 -0.4889  0.0979  0.2264
  839MOL0     O15692  12.184   2.033   9.094 -0.6830  0.0127 -0.2629
  839MOL0     C15693  11.922   1.794   9.146 -0.2899 -0.4528 -0.3426
  839MOL0     C15694  11.786   1.788   9.132  0.4410  0.2365 -0.0728
  839MOL0     N15695  10.950   1.955   8.918  0.6787  0.1139  0.5472
  839MOL0     N15696  10.837   1.896   8.956  0.3602 -0.7921  0.6220
  839MOL0     C15697   9.915   2.336   9.392  0.4269  0.8220 -0.0168
  839MOL0     C15698   9.777   2.358   9.368 -1.2380 -0.2353 -0.6677
  839MOL0     C15699   9.388   2.567   9.459  0.0905 -0.4756  0.0652
  839MOL0     C15700   9.333   2.588   9.331  0.9737  0.5927  0.6014
  839MOL0     C15701   9.196   2.599   9.309  0.6497 -0.2294 -0.3413
  839MOL0     C15702   9.115   2.618   9.420  0.9188 -0.9755  0.6642
  839MOL0     O15703   8.986   2.662   9.416 -1.2727 -0.2577  0.2779
  839MOL0     C15704   8.905   2.619   9.307  0.1428 -1.1543  0.3920
  839MOL0     C15705   8.761   2.652   9.346 -0.0534  0.4903 -0.1072
  839MOL0     C15706   8.742   2.805   9.357 -0.4369 -0.2161 -0.5358
  839MOL0     C15707   8.604   2.851   9.319 -1.1091 -0.4089 -0.0742
  839MOL0     C15708   8.577   2.833   9.176 -0.7732 -0.1534  0.6320
  839MOL0     C15709   8.546   2.822   9.064  0.6116 -0.5566 -0.3117
  839MOL0     C15710   9.161   2.605   9.550 -0.4027  0.0052  0.2924
  839MOL0     C15711   9.294   2.569   9.568 -0.6301 -0.2644  0.4013
  839MOL0     C15712   9.334   2.540   9.711 -0.6048  0.4122 -0.6347
  839MOL0     H15713   9.793   2.693   9.437  0.4477 -0.0032 -0.5860
  839MOL0     H15714  10.017   2.631   9.522  2.0931 -3.0880  1.6844
  839MOL0     H15715  10.184   2.267   9.324 -1.0491  0.0896 -0.2734
  839MOL0     H15716  10.172   2.192   9.478  0.7824 -1.2312 -1.7391
  839MOL0     H15717  10.401   2.380   9.429 -0.8386  1.6931  2.4107
  839MOL0     H15718  10.365   2.288   9.578 -1.9890  2.6433  0.4585
  839MOL0     H15719  10.376   2.083   9.468 -0.2549  0.1308  0.1270
  839MOL0     H15720  10.383   2.157   9.306 -2.2769 -0.3197  1.0356
  839MOL0     H15721  10.596   2.232   9.321 -2.2033 -0.0933 -0.8620
  839MOL0     H15722  10.602   2.217   9.503 -0.8197  0.2154  0.9486
  839MOL0     H15723  10.576   1.959   9.469 -2.2019  0.5719 -1.2912
  839MOL0     H15724  10.736   2.046   9.451 -0.6185  1.5155  0.8204
  839MOL0     H15725  10.558   1.947   9.227 -0.6217  1.5439  0.5668
  839MOL0     H15726  10.723   2.023   9.207  0.8656 -1.0948  0.1733
  839MOL0     H15727  10.659   1.769   9.337 -0.9999 -0.4756 -1.0990
  839MOL0     H15728  10.820   1.852   9.352  1.2372 -0.2258 -0.2423
  839MOL0     H15729  10.834   1.666   9.177  0.7455 -0.5239  0.0934
  839MOL0     H15730  10.684   1.723   9.100 -0.6926  1.6620  1.8841
  839MOL0     H15731  11.048   1.828   9.201  0.6451 -1.8701 -0.0297
  839MOL0     H15732  11.213   2.024   9.090  0.0743 -2.9272  1.3059
  839MOL0     H15733  11.202   2.045   8.921 -0.2789  0.0802  0.7433
  839MOL0     H15734  11.266   1.778   8.931 -0.9007  3.4487 -3.2265
  839MOL0     H15735  11.400   1.898   8.948  2.7515 -4.1895  2.2560
  839MOL0     H15736  11.303   1.899   9.208  1.0032  2.6529 -0.8337
  839MOL0     H15737  11.270   1.735   9.155  0.7616  0.1133  0.9859
  839MOL0     H15738  11.497   1.756   9.275 -2.8688  1.0489  0.4968
  839MOL0     H15739  11.514   1.697   9.108  2.5017 -1.0826  1.6510
  839MOL0     H15740  11.699   2.112   9.142  2.9796  1.6455  1.5931
  839MOL0     H15741  11.865   2.245   9.134  1.4612  1.8247  0.2381
  839MOL0     H15742  12.005   2.199   9.036 -2.5115 -2.4231 -1.6350
  839MOL0     H15743  12.012   2.206   9.215 -1.2962 -0.8510  1.6586
  839MOL0     H15744  12.372   1.968   9.395  0.2221  2.4908 -1.9270
  839MOL0     H15745  12.605   1.934   9.396  3.6906 -1.7709 -2.0583
  839MOL0     H15746  12.788   1.642   9.096 -1.8992 -0.3126  2.0868
  839MOL0     H15747  12.774   1.804   9.030  1.5074  1.2425  0.1208
  839MOL0     H15748  12.990   1.797   9.225  0.2754 -1.0827  0.5728
  839MOL0     H15749  12.994   1.652   9.116 -1.9792  0.0333  0.9115
  839MOL0     H15750  12.989   1.949   9.050  0.0854  0.2457 -0.3527
  839MOL0     H15751  12.969   1.815   8.925 -2.5892 -2.4963  1.2879
  839MOL0     H15752  13.197   1.723   9.014  0.8772 -0.0085  0.3289
  839MOL0     H15753  13.208   1.856   9.119  0.3717  2.6458 -1.0853
  839MOL0     H15754  13.350   1.877   8.926 -0.1573  2.3983  3.6623
  839MOL0     H15755  13.195   1.877   8.815 -2.1809  0.5829  0.9209
  839MOL0     H15756  13.144   2.100   8.897 -0.5582 -2.1579  0.8609
  839MOL0     H15757  13.312   2.095   8.838 -1.2140  0.2001 -1.8428
  839MOL0     H15758  13.371   2.064   9.080 -0.2759 -0.9944 -1.7283
  839MOL0     H15759  13.199   2.104   9.119 -0.5661  1.3001 -0.0600
  839MOL0     H15760  13.213   2.323   9.016  1.4728 -0.5867 -3.4974
  839MOL0     H15761  13.358   2.290   8.948 -1.3415  2.9593 -0.4264
  839MOL0     H15762  12.571   1.679   9.054 -0.8958  0.7025 -0.2440
  839MOL0     H15763  12.338   1.706   9.060 -0.4282 -1.5769  1.7667
  839MOL0     H15764  11.982   1.703   9.155  1.6837  0.8444  0.2928
  839MOL0     H15765  11.743   1.689   9.124  1.7704 -0.5153  1.6039
  839MOL0     H15766   9.947   2.234   9.375  0.8998  1.2599 -1.9078
  839MOL0     H15767   9.717   2.271   9.342 -0.2437 -0.4566 -2.3421
  839MOL0     H15768   9.393   2.574   9.242  1.3853 -0.8362  1.0750
  839MOL0     H15769   9.150   2.622   9.214 -2.5530 -0.2187  1.0825
  839MOL0     H15770   8.928   2.682   9.221 -1.1011 -1.1722  0.0322
  839MOL0     H15771   8.913   2.513   9.280  0.2939 -1.0087 -0.1510
  839MOL0     H15772   8.744   2.605   9.444 -1.4743  1.5816  0.2080
  839MOL0     H15773   8.693   2.613   9.270 -0.7693  4.0132 -1.4702
  839MOL0     H15774   8.763   2.832   9.461 -1.9477 -0.0243 -0.2600
  839MOL0     H15775   8.815   2.863   9.299 -0.2152  3.5428  3.0132
  839MOL0     H15776   8.592   2.958   9.337 -0.4691 -0.5115  1.0781
  839MOL0     H15777   8.527   2.802   9.380  0.1197  0.2847  2.1643
  839MOL0     H15778   8.499   2.806   8.969  0.6892  0.2562 -0.4877
  839MOL0     H15779   9.093   2.613   9.635  2.7008 -0.7073  3.0259
  839MOL0     H15780   9.250   2.571   9.775 -1.1046 -1.3485 -0.3784
  839MOL0     H15781   9.336   2.431   9.722 -0.5862  0.3290 -1.4473
  839MOL0     H15782   9.430   2.582   9.740  0.1461 -0.8790 -1.1747
  840MOL0     O15783   5.830   2.103   5.820 -0.4374 -0.8371 -0.4443
  840MOL0     C15784   5.772   2.177   5.745  0.2477 -0.4775  0.1865
  840MOL0     O15785   5.831   2.287   5.688 -0.2000 -0.1615 -0.2710
  840MOL0     C15786   5.960   2.325   5.728  0.6949  0.6017 -0.3633
  840MOL0     C15787   6.070   2.248   5.689 -1.0376  0.0659  0.4868
  840MOL0     C15788   6.200   2.266   5.745 -0.7730 -0.4713 -0.2166
  840MOL0     C15789   6.225   2.377   5.825  0.3478 -0.0317 -0.2964
  840MOL0     O15790   6.344   2.408   5.868 -1.0708  0.1320 -0.4867
  840MOL0     C15791   6.401   2.305   5.947 -0.5151  0.1288  0.3188
  840MOL0     C15792   6.549   2.345   5.957  0.5691 -0.0279  0.4542
  840MOL0     C15793   6.623   2.264   5.851 -0.2829  0.0653  0.4419
  840MOL0     C15794   6.767   2.306   5.836 -0.7414  0.3300 -0.7780
  840MOL0     C15795   6.849   2.225   5.737 -0.7812 -0.5832  0.1765
  840MOL0     C15796   7.000   2.269   5.735  0.0263 -0.1355  0.5119
  840MOL0     C15797   7.086   2.211   5.628 -0.5241  0.4830 -0.0153
  840MOL0     C15798   7.090   2.058   5.617 -0.0363  0.5845  0.1771
  840MOL0     N15799   7.159   1.994   5.733  0.4341  0.8902 -0.4688
  840MOL0     C15800   7.292   1.967   5.746 -0.6364 -0.5966 -0.2279
  840MOL0     C15801   7.308   1.900   5.870 -0.4704  0.0432 -0.5505
  840MOL0     C15802   7.431   1.861   5.939  0.2286  0.4744 -0.8856
  840MOL0     C15803   7.477   1.717   5.910  1.1033 -0.6934  0.4146
  840MOL0     C15804   7.586   1.671   5.996 -0.4679 -0.5504 -0.6625
  840MOL0     C15805   7.610   1.520   6.009  0.5320 -0.3686  0.7391
  840MOL0     O15806   7.618   1.466   5.869 -0.2073 -0.1086 -0.4475
  840MOL0     C15807   7.741   1.463   5.812  0.0388 -0.7286  0.3398
  840MOL0     C15808   7.861   1.512   5.859  1.1456  0.1431  0.5914
  840MOL0     C15809   7.984   1.500   5.792  0.5508 -0.1044  0.3125
  840MOL0     C15810   8.103   1.572   5.855 -0.0008  0.6054  0.0153
  840MOL0     C15811   7.983   1.435   5.667 -0.2518 -0.3829  0.9241
  840MOL0     C15812   8.113   1.410   5.592 -0.7796  0.1971 -0.2641
  840MOL0     O15813   8.153   1.280   5.551  0.3619 -0.3989  0.1087
  840MOL0     C15814   8.262   1.281   5.471  0.3253 -0.0779 -0.3622
  840MOL0     C15815   8.246   1.234   5.344  0.0197  0.2325  1.3265
  840MOL0     C15816   8.356   1.199   5.265 -0.9837 -0.4193  0.8394
  840MOL0     C15817   8.480   1.225   5.307 -0.5978 -0.1656 -0.6625
  840MOL0     O15818   8.575   1.191   5.216  0.3177 -0.0405 -0.1563
  840MOL0     C15819   8.702   1.152   5.271  0.4345 -0.5068  0.4073
  840MOL0     C15820   8.794   1.076   5.163  0.0919 -0.2070  0.0978
  840MOL0     C15821   8.767   0.926   5.158  0.6312 -0.3497  0.5182
  840MOL0     C15822   8.850   0.863   5.047  0.1186 -0.4866  0.4035
  840MOL0     C15823   8.824   0.710   5.045 -0.8012 -0.1462  0.4701
  840MOL0     C15824   8.945   0.632   4.983  0.3390 -0.9311  0.4356
  840MOL0     C15825   8.929   0.481   4.960  0.8198  0.3420 -0.5103
  840MOL0     C15826   8.896   0.401   5.083  0.1918 -0.1622 -0.5206
  840MOL0    Cl15827   9.029   0.437   5.191 -0.1232  0.2910  0.1792
  840MOL0     C15828   8.502   1.285   5.435 -0.6292 -0.4181  0.7027
  840MOL0     C15829   8.392   1.307   5.517  0.4551  0.6189  0.0604
  840MOL0     O15830   8.176   1.514   5.568  0.4427  0.2185  0.0999
  840MOL0     C15831   7.867   1.389   5.610 -0.0318  0.1966 -1.1926
  840MOL0     C15832   7.746   1.403   5.683  0.0638 -0.1558  0.1696
  840MOL0     N15833   7.177   1.896   5.925  0.4017  0.3516  0.1726
  840MOL0     N15834   7.091   1.954   5.849  0.3875 -0.1425  0.3268
  840MOL0     C15835   6.114   2.455   5.867 -0.1809  0.1062  0.4718
  840MOL0     C15836   5.985   2.437   5.817 -0.4837  0.7954  0.0292
  840MOL0     C15837   5.635   2.145   5.700  0.6639  0.9534 -0.4374
  840MOL0     C15838   5.576   2.230   5.602  0.5912  0.5286 -0.2509
  840MOL0     C15839   5.448   2.209   5.561 -0.8751  0.2883  0.6044
  840MOL0     C15840   5.363   2.124   5.621 -0.8353  0.9343  0.0208
  840MOL0     O15841   5.235   2.133   5.579  0.1299 -0.4098 -0.9480
  840MOL0     C15842   5.138   2.051   5.635  0.2447  0.4476 -0.1800
  840MOL0     C15843   4.994   2.079   5.592 -0.2570  0.1481  0.2512
  840MOL0     C15844   4.883   1.987   5.654 -0.5082  0.1395  0.7656
  840MOL0     C15845   4.745   2.009   5.591  1.0199  0.3225 -0.4714
  840MOL0     C15846   4.742   1.938   5.464 -0.1308 -0.0645  0.3488
  840MOL0     C15847   4.752   1.881   5.354  0.4616 -0.0160 -0.0219
  840MOL0     C15848   5.413   2.040   5.724 -0.7331 -0.2557  0.5912
  840MOL0     C15849   5.549   2.044   5.760 -0.4141  0.1006  0.2206
  840MOL0     C15850   5.597   1.930   5.854 -1.0746  0.3086  0.5633
  840MOL0     H15851   6.061   2.166   5.619  2.1636  0.9761 -1.1671
  840MOL0     H15852   6.290   2.221   5.704 -1.3502 -0.2746 -1.7962
  840MOL0     H15853   6.387   2.204   5.910 -1.1463 -0.0714  1.0702
  840MOL0     H15854   6.362   2.306   6.049  0.1872 -0.6802  0.6054
  840MOL0     H15855   6.560   2.450   5.930  1.4979  0.0691  1.1494
  840MOL0     H15856   6.580   2.320   6.059 -0.3312  0.3111  0.8209
  840MOL0     H15857   6.611   2.157   5.871 -0.3700 -0.4173 -1.9357
  840MOL0     H15858   6.586   2.282   5.750  1.8543 -2.7224 -0.9846
  840MOL0     H15859   6.772   2.412   5.810 -1.0005  0.6682  0.5227
  840MOL0     H15860   6.816   2.299   5.934 -2.6767  1.1546  0.2908
  840MOL0     H15861   6.808   2.233   5.636  1.4071 -0.0819 -0.7364
  840MOL0     H15862   6.849   2.118   5.761 -3.2478 -0.4974  0.7760
  840MOL0     H15863   7.006   2.377   5.719 -2.7980  0.1910  1.1510
  840MOL0     H15864   7.043   2.255   5.835  0.1548  2.6259  0.9421
  840MOL0     H15865   7.190   2.244   5.634  0.7698 -2.9114 -1.1812
  840MOL0     H15866   7.039   2.241   5.533 -3.2269 -2.1657  0.3572
  840MOL0     H15867   6.990   2.018   5.600  0.5314 -0.2937 -1.3581
  840MOL0     H15868   7.140   2.024   5.526  3.3525  0.9777  1.7282
  840MOL0     H15869   7.363   2.002   5.672  1.5662 -0.8022  1.6748
  840MOL0     H15870   7.417   1.875   6.047  4.2871  0.7065 -0.2287
  840MOL0     H15871   7.514   1.929   5.918  1.9171 -0.1569  2.8241
  840MOL0     H15872   7.398   1.641   5.914  0.6698 -0.5067 -2.2498
  840MOL0     H15873   7.516   1.717   5.808  0.4524 -1.3575  0.1533
  840MOL0     H15874   7.684   1.712   5.968  0.4609 -1.2669  1.3314
  840MOL0     H15875   7.576   1.703   6.101  4.9028  1.7754 -0.5193
  840MOL0     H15876   7.699   1.497   6.068  0.9585 -2.2119 -0.5466
  840MOL0     H15877   7.531   1.465   6.061  1.3952  0.4937  3.1291
  840MOL0     H15878   7.863   1.565   5.954  0.4620 -2.5199  2.2091
  840MOL0     H15879   8.192   1.508   5.854  0.6347  1.4521 -1.6072
  840MOL0     H15880   8.090   1.604   5.959  0.8615  0.6910  0.1109
  840MOL0     H15881   8.125   1.660   5.793 -0.6453 -1.4176 -3.3080
  840MOL0     H15882   8.145   1.204   5.316 -0.1239  1.6426  0.2233
  840MOL0     H15883   8.346   1.153   5.167 -1.2959  1.6283 -0.1505
  840MOL0     H15884   8.748   1.248   5.295 -2.1897  1.3729 -1.4156
  840MOL0     H15885   8.700   1.090   5.361  3.5559 -1.5243 -0.0977
  840MOL0     H15886   8.798   1.116   5.061 -2.3515 -2.3166 -0.9210
  840MOL0     H15887   8.892   1.091   5.208  0.2682 -0.5362 -0.1715
  840MOL0     H15888   8.660   0.913   5.137 -0.3087  3.0714  2.4508
  840MOL0     H15889   8.791   0.888   5.258 -0.9141  0.9817  1.4385
  840MOL0     H15890   8.956   0.890   5.054  0.2591 -0.4184 -1.5127
  840MOL0     H15891   8.823   0.903   4.950  0.9928 -1.8218 -0.4339
  840MOL0     H15892   8.787   0.666   5.138  0.6744  2.9024  2.6738
  840MOL0     H15893   8.737   0.706   4.978 -0.6943 -0.0090  0.3204
  840MOL0     H15894   9.039   0.659   5.034  1.4300 -1.0761 -1.3948
  840MOL0     H15895   8.954   0.668   4.880 -0.4353 -1.2466  0.2524
  840MOL0     H15896   9.009   0.433   4.902  0.2524  0.6010 -1.5165
  840MOL0     H15897   8.843   0.467   4.894  1.1334 -1.0369 -0.6723
  840MOL0     H15898   8.893   0.293   5.066  1.1072 -0.1307 -0.9149
  840MOL0     H15899   8.802   0.443   5.123 -0.0809  1.6938 -2.8630
  840MOL0     H15900   8.603   1.295   5.472 -0.0760  1.2936 -1.1234
  840MOL0     H15901   8.405   1.353   5.615  0.7454 -1.5294  1.1069
  840MOL0     H15902   7.863   1.347   5.510 -1.2658 -1.0395 -0.6530
  840MOL0     H15903   7.657   1.363   5.634  1.2527 -1.2183 -1.2187
  840MOL0     H15904   6.129   2.534   5.941 -2.3385 -0.2055  1.2930
  840MOL0     H15905   5.903   2.498   5.853 -0.0011  0.0733  2.5092
  840MOL0     H15906   5.622   2.322   5.565 -1.1355  1.0035 -1.3391
  840MOL0     H15907   5.413   2.261   5.472 -1.6475 -2.5545 -0.8661
  840MOL0     H15908   5.171   1.952   5.602  2.2643  2.0356 -3.3980
  840MOL0     H15909   5.139   2.061   5.744 -3.8136  2.9738 -0.1354
  840MOL0     H15910   4.998   2.082   5.483  1.3269 -0.5480  0.2608
  840MOL0     H15911   4.979   2.185   5.615 -1.3778  0.3088 -1.1085
  840MOL0     H15912   4.903   1.880   5.641  0.2037  0.1954  1.3442
  840MOL0     H15913   4.871   1.997   5.762  3.0058 -1.4946  1.4424
  840MOL0     H15914   4.719   2.115   5.584  1.6871  0.4438 -1.3073
  840MOL0     H15915   4.674   1.956   5.655  1.4907  0.3642  0.0921
  840MOL0     H15916   4.753   1.816   5.269  1.0382 -1.5400  1.1118
  840MOL0     H15917   5.354   1.968   5.781  1.2497 -0.3040  2.7541
  840MOL0     H15918   5.656   1.857   5.797 -0.2875  0.9086  0.5940
  840MOL0     H15919   5.663   1.968   5.932 -0.5542  2.1597 -0.7100
  840MOL0     H15920   5.512   1.876   5.895 -0.2974  1.0308  3.3622
  841MOL0     O15921   1.052   1.333   0.287  0.4229  0.1207  0.0355
  841MOL0     C15922   1.034   1.353   0.409 -0.3963  0.7642 -0.1908
  841MOL0     O15923   1.125   1.403   0.492 -0.2322 -0.3671 -0.0489
  841MOL0     C15924   1.235   1.440   0.426  0.3100  0.4707 -0.7105
  841MOL0     C15925   1.347   1.361   0.424  0.3326 -0.9474 -0.4150
  841MOL0     C15926   1.467   1.413   0.371 -0.2300  0.0863 -1.1799
  841MOL0     C15927   1.467   1.533   0.309  0.1141  0.4516  0.2579
  841MOL0     O15928   1.576   1.595   0.253  0.0201  0.0781 -0.3579
  841MOL0     C15929   1.707   1.526   0.248  0.0484  0.3114 -0.0029
  841MOL0     C15930   1.810   1.609   0.181  0.4272 -0.0899 -0.1833
  841MOL0     C15931   1.952   1.551   0.181 -0.3468 -0.1249  0.0708
  841MOL0     C15932   2.059   1.654   0.155 -0.0263 -0.8303 -0.3247
  841MOL0     C15933   2.195   1.579   0.153 -0.4918  0.1845 -0.7084
  841MOL0     C15934   2.304   1.674   0.121  0.4354 -0.1120  0.4661
  841MOL0     C15935   2.439   1.606   0.104  0.2188 -0.2103 -0.1530
  841MOL0     C15936   2.546   1.722   0.066 -0.7234 -0.5221 -0.4738
  841MOL0     N15937   2.682   1.677   0.030 -0.0973  0.3743  0.1797
  841MOL0     C15938   2.731   1.558   0.077 -0.0028 -0.6851  0.6080
  841MOL0     C15939   2.865   1.564   0.029  1.0837  0.9745 -0.0888
  841MOL0     C15940   2.963   1.444   0.029  0.0621 -0.5063 -0.6391
  841MOL0     C15941   3.084   1.470   0.122  0.3009  1.6741 -0.1275
  841MOL0     C15942   3.170   1.341   0.117 -0.3695 -0.3789 -0.0868
  841MOL0     C15943   3.326   1.377   0.149  0.7745 -0.2637  1.3047
  841MOL0     O15944   3.369   1.452   0.036  0.0747  0.4353  0.2071
  841MOL0     C15945   3.507   1.446   0.011 -0.4546  0.0917  0.2840
  841MOL0     C15946   3.558   1.376  -0.105 -0.0233 -0.6060 -0.7472
  841MOL0     C15947   3.695   1.371  -0.139  0.0662  0.8051 -0.0344
  841MOL0     C15948   3.734   1.299  -0.272  0.4661  0.1021  1.2537
  841MOL0     C15949   3.796   1.448  -0.065  0.3189 -0.0624  0.3104
  841MOL0     C15950   3.939   1.460  -0.090 -0.4466 -0.6419  0.1681
  841MOL0     O15951   4.014   1.517   0.013  0.0118 -0.1259 -0.6524
  841MOL0     C15952   4.137   1.568  -0.026  0.5092 -0.7450 -0.7450
  841MOL0     C15953   4.169   1.701  -0.003 -0.4098 -0.3221  1.0837
  841MOL0     C15954   4.302   1.742  -0.018 -0.4492 -0.0972 -0.3561
  841MOL0     C15955   4.403   1.657  -0.060  0.5114  0.2248 -0.5889
  841MOL0     O15956   4.526   1.713  -0.063 -0.1328  0.2912 -0.1866
  841MOL0     C15957   4.635   1.648  -0.133 -0.3844  0.1218 -0.8220
  841MOL0     C15958   4.761   1.735  -0.106 -0.0591  0.6177  0.2304
  841MOL0     C15959   4.812   1.738   0.039  0.3121  0.4075 -0.0565
  841MOL0     C15960   4.935   1.832   0.034 -0.1348 -0.4668  0.6118
  841MOL0     C15961   5.007   1.860   0.163  0.5682 -0.4153 -0.8490
  841MOL0     C15962   4.912   1.918   0.271 -0.3770  0.8752  0.3223
  841MOL0     C15963   4.979   1.902   0.409 -0.3058  0.1282  0.4211
  841MOL0     C15964   4.883   1.857   0.518 -0.5884  0.6587 -0.5238
  841MOL0    Cl15965   4.844   1.685   0.503  0.2476  0.3637  0.0416
  841MOL0     C15966   4.363   1.526  -0.090  0.5468 -0.1871 -0.7169
  841MOL0     C15967   4.234   1.475  -0.063 -0.4284 -0.5155 -0.3152
  841MOL0     O15968   3.978   1.424  -0.198  0.1759 -0.1693  0.5142
  841MOL0     C15969   3.745   1.506   0.058  0.4703  0.2188  0.7145
  841MOL0     C15970   3.607   1.507   0.091 -0.2603  0.7557  0.8738
  841MOL0     N15971   2.884   1.687  -0.030  0.2525 -0.3857  0.3750
  841MOL0     N15972   2.772   1.754  -0.035 -0.5772  0.2837  0.0183
  841MOL0     C15973   1.352   1.602   0.293 -0.9100 -0.3324  0.1470
  841MOL0     C15974   1.240   1.559   0.353 -0.0648  0.7898  0.2652
  841MOL0     C15975   0.896   1.334   0.463 -0.0666 -0.6246  0.0641
  841MOL0     C15976   0.786   1.338   0.374  0.4978 -0.9280  0.2034
  841MOL0     C15977   0.655   1.334   0.416 -0.9457 -0.4984 -0.8135
  841MOL0     C15978   0.628   1.321   0.551 -0.6344 -0.3967  0.0689
  841MOL0     O15979   0.496   1.323   0.582  0.6092  0.5053 -0.4664
  841MOL0     C15980   0.449   1.338   0.714 -0.3139 -0.8450 -1.8322
  841MOL0     C15981   0.305   1.314   0.729  0.5628 -0.4965  0.3339
  841MOL0     C15982   0.278   1.181   0.798  0.3935 -0.2731 -0.3792
  841MOL0     C15983   0.128   1.174   0.842 -0.3806  0.3364  0.2495
  841MOL0     C15984   0.115   1.066   0.947  0.2742 -0.1384  0.6746
  841MOL0     C15985   0.104   0.984   1.033  0.4577  1.0744  0.2314
  841MOL0     C15986   0.737   1.317   0.638 -0.4188 -0.8690  0.0569
  841MOL0     C15987   0.868   1.323   0.601  0.0252  0.8495 -0.0239
  841MOL0     C15988   0.963   1.295   0.704 -0.7724  0.3981 -0.3701
  841MOL0     H15989   1.361   1.267   0.477  0.3901 -0.5274  0.3170
  841MOL0     H15990   1.558   1.355   0.382  0.0828  0.2667 -2.6356
  841MOL0     H15991   1.695   1.428   0.201 -1.4710  0.8065 -0.7399
  841MOL0     H15992   1.733   1.514   0.354  0.5243 -1.2030 -0.2629
  841MOL0     H15993   1.766   1.616   0.080 -0.4912 -2.6128 -0.0465
  841MOL0     H15994   1.799   1.711   0.218 -3.2668 -0.0599 -0.9760
  841MOL0     H15995   1.960   1.513   0.283  0.3967  1.6888  0.7339
  841MOL0     H15996   1.953   1.468   0.110 -0.3881  0.5048 -0.6811
  841MOL0     H15997   2.045   1.714   0.066  2.4757  1.1234  0.4869
  841MOL0     H15998   2.061   1.731   0.232 -3.8075 -0.0190 -0.8283
  841MOL0     H15999   2.197   1.500   0.077 -0.1421  2.0658 -2.7530
  841MOL0     H16000   2.222   1.526   0.245  0.4730  1.1817 -0.3982
  841MOL0     H16001   2.270   1.737   0.038 -0.0251  0.3530  0.9986
  841MOL0     H16002   2.309   1.751   0.199  0.5896  0.6915 -0.3175
  841MOL0     H16003   2.434   1.537   0.020  0.1727  0.7793 -0.9949
  841MOL0     H16004   2.458   1.541   0.190  0.0157 -0.9186 -0.6378
  841MOL0     H16005   2.517   1.782  -0.020  2.1898  0.3642 -0.9320
  841MOL0     H16006   2.565   1.788   0.152  1.3171  0.0213 -1.2843
  841MOL0     H16007   2.682   1.471   0.118  0.6178 -2.2038 -1.6509
  841MOL0     H16008   2.999   1.429  -0.073  0.4492  1.5388 -0.8553
  841MOL0     H16009   2.902   1.361   0.065 -0.8917 -0.9090 -3.0102
  841MOL0     H16010   3.148   1.546   0.076  1.9762  0.6124  0.3829
  841MOL0     H16011   3.056   1.490   0.226  2.9419  1.2799  0.7311
  841MOL0     H16012   3.124   1.281   0.196 -0.5320 -1.2571 -0.8310
  841MOL0     H16013   3.168   1.301   0.015 -2.0221 -0.0992 -0.1894
  841MOL0     H16014   3.353   1.440   0.234  1.2377  1.0636  0.2206
  841MOL0     H16015   3.382   1.283   0.156 -1.1996 -1.7158 -0.9107
  841MOL0     H16016   3.483   1.328  -0.167 -1.8496 -0.7813  1.4721
  841MOL0     H16017   3.820   1.234  -0.252  1.5294  1.4264  1.1213
  841MOL0     H16018   3.772   1.368  -0.348  1.2575 -1.2814  0.3443
  841MOL0     H16019   3.654   1.239  -0.317 -0.5047  2.5316 -0.5135
  841MOL0     H16020   4.087   1.766   0.026 -0.9745 -1.5270  2.3011
  841MOL0     H16021   4.329   1.847  -0.010 -2.4621  0.8806 -3.9635
  841MOL0     H16022   4.653   1.546  -0.097 -2.1641 -0.9440 -2.7834
  841MOL0     H16023   4.619   1.627  -0.239  1.9254  1.7318 -1.5508
  841MOL0     H16024   4.832   1.691  -0.176 -1.9746 -2.3164 -0.0419
  841MOL0     H16025   4.732   1.839  -0.123  0.2394  0.6991  0.2239
  841MOL0     H16026   4.842   1.636   0.064  2.4866  1.1117  0.4067
  841MOL0     H16027   4.730   1.768   0.105  0.3481 -3.5703  2.0719
  841MOL0     H16028   4.906   1.928  -0.009 -1.6078 -0.3190  1.8562
  841MOL0     H16029   5.002   1.776  -0.032  0.3313 -2.9004  2.9840
  841MOL0     H16030   5.050   1.767   0.201  1.6072  0.4681  0.2232
  841MOL0     H16031   5.086   1.932   0.139  0.8483 -1.1917 -2.3157
  841MOL0     H16032   4.814   1.870   0.273 -0.3945  0.9094  2.7610
  841MOL0     H16033   4.893   2.022   0.243 -6.2651 -0.5071 -2.2926
  841MOL0     H16034   5.021   1.998   0.441 -0.4330 -0.2692  1.8873
  841MOL0     H16035   5.063   1.831   0.405 -1.2896 -1.0034 -1.3426
  841MOL0     H16036   4.788   1.912   0.515 -1.5573 -1.0243 -1.8872
  841MOL0     H16037   4.939   1.875   0.611  1.2764  1.4539 -1.7296
  841MOL0     H16038   4.446   1.461  -0.118 -1.1826 -2.7180 -0.3864
  841MOL0     H16039   4.207   1.370  -0.061 -5.4908  0.3842 -3.4488
  841MOL0     H16040   3.815   1.564   0.118  1.5890 -0.5454  0.1903
  841MOL0     H16041   3.585   1.566   0.179  0.1469  1.3319  0.5967
  841MOL0     H16042   1.358   1.695   0.238  0.8842 -0.9539 -0.7978
  841MOL0     H16043   1.146   1.612   0.351  0.1862  1.2336 -0.4641
  841MOL0     H16044   0.804   1.350   0.268  0.0705 -1.0958  0.1095
  841MOL0     H16045   0.574   1.355   0.347 -0.1268 -0.4020 -1.7652
  841MOL0     H16046   0.507   1.280   0.786  0.2248  2.6309  0.7357
  841MOL0     H16047   0.462   1.442   0.743 -2.6765 -0.2604 -2.6284
  841MOL0     H16048   0.257   1.320   0.631  0.0099 -1.3593  0.5336
  841MOL0     H16049   0.269   1.395   0.793 -0.9535 -0.4326 -0.5398
  841MOL0     H16050   0.309   1.095   0.738  1.4348  0.3148 -0.7068
  841MOL0     H16051   0.328   1.190   0.895 -1.7405  0.4154  0.7224
  841MOL0     H16052   0.066   1.141   0.759  1.9995 -3.9305 -0.1468
  841MOL0     H16053   0.096   1.273   0.877  1.8279  0.7796  1.1934
  841MOL0     H16054   0.094   0.903   1.103  0.7941  1.5674  0.8622
  841MOL0     H16055   0.708   1.301   0.742 -2.0921  3.3260  0.4276
  841MOL0     H16056   1.028   1.217   0.663  0.5447  2.2790 -2.0635
  841MOL0     H16057   1.021   1.383   0.735  1.9428 -0.8105 -1.6771
  841MOL0     H16058   0.918   1.251   0.793  0.4818  0.5832  0.3934
  842MOL0     O16059   8.853   3.175   7.342 -0.2496 -0.1879 -0.9157
  842MOL0     C16060   8.744   3.200   7.388 -0.3085  0.7326 -0.5800
  842MOL0     O16061   8.723   3.242   7.515  0.0554 -0.2028 -0.4230
  842MOL0     C16062   8.824   3.243   7.603  0.0151 -0.2582 -0.0309
  842MOL0     C16063   8.857   3.359   7.666  0.2228 -0.1218 -0.9087
  842MOL0     C16064   8.966   3.371   7.749 -0.1795 -0.0857  0.3833
  842MOL0     C16065   9.045   3.256   7.771  0.0043  0.0620 -0.4935
  842MOL0     O16066   9.153   3.278   7.848  0.3934  0.0793 -0.2845
  842MOL0     C16067   9.263   3.180   7.858  0.2005 -0.7644  0.2300
  842MOL0     C16068   9.373   3.245   7.941 -0.5964  0.2188 -1.1858
  842MOL0     C16069   9.419   3.383   7.894  0.2687  0.1359  0.6322
  842MOL0     C16070   9.522   3.436   7.984 -0.6034  1.2797 -0.5515
  842MOL0     C16071   9.606   3.550   7.925 -0.8543 -0.0729 -0.0228
  842MOL0     C16072   9.687   3.619   8.043  0.1429 -0.0736  0.6322
  842MOL0     C16073   9.798   3.539   8.094  0.1138 -0.2894 -0.5509
  842MOL0     C16074   9.884   3.615   8.189 -0.4308 -0.2673 -0.3557
  842MOL0     N16075  10.021   3.553   8.200  0.6541 -0.5391  0.2443
  842MOL0     C16076  10.071   3.429   8.215 -0.7268 -0.3057 -0.3018
  842MOL0     C16077  10.202   3.445   8.246 -0.8287 -0.3045  0.1307
  842MOL0     C16078  10.295   3.325   8.263  0.0444 -1.3432 -0.0238
  842MOL0     C16079  10.449   3.380   8.296  0.5820  0.4509 -0.0156
  842MOL0     C16080  10.549   3.267   8.282 -0.4938 -0.4209 -0.6849
  842MOL0     C16081  10.693   3.328   8.292  0.0746  0.9481 -0.4906
  842MOL0     O16082  10.724   3.373   8.426  0.1014 -0.2071 -1.1612
  842MOL0     C16083  10.836   3.454   8.433 -1.0649  0.7274  0.0263
  842MOL0     C16084  10.849   3.536   8.549  0.4640  0.6507  0.2374
  842MOL0     C16085  10.961   3.616   8.571 -0.8097 -0.6133 -0.8458
  842MOL0     C16086  10.961   3.695   8.703 -0.1785 -0.3783 -0.2522
  842MOL0     C16087  11.068   3.606   8.482 -1.2567  0.0414 -0.1753
  842MOL0     C16088  11.198   3.676   8.496  0.9710 -0.1886 -0.7437
  842MOL0     O16089  11.313   3.616   8.509 -0.1448 -0.8257  0.0157
  842MOL0     C16090  11.420   3.698   8.552 -0.5623  0.1613  0.2037
  842MOL0     C16091  11.422   3.744   8.686 -0.0471  0.8394 -0.0641
  842MOL0     C16092  11.544   3.796   8.743  0.1568  0.4888  0.0113
  842MOL0     C16093  11.661   3.817   8.667 -0.2048  0.2441  0.3425
  842MOL0     O16094  11.771   3.869   8.718 -0.1197  0.4743  0.1368
  842MOL0     C16095  11.753   3.972   8.819  0.1354  0.3398 -0.0906
  842MOL0     C16096  11.869   4.067   8.834 -0.3468  0.0299  0.7626
  842MOL0     C16097  12.005   4.008   8.873  0.4912  0.3787 -0.7922
  842MOL0     C16098  12.111   4.101   8.811 -0.1587  0.2814  0.4233
  842MOL0     C16099  12.248   4.034   8.802  0.0173 -0.3061  0.0527
  842MOL0     C16100  12.357   4.126   8.752 -0.5758 -0.7469  0.2369
  842MOL0     C16101  12.480   4.029   8.716  0.3464  0.3855 -0.1610
  842MOL0     C16102  12.614   4.108   8.718  0.2604  0.7518  0.1103
  842MOL0    Cl16103  12.736   4.000   8.655  0.2795 -0.0673  0.5256
  842MOL0     C16104  11.657   3.773   8.533  0.1005 -0.1041  0.0614
  842MOL0     C16105  11.536   3.707   8.472  0.4074  0.8777  0.5205
  842MOL0     O16106  11.188   3.795   8.499  0.1601  0.1986  0.2496
  842MOL0     C16107  11.072   3.510   8.377 -0.3223  0.7191 -0.3837
  842MOL0     C16108  10.954   3.443   8.353 -0.1092 -0.6318 -0.6601
  842MOL0     N16109  10.232   3.579   8.233  0.0991  0.1002 -0.0350
  842MOL0     N16110  10.125   3.643   8.208  0.2782  0.4040 -0.1167
  842MOL0     C16111   9.011   3.136   7.719  0.7199  0.1548 -0.4496
  842MOL0     C16112   8.894   3.126   7.641 -0.0617  0.1685 -0.9096
  842MOL0     C16113   8.624   3.204   7.297 -0.4629  0.5642  0.5534
  842MOL0     C16114   8.504   3.261   7.352 -0.4528 -0.0752 -0.1018
  842MOL0     C16115   8.384   3.262   7.278 -0.5120 -0.5483 -0.3134
  842MOL0     C16116   8.386   3.222   7.143  0.5358 -0.3979  0.3004
  842MOL0     O16117   8.282   3.210   7.058  0.5653 -0.3156  0.0803
  842MOL0     C16118   8.157   3.261   7.097  0.4419 -0.0686 -0.0863
  842MOL0     C16119   8.052   3.283   6.989  0.0299 -0.2340 -0.5009
  842MOL0     C16120   8.006   3.153   6.915  0.5245  0.8465  0.5013
  842MOL0     C16121   7.924   3.067   7.006 -0.5693  0.1401 -0.3247
  842MOL0     C16122   8.012   2.956   7.057  0.1388 -0.2081 -0.1484
  842MOL0     C16123   8.070   2.859   7.107 -0.1871  0.0095  0.4778
  842MOL0     C16124   8.504   3.167   7.089 -0.6596 -0.3889 -0.2717
  842MOL0     C16125   8.627   3.162   7.158 -0.0191 -0.0588 -0.3824
  842MOL0     C16126   8.744   3.127   7.078  0.0993 -0.6204 -0.4536
  842MOL0     H16127   8.800   3.451   7.663 -1.8378 -1.3112 -0.5154
  842MOL0     H16128   8.980   3.470   7.792  0.7353 -0.1520  0.2508
  842MOL0     H16129   9.294   3.170   7.754 -1.2510  0.0473 -0.3166
  842MOL0     H16130   9.227   3.086   7.901 -1.8630 -0.5254 -0.8383
  842MOL0     H16131   9.350   3.239   8.048 -1.5588  0.7189 -1.3548
  842MOL0     H16132   9.463   3.186   7.921 -0.1913  0.3671  0.1290
  842MOL0     H16133   9.465   3.379   7.794  1.1882 -0.3346  1.0642
  842MOL0     H16134   9.341   3.460   7.902  0.3317  0.0619  2.2262
  842MOL0     H16135   9.465   3.475   8.068 -2.5461 -2.2520 -0.0308
  842MOL0     H16136   9.591   3.362   8.026 -0.0605  1.7299 -0.6299
  842MOL0     H16137   9.535   3.621   7.882  0.2856  1.1206  0.0008
  842MOL0     H16138   9.678   3.519   7.849  1.1072  1.0950  1.2831
  842MOL0     H16139   9.728   3.712   8.005 -1.3566  0.1903 -0.4201
  842MOL0     H16140   9.610   3.654   8.113  0.5511 -1.4519  1.8442
  842MOL0     H16141   9.867   3.515   8.013  0.6613  3.0709 -1.2404
  842MOL0     H16142   9.766   3.443   8.136  0.5321  0.4824  1.6630
  842MOL0     H16143   9.898   3.717   8.153 -2.0091 -0.4336 -1.5511
  842MOL0     H16144   9.838   3.619   8.288 -1.0327  2.5064 -0.6546
  842MOL0     H16145  10.022   3.336   8.188 -2.3008 -0.3453  2.3268
  842MOL0     H16146  10.288   3.268   8.170  0.4531  1.1895 -1.7053
  842MOL0     H16147  10.258   3.270   8.350  2.7130 -0.3324  1.9065
  842MOL0     H16148  10.476   3.457   8.223  1.5301  2.3124  2.1441
  842MOL0     H16149  10.439   3.422   8.397 -0.5093 -1.0467  0.5346
  842MOL0     H16150  10.524   3.179   8.343  2.3126 -2.0669 -1.7345
  842MOL0     H16151  10.546   3.240   8.176  3.0610 -2.2998 -0.4423
  842MOL0     H16152  10.763   3.249   8.264 -0.6733 -0.6774  1.9052
  842MOL0     H16153  10.710   3.408   8.220 -2.3420  1.3587 -0.7118
  842MOL0     H16154  10.762   3.530   8.614  0.1017 -1.7508 -0.3551
  842MOL0     H16155  11.015   3.787   8.680  1.2838 -1.4585 -1.3571
  842MOL0     H16156  11.020   3.644   8.779  3.3307 -0.0995 -2.5435
  842MOL0     H16157  10.856   3.698   8.733 -0.0023 -1.5171  0.5734
  842MOL0     H16158  11.342   3.729   8.757  0.5489 -1.7989  0.1554
  842MOL0     H16159  11.546   3.821   8.849  2.5220  1.5395 -0.2238
  842MOL0     H16160  11.675   4.042   8.789 -0.0000 -0.1966 -1.0498
  842MOL0     H16161  11.739   3.931   8.919  2.3875  1.6707  0.8548
  842MOL0     H16162  11.872   4.130   8.744  0.3255  0.0053  0.7685
  842MOL0     H16163  11.843   4.132   8.918 -1.0034 -1.3903  1.7122
  842MOL0     H16164  12.039   3.914   8.829  4.0873  1.7171 -1.1879
  842MOL0     H16165  12.019   4.002   8.981  2.5011 -1.0429 -1.0839
  842MOL0     H16166  12.115   4.190   8.874  1.3996  0.6111 -0.0902
  842MOL0     H16167  12.086   4.134   8.710 -0.4765 -0.2284  0.3306
  842MOL0     H16168  12.286   4.007   8.901  2.0243  3.4395  0.4542
  842MOL0     H16169  12.244   3.951   8.731 -1.5971  0.3633 -0.6892
  842MOL0     H16170  12.375   4.200   8.830 -2.5499 -0.1888  0.2043
  842MOL0     H16171  12.319   4.180   8.665 -3.0340 -0.3504  1.4831
  842MOL0     H16172  12.462   3.991   8.615  1.2697 -1.4069  0.3119
  842MOL0     H16173  12.486   3.938   8.776 -2.9365 -0.4362 -0.8782
  842MOL0     H16174  12.630   4.147   8.818 -1.5077  3.6866 -0.6236
  842MOL0     H16175  12.609   4.185   8.640 -0.8086 -2.1473 -2.9119
  842MOL0     H16176  11.756   3.770   8.487  1.0541 -0.2663  2.0059
  842MOL0     H16177  11.531   3.653   8.378  2.6813 -4.2114  2.9788
  842MOL0     H16178  11.151   3.491   8.305  4.2649  1.7496  3.8105
  842MOL0     H16179  10.942   3.365   8.278 -1.0518 -0.5577 -0.5925
  842MOL0     H16180   9.067   3.045   7.735  1.5802  0.9308  1.1929
  842MOL0     H16181   8.861   3.026   7.612  3.8435 -0.8723 -2.3074
  842MOL0     H16182   8.498   3.293   7.456 -0.9192  0.7739 -0.3870
  842MOL0     H16183   8.296   3.302   7.328  1.5163 -1.4606  4.5809
  842MOL0     H16184   8.114   3.191   7.169  1.4618 -1.4271 -0.7495
  842MOL0     H16185   8.175   3.353   7.154 -0.9178 -1.0266  2.0094
  842MOL0     H16186   8.092   3.351   6.913  1.1311 -0.9578 -0.5943
  842MOL0     H16187   7.967   3.341   7.027  0.6350  1.0670 -1.0752
  842MOL0     H16188   7.946   3.196   6.834  1.3213  1.1374  0.0540
  842MOL0     H16189   8.092   3.108   6.865 -1.1365 -0.6350 -1.2103
  842MOL0     H16190   7.839   3.017   6.958 -0.6187 -1.3550  1.2161
  842MOL0     H16191   7.886   3.136   7.082 -0.2004 -0.1959  0.1717
  842MOL0     H16192   8.144   2.791   7.145  1.0920  0.7805 -0.5323
  842MOL0     H16193   8.497   3.130   6.987 -1.5485 -1.9053  0.3009
  842MOL0     H16194   8.787   3.033   7.114 -0.1501 -0.2253  0.9332
  842MOL0     H16195   8.708   3.119   6.975  0.5642 -0.6135 -0.6187
  842MOL0     H16196   8.815   3.210   7.076 -0.5510 -0.0067  0.6217
  843MOL0     O16197   4.338   6.901   9.312 -0.6020  0.6190 -0.3400
  843MOL0     C16198   4.273   6.816   9.376 -0.4124  0.4017  0.0544
  843MOL0     O16199   4.318   6.732   9.471  0.3596 -0.3756  0.0742
  843MOL0     C16200   4.455   6.735   9.499  0.2509  0.6095 -0.0418
  843MOL0     C16201   4.499   6.729   9.631  0.2280 -0.0469  0.3212
  843MOL0     C16202   4.627   6.713   9.670  0.4321  0.0228 -0.3025
  843MOL0     C16203   4.724   6.702   9.570  0.6496  0.7891 -0.3290
  843MOL0     O16204   4.858   6.672   9.611 -0.4531  0.4732 -0.3263
  843MOL0     C16205   4.940   6.592   9.530  0.9606 -0.3941  0.4343
  843MOL0     C16206   5.057   6.539   9.614  1.1052 -0.1236  0.4037
  843MOL0     C16207   5.174   6.510   9.520 -0.0505 -0.0421 -0.2080
  843MOL0     C16208   5.291   6.497   9.610  0.3628 -0.0085  0.4268
  843MOL0     C16209   5.421   6.485   9.533  0.0670 -0.5510  0.7522
  843MOL0     C16210   5.546   6.477   9.616  0.4008  0.4949  1.3231
  843MOL0     C16211   5.664   6.426   9.538  0.5263 -0.0465  0.5462
  843MOL0     C16212   5.702   6.526   9.429  0.3278 -0.7103 -0.4684
  843MOL0     N16213   5.818   6.486   9.353 -0.0808  0.3886 -0.1240
  843MOL0     C16214   5.925   6.560   9.326  0.2807  0.4148  0.5223
  843MOL0     C16215   6.009   6.486   9.249 -0.1917 -0.2524  0.0033
  843MOL0     C16216   6.141   6.539   9.185 -0.4268  0.1050  0.3075
  843MOL0     C16217   6.269   6.510   9.266 -0.2691 -0.0819 -0.1752
  843MOL0     C16218   6.388   6.598   9.226 -0.9896  0.1486 -0.3708
  843MOL0     C16219   6.514   6.554   9.287  0.0956 -1.2063 -0.5195
  843MOL0     O16220   6.637   6.622   9.257  1.1011  0.3424  0.1900
  843MOL0     C16221   6.756   6.577   9.305  0.4094 -0.6462  0.5192
  843MOL0     C16222   6.777   6.470   9.397 -0.1703  0.0420  0.3037
  843MOL0     C16223   6.904   6.436   9.453  0.2499 -0.3848  0.6903
  843MOL0     C16224   6.901   6.316   9.548  0.5040 -0.1663 -0.5794
  843MOL0     C16225   7.014   6.506   9.398  0.4406  0.3673 -0.4134
  843MOL0     C16226   7.156   6.468   9.424 -0.4582  0.1049  0.5119
  843MOL0     O16227   7.256   6.550   9.371  0.9276  0.0582  0.3973
  843MOL0     C16228   7.386   6.511   9.387  0.2248  0.3877 -0.7784
  843MOL0     C16229   7.476   6.599   9.455  0.2119  0.4225 -0.6153
  843MOL0     C16230   7.611   6.570   9.464  0.0014  0.0120 -0.4564
  843MOL0     C16231   7.657   6.438   9.429  1.1348 -0.3757  0.6257
  843MOL0     O16232   7.790   6.405   9.426  0.5704 -0.2518 -0.2509
  843MOL0     C16233   7.836   6.287   9.484  0.4264 -0.3923  0.2794
  843MOL0     C16234   7.986   6.291   9.507  0.5801 -0.7628  0.0018
  843MOL0     C16235   8.056   6.169   9.440 -0.5546 -0.4496 -0.4261
  843MOL0     C16236   8.204   6.212   9.453  0.0162  0.4865  0.1654
  843MOL0     C16237   8.288   6.102   9.389 -0.2568 -0.2105 -0.8883
  843MOL0     C16238   8.336   6.002   9.495 -0.2334  0.1854  0.2383
  843MOL0     C16239   8.401   5.882   9.429  0.1424 -0.3890 -0.1409
  843MOL0     C16240   8.464   5.791   9.532 -0.1367 -0.1671 -0.5542
  843MOL0    Cl16241   8.583   5.873   9.631  0.1310 -0.0987 -0.2335
  843MOL0     C16242   7.566   6.347   9.371  0.0313 -0.1946  0.0696
  843MOL0     C16243   7.432   6.388   9.350 -0.1580  0.2271  0.0053
  843MOL0     O16244   7.179   6.369   9.494  0.3119 -0.0082  0.1539
  843MOL0     C16245   6.992   6.616   9.319 -0.5335  0.0399  0.5166
  843MOL0     C16246   6.866   6.660   9.271  0.4818 -0.6275 -0.7712
  843MOL0     N16247   5.955   6.359   9.247 -0.5374 -0.8460  0.6900
  843MOL0     N16248   5.835   6.356   9.303 -0.7884 -0.6401  0.7534
  843MOL0     C16249   4.687   6.703   9.433 -0.2648 -0.5253 -0.0542
  843MOL0     C16250   4.550   6.719   9.403  0.3584  0.1417 -0.4038
  843MOL0     C16251   4.143   6.778   9.325  0.1607 -0.4583 -0.3035
  843MOL0     C16252   4.144   6.739   9.190 -0.0218  1.0710  0.1991
  843MOL0     C16253   4.028   6.704   9.133 -0.0474  0.1270 -0.0153
  843MOL0     C16254   3.903   6.712   9.195  0.2979 -0.4916  0.0283
  843MOL0     O16255   3.790   6.668   9.127  0.0187 -0.3978 -0.3850
  843MOL0     C16256   3.680   6.766   9.100 -0.4962  0.0231  0.3834
  843MOL0     C16257   3.542   6.719   9.155  0.3796 -0.3498 -0.6488
  843MOL0     C16258   3.548   6.663   9.298 -0.1541 -0.0385 -0.2426
  843MOL0     C16259   3.405   6.607   9.327 -0.1794  0.1814  0.6161
  843MOL0     C16260   3.401   6.550   9.464 -0.2008 -0.3097 -0.5752
  843MOL0     C16261   3.396   6.498   9.571 -0.1572 -0.7387 -0.8755
  843MOL0     C16262   3.898   6.756   9.328 -0.7795  0.0212 -0.1729
  843MOL0     C16263   4.020   6.789   9.396  0.2782  0.1356 -0.0627
  843MOL0     C16264   4.007   6.841   9.540  0.6335 -0.1431  0.1921
  843MOL0     H16265   4.423   6.740   9.708 -1.0624  1.3702 -1.0839
  843MOL0     H16266   4.658   6.688   9.771  4.2046  1.5095 -0.9185
  843MOL0     H16267   4.982   6.656   9.453 -2.7580  1.9647  0.1139
  843MOL0     H16268   4.890   6.512   9.475 -1.0721  2.0839 -1.5536
  843MOL0     H16269   5.093   6.618   9.680  1.7124 -0.1019  0.0461
  843MOL0     H16270   5.025   6.457   9.679 -0.3247  0.7307  0.8096
  843MOL0     H16271   5.159   6.418   9.463 -2.3968  0.7349 -0.9782
  843MOL0     H16272   5.195   6.590   9.449  1.3611  0.8042  1.1017
  843MOL0     H16273   5.291   6.582   9.678 -1.0278  0.8138 -0.5508
  843MOL0     H16274   5.287   6.409   9.675 -2.2847  0.1810  0.6323
  843MOL0     H16275   5.428   6.572   9.467  0.8252 -1.1038  0.0869
  843MOL0     H16276   5.404   6.398   9.469 -0.3328  0.9134 -1.2203
  843MOL0     H16277   5.574   6.576   9.654 -0.4684  1.6057 -0.7937
  843MOL0     H16278   5.520   6.407   9.695 -0.0270 -1.0147 -0.1210
  843MOL0     H16279   5.632   6.327   9.504 -0.4914 -0.0464  1.4421
  843MOL0     H16280   5.743   6.413   9.613  0.9876  1.2548  0.3236
  843MOL0     H16281   5.622   6.536   9.355 -1.1593 -0.2445  1.1346
  843MOL0     H16282   5.719   6.627   9.467  2.0494 -0.3656 -1.9850
  843MOL0     H16283   5.932   6.659   9.368  0.9819  1.7963 -2.5398
  843MOL0     H16284   6.124   6.647   9.175 -1.4627  0.0115  0.8502
  843MOL0     H16285   6.151   6.503   9.082  0.1278  2.5479 -0.5617
  843MOL0     H16286   6.253   6.532   9.372  1.7162 -0.6569  0.2936
  843MOL0     H16287   6.302   6.405   9.264 -1.0674 -0.3358 -0.5112
  843MOL0     H16288   6.392   6.609   9.117  0.1552 -0.3407 -0.3901
  843MOL0     H16289   6.359   6.700   9.255  0.4274  0.2130  0.9437
  843MOL0     H16290   6.515   6.566   9.395  2.9490  0.5397 -0.6250
  843MOL0     H16291   6.524   6.449   9.256  1.3525 -0.9578 -1.0068
  843MOL0     H16292   6.689   6.412   9.420  0.1817 -1.1220 -1.0988
  843MOL0     H16293   6.923   6.339   9.653 -1.6257  1.6318 -0.4358
  843MOL0     H16294   6.974   6.244   9.510  1.5760  1.0000 -0.8104
  843MOL0     H16295   6.799   6.275   9.547 -0.5513  2.0802  1.8719
  843MOL0     H16296   7.430   6.695   9.478 -1.6633 -0.1438 -1.8548
  843MOL0     H16297   7.687   6.641   9.497 -0.8289  1.2624 -1.1215
  843MOL0     H16298   7.774   6.290   9.574 -0.0480  0.8185 -0.0708
  843MOL0     H16299   7.805   6.206   9.417 -1.4257 -0.5822  1.2840
  843MOL0     H16300   8.012   6.392   9.475 -0.6971 -0.5974 -0.5519
  843MOL0     H16301   8.004   6.281   9.615  0.2310 -0.8254  0.0554
  843MOL0     H16302   8.022   6.179   9.336 -0.7812  0.7457 -0.2471
  843MOL0     H16303   8.022   6.075   9.484 -2.5414  0.3357 -0.1719
  843MOL0     H16304   8.232   6.229   9.557 -1.7045  1.1661  0.5583
  843MOL0     H16305   8.220   6.305   9.397  3.6292 -1.7164 -2.9162
  843MOL0     H16306   8.224   6.035   9.330 -1.0368 -2.2124  2.0393
  843MOL0     H16307   8.366   6.144   9.325  0.4418 -0.7135 -0.3748
  843MOL0     H16308   8.246   5.967   9.548 -1.1222  1.2460 -0.5261
  843MOL0     H16309   8.403   6.051   9.566 -1.3303 -1.5411  2.6379
  843MOL0     H16310   8.470   5.911   9.350  0.0503 -2.3599 -1.0272
  843MOL0     H16311   8.321   5.825   9.379 -0.9437 -1.1560  2.3015
  843MOL0     H16312   8.511   5.712   9.472 -0.3719  0.8136 -2.0792
  843MOL0     H16313   8.383   5.751   9.594  0.8674 -2.1679 -0.4538
  843MOL0     H16314   7.607   6.257   9.327 -0.4988 -0.2979 -0.2234
  843MOL0     H16315   7.365   6.318   9.300  0.2230  0.7619 -1.2903
  843MOL0     H16316   7.073   6.677   9.281 -0.9410 -1.4535 -3.1362
  843MOL0     H16317   6.856   6.742   9.201 -1.5478  2.1813  2.5072
  843MOL0     H16318   4.763   6.699   9.357 -0.8770 -2.2495 -0.6252
  843MOL0     H16319   4.527   6.731   9.297 -1.6871  0.6867  0.0536
  843MOL0     H16320   4.242   6.730   9.145  0.2474  1.7037  0.6594
  843MOL0     H16321   4.029   6.652   9.037  0.1883 -2.2791  1.2282
  843MOL0     H16322   3.709   6.861   9.146 -1.5109 -0.6005  2.4387
  843MOL0     H16323   3.679   6.784   8.992 -0.9009  0.1364  0.4035
  843MOL0     H16324   3.507   6.646   9.080  1.8023 -0.5612 -1.1423
  843MOL0     H16325   3.467   6.799   9.160  1.6792  0.8544  0.3681
  843MOL0     H16326   3.616   6.578   9.305  2.8930  2.0589 -1.9812
  843MOL0     H16327   3.583   6.745   9.361 -0.1789 -0.5656  0.4676
  843MOL0     H16328   3.385   6.524   9.258 -0.1718  1.6271 -1.2015
  843MOL0     H16329   3.321   6.674   9.303 -0.5365 -0.9347 -1.5641
  843MOL0     H16330   3.410   6.449   9.665 -0.5687  2.4562  0.9735
  843MOL0     H16331   3.801   6.762   9.377 -0.6022 -0.1522  0.2044
  843MOL0     H16332   3.938   6.926   9.550  0.8849  0.8745 -4.5398
  843MOL0     H16333   3.957   6.776   9.613  1.6041  2.4160  3.3935
  843MOL0     H16334   4.105   6.863   9.583  0.6473 -0.3669  0.2781
  844MOL0     O16335   6.476   6.080   7.407 -0.1201 -0.2652  0.1521
  844MOL0     C16336   6.459   6.104   7.526 -0.0048  0.2062  0.5946
  844MOL0     O16337   6.349   6.092   7.590 -0.3346 -0.3340  1.1970
  844MOL0     C16338   6.222   6.061   7.533  1.4712  0.1112  0.4955
  844MOL0     C16339   6.197   5.996   7.409 -0.0224 -1.2810  0.0976
  844MOL0     C16340   6.071   5.976   7.360 -0.4309  0.4126 -0.1444
  844MOL0     C16341   5.964   6.006   7.440 -0.0101  0.0783 -0.1466
  844MOL0     O16342   5.841   5.966   7.398 -0.5322 -0.0192 -0.3400
  844MOL0     C16343   5.721   6.009   7.464  0.8912 -0.1188 -0.2294
  844MOL0     C16344   5.601   5.949   7.390 -1.0110 -0.5631  0.4770
  844MOL0     C16345   5.582   6.003   7.257 -0.5309  0.2451 -0.0705
  844MOL0     C16346   5.462   5.937   7.191  0.3238  0.1604 -0.2279
  844MOL0     C16347   5.450   5.978   7.050  0.6731 -0.3554 -0.5740
  844MOL0     C16348   5.309   5.940   6.990 -1.0141 -0.2232  0.1755
  844MOL0     C16349   5.283   5.984   6.847 -0.2001  0.3383 -0.0063
  844MOL0     C16350   5.373   5.902   6.751 -0.0677  0.1600 -0.0668
  844MOL0     N16351   5.364   5.947   6.609 -0.2303  0.2123 -0.0159
  844MOL0     C16352   5.479   5.976   6.535  1.0955 -0.1632 -0.2826
  844MOL0     C16353   5.442   5.996   6.404 -0.3736 -0.1417 -0.0079
  844MOL0     C16354   5.528   6.043   6.283  0.3216  0.4810  0.1118
  844MOL0     C16355   5.659   5.959   6.288 -0.0332  0.3928 -0.0368
  844MOL0     C16356   5.752   5.999   6.166  0.5516  0.7387  0.9279
  844MOL0     C16357   5.884   5.929   6.162 -0.4175  0.4654 -0.2713
  844MOL0     O16358   5.974   5.994   6.258  0.0824 -0.1204 -0.0958
  844MOL0     C16359   6.041   6.112   6.218  0.4838 -0.5692 -0.1915
  844MOL0     C16360   6.048   6.171   6.094 -0.1289 -0.6692  0.2214
  844MOL0     C16361   6.118   6.295   6.067  0.3067 -0.1378  0.3794
  844MOL0     C16362   6.120   6.344   5.924 -0.7404 -0.2715 -0.2083
  844MOL0     C16363   6.184   6.363   6.173  0.1131  0.4724 -0.1306
  844MOL0     C16364   6.271   6.485   6.153  0.1844 -0.5501  0.2089
  844MOL0     O16365   6.329   6.538   6.265  0.2136  0.2583 -0.1605
  844MOL0     C16366   6.369   6.666   6.275 -0.6421 -0.2801 -0.7834
  844MOL0     C16367   6.273   6.762   6.306  0.1877 -0.6015  0.0068
  844MOL0     C16368   6.313   6.894   6.304  0.1442 -0.1384 -0.0356
  844MOL0     C16369   6.452   6.931   6.277  0.5649  0.1825  1.0136
  844MOL0     O16370   6.502   7.059   6.287  0.1968  0.4139  0.3904
  844MOL0     C16371   6.422   7.143   6.370  0.4302 -0.9252 -0.1459
  844MOL0     C16372   6.508   7.231   6.459 -0.6128 -0.1557 -0.6558
  844MOL0     C16373   6.562   7.165   6.591  0.1353 -0.0771 -0.7593
  844MOL0     C16374   6.597   7.018   6.579 -0.4158  0.0493 -0.4030
  844MOL0     C16375   6.653   6.959   6.709  0.1334  0.1977  0.6515
  844MOL0     C16376   6.740   6.834   6.677 -0.8033  0.5006 -0.6237
  844MOL0     C16377   6.779   6.766   6.812  0.1719  0.1132  0.1456
  844MOL0     C16378   6.920   6.703   6.802 -1.2990 -0.2494  0.3969
  844MOL0    Cl16379   6.945   6.571   6.678 -0.0942 -0.3938  0.0894
  844MOL0     C16380   6.540   6.832   6.245 -0.3608 -0.3697 -0.1997
  844MOL0     C16381   6.502   6.697   6.246 -0.8526 -0.1042  0.0743
  844MOL0     O16382   6.281   6.530   6.037  0.0196 -0.2804  0.1234
  844MOL0     C16383   6.168   6.310   6.301 -0.3236 -0.1993 -0.3544
  844MOL0     C16384   6.089   6.192   6.322 -0.1492 -0.6404  0.3663
  844MOL0     N16385   5.302   5.983   6.407 -0.2131  0.2469  0.0579
  844MOL0     N16386   5.258   5.941   6.522 -0.2185  0.1735  0.5061
  844MOL0     C16387   5.985   6.060   7.565  0.6143 -0.3905 -0.9646
  844MOL0     C16388   6.111   6.093   7.610  0.8927 -0.0198 -0.5070
  844MOL0     C16389   6.570   6.142   7.616 -0.7931  0.1101  0.0997
  844MOL0     C16390   6.552   6.152   7.758 -0.1369  0.5189 -0.1252
  844MOL0     C16391   6.670   6.160   7.840  0.0932 -0.1121  0.1462
  844MOL0     C16392   6.796   6.166   7.797 -0.0363  1.2584  0.0082
  844MOL0     O16393   6.895   6.188   7.887  0.4360 -0.2667  0.2632
  844MOL0     C16394   6.983   6.075   7.916  0.7996 -0.3389  0.0870
  844MOL0     C16395   7.098   6.069   7.823  0.2319 -0.7131  1.5196
  844MOL0     C16396   7.170   6.202   7.791 -0.3802 -0.3394  0.0079
  844MOL0     C16397   7.274   6.178   7.681  0.6939 -0.7449  1.0035
  844MOL0     C16398   7.410   6.154   7.742  0.1068 -0.1442 -0.2163
  844MOL0     C16399   7.518   6.122   7.780 -0.3643  0.3837 -0.3203
  844MOL0     C16400   6.813   6.172   7.656 -0.3322 -0.2334  0.4791
  844MOL0     C16401   6.711   6.144   7.563 -0.3707 -0.0781 -0.2178
  844MOL0     C16402   6.756   6.158   7.427 -0.0385  0.4098 -0.2848
  844MOL0     H16403   6.282   5.978   7.343  1.8846  2.0036  1.4111
  844MOL0     H16404   6.053   5.927   7.265  1.3123 -1.6226  0.4852
  844MOL0     H16405   5.716   6.118   7.468  3.7968  0.0656  0.6103
  844MOL0     H16406   5.724   5.966   7.565  2.0991 -3.8353 -1.6654
  844MOL0     H16407   5.610   5.840   7.393  0.5491 -0.4365  0.9063
  844MOL0     H16408   5.515   5.988   7.445 -1.6972 -0.8882 -0.3434
  844MOL0     H16409   5.547   6.106   7.264 -0.9797  0.0184  1.3733
  844MOL0     H16410   5.669   6.000   7.191 -0.0332 -0.8769  0.6021
  844MOL0     H16411   5.473   5.828   7.193  0.1974  0.1262 -1.0985
  844MOL0     H16412   5.375   5.964   7.252  1.7650 -1.9443  3.0085
  844MOL0     H16413   5.537   5.928   7.007  1.1247  0.1831 -0.3108
  844MOL0     H16414   5.462   6.087   7.041 -2.3735  0.2323  1.0653
  844MOL0     H16415   5.302   5.832   7.004 -0.5573 -0.2844 -0.0493
  844MOL0     H16416   5.237   5.995   7.051 -0.7286 -0.6356  0.8948
  844MOL0     H16417   5.308   6.091   6.839 -1.2847  0.7629  1.6780
  844MOL0     H16418   5.179   5.957   6.824  0.6557 -2.8291 -0.5777
  844MOL0     H16419   5.478   5.914   6.781 -0.3581  1.9945  0.3414
  844MOL0     H16420   5.341   5.798   6.741 -1.4091  0.2495  2.4546
  844MOL0     H16421   5.578   5.970   6.579  0.2530  1.1141  1.9581
  844MOL0     H16422   5.542   6.151   6.281  1.0738  0.3884  0.2223
  844MOL0     H16423   5.474   6.015   6.192 -0.9024 -0.0635  0.9648
  844MOL0     H16424   5.718   5.990   6.375 -1.6566  2.2806  0.4752
  844MOL0     H16425   5.636   5.852   6.296 -3.4448  0.8504 -1.9019
  844MOL0     H16426   5.704   5.969   6.072 -1.4466  2.3833  1.3638
  844MOL0     H16427   5.758   6.108   6.169 -0.1494  0.7686  3.1311
  844MOL0     H16428   5.880   5.822   6.187  0.1187  0.3188 -0.7859
  844MOL0     H16429   5.918   5.948   6.060 -0.6889  1.9557 -0.1012
  844MOL0     H16430   5.997   6.131   6.007 -0.7964 -0.3838  0.4743
  844MOL0     H16431   6.062   6.437   5.918 -1.5695 -0.7610  0.0408
  844MOL0     H16432   6.076   6.272   5.855 -1.0974  0.5313 -0.8406
  844MOL0     H16433   6.222   6.355   5.886  0.8030 -2.8988  2.6712
  844MOL0     H16434   6.173   6.729   6.330 -1.2239  3.1233 -0.2514
  844MOL0     H16435   6.235   6.961   6.338  1.0377  1.2764 -0.6620
  844MOL0     H16436   6.364   7.203   6.299  2.4417  1.2392 -0.0966
  844MOL0     H16437   6.359   7.085   6.437 -1.4122 -0.6977 -1.5883
  844MOL0     H16438   6.593   7.265   6.399 -0.8166 -0.0334 -0.8740
  844MOL0     H16439   6.450   7.320   6.485  0.1815  0.1019  0.3332
  844MOL0     H16440   6.484   7.164   6.669  0.8520 -2.0641  0.0008
  844MOL0     H16441   6.644   7.227   6.627  0.1646  0.4125 -1.6650
  844MOL0     H16442   6.682   7.011   6.511  0.2453  0.4678  0.3633
  844MOL0     H16443   6.514   6.952   6.550  1.7567 -2.3725 -1.4908
  844MOL0     H16444   6.725   7.023   6.760  0.8560 -1.5593  1.9447
  844MOL0     H16445   6.570   6.948   6.780 -0.5230  0.9607  0.0190
  844MOL0     H16446   6.827   6.869   6.621 -0.6581  2.6910  0.8368
  844MOL0     H16447   6.672   6.768   6.623 -3.4420 -0.8723  3.8200
  844MOL0     H16448   6.707   6.694   6.852 -0.2267 -0.1751 -1.0377
  844MOL0     H16449   6.773   6.842   6.891 -0.1122  0.9227 -0.6346
  844MOL0     H16450   6.955   6.672   6.901 -2.3419  0.1914  0.9232
  844MOL0     H16451   6.980   6.788   6.770 -2.2278  0.6304  0.9140
  844MOL0     H16452   6.640   6.865   6.218 -0.9148  4.3022  2.4274
  844MOL0     H16453   6.569   6.622   6.205 -0.2934  1.6603 -2.5041
  844MOL0     H16454   6.216   6.364   6.382 -0.2027  0.9581 -1.1832
  844MOL0     H16455   6.086   6.166   6.428  2.0307  1.3222  0.9865
  844MOL0     H16456   5.907   6.075   7.639  1.2167 -1.3181 -0.0948
  844MOL0     H16457   6.129   6.120   7.714 -0.6351 -1.3056  0.1243
  844MOL0     H16458   6.454   6.165   7.802 -0.2324  1.5363 -0.6039
  844MOL0     H16459   6.655   6.166   7.947 -0.7977  2.3943 -0.0526
  844MOL0     H16460   7.021   6.088   8.017 -3.4277  0.8836  1.7318
  844MOL0     H16461   6.925   5.982   7.917 -0.6106  0.4899 -1.0682
  844MOL0     H16462   7.056   6.028   7.731 -0.4136  1.1713  0.9417
  844MOL0     H16463   7.169   5.995   7.860  3.4379  1.3409 -0.1093
  844MOL0     H16464   7.101   6.281   7.759 -3.4341 -3.4978 -1.8175
  844MOL0     H16465   7.219   6.240   7.881 -1.2986 -0.4261  0.5561
  844MOL0     H16466   7.285   6.261   7.611  2.8901  0.7028  2.9006
  844MOL0     H16467   7.246   6.084   7.633 -3.4481 -0.4988  2.5439
  844MOL0     H16468   7.617   6.097   7.814 -0.7507 -0.2016  0.4176
  844MOL0     H16469   6.915   6.187   7.621 -1.3577  1.0540 -2.2346
  844MOL0     H16470   6.859   6.196   7.423  0.2879  0.6526  4.3987
  844MOL0     H16471   6.756   6.059   7.383  0.0457 -0.5235  1.6856
  844MOL0     H16472   6.688   6.229   7.379 -0.1568 -0.8150 -1.9977
  845MOL0     O16473   0.153   5.128   9.576  0.3174  0.3096  0.7778
  845MOL0     C16474   0.097   5.155   9.473 -0.8017  0.1106 -0.4052
  845MOL0     O16475  -0.002   5.250   9.466  0.4136 -0.4795 -0.6990
  845MOL0     C16476  -0.059   5.310   9.569  0.1634  0.4388 -0.2690
  845MOL0     C16477  -0.068   5.257   9.703  0.4828 -0.1253  0.2226
  845MOL0     C16478  -0.149   5.323   9.799 -0.2004  0.7194 -0.1257
  845MOL0     C16479  -0.220   5.437   9.766  0.3134  0.0209 -0.5076
  845MOL0     O16480  -0.296   5.491   9.868 -0.0846 -0.0712  0.3116
  845MOL0     C16481  -0.431   5.526   9.822 -0.3493 -0.1796  0.1191
  845MOL0     C16482  -0.507   5.597   9.938  0.6948 -0.0659 -0.5199
  845MOL0     C16483  -0.638   5.667   9.894 -0.9064 -0.6296 -0.6457
  845MOL0     C16484  -0.761   5.577   9.878 -0.3663 -0.1218  0.1608
  845MOL0     C16485  -0.870   5.643   9.794  0.8856 -0.0615 -0.2932
  845MOL0     C16486  -0.945   5.753   9.874 -1.0611 -0.0159  0.5520
  845MOL0     C16487  -1.086   5.798   9.823 -0.2906  0.4584  0.2835
  845MOL0     C16488  -1.163   5.883   9.921 -0.2405  0.4864  0.8404
  845MOL0     N16489  -1.106   6.017   9.938 -0.2479  0.2649  0.6977
  845MOL0     C16490  -1.055   6.072  10.055  0.3362  0.0964  0.0502
  845MOL0     C16491  -0.981   6.181  10.021 -0.1227 -0.4074 -0.0001
  845MOL0     C16492  -0.883   6.255  10.109  0.3725 -0.6485 -0.1165
  845MOL0     C16493  -0.837   6.160  10.216 -1.4995 -0.2279  0.3446
  845MOL0     C16494  -0.770   6.228  10.333 -0.2382  0.3531 -0.0714
  845MOL0     C16495  -0.618   6.230  10.304  0.0938  0.0970 -0.0256
  845MOL0     O16496  -0.564   6.098  10.325  0.4661  0.1745  0.0972
  845MOL0     C16497  -0.426   6.074  10.315  0.3418 -0.0855  0.4048
  845MOL0     C16498  -0.341   6.175  10.286 -0.5295 -0.1091  0.1426
  845MOL0     C16499  -0.203   6.147  10.288 -0.4999  0.2173  0.0580
  845MOL0     C16500  -0.111   6.267  10.276 -0.4978  0.1310  0.0255
  845MOL0     C16501  -0.157   6.017  10.313  0.3611 -0.1482  0.5003
  845MOL0     C16502  -0.020   5.984  10.318 -0.7585  1.2193 -0.7341
  845MOL0     O16503   0.024   5.867  10.250 -0.1046 -0.9318  0.1432
  845MOL0     C16504   0.151   5.826  10.271  0.7097  0.3982 -0.3786
  845MOL0     C16505   0.224   5.758  10.169 -0.4399 -0.7613  0.6599
  845MOL0     C16506   0.345   5.694  10.195 -0.2021  0.5090 -0.0942
  845MOL0     C16507   0.394   5.689  10.325  0.0964  0.0248 -0.3264
  845MOL0     O16508   0.511   5.626  10.361  0.7129  0.6637  0.6672
  845MOL0     C16509   0.628   5.683  10.299  0.7906  0.5988  0.1592
  845MOL0     C16510   0.745   5.623  10.375  0.4063 -0.2606 -0.3290
  845MOL0     C16511   0.870   5.670  10.297  0.3597 -0.1053  0.1523
  845MOL0     C16512   0.999   5.645  10.380  0.1419  0.5300  0.6326
  845MOL0     C16513   1.121   5.680  10.298 -0.8864 -0.4066 -0.1865
  845MOL0     C16514   1.175   5.559  10.223 -0.4555 -0.0298 -0.1947
  845MOL0     C16515   1.320   5.579  10.176 -0.0966 -0.4321 -0.0649
  845MOL0     C16516   1.344   5.690  10.062 -0.0418  0.0967 -0.8803
  845MOL0    Cl16517   1.250   5.672   9.899 -0.2407  0.3032  0.5222
  845MOL0     C16518   0.319   5.750  10.429  0.0619  0.5809  0.0592
  845MOL0     C16519   0.201   5.813  10.398  0.2591 -0.4219  0.1686
  845MOL0     O16520   0.052   6.060  10.378  0.3593  0.5785 -0.3986
  845MOL0     C16521  -0.250   5.912  10.322 -0.1395  0.6215  0.6608
  845MOL0     C16522  -0.383   5.944  10.329  0.5189  0.8445 -0.3664
  845MOL0     N16523  -0.983   6.199   9.883  0.0815 -0.2758 -0.3543
  845MOL0     N16524  -1.059   6.099   9.835 -0.2045  0.3730  0.1553
  845MOL0     C16525  -0.219   5.485   9.632 -0.3961 -1.0141 -0.5538
  845MOL0     C16526  -0.128   5.429   9.537  0.6290  0.1351 -0.2611
  845MOL0     C16527   0.123   5.086   9.351  0.5974  0.2258  0.5908
  845MOL0     C16528   0.023   5.096   9.249 -0.5454 -0.2499 -0.2575
  845MOL0     C16529   0.039   5.033   9.126  0.3576  0.1705 -0.7149
  845MOL0     C16530   0.155   4.966   9.098 -0.2987 -0.2533  0.4603
  845MOL0     O16531   0.160   4.910   8.971 -0.5616 -1.0505 -0.3140
  845MOL0     C16532   0.275   4.822   8.944 -0.4678 -0.1579 -0.0229
  845MOL0     C16533   0.230   4.742   8.822  0.5290 -0.3126 -0.5932
  845MOL0     C16534   0.326   4.640   8.752 -0.8273  0.4626 -0.2976
  845MOL0     C16535   0.393   4.545   8.851  0.5926  0.9548 -0.2217
  845MOL0     C16536   0.291   4.448   8.900 -0.0746  0.5490 -0.1609
  845MOL0     C16537   0.214   4.370   8.945 -0.6806  0.1128 -0.5185
  845MOL0     C16538   0.261   4.956   9.189 -0.0491  0.0701  0.6231
  845MOL0     C16539   0.243   5.008   9.318  0.1835  0.0326 -1.2319
  845MOL0     C16540   0.360   5.009   9.403 -0.6160 -0.4269 -0.1046
  845MOL0     H16541  -0.022   5.167   9.742  1.3840 -0.3314 -1.2444
  845MOL0     H16542  -0.159   5.278   9.898 -0.0411  4.4768  1.7689
  845MOL0     H16543  -0.498   5.444   9.794 -2.2179  2.1055 -2.7587
  845MOL0     H16544  -0.422   5.589   9.733  2.3242 -1.5880 -0.6846
  845MOL0     H16545  -0.528   5.525  10.018  2.8846 -0.7505 -0.4907
  845MOL0     H16546  -0.437   5.675   9.970  0.5815  0.5109 -1.6250
  845MOL0     H16547  -0.665   5.736   9.974 -0.3871 -0.1135 -0.9058
  845MOL0     H16548  -0.615   5.716   9.799 -0.1432  1.1064  0.3795
  845MOL0     H16549  -0.728   5.486   9.827  2.7511 -0.2284  2.1075
  845MOL0     H16550  -0.801   5.556   9.978  0.9217 -0.2843  0.6553
  845MOL0     H16551  -0.937   5.560   9.768  0.6500 -0.0694  0.3314
  845MOL0     H16552  -0.823   5.680   9.702 -0.4008  1.8975 -0.2289
  845MOL0     H16553  -0.944   5.720   9.979  0.6576  0.0795  0.6041
  845MOL0     H16554  -0.876   5.838   9.879 -0.6319 -0.1979 -1.5429
  845MOL0     H16555  -1.150   5.712   9.803 -1.1873  0.9495  0.9580
  845MOL0     H16556  -1.072   5.849   9.728  0.8038  1.6475  1.0470
  845MOL0     H16557  -1.261   5.897   9.874 -0.1775 -0.8828  0.2586
  845MOL0     H16558  -1.180   5.840  10.020 -2.6760 -1.0967 -0.1823
  845MOL0     H16559  -1.062   6.029  10.155  0.8512  0.0847  0.0813
  845MOL0     H16560  -0.921   6.351  10.147 -0.2053  0.8190 -3.9950
  845MOL0     H16561  -0.795   6.291  10.055  0.6357  0.1291  0.7992
  845MOL0     H16562  -0.918   6.103  10.263 -1.0304 -1.9224 -0.8108
  845MOL0     H16563  -0.768   6.087  10.174  1.2411  0.6079  3.0495
  845MOL0     H16564  -0.809   6.327  10.358 -2.0105 -0.0993 -0.8625
  845MOL0     H16565  -0.788   6.162  10.418  1.7984  0.7875  0.7603
  845MOL0     H16566  -0.604   6.270  10.204  0.2290  2.1895  0.7816
  845MOL0     H16567  -0.570   6.305  10.368 -2.1055  1.4596  0.1496
  845MOL0     H16568  -0.378   6.276  10.269  1.4209  0.3944 -1.4387
  845MOL0     H16569  -0.031   6.242  10.206  0.0873 -1.8299  1.3198
  845MOL0     H16570  -0.075   6.299  10.374  1.4052  2.4172 -1.2992
  845MOL0     H16571  -0.170   6.351  10.237 -0.4019  0.6377  0.9318
  845MOL0     H16572   0.186   5.748  10.067  0.3015 -1.8777  0.4703
  845MOL0     H16573   0.399   5.644  10.115 -2.6292 -2.0343 -0.3012
  845MOL0     H16574   0.634   5.653  10.194 -1.8101  1.1186 -0.1909
  845MOL0     H16575   0.635   5.791  10.312  0.8145  0.4874  1.1645
  845MOL0     H16576   0.740   5.655  10.480 -1.0435 -0.8945 -0.1792
  845MOL0     H16577   0.746   5.513  10.373  2.2600 -0.2756 -0.0517
  845MOL0     H16578   0.865   5.777  10.274  0.9659 -0.1791 -0.3557
  845MOL0     H16579   0.879   5.613  10.204  0.6864 -0.8869  0.6483
  845MOL0     H16580   1.010   5.545  10.422  0.0914  1.0695  1.9587
  845MOL0     H16581   0.992   5.715  10.463 -0.3617  0.0263  1.0245
  845MOL0     H16582   1.109   5.761  10.225  2.1569  3.0127  2.6926
  845MOL0     H16583   1.204   5.710  10.363 -2.1138 -1.1930  1.8286
  845MOL0     H16584   1.107   5.539  10.140 -0.2458 -2.4445  0.1556
  845MOL0     H16585   1.173   5.462  10.274  1.7765 -0.5888 -1.0818
  845MOL0     H16586   1.349   5.480  10.140 -3.3435 -2.4098  2.1949
  845MOL0     H16587   1.380   5.597  10.266 -0.2168 -3.2808  0.6528
  845MOL0     H16588   1.450   5.690  10.035  0.4826  0.4800  1.0034
  845MOL0     H16589   1.316   5.789  10.099  0.3679 -0.7220  1.8100
  845MOL0     H16590   0.359   5.745  10.529  1.5695  2.3526 -0.4069
  845MOL0     H16591   0.151   5.849  10.487  0.5546  1.3175 -0.3400
  845MOL0     H16592  -0.229   5.806  10.332 -0.2399  0.5759  0.3910
  845MOL0     H16593  -0.446   5.857  10.345  1.3828  0.0738 -1.0986
  845MOL0     H16594  -0.280   5.567   9.594  3.1436  1.8186 -0.6282
  845MOL0     H16595  -0.135   5.478   9.440  1.0660  0.7876  0.0315
  845MOL0     H16596  -0.067   5.154   9.266 -1.4482 -1.7338  0.2328
  845MOL0     H16597  -0.036   5.037   9.047  2.4368 -1.3192 -2.8973
  845MOL0     H16598   0.359   4.884   8.909 -0.4129 -1.6812 -2.8563
  845MOL0     H16599   0.315   4.763   9.027 -0.1095  0.3333  0.1597
  845MOL0     H16600   0.196   4.807   8.741  0.2020  1.3613  0.8177
  845MOL0     H16601   0.137   4.689   8.844 -1.3769  2.3193 -1.6727
  845MOL0     H16602   0.281   4.578   8.674  0.2622  1.9979 -2.2430
  845MOL0     H16603   0.401   4.706   8.706  2.4605 -2.4794  0.4327
  845MOL0     H16604   0.430   4.610   8.931  0.5211 -0.0580  0.6605
  845MOL0     H16605   0.470   4.491   8.796 -1.6900 -0.5051 -2.1809
  845MOL0     H16606   0.137   4.299   8.965 -0.9676  0.6504  0.3127
  845MOL0     H16607   0.356   4.906   9.171  0.9659  2.6827 -2.2696
  845MOL0     H16608   0.343   4.937   9.484 -1.2579  1.3362  1.4061
  845MOL0     H16609   0.456   4.979   9.360 -1.1136 -1.6572 -0.3912
  845MOL0     H16610   0.376   5.105   9.453  0.2263  0.1239 -1.3601
  846MOL0     O16611  10.758  10.579   5.234 -0.1604 -0.2607  0.2918
  846MOL0     C16612  10.694  10.605   5.342 -0.4706  0.6540  0.0544
  846MOL0     O16613  10.758  10.601   5.461 -0.0862  0.4683 -0.1445
  846MOL0     C16614  10.882  10.535   5.470  0.2441  0.5381 -0.3676
  846MOL0     C16615  10.890  10.396   5.508 -0.2196 -0.3147  0.3802
  846MOL0     C16616  11.022  10.328   5.507  0.3570 -1.2509  0.1931
  846MOL0     C16617  11.135  10.398   5.480 -0.1199 -0.6318  1.0398
  846MOL0     O16618  11.249  10.334   5.472  0.8607  0.1333 -0.0876
  846MOL0     C16619  11.348  10.372   5.565 -0.8646  0.4425  0.2367
  846MOL0     C16620  11.478  10.312   5.499  0.8765 -0.3705 -0.5350
  846MOL0     C16621  11.589  10.299   5.605  0.6177  0.2614  0.2535
  846MOL0     C16622  11.720  10.253   5.528  0.7962 -0.1439 -0.0265
  846MOL0     C16623  11.842  10.263   5.618 -0.6315 -0.0278  0.3479
  846MOL0     C16624  11.861  10.138   5.714  0.3751 -0.2668  0.2709
  846MOL0     C16625  12.004  10.104   5.739 -0.6048  0.1159 -0.0252
  846MOL0     C16626  12.019   9.997   5.845 -0.0551  0.1296  0.5849
  846MOL0     N16627  12.149   9.933   5.805  0.1215  0.2983 -0.2481
  846MOL0     C16628  12.274   9.943   5.871 -0.3403 -0.0454  0.3028
  846MOL0     C16629  12.358   9.867   5.800  0.1692 -0.2160  0.0940
  846MOL0     C16630  12.496   9.821   5.831 -0.1638 -0.6974 -0.4000
  846MOL0     C16631  12.500   9.722   5.950  0.2572  0.7420 -0.3201
  846MOL0     C16632  12.641   9.692   6.014  0.4917 -0.2192 -0.5245
  846MOL0     C16633  12.643   9.590   6.129  0.6439  0.3814 -0.5865
  846MOL0     O16634  12.748   9.613   6.231  0.0001 -0.2967  0.1977
  846MOL0     C16635  12.876   9.559   6.227 -0.6722  0.4579  0.3167
  846MOL0     C16636  12.958   9.566   6.340  0.1278  0.2266 -0.2225
  846MOL0     C16637  13.083   9.512   6.335 -0.3288  0.0224 -0.1417
  846MOL0     C16638  13.170   9.539   6.455  0.0195 -0.1790  0.2660
  846MOL0     C16639  13.133   9.440   6.225 -0.6867  0.1043  0.7597
  846MOL0     C16640  13.272   9.380   6.218  0.1995  0.4335 -0.3335
  846MOL0     O16641  13.315   9.345   6.085  0.8756 -0.7239 -0.2387
  846MOL0     C16642  13.444   9.297   6.076  0.2615  0.0316 -0.4339
  846MOL0     C16643  13.467   9.175   6.127  0.0078  0.1868 -0.3487
  846MOL0     C16644  13.594   9.128   6.136  0.2147  0.3240  0.1844
  846MOL0     C16645  13.712   9.202   6.093  0.2117 -0.4281 -0.3601
  846MOL0     O16646  13.844   9.170   6.117  0.0346  1.1243  0.1658
  846MOL0     C16647  13.868   9.031   6.106  0.5562  0.3953 -0.2272
  846MOL0     C16648  14.012   9.022   6.057 -0.3337 -0.7175 -0.6978
  846MOL0     C16649  14.101   9.070   6.174  1.1126  0.6380 -0.1347
  846MOL0     C16650  14.246   9.038   6.157 -0.6395  0.0470 -0.4985
  846MOL0     C16651  14.327   9.035   6.292 -0.1130 -0.6034 -1.1485
  846MOL0     C16652  14.464   8.998   6.266 -0.2871  0.2631 -0.0618
  846MOL0     C16653  14.535   8.977   6.402  0.1610  0.3894 -0.5352
  846MOL0     C16654  14.655   8.892   6.394  0.2751  0.4692  0.1501
  846MOL0    Cl16655  14.758   8.911   6.544 -0.2249 -0.0955  0.0466
  846MOL0     C16656  13.688   9.329   6.032 -0.1168 -0.2458 -0.0501
  846MOL0     C16657  13.553   9.367   6.027 -1.2059 -0.9805 -0.4802
  846MOL0     O16658  13.346   9.364   6.318  1.0840 -0.0655 -0.0302
  846MOL0     C16659  13.051   9.433   6.106 -0.0862 -0.3310 -0.6582
  846MOL0     C16660  12.924   9.484   6.113 -0.1411  0.3773 -0.2068
  846MOL0     N16661  12.280   9.813   5.692  0.1689  0.3305 -1.6340
  846MOL0     N16662  12.157   9.853   5.699 -0.6198  0.7138  0.3080
  846MOL0     C16663  11.125  10.535   5.444 -0.1871  0.0053  0.5852
  846MOL0     C16664  10.997  10.599   5.439  0.8464  0.3988  0.3837
  846MOL0     C16665  10.547  10.618   5.347 -0.5698 -0.6463  0.3931
  846MOL0     C16666  10.485  10.627   5.475  0.0916  0.2293  0.8900
  846MOL0     C16667  10.349  10.655   5.494 -1.2523  0.0949  0.0085
  846MOL0     C16668  10.264  10.656   5.381  0.2001 -0.8987  0.2492
  846MOL0     O16669  10.127  10.682   5.382  0.3186 -0.0454 -0.0103
  846MOL0     C16670  10.074  10.775   5.484  0.5629  0.8021 -0.4434
  846MOL0     C16671   9.924  10.788   5.494  0.2152 -0.3564  0.1203
  846MOL0     C16672   9.856  10.802   5.359  0.0866 -0.3937 -0.8267
  846MOL0     C16673   9.703  10.832   5.381 -0.3469  0.6357  0.2018
  846MOL0     C16674   9.647  10.889   5.258  0.0025  0.3896 -0.0618
  846MOL0     C16675   9.603  10.942   5.155  0.1347 -0.2879  0.8741
  846MOL0     C16676  10.322  10.642   5.250 -0.1789 -0.2647  0.4808
  846MOL0     C16677  10.459  10.619   5.233 -0.1929  1.0156  0.6362
  846MOL0     C16678  10.508  10.605   5.096  1.2520  0.0662 -0.4145
  846MOL0     H16679  10.800  10.340   5.533 -0.1348  0.2511  2.0789
  846MOL0     H16680  11.026  10.222   5.527  0.5978 -1.6125 -1.5963
  846MOL0     H16681  11.334  10.329   5.664  0.1874  0.0155  0.2120
  846MOL0     H16682  11.360  10.481   5.568 -0.8373  0.5202 -1.4360
  846MOL0     H16683  11.460  10.208   5.472  0.5723 -0.2609 -0.7547
  846MOL0     H16684  11.513  10.362   5.408  0.7275 -0.8600 -0.8668
  846MOL0     H16685  11.604  10.399   5.648 -2.8892  2.3540 -2.7765
  846MOL0     H16686  11.568  10.221   5.679 -3.1506  0.8489  0.0045
  846MOL0     H16687  11.713  10.150   5.492  3.5211 -0.0524 -1.0800
  846MOL0     H16688  11.735  10.315   5.439  2.3645 -2.4999 -1.5357
  846MOL0     H16689  11.831  10.360   5.667 -0.6973  1.0077 -1.6061
  846MOL0     H16690  11.923  10.266   5.545  0.9139 -1.5286  1.8962
  846MOL0     H16691  11.812  10.153   5.811  0.3020  2.2379 -0.0822
  846MOL0     H16692  11.811  10.046   5.680  1.8456 -1.6040  1.5674
  846MOL0     H16693  12.069  10.185   5.771 -0.4113 -0.6642  1.6924
  846MOL0     H16694  12.050  10.067   5.646  0.1992 -2.3372  1.2477
  846MOL0     H16695  12.011  10.040   5.945  4.1743  1.1998  0.6596
  846MOL0     H16696  11.939   9.924   5.830 -0.6649  1.1106 -1.2054
  846MOL0     H16697  12.291   9.977   5.973 -1.2289 -0.7486  0.7043
  846MOL0     H16698  12.551   9.908   5.869  1.0988 -3.0823  3.9552
  846MOL0     H16699  12.552   9.776   5.748  0.2258 -4.2392  1.5754
  846MOL0     H16700  12.447   9.782   6.025  0.5866  3.9992 -2.4707
  846MOL0     H16701  12.462   9.626   5.914  2.3543 -0.0705 -0.4864
  846MOL0     H16702  12.713   9.647   5.945  0.5716 -0.5470 -0.2282
  846MOL0     H16703  12.689   9.786   6.043 -1.3008  1.2296 -1.9663
  846MOL0     H16704  12.553   9.608   6.188  0.7779  2.8456 -1.0531
  846MOL0     H16705  12.647   9.486   6.095 -2.1506  0.0438 -0.1217
  846MOL0     H16706  12.935   9.634   6.422  1.9458  0.9059 -0.2376
  846MOL0     H16707  13.172   9.447   6.514  0.1983  0.0925  0.6829
  846MOL0     H16708  13.123   9.612   6.521  1.1196  2.3245 -1.5614
  846MOL0     H16709  13.275   9.559   6.432  0.5028 -2.9110 -0.3527
  846MOL0     H16710  13.384   9.110   6.149 -0.4038  0.7401 -0.2438
  846MOL0     H16711  13.612   9.024   6.163  3.2068  0.5957 -0.3745
  846MOL0     H16712  13.864   8.980   6.203 -1.9306 -0.5670 -0.7786
  846MOL0     H16713  13.801   8.979   6.038  0.5615 -0.0299  0.0818
  846MOL0     H16714  14.034   8.923   6.016 -1.7322 -0.8006 -1.3167
  846MOL0     H16715  14.027   9.097   5.979 -0.5191 -0.2528 -0.2910
  846MOL0     H16716  14.065   9.014   6.261 -1.8084 -0.0975 -1.7007
  846MOL0     H16717  14.081   9.176   6.189 -0.7816  0.2436  0.3407
  846MOL0     H16718  14.290   9.117   6.095 -2.6976  1.7833  0.1330
  846MOL0     H16719  14.250   8.938   6.112  1.7733 -0.1077 -0.1094
  846MOL0     H16720  14.322   9.123   6.357 -1.9631 -0.6641 -1.1703
  846MOL0     H16721  14.275   8.958   6.350 -1.4044  2.3657  1.9862
  846MOL0     H16722  14.503   9.080   6.206 -0.2272  0.3975  0.1592
  846MOL0     H16723  14.465   8.902   6.215  1.4439  1.6361 -2.8389
  846MOL0     H16724  14.476   8.935   6.484 -0.2388 -0.5812 -1.3041
  846MOL0     H16725  14.579   9.073   6.430  0.3496  1.8498 -5.0817
  846MOL0     H16726  14.716   8.913   6.306 -1.4384 -1.3719 -1.5837
  846MOL0     H16727  14.631   8.785   6.389 -0.7089  0.7044 -0.5218
  846MOL0     H16728  13.762   9.397   5.993 -0.6486 -0.5426 -1.6528
  846MOL0     H16729  13.528   9.458   5.972  0.9444 -0.1225 -0.1467
  846MOL0     H16730  13.090   9.389   6.015  0.8750 -1.7546  0.3905
  846MOL0     H16731  12.862   9.467   6.026  0.4979 -1.9414 -0.2769
  846MOL0     H16732  11.209  10.595   5.410 -0.3251 -0.0934  0.0611
  846MOL0     H16733  10.999  10.700   5.399 -0.6214  0.3041  0.0150
  846MOL0     H16734  10.542  10.614   5.566  0.6419 -0.9871  0.3978
  846MOL0     H16735  10.299  10.668   5.589  1.1083 -0.6391  1.4321
  846MOL0     H16736  10.109  10.759   5.586  0.7244  2.4307 -0.2314
  846MOL0     H16737  10.102  10.877   5.457 -1.7205  1.3496 -0.9374
  846MOL0     H16738   9.886  10.860   5.568 -0.4291  2.0196 -2.3720
  846MOL0     H16739   9.895  10.687   5.523  2.5847 -1.2756 -0.4775
  846MOL0     H16740   9.900  10.890   5.312  2.8453 -0.8563  0.6860
  846MOL0     H16741   9.863  10.713   5.295  2.5513  0.7765 -2.3461
  846MOL0     H16742   9.684  10.900   5.465 -3.5665  0.0027  0.1150
  846MOL0     H16743   9.649  10.739   5.402 -0.9270  1.1043  0.8319
  846MOL0     H16744   9.554  10.983   5.069  0.4288  0.9918  1.2895
  846MOL0     H16745  10.247  10.632   5.172  1.6063  1.2072 -1.5492
  846MOL0     H16746  10.574  10.686   5.064  1.9584  0.0698  0.9699
  846MOL0     H16747  10.558  10.508   5.086  1.8833  0.2082  1.0437
  846MOL0     H16748  10.427  10.601   5.024  2.6889  1.8660 -2.2579
  847MOL0     O16749   3.879   9.707   2.328 -0.6185  0.1303  0.1909
  847MOL0     C16750   3.817   9.600   2.327 -0.3593 -0.6749  0.4024
  847MOL0     O16751   3.859   9.485   2.276  0.4998  0.2071  0.3741
  847MOL0     C16752   3.990   9.477   2.259  0.6857 -0.4468 -0.1348
  847MOL0     C16753   4.046   9.432   2.134 -0.6834  0.2435  0.4628
  847MOL0     C16754   4.177   9.398   2.114  0.1985  0.8245  0.0064
  847MOL0     C16755   4.264   9.398   2.227 -1.0182  0.0872  0.2743
  847MOL0     O16756   4.397   9.373   2.218 -0.2251  0.5066  0.1452
  847MOL0     C16757   4.470   9.330   2.101 -0.6241 -0.1655  0.6286
  847MOL0     C16758   4.538   9.436   2.018  0.0867 -0.9760  0.5042
  847MOL0     C16759   4.606   9.534   2.122 -0.6702 -0.6621 -0.8744
  847MOL0     C16760   4.758   9.525   2.132 -0.5839 -0.5779  0.2182
  847MOL0     C16761   4.828   9.627   2.218  0.6909 -0.7220 -0.5739
  847MOL0     C16762   4.969   9.587   2.258  0.1978 -0.0169  0.6123
  847MOL0     C16763   5.038   9.652   2.373 -0.0700 -0.0796 -0.8203
  847MOL0     C16764   5.084   9.801   2.358 -0.3215  0.4711 -0.7933
  847MOL0     N16765   5.213   9.794   2.291 -0.4022 -0.8207 -0.1671
  847MOL0     C16766   5.234   9.811   2.161  0.3907  0.2850  0.3246
  847MOL0     C16767   5.360   9.841   2.151 -0.5895 -0.4485  0.0354
  847MOL0     C16768   5.433   9.900   2.031 -0.4267  0.0462 -0.2009
  847MOL0     C16769   5.583   9.885   2.044  0.2674 -0.5595  0.0814
  847MOL0     C16770   5.649   9.979   1.943  0.1008  0.2841  0.2391
  847MOL0     C16771   5.792   9.932   1.937  0.0625 -0.3604  0.4490
  847MOL0     O16772   5.790   9.810   1.854  0.4204 -0.1149 -1.1917
  847MOL0     C16773   5.896   9.755   1.804 -0.2731 -0.7763 -0.5467
  847MOL0     C16774   5.890   9.643   1.716  0.1744  0.2513 -0.3595
  847MOL0     C16775   5.997   9.578   1.662 -0.1495  0.3035 -0.5984
  847MOL0     C16776   5.956   9.479   1.557 -0.2550 -0.1492  0.0973
  847MOL0     C16777   6.127   9.614   1.703  1.2338  0.1380  0.4617
  847MOL0     C16778   6.252   9.531   1.664 -0.1138  0.0839  0.1526
  847MOL0     O16779   6.356   9.543   1.748 -0.0220 -0.0958  0.3605
  847MOL0     C16780   6.458   9.461   1.737 -0.1514  0.0461  0.2513
  847MOL0     C16781   6.471   9.362   1.833 -0.1110 -0.0114  0.4249
  847MOL0     C16782   6.584   9.287   1.832 -0.1922  0.2817 -0.1214
  847MOL0     C16783   6.687   9.293   1.736  0.0652 -1.1275  0.2502
  847MOL0     O16784   6.789   9.204   1.742 -0.8833 -0.3831  0.2333
  847MOL0     C16785   6.888   9.200   1.636 -0.1590  0.4289  0.1035
  847MOL0     C16786   7.011   9.111   1.674 -0.2844 -0.5332 -0.0973
  847MOL0     C16787   6.986   8.963   1.666  0.4213  0.4033 -0.1035
  847MOL0     C16788   7.106   8.879   1.701 -0.5671  0.2560  0.3948
  847MOL0     C16789   7.066   8.762   1.786 -0.6780  0.2239 -0.5800
  847MOL0     C16790   6.971   8.665   1.719 -0.2605  0.0782  0.1066
  847MOL0     C16791   6.989   8.525   1.790  0.2985  0.1222 -0.1833
  847MOL0     C16792   6.886   8.429   1.727  0.1768 -0.7569  0.3509
  847MOL0    Cl16793   6.719   8.422   1.816  0.2466  0.2402 -0.1038
  847MOL0     C16794   6.672   9.395   1.640  0.5350 -0.1977 -0.8785
  847MOL0     C16795   6.555   9.473   1.638 -0.8006  0.5481 -0.3051
  847MOL0     O16796   6.242   9.449   1.570 -0.4642 -0.6669 -0.0503
  847MOL0     C16797   6.135   9.722   1.798 -0.2492 -0.5449  0.2640
  847MOL0     C16798   6.024   9.792   1.852 -0.3694 -0.5199 -0.0412
  847MOL0     N16799   5.422   9.822   2.273  0.6719 -0.0566 -0.2264
  847MOL0     N16800   5.330   9.803   2.365  0.6873  0.5357 -0.4547
  847MOL0     C16801   4.217   9.436   2.353 -0.5924  0.7038 -0.1505
  847MOL0     C16802   4.080   9.492   2.364  0.0868 -0.0325  0.4736
  847MOL0     C16803   3.682   9.597   2.374  0.4236  0.1089 -0.0180
  847MOL0     C16804   3.604   9.476   2.352 -0.0710 -0.2068 -0.3177
  847MOL0     C16805   3.471   9.463   2.395  0.1755 -0.0172  0.2104
  847MOL0     C16806   3.399   9.566   2.456 -0.2524 -0.5971 -0.1372
  847MOL0     O16807   3.264   9.553   2.476 -0.6012 -0.6431  1.0268
  847MOL0     C16808   3.179   9.671   2.503 -0.1733  0.6022 -0.2206
  847MOL0     C16809   3.029   9.638   2.496 -0.1400 -0.8692 -1.1498
  847MOL0     C16810   2.972   9.595   2.364 -0.1183  0.3657  0.0947
  847MOL0     C16811   2.830   9.537   2.386 -0.3613  0.1094  1.1420
  847MOL0     C16812   2.828   9.394   2.422 -0.0401  0.2999  0.0533
  847MOL0     C16813   2.813   9.276   2.447  0.4951 -0.7282  0.1115
  847MOL0     C16814   3.481   9.685   2.486  0.3025  0.0908 -0.2422
  847MOL0     C16815   3.622   9.701   2.449  0.6143 -0.0782  0.4365
  847MOL0     C16816   3.686   9.834   2.483 -0.0432  0.0945 -0.0198
  847MOL0     H16817   3.977   9.427   2.051  0.3615 -1.7125 -0.3505
  847MOL0     H16818   4.224   9.377   2.018  0.4877 -1.7169  0.6306
  847MOL0     H16819   4.412   9.266   2.035 -0.1338 -0.0245  0.0502
  847MOL0     H16820   4.554   9.267   2.131  1.4947  1.2260 -1.9856
  847MOL0     H16821   4.623   9.390   1.966  0.9251 -1.0245  1.8899
  847MOL0     H16822   4.472   9.485   1.946  0.1060 -1.6659 -0.0019
  847MOL0     H16823   4.572   9.636   2.102  0.4931 -0.1531 -0.3196
  847MOL0     H16824   4.574   9.515   2.225  1.0016 -0.7183 -0.3312
  847MOL0     H16825   4.771   9.424   2.172 -0.1474 -0.5205  0.2319
  847MOL0     H16826   4.809   9.529   2.035  3.5687 -0.6155  2.1757
  847MOL0     H16827   4.775   9.653   2.311 -3.5832  0.9299 -3.1738
  847MOL0     H16828   4.845   9.720   2.164  2.5300  0.0110  1.1587
  847MOL0     H16829   4.964   9.483   2.294 -0.7791 -0.1458  0.1636
  847MOL0     H16830   5.030   9.590   2.167  1.1635 -1.6248  1.1730
  847MOL0     H16831   5.129   9.597   2.398  0.6277 -0.2294 -3.4201
  847MOL0     H16832   4.972   9.647   2.460  0.1650  1.3203 -0.5457
  847MOL0     H16833   5.015   9.870   2.309 -2.1569 -0.4098  0.4048
  847MOL0     H16834   5.090   9.833   2.463  0.5263 -0.4202 -0.5530
  847MOL0     H16835   5.161   9.825   2.081 -1.0107  0.2390  1.5663
  847MOL0     H16836   5.405  10.004   2.017  1.8811  0.7850  0.2266
  847MOL0     H16837   5.397   9.852   1.939 -0.0495 -1.7307  0.5390
  847MOL0     H16838   5.607   9.917   2.146  1.4992  1.5634 -0.8025
  847MOL0     H16839   5.598   9.778   2.027 -1.9624 -0.7892 -0.7290
  847MOL0     H16840   5.594   9.975   1.849 -0.6219  0.2317  0.6496
  847MOL0     H16841   5.641  10.085   1.972  1.5322 -0.2516  2.9469
  847MOL0     H16842   5.849  10.007   1.882  1.4192 -1.8560 -0.2474
  847MOL0     H16843   5.826   9.916   2.040  5.4276  1.8086 -0.6936
  847MOL0     H16844   5.790   9.628   1.676  1.5073  1.6600 -4.7773
  847MOL0     H16845   5.859   9.505   1.515  0.3971  1.1427 -0.6592
  847MOL0     H16846   5.952   9.378   1.598  1.3642 -0.0933  0.4840
  847MOL0     H16847   6.015   9.485   1.465 -1.0238  2.4901 -0.2920
  847MOL0     H16848   6.383   9.338   1.892 -0.8485  1.1499 -0.1595
  847MOL0     H16849   6.589   9.200   1.897  3.0746 -0.9733 -1.8265
  847MOL0     H16850   6.848   9.157   1.543  1.3211  0.9705 -0.8297
  847MOL0     H16851   6.930   9.297   1.607  0.6500  0.0757  0.0612
  847MOL0     H16852   7.097   9.137   1.611  0.4173 -0.4484  0.8640
  847MOL0     H16853   7.038   9.142   1.776 -0.4565 -0.5491 -0.0476
  847MOL0     H16854   6.964   8.934   1.563 -1.4711 -0.3989  0.4827
  847MOL0     H16855   6.902   8.933   1.729  0.6819 -0.4087 -0.1355
  847MOL0     H16856   7.184   8.940   1.748 -2.3361  1.4845  1.9156
  847MOL0     H16857   7.152   8.849   1.607 -1.0057  1.1606 -0.1227
  847MOL0     H16858   7.155   8.705   1.813 -0.1384  0.7848 -1.1416
  847MOL0     H16859   7.026   8.796   1.882  0.0383 -2.3900  0.7409
  847MOL0     H16860   6.984   8.667   1.611  2.9375  4.0343  0.3474
  847MOL0     H16861   6.867   8.692   1.740 -0.8496 -1.7026 -0.3380
  847MOL0     H16862   6.975   8.533   1.898  3.0070  0.2095  0.2226
  847MOL0     H16863   7.090   8.492   1.764 -0.1792  0.8152 -3.3021
  847MOL0     H16864   6.931   8.329   1.733  1.2505 -0.2352  1.1888
  847MOL0     H16865   6.869   8.455   1.622 -1.1910  1.2973  1.0271
  847MOL0     H16866   6.747   9.412   1.564 -0.4267 -0.6004 -1.9488
  847MOL0     H16867   6.532   9.540   1.556  1.5378 -1.4434 -2.7716
  847MOL0     H16868   6.233   9.766   1.816 -0.1233  0.1178 -1.7964
  847MOL0     H16869   6.037   9.874   1.922  0.4942  0.0994 -0.9028
  847MOL0     H16870   4.296   9.426   2.428  0.5201 -1.8642 -1.5394
  847MOL0     H16871   4.046   9.540   2.455  0.7811  0.4097  0.5094
  847MOL0     H16872   3.637   9.396   2.288  0.0619  0.9176 -1.7081
  847MOL0     H16873   3.416   9.371   2.383 -2.6848  1.4694  1.1153
  847MOL0     H16874   3.215   9.723   2.592  0.1695 -0.8464  0.5208
  847MOL0     H16875   3.187   9.734   2.414 -0.8275  0.2905 -0.5025
  847MOL0     H16876   2.973   9.726   2.528 -0.4781 -1.5242  0.1268
  847MOL0     H16877   3.012   9.563   2.574  0.7605 -0.0785 -0.1627
  847MOL0     H16878   2.965   9.678   2.292  1.9885  0.2850 -0.2546
  847MOL0     H16879   3.037   9.518   2.323  3.1278  1.3170  3.0141
  847MOL0     H16880   2.779   9.551   2.290  0.4632  1.4392  0.8696
  847MOL0     H16881   2.768   9.599   2.451 -3.1080 -0.0745 -1.1206
  847MOL0     H16882   2.782   9.174   2.441 -1.6762 -0.0758 -1.0238
  847MOL0     H16883   3.434   9.761   2.547 -0.5860  0.4481 -1.3366
  847MOL0     H16884   3.787   9.815   2.522  0.1795  1.2746  0.0409
  847MOL0     H16885   3.704   9.892   2.392  2.0122  1.3911  1.1156
  847MOL0     H16886   3.626   9.888   2.558 -2.3527 -0.0626 -1.6638
  848MOL0     O16887   4.079  10.620   9.109  0.4003 -0.0776  0.0230
  848MOL0     C16888   4.057  10.575   8.995 -0.4588 -0.4650  0.2797
  848MOL0     O16889   4.153  10.527   8.909  0.4358 -0.3571  0.4108
  848MOL0     C16890   4.273  10.473   8.949 -0.0794 -0.3018 -0.4230
  848MOL0     C16891   4.361  10.444   8.842  0.3243 -0.1810  0.7817
  848MOL0     C16892   4.481  10.390   8.865 -0.1061 -0.6144 -0.9977
  848MOL0     C16893   4.525  10.356   8.993 -0.5787  0.6341  0.1247
  848MOL0     O16894   4.650  10.307   9.029 -0.4984  0.3096 -0.2541
  848MOL0     C16895   4.738  10.281   8.923  0.1731 -0.5594 -0.3158
  848MOL0     C16896   4.875  10.226   8.980  0.1292 -0.3495 -0.0525
  848MOL0     C16897   4.946  10.323   9.086  0.0672 -0.4375 -0.6638
  848MOL0     C16898   5.024  10.452   9.035  0.2206  0.1778 -0.4460
  848MOL0     C16899   5.038  10.549   9.159  0.9238 -0.0253  0.4692
  848MOL0     C16900   5.112  10.500   9.278 -0.9073  0.1913  0.4431
  848MOL0     C16901   5.091  10.596   9.398 -0.3616 -0.0155  0.5660
  848MOL0     C16902   5.124  10.744   9.372  0.0431  0.2284  0.4929
  848MOL0     N16903   5.265  10.780   9.354 -0.6079  0.8739 -0.1869
  848MOL0     C16904   5.345  10.738   9.247 -0.0326  0.4398 -0.3112
  848MOL0     C16905   5.465  10.794   9.257 -0.5219 -0.7165 -0.0467
  848MOL0     C16906   5.582  10.756   9.176 -0.3517  0.0493 -0.2210
  848MOL0     C16907   5.666  10.646   9.241  0.0190 -0.0978  0.3858
  848MOL0     C16908   5.773  10.600   9.137 -0.0221 -0.4233  0.4261
  848MOL0     C16909   5.890  10.690   9.111  0.3630 -0.2385  0.6537
  848MOL0     O16910   5.964  10.641   8.995  0.5191 -0.5821  0.1914
  848MOL0     C16911   6.092  10.678   8.974 -0.5194  0.7238 -0.6054
  848MOL0     C16912   6.153  10.786   9.040  0.8157 -0.0884  0.5122
  848MOL0     C16913   6.287  10.802   9.048 -0.0283  0.5245  0.3872
  848MOL0     C16914   6.345  10.907   9.142 -0.2779  0.4831  0.0961
  848MOL0     C16915   6.374  10.714   8.971  0.8720 -0.7558  0.2051
  848MOL0     C16916   6.519  10.733   8.974 -0.0229  0.2021 -0.1062
  848MOL0     O16917   6.598  10.619   8.992  0.5473  0.2357  0.0025
  848MOL0     C16918   6.728  10.632   9.018  0.4104 -0.9314 -0.2509
  848MOL0     C16919   6.826  10.576   8.945  0.1595  0.0677 -0.6450
  848MOL0     C16920   6.956  10.587   8.969 -0.3276  0.4781 -0.1321
  848MOL0     C16921   7.003  10.669   9.064 -0.2773  0.1001 -0.6681
  848MOL0     O16922   7.139  10.668   9.093 -0.2002 -0.0431 -0.0181
  848MOL0     C16923   7.200  10.728   9.211 -0.2933 -0.5315  0.4231
  848MOL0     C16924   7.352  10.684   9.207 -0.4585 -0.1543  0.8264
  848MOL0     C16925   7.428  10.768   9.090 -0.1951 -0.2056  0.1941
  848MOL0     C16926   7.582  10.753   9.113  0.2083 -0.0937  0.5426
  848MOL0     C16927   7.637  10.613   9.081 -0.6972 -0.4161 -0.0111
  848MOL0     C16928   7.792  10.613   9.087  0.4954  0.5692  0.0056
  848MOL0     C16929   7.859  10.703   8.975 -0.1402  0.4095 -0.7614
  848MOL0     C16930   8.014  10.669   8.972  0.5260 -0.6676 -0.4203
  848MOL0    Cl16931   8.096  10.757   9.098  0.3165  0.0936  0.0319
  848MOL0     C16932   6.909  10.733   9.143 -0.3599  0.0617  0.0756
  848MOL0     C16933   6.771  10.713   9.125 -0.2426  0.2516  0.0355
  848MOL0     O16934   6.562  10.847   8.963  0.1133  0.2556  0.0707
  848MOL0     C16935   6.313  10.612   8.897  0.0240 -0.6858 -0.1786
  848MOL0     C16936   6.174  10.599   8.893  0.6112  0.3243 -0.5224
  848MOL0     N16937   5.460  10.870   9.377 -0.3792  0.7784  0.4393
  848MOL0     N16938   5.342  10.855   9.430 -0.4976  0.2749  0.3100
  848MOL0     C16939   4.433  10.370   9.095  0.7290 -0.7771 -0.6766
  848MOL0     C16940   4.306  10.425   9.079 -0.0461  0.9498 -0.3372
  848MOL0     C16941   3.916  10.579   8.941 -0.0249  0.0674  0.2701
  848MOL0     C16942   3.901  10.539   8.807 -0.1060  0.2301 -0.3414
  848MOL0     C16943   3.780  10.529   8.734 -0.0944 -0.1209 -0.6789
  848MOL0     C16944   3.664  10.560   8.810  0.5773 -0.1308 -0.1586
  848MOL0     O16945   3.532  10.555   8.774 -0.2496  0.1616 -0.2614
  848MOL0     C16946   3.495  10.490   8.654 -0.0396 -0.2891  0.5633
  848MOL0     C16947   3.511  10.592   8.538  0.2339 -0.3495 -0.3488
  848MOL0     C16948   3.429  10.724   8.561 -0.5404  0.2921  0.0523
  848MOL0     C16949   3.409  10.813   8.435  0.9997 -0.5524  0.6030
  848MOL0     C16950   3.262  10.829   8.425  0.3387  0.0310  0.5783
  848MOL0     C16951   3.136  10.828   8.426 -0.0154 -0.3992  0.2116
  848MOL0     C16952   3.678  10.611   8.943  0.3383 -0.2684  0.1279
  848MOL0     C16953   3.799  10.620   9.009 -0.1707 -0.1048 -0.1026
  848MOL0     C16954   3.795  10.670   9.147  0.1878 -0.0628 -1.1033
  848MOL0     H16955   4.343  10.479   8.741  0.6740  3.1612  1.7693
  848MOL0     H16956   4.546  10.356   8.785 -0.6173 -4.5632  0.0564
  848MOL0     H16957   4.755  10.378   8.875  1.2740  1.3394  3.5610
  848MOL0     H16958   4.695  10.206   8.856  1.8280  1.2704 -3.7295
  848MOL0     H16959   4.855  10.125   9.016  2.1106 -1.6647 -2.2945
  848MOL0     H16960   4.950  10.214   8.901  0.3189  0.5730 -0.0281
  848MOL0     H16961   4.865  10.347   9.155  1.0617 -1.7512  1.0773
  848MOL0     H16962   5.018  10.264   9.145 -1.2663  0.2963  1.8451
  848MOL0     H16963   5.122  10.416   9.001  0.7169 -0.8670  1.9277
  848MOL0     H16964   4.960  10.500   8.959  0.7180  1.3261 -0.1587
  848MOL0     H16965   4.940  10.575   9.199 -0.3697  1.7346 -3.3401
  848MOL0     H16966   5.081  10.645   9.126 -0.3222  1.2463  2.3821
  848MOL0     H16967   5.086  10.400   9.313 -0.4004  0.2905  1.1175
  848MOL0     H16968   5.219  10.501   9.254 -0.8213  1.3734  0.7994
  848MOL0     H16969   5.150  10.566   9.485  1.1859  1.1923 -0.0248
  848MOL0     H16970   4.985  10.595   9.427  0.0576 -0.5212  2.1718
  848MOL0     H16971   5.056  10.794   9.303 -0.4853 -0.2453  0.6694
  848MOL0     H16972   5.098  10.797   9.464 -4.3731 -0.4139 -0.2076
  848MOL0     H16973   5.311  10.679   9.162 -1.4471  1.6437 -0.6166
  848MOL0     H16974   5.641  10.848   9.164 -1.0931  0.6408  0.5485
  848MOL0     H16975   5.541  10.718   9.082 -1.6639  0.4714  0.1580
  848MOL0     H16976   5.713  10.678   9.334 -1.8221 -0.9820  1.6789
  848MOL0     H16977   5.596  10.564   9.259  0.0123 -0.3865 -0.8675
  848MOL0     H16978   5.817  10.506   9.170  0.5613  0.6663  2.9290
  848MOL0     H16979   5.724  10.594   9.039  2.9007 -0.9022 -1.1125
  848MOL0     H16980   5.856  10.790   9.084  1.7606  0.2788  0.7348
  848MOL0     H16981   5.954  10.682   9.199 -1.8358 -2.2633  2.2136
  848MOL0     H16982   6.081  10.842   9.100 -1.9584 -2.3774 -0.4220
  848MOL0     H16983   6.270  10.979   9.177 -0.3976  0.0658  0.7035
  848MOL0     H16984   6.421  10.968   9.093  0.2238 -1.4648 -1.7179
  848MOL0     H16985   6.385  10.858   9.231 -1.9055 -3.5812 -1.1661
  848MOL0     H16986   6.789  10.527   8.856  1.2149  0.2961 -1.2191
  848MOL0     H16987   7.024  10.535   8.904  0.0106 -1.4270  1.6383
  848MOL0     H16988   7.188  10.837   9.211 -0.7283 -0.5650 -0.8530
  848MOL0     H16989   7.144  10.702   9.301 -0.2028  1.3537  1.0734
  848MOL0     H16990   7.397  10.703   9.305 -2.2353 -1.8056  2.0136
  848MOL0     H16991   7.352  10.579   9.179 -3.9579  0.1280 -0.7040
  848MOL0     H16992   7.398  10.873   9.089 -0.2740 -0.2270 -0.2073
  848MOL0     H16993   7.403  10.728   8.991  0.2346 -1.2852  0.5039
  848MOL0     H16994   7.610  10.765   9.218  0.3218  1.1679  0.3834
  848MOL0     H16995   7.638  10.824   9.051  3.4744 -1.3061  1.8826
  848MOL0     H16996   7.598  10.533   9.144  0.3501  0.8004  2.3192
  848MOL0     H16997   7.611  10.599   8.975  0.2845 -0.2978 -0.2789
  848MOL0     H16998   7.810  10.508   9.065  1.8658  1.0781 -1.5140
  848MOL0     H16999   7.827  10.639   9.187  0.9303 -2.5792  0.7579
  848MOL0     H17000   7.831  10.807   8.990 -1.2324 -0.0354  0.3553
  848MOL0     H17001   7.810  10.676   8.881 -0.4353  0.4438 -0.6154
  848MOL0     H17002   8.052  10.676   8.869 -2.7409 -0.8776 -1.7685
  848MOL0     H17003   8.009  10.562   8.992 -1.2511 -0.9316 -1.9605
  848MOL0     H17004   6.938  10.796   9.226  3.5278 -1.5992  0.1589
  848MOL0     H17005   6.708  10.767   9.194 -0.9472 -1.5589  0.8850
  848MOL0     H17006   6.375  10.548   8.835 -0.0499 -1.5832  0.6554
  848MOL0     H17007   6.117  10.528   8.833  1.2312  1.9085 -3.1505
  848MOL0     H17008   4.458  10.333   9.194 -0.5915 -1.0216 -0.4087
  848MOL0     H17009   4.230  10.425   9.157  1.0256  2.2229  0.7606
  848MOL0     H17010   3.985  10.509   8.745 -0.5375  0.5932 -1.1238
  848MOL0     H17011   3.767  10.500   8.630  1.5454 -0.3007 -0.8449
  848MOL0     H17012   3.554  10.402   8.627 -1.9045 -1.3418 -0.2896
  848MOL0     H17013   3.398  10.440   8.663 -1.5344  2.0985 -0.9970
  848MOL0     H17014   3.476  10.552   8.443  1.0188  1.7068 -1.5516
  848MOL0     H17015   3.617  10.609   8.517  0.3604 -0.9560 -0.2344
  848MOL0     H17016   3.332  10.687   8.594 -0.5159  1.8416  1.9697
  848MOL0     H17017   3.472  10.784   8.641 -0.3527 -1.1235  1.0427
  848MOL0     H17018   3.441  10.775   8.338  1.8523  0.9545  0.2685
  848MOL0     H17019   3.464  10.907   8.441  0.6214 -0.2866 -0.1257
  848MOL0     H17020   3.030  10.826   8.415  0.0420  0.2318 -0.5476
  848MOL0     H17021   3.585  10.618   8.999 -0.5877 -0.4946 -1.3202
  848MOL0     H17022   3.878  10.740   9.163 -0.3754 -0.1108  3.1402
  848MOL0     H17023   3.704  10.730   9.156  1.3317  1.6184 -0.1525
  848MOL0     H17024   3.803  10.591   9.222 -1.9241 -0.5578 -1.3396
  849MOL0     O17025   8.519   3.121   1.957 -0.1954 -0.6411 -0.6794
  849MOL0     C17026   8.449   3.204   1.902 -0.5648 -0.3960  0.5430
  849MOL0     O17027   8.492   3.269   1.792 -0.1698  0.3909  0.5270
  849MOL0     C17028   8.610   3.231   1.732 -0.9182 -0.2383 -0.5173
  849MOL0     C17029   8.620   3.121   1.647 -0.0035  0.1467  0.2422
  849MOL0     C17030   8.755   3.086   1.613  0.5470 -0.4159  0.2086
  849MOL0     C17031   8.879   3.155   1.644  1.3454  0.0446 -0.6179
  849MOL0     O17032   8.999   3.121   1.600  1.3198 -0.9777  0.6089
  849MOL0     C17033   9.039   2.989   1.616  0.8959 -0.1075  0.4799
  849MOL0     C17034   9.183   2.994   1.649 -0.1844 -0.5000  0.1098
  849MOL0     C17035   9.268   3.071   1.544 -0.0592  0.6121  0.1231
  849MOL0     C17036   9.416   3.061   1.582  0.3512  1.0491  0.4258
  849MOL0     C17037   9.494   3.137   1.487  0.5805 -0.1650  0.5213
  849MOL0     C17038   9.644   3.123   1.525  1.0063 -0.8307  1.2149
  849MOL0     C17039   9.718   2.997   1.460 -0.0026 -0.2037  0.2114
  849MOL0     C17040   9.686   2.860   1.527  0.1314  0.8416 -0.2500
  849MOL0     N17041   9.797   2.770   1.491 -0.1364 -0.0853 -0.6979
  849MOL0     C17042   9.870   2.703   1.588 -0.2856 -0.6506 -0.1278
  849MOL0     C17043   9.965   2.635   1.518  0.1666 -0.5882  0.0308
  849MOL0     C17044  10.073   2.551   1.587 -0.2759 -0.1154  0.5435
  849MOL0     C17045  10.105   2.423   1.517 -0.1507 -0.1886 -0.3177
  849MOL0     C17046  10.181   2.317   1.603  0.4818 -0.2854 -0.1700
  849MOL0     C17047  10.318   2.358   1.655  0.7894 -0.2612  0.7178
  849MOL0     O17048  10.405   2.406   1.554 -0.2702  0.3983  0.1165
  849MOL0     C17049  10.528   2.424   1.603 -0.1679 -0.3196 -0.1426
  849MOL0     C17050  10.617   2.456   1.502 -0.5162 -0.6122  0.7113
  849MOL0     C17051  10.753   2.482   1.533  0.3953 -0.0933  0.2202
  849MOL0     C17052  10.846   2.525   1.432 -0.5052  0.0522  0.3518
  849MOL0     C17053  10.784   2.479   1.673  0.2781  0.8124 -0.4132
  849MOL0     C17054  10.926   2.485   1.720 -0.8509 -0.2073  0.4327
  849MOL0     O17055  11.030   2.568   1.672 -0.4048  0.1105 -0.2364
  849MOL0     C17056  11.165   2.542   1.692  0.3571 -0.1795  0.1459
  849MOL0     C17057  11.227   2.426   1.726 -0.0588 -0.6918 -0.4279
  849MOL0     C17058  11.366   2.421   1.724 -0.1190 -0.8107 -0.8240
  849MOL0     C17059  11.447   2.532   1.693  0.1980 -0.1383  0.3293
  849MOL0     O17060  11.583   2.513   1.697  0.0076  0.5376  0.7115
  849MOL0     C17061  11.672   2.622   1.721  0.3245  0.3025 -0.1566
  849MOL0     C17062  11.819   2.575   1.671  0.1412 -0.2698 -0.0217
  849MOL0     C17063  11.910   2.696   1.706  0.7416 -1.0885  0.9025
  849MOL0     C17064  12.051   2.657   1.670  0.2317  0.7974 -0.1587
  849MOL0     C17065  12.144   2.756   1.736 -0.7357  0.1063 -0.4389
  849MOL0     C17066  12.284   2.719   1.694 -0.3094  0.1240 -0.1521
  849MOL0     C17067  12.408   2.800   1.759  0.5726  1.4776 -0.0672
  849MOL0     C17068  12.529   2.819   1.663  0.5256  0.0986  0.0760
  849MOL0    Cl17069  12.676   2.825   1.755  0.1019  0.5347 -0.6506
  849MOL0     C17070  11.389   2.661   1.668  1.0912  0.4684 -0.1108
  849MOL0     C17071  11.238   2.658   1.672 -0.0446 -1.2210  0.1838
  849MOL0     O17072  10.945   2.415   1.816  0.4400  0.3107  0.1984
  849MOL0     C17073  10.687   2.453   1.774  0.3376 -1.1216 -0.1753
  849MOL0     C17074  10.566   2.414   1.735 -0.3733 -0.4314 -0.1505
  849MOL0     N17075   9.946   2.662   1.386 -0.3337 -1.4370  0.4482
  849MOL0     N17076   9.852   2.746   1.367 -0.6521  0.5932  0.3371
  849MOL0     C17077   8.855   3.283   1.709 -0.2845 -0.3185 -0.9760
  849MOL0     C17078   8.728   3.314   1.759  0.6774 -0.1075 -0.7909
  849MOL0     C17079   8.311   3.238   1.942  0.2627  0.7719  0.3042
  849MOL0     C17080   8.230   3.304   1.847 -0.7027 -0.9881 -0.8149
  849MOL0     C17081   8.092   3.317   1.868 -0.4250 -0.7783 -0.0065
  849MOL0     C17082   8.026   3.271   1.985 -0.4641 -0.4964 -0.3980
  849MOL0     O17083   7.897   3.279   2.023  0.1375  0.1460  0.6943
  849MOL0     C17084   7.822   3.382   1.959 -0.9211 -0.4616 -0.7010
  849MOL0     C17085   7.870   3.526   2.001  0.3586  0.2797 -0.6307
  849MOL0     C17086   7.807   3.566   2.134  0.4594 -0.4232 -0.3147
  849MOL0     C17087   7.854   3.704   2.169 -0.4031  0.1687 -0.0091
  849MOL0     C17088   7.805   3.756   2.301  0.9639  0.4861  0.2259
  849MOL0     C17089   7.775   3.777   2.417 -0.3087  0.1327  0.3164
  849MOL0     C17090   8.108   3.206   2.074  0.2993  0.1266 -0.4667
  849MOL0     C17091   8.247   3.182   2.060  0.5519  0.0351  0.1063
  849MOL0     C17092   8.318   3.089   2.163  0.9606  0.2419  0.5261
  849MOL0     H17093   8.533   3.062   1.620  0.3928  0.4498 -1.8447
  849MOL0     H17094   8.773   2.998   1.551  1.6838 -0.3157  0.3794
  849MOL0     H17095   9.017   2.930   1.527  0.3588 -1.4720  1.4758
  849MOL0     H17096   8.978   2.936   1.691 -3.0588 -1.7366 -3.4355
  849MOL0     H17097   9.201   3.038   1.748  2.5838 -3.5813  1.1701
  849MOL0     H17098   9.217   2.890   1.660 -0.4607 -0.5165  0.8622
  849MOL0     H17099   9.246   3.029   1.445 -1.3386  0.1601  0.5779
  849MOL0     H17100   9.238   3.176   1.549  1.2524  1.0205 -0.2233
  849MOL0     H17101   9.428   3.105   1.682  0.4499  1.7973  0.0857
  849MOL0     H17102   9.451   2.957   1.576 -0.1111  0.9862 -3.4914
  849MOL0     H17103   9.458   3.240   1.494  1.1952  0.0059  1.3331
  849MOL0     H17104   9.475   3.109   1.383  0.7597  0.8874  0.1932
  849MOL0     H17105   9.711   3.207   1.507  3.0192 -1.9715  2.8442
  849MOL0     H17106   9.650   3.117   1.634 -0.7770  1.9655  1.5729
  849MOL0     H17107   9.824   3.022   1.472 -0.2813  1.4825 -0.5022
  849MOL0     H17108   9.699   2.990   1.353 -1.8133 -0.2341  0.5103
  849MOL0     H17109   9.687   2.870   1.636 -3.0613  3.4114 -0.2971
  849MOL0     H17110   9.590   2.814   1.502 -0.7354  1.2031  2.1453
  849MOL0     H17111   9.855   2.704   1.695  0.0276  0.0500 -0.0847
  849MOL0     H17112  10.051   2.533   1.693  0.7690  0.6442  0.9059
  849MOL0     H17113  10.166   2.608   1.595 -1.5112  1.8994  1.4319
  849MOL0     H17114  10.006   2.389   1.485  1.9233 -2.9659 -4.7580
  849MOL0     H17115  10.165   2.444   1.428  2.0699 -2.5131  0.4922
  849MOL0     H17116  10.120   2.301   1.693  1.0008 -0.6084  0.1274
  849MOL0     H17117  10.194   2.217   1.560 -2.2785 -1.5029  1.5697
  849MOL0     H17118  10.296   2.430   1.733 -3.0752  0.9154 -1.2017
  849MOL0     H17119  10.353   2.273   1.715  0.0722 -0.2269  1.1986
  849MOL0     H17120  10.591   2.457   1.397  3.8306  1.6732 -0.5819
  849MOL0     H17121  10.942   2.479   1.457 -1.0090  0.0440  2.4834
  849MOL0     H17122  10.851   2.633   1.444  0.9089  0.2269 -1.3541
  849MOL0     H17123  10.817   2.501   1.329  0.8830 -1.5434  0.2846
  849MOL0     H17124  11.172   2.335   1.746  0.7185 -1.0388  0.2148
  849MOL0     H17125  11.429   2.338   1.756 -0.4395  0.0146  2.2662
  849MOL0     H17126  11.636   2.717   1.681 -2.6179  0.2433  2.0223
  849MOL0     H17127  11.675   2.639   1.829 -0.0028 -1.3226  0.1421
  849MOL0     H17128  11.850   2.489   1.731  0.7991 -0.4733 -0.6370
  849MOL0     H17129  11.814   2.547   1.565 -1.0031  1.3701 -0.4385
  849MOL0     H17130  11.907   2.719   1.812 -0.6423 -2.4108  1.1966
  849MOL0     H17131  11.885   2.783   1.644  2.2453 -0.6929  0.8117
  849MOL0     H17132  12.057   2.668   1.562  0.2755  1.4520 -0.0951
  849MOL0     H17133  12.062   2.556   1.709 -2.1771  1.2771  2.0678
  849MOL0     H17134  12.123   2.861   1.716 -1.0049 -0.0955 -1.2463
  849MOL0     H17135  12.132   2.751   1.845 -3.1282 -0.8657 -0.6908
  849MOL0     H17136  12.291   2.748   1.589 -0.5961 -0.8151 -0.4360
  849MOL0     H17137  12.299   2.611   1.701 -4.7948 -0.5912  1.2159
  849MOL0     H17138  12.434   2.742   1.849 -0.1240 -1.0755 -1.4127
  849MOL0     H17139  12.366   2.897   1.788  1.2124  1.4570  1.0135
  849MOL0     H17140  12.507   2.899   1.592 -2.5455 -0.8739 -0.2043
  849MOL0     H17141  12.534   2.735   1.593 -0.0450 -0.4015  0.6308
  849MOL0     H17142  11.442   2.752   1.645  0.9266  0.5338 -0.2297
  849MOL0     H17143  11.186   2.750   1.650  1.0980 -0.4559  0.5489
  849MOL0     H17144  10.718   2.469   1.877 -1.1344  3.6752 -0.2328
  849MOL0     H17145  10.494   2.392   1.813  0.6063 -0.0709  0.8647
  849MOL0     H17146   8.928   3.361   1.724  0.1195 -1.0726  1.5182
  849MOL0     H17147   8.718   3.404   1.818  1.4710  0.2965 -1.2561
  849MOL0     H17148   8.272   3.326   1.749  0.3349 -0.9388 -0.3742
  849MOL0     H17149   8.030   3.358   1.788  0.3104 -1.3254 -0.8812
  849MOL0     H17150   7.821   3.380   1.849 -0.6099  1.3863 -0.7677
  849MOL0     H17151   7.723   3.365   2.001 -0.2421 -1.9371  0.3717
  849MOL0     H17152   7.843   3.600   1.925  1.5117  1.1938 -0.1777
  849MOL0     H17153   7.980   3.529   2.002  0.3678  0.8733  1.7236
  849MOL0     H17154   7.698   3.564   2.121  0.2849  0.7571  0.7720
  849MOL0     H17155   7.840   3.492   2.208  6.3263 -0.4128 -2.3969
  849MOL0     H17156   7.839   3.768   2.082  0.8530 -0.1336 -0.4674
  849MOL0     H17157   7.964   3.697   2.171 -0.3284 -0.5414 -2.7526
  849MOL0     H17158   7.761   3.822   2.513  0.3551  2.4535 -0.6228
  849MOL0     H17159   8.053   3.156   2.153 -0.3644  0.9316 -0.3963
  849MOL0     H17160   8.402   3.142   2.208  0.7073  0.3666  0.8565
  849MOL0     H17161   8.260   3.064   2.252  0.7579 -0.4083  0.2193
  849MOL0     H17162   8.352   2.992   2.124  0.8526 -0.6811  2.5987
  850MOL0     O17163   9.641   3.000   1.882  0.5289 -0.1267 -0.1033
  850MOL0     C17164   9.589   2.941   1.979  0.3452  0.8092 -0.3887
  850MOL0     O17165   9.644   2.837   2.056 -0.8343  0.1408  0.4311
  850MOL0     C17166   9.781   2.810   2.043  0.4286  0.5723  0.7837
  850MOL0     C17167   9.816   2.692   1.973 -0.8045  0.1523 -0.6813
  850MOL0     C17168   9.951   2.649   1.980  0.7574  0.4485  0.0342
  850MOL0     C17169  10.050   2.719   2.042  0.9001 -0.7060  1.1625
  850MOL0     O17170  10.181   2.670   2.020  0.1469 -0.1027  0.0377
  850MOL0     C17171  10.283   2.686   2.109  0.2354  0.6516 -0.4765
  850MOL0     C17172  10.407   2.627   2.050  0.3021 -0.7354 -0.0061
  850MOL0     C17173  10.503   2.623   2.166 -0.8883  0.0357 -0.1175
  850MOL0     C17174  10.646   2.640   2.128 -0.0122 -0.2326 -0.1573
  850MOL0     C17175  10.758   2.645   2.240  0.4150  0.0456  0.2228
  850MOL0     C17176  10.901   2.628   2.188  0.3766 -0.0777  0.6620
  850MOL0     C17177  10.945   2.746   2.092  0.7466  0.1045  0.6859
  850MOL0     C17178  11.064   2.724   2.005  0.3212  0.6701 -0.5550
  850MOL0     N17179  11.189   2.711   2.084  0.3719  0.5259 -0.2395
  850MOL0     C17180  11.265   2.598   2.088 -0.1433 -0.3297 -0.7318
  850MOL0     C17181  11.366   2.635   2.174  0.3046 -1.0270 -0.5251
  850MOL0     C17182  11.481   2.551   2.234 -0.1807  0.1928 -0.3734
  850MOL0     C17183  11.600   2.553   2.125  0.1316  0.8087 -0.5049
  850MOL0     C17184  11.597   2.422   2.045  0.2013  0.1720 -0.0384
  850MOL0     C17185  11.659   2.290   2.102 -0.2637 -0.2260 -0.2585
  850MOL0     O17186  11.781   2.326   2.178  0.0845  0.2027  0.4124
  850MOL0     C17187  11.867   2.240   2.218  0.2322  0.0583 -0.2094
  850MOL0     C17188  11.957   2.285   2.310 -0.0044 -0.7444 -0.0447
  850MOL0     C17189  12.034   2.205   2.394 -0.0675  0.5979 -0.6028
  850MOL0     C17190  12.119   2.270   2.505  1.0117  0.2731 -0.6666
  850MOL0     C17191  12.048   2.070   2.358 -0.4992  0.4386 -0.7577
  850MOL0     C17192  12.156   1.984   2.409  0.1032  0.1676 -0.3189
  850MOL0     O17193  12.228   1.937   2.303  0.0042 -0.3746  0.4999
  850MOL0     C17194  12.339   1.875   2.332 -0.2323  1.5885 -0.4130
  850MOL0     C17195  12.339   1.738   2.284 -0.8002  0.3643  0.6210
  850MOL0     C17196  12.455   1.654   2.321 -0.1343 -0.4958 -0.1483
  850MOL0     C17197  12.564   1.701   2.394 -0.2584  0.8693  1.0319
  850MOL0     O17198  12.680   1.626   2.406 -0.4077 -0.0906  0.3259
  850MOL0     C17199  12.757   1.635   2.526 -0.5867 -1.5363 -0.0892
  850MOL0     C17200  12.853   1.518   2.549  0.4507  0.1953 -0.8670
  850MOL0     C17201  12.946   1.500   2.430  0.1459  0.0142 -0.6335
  850MOL0     C17202  13.041   1.388   2.468 -0.4238  0.8979 -1.2246
  850MOL0     C17203  13.141   1.326   2.367  0.5510 -0.2640 -0.3172
  850MOL0     C17204  13.233   1.429   2.295  0.4618  0.8780  0.0144
  850MOL0     C17205  13.351   1.359   2.234 -0.0610 -0.0426 -0.0798
  850MOL0     C17206  13.322   1.289   2.105  0.3650  1.0086  0.3179
  850MOL0    Cl17207  13.479   1.272   2.022 -0.3276 -0.2665 -0.2699
  850MOL0     C17208  12.562   1.834   2.424  0.8228 -0.6938 -0.3864
  850MOL0     C17209  12.449   1.919   2.398  0.6580  0.2226 -0.1052
  850MOL0     O17210  12.174   1.964   2.532  0.7397  0.1459 -0.1511
  850MOL0     C17211  11.961   2.017   2.258 -1.2047 -0.2234  0.6493
  850MOL0     C17212  11.862   2.102   2.192 -0.2422  0.3616  0.4248
  850MOL0     N17213  11.343   2.766   2.210  0.2775  0.4166  0.6349
  850MOL0     N17214  11.236   2.816   2.167  0.3027  0.1607 -0.1348
  850MOL0     C17215  10.018   2.848   2.090 -0.3135 -0.3718 -0.8102
  850MOL0     C17216   9.879   2.890   2.101 -0.2919  0.3411 -0.7102
  850MOL0     C17217   9.452   2.974   2.019 -0.5753  0.0529  0.3414
  850MOL0     C17218   9.391   3.082   1.965 -0.5769  0.3134 -0.1369
  850MOL0     C17219   9.267   3.128   1.995 -0.3399  0.0923 -0.5321
  850MOL0     C17220   9.187   3.063   2.089  0.5287  0.3251 -0.8866
  850MOL0     O17221   9.053   3.101   2.119  0.0922  0.2055  0.6827
  850MOL0     C17222   8.951   3.002   2.073 -1.2327  0.7131 -0.0183
  850MOL0     C17223   8.812   3.040   2.122  0.4656 -0.0666 -0.4026
  850MOL0     C17224   8.808   3.032   2.279  0.7661 -0.2194  0.6257
  850MOL0     C17225   8.684   3.123   2.322 -0.6824 -0.2964 -1.0059
  850MOL0     C17226   8.639   3.118   2.458 -0.0844  0.6172 -0.0939
  850MOL0     C17227   8.599   3.103   2.563 -0.2796 -0.7064 -0.4112
  850MOL0     C17228   9.244   2.955   2.150 -0.1530 -0.8025 -0.4361
  850MOL0     C17229   9.378   2.907   2.124 -0.1853 -0.1601  0.7343
  850MOL0     C17230   9.426   2.792   2.211  0.8576 -0.1031 -0.5035
  850MOL0     H17231   9.733   2.629   1.942 -0.5043 -1.2730  1.2246
  850MOL0     H17232   9.976   2.554   1.933  2.0470  0.5176  0.5333
  850MOL0     H17233  10.252   2.619   2.190 -1.7009 -0.4684 -2.0440
  850MOL0     H17234  10.293   2.788   2.146 -1.3882  0.2988  1.0785
  850MOL0     H17235  10.390   2.528   2.006 -0.1082 -0.8227  0.3356
  850MOL0     H17236  10.454   2.684   1.970  0.2507  0.4032  0.7511
  850MOL0     H17237  10.482   2.703   2.237  2.3349  1.2407 -0.3464
  850MOL0     H17238  10.480   2.530   2.217 -1.7762  0.2493 -0.1140
  850MOL0     H17239  10.675   2.549   2.075  0.7922 -3.2167  4.8435
  850MOL0     H17240  10.660   2.731   2.068  0.7686  0.8044  1.5033
  850MOL0     H17241  10.749   2.568   2.318  0.5867  0.8071  1.0044
  850MOL0     H17242  10.741   2.742   2.287  0.6548 -0.5232  1.5354
  850MOL0     H17243  10.972   2.606   2.269  1.7472  0.4119 -0.3654
  850MOL0     H17244  10.903   2.540   2.123 -1.6337  1.2275 -1.2981
  850MOL0     H17245  10.949   2.836   2.155 -0.8596 -0.4468  1.6269
  850MOL0     H17246  10.869   2.760   2.015 -0.7584  0.4548  2.1675
  850MOL0     H17247  11.048   2.640   1.938  1.0202 -2.0872  2.4842
  850MOL0     H17248  11.073   2.812   1.940  1.6219  0.7543 -0.2954
  850MOL0     H17249  11.234   2.505   2.042 -3.9832  0.5242 -0.2441
  850MOL0     H17250  11.448   2.450   2.256 -1.4326  1.4518  4.9260
  850MOL0     H17251  11.500   2.597   2.331  0.4248  1.2092 -0.9467
  850MOL0     H17252  11.576   2.637   2.060 -0.3617  0.0766 -1.2987
  850MOL0     H17253  11.692   2.575   2.179 -0.8053 -1.0974  2.0701
  850MOL0     H17254  11.499   2.397   2.003  0.8817  1.5095 -2.6516
  850MOL0     H17255  11.657   2.455   1.959  0.2527  2.5274  0.8396
  850MOL0     H17256  11.580   2.247   2.166  1.6732 -0.6917  1.9776
  850MOL0     H17257  11.681   2.221   2.021 -0.9373  0.2258 -0.8353
  850MOL0     H17258  11.952   2.388   2.343 -2.2310 -0.8597  0.0968
  850MOL0     H17259  12.074   2.252   2.603 -0.6693 -0.5550 -1.5424
  850MOL0     H17260  12.127   2.377   2.485  1.0799  0.2225 -0.9198
  850MOL0     H17261  12.217   2.222   2.519  0.6343 -0.1490  0.6136
  850MOL0     H17262  12.256   1.699   2.227 -1.3253  4.2970 -1.7070
  850MOL0     H17263  12.449   1.552   2.285  1.0580  0.3884 -3.2072
  850MOL0     H17264  12.810   1.730   2.516 -3.6901  0.4152  0.6226
  850MOL0     H17265  12.700   1.654   2.617 -0.4039  0.3062 -0.3183
  850MOL0     H17266  12.914   1.534   2.638 -0.4611  0.8148 -0.3343
  850MOL0     H17267  12.794   1.429   2.576 -0.0680  0.6565 -0.4388
  850MOL0     H17268  12.999   1.588   2.393  0.1097 -0.0829 -0.9142
  850MOL0     H17269  12.883   1.474   2.345  0.6171 -1.1168 -0.6585
  850MOL0     H17270  12.988   1.297   2.497  2.1935 -0.1622  0.6117
  850MOL0     H17271  13.107   1.417   2.550  1.7910 -1.4414 -2.0514
  850MOL0     H17272  13.200   1.251   2.421 -1.0380 -1.0978  0.3138
  850MOL0     H17273  13.090   1.275   2.284 -2.0270  0.7513  0.5617
  850MOL0     H17274  13.268   1.497   2.373 -1.3208 -1.2966  2.8981
  850MOL0     H17275  13.165   1.484   2.230 -0.5411 -0.0976  0.2047
  850MOL0     H17276  13.415   1.302   2.303 -1.8594  1.3525  2.9696
  850MOL0     H17277  13.404   1.447   2.197  0.6680  0.5355  2.1359
  850MOL0     H17278  13.264   1.361   2.047 -0.2685  1.6712  1.7100
  850MOL0     H17279  13.274   1.192   2.125  0.9822  0.6721  0.1722
  850MOL0     H17280  12.653   1.868   2.471  1.3060  0.2254 -1.9107
  850MOL0     H17281  12.443   2.024   2.427  0.4641  0.2468 -0.2374
  850MOL0     H17282  11.971   1.915   2.223 -0.0848  0.4194 -1.0495
  850MOL0     H17283  11.785   2.060   2.128 -0.5325 -1.4282  1.8700
  850MOL0     H17284  10.096   2.916   2.121 -0.4849 -0.5545  0.0441
  850MOL0     H17285   9.864   2.984   2.153 -1.9022 -0.5452  0.5403
  850MOL0     H17286   9.436   3.143   1.887 -2.0370 -1.1372 -2.1913
  850MOL0     H17287   9.227   3.218   1.950 -0.9379  0.5977  0.9399
  850MOL0     H17288   8.949   3.005   1.964  0.2738 -1.5256 -0.1904
  850MOL0     H17289   8.982   2.902   2.107 -1.3774  0.6783  0.0111
  850MOL0     H17290   8.739   2.968   2.084  1.1462 -2.2403  2.0871
  850MOL0     H17291   8.789   3.140   2.086 -0.5133  0.2040  0.8912
  850MOL0     H17292   8.796   2.930   2.316  2.0069 -0.9186 -0.7698
  850MOL0     H17293   8.898   3.069   2.329  0.9732 -0.1327  0.1883
  850MOL0     H17294   8.599   3.091   2.262 -0.8311  0.5014 -1.2272
  850MOL0     H17295   8.726   3.220   2.294  2.5136 -1.0470  0.6412
  850MOL0     H17296   8.575   3.072   2.663  1.4017 -0.9769 -0.0593
  850MOL0     H17297   9.186   2.910   2.230  1.0029 -3.1324 -0.8142
  850MOL0     H17298   9.509   2.816   2.278  0.6261 -1.3030  0.2471
  850MOL0     H17299   9.337   2.749   2.258 -1.4977 -0.8646 -5.0624
  850MOL0     H17300   9.460   2.710   2.147 -2.8519 -0.9138 -1.6742
  851MOL0     O17301   1.825   9.363  11.126  0.2692 -0.4289 -0.5181
  851MOL0     C17302   1.787   9.281  11.209 -0.4553  0.1898 -0.2550
  851MOL0     O17303   1.864   9.193  11.277  0.0635  1.0225 -0.4407
  851MOL0     C17304   2.003   9.175  11.252  0.8139 -0.2298  0.6943
  851MOL0     C17305   2.099   9.271  11.216 -0.7045  0.3153  0.3021
  851MOL0     C17306   2.238   9.234  11.212  0.2723 -0.0371  0.1703
  851MOL0     C17307   2.281   9.104  11.226 -0.3598  0.5485  0.2703
  851MOL0     O17308   2.416   9.083  11.230 -0.4887 -0.0177 -0.4290
  851MOL0     C17309   2.460   8.946  11.190  0.3906 -1.1450 -0.6450
  851MOL0     C17310   2.593   8.956  11.121  0.0395  0.2706  0.7032
  851MOL0     C17311   2.651   8.812  11.103 -0.9600  0.6907  0.2077
  851MOL0     C17312   2.779   8.814  11.023 -0.3967  0.3979 -0.3555
  851MOL0     C17313   2.892   8.868  11.113  0.8674  0.4191  0.4503
  851MOL0     C17314   3.036   8.830  11.058 -0.8374  0.2522  0.1590
  851MOL0     C17315   3.154   8.862  11.151  0.2148  0.0938 -0.7206
  851MOL0     C17316   3.288   8.814  11.082  0.3032  0.9803 -0.5726
  851MOL0     N17317   3.332   8.920  10.979 -0.8309 -0.0945 -1.2465
  851MOL0     C17318   3.428   9.016  11.006 -0.0535 -0.3928  0.0487
  851MOL0     C17319   3.446   9.077  10.890  0.6137 -0.2182 -0.6919
  851MOL0     C17320   3.541   9.184  10.878 -0.1501 -0.6817 -0.3273
  851MOL0     C17321   3.688   9.134  10.900  0.6612  0.1434  0.4476
  851MOL0     C17322   3.786   9.247  10.880 -0.9719 -0.3018  0.5224
  851MOL0     C17323   3.934   9.184  10.891  0.0123  0.2517  0.2400
  851MOL0     O17324   4.035   9.282  10.853 -0.6609  0.2813 -0.3542
  851MOL0     C17325   4.163   9.258  10.830 -0.4835  0.6454 -0.9848
  851MOL0     C17326   4.240   9.154  10.893  0.5325 -0.1210  0.3412
  851MOL0     C17327   4.372   9.128  10.875  0.1466  0.1702  0.1513
  851MOL0     C17328   4.426   9.001  10.932  0.3900  1.1561 -0.6125
  851MOL0     C17329   4.450   9.220  10.798  0.6602  0.0228 -0.7122
  851MOL0     C17330   4.597   9.223  10.789 -0.2701  0.8312 -0.5172
  851MOL0     O17331   4.651   9.259  10.668 -0.4177  1.2450  0.3470
  851MOL0     C17332   4.788   9.244  10.657 -0.4812  0.6686 -0.0723
  851MOL0     C17333   4.882   9.301  10.739 -0.8864  0.4221  0.6992
  851MOL0     C17334   5.018   9.274  10.715 -0.7009 -0.3909  0.1612
  851MOL0     C17335   5.065   9.212  10.594 -0.5316  0.2723 -0.5618
  851MOL0     O17336   5.202   9.201  10.580  0.4926 -0.5775  0.3539
  851MOL0     C17337   5.248   9.066  10.536  0.0188  0.0092 -0.0820
  851MOL0     C17338   5.394   9.061  10.573 -0.7249 -0.0549 -0.2643
  851MOL0     C17339   5.476   9.108  10.453 -0.1392 -0.4364  0.7690
  851MOL0     C17340   5.625   9.072  10.471 -0.5555 -0.8037 -0.3230
  851MOL0     C17341   5.705   9.126  10.361  1.1492  0.1880  0.8481
  851MOL0     C17342   5.855   9.115  10.387  0.0227 -0.1550  0.6487
  851MOL0     C17343   5.936   9.176  10.272 -0.3317 -0.6241  0.8962
  851MOL0     C17344   6.076   9.211  10.315  1.1248  0.5282  0.2836
  851MOL0    Cl17345   6.162   9.059  10.369 -0.1016 -0.1418 -0.8114
  851MOL0     C17346   4.970   9.180  10.494 -0.4597 -1.3490 -0.2113
  851MOL0     C17347   4.836   9.193  10.533  0.8535 -0.2686  0.6276
  851MOL0     O17348   4.653   9.187  10.892 -0.1812 -0.1581  0.0037
  851MOL0     C17349   4.378   9.334  10.741  0.1032  0.1130 -0.5832
  851MOL0     C17350   4.236   9.343  10.761  0.1043 -0.6019 -0.3617
  851MOL0     N17351   3.373   9.012  10.791 -0.5608 -0.4970 -0.6957
  851MOL0     N17352   3.307   8.909  10.847  0.0999  0.0263 -0.0343
  851MOL0     C17353   2.180   9.010  11.260 -0.9816  0.1603  0.0602
  851MOL0     C17354   2.048   9.045  11.276 -0.4772  0.6931 -0.1919
  851MOL0     C17355   1.644   9.291  11.262 -0.0042 -1.0688  0.5059
  851MOL0     C17356   1.606   9.208  11.368  0.2847  0.8764 -0.3829
  851MOL0     C17357   1.471   9.197  11.417 -0.2765 -0.3554 -0.5236
  851MOL0     C17358   1.381   9.298  11.395  0.2846  0.1841 -0.6335
  851MOL0     O17359   1.252   9.288  11.449 -0.5515  0.5684  0.5805
  851MOL0     C17360   1.165   9.403  11.450 -0.1894 -0.0011  0.0495
  851MOL0     C17361   1.037   9.367  11.524  0.1639 -0.1186  0.3422
  851MOL0     C17362   0.957   9.264  11.430  0.2924  0.0259 -0.1044
  851MOL0     C17363   0.830   9.234  11.506  0.1810  0.1371 -1.7480
  851MOL0     C17364   0.839   9.174  11.642 -0.1793 -0.3274 -0.0472
  851MOL0     C17365   0.847   9.097  11.737 -0.2678 -0.4668 -0.0792
  851MOL0     C17366   1.414   9.391  11.291 -0.4377  0.9257  0.2970
  851MOL0     C17367   1.546   9.391  11.236 -0.0260  0.0638  0.2260
  851MOL0     C17368   1.582   9.504  11.141  0.4113 -0.0829 -0.2214
  851MOL0     H17369   2.086   9.377  11.197  2.4506  0.9747  1.3023
  851MOL0     H17370   2.319   9.304  11.197  1.8932 -2.1243 -1.6383
  851MOL0     H17371   2.389   8.898  11.122 -1.4032 -0.4038  0.6012
  851MOL0     H17372   2.452   8.888  11.283 -1.8424 -0.4657 -0.3412
  851MOL0     H17373   2.580   9.011  11.027  3.5775 -0.4311 -0.3252
  851MOL0     H17374   2.652   9.012  11.194 -0.9595  1.3219  0.7440
  851MOL0     H17375   2.676   8.765  11.198  0.3597 -1.0290 -0.9267
  851MOL0     H17376   2.582   8.742  11.055 -2.4609  1.4615  1.1884
  851MOL0     H17377   2.803   8.711  10.995 -1.1138  0.4044 -1.0113
  851MOL0     H17378   2.756   8.880  10.939 -0.2928  0.7779 -0.0921
  851MOL0     H17379   2.891   8.835  11.218  1.5377  1.6666  0.8798
  851MOL0     H17380   2.890   8.978  11.117  0.6175  0.5756 -2.2263
  851MOL0     H17381   3.034   8.723  11.036  2.9808  0.2721 -0.9380
  851MOL0     H17382   3.053   8.881  10.962  3.5642 -1.5940 -0.2543
  851MOL0     H17383   3.138   8.805  11.243  0.1096  0.5171 -0.4789
  851MOL0     H17384   3.150   8.967  11.181 -2.2213  0.7008 -2.8305
  851MOL0     H17385   3.362   8.800  11.161 -0.0356 -2.8879 -0.7420
  851MOL0     H17386   3.286   8.714  11.038  1.4030  1.1735 -1.0997
  851MOL0     H17387   3.473   9.037  11.103  2.0009 -2.7630 -0.3121
  851MOL0     H17388   3.523   9.256  10.958 -0.0213 -1.8424  0.7968
  851MOL0     H17389   3.516   9.235  10.785 -0.0916  1.3056  0.6903
  851MOL0     H17390   3.707   9.101  11.003 -0.3779 -1.1006  0.2736
  851MOL0     H17391   3.700   9.046  10.837 -2.5620  0.1652 -0.3675
  851MOL0     H17392   3.775   9.293  10.781 -0.2515  1.5479  1.2761
  851MOL0     H17393   3.772   9.326  10.953 -1.1498  0.1440  0.0108
  851MOL0     H17394   3.959   9.146  10.991  0.2775  0.2465  0.1729
  851MOL0     H17395   3.939   9.105  10.815 -0.1088  1.1742 -0.7361
  851MOL0     H17396   4.185   9.084  10.956  2.5744 -1.4543  0.7393
  851MOL0     H17397   4.425   8.920  10.858  1.7747 -0.0023  0.5680
  851MOL0     H17398   4.370   8.972  11.022 -0.6480  1.1173 -1.2577
  851MOL0     H17399   4.526   9.016  10.974 -1.1531  0.4739  3.7928
  851MOL0     H17400   4.847   9.360  10.823  1.8270  2.8924  0.2541
  851MOL0     H17401   5.086   9.307  10.793  1.4699 -1.1079 -1.3400
  851MOL0     H17402   5.191   8.995  10.597  0.5752 -0.1545  0.2547
  851MOL0     H17403   5.222   9.045  10.432 -0.5947 -0.9466  0.2488
  851MOL0     H17404   5.415   9.118  10.664  0.3153  2.9087 -2.1803
  851MOL0     H17405   5.421   8.956  10.586  0.2322  0.0635 -1.1148
  851MOL0     H17406   5.461   9.216  10.449 -4.7177 -0.8990 -0.5435
  851MOL0     H17407   5.440   9.060  10.362 -1.6153  0.3948  0.8842
  851MOL0     H17408   5.641   8.964  10.474 -0.5543 -0.8010 -0.1826
  851MOL0     H17409   5.651   9.119  10.567  0.0290 -2.7476  0.5260
  851MOL0     H17410   5.671   9.105  10.259  0.1355 -1.2886  1.4571
  851MOL0     H17411   5.693   9.234  10.376  1.1397  0.3980 -0.5455
  851MOL0     H17412   5.880   9.009  10.400 -1.4618 -0.6672 -0.4556
  851MOL0     H17413   5.897   9.162  10.476  2.1086  1.1856 -0.9365
  851MOL0     H17414   5.889   9.270  10.242  1.7231  0.3533  0.5881
  851MOL0     H17415   5.945   9.116  10.181  0.1981 -0.7800  1.0539
  851MOL0     H17416   6.080   9.295  10.385  1.8178  0.1583  0.7021
  851MOL0     H17417   6.117   9.248  10.221 -1.0971 -0.5417 -1.1853
  851MOL0     H17418   5.005   9.147  10.396 -0.3642  3.0930 -1.9311
  851MOL0     H17419   4.766   9.159  10.458  3.0457  1.0169 -2.2149
  851MOL0     H17420   4.423   9.412  10.681 -0.4332  0.8405 -0.0658
  851MOL0     H17421   4.172   9.424  10.728 -1.0323 -1.0369  0.6877
  851MOL0     H17422   2.213   8.912  11.292  0.6006  1.1906  1.8958
  851MOL0     H17423   1.977   8.971  11.310 -2.0265  2.0546 -0.3490
  851MOL0     H17424   1.672   9.133  11.412  0.1976  0.5774 -0.7638
  851MOL0     H17425   1.444   9.114  11.482  1.2745 -1.2632 -0.9930
  851MOL0     H17426   1.209   9.488  11.502 -1.4930  1.4733 -1.1783
  851MOL0     H17427   1.153   9.438  11.347  0.0731 -0.1882 -0.0463
  851MOL0     H17428   0.974   9.455  11.544 -0.0142 -0.4496  1.3066
  851MOL0     H17429   1.063   9.321  11.620 -1.0710 -1.5464  0.0457
  851MOL0     H17430   0.941   9.309  11.332 -2.7271 -2.2554 -0.7761
  851MOL0     H17431   1.011   9.173  11.401 -0.9928 -1.2583  1.3478
  851MOL0     H17432   0.770   9.154  11.460  0.8640 -2.4208  1.3935
  851MOL0     H17433   0.775   9.328  11.506 -1.1262 -0.3276  3.3704
  851MOL0     H17434   0.832   9.035  11.823  1.5551  1.1641  1.5342
  851MOL0     H17435   1.341   9.469  11.268  1.9694  3.0447 -0.5775
  851MOL0     H17436   1.504   9.580  11.142 -0.6098 -1.1001 -0.3557
  851MOL0     H17437   1.675   9.556  11.166  0.1568  0.0730  0.4132
  851MOL0     H17438   1.595   9.472  11.037  2.1695 -1.6240  0.4100
  852MOL0     O17439   2.859   2.850   4.783 -0.8285  0.5344  0.2819
  852MOL0     C17440   2.765   2.924   4.814  1.1718  0.0169  0.1448
  852MOL0     O17441   2.766   3.020   4.906 -0.6192 -0.4329  0.6656
  852MOL0     C17442   2.883   3.035   4.978  0.2376  1.4646 -0.3221
  852MOL0     C17443   2.999   3.082   4.935 -0.6600 -0.1469  0.0223
  852MOL0     C17444   3.105   3.093   5.024 -0.7654  0.3444 -0.1408
  852MOL0     C17445   3.093   3.069   5.159  0.0090 -0.5173  0.0573
  852MOL0     O17446   3.191   3.091   5.245  0.1171 -0.0294  0.5804
  852MOL0     C17447   3.224   3.232   5.261 -0.4015  0.3064  0.0719
  852MOL0     C17448   3.366   3.243   5.315  0.5030  0.3358 -0.0738
  852MOL0     C17449   3.475   3.196   5.222  0.2986 -0.0879 -0.0068
  852MOL0     C17450   3.609   3.206   5.298 -0.1590  0.3849  0.8134
  852MOL0     C17451   3.718   3.149   5.205  0.3170 -0.0450 -0.7557
  852MOL0     C17452   3.849   3.148   5.274 -0.0861 -0.7334 -0.1288
  852MOL0     C17453   3.899   3.284   5.325 -0.2161 -0.7185 -0.2754
  852MOL0     C17454   4.050   3.298   5.287 -0.1084 -0.5977 -0.0706
  852MOL0     N17455   4.118   3.388   5.381 -0.3835 -0.6287 -0.8635
  852MOL0     C17456   4.197   3.350   5.482 -0.2363  0.0133  0.2807
  852MOL0     C17457   4.267   3.458   5.523  0.4529 -0.7420  0.1265
  852MOL0     C17458   4.373   3.453   5.632  0.1659 -0.2271 -0.1041
  852MOL0     C17459   4.481   3.555   5.613 -0.1432 -0.3548  0.5208
  852MOL0     C17460   4.592   3.523   5.506 -0.0415 -0.4116 -0.0642
  852MOL0     C17461   4.588   3.620   5.400 -0.3823 -0.6067 -0.2021
  852MOL0     O17462   4.640   3.753   5.433  0.1791  0.3587  1.0853
  852MOL0     C17463   4.776   3.772   5.454 -0.3033 -0.3306  0.2683
  852MOL0     C17464   4.818   3.885   5.518  1.0956 -0.1917 -0.3185
  852MOL0     C17465   4.955   3.920   5.538  0.2765 -0.7292  0.2409
  852MOL0     C17466   4.991   4.062   5.588  0.0698 -0.1289 -0.3845
  852MOL0     C17467   5.052   3.834   5.485  0.6568  0.9073  0.2223
  852MOL0     C17468   5.196   3.867   5.486 -0.8394 -0.5105  0.5468
  852MOL0     O17469   5.281   3.828   5.374 -0.4373 -0.0960 -0.4449
  852MOL0     C17470   5.419   3.843   5.383 -0.2090 -0.6878  1.3183
  852MOL0     C17471   5.501   3.871   5.272 -0.0689  0.6013 -0.1755
  852MOL0     C17472   5.639   3.872   5.280  0.2415  0.0084  0.1022
  852MOL0     C17473   5.712   3.842   5.400  0.2116  0.3585  0.1630
  852MOL0     O17474   5.849   3.829   5.423  0.1489  0.0733  0.0920
  852MOL0     C17475   5.934   3.821   5.314  0.3922 -0.3098  0.0219
  852MOL0     C17476   6.064   3.753   5.349 -0.9178  0.1218  0.5353
  852MOL0     C17477   6.139   3.843   5.448 -1.6866 -0.0337 -0.2556
  852MOL0     C17478   6.291   3.862   5.419  0.0916 -0.3349 -0.4090
  852MOL0     C17479   6.367   3.953   5.525 -0.1565  0.6148 -0.1383
  852MOL0     C17480   6.496   4.025   5.475  0.1260  0.5403  0.2300
  852MOL0     C17481   6.593   3.941   5.391  0.0923  0.2044  0.0844
  852MOL0     C17482   6.724   4.010   5.351  0.4374 -0.2422 -0.2869
  852MOL0    Cl17483   6.803   4.103   5.480 -0.1224 -0.1693 -0.5896
  852MOL0     C17484   5.637   3.810   5.507  0.0775 -0.4018  0.4826
  852MOL0     C17485   5.491   3.809   5.497 -0.5950 -0.1067 -0.1912
  852MOL0     O17486   5.239   3.935   5.581 -0.1155  0.7759 -0.4823
  852MOL0     C17487   5.010   3.719   5.418 -0.5244  0.8055  0.9573
  852MOL0     C17488   4.877   3.689   5.392  1.1426  0.6480 -1.2770
  852MOL0     N17489   4.227   3.556   5.431 -0.5128  0.4260 -0.3004
  852MOL0     N17490   4.142   3.515   5.345  0.6983 -0.4293 -0.3564
  852MOL0     C17491   2.973   3.009   5.202 -0.7202  0.2364 -0.3007
  852MOL0     C17492   2.871   2.984   5.108 -0.7370  0.3358 -0.5725
  852MOL0     C17493   2.650   2.903   4.726 -0.3826 -0.3240 -0.3188
  852MOL0     C17494   2.563   3.012   4.706 -1.0216  0.5236 -0.1415
  852MOL0     C17495   2.452   2.997   4.622 -0.4257 -0.5545 -0.2233
  852MOL0     C17496   2.411   2.885   4.565 -0.7102  1.1126  0.5599
  852MOL0     O17497   2.300   2.887   4.484 -0.5235 -0.1720  0.7093
  852MOL0     C17498   2.315   2.806   4.365  0.2532 -0.2455 -0.1934
  852MOL0     C17499   2.192   2.819   4.275  0.0414 -0.2570 -0.1727
  852MOL0     C17500   2.100   2.705   4.314 -1.0369 -0.2651 -0.3613
  852MOL0     C17501   1.959   2.709   4.236 -0.2534 -0.4969 -0.3416
  852MOL0     C17502   1.890   2.840   4.269 -0.1010 -0.1631  0.1840
  852MOL0     C17503   1.841   2.950   4.297  1.0229  0.0592 -0.4051
  852MOL0     C17504   2.493   2.771   4.593  0.4869  0.5734 -0.1638
  852MOL0     C17505   2.608   2.775   4.669 -0.2355 -0.4733  0.6828
  852MOL0     C17506   2.691   2.645   4.696  0.5027  0.5230 -0.3415
  852MOL0     H17507   3.001   3.112   4.831 -0.5142  1.5499  0.4824
  852MOL0     H17508   3.204   3.133   5.002  0.0581 -0.4988  1.8289
  852MOL0     H17509   3.156   3.285   5.328  0.0553  1.4473 -0.3490
  852MOL0     H17510   3.216   3.271   5.159 -3.0791  0.2822  0.2030
  852MOL0     H17511   3.389   3.346   5.342 -1.9509  0.7972  0.5632
  852MOL0     H17512   3.363   3.182   5.406  3.2222 -1.6792 -1.1968
  852MOL0     H17513   3.453   3.090   5.207  1.5735 -0.8299  2.6467
  852MOL0     H17514   3.474   3.249   5.127  0.9631 -3.1344 -1.8640
  852MOL0     H17515   3.632   3.311   5.317 -0.6029  0.9021 -1.2741
  852MOL0     H17516   3.604   3.155   5.395 -1.2571  0.5817  0.8687
  852MOL0     H17517   3.710   3.207   5.113 -1.4170 -2.3022 -2.1629
  852MOL0     H17518   3.687   3.048   5.176  1.7006  0.1586 -3.1855
  852MOL0     H17519   3.855   3.076   5.356 -0.2073 -0.3384  0.2243
  852MOL0     H17520   3.921   3.114   5.198 -1.6327 -2.1116 -1.0519
  852MOL0     H17521   3.869   3.296   5.430  0.7830 -2.2689  0.2073
  852MOL0     H17522   3.857   3.367   5.267 -0.7686 -2.6643 -2.8310
  852MOL0     H17523   4.101   3.202   5.297  2.0333  0.6110  1.3512
  852MOL0     H17524   4.061   3.347   5.190  1.4475 -0.1979  0.2762
  852MOL0     H17525   4.189   3.256   5.537 -1.1662 -0.5449 -0.7721
  852MOL0     H17526   4.410   3.350   5.641  1.5295  0.2934  0.5035
  852MOL0     H17527   4.318   3.471   5.726  1.2791 -2.1084  0.9812
  852MOL0     H17528   4.426   3.647   5.591 -0.4032 -0.7676 -0.6861
  852MOL0     H17529   4.531   3.570   5.709  0.5652 -0.0619  0.1101
  852MOL0     H17530   4.691   3.526   5.552 -0.3814 -0.6296  0.7115
  852MOL0     H17531   4.591   3.419   5.469  3.1045 -1.1535  1.6188
  852MOL0     H17532   4.627   3.587   5.304  1.7423  1.6781 -0.2231
  852MOL0     H17533   4.482   3.636   5.376 -0.1198  2.0692  0.0232
  852MOL0     H17534   4.748   3.964   5.546  2.2469  0.7776 -0.0989
  852MOL0     H17535   4.905   4.125   5.611  0.6738  2.2506 -3.8430
  852MOL0     H17536   5.043   4.126   5.515  3.6822 -0.2833  1.7807
  852MOL0     H17537   5.062   4.068   5.672 -0.4150  2.2921 -0.0786
  852MOL0     H17538   5.454   3.891   5.176  1.9366 -2.3191 -1.9532
  852MOL0     H17539   5.704   3.900   5.197  0.7056 -0.4086  0.3233
  852MOL0     H17540   5.882   3.770   5.232 -2.4382  1.3609  0.6686
  852MOL0     H17541   5.956   3.923   5.282 -0.4246 -0.0366  0.3058
  852MOL0     H17542   6.056   3.654   5.395  0.1725 -0.1176  0.2285
  852MOL0     H17543   6.127   3.740   5.262 -1.2711  0.7970  0.1701
  852MOL0     H17544   6.134   3.807   5.551  2.8835 -0.5935 -0.0221
  852MOL0     H17545   6.096   3.944   5.453 -2.0688 -0.1165 -1.5986
  852MOL0     H17546   6.291   3.914   5.322 -0.9422 -1.7709 -1.2213
  852MOL0     H17547   6.333   3.764   5.397 -2.1734 -1.4271 -0.1924
  852MOL0     H17548   6.298   4.033   5.552  0.6189  1.5417 -0.8498
  852MOL0     H17549   6.392   3.890   5.611  1.5458 -1.3373 -1.9356
  852MOL0     H17550   6.549   4.064   5.563  0.5706 -0.5272  0.4483
  852MOL0     H17551   6.462   4.114   5.422 -0.8946 -1.1528 -2.1319
  852MOL0     H17552   6.539   3.905   5.303 -2.5322 -0.0086  1.6846
  852MOL0     H17553   6.621   3.857   5.455 -1.6237 -0.0659  0.5358
  852MOL0     H17554   6.707   4.080   5.268 -0.0425  0.5573  0.4670
  852MOL0     H17555   6.789   3.936   5.305 -0.3486 -1.2141  0.1364
  852MOL0     H17556   5.679   3.777   5.602  1.0414 -0.7727 -0.0646
  852MOL0     H17557   5.443   3.779   5.589 -1.8398  0.6310 -0.5863
  852MOL0     H17558   5.077   3.656   5.360 -1.0721 -0.2268  1.4095
  852MOL0     H17559   4.863   3.598   5.335 -2.5141  0.8542 -0.9525
  852MOL0     H17560   2.951   2.977   5.303  1.6170  1.2223  0.5684
  852MOL0     H17561   2.775   2.937   5.128 -0.0349 -1.4174 -1.1129
  852MOL0     H17562   2.582   3.111   4.748 -2.7022  0.9907 -0.4176
  852MOL0     H17563   2.395   3.088   4.604  1.9568  1.1520  0.3707
  852MOL0     H17564   2.409   2.842   4.320  1.0647 -2.6619 -0.5829
  852MOL0     H17565   2.323   2.699   4.385 -1.5821 -0.2896  0.4720
  852MOL0     H17566   2.211   2.794   4.170 -2.7352 -3.6979 -0.0327
  852MOL0     H17567   2.151   2.918   4.296 -2.5089 -1.7921  2.9903
  852MOL0     H17568   2.154   2.617   4.278  1.1047  1.5875 -2.0060
  852MOL0     H17569   2.084   2.707   4.422 -0.1731 -1.6283 -0.1966
  852MOL0     H17570   1.893   2.628   4.267  0.6387 -1.2407 -0.3232
  852MOL0     H17571   1.974   2.698   4.128 -0.5444 -0.0830 -0.4250
  852MOL0     H17572   1.792   3.033   4.343 -0.3538 -0.2199 -1.3134
  852MOL0     H17573   2.464   2.675   4.552 -1.7019  0.0027  2.4785
  852MOL0     H17574   2.637   2.553   4.671 -0.8021  1.2093 -0.1641
  852MOL0     H17575   2.788   2.639   4.646 -0.0834  0.7164 -1.5544
  852MOL0     H17576   2.712   2.636   4.802  1.0080  2.7347 -0.2147
  853MOL0     O17577   2.742  11.123   9.818  0.3477  0.7383  0.1658
  853MOL0     C17578   2.743  11.071   9.926 -0.6065 -0.1733  0.5860
  853MOL0     O17579   2.839  11.096  10.021  0.2805 -0.9001 -0.3961
  853MOL0     C17580   2.962  11.147  10.001 -0.5848 -0.3233  0.0438
  853MOL0     C17581   3.029  11.201  10.112 -0.1261  0.2219 -0.4469
  853MOL0     C17582   3.151  11.258  10.092  0.0112 -0.0098 -0.1051
  853MOL0     C17583   3.215  11.270   9.964 -0.0929 -0.0920 -0.6384
  853MOL0     O17584   3.341  11.322   9.964 -0.0431 -0.9159 -0.0123
  853MOL0     C17585   3.418  11.307   9.843  0.0226  0.3337  0.3680
  853MOL0     C17586   3.551  11.367   9.877 -0.2925  0.4765  0.3539
  853MOL0     C17587   3.619  11.317  10.003 -0.2233 -0.3225 -0.1681
  853MOL0     C17588   3.774  11.337   9.981  0.9614  0.2681 -0.2262
  853MOL0     C17589   3.853  11.227   9.914  0.2668  0.9501 -0.4481
  853MOL0     C17590   3.856  11.089   9.982 -0.6999  1.0814  0.3514
  853MOL0     C17591   3.960  10.992   9.921  0.0550 -0.0900  0.0009
  853MOL0     C17592   3.946  10.848   9.981 -0.0476 -0.2949  0.2392
  853MOL0     N17593   4.069  10.814  10.067  0.9675  0.4246 -0.3409
  853MOL0     C17594   4.096  10.853  10.197  0.5225 -0.6696  0.3112
  853MOL0     C17595   4.228  10.853  10.215  0.9437  0.6697 -0.1708
  853MOL0     C17596   4.293  10.883  10.345 -0.5164 -0.6942 -0.7120
  853MOL0     C17597   4.435  10.948  10.321 -0.0053  0.4759 -0.3187
  853MOL0     C17598   4.509  10.967  10.448  0.4136 -0.3288 -0.3336
  853MOL0     C17599   4.587  11.094  10.461  0.3790 -0.5190  0.0348
  853MOL0     O17600   4.642  11.099  10.596  0.1921 -0.2686  0.3982
  853MOL0     C17601   4.733  11.012  10.635 -0.7349 -0.2427  0.6360
  853MOL0     C17602   4.737  10.998  10.771 -0.1389  0.1826  0.0793
  853MOL0     C17603   4.808  10.907  10.835 -0.1707 -0.0302  0.5143
  853MOL0     C17604   4.798  10.909  10.995  0.5774 -0.1912 -0.2900
  853MOL0     C17605   4.895  10.823  10.765  0.5981 -0.6097 -0.3370
  853MOL0     C17606   4.985  10.727  10.818  0.2677 -0.3688 -0.3465
  853MOL0     O17607   5.063  10.659  10.724 -0.1220 -0.7201  0.1616
  853MOL0     C17608   5.156  10.574  10.782  0.6593  0.2746 -0.1456
  853MOL0     C17609   5.104  10.452  10.828 -0.3146  0.0561  0.1891
  853MOL0     C17610   5.191  10.348  10.873  0.4604 -0.1436 -0.2597
  853MOL0     C17611   5.329  10.365  10.856 -0.3379 -0.3180 -0.2121
  853MOL0     O17612   5.403  10.253  10.890  0.2575 -0.8863  0.4499
  853MOL0     C17613   5.526  10.275  10.964  0.1872  0.1217 -0.1453
  853MOL0     C17614   5.629  10.163  10.931 -0.5005 -0.6872 -0.2418
  853MOL0     C17615   5.766  10.188  11.004 -0.3644  0.7075 -0.3896
  853MOL0     C17616   5.879  10.100  10.962 -0.5818 -0.0280  0.5485
  853MOL0     C17617   6.008  10.127  11.034 -0.2813 -0.5820 -0.1390
  853MOL0     C17618   6.007  10.051  11.167  0.2410  0.2837 -0.0500
  853MOL0     C17619   6.153  10.036  11.229 -0.4758  0.1092  0.5861
  853MOL0     C17620   6.218  10.167  11.270 -0.2560 -0.5621 -0.3047
  853MOL0    Cl17621   6.376  10.117  11.341 -0.1549  0.1188 -0.4997
  853MOL0     C17622   5.376  10.489  10.802 -0.4322  1.2970  1.0484
  853MOL0     C17623   5.291  10.587  10.770 -0.0590 -0.2873  0.2525
  853MOL0     O17624   5.002  10.728  10.943 -0.6530 -0.2281 -0.1244
  853MOL0     C17625   4.887  10.835  10.630 -0.8937  0.9661  0.1749
  853MOL0     C17626   4.813  10.930  10.558 -0.1967  0.0794 -0.3631
  853MOL0     N17627   4.287  10.812  10.100  0.6815  0.0158 -0.5874
  853MOL0     N17628   4.193  10.794  10.012  0.2136 -0.1698  0.2433
  853MOL0     C17629   3.146  11.220   9.854  0.6060 -0.0579  0.5233
  853MOL0     C17630   3.027  11.148   9.881 -0.7195  0.1502  0.2956
  853MOL0     C17631   2.639  10.974   9.968  0.3285  0.3369 -0.3994
  853MOL0     C17632   2.529  10.962   9.877  0.0046  0.2091  0.1738
  853MOL0     C17633   2.411  10.888   9.908 -0.1825  0.2808 -0.0498
  853MOL0     C17634   2.399  10.815  10.029 -0.2720 -0.8373 -0.1864
  853MOL0     O17635   2.298  10.737  10.073  0.2531 -0.1545  0.6989
  853MOL0     C17636   2.162  10.754  10.021 -0.6936  0.3129 -0.0969
  853MOL0     C17637   2.055  10.722  10.127 -0.6214  0.3382 -0.8085
  853MOL0     C17638   1.919  10.704  10.060 -0.4017  0.8185  0.2553
  853MOL0     C17639   1.849  10.827  10.027  0.2106 -0.2988 -0.0196
  853MOL0     C17640   1.704  10.805   9.981 -0.0159 -0.0380 -0.1675
  853MOL0     C17641   1.584  10.778   9.949 -0.1481 -0.3210  0.6875
  853MOL0     C17642   2.517  10.816  10.107 -0.0806  0.3475  0.0237
  853MOL0     C17643   2.634  10.896  10.087  0.1401  0.3734  0.2352
  853MOL0     C17644   2.744  10.889  10.194  0.3886 -0.4275  0.0115
  853MOL0     H17645   2.984  11.197  10.211 -0.1455 -0.0287 -0.4645
  853MOL0     H17646   3.213  11.297  10.172  2.5656  0.6914 -2.2822
  853MOL0     H17647   3.369  11.358   9.759  2.2909 -0.7011 -1.7003
  853MOL0     H17648   3.450  11.204   9.825 -0.0875  0.1100  1.4031
  853MOL0     H17649   3.617  11.351   9.791  0.5894  2.4642  0.6061
  853MOL0     H17650   3.524  11.470   9.901 -1.5899 -0.2558  2.2964
  853MOL0     H17651   3.580  11.369  10.091 -2.2193 -2.6935  0.4833
  853MOL0     H17652   3.605  11.210  10.024  1.9988 -1.4037 -3.3421
  853MOL0     H17653   3.786  11.427   9.921  2.8927 -1.2763 -2.3157
  853MOL0     H17654   3.816  11.350  10.082  5.0546 -2.7237 -1.2807
  853MOL0     H17655   3.955  11.265   9.900  0.8313  0.7345  2.5387
  853MOL0     H17656   3.814  11.211   9.813  0.7436 -0.7053 -0.3950
  853MOL0     H17657   3.874  11.088  10.090  0.8471 -1.1463  0.1482
  853MOL0     H17658   3.757  11.050   9.955 -0.0417  0.1067 -0.7806
  853MOL0     H17659   4.065  11.019   9.939  1.0626 -3.1840 -0.5835
  853MOL0     H17660   3.952  10.998   9.812 -1.4389 -0.2655  0.0808
  853MOL0     H17661   3.859  10.844  10.047 -0.6287  0.2773 -0.4719
  853MOL0     H17662   3.941  10.767   9.907  1.2791 -0.5369  0.3850
  853MOL0     H17663   4.025  10.893  10.268  1.3471  1.3289  0.0727
  853MOL0     H17664   4.313  10.794  10.406  1.0805  0.9965  1.4145
  853MOL0     H17665   4.228  10.946  10.406 -2.4370 -2.2896 -0.9944
  853MOL0     H17666   4.498  10.885  10.258 -1.5008 -0.1861 -1.2251
  853MOL0     H17667   4.414  11.040  10.265 -0.6681  1.8277  2.0024
  853MOL0     H17668   4.438  10.961  10.530  2.6397 -0.6513  1.6924
  853MOL0     H17669   4.566  10.875  10.465 -0.2882 -0.7476 -0.2335
  853MOL0     H17670   4.665  11.099  10.384  0.1234  0.3940 -0.1787
  853MOL0     H17671   4.519  11.180  10.451 -1.0917 -1.8279 -2.0520
  853MOL0     H17672   4.683  11.065  10.838 -0.2309 -1.9378  2.2500
  853MOL0     H17673   4.756  10.812  11.023 -0.9132  0.0767 -1.4779
  853MOL0     H17674   4.723  10.980  11.031 -0.2670 -1.7522  1.1471
  853MOL0     H17675   4.895  10.922  11.044  2.1493 -1.1984 -2.9299
  853MOL0     H17676   4.998  10.432  10.821 -0.2306 -0.1019 -0.8344
  853MOL0     H17677   5.141  10.259  10.909 -0.6735 -0.3837 -2.2364
  853MOL0     H17678   5.562  10.374  10.934  1.0652 -0.7509 -2.1101
  853MOL0     H17679   5.508  10.271  11.072  1.8692 -3.4488  0.1406
  853MOL0     H17680   5.593  10.062  10.954  2.4148 -0.9994  4.2949
  853MOL0     H17681   5.642  10.165  10.823 -1.2713  0.4145 -0.3343
  853MOL0     H17682   5.757  10.166  11.111 -1.6403 -0.4220 -0.6970
  853MOL0     H17683   5.803  10.290  10.989  0.2279  0.3371 -1.6317
  853MOL0     H17684   5.902  10.114  10.856 -1.9850 -1.5461  0.0144
  853MOL0     H17685   5.841  10.001  10.989  1.5148 -0.2519  3.0711
  853MOL0     H17686   6.090  10.090  10.972  1.1275  1.2048  0.5808
  853MOL0     H17687   6.014  10.236  11.047  0.3142 -0.6557  0.2629
  853MOL0     H17688   5.968   9.949  11.157 -1.3230  0.9681 -1.2550
  853MOL0     H17689   5.946  10.112  11.234  0.9063  1.2237 -0.2816
  853MOL0     H17690   6.219   9.991  11.153 -1.7164 -0.7306 -0.0283
  853MOL0     H17691   6.149   9.969  11.315  1.4962  0.4056  0.9601
  853MOL0     H17692   6.158  10.218  11.345  0.4394 -0.5454  0.2469
  853MOL0     H17693   6.243  10.234  11.187  3.1177  2.0869  2.5362
  853MOL0     H17694   5.484  10.493  10.793 -0.4015  3.2501  1.7542
  853MOL0     H17695   5.320  10.683  10.727 -0.6890  0.6998  1.9318
  853MOL0     H17696   4.942  10.766  10.565 -2.0714 -0.7487  0.9404
  853MOL0     H17697   4.825  10.933  10.450  2.7551  0.6608 -0.1139
  853MOL0     H17698   3.193  11.228   9.756  2.8340 -0.2982  1.5060
  853MOL0     H17699   2.981  11.109   9.791 -1.2003  1.3045  0.0152
  853MOL0     H17700   2.520  11.014   9.782 -0.1236 -1.7235 -0.9272
  853MOL0     H17701   2.332  10.902   9.834 -0.7369  2.6479  0.8933
  853MOL0     H17702   2.146  10.853   9.977  0.0099 -0.1662 -1.4821
  853MOL0     H17703   2.148  10.681   9.941 -3.0780 -1.9851  2.2427
  853MOL0     H17704   2.064  10.802  10.200 -0.5544 -0.3860 -0.0023
  853MOL0     H17705   2.081  10.632  10.183 -0.4391  0.9119  0.0418
  853MOL0     H17706   1.927  10.639   9.972 -0.4206  2.3832 -0.9509
  853MOL0     H17707   1.864  10.647  10.135  0.3699 -2.1217 -1.2469
  853MOL0     H17708   1.890  10.881   9.941 -1.1633  0.4233 -0.2505
  853MOL0     H17709   1.854  10.902  10.106  2.0592  0.8804 -1.1764
  853MOL0     H17710   1.480  10.763   9.929 -0.2691  0.7285  0.4669
  853MOL0     H17711   2.515  10.745  10.189  1.5593 -0.3462 -0.4937
  853MOL0     H17712   2.837  10.876  10.137  0.6865  4.4868 -1.0903
  853MOL0     H17713   2.750  10.986  10.244 -0.0561  0.8243 -2.2642
  853MOL0     H17714   2.715  10.820  10.274 -0.9077  1.2111  1.0271
  854MOL0     O17715   0.248   1.450   1.279  0.4730 -0.3282 -0.1235
  854MOL0     C17716   0.215   1.468   1.169  0.1024  0.4158 -0.5866
  854MOL0     O17717   0.292   1.511   1.060  0.8465  0.4978  0.5695
  854MOL0     C17718   0.429   1.483   1.054 -1.0456 -0.1596  0.5144
  854MOL0     C17719   0.500   1.381   1.120  0.0642  0.1407 -0.1559
  854MOL0     C17720   0.639   1.372   1.110  1.1883  0.5207 -0.3992
  854MOL0     C17721   0.702   1.457   1.016  0.9809 -0.3088 -0.8476
  854MOL0     O17722   0.833   1.443   1.022 -0.6510  0.0269  0.0522
  854MOL0     C17723   0.901   1.550   1.094  0.1692 -0.2401 -0.5085
  854MOL0     C17724   1.047   1.503   1.113 -0.3000  0.0450 -0.7933
  854MOL0     C17725   1.132   1.533   0.983  0.4576 -0.4071 -0.3714
  854MOL0     C17726   1.268   1.463   1.000 -0.9229  0.2812 -0.5676
  854MOL0     C17727   1.355   1.487   0.876 -0.4909 -1.1548 -0.3097
  854MOL0     C17728   1.495   1.419   0.891 -0.2305 -0.0026  0.5926
  854MOL0     C17729   1.606   1.491   0.815 -0.0540  0.4722  0.4341
  854MOL0     C17730   1.743   1.419   0.825 -0.6067 -0.0470  0.0522
  854MOL0     N17731   1.841   1.486   0.735  0.1790  0.0448 -0.5825
  854MOL0     C17732   1.895   1.609   0.770  0.3578  0.1426 -0.3623
  854MOL0     C17733   1.945   1.653   0.653 -0.8662 -0.0607 -0.3418
  854MOL0     C17734   2.000   1.790   0.635  0.5999 -0.8684  0.2934
  854MOL0     C17735   2.150   1.802   0.639 -0.8984  0.2205  0.5059
  854MOL0     C17736   2.227   1.748   0.517 -0.1008  0.9968  0.0579
  854MOL0     C17737   2.377   1.770   0.534 -0.5499 -0.3019 -0.1018
  854MOL0     O17738   2.456   1.733   0.420  1.3827 -0.0323 -0.1527
  854MOL0     C17739   2.597   1.730   0.447  0.4936  0.0136  0.2153
  854MOL0     C17740   2.662   1.829   0.511  0.3233 -0.1675 -1.1216
  854MOL0     C17741   2.801   1.829   0.528 -1.0959  0.2378 -1.0950
  854MOL0     C17742   2.858   1.953   0.579 -0.5865 -0.0112  0.6762
  854MOL0     C17743   2.875   1.717   0.494 -0.1542  0.3039  0.4348
  854MOL0     C17744   3.022   1.702   0.510 -0.1983 -0.5325  0.0047
  854MOL0     O17745   3.110   1.682   0.405 -0.3857  0.1036 -0.1947
  854MOL0     C17746   3.241   1.696   0.431 -0.8833 -0.2483 -0.5459
  854MOL0     C17747   3.284   1.825   0.437 -0.6792 -0.3863  1.0322
  854MOL0     C17748   3.421   1.855   0.446 -0.3895 -0.0593  0.1781
  854MOL0     C17749   3.516   1.750   0.456  0.3701  0.9438  0.0762
  854MOL0     O17750   3.646   1.779   0.477 -0.5270 -0.2970 -0.6184
  854MOL0     C17751   3.721   1.832   0.368  0.1855  0.2220  0.7935
  854MOL0     C17752   3.860   1.872   0.423 -0.0967  0.1789 -0.3771
  854MOL0     C17753   3.942   1.748   0.446 -0.1465  0.2009  0.3322
  854MOL0     C17754   4.090   1.754   0.418  0.0640  0.3497  0.0938
  854MOL0     C17755   4.159   1.627   0.475 -0.0632  0.1358 -0.6811
  854MOL0     C17756   4.309   1.654   0.487 -0.1380 -0.7943 -0.3911
  854MOL0     C17757   4.369   1.654   0.349 -0.4263  0.3427  0.0334
  854MOL0     C17758   4.520   1.680   0.371 -0.0027 -0.1205  0.2443
  854MOL0    Cl17759   4.538   1.850   0.420 -0.5734 -0.1069 -0.0918
  854MOL0     C17760   3.472   1.620   0.460 -0.3026  0.2771  0.3435
  854MOL0     C17761   3.333   1.591   0.445  0.1464  0.6096  0.2212
  854MOL0     O17762   3.066   1.718   0.624  0.3746 -0.4168  0.7070
  854MOL0     C17763   2.810   1.615   0.424  1.2397 -0.2854 -0.0350
  854MOL0     C17764   2.669   1.621   0.399  0.0642  0.4434 -0.0727
  854MOL0     N17765   1.922   1.562   0.556  0.7883 -0.0848  0.7373
  854MOL0     N17766   1.861   1.451   0.603 -0.4036  0.3828 -0.2273
  854MOL0     C17767   0.632   1.559   0.949 -0.2879  0.3759 -1.1060
  854MOL0     C17768   0.494   1.573   0.967 -0.4176 -0.5414  0.1848
  854MOL0     C17769   0.074   1.461   1.138  0.0984  0.3306 -0.4614
  854MOL0     C17770   0.035   1.520   1.016 -0.1217 -0.3922  0.2469
  854MOL0     C17771  -0.099   1.518   0.962 -0.0690  0.5952 -1.1653
  854MOL0     C17772  -0.198   1.473   1.047  0.5065  0.7341  0.3204
  854MOL0     O17773  -0.332   1.488   1.004 -0.3995 -0.5272 -0.0796
  854MOL0     C17774  -0.433   1.397   1.054  0.4144  0.1369 -0.9436
  854MOL0     C17775  -0.411   1.253   1.009  0.3620  0.0855  0.7839
  854MOL0     C17776  -0.511   1.154   1.067  0.1139 -0.4096 -0.3464
  854MOL0     C17777  -0.486   1.134   1.216  0.3184 -0.7787 -0.2045
  854MOL0     C17778  -0.349   1.103   1.261 -0.4894  0.9632  0.1169
  854MOL0     C17779  -0.239   1.074   1.299  0.3958  0.4577 -1.0494
  854MOL0     C17780  -0.162   1.415   1.176  0.6104 -0.6289  0.0032
  854MOL0     C17781  -0.033   1.405   1.222  0.0678  0.5296  0.0809
  854MOL0     C17782  -0.006   1.335   1.351 -0.2262 -0.5117  0.0610
  854MOL0     H17783   0.440   1.315   1.182 -1.0691  1.7918  0.5778
  854MOL0     H17784   0.698   1.310   1.176 -0.1495 -1.7999 -1.2465
  854MOL0     H17785   0.860   1.552   1.196  0.0148 -3.0471 -0.4595
  854MOL0     H17786   0.880   1.646   1.045 -3.9819 -1.6864 -1.9737
  854MOL0     H17787   1.096   1.553   1.197  1.8353 -0.3829 -1.7203
  854MOL0     H17788   1.044   1.396   1.135  2.3553  0.5034  2.6716
  854MOL0     H17789   1.092   1.494   0.889 -0.1396  1.4196 -0.9207
  854MOL0     H17790   1.145   1.640   0.968 -2.0984 -0.0296 -0.3699
  854MOL0     H17791   1.318   1.516   1.081  1.6230  1.2743 -2.6224
  854MOL0     H17792   1.254   1.357   1.025 -0.2923 -0.3354 -2.5814
  854MOL0     H17793   1.371   1.595   0.866 -0.2472 -1.0193  1.3396
  854MOL0     H17794   1.315   1.451   0.780  2.7449 -0.5697 -2.0315
  854MOL0     H17795   1.523   1.411   0.996 -0.3192 -0.2827  0.5978
  854MOL0     H17796   1.506   1.319   0.846  2.6648  0.1459  0.8277
  854MOL0     H17797   1.618   1.588   0.864 -1.6046  0.3980  0.9890
  854MOL0     H17798   1.587   1.507   0.709  0.1849  5.2635  0.9041
  854MOL0     H17799   1.763   1.424   0.932 -0.3841  2.4521 -0.0427
  854MOL0     H17800   1.737   1.315   0.790 -1.7544 -0.7658  2.1779
  854MOL0     H17801   1.876   1.639   0.873 -1.8640 -4.6323  0.9400
  854MOL0     H17802   1.962   1.848   0.720 -1.7758 -3.9722  1.5459
  854MOL0     H17803   1.957   1.837   0.546 -1.3410 -1.1721  1.0244
  854MOL0     H17804   2.179   1.907   0.652  1.1523  0.5098 -4.1366
  854MOL0     H17805   2.188   1.755   0.730 -0.6895 -0.6525 -0.0177
  854MOL0     H17806   2.225   1.638   0.519  1.1607  0.9506 -0.4899
  854MOL0     H17807   2.181   1.780   0.424 -0.5799  0.1618 -0.0045
  854MOL0     H17808   2.400   1.874   0.558 -0.0492 -0.5166  0.3892
  854MOL0     H17809   2.413   1.717   0.623  0.6824  0.3515 -0.1865
  854MOL0     H17810   2.610   1.911   0.560 -0.1534  0.6380 -2.8727
  854MOL0     H17811   2.790   2.038   0.568 -2.2057 -1.4422 -0.6921
  854MOL0     H17812   2.948   1.980   0.523 -0.3325 -2.9470 -0.4877
  854MOL0     H17813   2.881   1.946   0.686 -0.5452 -1.4587  0.5849
  854MOL0     H17814   3.224   1.915   0.426  0.3478  0.2037 -0.0472
  854MOL0     H17815   3.470   1.952   0.449  2.1061 -1.2489  0.7802
  854MOL0     H17816   3.724   1.758   0.287 -1.8262 -0.2194  1.0587
  854MOL0     H17817   3.661   1.911   0.321 -0.8758 -0.5091  0.8784
  854MOL0     H17818   3.905   1.945   0.355  0.8541  0.7744  0.8327
  854MOL0     H17819   3.850   1.923   0.520  2.0945 -2.0413  1.1456
  854MOL0     H17820   3.916   1.674   0.370 -0.6065 -1.1772  1.7840
  854MOL0     H17821   3.928   1.702   0.545  1.1217 -0.4979  0.1974
  854MOL0     H17822   4.127   1.847   0.464 -0.3714  1.8108 -2.3299
  854MOL0     H17823   4.113   1.760   0.311  1.0294 -1.1155  0.1964
  854MOL0     H17824   4.121   1.605   0.575  1.6417  5.5148  1.5162
  854MOL0     H17825   4.143   1.534   0.421  0.8596 -0.5131  0.1476
  854MOL0     H17826   4.351   1.577   0.553  0.8626 -1.6641 -1.9723
  854MOL0     H17827   4.321   1.749   0.540 -0.7846 -0.8537 -0.1311
  854MOL0     H17828   4.329   1.735   0.286 -1.2469  1.0057  1.3710
  854MOL0     H17829   4.347   1.558   0.302  2.9167  0.4732 -2.1260
  854MOL0     H17830   4.579   1.656   0.282  0.0153 -0.6932  0.4049
  854MOL0     H17831   4.568   1.612   0.442  1.3006  2.1948  1.7118
  854MOL0     H17832   3.543   1.539   0.466 -1.5353 -1.1819 -2.4012
  854MOL0     H17833   3.291   1.490   0.445 -0.4729  0.8655 -0.1304
  854MOL0     H17834   2.870   1.528   0.400  1.0188 -0.2377 -0.7690
  854MOL0     H17835   2.622   1.533   0.355 -1.1571  0.2260  1.5338
  854MOL0     H17836   0.683   1.632   0.887  2.6409 -0.3840  0.2619
  854MOL0     H17837   0.441   1.635   0.896 -1.1694 -0.4784  0.7820
  854MOL0     H17838   0.111   1.553   0.946  2.4092 -2.2782  1.9343
  854MOL0     H17839  -0.120   1.561   0.865  0.7578 -3.8728 -3.5938
  854MOL0     H17840  -0.458   1.397   1.160  1.2475  1.2523 -0.7317
  854MOL0     H17841  -0.523   1.423   0.997 -0.3980 -0.7228 -0.0940
  854MOL0     H17842  -0.311   1.213   1.027  0.4484 -1.3500 -2.1724
  854MOL0     H17843  -0.415   1.254   0.899  1.5198  0.7188  0.7339
  854MOL0     H17844  -0.613   1.193   1.057 -0.9170 -2.5949  0.9788
  854MOL0     H17845  -0.499   1.063   1.009  1.6072  0.0599 -0.8173
  854MOL0     H17846  -0.554   1.054   1.248  0.6504 -1.8352 -2.0405
  854MOL0     H17847  -0.529   1.223   1.263  1.5028  0.3806 -1.2305
  854MOL0     H17848  -0.145   1.038   1.336 -0.7804 -2.1091 -0.3591
  854MOL0     H17849  -0.242   1.383   1.242 -2.3612 -2.2907 -4.0024
  854MOL0     H17850   0.068   1.257   1.331  0.6874  0.3918 -0.1129
  854MOL0     H17851   0.038   1.412   1.415 -2.3097 -1.2574  2.6020
  854MOL0     H17852  -0.097   1.299   1.401 -0.9035  1.5669  0.4088
  855MOL0     O17853   4.809  10.924   6.748  0.2179 -0.0606 -0.7114
  855MOL0     C17854   4.812  10.941   6.632  0.3533 -0.1023  0.0808
  855MOL0     O17855   4.912  10.999   6.572  0.2575 -0.3436 -0.3974
  855MOL0     C17856   5.035  10.998   6.629 -0.6750 -0.1787  0.0242
  855MOL0     C17857   5.084  10.875   6.691 -0.3015 -0.8255 -0.4191
  855MOL0     C17858   5.216  10.876   6.749  0.4129 -0.4864  0.2442
  855MOL0     C17859   5.290  10.995   6.757  0.2701 -0.0879 -0.0655
  855MOL0     O17860   5.405  11.002   6.829  0.1483 -0.8577 -0.9682
  855MOL0     C17861   5.505  10.899   6.799 -0.1865  0.4444 -0.0799
  855MOL0     C17862   5.638  10.950   6.845  0.0921  0.6524 -0.4148
  855MOL0     C17863   5.743  10.842   6.804  0.9852 -0.3504 -0.4564
  855MOL0     C17864   5.888  10.876   6.831  0.4893  0.4355 -0.7714
  855MOL0     C17865   5.983  10.759   6.794 -0.8432  0.9003  0.6344
  855MOL0     C17866   6.133  10.788   6.804  0.3469  0.3122 -0.5305
  855MOL0     C17867   6.218  10.659   6.769 -0.1978 -0.1892 -0.0188
  855MOL0     C17868   6.367  10.691   6.762 -0.4342 -0.3495  0.2488
  855MOL0     N17869   6.424  10.739   6.885 -0.2066  0.1898 -0.4198
  855MOL0     C17870   6.432  10.665   7.003  0.2724  0.0324 -0.0782
  855MOL0     C17871   6.459  10.755   7.098  0.0737 -0.1844 -0.1748
  855MOL0     C17872   6.459  10.736   7.251 -1.0715 -0.3100 -0.8060
  855MOL0     C17873   6.324  10.682   7.303  0.1097  0.5840 -0.8036
  855MOL0     C17874   6.221  10.793   7.302  0.3675 -0.4604  0.5270
  855MOL0     C17875   6.098  10.739   7.233  0.4723 -0.5464  0.5377
  855MOL0     O17876   6.043  10.634   7.304  0.7249 -0.0955  0.2932
  855MOL0     C17877   5.919  10.577   7.267 -0.0505 -0.5287 -0.2656
  855MOL0     C17878   5.901  10.447   7.287  0.2704  0.8665  0.4401
  855MOL0     C17879   5.788  10.377   7.242  0.7885 -0.1723 -0.5084
  855MOL0     C17880   5.780  10.229   7.284  0.4890 -0.3320 -0.3237
  855MOL0     C17881   5.695  10.447   7.159 -0.2048  0.2458 -0.6559
  855MOL0     C17882   5.557  10.394   7.122 -0.9930  0.4380  0.0277
  855MOL0     O17883   5.464  10.484   7.077 -0.8266  0.2296 -0.2150
  855MOL0     C17884   5.350  10.445   7.010  0.6734 -0.4526 -0.7868
  855MOL0     C17885   5.234  10.393   7.075  0.7100 -0.5038 -0.6650
  855MOL0     C17886   5.125  10.355   7.010  0.7135  0.2542  0.0232
  855MOL0     C17887   5.114  10.367   6.865 -0.2412 -0.2937  0.1287
  855MOL0     O17888   5.005  10.318   6.792 -0.4466  0.2587 -0.1464
  855MOL0     C17889   4.982  10.178   6.798 -0.3291 -0.0999  0.1173
  855MOL0     C17890   4.832  10.165   6.824 -0.2701  0.5309 -0.8108
  855MOL0     C17891   4.782  10.023   6.820  0.1099  0.2944  0.1360
  855MOL0     C17892   4.635  10.007   6.861 -0.2756 -0.5621 -0.6506
  855MOL0     C17893   4.575   9.871   6.823  0.7230 -0.2455  0.0470
  855MOL0     C17894   4.424   9.882   6.867 -0.0919 -0.4605  0.0558
  855MOL0     C17895   4.339   9.755   6.820  0.0460  0.5358 -0.0913
  855MOL0     C17896   4.186   9.785   6.837  0.6196 -0.9985  0.9518
  855MOL0    Cl17897   4.121   9.887   6.694 -0.1057 -0.4583  0.1571
  855MOL0     C17898   5.222  10.427   6.802  0.5397  0.0419 -0.1479
  855MOL0     C17899   5.340  10.456   6.867 -0.9181 -0.4794 -0.5513
  855MOL0     O17900   5.539  10.273   7.135 -0.4646 -0.0847 -0.4117
  855MOL0     C17901   5.718  10.583   7.125 -0.4402 -0.2470  0.4821
  855MOL0     C17902   5.822  10.645   7.188 -0.5152  0.3490  0.6778
  855MOL0     N17903   6.473  10.875   7.036 -0.0880 -0.1985 -0.3744
  855MOL0     N17904   6.451  10.868   6.907 -0.5926  0.1732 -0.3947
  855MOL0     C17905   5.231  11.114   6.705 -0.3011  0.4973 -0.1632
  855MOL0     C17906   5.110  11.113   6.633 -0.8319 -0.3597  0.1004
  855MOL0     C17907   4.692  10.920   6.545  0.3855 -0.0970 -0.9740
  855MOL0     C17908   4.565  10.929   6.606 -0.0508 -0.6208 -0.2433
  855MOL0     C17909   4.448  10.905   6.533 -0.8937 -0.0276 -0.7780
  855MOL0     C17910   4.454  10.890   6.393 -0.2257  0.4174 -1.0196
  855MOL0     O17911   4.344  10.886   6.312 -0.0142  0.2819 -0.5145
  855MOL0     C17912   4.305  10.747   6.293  0.2777 -0.5256  0.5481
  855MOL0     C17913   4.157  10.739   6.250 -0.1628 -0.2829 -0.4480
  855MOL0     C17914   4.090  10.609   6.292 -0.2128  0.1175  0.0813
  855MOL0     C17915   3.943  10.612   6.254  0.8818  0.4574  0.0120
  855MOL0     C17916   3.877  10.478   6.248  0.0408  0.3558 -0.1208
  855MOL0     C17917   3.825  10.364   6.264  0.6698 -0.0030  0.7924
  855MOL0     C17918   4.575  10.894   6.334  0.4162  0.6535  0.5561
  855MOL0     C17919   4.694  10.909   6.404  0.1765 -0.8753 -0.8275
  855MOL0     C17920   4.830  10.888   6.336 -0.6322 -0.3304 -0.0975
  855MOL0     H17921   5.019  10.788   6.700 -0.1663 -0.8736  0.1488
  855MOL0     H17922   5.252  10.789   6.802 -0.5462 -0.3662  1.1171
  855MOL0     H17923   5.514  10.888   6.690 -0.0721  0.4371 -0.0699
  855MOL0     H17924   5.484  10.801   6.841  0.9200 -0.4071 -1.3942
  855MOL0     H17925   5.661  11.049   6.805  0.5405  0.4016 -0.7915
  855MOL0     H17926   5.636  10.954   6.955  0.6113  1.6395 -0.4274
  855MOL0     H17927   5.705  10.750   6.851  0.7173  1.8509  4.2459
  855MOL0     H17928   5.741  10.841   6.695  0.7510  3.6333 -0.6291
  855MOL0     H17929   5.922  10.970   6.788 -2.8865  1.8876 -0.5683
  855MOL0     H17930   5.898  10.889   6.939  2.8931 -2.4865 -0.5057
  855MOL0     H17931   5.959  10.738   6.690 -3.1720 -2.2565  1.6397
  855MOL0     H17932   5.972  10.669   6.856  2.2027 -0.2654 -0.3433
  855MOL0     H17933   6.157  10.860   6.726  0.4855  0.3864 -0.4189
  855MOL0     H17934   6.147  10.821   6.908 -0.1829 -3.1182  0.7668
  855MOL0     H17935   6.184  10.643   6.666 -1.8544  0.5513  0.3730
  855MOL0     H17936   6.189  10.576   6.833 -0.6560 -0.2821 -0.3427
  855MOL0     H17937   6.421  10.603   6.728 -0.1028  0.1543 -0.5605
  855MOL0     H17938   6.381  10.761   6.679  0.7071 -0.9935 -0.1177
  855MOL0     H17939   6.418  10.559   7.020 -0.1868  0.0768 -0.1818
  855MOL0     H17940   6.489  10.821   7.313  1.3196 -0.8476 -1.1421
  855MOL0     H17941   6.540  10.667   7.275  0.0890  1.5094  0.7970
  855MOL0     H17942   6.290  10.594   7.247 -0.0176 -1.8802  2.8130
  855MOL0     H17943   6.345  10.653   7.406  2.6930 -0.5737 -1.5891
  855MOL0     H17944   6.192  10.816   7.405 -0.8265 -0.1116  0.1269
  855MOL0     H17945   6.251  10.887   7.254  0.1246  0.1501  1.5280
  855MOL0     H17946   6.022  10.817   7.235 -0.0524 -1.0031 -0.7892
  855MOL0     H17947   6.115  10.708   7.129 -2.4347  2.4000 -1.0147
  855MOL0     H17948   5.977  10.398   7.347 -0.3569  2.4441  2.6218
  855MOL0     H17949   5.680  10.187   7.303  0.8239  0.3188  4.0408
  855MOL0     H17950   5.820  10.215   7.385  1.1618 -1.8976 -0.7953
  855MOL0     H17951   5.840  10.170   7.215  1.8626 -2.2088  2.3009
  855MOL0     H17952   5.236  10.376   7.183  0.1656  0.5811 -0.4694
  855MOL0     H17953   5.054  10.305   7.076  1.9253 -0.3504  0.8935
  855MOL0     H17954   5.003  10.153   6.693  0.9154  0.2553  0.2726
  855MOL0     H17955   5.049  10.128   6.867  0.7800  1.8212  0.5107
  855MOL0     H17956   4.804  10.204   6.923  0.5282 -1.5136  0.2848
  855MOL0     H17957   4.780  10.222   6.746 -0.5197  1.1969 -0.1748
  855MOL0     H17958   4.844   9.960   6.883  2.5007 -2.0247 -4.0495
  855MOL0     H17959   4.789   9.977   6.721  2.2327 -0.0739  0.4147
  855MOL0     H17960   4.578  10.095   6.830  0.4607  0.5910  1.1188
  855MOL0     H17961   4.637  10.006   6.970  0.7284  2.0871 -0.5602
  855MOL0     H17962   4.576   9.871   6.714  0.2876  1.6474  0.0152
  855MOL0     H17963   4.627   9.788   6.873  2.6338  0.0318 -1.3575
  855MOL0     H17964   4.388   9.973   6.819 -0.3401 -0.0888  0.9342
  855MOL0     H17965   4.421   9.888   6.976  2.2859 -0.5619  0.1944
  855MOL0     H17966   4.369   9.664   6.873 -1.5740  0.4671  0.7710
  855MOL0     H17967   4.355   9.738   6.713  0.4478  1.3568 -0.1745
  855MOL0     H17968   4.162   9.847   6.924 -0.2095  2.1688 -1.3520
  855MOL0     H17969   4.123   9.696   6.834 -1.6186  0.4928  1.0285
  855MOL0     H17970   5.211  10.459   6.699 -2.6466 -0.5940 -0.1051
  855MOL0     H17971   5.410  10.504   6.799 -1.2755 -0.3367 -0.8286
  855MOL0     H17972   5.654  10.644   7.062 -0.0662  1.2083  1.4670
  855MOL0     H17973   5.829  10.750   7.160 -1.9686  0.3704  0.3272
  855MOL0     H17974   5.287  11.206   6.723  1.5064 -0.5219 -0.3348
  855MOL0     H17975   5.084  11.205   6.582  0.5104  0.4882  0.8760
  855MOL0     H17976   4.561  10.959   6.710 -0.0667 -2.2529  0.2495
  855MOL0     H17977   4.348  10.910   6.575 -1.5092  0.9707 -2.2899
  855MOL0     H17978   4.359  10.699   6.211 -1.1644  0.2932 -0.9514
  855MOL0     H17979   4.319  10.696   6.389 -2.2882  0.0197  1.3116
  855MOL0     H17980   4.143  10.751   6.142  2.1513 -0.8391 -0.8470
  855MOL0     H17981   4.108  10.826   6.295  1.2930  0.0648  0.5263
  855MOL0     H17982   4.134  10.530   6.231 -1.3551  0.6840 -1.5406
  855MOL0     H17983   4.110  10.581   6.395 -1.8396 -2.4563 -0.2311
  855MOL0     H17984   3.926  10.663   6.159  0.7886 -1.6281 -1.1349
  855MOL0     H17985   3.887  10.660   6.336 -0.7180 -2.7682  1.0010
  855MOL0     H17986   3.776  10.270   6.274  2.0658 -0.6959  1.3691
  855MOL0     H17987   4.577  10.889   6.226  0.1415 -0.1530  0.5766
  855MOL0     H17988   4.877  10.984   6.318  0.4610 -0.1291  3.2279
  855MOL0     H17989   4.903  10.826   6.389  0.5296 -0.4924 -1.8081
  855MOL0     H17990   4.814  10.836   6.241  1.2227  1.1207 -1.2600
  856MOL0     O17991   3.227   5.629   0.941  0.6090  0.0893 -0.0472
  856MOL0     C17992   3.145   5.686   1.016 -0.3972 -0.5348  1.1371
  856MOL0     O17993   3.184   5.777   1.120 -0.0095  0.1590  0.9433
  856MOL0     C17994   3.320   5.791   1.144  0.3411  0.2360  0.3788
  856MOL0     C17995   3.401   5.901   1.101 -0.1813  0.2574 -0.3523
  856MOL0     C17996   3.538   5.897   1.120 -0.1721  0.5681  0.1319
  856MOL0     C17997   3.599   5.798   1.201 -0.0735 -0.0465  0.5246
  856MOL0     O17998   3.723   5.803   1.263 -0.4933  0.0322 -0.1357
  856MOL0     C17999   3.790   5.933   1.269  0.4268  0.6994 -0.9495
  856MOL0     C18000   3.880   5.952   1.151  0.4523 -0.1772 -0.1935
  856MOL0     C18001   3.989   5.836   1.147  0.0306 -0.4375 -0.4201
  856MOL0     C18002   4.090   5.850   1.034  0.5769  0.2306  0.1180
  856MOL0     C18003   4.194   5.730   1.019 -0.4958 -0.4757 -0.6285
  856MOL0     C18004   4.291   5.723   1.144 -1.1057 -0.4923  0.8985
  856MOL0     C18005   4.435   5.654   1.125  0.4401 -0.6923 -0.4957
  856MOL0     C18006   4.521   5.715   1.014 -0.4395  0.3619  0.0944
  856MOL0     N18007   4.655   5.673   1.018  0.6324 -0.3114  0.5473
  856MOL0     C18008   4.757   5.721   1.105 -0.0290  0.4476  0.3708
  856MOL0     C18009   4.865   5.654   1.079 -0.2194  0.4325  0.7244
  856MOL0     C18010   4.992   5.679   1.152  0.4710  0.4458 -0.5477
  856MOL0     C18011   5.030   5.551   1.229 -0.5540 -0.1095 -0.4807
  856MOL0     C18012   5.138   5.580   1.331 -0.3440  0.1003 -0.2016
  856MOL0     C18013   5.147   5.478   1.446 -0.1819  0.5299  0.1118
  856MOL0     O18014   5.162   5.542   1.574 -0.4589  0.5184 -0.0532
  856MOL0     C18015   5.293   5.565   1.616  0.1806  0.1513  0.5059
  856MOL0     C18016   5.310   5.667   1.702  0.6186 -0.6506  0.0706
  856MOL0     C18017   5.430   5.701   1.758  0.0488 -0.1464 -0.3240
  856MOL0     C18018   5.429   5.820   1.860 -0.1406 -0.1517  0.7365
  856MOL0     C18019   5.547   5.639   1.719  0.4770  0.8200 -0.4072
  856MOL0     C18020   5.682   5.674   1.763 -0.6496 -0.0124  0.2595
  856MOL0     O18021   5.786   5.622   1.689 -0.9429  0.2959 -0.2928
  856MOL0     C18022   5.920   5.614   1.729 -0.2825 -0.0198 -0.6583
  856MOL0     C18023   5.977   5.658   1.853  0.3163  0.1580 -0.4798
  856MOL0     C18024   6.117   5.648   1.886  0.5211 -0.3171  0.2753
  856MOL0     C18025   6.205   5.608   1.784 -0.4848  0.0814  0.1436
  856MOL0     O18026   6.343   5.584   1.797  0.1840 -0.3556  0.4121
  856MOL0     C18027   6.389   5.543   1.921 -0.0603 -0.5835 -0.3407
  856MOL0     C18028   6.398   5.386   1.938  0.0526 -0.9020 -0.6783
  856MOL0     C18029   6.472   5.334   2.066  0.4982  0.1062  1.1595
  856MOL0     C18030   6.487   5.181   2.046  0.4180  0.1509  0.0473
  856MOL0     C18031   6.592   5.120   2.148 -0.2908  0.6563  1.1275
  856MOL0     C18032   6.560   5.139   2.296 -0.3761  0.6835 -1.2106
  856MOL0     C18033   6.447   5.040   2.333 -0.1875 -0.6792  0.2397
  856MOL0     C18034   6.406   5.064   2.478  0.6229 -0.6062  0.1341
  856MOL0    Cl18035   6.530   5.094   2.593  0.2225  0.1898 -0.2823
  856MOL0     C18036   6.159   5.574   1.659  0.2202  0.0734 -0.5898
  856MOL0     C18037   6.021   5.568   1.634 -0.1413  0.0978  0.5633
  856MOL0     O18038   5.696   5.739   1.862  0.1167  0.6459  0.2501
  856MOL0     C18039   5.532   5.526   1.635  0.8490  0.1179  0.2168
  856MOL0     C18040   5.410   5.485   1.591  0.1758 -0.4778  0.5091
  856MOL0     N18041   4.835   5.584   0.956 -0.2962 -0.4230 -0.0626
  856MOL0     N18042   4.713   5.594   0.923 -0.0534  0.1685 -0.0770
  856MOL0     C18043   3.517   5.692   1.240 -0.2644  0.1797  0.8818
  856MOL0     C18044   3.385   5.686   1.211 -0.1400  0.3785  0.1725
  856MOL0     C18045   2.996   5.656   0.993  0.1767 -1.1981 -0.9304
  856MOL0     C18046   2.904   5.744   1.062 -0.3069 -0.0950  0.0815
  856MOL0     C18047   2.767   5.736   1.039 -0.2896 -0.4744 -0.5190
  856MOL0     C18048   2.712   5.643   0.954  1.2283  0.6335 -0.5407
  856MOL0     O18049   2.579   5.610   0.936  0.2867 -0.1091 -0.0954
  856MOL0     C18050   2.484   5.717   0.958 -0.2162  0.1983 -0.0300
  856MOL0     C18051   2.346   5.660   0.929 -0.0002 -0.0765  0.1465
  856MOL0     C18052   2.224   5.734   0.979 -0.1970  0.7592  0.8150
  856MOL0     C18053   2.168   5.842   0.878  0.3891 -0.3111 -0.1080
  856MOL0     C18054   2.276   5.940   0.847 -0.1714  0.6547 -0.9487
  856MOL0     C18055   2.353   6.021   0.804  0.9670  0.4189 -0.2917
  856MOL0     C18056   2.799   5.552   0.895 -1.4015 -0.3404 -0.2604
  856MOL0     C18057   2.938   5.563   0.907 -0.1037  0.3432 -0.7819
  856MOL0     C18058   3.023   5.472   0.826  0.0272 -0.3499 -0.2961
  856MOL0     H18059   3.348   5.980   1.050 -1.2758  0.7779  1.4895
  856MOL0     H18060   3.595   5.982   1.084 -0.6861  0.5309 -0.7970
  856MOL0     H18061   3.860   5.939   1.353 -0.5457 -3.2277  0.3690
  856MOL0     H18062   3.712   6.009   1.282 -1.3639 -0.9872 -1.3390
  856MOL0     H18063   3.820   5.945   1.060 -2.4610 -3.1844  1.7279
  856MOL0     H18064   3.934   6.047   1.158  2.3845 -1.1876 -0.7715
  856MOL0     H18065   4.045   5.847   1.240  0.4983  2.5240 -0.9656
  856MOL0     H18066   3.945   5.735   1.151  0.2532 -0.5025  0.6724
  856MOL0     H18067   4.020   5.852   0.950  1.6202  1.1588 -0.7514
  856MOL0     H18068   4.145   5.944   1.034 -0.0275  0.6017 -0.6650
  856MOL0     H18069   4.253   5.758   0.931 -0.9558 -1.9144 -1.4240
  856MOL0     H18070   4.153   5.631   1.002 -0.6862 -0.3442 -0.9366
  856MOL0     H18071   4.324   5.827   1.154  2.5363 -1.0893 -2.5157
  856MOL0     H18072   4.233   5.680   1.227 -1.3018 -1.5443  0.2276
  856MOL0     H18073   4.433   5.545   1.119  1.2272 -0.7061 -0.7283
  856MOL0     H18074   4.494   5.673   1.215  0.0552  0.9348 -0.5699
  856MOL0     H18075   4.479   5.687   0.917  0.2705  2.0503 -0.7350
  856MOL0     H18076   4.513   5.824   1.014 -0.0665  0.3990 -0.8981
  856MOL0     H18077   4.756   5.805   1.174  0.4964  0.3261  0.5274
  856MOL0     H18078   4.984   5.754   1.231 -2.9075 -1.4086  1.1008
  856MOL0     H18079   5.069   5.714   1.084 -0.1593  1.4562 -0.7536
  856MOL0     H18080   4.940   5.520   1.283 -0.0193 -1.5791 -0.3887
  856MOL0     H18081   5.055   5.466   1.165  0.9301 -0.1862  0.1357
  856MOL0     H18082   5.238   5.574   1.288 -0.1190 -3.1837  0.5003
  856MOL0     H18083   5.119   5.682   1.367 -2.7319 -0.9438  1.7984
  856MOL0     H18084   5.059   5.412   1.444  0.7756 -0.8127  0.6075
  856MOL0     H18085   5.233   5.416   1.421  0.3935  1.4474 -0.2090
  856MOL0     H18086   5.221   5.727   1.718  2.4600  2.2440  0.1236
  856MOL0     H18087   5.337   5.879   1.870 -0.9029 -1.1318 -0.2022
  856MOL0     H18088   5.506   5.889   1.826 -0.4343 -0.4593 -0.6417
  856MOL0     H18089   5.454   5.784   1.960  1.9475 -0.6146  0.0949
  856MOL0     H18090   5.910   5.701   1.928 -0.1012 -3.2653  1.3339
  856MOL0     H18091   6.158   5.677   1.982  0.7388 -0.7693  0.3234
  856MOL0     H18092   6.494   5.572   1.931  0.2582 -0.6143 -3.0054
  856MOL0     H18093   6.328   5.580   2.004  1.3600  0.0793  0.4433
  856MOL0     H18094   6.295   5.349   1.945 -0.4106  0.4114 -0.3193
  856MOL0     H18095   6.445   5.353   1.845  1.0066  1.8177 -1.2366
  856MOL0     H18096   6.412   5.358   2.154 -0.6075 -0.6397  0.6327
  856MOL0     H18097   6.577   5.361   2.080  1.1665 -1.9859  0.6046
  856MOL0     H18098   6.519   5.156   1.945 -2.9809  0.6326 -1.2922
  856MOL0     H18099   6.389   5.134   2.057  0.9618 -0.9908  0.1107
  856MOL0     H18100   6.602   5.012   2.135  1.4411  0.7539  1.4305
  856MOL0     H18101   6.693   5.155   2.128 -0.2068  0.4508  1.1861
  856MOL0     H18102   6.552   5.246   2.319  0.8825  1.1085 -2.5496
  856MOL0     H18103   6.642   5.106   2.360 -1.9402  1.7838  1.5102
  856MOL0     H18104   6.492   4.941   2.325  0.1899 -0.3975 -1.2906
  856MOL0     H18105   6.364   5.049   2.262  0.8818 -1.1955 -1.1062
  856MOL0     H18106   6.358   4.972   2.513  0.8945 -1.2305 -1.1023
  856MOL0     H18107   6.344   5.154   2.487  2.0117  0.5011 -1.0280
  856MOL0     H18108   6.222   5.539   1.579  1.0323 -0.0504  0.0867
  856MOL0     H18109   5.997   5.535   1.533  5.1814  0.0127 -0.9576
  856MOL0     H18110   5.618   5.462   1.618  2.0467  1.6259  0.3941
  856MOL0     H18111   5.396   5.392   1.536  0.8025  1.4967 -3.3946
  856MOL0     H18112   3.564   5.602   1.279 -1.0245  0.1556  1.7778
  856MOL0     H18113   3.324   5.600   1.236  1.5199 -0.8686  0.1144
  856MOL0     H18114   2.940   5.826   1.123 -1.7932  1.9562 -1.6483
  856MOL0     H18115   2.708   5.793   1.110  1.5302  0.0792  0.6022
  856MOL0     H18116   2.500   5.749   1.062  0.4767  0.5367 -0.2334
  856MOL0     H18117   2.501   5.804   0.894  0.6338  0.3259  0.3550
  856MOL0     H18118   2.351   5.560   0.974 -0.6568  0.7582  2.1920
  856MOL0     H18119   2.332   5.643   0.822 -2.1096  1.2711  0.1438
  856MOL0     H18120   2.140   5.672   1.009 -1.7590 -0.2170 -4.4400
  856MOL0     H18121   2.258   5.789   1.067 -0.9797  1.2490  0.8207
  856MOL0     H18122   2.097   5.908   0.929  0.6272  1.0315 -1.4456
  856MOL0     H18123   2.118   5.800   0.791  2.8093 -1.0064 -1.2481
  856MOL0     H18124   2.424   6.088   0.760  0.7363 -0.5746 -2.2795
  856MOL0     H18125   2.751   5.482   0.828 -2.8114 -1.6942  2.0094
  856MOL0     H18126   3.094   5.421   0.891  1.0112  1.7073  0.3309
  856MOL0     H18127   2.960   5.395   0.781  0.5113 -0.6446 -0.4806
  856MOL0     H18128   3.080   5.537   0.759  1.7602  1.9682  3.1094
  857MOL0     O18129  10.076   5.715   7.541 -0.0733  0.0432 -0.2982
  857MOL0     C18130  10.087   5.686   7.427  0.0502  0.1864  0.5512
  857MOL0     O18131  10.160   5.583   7.382  0.5116  0.4494 -0.2298
  857MOL0     C18132  10.201   5.492   7.475  0.3404  0.0937 -0.0636
  857MOL0     C18133  10.347   5.479   7.486  0.3952 -0.4440 -0.2085
  857MOL0     C18134  10.400   5.382   7.578 -0.6710  0.4085  0.2579
  857MOL0     C18135  10.317   5.296   7.646  0.3734 -0.0388 -0.7246
  857MOL0     O18136  10.390   5.203   7.723 -0.0679  0.4619  0.0426
  857MOL0     C18137  10.318   5.087   7.765 -0.4681  0.8981  0.0610
  857MOL0     C18138  10.399   4.985   7.847 -0.0006  0.1229 -0.1800
  857MOL0     C18139  10.535   4.937   7.786 -0.0787 -0.0162 -0.4622
  857MOL0     C18140  10.617   4.852   7.891  0.3639  0.5590  0.4233
  857MOL0     C18141  10.748   4.814   7.819 -0.4353 -0.8355  0.8745
  857MOL0     C18142  10.840   4.943   7.806 -0.1892  0.3279 -0.0781
  857MOL0     C18143  10.973   4.901   7.729  0.0541  1.0409 -0.2760
  857MOL0     C18144  11.071   5.019   7.721  0.1130 -0.1323 -0.0216
  857MOL0     N18145  11.198   4.996   7.650  0.3325  0.2836  0.8998
  857MOL0     C18146  11.231   5.044   7.527 -0.4550 -0.0452 -0.9667
  857MOL0     C18147  11.350   4.985   7.511 -0.8884 -0.7676  0.1435
  857MOL0     C18148  11.434   5.022   7.394 -0.5531 -0.7592 -0.0423
  857MOL0     C18149  11.541   5.113   7.446  0.0715  0.2838  0.4345
  857MOL0     C18150  11.631   5.156   7.328  0.2997  0.7430  0.1209
  857MOL0     C18151  11.743   5.234   7.388 -0.2758 -0.4514 -0.3455
  857MOL0     O18152  11.844   5.142   7.431 -0.6253  0.1718  0.8621
  857MOL0     C18153  11.970   5.152   7.377  0.5890  0.3929  0.2545
  857MOL0     C18154  11.989   5.178   7.249 -0.1134 -0.0568 -0.2398
  857MOL0     C18155  12.119   5.198   7.198  0.1276  0.2610 -1.0174
  857MOL0     C18156  12.114   5.232   7.047  0.3144  0.6489 -1.4181
  857MOL0     C18157  12.240   5.185   7.277 -0.4358 -0.2630  0.5004
  857MOL0     C18158  12.375   5.218   7.229 -0.1705 -0.3005 -0.4315
  857MOL0     O18159  12.476   5.218   7.319 -0.7002 -0.6644  0.1323
  857MOL0     C18160  12.609   5.224   7.271 -0.1994 -0.2858 -0.4331
  857MOL0     C18161  12.669   5.354   7.267 -0.4924 -0.0706  0.7500
  857MOL0     C18162  12.794   5.367   7.219 -0.1386  0.5721  0.1332
  857MOL0     C18163  12.872   5.252   7.185  0.7979  0.5655 -0.5940
  857MOL0     O18164  13.001   5.262   7.145 -0.3966 -0.1240  0.5622
  857MOL0     C18165  13.084   5.279   7.257  0.4354 -0.5872 -0.1374
  857MOL0     C18166  13.176   5.155   7.279 -0.8102 -0.0040 -0.0879
  857MOL0     C18167  13.279   5.128   7.171  0.5299 -0.0721 -0.6250
  857MOL0     C18168  13.407   5.064   7.238  0.5090  0.5767 -0.4508
  857MOL0     C18169  13.522   5.031   7.147 -0.3432 -0.5518 -0.3124
  857MOL0     C18170  13.586   5.151   7.078  0.6059  0.1253  0.6057
  857MOL0     C18171  13.729   5.121   7.027 -0.2123  0.1952 -0.7402
  857MOL0     C18172  13.796   5.237   6.966 -0.3624 -0.5509 -0.2147
  857MOL0    Cl18173  13.964   5.189   6.940  0.5840 -0.0451 -0.3181
  857MOL0     C18174  12.807   5.126   7.185 -0.3187 -0.2903 -0.1855
  857MOL0     C18175  12.675   5.116   7.228  0.3321 -0.7168  0.4397
  857MOL0     O18176  12.385   5.238   7.105 -0.6612 -0.7668  0.0530
  857MOL0     C18177  12.218   5.141   7.408 -0.0463  0.6066  0.2688
  857MOL0     C18178  12.082   5.128   7.454 -0.2994 -0.6998 -0.5876
  857MOL0     N18179  11.383   4.901   7.618  0.8629  0.5358 -0.3131
  857MOL0     N18180  11.283   4.908   7.699  0.2724 -0.9970 -0.0739
  857MOL0     C18181  10.175   5.310   7.639  0.0967 -0.6687  0.1895
  857MOL0     C18182  10.124   5.413   7.559 -0.0031 -0.6219  0.3916
  857MOL0     C18183  10.002   5.747   7.321 -0.3502 -0.2847  0.4740
  857MOL0     C18184  10.000   5.682   7.195  0.5263  0.9018 -0.7274
  857MOL0     C18185   9.935   5.744   7.092  1.1822 -0.6768 -0.8045
  857MOL0     C18186   9.863   5.862   7.109  0.6477 -0.5805 -0.0543
  857MOL0     O18187   9.792   5.929   7.018 -0.5534  0.6220 -0.3210
  857MOL0     C18188   9.774   5.869   6.891 -0.3553  0.5055  1.0471
  857MOL0     C18189   9.693   5.957   6.784  0.0227 -0.5729 -0.5507
  857MOL0     C18190   9.550   5.985   6.837  0.4942  0.3172  0.2733
  857MOL0     C18191   9.489   6.103   6.774 -0.0235  0.1044 -0.6209
  857MOL0     C18192   9.350   6.096   6.820 -1.6326  0.3621 -0.3060
  857MOL0     C18193   9.234   6.089   6.826 -0.1273 -0.1908 -0.1167
  857MOL0     C18194   9.846   5.912   7.232  1.1497 -0.1977 -0.2894
  857MOL0     C18195   9.916   5.859   7.342  0.2724  0.5095 -0.2339
  857MOL0     C18196   9.895   5.927   7.476 -0.4115  0.6029  0.2338
  857MOL0     H18197  10.410   5.549   7.432 -0.0965  1.4783  1.5759
  857MOL0     H18198  10.507   5.379   7.596 -0.3429 -1.0061 -1.5842
  857MOL0     H18199  10.278   5.044   7.673  2.8813  1.9189 -2.0633
  857MOL0     H18200  10.236   5.125   7.827 -2.2573  1.6323 -2.5858
  857MOL0     H18201  10.422   5.043   7.937 -0.6359  1.8078 -1.0517
  857MOL0     H18202  10.334   4.903   7.877  1.9608 -0.7399  2.0788
  857MOL0     H18203  10.521   4.876   7.696 -2.5091  0.0572 -0.2224
  857MOL0     H18204  10.590   5.026   7.755 -0.0286 -0.0301 -0.4137
  857MOL0     H18205  10.641   4.899   7.987  0.7373 -1.5890  1.4449
  857MOL0     H18206  10.570   4.756   7.915  1.5374 -0.4411 -1.0779
  857MOL0     H18207  10.734   4.779   7.716  0.3436  0.1803  0.4041
  857MOL0     H18208  10.807   4.744   7.878  1.6590 -0.1260 -0.2923
  857MOL0     H18209  10.800   5.026   7.746 -1.9548  0.9823  1.8558
  857MOL0     H18210  10.854   4.985   7.906 -0.4477  1.5561 -0.5351
  857MOL0     H18211  10.933   4.885   7.629 -0.0619  0.0012 -0.0767
  857MOL0     H18212  11.025   4.812   7.766 -0.3676 -0.2473 -2.6426
  857MOL0     H18213  11.019   5.102   7.673  0.7563 -0.4888 -1.3621
  857MOL0     H18214  11.098   5.049   7.823  0.2247  2.0563 -0.6403
  857MOL0     H18215  11.166   5.102   7.463 -1.1813  0.5631  0.2845
  857MOL0     H18216  11.373   5.062   7.313  1.7346  2.6281 -0.2762
  857MOL0     H18217  11.478   4.930   7.354  0.9140  0.9600 -2.5904
  857MOL0     H18218  11.495   5.203   7.489  0.3608  0.9157 -0.5432
  857MOL0     H18219  11.601   5.057   7.518 -0.8417 -0.2001  0.8343
  857MOL0     H18220  11.668   5.073   7.266  0.3305  1.9023 -1.4853
  857MOL0     H18221  11.573   5.217   7.258 -0.4218 -1.3439 -1.2095
  857MOL0     H18222  11.780   5.309   7.317  2.5390  0.2611  1.7206
  857MOL0     H18223  11.710   5.285   7.479  0.8292 -0.6222  0.1592
  857MOL0     H18224  11.907   5.184   7.179  1.1053 -2.2272 -1.9608
  857MOL0     H18225  12.019   5.216   6.995  0.3232  1.7960 -1.8299
  857MOL0     H18226  12.183   5.172   6.987  0.2293  0.1657 -1.0339
  857MOL0     H18227  12.153   5.333   7.027 -0.1191  1.8053  2.6137
  857MOL0     H18228  12.603   5.432   7.304 -2.3141 -1.7658  1.2974
  857MOL0     H18229  12.850   5.460   7.211  0.6576  0.1267  0.3577
  857MOL0     H18230  13.144   5.364   7.222 -0.9678  0.6857  0.4322
  857MOL0     H18231  13.021   5.288   7.346  0.5402 -2.2156  0.1291
  857MOL0     H18232  13.223   5.161   7.378  0.9712 -0.0010 -0.8872
  857MOL0     H18233  13.114   5.065   7.282 -3.8739  1.9565 -0.3861
  857MOL0     H18234  13.297   5.225   7.124 -0.1721  0.4978  0.2429
  857MOL0     H18235  13.236   5.054   7.103  4.5220 -2.4409 -0.8281
  857MOL0     H18236  13.369   4.975   7.288 -0.5166  0.8307 -0.7551
  857MOL0     H18237  13.437   5.128   7.321 -2.2747  0.0794  1.0631
  857MOL0     H18238  13.594   4.980   7.212 -0.9861  0.4925  1.2652
  857MOL0     H18239  13.489   4.966   7.066 -0.8008 -0.1346 -0.4678
  857MOL0     H18240  13.582   5.230   7.154  1.1079  0.1083  0.6532
  857MOL0     H18241  13.526   5.187   6.995  0.6579  0.4604  0.7112
  857MOL0     H18242  13.734   5.041   6.953 -0.8218  0.8088 -1.4573
  857MOL0     H18243  13.795   5.092   7.110  0.3891 -0.3046 -1.3796
  857MOL0     H18244  13.783   5.320   7.037 -2.5831 -1.0265  0.0090
  857MOL0     H18245  13.759   5.261   6.866  3.3651  0.2335 -1.5382
  857MOL0     H18246  12.871   5.046   7.147  0.2500  0.3332 -0.5664
  857MOL0     H18247  12.623   5.021   7.232  1.3927 -1.2721  1.6862
  857MOL0     H18248  12.304   5.141   7.474 -1.8080  0.8158  2.6991
  857MOL0     H18249  12.062   5.100   7.557 -0.4157 -0.9777 -0.6843
  857MOL0     H18250  10.114   5.241   7.695 -1.5522  0.4094 -0.2067
  857MOL0     H18251  10.018   5.425   7.543  0.0851 -2.7292 -2.7786
  857MOL0     H18252  10.031   5.579   7.185 -2.0101 -0.2543  1.8912
  857MOL0     H18253   9.944   5.680   7.004  4.1199 -0.5236 -0.7171
  857MOL0     H18254   9.871   5.842   6.847 -0.5775  1.1482  0.1270
  857MOL0     H18255   9.719   5.775   6.889  0.1135  0.2135 -1.0949
  857MOL0     H18256   9.684   5.903   6.689 -0.5568 -1.9369  0.2452
  857MOL0     H18257   9.742   6.051   6.756 -0.2992 -0.4312 -0.6364
  857MOL0     H18258   9.492   5.895   6.816  0.4065  0.7037 -1.3165
  857MOL0     H18259   9.561   6.010   6.943  3.0548  2.6460 -0.4102
  857MOL0     H18260   9.488   6.096   6.665  2.1327  0.8152 -0.7242
  857MOL0     H18261   9.538   6.199   6.791  0.7705 -0.7334  2.7946
  857MOL0     H18262   9.128   6.074   6.824 -0.2774  0.7006 -2.1620
  857MOL0     H18263   9.783   5.997   7.254 -1.7604 -2.8819  2.7870
  857MOL0     H18264   9.839   5.853   7.534  0.7392  0.5926  1.3749
  857MOL0     H18265   9.988   5.948   7.530  0.1865  1.0251 -0.9369
  857MOL0     H18266   9.847   6.023   7.458  2.1239  2.4353  2.4725
  858MOL0     O18267   0.335   0.663   4.723 -0.2391 -0.2062 -0.6801
  858MOL0     C18268   0.254   0.586   4.770  0.4106 -0.4241  0.0324
  858MOL0     O18269   0.293   0.477   4.836  0.2949  0.1270 -0.5133
  858MOL0     C18270   0.425   0.434   4.822 -0.5480  0.2755 -1.1220
  858MOL0     C18271   0.533   0.497   4.889 -0.2860 -0.5650  0.6931
  858MOL0     C18272   0.661   0.434   4.875  0.4026 -0.2866  0.2108
  858MOL0     C18273   0.678   0.315   4.797  0.0276  0.2622  0.2998
  858MOL0     O18274   0.801   0.246   4.799 -0.1457 -0.1340  0.3345
  858MOL0     C18275   0.842   0.155   4.702  0.4143 -0.8232  0.1375
  858MOL0     C18276   0.972   0.093   4.760  0.5893 -0.2051 -0.1004
  858MOL0     C18277   1.073   0.214   4.770 -1.1428  0.5884 -0.1843
  858MOL0     C18278   1.182   0.192   4.872  0.0543  0.3238 -0.8991
  858MOL0     C18279   1.279   0.319   4.879  0.3134 -0.3462 -0.7258
  858MOL0     C18280   1.395   0.324   4.976  0.5074  0.7910  0.2542
  858MOL0     C18281   1.448   0.466   4.994  0.2435 -0.0519  0.4195
  858MOL0     C18282   1.560   0.472   5.100  0.5350 -0.4843  0.6335
  858MOL0     N18283   1.632   0.595   5.101  0.9221  0.5998  0.4166
  858MOL0     C18284   1.626   0.714   5.032  0.7841 -0.1445 -0.7888
  858MOL0     C18285   1.733   0.788   5.076 -0.3226  0.3915  0.1879
  858MOL0     C18286   1.783   0.915   5.020 -0.0094  0.5647 -0.5941
  858MOL0     C18287   1.892   0.901   4.918  0.7792  0.1461  0.4726
  858MOL0     C18288   1.835   0.849   4.789  0.3702 -0.5391 -0.2617
  858MOL0     C18289   1.938   0.853   4.674  0.3784 -0.0669 -0.2589
  858MOL0     O18290   2.063   0.781   4.689  0.2509 -0.1708  0.0802
  858MOL0     C18291   2.169   0.810   4.611 -0.3450  0.0486  0.9245
  858MOL0     C18292   2.162   0.862   4.483 -0.0788  0.0202  0.3534
  858MOL0     C18293   2.281   0.865   4.402  0.6407 -0.3346 -0.4218
  858MOL0     C18294   2.257   0.928   4.262  0.1301 -0.1480 -0.2038
  858MOL0     C18295   2.406   0.832   4.462 -0.4362  0.8165  0.1685
  858MOL0     C18296   2.544   0.863   4.403  0.0097 -0.9765  0.2713
  858MOL0     O18297   2.542   0.967   4.308 -0.5829  0.7539  0.5619
  858MOL0     C18298   2.649   0.960   4.224  0.8857 -0.1669  0.8677
  858MOL0     C18299   2.634   0.917   4.094 -0.0086  0.0890  0.0287
  858MOL0     C18300   2.738   0.907   4.005 -0.9069 -0.2069  0.8753
  858MOL0     C18301   2.866   0.951   4.042 -0.7310 -1.2194 -0.5708
  858MOL0     O18302   2.972   0.952   3.952  0.1222 -0.2451 -0.7084
  858MOL0     C18303   2.976   0.853   3.848 -0.6969  0.5922  0.1348
  858MOL0     C18304   3.126   0.818   3.817  0.0089 -0.9336 -0.0161
  858MOL0     C18305   3.198   0.758   3.931  0.5016  0.7867  0.6307
  858MOL0     C18306   3.351   0.781   3.906  0.6268  0.1640  0.3003
  858MOL0     C18307   3.427   0.712   4.016  0.3463  0.8539  0.2154
  858MOL0     C18308   3.575   0.716   3.977  0.3645  0.5442  0.1696
  858MOL0     C18309   3.627   0.863   3.965  0.7724  0.5528  0.4496
  858MOL0     C18310   3.774   0.881   3.934 -0.2061 -0.4372  0.1651
  858MOL0    Cl18311   3.907   0.823   4.041  0.3799  0.3589 -0.5230
  858MOL0     C18312   2.884   1.009   4.165 -0.0081 -1.1109  0.1882
  858MOL0     C18313   2.774   1.016   4.250  0.7367  0.3263 -0.6775
  858MOL0     O18314   2.644   0.813   4.457  0.2901  0.1207  0.2902
  858MOL0     C18315   2.402   0.776   4.593  0.1503 -0.5150  0.0006
  858MOL0     C18316   2.289   0.774   4.664 -0.0285  0.0955  0.5456
  858MOL0     N18317   1.794   0.726   5.180 -1.2969  0.6013  0.2600
  858MOL0     N18318   1.729   0.618   5.188  0.0987  0.2592 -0.0344
  858MOL0     C18319   0.568   0.257   4.727 -0.5160  0.7145 -0.4628
  858MOL0     C18320   0.443   0.315   4.747  0.3981 -0.8935 -0.4711
  858MOL0     C18321   0.112   0.630   4.783 -1.0194 -0.4252 -0.0621
  858MOL0     C18322   0.030   0.568   4.881  0.4318 -0.2503 -0.2549
  858MOL0     C18323  -0.105   0.595   4.887  0.7050 -0.1923  0.2048
  858MOL0     C18324  -0.165   0.692   4.812 -0.0974  0.9959 -0.3345
  858MOL0     O18325  -0.289   0.746   4.839 -0.3942 -0.6124  0.1351
  858MOL0     C18326  -0.387   0.663   4.907  0.4975  0.0185 -0.0480
  858MOL0     C18327  -0.448   0.546   4.817  0.2236 -0.1357 -0.6883
  858MOL0     C18328  -0.449   0.593   4.672 -1.1125 -0.6861  0.6712
  858MOL0     C18329  -0.549   0.511   4.591  0.7116  0.1717  0.4899
  858MOL0     C18330  -0.684   0.548   4.613  0.6794 -0.3060  0.1990
  858MOL0     C18331  -0.799   0.590   4.635 -0.6411  0.0482 -0.3388
  858MOL0     C18332  -0.089   0.760   4.713 -1.3208  0.4032  0.0752
  858MOL0     C18333   0.054   0.725   4.693  0.3640 -0.9403 -0.5896
  858MOL0     C18334   0.123   0.796   4.580  0.2314  0.5142 -0.0196
  858MOL0     H18335   0.532   0.589   4.946  0.5124 -1.0726  1.5588
  858MOL0     H18336   0.743   0.489   4.921 -0.0453 -0.0387  0.7330
  858MOL0     H18337   0.866   0.216   4.614 -2.0470 -0.4759 -0.3715
  858MOL0     H18338   0.769   0.074   4.691  0.0422 -0.8512  2.4156
  858MOL0     H18339   0.958   0.053   4.861  2.3216  1.4175  0.8412
  858MOL0     H18340   1.009   0.014   4.694 -1.8902 -0.4159 -1.3763
  858MOL0     H18341   1.112   0.226   4.668 -1.3647 -0.9189 -0.4755
  858MOL0     H18342   1.023   0.309   4.790 -1.8516  0.6330 -1.9909
  858MOL0     H18343   1.131   0.178   4.967 -0.2881  1.9219 -0.8121
  858MOL0     H18344   1.237   0.100   4.850 -2.7879 -1.9532  0.8520
  858MOL0     H18345   1.216   0.407   4.894 -0.2667 -0.9899  0.8012
  858MOL0     H18346   1.321   0.345   4.781  1.2967 -2.4685 -0.9058
  858MOL0     H18347   1.360   0.293   5.075 -1.8714  0.0348 -0.7345
  858MOL0     H18348   1.468   0.253   4.936  1.8463  1.2683  1.7934
  858MOL0     H18349   1.373   0.531   5.040 -2.0584 -3.8754  2.5887
  858MOL0     H18350   1.479   0.510   4.898  1.3194  0.4663  0.9852
  858MOL0     H18351   1.518   0.457   5.200 -1.0032  0.0357  0.1053
  858MOL0     H18352   1.639   0.397   5.090  0.7513 -0.2347  0.4772
  858MOL0     H18353   1.565   0.740   4.946 -0.9624 -0.2155  0.3886
  858MOL0     H18354   1.819   0.970   5.108 -3.2344 -0.2268  1.3755
  858MOL0     H18355   1.712   0.988   4.979 -0.9311  0.7901  1.3199
  858MOL0     H18356   1.930   1.003   4.902 -0.6661  0.3844 -1.8063
  858MOL0     H18357   1.973   0.835   4.949  0.9520 -1.5681 -3.2078
  858MOL0     H18358   1.803   0.745   4.800 -0.6133 -0.2715 -0.4772
  858MOL0     H18359   1.750   0.898   4.741  1.2602 -1.3446 -2.8739
  858MOL0     H18360   1.891   0.823   4.580 -0.3737  2.2438 -0.7006
  858MOL0     H18361   1.968   0.959   4.671 -0.4663  0.2424 -4.1588
  858MOL0     H18362   2.072   0.900   4.434  0.0612 -0.9214 -0.6884
  858MOL0     H18363   2.307   0.873   4.181 -1.4688 -0.4315 -1.0511
  858MOL0     H18364   2.296   1.030   4.257  1.2203 -0.4852  0.9367
  858MOL0     H18365   2.149   0.933   4.244 -0.0994  0.8219  1.2420
  858MOL0     H18366   2.532   0.886   4.070  0.5428 -2.3402  0.6285
  858MOL0     H18367   2.714   0.885   3.902 -2.3132  2.5785  0.5076
  858MOL0     H18368   2.922   0.762   3.875 -1.1718  0.6140 -0.6956
  858MOL0     H18369   2.927   0.891   3.757  0.4955 -0.7895 -1.1315
  858MOL0     H18370   3.129   0.747   3.733  1.2935  1.5730 -2.2477
  858MOL0     H18371   3.176   0.910   3.784 -0.6683 -0.0625  1.2949
  858MOL0     H18372   3.175   0.652   3.947  3.1353  0.2477  1.2092
  858MOL0     H18373   3.163   0.813   4.018 -1.2552  0.9424 -0.1174
  858MOL0     H18374   3.364   0.890   3.902 -0.8191  0.3217 -1.7892
  858MOL0     H18375   3.375   0.740   3.808 -0.5582 -0.1842  0.1394
  858MOL0     H18376   3.413   0.771   4.106  2.7417  2.4128 -0.3366
  858MOL0     H18377   3.387   0.611   4.034  0.2373  0.9381  0.4481
  858MOL0     H18378   3.596   0.663   3.884 -0.1786  0.0779  0.3067
  858MOL0     H18379   3.638   0.667   4.051  0.8536 -2.7855 -2.2553
  858MOL0     H18380   3.604   0.918   4.057 -0.8493  1.6250 -0.5543
  858MOL0     H18381   3.563   0.908   3.889 -1.5147 -0.9094  1.3866
  858MOL0     H18382   3.787   0.989   3.934  1.8428 -0.6443  0.0071
  858MOL0     H18383   3.794   0.841   3.834  0.1566  2.7100 -1.1368
  858MOL0     H18384   2.975   1.040   4.215  0.7806  1.0808 -2.3608
  858MOL0     H18385   2.793   1.058   4.348  3.0335  0.7180 -1.2408
  858MOL0     H18386   2.493   0.736   4.637 -1.1416 -2.2083  1.2616
  858MOL0     H18387   2.294   0.731   4.764  4.0070  3.5784  2.1212
  858MOL0     H18388   0.582   0.158   4.686  2.0240  0.5929  0.4886
  858MOL0     H18389   0.351   0.272   4.708 -1.6705  2.1660  0.6253
  858MOL0     H18390   0.059   0.483   4.941 -0.8455 -0.8106 -0.3971
  858MOL0     H18391  -0.163   0.540   4.960  1.5641 -2.1873 -0.5247
  858MOL0     H18392  -0.338   0.628   4.998  1.5838 -2.5524 -1.4960
  858MOL0     H18393  -0.470   0.726   4.941  1.4797  0.5357  1.4974
  858MOL0     H18394  -0.544   0.510   4.855 -0.0707  0.5299 -0.7947
  858MOL0     H18395  -0.389   0.454   4.820 -0.2086 -0.4064  2.1034
  858MOL0     H18396  -0.480   0.697   4.664 -0.8157 -0.6173  0.4080
  858MOL0     H18397  -0.351   0.572   4.630 -0.4210 -0.8032  2.2630
  858MOL0     H18398  -0.542   0.406   4.620  1.3918 -1.1589 -3.8133
  858MOL0     H18399  -0.529   0.520   4.484  0.9765  0.8949  0.5954
  858MOL0     H18400  -0.893   0.639   4.654 -2.1999 -1.4557 -3.4206
  858MOL0     H18401  -0.133   0.838   4.652  2.6970  2.2658 -0.7947
  858MOL0     H18402   0.178   0.886   4.608  1.5881  0.2253 -1.6275
  858MOL0     H18403   0.192   0.725   4.535  0.5296 -0.7972  2.3533
  858MOL0     H18404   0.051   0.832   4.505  0.2637  3.1314  1.0941
  859MOL0     O18405  10.521   0.795  10.420 -0.1860  0.6192 -0.3462
  859MOL0     C18406  10.559   0.678  10.430  0.6380  0.1400 -0.2258
  859MOL0     O18407  10.478   0.565  10.421  0.0378  0.1738  0.5228
  859MOL0     C18408  10.349   0.567  10.363  0.1329  0.9640 -0.0312
  859MOL0     C18409  10.290   0.445  10.357  0.3132  0.8450  0.0371
  859MOL0     C18410  10.153   0.427  10.324 -0.7328  0.6355 -0.2569
  859MOL0     C18411  10.079   0.532  10.291 -0.7185  0.2989  1.3406
  859MOL0     O18412   9.941   0.494  10.271 -0.0478  0.0819  0.2504
  859MOL0     C18413   9.856   0.595  10.220  0.3095  0.6268 -0.2219
  859MOL0     C18414   9.709   0.541  10.214  0.1119  0.6301  1.1455
  859MOL0     C18415   9.686   0.445  10.091 -0.4606 -0.7066  0.2624
  859MOL0     C18416   9.550   0.373  10.103  0.5494 -0.2072 -0.6247
  859MOL0     C18417   9.538   0.268   9.988 -0.1537 -0.2118  0.3765
  859MOL0     C18418   9.409   0.182   9.999 -0.7488  0.0403  0.3637
  859MOL0     C18419   9.380   0.106   9.869  0.0109 -0.5965 -0.5692
  859MOL0     C18420   9.314  -0.023   9.904 -0.2682  0.7104  0.1511
  859MOL0     N18421   9.318  -0.115   9.791  0.8766 -1.0081  0.4934
  859MOL0     C18422   9.264  -0.087   9.672  0.1246  0.3901  0.8424
  859MOL0     C18423   9.304  -0.186   9.590 -0.2077  0.7756  0.0311
  859MOL0     C18424   9.268  -0.200   9.433  0.2426  0.0104 -0.8490
  859MOL0     C18425   9.385  -0.159   9.341  1.0612 -0.2247  0.3722
  859MOL0     C18426   9.328  -0.161   9.199 -0.0491 -0.3808 -0.0243
  859MOL0     C18427   9.428  -0.174   9.087 -0.7115 -0.3062 -0.5838
  859MOL0     O18428   9.469  -0.041   9.038  0.3288  0.1835 -0.3758
  859MOL0     C18429   9.583  -0.010   9.104  0.6249  0.4430 -0.5237
  859MOL0     C18430   9.573   0.067   9.217 -0.2046 -0.0740  0.9512
  859MOL0     C18431   9.683   0.075   9.301 -0.9655  0.0397 -0.4864
  859MOL0     C18432   9.656   0.154   9.422 -0.4959 -0.3807 -0.0008
  859MOL0     C18433   9.809   0.020   9.266 -0.2529  0.6217  0.6615
  859MOL0     C18434   9.933   0.028   9.347  0.2431 -1.0796  0.6704
  859MOL0     O18435  10.022  -0.069   9.322 -0.6955  0.1040 -0.0471
  859MOL0     C18436  10.151  -0.052   9.367  0.3803 -0.6859  0.3000
  859MOL0     C18437  10.221   0.067   9.332 -0.4884  0.3971 -0.1370
  859MOL0     C18438  10.352   0.082   9.375  0.1580 -0.1724  0.1702
  859MOL0     C18439  10.416  -0.021   9.448 -0.4433  0.3646  0.2719
  859MOL0     O18440  10.545   0.001   9.485 -0.4581 -0.3627  0.1401
  859MOL0     C18441  10.629  -0.113   9.486 -0.1982  0.7791  0.9562
  859MOL0     C18442  10.765  -0.063   9.529 -1.0089 -0.3015 -0.3255
  859MOL0     C18443  10.858  -0.178   9.514  0.2432 -0.3379  0.6907
  859MOL0     C18444  11.006  -0.150   9.537  0.0821  0.0376 -0.5825
  859MOL0     C18445  11.104  -0.268   9.575 -0.1997  0.0864  0.4207
  859MOL0     C18446  11.251  -0.222   9.584  0.4553 -0.0525 -0.8255
  859MOL0     C18447  11.266  -0.116   9.697  0.4818 -0.5481 -0.3717
  859MOL0     C18448  11.418  -0.090   9.725 -0.1190 -0.0773  0.0679
  859MOL0    Cl18449  11.513  -0.236   9.781 -0.0919 -0.2406  0.6577
  859MOL0     C18450  10.336  -0.120   9.501  0.2763  0.0316 -0.1372
  859MOL0     C18451  10.206  -0.135   9.456 -0.9508  0.1631  0.6695
  859MOL0     O18452   9.940   0.115   9.430  0.6399 -0.7557 -0.5827
  859MOL0     C18453   9.810  -0.047   9.147  0.0189  0.0463  0.7315
  859MOL0     C18454   9.701  -0.060   9.064  0.4636  0.3791 -0.3745
  859MOL0     N18455   9.402  -0.255   9.661  0.6141  0.1313 -0.0159
  859MOL0     N18456   9.411  -0.207   9.780 -0.7754  0.9545  1.2307
  859MOL0     C18457  10.138   0.658  10.290  0.4921  0.3451  0.1214
  859MOL0     C18458  10.271   0.675  10.330 -0.1666 -0.2296  0.5533
  859MOL0     C18459  10.708   0.661  10.451 -0.0225  1.2533 -0.6394
  859MOL0     C18460  10.794   0.771  10.449  0.3170  1.3253  0.6839
  859MOL0     C18461  10.934   0.759  10.477 -0.3644 -0.1340  0.4185
  859MOL0     C18462  10.993   0.633  10.494 -0.2481  0.4327  0.1089
  859MOL0     O18463  11.119   0.605  10.538 -0.1345  0.4325  0.1101
  859MOL0     C18464  11.192   0.705  10.605 -0.1503 -0.4554 -0.1899
  859MOL0     C18465  11.316   0.645  10.683 -0.1764  0.4321  0.3340
  859MOL0     C18466  11.262   0.539  10.783 -0.2285  0.0911 -0.4945
  859MOL0     C18467  11.378   0.493  10.869  0.5344 -0.6248  0.0270
  859MOL0     C18468  11.393   0.563  10.998 -0.1798 -0.8041 -0.6769
  859MOL0     C18469  11.409   0.615  11.112 -0.2596  0.4144  0.5594
  859MOL0     C18470  10.905   0.520  10.476  0.1913 -0.1270  0.2506
  859MOL0     C18471  10.768   0.531  10.453 -0.3893  0.0927  0.0692
  859MOL0     C18472  10.689   0.400  10.435  0.0730 -0.3110 -0.1178
  859MOL0     H18473  10.348   0.357  10.381 -0.7174 -0.0770 -0.7561
  859MOL0     H18474  10.104   0.330  10.329  2.8019 -1.2622  1.2247
  859MOL0     H18475   9.896   0.640  10.129  1.7025  4.1938  1.9433
  859MOL0     H18476   9.858   0.666  10.303  1.1079 -0.1267  0.4177
  859MOL0     H18477   9.690   0.484  10.305  1.5584 -3.3777 -0.8260
  859MOL0     H18478   9.646   0.630  10.212 -0.7932  0.0638 -2.1631
  859MOL0     H18479   9.687   0.504   9.999 -1.0032  1.6440  1.6788
  859MOL0     H18480   9.767   0.371  10.088  0.2712  0.0445  1.1356
  859MOL0     H18481   9.535   0.334  10.204  1.9215  2.2316  0.6224
  859MOL0     H18482   9.476   0.452  10.089  0.5069 -0.3829 -1.4396
  859MOL0     H18483   9.617   0.193   9.998 -1.0784 -0.9524  3.3859
  859MOL0     H18484   9.536   0.320   9.892  2.5577 -2.0099 -0.7634
  859MOL0     H18485   9.427   0.105  10.075 -2.0193 -1.5341 -0.8598
  859MOL0     H18486   9.329   0.249  10.032 -1.9997 -1.0284 -0.4175
  859MOL0     H18487   9.472   0.074   9.819  1.0022 -3.8729  2.8436
  859MOL0     H18488   9.313   0.167   9.807 -0.8335  1.5117  2.2177
  859MOL0     H18489   9.358  -0.077   9.989 -2.3736  1.7473  2.0005
  859MOL0     H18490   9.209  -0.004   9.927 -1.0776 -3.0443  0.2752
  859MOL0     H18491   9.194  -0.010   9.642 -0.5145 -1.0752 -1.7278
  859MOL0     H18492   9.184  -0.134   9.414  1.3684  1.9287  0.4226
  859MOL0     H18493   9.234  -0.300   9.406  0.5856 -0.4232  0.2402
  859MOL0     H18494   9.422  -0.063   9.379  0.9523 -1.4014  3.7552
  859MOL0     H18495   9.468  -0.229   9.349  1.2600  0.0596  0.8746
  859MOL0     H18496   9.257  -0.244   9.189  2.0566 -2.0299 -2.3380
  859MOL0     H18497   9.270  -0.068   9.193  0.3484  0.1188  2.6761
  859MOL0     H18498   9.513  -0.238   9.116  1.2911  2.4999  0.1708
  859MOL0     H18499   9.381  -0.226   9.003  3.1161 -2.4793 -1.6425
  859MOL0     H18500   9.478   0.115   9.238  1.1516  3.0823  0.4005
  859MOL0     H18501   9.678   0.101   9.516  2.3346 -2.5547 -1.7519
  859MOL0     H18502   9.553   0.192   9.428 -0.1927  0.3014  1.3096
  859MOL0     H18503   9.721   0.242   9.417  1.7349 -1.9341  0.3274
  859MOL0     H18504  10.162   0.139   9.277 -3.1485 -3.1356 -2.3968
  859MOL0     H18505  10.406   0.174   9.352 -3.2258  2.3029  1.4496
  859MOL0     H18506  10.596  -0.187   9.559  3.5172  0.3241  2.3636
  859MOL0     H18507  10.631  -0.146   9.381  0.1914  0.0210  1.1980
  859MOL0     H18508  10.786   0.024   9.465  2.6026 -0.3071  0.6507
  859MOL0     H18509  10.764  -0.027   9.632 -1.3082 -0.7663 -0.1641
  859MOL0     H18510  10.855  -0.225   9.415 -0.4165  0.5009  0.3046
  859MOL0     H18511  10.837  -0.256   9.588  2.1903 -0.9581  0.6614
  859MOL0     H18512  11.015  -0.073   9.614  2.3862 -1.3178  0.6081
  859MOL0     H18513  11.049  -0.117   9.442 -0.5038 -2.1916 -1.6791
  859MOL0     H18514  11.075  -0.320   9.666 -2.8188  1.4885  0.4609
  859MOL0     H18515  11.096  -0.338   9.491  0.9315  1.2935 -0.7493
  859MOL0     H18516  11.295  -0.187   9.490  2.5316  0.5984  0.3152
  859MOL0     H18517  11.303  -0.307   9.629 -0.9550 -1.5306 -1.8635
  859MOL0     H18518  11.218  -0.165   9.782 -0.6558  1.6787  0.3357
  859MOL0     H18519  11.216  -0.020   9.679 -1.6425 -1.2414  1.3707
  859MOL0     H18520  11.436  -0.035   9.818  2.1331 -0.6193  0.0097
  859MOL0     H18521  11.454  -0.045   9.632 -2.2916 -0.2292 -0.9263
  859MOL0     H18522  10.370  -0.198   9.569 -0.6707  1.2083  1.7756
  859MOL0     H18523  10.153  -0.220   9.499  1.9270 -2.7093 -1.0738
  859MOL0     H18524   9.904  -0.088   9.109  0.2307  2.5990 -1.8471
  859MOL0     H18525   9.699  -0.127   8.979  0.4527 -0.6037  0.3906
  859MOL0     H18526  10.075   0.745  10.274  1.3780  0.5443 -2.8409
  859MOL0     H18527  10.308   0.776  10.342 -2.3363  0.6615  0.1570
  859MOL0     H18528  10.752   0.871  10.442 -0.6917  0.9774  1.5445
  859MOL0     H18529  10.999   0.845  10.490  1.0226 -1.0929  0.1046
  859MOL0     H18530  11.228   0.786  10.540  1.2927 -1.6289 -0.9209
  859MOL0     H18531  11.131   0.753  10.683  0.6907  0.3471 -0.0058
  859MOL0     H18532  11.365   0.728  10.734  1.3036  0.4634 -1.0718
  859MOL0     H18533  11.383   0.589  10.617 -4.8183 -3.6301 -1.5910
  859MOL0     H18534  11.184   0.581  10.846 -0.0347  1.9303 -1.4103
  859MOL0     H18535  11.229   0.455  10.722 -2.2379 -1.3266  2.2995
  859MOL0     H18536  11.473   0.504  10.816  1.5311  4.5100  2.2668
  859MOL0     H18537  11.358   0.389  10.899 -2.0461 -0.5553 -1.2702
  859MOL0     H18538  11.438   0.663  11.203  2.4374  0.6760 -0.3519
  859MOL0     H18539  10.941   0.419  10.493 -1.5241 -0.7303  0.5258
  859MOL0     H18540  10.628   0.390  10.524  1.0890  1.9703  0.9062
  859MOL0     H18541  10.634   0.400  10.340  0.5249 -0.4033 -0.3836
  859MOL0     H18542  10.760   0.316  10.435  1.3781  0.6701 -2.5270
  860MOL0     O18543   3.754   8.174   2.953  0.4368  0.3744  0.0329
  860MOL0     C18544   3.684   8.093   3.020 -0.1220  0.0682  0.1954
  860MOL0     O18545   3.723   8.043   3.139  0.4157  0.6654  0.3018
  860MOL0     C18546   3.838   8.078   3.194  0.0813  0.1850  0.3809
  860MOL0     C18547   3.946   7.988   3.205 -0.6686 -0.4998  0.4185
  860MOL0     C18548   4.070   8.024   3.272 -0.1396  0.3834  0.1003
  860MOL0     C18549   4.079   8.157   3.320  0.5651  0.4072 -0.8928
  860MOL0     O18550   4.194   8.209   3.385  0.0594  0.2642  0.3632
  860MOL0     C18551   4.286   8.114   3.442  0.1462  0.0962 -0.3391
  860MOL0     C18552   4.351   8.190   3.569 -0.6470 -0.3792 -0.1398
  860MOL0     C18553   4.451   8.307   3.532  0.1800  0.5792 -1.1516
  860MOL0     C18554   4.584   8.255   3.486 -0.1719 -0.5382  0.4694
  860MOL0     C18555   4.669   8.376   3.438  0.8065  0.5517  0.1961
  860MOL0     C18556   4.805   8.336   3.387 -0.6154 -0.2256  0.5736
  860MOL0     C18557   4.885   8.460   3.354 -0.5826 -0.2437  0.2151
  860MOL0     C18558   5.019   8.445   3.284  0.1606  0.5636  0.0748
  860MOL0     N18559   5.111   8.369   3.368 -0.8400  0.4880 -0.0971
  860MOL0     C18560   5.222   8.413   3.439 -0.2663 -0.3629  0.0566
  860MOL0     C18561   5.274   8.310   3.507 -0.0947  0.7858  0.5255
  860MOL0     C18562   5.398   8.312   3.595  0.9929  0.7685 -0.4057
  860MOL0     C18563   5.507   8.209   3.567 -0.0320  0.1606  0.8783
  860MOL0     C18564   5.592   8.217   3.442  0.3572 -0.1570  0.0316
  860MOL0     C18565   5.712   8.127   3.441  0.7579  0.2959  0.3077
  860MOL0     O18566   5.794   8.124   3.555 -0.3206  0.0044 -0.5979
  860MOL0     C18567   5.926   8.143   3.520 -0.6814  0.2717 -0.2380
  860MOL0     C18568   5.994   8.033   3.461  0.8086  0.1344 -0.9185
  860MOL0     C18569   6.130   8.042   3.427  0.1948 -0.2290  0.3076
  860MOL0     C18570   6.180   7.924   3.341  0.2037 -0.2033  0.2056
  860MOL0     C18571   6.208   8.158   3.451 -0.3406 -0.0024 -0.4400
  860MOL0     C18572   6.345   8.168   3.407 -0.6295  0.6893  0.4810
  860MOL0     O18573   6.403   8.286   3.380 -0.2374  0.3986  0.3030
  860MOL0     C18574   6.534   8.310   3.358  0.6078 -0.5080 -1.1294
  860MOL0     C18575   6.637   8.267   3.444  1.3352 -0.4939  0.4803
  860MOL0     C18576   6.773   8.287   3.412 -0.2603  0.2826  0.6293
  860MOL0     C18577   6.814   8.352   3.294 -0.3026 -0.9985 -0.8726
  860MOL0     O18578   6.954   8.361   3.277 -0.4148  0.5904  0.2412
  860MOL0     C18579   6.985   8.425   3.155 -0.4374  0.2181  0.4040
  860MOL0     C18580   7.139   8.444   3.130  0.4673 -0.0412  0.2943
  860MOL0     C18581   7.171   8.525   3.009  1.1745 -0.5875  0.1609
  860MOL0     C18582   7.321   8.539   2.992  0.2120  0.1129 -0.6641
  860MOL0     C18583   7.361   8.579   2.852 -0.8378 -0.7035  0.5926
  860MOL0     C18584   7.325   8.715   2.797  0.3355  0.3500 -0.2038
  860MOL0     C18585   7.409   8.734   2.676 -0.1404  0.0868 -0.1323
  860MOL0     C18586   7.377   8.866   2.614  0.2391  0.3887  0.5005
  860MOL0    Cl18587   7.451   8.997   2.716 -0.4155  0.2444 -0.0346
  860MOL0     C18588   6.706   8.410   3.211 -0.3318 -0.4297  0.4422
  860MOL0     C18589   6.573   8.390   3.245  0.7117 -0.5479 -0.2183
  860MOL0     O18590   6.411   8.066   3.410 -0.3677 -0.7550 -0.6463
  860MOL0     C18591   6.135   8.272   3.502  0.2505 -0.4106  0.4533
  860MOL0     C18592   5.997   8.257   3.542 -0.0050 -0.3421  0.0908
  860MOL0     N18593   5.193   8.203   3.484 -0.2064 -0.2774 -0.4872
  860MOL0     N18594   5.098   8.236   3.411 -0.2582 -1.4144  0.8944
  860MOL0     C18595   3.973   8.244   3.314  0.3298  0.4261  1.0524
  860MOL0     C18596   3.851   8.207   3.255  0.7476 -0.6596 -0.6982
  860MOL0     C18597   3.560   8.044   2.971  0.3487  0.3541  0.5596
  860MOL0     C18598   3.483   7.963   3.051  0.0177  0.9019 -0.3619
  860MOL0     C18599   3.349   7.921   3.029  0.7009  0.0608 -0.2506
  860MOL0     C18600   3.284   7.974   2.921  0.9028  0.3502  0.1552
  860MOL0     O18601   3.153   7.958   2.876  0.2652  0.1076  0.0471
  860MOL0     C18602   3.060   7.888   2.966 -0.1102 -0.0800  0.2947
  860MOL0     C18603   3.014   7.979   3.076 -0.6987  0.8682  0.3566
  860MOL0     C18604   2.878   7.943   3.131 -0.7232  0.0942 -0.0732
  860MOL0     C18605   2.853   8.041   3.249 -0.1494  0.1691  0.0588
  860MOL0     C18606   2.719   8.022   3.297  0.9378  0.1943 -0.3419
  860MOL0     C18607   2.607   8.019   3.352  0.2715 -0.7361 -0.9844
  860MOL0     C18608   3.358   8.052   2.833 -0.5723 -0.4474  0.3900
  860MOL0     C18609   3.492   8.087   2.853 -0.1028 -0.0763  0.1155
  860MOL0     C18610   3.569   8.155   2.738 -0.4122 -0.3206  0.9455
  860MOL0     H18611   3.924   7.892   3.159 -1.9246 -0.5143  1.0166
  860MOL0     H18612   4.146   7.950   3.296 -1.5439 -0.7717  1.2373
  860MOL0     H18613   4.358   8.081   3.367 -2.6636  0.6791 -3.5485
  860MOL0     H18614   4.240   8.021   3.478  1.2094 -0.7056 -1.0052
  860MOL0     H18615   4.280   8.244   3.633  1.2392  1.5586  0.4438
  860MOL0     H18616   4.401   8.119   3.635  0.0261  1.2003  1.1186
  860MOL0     H18617   4.396   8.380   3.472 -2.9467  0.2275  1.0712
  860MOL0     H18618   4.479   8.355   3.626  0.6398 -3.7377  1.1726
  860MOL0     H18619   4.636   8.203   3.567  5.6740  0.8481 -1.8627
  860MOL0     H18620   4.569   8.195   3.396 -1.9016 -1.6718  1.4668
  860MOL0     H18621   4.695   8.439   3.524  0.3194 -2.6084  2.8400
  860MOL0     H18622   4.610   8.421   3.358  0.8929  0.6675  0.1971
  860MOL0     H18623   4.853   8.272   3.462  0.1512  1.7007  1.8072
  860MOL0     H18624   4.788   8.278   3.297 -0.1845  0.8549 -0.2267
  860MOL0     H18625   4.902   8.509   3.450  0.3571  0.3027 -0.2103
  860MOL0     H18626   4.821   8.531   3.300 -1.3562  0.3706  1.8907
  860MOL0     H18627   4.994   8.390   3.192 -0.5119 -1.4472  1.3876
  860MOL0     H18628   5.063   8.538   3.248  0.4425  0.1860 -0.5728
  860MOL0     H18629   5.253   8.517   3.447 -2.2239  0.2194  0.8521
  860MOL0     H18630   5.375   8.307   3.702 -0.2491 -2.7241 -0.7126
  860MOL0     H18631   5.439   8.413   3.588  0.4509  1.0090 -0.1128
  860MOL0     H18632   5.569   8.209   3.657  1.8674 -1.6892 -0.3275
  860MOL0     H18633   5.459   8.110   3.563 -0.4895  0.2621  2.6548
  860MOL0     H18634   5.540   8.199   3.347  1.3030 -2.1661 -0.1650
  860MOL0     H18635   5.632   8.318   3.440  0.9521 -0.3761 -3.0253
  860MOL0     H18636   5.669   8.026   3.432 -2.4406  1.3023  2.5380
  860MOL0     H18637   5.757   8.156   3.346  0.7326  1.6800  0.6978
  860MOL0     H18638   5.943   7.939   3.441 -0.0817  0.3117  0.3339
  860MOL0     H18639   6.258   7.866   3.391 -0.2572 -0.5677  0.5215
  860MOL0     H18640   6.220   7.956   3.245  1.4765 -0.6720  0.5629
  860MOL0     H18641   6.108   7.843   3.324 -0.2494 -0.0771  1.4041
  860MOL0     H18642   6.613   8.208   3.532  2.4317  0.9707  1.8370
  860MOL0     H18643   6.839   8.248   3.489 -3.4015 -3.5250  1.6896
  860MOL0     H18644   6.943   8.361   3.077 -0.7027  0.9013 -0.0116
  860MOL0     H18645   6.950   8.528   3.153  0.2901  0.4705  0.3855
  860MOL0     H18646   7.180   8.481   3.224 -1.3110 -0.4973  1.2977
  860MOL0     H18647   7.187   8.348   3.106  1.2239  0.8945 -2.3343
  860MOL0     H18648   7.120   8.622   3.012  0.7517 -0.7999  3.2923
  860MOL0     H18649   7.132   8.473   2.921 -1.5968  1.7668 -0.1533
  860MOL0     H18650   7.363   8.442   3.021 -2.5787  0.1494  4.6765
  860MOL0     H18651   7.356   8.605   3.072 -1.8250 -1.2901  1.5103
  860MOL0     H18652   7.470   8.582   2.854 -0.8421  0.2309  0.0170
  860MOL0     H18653   7.344   8.500   2.779  1.8372  0.4733 -1.4711
  860MOL0     H18654   7.344   8.794   2.870  0.4046  0.4530 -0.3330
  860MOL0     H18655   7.226   8.734   2.755 -0.0697  1.1962  1.0565
  860MOL0     H18656   7.389   8.655   2.603  0.1605 -0.5282  0.4361
  860MOL0     H18657   7.517   8.738   2.696 -0.1648  0.4313 -0.0604
  860MOL0     H18658   7.270   8.888   2.615  0.4039  1.2534 -0.0822
  860MOL0     H18659   7.421   8.872   2.514  2.0305 -0.2438  1.1955
  860MOL0     H18660   6.739   8.461   3.121 -3.7556 -1.7224 -1.7410
  860MOL0     H18661   6.490   8.429   3.187  0.4682 -0.4169  0.2235
  860MOL0     H18662   6.169   8.374   3.513 -0.7158 -0.0609  0.3031
  860MOL0     H18663   5.951   8.342   3.593 -0.0400  0.5114 -1.3005
  860MOL0     H18664   3.990   8.344   3.354  0.5217  0.7236  0.2374
  860MOL0     H18665   3.773   8.283   3.258 -0.5170 -1.7887 -2.7323
  860MOL0     H18666   3.516   7.927   3.149 -3.1199  2.5014  1.4421
  860MOL0     H18667   3.303   7.856   3.102  0.3653 -0.0553 -0.5608
  860MOL0     H18668   2.974   7.871   2.900  0.5631  0.6751 -0.8136
  860MOL0     H18669   3.091   7.788   2.997 -1.9142 -0.8412 -0.2105
  860MOL0     H18670   2.999   8.080   3.035 -2.9067  0.6846  0.5973
  860MOL0     H18671   3.094   7.966   3.149  0.8437  0.9238 -1.2567
  860MOL0     H18672   2.803   7.946   3.051 -1.9016 -2.0551  0.8528
  860MOL0     H18673   2.869   7.837   3.159 -2.8434 -0.9273 -3.8864
  860MOL0     H18674   2.863   8.145   3.216 -0.6925  0.6116  1.2200
  860MOL0     H18675   2.930   8.022   3.324 -2.0856 -0.3173  2.0347
  860MOL0     H18676   2.517   8.023   3.409  2.7366  3.0422  3.3477
  860MOL0     H18677   3.307   8.069   2.739  2.3192 -1.2699 -1.4639
  860MOL0     H18678   3.665   8.108   2.716 -0.1966  0.5014  0.0585
  860MOL0     H18679   3.512   8.161   2.644  0.5760  2.8461  0.4178
  860MOL0     H18680   3.582   8.261   2.760  1.5925 -0.6407  1.4621
  861MOL0     O18681  10.336   4.640   2.869 -0.0596  0.4461  0.1551
  861MOL0     C18682  10.277   4.651   2.975 -0.3773 -0.2760  0.2793
  861MOL0     O18683  10.342   4.683   3.091  0.6310  0.0754 -0.6528
  861MOL0     C18684  10.475   4.663   3.101 -0.1794  0.3975  0.1278
  861MOL0     C18685  10.520   4.533   3.122 -0.2238 -0.4385 -0.4583
  861MOL0     C18686  10.659   4.510   3.112 -0.1974 -0.2736  1.0344
  861MOL0     C18687  10.753   4.611   3.088  0.8786  1.0570  0.7825
  861MOL0     O18688  10.882   4.602   3.081  0.1559  0.5123 -0.3148
  861MOL0     C18689  10.940   4.490   3.160 -0.0107 -1.0693  0.1749
  861MOL0     C18690  11.092   4.519   3.186 -0.3495 -0.5003  0.0355
  861MOL0     C18691  11.168   4.516   3.053  0.4112 -0.1371 -0.2374
  861MOL0     C18692  11.296   4.598   3.055  0.0324 -0.1659  0.3564
  861MOL0     C18693  11.367   4.600   2.918 -0.4157 -0.2290 -0.0794
  861MOL0     C18694  11.396   4.468   2.861  0.9443  0.3399 -0.4421
  861MOL0     C18695  11.479   4.377   2.964 -0.0748 -0.4754  0.6657
  861MOL0     C18696  11.538   4.258   2.887 -0.5036 -0.1477  0.0309
  861MOL0     N18697  11.642   4.281   2.789  0.3809  0.1323 -0.2994
  861MOL0     C18698  11.613   4.300   2.658  0.5416 -0.0947 -0.0164
  861MOL0     C18699  11.736   4.302   2.593  0.3428  1.3557  0.1053
  861MOL0     C18700  11.766   4.290   2.445  0.4040 -0.5469  0.4869
  861MOL0     C18701  11.795   4.432   2.396  0.7141  0.1180 -0.3931
  861MOL0     C18702  11.795   4.450   2.247  0.2018 -0.1703  0.4674
  861MOL0     C18703  11.915   4.394   2.173 -0.0312 -0.2739  1.0066
  861MOL0     O18704  12.025   4.453   2.242 -0.5348  0.1071  0.4078
  861MOL0     C18705  12.146   4.458   2.177 -0.1494  0.0281  0.8956
  861MOL0     C18706  12.182   4.393   2.057 -0.3687 -0.2048  0.0824
  861MOL0     C18707  12.316   4.405   2.012 -0.1635 -0.3434  0.1650
  861MOL0     C18708  12.353   4.319   1.890  0.5982  0.4196 -0.0916
  861MOL0     C18709  12.410   4.493   2.080 -0.1838  0.0571  0.2835
  861MOL0     C18710  12.551   4.526   2.034 -0.5303  0.3135  0.3360
  861MOL0     O18711  12.619   4.619   2.100  0.1963  0.6218 -0.2051
  861MOL0     C18712  12.751   4.632   2.073 -0.1394 -0.3081  0.4970
  861MOL0     C18713  12.847   4.538   2.119  0.7842 -0.2607  0.0039
  861MOL0     C18714  12.984   4.562   2.100  0.2530 -0.6332  0.0488
  861MOL0     C18715  13.032   4.676   2.033  0.3059  0.5879 -0.0427
  861MOL0     O18716  13.167   4.716   2.050  0.0539 -0.0725 -0.1794
  861MOL0     C18717  13.260   4.604   2.044 -0.1476 -0.2545  0.4534
  861MOL0     C18718  13.399   4.671   2.027  0.0917  0.0599 -0.5144
  861MOL0     C18719  13.500   4.569   1.972 -0.4552 -0.5228 -0.3665
  861MOL0     C18720  13.616   4.646   1.906  0.4748  0.3073  0.1409
  861MOL0     C18721  13.737   4.559   1.872 -0.1484 -0.4292  0.1818
  861MOL0     C18722  13.868   4.643   1.836  0.2617  0.6673  0.1737
  861MOL0     C18723  13.888   4.690   1.693  0.5117  0.4000  0.1659
  861MOL0     C18724  13.801   4.806   1.641  0.3349 -0.0878 -0.4811
  861MOL0    Cl18725  13.792   4.963   1.737 -0.3513 -0.0264 -0.0619
  861MOL0     C18726  12.936   4.771   1.983  0.1083  0.9112  0.1744
  861MOL0     C18727  12.801   4.747   2.003  0.1860  0.6961  0.0377
  861MOL0     O18728  12.600   4.447   1.956  0.1577 -0.5321 -0.1353
  861MOL0     C18729  12.368   4.550   2.196  0.3555  0.1505  0.0870
  861MOL0     C18730  12.243   4.526   2.246  0.3471  0.3521 -1.2572
  861MOL0     N18731  11.835   4.297   2.693 -0.4530  0.7077  0.5532
  861MOL0     N18732  11.774   4.285   2.812  0.5816 -0.0550  0.4669
  861MOL0     C18733  10.701   4.742   3.073 -0.2959 -1.1408  1.2669
  861MOL0     C18734  10.562   4.772   3.077 -0.0701 -0.2155 -0.3200
  861MOL0     C18735  10.127   4.660   2.986  0.5747 -0.7572  0.0712
  861MOL0     C18736  10.061   4.662   3.111 -0.2124  0.2556 -0.1155
  861MOL0     C18737   9.922   4.659   3.122 -0.7811  0.1810 -0.2775
  861MOL0     C18738   9.843   4.658   3.014  0.6028 -0.4603 -0.1196
  861MOL0     O18739   9.708   4.639   3.028 -0.3972  0.2803 -0.1525
  861MOL0     C18740   9.650   4.564   3.138 -0.7463 -0.6248 -0.0126
  861MOL0     C18741   9.498   4.560   3.126  0.0785  0.3056  0.7649
  861MOL0     C18742   9.443   4.502   3.002  0.8239 -0.4917  0.3196
  861MOL0     C18743   9.291   4.503   2.990  0.5309 -0.3250 -0.6744
  861MOL0     C18744   9.208   4.416   3.082 -0.2858  0.7809 -0.1199
  861MOL0     C18745   9.139   4.343   3.155  0.4329 -0.1985 -0.0125
  861MOL0     C18746   9.900   4.670   2.888 -0.1273  0.0849 -0.0835
  861MOL0     C18747  10.039   4.676   2.872  0.2027 -0.4808 -0.2519
  861MOL0     C18748  10.081   4.685   2.726 -0.4078  1.1356 -0.7018
  861MOL0     H18749  10.458   4.451   3.159  0.5850  0.1723  2.4297
  861MOL0     H18750  10.698   4.413   3.138  1.3936  0.2056  0.5485
  861MOL0     H18751  10.933   4.391   3.114  0.2518  0.1460 -2.6651
  861MOL0     H18752  10.891   4.487   3.258  1.0249 -0.9121  0.7062
  861MOL0     H18753  11.101   4.621   3.223 -1.0823 -0.0654 -0.9551
  861MOL0     H18754  11.140   4.452   3.258  0.9188  1.3464  0.9963
  861MOL0     H18755  11.188   4.409   3.048 -2.2620 -0.7428  0.5335
  861MOL0     H18756  11.109   4.534   2.962  0.4636 -1.3126 -0.5172
  861MOL0     H18757  11.283   4.703   3.084  1.1883 -0.1869  0.9984
  861MOL0     H18758  11.364   4.558   3.131  1.5112  1.7320  0.0997
  861MOL0     H18759  11.468   4.642   2.928  0.0898 -1.5988  0.8519
  861MOL0     H18760  11.303   4.655   2.848 -0.2858  1.4594  1.0706
  861MOL0     H18761  11.301   4.418   2.840 -1.2855  2.8020  2.7111
  861MOL0     H18762  11.446   4.494   2.767  0.9293  1.5693 -0.1392
  861MOL0     H18763  11.412   4.330   3.037 -1.3838 -2.8726 -1.8675
  861MOL0     H18764  11.555   4.431   3.020 -0.2441 -0.5532  0.9781
  861MOL0     H18765  11.589   4.203   2.967 -0.2598 -0.9290 -0.6416
  861MOL0     H18766  11.478   4.179   2.840  1.3685 -2.1556  0.8343
  861MOL0     H18767  11.514   4.290   2.613 -0.3627  1.3207  1.5506
  861MOL0     H18768  11.682   4.238   2.399 -1.8967 -1.4081  5.1500
  861MOL0     H18769  11.849   4.219   2.438  0.4237 -0.3822 -2.7183
  861MOL0     H18770  11.722   4.498   2.444  0.9489  0.7572 -0.9012
  861MOL0     H18771  11.887   4.465   2.444  0.7370  0.6716 -0.8097
  861MOL0     H18772  11.703   4.400   2.214  0.5835  0.8917 -2.6050
  861MOL0     H18773  11.784   4.555   2.221  0.1267 -0.6642 -1.6927
  861MOL0     H18774  11.916   4.285   2.184 -0.1785 -0.4766 -0.6427
  861MOL0     H18775  11.923   4.414   2.065  4.2005 -2.1880  0.7488
  861MOL0     H18776  12.114   4.316   2.020 -1.6854 -0.2823  2.4504
  861MOL0     H18777  12.276   4.242   1.883  1.2812 -0.4721  1.8045
  861MOL0     H18778  12.449   4.268   1.898  0.8718  1.0490  0.6887
  861MOL0     H18779  12.353   4.388   1.805 -1.7292  2.6776  1.5813
  861MOL0     H18780  12.807   4.454   2.175 -4.7025 -0.7898 -3.8200
  861MOL0     H18781  13.054   4.495   2.148  1.4530 -0.9458 -2.0279
  861MOL0     H18782  13.254   4.533   2.127 -0.5213  0.3269  0.9309
  861MOL0     H18783  13.236   4.555   1.949 -2.3133  1.7371 -0.1341
  861MOL0     H18784  13.396   4.751   1.951  0.1538 -0.8891 -1.5397
  861MOL0     H18785  13.428   4.713   2.124 -0.7565  1.1639 -0.7135
  861MOL0     H18786  13.464   4.493   1.903  0.1540 -0.4318 -0.8003
  861MOL0     H18787  13.536   4.508   2.056 -2.3632 -0.4838  0.5169
  861MOL0     H18788  13.652   4.724   1.974 -0.1244  0.4777  0.2647
  861MOL0     H18789  13.590   4.693   1.811  1.5236  1.2222  0.2844
  861MOL0     H18790  13.765   4.507   1.964  5.1391 -0.3000 -1.0131
  861MOL0     H18791  13.717   4.480   1.800  0.2816 -1.1934  0.8770
  861MOL0     H18792  13.949   4.572   1.852  0.3062 -0.5668 -4.1355
  861MOL0     H18793  13.884   4.733   1.896  1.3866  0.9304 -0.4930
  861MOL0     H18794  13.880   4.602   1.629 -0.7775  0.4144  0.2734
  861MOL0     H18795  13.992   4.719   1.674  0.6804  0.3791  1.0263
  861MOL0     H18796  13.705   4.754   1.644 -0.5953  1.4405 -1.6130
  861MOL0     H18797  13.826   4.821   1.535 -0.1635  1.8774 -0.3650
  861MOL0     H18798  12.972   4.866   1.945 -0.0803  1.9746  2.4782
  861MOL0     H18799  12.733   4.830   1.981  0.3119  0.2348 -2.3223
  861MOL0     H18800  12.428   4.607   2.266  0.4666  1.6517 -1.1798
  861MOL0     H18801  12.219   4.562   2.346  1.5699 -2.1293  0.0309
  861MOL0     H18802  10.771   4.820   3.045  1.5280 -3.4436 -1.0389
  861MOL0     H18803  10.524   4.871   3.055  0.6228  0.6502  2.0515
  861MOL0     H18804  10.124   4.656   3.199  1.6911  3.5547 -1.1103
  861MOL0     H18805   9.871   4.665   3.217  0.9760  1.3407  0.6540
  861MOL0     H18806   9.690   4.462   3.134  3.5349  0.8566 -1.3929
  861MOL0     H18807   9.670   4.598   3.240 -2.0919  0.5472 -0.1079
  861MOL0     H18808   9.466   4.664   3.128 -1.3572 -0.1193  1.7542
  861MOL0     H18809   9.453   4.503   3.208  0.0197 -0.0878  0.4639
  861MOL0     H18810   9.483   4.563   2.920  5.5292 -2.9835  0.4233
  861MOL0     H18811   9.479   4.401   2.981 -1.0402 -1.5186  1.7215
  861MOL0     H18812   9.266   4.488   2.884  1.7660  2.5812 -1.4768
  861MOL0     H18813   9.253   4.604   3.010  1.0151 -0.0293 -1.2221
  861MOL0     H18814   9.068   4.293   3.218 -0.6381 -0.1657 -1.1556
  861MOL0     H18815   9.837   4.672   2.799  2.2285  1.7954 -1.8404
  861MOL0     H18816  10.112   4.587   2.690  0.7873  0.8018  1.1333
  861MOL0     H18817  10.001   4.732   2.668 -0.1182  1.9170 -0.4875
  861MOL0     H18818  10.169   4.747   2.708  0.5546 -0.2835 -1.0693
  862MOL0     O18819   4.898   0.407   3.961 -0.5455  1.0309 -0.6788
  862MOL0     C18820   4.842   0.356   3.863  1.0572  0.1686  0.1900
  862MOL0     O18821   4.887   0.362   3.733  0.0731 -0.1204  0.6681
  862MOL0     C18822   5.014   0.400   3.711 -0.3568 -0.0300  0.3721
  862MOL0     C18823   5.035   0.534   3.698 -0.0182  0.4044  0.5280
  862MOL0     C18824   5.157   0.587   3.670  0.0698  0.6923  1.1091
  862MOL0     C18825   5.267   0.497   3.664  0.3524 -0.4648 -0.0955
  862MOL0     O18826   5.395   0.539   3.651 -0.0622 -0.0388 -0.1345
  862MOL0     C18827   5.434   0.682   3.643  1.4900  0.9403  0.0646
  862MOL0     C18828   5.589   0.684   3.631  0.0115 -0.1217 -0.3871
  862MOL0     C18829   5.638   0.599   3.515  0.3360  0.8513  0.4164
  862MOL0     C18830   5.795   0.614   3.499 -0.2179 -0.3712  0.5653
  862MOL0     C18831   5.836   0.586   3.351 -0.1979 -0.2953 -0.6322
  862MOL0     C18832   5.815   0.440   3.312 -0.2331  0.3297 -0.5651
  862MOL0     C18833   5.865   0.399   3.171  0.3795 -0.8769  0.0172
  862MOL0     C18834   6.016   0.378   3.146  0.4296 -0.0411  0.3708
  862MOL0     N18835   6.079   0.507   3.111 -0.1506 -0.6977 -0.1517
  862MOL0     C18836   6.140   0.598   3.190  0.1504 -0.3210  0.5041
  862MOL0     C18837   6.199   0.686   3.110  0.5589  0.5705 -0.9062
  862MOL0     C18838   6.286   0.798   3.151  0.0525  0.4986 -0.4012
  862MOL0     C18839   6.424   0.750   3.187  0.1540  0.0609 -0.3542
  862MOL0     C18840   6.485   0.637   3.101  0.2807  0.2759 -0.2808
  862MOL0     C18841   6.635   0.659   3.061  0.2484  0.1302 -0.5945
  862MOL0     O18842   6.734   0.661   3.165 -0.4358 -0.5246  0.1801
  862MOL0     C18843   6.874   0.651   3.134  0.5590  0.5431  0.2622
  862MOL0     C18844   6.960   0.647   3.239  0.1988  0.8306 -0.2002
  862MOL0     C18845   7.098   0.636   3.227  1.0407 -0.6433 -0.6379
  862MOL0     C18846   7.175   0.661   3.357 -0.0648  0.9842 -0.2153
  862MOL0     C18847   7.154   0.617   3.103 -0.0781  0.0666 -0.5296
  862MOL0     C18848   7.305   0.592   3.090  0.4554 -0.7394  0.3441
  862MOL0     O18849   7.346   0.554   2.961  0.2222 -0.6182 -0.6109
  862MOL0     C18850   7.488   0.564   2.945  0.1066 -0.3197  0.4955
  862MOL0     C18851   7.545   0.648   2.856 -0.1892  0.0220  0.0043
  862MOL0     C18852   7.688   0.646   2.831  0.8540  0.6346 -0.6577
  862MOL0     C18853   7.771   0.568   2.917  0.5343 -0.2120  0.0247
  862MOL0     O18854   7.911   0.572   2.907  0.6725  0.1644  0.5035
  862MOL0     C18855   8.000   0.498   2.984  0.8009  0.3829 -0.5293
  862MOL0     C18856   8.146   0.531   2.944 -0.7495 -0.1720 -0.7358
  862MOL0     C18857   8.187   0.463   2.815 -0.1825  0.1041  0.0900
  862MOL0     C18858   8.325   0.516   2.767 -0.0337 -0.0983  0.8784
  862MOL0     C18859   8.365   0.456   2.625  0.3108 -0.8868  0.4588
  862MOL0     C18860   8.512   0.471   2.592  0.0050  0.6612 -0.7880
  862MOL0     C18861   8.545   0.391   2.464 -0.3110  0.1135 -0.1156
  862MOL0     C18862   8.571   0.473   2.338 -0.7701 -0.2439  0.4974
  862MOL0    Cl18863   8.717   0.578   2.354 -0.3003  0.0407 -0.0765
  862MOL0     C18864   7.706   0.479   3.005 -0.0536  0.1974 -0.3573
  862MOL0     C18865   7.571   0.476   3.020  0.0035 -0.4045  0.7258
  862MOL0     O18866   7.379   0.606   3.185 -0.1209 -0.4139 -0.1129
  862MOL0     C18867   7.065   0.613   2.991 -0.3885  0.4952 -0.0491
  862MOL0     C18868   6.925   0.633   3.004 -0.1780  0.5032 -0.1864
  862MOL0     N18869   6.165   0.653   2.979  0.4539 -1.2111 -0.0961
  862MOL0     N18870   6.108   0.545   2.979 -0.3182 -0.0033  0.4299
  862MOL0     C18871   5.249   0.361   3.677  0.1265 -0.3372  0.1077
  862MOL0     C18872   5.124   0.309   3.706 -0.8344 -0.0827 -0.1754
  862MOL0     C18873   4.696   0.315   3.882 -0.5255  0.4858  0.6117
  862MOL0     C18874   4.635   0.281   3.756 -0.2277 -0.3256 -0.8299
  862MOL0     C18875   4.506   0.234   3.749  0.6495  0.2783  0.6134
  862MOL0     C18876   4.427   0.212   3.861  0.4741 -0.0649  0.3355
  862MOL0     O18877   4.296   0.183   3.834 -0.4666 -0.5011 -0.1284
  862MOL0     C18878   4.196   0.195   3.939  0.6808 -0.8140 -0.4327
  862MOL0     C18879   4.154   0.339   3.965 -0.3691 -0.2044 -0.3049
  862MOL0     C18880   4.114   0.423   3.838 -0.1751  0.2827  0.2295
  862MOL0     C18881   4.073   0.565   3.851  0.0070 -0.3086  0.0631
  862MOL0     C18882   4.034   0.620   3.720 -0.3424 -0.2660 -0.6244
  862MOL0     C18883   4.016   0.692   3.625 -0.2717  0.4863 -0.5706
  862MOL0     C18884   4.490   0.217   3.989 -0.3111 -0.4484 -0.2632
  862MOL0     C18885   4.623   0.269   4.002 -0.7777 -0.9878 -0.3152
  862MOL0     C18886   4.691   0.286   4.135  0.2487  0.2801  0.8034
  862MOL0     H18887   4.948   0.595   3.720 -1.5158  0.1554 -3.8202
  862MOL0     H18888   5.166   0.690   3.637  0.4092  0.5596  0.7697
  862MOL0     H18889   5.395   0.740   3.727  0.4336  0.7143 -0.2628
  862MOL0     H18890   5.399   0.722   3.547  2.0719  1.2541 -0.0234
  862MOL0     H18891   5.621   0.788   3.622 -0.4056  0.2472  1.9176
  862MOL0     H18892   5.631   0.646   3.724 -0.6284  2.9973  1.3360
  862MOL0     H18893   5.607   0.496   3.528 -0.8077  1.2749  1.1752
  862MOL0     H18894   5.587   0.630   3.422  0.2597  2.8153  1.0608
  862MOL0     H18895   5.815   0.718   3.525 -0.5407  0.7720 -3.1127
  862MOL0     H18896   5.847   0.554   3.574 -0.8822 -0.5701  0.8771
  862MOL0     H18897   5.938   0.626   3.344 -0.0301 -0.6293 -0.1608
  862MOL0     H18898   5.766   0.641   3.288 -3.6669 -1.1010  2.2209
  862MOL0     H18899   5.864   0.373   3.383 -1.3397 -0.1675 -0.2368
  862MOL0     H18900   5.706   0.427   3.315  0.0286 -2.3144  0.2761
  862MOL0     H18901   5.829   0.481   3.108 -0.9136  0.1403  1.9692
  862MOL0     H18902   5.814   0.314   3.125  0.1260  0.2329 -1.8642
  862MOL0     H18903   6.060   0.341   3.239  1.7459 -1.6283 -0.8305
  862MOL0     H18904   6.035   0.298   3.075  1.0915 -0.7528  1.3325
  862MOL0     H18905   6.148   0.594   3.298 -1.5498  3.1027  0.9006
  862MOL0     H18906   6.239   0.845   3.239  0.0544 -1.7425  0.8600
  862MOL0     H18907   6.294   0.873   3.072  1.6115  0.4848 -0.2809
  862MOL0     H18908   6.492   0.836   3.179 -1.2973  1.5133  1.7782
  862MOL0     H18909   6.428   0.712   3.289  2.8689 -0.0322 -0.4157
  862MOL0     H18910   6.470   0.539   3.147 -1.3923 -1.3478 -3.8772
  862MOL0     H18911   6.428   0.631   3.008 -0.7202  0.1510  0.3194
  862MOL0     H18912   6.648   0.566   3.005  0.9542 -0.2224  0.1245
  862MOL0     H18913   6.646   0.747   2.997  1.9176  0.5034  0.1579
  862MOL0     H18914   6.921   0.654   3.340  1.6872 -2.4218  0.7361
  862MOL0     H18915   7.119   0.724   3.427 -0.4792 -2.0704  2.4095
  862MOL0     H18916   7.257   0.731   3.341  2.1001 -1.2164  0.5393
  862MOL0     H18917   7.203   0.572   3.414 -2.8075 -1.8262 -2.7848
  862MOL0     H18918   7.482   0.716   2.801  0.4408  0.6211  0.0122
  862MOL0     H18919   7.735   0.709   2.756  0.0677  0.6342 -1.1530
  862MOL0     H18920   8.003   0.534   3.087  0.3668  1.0945 -0.7650
  862MOL0     H18921   7.985   0.389   2.988  1.4924  0.3061  0.7901
  862MOL0     H18922   8.168   0.637   2.928  1.5074 -0.7326 -1.7457
  862MOL0     H18923   8.219   0.500   3.018  0.9654  1.9090 -1.4466
  862MOL0     H18924   8.107   0.468   2.742  0.4237  0.5837 -0.5560
  862MOL0     H18925   8.203   0.358   2.841  0.1606  0.7143  2.6414
  862MOL0     H18926   8.395   0.483   2.844 -2.3989 -1.7031  2.4502
  862MOL0     H18927   8.331   0.624   2.747  1.4527 -0.3395 -0.1688
  862MOL0     H18928   8.341   0.350   2.623  0.8265 -1.0369  1.5513
  862MOL0     H18929   8.298   0.501   2.551 -2.3242 -2.7369  1.5526
  862MOL0     H18930   8.582   0.432   2.667 -0.4123  1.3132 -0.0433
  862MOL0     H18931   8.531   0.578   2.576  2.3598  0.2484 -1.1001
  862MOL0     H18932   8.474   0.312   2.438  0.1053 -0.2875 -0.0594
  862MOL0     H18933   8.639   0.338   2.484 -0.2571  0.6233  0.9945
  862MOL0     H18934   8.489   0.544   2.326 -0.5160 -0.0517 -0.1213
  862MOL0     H18935   8.582   0.408   2.250  0.5878 -1.2517  1.3689
  862MOL0     H18936   7.763   0.408   3.064  0.1647 -1.2414 -2.1968
  862MOL0     H18937   7.529   0.404   3.089  0.0470 -0.5654  0.5833
  862MOL0     H18938   7.112   0.604   2.894  1.4507  3.2990  0.4637
  862MOL0     H18939   6.854   0.639   2.922  0.6171  1.9052 -0.8130
  862MOL0     H18940   5.333   0.294   3.662  1.2193  0.6530  1.5227
  862MOL0     H18941   5.118   0.201   3.716 -2.5953 -0.0591 -0.6058
  862MOL0     H18942   4.692   0.279   3.663 -0.8891  0.3085 -1.2561
  862MOL0     H18943   4.463   0.235   3.649  2.6027 -1.7312 -0.3422
  862MOL0     H18944   4.108   0.133   3.921 -0.9173  1.1404  0.2250
  862MOL0     H18945   4.224   0.146   4.033 -0.9044 -0.6163  0.1811
  862MOL0     H18946   4.229   0.392   4.025 -3.3111  1.2999  2.3774
  862MOL0     H18947   4.060   0.341   4.021 -1.2504 -2.3640 -1.6030
  862MOL0     H18948   4.195   0.408   3.765 -1.9630 -0.5482 -1.7042
  862MOL0     H18949   4.023   0.378   3.799 -3.0695  4.0479  2.0190
  862MOL0     H18950   4.157   0.620   3.893 -1.2908  1.2425  0.7540
  862MOL0     H18951   3.999   0.587   3.928 -0.1429  0.2727 -0.2395
  862MOL0     H18952   4.001   0.748   3.535 -0.1124 -0.5288 -1.2500
  862MOL0     H18953   4.431   0.205   4.080  0.2892  1.5675  0.4431
  862MOL0     H18954   4.718   0.391   4.146  0.5573  1.0490 -4.5488
  862MOL0     H18955   4.625   0.254   4.216  0.7809 -0.0175  1.1199
  862MOL0     H18956   4.781   0.226   4.147  0.6710  1.0772  1.7225
  863MOL0     O18957   5.699   2.783   0.712  0.0464  0.0199 -0.0440
  863MOL0     C18958   5.717   2.887   0.648 -0.5997 -0.1127 -0.0176
  863MOL0     O18959   5.840   2.933   0.594 -0.3023 -0.1839 -0.7294
  863MOL0     C18960   5.965   2.876   0.617 -0.6270  0.5110 -0.0306
  863MOL0     C18961   6.076   2.945   0.555 -0.3062 -0.7044 -0.3496
  863MOL0     C18962   6.212   2.907   0.570 -0.0668  0.0539 -0.5104
  863MOL0     C18963   6.241   2.800   0.648 -0.1350 -0.5337 -0.2192
  863MOL0     O18964   6.365   2.750   0.665  0.1479  0.3223  0.3951
  863MOL0     C18965   6.423   2.793   0.803 -0.3866 -0.0869 -1.2201
  863MOL0     C18966   6.564   2.746   0.813 -0.5246  0.1694  0.1504
  863MOL0     C18967   6.641   2.824   0.918  0.2180  0.1632 -0.6545
  863MOL0     C18968   6.789   2.763   0.927  0.1614 -0.6728 -0.6348
  863MOL0     C18969   6.885   2.836   1.027  0.0980  0.0200 -0.4891
  863MOL0     C18970   7.036   2.834   0.998  0.4659 -1.2138  1.2307
  863MOL0     C18971   7.098   2.703   1.035  0.6118  0.1663  0.4720
  863MOL0     C18972   7.233   2.673   0.962  0.4389 -0.6753 -0.1867
  863MOL0     N18973   7.285   2.547   1.012 -0.0946 -0.4387  0.5951
  863MOL0     C18974   7.214   2.426   1.012 -0.0793 -0.9332 -0.1572
  863MOL0     C18975   7.273   2.348   1.101  0.2836  0.2474  0.6366
  863MOL0     C18976   7.244   2.194   1.131  0.2676 -0.4589 -0.3579
  863MOL0     C18977   7.282   2.155   1.269 -0.0145 -0.1017 -0.3609
  863MOL0     C18978   7.204   2.223   1.379  0.4807 -0.0103 -0.1144
  863MOL0     C18979   7.055   2.176   1.370 -0.6932 -0.3543 -0.2438
  863MOL0     O18980   6.982   2.249   1.477  0.1076  0.8294  0.2461
  863MOL0     C18981   6.844   2.253   1.479 -0.2846 -0.1533  0.9919
  863MOL0     C18982   6.782   2.363   1.544  0.0869 -0.6574  0.1310
  863MOL0     C18983   6.645   2.373   1.556 -0.3640  0.5873  0.0828
  863MOL0     C18984   6.590   2.497   1.616 -0.0398 -0.8284  0.6479
  863MOL0     C18985   6.564   2.273   1.500 -0.1509  0.8163 -0.6699
  863MOL0     C18986   6.416   2.280   1.508 -0.3481 -0.0382 -0.3053
  863MOL0     O18987   6.356   2.177   1.453  0.6348 -0.9371  0.7498
  863MOL0     C18988   6.225   2.178   1.447  0.3809 -0.3299 -0.4505
  863MOL0     C18989   6.160   2.103   1.543 -0.0036  0.2790 -0.0173
  863MOL0     C18990   6.021   2.115   1.552 -0.7618 -0.2550  0.3683
  863MOL0     C18991   5.943   2.196   1.467  0.1833 -0.7481  0.4034
  863MOL0     O18992   5.806   2.195   1.491 -0.4842 -0.0300  0.3070
  863MOL0     C18993   5.727   2.306   1.437  0.1380 -0.4775  0.2547
  863MOL0     C18994   5.594   2.287   1.493  0.4061  0.2514 -0.3710
  863MOL0     C18995   5.588   2.278   1.641 -0.0172  0.4247  0.1188
  863MOL0     C18996   5.609   2.412   1.702  1.2853 -0.2425  0.4833
  863MOL0     C18997   5.574   2.396   1.851  0.0057  0.5498  0.1603
  863MOL0     C18998   5.618   2.512   1.928 -0.2821 -0.2280  0.8527
  863MOL0     C18999   5.543   2.541   2.060 -1.2993  0.1689  0.0622
  863MOL0     C19000   5.546   2.414   2.159 -0.1040 -0.7490  0.2566
  863MOL0    Cl19001   5.722   2.367   2.178 -0.3765 -0.0860  0.2874
  863MOL0     C19002   6.014   2.271   1.368 -0.3548 -0.1878 -0.1541
  863MOL0     C19003   6.153   2.264   1.359 -0.7234  0.3285  0.2772
  863MOL0     O19004   6.364   2.368   1.572 -0.2167  0.1287  0.1813
  863MOL0     C19005   6.631   2.155   1.444 -0.1259 -0.5598 -0.2307
  863MOL0     C19006   6.765   2.149   1.437 -0.2981  1.1513  0.5212
  863MOL0     N19007   7.389   2.409   1.142  0.2811 -0.9046 -0.6625
  863MOL0     N19008   7.399   2.529   1.090  0.4255 -0.7347  0.0380
  863MOL0     C19009   6.131   2.737   0.715  0.5056  0.6736 -0.4509
  863MOL0     C19010   5.996   2.771   0.699 -0.3988  0.2729 -0.6385
  863MOL0     C19011   5.597   2.960   0.613  0.0418 -0.4593 -0.0567
  863MOL0     C19012   5.621   3.093   0.581  0.5652  0.9812 -0.8359
  863MOL0     C19013   5.518   3.189   0.563  0.7144 -0.1182 -0.4846
  863MOL0     C19014   5.387   3.145   0.570 -0.8765 -0.2354  0.3563
  863MOL0     O19015   5.301   3.244   0.537 -0.4525  0.4205  0.1681
  863MOL0     C19016   5.166   3.209   0.539 -0.5634  0.5981  0.3444
  863MOL0     C19017   5.069   3.326   0.516 -0.1942  0.1489  0.9746
  863MOL0     C19018   5.048   3.416   0.638 -0.4438  0.5910  0.8451
  863MOL0     C19019   4.928   3.517   0.618 -0.8436  0.2914  0.5496
  863MOL0     C19020   4.956   3.646   0.690 -0.8529  0.3736 -0.3310
  863MOL0     C19021   4.968   3.749   0.767 -0.3246 -0.1145  0.3786
  863MOL0     C19022   5.357   3.013   0.579  0.3429  0.4107 -0.3608
  863MOL0     C19023   5.459   2.919   0.605  0.4860 -0.8100  0.2023
  863MOL0     C19024   5.409   2.781   0.633 -0.8469  0.4239  0.0575
  863MOL0     H19025   6.052   3.028   0.488  0.6327  0.9001  1.2179
  863MOL0     H19026   6.283   2.961   0.507  0.2959  1.0454  0.7078
  863MOL0     H19027   6.361   2.767   0.889 -0.4781  0.6437 -1.0575
  863MOL0     H19028   6.423   2.902   0.803  2.1525  0.0068  0.8805
  863MOL0     H19029   6.556   2.645   0.854 -0.6822 -0.8464 -2.2255
  863MOL0     H19030   6.611   2.752   0.714  0.4236 -0.5082  0.5539
  863MOL0     H19031   6.649   2.928   0.886  1.2112 -0.4410 -2.5222
  863MOL0     H19032   6.587   2.806   1.012  3.3828 -0.7353  1.1264
  863MOL0     H19033   6.791   2.661   0.966 -0.7839 -0.9826 -1.3337
  863MOL0     H19034   6.828   2.754   0.825 -2.6332  1.3675 -2.0071
  863MOL0     H19035   6.875   2.804   1.132 -1.1469  0.7782 -0.3554
  863MOL0     H19036   6.844   2.937   1.026 -2.2874 -0.8373  1.1222
  863MOL0     H19037   7.039   2.860   0.891 -0.0704 -3.6212  0.5593
  863MOL0     H19038   7.088   2.912   1.054 -0.6280  0.7689 -0.3611
  863MOL0     H19039   7.038   2.621   0.993 -1.2778  1.0017  1.4648
  863MOL0     H19040   7.096   2.706   1.144 -2.2842  0.7838  0.4836
  863MOL0     H19041   7.213   2.675   0.854  0.0515  1.5647 -0.1162
  863MOL0     H19042   7.306   2.752   0.982  1.8061 -2.2939  1.6514
  863MOL0     H19043   7.118   2.410   0.966  0.0312  0.5966 -0.9900
  863MOL0     H19044   7.310   2.140   1.062  0.5930 -0.0036 -0.4036
  863MOL0     H19045   7.139   2.169   1.115  0.6575 -1.3742 -1.7682
  863MOL0     H19046   7.277   2.047   1.287 -1.8947  0.1189  0.6545
  863MOL0     H19047   7.388   2.175   1.288  0.6425 -3.3961  0.1855
  863MOL0     H19048   7.244   2.197   1.477 -0.8651  0.4078  0.5610
  863MOL0     H19049   7.205   2.332   1.368 -1.3920  0.0240 -0.1685
  863MOL0     H19050   6.998   2.203   1.280 -0.6509 -2.0950 -0.8347
  863MOL0     H19051   7.052   2.067   1.383  1.6116 -0.6029 -1.2984
  863MOL0     H19052   6.847   2.447   1.569  0.3470 -0.4331 -1.2099
  863MOL0     H19053   6.676   2.559   1.643 -1.6601  1.9061 -0.0801
  863MOL0     H19054   6.536   2.475   1.709 -2.2176 -1.6277 -0.7234
  863MOL0     H19055   6.524   2.557   1.553 -1.5759 -2.4789  0.5894
  863MOL0     H19056   6.218   2.050   1.617  2.1909 -0.7823 -2.3537
  863MOL0     H19057   5.963   2.058   1.624 -1.4206 -0.2521 -0.1497
  863MOL0     H19058   5.757   2.406   1.468 -2.4984  1.3181 -2.4034
  863MOL0     H19059   5.725   2.304   1.327 -1.5835  0.4596  0.2343
  863MOL0     H19060   5.537   2.374   1.457 -0.2850 -0.2070 -0.3952
  863MOL0     H19061   5.542   2.197   1.458 -0.8338  1.2386 -1.1668
  863MOL0     H19062   5.672   2.220   1.679  1.6430  2.9585  0.5956
  863MOL0     H19063   5.490   2.238   1.670  0.3891  0.2788  1.3800
  863MOL0     H19064   5.537   2.481   1.656  1.1475 -1.4302 -1.1943
  863MOL0     H19065   5.711   2.446   1.679  1.3954  0.8320  2.3933
  863MOL0     H19066   5.467   2.382   1.862 -0.0726  0.0248 -1.1096
  863MOL0     H19067   5.618   2.304   1.891  0.6970  0.7860 -0.0395
  863MOL0     H19068   5.604   2.604   1.870 -0.4744 -1.5012 -1.2230
  863MOL0     H19069   5.725   2.506   1.949 -0.3503 -1.0850  0.9856
  863MOL0     H19070   5.442   2.581   2.047 -1.3463  0.2195  0.5826
  863MOL0     H19071   5.592   2.628   2.105 -0.5504  1.1811 -2.4942
  863MOL0     H19072   5.488   2.332   2.115  0.3827 -0.9841  0.0535
  863MOL0     H19073   5.498   2.450   2.251  1.2650  1.4731  0.1589
  863MOL0     H19074   5.958   2.332   1.298  0.3897  0.8185  0.1011
  863MOL0     H19075   6.216   2.322   1.293  0.2934  0.4369  1.3118
  863MOL0     H19076   6.577   2.065   1.416 -3.3295  1.3486 -0.7412
  863MOL0     H19077   6.806   2.057   1.395 -0.1869  0.5801  1.8433
  863MOL0     H19078   6.152   2.653   0.780 -0.9026  0.6537  0.0226
  863MOL0     H19079   5.915   2.726   0.755 -0.3677  1.1733  0.1580
  863MOL0     H19080   5.718   3.142   0.572  1.7106 -1.2061 -0.9012
  863MOL0     H19081   5.545   3.292   0.543  0.1732 -0.4199 -3.2300
  863MOL0     H19082   5.148   3.138   0.458  1.5383 -1.6532  1.7007
  863MOL0     H19083   5.143   3.166   0.637 -1.3116  0.4885  0.1257
  863MOL0     H19084   4.970   3.278   0.506 -0.9138  1.7535  0.0881
  863MOL0     H19085   5.092   3.390   0.431 -1.2569 -0.6351  0.0646
  863MOL0     H19086   5.033   3.353   0.726  0.7982 -0.5845  0.2568
  863MOL0     H19087   5.146   3.462   0.652 -0.1540  0.4251 -0.4918
  863MOL0     H19088   4.834   3.470   0.645 -0.4066  0.4075  2.3950
  863MOL0     H19089   4.922   3.545   0.512  1.1979 -1.6702 -0.1658
  863MOL0     H19090   4.975   3.840   0.825 -4.7648  0.0621  0.9436
  863MOL0     H19091   5.255   2.976   0.580  0.3084  0.5130  0.0017
  863MOL0     H19092   5.325   2.754   0.568 -0.7453 -1.5865  0.7027
  863MOL0     H19093   5.487   2.704   0.631 -1.2935 -0.2504  3.6779
  863MOL0     H19094   5.378   2.769   0.737  0.0778 -1.3898  0.1554
  864MOL0     O19095   9.010   7.909   3.099  0.1377 -0.8691  0.1487
  864MOL0     C19096   8.933   8.002   3.145  0.8733  0.3414  0.9412
  864MOL0     O19097   8.944   8.073   3.258  0.2150  0.7280 -0.0909
  864MOL0     C19098   9.045   8.027   3.341 -0.4881 -0.6072  0.3530
  864MOL0     C19099   9.010   7.966   3.458 -0.1894  0.0016 -0.0466
  864MOL0     C19100   9.110   7.900   3.531 -0.6594 -0.6607 -0.2435
  864MOL0     C19101   9.239   7.896   3.493  0.3128 -0.0167 -0.2162
  864MOL0     O19102   9.321   7.822   3.566 -0.7348  0.3822  0.2603
  864MOL0     C19103   9.470   7.837   3.570  0.1956  0.2418  0.0640
  864MOL0     C19104   9.523   7.749   3.682  0.0010 -0.8601 -0.2216
  864MOL0     C19105   9.669   7.704   3.662  0.5873  0.5348 -0.0618
  864MOL0     C19106   9.708   7.594   3.764  0.4478 -0.3713 -0.5731
  864MOL0     C19107   9.851   7.561   3.736  0.1985 -0.7525  0.2653
  864MOL0     C19108   9.899   7.434   3.799  0.1860 -0.1009 -0.0155
  864MOL0     C19109  10.047   7.414   3.794  0.2649 -0.3431 -0.2857
  864MOL0     C19110  10.079   7.297   3.881  0.1014 -0.4838  0.3446
  864MOL0     N19111  10.222   7.258   3.869  0.2533 -0.0286 -0.0983
  864MOL0     C19112  10.326   7.273   3.963 -0.6328 -0.0984  0.7474
  864MOL0     C19113  10.429   7.225   3.905  0.2053 -0.5158 -0.4087
  864MOL0     C19114  10.568   7.221   3.952 -0.5291  0.0365 -0.3225
  864MOL0     C19115  10.644   7.361   3.962  0.2789  0.5407 -0.3392
  864MOL0     C19116  10.647   7.433   3.830  0.1830  0.8386  0.1407
  864MOL0     C19117  10.723   7.563   3.835  1.2108  0.1930  0.5763
  864MOL0     O19118  10.860   7.539   3.837 -0.0261 -0.1483  0.0679
  864MOL0     C19119  10.947   7.645   3.867 -0.5538 -0.6304 -0.1170
  864MOL0     C19120  10.911   7.783   3.867 -0.2743  0.3170 -0.3739
  864MOL0     C19121  11.009   7.884   3.894  0.3389 -0.1420  0.2080
  864MOL0     C19122  10.965   8.028   3.888 -0.6884  0.3562 -0.2368
  864MOL0     C19123  11.144   7.850   3.905  0.1215  0.3783  0.1180
  864MOL0     C19124  11.258   7.944   3.920  0.1614  0.1467  0.3110
  864MOL0     O19125  11.378   7.881   3.904 -0.3023  0.4468 -0.3853
  864MOL0     C19126  11.497   7.942   3.911  0.3564  0.1367 -0.1805
  864MOL0     C19127  11.529   8.015   4.024  0.3861 -0.1093  0.2313
  864MOL0     C19128  11.658   8.074   4.033  0.3478 -0.5182  0.3019
  864MOL0     C19129  11.753   8.053   3.937  0.7147 -0.1928  0.5060
  864MOL0     O19130  11.869   8.124   3.955 -0.2992  0.1448  0.3451
  864MOL0     C19131  11.999   8.063   3.925  0.5911  0.0954  0.7687
  864MOL0     C19132  12.046   7.975   4.048  0.3615  0.1654 -0.1253
  864MOL0     C19133  12.092   8.053   4.166 -0.0192 -0.3917 -0.6729
  864MOL0     C19134  12.211   8.150   4.156  0.0973 -0.2251  0.2684
  864MOL0     C19135  12.290   8.179   4.280 -0.0643 -0.1992 -0.5204
  864MOL0     C19136  12.418   8.255   4.255  0.5029 -1.3798  0.2433
  864MOL0     C19137  12.511   8.272   4.381 -0.1354  0.6342  0.1336
  864MOL0     C19138  12.624   8.372   4.357  0.6125  0.0612  0.2984
  864MOL0    Cl19139  12.755   8.323   4.467  0.5121 -0.2880  0.2676
  864MOL0     C19140  11.715   7.982   3.818  0.1045 -0.0591 -0.8259
  864MOL0     C19141  11.590   7.922   3.815  0.6089  0.6185  0.5002
  864MOL0     O19142  11.236   8.060   3.952  0.0505  0.4479  0.3656
  864MOL0     C19143  11.168   7.715   3.892 -0.4556 -0.1457 -0.0527
  864MOL0     C19144  11.083   7.614   3.877  0.0109  0.0588 -0.2857
  864MOL0     N19145  10.399   7.187   3.776 -0.2076 -0.2852  0.6712
  864MOL0     N19146  10.278   7.206   3.757  0.9410 -0.3707 -0.0480
  864MOL0     C19147   9.278   7.977   3.384 -0.0478  0.1883 -1.0402
  864MOL0     C19148   9.182   8.037   3.308 -0.6348  0.3409  0.6707
  864MOL0     C19149   8.821   8.031   3.060  0.3252 -0.4109  0.5300
  864MOL0     C19150   8.842   8.110   2.952  0.1420  0.5863 -0.0728
  864MOL0     C19151   8.734   8.139   2.866 -1.2028 -0.1648  0.2022
  864MOL0     C19152   8.599   8.105   2.897 -0.7842  0.1305 -0.6516
  864MOL0     O19153   8.505   8.140   2.800  0.0272  0.6719 -0.4588
  864MOL0     C19154   8.386   8.068   2.808  0.0471  0.4790 -0.2217
  864MOL0     C19155   8.282   8.098   2.701  0.1718 -0.1751 -0.3642
  864MOL0     C19156   8.142   8.046   2.739  0.2083  0.1105 -0.3214
  864MOL0     C19157   8.043   8.044   2.624 -0.4197 -0.0006 -0.1449
  864MOL0     C19158   8.017   8.172   2.549  0.6636  0.0724  0.5584
  864MOL0     C19159   7.982   8.272   2.491 -0.6283  0.4137 -0.8768
  864MOL0     C19160   8.581   8.032   3.019  1.0703 -0.0928  0.0005
  864MOL0     C19161   8.692   7.993   3.102 -0.1178 -0.2430 -0.4181
  864MOL0     C19162   8.678   7.912   3.235  0.1067 -0.1562  0.0246
  864MOL0     H19163   8.913   7.965   3.506  0.5584  0.6739  1.5594
  864MOL0     H19164   9.074   7.844   3.616 -0.5189 -2.8580 -1.5449
  864MOL0     H19165   9.493   7.939   3.601 -1.1156 -0.3620  3.5386
  864MOL0     H19166   9.511   7.812   3.472 -2.8395  1.9113 -1.8054
  864MOL0     H19167   9.506   7.803   3.776  3.7436  0.4108 -0.1120
  864MOL0     H19168   9.464   7.657   3.684 -1.3138 -0.0590 -0.9205
  864MOL0     H19169   9.679   7.655   3.565 -1.5938  0.7916 -0.4599
  864MOL0     H19170   9.747   7.781   3.672 -0.3774  1.6676 -0.9543
  864MOL0     H19171   9.696   7.629   3.867 -2.6602  0.8458 -1.2472
  864MOL0     H19172   9.653   7.501   3.747  2.0362 -1.6842  1.0739
  864MOL0     H19173   9.909   7.652   3.756 -0.4827 -0.1788 -0.3483
  864MOL0     H19174   9.860   7.552   3.627  2.1257  0.1284  0.3009
  864MOL0     H19175   9.871   7.450   3.903 -1.5341 -2.1332 -0.1012
  864MOL0     H19176   9.835   7.358   3.753 -0.4133  1.3879 -1.8007
  864MOL0     H19177  10.096   7.500   3.841 -2.1975  1.6108 -1.0810
  864MOL0     H19178  10.085   7.406   3.692  3.5941 -1.3882  0.9162
  864MOL0     H19179  10.049   7.313   3.985 -1.2757 -0.5131 -0.0260
  864MOL0     H19180  10.026   7.213   3.834  0.2572  0.3698 -1.4346
  864MOL0     H19181  10.321   7.320   4.061 -0.8624  0.5388  0.4416
  864MOL0     H19182  10.631   7.164   3.883 -0.7550 -0.1659 -0.3637
  864MOL0     H19183  10.569   7.177   4.052  0.6841 -0.2884 -0.4620
  864MOL0     H19184  10.584   7.429   4.024 -0.1253  1.5280 -1.7464
  864MOL0     H19185  10.745   7.336   3.995  0.9985 -1.0123 -3.3821
  864MOL0     H19186  10.691   7.362   3.760  0.9593  0.4285  1.0188
  864MOL0     H19187  10.545   7.463   3.804  0.3218  2.9218  1.6655
  864MOL0     H19188  10.704   7.618   3.742 -0.3064  0.7218  1.1655
  864MOL0     H19189  10.686   7.623   3.919 -0.1206 -0.0393  0.1809
  864MOL0     H19190  10.811   7.808   3.833 -0.3430  0.3760 -0.1274
  864MOL0     H19191  10.860   8.046   3.914 -0.5254  0.8093  0.1129
  864MOL0     H19192  10.993   8.046   3.784 -2.4893 -1.3103 -1.0870
  864MOL0     H19193  11.010   8.093   3.963  1.2369 -1.4399  0.2281
  864MOL0     H19194  11.459   8.024   4.107  0.4976 -1.7794  0.5333
  864MOL0     H19195  11.679   8.135   4.120  0.8292 -1.9403  1.2133
  864MOL0     H19196  11.992   7.992   3.842  0.8466  1.1804 -0.1962
  864MOL0     H19197  12.078   8.129   3.890 -0.4409 -0.5697 -3.2965
  864MOL0     H19198  11.977   7.893   4.073  2.6282 -3.2056 -3.7007
  864MOL0     H19199  12.135   7.917   4.021 -0.2178  0.2189 -2.3841
  864MOL0     H19200  12.124   7.976   4.237  2.0874 -0.4883 -1.6334
  864MOL0     H19201  12.006   8.110   4.202  0.5755  1.0932 -1.5460
  864MOL0     H19202  12.181   8.243   4.107 -4.2019 -1.4300  0.2619
  864MOL0     H19203  12.297   8.101   4.109 -0.5369  0.9769 -2.3468
  864MOL0     H19204  12.230   8.225   4.359  0.5820 -0.8122  0.3547
  864MOL0     H19205  12.320   8.081   4.319 -0.1836  0.8484  2.4694
  864MOL0     H19206  12.414   8.345   4.194 -0.8470 -1.7595 -0.2666
  864MOL0     H19207  12.473   8.192   4.185 -0.1791 -0.7105 -0.9289
  864MOL0     H19208  12.543   8.168   4.395  0.2530  0.8913  1.2893
  864MOL0     H19209  12.462   8.304   4.474  0.4819  2.3326 -0.1019
  864MOL0     H19210  12.592   8.473   4.384  0.6265  0.1556 -0.0348
  864MOL0     H19211  12.662   8.363   4.254  1.3442  0.6267  0.5105
  864MOL0     H19212  11.786   7.967   3.738  2.4155 -2.3946  1.4698
  864MOL0     H19213  11.568   7.857   3.731 -0.3707 -0.5609  1.6277
  864MOL0     H19214  11.269   7.676   3.891  1.3275  3.7032 -4.1088
  864MOL0     H19215  11.111   7.510   3.866 -0.2173  0.1477 -1.9317
  864MOL0     H19216   9.379   7.984   3.345  0.7458 -2.3588  0.3419
  864MOL0     H19217   9.200   8.078   3.209 -0.2432 -0.2137  0.5061
  864MOL0     H19218   8.944   8.140   2.930 -0.0779  1.0716 -0.4399
  864MOL0     H19219   8.767   8.183   2.773 -0.7494 -3.5638 -1.4222
  864MOL0     H19220   8.405   7.960   2.800  1.4339  0.7464 -0.8606
  864MOL0     H19221   8.333   8.086   2.902  0.4585  3.1902 -0.4542
  864MOL0     H19222   8.311   8.059   2.603  0.4605  0.5515 -0.5733
  864MOL0     H19223   8.274   8.205   2.680  3.7600  0.1085 -0.9842
  864MOL0     H19224   8.156   7.946   2.780 -2.3308 -0.7383 -1.3193
  864MOL0     H19225   8.111   8.113   2.820 -0.5759  1.3436 -1.5969
  864MOL0     H19226   7.945   8.005   2.655 -1.0928  0.4603 -1.5924
  864MOL0     H19227   8.075   7.969   2.552 -1.0808  1.4596 -2.0335
  864MOL0     H19228   7.960   8.359   2.433  0.1099  1.3354  0.2061
  864MOL0     H19229   8.482   7.992   3.039  0.1580  1.4176 -1.2457
  864MOL0     H19230   8.712   7.809   3.219  0.9586  0.2159 -0.6023
  864MOL0     H19231   8.717   7.966   3.322 -0.7614 -0.5904  0.6982
  864MOL0     H19232   8.571   7.905   3.257  0.7098 -0.7011  3.3884
  865MOL0     O19233   3.333   5.305   8.415  0.4428  0.2135 -0.1602
  865MOL0     C19234   3.277   5.346   8.311 -0.9909 -0.6072 -0.4964
  865MOL0     O19235   3.323   5.460   8.242 -0.3930  0.1276 -0.1988
  865MOL0     C19236   3.431   5.531   8.286  0.4132  0.2679  0.0509
  865MOL0     C19237   3.552   5.488   8.346  0.6034  0.5504 -0.4155
  865MOL0     C19238   3.643   5.586   8.389 -0.1152  0.1163 -0.3072
  865MOL0     C19239   3.616   5.727   8.372  0.0520 -0.2310  0.4364
  865MOL0     O19240   3.714   5.812   8.422  0.0486  0.1097 -0.2794
  865MOL0     C19241   3.675   5.946   8.433  0.4336 -0.0784  0.7937
  865MOL0     C19242   3.773   6.052   8.488  0.7693 -0.8361 -0.2700
  865MOL0     C19243   3.897   6.056   8.396  0.1913  0.5232  0.7608
  865MOL0     C19244   4.022   6.103   8.474  0.5104  0.5635 -0.2447
  865MOL0     C19245   4.152   6.102   8.392 -0.2338 -0.8692 -0.7666
  865MOL0     C19246   4.277   6.131   8.476  0.3736  0.2586  0.8446
  865MOL0     C19247   4.401   6.096   8.393 -0.5302  0.1492 -0.0029
  865MOL0     C19248   4.431   5.942   8.382  0.1918  0.0948  0.6719
  865MOL0     N19249   4.571   5.909   8.342 -0.0308  0.2688  0.0018
  865MOL0     C19250   4.624   5.946   8.226 -0.2892  0.0876  0.5687
  865MOL0     C19251   4.740   5.880   8.218  1.0913  0.3255 -0.2385
  865MOL0     C19252   4.815   5.873   8.093 -0.2104  0.4836 -0.0120
  865MOL0     C19253   4.885   6.000   8.060  1.6935  0.7348  0.2783
  865MOL0     C19254   4.994   6.055   8.151  0.4709  0.1061 -0.0300
  865MOL0     C19255   5.112   5.964   8.150 -1.3861  1.2001 -0.7323
  865MOL0     O19256   5.216   6.012   8.242  0.0353 -0.0671  0.0552
  865MOL0     C19257   5.196   5.977   8.374  0.0396  0.0446  0.7357
  865MOL0     C19258   5.285   6.028   8.468 -0.2792  0.0988 -0.4190
  865MOL0     C19259   5.271   6.015   8.606  0.7130  0.3143  0.5954
  865MOL0     C19260   5.375   6.090   8.692  0.6849  0.7346 -0.3331
  865MOL0     C19261   5.166   5.934   8.660  0.2539  0.0269  0.0069
  865MOL0     C19262   5.147   5.906   8.804 -0.3944 -0.3510  0.6391
  865MOL0     O19263   5.020   5.872   8.847  0.2344 -0.2714 -0.2235
  865MOL0     C19264   4.978   5.849   8.974  0.1974  0.1580  0.4289
  865MOL0     C19265   4.842   5.854   9.005  0.5840 -0.0451  0.4894
  865MOL0     C19266   4.803   5.821   9.127  0.4730 -0.5889  0.4240
  865MOL0     C19267   4.892   5.786   9.227 -0.8089  0.2469 -0.6462
  865MOL0     O19268   4.856   5.760   9.356 -0.1252  0.6195 -0.5898
  865MOL0     C19269   4.712   5.723   9.366 -0.0963 -0.2086  0.2473
  865MOL0     C19270   4.684   5.650   9.498 -0.4583 -0.6566  0.2013
  865MOL0     C19271   4.538   5.601   9.500  1.0904 -0.5568 -0.0942
  865MOL0     C19272   4.505   5.536   9.636  0.0040  0.1008 -0.2463
  865MOL0     C19273   4.388   5.437   9.642 -0.5733 -1.0623  0.1511
  865MOL0     C19274   4.250   5.494   9.602 -0.3685  0.0800 -0.0718
  865MOL0     C19275   4.144   5.378   9.610  0.4890 -0.4339 -0.2363
  865MOL0     C19276   4.011   5.448   9.617  0.4063  0.9396  0.7477
  865MOL0    Cl19277   3.877   5.330   9.642  0.1706  0.0972  0.3687
  865MOL0     C19278   5.028   5.797   9.200  0.2317 -0.3163  0.0762
  865MOL0     C19279   5.072   5.823   9.074  0.1832  0.6111  0.3618
  865MOL0     O19280   5.248   5.907   8.873  0.4771  0.2819  0.0574
  865MOL0     C19281   5.074   5.877   8.565  0.0092 -0.3688  0.9317
  865MOL0     C19282   5.087   5.905   8.427  0.5486  0.2372  0.1406
  865MOL0     N19283   4.750   5.792   8.325  0.2489  0.2988 -0.4100
  865MOL0     N19284   4.654   5.820   8.402  0.8888  0.6772 -0.3363
  865MOL0     C19285   3.499   5.772   8.303 -0.7894 -0.2933 -0.7501
  865MOL0     C19286   3.414   5.669   8.261  0.5094 -0.6392 -0.5375
  865MOL0     C19287   3.144   5.290   8.266  0.2823 -0.6367 -0.2102
  865MOL0     C19288   3.079   5.361   8.162  0.4137 -0.7473 -0.2784
  865MOL0     C19289   2.946   5.326   8.126 -0.1864 -0.0355 -0.0389
  865MOL0     C19290   2.886   5.208   8.180 -0.9175 -0.7539  0.4095
  865MOL0     O19291   2.765   5.168   8.124  0.1855 -0.3158 -0.0702
  865MOL0     C19292   2.696   5.080   8.208  1.2900 -0.3785  1.2218
  865MOL0     C19293   2.544   5.084   8.169  0.1438  0.0737  0.1987
  865MOL0     C19294   2.520   5.075   8.018 -0.2762  0.3895  0.5781
  865MOL0     C19295   2.381   5.037   7.978 -0.5742  0.5612 -0.2350
  865MOL0     C19296   2.279   5.148   7.993 -0.1213 -0.1397  0.3036
  865MOL0     C19297   2.186   5.225   7.999  0.3919 -0.2321 -0.6249
  865MOL0     C19298   2.965   5.134   8.270  0.9349 -0.5343 -0.0892
  865MOL0     C19299   3.079   5.179   8.324 -0.2978  0.9279 -0.2444
  865MOL0     C19300   3.142   5.085   8.426 -0.5281  0.1674  0.5337
  865MOL0     H19301   3.560   5.383   8.370  0.7881 -0.1009 -3.0038
  865MOL0     H19302   3.733   5.568   8.447 -0.7216 -0.3149  0.5194
  865MOL0     H19303   3.591   5.944   8.503  1.1570 -1.1761  1.6631
  865MOL0     H19304   3.652   5.973   8.329  0.2013  0.4580  0.9822
  865MOL0     H19305   3.728   6.151   8.493  3.8729  0.6901  0.1634
  865MOL0     H19306   3.799   6.035   8.593  0.9284  1.5244  0.1100
  865MOL0     H19307   3.920   5.960   8.350 -0.7806  1.1426 -1.1466
  865MOL0     H19308   3.884   6.131   8.317  3.7442 -0.2825 -0.7918
  865MOL0     H19309   4.009   6.202   8.518  1.2677  1.2519 -1.5137
  865MOL0     H19310   4.030   6.031   8.556 -1.5894  0.8863  0.3065
  865MOL0     H19311   4.154   6.182   8.316  1.7005 -0.2664 -0.1310
  865MOL0     H19312   4.158   6.005   8.343  0.1354 -1.2867  0.0939
  865MOL0     H19313   4.275   6.239   8.494 -2.4360  0.9274 -2.4533
  865MOL0     H19314   4.274   6.087   8.576  1.5373  1.1288  1.2960
  865MOL0     H19315   4.486   6.141   8.443  0.3531  0.3878 -1.6586
  865MOL0     H19316   4.402   6.143   8.294  1.9695  1.8613  0.7593
  865MOL0     H19317   4.411   5.888   8.475 -1.2493 -0.6679 -0.0380
  865MOL0     H19318   4.371   5.902   8.300 -0.6087  2.2527  0.1442
  865MOL0     H19319   4.583   6.021   8.159 -1.0541 -1.1556 -0.4011
  865MOL0     H19320   4.748   5.842   8.012  0.9052 -1.2298 -0.3524
  865MOL0     H19321   4.886   5.791   8.111 -0.4863  0.1884 -0.2501
  865MOL0     H19322   4.927   5.980   7.961  0.2076  1.6760 -0.5856
  865MOL0     H19323   4.806   6.075   8.050 -0.0869 -1.0941 -0.0476
  865MOL0     H19324   5.029   6.153   8.118 -1.8191  1.8555  2.3345
  865MOL0     H19325   4.953   6.074   8.251 -0.1536  1.5857 -0.5406
  865MOL0     H19326   5.079   5.865   8.182  0.1917  1.3733  1.7322
  865MOL0     H19327   5.153   5.954   8.049  0.9670  0.7116  0.2056
  865MOL0     H19328   5.363   6.096   8.436  0.5132  0.8071  2.6976
  865MOL0     H19329   5.334   6.176   8.746 -0.4904 -0.0893  0.1096
  865MOL0     H19330   5.465   6.132   8.646  1.3939  2.0554  2.0828
  865MOL0     H19331   5.412   6.010   8.757 -0.0234  0.1835 -0.6002
  865MOL0     H19332   4.771   5.869   8.924 -0.2762  1.7235  1.4960
  865MOL0     H19333   4.696   5.829   9.145  0.0819 -0.4611 -1.6761
  865MOL0     H19334   4.650   5.813   9.368 -0.0190 -0.1185 -0.9327
  865MOL0     H19335   4.675   5.658   9.286 -1.8576 -0.6020  1.3268
  865MOL0     H19336   4.755   5.567   9.508  2.4032  1.7101  1.1286
  865MOL0     H19337   4.705   5.717   9.582 -1.2986 -1.0262  0.7204
  865MOL0     H19338   4.521   5.525   9.422  0.3999 -0.7617  0.2502
  865MOL0     H19339   4.473   5.688   9.489  0.7961 -0.5138  1.7433
  865MOL0     H19340   4.488   5.612   9.712 -0.7092  1.4021 -1.6519
  865MOL0     H19341   4.593   5.477   9.664  0.2576 -1.0148 -3.0239
  865MOL0     H19342   4.407   5.350   9.579 -0.7594 -1.4367  0.6054
  865MOL0     H19343   4.378   5.410   9.748  0.3603 -0.5494  0.3843
  865MOL0     H19344   4.253   5.539   9.502  0.4618  1.9944  0.7628
  865MOL0     H19345   4.226   5.574   9.672  1.5458  2.0624 -1.5244
  865MOL0     H19346   4.166   5.319   9.700  1.8916  1.1517  0.5265
  865MOL0     H19347   4.150   5.316   9.521 -0.1652 -0.1552 -0.4801
  865MOL0     H19348   4.002   5.511   9.528  1.2916 -0.9516 -0.7452
  865MOL0     H19349   4.012   5.512   9.706  0.8328 -0.0412  1.4737
  865MOL0     H19350   5.098   5.777   9.281  1.2562 -1.9303 -1.1176
  865MOL0     H19351   5.178   5.801   9.069  0.3476  0.9894  1.7517
  865MOL0     H19352   4.989   5.815   8.591 -0.0473 -0.9067 -0.4255
  865MOL0     H19353   5.007   5.857   8.372  0.9209 -0.6098  0.3200
  865MOL0     H19354   3.473   5.875   8.279 -2.3438 -0.1240  1.3557
  865MOL0     H19355   3.339   5.719   8.201  1.3352 -0.7903 -1.7285
  865MOL0     H19356   3.128   5.444   8.113 -2.1753  1.2300  0.2612
  865MOL0     H19357   2.888   5.370   8.046 -0.8334 -2.2655 -0.8599
  865MOL0     H19358   2.732   4.978   8.191  0.2412 -0.4685 -0.7919
  865MOL0     H19359   2.694   5.116   8.311  1.7023  0.5122  0.9305
  865MOL0     H19360   2.512   5.187   8.190  0.4370  0.2964 -0.4159
  865MOL0     H19361   2.484   5.007   8.217  1.6177 -0.0805  1.8801
  865MOL0     H19362   2.562   5.161   7.967 -0.2593  1.4678  2.3202
  865MOL0     H19363   2.587   4.993   7.991 -1.9630 -0.2777 -1.9644
  865MOL0     H19364   2.358   4.948   8.037  0.9439 -1.0357 -1.9126
  865MOL0     H19365   2.386   5.001   7.875 -2.1744  0.6786 -0.3782
  865MOL0     H19366   2.098   5.285   7.987  0.1467 -0.7289 -1.3813
  865MOL0     H19367   2.923   5.039   8.303  0.9110 -0.5656 -0.2085
  865MOL0     H19368   3.085   4.994   8.446  2.0286 -1.1908  2.1642
  865MOL0     H19369   3.242   5.050   8.396 -0.7442 -0.3669  0.4208
  865MOL0     H19370   3.147   5.133   8.524 -1.2847 -2.2063  1.8150
  866MOL0     O19371   3.576   4.216   1.823  0.1019  0.8001  0.2597
  866MOL0     C19372   3.450   4.213   1.830 -0.2150  0.0105  0.3429
  866MOL0     O19373   3.377   4.281   1.914 -0.0764  0.2342  0.3572
  866MOL0     C19374   3.424   4.390   1.976 -0.8894 -0.6253 -0.2251
  866MOL0     C19375   3.459   4.514   1.910 -0.0551  0.0744 -0.2205
  866MOL0     C19376   3.521   4.623   1.984 -0.1339 -0.0824 -0.6065
  866MOL0     C19377   3.522   4.600   2.129 -0.5025 -0.9560 -0.0976
  866MOL0     O19378   3.567   4.696   2.214 -0.0231 -0.7468 -0.1264
  866MOL0     C19379   3.704   4.684   2.241  0.0032 -0.0750 -0.2564
  866MOL0     C19380   3.732   4.757   2.371  0.0777  0.4110 -0.2601
  866MOL0     C19381   3.878   4.792   2.385  0.0779 -0.0420  0.1442
  866MOL0     C19382   3.889   4.847   2.529 -0.3326 -0.3472 -0.2681
  866MOL0     C19383   4.033   4.895   2.560 -0.1205 -0.9928 -0.3742
  866MOL0     C19384   4.066   5.013   2.478  1.1556 -0.2877  0.2320
  866MOL0     C19385   4.190   5.084   2.532  0.2409  0.7356 -1.1236
  866MOL0     C19386   4.321   5.005   2.498 -0.1978 -0.2414  0.0257
  866MOL0     N19387   4.432   5.095   2.528 -0.0027  0.2011  0.3954
  866MOL0     C19388   4.462   5.136   2.659 -0.1413  0.3361  0.4277
  866MOL0     C19389   4.579   5.201   2.644 -1.0341 -0.2026 -0.1613
  866MOL0     C19390   4.678   5.261   2.755 -0.6286  0.1190  0.0544
  866MOL0     C19391   4.707   5.403   2.717 -0.1259 -0.3010  0.0866
  866MOL0     C19392   4.584   5.486   2.683 -0.2053  0.2723  0.4390
  866MOL0     C19393   4.599   5.634   2.654  0.1917  0.0273  0.1939
  866MOL0     O19394   4.634   5.710   2.775 -0.6450 -0.7336  0.4170
  866MOL0     C19395   4.761   5.769   2.777 -0.6082  0.1366 -1.0102
  866MOL0     C19396   4.875   5.708   2.730 -0.5092  1.0410 -0.5824
  866MOL0     C19397   4.999   5.755   2.745 -0.0868 -0.5824  0.3344
  866MOL0     C19398   5.113   5.661   2.728  0.9010  0.1323 -0.0312
  866MOL0     C19399   5.016   5.893   2.797 -0.5285 -0.3261  0.1536
  866MOL0     C19400   5.143   5.973   2.790  0.9420  0.3619  1.1654
  866MOL0     O19401   5.231   5.945   2.694 -0.2303 -0.0023  0.3163
  866MOL0     C19402   5.354   6.004   2.705 -0.6987 -0.5709  0.2741
  866MOL0     C19403   5.453   5.910   2.698 -0.2739 -0.5202 -0.3226
  866MOL0     C19404   5.593   5.948   2.712  0.1731  0.4809 -0.7971
  866MOL0     C19405   5.626   6.081   2.741 -0.5094 -0.8622 -0.7607
  866MOL0     O19406   5.751   6.121   2.760 -0.1688 -0.9577 -0.2253
  866MOL0     C19407   5.862   6.034   2.764 -1.0165 -0.2975 -0.0156
  866MOL0     C19408   5.987   6.124   2.729  0.1691 -0.1792  0.1819
  866MOL0     C19409   6.099   6.032   2.687  0.4112 -0.1839 -0.0848
  866MOL0     C19410   6.168   5.963   2.810  0.9064  0.5174  0.1480
  866MOL0     C19411   6.305   5.915   2.759  0.1097  0.0623 -0.3241
  866MOL0     C19412   6.357   5.811   2.863  0.5862 -0.5130 -0.2262
  866MOL0     C19413   6.495   5.772   2.831 -0.1657 -0.1120 -0.5413
  866MOL0     C19414   6.552   5.683   2.941 -0.2084 -0.6179  0.0623
  866MOL0    Cl19415   6.697   5.600   2.871 -0.5688  0.2208  0.0770
  866MOL0     C19416   5.524   6.175   2.749  1.1386 -0.8675 -0.6435
  866MOL0     C19417   5.391   6.142   2.724  1.0487 -0.3223 -0.2948
  866MOL0     O19418   5.149   6.072   2.864 -0.3385 -0.1725  0.0280
  866MOL0     C19419   4.900   5.958   2.845  0.1767 -0.1042 -0.3930
  866MOL0     C19420   4.775   5.889   2.840 -0.3323  0.1948 -0.2698
  866MOL0     N19421   4.617   5.198   2.509 -0.0754  0.3318  0.0791
  866MOL0     N19422   4.525   5.144   2.441 -0.0648  0.6718 -0.0237
  866MOL0     C19423   3.479   4.480   2.187 -0.3921 -0.3393  0.4276
  866MOL0     C19424   3.439   4.372   2.111  0.0330 -0.1719 -0.4125
  866MOL0     C19425   3.381   4.114   1.745  0.0164 -0.1671  0.6129
  866MOL0     C19426   3.441   4.072   1.629 -0.4200  0.4025  0.0124
  866MOL0     C19427   3.379   4.006   1.525 -0.7300 -0.0107  0.1603
  866MOL0     C19428   3.248   3.976   1.538  0.3481  0.4186 -0.3644
  866MOL0     O19429   3.197   3.913   1.428 -0.2422 -0.1254 -0.9050
  866MOL0     C19430   3.061   3.874   1.428 -0.5080 -0.7365  0.5128
  866MOL0     C19431   3.008   3.808   1.296 -1.0617  0.0201 -0.4736
  866MOL0     C19432   3.000   3.895   1.177  0.1054  0.4335  0.3576
  866MOL0     C19433   2.967   3.807   1.047 -0.8652 -0.3473 -0.8614
  866MOL0     C19434   2.824   3.769   1.030 -0.5168  0.4066 -1.0285
  866MOL0     C19435   2.699   3.752   1.008 -0.5140 -0.0602 -0.4328
  866MOL0     C19436   3.182   4.004   1.656  0.1571  0.7887 -0.4458
  866MOL0     C19437   3.248   4.068   1.762 -0.2611 -0.7367  0.7780
  866MOL0     C19438   3.164   4.102   1.877  0.0760  0.3627 -1.0708
  866MOL0     H19439   3.442   4.532   1.804 -4.4829  1.2196  0.4964
  866MOL0     H19440   3.558   4.711   1.932 -0.8153  0.4700 -0.1664
  866MOL0     H19441   3.756   4.742   2.165 -0.9815  0.4188 -0.5658
  866MOL0     H19442   3.748   4.584   2.230  0.4920  0.2020 -0.8404
  866MOL0     H19443   3.672   4.848   2.366  0.6825  0.8137 -0.2427
  866MOL0     H19444   3.694   4.705   2.460  0.6301  0.1143 -0.1924
  866MOL0     H19445   3.948   4.710   2.369 -0.0692 -0.1934  0.2676
  866MOL0     H19446   3.898   4.862   2.303 -2.3589  1.6388  0.8635
  866MOL0     H19447   3.819   4.926   2.558 -0.8492 -1.1184  0.6447
  866MOL0     H19448   3.870   4.760   2.593  1.3496 -1.5697 -1.3370
  866MOL0     H19449   4.108   4.820   2.534  0.9954  0.3669 -1.2133
  866MOL0     H19450   4.033   4.917   2.667  3.2337  0.8561 -0.6436
  866MOL0     H19451   4.070   4.997   2.370 -0.6620  0.9938 -0.0710
  866MOL0     H19452   3.985   5.085   2.491  2.1984  1.0887 -0.5800
  866MOL0     H19453   4.184   5.107   2.639  0.7220  0.6499 -1.0754
  866MOL0     H19454   4.189   5.180   2.480  0.0800  1.3936  0.0555
  866MOL0     H19455   4.338   4.920   2.565 -0.6332  1.1177  1.9416
  866MOL0     H19456   4.324   4.972   2.393  0.5695  0.9982 -0.3667
  866MOL0     H19457   4.404   5.117   2.748 -0.1867  0.5826  0.4512
  866MOL0     H19458   4.767   5.199   2.771  0.0347  1.1008  0.2550
  866MOL0     H19459   4.626   5.267   2.851  0.1196  0.3574  0.4503
  866MOL0     H19460   4.765   5.453   2.796  1.0667  1.0949 -1.5862
  866MOL0     H19461   4.781   5.404   2.636 -0.2707  0.2385 -0.0410
  866MOL0     H19462   4.535   5.451   2.591 -1.3740 -0.7741  1.4280
  866MOL0     H19463   4.513   5.464   2.763  0.6437 -2.6798  0.5026
  866MOL0     H19464   4.670   5.650   2.573 -1.5986 -0.3871 -1.5550
  866MOL0     H19465   4.501   5.666   2.617  0.1406 -2.6359 -2.3645
  866MOL0     H19466   4.874   5.617   2.671  0.4241  0.9862 -0.5284
  866MOL0     H19467   5.085   5.555   2.723  0.3185  0.2784  0.0966
  866MOL0     H19468   5.181   5.674   2.813  0.1327 -0.1216  0.6378
  866MOL0     H19469   5.165   5.686   2.635 -0.6754  1.0061 -0.7159
  866MOL0     H19470   5.411   5.811   2.687 -0.3833 -0.4902 -0.1847
  866MOL0     H19471   5.669   5.873   2.692 -1.6009 -1.7732  0.4256
  866MOL0     H19472   5.877   5.992   2.864  2.7912 -0.0097 -0.3082
  866MOL0     H19473   5.870   5.956   2.688  1.1407  0.3843 -0.5769
  866MOL0     H19474   5.958   6.191   2.648 -0.6081  0.5962  1.0775
  866MOL0     H19475   6.002   6.189   2.815 -1.1720  3.0885 -1.8756
  866MOL0     H19476   6.172   6.087   2.627  0.9130 -0.7134  0.0305
  866MOL0     H19477   6.057   5.965   2.611 -1.5594  2.5051 -1.5501
  866MOL0     H19478   6.106   5.880   2.845 -0.1142  2.4793  3.3999
  866MOL0     H19479   6.181   6.037   2.889  0.7887 -1.9178  2.6040
  866MOL0     H19480   6.307   5.890   2.652 -1.7445 -1.0350 -0.1419
  866MOL0     H19481   6.372   6.001   2.766  0.1887 -0.0296  0.0630
  866MOL0     H19482   6.285   5.728   2.862 -2.3711  1.8512 -0.5198
  866MOL0     H19483   6.353   5.849   2.966  1.8716  1.1814 -0.7667
  866MOL0     H19484   6.563   5.854   2.806 -1.8327  1.1708 -1.1553
  866MOL0     H19485   6.471   5.713   2.742 -2.4260  1.6075 -1.1939
  866MOL0     H19486   6.489   5.605   2.984 -1.3616  0.1641 -0.1921
  866MOL0     H19487   6.597   5.747   3.018  1.5963 -1.2320 -0.4117
  866MOL0     H19488   5.545   6.278   2.773 -1.9761 -0.5758  1.3699
  866MOL0     H19489   5.313   6.218   2.734 -0.3044 -1.6604 -0.2418
  866MOL0     H19490   4.922   6.052   2.895  1.7283 -0.0146 -1.1780
  866MOL0     H19491   4.689   5.937   2.887  0.9889  2.8976 -0.3769
  866MOL0     H19492   3.484   4.469   2.295 -2.5612  2.2501  0.9062
  866MOL0     H19493   3.415   4.274   2.151  1.8318 -0.0063  1.2481
  866MOL0     H19494   3.544   4.105   1.615 -0.5911  0.3145 -1.6051
  866MOL0     H19495   3.429   3.980   1.432  0.6946 -1.7190  1.3437
  866MOL0     H19496   3.041   3.818   1.520  2.2691  2.1885  3.1536
  866MOL0     H19497   3.000   3.965   1.429  0.7449  0.1632 -0.7435
  866MOL0     H19498   2.907   3.775   1.321 -1.1209 -0.6124 -1.5195
  866MOL0     H19499   3.070   3.720   1.276 -0.0801  0.5995 -0.0846
  866MOL0     H19500   2.918   3.965   1.192  1.7181  2.2086  1.3711
  866MOL0     H19501   3.099   3.941   1.172  1.0399 -0.7484  4.1210
  866MOL0     H19502   3.037   3.723   1.040  1.3627  1.5306 -2.0734
  866MOL0     H19503   2.991   3.871   0.962 -0.5188  0.0599 -0.4567
  866MOL0     H19504   2.596   3.733   0.987 -0.0966 -2.0462 -0.8936
  866MOL0     H19505   3.076   3.987   1.669  0.2428  1.0346  0.6910
  866MOL0     H19506   3.143   4.210   1.877 -1.7477  0.0435  0.0530
  866MOL0     H19507   3.068   4.052   1.889 -0.1329  0.9439 -0.2342
  866MOL0     H19508   3.221   4.076   1.966 -0.1303 -0.1675 -1.0886
  867MOL0     O19509   7.568   9.518   5.909 -0.1114 -1.0052  0.4721
  867MOL0     C19510   7.607   9.513   5.790  0.6394  0.5878 -0.5730
  867MOL0     O19511   7.694   9.417   5.746 -0.5073  0.1256  0.3461
  867MOL0     C19512   7.739   9.335   5.843  0.6819  0.3567 -0.0422
  867MOL0     C19513   7.668   9.213   5.864 -0.8108 -0.0832  0.9257
  867MOL0     C19514   7.722   9.116   5.961 -1.3265  0.3679  0.3854
  867MOL0     C19515   7.840   9.142   6.035  0.1630  0.4431 -0.6960
  867MOL0     O19516   7.884   9.062   6.141  0.0472  0.1603 -0.1569
  867MOL0     C19517   7.848   8.928   6.148 -0.0384 -0.2081  0.4237
  867MOL0     C19518   7.957   8.844   6.206  0.2790  0.1938 -0.1006
  867MOL0     C19519   8.098   8.881   6.173  0.1178 -0.6186 -0.6097
  867MOL0     C19520   8.193   8.791   6.246  0.8731  0.0524  0.3552
  867MOL0     C19521   8.345   8.824   6.257  0.1912  0.7976  0.1554
  867MOL0     C19522   8.421   8.730   6.341  0.0739  0.6917 -0.8254
  867MOL0     C19523   8.580   8.744   6.313 -0.4598 -0.2879  0.3338
  867MOL0     C19524   8.653   8.627   6.402 -0.8977 -0.2008  0.1766
  867MOL0     N19525   8.799   8.655   6.402  1.2712  0.5467 -1.3933
  867MOL0     C19526   8.840   8.743   6.501 -0.3503  0.1929 -0.1770
  867MOL0     C19527   8.980   8.727   6.504  0.9404 -0.2044  0.3231
  867MOL0     C19528   9.070   8.799   6.601  0.3644  0.1572 -0.1163
  867MOL0     C19529   9.221   8.799   6.579  0.0823  0.1972  0.7440
  867MOL0     C19530   9.272   8.658   6.586  0.3868  0.2353  0.0508
  867MOL0     C19531   9.424   8.665   6.613  0.9696 -0.3575 -0.1862
  867MOL0     O19532   9.475   8.538   6.662 -0.8230 -0.1726  0.4315
  867MOL0     C19533   9.615   8.530   6.673  0.2173 -0.0066  0.0398
  867MOL0     C19534   9.660   8.395   6.693 -0.0469  0.1018  0.5821
  867MOL0     C19535   9.794   8.372   6.706  0.4081 -0.4986 -0.4686
  867MOL0     C19536   9.837   8.229   6.730  0.1941  0.0124  0.3296
  867MOL0     C19537   9.883   8.483   6.708 -0.8136 -0.2891  0.3318
  867MOL0     C19538  10.025   8.469   6.698 -0.9235  0.1151 -0.1429
  867MOL0     O19539  10.097   8.581   6.747  0.1862 -0.3290  0.3746
  867MOL0     C19540  10.232   8.600   6.728  0.1162  0.3611 -0.1178
  867MOL0     C19541  10.332   8.509   6.777 -0.3108 -0.2555  1.2185
  867MOL0     C19542  10.469   8.534   6.774 -0.5502  0.2867 -0.3624
  867MOL0     C19543  10.513   8.642   6.703 -0.4695  0.0475  0.3015
  867MOL0     O19544  10.641   8.689   6.695 -0.4976 -0.3231 -0.1153
  867MOL0     C19545  10.734   8.594   6.646  0.5604  0.2110  0.1604
  867MOL0     C19546  10.863   8.619   6.715 -0.8405  0.1260 -0.4969
  867MOL0     C19547  10.961   8.505   6.684  1.3164  0.1907 -0.0642
  867MOL0     C19548  11.105   8.527   6.742 -0.2068  0.6229  1.0331
  867MOL0     C19549  11.173   8.646   6.677 -0.0949 -0.1749  1.0121
  867MOL0     C19550  11.326   8.641   6.703  0.6392 -0.2276 -0.2571
  867MOL0     C19551  11.398   8.750   6.631 -0.0052 -0.5426 -0.4493
  867MOL0     C19552  11.528   8.788   6.700 -0.0840  0.9283  0.2613
  867MOL0    Cl19553  11.498   8.852   6.871 -0.3539  0.2337  0.4863
  867MOL0     C19554  10.421   8.732   6.652  0.8798  0.8844  0.7065
  867MOL0     C19555  10.280   8.711   6.657  0.5290 -0.5566 -0.1266
  867MOL0     O19556  10.077   8.366   6.649 -0.4283 -0.0399 -0.1465
  867MOL0     C19557   9.831   8.613   6.695  0.0702 -0.0898 -0.1702
  867MOL0     C19558   9.695   8.646   6.681  0.1078  0.3508  0.5643
  867MOL0     N19559   9.014   8.642   6.405 -0.1673 -0.5697 -0.1384
  867MOL0     N19560   8.902   8.598   6.341 -0.4287  0.2484 -0.0385
  867MOL0     C19561   7.906   9.263   6.011 -0.3008 -0.2071 -0.3840
  867MOL0     C19562   7.861   9.355   5.918  0.3582 -0.5300 -0.2883
  867MOL0     C19563   7.579   9.625   5.693 -0.1473 -0.1143 -0.8116
  867MOL0     C19564   7.689   9.673   5.614 -0.6078  0.2094  0.0830
  867MOL0     C19565   7.667   9.769   5.520 -0.6402  1.5630 -0.2779
  867MOL0     C19566   7.547   9.825   5.494  0.5937 -0.3052 -0.2070
  867MOL0     O19567   7.529   9.921   5.397 -0.0564  0.2144  0.0476
  867MOL0     C19568   7.404   9.981   5.362 -0.9668  0.6814  0.0016
  867MOL0     C19569   7.406  10.044   5.224 -0.2064  0.1813 -0.2270
  867MOL0     C19570   7.503  10.160   5.210  0.5580 -0.2732 -0.1729
  867MOL0     C19571   7.515  10.194   5.063  0.1316  0.5049  0.2073
  867MOL0     C19572   7.590  10.102   4.981  0.0160  0.8935 -0.6484
  867MOL0     C19573   7.645  10.026   4.909 -0.5573  0.2675 -0.5690
  867MOL0     C19574   7.436   9.782   5.571  0.2102  0.5582  0.5882
  867MOL0     C19575   7.452   9.685   5.674  0.4547  0.1955 -0.5211
  867MOL0     C19576   7.342   9.644   5.761 -0.3618 -0.2683 -0.0712
  867MOL0     H19577   7.575   9.199   5.810  0.8528 -0.4169 -2.1184
  867MOL0     H19578   7.660   9.028   5.977 -0.8693 -0.1805 -0.7183
  867MOL0     H19579   7.809   8.892   6.053 -0.2099  0.1860  0.3442
  867MOL0     H19580   7.766   8.917   6.220 -1.0457  1.0359 -0.5016
  867MOL0     H19581   7.943   8.839   6.314 -1.4660  0.4838 -0.2855
  867MOL0     H19582   7.938   8.744   6.164 -0.0801 -0.7867  2.2700
  867MOL0     H19583   8.126   8.872   6.068  1.2444 -1.9678 -0.2199
  867MOL0     H19584   8.106   8.982   6.215 -0.9158 -0.4721 -0.7238
  867MOL0     H19585   8.161   8.765   6.347  2.8073 -1.8861  0.5277
  867MOL0     H19586   8.189   8.695   6.193 -1.3917 -0.8681  2.0263
  867MOL0     H19587   8.361   8.926   6.293  0.2923  1.3235 -1.2935
  867MOL0     H19588   8.389   8.803   6.159  1.8190  0.0849  1.0096
  867MOL0     H19589   8.395   8.756   6.444  3.4530  0.1159  0.2893
  867MOL0     H19590   8.390   8.625   6.341  0.4514  0.4204  3.4475
  867MOL0     H19591   8.625   8.839   6.346 -1.3294  0.7012 -1.2069
  867MOL0     H19592   8.599   8.734   6.206 -2.8216 -0.7645 -0.0984
  867MOL0     H19593   8.616   8.623   6.505  0.9630 -2.8480  0.8561
  867MOL0     H19594   8.630   8.530   6.356  0.8998 -0.7173  0.2913
  867MOL0     H19595   8.782   8.806   6.568  1.4206  1.9572 -0.2227
  867MOL0     H19596   9.052   8.771   6.705  1.5339 -0.7216 -0.1296
  867MOL0     H19597   9.044   8.905   6.595  2.4775  0.6722 -1.2421
  867MOL0     H19598   9.247   8.853   6.487  3.1437 -3.7020 -0.9935
  867MOL0     H19599   9.263   8.865   6.655  0.6892  1.9702 -1.0424
  867MOL0     H19600   9.212   8.596   6.654 -0.3000 -0.9763 -1.5946
  867MOL0     H19601   9.260   8.607   6.490  0.2212  0.9738 -0.3277
  867MOL0     H19602   9.478   8.706   6.528  0.9984 -0.4996 -0.2361
  867MOL0     H19603   9.436   8.738   6.694  0.3099 -3.2931  2.7661
  867MOL0     H19604   9.586   8.317   6.680  0.8070 -0.4293 -1.4864
  867MOL0     H19605   9.911   8.217   6.810 -1.7047 -1.1230  2.0129
  867MOL0     H19606   9.888   8.185   6.645 -0.8665 -0.6379  0.0222
  867MOL0     H19607   9.755   8.162   6.756  0.2773  0.8338  3.1272
  867MOL0     H19608  10.288   8.416   6.814  0.9776 -2.6544 -2.6656
  867MOL0     H19609  10.548   8.468   6.810  0.9068  1.5042 -1.1860
  867MOL0     H19610  10.703   8.490   6.665 -0.4615  0.9836  3.5713
  867MOL0     H19611  10.745   8.606   6.538  3.4861  0.3032  0.4041
  867MOL0     H19612  10.909   8.714   6.687  2.0632 -0.5314  1.5272
  867MOL0     H19613  10.831   8.614   6.820 -0.6638 -2.6347 -0.4876
  867MOL0     H19614  10.960   8.490   6.575  1.6166  1.8340 -0.3302
  867MOL0     H19615  10.927   8.414   6.732  0.5333  0.6523  0.2715
  867MOL0     H19616  11.165   8.436   6.730 -1.8162 -0.1974 -1.5506
  867MOL0     H19617  11.085   8.555   6.846 -1.4400 -0.8473  1.2326
  867MOL0     H19618  11.146   8.634   6.572 -0.4524 -0.7585  1.1708
  867MOL0     H19619  11.140   8.746   6.708 -1.3099 -0.9406  2.3089
  867MOL0     H19620  11.362   8.541   6.679  0.9119  0.0785 -1.1555
  867MOL0     H19621  11.345   8.658   6.810  2.9732  1.4025 -0.8589
  867MOL0     H19622  11.333   8.838   6.623  0.0885 -0.5197 -0.9543
  867MOL0     H19623  11.421   8.722   6.528  1.0497 -1.7303  0.0889
  867MOL0     H19624  11.579   8.862   6.638  1.6843  1.5471  2.3289
  867MOL0     H19625  11.600   8.706   6.714 -0.1960  1.2514  3.5030
  867MOL0     H19626  10.454   8.828   6.613  0.1074  2.0846  2.8654
  867MOL0     H19627  10.206   8.781   6.618  1.8058  2.2818  2.1142
  867MOL0     H19628   9.895   8.701   6.698  2.7580 -1.9524 -0.2340
  867MOL0     H19629   9.670   8.752   6.680  2.7743  1.2000 -3.6653
  867MOL0     H19630   7.989   9.288   6.076  2.1065 -2.1214 -2.5579
  867MOL0     H19631   7.919   9.446   5.910  1.1974 -0.7715  2.2796
  867MOL0     H19632   7.784   9.626   5.633  0.0133  0.3623 -2.3812
  867MOL0     H19633   7.746   9.808   5.457 -1.0227  0.8880 -1.2084
  867MOL0     H19634   7.321   9.911   5.355  2.0647 -3.3477  1.0341
  867MOL0     H19635   7.383  10.058   5.437 -1.7739  1.2264 -0.7574
  867MOL0     H19636   7.303  10.069   5.198 -1.2779 -3.2277  0.1735
  867MOL0     H19637   7.432   9.971   5.147 -1.8225 -2.5959  1.6775
  867MOL0     H19638   7.458  10.233   5.278 -0.4573 -0.6502 -0.4302
  867MOL0     H19639   7.603  10.144   5.252 -0.0894  0.6922  1.8897
  867MOL0     H19640   7.568  10.290   5.058 -0.9404  1.0303 -2.6037
  867MOL0     H19641   7.415  10.211   5.021 -0.2342 -2.0308 -0.0788
  867MOL0     H19642   7.684   9.958   4.835  1.8024 -0.3878  1.1653
  867MOL0     H19643   7.336   9.819   5.548 -0.0601 -0.2689  0.4085
  867MOL0     H19644   7.361   9.671   5.866 -0.8592 -2.5978  0.6781
  867MOL0     H19645   7.248   9.693   5.734 -1.4743 -2.0737  0.3963
  867MOL0     H19646   7.332   9.536   5.755  0.5622 -0.3527 -0.2256
  868MOL0     O19647   0.678  11.329   9.788 -0.1255 -0.7608 -0.3489
  868MOL0     C19648   0.684  11.334   9.915 -0.4814  0.1139  0.2681
  868MOL0     O19649   0.792  11.302   9.988  0.5755  0.2341 -0.3453
  868MOL0     C19650   0.908  11.277   9.919 -1.0484 -0.3294  0.9107
  868MOL0     C19651   0.969  11.378   9.844  0.1343  1.1214 -0.7123
  868MOL0     C19652   1.089  11.359   9.781 -0.0046 -0.0157  0.1247
  868MOL0     C19653   1.168  11.241   9.807  0.2397 -0.1924 -0.0444
  868MOL0     O19654   1.286  11.209   9.749  0.3071 -0.2193  0.1244
  868MOL0     C19655   1.342  11.314   9.665  0.0656  0.2712  0.4270
  868MOL0     C19656   1.484  11.285   9.615  0.0983 -0.1487 -0.2692
  868MOL0     C19657   1.592  11.267   9.716  0.4363  0.0141  0.2594
  868MOL0     C19658   1.726  11.214   9.657 -0.3002 -0.0031  0.5504
  868MOL0     C19659   1.828  11.192   9.768 -0.0430  0.1846 -0.6834
  868MOL0     C19660   1.907  11.310   9.822  0.0252 -0.9155  0.3073
  868MOL0     C19661   2.017  11.264   9.922 -0.2051  0.4982  0.1437
  868MOL0     C19662   2.145  11.205   9.854 -0.1912 -0.1354  0.1077
  868MOL0     N19663   2.276  11.238   9.912 -1.0098 -0.2183 -0.7202
  868MOL0     C19664   2.319  11.232  10.051  1.1141 -0.4340  0.6679
  868MOL0     C19665   2.446  11.290  10.043  0.4120  0.6230 -0.2316
  868MOL0     C19666   2.536  11.296  10.156 -0.2341  0.9675 -0.4115
  868MOL0     C19667   2.623  11.420  10.165 -0.7937  0.1516 -0.3994
  868MOL0     C19668   2.720  11.414  10.281 -0.1820 -0.3984  0.2653
  868MOL0     C19669   2.827  11.523  10.263 -0.4626 -0.5610  0.3196
  868MOL0     O19670   2.929  11.503  10.365 -0.5680 -0.4375 -0.2172
  868MOL0     C19671   3.022  11.600  10.382  0.8427 -0.1498  0.2776
  868MOL0     C19672   3.118  11.586  10.482 -0.5989  0.1897 -0.2148
  868MOL0     C19673   3.231  11.666  10.498 -0.2987 -0.4825  0.1989
  868MOL0     C19674   3.329  11.654  10.617 -0.0210  0.5145 -0.1792
  868MOL0     C19675   3.245  11.770  10.405 -0.9707 -0.8360 -0.0764
  868MOL0     C19676   3.345  11.882  10.414  0.8305 -0.3243 -0.0135
  868MOL0     O19677   3.368  11.938  10.292  0.0746 -0.0211  0.3011
  868MOL0     C19678   3.416  12.069  10.294 -0.5892 -0.0209  0.3400
  868MOL0     C19679   3.510  12.101  10.199 -0.2773 -0.0201  0.8028
  868MOL0     C19680   3.577  12.226  10.204 -0.2335  0.1118 -0.5659
  868MOL0     C19681   3.539  12.321  10.301  0.5256  0.2786  0.0835
  868MOL0     O19682   3.586  12.447  10.316  0.4406  0.4279 -0.4427
  868MOL0     C19683   3.725  12.460  10.279  0.1977  0.9406 -0.5658
  868MOL0     C19684   3.791  12.564  10.363  0.3956 -0.7571  0.3705
  868MOL0     C19685   3.775  12.528  10.517  0.2253  1.0153  0.6472
  868MOL0     C19686   3.825  12.648  10.607 -0.0742  0.0558  0.5489
  868MOL0     C19687   3.974  12.659  10.604 -0.5208  0.1672  0.2465
  868MOL0     C19688   4.028  12.751  10.714  0.3742  0.0337  0.1503
  868MOL0     C19689   3.975  12.896  10.723  0.3236 -0.1472 -0.0589
  868MOL0     C19690   4.081  12.988  10.655 -0.2459  0.4565  0.3293
  868MOL0    Cl19691   4.030  13.160  10.685 -0.3916 -0.0488  0.7016
  868MOL0     C19692   3.445  12.279  10.397  0.4264 -0.2627 -0.3132
  868MOL0     C19693   3.382  12.159  10.391  0.4576 -0.3010 -0.3469
  868MOL0     O19694   3.412  11.896  10.513  0.2686  0.9417 -0.7171
  868MOL0     C19695   3.146  11.788  10.308  0.3597 -0.8228  0.2764
  868MOL0     C19696   3.032  11.708  10.300 -0.1776  0.3136 -0.1193
  868MOL0     N19697   2.474  11.314   9.911  0.5282 -0.6957  0.4436
  868MOL0     N19698   2.375  11.283   9.836 -0.5038 -0.0427  0.3822
  868MOL0     C19699   1.110  11.143   9.885 -0.0652 -0.3259  0.4942
  868MOL0     C19700   0.984  11.157   9.940 -0.1170 -0.6395  0.1635
  868MOL0     C19701   0.553  11.342   9.980 -0.0795  0.5755 -0.4249
  868MOL0     C19702   0.541  11.291  10.114 -0.3548 -0.6226 -0.1341
  868MOL0     C19703   0.420  11.306  10.180 -0.2326  0.5699 -0.5486
  868MOL0     C19704   0.309  11.374  10.133 -0.1226  0.1916  0.5514
  868MOL0     O19705   0.186  11.384  10.191 -0.2561  0.5984 -0.4901
  868MOL0     C19706   0.181  11.388  10.330  0.4831  0.7850 -0.9376
  868MOL0     C19707   0.047  11.457  10.374 -0.3276  0.3557  0.2658
  868MOL0     C19708   0.027  11.597  10.302 -0.5074  0.4808  0.7064
  868MOL0     C19709  -0.097  11.668  10.373  0.0345 -0.3602  0.4214
  868MOL0     C19710  -0.230  11.611  10.357  0.8235 -0.6630  0.2511
  868MOL0     C19711  -0.331  11.548  10.339 -0.4053 -0.2412 -0.8265
  868MOL0     C19712   0.326  11.432  10.004 -0.2643 -0.1139  0.4169
  868MOL0     C19713   0.441  11.416   9.924 -1.0605 -0.0104  0.4389
  868MOL0     C19714   0.424  11.460   9.782  0.1327 -0.9538 -0.9559
  868MOL0     H19715   0.914  11.472   9.843  0.2737  1.3066  1.6248
  868MOL0     H19716   1.116  11.427   9.700  0.1274 -1.4391 -1.0701
  868MOL0     H19717   1.367  11.409   9.713  0.3291  2.0809 -2.9751
  868MOL0     H19718   1.272  11.325   9.582  0.2444 -1.3501  0.0277
  868MOL0     H19719   1.471  11.188   9.567 -4.0402  0.4418 -0.6899
  868MOL0     H19720   1.514  11.364   9.546 -1.3588  1.9443  1.3265
  868MOL0     H19721   1.610  11.371   9.744  0.5495 -0.2828  1.3042
  868MOL0     H19722   1.561  11.224   9.811  0.1084 -1.5353 -0.5074
  868MOL0     H19723   1.707  11.121   9.602  0.7759  1.8709 -3.4323
  868MOL0     H19724   1.758  11.287   9.582 -0.1167  0.0085  0.6385
  868MOL0     H19725   1.913  11.140   9.723  0.0029  0.6305 -1.1196
  868MOL0     H19726   1.780  11.130   9.843  0.8398  0.4990  0.1591
  868MOL0     H19727   1.947  11.368   9.739 -2.2374 -0.8317 -0.8121
  868MOL0     H19728   1.840  11.378   9.875  0.6345  0.1240 -0.2260
  868MOL0     H19729   1.981  11.197  10.001  1.9790 -0.6774  0.2259
  868MOL0     H19730   2.051  11.355   9.972 -0.4247 -0.2730  1.7670
  868MOL0     H19731   2.135  11.096   9.848  1.8925 -0.2845 -2.2376
  868MOL0     H19732   2.147  11.237   9.750  0.6232 -0.1164  0.1216
  868MOL0     H19733   2.273  11.182  10.135  1.8597  0.3570  1.5635
  868MOL0     H19734   2.593  11.202  10.150 -3.0376 -0.8048 -1.4610
  868MOL0     H19735   2.483  11.286  10.251  0.8377 -1.5456  0.0130
  868MOL0     H19736   2.681  11.439  10.075 -3.0678 -0.5604 -2.1014
  868MOL0     H19737   2.560  11.505  10.191 -0.0090  0.9884 -1.1858
  868MOL0     H19738   2.667  11.430  10.375 -0.2672 -3.2568  0.7866
  868MOL0     H19739   2.775  11.322  10.299  2.6475  1.1276  0.0303
  868MOL0     H19740   2.880  11.507  10.169  0.5107  1.1346  0.5454
  868MOL0     H19741   2.778  11.620  10.270 -0.2764 -0.5841  2.7818
  868MOL0     H19742   3.110  11.499  10.546 -2.0448 -0.1477 -0.8168
  868MOL0     H19743   3.433  11.625  10.602 -0.0519 -0.8636  1.7696
  868MOL0     H19744   3.295  11.563  10.668 -0.0340  0.3434 -0.4950
  868MOL0     H19745   3.326  11.738  10.687  2.6105  0.1163  0.5040
  868MOL0     H19746   3.538  12.023  10.128 -0.4894  0.7016 -0.0999
  868MOL0     H19747   3.659  12.238  10.134  0.7278 -3.0760 -0.1175
  868MOL0     H19748   3.783  12.369  10.298 -0.0119  0.7769 -0.7090
  868MOL0     H19749   3.726  12.475  10.171 -2.4663 -1.5600 -1.0625
  868MOL0     H19750   3.896  12.569  10.333 -0.0245  1.2946 -0.9382
  868MOL0     H19751   3.757  12.664  10.336  1.5037 -0.3426  0.4397
  868MOL0     H19752   3.829  12.434  10.530 -0.8102  0.1283 -1.0219
  868MOL0     H19753   3.669  12.516  10.540 -0.0097  0.4897 -0.6282
  868MOL0     H19754   3.787  12.627  10.707 -1.1175 -2.2284 -0.2784
  868MOL0     H19755   3.772  12.740  10.579 -2.7904 -2.0778 -2.0418
  868MOL0     H19756   4.020  12.564  10.634  2.2143  1.7345  1.3355
  868MOL0     H19757   4.014  12.695  10.508  3.0883 -0.4486  1.3638
  868MOL0     H19758   4.136  12.766  10.702  0.1265  0.0787 -2.6198
  868MOL0     H19759   4.008  12.700  10.809 -1.5544 -3.0174 -1.7198
  868MOL0     H19760   3.957  12.915  10.829  2.1581  0.0724  0.2546
  868MOL0     H19761   3.880  12.907  10.669 -1.1191  0.4614  2.4708
  868MOL0     H19762   4.089  12.972  10.548  1.3706  1.1314  0.3198
  868MOL0     H19763   4.175  12.978  10.710 -0.2366  2.0679  0.6592
  868MOL0     H19764   3.432  12.353  10.476  3.1080  0.0370 -0.0365
  868MOL0     H19765   3.312  12.135  10.471 -0.7706 -0.2091 -1.3493
  868MOL0     H19766   3.152  11.862  10.228 -1.4624  1.0785  1.7938
  868MOL0     H19767   2.960  11.735  10.223 -0.0224 -1.4833 -0.9181
  868MOL0     H19768   1.165  11.050   9.889  1.9854  0.7632 -0.7677
  868MOL0     H19769   0.949  11.073   9.999 -0.9047 -2.8751 -3.2067
  868MOL0     H19770   0.617  11.224  10.153 -1.9485 -0.6416  3.2859
  868MOL0     H19771   0.426  11.259  10.278 -2.3484  2.6400  0.6687
  868MOL0     H19772   0.197  11.292  10.379  1.6094  0.5071 -1.7948
  868MOL0     H19773   0.268  11.450  10.355 -0.0373  0.9783  0.4971
  868MOL0     H19774   0.049  11.480  10.481 -0.4898 -0.8044  0.5288
  868MOL0     H19775  -0.039  11.390  10.360  1.0973 -1.3272 -0.9990
  868MOL0     H19776   0.117  11.656  10.320  1.0585 -2.3926  3.3445
  868MOL0     H19777   0.015  11.591  10.193  3.2669 -0.4282  0.1779
  868MOL0     H19778  -0.091  11.766  10.325 -0.1447  0.2009  1.5170
  868MOL0     H19779  -0.072  11.677  10.479 -1.2087  0.7116  0.6356
  868MOL0     H19780  -0.430  11.511  10.325 -1.0416  1.7800 -1.9174
  868MOL0     H19781   0.232  11.456   9.957 -0.2060 -0.1843  0.2636
  868MOL0     H19782   0.482  11.552   9.770  0.2885 -0.8693  0.3306
  868MOL0     H19783   0.454  11.382   9.712 -0.3992 -0.3902 -1.8415
  868MOL0     H19784   0.320  11.485   9.758  0.2988 -0.9169 -1.6631
  869MOL0     O19785   3.639   7.960   9.139 -0.6247 -0.0977 -0.5330
  869MOL0     C19786   3.604   7.916   9.027  0.4636 -0.1547 -0.6069
  869MOL0     O19787   3.676   7.926   8.913  0.0707  0.3537 -0.9191
  869MOL0     C19788   3.808   7.965   8.927 -0.3538  0.2756 -0.6182
  869MOL0     C19789   3.842   8.096   8.982  0.7396  0.6880  0.1310
  869MOL0     C19790   3.977   8.129   9.004 -0.0669  0.1758 -0.0767
  869MOL0     C19791   4.077   8.045   8.951 -0.9919 -1.2250 -1.0167
  869MOL0     O19792   4.205   8.075   8.985  0.4340  0.4244 -0.2196
  869MOL0     C19793   4.284   7.966   9.036 -0.1406  0.1571  0.3484
  869MOL0     C19794   4.337   8.023   9.175  0.6457 -0.6934 -0.4389
  869MOL0     C19795   4.382   8.173   9.168  0.2563  0.0526 -0.3668
  869MOL0     C19796   4.455   8.229   9.290 -0.3059  0.8475 -0.5247
  869MOL0     C19797   4.506   8.369   9.265  0.8294  0.4690  0.1911
  869MOL0     C19798   4.577   8.418   9.388 -0.2514  0.7651 -0.3755
  869MOL0     C19799   4.621   8.566   9.392  0.3468  0.4858  0.1336
  869MOL0     C19800   4.713   8.607   9.277 -0.4260 -0.1351  0.6064
  869MOL0     N19801   4.843   8.545   9.285 -1.1145 -0.5379 -0.2855
  869MOL0     C19802   4.892   8.452   9.191 -0.6596 -0.0929 -0.0260
  869MOL0     C19803   5.026   8.456   9.212  1.2317  0.1904 -0.1032
  869MOL0     C19804   5.139   8.375   9.146 -0.1913 -0.2205 -0.4202
  869MOL0     C19805   5.278   8.405   9.211  0.1717 -0.3614  0.4427
  869MOL0     C19806   5.284   8.358   9.354 -0.0488  0.4829 -0.2200
  869MOL0     C19807   5.411   8.395   9.430  0.4545 -0.4054  0.0886
  869MOL0     O19808   5.504   8.295   9.385 -0.8507 -0.0751  0.1455
  869MOL0     C19809   5.619   8.288   9.454  0.1200  0.3526 -0.3005
  869MOL0     C19810   5.656   8.173   9.534 -0.3307 -0.0319  0.0912
  869MOL0     C19811   5.779   8.154   9.603 -0.3317 -0.3653  0.0777
  869MOL0     C19812   5.798   8.022   9.670  0.8867 -1.0145 -0.1935
  869MOL0     C19813   5.880   8.258   9.588 -0.5404  0.0966 -0.1611
  869MOL0     C19814   6.022   8.242   9.645  0.4122 -0.0887  0.4478
  869MOL0     O19815   6.126   8.283   9.565 -0.2129 -0.4105 -0.2047
  869MOL0     C19816   6.248   8.292   9.620 -0.8458 -0.0190 -0.7044
  869MOL0     C19817   6.293   8.419   9.667  0.0974 -0.1016  0.0134
  869MOL0     C19818   6.403   8.425   9.753  0.1408  0.0123 -0.1892
  869MOL0     C19819   6.475   8.305   9.778 -0.2691  0.3841  0.1252
  869MOL0     O19820   6.593   8.298   9.848  0.6574 -0.2125 -0.7095
  869MOL0     C19821   6.586   8.331   9.994 -1.1906 -0.0975  0.1245
  869MOL0     C19822   6.721   8.310  10.063  0.2814 -0.3140 -0.0766
  869MOL0     C19823   6.825   8.427  10.038 -0.0793 -0.1937  0.3932
  869MOL0     C19824   6.771   8.556  10.090 -1.0241 -0.3815  0.2739
  869MOL0     C19825   6.890   8.643  10.082  0.1840 -0.3041  0.2817
  869MOL0     C19826   6.879   8.786  10.141 -0.3941  0.5987  0.0845
  869MOL0     C19827   7.016   8.865  10.112 -1.1604  0.2979  0.1084
  869MOL0     C19828   7.072   8.920  10.242  0.3719 -0.0046 -0.1736
  869MOL0    Cl19829   6.981   9.059  10.311  0.2737 -0.3688  0.7087
  869MOL0     C19830   6.440   8.190   9.710  0.0599 -0.1669 -1.2548
  869MOL0     C19831   6.325   8.177   9.632 -0.6970 -0.2379 -0.4401
  869MOL0     O19832   6.032   8.187   9.750  0.0093  0.1032 -0.2900
  869MOL0     C19833   5.848   8.374   9.507  0.3683 -0.2469  0.1692
  869MOL0     C19834   5.721   8.386   9.441  0.0248 -0.0074  0.7634
  869MOL0     N19835   5.052   8.547   9.312 -0.0802  0.2836 -0.5508
  869MOL0     N19836   4.945   8.591   9.356 -0.4662  0.3774 -0.4051
  869MOL0     C19837   4.044   7.935   8.875 -0.2326  0.3454  0.4552
  869MOL0     C19838   3.914   7.881   8.872  1.0526  0.1735 -0.0185
  869MOL0     C19839   3.472   7.851   9.024 -0.5620 -0.3918 -0.3913
  869MOL0     C19840   3.375   7.866   9.130  0.9252 -0.2348  0.3045
  869MOL0     C19841   3.243   7.821   9.125  0.6619  0.8079  0.4044
  869MOL0     C19842   3.210   7.744   9.011  0.2416 -0.7283 -0.1014
  869MOL0     O19843   3.090   7.690   8.975 -0.4875  0.1498 -0.1317
  869MOL0     C19844   2.975   7.773   9.019 -0.3279  0.4894 -0.3128
  869MOL0     C19845   2.860   7.737   8.924  0.0497 -0.5668  0.5168
  869MOL0     C19846   2.747   7.826   8.954  0.8357 -1.3799  0.2561
  869MOL0     C19847   2.625   7.808   8.852  0.6998 -0.0248 -0.2207
  869MOL0     C19848   2.648   7.857   8.715  1.2708 -0.2676  0.7866
  869MOL0     C19849   2.674   7.906   8.607 -0.0428 -0.3529 -0.5458
  869MOL0     C19850   3.311   7.714   8.914  0.8610  0.2852  0.4266
  869MOL0     C19851   3.432   7.772   8.910  0.5248  0.4618  0.3824
  869MOL0     C19852   3.516   7.748   8.795 -0.1358  0.7484  0.2232
  869MOL0     H19853   3.757   8.156   9.015 -0.2298  0.2741 -1.4951
  869MOL0     H19854   4.004   8.218   9.059  1.1091 -0.6242  0.7119
  869MOL0     H19855   4.370   7.943   8.971 -0.1904  2.7161 -0.7570
  869MOL0     H19856   4.229   7.874   9.060 -1.0870  0.9052  1.0842
  869MOL0     H19857   4.255   8.024   9.247 -1.6975 -3.7987 -2.8228
  869MOL0     H19858   4.420   7.964   9.215  2.4034  1.5269 -0.6184
  869MOL0     H19859   4.447   8.176   9.080  0.7462 -3.2479 -0.2201
  869MOL0     H19860   4.300   8.242   9.150  1.0253  0.9955 -0.3679
  869MOL0     H19861   4.393   8.237   9.381  0.1690  0.6578 -0.1856
  869MOL0     H19862   4.547   8.178   9.317  0.8834  4.6025  3.7779
  869MOL0     H19863   4.413   8.423   9.244 -1.1453 -3.3394 -1.8158
  869MOL0     H19864   4.563   8.370   9.172  0.2139 -1.2330 -0.2345
  869MOL0     H19865   4.505   8.392   9.467  0.6080 -1.7599 -0.3283
  869MOL0     H19866   4.665   8.356   9.405 -1.0867 -0.0761  1.1203
  869MOL0     H19867   4.682   8.582   9.481  2.9334  1.9084 -1.7732
  869MOL0     H19868   4.530   8.626   9.389 -1.2625 -1.7948  0.6864
  869MOL0     H19869   4.674   8.582   9.178 -1.0455 -1.2383  1.1162
  869MOL0     H19870   4.723   8.715   9.288 -0.0662 -0.3296  2.5993
  869MOL0     H19871   4.835   8.393   9.120 -2.9448 -0.6993  2.1753
  869MOL0     H19872   5.137   8.397   9.039 -2.8545  2.6261  0.0647
  869MOL0     H19873   5.111   8.271   9.166 -0.0610  0.1323  1.9575
  869MOL0     H19874   5.351   8.345   9.157  0.0569  0.0803 -0.2093
  869MOL0     H19875   5.301   8.512   9.200  1.1935 -0.5583  0.5927
  869MOL0     H19876   5.189   8.386   9.401 -1.0057 -0.8039 -1.3168
  869MOL0     H19877   5.294   8.249   9.351  1.2400  0.6007 -1.1616
  869MOL0     H19878   5.442   8.496   9.402 -0.1877 -0.5421 -1.1678
  869MOL0     H19879   5.396   8.384   9.537  0.3580  0.1328  0.1290
  869MOL0     H19880   5.586   8.091   9.546 -1.2358  0.8146  0.6580
  869MOL0     H19881   5.753   8.037   9.768  2.5834  0.5631  0.4121
  869MOL0     H19882   5.904   7.993   9.672  1.6071  1.3545  0.3530
  869MOL0     H19883   5.746   7.946   9.612 -0.6987  0.2793 -0.5435
  869MOL0     H19884   6.238   8.510   9.649 -0.3087 -0.2189  0.6433
  869MOL0     H19885   6.425   8.525   9.790  2.8924 -0.7523  0.4401
  869MOL0     H19886   6.549   8.433  10.012 -1.6532 -0.1412 -0.5139
  869MOL0     H19887   6.513   8.265  10.042 -0.2523 -0.4576  1.0739
  869MOL0     H19888   6.710   8.304  10.172  2.2533  0.4319  0.2038
  869MOL0     H19889   6.762   8.214  10.030  0.0745 -1.3489  2.4741
  869MOL0     H19890   6.856   8.437   9.933 -1.2473  0.2144  0.0642
  869MOL0     H19891   6.914   8.394  10.092  0.2344 -0.9701 -0.5500
  869MOL0     H19892   6.761   8.551  10.198  2.2231  0.4262  0.7193
  869MOL0     H19893   6.687   8.602  10.037  0.3333  0.7546 -1.0002
  869MOL0     H19894   6.982   8.598  10.121 -0.1172 -2.1274 -1.0261
  869MOL0     H19895   6.914   8.652   9.976 -0.5075  2.9060  0.2890
  869MOL0     H19896   6.855   8.774  10.247 -0.4591  0.1008  0.0152
  869MOL0     H19897   6.795   8.843  10.101 -1.6333 -0.9774  0.3504
  869MOL0     H19898   7.003   8.940  10.033 -1.7741 -0.9264 -0.9896
  869MOL0     H19899   7.096   8.805  10.069 -1.2265  0.3974 -0.1592
  869MOL0     H19900   7.172   8.958  10.218  0.9548 -1.7879 -0.7535
  869MOL0     H19901   7.083   8.843  10.319 -0.0131  0.4422  0.3354
  869MOL0     H19902   6.513   8.110   9.718  0.5383  0.4376  2.8681
  869MOL0     H19903   6.290   8.089   9.579  0.6837 -1.0901 -0.0169
  869MOL0     H19904   5.925   8.450   9.503 -0.9403  1.1503  0.5146
  869MOL0     H19905   5.698   8.470   9.376  1.2475  1.5874  2.2792
  869MOL0     H19906   4.124   7.886   8.821 -2.6212 -1.2929 -1.8422
  869MOL0     H19907   3.872   7.793   8.825  0.1742  1.1610 -1.1400
  869MOL0     H19908   3.391   7.930   9.217  1.0514  1.7604 -1.1269
  869MOL0     H19909   3.160   7.849   9.189 -0.2515  0.5175 -0.6171
  869MOL0     H19910   2.956   7.735   9.120  0.8375 -0.7050 -0.5066
  869MOL0     H19911   2.990   7.881   9.021 -0.8836  0.6349 -1.8979
  869MOL0     H19912   2.829   7.634   8.947  2.9954 -2.0972 -1.6181
  869MOL0     H19913   2.891   7.739   8.819  1.0848  0.3024  0.8192
  869MOL0     H19914   2.716   7.798   9.055  1.4763 -2.0212  0.2838
  869MOL0     H19915   2.779   7.930   8.960  0.5083 -1.0426 -2.5330
  869MOL0     H19916   2.535   7.858   8.889 -0.2632  0.4341 -2.9793
  869MOL0     H19917   2.613   7.699   8.849 -3.4440  0.2392  0.8585
  869MOL0     H19918   2.711   7.962   8.524  0.4580  1.7653  1.0090
  869MOL0     H19919   3.271   7.644   8.841 -1.4570  2.0651 -0.1289
  869MOL0     H19920   3.476   7.677   8.722  3.0849 -0.4537 -0.5190
  869MOL0     H19921   3.524   7.841   8.739  1.1790 -0.7655 -2.2732
  869MOL0     H19922   3.619   7.725   8.822 -0.4895  0.4863  1.4601
  870MOL0     O19923   2.442   4.151   9.076 -0.0112  0.1263  0.0149
  870MOL0     C19924   2.331   4.174   9.120  0.7548  0.0066  0.5047
  870MOL0     O19925   2.308   4.245   9.241 -0.2426  0.0772 -0.0396
  870MOL0     C19926   2.402   4.342   9.275  0.2192 -0.3409 -0.0864
  870MOL0     C19927   2.387   4.469   9.215 -0.1380 -0.1587 -0.0200
  870MOL0     C19928   2.487   4.572   9.231  0.9888  0.9004 -0.3598
  870MOL0     C19929   2.599   4.545   9.312 -0.1187 -0.4919  0.1159
  870MOL0     O19930   2.697   4.642   9.334 -0.2824 -0.7200 -0.6724
  870MOL0     C19931   2.746   4.717   9.226 -0.7657  0.0191 -0.3194
  870MOL0     C19932   2.865   4.804   9.262 -0.0596 -0.0490  0.0444
  870MOL0     C19933   2.920   4.897   9.148  0.7812 -0.0523  0.4065
  870MOL0     C19934   3.054   4.956   9.164 -0.6552  1.7223 -1.0433
  870MOL0     C19935   3.168   4.861   9.154 -0.9243  0.3271  0.3044
  870MOL0     C19936   3.302   4.935   9.168  0.4178  0.2617 -0.1121
  870MOL0     C19937   3.411   4.841   9.136 -0.8057  0.1680 -0.1210
  870MOL0     C19938   3.535   4.915   9.088 -0.2520 -0.7202  0.0129
  870MOL0     N19939   3.664   4.844   9.083  1.0382  0.5472  0.0381
  870MOL0     C19940   3.746   4.825   9.189 -0.9355  0.0131 -0.9092
  870MOL0     C19941   3.837   4.734   9.141 -0.0450  0.9299  0.6215
  870MOL0     C19942   3.949   4.669   9.218 -0.3081  1.4706 -0.1420
  870MOL0     C19943   4.078   4.732   9.176  0.3356 -0.4904 -0.4822
  870MOL0     C19944   4.203   4.677   9.262  0.3749  0.7972 -0.2928
  870MOL0     C19945   4.331   4.652   9.188  0.2310  0.1348  0.1670
  870MOL0     O19946   4.417   4.569   9.267 -0.4864 -0.0119  0.9763
  870MOL0     C19947   4.554   4.596   9.252  0.2871 -0.7476  0.4350
  870MOL0     C19948   4.610   4.715   9.307  0.7130  1.0062  0.1529
  870MOL0     C19949   4.739   4.750   9.284  0.3148  0.3139 -0.2301
  870MOL0     C19950   4.774   4.887   9.341  0.1396  0.2012  0.2699
  870MOL0     C19951   4.829   4.664   9.218  0.1953 -0.5051  1.0118
  870MOL0     C19952   4.960   4.700   9.161  0.9159  0.2847 -0.9134
  870MOL0     O19953   5.052   4.603   9.145 -0.0139  0.5128 -0.0792
  870MOL0     C19954   5.167   4.615   9.077 -0.5362 -0.3504  0.0357
  870MOL0     C19955   5.259   4.507   9.101  0.9933  0.1872  0.2208
  870MOL0     C19956   5.386   4.507   9.051 -0.1700 -0.2194 -0.1356
  870MOL0     C19957   5.423   4.600   8.955 -0.2058 -0.5019  0.7167
  870MOL0     O19958   5.551   4.604   8.901  0.3439 -0.0952 -0.2995
  870MOL0     C19959   5.645   4.506   8.948 -0.2406 -0.2591  0.2132
  870MOL0     C19960   5.778   4.537   8.884  0.6550 -0.2966 -0.1758
  870MOL0     C19961   5.844   4.427   8.816  0.1787 -0.2520 -0.2792
  870MOL0     C19962   5.951   4.475   8.713  1.0428 -0.4342 -0.1086
  870MOL0     C19963   6.042   4.366   8.655 -0.1603 -0.2346  1.0877
  870MOL0     C19964   5.963   4.268   8.565 -0.4304 -0.0105 -0.6264
  870MOL0     C19965   6.044   4.158   8.505  0.1596 -0.2380  0.5422
  870MOL0     C19966   5.962   4.099   8.385 -0.2389 -0.2890  0.3788
  870MOL0    Cl19967   5.803   4.022   8.436 -0.0802 -0.2204 -0.1042
  870MOL0     C19968   5.334   4.703   8.921  0.4828 -0.0364 -0.7739
  870MOL0     C19969   5.213   4.719   8.990  1.3120  0.2241  0.2717
  870MOL0     O19970   4.969   4.816   9.128 -0.4415  0.2485  0.3416
  870MOL0     C19971   4.774   4.543   9.170  0.0875 -0.0340 -0.8598
  870MOL0     C19972   4.645   4.503   9.193 -0.4433  0.9063 -0.4462
  870MOL0     N19973   3.814   4.725   9.003 -0.1017 -0.7059 -0.5401
  870MOL0     N19974   3.711   4.794   8.965 -0.5061  0.2586 -0.7232
  870MOL0     C19975   2.612   4.420   9.366  0.0312  0.4029  0.5889
  870MOL0     C19976   2.522   4.315   9.346 -0.3194 -0.3970 -0.3752
  870MOL0     C19977   2.213   4.130   9.038  0.4847  0.4208  0.1569
  870MOL0     C19978   2.086   4.134   9.093 -0.4563 -0.3534 -0.4315
  870MOL0     C19979   1.981   4.085   9.021 -0.0527  0.1651 -0.0107
  870MOL0     C19980   1.990   4.048   8.890 -0.0525 -0.0565 -0.4682
  870MOL0     O19981   1.872   4.003   8.837 -0.3302 -0.0704 -0.1852
  870MOL0     C19982   1.892   3.927   8.719  0.2311 -0.2158  0.0954
  870MOL0     C19983   1.753   3.882   8.669 -0.6327 -0.3142  0.4811
  870MOL0     C19984   1.704   3.753   8.745  0.2730  0.2356  0.4900
  870MOL0     C19985   1.622   3.659   8.655 -0.1444  0.1776  0.0138
  870MOL0     C19986   1.683   3.596   8.533  0.1646  0.0512 -0.2863
  870MOL0     C19987   1.726   3.555   8.423 -0.6994  0.0802  0.0815
  870MOL0     C19988   2.107   4.066   8.821 -0.7637 -0.8055 -0.2690
  870MOL0     C19989   2.220   4.109   8.896  0.8908  0.0633 -0.1501
  870MOL0     C19990   2.345   4.125   8.813  0.3334  0.1444 -0.6316
  870MOL0     H19991   2.298   4.492   9.157 -0.8981 -0.9660  0.7987
  870MOL0     H19992   2.468   4.673   9.197 -2.6333 -0.7754 -4.1421
  870MOL0     H19993   2.664   4.783   9.196 -0.8437  1.0353  1.9034
  870MOL0     H19994   2.789   4.649   9.152  1.9307 -0.5483  1.5943
  870MOL0     H19995   2.833   4.867   9.345  0.4576 -1.6051  1.4793
  870MOL0     H19996   2.942   4.739   9.304 -2.5313 -2.6227  0.9199
  870MOL0     H19997   2.905   4.844   9.054  2.7401 -1.4583  0.8487
  870MOL0     H19998   2.848   4.980   9.154  0.5014 -0.3384  1.0386
  870MOL0     H19999   3.061   5.024   9.079  0.1755  0.1520 -2.2867
  870MOL0     H20000   3.050   5.012   9.259  1.1952 -0.5367  0.4740
  870MOL0     H20001   3.156   4.799   9.065  0.2944  0.2425  0.1874
  870MOL0     H20002   3.152   4.789   9.235 -2.5495  1.5620  1.1619
  870MOL0     H20003   3.305   5.013   9.091 -1.4086  1.0384  0.5765
  870MOL0     H20004   3.315   4.990   9.261  2.1960 -0.2221 -0.0243
  870MOL0     H20005   3.381   4.770   9.058 -0.0527  0.6976 -0.9177
  870MOL0     H20006   3.438   4.790   9.229  0.2701  0.4248 -0.2795
  870MOL0     H20007   3.513   4.957   8.989  2.2374  0.6858 -0.0482
  870MOL0     H20008   3.542   5.011   9.142 -2.4864  0.7200 -2.0541
  870MOL0     H20009   3.734   4.852   9.293  0.6327 -1.8307 -0.2071
  870MOL0     H20010   3.953   4.561   9.207 -0.4144  1.5687 -1.2051
  870MOL0     H20011   3.938   4.696   9.324 -0.3629  0.6720  0.0623
  870MOL0     H20012   4.090   4.722   9.068  2.6340  0.3985 -0.3710
  870MOL0     H20013   4.072   4.840   9.191  0.7313 -0.5612  0.2424
  870MOL0     H20014   4.221   4.757   9.334 -4.3533  0.6602  1.3854
  870MOL0     H20015   4.176   4.590   9.321 -0.8868  2.4588  1.7097
  870MOL0     H20016   4.322   4.613   9.086  3.6335  1.4852 -0.8080
  870MOL0     H20017   4.380   4.749   9.177 -0.3235  0.2808 -1.1509
  870MOL0     H20018   4.548   4.771   9.376 -0.4411  0.0235 -0.0460
  870MOL0     H20019   4.726   4.968   9.285 -0.5362  1.6768  2.8199
  870MOL0     H20020   4.881   4.908   9.348  0.3812  0.1686 -2.3570
  870MOL0     H20021   4.741   4.906   9.444 -0.1376  2.6597 -0.2111
  870MOL0     H20022   5.227   4.426   9.164  1.9205  0.7622  1.4750
  870MOL0     H20023   5.452   4.426   9.080  0.6053  0.8270  1.1114
  870MOL0     H20024   5.662   4.516   9.056  0.4404  0.6159  0.0385
  870MOL0     H20025   5.619   4.403   8.923  3.0803 -1.2032  0.1772
  870MOL0     H20026   5.762   4.622   8.817  0.2451 -0.6580 -0.5430
  870MOL0     H20027   5.841   4.570   8.967 -1.1832 -0.6583  1.4588
  870MOL0     H20028   5.774   4.354   8.775  1.7238 -1.7426 -0.3695
  870MOL0     H20029   5.893   4.368   8.894 -1.6735 -0.5236  0.7243
  870MOL0     H20030   5.999   4.562   8.758 -0.5151  0.6308 -0.4022
  870MOL0     H20031   5.889   4.512   8.630  2.8817  0.2880 -1.2216
  870MOL0     H20032   6.127   4.402   8.596  2.5775 -3.0379  3.0144
  870MOL0     H20033   6.083   4.299   8.730 -1.5856  0.6157  2.7161
  870MOL0     H20034   5.914   4.335   8.494  0.2209  1.6390  0.3991
  870MOL0     H20035   5.886   4.223   8.629  0.8810  1.8458  2.5213
  870MOL0     H20036   6.058   4.079   8.579 -1.1617  1.6940  2.9884
  870MOL0     H20037   6.135   4.194   8.456 -0.2474 -1.3477 -1.1151
  870MOL0     H20038   6.027   4.025   8.337  0.4007  1.0893 -0.9888
  870MOL0     H20039   5.944   4.178   8.311  1.3935 -1.2623 -1.1635
  870MOL0     H20040   5.379   4.772   8.849  2.9134 -0.0333  0.6416
  870MOL0     H20041   5.151   4.805   8.965 -0.4209 -1.0029  0.2018
  870MOL0     H20042   4.837   4.475   9.114  0.0072 -0.3202 -0.6036
  870MOL0     H20043   4.602   4.408   9.164 -3.4313  1.8459  0.5558
  870MOL0     H20044   2.702   4.410   9.426  0.7506  2.8641  0.0239
  870MOL0     H20045   2.532   4.214   9.382 -5.0267 -1.3293 -1.1231
  870MOL0     H20046   2.066   4.153   9.198 -1.2633  0.7042 -0.7459
  870MOL0     H20047   1.889   4.071   9.077 -0.3186  1.1803 -0.1673
  870MOL0     H20048   1.928   3.992   8.639 -1.7089  0.8368  0.0193
  870MOL0     H20049   1.961   3.845   8.740  0.7402  0.1094 -0.2877
  870MOL0     H20050   1.770   3.865   8.562 -0.9434 -1.3901  0.5904
  870MOL0     H20051   1.687   3.966   8.690  3.3485  2.7871  1.8051
  870MOL0     H20052   1.795   3.703   8.779  0.3409 -0.8940 -1.2401
  870MOL0     H20053   1.646   3.778   8.835  0.4825  2.3103  0.1069
  870MOL0     H20054   1.533   3.717   8.629 -2.2019 -1.9754  1.7360
  870MOL0     H20055   1.597   3.583   8.729 -1.4086  1.9710  1.5025
  870MOL0     H20056   1.754   3.512   8.329  0.1696  0.9843 -0.0841
  870MOL0     H20057   2.124   4.042   8.717  1.0467 -0.6286 -0.0439
  870MOL0     H20058   2.416   4.056   8.858 -0.5844  0.8052  1.9826
  870MOL0     H20059   2.330   4.095   8.709 -2.6297 -1.1125  0.0615
  870MOL0     H20060   2.383   4.228   8.813  0.8523 -0.0332 -1.5499
  871MOL0     O20061   1.916   2.276   6.940  0.3121 -0.6702 -0.9373
  871MOL0     C20062   1.876   2.239   7.050 -0.8718 -0.0036  1.2826
  871MOL0     O20063   1.935   2.275   7.167 -0.1106  0.5231 -0.3328
  871MOL0     C20064   2.047   2.360   7.175  1.1277 -0.5533  0.3636
  871MOL0     C20065   2.049   2.461   7.273  0.7245  0.1079 -0.3143
  871MOL0     C20066   2.163   2.539   7.296  0.1141  0.0156  0.2976
  871MOL0     C20067   2.275   2.518   7.214  0.6927 -0.6435  0.1980
  871MOL0     O20068   2.377   2.602   7.239  0.6916  0.5932  0.3619
  871MOL0     C20069   2.429   2.666   7.129 -0.3339  0.0968  0.9682
  871MOL0     C20070   2.581   2.632   7.129  0.0717 -0.0694  0.6061
  871MOL0     C20071   2.656   2.704   7.022 -0.6662  0.1088  1.1406
  871MOL0     C20072   2.807   2.683   7.020 -0.2669 -0.3261 -0.5980
  871MOL0     C20073   2.873   2.745   6.894 -0.1837  0.1246  0.2196
  871MOL0     C20074   3.024   2.718   6.880  0.0315 -0.3860  0.9289
  871MOL0     C20075   3.084   2.765   6.744  0.1551  0.0667 -0.9601
  871MOL0     C20076   3.052   2.677   6.623  0.1293 -0.1213 -0.8359
  871MOL0     N20077   2.993   2.758   6.517  0.3120  0.1933  0.2010
  871MOL0     C20078   3.057   2.846   6.433 -0.9235  0.3974  1.0686
  871MOL0     C20079   2.962   2.909   6.363 -0.1646 -0.2406 -0.6576
  871MOL0     C20080   2.979   3.009   6.253 -0.6428  0.1544  0.2479
  871MOL0     C20081   3.093   3.101   6.267  0.3960 -0.5445 -1.3158
  871MOL0     C20082   3.096   3.185   6.150  0.0481  0.4125 -0.4494
  871MOL0     C20083   3.235   3.231   6.113 -0.1633 -0.1628  0.1822
  871MOL0     O20084   3.310   3.133   6.038  0.2375 -0.0714  0.4620
  871MOL0     C20085   3.448   3.130   6.045  0.2179 -0.2951  0.4659
  871MOL0     C20086   3.521   3.247   6.087 -0.4311 -1.0765 -0.3556
  871MOL0     C20087   3.662   3.247   6.087 -0.8084 -0.5275 -0.2564
  871MOL0     C20088   3.726   3.374   6.137 -0.2532  0.6837  0.3731
  871MOL0     C20089   3.732   3.138   6.033 -0.6360  0.1834  0.2582
  871MOL0     C20090   3.884   3.137   6.019  0.4302 -0.7282  0.0261
  871MOL0     O20091   3.953   3.254   6.009 -1.0341 -0.2875 -0.0988
  871MOL0     C20092   4.094   3.262   6.015  0.0965 -0.0354  0.9802
  871MOL0     C20093   4.186   3.165   5.983 -0.0393 -0.4505 -0.1813
  871MOL0     C20094   4.324   3.195   5.972 -0.3337  1.0600 -0.4198
  871MOL0     C20095   4.376   3.313   6.018 -0.2188  0.3106 -0.5778
  871MOL0     O20096   4.515   3.336   6.012  1.0731  0.0413  0.1887
  871MOL0     C20097   4.561   3.475   6.009  0.3453  0.4259 -1.2644
  871MOL0     C20098   4.690   3.481   5.925  0.0318 -0.5203 -0.5819
  871MOL0     C20099   4.764   3.613   5.935 -0.7841 -0.9633 -0.4694
  871MOL0     C20100   4.892   3.597   5.849  0.1684  0.3498  0.3774
  871MOL0     C20101   4.994   3.707   5.878  0.5517  0.4271  1.1466
  871MOL0     C20102   5.135   3.691   5.808  0.4932 -0.0569 -0.0379
  871MOL0     C20103   5.214   3.570   5.849  1.0287  0.2496 -0.1094
  871MOL0     C20104   5.344   3.562   5.778 -1.6971  0.2289  0.5637
  871MOL0    Cl20105   5.341   3.525   5.602 -0.0426  0.3134  0.4091
  871MOL0     C20106   4.286   3.409   6.062  0.8201 -0.1670 -0.2494
  871MOL0     C20107   4.148   3.383   6.047 -0.3509 -0.4272  0.7049
  871MOL0     O20108   3.930   3.024   6.021 -0.5075 -0.8429 -0.5905
  871MOL0     C20109   3.656   3.022   6.002  0.2512  0.2592  0.4625
  871MOL0     C20110   3.516   3.022   6.000  0.6684  0.5886  0.7700
  871MOL0     N20111   2.842   2.868   6.399 -0.2729  0.6402  0.1942
  871MOL0     N20112   2.858   2.773   6.492 -0.0601 -0.0617  0.1721
  871MOL0     C20113   2.271   2.423   7.107 -0.2014  0.3390 -1.1627
  871MOL0     C20114   2.161   2.341   7.096 -0.4190 -0.1162 -0.0634
  871MOL0     C20115   1.752   2.155   7.048 -0.4176  0.0376  0.0197
  871MOL0     C20116   1.677   2.166   6.928  0.2775 -0.4968 -0.1088
  871MOL0     C20117   1.559   2.091   6.921 -0.2527  0.5681 -0.2662
  871MOL0     C20118   1.519   2.000   7.025  0.2778  0.6352  0.1845
  871MOL0     O20119   1.406   1.921   7.027  0.7200  0.1928  0.1878
  871MOL0     C20120   1.303   1.929   6.915  0.0566 -0.3933 -0.4434
  871MOL0     C20121   1.207   2.039   6.942  0.2646 -0.3102 -0.3529
  871MOL0     C20122   1.059   1.999   6.907 -0.1555  0.1812 -0.4970
  871MOL0     C20123   0.970   2.116   6.881 -0.0690 -0.6386  0.4676
  871MOL0     C20124   0.844   2.067   6.819 -0.7407 -0.0791 -0.8869
  871MOL0     C20125   0.734   2.044   6.767  0.6009  0.1138 -0.9493
  871MOL0     C20126   1.596   1.994   7.140 -0.5292  0.2609  0.4239
  871MOL0     C20127   1.712   2.072   7.160 -0.2712 -0.1785  1.0352
  871MOL0     C20128   1.772   2.051   7.293 -0.7848 -0.4335 -0.1258
  871MOL0     H20129   1.965   2.475   7.339 -0.0678  0.5404 -1.3719
  871MOL0     H20130   2.167   2.615   7.373 -0.3303  0.1387  0.2048
  871MOL0     H20131   2.413   2.770   7.162 -0.9843  0.8774 -1.5972
  871MOL0     H20132   2.388   2.653   7.029 -0.6795 -1.2221  1.2662
  871MOL0     H20133   2.621   2.655   7.228 -0.2931 -1.3531  1.0783
  871MOL0     H20134   2.587   2.525   7.109 -1.2229  0.1211 -0.9832
  871MOL0     H20135   2.618   2.673   6.925  2.1115 -0.1839  0.0420
  871MOL0     H20136   2.635   2.810   7.037 -1.1476 -0.1840  2.7200
  871MOL0     H20137   2.863   2.724   7.104  1.4407 -2.0823 -0.8119
  871MOL0     H20138   2.827   2.576   7.032  0.0101 -0.1614  0.5515
  871MOL0     H20139   2.852   2.852   6.910  1.6554  0.4968  0.3905
  871MOL0     H20140   2.823   2.713   6.802 -0.0472 -3.0819  1.1540
  871MOL0     H20141   3.071   2.755   6.972 -0.0976  0.0998  0.8017
  871MOL0     H20142   3.028   2.609   6.880 -0.2212 -0.5005 -2.8888
  871MOL0     H20143   3.193   2.773   6.756  0.2912  0.5900 -2.3597
  871MOL0     H20144   3.039   2.864   6.731  0.6198  0.7272  1.7779
  871MOL0     H20145   3.145   2.644   6.576  0.4111 -0.6139  0.0398
  871MOL0     H20146   2.995   2.589   6.652  0.8890 -0.2997  0.1845
  871MOL0     H20147   3.164   2.858   6.423 -1.0188 -0.5612 -2.1045
  871MOL0     H20148   2.878   3.043   6.230 -1.5907 -2.7901 -0.2759
  871MOL0     H20149   3.003   2.949   6.164 -0.5164  2.4721 -1.3773
  871MOL0     H20150   3.078   3.156   6.361 -1.1045  0.2690 -1.9994
  871MOL0     H20151   3.185   3.043   6.283  0.5262  0.1508  0.8197
  871MOL0     H20152   3.052   3.139   6.060  0.6045  1.2972 -1.1934
  871MOL0     H20153   3.036   3.269   6.184 -1.0149 -0.2478 -0.6477
  871MOL0     H20154   3.229   3.321   6.052  1.2249 -0.8034 -0.9504
  871MOL0     H20155   3.286   3.247   6.209  0.3049 -1.5357  0.1797
  871MOL0     H20156   3.467   3.339   6.111 -0.9734 -1.5316  0.1925
  871MOL0     H20157   3.748   3.441   6.054  2.9956 -1.1346 -0.3870
  871MOL0     H20158   3.824   3.364   6.186  1.6093  3.0906 -2.5338
  871MOL0     H20159   3.663   3.430   6.208  2.3112  3.2470  0.8259
  871MOL0     H20160   4.150   3.070   5.944 -0.6499  0.4681 -1.9833
  871MOL0     H20161   4.402   3.128   5.936 -0.0849  0.3999  1.2640
  871MOL0     H20162   4.499   3.553   5.964  2.5369  2.6391 -0.6668
  871MOL0     H20163   4.578   3.489   6.116  1.4679 -2.7033 -0.9299
  871MOL0     H20164   4.764   3.405   5.952  0.8569 -0.2005 -1.8648
  871MOL0     H20165   4.653   3.458   5.824 -0.8686  1.4516 -0.7583
  871MOL0     H20166   4.792   3.622   6.040  0.3864  0.1245 -0.8564
  871MOL0     H20167   4.705   3.698   5.900 -0.0136  0.1066  0.7738
  871MOL0     H20168   4.872   3.605   5.742  0.6372 -2.4761  0.0032
  871MOL0     H20169   4.941   3.500   5.863  1.2190  0.4462 -2.1629
  871MOL0     H20170   4.949   3.801   5.846  0.8069  1.0539  2.5719
  871MOL0     H20171   5.004   3.713   5.987 -1.0625 -1.3150  1.4436
  871MOL0     H20172   5.202   3.775   5.830  0.7806 -0.0627 -0.8352
  871MOL0     H20173   5.123   3.690   5.699 -0.9348  1.6035  0.0508
  871MOL0     H20174   5.153   3.481   5.827 -0.1411  1.2269 -0.9410
  871MOL0     H20175   5.229   3.580   5.957  0.3053  2.1808 -0.1605
  871MOL0     H20176   5.408   3.486   5.825 -0.9731 -0.8523 -1.9983
  871MOL0     H20177   5.390   3.660   5.793 -0.0646 -0.4710  0.4233
  871MOL0     H20178   4.321   3.505   6.099  2.0936 -0.6336 -0.1827
  871MOL0     H20179   4.072   3.457   6.069  2.4811  2.5288  1.2678
  871MOL0     H20180   3.709   2.935   5.965 -2.8404 -0.8620 -1.8443
  871MOL0     H20181   3.471   2.928   5.970 -0.8917  1.3273  0.6660
  871MOL0     H20182   2.360   2.411   7.046  0.7375 -1.1471  0.4204
  871MOL0     H20183   2.161   2.257   7.026 -0.9998 -1.0300  0.9994
  871MOL0     H20184   1.716   2.228   6.848 -0.6397  0.4966  0.1968
  871MOL0     H20185   1.503   2.092   6.828 -2.7786  0.7630  1.1563
  871MOL0     H20186   1.349   1.932   6.816  0.3925 -1.7260 -0.3533
  871MOL0     H20187   1.246   1.835   6.911  0.1323 -0.4057 -1.3261
  871MOL0     H20188   1.246   2.130   6.896  0.5122  0.2089  0.8267
  871MOL0     H20189   1.196   2.059   7.049 -1.5112  1.4389 -0.7878
  871MOL0     H20190   1.057   1.934   6.818  1.9247  0.7152 -0.9865
  871MOL0     H20191   1.016   1.937   6.986 -0.0875  0.1092 -0.5155
  871MOL0     H20192   1.009   2.189   6.809  1.4489 -1.0614  0.8207
  871MOL0     H20193   0.954   2.168   6.975  1.2187 -0.4742  0.6132
  871MOL0     H20194   0.643   2.025   6.714  0.3926  0.0146 -0.5612
  871MOL0     H20195   1.566   1.936   7.226 -1.4081  1.8302  1.2339
  871MOL0     H20196   1.738   1.954   7.331 -0.0692  0.0672  1.8888
  871MOL0     H20197   1.881   2.043   7.296 -0.8887 -1.8254  0.8756
  871MOL0     H20198   1.732   2.124   7.364  1.6643  1.2713 -0.4109
  872MOL0     O20199  11.158   5.650   7.348 -1.1861 -0.4214  0.5147
  872MOL0     C20200  11.246   5.724   7.320 -0.0384 -1.1176  0.3365
  872MOL0     O20201  11.229   5.848   7.273 -0.4455 -0.3513  0.0673
  872MOL0     C20202  11.112   5.918   7.297  0.3146  0.3484  0.1446
  872MOL0     C20203  11.058   5.928   7.429 -0.2500  0.0619  0.0070
  872MOL0     C20204  10.951   6.008   7.450 -0.4019 -0.9293  0.3013
  872MOL0     C20205  10.895   6.097   7.357 -0.0827 -0.3884 -0.1987
  872MOL0     O20206  10.789   6.179   7.398 -0.1273 -0.1877  0.1073
  872MOL0     C20207  10.767   6.304   7.335 -0.8626  0.2286  0.3551
  872MOL0     C20208  10.615   6.336   7.348  0.4468  0.2467  0.1896
  872MOL0     C20209  10.574   6.456   7.250  0.0649 -0.1380 -0.2915
  872MOL0     C20210  10.665   6.582   7.250 -0.6452 -0.2532 -0.4233
  872MOL0     C20211  10.619   6.685   7.132 -0.0742  0.2553  0.5826
  872MOL0     C20212  10.666   6.646   6.993  0.7680 -0.4944 -0.6686
  872MOL0     C20213  10.621   6.744   6.884 -0.2438 -0.5400  0.7415
  872MOL0     C20214  10.665   6.706   6.742  0.2626 -0.2379 -0.1511
  872MOL0     N20215  10.806   6.665   6.735 -0.2706  1.0594 -0.2229
  872MOL0     C20216  10.910   6.753   6.740 -0.3918  0.1260 -0.1827
  872MOL0     C20217  11.016   6.667   6.734  0.3037 -0.7518  0.3435
  872MOL0     C20218  11.155   6.715   6.737 -0.2962  0.4581  0.0057
  872MOL0     C20219  11.239   6.647   6.628 -1.4503  0.9564  0.7349
  872MOL0     C20220  11.373   6.715   6.610 -0.2838  0.6864  0.6843
  872MOL0     C20221  11.421   6.690   6.469  0.2304  0.1579  0.7884
  872MOL0     O20222  11.542   6.757   6.440  0.8217 -0.0567 -0.1689
  872MOL0     C20223  11.658   6.714   6.493 -0.4089 -0.0554 -0.4494
  872MOL0     C20224  11.687   6.584   6.546  0.4597  0.1252 -0.2452
  872MOL0     C20225  11.815   6.547   6.594  0.2185 -0.7172 -0.1533
  872MOL0     C20226  11.827   6.422   6.676  1.0552  0.1867 -0.2071
  872MOL0     C20227  11.924   6.635   6.578 -0.3591 -0.7591  0.0589
  872MOL0     C20228  12.068   6.608   6.609  0.5372 -0.5065 -0.2992
  872MOL0     O20229  12.118   6.489   6.598  0.3000 -0.1017 -0.0187
  872MOL0     C20230  12.250   6.457   6.626  0.5069 -0.3273 -0.0357
  872MOL0     C20231  12.343   6.446   6.524  0.0608  0.1343 -0.9153
  872MOL0     C20232  12.481   6.428   6.557  0.1759  0.6807  0.1700
  872MOL0     C20233  12.520   6.414   6.690  1.1943 -0.6737 -0.0468
  872MOL0     O20234  12.650   6.389   6.714 -0.0600 -0.6171  0.9659
  872MOL0     C20235  12.682   6.312   6.828  0.0380 -1.0776  0.0549
  872MOL0     C20236  12.834   6.286   6.819  0.2643 -0.2808  0.4750
  872MOL0     C20237  12.863   6.180   6.925 -0.6158 -1.1123  0.1207
  872MOL0     C20238  13.012   6.167   6.946 -0.2996 -0.7026  0.1365
  872MOL0     C20239  13.056   6.070   7.056 -0.5993 -0.1028 -0.1252
  872MOL0     C20240  13.036   5.925   7.018  0.6654 -0.6419 -0.1956
  872MOL0     C20241  13.106   5.832   7.121  0.2031  0.8672 -0.5263
  872MOL0     C20242  13.019   5.721   7.172 -0.0507 -0.0736 -0.2141
  872MOL0    Cl20243  13.108   5.627   7.290 -0.0256  0.0763 -0.2395
  872MOL0     C20244  12.418   6.422   6.792 -0.4766  0.1067  0.6206
  872MOL0     C20245  12.285   6.440   6.758  0.3611 -0.6434  0.0301
  872MOL0     O20246  12.126   6.706   6.663 -0.0098  0.2900  0.2319
  872MOL0     C20247  11.893   6.767   6.531  0.0160 -0.0123  0.3167
  872MOL0     C20248  11.763   6.805   6.488  0.0579 -0.5166 -0.0960
  872MOL0     N20249  10.980   6.534   6.727 -0.4592 -0.5797  0.0889
  872MOL0     N20250  10.847   6.535   6.720  0.8184  0.0006 -0.5570
  872MOL0     C20251  10.943   6.079   7.219 -0.5469 -0.5650 -0.0445
  872MOL0     C20252  11.051   5.992   7.192  0.1029  0.2595 -0.0405
  872MOL0     C20253  11.394   5.690   7.334 -0.4006  0.2709  0.2615
  872MOL0     C20254  11.494   5.749   7.252  0.1152 -0.6261  0.7832
  872MOL0     C20255  11.628   5.723   7.279  0.3548  0.0506 -0.2225
  872MOL0     C20256  11.670   5.639   7.377  0.1425  0.6815  0.3514
  872MOL0     O20257  11.803   5.617   7.409 -0.1643  0.3516 -0.7073
  872MOL0     C20258  11.904   5.646   7.317 -0.8592  0.8812  0.1406
  872MOL0     C20259  12.034   5.590   7.372 -0.0967  0.0111  1.1061
  872MOL0     C20260  12.147   5.571   7.266 -0.2399  0.3911  0.5912
  872MOL0     C20261  12.284   5.529   7.325 -0.2123 -0.8999  0.8116
  872MOL0     C20262  12.355   5.641   7.369 -0.4441 -0.5002 -0.3286
  872MOL0     C20263  12.409   5.743   7.412  0.3607 -1.0395  0.5848
  872MOL0     C20264  11.570   5.575   7.449  0.3585 -0.0560 -0.5679
  872MOL0     C20265  11.436   5.608   7.438  0.0046  0.3041 -0.1143
  872MOL0     C20266  11.340   5.536   7.529 -0.0547  1.0738  0.2903
  872MOL0     H20267  11.081   5.864   7.513  0.3463 -0.3510 -0.4658
  872MOL0     H20268  10.905   6.002   7.549  0.8001 -1.9306  0.8291
  872MOL0     H20269  10.799   6.295   7.231 -0.6208 -0.7385  0.4929
  872MOL0     H20270  10.832   6.374   7.389  3.3702 -3.4574  0.6204
  872MOL0     H20271  10.572   6.245   7.305 -0.8090  1.9887 -2.4906
  872MOL0     H20272  10.580   6.370   7.446 -1.6719  1.1000 -0.7933
  872MOL0     H20273  10.574   6.410   7.151  1.9935  1.1634 -0.9627
  872MOL0     H20274  10.473   6.484   7.282 -0.4113 -2.5764  0.5379
  872MOL0     H20275  10.655   6.621   7.352  0.9052 -2.8944  0.8596
  872MOL0     H20276  10.771   6.561   7.234 -0.0630  3.2256 -2.0022
  872MOL0     H20277  10.674   6.777   7.157 -0.2877  0.2153  1.2339
  872MOL0     H20278  10.512   6.706   7.139 -0.7739 -2.3164 -1.0114
  872MOL0     H20279  10.774   6.649   6.982  0.7804 -0.0237 -0.4666
  872MOL0     H20280  10.629   6.545   6.974  1.1996 -0.4516 -1.7700
  872MOL0     H20281  10.672   6.839   6.906 -0.0178 -1.1618  3.1729
  872MOL0     H20282  10.512   6.754   6.885 -0.3349 -0.7753 -1.5810
  872MOL0     H20283  10.593   6.630   6.707 -1.9467  2.0835 -0.9775
  872MOL0     H20284  10.654   6.796   6.681 -0.9552  0.2851  0.7846
  872MOL0     H20285  10.897   6.861   6.740  0.0424  0.1794 -0.0614
  872MOL0     H20286  11.187   6.680   6.835 -0.1074 -1.1778 -0.5988
  872MOL0     H20287  11.155   6.824   6.730 -0.0489  0.5046  0.7068
  872MOL0     H20288  11.243   6.539   6.644 -2.6388  0.2377 -2.9616
  872MOL0     H20289  11.186   6.655   6.533  0.4807 -0.4620 -0.5402
  872MOL0     H20290  11.366   6.824   6.623  1.4611  0.9649 -0.3463
  872MOL0     H20291  11.436   6.686   6.694 -1.8860  0.5971  1.9076
  872MOL0     H20292  11.428   6.583   6.446 -1.8871  0.1724 -0.1829
  872MOL0     H20293  11.343   6.727   6.401 -1.2096 -1.4410  1.4923
  872MOL0     H20294  11.601   6.521   6.563 -0.1893  1.1425  0.3451
  872MOL0     H20295  11.919   6.414   6.735  1.8291 -2.0394 -1.5865
  872MOL0     H20296  11.838   6.341   6.604 -0.7110  0.3229 -0.6643
  872MOL0     H20297  11.730   6.409   6.725  0.6325  0.0098 -1.0733
  872MOL0     H20298  12.315   6.469   6.422 -0.2933  0.3383 -0.7728
  872MOL0     H20299  12.556   6.422   6.479  1.9913  1.4401  1.7591
  872MOL0     H20300  12.649   6.363   6.920  2.0370 -2.2619  1.5025
  872MOL0     H20301  12.645   6.209   6.826  2.2637 -1.9215 -0.3669
  872MOL0     H20302  12.867   6.245   6.723  1.3158  3.0634 -0.7123
  872MOL0     H20303  12.883   6.382   6.836  0.3488 -0.4588  1.2540
  872MOL0     H20304  12.822   6.085   6.891  1.2815 -1.9875  0.1312
  872MOL0     H20305  12.821   6.213   7.021 -3.0190 -2.6822 -0.3343
  872MOL0     H20306  13.035   6.267   6.982 -3.8486  0.0026  0.8507
  872MOL0     H20307  13.062   6.153   6.850  0.5930  1.4759  0.2295
  872MOL0     H20308  13.163   6.087   7.071 -0.4053  0.1525 -1.6554
  872MOL0     H20309  13.005   6.097   7.149  0.5357  1.0465  0.1932
  872MOL0     H20310  13.069   5.906   6.916 -1.0285 -2.2990 -0.4972
  872MOL0     H20311  12.929   5.910   7.001  0.6609  1.3414 -2.4134
  872MOL0     H20312  13.134   5.892   7.208  1.2613 -0.8097  0.3436
  872MOL0     H20313  13.193   5.789   7.071 -0.7465 -0.0124 -1.4718
  872MOL0     H20314  12.982   5.663   7.087  0.3550  1.4132 -1.4301
  872MOL0     H20315  12.934   5.767   7.224  0.9449 -0.8630  2.2588
  872MOL0     H20316  12.450   6.400   6.893 -0.8943 -2.8153  0.2024
  872MOL0     H20317  12.213   6.452   6.838 -1.2843 -1.1281 -1.3429
  872MOL0     H20318  11.977   6.835   6.519 -0.5624  0.5911 -0.3720
  872MOL0     H20319  11.747   6.907   6.455  0.6408 -0.1556  0.7026
  872MOL0     H20320  10.895   6.128   7.136  0.9992  0.2992 -0.4732
  872MOL0     H20321  11.092   5.995   7.091  1.1341  2.9410  0.3634
  872MOL0     H20322  11.469   5.824   7.177 -0.4576 -1.1740  0.4113
  872MOL0     H20323  11.693   5.785   7.219 -0.1653 -0.1344 -0.9928
  872MOL0     H20324  11.885   5.608   7.216  1.1733  1.1082 -0.3896
  872MOL0     H20325  11.911   5.755   7.321  0.8405  0.7650  1.6440
  872MOL0     H20326  12.009   5.496   7.422 -0.7767 -1.2940 -1.4830
  872MOL0     H20327  12.060   5.660   7.451 -2.3536  1.1135  0.9224
  872MOL0     H20328  12.123   5.493   7.194  1.4394 -1.6710  2.1415
  872MOL0     H20329  12.147   5.668   7.214  0.6509  0.7760  1.2793
  872MOL0     H20330  12.339   5.476   7.246  0.2699 -1.0979  1.2769
  872MOL0     H20331  12.275   5.456   7.405  1.5765 -2.0593  0.0178
  872MOL0     H20332  12.469   5.821   7.455 -0.2553  0.7145 -1.5839
  872MOL0     H20333  11.607   5.504   7.524  1.2239  2.0610  1.1250
  872MOL0     H20334  11.396   5.491   7.611  2.4082 -0.6736 -2.1622
  872MOL0     H20335  11.259   5.600   7.565 -0.3003  1.4090 -0.8206
  872MOL0     H20336  11.292   5.459   7.469 -0.4230  0.4656  1.3435
  873MOL0     O20337   4.729   7.474   5.890 -0.0030  0.8517  0.3346
  873MOL0     C20338   4.708   7.595   5.883 -0.4663  0.7026 -0.1492
  873MOL0     O20339   4.785   7.686   5.814 -0.7770 -0.3722  0.7738
  873MOL0     C20340   4.909   7.640   5.764  0.3931  0.3778 -0.0754
  873MOL0     C20341   4.912   7.585   5.633  0.2364 -0.4392  0.0180
  873MOL0     C20342   5.036   7.563   5.571 -0.1956 -0.0835 -0.0369
  873MOL0     C20343   5.160   7.590   5.646  0.0392  0.6938  0.2407
  873MOL0     O20344   5.288   7.581   5.597  1.0946  0.2402 -0.1012
  873MOL0     C20345   5.303   7.609   5.455 -0.0083 -0.3049 -0.3666
  873MOL0     C20346   5.440   7.589   5.413 -0.8568 -0.5959  0.6085
  873MOL0     C20347   5.536   7.676   5.491 -1.3103  0.9420 -0.1593
  873MOL0     C20348   5.613   7.784   5.408 -0.0796 -0.0472  1.4482
  873MOL0     C20349   5.757   7.813   5.457 -0.3394 -0.2864  0.0570
  873MOL0     C20350   5.829   7.904   5.359 -0.4924  0.0635  0.0213
  873MOL0     C20351   5.973   7.961   5.410  0.7005 -1.1710  0.5859
  873MOL0     C20352   6.085   7.861   5.355  0.5763 -0.2120 -0.5158
  873MOL0     N20353   6.224   7.906   5.398 -0.3308 -0.3802  0.1430
  873MOL0     C20354   6.329   7.834   5.447 -0.3603  0.0837  0.3138
  873MOL0     C20355   6.432   7.923   5.446  0.0003 -0.5238  0.6921
  873MOL0     C20356   6.581   7.890   5.455 -0.3767  0.9119  0.7400
  873MOL0     C20357   6.644   7.835   5.317 -0.5037  0.9232  0.1193
  873MOL0     C20358   6.786   7.794   5.341 -0.3724  0.1127 -0.1893
  873MOL0     C20359   6.789   7.666   5.440 -0.3655  0.5307 -0.1875
  873MOL0     O20360   6.907   7.590   5.426  0.2009 -0.4077  0.0845
  873MOL0     C20361   7.021   7.643   5.479  0.0790  0.6148 -0.7420
  873MOL0     C20362   7.030   7.657   5.620 -0.4873  0.3458 -0.8102
  873MOL0     C20363   7.122   7.726   5.686 -0.9697 -0.7325 -0.5544
  873MOL0     C20364   7.096   7.754   5.833 -0.3908 -0.8297 -0.6548
  873MOL0     C20365   7.221   7.787   5.610  0.6082  0.0666 -0.3732
  873MOL0     C20366   7.337   7.869   5.669  0.5523  0.0362  0.9029
  873MOL0     O20367   7.421   7.929   5.574 -0.2673  0.2744 -0.0111
  873MOL0     C20368   7.524   8.007   5.602 -0.5782  0.1357 -0.6897
  873MOL0     C20369   7.535   8.124   5.545 -0.0562 -0.3630 -0.5166
  873MOL0     C20370   7.643   8.214   5.569 -0.0047  0.5760  0.9535
  873MOL0     C20371   7.743   8.179   5.656 -0.1911  0.1025 -0.1809
  873MOL0     O20372   7.852   8.255   5.700  0.1189  0.2520 -0.5471
  873MOL0     C20373   7.859   8.396   5.676 -0.5300 -0.5561  0.0787
  873MOL0     C20374   7.746   8.485   5.730 -0.4001 -0.4068 -0.5121
  873MOL0     C20375   7.791   8.630   5.774 -0.0117 -0.1051 -0.3816
  873MOL0     C20376   7.803   8.734   5.647  0.2293  0.4016  0.3596
  873MOL0     C20377   7.850   8.864   5.702 -0.2789  0.8192 -0.0481
  873MOL0     C20378   7.927   8.950   5.606  0.2846 -1.0246  0.2672
  873MOL0     C20379   7.985   9.083   5.657  0.5513  0.1650  0.6016
  873MOL0     C20380   8.084   9.064   5.766  0.0119 -0.1068 -0.8622
  873MOL0    Cl20381   8.204   8.933   5.726 -0.1887 -0.0267  0.0013
  873MOL0     C20382   7.731   8.055   5.717 -0.1327 -0.0246  0.3530
  873MOL0     C20383   7.631   7.966   5.684  0.1188  0.0859 -0.3020
  873MOL0     O20384   7.354   7.882   5.792 -0.0796 -0.2139 -0.0629
  873MOL0     C20385   7.223   7.763   5.468  0.3251 -0.1637  0.0632
  873MOL0     C20386   7.118   7.697   5.404 -0.5330 -0.2834  0.0892
  873MOL0     N20387   6.387   8.046   5.399 -0.3499 -0.3629  0.0502
  873MOL0     N20388   6.266   8.033   5.368 -0.9037  0.0502  0.2638
  873MOL0     C20389   5.146   7.629   5.777 -0.1617  0.3818 -0.0547
  873MOL0     C20390   5.023   7.660   5.833  0.1989  0.0750  0.2273
  873MOL0     C20391   4.578   7.640   5.949  0.2044 -0.0595 -0.0923
  873MOL0     C20392   4.543   7.777   5.938  0.0587  1.0276 -0.1417
  873MOL0     C20393   4.433   7.836   5.999  0.2973 -0.7822 -0.0057
  873MOL0     C20394   4.346   7.752   6.078  0.0794  0.1411 -0.1290
  873MOL0     O20395   4.241   7.801   6.149  0.7252  0.5116 -0.1728
  873MOL0     C20396   4.154   7.703   6.218  0.1608  0.0453  0.5079
  873MOL0     C20397   4.035   7.782   6.264 -0.0251  0.7116 -0.0261
  873MOL0     C20398   3.973   7.694   6.375  0.2085  0.5581  0.0856
  873MOL0     C20399   3.834   7.738   6.414  0.2941 -0.4201 -0.8639
  873MOL0     C20400   3.825   7.868   6.468  0.0662  0.4110  0.9277
  873MOL0     C20401   3.831   7.960   6.546  0.7438  0.0308 -0.7731
  873MOL0     C20402   4.382   7.618   6.094  0.3700  0.5782 -0.1279
  873MOL0     C20403   4.486   7.559   6.023  0.7492  0.2917 -0.1769
  873MOL0     C20404   4.497   7.411   6.043 -0.3570 -0.4864 -0.1717
  873MOL0     H20405   4.816   7.576   5.584  0.2755 -1.7111  0.1342
  873MOL0     H20406   5.040   7.529   5.468 -0.7613 -1.7745  0.4831
  873MOL0     H20407   5.266   7.707   5.422  1.5433  0.7102  0.7734
  873MOL0     H20408   5.239   7.537   5.403 -2.6349  1.1138  0.7065
  873MOL0     H20409   5.465   7.484   5.431 -0.9873 -1.0007 -1.3673
  873MOL0     H20410   5.448   7.622   5.309 -0.4214 -0.4984  0.6695
  873MOL0     H20411   5.489   7.731   5.574 -0.4154 -1.2687  1.9376
  873MOL0     H20412   5.610   7.612   5.541  1.0698  2.0355 -2.1056
  873MOL0     H20413   5.610   7.763   5.300 -0.6563  3.1057  0.7549
  873MOL0     H20414   5.562   7.880   5.422  0.2999  0.4269 -0.2109
  873MOL0     H20415   5.809   7.717   5.470  1.8510  1.0436  1.8343
  873MOL0     H20416   5.756   7.862   5.555  1.4856  3.1151 -1.4735
  873MOL0     H20417   5.844   7.845   5.268 -0.4893  1.1315 -0.6885
  873MOL0     H20418   5.768   7.993   5.341 -1.1558 -0.6581 -1.4541
  873MOL0     H20419   5.988   7.960   5.518  1.9854 -2.0376  0.4264
  873MOL0     H20420   5.985   8.058   5.360 -0.2732 -0.2566  2.0519
  873MOL0     H20421   6.073   7.765   5.406 -1.9148  0.7196  0.8094
  873MOL0     H20422   6.074   7.862   5.246 -3.1507 -0.6774 -0.2592
  873MOL0     H20423   6.329   7.726   5.464  1.6101 -0.4188 -2.2728
  873MOL0     H20424   6.593   7.808   5.526 -0.8720 -3.3220 -3.5905
  873MOL0     H20425   6.649   7.970   5.487  0.8129  0.1629  0.1484
  873MOL0     H20426   6.598   7.747   5.271  2.1566  0.0088 -1.0246
  873MOL0     H20427   6.641   7.914   5.242 -2.7162  1.5110  0.7413
  873MOL0     H20428   6.819   7.769   5.240  1.1700 -2.9293  0.9269
  873MOL0     H20429   6.840   7.877   5.387 -1.9879  0.3145  1.4857
  873MOL0     H20430   6.778   7.687   5.547 -2.1452 -0.1302 -0.2043
  873MOL0     H20431   6.702   7.607   5.411  0.7399 -0.2033 -2.2198
  873MOL0     H20432   6.947   7.625   5.682  0.7221 -1.6295 -0.1345
  873MOL0     H20433   7.171   7.714   5.903  1.4673  3.6824  0.3185
  873MOL0     H20434   7.001   7.719   5.874 -0.6960  0.8138  0.1078
  873MOL0     H20435   7.090   7.860   5.856  1.2596 -1.3315  2.7707
  873MOL0     H20436   7.447   8.150   5.487 -0.2868 -2.7490 -1.3207
  873MOL0     H20437   7.644   8.310   5.519 -0.4046  0.8749  1.5055
  873MOL0     H20438   7.952   8.426   5.726  0.1408 -3.9231  1.0800
  873MOL0     H20439   7.870   8.426   5.572  2.2030  2.0157  0.9733
  873MOL0     H20440   7.680   8.498   5.644  0.4006  0.6595 -0.9829
  873MOL0     H20441   7.691   8.432   5.808 -2.9107 -0.5381 -2.2379
  873MOL0     H20442   7.879   8.643   5.837 -1.1179 -0.2182  1.2304
  873MOL0     H20443   7.710   8.663   5.839  0.0968 -1.3472  0.4128
  873MOL0     H20444   7.707   8.740   5.594 -0.0455 -0.7923  0.6665
  873MOL0     H20445   7.882   8.692   5.584 -0.8333  0.4509 -1.0640
  873MOL0     H20446   7.770   8.925   5.744  0.7977  1.5436  1.0286
  873MOL0     H20447   7.921   8.836   5.780 -0.6871  0.7121  0.2841
  873MOL0     H20448   7.864   8.972   5.519  1.7573 -1.3142 -0.9205
  873MOL0     H20449   8.013   8.894   5.569  1.0730  0.2228  0.1488
  873MOL0     H20450   7.907   9.151   5.694  1.0767  1.3314 -0.3336
  873MOL0     H20451   8.030   9.139   5.575 -0.2818  2.6097  1.7096
  873MOL0     H20452   8.042   9.021   5.857 -0.7510 -0.6809 -1.4699
  873MOL0     H20453   8.145   9.151   5.791 -2.8397  1.2301  2.2720
  873MOL0     H20454   7.812   8.013   5.778  0.3351  0.5222  0.1191
  873MOL0     H20455   7.624   7.869   5.733 -2.0330  0.0058 -0.6929
  873MOL0     H20456   7.292   7.815   5.402  1.2362  1.5912  2.2569
  873MOL0     H20457   7.114   7.715   5.297  3.1084 -1.3020 -0.3586
  873MOL0     H20458   5.230   7.663   5.837  1.9698 -0.9086 -2.1349
  873MOL0     H20459   5.025   7.669   5.941 -0.8435 -2.2553  0.5002
  873MOL0     H20460   4.601   7.854   5.888  0.7221  1.4615  1.2309
  873MOL0     H20461   4.426   7.944   5.996  0.7072 -0.6097  2.7647
  873MOL0     H20462   4.117   7.627   6.148  1.5106 -0.6132  0.4964
  873MOL0     H20463   4.195   7.655   6.307 -0.5441 -0.8977  0.3470
  873MOL0     H20464   3.980   7.801   6.172 -1.5723 -0.6406  0.5903
  873MOL0     H20465   4.065   7.877   6.311  0.1860  0.0472  1.2168
  873MOL0     H20466   3.955   7.595   6.332 -1.5353  1.5251 -1.5090
  873MOL0     H20467   4.041   7.692   6.462 -2.2841  1.1857  2.1713
  873MOL0     H20468   3.782   7.677   6.488 -0.3697 -0.1844 -1.1313
  873MOL0     H20469   3.770   7.744   6.325 -1.4765  0.6566  0.4195
  873MOL0     H20470   3.834   8.040   6.618 -3.8001 -0.8986  0.7961
  873MOL0     H20471   4.333   7.553   6.166  1.9612 -0.7573 -0.1999
  873MOL0     H20472   4.570   7.388   6.121  0.8863 -1.4841 -1.5672
  873MOL0     H20473   4.404   7.359   6.068 -0.2395 -1.8355 -2.2437
  873MOL0     H20474   4.528   7.358   5.952  0.7929  0.1472 -0.1694
  874MOL0     O20475  10.689   6.938   4.091 -0.6594 -0.5030 -0.9288
  874MOL0     C20476  10.726   6.815   4.103 -0.4304 -0.1981  0.3712
  874MOL0     O20477  10.840   6.771   4.156  0.8609  0.3174 -0.3739
  874MOL0     C20478  10.927   6.852   4.234 -0.7335 -1.1368  0.1414
  874MOL0     C20479  11.057   6.828   4.226  0.7375  0.5096 -0.3416
  874MOL0     C20480  11.153   6.898   4.292 -0.1004 -0.4674  0.2535
  874MOL0     C20481  11.121   7.009   4.362 -0.2082  0.7762 -0.2294
  874MOL0     O20482  11.226   7.067   4.424  0.0828  0.8369  0.1900
  874MOL0     C20483  11.183   7.153   4.533  0.1952 -0.6291  0.3971
  874MOL0     C20484  11.312   7.212   4.595  0.4018  0.6834 -0.7088
  874MOL0     C20485  11.408   7.281   4.494  0.7071 -0.4624 -0.0196
  874MOL0     C20486  11.535   7.326   4.558  0.6928  0.4459  0.1358
  874MOL0     C20487  11.619   7.399   4.452  0.6347  0.1037  0.2095
  874MOL0     C20488  11.763   7.393   4.489  0.0517  0.6593  0.4370
  874MOL0     C20489  11.796   7.490   4.597 -0.5464  0.3653  0.2832
  874MOL0     C20490  11.856   7.426   4.724 -0.4739 -0.0136 -0.8563
  874MOL0     N20491  12.005   7.432   4.703 -0.5439  0.8350  0.2524
  874MOL0     C20492  12.086   7.320   4.727 -0.2090  0.7461  0.1964
  874MOL0     C20493  12.207   7.373   4.744 -0.3459  0.3967  0.0127
  874MOL0     C20494  12.334   7.300   4.777  0.1679 -0.1672  0.6569
  874MOL0     C20495  12.457   7.323   4.696 -0.9405  0.0960 -0.3879
  874MOL0     C20496  12.578   7.262   4.756  0.0267  0.1038  0.2779
  874MOL0     C20497  12.644   7.318   4.874  0.2333 -0.6607 -0.6547
  874MOL0     O20498  12.680   7.457   4.830 -0.2548  0.0219 -0.3842
  874MOL0     C20499  12.798   7.464   4.762 -0.0563  0.5495  0.3809
  874MOL0     C20500  12.789   7.536   4.633 -0.0344 -0.9842 -0.3206
  874MOL0     C20501  12.894   7.535   4.537  0.9188 -0.2125  0.4406
  874MOL0     C20502  12.876   7.595   4.404 -1.3991 -1.2901 -0.3455
  874MOL0     C20503  13.010   7.462   4.578  0.1038 -0.6805 -0.4289
  874MOL0     C20504  13.117   7.456   4.484 -0.6405 -0.1501  0.5131
  874MOL0     O20505  13.226   7.537   4.496 -0.8699 -0.1408 -0.2042
  874MOL0     C20506  13.313   7.563   4.392 -0.9991 -0.1113 -1.3238
  874MOL0     C20507  13.304   7.682   4.324 -0.8966 -0.2294 -0.2098
  874MOL0     C20508  13.399   7.713   4.223  0.4621 -0.2357 -0.3409
  874MOL0     C20509  13.516   7.640   4.206  0.6706  0.0049 -0.0568
  874MOL0     O20510  13.596   7.666   4.094 -0.5926  0.1623  0.4017
  874MOL0     C20511  13.703   7.576   4.059  0.0559 -0.3346 -0.2062
  874MOL0     C20512  13.769   7.626   3.936  0.4073 -0.4753  0.3003
  874MOL0     C20513  13.827   7.768   3.953 -0.4384  0.4752  0.2861
  874MOL0     C20514  13.915   7.802   3.835  0.1830 -0.2455 -0.5045
  874MOL0     C20515  14.021   7.903   3.876 -0.1389 -0.6453  0.1480
  874MOL0     C20516  14.076   7.975   3.748 -0.7516  0.6865  0.6966
  874MOL0     C20517  14.196   8.073   3.767  0.7683  0.5590  0.6594
  874MOL0     C20518  14.287   8.078   3.643 -0.2760 -0.4721  0.2259
  874MOL0    Cl20519  14.449   8.151   3.689 -0.1511 -0.2430  0.2534
  874MOL0     C20520  13.528   7.534   4.297 -0.0207  0.0326  0.0164
  874MOL0     C20521  13.428   7.496   4.383 -0.1937  1.4004 -0.2361
  874MOL0     O20522  13.103   7.376   4.393  0.0011  0.4384  0.1895
  874MOL0     C20523  13.028   7.405   4.711  0.0371 -0.0943  0.5061
  874MOL0     C20524  12.917   7.400   4.798  0.2947 -0.2385  0.4486
  874MOL0     N20525  12.200   7.512   4.730 -0.1868 -0.1768 -0.6576
  874MOL0     N20526  12.079   7.544   4.699  0.6700 -0.0693  0.1395
  874MOL0     C20527  10.993   7.051   4.358 -0.1682  0.4127  0.3430
  874MOL0     C20528  10.889   6.963   4.303  0.4104  0.0727 -0.3768
  874MOL0     C20529  10.639   6.710   4.051 -0.1103  0.2428 -0.3141
  874MOL0     C20530  10.685   6.572   4.056 -0.3307  0.0956 -0.1971
  874MOL0     C20531  10.609   6.458   4.018  0.3355 -1.1554  0.1531
  874MOL0     C20532  10.486   6.488   3.972  0.7502  0.6452 -0.5249
  874MOL0     O20533  10.407   6.378   3.944 -0.9386  0.4900  0.0548
  874MOL0     C20534  10.392   6.336   3.811 -0.0237 -0.6224  0.4452
  874MOL0     C20535  10.267   6.258   3.771  0.1277  0.4713  0.6202
  874MOL0     C20536  10.239   6.260   3.618 -0.4222  0.4796 -1.0771
  874MOL0     C20537  10.157   6.141   3.564 -0.1207 -0.1678 -0.1515
  874MOL0     C20538  10.230   6.019   3.581  0.2743 -0.2439  0.0820
  874MOL0     C20539  10.300   5.922   3.586  0.3248  0.2512 -0.4064
  874MOL0     C20540  10.441   6.622   3.963 -0.1069  0.3455  0.2176
  874MOL0     C20541  10.512   6.734   3.996 -0.9358  0.0488  0.0515
  874MOL0     C20542  10.442   6.865   3.979  0.5557 -0.8827 -0.1566
  874MOL0     H20543  11.071   6.747   4.155 -0.1506  0.0283  0.0245
  874MOL0     H20544  11.259   6.878   4.275 -0.1171 -0.6572  0.3797
  874MOL0     H20545  11.126   7.090   4.601 -4.5027 -0.4848 -2.9101
  874MOL0     H20546  11.115   7.233   4.501 -0.6097 -0.8234  1.5626
  874MOL0     H20547  11.282   7.284   4.671  1.3966  0.9922 -0.5947
  874MOL0     H20548  11.361   7.128   4.645  0.3417  1.5173  0.7798
  874MOL0     H20549  11.430   7.209   4.414  1.5882 -0.1857 -0.0392
  874MOL0     H20550  11.356   7.373   4.464 -3.1893 -2.0205  1.3016
  874MOL0     H20551  11.514   7.400   4.635  3.0100 -0.5970  1.8687
  874MOL0     H20552  11.579   7.236   4.602  0.7890  0.0401 -0.7528
  874MOL0     H20553  11.582   7.501   4.443 -1.2019 -0.1953  3.0071
  874MOL0     H20554  11.608   7.351   4.354  1.8227 -0.5556  0.3814
  874MOL0     H20555  11.785   7.288   4.511  2.3405  0.6615 -1.4826
  874MOL0     H20556  11.827   7.414   4.403  1.5753 -0.8020  1.1475
  874MOL0     H20557  11.704   7.544   4.620  0.4796  1.9520  0.8077
  874MOL0     H20558  11.865   7.568   4.565 -2.9268  1.9873 -1.2219
  874MOL0     H20559  11.842   7.493   4.809  1.1556  1.3580 -1.5913
  874MOL0     H20560  11.813   7.331   4.755 -0.3926  0.4564  0.7859
  874MOL0     H20561  12.061   7.216   4.748  0.1428  0.7433  0.6302
  874MOL0     H20562  12.319   7.192   4.769  2.5878 -0.4775 -0.6773
  874MOL0     H20563  12.354   7.316   4.884  1.7534  0.5544  0.2896
  874MOL0     H20564  12.437   7.283   4.596 -0.9411 -1.5054  0.2297
  874MOL0     H20565  12.463   7.432   4.698 -1.5912  0.1313  1.1125
  874MOL0     H20566  12.552   7.157   4.772  1.6858 -0.1545  1.4222
  874MOL0     H20567  12.661   7.246   4.686 -0.3199  0.0670 -0.1315
  874MOL0     H20568  12.578   7.324   4.961  2.2239 -0.3616  0.9113
  874MOL0     H20569  12.730   7.257   4.903  2.6699  3.1814  0.9035
  874MOL0     H20570  12.696   7.581   4.600 -0.1250 -0.1526  0.9927
  874MOL0     H20571  12.894   7.517   4.330 -1.6530 -1.0457 -0.6675
  874MOL0     H20572  12.943   7.680   4.390 -2.0928 -0.0805  2.7514
  874MOL0     H20573  12.773   7.628   4.385 -1.2986  0.0343  1.1584
  874MOL0     H20574  13.220   7.747   4.343 -1.4972 -1.2627  0.7964
  874MOL0     H20575  13.367   7.801   4.169  2.0504 -0.3563 -1.5657
  874MOL0     H20576  13.775   7.580   4.141  0.4012  1.3449 -0.5590
  874MOL0     H20577  13.665   7.474   4.043 -0.8706 -0.0763  0.2546
  874MOL0     H20578  13.849   7.555   3.911 -0.1676 -0.9130 -0.3504
  874MOL0     H20579  13.698   7.637   3.854  4.3848  2.4644 -3.1448
  874MOL0     H20580  13.882   7.780   4.046  0.7147 -0.5925 -0.2287
  874MOL0     H20581  13.734   7.827   3.953 -0.3999  0.7079 -2.5788
  874MOL0     H20582  13.858   7.844   3.752 -2.6389 -2.0036  0.4080
  874MOL0     H20583  13.966   7.710   3.805 -0.2609 -1.5741  2.4407
  874MOL0     H20584  13.984   7.979   3.945  0.9225 -0.1760  0.2112
  874MOL0     H20585  14.109   7.858   3.923  1.2398  2.8304  1.2167
  874MOL0     H20586  13.990   8.024   3.701 -0.3479 -1.0515 -2.1312
  874MOL0     H20587  14.107   7.912   3.664 -0.7938  0.0545  1.1525
  874MOL0     H20588  14.254   8.035   3.851 -0.6844 -0.5821  1.1916
  874MOL0     H20589  14.151   8.172   3.777 -1.5448 -0.2371 -0.8429
  874MOL0     H20590  14.234   8.135   3.567 -1.1735 -0.5593  0.7734
  874MOL0     H20591  14.311   7.981   3.598  0.7728 -0.5447  0.8839
  874MOL0     H20592  13.614   7.468   4.292  0.5095  0.6323  1.0189
  874MOL0     H20593  13.435   7.401   4.436  0.5584  1.7138  0.2383
  874MOL0     H20594  13.117   7.346   4.732 -1.9976 -4.0096 -0.9382
  874MOL0     H20595  12.931   7.342   4.888  4.3376 -2.2261 -1.2212
  874MOL0     H20596  10.962   7.142   4.409 -0.8101 -0.9132  2.4657
  874MOL0     H20597  10.786   6.994   4.313  0.5804  1.0599 -1.4907
  874MOL0     H20598  10.780   6.539   4.096  0.1805 -0.0705 -1.4989
  874MOL0     H20599  10.637   6.354   4.014 -2.5951 -2.0019 -3.3579
  874MOL0     H20600  10.392   6.426   3.748 -3.0335 -1.4142 -0.8413
  874MOL0     H20601  10.474   6.267   3.789 -2.2864 -5.1483  4.4968
  874MOL0     H20602  10.180   6.289   3.830  1.3889 -0.0558  2.8845
  874MOL0     H20603  10.282   6.154   3.801  1.0091  0.1670 -0.7522
  874MOL0     H20604  10.180   6.350   3.596 -0.4666 -0.2545 -4.5094
  874MOL0     H20605  10.332   6.286   3.568 -1.6410  1.4801 -2.9443
  874MOL0     H20606  10.131   6.155   3.459  3.6677  0.9093 -1.0891
  874MOL0     H20607  10.062   6.139   3.618 -0.4659 -1.1897 -0.7865
  874MOL0     H20608  10.376   5.847   3.598  0.2414  0.3661  0.9489
  874MOL0     H20609  10.340   6.632   3.925 -0.6859 -3.1329  0.4726
  874MOL0     H20610  10.424   6.928   4.067 -0.2079 -0.0159 -0.9144
  874MOL0     H20611  10.519   6.911   3.916  0.9418 -0.4523  0.6188
  874MOL0     H20612  10.351   6.852   3.920 -1.3224 -2.0411  2.7958
  875MOL0     O20613   1.023  10.619   5.336  0.0607 -0.4326 -0.4389
  875MOL0     C20614   0.900  10.594   5.366 -0.4075 -0.3709 -0.1305
  875MOL0     O20615   0.864  10.523   5.481  1.2270  0.3683  0.3849
  875MOL0     C20616   0.949  10.504   5.588  0.2318 -0.0003  0.3970
  875MOL0     C20617   0.929  10.383   5.662 -0.2331 -0.4463  0.1345
  875MOL0     C20618   1.013  10.345   5.767  0.0640 -0.2114 -0.4959
  875MOL0     C20619   1.109  10.441   5.814  0.4229  0.3542  0.4405
  875MOL0     O20620   1.176  10.427   5.934  0.1613 -0.3224 -0.6380
  875MOL0     C20621   1.185  10.309   6.007  0.2884 -0.7177  0.5660
  875MOL0     C20622   1.266  10.196   5.945 -0.3100 -0.1117  0.8097
  875MOL0     C20623   1.409  10.229   5.907  0.3881 -0.0082  0.1254
  875MOL0     C20624   1.480  10.095   5.866  0.3783  0.4293  0.2534
  875MOL0     C20625   1.620  10.117   5.804  0.6464 -0.2741 -0.0846
  875MOL0     C20626   1.615  10.175   5.665  0.1730 -0.0355 -0.2326
  875MOL0     C20627   1.756  10.220   5.615 -0.3158  0.7743  0.0061
  875MOL0     C20628   1.816  10.357   5.666  0.5621  0.0488  0.7140
  875MOL0     N20629   1.718  10.470   5.654  1.0365  0.2175 -0.1411
  875MOL0     C20630   1.672  10.536   5.543  0.1959 -0.6396 -0.4185
  875MOL0     C20631   1.595  10.634   5.591 -0.3848 -0.4804 -0.0191
  875MOL0     C20632   1.528  10.738   5.512  0.5382 -0.2949 -0.4734
  875MOL0     C20633   1.388  10.692   5.464  0.3524 -0.4203 -0.2503
  875MOL0     C20634   1.284  10.800   5.425  0.4888  0.2705  0.2407
  875MOL0     C20635   1.293  10.838   5.276  0.6745  0.4973  0.0972
  875MOL0     O20636   1.415  10.913   5.235  0.0323 -0.2368  0.2717
  875MOL0     C20637   1.479  10.879   5.120 -0.4711  0.9311  0.4772
  875MOL0     C20638   1.415  10.838   5.003  0.4841 -0.8835 -1.0436
  875MOL0     C20639   1.478  10.806   4.888 -0.3284  0.4578  0.2405
  875MOL0     C20640   1.405  10.758   4.773 -0.8467  0.5633 -0.0240
  875MOL0     C20641   1.620  10.801   4.884 -0.3352 -0.5465 -0.0778
  875MOL0     C20642   1.712  10.778   4.766  0.5609  0.8243  0.3459
  875MOL0     O20643   1.771  10.664   4.775 -0.8486  0.3922  0.4778
  875MOL0     C20644   1.883  10.644   4.703  0.4792  0.1839 -1.2541
  875MOL0     C20645   1.906  10.676   4.565  0.5384 -0.7412 -0.4437
  875MOL0     C20646   2.029  10.646   4.501  0.2541 -0.0656  0.3742
  875MOL0     C20647   2.122  10.581   4.570 -0.8241 -0.1609 -0.2931
  875MOL0     O20648   2.245  10.533   4.530 -0.4547  0.4251  0.0793
  875MOL0     C20649   2.296  10.580   4.403  0.4179  0.5946 -0.0584
  875MOL0     C20650   2.437  10.551   4.369  0.2507  0.4124 -0.2136
  875MOL0     C20651   2.536  10.603   4.477  0.9707  0.1720 -0.3136
  875MOL0     C20652   2.674  10.528   4.468  0.2163  0.6143 -0.6624
  875MOL0     C20653   2.759  10.561   4.344  0.0655 -0.2553 -0.4080
  875MOL0     C20654   2.901  10.498   4.339 -0.0120 -0.7614  0.6725
  875MOL0     C20655   2.906  10.344   4.341  0.0095  0.4593  1.0455
  875MOL0     C20656   3.045  10.296   4.308 -0.4340 -0.7551  0.5032
  875MOL0    Cl20657   3.156  10.347   4.444  0.1397 -0.4224 -0.3488
  875MOL0     C20658   2.096  10.538   4.699  0.2807  0.1076 -0.5868
  875MOL0     C20659   1.978  10.572   4.766 -0.1382  0.7148 -0.9178
  875MOL0     O20660   1.733  10.869   4.687  0.1865 -0.5067  0.2383
  875MOL0     C20661   1.688  10.841   4.999  0.0215  0.2459  0.5614
  875MOL0     C20662   1.620  10.877   5.122  0.4001  0.0720  0.5372
  875MOL0     N20663   1.582  10.617   5.729 -0.5342  0.3520  0.3103
  875MOL0     N20664   1.662  10.524   5.770  0.5542 -1.2622  0.1897
  875MOL0     C20665   1.130  10.559   5.749  0.7425 -0.8483 -0.1151
  875MOL0     C20666   1.046  10.594   5.641  0.7613  0.6302  0.1530
  875MOL0     C20667   0.786  10.630   5.269  0.7893  0.0758 -0.2548
  875MOL0     C20668   0.656  10.582   5.303  0.6782  0.2392  0.6645
  875MOL0     C20669   0.552  10.609   5.222 -0.2922 -0.2275 -0.3610
  875MOL0     C20670   0.568  10.674   5.102  0.5254  0.8189  0.4451
  875MOL0     O20671   0.460  10.680   5.015 -0.8339  0.3311 -0.2839
  875MOL0     C20672   0.476  10.706   4.877 -0.3853  0.1599  0.5769
  875MOL0     C20673   0.331  10.723   4.827 -0.2772 -0.1131 -0.0973
  875MOL0     C20674   0.240  10.594   4.848 -0.0367  0.0696  0.6115
  875MOL0     C20675   0.091  10.641   4.805 -0.7364 -0.4455 -0.3161
  875MOL0     C20676  -0.012  10.542   4.845 -0.1917 -0.2170  0.3505
  875MOL0     C20677  -0.104  10.472   4.858  0.9114 -0.2302  0.6624
  875MOL0     C20678   0.692  10.719   5.068 -0.6057 -0.8196 -0.6071
  875MOL0     C20679   0.804  10.706   5.154 -0.7768 -0.1501  0.7167
  875MOL0     C20680   0.938  10.754   5.098  0.5321 -0.0567  0.0685
  875MOL0     H20681   0.848  10.323   5.623 -0.0725 -0.5151 -0.0951
  875MOL0     H20682   0.994  10.247   5.810  2.1549  0.5288  2.4093
  875MOL0     H20683   1.087  10.274   6.041  0.2836 -0.7776  0.4911
  875MOL0     H20684   1.243  10.337   6.096  0.8081 -0.4093  0.1366
  875MOL0     H20685   1.248  10.103   6.001  0.6209 -0.2296  0.9370
  875MOL0     H20686   1.216  10.178   5.849  0.8387 -0.6649  0.2825
  875MOL0     H20687   1.413  10.294   5.819 -0.8655  0.7128  0.5732
  875MOL0     H20688   1.451  10.276   5.997 -1.6315  1.0534  0.5742
  875MOL0     H20689   1.483  10.026   5.951  2.0086  1.5889  1.1980
  875MOL0     H20690   1.413  10.041   5.798  3.7627 -4.5857  0.3562
  875MOL0     H20691   1.663  10.017   5.809  0.3961 -0.4347 -1.0507
  875MOL0     H20692   1.676  10.189   5.866  2.9164 -2.2437  0.3042
  875MOL0     H20693   1.598  10.092   5.597  1.5182  1.2021 -2.2007
  875MOL0     H20694   1.534  10.244   5.639 -1.8559 -1.0641  2.8167
  875MOL0     H20695   1.752  10.241   5.508  0.4671  4.8052  0.6125
  875MOL0     H20696   1.833  10.144   5.631 -2.3687 -1.4493 -0.1475
  875MOL0     H20697   1.852  10.348   5.769  1.1584 -0.7852  0.4458
  875MOL0     H20698   1.903  10.381   5.604  0.2122 -0.5284 -0.0178
  875MOL0     H20699   1.717  10.517   5.445 -0.0905 -2.1383 -0.2933
  875MOL0     H20700   1.580  10.776   5.423 -0.1851  1.1664 -0.3020
  875MOL0     H20701   1.510  10.827   5.573 -0.9457 -1.1118  0.3243
  875MOL0     H20702   1.395  10.624   5.379  0.9500 -0.7978  0.0925
  875MOL0     H20703   1.342  10.634   5.544 -1.4622  1.2926  0.0232
  875MOL0     H20704   1.183  10.763   5.442 -0.4880  1.3128 -2.7230
  875MOL0     H20705   1.305  10.885   5.491 -0.5965  0.9547 -0.2723
  875MOL0     H20706   1.279  10.744   5.221 -0.5804  0.4101  0.5453
  875MOL0     H20707   1.205  10.896   5.250 -0.2488 -2.2418 -3.8373
  875MOL0     H20708   1.307  10.826   5.004  0.3410  0.2686 -1.0310
  875MOL0     H20709   1.466  10.780   4.685 -0.2501 -3.1815 -0.6735
  875MOL0     H20710   1.311  10.812   4.760 -0.0149  1.8640 -0.8531
  875MOL0     H20711   1.383  10.652   4.759 -0.9750  0.7304 -1.1173
  875MOL0     H20712   1.837  10.727   4.499  2.0847  0.3947 -1.2408
  875MOL0     H20713   2.038  10.672   4.396  2.4276 -2.0937 -0.0275
  875MOL0     H20714   2.233  10.530   4.329 -1.4575  1.1144  1.1262
  875MOL0     H20715   2.280  10.688   4.399 -1.1859  0.4149  0.7088
  875MOL0     H20716   2.455  10.446   4.347  1.0499  0.5013 -0.0155
  875MOL0     H20717   2.464  10.605   4.277 -0.8295 -0.5082 -1.1031
  875MOL0     H20718   2.498  10.592   4.579 -1.3074  1.3519 -0.9623
  875MOL0     H20719   2.542  10.711   4.461  1.3132  0.5948  2.2070
  875MOL0     H20720   2.657  10.420   4.472  1.8091  0.2465 -2.5218
  875MOL0     H20721   2.739  10.549   4.553 -2.3452 -1.1026  1.9641
  875MOL0     H20722   2.706  10.533   4.253 -1.7768  2.0404 -0.1273
  875MOL0     H20723   2.764  10.669   4.326 -3.6970 -0.0278 -0.8018
  875MOL0     H20724   2.970  10.529   4.417  0.8385 -1.0809  0.0620
  875MOL0     H20725   2.949  10.524   4.244 -1.2920 -1.0514 -0.0860
  875MOL0     H20726   2.838  10.323   4.257 -1.2173  0.8165  1.9251
  875MOL0     H20727   2.877  10.292   4.433  0.4018 -1.9892 -0.1300
  875MOL0     H20728   3.084  10.331   4.212  0.0738 -2.3360  0.0955
  875MOL0     H20729   3.044  10.186   4.311  1.8762 -0.8096  0.9271
  875MOL0     H20730   2.169  10.483   4.757 -1.3662  1.1066  2.7269
  875MOL0     H20731   1.977  10.547   4.872  3.0361  2.6659 -0.2917
  875MOL0     H20732   1.796  10.849   4.986 -0.3003 -0.0652 -3.4183
  875MOL0     H20733   1.676  10.910   5.209  1.6242  0.5100 -0.3804
  875MOL0     H20734   1.196  10.634   5.790 -1.0947  0.7437  0.0986
  875MOL0     H20735   1.061  10.694   5.603  0.0938  1.2165  1.3587
  875MOL0     H20736   0.645  10.524   5.394 -0.0514 -1.0903 -0.2449
  875MOL0     H20737   0.451  10.579   5.247 -0.6403  0.0198 -1.4384
  875MOL0     H20738   0.531  10.800   4.862 -0.9615  0.2208 -1.4786
  875MOL0     H20739   0.524  10.615   4.839  0.2305 -0.3223  2.4053
  875MOL0     H20740   0.341  10.752   4.722  0.0571  0.2444  0.0291
  875MOL0     H20741   0.281  10.802   4.884 -2.4984 -2.1844  1.0149
  875MOL0     H20742   0.273  10.510   4.787  0.0572 -0.2660  1.1213
  875MOL0     H20743   0.240  10.564   4.953  0.0676 -0.2175  0.5296
  875MOL0     H20744   0.090  10.666   4.698 -1.1020  1.0282  0.0051
  875MOL0     H20745   0.061  10.733   4.856  1.0845 -0.1813  0.3375
  875MOL0     H20746  -0.189  10.411   4.881 -0.4293  1.9636  1.7876
  875MOL0     H20747   0.705  10.767   4.972 -0.2485  0.9636  0.2930
  875MOL0     H20748   1.013  10.676   5.082 -1.3296 -1.3320 -3.8211
  875MOL0     H20749   0.930  10.801   5.000  3.1727  1.6311  0.5704
  875MOL0     H20750   0.976  10.835   5.160  1.2568  0.8153 -1.4444
  876MOL0     O20751   6.144   7.584   5.066 -0.1056  0.7982 -0.0998
  876MOL0     C20752   6.049   7.626   4.997 -0.4255  0.8175  0.7651
  876MOL0     O20753   6.068   7.716   4.897  0.2201 -0.4266  0.4206
  876MOL0     C20754   6.176   7.798   4.921  0.6779 -0.1925 -0.1216
  876MOL0     C20755   6.298   7.759   4.869 -0.1041 -0.3512 -0.0590
  876MOL0     C20756   6.416   7.825   4.902 -0.2695  0.4612 -0.2416
  876MOL0     C20757   6.419   7.954   4.965  0.7870  0.4256  0.0912
  876MOL0     O20758   6.541   8.018   4.974 -0.4339 -0.4487 -0.0412
  876MOL0     C20759   6.569   8.133   5.058 -0.0123  0.0955 -0.0407
  876MOL0     C20760   6.709   8.183   5.046 -0.3677  0.4316 -0.4965
  876MOL0     C20761   6.813   8.101   5.119 -0.2830  0.2614  0.5865
  876MOL0     C20762   6.952   8.155   5.060  0.2319  0.2155 -0.9812
  876MOL0     C20763   7.067   8.111   5.154  0.0705  0.2634  0.5499
  876MOL0     C20764   7.197   8.186   5.128  0.0298 -0.4840 -0.2484
  876MOL0     C20765   7.323   8.125   5.190  1.7681  1.3536  0.2977
  876MOL0     C20766   7.456   8.203   5.177  0.6796  0.3797  0.8312
  876MOL0     N20767   7.497   8.226   5.038  0.2055 -0.8575  0.3148
  876MOL0     C20768   7.610   8.172   4.986  0.4090 -0.5416  0.7472
  876MOL0     C20769   7.636   8.236   4.873  0.0536  0.0585  0.3490
  876MOL0     C20770   7.767   8.224   4.803 -0.9374  0.4482  0.3382
  876MOL0     C20771   7.734   8.202   4.659 -0.4938 -0.3653 -0.0522
  876MOL0     C20772   7.853   8.214   4.567 -0.1719  0.0731 -0.4502
  876MOL0     C20773   7.909   8.354   4.563 -0.5179  0.2994 -0.3426
  876MOL0     O20774   7.989   8.375   4.454  0.0110 -0.2954 -0.6235
  876MOL0     C20775   8.119   8.361   4.488  0.0301  0.5540 -0.0647
  876MOL0     C20776   8.204   8.270   4.411 -0.0542  0.4233  0.3251
  876MOL0     C20777   8.335   8.236   4.458  0.3342  0.4816  0.8325
  876MOL0     C20778   8.408   8.144   4.367  0.4505 -0.4698 -0.5181
  876MOL0     C20779   8.391   8.299   4.571  0.8513  0.0686 -0.8377
  876MOL0     C20780   8.530   8.268   4.621  0.1128 -0.5571 -0.3379
  876MOL0     O20781   8.565   8.130   4.645 -0.0903 -0.0462  0.3001
  876MOL0     C20782   8.686   8.115   4.704 -0.5962 -1.5864 -0.1253
  876MOL0     C20783   8.702   8.079   4.836 -0.4332 -0.3923  0.2439
  876MOL0     C20784   8.828   8.054   4.887 -0.0298 -0.2832  0.0189
  876MOL0     C20785   8.945   8.065   4.815 -0.1224  0.4577 -0.2107
  876MOL0     O20786   9.054   8.014   4.882 -0.0261  0.0181 -0.0438
  876MOL0     C20787   9.174   8.000   4.811 -0.1604 -1.3469 -0.3016
  876MOL0     C20788   9.281   7.942   4.916  0.6692 -0.1981 -0.2463
  876MOL0     C20789   9.400   7.872   4.860  0.3625  0.7014  0.8111
  876MOL0     C20790   9.467   7.947   4.739  1.0225  0.4080 -0.4836
  876MOL0     C20791   9.602   7.880   4.713 -1.2267 -0.2817 -0.0906
  876MOL0     C20792   9.691   7.958   4.615  0.3776 -0.4211  0.1408
  876MOL0     C20793   9.815   7.881   4.584 -0.3123 -0.6407  0.8493
  876MOL0     C20794   9.923   7.952   4.501 -0.5904  0.0804 -0.6924
  876MOL0    Cl20795   9.859   8.018   4.340 -0.2422  0.3621  0.1897
  876MOL0     C20796   8.933   8.112   4.679 -0.3475 -0.5277 -0.4296
  876MOL0     C20797   8.803   8.136   4.626 -1.0551 -0.1459 -0.6376
  876MOL0     O20798   8.595   8.364   4.660 -0.2002  0.0635  0.3505
  876MOL0     C20799   8.322   8.404   4.631 -0.1607 -0.2905 -0.8128
  876MOL0     C20800   8.193   8.432   4.588 -1.0488  0.5822  0.7956
  876MOL0     N20801   7.540   8.338   4.861 -0.4194  0.2807 -1.0973
  876MOL0     N20802   7.466   8.330   4.963 -0.6442 -0.1731 -0.0051
  876MOL0     C20803   6.288   7.998   5.016 -0.3491 -0.4542 -0.1226
  876MOL0     C20804   6.170   7.922   4.997 -0.1010 -0.5303 -0.4071
  876MOL0     C20805   5.909   7.580   5.025  0.9831  0.1867  0.1916
  876MOL0     C20806   5.811   7.617   4.926  0.0208  0.4942  0.0357
  876MOL0     C20807   5.676   7.580   4.938 -0.5718 -0.9612 -0.6796
  876MOL0     C20808   5.629   7.503   5.040 -0.2187  0.0066 -0.7434
  876MOL0     O20809   5.501   7.459   5.066 -0.3253  0.5130 -0.4497
  876MOL0     C20810   5.437   7.365   4.975  0.2832  0.3655  0.0288
  876MOL0     C20811   5.394   7.242   5.046  0.1851  0.0549  0.0492
  876MOL0     C20812   5.291   7.161   4.969  0.0622 -0.6050 -0.0276
  876MOL0     C20813   5.275   7.033   5.046 -0.0790  0.5589  0.4663
  876MOL0     C20814   5.172   7.052   5.152 -1.0735  1.1848 -0.3352
  876MOL0     C20815   5.076   7.072   5.228 -0.2318 -0.6527  0.9928
  876MOL0     C20816   5.714   7.468   5.141  0.1184 -0.7225 -0.2633
  876MOL0     C20817   5.852   7.506   5.135 -1.2321  0.8354  0.4496
  876MOL0     C20818   5.939   7.467   5.254 -0.7492 -0.1809 -0.6980
  876MOL0     H20819   6.304   7.661   4.822 -0.9005 -0.7974  0.7388
  876MOL0     H20820   6.509   7.783   4.868 -0.1790 -1.3590  2.0119
  876MOL0     H20821   6.550   8.108   5.162 -1.0627  1.3923  0.1027
  876MOL0     H20822   6.499   8.214   5.035  0.5437  0.4173 -0.6304
  876MOL0     H20823   6.736   8.202   4.942  1.2363  0.6731 -0.0672
  876MOL0     H20824   6.695   8.276   5.101 -2.8839 -0.4572  0.4832
  876MOL0     H20825   6.810   8.117   5.227 -0.6842  0.3485  0.5643
  876MOL0     H20826   6.807   7.995   5.092 -2.2061  0.3889  0.3748
  876MOL0     H20827   6.969   8.115   4.960 -2.7242  0.0512 -1.5131
  876MOL0     H20828   6.950   8.263   5.045 -1.2304  0.5909  1.4329
  876MOL0     H20829   7.078   8.005   5.132 -1.7988  0.0772  0.3104
  876MOL0     H20830   7.037   8.121   5.259 -0.8384  0.2037  0.3089
  876MOL0     H20831   7.212   8.185   5.019  3.0469 -2.6052  0.0232
  876MOL0     H20832   7.192   8.289   5.162  0.6761  0.4774 -2.7777
  876MOL0     H20833   7.328   8.028   5.141 -1.8344  2.5824 -2.9686
  876MOL0     H20834   7.306   8.111   5.297 -2.8294  1.8798 -0.1775
  876MOL0     H20835   7.441   8.299   5.227  2.2222  0.6691  0.8073
  876MOL0     H20836   7.542   8.151   5.220 -1.7082 -3.2095  1.6595
  876MOL0     H20837   7.660   8.087   5.031  1.3209 -1.5328 -1.9357
  876MOL0     H20838   7.829   8.141   4.840 -0.9277  1.3429  2.4681
  876MOL0     H20839   7.818   8.318   4.824 -0.6839 -0.2369  3.3040
  876MOL0     H20840   7.698   8.102   4.636 -0.0489 -0.4544 -0.3656
  876MOL0     H20841   7.662   8.280   4.630  1.3709  2.6155  2.5896
  876MOL0     H20842   7.930   8.138   4.588  0.9383  0.5506 -2.5707
  876MOL0     H20843   7.815   8.184   4.469  0.0537  0.3649 -0.6289
  876MOL0     H20844   7.828   8.427   4.558 -1.5982 -0.9143 -1.8591
  876MOL0     H20845   7.957   8.363   4.661 -1.4854  1.8423  0.0238
  876MOL0     H20846   8.157   8.209   4.335  3.5297 -0.4575 -1.3787
  876MOL0     H20847   8.478   8.191   4.297  0.4162  0.3761 -0.0014
  876MOL0     H20848   8.339   8.083   4.309  1.1403 -1.9253  0.1456
  876MOL0     H20849   8.455   8.063   4.423  0.5953 -1.9389 -2.6550
  876MOL0     H20850   8.617   8.062   4.901  0.3477 -1.5394  1.0080
  876MOL0     H20851   8.833   8.019   4.989  1.1971  3.7941  1.5762
  876MOL0     H20852   9.166   7.942   4.718  3.2227  1.5820 -2.7101
  876MOL0     H20853   9.203   8.102   4.782 -0.5863 -0.7751  1.1735
  876MOL0     H20854   9.323   8.032   4.962  2.3764 -0.7460 -0.6624
  876MOL0     H20855   9.229   7.873   4.982  1.1310 -0.4035 -0.0920
  876MOL0     H20856   9.369   7.777   4.816  0.3926  2.2166 -2.9098
  876MOL0     H20857   9.481   7.865   4.933 -0.0116  1.8298  1.3545
  876MOL0     H20858   9.486   8.051   4.765  0.8946  0.6138 -1.2057
  876MOL0     H20859   9.397   7.942   4.656  0.9856  2.3067 -0.6061
  876MOL0     H20860   9.660   7.873   4.805  0.7968 -1.6766 -1.3988
  876MOL0     H20861   9.584   7.777   4.681 -1.5424  0.2775 -1.7886
  876MOL0     H20862   9.722   8.053   4.660 -1.9317  0.5046 -0.0929
  876MOL0     H20863   9.642   7.983   4.521 -1.2830 -0.4197  0.9618
  876MOL0     H20864   9.783   7.786   4.540 -0.3289 -1.7824  3.1765
  876MOL0     H20865   9.864   7.853   4.678  0.6059 -0.6333  0.3799
  876MOL0     H20866  10.014   7.895   4.483  0.5885  1.4497  0.6636
  876MOL0     H20867   9.955   8.039   4.559  2.4160  0.3580 -2.5357
  876MOL0     H20868   9.019   8.121   4.614  0.5513  0.0264  0.8055
  876MOL0     H20869   8.792   8.162   4.521  1.0371 -1.9296 -1.3716
  876MOL0     H20870   8.368   8.444   4.721  1.0672 -5.2875  1.1008
  876MOL0     H20871   8.138   8.510   4.639 -0.4818  0.1928  2.0661
  876MOL0     H20872   6.284   8.087   5.078  0.2135 -1.2773  1.1302
  876MOL0     H20873   6.078   7.971   5.027 -0.6248  0.2041 -2.9549
  876MOL0     H20874   5.833   7.676   4.838  0.0006 -0.9956 -0.9899
  876MOL0     H20875   5.603   7.627   4.874 -0.4500  0.8705  0.4405
  876MOL0     H20876   5.350   7.406   4.921 -0.2563 -1.6898 -0.8035
  876MOL0     H20877   5.504   7.340   4.892 -0.2104  0.6597 -0.4661
  876MOL0     H20878   5.345   7.276   5.138 -0.6970 -0.0760 -0.3641
  876MOL0     H20879   5.473   7.175   5.081  1.2016  0.8655 -0.6033
  876MOL0     H20880   5.200   7.221   4.975  0.7552  0.3504  2.2796
  876MOL0     H20881   5.332   7.150   4.868 -1.5619  0.2147 -0.8117
  876MOL0     H20882   5.364   6.984   5.084  0.3873 -1.2926 -2.6831
  876MOL0     H20883   5.242   6.963   4.969  0.8917  0.6554 -0.0479
  876MOL0     H20884   5.002   7.075   5.305  0.4934 -0.6130  1.6944
  876MOL0     H20885   5.677   7.414   5.227  0.0184  0.5095  0.4907
  876MOL0     H20886   5.896   7.390   5.319  0.6531 -1.7706 -1.5550
  876MOL0     H20887   6.031   7.421   5.217 -0.4047 -1.3015  1.3877
  876MOL0     H20888   5.961   7.553   5.318 -0.3741 -1.1701  0.5334
  877MOL0     O20889   8.556   8.171   8.148  0.3868 -0.1045 -0.5157
  877MOL0     C20890   8.493   8.093   8.078 -0.1042  0.0529  0.1149
  877MOL0     O20891   8.551   7.983   8.018  0.3357 -0.3412 -0.5080
  877MOL0     C20892   8.695   7.974   8.020  1.0031  0.1509 -0.6809
  877MOL0     C20893   8.761   7.881   8.111  0.1274 -0.3423 -0.3957
  877MOL0     C20894   8.896   7.860   8.116  0.2984 -0.3850  0.1923
  877MOL0     C20895   8.977   7.936   8.022  0.7305 -0.4141 -0.2365
  877MOL0     O20896   9.115   7.938   8.012 -0.3188  0.2628  0.3375
  877MOL0     C20897   9.184   7.902   8.130 -0.2569  0.7148 -0.1065
  877MOL0     C20898   9.322   7.934   8.129 -0.5052  0.6150  0.1872
  877MOL0     C20899   9.391   7.876   8.007 -0.5453  0.3568 -0.3198
  877MOL0     C20900   9.542   7.898   8.008 -0.6076 -0.6014  0.3494
  877MOL0     C20901   9.589   7.843   7.867 -0.2682  0.2413 -1.1033
  877MOL0     C20902   9.742   7.869   7.844  0.7413  0.7042 -0.5779
  877MOL0     C20903   9.804   7.748   7.759  0.5140 -0.8789  0.1349
  877MOL0     C20904   9.843   7.634   7.843 -0.2150 -1.2282  0.6700
  877MOL0     N20905   9.927   7.661   7.959 -0.5677 -0.3469  0.0754
  877MOL0     C20906   9.883   7.647   8.090  1.0959 -0.2904  0.3610
  877MOL0     C20907   9.996   7.643   8.167  0.3492 -0.1226  0.4148
  877MOL0     C20908  10.003   7.599   8.310  0.0792 -0.4654  0.5225
  877MOL0     C20909   9.981   7.449   8.329 -0.6161  0.5711  0.0713
  877MOL0     C20910   9.962   7.412   8.477  0.0797  0.3073  0.0294
  877MOL0     C20911   9.922   7.268   8.501  0.0500  0.2059  0.0119
  877MOL0     O20912  10.000   7.186   8.412 -0.5384  0.1211 -0.4245
  877MOL0     C20913  10.123   7.133   8.461 -0.0042 -0.5151  0.3488
  877MOL0     C20914  10.165   7.125   8.592 -0.0348 -0.6544 -0.2628
  877MOL0     C20915  10.285   7.061   8.622  0.4399 -0.1443  0.0813
  877MOL0     C20916  10.313   7.028   8.766 -0.3342  0.0858 -0.1419
  877MOL0     C20917  10.370   7.025   8.518  1.1092  0.9127  0.8146
  877MOL0     C20918  10.505   6.966   8.541  0.2587  0.4624  0.3073
  877MOL0     O20919  10.565   6.995   8.657 -0.1875  0.1076 -0.4950
  877MOL0     C20920  10.686   6.934   8.671 -0.0819  0.6852 -0.2959
  877MOL0     C20921  10.703   6.812   8.730 -0.3871  0.3985 -0.2004
  877MOL0     C20922  10.830   6.749   8.740  0.9506  0.8128  0.0569
  877MOL0     C20923  10.946   6.811   8.698  0.3693 -1.0614 -0.5051
  877MOL0     O20924  11.072   6.749   8.719  0.0683 -0.5056 -0.1032
  877MOL0     C20925  11.190   6.820   8.672  0.0133  0.6098 -0.8269
  877MOL0     C20926  11.306   6.734   8.649 -0.0612 -0.5039  0.3174
  877MOL0     C20927  11.348   6.668   8.776  0.0535  0.2209  0.0780
  877MOL0     C20928  11.475   6.590   8.781 -0.0094 -0.1031  1.3568
  877MOL0     C20929  11.455   6.451   8.715 -0.0691  0.0839  0.0867
  877MOL0     C20930  11.569   6.402   8.634  0.5344 -0.0909 -0.2083
  877MOL0     C20931  11.559   6.263   8.572  0.1147  0.2244 -0.4625
  877MOL0     C20932  11.678   6.232   8.474 -1.1951  1.2420 -0.6931
  877MOL0    Cl20933  11.619   6.104   8.363  0.6307  0.0116  0.0614
  877MOL0     C20934  10.922   6.942   8.653  0.2604  0.1894  0.4698
  877MOL0     C20935  10.798   6.998   8.622 -1.1598  1.0086  0.5011
  877MOL0     O20936  10.551   6.889   8.448 -0.1505 -0.2356  0.1571
  877MOL0     C20937  10.323   7.042   8.389 -0.1680 -0.1365  0.0800
  877MOL0     C20938  10.200   7.095   8.366 -0.1374  0.2500  0.6637
  877MOL0     N20939  10.110   7.659   8.081 -0.0339 -0.2815 -0.5778
  877MOL0     N20940  10.067   7.670   7.958 -0.4611  0.3768 -0.7673
  877MOL0     C20941   8.912   8.024   7.932 -0.2633  0.7503 -0.2087
  877MOL0     C20942   8.776   8.050   7.933 -0.6038  0.4734  0.2741
  877MOL0     C20943   8.347   8.117   8.029 -0.1841 -0.4150 -0.9133
  877MOL0     C20944   8.302   8.050   7.915  0.0813  0.7456 -0.3234
  877MOL0     C20945   8.168   8.072   7.873 -0.1282 -0.3243 -0.4553
  877MOL0     C20946   8.085   8.167   7.939 -0.4677 -0.0129 -0.4195
  877MOL0     O20947   7.957   8.204   7.907  0.1446 -0.5472 -0.1062
  877MOL0     C20948   7.888   8.154   7.788 -0.3955  0.1745 -0.6424
  877MOL0     C20949   7.739   8.165   7.829  0.5029  1.2662  0.0635
  877MOL0     C20950   7.694   8.312   7.841  0.7376  0.4247 -0.4783
  877MOL0     C20951   7.557   8.335   7.775 -0.3724  0.2548 -0.0596
  877MOL0     C20952   7.449   8.253   7.841 -0.2876 -0.7804 -0.3422
  877MOL0     C20953   7.352   8.203   7.893 -0.7565  0.3511  0.1306
  877MOL0     C20954   8.128   8.225   8.058 -0.6747 -0.9948  0.3708
  877MOL0     C20955   8.258   8.200   8.101  0.4107  0.4324 -0.4010
  877MOL0     C20956   8.306   8.297   8.210  0.5395 -0.5068  0.4705
  877MOL0     H20957   8.697   7.828   8.181  0.6904 -0.2413  0.2013
  877MOL0     H20958   8.942   7.797   8.191 -1.8309 -0.4282  1.5490
  877MOL0     H20959   9.186   7.794   8.146 -0.9718  1.0396  2.8303
  877MOL0     H20960   9.143   7.946   8.222 -0.2839  0.9864 -0.2487
  877MOL0     H20961   9.334   8.042   8.114  0.1931  0.3750 -1.0990
  877MOL0     H20962   9.373   7.913   8.223 -2.2538 -3.4318  0.4242
  877MOL0     H20963   9.369   7.769   8.005  2.3382 -0.6171  4.3298
  877MOL0     H20964   9.352   7.918   7.914  1.4912  0.5288 -1.1556
  877MOL0     H20965   9.576   8.002   8.008  4.0367 -1.6815 -4.1958
  877MOL0     H20966   9.594   7.847   8.090  1.2672  0.2935 -0.2081
  877MOL0     H20967   9.536   7.891   7.784 -0.4799  0.4841 -0.8317
  877MOL0     H20968   9.568   7.736   7.863 -0.1284  0.0140  1.8927
  877MOL0     H20969   9.761   7.956   7.780  0.2033  0.5987 -0.8915
  877MOL0     H20970   9.786   7.879   7.943  0.0052  0.0041 -0.1675
  877MOL0     H20971   9.897   7.784   7.714 -0.7210  0.0082 -1.8697
  877MOL0     H20972   9.732   7.723   7.681  1.5000 -2.4620 -0.3011
  877MOL0     H20973   9.750   7.591   7.884  0.3119 -1.4617  1.6475
  877MOL0     H20974   9.895   7.559   7.782  0.9768 -2.5705  3.1783
  877MOL0     H20975   9.781   7.627   8.120  0.9593 -1.9763 -1.0826
  877MOL0     H20976   9.931   7.653   8.373  1.5701  1.2082  0.8721
  877MOL0     H20977  10.099   7.640   8.344 -0.0032 -0.0086  0.2161
  877MOL0     H20978   9.900   7.409   8.268  0.5049 -2.6310  0.4782
  877MOL0     H20979  10.073   7.402   8.295  0.4970  1.4456  1.7092
  877MOL0     H20980  10.052   7.440   8.533  0.5973  2.3356 -1.6531
  877MOL0     H20981   9.879   7.469   8.519  0.1301 -0.9790  1.9537
  877MOL0     H20982   9.935   7.251   8.609 -1.6172 -2.3851 -0.1198
  877MOL0     H20983   9.818   7.249   8.474  0.9930 -3.1597 -1.8746
  877MOL0     H20984  10.092   7.146   8.669 -0.8932 -0.6153 -1.0801
  877MOL0     H20985  10.389   7.093   8.809  0.6013 -0.5055 -0.8552
  877MOL0     H20986  10.352   6.927   8.778  1.5661  1.0412  2.8524
  877MOL0     H20987  10.219   7.038   8.822 -1.1718  0.0625 -1.4839
  877MOL0     H20988  10.619   6.751   8.762  1.8849 -2.0227  1.5696
  877MOL0     H20989  10.835   6.648   8.778  0.7848  0.4064 -0.9495
  877MOL0     H20990  11.158   6.870   8.580  0.2950  1.0430 -0.6906
  877MOL0     H20991  11.211   6.901   8.742  0.9204 -0.4898  0.2225
  877MOL0     H20992  11.299   6.657   8.572 -1.1493 -0.1940  0.0824
  877MOL0     H20993  11.380   6.803   8.608 -1.3174 -0.8795 -2.8312
  877MOL0     H20994  11.267   6.600   8.804  1.5384 -1.2990  0.9072
  877MOL0     H20995  11.360   6.743   8.855  1.6181  1.5442 -1.3218
  877MOL0     H20996  11.514   6.577   8.882 -1.9222 -0.7969  2.0485
  877MOL0     H20997  11.555   6.651   8.738 -0.4706  1.2314  2.3471
  877MOL0     H20998  11.439   6.379   8.796  1.0932 -0.4294 -0.1131
  877MOL0     H20999  11.360   6.450   8.661 -0.0257 -1.5365 -0.0101
  877MOL0     H21000  11.655   6.408   8.702 -0.0679  2.4008  0.4593
  877MOL0     H21001  11.581   6.485   8.563 -1.9850  2.0640  1.6729
  877MOL0     H21002  11.466   6.265   8.513  1.2775  0.6806 -2.3758
  877MOL0     H21003  11.550   6.184   8.647  2.0122  0.2814 -0.1259
  877MOL0     H21004  11.759   6.190   8.535  0.2957  1.9600 -2.0927
  877MOL0     H21005  11.713   6.324   8.426 -0.6515  1.2909 -0.2066
  877MOL0     H21006  11.011   6.994   8.618  0.3091  1.1479  1.9626
  877MOL0     H21007  10.786   7.088   8.563 -1.9223 -0.8907 -2.4318
  877MOL0     H21008  10.385   7.012   8.305  3.2327 -1.1216  2.7362
  877MOL0     H21009  10.175   7.105   8.261 -2.1020 -3.3680  0.6287
  877MOL0     H21010   8.966   8.079   7.856 -0.2762 -1.5742 -2.0188
  877MOL0     H21011   8.732   8.121   7.863 -0.1548 -0.6756 -1.2226
  877MOL0     H21012   8.365   7.993   7.848 -1.0665 -0.5040 -0.3687
  877MOL0     H21013   8.137   8.024   7.782 -2.5262  0.0340  0.1136
  877MOL0     H21014   7.917   8.216   7.702 -0.0299 -1.5931 -1.8443
  877MOL0     H21015   7.915   8.052   7.760  2.6125  1.3578 -2.5837
  877MOL0     H21016   7.733   8.106   7.921  5.1412  0.2866 -0.0153
  877MOL0     H21017   7.672   8.120   7.754  0.4000 -1.5527  1.7002
  877MOL0     H21018   7.676   8.334   7.947  3.3186 -1.8362  0.5435
  877MOL0     H21019   7.771   8.378   7.798 -0.6401  1.7197 -1.0688
  877MOL0     H21020   7.569   8.297   7.673 -0.1656 -3.2119  1.0994
  877MOL0     H21021   7.530   8.441   7.783  0.5983  0.5428 -0.4669
  877MOL0     H21022   7.256   8.170   7.928 -0.9468  0.3827 -0.3520
  877MOL0     H21023   8.060   8.278   8.124 -0.7269  0.3884 -0.7369
  877MOL0     H21024   8.217   8.343   8.255 -1.0701 -1.5284 -1.4668
  877MOL0     H21025   8.358   8.236   8.284  1.1098 -1.9006 -1.0273
  877MOL0     H21026   8.369   8.373   8.163  0.7125 -0.4027  0.8664
  878MOL0     O21027   3.427   3.470   0.568  0.0153 -0.1243 -0.1387
  878MOL0     C21028   3.331   3.526   0.511 -0.2106  1.0991 -0.2059
  878MOL0     O21029   3.341   3.632   0.420 -0.5278  0.2286  0.3828
  878MOL0     C21030   3.461   3.646   0.346 -0.0569  0.0588  0.1371
  878MOL0     C21031   3.521   3.532   0.291 -0.1960 -0.5577 -0.1417
  878MOL0     C21032   3.631   3.543   0.210  0.3288  1.0628  0.6051
  878MOL0     C21033   3.670   3.674   0.168 -0.4202  0.1518 -0.5744
  878MOL0     O21034   3.778   3.686   0.096 -0.5518 -0.5596  0.8582
  878MOL0     C21035   3.897   3.690   0.172  0.5208  0.1611 -0.3109
  878MOL0     C21036   4.011   3.741   0.093 -0.3971 -0.4705  0.4517
  878MOL0     C21037   4.126   3.801   0.186  0.2114  0.3136 -0.4248
  878MOL0     C21038   4.201   3.681   0.251 -0.9815  0.1503  0.7417
  878MOL0     C21039   4.325   3.741   0.314 -0.7901  0.5048 -0.3295
  878MOL0     C21040   4.292   3.803   0.445 -0.1931  0.1453 -0.3163
  878MOL0     C21041   4.400   3.901   0.489 -0.7367  0.2630  0.1924
  878MOL0     C21042   4.551   3.856   0.484 -0.1256  0.3776 -1.1179
  878MOL0     N21043   4.649   3.963   0.496  0.6112  0.0825 -0.7229
  878MOL0     C21044   4.725   3.977   0.614  0.0290  0.2726  0.6401
  878MOL0     C21045   4.815   4.072   0.574  0.2568  0.6849  0.3771
  878MOL0     C21046   4.931   4.130   0.652 -0.3254  0.5347 -0.6005
  878MOL0     C21047   5.065   4.069   0.598  0.8037 -0.8935  0.0759
  878MOL0     C21048   5.183   4.137   0.668 -0.7697 -0.0779 -0.2668
  878MOL0     C21049   5.213   4.064   0.799 -0.3342 -0.1410 -0.0052
  878MOL0     O21050   5.249   3.927   0.777  0.8112  0.3767 -0.6946
  878MOL0     C21051   5.368   3.893   0.728 -0.1316 -0.6510 -0.1740
  878MOL0     C21052   5.367   3.779   0.656 -1.3959  0.4079 -0.1088
  878MOL0     C21053   5.491   3.724   0.610 -0.2070 -0.9873 -0.2102
  878MOL0     C21054   5.488   3.588   0.559  0.4108 -0.3790  0.4307
  878MOL0     C21055   5.612   3.799   0.630  0.7661  0.3367 -0.0687
  878MOL0     C21056   5.738   3.757   0.571  0.2499 -0.5464  0.3100
  878MOL0     O21057   5.820   3.855   0.531 -0.4576  0.0970 -0.2754
  878MOL0     C21058   5.951   3.833   0.508 -0.5123  0.5579 -0.3101
  878MOL0     C21059   5.980   3.793   0.382 -0.4627  0.2234  0.7285
  878MOL0     C21060   6.116   3.787   0.333  0.8379  0.2963 -0.2910
  878MOL0     C21061   6.219   3.790   0.420 -0.1275 -0.0436  0.1652
  878MOL0     O21062   6.346   3.768   0.368  0.1343  0.6457  0.0796
  878MOL0     C21063   6.461   3.775   0.459  0.0615  0.7758  0.6716
  878MOL0     C21064   6.574   3.711   0.383  0.1549  0.6858 -0.1547
  878MOL0     C21065   6.708   3.700   0.465  1.6777 -0.0886 -0.2989
  878MOL0     C21066   6.809   3.627   0.381 -0.8106  0.1649 -0.2327
  878MOL0     C21067   6.947   3.618   0.459  0.2386 -0.4199  0.4205
  878MOL0     C21068   6.931   3.502   0.561 -0.2708 -0.6366 -0.6063
  878MOL0     C21069   7.063   3.469   0.624 -0.0217  0.2531 -0.1620
  878MOL0     C21070   7.045   3.397   0.760 -0.4627  0.2499  0.1161
  878MOL0    Cl21071   7.210   3.425   0.838 -0.0682  0.3284 -0.5576
  878MOL0     C21072   6.192   3.820   0.558 -0.1231  0.3999  0.1374
  878MOL0     C21073   6.062   3.832   0.602  0.8580 -0.9792  0.2165
  878MOL0     O21074   5.764   3.640   0.573  0.7266  0.1450 -0.7391
  878MOL0     C21075   5.610   3.919   0.690 -0.0489  0.3860  0.8136
  878MOL0     C21076   5.485   3.974   0.738  0.3047  0.6771 -0.1726
  878MOL0     N21077   4.794   4.105   0.439  0.4154 -0.0073 -0.8623
  878MOL0     N21078   4.696   4.036   0.391 -0.6080  0.1862 -0.7164
  878MOL0     C21079   3.600   3.787   0.205  0.3889  0.2686 -0.0485
  878MOL0     C21080   3.496   3.774   0.299 -0.1665  1.2335 -0.0398
  878MOL0     C21081   3.191   3.493   0.554 -0.3905  0.0128  0.0428
  878MOL0     C21082   3.089   3.584   0.528  0.4318 -0.4401 -0.4458
  878MOL0     C21083   2.952   3.546   0.554  0.3515  0.9665 -0.2054
  878MOL0     C21084   2.915   3.424   0.614 -0.1061 -0.1181 -0.2639
  878MOL0     O21085   2.785   3.397   0.651  0.2262 -0.0707 -0.0927
  878MOL0     C21086   2.750   3.292   0.735 -0.3833 -0.1166  0.5495
  878MOL0     C21087   2.619   3.324   0.800  0.4440 -0.4898 -0.1838
  878MOL0     C21088   2.496   3.271   0.737 -0.0794 -0.3381 -0.0585
  878MOL0     C21089   2.371   3.334   0.781 -0.2776  0.7138 -0.5197
  878MOL0     C21090   2.355   3.311   0.928  0.8947  0.2700 -0.9875
  878MOL0     C21091   2.331   3.282   1.049 -0.1581 -1.0162  0.1698
  878MOL0     C21092   3.025   3.336   0.640 -0.7839 -0.0637 -0.0572
  878MOL0     C21093   3.163   3.363   0.602 -0.1796 -0.3375  0.2345
  878MOL0     C21094   3.254   3.244   0.599 -0.3715  0.2909  0.9125
  878MOL0     H21095   3.489   3.432   0.319 -1.1927  0.2945  1.9774
  878MOL0     H21096   3.675   3.455   0.165 -0.2920  0.6380  0.8233
  878MOL0     H21097   3.924   3.590   0.208  0.7436 -0.5470 -2.3279
  878MOL0     H21098   3.881   3.748   0.263  0.9909  1.0796 -0.8075
  878MOL0     H21099   4.050   3.660   0.030  0.8107  0.9198 -0.6631
  878MOL0     H21100   3.976   3.823   0.030 -0.6320 -0.2842  0.8281
  878MOL0     H21101   4.198   3.870   0.142  0.9475  1.1235  1.9131
  878MOL0     H21102   4.079   3.850   0.271 -1.9660 -3.2830  0.6911
  878MOL0     H21103   4.145   3.620   0.323 -3.5525  0.8141 -0.5509
  878MOL0     H21104   4.229   3.609   0.173 -2.3788 -0.4712  0.7714
  878MOL0     H21105   4.373   3.809   0.242  0.5500  0.3137  0.3428
  878MOL0     H21106   4.393   3.657   0.329 -1.4641  0.2537  1.5647
  878MOL0     H21107   4.199   3.859   0.456 -1.3972 -2.0538  1.3467
  878MOL0     H21108   4.292   3.727   0.524  1.3140 -1.3001 -1.6337
  878MOL0     H21109   4.370   3.939   0.588 -0.2712 -0.3124  0.5639
  878MOL0     H21110   4.392   3.985   0.419 -1.9139 -0.8071 -1.0172
  878MOL0     H21111   4.560   3.791   0.571 -2.9935 -0.4287 -1.3279
  878MOL0     H21112   4.579   3.805   0.392 -3.3865  1.2318 -2.7029
  878MOL0     H21113   4.721   3.921   0.707 -1.6699 -1.1522 -0.2552
  878MOL0     H21114   4.915   4.111   0.758 -2.9668 -1.6170 -1.2953
  878MOL0     H21115   4.946   4.237   0.636 -0.6346  0.7485  0.4923
  878MOL0     H21116   5.058   3.964   0.628  1.3361 -1.1110 -0.5465
  878MOL0     H21117   5.069   4.087   0.490 -0.7219  0.7445  0.2454
  878MOL0     H21118   5.274   4.140   0.607 -0.0046 -0.9923  0.7777
  878MOL0     H21119   5.161   4.240   0.697  1.1931  0.1324  0.6425
  878MOL0     H21120   5.286   4.118   0.859 -1.2777  0.7703  0.3680
  878MOL0     H21121   5.125   4.070   0.864 -1.5496 -1.1327 -1.4620
  878MOL0     H21122   5.274   3.724   0.649 -1.2181 -0.0412  0.8503
  878MOL0     H21123   5.387   3.545   0.561  0.0373  0.4325 -0.4922
  878MOL0     H21124   5.546   3.521   0.623  0.7037  1.4594  2.2027
  878MOL0     H21125   5.521   3.596   0.456  1.4825  2.8264  0.9003
  878MOL0     H21126   5.911   3.781   0.299  0.3598  2.4522 -0.3775
  878MOL0     H21127   6.140   3.767   0.230  1.7077  1.0779 -0.2441
  878MOL0     H21128   6.475   3.880   0.486 -0.9339  1.7329 -2.1507
  878MOL0     H21129   6.442   3.726   0.555 -1.7736 -0.4946 -0.2839
  878MOL0     H21130   6.548   3.619   0.330  1.3405  0.2285  0.0121
  878MOL0     H21131   6.607   3.759   0.290  1.0651 -0.0173 -0.2131
  878MOL0     H21132   6.689   3.644   0.557 -2.3560 -1.2088 -1.5599
  878MOL0     H21133   6.752   3.799   0.477  1.6005  0.0679 -1.2260
  878MOL0     H21134   6.831   3.681   0.288 -0.6219 -1.0607 -0.9214
  878MOL0     H21135   6.763   3.530   0.362 -1.2879  0.1634  0.8708
  878MOL0     H21136   7.027   3.590   0.389  0.2525 -2.4340  1.1825
  878MOL0     H21137   6.966   3.712   0.511 -3.1063  1.8745 -2.1137
  878MOL0     H21138   6.902   3.405   0.520  0.3524 -0.7676 -0.7526
  878MOL0     H21139   6.872   3.536   0.647  2.3811  1.3277  0.5651
  878MOL0     H21140   7.118   3.563   0.638  0.4252  0.1994 -1.4568
  878MOL0     H21141   7.122   3.408   0.555  0.2978  1.3917 -0.9237
  878MOL0     H21142   7.011   3.294   0.752 -2.5479  0.9326 -0.7138
  878MOL0     H21143   6.975   3.459   0.817 -0.9286 -0.6468  0.5250
  878MOL0     H21144   6.275   3.837   0.626 -0.6722 -0.9746  1.2161
  878MOL0     H21145   6.046   3.871   0.702 -0.4209 -0.3265 -0.2110
  878MOL0     H21146   5.701   3.978   0.690  1.0512 -1.2371 -0.3442
  878MOL0     H21147   5.475   4.072   0.782 -2.0674  0.2369  0.3867
  878MOL0     H21148   3.622   3.886   0.167  0.5788 -1.2745 -4.5791
  878MOL0     H21149   3.451   3.861   0.346  0.4000  1.5494 -0.0640
  878MOL0     H21150   3.123   3.680   0.490  0.9746 -0.2753  0.4383
  878MOL0     H21151   2.875   3.620   0.537 -0.1371  0.1931 -1.4836
  878MOL0     H21152   2.737   3.205   0.670 -0.0385  0.2170  0.0327
  878MOL0     H21153   2.828   3.283   0.811 -0.8129  2.4950  1.4026
  878MOL0     H21154   2.607   3.430   0.824 -0.7615 -0.8329  0.8685
  878MOL0     H21155   2.631   3.266   0.892  2.5234 -2.0710 -1.3525
  878MOL0     H21156   2.499   3.283   0.628  0.6541 -2.0018 -0.2594
  878MOL0     H21157   2.493   3.163   0.752  0.0906 -0.6166 -1.8570
  878MOL0     H21158   2.279   3.300   0.732  0.1114  1.2868 -1.6783
  878MOL0     H21159   2.381   3.439   0.752  0.3906  0.7276 -0.2422
  878MOL0     H21160   2.316   3.263   1.153  3.2700  1.3257  1.2269
  878MOL0     H21161   3.004   3.242   0.689 -1.0706  0.5387  1.0117
  878MOL0     H21162   3.291   3.235   0.497 -0.7990  1.2534  0.6719
  878MOL0     H21163   3.339   3.240   0.669 -1.6530 -0.0225  2.5137
  878MOL0     H21164   3.195   3.152   0.608  0.2517 -0.0545  1.6938
  879MOL0     O21165   2.675  10.808  11.127  0.3171  0.3960 -0.1692
  879MOL0     C21166   2.794  10.801  11.113 -0.0057  0.0788 -0.4746
  879MOL0     O21167   2.865  10.691  11.121  0.1675 -0.0896 -0.0709
  879MOL0     C21168   2.809  10.565  11.105 -0.4146  0.5500 -1.4677
  879MOL0     C21169   2.709  10.531  11.014  0.2485 -0.2826 -0.0792
  879MOL0     C21170   2.647  10.402  11.015  0.8226 -0.2379  0.5330
  879MOL0     C21171   2.694  10.303  11.101  0.1041 -0.0438  0.1519
  879MOL0     O21172   2.656  10.167  11.070 -0.0032 -0.0311  0.6786
  879MOL0     C21173   2.668  10.066  11.175  0.2087 -0.6973  0.2647
  879MOL0     C21174   2.672   9.920  11.124 -0.4408 -0.1545 -0.1264
  879MOL0     C21175   2.715   9.835  11.242 -0.2894  0.8736 -0.7676
  879MOL0     C21176   2.723   9.687  11.218 -0.0828 -0.1675 -0.3109
  879MOL0     C21177   2.867   9.634  11.209 -0.5936  0.3030 -0.5807
  879MOL0     C21178   2.913   9.607  11.354  1.1558  0.2084  0.9589
  879MOL0     C21179   3.054   9.557  11.350  0.2449 -0.6537 -0.4384
  879MOL0     C21180   3.166   9.649  11.294 -0.7671  0.4426 -0.4896
  879MOL0     N21181   3.282   9.574  11.258 -0.2605 -0.6116  0.4667
  879MOL0     C21182   3.372   9.510  11.349  0.1036 -0.2722 -0.3898
  879MOL0     C21183   3.462   9.466  11.265 -0.4410  0.5473 -0.3052
  879MOL0     C21184   3.581   9.381  11.296  0.6936 -0.2036 -0.1135
  879MOL0     C21185   3.709   9.437  11.235 -0.7340  0.8200 -0.7743
  879MOL0     C21186   3.828   9.336  11.257  0.5680 -0.1126  0.5168
  879MOL0     C21187   3.958   9.363  11.197  0.2894 -0.0293  0.2132
  879MOL0     O21188   4.048   9.260  11.235 -0.6448 -0.3680 -0.0727
  879MOL0     C21189   4.183   9.284  11.206  0.1194  0.0275 -0.6549
  879MOL0     C21190   4.237   9.380  11.121  0.1885 -0.3874 -0.1367
  879MOL0     C21191   4.373   9.383  11.095  0.1374  0.4271  0.1149
  879MOL0     C21192   4.423   9.503  11.010  0.5214 -0.4445  0.0364
  879MOL0     C21193   4.457   9.295  11.170  0.4687 -0.3247 -0.2743
  879MOL0     C21194   4.611   9.313  11.171  0.4138 -0.7268 -0.3896
  879MOL0     O21195   4.677   9.200  11.205 -0.5940  0.1476  0.1086
  879MOL0     C21196   4.804   9.194  11.239 -0.5253 -0.7330 -0.4257
  879MOL0     C21197   4.911   9.245  11.165 -0.0026  1.1944 -0.5785
  879MOL0     C21198   5.044   9.235  11.200  1.1083 -0.0053  0.1990
  879MOL0     C21199   5.078   9.167  11.319 -0.9065 -0.3675  0.1977
  879MOL0     O21200   5.202   9.167  11.371 -0.1670 -0.4687  0.2302
  879MOL0     C21201   5.309   9.175  11.274 -0.0427 -0.6239 -0.0766
  879MOL0     C21202   5.449   9.162  11.327  0.2571  0.2703  0.8833
  879MOL0     C21203   5.490   9.284  11.412 -0.1479 -0.5432  0.1370
  879MOL0     C21204   5.624   9.266  11.475 -0.7834  0.1093 -0.1459
  879MOL0     C21205   5.684   9.378  11.571 -0.0009  0.3365 -0.2542
  879MOL0     C21206   5.814   9.338  11.626 -0.2214  0.3274  0.7853
  879MOL0     C21207   5.887   9.465  11.691 -0.2325  0.0474  0.1589
  879MOL0     C21208   6.026   9.433  11.745  0.4829  0.4641 -0.0960
  879MOL0    Cl21209   6.135   9.411  11.615  0.0724 -0.2951  0.2403
  879MOL0     C21210   4.971   9.123  11.397  0.3653  0.7640 -0.5761
  879MOL0     C21211   4.834   9.141  11.364  0.7746  0.3199 -1.0201
  879MOL0     O21212   4.657   9.423  11.137 -0.3918  0.1302 -0.1511
  879MOL0     C21213   4.396   9.196  11.253  0.6685 -0.0440  0.5753
  879MOL0     C21214   4.262   9.191  11.264 -0.3505  0.3572  0.1798
  879MOL0     N21215   3.429   9.486  11.132  0.0583  0.5215 -0.2860
  879MOL0     N21216   3.328   9.573  11.132 -0.1721  0.3520  0.7117
  879MOL0     C21217   2.795  10.339  11.189 -0.4666  1.0897  0.3102
  879MOL0     C21218   2.848  10.468  11.197 -0.0590  0.0564 -0.7553
  879MOL0     C21219   2.867  10.922  11.098 -0.1564 -0.2011 -0.2078
  879MOL0     C21220   2.801  11.023  11.023 -0.0972  0.1103  0.8410
  879MOL0     C21221   2.863  11.136  10.987 -0.2669 -0.6653 -0.5691
  879MOL0     C21222   2.988  11.166  11.038  0.0062  0.3456  0.1097
  879MOL0     O21223   3.062  11.277  11.018  0.1194  0.2127  0.1048
  879MOL0     C21224   3.001  11.389  10.955  0.0846 -0.4104 -0.7845
  879MOL0     C21225   2.901  11.462  11.049 -0.0574  0.2891 -0.7818
  879MOL0     C21226   2.923  11.457  11.201 -0.6636  0.1845  0.2269
  879MOL0     C21227   3.050  11.533  11.238  0.7917 -1.0111 -0.5208
  879MOL0     C21228   3.028  11.685  11.232 -0.5138  0.7822 -0.5775
  879MOL0     C21229   3.014  11.805  11.233  0.5310 -0.0346  0.0029
  879MOL0     C21230   3.057  11.069  11.115  0.3742  0.4616 -0.4663
  879MOL0     C21231   3.005  10.943  11.134  1.1927 -0.3974 -0.1666
  879MOL0     C21232   3.094  10.846  11.205  1.1830 -1.1812  0.0896
  879MOL0     H21233   2.679  10.610  10.946  0.4902  0.0644  0.2200
  879MOL0     H21234   2.550  10.389  10.967  0.5268 -3.7131  1.7447
  879MOL0     H21235   2.584  10.087  11.242 -0.8812  0.3495 -1.3727
  879MOL0     H21236   2.764  10.074  11.227  0.6525  1.1192 -0.7570
  879MOL0     H21237   2.574   9.886  11.090 -0.8289 -1.9582  2.4538
  879MOL0     H21238   2.753   9.900  11.053 -0.3203  0.1675 -0.0809
  879MOL0     H21239   2.806   9.872  11.289 -0.9545 -1.1899  2.4589
  879MOL0     H21240   2.648   9.851  11.326  1.1386  0.3883  0.5135
  879MOL0     H21241   2.673   9.623  11.291 -0.8369  0.9710  0.1970
  879MOL0     H21242   2.678   9.672  11.120 -1.6244 -0.0388  0.3440
  879MOL0     H21243   2.938   9.693  11.150  0.0698  1.1219  0.9711
  879MOL0     H21244   2.866   9.539  11.155 -0.7555 -0.1364  0.1731
  879MOL0     H21245   2.907   9.700  11.411 -0.6072  1.2298 -0.7981
  879MOL0     H21246   2.853   9.525  11.393 -0.9920  1.0120 -0.5057
  879MOL0     H21247   3.049   9.474  11.279  0.7970 -1.2476  0.1908
  879MOL0     H21248   3.082   9.515  11.448 -0.0067 -3.2795 -1.4150
  879MOL0     H21249   3.137   9.700  11.202  2.9977 -0.4169 -2.3445
  879MOL0     H21250   3.190   9.728  11.365 -0.3339  1.6052 -1.8845
  879MOL0     H21251   3.357   9.492  11.455 -0.3662 -0.1464 -0.4305
  879MOL0     H21252   3.554   9.279  11.267 -0.9080  0.6607 -1.9257
  879MOL0     H21253   3.602   9.394  11.402  3.8076 -2.6598 -0.3025
  879MOL0     H21254   3.689   9.448  11.128 -1.6942  0.6193 -0.6237
  879MOL0     H21255   3.724   9.540  11.268 -2.0483  0.7114  0.2708
  879MOL0     H21256   3.856   9.328  11.362 -0.9283  0.0750  0.9534
  879MOL0     H21257   3.793   9.239  11.220 -1.7984  1.4213 -1.6275
  879MOL0     H21258   3.939   9.356  11.089  0.7571  0.8603  0.0594
  879MOL0     H21259   3.986   9.466  11.222 -2.2361  1.2706 -1.8279
  879MOL0     H21260   4.178   9.460  11.077  0.4631  0.2057  0.5611
  879MOL0     H21261   4.461   9.578  11.079  0.1918 -1.0099  0.8573
  879MOL0     H21262   4.344   9.558  10.959  0.6792  1.5343  1.7918
  879MOL0     H21263   4.507   9.477  10.945  1.0408  1.6571 -0.1947
  879MOL0     H21264   4.894   9.280  11.063 -1.7107 -2.8671 -1.8637
  879MOL0     H21265   5.117   9.290  11.141 -0.2178  2.2132  0.5190
  879MOL0     H21266   5.309   9.098  11.196  1.1214  2.6355 -3.6518
  879MOL0     H21267   5.310   9.274  11.227  1.5756  0.5983  2.3556
  879MOL0     H21268   5.447   9.070  11.386  1.3560 -1.2773 -1.3579
  879MOL0     H21269   5.523   9.144  11.249  1.4831  0.2580  2.0077
  879MOL0     H21270   5.421   9.294  11.497  1.7348  3.3039  1.4350
  879MOL0     H21271   5.483   9.375  11.351 -1.8636 -1.8846 -1.7861
  879MOL0     H21272   5.698   9.246  11.397  0.5515 -3.1948  1.7587
  879MOL0     H21273   5.620   9.178  11.539  0.5759  0.8727  1.0347
  879MOL0     H21274   5.694   9.464  11.505 -4.5967  1.8959  0.6963
  879MOL0     H21275   5.607   9.400  11.646  0.0519  0.0752 -0.1235
  879MOL0     H21276   5.877   9.288  11.552 -3.5127 -0.2661 -1.9088
  879MOL0     H21277   5.788   9.261  11.699 -1.6089 -2.3609 -2.2852
  879MOL0     H21278   5.823   9.517  11.763 -1.8773 -0.9603 -0.5329
  879MOL0     H21279   5.905   9.541  11.614 -0.3231 -1.1648 -1.0934
  879MOL0     H21280   6.028   9.336  11.795  1.5730 -0.1993 -1.3656
  879MOL0     H21281   6.060   9.514  11.811 -0.0586 -0.8544  1.8829
  879MOL0     H21282   4.994   9.081  11.494  2.0318  1.3924 -0.6701
  879MOL0     H21283   4.750   9.091  11.413  0.2740  1.2433 -0.9196
  879MOL0     H21284   4.456   9.123  11.306 -0.3027 -1.0690  0.2939
  879MOL0     H21285   4.214   9.115  11.324 -3.1805  1.6587 -0.3019
  879MOL0     H21286   2.828  10.263  11.259  0.5118  0.5649 -0.6947
  879MOL0     H21287   2.928  10.487  11.267 -0.8931  0.3022  0.1488
  879MOL0     H21288   2.700  11.004  10.989 -0.3055 -1.4399  2.2350
  879MOL0     H21289   2.796  11.203  10.936  0.6101  1.9624  1.5100
  879MOL0     H21290   3.083  11.457  10.931  0.5568 -0.3669  0.7879
  879MOL0     H21291   2.951  11.364  10.861 -1.8561  2.9146 -0.7767
  879MOL0     H21292   2.807  11.412  11.026  0.3785 -0.9690  0.0878
  879MOL0     H21293   2.895  11.567  11.018 -0.4534  0.8173  0.9434
  879MOL0     H21294   2.837  11.499  11.254 -0.4205  0.0122  0.7741
  879MOL0     H21295   2.938  11.353  11.233 -1.4065 -1.0893 -3.1266
  879MOL0     H21296   3.135  11.512  11.172  3.4425 -1.3504  2.6896
  879MOL0     H21297   3.079  11.495  11.337 -1.2156 -1.4206 -0.0524
  879MOL0     H21298   3.011  11.912  11.226  0.8946  0.0033  0.4000
  879MOL0     H21299   3.155  11.089  11.156 -0.4860 -0.9693  2.5979
  879MOL0     H21300   3.188  10.887  11.244  3.0281 -1.3695 -3.6853
  879MOL0     H21301   3.044  10.805  11.293  1.4128  0.7711  1.2016
  879MOL0     H21302   3.120  10.764  11.138  1.7482 -0.8183 -0.1398
  880MOL0     O21303   0.690  10.452   7.150 -0.1297  0.5380  0.5512
  880MOL0     C21304   0.648  10.479   7.261  0.6868 -0.0884  0.3080
  880MOL0     O21305   0.724  10.515   7.365  0.4969 -0.0542 -0.4715
  880MOL0     C21306   0.860  10.505   7.342  0.4851 -0.3596 -1.0636
  880MOL0     C21307   0.922  10.602   7.263 -0.7558  0.8407 -0.6658
  880MOL0     C21308   1.066  10.608   7.256  0.4277 -0.3109 -0.7174
  880MOL0     C21309   1.147  10.514   7.329  0.6116  0.3575 -0.2844
  880MOL0     O21310   1.284  10.530   7.318  0.6865  0.1528  0.4434
  880MOL0     C21311   1.370  10.426   7.364 -0.3036  0.7126  0.1691
  880MOL0     C21312   1.521  10.451   7.310  0.7147  0.7643 -0.0984
  880MOL0     C21313   1.539  10.464   7.155 -0.2672  0.2697 -0.2733
  880MOL0     C21314   1.654  10.566   7.118  0.3279 -0.2007  0.7091
  880MOL0     C21315   1.671  10.569   6.965 -0.1451 -0.8457 -0.0557
  880MOL0     C21316   1.776  10.673   6.911  0.2028 -0.7316 -0.9224
  880MOL0     C21317   1.805  10.641   6.767 -0.1130  0.8443  0.3530
  880MOL0     C21318   1.852  10.762   6.687 -0.2523  0.3121 -0.5510
  880MOL0     N21319   1.991  10.793   6.723  0.5698  0.1906  0.0351
  880MOL0     C21320   2.106  10.752   6.658 -0.1615 -0.7545 -0.2668
  880MOL0     C21321   2.204  10.806   6.729  0.4713 -0.1869  0.9560
  880MOL0     C21322   2.355  10.774   6.703  0.6334  0.0074 -0.3041
  880MOL0     C21323   2.445  10.872   6.777 -0.5795 -0.1182 -0.2222
  880MOL0     C21324   2.578  10.883   6.699 -0.4544 -0.2409 -0.7541
  880MOL0     C21325   2.703  10.911   6.798 -1.2478 -0.0005  0.4251
  880MOL0     O21326   2.741  11.047   6.814  0.5519  0.3654 -0.9537
  880MOL0     C21327   2.857  11.084   6.881  1.3124 -0.1589 -0.0318
  880MOL0     C21328   2.945  10.991   6.943 -0.1593  0.1857  0.2611
  880MOL0     C21329   3.063  11.035   7.001  0.4525  0.2523 -0.3134
  880MOL0     C21330   3.146  10.920   7.068 -0.2720 -0.2226  0.7330
  880MOL0     C21331   3.109  11.172   6.992 -0.2521  0.3253  0.1432
  880MOL0     C21332   3.248  11.217   7.026  0.2803 -0.1779 -0.6028
  880MOL0     O21333   3.254  11.343   7.073 -0.7778 -0.0952 -0.4046
  880MOL0     C21334   3.368  11.386   7.139 -0.7024  0.3227 -0.5856
  880MOL0     C21335   3.364  11.447   7.264  0.2503  0.8930  0.1045
  880MOL0     C21336   3.473  11.510   7.319  0.1134 -0.4681 -0.1651
  880MOL0     C21337   3.599  11.517   7.263 -0.5588  0.0375  0.0745
  880MOL0     O21338   3.692  11.589   7.336  0.0287 -0.4148 -0.1661
  880MOL0     C21339   3.823  11.596   7.285 -0.3457  0.5917  0.2296
  880MOL0     C21340   3.898  11.700   7.370 -0.2398 -0.1485 -0.4788
  880MOL0     C21341   3.889  11.677   7.521 -0.3411  0.6439 -0.6170
  880MOL0     C21342   3.995  11.755   7.597 -0.2543 -0.4740 -0.5362
  880MOL0     C21343   4.133  11.691   7.577  0.1988  0.3277 -0.0878
  880MOL0     C21344   4.178  11.678   7.718 -0.6108 -0.6094 -0.8038
  880MOL0     C21345   4.328  11.642   7.722  0.4078  0.0132  0.9436
  880MOL0     C21346   4.390  11.659   7.853  0.7755 -0.1823  0.1762
  880MOL0    Cl21347   4.338  11.523   7.971 -0.2527 -0.1648  0.2667
  880MOL0     C21348   3.608  11.459   7.138  0.6396 -0.6579  0.7941
  880MOL0     C21349   3.496  11.399   7.073  0.3479 -0.3068 -0.6440
  880MOL0     O21350   3.350  11.145   7.025 -0.1080  0.1775  0.4720
  880MOL0     C21351   3.023  11.262   6.925  0.1980  0.0404 -0.5177
  880MOL0     C21352   2.893  11.218   6.872 -0.1022  0.8901 -0.2147
  880MOL0     N21353   2.144  10.890   6.818  0.0075 -0.2943 -0.0739
  880MOL0     N21354   2.020  10.890   6.808  0.6739  0.0628 -0.1113
  880MOL0     C21355   1.076  10.435   7.424  0.4821 -0.4967  0.4399
  880MOL0     C21356   0.938  10.421   7.423  0.3094 -0.0560  0.3669
  880MOL0     C21357   0.502  10.472   7.292 -0.5977 -0.0146 -0.9396
  880MOL0     C21358   0.457  10.462   7.434  0.2913  0.2281  0.1876
  880MOL0     C21359   0.325  10.460   7.467  0.4995 -0.3419 -0.1168
  880MOL0     C21360   0.229  10.470   7.371  0.0879 -0.4806  0.9478
  880MOL0     O21361   0.101  10.475   7.414  0.3014  0.1513 -0.5876
  880MOL0     C21362  -0.004  10.534   7.332 -0.7693  0.1856 -0.1443
  880MOL0     C21363  -0.127  10.580   7.415  0.6070  0.3847  0.5129
  880MOL0     C21364  -0.233  10.646   7.327  0.6716  1.0009  0.5450
  880MOL0     C21365  -0.354  10.681   7.405 -0.2646  0.4277 -0.1375
  880MOL0     C21366  -0.425  10.566   7.470  0.5928  0.3375  0.7250
  880MOL0     C21367  -0.488  10.471   7.518  0.0904 -0.4547  0.9693
  880MOL0     C21368   0.269  10.467   7.242  0.6024  0.3695  0.1315
  880MOL0     C21369   0.399  10.467   7.197  0.4769  0.3104  0.1547
  880MOL0     C21370   0.431  10.487   7.049  0.4015 -0.3644 -0.3372
  880MOL0     H21371   0.864  10.667   7.198  3.4004  2.4971 -3.1739
  880MOL0     H21372   1.112  10.689   7.199  1.1143  1.0026  1.5664
  880MOL0     H21373   1.340  10.331   7.320 -0.8569  0.3363  1.3181
  880MOL0     H21374   1.368  10.432   7.473 -1.9262  1.0464  0.1378
  880MOL0     H21375   1.554  10.543   7.360 -0.8400  1.4620 -0.3010
  880MOL0     H21376   1.581  10.368   7.350 -0.4097 -0.3031 -0.5472
  880MOL0     H21377   1.568  10.362   7.128  2.8159  0.3720  2.0485
  880MOL0     H21378   1.442  10.486   7.110 -0.4060  0.1534 -0.0325
  880MOL0     H21379   1.626  10.664   7.159 -0.9192  0.0604 -0.6954
  880MOL0     H21380   1.752  10.540   7.160  1.4762  4.4882  1.4634
  880MOL0     H21381   1.575  10.596   6.920 -0.0262  1.1461  0.8032
  880MOL0     H21382   1.704  10.474   6.923 -0.4872 -0.0014 -2.3935
  880MOL0     H21383   1.726  10.770   6.904 -2.5601 -1.9292  0.4805
  880MOL0     H21384   1.863  10.674   6.977  0.8225 -0.3694 -1.7223
  880MOL0     H21385   1.718  10.591   6.724  0.0818 -0.1974  1.1203
  880MOL0     H21386   1.882  10.563   6.769 -1.6223 -0.7476 -0.6552
  880MOL0     H21387   1.851  10.735   6.581 -1.3385 -0.6651 -0.3105
  880MOL0     H21388   1.783  10.844   6.711 -1.6702 -0.5533 -1.5103
  880MOL0     H21389   2.114  10.674   6.582  0.2502 -1.1761  0.1954
  880MOL0     H21390   2.375  10.771   6.596 -2.1311 -1.3740 -0.8723
  880MOL0     H21391   2.385  10.675   6.739  1.0107  0.8863  1.9827
  880MOL0     H21392   2.416  10.976   6.792  1.3425  0.3184  0.8043
  880MOL0     H21393   2.464  10.830   6.876  1.9425 -1.2550 -1.0934
  880MOL0     H21394   2.603  10.787   6.651  0.0736 -1.4052  1.6923
  880MOL0     H21395   2.584  10.970   6.632  1.1680  1.5005  1.5023
  880MOL0     H21396   2.667  10.870   6.892 -0.2566  1.3862  1.4454
  880MOL0     H21397   2.781  10.844   6.761 -0.3908  0.2080  1.7891
  880MOL0     H21398   2.919  10.886   6.954  1.9466 -0.1439  3.1012
  880MOL0     H21399   3.206  10.965   7.148  1.0916  0.5638 -0.6990
  880MOL0     H21400   3.221  10.882   6.998 -2.0432 -1.1861 -0.7249
  880MOL0     H21401   3.075  10.840   7.092 -0.4024 -0.4094 -0.2307
  880MOL0     H21402   3.269  11.434   7.315 -0.0178  0.0531 -0.5822
  880MOL0     H21403   3.467  11.560   7.415 -0.7857  0.8681 -0.8764
  880MOL0     H21404   3.882  11.504   7.284  1.8506  1.8629  2.1237
  880MOL0     H21405   3.816  11.633   7.182 -0.3115  0.7368  0.2784
  880MOL0     H21406   4.000  11.719   7.335 -1.4287  1.0273 -3.6581
  880MOL0     H21407   3.844  11.791   7.344  0.7906  1.0150  1.2878
  880MOL0     H21408   3.910  11.570   7.530  0.3327  0.6501 -1.8309
  880MOL0     H21409   3.793  11.699   7.568 -0.7589  1.4598 -1.7940
  880MOL0     H21410   3.967  11.768   7.702  1.5232  1.0754 -0.1969
  880MOL0     H21411   4.002  11.858   7.562  1.0919 -0.6151 -0.7350
  880MOL0     H21412   4.134  11.592   7.530 -0.3340 -0.3020  1.1771
  880MOL0     H21413   4.203  11.758   7.525  2.0787 -1.3799  0.1408
  880MOL0     H21414   4.116  11.615   7.782 -2.0573  2.5141  1.1380
  880MOL0     H21415   4.180  11.776   7.767 -1.4557 -0.2769 -1.4054
  880MOL0     H21416   4.384  11.697   7.645 -2.0114  2.4015  0.7072
  880MOL0     H21417   4.332  11.535   7.702  1.5170  0.3270 -0.6965
  880MOL0     H21418   4.365  11.756   7.898 -1.2059 -0.0813 -1.0196
  880MOL0     H21419   4.500  11.657   7.848  0.8373 -0.9632  1.5613
  880MOL0     H21420   3.707  11.481   7.098  0.8426  0.4770  1.8639
  880MOL0     H21421   3.506  11.355   6.974 -2.2210 -0.6327 -0.8336
  880MOL0     H21422   3.051  11.367   6.921 -2.2656  0.8344  0.9160
  880MOL0     H21423   2.822  11.285   6.825 -0.4189  0.6838 -0.0378
  880MOL0     H21424   1.128  10.365   7.488  0.3754 -0.8196  0.1769
  880MOL0     H21425   0.896  10.347   7.492 -2.1197  0.3768 -0.5440
  880MOL0     H21426   0.533  10.457   7.511  0.0737  0.7512  0.4427
  880MOL0     H21427   0.299  10.440   7.570  0.6207 -1.5669 -0.3079
  880MOL0     H21428   0.039  10.614   7.272  3.1374 -1.6002 -0.0074
  880MOL0     H21429  -0.039  10.460   7.260 -1.0183  1.2509 -1.1485
  880MOL0     H21430  -0.103  10.653   7.493 -1.7636  1.1433  0.6143
  880MOL0     H21431  -0.158  10.494   7.474 -1.1720  0.6269 -0.0101
  880MOL0     H21432  -0.197  10.734   7.273  0.1528  0.2968 -1.0188
  880MOL0     H21433  -0.251  10.580   7.242  2.6210 -0.3802  1.1295
  880MOL0     H21434  -0.423  10.724   7.332  1.5705  0.7511 -1.7338
  880MOL0     H21435  -0.327  10.752   7.483 -2.4262 -0.1923  1.2866
  880MOL0     H21436  -0.540  10.383   7.547 -1.3760  0.0315 -0.0608
  880MOL0     H21437   0.193  10.478   7.165  2.0796 -0.4649 -1.4896
  880MOL0     H21438   0.336  10.490   6.994 -1.7750  0.2062  3.1216
  880MOL0     H21439   0.480  10.584   7.040 -1.2998  0.7296  1.3551
  880MOL0     H21440   0.503  10.415   7.010  1.4089  1.0573 -1.1749
  881MOL0     O21441   0.396   1.505   4.350  0.2607  0.4458  0.2539
  881MOL0     C21442   0.327   1.598   4.306  0.1010  0.1205 -0.1352
  881MOL0     O21443   0.374   1.721   4.278  0.4308  0.4720  0.0452
  881MOL0     C21444   0.506   1.752   4.297  0.4124 -0.2982 -0.0772
  881MOL0     C21445   0.529   1.808   4.425 -0.4879  0.5233  0.3832
  881MOL0     C21446   0.650   1.869   4.455 -1.2606 -1.2148  0.6543
  881MOL0     C21447   0.753   1.878   4.356 -0.9807 -0.2661  1.1808
  881MOL0     O21448   0.869   1.939   4.371 -0.6875 -0.5327  0.4413
  881MOL0     C21449   0.849   2.062   4.434  0.0808 -0.0351 -0.7665
  881MOL0     C21450   0.976   2.145   4.427 -0.9140 -0.1468 -0.1724
  881MOL0     C21451   1.080   2.107   4.535 -0.1479  0.2043 -0.7848
  881MOL0     C21452   1.208   2.182   4.522  0.1420 -0.2788  0.6728
  881MOL0     C21453   1.310   2.128   4.628  0.0348  0.3989  0.5311
  881MOL0     C21454   1.451   2.137   4.576  0.2374 -0.4276  0.8912
  881MOL0     C21455   1.548   2.114   4.689  1.0239 -1.2805 -0.4291
  881MOL0     C21456   1.691   2.090   4.645  0.1969  0.5653 -1.0685
  881MOL0     N21457   1.772   2.058   4.762  0.0174 -0.6084 -0.0741
  881MOL0     C21458   1.899   1.997   4.761 -0.3654 -0.4408 -0.4871
  881MOL0     C21459   1.956   2.026   4.886 -0.4160 -0.8256 -0.0635
  881MOL0     C21460   2.089   1.977   4.930 -0.5226  0.0774  0.0253
  881MOL0     C21461   2.194   2.035   4.831  0.4134  0.4022  0.1574
  881MOL0     C21462   2.230   1.931   4.721  0.1101 -0.2480 -0.6592
  881MOL0     C21463   2.340   1.849   4.779 -0.3004  0.2561  0.0094
  881MOL0     O21464   2.467   1.915   4.784 -0.2062 -0.4456 -0.6254
  881MOL0     C21465   2.577   1.846   4.817 -0.5178 -0.0285  0.6489
  881MOL0     C21466   2.583   1.714   4.863 -0.1031  0.8137 -0.3763
  881MOL0     C21467   2.700   1.651   4.907  0.5529 -0.2201 -0.0659
  881MOL0     C21468   2.692   1.498   4.957 -0.0961 -0.4923  0.2123
  881MOL0     C21469   2.821   1.731   4.920 -0.3378  0.7402  0.8564
  881MOL0     C21470   2.955   1.691   4.983 -0.1487  0.0964 -0.0693
  881MOL0     O21471   2.976   1.557   5.016  0.0951 -0.0554 -0.2384
  881MOL0     C21472   3.098   1.523   5.056 -0.3804  0.0014  0.9072
  881MOL0     C21473   3.116   1.468   5.186  0.1599  0.2192  0.2084
  881MOL0     C21474   3.239   1.413   5.225 -0.4157  0.0987 -0.5517
  881MOL0     C21475   3.338   1.410   5.128 -0.4067  0.0902 -0.7331
  881MOL0     O21476   3.452   1.347   5.156 -0.7523  0.8181  0.1533
  881MOL0     C21477   3.486   1.235   5.074  0.2481  0.4218 -0.5822
  881MOL0     C21478   3.571   1.135   5.155 -0.5429 -0.0627  0.4763
  881MOL0     C21479   3.722   1.169   5.151  0.1066  0.4993 -0.3388
  881MOL0     C21480   3.788   1.051   5.220 -0.2742  0.5940  0.2331
  881MOL0     C21481   3.795   0.930   5.123  0.2198  0.0940 -1.1155
  881MOL0     C21482   3.854   0.802   5.187 -0.1991  0.5154  0.5611
  881MOL0     C21483   3.849   0.683   5.086  0.8913 -0.2302 -0.2866
  881MOL0     C21484   3.892   0.716   4.937  0.4197  0.1990  0.1985
  881MOL0    Cl21485   4.066   0.757   4.931 -0.0950 -0.0626 -0.1460
  881MOL0     C21486   3.321   1.465   5.003  0.5661  0.3374 -0.4848
  881MOL0     C21487   3.203   1.534   4.965 -0.6477 -0.1016  0.7684
  881MOL0     O21488   3.037   1.781   4.989 -0.4821 -0.4347 -0.1522
  881MOL0     C21489   2.821   1.861   4.868 -0.2297 -0.4105 -0.1580
  881MOL0     C21490   2.697   1.919   4.820 -0.3680 -0.3441 -0.1342
  881MOL0     N21491   1.881   2.124   4.946 -0.2397  0.0857  0.3998
  881MOL0     N21492   1.765   2.135   4.876 -0.4391 -0.3948  0.4394
  881MOL0     C21493   0.727   1.817   4.232 -0.1211 -0.4929  0.6849
  881MOL0     C21494   0.607   1.760   4.195 -0.0529 -0.6110 -0.6785
  881MOL0     C21495   0.184   1.577   4.297  0.9126 -0.0268  0.1063
  881MOL0     C21496   0.102   1.691   4.320 -0.3557  0.8796  0.2288
  881MOL0     C21497  -0.041   1.694   4.319 -0.7163  0.0602  0.1025
  881MOL0     C21498  -0.101   1.569   4.308 -0.1861 -0.7880  0.4897
  881MOL0     O21499  -0.238   1.537   4.309 -0.4491 -0.5045 -0.1510
  881MOL0     C21500  -0.330   1.641   4.334  0.4815  0.9531  0.4840
  881MOL0     C21501  -0.455   1.559   4.338 -0.0571 -0.9963  0.7210
  881MOL0     C21502  -0.588   1.636   4.342 -0.2686 -0.2269 -0.0203
  881MOL0     C21503  -0.710   1.546   4.328 -0.7798  0.6880 -0.4603
  881MOL0     C21504  -0.796   1.596   4.222  0.4153  1.0925 -0.4657
  881MOL0     C21505  -0.883   1.638   4.145  0.5576  0.6462 -0.4783
  881MOL0     C21506  -0.025   1.453   4.286  0.2312 -0.3573 -0.6389
  881MOL0     C21507   0.115   1.454   4.274  0.4995 -0.2777 -0.0360
  881MOL0     C21508   0.186   1.326   4.257 -0.8973 -0.0582  0.2917
  881MOL0     H21509   0.453   1.790   4.501 -0.2924 -0.9547  0.2565
  881MOL0     H21510   0.668   1.915   4.551  2.5257 -0.2337 -0.3832
  881MOL0     H21511   0.822   2.058   4.540 -0.2928  1.5706 -0.7782
  881MOL0     H21512   0.772   2.126   4.390 -0.8384  0.4496  1.4025
  881MOL0     H21513   1.038   2.134   4.337 -0.4307 -2.0571  0.3383
  881MOL0     H21514   0.940   2.245   4.450  1.7099  0.8095  0.1221
  881MOL0     H21515   1.032   2.119   4.632  0.0434  0.2343 -0.6944
  881MOL0     H21516   1.109   2.001   4.529 -1.2748 -0.3369  1.8878
  881MOL0     H21517   1.228   2.178   4.415 -2.0639 -1.0294  0.2283
  881MOL0     H21518   1.196   2.289   4.545  0.5266  0.1554 -1.0079
  881MOL0     H21519   1.294   2.022   4.649  0.0811  0.8212  2.9625
  881MOL0     H21520   1.298   2.176   4.725 -0.0182  0.2073  0.6198
  881MOL0     H21521   1.474   2.071   4.491  1.4670  2.4064 -1.1377
  881MOL0     H21522   1.470   2.239   4.542  1.8543 -0.9180  0.2242
  881MOL0     H21523   1.518   2.026   4.747  4.1936 -3.4976 -1.8575
  881MOL0     H21524   1.547   2.199   4.758 -0.1166 -1.6944  0.0965
  881MOL0     H21525   1.685   2.009   4.571 -0.1750 -1.5749  1.1813
  881MOL0     H21526   1.737   2.184   4.613  0.1069  0.8082 -0.4923
  881MOL0     H21527   1.939   1.938   4.679 -1.1769 -0.6142 -0.7624
  881MOL0     H21528   2.084   1.868   4.924 -1.2634  0.1696 -2.6482
  881MOL0     H21529   2.113   1.998   5.034  0.1517  1.2966 -0.3549
  881MOL0     H21530   2.145   2.121   4.784 -0.1342  0.3009  0.5438
  881MOL0     H21531   2.281   2.081   4.880 -0.4450  3.2096 -0.7450
  881MOL0     H21532   2.147   1.867   4.687 -0.8475  0.5970  0.0291
  881MOL0     H21533   2.270   1.990   4.637 -1.9558  3.7339  0.8985
  881MOL0     H21534   2.314   1.806   4.876 -2.1007  1.0348 -0.0868
  881MOL0     H21535   2.343   1.773   4.699 -1.1331 -0.1505  0.3455
  881MOL0     H21536   2.492   1.656   4.881 -1.1952  2.3404 -0.8029
  881MOL0     H21537   2.777   1.444   4.916 -0.2792 -0.5764 -0.0643
  881MOL0     H21538   2.599   1.453   4.921 -1.2590  0.2114  2.1590
  881MOL0     H21539   2.697   1.492   5.066  0.8792 -3.1909  0.0827
  881MOL0     H21540   3.038   1.457   5.261  1.0517 -2.1010  0.8968
  881MOL0     H21541   3.247   1.379   5.327  0.8932  1.2653 -0.2416
  881MOL0     H21542   3.390   1.189   5.048 -0.2204  2.4004 -2.6165
  881MOL0     H21543   3.536   1.256   4.980 -0.5845 -3.1052 -1.9917
  881MOL0     H21544   3.519   1.145   5.251 -3.0863 -1.2123 -0.6766
  881MOL0     H21545   3.554   1.031   5.125 -0.9869 -0.5310  2.2353
  881MOL0     H21546   3.732   1.257   5.215 -1.8407  1.3497 -1.1184
  881MOL0     H21547   3.752   1.184   5.047  0.4379  0.0375 -0.3103
  881MOL0     H21548   3.729   1.025   5.308 -2.1798  1.3501 -0.7756
  881MOL0     H21549   3.886   1.090   5.250 -0.9079  0.6887  2.3727
  881MOL0     H21550   3.698   0.902   5.083 -0.6229  0.3555  0.6484
  881MOL0     H21551   3.855   0.960   5.037  0.9694 -0.4204 -0.7855
  881MOL0     H21552   3.811   0.758   5.277 -1.3952  0.2475 -0.1168
  881MOL0     H21553   3.961   0.818   5.205  0.2441  0.0869 -1.4206
  881MOL0     H21554   3.744   0.653   5.087  0.9266 -0.4215  1.5865
  881MOL0     H21555   3.898   0.590   5.118 -0.4479 -0.6519  0.6124
  881MOL0     H21556   3.820   0.784   4.889 -0.2393  0.0965  1.0134
  881MOL0     H21557   3.878   0.614   4.899 -2.1857  0.4907  0.1737
  881MOL0     H21558   3.397   1.460   4.926 -0.9311  1.2799 -2.0881
  881MOL0     H21559   3.203   1.599   4.878 -0.6739  0.0324  0.8692
  881MOL0     H21560   2.907   1.927   4.870 -1.4548  1.2452  0.0252
  881MOL0     H21561   2.700   2.022   4.786 -2.2769 -1.2437 -3.5069
  881MOL0     H21562   0.809   1.818   4.161  1.5691  1.2447  2.5225
  881MOL0     H21563   0.580   1.725   4.096  0.8626 -2.0181 -0.4547
  881MOL0     H21564   0.156   1.785   4.330 -1.2094  1.4895 -0.7284
  881MOL0     H21565  -0.089   1.790   4.331  0.7462  0.7240  0.8583
  881MOL0     H21566  -0.316   1.694   4.429  1.1915  1.2124  0.2373
  881MOL0     H21567  -0.332   1.711   4.250 -0.9089  1.1261  0.6384
  881MOL0     H21568  -0.453   1.490   4.423 -1.0822  0.0214  1.6178
  881MOL0     H21569  -0.459   1.494   4.251  2.8817  0.1466 -0.3685
  881MOL0     H21570  -0.600   1.694   4.434 -2.1673  2.7002 -1.9432
  881MOL0     H21571  -0.587   1.715   4.267 -0.9981  0.3685  0.5773
  881MOL0     H21572  -0.760   1.534   4.424 -1.4986 -3.1536 -1.1421
  881MOL0     H21573  -0.662   1.450   4.306 -0.5251  0.2135  1.8864
  881MOL0     H21574  -0.960   1.675   4.081  1.4229  4.9315  0.6269
  881MOL0     H21575  -0.073   1.359   4.260  0.8644 -0.1724 -2.5727
  881MOL0     H21576   0.248   1.305   4.345  0.1126  1.2367 -0.0804
  881MOL0     H21577   0.110   1.247   4.260 -0.7008 -0.3451 -1.1101
  881MOL0     H21578   0.246   1.313   4.166  0.2894 -0.5834  1.1356
  882MOL0     O21579   7.339   2.088   9.563  0.2936  0.1487 -0.1896
  882MOL0     C21580   7.231   2.054   9.597  0.8670 -1.0395  0.5411
  882MOL0     O21581   7.186   2.014   9.722 -0.0293  0.2526 -0.1620
  882MOL0     C21582   7.276   2.020   9.822 -0.0252 -0.4724 -0.5074
  882MOL0     C21583   7.253   2.106   9.919  0.6270 -0.1451  0.2486
  882MOL0     C21584   7.333   2.111  10.030 -0.3783  0.9228 -0.7549
  882MOL0     C21585   7.446   2.022  10.049 -0.5077 -0.4190  0.4418
  882MOL0     O21586   7.538   2.029  10.148 -0.5681  0.2232 -0.6617
  882MOL0     C21587   7.505   2.093  10.276  0.3238  0.2819  0.5643
  882MOL0     C21588   7.620   2.111  10.374 -0.2304  0.0851  0.0927
  882MOL0     C21589   7.575   2.133  10.520 -1.1086  0.1739 -0.4301
  882MOL0     C21590   7.699   2.130  10.623  0.1559  0.0181  0.5939
  882MOL0     C21591   7.651   2.163  10.762  0.0071 -0.6320 -0.4403
  882MOL0     C21592   7.761   2.179  10.870 -0.2632 -0.2149 -0.4875
  882MOL0     C21593   7.833   2.048  10.884 -0.0952  0.0043 -0.5121
  882MOL0     C21594   7.964   2.045  10.805  0.6525  0.6531 -0.4868
  882MOL0     N21595   8.066   2.136  10.860 -0.4033  1.0980  0.0562
  882MOL0     C21596   8.147   2.221  10.782  0.2626 -0.4787  0.1610
  882MOL0     C21597   8.203   2.294  10.873  0.0193 -0.0702  0.1598
  882MOL0     C21598   8.310   2.391  10.847 -0.0914 -0.0806 -0.2765
  882MOL0     C21599   8.439   2.333  10.773 -0.2718  0.0443 -0.0546
  882MOL0     C21600   8.554   2.436  10.762 -0.9056 -0.4276  0.4063
  882MOL0     C21601   8.680   2.385  10.697  0.8093  0.3776  0.3371
  882MOL0     O21602   8.739   2.300  10.804 -0.2574  0.1764 -0.3451
  882MOL0     C21603   8.840   2.220  10.768  0.0349  0.8494 -0.6677
  882MOL0     C21604   8.848   2.088  10.801  0.0926  0.3023 -0.5933
  882MOL0     C21605   8.971   2.019  10.777 -0.5661 -1.3253  0.7596
  882MOL0     C21606   8.962   1.874  10.809 -0.5008 -0.4364 -0.2637
  882MOL0     C21607   9.088   2.083  10.738  0.0024  0.8803 -0.1294
  882MOL0     C21608   9.218   2.018  10.730  0.4732  0.3471 -0.4417
  882MOL0     O21609   9.275   2.031  10.612 -0.3270 -0.0547 -0.2256
  882MOL0     C21610   9.400   1.979  10.583 -0.3707 -0.8272  0.0671
  882MOL0     C21611   9.403   1.856  10.518 -0.0704  0.0159  1.0218
  882MOL0     C21612   9.523   1.799  10.488  0.1633  0.0036  0.2336
  882MOL0     C21613   9.649   1.859  10.524  0.5082 -0.2268 -0.9743
  882MOL0     O21614   9.767   1.803  10.493 -0.6217  1.0557  0.3171
  882MOL0     C21615   9.766   1.663  10.464  0.8176 -0.4264  0.9868
  882MOL0     C21616   9.907   1.620  10.503  0.0451  0.5773  0.8338
  882MOL0     C21617   9.987   1.571  10.381  0.5854 -0.9132  0.0386
  882MOL0     C21618  10.101   1.479  10.426  0.3821  0.4025 -0.8026
  882MOL0     C21619  10.193   1.446  10.307  0.1785 -0.1020 -0.2161
  882MOL0     C21620  10.299   1.338  10.336 -0.1887 -0.5099 -0.2867
  882MOL0     C21621  10.248   1.194  10.367  0.0308  0.3562  0.0660
  882MOL0     C21622  10.353   1.110  10.445  0.7280 -1.0040  0.5565
  882MOL0    Cl21623  10.359   1.178  10.609  0.0987 -0.0086  0.5801
  882MOL0     C21624   9.648   1.973  10.589  0.4961 -0.6423 -0.5981
  882MOL0     C21625   9.524   2.040  10.621 -0.6676 -0.3308  0.5346
  882MOL0     O21626   9.263   1.949  10.820  0.1225 -0.0610  0.1248
  882MOL0     C21627   9.079   2.216  10.708 -0.1627 -0.3875  0.2619
  882MOL0     C21628   8.950   2.279  10.719 -0.4658 -0.1805 -0.5601
  882MOL0     N21629   8.166   2.258  11.001 -0.3086  0.5298 -0.4912
  882MOL0     N21630   8.093   2.152  10.992 -0.5940 -0.3873 -0.2943
  882MOL0     C21631   7.475   1.946   9.938 -0.9122 -0.4381 -0.0123
  882MOL0     C21632   7.387   1.935   9.828  0.4977  0.2191 -0.6941
  882MOL0     C21633   7.129   2.053   9.489  0.9943 -0.0826 -0.2435
  882MOL0     C21634   7.022   1.955   9.505 -0.1929 -0.2017  1.6809
  882MOL0     C21635   6.922   1.931   9.408  0.0969 -0.8754  0.2012
  882MOL0     C21636   6.931   2.008   9.284 -0.3485  0.0444 -0.4669
  882MOL0     O21637   6.854   1.987   9.169 -0.2051 -0.5572  0.1418
  882MOL0     C21638   6.787   1.856   9.151  0.3201 -0.4475  0.4988
  882MOL0     C21639   6.643   1.867   9.199  0.4383 -0.2030 -0.1556
  882MOL0     C21640   6.581   1.726   9.201 -0.4973 -0.5191  0.2197
  882MOL0     C21641   6.473   1.707   9.299 -0.0839 -0.1547 -0.4292
  882MOL0     C21642   6.329   1.715   9.246 -1.1429 -0.5170  0.0756
  882MOL0     C21643   6.222   1.741   9.210  0.2533 -0.3630 -0.8853
  882MOL0     C21644   7.018   2.112   9.275 -0.2460 -0.3467  0.2469
  882MOL0     C21645   7.114   2.139   9.377 -0.9607 -0.8970  0.0112
  882MOL0     C21646   7.198   2.261   9.371 -0.3987 -0.0369 -0.6160
  882MOL0     H21647   7.175   2.181   9.913  1.4553  0.7530  0.4906
  882MOL0     H21648   7.304   2.182  10.107 -1.4410  1.2018 -1.3960
  882MOL0     H21649   7.431   2.031  10.328  0.6808 -0.9566 -0.3463
  882MOL0     H21650   7.461   2.190  10.252 -3.3264 -1.8186 -2.4419
  882MOL0     H21651   7.681   2.021  10.372  1.9728  1.4951  0.8441
  882MOL0     H21652   7.681   2.198  10.347 -1.1356  0.8032  0.2868
  882MOL0     H21653   7.533   2.234  10.531 -1.2060  0.0485  0.4116
  882MOL0     H21654   7.499   2.061  10.552 -1.8838 -0.1563 -2.7898
  882MOL0     H21655   7.742   2.029  10.623 -3.9333 -1.9664  2.5361
  882MOL0     H21656   7.775   2.207  10.604  0.2276 -0.6811 -2.3875
  882MOL0     H21657   7.582   2.087  10.801 -0.3623 -0.1987 -0.2431
  882MOL0     H21658   7.597   2.258  10.765 -2.4910 -1.9646  2.7042
  882MOL0     H21659   7.833   2.256  10.843  1.9217 -1.4028  1.5869
  882MOL0     H21660   7.712   2.207  10.964  4.4367  2.0891  1.5969
  882MOL0     H21661   7.769   1.966  10.848 -0.1885 -1.1831  2.1390
  882MOL0     H21662   7.838   2.029  10.991 -1.1515  0.9675 -0.2687
  882MOL0     H21663   8.011   1.947  10.802  1.2732  0.9614 -2.4609
  882MOL0     H21664   7.953   2.069  10.699  3.4077  0.8395 -0.8031
  882MOL0     H21665   8.170   2.225  10.676 -1.9381  0.0446 -0.3479
  882MOL0     H21666   8.339   2.433  10.943 -3.2520  0.6487  0.4810
  882MOL0     H21667   8.282   2.471  10.777  2.9256  2.2218  0.9520
  882MOL0     H21668   8.476   2.250  10.834 -1.8859  1.2054  2.7260
  882MOL0     H21669   8.423   2.291  10.674  2.2747  0.7337 -0.8404
  882MOL0     H21670   8.528   2.518  10.694  1.3008  0.7883  0.9267
  882MOL0     H21671   8.575   2.478  10.861  1.7721 -0.5517 -0.0558
  882MOL0     H21672   8.650   2.319  10.615 -1.9430 -0.0640  1.5950
  882MOL0     H21673   8.733   2.476  10.667 -1.7478  1.6447 -0.6272
  882MOL0     H21674   8.760   2.040  10.842  1.9790 -2.2791  0.7755
  882MOL0     H21675   8.988   1.859  10.914  1.0638  2.0762 -0.1998
  882MOL0     H21676   9.029   1.816  10.745  1.7654 -1.3908  2.7618
  882MOL0     H21677   8.863   1.832  10.790 -0.9331 -0.0778  1.0830
  882MOL0     H21678   9.314   1.796  10.502  0.1250 -0.4256  1.5796
  882MOL0     H21679   9.520   1.698  10.446 -1.3743 -0.7842  2.0594
  882MOL0     H21680   9.693   1.600  10.514  0.4666 -1.2585 -0.5022
  882MOL0     H21681   9.748   1.644  10.358  4.7864 -3.1331  0.5607
  882MOL0     H21682   9.973   1.693  10.552  2.9009 -1.4398  0.2317
  882MOL0     H21683   9.887   1.531  10.563 -1.9862 -0.9372 -1.8540
  882MOL0     H21684  10.018   1.658  10.323 -2.1520  0.2593  0.1819
  882MOL0     H21685   9.926   1.515  10.310 -1.2434  1.1585 -0.1470
  882MOL0     H21686  10.055   1.387  10.464  0.4131  1.0941  1.0333
  882MOL0     H21687  10.161   1.523  10.506  0.6821  2.8239 -2.2599
  882MOL0     H21688  10.135   1.415  10.220  0.5990 -1.0482 -0.1630
  882MOL0     H21689  10.242   1.538  10.273  0.9565 -1.0059 -1.6015
  882MOL0     H21690  10.362   1.377  10.417  0.2858  2.8057 -2.0779
  882MOL0     H21691  10.358   1.334  10.244 -1.5684  0.1429 -1.2457
  882MOL0     H21692  10.211   1.146  10.276  0.0543  0.2019  0.1375
  882MOL0     H21693  10.159   1.203  10.431  0.1532 -0.0637  0.2924
  882MOL0     H21694  10.456   1.126  10.414  2.0908 -1.0225  4.4731
  882MOL0     H21695  10.329   1.003  10.451 -0.9593 -0.7511 -0.8102
  882MOL0     H21696   9.744   2.018  10.612 -0.8837  0.9938  2.6311
  882MOL0     H21697   9.519   2.132  10.677 -1.1942  0.3266 -0.5697
  882MOL0     H21698   9.167   2.271  10.673  1.3136 -2.2777  0.8523
  882MOL0     H21699   8.934   2.381  10.685  0.9994  0.8545  1.5826
  882MOL0     H21700   7.557   1.874   9.942  0.7808  1.2238 -2.2374
  882MOL0     H21701   7.414   1.875   9.743  1.2299  0.7130 -0.8208
  882MOL0     H21702   7.021   1.891   9.593 -0.5457  2.1638  3.4983
  882MOL0     H21703   6.855   1.846   9.417 -0.4423 -0.3458  1.2838
  882MOL0     H21704   6.794   1.832   9.045 -0.2443 -0.6448  0.5029
  882MOL0     H21705   6.837   1.773   9.202  1.3923 -1.0819 -1.4734
  882MOL0     H21706   6.587   1.942   9.143  2.9335  2.8216  1.0730
  882MOL0     H21707   6.645   1.899   9.304 -2.1046  0.5974 -0.2905
  882MOL0     H21708   6.543   1.708   9.100 -0.6459  1.1480 -0.0506
  882MOL0     H21709   6.656   1.653   9.231 -0.0377 -0.9262 -1.7800
  882MOL0     H21710   6.491   1.760   9.393  1.2762 -0.5023 -0.4830
  882MOL0     H21711   6.480   1.600   9.322  2.3576  0.2926  1.2472
  882MOL0     H21712   6.116   1.750   9.194  0.1603 -2.9973 -2.2756
  882MOL0     H21713   7.006   2.173   9.187  0.7133 -0.4033  0.0683
  882MOL0     H21714   7.128   2.336   9.331  0.9169  1.0417 -0.9591
  882MOL0     H21715   7.213   2.301   9.471  0.2274 -0.7254 -0.4254
  882MOL0     H21716   7.296   2.255   9.322  0.0924 -0.9663  0.4578
  883MOL0     O21717  10.846   0.376   5.377  0.3427 -0.1220  0.1895
  883MOL0     C21718  10.831   0.477   5.313  0.3718  0.2617  0.4534
  883MOL0     O21719  10.928   0.540   5.244 -0.0101 -0.0295  0.5485
  883MOL0     C21720  11.061   0.505   5.243 -0.8677  0.3465 -0.3121
  883MOL0     C21721  11.108   0.375   5.241  0.0900  0.2797 -0.2302
  883MOL0     C21722  11.246   0.361   5.234 -1.0760 -0.2298 -0.0050
  883MOL0     C21723  11.341   0.457   5.226  0.7744 -0.5348  0.2741
  883MOL0     O21724  11.466   0.413   5.231  0.4947  0.0725 -0.2543
  883MOL0     C21725  11.572   0.503   5.221  0.2731 -0.2998 -0.5689
  883MOL0     C21726  11.696   0.412   5.235 -0.0410  0.2666 -0.0665
  883MOL0     C21727  11.820   0.498   5.266 -0.0476  0.2378  0.5394
  883MOL0     C21728  11.954   0.422   5.241 -0.2416 -0.0216 -0.8862
  883MOL0     C21729  12.075   0.501   5.290  0.2441  0.1802  0.7223
  883MOL0     C21730  12.195   0.414   5.248  0.3972 -0.6645 -0.6376
  883MOL0     C21731  12.325   0.476   5.291  0.5110  0.1516  0.0656
  883MOL0     C21732  12.447   0.416   5.219  0.6627 -0.1380  0.1503
  883MOL0     N21733  12.552   0.491   5.272  0.6168  0.4017 -0.7108
  883MOL0     C21734  12.578   0.623   5.236 -0.3743 -0.4975  0.2992
  883MOL0     C21735  12.676   0.666   5.321  0.3956 -0.4078 -0.2587
  883MOL0     C21736  12.738   0.805   5.327  0.3524  0.5434  0.0987
  883MOL0     C21737  12.863   0.798   5.427  0.0945  0.3772  0.8504
  883MOL0     C21738  12.890   0.928   5.510  0.1824  0.6776 -0.4911
  883MOL0     C21739  12.810   1.062   5.482 -0.3854  0.3337  0.4017
  883MOL0     O21740  12.854   1.110   5.354  0.0699 -0.0038 -0.1918
  883MOL0     C21741  12.968   1.192   5.355  0.0418 -0.5017  0.1932
  883MOL0     C21742  13.057   1.231   5.466  0.5827  0.2507  0.7334
  883MOL0     C21743  13.168   1.314   5.445  0.0530  0.0949 -0.8865
  883MOL0     C21744  13.241   1.355   5.573 -0.3440 -0.5426  0.0932
  883MOL0     C21745  13.213   1.343   5.310  1.2788 -0.5461  0.6253
  883MOL0     C21746  13.336   1.407   5.267 -0.2398 -0.3557  0.4987
  883MOL0     O21747  13.418   1.460   5.354 -0.1995  0.0259 -0.1992
  883MOL0     C21748  13.545   1.522   5.321  0.2666  0.8527  0.6830
  883MOL0     C21749  13.645   1.524   5.417  0.8002 -0.2446  0.3049
  883MOL0     C21750  13.769   1.577   5.389 -0.5749 -0.1590  0.6411
  883MOL0     C21751  13.800   1.644   5.269 -0.3617 -1.1001 -0.0861
  883MOL0     O21752  13.922   1.698   5.226  0.5946 -0.1546 -0.1522
  883MOL0     C21753  13.998   1.763   5.320 -0.6509 -0.3915  0.5332
  883MOL0     C21754  14.131   1.687   5.335  0.9739 -0.3074  0.2953
  883MOL0     C21755  14.213   1.745   5.451 -0.2411  0.1216 -0.3495
  883MOL0     C21756  14.365   1.719   5.431  0.2210 -0.0662 -0.6196
  883MOL0     C21757  14.426   1.844   5.382 -0.3510 -1.0040  0.0831
  883MOL0     C21758  14.588   1.841   5.368  0.9664 -0.4403 -0.3428
  883MOL0     C21759  14.626   1.940   5.256 -1.0194  0.0276 -0.1395
  883MOL0     C21760  14.779   1.935   5.254  0.0366  0.2234 -0.1611
  883MOL0    Cl21761  14.826   2.019   5.098 -0.3674  0.0559  0.3951
  883MOL0     C21762  13.701   1.644   5.176 -0.1139 -0.0864  1.1113
  883MOL0     C21763  13.570   1.588   5.199 -0.7429 -0.9347 -0.5561
  883MOL0     O21764  13.370   1.383   5.148  0.5292 -0.1128 -0.1648
  883MOL0     C21765  13.115   1.306   5.206 -0.2175  0.7599  0.1789
  883MOL0     C21766  12.997   1.237   5.228  0.2242  0.0496 -0.9782
  883MOL0     N21767  12.701   0.555   5.400 -0.3129  0.0955  0.8049
  883MOL0     N21768  12.633   0.451   5.370 -0.8828 -0.3214 -0.9152
  883MOL0     C21769  11.291   0.593   5.244  0.5329 -0.1496  0.2758
  883MOL0     C21770  11.149   0.614   5.246 -0.1534 -0.4612  0.1191
  883MOL0     C21771  10.709   0.556   5.329  0.5195 -0.3713  0.3271
  883MOL0     C21772  10.722   0.700   5.320  0.8248  0.8120 -0.0803
  883MOL0     C21773  10.619   0.788   5.316 -0.0208 -0.4657 -0.3916
  883MOL0     C21774  10.490   0.745   5.333 -0.9398 -0.7770  0.3309
  883MOL0     O21775  10.380   0.818   5.302 -0.2474 -0.3597 -0.4115
  883MOL0     C21776  10.399   0.959   5.312 -0.2103  0.2654  0.1819
  883MOL0     C21777  10.262   1.021   5.290 -0.2582 -0.2284 -0.3844
  883MOL0     C21778  10.280   1.174   5.281  1.0066 -0.5078 -0.6798
  883MOL0     C21779  10.142   1.234   5.257  0.6873 -0.5905  0.5862
  883MOL0     C21780  10.093   1.316   5.364  0.3037  0.0636 -0.4612
  883MOL0     C21781  10.040   1.379   5.453 -0.3243  0.3127  0.1489
  883MOL0     C21782  10.470   0.606   5.354  0.4065 -0.0097 -0.9313
  883MOL0     C21783  10.576   0.516   5.351 -0.5248  0.0484  0.1889
  883MOL0     C21784  10.543   0.378   5.397 -0.5624 -0.5481 -0.4497
  883MOL0     H21785  11.043   0.289   5.253  0.8506 -0.1681  0.8325
  883MOL0     H21786  11.286   0.262   5.219  0.4797  0.1716  1.2740
  883MOL0     H21787  11.569   0.580   5.298  3.2004  0.1244 -0.7697
  883MOL0     H21788  11.567   0.547   5.121  1.5952  1.6383  0.1659
  883MOL0     H21789  11.669   0.337   5.310  2.1224 -1.4576 -0.8964
  883MOL0     H21790  11.702   0.348   5.146 -1.4918 -2.4587  1.6354
  883MOL0     H21791  11.823   0.591   5.208  1.0220 -0.5290 -0.6859
  883MOL0     H21792  11.800   0.527   5.369 -1.5645  0.7734  0.1333
  883MOL0     H21793  11.958   0.324   5.288  1.3381  0.7675  0.7459
  883MOL0     H21794  11.966   0.402   5.134  2.9918  1.3096 -0.8978
  883MOL0     H21795  12.061   0.512   5.398 -1.0573  0.8267  0.5069
  883MOL0     H21796  12.089   0.596   5.238  2.2695  0.3324  1.4823
  883MOL0     H21797  12.181   0.315   5.291  0.9085  0.1213  1.4337
  883MOL0     H21798  12.187   0.408   5.139 -0.8620  1.0764 -0.6997
  883MOL0     H21799  12.336   0.452   5.397  0.6543 -0.8314 -0.1620
  883MOL0     H21800  12.325   0.584   5.275 -1.5655  0.1556 -0.1690
  883MOL0     H21801  12.462   0.308   5.232 -0.8078 -0.1823  2.0572
  883MOL0     H21802  12.441   0.439   5.113 -0.2128 -3.0573 -0.5200
  883MOL0     H21803  12.525   0.670   5.153 -1.6413 -1.0056  0.7872
  883MOL0     H21804  12.660   0.879   5.347  1.1794  1.6024 -0.4510
  883MOL0     H21805  12.781   0.829   5.229 -1.0919 -0.1657 -0.7323
  883MOL0     H21806  12.841   0.729   5.510 -0.2395  1.5154  1.7311
  883MOL0     H21807  12.961   0.771   5.386 -0.1045 -2.3803  1.9482
  883MOL0     H21808  12.887   0.914   5.619  1.7926  1.2628 -0.3552
  883MOL0     H21809  12.995   0.952   5.495  0.5785 -1.3540 -1.2510
  883MOL0     H21810  12.701   1.060   5.490 -0.7680  0.5377 -3.2177
  883MOL0     H21811  12.835   1.134   5.560 -0.9508 -0.6650  1.5480
  883MOL0     H21812  13.046   1.195   5.568 -0.6997  2.8209  1.5930
  883MOL0     H21813  13.258   1.462   5.563 -0.3822 -0.6989 -1.9643
  883MOL0     H21814  13.335   1.304   5.598  0.9878  1.9972  0.6463
  883MOL0     H21815  13.174   1.341   5.659 -4.5593  2.7120 -2.2813
  883MOL0     H21816  13.616   1.488   5.515  0.6002  0.2221  0.4201
  883MOL0     H21817  13.847   1.567   5.463 -0.7718  2.1820  1.2432
  883MOL0     H21818  14.029   1.863   5.290 -0.6678 -0.6134 -0.2267
  883MOL0     H21819  13.963   1.767   5.424  1.6770 -4.4839  1.6868
  883MOL0     H21820  14.108   1.587   5.373  2.3930 -0.8847 -0.2781
  883MOL0     H21821  14.181   1.681   5.238  1.0338 -1.3280  0.3740
  883MOL0     H21822  14.184   1.695   5.543 -1.6071  0.6371 -0.4795
  883MOL0     H21823  14.196   1.853   5.454  2.1053  0.5233  1.8992
  883MOL0     H21824  14.385   1.634   5.365 -1.2129  0.2384 -1.4817
  883MOL0     H21825  14.419   1.703   5.525 -0.9735  2.2570  0.5298
  883MOL0     H21826  14.385   1.858   5.282 -3.0162 -2.6463  0.8319
  883MOL0     H21827  14.401   1.928   5.447  2.8605  0.1003  0.0553
  883MOL0     H21828  14.621   1.740   5.344  2.4452  0.5465 -2.7880
  883MOL0     H21829  14.631   1.869   5.465 -1.6292  1.3619  0.4101
  883MOL0     H21830  14.596   2.041   5.284  0.7194  0.0299  1.9872
  883MOL0     H21831  14.584   1.911   5.159 -1.5235 -2.9273  0.8725
  883MOL0     H21832  14.811   1.831   5.243  0.4620  0.4308 -1.0260
  883MOL0     H21833  14.830   1.983   5.339  2.2172 -0.9986 -0.7012
  883MOL0     H21834  13.711   1.710   5.090 -0.5879 -0.4831  0.7484
  883MOL0     H21835  13.498   1.584   5.118 -0.0592 -3.8422 -1.1244
  883MOL0     H21836  13.141   1.335   5.105 -2.2564  0.1383 -0.5681
  883MOL0     H21837  12.915   1.233   5.157 -0.7258 -2.5015  0.1513
  883MOL0     H21838  11.362   0.675   5.244  2.0637 -1.3097 -2.5038
  883MOL0     H21839  11.106   0.714   5.251  3.3985  1.3783 -2.0921
  883MOL0     H21840  10.821   0.743   5.319 -0.0583  3.0675  1.6000
  883MOL0     H21841  10.648   0.889   5.288  0.6456 -0.9593 -1.5684
  883MOL0     H21842  10.425   0.984   5.416 -0.6031 -1.0998  0.6362
  883MOL0     H21843  10.477   0.995   5.245 -1.4544 -1.1840 -2.1443
  883MOL0     H21844  10.197   0.991   5.373  2.4699 -2.0888  1.2713
  883MOL0     H21845  10.222   0.985   5.195 -1.1961  0.1512 -0.1448
  883MOL0     H21846  10.317   1.214   5.376  0.5235  0.3586 -0.8446
  883MOL0     H21847  10.350   1.196   5.200  1.0396  0.2223 -0.4590
  883MOL0     H21848  10.066   1.158   5.240  0.1632  0.7286 -4.5489
  883MOL0     H21849  10.126   1.286   5.162  0.5291 -2.1163 -0.2421
  883MOL0     H21850  10.000   1.421   5.543  2.9985 -1.2291  2.5734
  883MOL0     H21851  10.368   0.572   5.364  0.3815 -0.0298 -1.2395
  883MOL0     H21852  10.590   0.308   5.328  1.4651 -0.3642  0.6425
  883MOL0     H21853  10.598   0.363   5.491 -0.0763  2.2033 -0.1857
  883MOL0     H21854  10.436   0.359   5.411 -0.5318 -0.8045 -0.5792
  884MOL0     O21855   2.131   0.805  10.456 -0.0043  0.5322  0.4902
  884MOL0     C21856   2.163   0.777  10.570  0.3226  0.0145  0.6085
  884MOL0     O21857   2.270   0.827  10.625 -0.2096 -0.1326  0.2457
  884MOL0     C21858   2.325   0.952  10.596 -0.6429  0.2694 -0.4015
  884MOL0     C21859   2.259   1.064  10.545  0.3127  0.1913  0.4743
  884MOL0     C21860   2.323   1.179  10.502  0.1956  0.4128  0.3305
  884MOL0     C21861   2.463   1.184  10.517  0.4786 -0.2381 -0.3898
  884MOL0     O21862   2.549   1.278  10.472  0.0987 -0.0177  0.1628
  884MOL0     C21863   2.492   1.406  10.476  0.1473 -0.3933 -0.1397
  884MOL0     C21864   2.603   1.510  10.488  0.3231  0.6768 -0.4106
  884MOL0     C21865   2.546   1.636  10.545 -0.3539  0.4774  0.3055
  884MOL0     C21866   2.629   1.756  10.500 -0.0433  0.8138  0.5484
  884MOL0     C21867   2.559   1.887  10.519  0.2353  0.7116  0.0083
  884MOL0     C21868   2.638   2.004  10.471 -0.4751  0.4570  0.2766
  884MOL0     C21869   2.789   1.981  10.472 -0.1560 -0.5154 -0.1446
  884MOL0     C21870   2.857   2.123  10.445  0.0540  0.5717 -0.2362
  884MOL0     N21871   2.889   2.197  10.568  0.7347 -0.1647 -0.3062
  884MOL0     C21872   2.843   2.327  10.593  0.7284 -0.4740 -0.5266
  884MOL0     C21873   2.929   2.380  10.687  0.3536  1.2365  0.0704
  884MOL0     C21874   2.949   2.527  10.707  0.7611  0.1256 -0.2443
  884MOL0     C21875   2.981   2.559  10.856  0.8045 -0.7214 -0.5051
  884MOL0     C21876   3.019   2.705  10.851  0.0912 -1.1799 -1.2036
  884MOL0     C21877   3.076   2.746  10.988 -0.0341 -0.0339  0.2787
  884MOL0     O21878   3.184   2.658  11.024  0.0333  0.3829  0.1089
  884MOL0     C21879   3.315   2.666  10.975  0.1117 -0.5116  0.1676
  884MOL0     C21880   3.370   2.768  10.902 -0.3816  0.7857 -0.2411
  884MOL0     C21881   3.498   2.763  10.847  0.1018  0.0929 -0.1613
  884MOL0     C21882   3.544   2.884  10.767 -0.2124 -0.1266 -0.1162
  884MOL0     C21883   3.591   2.654  10.882  1.0728 -0.6124  0.2480
  884MOL0     C21884   3.736   2.649  10.850  0.0794 -0.5636 -1.0004
  884MOL0     O21885   3.807   2.769  10.818  0.0856  0.2293 -0.4573
  884MOL0     C21886   3.945   2.770  10.810  0.5348 -0.1302 -0.6984
  884MOL0     C21887   3.991   2.892  10.761  0.7089  1.1942 -0.5089
  884MOL0     C21888   4.122   2.919  10.753 -0.5229 -0.0063  0.2933
  884MOL0     C21889   4.218   2.818  10.780  0.3604 -0.0009 -0.3547
  884MOL0     O21890   4.353   2.836  10.773  0.1768  0.4618 -0.1084
  884MOL0     C21891   4.409   2.866  10.650 -0.6182  0.2666  0.3896
  884MOL0     C21892   4.459   3.005  10.650  0.0541  0.0381 -0.6667
  884MOL0     C21893   4.584   3.017  10.728 -0.6269  0.0810 -0.3622
  884MOL0     C21894   4.630   3.161  10.729  0.1821 -0.0849 -0.4633
  884MOL0     C21895   4.750   3.169  10.823 -0.9997 -0.9013 -0.2977
  884MOL0     C21896   4.853   3.276  10.768  0.0299 -0.3100 -0.0410
  884MOL0     C21897   4.955   3.231  10.657 -0.0992  0.4322 -0.3282
  884MOL0     C21898   5.050   3.339  10.619 -0.8981 -0.7669  0.5383
  884MOL0    Cl21899   5.162   3.400  10.754  0.4057  0.2436 -0.0465
  884MOL0     C21900   4.171   2.700  10.843 -0.9625 -0.0478  0.7189
  884MOL0     C21901   4.034   2.680  10.861 -0.5545 -0.2861  0.1156
  884MOL0     O21902   3.776   2.540  10.860 -1.0615  0.4843  0.1488
  884MOL0     C21903   3.524   2.556  10.959 -0.0297 -0.1011 -0.0339
  884MOL0     C21904   3.396   2.552  11.002 -0.2773 -0.3549  0.2918
  884MOL0     N21905   3.014   2.287  10.720 -0.2170 -0.2569  0.4403
  884MOL0     N21906   2.996   2.175  10.650  0.4393  0.5134  1.2934
  884MOL0     C21907   2.529   1.076  10.558 -0.3949  0.5930 -0.2595
  884MOL0     C21908   2.462   0.957  10.606  0.0024 -0.6004 -0.4459
  884MOL0     C21909   2.092   0.669  10.645 -0.3080  0.2241 -0.3104
  884MOL0     C21910   2.146   0.620  10.772 -0.3987  0.0177  0.6541
  884MOL0     C21911   2.080   0.523  10.847  0.2721 -0.0067  0.0610
  884MOL0     C21912   1.959   0.475  10.816  0.3819  0.6577  0.7287
  884MOL0     O21913   1.904   0.374  10.889 -0.2567  0.3693  0.0605
  884MOL0     C21914   1.769   0.334  10.869 -0.3549  0.5766 -0.4424
  884MOL0     C21915   1.740   0.224  10.963  0.7774  0.5944  0.1020
  884MOL0     C21916   1.594   0.194  10.974 -0.3047  0.1729 -0.1258
  884MOL0     C21917   1.550   0.080  11.064  0.6523 -0.5804 -0.5334
  884MOL0     C21918   1.406   0.061  11.076 -0.4382 -0.2127 -0.2648
  884MOL0     C21919   1.293   0.033  11.077  0.0811  0.0803 -0.3177
  884MOL0     C21920   1.906   0.517  10.692  0.2209  0.0003 -0.0322
  884MOL0     C21921   1.962   0.624  10.618 -0.0470 -0.0369 -0.3375
  884MOL0     C21922   1.873   0.681  10.507  0.1428 -0.3651 -0.5742
  884MOL0     H21923   2.152   1.054  10.531  0.5794 -0.2002 -1.6349
  884MOL0     H21924   2.277   1.263  10.452 -1.2471  1.7133  3.5446
  884MOL0     H21925   2.427   1.428  10.561  0.9381  0.8679  0.1641
  884MOL0     H21926   2.431   1.424  10.388 -0.4168 -0.5391  0.2206
  884MOL0     H21927   2.691   1.477  10.545 -1.4276  0.0245  2.1142
  884MOL0     H21928   2.631   1.520  10.383  2.2694  0.1691  0.0147
  884MOL0     H21929   2.444   1.648  10.507 -0.6759 -0.7635  0.7039
  884MOL0     H21930   2.533   1.637  10.654 -3.7011  0.9177  0.0053
  884MOL0     H21931   2.722   1.755  10.557  0.6669 -2.9350 -0.4005
  884MOL0     H21932   2.663   1.743  10.396  1.2757 -1.7071  1.2115
  884MOL0     H21933   2.532   1.894  10.625 -1.7995 -1.8001 -0.2363
  884MOL0     H21934   2.463   1.888  10.466  0.8768 -0.1627 -1.2199
  884MOL0     H21935   2.612   2.028  10.368  0.4548  0.6498  0.0729
  884MOL0     H21936   2.614   2.093  10.529  0.4158  2.1453 -1.8055
  884MOL0     H21937   2.818   1.911  10.392 -0.2696  0.5531 -1.1426
  884MOL0     H21938   2.842   1.943  10.560  1.0873  0.0705 -0.6123
  884MOL0     H21939   2.949   2.117  10.386  1.1187 -0.1552  1.4145
  884MOL0     H21940   2.788   2.177  10.379 -0.1947  0.5903  0.0368
  884MOL0     H21941   2.763   2.386  10.548  1.5217  1.2247  0.1832
  884MOL0     H21942   2.851   2.566  10.678 -0.3247 -2.4553 -0.3198
  884MOL0     H21943   3.027   2.561  10.638  0.4281 -0.4493 -0.9107
  884MOL0     H21944   2.887   2.554  10.913  0.2538  0.5921 -1.2397
  884MOL0     H21945   3.056   2.492  10.897 -1.6840 -3.6038 -0.2871
  884MOL0     H21946   3.100   2.719  10.779  0.0413 -0.1047 -1.0693
  884MOL0     H21947   2.938   2.776  10.832  0.2446 -0.1874  1.3487
  884MOL0     H21948   3.113   2.848  10.980 -1.5954  0.4736 -1.1662
  884MOL0     H21949   3.001   2.744  11.068 -0.3535  0.6679  0.0026
  884MOL0     H21950   3.311   2.857  10.882  0.1337  1.2255  0.1547
  884MOL0     H21951   3.453   2.939  10.741  0.1744  1.2734  1.3460
  884MOL0     H21952   3.590   2.865  10.669 -1.8989 -1.9377 -0.6313
  884MOL0     H21953   3.603   2.948  10.833  1.2965 -2.2514  0.7102
  884MOL0     H21954   3.918   2.968  10.735 -0.6120 -0.2834 -1.3213
  884MOL0     H21955   4.157   3.012  10.711 -0.7794 -0.1118 -0.1563
  884MOL0     H21956   4.493   2.800  10.628  0.7657  1.6053  1.4338
  884MOL0     H21957   4.340   2.854  10.566 -0.2764 -2.7585  0.4295
  884MOL0     H21958   4.482   3.020  10.544 -2.3612 -3.2064 -1.8108
  884MOL0     H21959   4.382   3.077  10.679  0.6094  0.0001  1.0187
  884MOL0     H21960   4.656   2.954  10.674 -0.5692 -1.1921  1.1176
  884MOL0     H21961   4.568   2.980  10.830  0.3148  0.1314 -0.1875
  884MOL0     H21962   4.552   3.209  10.790  1.7107  0.2740  1.3026
  884MOL0     H21963   4.654   3.203  10.631  0.2036 -0.7330 -0.7439
  884MOL0     H21964   4.722   3.199  10.925  0.9119 -1.3800  0.4141
  884MOL0     H21965   4.798   3.072  10.837 -0.0018 -0.6549 -1.7498
  884MOL0     H21966   4.906   3.300  10.860  1.4629 -1.5047 -0.5235
  884MOL0     H21967   4.802   3.369  10.741 -0.6548 -0.2634  1.3184
  884MOL0     H21968   4.894   3.195  10.573 -0.2541  0.2200 -0.1289
  884MOL0     H21969   5.003   3.142  10.698 -3.6007 -0.9018  1.3090
  884MOL0     H21970   4.999   3.426  10.576 -1.0355  0.0820  2.3490
  884MOL0     H21971   5.110   3.301  10.536  1.6758  3.4462  0.1869
  884MOL0     H21972   4.241   2.620  10.865  1.5726  2.3592  2.1344
  884MOL0     H21973   4.005   2.583  10.899 -3.7361  1.2034  1.9111
  884MOL0     H21974   3.570   2.460  10.978  0.1971 -0.1698 -0.8946
  884MOL0     H21975   3.355   2.466  11.054 -1.7234  0.7717  1.0939
  884MOL0     H21976   2.636   1.091  10.565 -0.6702  1.9790  2.3140
  884MOL0     H21977   2.525   0.877  10.643  2.3757  1.7342  0.9639
  884MOL0     H21978   2.249   0.639  10.803 -0.5120  1.9542 -0.0008
  884MOL0     H21979   2.135   0.492  10.935  0.4082  1.1455  0.3972
  884MOL0     H21980   1.696   0.415  10.876 -1.8250 -0.6509 -1.0811
  884MOL0     H21981   1.744   0.295  10.770 -1.8392  2.6953 -0.9900
  884MOL0     H21982   1.776   0.254  11.062  4.7663  3.2393 -1.8540
  884MOL0     H21983   1.788   0.129  10.937  1.0767  0.4183  1.2226
  884MOL0     H21984   1.555   0.285  11.021  1.5463  0.2836  1.3196
  884MOL0     H21985   1.562   0.166  10.873  0.9929 -0.7212 -0.3088
  884MOL0     H21986   1.587   0.098  11.165  0.1744  1.2560 -0.6551
  884MOL0     H21987   1.589  -0.016  11.028 -1.4564 -0.8238 -2.3799
  884MOL0     H21988   1.191   0.006  11.094  0.4843  0.3659  3.3462
  884MOL0     H21989   1.816   0.466  10.658  2.7609 -2.4393 -4.0095
  884MOL0     H21990   1.900   0.627  10.415  1.0842 -0.1943 -0.4025
  884MOL0     H21991   1.768   0.652  10.519  0.5402 -1.5802  0.1785
  884MOL0     H21992   1.884   0.789  10.491  3.3492 -0.7632 -1.6761
  885MOL0     O21993   8.068   7.558   3.933 -0.0874 -0.2562 -0.0025
  885MOL0     C21994   8.017   7.552   4.050  0.1213  0.9438  0.6854
  885MOL0     O21995   8.077   7.510   4.160  0.0247 -0.4539 -0.5066
  885MOL0     C21996   8.211   7.480   4.141  0.0097  0.0699  0.3755
  885MOL0     C21997   8.252   7.352   4.100 -0.4271  0.5871  0.3432
  885MOL0     C21998   8.389   7.311   4.092  0.1921  0.5457 -1.0491
  885MOL0     C21999   8.488   7.410   4.126  0.6719 -0.1079 -0.4137
  885MOL0     O22000   8.624   7.406   4.136 -0.2423 -0.5932 -0.3249
  885MOL0     C22001   8.689   7.284   4.092  0.2503  0.3628  0.9524
  885MOL0     C22002   8.704   7.270   3.936  0.1062 -0.6998  0.9547
  885MOL0     C22003   8.809   7.170   3.888 -0.1037 -0.5143 -0.9279
  885MOL0     C22004   8.853   7.187   3.742 -0.4648 -0.0841 -0.7853
  885MOL0     C22005   8.974   7.113   3.695 -0.5250  0.0564  0.9924
  885MOL0     C22006   9.096   7.131   3.782 -0.1238 -0.0349 -0.8364
  885MOL0     C22007   9.222   7.086   3.709 -0.1251  0.0574 -0.7730
  885MOL0     C22008   9.330   7.063   3.815 -0.9975 -0.0820 -0.4611
  885MOL0     N22009   9.464   7.040   3.756  0.1964  0.4800 -0.6396
  885MOL0     C22010   9.502   6.949   3.655  0.2411 -0.3899  0.3490
  885MOL0     C22011   9.632   6.973   3.632  0.2829  0.2256  0.6150
  885MOL0     C22012   9.735   6.888   3.562 -0.0478 -0.7842  0.1164
  885MOL0     C22013   9.800   6.966   3.452  0.3475  0.5592 -1.0058
  885MOL0     C22014   9.907   6.882   3.388  0.3484  0.0603  0.3894
  885MOL0     C22015   9.998   6.964   3.303 -0.6816 -0.1094  0.2392
  885MOL0     O22016  10.093   6.882   3.220 -0.4136  0.0973 -0.5235
  885MOL0     C22017  10.188   6.947   3.144 -0.0453  0.0525 -0.6432
  885MOL0     C22018  10.157   7.066   3.083 -0.5305 -0.0128  0.1056
  885MOL0     C22019  10.255   7.138   3.011 -0.0443 -0.5630 -0.7493
  885MOL0     C22020  10.197   7.258   2.940 -0.2986  0.3517 -0.0272
  885MOL0     C22021  10.389   7.089   2.997  0.4769  0.2580  0.4566
  885MOL0     C22022  10.499   7.159   2.927  0.5694 -0.4570  0.6934
  885MOL0     O22023  10.471   7.215   2.808  0.2066  0.0718 -0.1956
  885MOL0     C22024  10.577   7.253   2.722  0.2816 -0.1504  0.3669
  885MOL0     C22025  10.568   7.198   2.593 -0.5713  0.2815  0.1326
  885MOL0     C22026  10.658   7.237   2.492 -0.5647 -0.0932 -0.4556
  885MOL0     C22027  10.747   7.343   2.516  0.5434  0.4970  0.8463
  885MOL0     O22028  10.828   7.375   2.407  0.0838  0.8777  0.0662
  885MOL0     C22029  10.918   7.491   2.420 -0.4524  0.2287  0.2783
  885MOL0     C22030  10.977   7.523   2.281 -0.4504  0.6968 -0.0438
  885MOL0     C22031  11.047   7.662   2.261 -0.0860 -0.3352 -0.1958
  885MOL0     C22032  11.120   7.709   2.389  0.3663  0.0560 -0.6673
  885MOL0     C22033  11.217   7.821   2.360  0.9861 -0.1261 -0.8251
  885MOL0     C22034  11.302   7.865   2.483 -0.1209  0.9223  0.0421
  885MOL0     C22035  11.408   7.967   2.445 -0.3362  0.0954  0.0043
  885MOL0     C22036  11.428   8.071   2.546  0.1957 -0.0865 -0.9387
  885MOL0    Cl22037  11.272   8.153   2.595  0.0254  0.1775 -0.1222
  885MOL0     C22038  10.751   7.400   2.646 -0.5121  0.3966 -0.3098
  885MOL0     C22039  10.661   7.361   2.748 -0.8335 -1.0122  0.5924
  885MOL0     O22040  10.602   7.157   2.985  0.5664  0.0259 -0.0029
  885MOL0     C22041  10.414   6.965   3.061 -0.1200  0.4044  0.1649
  885MOL0     C22042  10.313   6.895   3.127  0.6372  0.1026 -0.1705
  885MOL0     N22043   9.676   7.076   3.709  0.4086 -0.4831 -0.1817
  885MOL0     N22044   9.570   7.117   3.775  0.2889 -0.8897  0.4640
  885MOL0     C22045   8.447   7.527   4.184  0.1382 -0.7218  0.2146
  885MOL0     C22046   8.313   7.559   4.192  0.1987 -0.2458  0.7005
  885MOL0     C22047   7.870   7.588   4.062 -0.7369 -0.4888 -0.2652
  885MOL0     C22048   7.812   7.540   4.179 -0.1553  0.7253 -0.7024
  885MOL0     C22049   7.671   7.545   4.198 -0.4917 -0.4245  0.4100
  885MOL0     C22050   7.596   7.621   4.108 -0.0889  0.8585 -0.0615
  885MOL0     O22051   7.465   7.634   4.150 -0.2545  0.2915 -0.1488
  885MOL0     C22052   7.380   7.721   4.075  0.2350 -0.0185 -0.0123
  885MOL0     C22053   7.401   7.865   4.113 -0.2088 -0.1513 -0.0694
  885MOL0     C22054   7.316   7.964   4.026 -1.0006  0.3052  0.1952
  885MOL0     C22055   7.170   7.927   3.999 -0.3410  0.1418  0.0517
  885MOL0     C22056   7.103   7.936   4.126 -0.5454 -1.1637 -0.6636
  885MOL0     C22057   7.027   7.940   4.222 -0.3647 -0.9715  0.4235
  885MOL0     C22058   7.660   7.681   3.995  0.0797  0.3339 -0.3725
  885MOL0     C22059   7.793   7.654   3.971  0.8424  0.5648  1.0398
  885MOL0     C22060   7.842   7.728   3.846  0.1394  0.9913  0.1126
  885MOL0     H22061   8.175   7.277   4.085  1.9544 -1.7375 -1.2433
  885MOL0     H22062   8.422   7.209   4.075  0.0984  0.1197  1.1296
  885MOL0     H22063   8.631   7.200   4.134 -0.5761  1.2147  1.5529
  885MOL0     H22064   8.786   7.271   4.139 -0.0258 -2.7682  0.9266
  885MOL0     H22065   8.610   7.268   3.880  0.0703 -0.5970  1.0082
  885MOL0     H22066   8.745   7.367   3.906  0.7689 -1.7159 -1.6761
  885MOL0     H22067   8.894   7.163   3.956 -0.4056 -0.7383 -0.5701
  885MOL0     H22068   8.760   7.072   3.900 -0.5377 -0.4008 -1.7000
  885MOL0     H22069   8.760   7.165   3.689 -0.2969 -0.4767 -0.9233
  885MOL0     H22070   8.878   7.292   3.723  2.1221 -0.3639  0.6288
  885MOL0     H22071   8.999   7.143   3.593 -0.5262 -0.6869  0.7725
  885MOL0     H22072   8.957   7.005   3.690  0.9440 -0.1846  0.5277
  885MOL0     H22073   9.100   7.239   3.800  0.0546 -0.3754  1.5134
  885MOL0     H22074   9.088   7.078   3.877  2.5822  0.5068 -0.2264
  885MOL0     H22075   9.259   7.157   3.634 -0.7915  1.6700  0.3647
  885MOL0     H22076   9.196   6.992   3.659  0.1868 -2.9579  4.1591
  885MOL0     H22077   9.349   7.147   3.884  1.4943 -1.7540  1.1005
  885MOL0     H22078   9.301   6.978   3.877  3.2217 -0.3348  1.5955
  885MOL0     H22079   9.449   6.864   3.613  0.9416 -1.8766  2.3050
  885MOL0     H22080   9.689   6.799   3.519 -0.5081 -0.1230 -0.7960
  885MOL0     H22081   9.808   6.855   3.637  1.6716 -1.0115 -1.6023
  885MOL0     H22082   9.726   7.007   3.382 -0.8940  1.2057  0.6072
  885MOL0     H22083   9.851   7.039   3.515 -0.6799  1.2579 -0.9497
  885MOL0     H22084   9.957   6.840   3.476  1.3183  2.5729  1.1314
  885MOL0     H22085   9.867   6.800   3.328 -1.8632 -0.1580  2.0447
  885MOL0     H22086   9.931   7.024   3.241 -2.5765  0.1208  2.3793
  885MOL0     H22087  10.044   7.043   3.363 -0.3676 -1.1980  1.4566
  885MOL0     H22088  10.061   7.115   3.068  0.5405  2.5267  0.8745
  885MOL0     H22089  10.279   7.318   2.900  0.8923 -2.0879 -1.5229
  885MOL0     H22090  10.140   7.322   3.008 -0.7902  0.2969 -0.3811
  885MOL0     H22091  10.134   7.240   2.852 -0.0522 -0.3307 -0.0684
  885MOL0     H22092  10.492   7.123   2.573  0.3046 -0.2539 -1.4154
  885MOL0     H22093  10.667   7.194   2.392 -0.8001  0.7147 -0.8345
  885MOL0     H22094  10.859   7.573   2.461 -0.5976 -0.0483  0.6231
  885MOL0     H22095  10.996   7.474   2.495  0.2648 -0.4383 -0.5854
  885MOL0     H22096  11.052   7.445   2.264 -1.9848 -1.0042  0.6458
  885MOL0     H22097  10.899   7.517   2.205 -0.3625  1.6009 -0.2174
  885MOL0     H22098  10.981   7.742   2.228 -0.9073 -0.5421  0.8592
  885MOL0     H22099  11.128   7.651   2.189  0.3398  2.6664 -0.2751
  885MOL0     H22100  11.177   7.622   2.425  1.2645  0.6829 -0.5292
  885MOL0     H22101  11.055   7.733   2.473  0.4633 -3.0913  0.4358
  885MOL0     H22102  11.290   7.799   2.281  2.8199  1.9742  0.1771
  885MOL0     H22103  11.164   7.911   2.328  2.7012  1.7728  1.3325
  885MOL0     H22104  11.351   7.773   2.517  0.3550  1.8315  1.9433
  885MOL0     H22105  11.235   7.898   2.562 -0.2558 -2.0376  1.3054
  885MOL0     H22106  11.364   8.012   2.356 -1.8470 -0.6555  0.3364
  885MOL0     H22107  11.501   7.919   2.412 -0.5413  0.4645 -1.1505
  885MOL0     H22108  11.506   8.141   2.517 -0.0290  0.2623 -0.7088
  885MOL0     H22109  11.461   8.021   2.637 -1.6934  1.0299  0.4440
  885MOL0     H22110  10.828   7.472   2.671  1.8757 -2.0635 -0.0137
  885MOL0     H22111  10.663   7.408   2.845 -0.5039  1.9211 -0.7371
  885MOL0     H22112  10.514   6.923   3.055 -0.8713 -1.3645 -0.3946
  885MOL0     H22113  10.346   6.799   3.164  2.2646  0.7078  0.0102
  885MOL0     H22114   8.510   7.611   4.210 -0.8551  0.6251 -1.5125
  885MOL0     H22115   8.285   7.654   4.237  0.4921 -1.3266  3.3581
  885MOL0     H22116   7.876   7.495   4.254  2.2498 -2.9138 -4.5033
  885MOL0     H22117   7.614   7.506   4.282 -0.9044  1.5683  1.1134
  885MOL0     H22118   7.377   7.713   3.966 -3.5403  1.0001 -0.0945
  885MOL0     H22119   7.276   7.701   4.101  0.1800  1.3344  0.9252
  885MOL0     H22120   7.504   7.887   4.085 -1.3801  1.3823 -3.7706
  885MOL0     H22121   7.382   7.880   4.220 -3.5051 -1.7839 -0.3125
  885MOL0     H22122   7.323   8.051   4.091  3.1061 -0.1463  0.6319
  885MOL0     H22123   7.373   7.980   3.934 -1.8239  1.8083 -0.0830
  885MOL0     H22124   7.158   7.830   3.949  1.6172 -0.2375  0.2542
  885MOL0     H22125   7.121   8.003   3.938  3.5399  1.5300 -1.5750
  885MOL0     H22126   6.979   7.948   4.318 -2.6077 -3.1911 -0.3929
  885MOL0     H22127   7.598   7.744   3.931  0.0300  2.9796  2.0585
  885MOL0     H22128   7.947   7.759   3.858 -0.0165  1.6319 -0.0948
  885MOL0     H22129   7.831   7.657   3.764 -0.0122  1.5542 -0.3593
  885MOL0     H22130   7.781   7.814   3.817 -1.3414 -0.0735 -0.0302
  886MOL0     O22131   8.464   0.003   2.923  0.6674 -0.1247 -0.1482
  886MOL0     C22132   8.344   0.007   2.885  0.0898 -0.4606 -0.9550
  886MOL0     O22133   8.245   0.077   2.945  0.2863 -0.0992 -0.4921
  886MOL0     C22134   8.277   0.166   3.051  0.2277 -0.0768  0.6157
  886MOL0     C22135   8.171   0.183   3.143  0.5713 -0.0493 -0.2254
  886MOL0     C22136   8.184   0.259   3.257  0.5570 -0.4591 -0.2113
  886MOL0     C22137   8.309   0.319   3.284  0.6651  0.3635 -0.4607
  886MOL0     O22138   8.313   0.380   3.404 -0.2721 -0.1983  0.4275
  886MOL0     C22139   8.438   0.379   3.471 -0.1408 -0.0284  0.6787
  886MOL0     C22140   8.431   0.411   3.622 -0.0928  0.6036  0.2711
  886MOL0     C22141   8.557   0.393   3.698  0.1052  0.0585 -0.6175
  886MOL0     C22142   8.544   0.468   3.838 -0.8003 -0.5020 -0.0680
  886MOL0     C22143   8.659   0.454   3.942 -0.6181  0.2362  0.6024
  886MOL0     C22144   8.793   0.508   3.872  0.0773  0.0652  0.2346
  886MOL0     C22145   8.901   0.521   3.974 -0.2601  0.6595  1.3707
  886MOL0     C22146   9.018   0.602   3.914  0.5164 -0.3659  0.1973
  886MOL0     N22147   9.126   0.613   4.007 -0.7871 -0.8397  0.2585
  886MOL0     C22148   9.245   0.544   4.006 -0.3164  1.0039 -0.3124
  886MOL0     C22149   9.308   0.571   4.124  0.0637  0.0134 -0.1422
  886MOL0     C22150   9.441   0.518   4.166 -0.1237 -0.3103  0.3065
  886MOL0     C22151   9.556   0.596   4.096  1.0459 -0.4064 -0.6645
  886MOL0     C22152   9.549   0.748   4.117 -0.1678  0.3921 -0.3355
  886MOL0     C22153   9.534   0.790   4.264 -0.5679 -0.8365  0.4620
  886MOL0     O22154   9.660   0.756   4.331 -0.3875  0.0229  0.3953
  886MOL0     C22155   9.773   0.829   4.312  0.2038 -0.5982 -0.1928
  886MOL0     C22156   9.797   0.946   4.240  0.0375 -0.2340  0.5609
  886MOL0     C22157   9.923   1.001   4.240 -0.3640  0.0516  0.9332
  886MOL0     C22158   9.953   1.137   4.164 -0.4293  0.0308  1.4925
  886MOL0     C22159  10.029   0.939   4.314  0.0465 -0.8676 -0.5447
  886MOL0     C22160  10.162   1.007   4.334  0.4944  0.7737  0.4521
  886MOL0     O22161  10.208   1.012   4.457  0.6975  0.1381 -0.0076
  886MOL0     C22162  10.321   1.059   4.497 -0.2654  0.0898  0.2640
  886MOL0     C22163  10.399   0.965   4.561 -0.2345 -0.4929  0.4083
  886MOL0     C22164  10.536   1.002   4.597  0.0688  0.9775  0.0130
  886MOL0     C22165  10.576   1.132   4.589  0.6831 -0.5779  0.1910
  886MOL0     O22166  10.708   1.159   4.612  0.4293 -0.4046 -0.1190
  886MOL0     C22167  10.735   1.291   4.666 -0.5135 -0.8246  0.4917
  886MOL0     C22168  10.886   1.297   4.679  0.0611  0.2921  0.0343
  886MOL0     C22169  10.924   1.443   4.715  0.2731 -0.4820  1.2263
  886MOL0     C22170  11.070   1.446   4.743 -0.5423 -0.3457 -0.2392
  886MOL0     C22171  11.105   1.581   4.799  0.4055 -0.2370  0.1156
  886MOL0     C22172  11.249   1.603   4.844  0.7557 -0.0205 -0.4453
  886MOL0     C22173  11.357   1.603   4.729  0.2982 -0.1370  1.2127
  886MOL0     C22174  11.485   1.682   4.773 -0.6529 -0.3858  0.1004
  886MOL0    Cl22175  11.595   1.600   4.898 -0.0676  0.0688 -0.2361
  886MOL0     C22176  10.491   1.232   4.534  0.3253  0.0692  0.2625
  886MOL0     C22177  10.361   1.191   4.484 -1.0896  0.1072 -0.2412
  886MOL0     O22178  10.226   1.046   4.235 -0.0120 -0.8224 -0.0256
  886MOL0     C22179  10.010   0.816   4.375 -0.0091  0.2070 -0.1858
  886MOL0     C22180   9.878   0.768   4.379 -0.7487 -0.4734  0.0256
  886MOL0     N22181   9.220   0.656   4.203  0.7868  0.1443  0.2241
  886MOL0     N22182   9.115   0.683   4.130 -0.1304 -0.5123  0.3922
  886MOL0     C22183   8.415   0.304   3.190 -0.5675 -0.1766 -0.2718
  886MOL0     C22184   8.398   0.247   3.067 -0.0773 -0.0356  0.0224
  886MOL0     C22185   8.310  -0.067   2.757 -0.2816  0.0940 -0.2342
  886MOL0     C22186   8.174  -0.094   2.738 -0.6325 -0.1392  0.6428
  886MOL0     C22187   8.128  -0.174   2.628 -0.6084  0.1823  0.0793
  886MOL0     C22188   8.219  -0.236   2.552 -0.5724  0.9041 -0.7496
  886MOL0     O22189   8.197  -0.328   2.452  0.3140 -0.1731 -0.4948
  886MOL0     C22190   8.067  -0.389   2.427 -0.1709  0.1162 -0.5756
  886MOL0     C22191   7.997  -0.300   2.328  0.0662 -0.5306 -0.3915
  886MOL0     C22192   7.844  -0.304   2.338 -0.1417 -0.6538  0.5129
  886MOL0     C22193   7.772  -0.229   2.222  0.1262 -0.1939  0.0546
  886MOL0     C22194   7.790  -0.086   2.248 -0.0510 -0.8427  0.8138
  886MOL0     C22195   7.805   0.041   2.267 -0.3112 -0.3857  0.4238
  886MOL0     C22196   8.349  -0.198   2.560 -0.8376 -0.0914 -0.4756
  886MOL0     C22197   8.399  -0.111   2.657  0.1845  0.2803 -0.4836
  886MOL0     C22198   8.549  -0.079   2.660  0.4903 -0.1867  0.9216
  886MOL0     H22199   8.077   0.135   3.118 -0.1690  1.9917 -1.6128
  886MOL0     H22200   8.109   0.268   3.334 -1.0998 -0.3014 -1.7760
  886MOL0     H22201   8.498   0.460   3.428  1.6709  0.5095  3.9379
  886MOL0     H22202   8.479   0.278   3.466  2.7132  1.0875 -1.2958
  886MOL0     H22203   8.393   0.514   3.626  1.7301  1.5078 -2.4884
  886MOL0     H22204   8.360   0.341   3.667  1.4932 -0.6879  0.8158
  886MOL0     H22205   8.569   0.286   3.719 -0.7799  0.2265  0.9161
  886MOL0     H22206   8.646   0.420   3.641  1.5335 -1.0856  0.9644
  886MOL0     H22207   8.535   0.574   3.814 -3.0308 -0.2086  1.7677
  886MOL0     H22208   8.458   0.434   3.898 -0.1926  2.4419  2.7085
  886MOL0     H22209   8.685   0.350   3.961  1.4130  0.7198  0.7247
  886MOL0     H22210   8.628   0.503   4.035 -0.6404  0.9617  0.2183
  886MOL0     H22211   8.821   0.439   3.792  0.2819 -1.4510  1.5625
  886MOL0     H22212   8.760   0.601   3.826 -0.1606  0.7679  1.7813
  886MOL0     H22213   8.934   0.427   4.017  0.3611  0.6027  0.7961
  886MOL0     H22214   8.862   0.581   4.057  0.1978 -0.5578  2.4917
  886MOL0     H22215   9.054   0.549   3.825  1.7902 -1.7279  1.4755
  886MOL0     H22216   8.987   0.705   3.896  1.2271 -0.3482 -1.0251
  886MOL0     H22217   9.282   0.466   3.941 -0.8131  0.1026  0.4525
  886MOL0     H22218   9.447   0.417   4.125 -2.9897 -0.6839  0.6051
  886MOL0     H22219   9.463   0.507   4.273  2.9720 -1.6470 -0.3744
  886MOL0     H22220   9.651   0.552   4.128 -1.1531 -3.3464  2.6596
  886MOL0     H22221   9.545   0.577   3.988 -2.2431 -0.2250 -0.4724
  886MOL0     H22222   9.642   0.788   4.077  0.6579 -2.0025 -0.9395
  886MOL0     H22223   9.467   0.790   4.057  0.4618  0.1178 -1.4078
  886MOL0     H22224   9.523   0.898   4.276 -0.0298 -0.3818 -2.3407
  886MOL0     H22225   9.444   0.740   4.302  0.6693 -3.7963 -0.2223
  886MOL0     H22226   9.723   1.016   4.202  1.3488  1.9328  1.8065
  886MOL0     H22227  10.034   1.205   4.194 -2.1391  1.7712  2.4081
  886MOL0     H22228   9.870   1.204   4.190  1.4680  3.6201 -0.7645
  886MOL0     H22229   9.960   1.114   4.057 -1.8494  2.1917  0.8524
  886MOL0     H22230  10.362   0.864   4.575  1.8412 -1.6565 -1.7797
  886MOL0     H22231  10.611   0.928   4.624  0.5571 -0.5478 -4.6941
  886MOL0     H22232  10.704   1.368   4.593  0.5846  1.4490  2.2999
  886MOL0     H22233  10.686   1.308   4.762 -0.5799  0.7979  0.2096
  886MOL0     H22234  10.915   1.225   4.756  1.1058  0.3310 -0.3019
  886MOL0     H22235  10.931   1.258   4.587 -0.0942  0.6320 -0.1895
  886MOL0     H22236  10.863   1.467   4.802 -1.3879 -2.4914  0.7049
  886MOL0     H22237  10.903   1.506   4.629  2.2627 -1.6784 -0.2281
  886MOL0     H22238  11.131   1.440   4.652 -1.8213  2.9038 -1.4348
  886MOL0     H22239  11.101   1.367   4.812 -0.4547 -3.3074 -3.3947
  886MOL0     H22240  11.088   1.652   4.718  0.6907  0.0515  0.3043
  886MOL0     H22241  11.045   1.598   4.889  0.0783  2.2423 -0.4909
  886MOL0     H22242  11.264   1.517   4.909  0.0099  0.6253  0.6166
  886MOL0     H22243  11.254   1.690   4.910 -1.7277 -0.6424  0.6919
  886MOL0     H22244  11.313   1.650   4.640  1.8160  0.4860  0.7503
  886MOL0     H22245  11.394   1.504   4.702  2.8343  0.6613  1.5010
  886MOL0     H22246  11.453   1.777   4.816 -1.0575 -1.7601  3.1008
  886MOL0     H22247  11.546   1.694   4.683  0.1344 -0.5458  0.5987
  886MOL0     H22248  10.518   1.333   4.507 -1.2425  0.2688 -0.7542
  886MOL0     H22249  10.298   1.254   4.422 -1.7908 -1.4295 -1.1452
  886MOL0     H22250  10.088   0.766   4.432 -1.7786 -1.8270  0.6114
  886MOL0     H22251   9.858   0.683   4.443 -0.7217  0.0343  0.7261
  886MOL0     H22252   8.510   0.354   3.210  0.7802 -1.8968 -1.9942
  886MOL0     H22253   8.477   0.246   2.993  0.2947 -2.1752  0.3748
  886MOL0     H22254   8.108  -0.050   2.811 -1.8474  0.2371 -0.6323
  886MOL0     H22255   8.021  -0.177   2.609 -0.5276  1.3861 -0.6695
  886MOL0     H22256   8.074  -0.488   2.381 -1.6513 -1.3489  2.0988
  886MOL0     H22257   8.015  -0.414   2.520  0.7397 -1.4558 -0.4491
  886MOL0     H22258   8.044  -0.328   2.233  1.0682  0.3618 -0.1728
  886MOL0     H22259   8.029  -0.196   2.340 -2.7943  0.5843 -1.5407
  886MOL0     H22260   7.805  -0.407   2.344  0.3891 -0.8121  1.4598
  886MOL0     H22261   7.811  -0.270   2.437 -3.1881  0.3136 -0.7165
  886MOL0     H22262   7.666  -0.256   2.223 -0.2331  1.0827  1.6894
  886MOL0     H22263   7.820  -0.263   2.130  4.2814  1.9870  1.1555
  886MOL0     H22264   7.833   0.143   2.289 -1.9907  0.3235 -0.5170
  886MOL0     H22265   8.426  -0.232   2.491  2.2479  2.7606  1.2559
  886MOL0     H22266   8.607  -0.157   2.711  1.2094 -1.4748 -1.6544
  886MOL0     H22267   8.579  -0.096   2.556  0.3115  1.5723  0.5572
  886MOL0     H22268   8.575   0.021   2.695  0.2110  0.4766 -0.6887
  887MOL0     O22269   7.355   0.278   9.620  0.1420  0.2194  0.2325
  887MOL0     C22270   7.308   0.315   9.512  0.6654  0.1232 -0.1693
  887MOL0     O22271   7.384   0.361   9.408  0.2749  0.5158 -0.7675
  887MOL0     C22272   7.516   0.342   9.422 -0.4676  0.3312  0.2170
  887MOL0     C22273   7.608   0.432   9.482  0.0705 -0.2770 -0.9635
  887MOL0     C22274   7.744   0.414   9.471  0.2549  0.7902 -0.3340
  887MOL0     C22275   7.788   0.292   9.412 -0.2088  0.1132 -0.3529
  887MOL0     O22276   7.930   0.285   9.408  0.2603  0.0144  0.5610
  887MOL0     C22277   7.986   0.169   9.339  1.1682 -0.4918  0.3694
  887MOL0     C22278   8.141   0.167   9.351 -0.1105  0.1447 -0.4442
  887MOL0     C22279   8.212   0.268   9.266 -0.1020  0.5760 -0.4063
  887MOL0     C22280   8.357   0.242   9.284  0.5823  0.9740  0.5663
  887MOL0     C22281   8.440   0.342   9.204 -0.3295  0.3866 -1.0471
  887MOL0     C22282   8.592   0.306   9.209  0.4041 -0.0864  0.1882
  887MOL0     C22283   8.668   0.403   9.112  0.4922 -0.2908  0.5838
  887MOL0     C22284   8.820   0.403   9.123 -0.5852  0.2900  0.2942
  887MOL0     N22285   8.878   0.454   8.994 -0.0851  0.2690 -0.1743
  887MOL0     C22286   8.923   0.581   8.976  0.2652 -0.0729  0.6562
  887MOL0     C22287   8.972   0.582   8.849 -0.5898 -0.3842 -0.1012
  887MOL0     C22288   9.025   0.698   8.775 -0.8124 -0.3057  0.6490
  887MOL0     C22289   9.179   0.685   8.761 -0.5889  0.6176 -0.9108
  887MOL0     C22290   9.229   0.765   8.635  0.2782  0.4957 -0.0540
  887MOL0     C22291   9.377   0.787   8.651  0.2149  0.2293 -0.8792
  887MOL0     O22292   9.427   0.803   8.513  0.0794 -0.3031 -0.3145
  887MOL0     C22293   9.559   0.783   8.482 -0.0675  0.1590  0.0803
  887MOL0     C22294   9.655   0.839   8.572 -0.7756 -1.0753 -0.0853
  887MOL0     C22295   9.796   0.816   8.540  0.1765  0.7283  0.1640
  887MOL0     C22296   9.884   0.871   8.651 -0.1079 -0.6778  0.1711
  887MOL0     C22297   9.833   0.745   8.418 -0.1477  0.6932  0.7957
  887MOL0     C22298   9.980   0.715   8.385  0.3606 -0.2598  0.0244
  887MOL0     O22299  10.005   0.658   8.265 -0.0535  0.0467  1.0334
  887MOL0     C22300  10.135   0.632   8.235 -0.1836  0.8581 -0.7584
  887MOL0     C22301  10.181   0.506   8.264  0.1160  1.0577  0.1343
  887MOL0     C22302  10.309   0.462   8.228 -0.1395 -0.4132 -0.3347
  887MOL0     C22303  10.392   0.560   8.170 -0.5270 -0.7224  0.8877
  887MOL0     O22304  10.513   0.537   8.111 -0.5180  0.7485  0.0362
  887MOL0     C22305  10.574   0.406   8.126  0.3111  0.8211 -0.2666
  887MOL0     C22306  10.716   0.423   8.073 -0.4171  0.3847  0.5269
  887MOL0     C22307  10.791   0.292   8.070 -1.8372  0.1653 -0.4135
  887MOL0     C22308  10.866   0.267   8.204 -0.9132 -0.2000  0.2502
  887MOL0     C22309  10.947   0.130   8.193  0.0383 -0.7390 -0.3208
  887MOL0     C22310  11.048   0.119   8.075 -0.6834  0.4781  0.4800
  887MOL0     C22311  11.163   0.224   8.074 -0.2192 -0.1022 -0.1177
  887MOL0     C22312  11.273   0.194   8.177 -0.0029 -0.2392 -0.5553
  887MOL0    Cl22313  11.319   0.022   8.195 -0.6343 -0.1719 -0.0560
  887MOL0     C22314  10.349   0.692   8.146  0.2057  0.0974 -0.0622
  887MOL0     C22315  10.215   0.723   8.171 -0.3940  0.2776  0.2551
  887MOL0     O22316  10.069   0.733   8.465  0.5816 -0.1234  0.4341
  887MOL0     C22317   9.723   0.695   8.338  0.7060  0.6435 -0.2420
  887MOL0     C22318   9.591   0.716   8.370 -0.2349  0.3425  0.3528
  887MOL0     N22319   8.982   0.454   8.798  0.0116  0.3850  0.4164
  887MOL0     N22320   8.921   0.381   8.885  0.0201 -0.2390  0.5808
  887MOL0     C22321   7.700   0.189   9.363  0.2862 -1.0096  0.1610
  887MOL0     C22322   7.561   0.218   9.371 -0.7631  0.6485  0.0109
  887MOL0     C22323   7.158   0.353   9.519 -0.4492 -0.6228  0.5024
  887MOL0     C22324   7.122   0.440   9.412  0.0543  0.1800  0.0969
  887MOL0     C22325   6.983   0.471   9.395  0.2055 -0.7036 -0.5808
  887MOL0     C22326   6.891   0.425   9.485 -0.4243 -0.8866  0.3961
  887MOL0     O22327   6.766   0.471   9.464 -0.1148  0.1513  0.2334
  887MOL0     C22328   6.672   0.464   9.572  0.3280 -0.4914 -0.4486
  887MOL0     C22329   6.539   0.521   9.516  0.7402 -0.0209 -0.0269
  887MOL0     C22330   6.448   0.428   9.430 -0.4527 -0.3727  0.6191
  887MOL0     C22331   6.322   0.503   9.371 -0.1668  0.5285 -0.0391
  887MOL0     C22332   6.256   0.396   9.292  0.4301  0.3040  0.4645
  887MOL0     C22333   6.214   0.305   9.223 -0.1038  0.0174  0.3346
  887MOL0     C22334   6.922   0.344   9.585 -0.2863  0.2718 -0.6218
  887MOL0     C22335   7.053   0.304   9.600  0.3070 -0.4336 -0.7707
  887MOL0     C22336   7.081   0.208   9.720  0.5249 -0.3501 -1.1208
  887MOL0     H22337   7.565   0.526   9.517  0.8462  0.1452 -1.1073
  887MOL0     H22338   7.814   0.478   9.523 -1.5998  2.3570  0.3517
  887MOL0     H22339   7.954   0.171   9.235 -1.9625 -0.2231  1.2495
  887MOL0     H22340   7.956   0.074   9.384 -0.7179 -2.1779 -3.9296
  887MOL0     H22341   8.176   0.180   9.454  1.0077  0.8833 -0.8965
  887MOL0     H22342   8.171   0.069   9.315  1.9224  0.5300  0.0677
  887MOL0     H22343   8.179   0.275   9.162 -3.0374  5.5309  0.5118
  887MOL0     H22344   8.186   0.364   9.311 -1.0316 -0.9807  2.6338
  887MOL0     H22345   8.381   0.230   9.390 -2.3056 -0.9376  1.1051
  887MOL0     H22346   8.370   0.143   9.240 -0.9559  0.8959  0.2516
  887MOL0     H22347   8.412   0.440   9.245 -2.9405 -0.2100 -1.2166
  887MOL0     H22348   8.393   0.336   9.105  0.3263 -1.3191 -1.2866
  887MOL0     H22349   8.636   0.303   9.310  1.5559 -0.4056 -0.3010
  887MOL0     H22350   8.594   0.209   9.159 -1.8077 -0.4666  0.7433
  887MOL0     H22351   8.635   0.501   9.149 -1.3287 -0.2424 -1.0258
  887MOL0     H22352   8.619   0.397   9.015 -3.1236  0.2616  2.1984
  887MOL0     H22353   8.860   0.467   9.202 -0.5200  1.2196 -0.4738
  887MOL0     H22354   8.854   0.301   9.143  0.8249  0.9205  1.2516
  887MOL0     H22355   8.906   0.664   9.044 -2.6354 -0.0117 -0.0160
  887MOL0     H22356   9.006   0.785   8.838  2.5027  1.1102 -0.1298
  887MOL0     H22357   8.975   0.724   8.681  1.3845  2.4945  0.1207
  887MOL0     H22358   9.213   0.708   8.862 -3.6255  1.1166  0.1013
  887MOL0     H22359   9.198   0.580   8.736 -1.2982 -0.2903  1.9505
  887MOL0     H22360   9.216   0.716   8.539 -1.9926  0.8395  0.0278
  887MOL0     H22361   9.170   0.857   8.640 -1.0343 -0.3602  1.1053
  887MOL0     H22362   9.400   0.872   8.716  0.1415 -1.7061  1.8478
  887MOL0     H22363   9.415   0.693   8.692 -0.5387  0.1640 -0.3119
  887MOL0     H22364   9.626   0.889   8.664  2.3256  0.1499  0.3592
  887MOL0     H22365   9.839   0.956   8.703  1.6939 -0.3825  1.3429
  887MOL0     H22366   9.981   0.906   8.616 -0.0916  1.2389  1.9715
  887MOL0     H22367   9.907   0.799   8.730  0.7992 -1.2343 -0.5875
  887MOL0     H22368  10.109   0.436   8.306 -1.3584  1.3126 -1.8166
  887MOL0     H22369  10.340   0.363   8.260 -1.3634  0.0713  2.7794
  887MOL0     H22370  10.582   0.378   8.232  1.2400  0.4000 -0.4406
  887MOL0     H22371  10.523   0.329   8.068  2.1006 -0.3818 -0.3195
  887MOL0     H22372  10.713   0.472   7.975 -2.0853  1.6230  1.1578
  887MOL0     H22373  10.763   0.496   8.139  0.3690 -0.2718  0.7133
  887MOL0     H22374  10.864   0.307   7.990 -1.8444  0.6741 -0.3244
  887MOL0     H22375  10.734   0.203   8.043 -3.5483  0.8873  0.6313
  887MOL0     H22376  10.787   0.271   8.280 -3.4975 -0.9727 -2.2001
  887MOL0     H22377  10.936   0.351   8.210  0.0560 -0.8853 -0.9450
  887MOL0     H22378  11.006   0.116   8.284  0.7324 -0.5717 -0.7406
  887MOL0     H22379  10.871   0.052   8.187  2.1351 -2.7701 -1.8767
  887MOL0     H22380  10.991   0.121   7.981  1.8249  0.8452 -1.1221
  887MOL0     H22381  11.096   0.021   8.074  2.7860  2.0101 -1.9125
  887MOL0     H22382  11.124   0.323   8.097  4.0086  1.1374  2.9228
  887MOL0     H22383  11.206   0.231   7.974  0.8595  0.8651  0.3938
  887MOL0     H22384  11.232   0.225   8.274 -0.4696 -0.3163 -0.7274
  887MOL0     H22385  11.362   0.256   8.166  1.1666 -0.5527  4.6479
  887MOL0     H22386  10.422   0.755   8.096  1.5742 -3.2171 -2.5755
  887MOL0     H22387  10.174   0.820   8.146  2.1275  2.4906  3.7769
  887MOL0     H22388   9.745   0.629   8.255  0.7453  0.6046 -0.1999
  887MOL0     H22389   9.510   0.689   8.304  0.0382  2.1256 -0.7992
  887MOL0     H22390   7.728   0.098   9.310 -2.8113 -2.4148  0.7291
  887MOL0     H22391   7.486   0.145   9.341 -1.3505  0.7936  1.0942
  887MOL0     H22392   7.193   0.472   9.336 -1.6236 -2.3522 -2.8276
  887MOL0     H22393   6.944   0.540   9.321 -3.0142  1.9399  3.1421
  887MOL0     H22394   6.652   0.367   9.617 -2.0696  0.2654  0.3027
  887MOL0     H22395   6.701   0.530   9.654  1.3452 -0.8285 -0.5227
  887MOL0     H22396   6.553   0.615   9.460  1.0814  1.2262  2.0585
  887MOL0     H22397   6.472   0.553   9.597  0.8525 -1.9628  0.8776
  887MOL0     H22398   6.503   0.394   9.342 -0.7731 -1.3586  0.7914
  887MOL0     H22399   6.417   0.336   9.480 -0.9735  0.0011  1.0048
  887MOL0     H22400   6.350   0.589   9.309 -2.6434  2.3528  1.1818
  887MOL0     H22401   6.266   0.542   9.456  1.2023 -0.6321  1.4729
  887MOL0     H22402   6.179   0.223   9.163 -0.4077  0.3778  0.0114
  887MOL0     H22403   6.849   0.305   9.655  0.5925  0.4507  0.4142
  887MOL0     H22404   6.987   0.173   9.764 -0.1971  2.4818 -0.1973
  887MOL0     H22405   7.155   0.131   9.696  1.5216 -0.3375  1.6178
  887MOL0     H22406   7.143   0.269   9.786 -1.2598 -0.9740  1.2572
  888MOL0     O22407   3.753   4.981   1.954 -0.2170  0.0953 -0.3055
  888MOL0     C22408   3.794   5.031   2.057 -0.3167 -0.6373 -0.0137
  888MOL0     O22409   3.928   5.049   2.088 -0.1525  0.2765 -0.0949
  888MOL0     C22410   4.020   5.004   1.991 -0.6815  0.1795 -0.7119
  888MOL0     C22411   4.050   4.862   1.977  0.7885 -0.2227  0.2892
  888MOL0     C22412   4.133   4.820   1.865  0.4043 -0.0049 -0.2548
  888MOL0     C22413   4.201   4.922   1.795  0.2840 -0.3352  0.2568
  888MOL0     O22414   4.278   4.879   1.696  0.0054  0.8326  0.0331
  888MOL0     C22415   4.399   4.959   1.674  0.1984 -0.7392  0.7680
  888MOL0     C22416   4.497   4.875   1.596 -0.1446  0.1021  0.3836
  888MOL0     C22417   4.636   4.940   1.601  0.7227 -0.9707  0.0750
  888MOL0     C22418   4.739   4.856   1.528 -0.6798 -0.1968 -0.4012
  888MOL0     C22419   4.870   4.928   1.573  0.3174 -0.1163 -0.6016
  888MOL0     C22420   4.996   4.874   1.500  0.3489 -0.4838 -1.0992
  888MOL0     C22421   5.070   4.771   1.579 -0.2312 -0.2993 -0.5319
  888MOL0     C22422   5.188   4.698   1.504  0.2714  0.0148 -0.1886
  888MOL0     N22423   5.302   4.782   1.486 -1.0519  0.0125  0.2661
  888MOL0     C22424   5.428   4.743   1.545  0.4520 -0.0048  1.3574
  888MOL0     C22425   5.506   4.848   1.513  0.2780  0.5220 -0.2154
  888MOL0     C22426   5.655   4.875   1.543 -0.7079  0.1171  0.5805
  888MOL0     C22427   5.734   4.760   1.598 -0.1127 -0.5997  0.3971
  888MOL0     C22428   5.884   4.796   1.637 -0.1255  0.1982  0.2968
  888MOL0     C22429   5.952   4.662   1.658 -0.5300 -0.0437  0.3251
  888MOL0     O22430   6.089   4.679   1.619 -1.1549  0.6659 -0.1687
  888MOL0     C22431   6.177   4.593   1.674 -0.2174  0.4631 -0.4464
  888MOL0     C22432   6.190   4.460   1.641  0.3114 -0.1997 -0.7571
  888MOL0     C22433   6.289   4.372   1.695 -0.1510  0.2255 -0.0507
  888MOL0     C22434   6.285   4.224   1.649  0.4675  0.9069 -0.0671
  888MOL0     C22435   6.381   4.422   1.794  0.6148 -0.4815  0.4689
  888MOL0     C22436   6.477   4.339   1.872 -0.1082  0.1555 -0.3872
  888MOL0     O22437   6.525   4.387   1.992 -0.0209 -0.7043 -0.2235
  888MOL0     C22438   6.648   4.326   2.027 -0.7982  0.1384 -0.5293
  888MOL0     C22439   6.657   4.201   2.080 -0.5156 -0.3729  0.1908
  888MOL0     C22440   6.788   4.149   2.113 -0.8533 -0.0135 -1.1199
  888MOL0     C22441   6.903   4.220   2.088  0.1291  0.0769 -0.7226
  888MOL0     O22442   7.019   4.156   2.117  0.0649  0.2657 -0.0279
  888MOL0     C22443   7.130   4.226   2.171  0.5027 -0.4503  0.0349
  888MOL0     C22444   7.116   4.252   2.322 -0.3459  0.0337  0.4299
  888MOL0     C22445   7.246   4.286   2.389  0.1477 -0.3416 -0.1252
  888MOL0     C22446   7.304   4.421   2.350  1.2655  0.0237  0.9831
  888MOL0     C22447   7.218   4.538   2.395 -0.2539  0.3070  0.2792
  888MOL0     C22448   7.292   4.666   2.353  0.8259 -0.0194 -0.1111
  888MOL0     C22449   7.211   4.774   2.397  0.2138  0.0552  0.1551
  888MOL0     C22450   7.274   4.912   2.358  1.1872  0.7227  0.1040
  888MOL0    Cl22451   7.174   5.054   2.402 -0.1796  0.4162  0.3164
  888MOL0     C22452   6.891   4.351   2.037 -0.3137  0.0276 -0.5907
  888MOL0     C22453   6.762   4.402   2.015  0.5669  0.1882  0.3558
  888MOL0     O22454   6.527   4.252   1.800  0.1479 -0.1197 -0.2100
  888MOL0     C22455   6.368   4.559   1.825 -0.0010 -0.8747 -0.4508
  888MOL0     C22456   6.267   4.642   1.769 -0.2643  0.1301  0.5047
  888MOL0     N22457   5.430   4.946   1.444 -0.6026  0.7606  0.3984
  888MOL0     N22458   5.313   4.906   1.433 -0.6660 -0.0609 -0.0259
  888MOL0     C22459   4.173   5.060   1.809  0.0537  0.2756 -0.1160
  888MOL0     C22460   4.077   5.094   1.906 -0.1363  0.2245 -0.0706
  888MOL0     C22461   3.699   5.087   2.157  0.2978  0.4463  0.4981
  888MOL0     C22462   3.754   5.139   2.273  0.4560 -0.3640 -0.2590
  888MOL0     C22463   3.661   5.205   2.360 -0.3833  0.8547 -1.3227
  888MOL0     C22464   3.530   5.219   2.338 -0.5587 -0.9338  0.2533
  888MOL0     O22465   3.453   5.295   2.428  0.2540  0.0487 -0.4921
  888MOL0     C22466   3.310   5.290   2.425  0.3424 -0.1139  0.4844
  888MOL0     C22467   3.257   5.396   2.535  0.2704  0.0700  0.1373
  888MOL0     C22468   3.282   5.355   2.683  0.8994  0.4395 -0.2626
  888MOL0     C22469   3.247   5.472   2.773  0.4553 -0.7289 -0.3790
  888MOL0     C22470   3.102   5.515   2.763 -1.3326  0.8042 -1.0230
  888MOL0     C22471   2.992   5.559   2.772 -0.3165 -0.5540 -0.0943
  888MOL0     C22472   3.476   5.152   2.227  0.5492 -0.1616 -0.6127
  888MOL0     C22473   3.556   5.097   2.130 -0.9198 -0.5894  0.5469
  888MOL0     C22474   3.494   5.040   2.006 -0.1243  0.5888 -0.0174
  888MOL0     H22475   3.999   4.793   2.042 -0.8070  3.1029  2.8947
  888MOL0     H22476   4.161   4.715   1.855  0.7681 -0.1444  1.8964
  888MOL0     H22477   4.445   4.995   1.766  0.9638  2.1766 -0.6360
  888MOL0     H22478   4.377   5.047   1.614  0.6946 -0.3329  1.1766
  888MOL0     H22479   4.498   4.769   1.621  0.4597  0.1941  0.7511
  888MOL0     H22480   4.459   4.870   1.493  0.7873 -0.7687  0.0735
  888MOL0     H22481   4.633   5.042   1.563  1.6961  0.1844  2.8839
  888MOL0     H22482   4.663   4.955   1.706  0.6939  0.2162 -0.0752
  888MOL0     H22483   4.730   4.758   1.575 -1.5406  0.7632  1.5390
  888MOL0     H22484   4.738   4.851   1.419  1.2508 -4.9965 -0.4220
  888MOL0     H22485   4.892   4.910   1.679  0.3446 -1.4677 -0.8202
  888MOL0     H22486   4.864   5.037   1.560  0.5645  0.3489  2.3389
  888MOL0     H22487   4.965   4.837   1.401 -1.2843 -0.3102 -0.6883
  888MOL0     H22488   5.058   4.964   1.496 -0.4322  0.0596 -1.4281
  888MOL0     H22489   5.009   4.688   1.615  3.7963 -3.3044 -0.0277
  888MOL0     H22490   5.095   4.824   1.672 -0.1824 -1.8186  0.3598
  888MOL0     H22491   5.224   4.605   1.549 -1.3984 -1.0035 -0.8756
  888MOL0     H22492   5.147   4.672   1.406  0.7317  0.3471 -0.4698
  888MOL0     H22493   5.446   4.653   1.604 -2.4256 -1.2238  0.5711
  888MOL0     H22494   5.649   4.944   1.627 -3.4164 -0.7796  1.2185
  888MOL0     H22495   5.711   4.921   1.461 -0.6270 -1.4658 -0.2812
  888MOL0     H22496   5.682   4.713   1.682 -1.2806  1.2754  0.7949
  888MOL0     H22497   5.733   4.686   1.518 -2.2404  0.2048 -0.4017
  888MOL0     H22498   5.920   4.854   1.552 -0.7612 -2.5975 -2.0274
  888MOL0     H22499   5.886   4.864   1.723 -0.9652 -0.4794  0.8650
  888MOL0     H22500   5.950   4.636   1.764  1.2601  0.0676  0.4068
  888MOL0     H22501   5.906   4.581   1.600 -1.8539 -1.2379  2.8852
  888MOL0     H22502   6.120   4.412   1.574  1.3362 -0.5210 -1.6295
  888MOL0     H22503   6.207   4.201   1.576 -0.4910 -1.2818  1.5214
  888MOL0     H22504   6.271   4.160   1.737 -1.1991 -0.5967 -1.3673
  888MOL0     H22505   6.379   4.193   1.602 -0.0625 -1.9164  0.5781
  888MOL0     H22506   6.558   4.159   2.094 -1.8444  2.5023 -0.0835
  888MOL0     H22507   6.789   4.049   2.155 -2.8145 -0.1612 -1.3790
  888MOL0     H22508   7.215   4.160   2.155  1.5003  0.6898  0.4587
  888MOL0     H22509   7.137   4.325   2.124  0.5272 -0.8112 -0.7308
  888MOL0     H22510   7.038   4.326   2.335  0.9202  1.4181  0.3868
  888MOL0     H22511   7.086   4.156   2.367 -1.7132 -0.1193 -0.7448
  888MOL0     H22512   7.325   4.211   2.378  1.4521  0.3714  3.1635
  888MOL0     H22513   7.223   4.282   2.496 -1.8251 -1.5857 -0.5507
  888MOL0     H22514   7.312   4.423   2.241 -0.2415  0.4970  0.8637
  888MOL0     H22515   7.406   4.431   2.389  0.5102  0.0917  3.0778
  888MOL0     H22516   7.116   4.527   2.357  0.1641 -0.2722 -0.7117
  888MOL0     H22517   7.210   4.530   2.504  1.3725  2.9182  0.6811
  888MOL0     H22518   7.313   4.677   2.246  1.3093  0.6990  0.0544
  888MOL0     H22519   7.386   4.676   2.408 -0.8612 -0.6222  3.1522
  888MOL0     H22520   7.200   4.770   2.506  1.2659  1.1802  0.3205
  888MOL0     H22521   7.109   4.759   2.360 -0.1252 -0.4263  1.2410
  888MOL0     H22522   7.285   4.910   2.249 -2.0866  0.0034 -0.3314
  888MOL0     H22523   7.375   4.928   2.397  2.2005 -1.9358 -1.1680
  888MOL0     H22524   6.982   4.407   2.019 -0.9791  0.8194 -1.5855
  888MOL0     H22525   6.756   4.506   1.984 -0.4893  0.7501  2.2646
  888MOL0     H22526   6.435   4.615   1.890 -0.7168 -0.3304 -0.1590
  888MOL0     H22527   6.255   4.748   1.792  0.0745  0.4870 -0.8574
  888MOL0     H22528   4.219   5.133   1.743  0.4254  0.4164  0.2930
  888MOL0     H22529   4.040   5.195   1.920 -4.2940 -1.1068 -0.2149
  888MOL0     H22530   3.859   5.137   2.303  0.2965  1.9513  0.6281
  888MOL0     H22531   3.708   5.254   2.444 -1.0563 -0.2107 -0.2894
  888MOL0     H22532   3.267   5.325   2.330 -2.6278  1.7870  2.3782
  888MOL0     H22533   3.273   5.190   2.449  0.7338 -0.4034 -0.0867
  888MOL0     H22534   3.149   5.406   2.519  0.3818 -0.1230 -0.7788
  888MOL0     H22535   3.296   5.498   2.523 -0.7506  0.4083 -0.4016
  888MOL0     H22536   3.225   5.265   2.708  2.5692 -0.6993 -0.4184
  888MOL0     H22537   3.387   5.334   2.705  1.2669  1.3529 -1.0999
  888MOL0     H22538   3.314   5.552   2.742 -0.0936 -0.5443 -1.0982
  888MOL0     H22539   3.278   5.444   2.875 -1.3472  0.9710  0.6956
  888MOL0     H22540   2.890   5.594   2.771 -0.2461 -0.3518 -0.8439
  888MOL0     H22541   3.368   5.164   2.218  0.3808 -0.4469  0.7327
  888MOL0     H22542   3.522   5.097   1.917  1.2914  0.1861  0.1573
  888MOL0     H22543   3.536   4.940   1.996  2.2333  1.3667  1.3897
  888MOL0     H22544   3.385   5.027   2.015 -0.3076 -1.4163 -3.3654
  889MOL0     O22545   7.509   3.135   8.890 -0.3030 -0.1514 -0.0222
  889MOL0     C22546   7.473   3.029   8.843  0.4075  0.5419 -0.6700
  889MOL0     O22547   7.556   2.949   8.769 -0.6322  0.5461  0.3041
  889MOL0     C22548   7.683   2.986   8.761  0.9894 -0.1208 -0.8381
  889MOL0     C22549   7.740   2.985   8.632 -0.1530  0.6116  0.0032
  889MOL0     C22550   7.876   3.003   8.610 -0.2724 -0.4026 -0.3833
  889MOL0     C22551   7.958   3.040   8.716  0.6707  0.1833  0.1998
  889MOL0     O22552   8.090   3.049   8.687 -0.5655 -0.0436  0.1819
  889MOL0     C22553   8.167   3.149   8.758  0.2499  0.3566  1.1218
  889MOL0     C22554   8.267   3.077   8.858  0.7522  0.1889 -0.0541
  889MOL0     C22555   8.327   3.170   8.965 -0.4517 -1.1785  0.1267
  889MOL0     C22556   8.221   3.225   9.058  0.0675 -0.2870  0.2884
  889MOL0     C22557   8.274   3.303   9.174 -0.5806  0.2591 -0.6859
  889MOL0     C22558   8.331   3.213   9.282 -0.6583 -0.2332 -0.5888
  889MOL0     C22559   8.409   3.293   9.393  0.2585  0.2771 -0.2726
  889MOL0     C22560   8.537   3.356   9.329 -0.0841  0.2288 -0.2088
  889MOL0     N22561   8.647   3.330   9.425  0.3517  0.1981 -0.1438
  889MOL0     C22562   8.695   3.216   9.476 -0.6811  0.1457 -0.2203
  889MOL0     C22563   8.787   3.262   9.582 -0.0657 -0.1580 -0.7906
  889MOL0     C22564   8.864   3.174   9.670  0.5770 -0.0908  0.4706
  889MOL0     C22565   8.993   3.124   9.605 -0.3208  0.4212  0.7163
  889MOL0     C22566   9.080   3.039   9.704  0.6487 -0.8566 -0.6101
  889MOL0     C22567   9.205   2.962   9.646  0.6054 -0.9720 -0.1592
  889MOL0     O22568   9.300   3.065   9.615 -0.7891  0.0423  0.3364
  889MOL0     C22569   9.432   3.035   9.609  0.1046 -0.1912  0.0798
  889MOL0     C22570   9.512   3.148   9.584  0.6669  0.6317 -0.2963
  889MOL0     C22571   9.652   3.148   9.595  0.7069  0.4036 -0.5958
  889MOL0     C22572   9.731   3.274   9.576 -0.4940 -0.2236 -0.0194
  889MOL0     C22573   9.714   3.022   9.619 -0.6663 -0.1632  0.1431
  889MOL0     C22574   9.861   2.996   9.618  0.3024 -0.1464 -0.0351
  889MOL0     O22575   9.945   3.101   9.644  0.7451 -0.7064  0.0713
  889MOL0     C22576  10.068   3.108   9.594 -0.0815  0.1145 -0.0291
  889MOL0     C22577  10.165   3.012   9.594 -1.1637  0.4667  0.4261
  889MOL0     C22578  10.290   3.035   9.525 -0.5709 -0.4840  0.2174
  889MOL0     C22579  10.319   3.164   9.465  1.3363  0.4882  0.0982
  889MOL0     O22580  10.436   3.189   9.396  0.0787 -0.0967  0.2743
  889MOL0     C22581  10.531   3.087   9.378 -0.4344 -0.0548  0.4690
  889MOL0     C22582  10.647   3.127   9.283  0.1982 -0.0624  0.0836
  889MOL0     C22583  10.771   3.035   9.304 -0.3865  0.0890 -0.0200
  889MOL0     C22584  10.905   3.110   9.290  0.0782  0.2928  1.3920
  889MOL0     C22585  11.028   3.038   9.331  0.2416  0.9103 -0.6733
  889MOL0     C22586  11.161   3.114   9.297  0.5467  0.6082 -0.2780
  889MOL0     C22587  11.276   3.014   9.331  0.0629  0.0513 -0.5803
  889MOL0     C22588  11.422   3.071   9.316  0.0020 -0.0988 -0.6445
  889MOL0    Cl22589  11.546   2.937   9.331  0.0977 -0.1405 -0.3927
  889MOL0     C22590  10.219   3.259   9.465  0.9875 -0.1286  0.4860
  889MOL0     C22591  10.094   3.238   9.536 -0.7032  0.5335  1.2359
  889MOL0     O22592   9.893   2.892   9.565  0.1630  0.6609  0.5082
  889MOL0     C22593   9.628   2.911   9.644 -0.1748  0.0006  0.3878
  889MOL0     C22594   9.491   2.913   9.642 -0.0714  0.5415  0.8265
  889MOL0     N22595   8.780   3.400   9.586 -0.3808 -0.0960 -0.7377
  889MOL0     N22596   8.695   3.439   9.493  0.9824 -0.7119 -0.1159
  889MOL0     C22597   7.906   3.034   8.848  1.0187  0.8917 -0.0557
  889MOL0     C22598   7.767   3.012   8.874 -0.6702  0.1710 -0.8273
  889MOL0     C22599   7.331   2.996   8.853  0.2319 -0.1822  0.0793
  889MOL0     C22600   7.292   2.884   8.783  0.4742  0.3913 -0.0636
  889MOL0     C22601   7.157   2.841   8.763  0.2206  0.0245  0.6614
  889MOL0     C22602   7.051   2.902   8.831  0.2520 -0.6305 -0.3110
  889MOL0     O22603   6.921   2.865   8.795 -0.5562 -0.0023 -0.5073
  889MOL0     C22604   6.846   2.816   8.909  0.4000 -0.2448 -0.5525
  889MOL0     C22605   6.703   2.849   8.893 -0.6685  0.4269 -0.3307
  889MOL0     C22606   6.658   2.993   8.918 -0.2633  0.2784  0.0886
  889MOL0     C22607   6.514   3.008   8.860  0.5509 -0.4826  0.6279
  889MOL0     C22608   6.410   2.933   8.928  0.2144  0.6353  0.8896
  889MOL0     C22609   6.325   2.872   8.988  1.2181 -0.5732 -0.6775
  889MOL0     C22610   7.088   3.008   8.916 -0.7872  0.0643 -0.3047
  889MOL0     C22611   7.218   3.064   8.925 -0.7775 -0.0115  0.2533
  889MOL0     C22612   7.241   3.182   9.011  0.1572 -0.3891  1.1839
  889MOL0     H22613   7.693   2.948   8.542  1.5016 -0.7827 -0.3555
  889MOL0     H22614   7.925   2.990   8.514  0.8755  1.1439 -0.0345
  889MOL0     H22615   8.101   3.222   8.805  0.2291  0.5500  0.7911
  889MOL0     H22616   8.221   3.205   8.681 -2.4584  3.1557  1.0635
  889MOL0     H22617   8.219   2.994   8.910  1.0903  0.5400  0.8288
  889MOL0     H22618   8.339   3.019   8.798 -1.1368 -3.1337  0.6365
  889MOL0     H22619   8.402   3.111   9.019 -2.7546 -3.5222  0.9723
  889MOL0     H22620   8.375   3.255   8.915 -1.8904  0.1819  0.9614
  889MOL0     H22621   8.147   3.291   9.012 -0.7959 -0.7327  1.0037
  889MOL0     H22622   8.165   3.146   9.108 -0.9951 -0.1529 -0.6618
  889MOL0     H22623   8.195   3.361   9.222 -0.1005  3.0839 -2.9864
  889MOL0     H22624   8.358   3.360   9.132 -0.4726 -1.8556 -3.7191
  889MOL0     H22625   8.252   3.150   9.325 -1.5085  1.4102  0.3499
  889MOL0     H22626   8.399   3.145   9.229 -2.0326  0.0563 -2.8680
  889MOL0     H22627   8.438   3.230   9.478 -0.7883  0.9160  0.5813
  889MOL0     H22628   8.348   3.375   9.431  0.6865 -0.7747  3.0141
  889MOL0     H22629   8.565   3.317   9.230  2.0044 -1.2164  0.8848
  889MOL0     H22630   8.518   3.463   9.316  1.1888  0.3118 -1.7985
  889MOL0     H22631   8.671   3.113   9.451  1.9460  0.1240 -3.1422
  889MOL0     H22632   8.797   3.094   9.702 -0.1828 -0.6692 -2.2860
  889MOL0     H22633   8.895   3.240   9.752  3.9595 -1.7044  0.6715
  889MOL0     H22634   8.954   3.058   9.527  1.0596 -1.2278  1.3519
  889MOL0     H22635   9.060   3.194   9.554  0.5209 -0.6914  0.2402
  889MOL0     H22636   9.104   3.109   9.785 -3.6305 -1.0848  1.1269
  889MOL0     H22637   9.005   2.974   9.749 -1.5175  1.4869 -0.5565
  889MOL0     H22638   9.236   2.902   9.731 -3.9810 -0.9865  1.8272
  889MOL0     H22639   9.191   2.896   9.561  0.8630 -1.4395  0.1566
  889MOL0     H22640   9.466   3.246   9.588  0.6064  0.5762  1.4164
  889MOL0     H22641   9.673   3.366   9.569 -0.7108 -0.4801 -2.8275
  889MOL0     H22642   9.784   3.266   9.480 -0.9096 -0.5828 -0.2204
  889MOL0     H22643   9.801   3.296   9.657 -1.0742  1.4739  0.0660
  889MOL0     H22644  10.163   2.914   9.641  2.9530  0.2830  0.6366
  889MOL0     H22645  10.362   2.954   9.525 -1.2115 -1.0948 -2.0555
  889MOL0     H22646  10.574   3.048   9.471  0.2440 -0.3429  0.0365
  889MOL0     H22647  10.482   3.003   9.329  0.3701 -1.4882  2.0222
  889MOL0     H22648  10.614   3.119   9.179 -0.3416 -3.1952  0.3876
  889MOL0     H22649  10.683   3.225   9.315  0.0572 -0.1778  0.6044
  889MOL0     H22650  10.772   2.954   9.230 -0.0422 -1.1914  1.3503
  889MOL0     H22651  10.770   2.988   9.402  0.5218  0.6048  0.2484
  889MOL0     H22652  10.891   3.201   9.350 -2.6661  0.5338  0.5256
  889MOL0     H22653  10.915   3.141   9.186 -3.6659  0.5370  0.9712
  889MOL0     H22654  11.034   3.040   9.440 -2.6630  4.8619 -0.3521
  889MOL0     H22655  11.026   2.935   9.292  0.5888 -0.7739  3.2515
  889MOL0     H22656  11.165   3.205   9.359  0.0149  0.6924 -0.3625
  889MOL0     H22657  11.172   3.140   9.191  2.2110 -0.6606 -0.4543
  889MOL0     H22658  11.272   2.928   9.263 -0.2726 -1.1717  0.9204
  889MOL0     H22659  11.264   2.983   9.435 -0.9836 -1.5845 -1.1465
  889MOL0     H22660  11.438   3.145   9.394  4.7696 -0.9868 -0.4467
  889MOL0     H22661  11.446   3.134   9.230  2.2067  1.0333  0.7189
  889MOL0     H22662  10.226   3.362   9.432 -1.2604 -0.2124 -0.4451
  889MOL0     H22663  10.032   3.325   9.552 -2.7786 -0.9193  1.4534
  889MOL0     H22664   9.669   2.812   9.664 -4.3269 -1.4014  3.1698
  889MOL0     H22665   9.427   2.826   9.660  0.1683  0.3864  0.9305
  889MOL0     H22666   7.975   3.040   8.933  0.7997 -1.0581  0.3061
  889MOL0     H22667   7.730   3.017   8.976 -0.7455  0.8447 -0.8855
  889MOL0     H22668   7.359   2.818   8.730  0.6384  1.8130 -1.7343
  889MOL0     H22669   7.131   2.756   8.701  0.2983 -0.1464  0.8634
  889MOL0     H22670   6.856   2.708   8.923 -0.2838 -0.2058  0.2991
  889MOL0     H22671   6.875   2.853   9.007 -1.9634 -2.7070  1.2150
  889MOL0     H22672   6.640   2.791   8.961 -1.8725 -1.5297 -2.9259
  889MOL0     H22673   6.674   2.814   8.793  1.4838 -3.2051  0.1335
  889MOL0     H22674   6.665   3.011   9.025 -0.5096  0.5429  0.0613
  889MOL0     H22675   6.728   3.062   8.870  0.0378  0.4510  0.7699
  889MOL0     H22676   6.519   2.988   8.753 -1.1348 -1.1727  0.6463
  889MOL0     H22677   6.476   3.110   8.862  1.5144 -0.1145  2.1095
  889MOL0     H22678   6.244   2.813   9.028  0.3600  0.5986 -0.6389
  889MOL0     H22679   7.009   3.045   8.980 -0.5743 -0.8926  0.5424
  889MOL0     H22680   7.279   3.156   9.111  0.3122  2.0067  1.8159
  889MOL0     H22681   7.307   3.251   8.959 -2.8821 -0.8385 -3.8923
  889MOL0     H22682   7.144   3.228   9.033  0.0715 -0.9624  2.0665
  890MOL0     O22683   3.466   0.652   0.621  0.1031 -0.0305  0.0039
  890MOL0     C22684   3.468   0.650   0.751  0.0575  0.4794  0.3859
  890MOL0     O22685   3.564   0.590   0.832  0.2632 -0.1989 -0.8583
  890MOL0     C22686   3.668   0.530   0.771 -0.4321  0.3717 -0.0404
  890MOL0     C22687   3.786   0.601   0.747  0.5849 -1.1879  0.0139
  890MOL0     C22688   3.886   0.553   0.674 -0.2173  0.8123  0.6808
  890MOL0     C22689   3.881   0.418   0.632 -0.6471 -0.5108  1.1005
  890MOL0     O22690   3.995   0.366   0.568 -0.3209  0.1335 -0.3473
  890MOL0     C22691   4.097   0.452   0.506  0.7920  0.7993  0.0362
  890MOL0     C22692   4.176   0.363   0.412 -0.0055  0.8370  0.0927
  890MOL0     C22693   4.265   0.268   0.493  0.4092 -0.4342 -0.3426
  890MOL0     C22694   4.348   0.170   0.414  0.1464 -0.3138  0.2692
  890MOL0     C22695   4.440   0.094   0.508 -0.4645 -0.1093  0.8835
  890MOL0     C22696   4.537   0.010   0.431  0.3263  0.7237  0.2777
  890MOL0     C22697   4.628  -0.070   0.518 -0.0905  0.6525  0.8745
  890MOL0     C22698   4.716  -0.162   0.434 -0.0266  0.2731 -0.0290
  890MOL0     N22699   4.826  -0.096   0.366  0.2798  0.5075  0.6926
  890MOL0     C22700   4.939  -0.043   0.419  0.2420  0.6983  0.3250
  890MOL0     C22701   5.006   0.011   0.312 -0.3112 -0.6639 -0.8850
  890MOL0     C22702   5.129   0.094   0.317  0.0632 -0.2609 -0.9952
  890MOL0     C22703   5.186   0.132   0.178  0.6178  0.1587 -0.8831
  890MOL0     C22704   5.293   0.031   0.140 -0.1540 -0.2610  0.1378
  890MOL0     C22705   5.362   0.079   0.016  0.5542 -0.6589 -0.2160
  890MOL0     O22706   5.414  -0.028  -0.063 -0.4267 -0.8141  0.5349
  890MOL0     C22707   5.533  -0.082  -0.027  1.1600  0.5018  0.3383
  890MOL0     C22708   5.618  -0.031   0.065  0.1499 -0.1852 -0.3023
  890MOL0     C22709   5.725  -0.115   0.097 -1.7982  0.1592  0.3353
  890MOL0     C22710   5.828  -0.054   0.191 -0.3220  0.1590 -0.4379
  890MOL0     C22711   5.750  -0.235   0.025  0.2415 -0.1957  0.4498
  890MOL0     C22712   5.864  -0.324   0.050  0.8166 -0.0290 -0.2022
  890MOL0     O22713   5.889  -0.355   0.179 -0.1065 -0.1719  0.5171
  890MOL0     C22714   6.000  -0.428   0.209  0.3230  0.1971 -0.2686
  890MOL0     C22715   5.980  -0.544   0.289 -0.4016 -1.0462  0.0637
  890MOL0     C22716   6.097  -0.600   0.348  0.2692 -0.2727 -0.7287
  890MOL0     C22717   6.224  -0.554   0.329  1.3184 -0.1232  0.2467
  890MOL0     O22718   6.341  -0.612   0.373  0.0730  0.8530 -0.5740
  890MOL0     C22719   6.345  -0.736   0.437  0.9598 -0.2761  0.1677
  890MOL0     C22720   6.298  -0.844   0.340 -0.7874  0.8651  0.8139
  890MOL0     C22721   6.305  -0.985   0.387 -0.5283 -0.2488  1.1676
  890MOL0     C22722   6.222  -1.083   0.305 -0.9502 -0.5029  0.2785
  890MOL0     C22723   6.280  -1.226   0.333 -0.4400 -0.3660  0.1274
  890MOL0     C22724   6.205  -1.290   0.456  0.0207  0.1647  0.9225
  890MOL0     C22725   6.266  -1.434   0.473  0.4272 -0.1883  0.3331
  890MOL0     C22726   6.210  -1.531   0.375  0.3944 -0.4105  0.3520
  890MOL0    Cl22727   6.042  -1.579   0.411  0.1179  0.1324 -0.0506
  890MOL0     C22728   6.235  -0.450   0.236 -0.6126 -0.6012  0.7015
  890MOL0     C22729   6.128  -0.387   0.176  0.3950 -0.4211 -0.1225
  890MOL0     O22730   5.918  -0.379  -0.043 -0.2195  0.0808 -0.4445
  890MOL0     C22731   5.659  -0.273  -0.074  0.0305 -0.4932  0.6861
  890MOL0     C22732   5.547  -0.202  -0.093 -0.5296 -0.1221  0.5259
  890MOL0     N22733   4.921   0.006   0.202  0.2475  1.1199  0.5734
  890MOL0     N22734   4.815  -0.063   0.233  0.0905  0.4093 -0.8986
  890MOL0     C22735   3.769   0.340   0.665 -1.4144 -0.1190 -0.4760
  890MOL0     C22736   3.666   0.397   0.731 -0.6662 -0.4363 -0.2113
  890MOL0     C22737   3.360   0.706   0.833 -0.1533 -0.1221  0.1836
  890MOL0     C22738   3.317   0.644   0.952 -0.2525  0.1510 -1.0797
  890MOL0     C22739   3.209   0.694   1.030 -0.3511  0.7641 -0.1981
  890MOL0     C22740   3.132   0.797   0.987  0.4483 -0.2428 -0.4302
  890MOL0     O22741   3.021   0.835   1.049  0.7309 -0.2785 -0.6952
  890MOL0     C22742   2.973   0.751   1.165  0.2579 -0.6053 -0.2683
  890MOL0     C22743   2.840   0.803   1.216 -0.1392 -0.2345 -0.2691
  890MOL0     C22744   2.843   0.948   1.260 -0.1042  0.8152 -0.1839
  890MOL0     C22745   2.709   0.986   1.338 -0.2855  0.2180  0.8447
  890MOL0     C22746   2.695   0.900   1.457  0.3517 -0.3314 -0.3351
  890MOL0     C22747   2.695   0.850   1.572 -0.8091  0.5707 -0.5668
  890MOL0     C22748   3.191   0.869   0.877  0.6831 -0.4522  0.0878
  890MOL0     C22749   3.299   0.827   0.802  0.0525  0.2670 -0.0689
  890MOL0     C22750   3.352   0.907   0.680  0.5278 -0.5302 -0.2952
  890MOL0     H22751   3.788   0.705   0.776  1.7528 -1.6576  1.7732
  890MOL0     H22752   3.968   0.620   0.648 -0.2768  0.4226 -0.5807
  890MOL0     H22753   4.166   0.498   0.578 -0.0135 -0.6319  1.8022
  890MOL0     H22754   4.052   0.535   0.450 -0.6125  0.9705  1.3493
  890MOL0     H22755   4.111   0.308   0.345  0.6827 -2.8686  2.1771
  890MOL0     H22756   4.240   0.429   0.353 -2.0728  0.4042 -2.7776
  890MOL0     H22757   4.330   0.323   0.560  1.3220  0.1374 -1.6500
  890MOL0     H22758   4.204   0.215   0.566 -1.5067  0.3465 -1.3136
  890MOL0     H22759   4.287   0.098   0.358  1.5473 -0.1977 -1.5050
  890MOL0     H22760   4.413   0.207   0.334 -0.6192 -0.3112 -0.3714
  890MOL0     H22761   4.379   0.031   0.573 -1.3777 -0.8221 -0.6105
  890MOL0     H22762   4.500   0.163   0.569 -1.9018  2.7725 -0.7961
  890MOL0     H22763   4.473  -0.053   0.369  3.0873 -1.4406 -0.5980
  890MOL0     H22764   4.608   0.065   0.368 -0.4479  2.1222  0.5695
  890MOL0     H22765   4.558  -0.110   0.592 -0.8733  2.9467  1.4587
  890MOL0     H22766   4.688  -0.004   0.581  1.7605 -0.4068  0.3013
  890MOL0     H22767   4.753  -0.241   0.500 -2.5063 -0.1315  0.9675
  890MOL0     H22768   4.655  -0.212   0.358 -2.2684 -2.3759  3.2261
  890MOL0     H22769   4.961  -0.046   0.525  0.5517 -0.8054  0.2444
  890MOL0     H22770   5.208   0.047   0.377 -0.8833  0.7125  1.1341
  890MOL0     H22771   5.096   0.186   0.368  0.6342 -0.3262 -0.4932
  890MOL0     H22772   5.111   0.135   0.098 -2.1307 -1.0571  1.4544
  890MOL0     H22773   5.235   0.229   0.181  1.1696 -0.1103 -1.0195
  890MOL0     H22774   5.363   0.025   0.224  1.5653  3.6708 -0.7814
  890MOL0     H22775   5.246  -0.067   0.127 -0.2501 -0.2568  0.4421
  890MOL0     H22776   5.291   0.132  -0.050  0.8876  1.6980  1.1917
  890MOL0     H22777   5.426   0.163   0.044  0.1864  0.4490 -2.4294
  890MOL0     H22778   5.605   0.064   0.116  0.1145 -0.4405  0.1634
  890MOL0     H22779   5.926  -0.083   0.152 -0.4736 -1.2548  0.2001
  890MOL0     H22780   5.821  -0.095   0.292 -2.0925  1.8634  0.2029
  890MOL0     H22781   5.821   0.055   0.195  1.7612  0.2968  1.7466
  890MOL0     H22782   5.881  -0.581   0.312 -1.0639 -1.6617 -3.2259
  890MOL0     H22783   6.078  -0.679   0.419 -1.8305  2.6426  2.2857
  890MOL0     H22784   6.450  -0.751   0.465  1.7140  1.9608 -1.2140
  890MOL0     H22785   6.280  -0.735   0.525 -2.7597 -1.5310 -2.3016
  890MOL0     H22786   6.193  -0.827   0.314 -0.5148 -0.5468 -1.5321
  890MOL0     H22787   6.350  -0.832   0.245 -1.9974  0.7194  0.1141
  890MOL0     H22788   6.273  -0.985   0.491 -1.9881  0.9505  0.7650
  890MOL0     H22789   6.410  -1.015   0.382 -0.4131  0.1401  1.2111
  890MOL0     H22790   6.240  -1.058   0.200  1.2063 -0.9276  0.5145
  890MOL0     H22791   6.115  -1.074   0.328 -0.6593  1.0645  1.1426
  890MOL0     H22792   6.263  -1.298   0.252 -3.5276 -1.5266  1.6185
  890MOL0     H22793   6.385  -1.231   0.362 -0.2127 -3.4997 -0.8039
  890MOL0     H22794   6.099  -1.311   0.440 -0.3660 -0.7100  4.0195
  890MOL0     H22795   6.221  -1.242   0.553  1.0279  0.6888  0.5165
  890MOL0     H22796   6.240  -1.470   0.572 -1.1421 -1.8393 -0.6255
  890MOL0     H22797   6.376  -1.435   0.464  0.2471 -1.7631 -4.1079
  890MOL0     H22798   6.274  -1.620   0.369  2.0150  0.7582 -0.1982
  890MOL0     H22799   6.194  -1.493   0.274  1.8314 -0.3662  0.1306
  890MOL0     H22800   6.337  -0.425   0.205 -0.6909 -2.5458 -1.3521
  890MOL0     H22801   6.158  -0.305   0.112 -0.5182  0.4212  0.5003
  890MOL0     H22802   5.681  -0.353  -0.144  1.1353  0.4495 -0.0859
  890MOL0     H22803   5.483  -0.225  -0.178  3.5987 -5.1917 -1.7484
  890MOL0     H22804   3.752   0.236   0.636 -2.2716 -0.3981  0.9192
  890MOL0     H22805   3.577   0.337   0.747 -0.7021 -0.5605 -0.8259
  890MOL0     H22806   3.368   0.555   0.988 -1.6584 -1.2187 -2.3164
  890MOL0     H22807   3.180   0.637   1.118 -0.0741 -0.3177 -0.7938
  890MOL0     H22808   2.966   0.645   1.139 -2.4316 -0.6376  0.2279
  890MOL0     H22809   3.039   0.770   1.250 -0.9982  1.4427  0.3412
  890MOL0     H22810   2.809   0.737   1.298 -1.2276  1.2501  0.5633
  890MOL0     H22811   2.768   0.797   1.134 -0.5201 -2.8041  0.1776
  890MOL0     H22812   2.924   0.955   1.333  0.5385 -0.7149 -0.7128
  890MOL0     H22813   2.854   1.016   1.175  1.7334 -1.5295 -1.9400
  890MOL0     H22814   2.617   0.959   1.286 -2.0218  2.2214  2.6798
  890MOL0     H22815   2.703   1.093   1.357  3.2972  0.6028  0.5621
  890MOL0     H22816   2.702   0.800   1.666 -1.2314  0.6611 -0.4854
  890MOL0     H22817   3.146   0.964   0.851  0.5156 -0.8206 -1.0204
  890MOL0     H22818   3.451   0.946   0.705  1.4133 -1.5276 -2.0205
  890MOL0     H22819   3.367   0.851   0.587  0.0201  0.5311 -1.0408
  890MOL0     H22820   3.285   0.991   0.659 -0.9380 -1.4628  0.4842
  891MOL0     O22821   0.822   0.964   3.735  0.1238  0.2004  0.0342
  891MOL0     C22822   0.849   1.052   3.653  0.9080 -0.4417  0.8006
  891MOL0     O22823   0.976   1.087   3.612 -0.2249  0.4947 -0.0746
  891MOL0     C22824   1.078   0.995   3.626 -0.1655 -0.3995  0.0185
  891MOL0     C22825   1.080   0.882   3.544 -0.8234  0.1922  0.0602
  891MOL0     C22826   1.196   0.804   3.543 -0.3204  0.2995  0.4989
  891MOL0     C22827   1.302   0.828   3.621  0.5850 -0.4377  0.1202
  891MOL0     O22828   1.400   0.739   3.609  0.7925  0.2751 -0.5165
  891MOL0     C22829   1.525   0.752   3.673 -0.2572 -0.7916  0.1522
  891MOL0     C22830   1.618   0.828   3.580 -0.1720 -0.1744  0.3438
  891MOL0     C22831   1.763   0.832   3.623  0.1757 -0.1497 -0.0102
  891MOL0     C22832   1.850   0.881   3.509 -0.0966 -0.1319 -0.0369
  891MOL0     C22833   1.999   0.900   3.530 -0.3252 -0.5654 -0.5164
  891MOL0     C22834   2.035   0.998   3.648  0.1267 -0.3632  0.0501
  891MOL0     C22835   2.189   1.020   3.641  0.3906 -0.1096 -0.6620
  891MOL0     C22836   2.234   1.119   3.750  0.8179  0.3074 -0.2274
  891MOL0     N22837   2.384   1.129   3.766  0.0003  0.8585  0.0941
  891MOL0     C22838   2.459   1.199   3.682 -0.8258 -0.3404  0.4789
  891MOL0     C22839   2.588   1.155   3.707 -0.0616 -0.3434  0.2578
  891MOL0     C22840   2.710   1.206   3.645 -0.4876 -0.0332  0.9751
  891MOL0     C22841   2.740   1.345   3.690  0.1082  0.3389 -0.3511
  891MOL0     C22842   2.763   1.361   3.846 -0.4891 -0.4722 -0.7387
  891MOL0     C22843   2.887   1.293   3.909 -0.5602 -0.1152  0.7919
  891MOL0     O22844   2.999   1.367   3.869 -0.1717 -0.4791  0.4164
  891MOL0     C22845   3.124   1.317   3.893 -0.2570  0.1589 -0.7865
  891MOL0     C22846   3.164   1.237   4.001  0.1726 -0.1549 -0.1785
  891MOL0     C22847   3.294   1.197   4.021 -0.2433  0.1608 -0.1506
  891MOL0     C22848   3.318   1.108   4.136 -0.5712 -0.8223 -0.0560
  891MOL0     C22849   3.390   1.244   3.935  0.3302  0.2768  0.0964
  891MOL0     C22850   3.538   1.215   3.952 -0.7747 -0.0621 -0.3407
  891MOL0     O22851   3.584   1.267   4.069 -0.5323 -0.0156  0.3373
  891MOL0     C22852   3.722   1.266   4.090 -0.0291 -0.1916  0.7439
  891MOL0     C22853   3.816   1.353   4.030  0.1620 -0.0823 -0.0311
  891MOL0     C22854   3.958   1.345   4.061 -0.4080  0.3588  0.2579
  891MOL0     C22855   4.001   1.246   4.157 -0.0775 -0.1514 -0.1817
  891MOL0     O22856   4.138   1.225   4.171 -0.0704  0.5819  0.6724
  891MOL0     C22857   4.180   1.119   4.256 -0.5742  0.2907 -1.2896
  891MOL0     C22858   4.200   1.171   4.397 -0.2949  0.1270 -0.2720
  891MOL0     C22859   4.340   1.175   4.438 -0.5440  1.0752 -0.0201
  891MOL0     C22860   4.398   1.031   4.459  0.0370  0.1080 -0.3313
  891MOL0     C22861   4.553   1.032   4.485  0.2686 -0.3872 -0.1899
  891MOL0     C22862   4.634   1.036   4.351  0.5692  0.1576 -0.0033
  891MOL0     C22863   4.785   1.043   4.359  0.0925  0.1849  0.0453
  891MOL0     C22864   4.838   0.925   4.430  0.5087  0.2862 -0.4971
  891MOL0    Cl22865   4.996   0.963   4.478 -0.3050  0.2926  0.0559
  891MOL0     C22866   3.904   1.165   4.231 -0.0042  0.9579  0.0915
  891MOL0     C22867   3.767   1.179   4.191 -0.0745 -0.4326 -0.3094
  891MOL0     O22868   3.606   1.160   3.868  0.7543 -0.0830  0.2869
  891MOL0     C22869   3.352   1.314   3.818 -0.6111 -0.4937 -0.4801
  891MOL0     C22870   3.224   1.349   3.803  0.2829  0.2024  0.0629
  891MOL0     N22871   2.582   1.068   3.811  0.1994 -0.3725 -0.5872
  891MOL0     N22872   2.458   1.065   3.852  0.5900 -0.0667 -0.2277
  891MOL0     C22873   1.302   0.942   3.700 -0.1421  0.7774  0.2387
  891MOL0     C22874   1.198   1.025   3.702  0.3131 -0.4098 -0.1670
  891MOL0     C22875   0.742   1.139   3.589 -0.3353  0.3262 -0.0172
  891MOL0     C22876   0.768   1.200   3.463 -0.2977  0.5520  0.5214
  891MOL0     C22877   0.666   1.272   3.385  0.8028  0.5329  0.3276
  891MOL0     C22878   0.539   1.281   3.446  0.4358 -0.0392  1.2987
  891MOL0     O22879   0.434   1.342   3.379 -0.4690 -0.3098  0.7021
  891MOL0     C22880   0.465   1.470   3.323  0.3315 -0.4094  0.0563
  891MOL0     C22881   0.337   1.538   3.270 -0.6082 -0.0301 -0.4067
  891MOL0     C22882   0.273   1.461   3.157  0.2333  0.0607  0.4011
  891MOL0     C22883   0.168   1.540   3.073  0.0087  0.3491  0.2267
  891MOL0     C22884   0.070   1.615   3.156 -0.0681  0.3688 -0.0806
  891MOL0     C22885  -0.014   1.665   3.231  0.3866 -0.2979 -0.1341
  891MOL0     C22886   0.517   1.214   3.565  0.0241  0.5420 -0.1195
  891MOL0     C22887   0.614   1.146   3.647 -0.6663  0.4800  0.2674
  891MOL0     C22888   0.563   1.075   3.767 -0.1564  0.1332 -0.7776
  891MOL0     H22889   0.994   0.847   3.487  0.4835  1.1965 -2.7089
  891MOL0     H22890   1.200   0.709   3.492 -0.2495 -0.8212  2.4729
  891MOL0     H22891   1.561   0.649   3.686  0.1658 -0.6087  0.4739
  891MOL0     H22892   1.529   0.804   3.769 -0.7079  0.2094 -0.3660
  891MOL0     H22893   1.603   0.781   3.483 -0.1442 -0.0761  0.2920
  891MOL0     H22894   1.578   0.930   3.577  1.0594  0.3071 -0.4768
  891MOL0     H22895   1.776   0.894   3.713  0.4666  0.6820 -0.6110
  891MOL0     H22896   1.796   0.739   3.669  1.3434 -0.0935 -0.6939
  891MOL0     H22897   1.838   0.815   3.423  1.2225 -2.1989  1.2837
  891MOL0     H22898   1.813   0.978   3.476  0.2134  0.7272  1.9647
  891MOL0     H22899   2.041   0.941   3.438 -0.9913  1.5855  0.0801
  891MOL0     H22900   2.044   0.801   3.542 -4.5746 -2.7160 -0.4154
  891MOL0     H22901   1.978   1.091   3.636 -0.1242 -0.5230 -0.0201
  891MOL0     H22902   1.999   0.956   3.742  0.8945 -1.2563 -0.0397
  891MOL0     H22903   2.225   1.060   3.546 -1.5951  0.6451 -1.1434
  891MOL0     H22904   2.230   0.921   3.665  0.9387  0.7497  2.4050
  891MOL0     H22905   2.191   1.216   3.721  0.2094  0.2218  0.3506
  891MOL0     H22906   2.187   1.092   3.845  3.7485  0.9068  1.5083
  891MOL0     H22907   2.421   1.265   3.605 -0.3544 -1.7580 -1.0141
  891MOL0     H22908   2.713   1.203   3.536 -2.7334 -2.8715  0.8749
  891MOL0     H22909   2.792   1.139   3.674  1.0529  1.9141  1.3077
  891MOL0     H22910   2.836   1.375   3.647  0.9358  1.8085  2.2525
  891MOL0     H22911   2.657   1.409   3.663  0.9404  0.6132 -2.4007
  891MOL0     H22912   2.781   1.468   3.863  2.3064 -0.8665 -0.6711
  891MOL0     H22913   2.670   1.339   3.899 -0.5438 -3.7226 -1.9236
  891MOL0     H22914   2.878   1.295   4.018 -0.6998 -0.4173  0.7863
  891MOL0     H22915   2.887   1.186   3.886 -2.8154 -0.1661  0.7742
  891MOL0     H22916   3.096   1.207   4.080  1.4103  0.9098  1.3677
  891MOL0     H22917   3.238   1.038   4.162  1.0222 -1.7751  2.7692
  891MOL0     H22918   3.345   1.177   4.217  1.7471  1.5145 -2.6081
  891MOL0     H22919   3.409   1.049   4.124 -1.2883 -1.6903 -1.4029
  891MOL0     H22920   3.781   1.427   3.959 -2.9825 -1.3690 -0.0017
  891MOL0     H22921   4.038   1.408   4.024  1.8548 -1.6615  1.3646
  891MOL0     H22922   4.119   1.028   4.255 -0.0709 -0.0602 -0.7277
  891MOL0     H22923   4.279   1.080   4.231  0.9856  2.7096  0.6957
  891MOL0     H22924   4.157   1.272   4.395  2.3914  1.3658 -0.0508
  891MOL0     H22925   4.151   1.114   4.476  0.5249 -3.2473 -2.0154
  891MOL0     H22926   4.353   1.225   4.534  3.2990  0.8827 -0.2787
  891MOL0     H22927   4.401   1.237   4.371  1.1409 -0.3414  0.1204
  891MOL0     H22928   4.375   0.966   4.375  0.1169 -0.6071  0.1871
  891MOL0     H22929   4.351   0.983   4.546  0.3355  1.0963  0.4018
  891MOL0     H22930   4.582   1.118   4.546 -1.9673  2.1162 -2.4270
  891MOL0     H22931   4.579   0.951   4.555 -0.4555 -1.1568 -0.7906
  891MOL0     H22932   4.603   1.118   4.284  0.0814 -0.7493 -0.9205
  891MOL0     H22933   4.614   0.937   4.310 -0.0563  0.0530  0.5329
  891MOL0     H22934   4.809   1.138   4.409 -1.7119 -0.6006  2.5884
  891MOL0     H22935   4.823   1.052   4.257 -1.2933  2.0604 -0.3561
  891MOL0     H22936   4.846   0.844   4.357  1.1735  2.0824 -2.5333
  891MOL0     H22937   4.782   0.890   4.518 -1.1394 -0.4362 -1.7822
  891MOL0     H22938   3.925   1.084   4.300 -2.9831  0.2694  0.2936
  891MOL0     H22939   3.687   1.137   4.252 -2.1962  1.7538 -1.3959
  891MOL0     H22940   3.432   1.342   3.750 -2.3522  1.2184 -1.9328
  891MOL0     H22941   3.196   1.390   3.707 -3.3857 -1.1727  0.3599
  891MOL0     H22942   1.390   0.972   3.758  1.1075 -0.3545 -0.9946
  891MOL0     H22943   1.197   1.112   3.766  1.5273 -0.1986 -0.4108
  891MOL0     H22944   0.868   1.205   3.421  1.0737  1.4121  3.6536
  891MOL0     H22945   0.693   1.317   3.290  0.3188 -0.9412 -0.5453
  891MOL0     H22946   0.503   1.526   3.409 -0.3118 -1.7398  1.2435
  891MOL0     H22947   0.534   1.459   3.238 -0.8995 -0.2746 -0.9871
  891MOL0     H22948   0.355   1.642   3.244 -0.2372  0.2565  0.9051
  891MOL0     H22949   0.266   1.554   3.352 -0.5920  0.9345 -0.5686
  891MOL0     H22950   0.350   1.417   3.093  1.6565  0.7797  1.5547
  891MOL0     H22951   0.211   1.380   3.197 -0.1744 -0.2420 -0.8169
  891MOL0     H22952   0.107   1.474   3.011 -0.4230  1.4829 -0.5964
  891MOL0     H22953   0.215   1.610   3.003  0.2290 -1.0489 -1.0697
  891MOL0     H22954  -0.094   1.701   3.292  2.1557  5.8272 -0.7771
  891MOL0     H22955   0.417   1.222   3.606  0.4481  1.6826  0.7542
  891MOL0     H22956   0.466   1.115   3.800  0.1199  2.8063 -2.8076
  891MOL0     H22957   0.544   0.971   3.740  0.3582 -0.2101  0.1570
  891MOL0     H22958   0.642   1.082   3.841 -2.6928 -1.6590  2.3746
  892MOL0     O22959   3.377   6.669   8.705  0.0449  1.1159 -0.4117
  892MOL0     C22960   3.301   6.752   8.650  0.2121  0.5381 -0.3323
  892MOL0     O22961   3.315   6.887   8.645  0.8065  0.1915 -0.2477
  892MOL0     C22962   3.422   6.927   8.724  0.2306  0.0304 -0.4208
  892MOL0     C22963   3.545   6.946   8.663 -0.9893 -0.0674 -0.0364
  892MOL0     C22964   3.656   6.990   8.727 -0.2834 -0.1414 -0.1923
  892MOL0     C22965   3.647   7.025   8.861  0.3642  0.5345  0.0398
  892MOL0     O22966   3.754   7.058   8.950 -0.0062 -0.3264  0.2803
  892MOL0     C22967   3.884   7.067   8.896  0.0738  0.1209  0.0897
  892MOL0     C22968   3.986   7.104   8.997 -0.2982  0.0217  0.3426
  892MOL0     C22969   4.138   7.081   8.952 -0.5775 -0.0249  0.7776
  892MOL0     C22970   4.232   7.138   9.062  0.0946  0.3281 -0.4579
  892MOL0     C22971   4.357   7.204   9.001  0.2645  0.2786  1.3389
  892MOL0     C22972   4.487   7.141   9.052  0.5651  0.1896 -0.0112
  892MOL0     C22973   4.618   7.189   8.987 -0.3424 -0.4787  0.3374
  892MOL0     C22974   4.734   7.102   9.044  0.0740  0.5804  0.5646
  892MOL0     N22975   4.863   7.147   8.987 -0.1156  0.5053 -0.1496
  892MOL0     C22976   4.907   7.125   8.862 -0.1556  0.1348  0.6879
  892MOL0     C22977   5.032   7.172   8.855 -0.5502  0.0062 -0.0449
  892MOL0     C22978   5.106   7.177   8.725 -0.5338 -0.1234  0.2346
  892MOL0     C22979   5.240   7.255   8.719  0.7648  1.1343 -0.3794
  892MOL0     C22980   5.300   7.239   8.582  0.2695  0.2861  0.7417
  892MOL0     C22981   5.430   7.316   8.566 -0.6480  0.9471 -0.2957
  892MOL0     O22982   5.537   7.242   8.623  0.4701  1.2023  0.3959
  892MOL0     C22983   5.652   7.300   8.612 -0.8742  0.1618  0.3038
  892MOL0     C22984   5.692   7.422   8.549 -0.2132  0.7802 -0.5021
  892MOL0     C22985   5.833   7.437   8.535  0.5493 -0.3976 -0.1388
  892MOL0     C22986   5.861   7.552   8.439 -0.4757  0.8102 -0.3168
  892MOL0     C22987   5.930   7.345   8.584 -0.1177  0.6560 -0.4263
  892MOL0     C22988   6.061   7.357   8.543  0.0215  0.4020 -0.0294
  892MOL0     O22989   6.129   7.244   8.524 -0.2998  0.6759  0.4871
  892MOL0     C22990   6.262   7.259   8.541 -0.4876 -0.5776 -0.1320
  892MOL0     C22991   6.341   7.257   8.430 -0.0969 -0.4436 -0.0716
  892MOL0     C22992   6.478   7.272   8.434 -0.2370 -0.2020  0.0107
  892MOL0     C22993   6.538   7.279   8.560 -0.0483  0.3762  0.3292
  892MOL0     O22994   6.671   7.257   8.588 -1.0271 -0.0386  0.1866
  892MOL0     C22995   6.770   7.258   8.485 -0.2808 -0.2590  0.0395
  892MOL0     C22996   6.786   7.406   8.447 -0.1176  0.3822  0.6524
  892MOL0     C22997   6.851   7.405   8.298 -0.6599 -0.0073 -0.2596
  892MOL0     C22998   6.963   7.308   8.279 -0.2912 -0.0305 -0.5742
  892MOL0     C22999   7.050   7.347   8.164 -0.8846 -0.1653  0.3014
  892MOL0     C23000   7.161   7.244   8.146  0.0843 -0.5309  0.5653
  892MOL0     C23001   7.239   7.257   8.023  0.0007  0.2144  0.1650
  892MOL0     C23002   7.303   7.128   7.990 -0.5640 -0.4613 -0.4609
  892MOL0    Cl23003   7.443   7.157   7.879 -0.2197  0.2303 -0.2453
  892MOL0     C23004   6.455   7.270   8.674 -0.6364  0.3414  0.3371
  892MOL0     C23005   6.319   7.253   8.672 -0.2074  0.6403  0.1257
  892MOL0     O23006   6.114   7.471   8.541  0.2246 -0.0332  0.4221
  892MOL0     C23007   5.883   7.237   8.657 -1.0816 -0.3384 -0.4746
  892MOL0     C23008   5.745   7.219   8.675  0.9547  1.5324  0.3963
  892MOL0     N23009   5.061   7.242   8.974 -0.2924 -0.6512 -0.2603
  892MOL0     N23010   4.959   7.216   9.053 -0.4077 -0.1706 -0.3090
  892MOL0     C23011   3.518   7.019   8.918  0.0578 -0.4221 -0.2813
  892MOL0     C23012   3.405   6.967   8.852 -0.3439 -0.9619  0.4555
  892MOL0     C23013   3.193   6.697   8.564 -0.2425 -0.2842 -0.9845
  892MOL0     C23014   3.216   6.656   8.429  0.3978 -0.8205 -0.8764
  892MOL0     C23015   3.114   6.615   8.349  0.4448 -0.7998 -0.3178
  892MOL0     C23016   2.983   6.611   8.395 -0.5014 -0.7309  0.8719
  892MOL0     O23017   2.882   6.565   8.313 -0.0090 -0.5508 -0.1241
  892MOL0     C23018   2.754   6.623   8.321  0.5756  1.0313  0.3904
  892MOL0     C23019   2.649   6.538   8.394  0.5328  0.6151 -0.7733
  892MOL0     C23020   2.610   6.407   8.310 -0.1324 -0.4195  0.4150
  892MOL0     C23021   2.484   6.329   8.344  0.6418  0.3210  0.7030
  892MOL0     C23022   2.469   6.224   8.234  0.8757 -0.7054 -0.3664
  892MOL0     C23023   2.457   6.133   8.157  0.5977  1.0447 -0.7622
  892MOL0     C23024   2.963   6.642   8.525  0.5100 -1.2920 -0.0843
  892MOL0     C23025   3.063   6.687   8.617 -0.0904 -0.6757  0.1551
  892MOL0     C23026   3.034   6.712   8.756 -0.5520 -0.3330 -1.1304
  892MOL0     H23027   3.551   6.928   8.556 -2.1051  2.0567 -0.4946
  892MOL0     H23028   3.752   7.007   8.679 -0.3387 -0.4324 -0.4119
  892MOL0     H23029   3.886   7.140   8.814  1.9494  0.8151  0.7114
  892MOL0     H23030   3.908   6.967   8.859 -0.3567 -0.5142  1.4566
  892MOL0     H23031   3.973   7.201   9.046  0.3951 -0.3510  1.3090
  892MOL0     H23032   3.969   7.036   9.081  0.2868 -0.4292  0.0963
  892MOL0     H23033   4.166   6.977   8.932 -0.8229  0.3575 -1.9432
  892MOL0     H23034   4.152   7.135   8.858 -1.8261  0.2012  0.7095
  892MOL0     H23035   4.186   7.215   9.123  0.1579 -0.3234  0.4279
  892MOL0     H23036   4.255   7.048   9.120  1.5567  0.1357 -1.2921
  892MOL0     H23037   4.354   7.313   9.004  0.8547  0.3060  0.9490
  892MOL0     H23038   4.349   7.180   8.895  0.8420  0.1201  1.3328
  892MOL0     H23039   4.490   7.160   9.159 -0.9378 -0.3085  0.1364
  892MOL0     H23040   4.482   7.032   9.045  0.8426  0.2578 -1.8898
  892MOL0     H23041   4.653   7.289   9.016  0.6203  0.0152 -2.2740
  892MOL0     H23042   4.627   7.181   8.878 -0.7879  0.1877  0.2460
  892MOL0     H23043   4.760   7.111   9.149  2.3898  1.2750 -0.0040
  892MOL0     H23044   4.721   6.996   9.020 -0.0666  0.7545 -0.1786
  892MOL0     H23045   4.854   7.071   8.784 -0.4182 -0.7837  1.4843
  892MOL0     H23046   5.038   7.225   8.654  0.3263 -0.1751 -0.6564
  892MOL0     H23047   5.129   7.077   8.688  2.5200 -0.5142  2.7749
  892MOL0     H23048   5.223   7.361   8.742 -0.9783  1.0734 -1.2182
  892MOL0     H23049   5.310   7.214   8.792 -3.0240 -3.2146  1.3158
  892MOL0     H23050   5.320   7.133   8.562  0.0949  0.3517  0.2147
  892MOL0     H23051   5.225   7.265   8.507 -0.9380 -3.2089  0.5273
  892MOL0     H23052   5.452   7.335   8.460 -0.2822  2.4658  0.0236
  892MOL0     H23053   5.413   7.413   8.613 -3.9239  0.5277 -0.3817
  892MOL0     H23054   5.624   7.493   8.504  2.2182  3.3445 -0.4107
  892MOL0     H23055   5.941   7.537   8.366  0.8743  0.6282  1.1507
  892MOL0     H23056   5.894   7.648   8.480  2.3344  0.3243 -1.2059
  892MOL0     H23057   5.776   7.581   8.376 -1.1172  1.9252  0.9963
  892MOL0     H23058   6.296   7.267   8.332 -1.4295  2.5464  0.7269
  892MOL0     H23059   6.532   7.286   8.340 -2.1888 -0.1875 -1.1590
  892MOL0     H23060   6.867   7.214   8.510  1.5958  1.4458 -3.5121
  892MOL0     H23061   6.726   7.203   8.402 -2.0747  0.1261  0.6943
  892MOL0     H23062   6.688   7.454   8.438  0.2140  1.0224  0.4109
  892MOL0     H23063   6.847   7.455   8.523 -0.0030  1.4555 -0.1124
  892MOL0     H23064   6.899   7.503   8.289  1.6105 -1.1143 -1.0554
  892MOL0     H23065   6.780   7.386   8.218 -1.4108  1.0068  0.1554
  892MOL0     H23066   6.925   7.208   8.255 -0.4909  0.1731 -1.1143
  892MOL0     H23067   7.024   7.308   8.370  0.3130  2.6436 -0.9140
  892MOL0     H23068   6.996   7.355   8.069 -0.9734  1.9841  0.4852
  892MOL0     H23069   7.099   7.444   8.176 -1.8976  0.4544 -0.4032
  892MOL0     H23070   7.128   7.140   8.155 -1.9393  0.0778  0.7163
  892MOL0     H23071   7.236   7.251   8.225  2.0604  3.1958 -1.3472
  892MOL0     H23072   7.315   7.335   8.034  0.2288  0.4315 -2.4496
  892MOL0     H23073   7.169   7.284   7.944 -0.9124  1.9807  1.4845
  892MOL0     H23074   7.244   7.047   7.947 -2.3251 -0.3194  1.5144
  892MOL0     H23075   7.348   7.091   8.082 -2.9204 -2.4847 -0.0132
  892MOL0     H23076   6.485   7.265   8.779 -1.1857  3.1563  0.6872
  892MOL0     H23077   6.254   7.265   8.757  0.0560  1.3841  0.2307
  892MOL0     H23078   5.959   7.170   8.696  0.2936  0.5999 -1.4154
  892MOL0     H23079   5.702   7.130   8.721 -0.1244  2.3320  0.9818
  892MOL0     H23080   3.497   7.044   9.021 -0.9803 -3.0397  0.2282
  892MOL0     H23081   3.311   6.957   8.905 -2.0357 -1.6549 -2.4287
  892MOL0     H23082   3.318   6.660   8.392  1.3984 -0.0066  1.7277
  892MOL0     H23083   3.141   6.589   8.247  1.6805  1.0303 -0.4902
  892MOL0     H23084   2.767   6.724   8.360  2.5333  0.4930  1.2682
  892MOL0     H23085   2.714   6.636   8.219 -2.0538 -0.4173  1.1342
  892MOL0     H23086   2.558   6.592   8.421 -0.6126 -2.2347  1.7556
  892MOL0     H23087   2.690   6.505   8.490 -0.7781  2.2489  0.4013
  892MOL0     H23088   2.609   6.442   8.206  2.5252 -0.1092  0.4116
  892MOL0     H23089   2.694   6.337   8.322 -1.2275 -1.6329  1.2954
  892MOL0     H23090   2.397   6.394   8.357 -0.9153 -1.8971  2.2227
  892MOL0     H23091   2.494   6.269   8.436  0.4414 -0.1969  0.3934
  892MOL0     H23092   2.446   6.051   8.088 -1.7554  1.3007 -0.7612
  892MOL0     H23093   2.864   6.632   8.569 -0.1808  0.6261 -1.0661
  892MOL0     H23094   2.959   6.639   8.787 -0.0283  0.6483  3.0432
  892MOL0     H23095   3.120   6.685   8.818  0.0954 -1.4499 -2.4372
  892MOL0     H23096   3.010   6.818   8.763  0.2903 -0.1687 -0.6427
  893MOL0     O23097   7.204   5.533   0.969  0.1364  0.2163  0.3941
  893MOL0     C23098   7.227   5.635   0.902 -0.0670 -0.1557 -0.7247
  893MOL0     O23099   7.344   5.659   0.830  0.1205 -0.1771 -0.1317
  893MOL0     C23100   7.468   5.606   0.864 -0.4104 -0.9218  0.2681
  893MOL0     C23101   7.502   5.554   0.991 -0.4957 -0.1324  0.0258
  893MOL0     C23102   7.634   5.511   1.012  0.4725 -0.3666 -0.5132
  893MOL0     C23103   7.726   5.510   0.913 -0.1694 -0.1676  2.1411
  893MOL0     O23104   7.840   5.450   0.953 -1.1626  0.1605  0.0974
  893MOL0     C23105   7.916   5.384   0.848  0.6956 -0.4101 -0.0319
  893MOL0     C23106   8.010   5.294   0.909 -1.3193  0.4360 -0.3273
  893MOL0     C23107   8.085   5.217   0.804  0.0979  0.1709  0.2678
  893MOL0     C23108   8.207   5.143   0.857  0.2209 -0.2526 -0.6963
  893MOL0     C23109   8.333   5.222   0.834 -0.2632  0.1067  1.0792
  893MOL0     C23110   8.443   5.168   0.909  0.1535  0.2063 -0.3727
  893MOL0     C23111   8.569   5.258   0.894 -0.9121  0.4635 -0.4061
  893MOL0     C23112   8.569   5.375   0.987  0.0346  0.4503 -0.7663
  893MOL0     N23113   8.685   5.464   0.988  0.0336  0.1948  0.0458
  893MOL0     C23114   8.735   5.528   0.870 -0.1056 -0.2495 -0.3348
  893MOL0     C23115   8.842   5.596   0.914  0.4922  0.3539 -0.1033
  893MOL0     C23116   8.919   5.688   0.837  0.3883 -0.7060  0.2529
  893MOL0     C23117   9.019   5.629   0.741 -0.1776 -0.2759 -0.4166
  893MOL0     C23118   9.128   5.532   0.809 -0.5387  0.7167  0.3946
  893MOL0     C23119   9.213   5.460   0.703  0.1768 -0.4007 -0.7472
  893MOL0     O23120   9.292   5.553   0.624  0.4134  0.0022 -0.5686
  893MOL0     C23121   9.423   5.562   0.653  0.5165 -0.3024 -0.1463
  893MOL0     C23122   9.507   5.580   0.547  0.1718 -0.6162  0.1816
  893MOL0     C23123   9.638   5.604   0.565  0.0948  0.1049 -0.5808
  893MOL0     C23124   9.709   5.635   0.432  1.5259  0.3151 -0.3883
  893MOL0     C23125   9.702   5.609   0.696 -0.1481 -0.2189 -0.2132
  893MOL0     C23126   9.842   5.655   0.711  0.5743  0.0761 -0.0234
  893MOL0     O23127   9.930   5.577   0.785 -0.1701 -0.9718 -0.3815
  893MOL0     C23128  10.064   5.617   0.787 -0.1008 -0.5629 -0.9594
  893MOL0     C23129  10.099   5.673   0.911 -0.6328 -0.1552 -0.7680
  893MOL0     C23130  10.238   5.706   0.943  1.0022 -0.5968  0.5670
  893MOL0     C23131  10.329   5.682   0.840 -0.3179 -0.1988 -0.5895
  893MOL0     O23132  10.456   5.704   0.861 -0.0911  0.9827  0.1151
  893MOL0     C23133  10.513   5.616   0.959  0.8616  0.3649  0.2682
  893MOL0     C23134  10.662   5.608   0.940 -0.4089 -0.3798  1.0908
  893MOL0     C23135  10.738   5.543   1.050  0.0729  0.1294 -0.1051
  893MOL0     C23136  10.876   5.496   0.997  0.0009 -0.3928  0.0473
  893MOL0     C23137  10.964   5.483   1.127 -0.0416  0.2797 -0.2225
  893MOL0     C23138  11.102   5.440   1.088 -1.3587  0.2191  0.1973
  893MOL0     C23139  11.193   5.396   1.207 -0.5273 -0.1412 -0.2617
  893MOL0     C23140  11.345   5.430   1.184  0.2907 -0.0996 -0.1883
  893MOL0    Cl23141  11.407   5.339   1.032  0.5034  0.0919 -0.3235
  893MOL0     C23142  10.282   5.647   0.715  0.2106 -0.0377  0.5538
  893MOL0     C23143  10.155   5.614   0.684 -0.4187 -0.3591 -0.0269
  893MOL0     O23144   9.865   5.769   0.664  0.0161 -0.3340  0.2580
  893MOL0     C23145   9.623   5.568   0.801 -0.3506  0.1011  0.0656
  893MOL0     C23146   9.482   5.555   0.783  0.2434  0.0411  0.0818
  893MOL0     N23147   8.856   5.575   1.053  0.7106  0.6796  0.4194
  893MOL0     N23148   8.763   5.490   1.096 -0.7294  0.1765 -0.1796
  893MOL0     C23149   7.701   5.569   0.782  0.4887  0.5060 -0.1652
  893MOL0     C23150   7.565   5.616   0.760  0.0353 -0.2730 -0.6648
  893MOL0     C23151   7.112   5.731   0.881  0.0641  0.1839 -0.3653
  893MOL0     C23152   7.115   5.824   0.772 -0.2819 -0.1062 -1.1970
  893MOL0     C23153   7.009   5.913   0.760  0.1397 -0.8291  0.0482
  893MOL0     C23154   6.899   5.914   0.844  0.6431 -0.0276 -1.4328
  893MOL0     O23155   6.797   6.013   0.831 -0.2212  0.8812 -0.4937
  893MOL0     C23156   6.670   5.975   0.780 -0.2768  0.1592  0.0563
  893MOL0     C23157   6.574   6.083   0.834 -0.1047 -0.7931  0.3862
  893MOL0     C23158   6.431   6.073   0.779 -0.1612 -0.3087  0.5833
  893MOL0     C23159   6.439   6.120   0.632  0.4632  0.1100 -0.2859
  893MOL0     C23160   6.304   6.157   0.588 -1.0597  0.0365  0.6080
  893MOL0     C23161   6.203   6.186   0.522 -0.0077  0.0113 -0.0683
  893MOL0     C23162   6.890   5.824   0.949  0.3948 -0.4723  0.3153
  893MOL0     C23163   6.993   5.729   0.964 -0.3219  0.4544 -0.2904
  893MOL0     C23164   6.964   5.626   1.076  0.2897  0.0663  0.0874
  893MOL0     H23165   7.435   5.561   1.075  1.5497 -1.0326  1.8480
  893MOL0     H23166   7.659   5.463   1.106 -1.9227 -0.4588  0.1432
  893MOL0     H23167   7.975   5.459   0.793  0.4793 -0.3036 -0.1188
  893MOL0     H23168   7.856   5.339   0.769 -0.8695  1.1305  0.2180
  893MOL0     H23169   8.085   5.357   0.958  0.6156  0.8005 -3.4384
  893MOL0     H23170   7.960   5.227   0.980 -0.8042  0.7019  0.2917
  893MOL0     H23171   8.021   5.149   0.746  3.0755 -1.6482 -1.1149
  893MOL0     H23172   8.116   5.295   0.734 -1.3757  0.9720  0.4540
  893MOL0     H23173   8.194   5.130   0.964  1.2900  1.0495 -0.3844
  893MOL0     H23174   8.219   5.046   0.808 -0.1173 -0.6869  0.0640
  893MOL0     H23175   8.323   5.329   0.851 -0.1741 -0.1274  2.8202
  893MOL0     H23176   8.351   5.220   0.726 -0.3980  0.9048  1.0405
  893MOL0     H23177   8.419   5.168   1.016 -1.4575 -2.0452 -0.6747
  893MOL0     H23178   8.466   5.064   0.884 -1.1255  0.2100 -1.6524
  893MOL0     H23179   8.568   5.292   0.790 -1.0860 -1.5934 -1.1115
  893MOL0     H23180   8.659   5.197   0.895 -2.7356 -2.5269 -2.5025
  893MOL0     H23181   8.485   5.438   0.959  1.1051  3.3996  2.0793
  893MOL0     H23182   8.554   5.337   1.088  1.1535 -0.7639 -1.0183
  893MOL0     H23183   8.693   5.530   0.769  3.4670  1.8973 -1.9603
  893MOL0     H23184   8.969   5.749   0.913 -0.4014 -0.2152  0.3942
  893MOL0     H23185   8.856   5.755   0.779  1.8929 -0.7048 -1.4454
  893MOL0     H23186   8.959   5.563   0.677  1.3852 -3.3872  1.1213
  893MOL0     H23187   9.068   5.697   0.671 -0.7410  0.0579 -0.4871
  893MOL0     H23188   9.196   5.590   0.872  1.7968 -1.5945  0.1648
  893MOL0     H23189   9.072   5.455   0.863 -2.1021  0.4105 -1.5447
  893MOL0     H23190   9.275   5.390   0.760  0.8897  0.0429 -0.9684
  893MOL0     H23191   9.155   5.391   0.641  0.6523 -0.8264 -0.7305
  893MOL0     H23192   9.471   5.572   0.445  2.2311 -1.2751 -0.5307
  893MOL0     H23193   9.817   5.635   0.446  1.7157  1.4889 -1.6400
  893MOL0     H23194   9.671   5.729   0.391 -1.3183  0.1509  1.6022
  893MOL0     H23195   9.689   5.544   0.374 -1.2333  0.1823  0.6190
  893MOL0     H23196  10.022   5.670   0.987  0.0692  0.5325 -0.0135
  893MOL0     H23197  10.258   5.741   1.044  2.7887  0.2615 -0.0304
  893MOL0     H23198  10.485   5.653   1.058 -1.7060 -1.1001  0.1942
  893MOL0     H23199  10.466   5.517   0.957  0.4170  0.5769 -0.6851
  893MOL0     H23200  10.677   5.554   0.845 -0.2309 -1.0030  1.4694
  893MOL0     H23201  10.703   5.708   0.927  0.1111 -0.8418 -1.4713
  893MOL0     H23202  10.677   5.465   1.097  0.7334 -0.9763 -1.0023
  893MOL0     H23203  10.753   5.624   1.121  2.3849  2.9096 -3.4215
  893MOL0     H23204  10.920   5.570   0.930  0.6823  0.7281  1.6488
  893MOL0     H23205  10.871   5.396   0.954  3.7880 -0.0203 -1.6382
  893MOL0     H23206  10.961   5.579   1.179 -1.3289  0.2393 -0.1919
  893MOL0     H23207  10.916   5.404   1.185 -1.9632  0.9414 -0.8387
  893MOL0     H23208  11.142   5.528   1.037 -0.9652  0.9762  1.7652
  893MOL0     H23209  11.087   5.353   1.023 -1.1534  0.0396  0.3855
  893MOL0     H23210  11.178   5.288   1.222 -3.9746  0.2770  0.0241
  893MOL0     H23211  11.159   5.452   1.294 -0.6746 -3.0781  1.7297
  893MOL0     H23212  11.416   5.399   1.261 -0.0172 -3.0791 -0.9797
  893MOL0     H23213  11.358   5.538   1.172  1.9813 -0.2579 -0.0470
  893MOL0     H23214  10.359   5.637   0.638 -0.2112 -0.7294  0.2074
  893MOL0     H23215  10.124   5.579   0.586 -1.4415 -1.8743  0.7913
  893MOL0     H23216   9.646   5.559   0.907 -1.7265 -1.8421  0.2503
  893MOL0     H23217   9.422   5.526   0.868  1.0667 -2.2127 -0.0291
  893MOL0     H23218   7.770   5.567   0.699  1.6532  0.9895  0.7663
  893MOL0     H23219   7.549   5.666   0.665 -1.1400  0.9897  0.1602
  893MOL0     H23220   7.200   5.822   0.704 -0.1009 -2.3360 -0.9716
  893MOL0     H23221   7.005   5.982   0.676 -3.0414  1.4830  1.9020
  893MOL0     H23222   6.679   5.970   0.671  1.1254 -1.7092  0.2100
  893MOL0     H23223   6.637   5.881   0.826  0.1941  1.5386  3.5621
  893MOL0     H23224   6.624   6.177   0.809 -0.5047 -1.1797 -2.0996
  893MOL0     H23225   6.582   6.083   0.943  1.1487  1.5480  0.3544
  893MOL0     H23226   6.395   5.972   0.800  0.1292 -0.6821 -0.6219
  893MOL0     H23227   6.360   6.139   0.830 -1.6576 -0.7027 -0.9074
  893MOL0     H23228   6.489   6.049   0.566  2.8051 -0.3575  1.8369
  893MOL0     H23229   6.511   6.202   0.618  2.0553 -1.3363 -0.9299
  893MOL0     H23230   6.113   6.205   0.468 -0.6592  1.0094  1.2960
  893MOL0     H23231   6.807   5.818   1.018  0.0451 -3.2553 -0.2336
  893MOL0     H23232   6.989   5.522   1.054 -2.1664 -0.8409  1.2058
  893MOL0     H23233   7.005   5.669   1.168  1.3118  2.7754 -1.5470
  893MOL0     H23234   6.858   5.621   1.105  0.5325  0.5225  1.0798
  894MOL0     O23235   8.928  11.052   0.981  0.8112  0.1953  0.0076
  894MOL0     C23236   8.961  11.049   1.099 -0.0882  0.7734 -0.8358
  894MOL0     O23237   8.880  11.052   1.209 -1.0384  0.1273 -0.1198
  894MOL0     C23238   8.743  11.039   1.195  0.0214 -0.9982 -0.8607
  894MOL0     C23239   8.673  10.971   1.089 -0.6245  0.5394  0.7204
  894MOL0     C23240   8.530  10.962   1.094  0.0217  0.2249  0.3301
  894MOL0     C23241   8.464  11.005   1.199 -0.0662  0.5161 -0.0849
  894MOL0     O23242   8.326  10.986   1.199 -0.4105  0.5111  0.2727
  894MOL0     C23243   8.246  11.086   1.246  0.5404 -0.6028 -0.3518
  894MOL0     C23244   8.115  11.104   1.161 -0.5466  0.2870  0.2044
  894MOL0     C23245   8.048  11.227   1.214 -0.8240  0.0064 -0.2702
  894MOL0     C23246   7.974  11.192   1.340  0.0366 -0.2255  0.3453
  894MOL0     C23247   7.934  11.318   1.429  0.2279 -0.1973 -0.2983
  894MOL0     C23248   7.818  11.400   1.365 -0.3889  0.2008  0.1917
  894MOL0     C23249   7.695  11.316   1.328 -1.0682  0.2874  0.5156
  894MOL0     C23250   7.574  11.407   1.328  1.2598 -0.5360  0.0478
  894MOL0     N23251   7.560  11.504   1.223 -0.1123  0.3194 -0.4455
  894MOL0     C23252   7.470  11.505   1.123  0.3573 -0.1732 -0.0415
  894MOL0     C23253   7.479  11.628   1.064 -1.0876 -0.5233  0.2352
  894MOL0     C23254   7.404  11.674   0.944  0.3775  0.8774  0.1271
  894MOL0     C23255   7.405  11.827   0.927 -0.5637  0.1140 -0.0275
  894MOL0     C23256   7.488  11.868   0.807 -0.0276  0.6431  0.1436
  894MOL0     C23257   7.551  12.002   0.828  0.1923  0.0618  0.0901
  894MOL0     O23258   7.640  12.005   0.947  0.7978 -0.1955 -0.3952
  894MOL0     C23259   7.773  11.997   0.938  0.0542  0.5017  0.4158
  894MOL0     C23260   7.845  12.001   1.052 -0.2988 -0.8555  0.6392
  894MOL0     C23261   7.980  11.991   1.047 -0.5798 -0.1370 -0.4298
  894MOL0     C23262   8.061  11.972   1.170 -0.4211 -0.0384 -0.0692
  894MOL0     C23263   8.055  11.981   0.922  0.4262 -0.0024 -0.3282
  894MOL0     C23264   8.207  11.979   0.897  0.1057  0.2440  0.6149
  894MOL0     O23265   8.249  11.944   0.773  0.2140 -0.2631 -0.4903
  894MOL0     C23266   8.384  11.910   0.763  0.4169 -0.1286 -0.0675
  894MOL0     C23267   8.428  11.777   0.789 -0.1441  0.9031  1.0553
  894MOL0     C23268   8.567  11.748   0.781 -0.9038 -0.2200 -1.2256
  894MOL0     C23269   8.660  11.843   0.732 -0.0334  0.4495  0.3151
  894MOL0     O23270   8.795  11.804   0.714  0.4498 -0.8587 -0.1187
  894MOL0     C23271   8.897  11.915   0.710 -0.1866  0.3097  0.1645
  894MOL0     C23272   8.938  11.947   0.855  0.3751 -0.7039  0.9050
  894MOL0     C23273   9.084  11.984   0.876  0.2056  0.9917 -0.2693
  894MOL0     C23274   9.110  12.130   0.873  0.7927  0.1112 -0.6990
  894MOL0     C23275   9.256  12.155   0.913 -0.4254  0.4219  1.1138
  894MOL0     C23276   9.352  12.117   0.802 -0.7542 -0.1804 -0.4349
  894MOL0     C23277   9.499  12.139   0.846  0.3390 -0.0677 -0.4660
  894MOL0     C23278   9.601  12.095   0.743  0.5964 -0.0119  0.2716
  894MOL0    Cl23279   9.600  12.207   0.604 -0.4752  0.2328 -0.0676
  894MOL0     C23280   8.607  11.967   0.688  0.3550 -0.3376  0.0648
  894MOL0     C23281   8.475  12.003   0.711 -0.5418  0.7578  0.5980
  894MOL0     O23282   8.279  12.015   0.989  0.0365  0.0007  0.4231
  894MOL0     C23283   7.982  12.005   0.805  0.0087 -0.7223  0.4267
  894MOL0     C23284   7.839  12.006   0.812 -0.0435 -1.0821 -0.1171
  894MOL0     N23285   7.585  11.699   1.129  0.6168 -0.3646 -0.1185
  894MOL0     N23286   7.633  11.625   1.221  0.2182 -0.3828  0.1363
  894MOL0     C23287   8.531  11.079   1.300  1.0335  0.2212 -0.8561
  894MOL0     C23288   8.668  11.091   1.301  0.2576 -0.1754  0.0667
  894MOL0     C23289   9.105  11.033   1.138 -0.3014  0.0048 -0.3067
  894MOL0     C23290   9.158  11.104   1.251 -0.7519  0.1728  0.2678
  894MOL0     C23291   9.291  11.104   1.285 -0.0770  0.0055  0.6048
  894MOL0     C23292   9.382  11.027   1.205 -0.0733 -0.4483 -0.0045
  894MOL0     O23293   9.512  11.023   1.238  0.2238  0.1494  1.0678
  894MOL0     C23294   9.551  11.097   1.354  0.5678 -0.1563  0.2848
  894MOL0     C23295   9.703  11.095   1.388 -0.0090 -0.5085  0.2493
  894MOL0     C23296   9.723  11.225   1.467  0.6337  0.8528 -0.1990
  894MOL0     C23297   9.867  11.230   1.518 -0.3037  0.5134  0.1073
  894MOL0     C23298   9.875  11.267   1.659 -0.5733 -0.2519 -0.1252
  894MOL0     C23299   9.878  11.270   1.786 -0.1679  0.6493  0.1579
  894MOL0     C23300   9.330  10.952   1.092  0.2953 -0.7352  0.5951
  894MOL0     C23301   9.198  10.957   1.060  0.0050  0.5222 -0.1741
  894MOL0     C23302   9.168  10.889   0.927 -0.2660 -0.6569 -0.6885
  894MOL0     H23303   8.736  10.919   1.017  2.2154  2.2697  1.7817
  894MOL0     H23304   8.476  10.897   1.025 -1.9889  1.8982  0.2377
  894MOL0     H23305   8.308  11.176   1.236  0.0210 -0.3259 -1.0946
  894MOL0     H23306   8.225  11.062   1.351  1.9020  4.4074  1.3918
  894MOL0     H23307   8.157  11.122   1.061 -0.4283 -1.1307 -0.0210
  894MOL0     H23308   8.056  11.013   1.171  0.6416 -0.5074  0.2164
  894MOL0     H23309   8.132  11.294   1.237  0.8620 -1.9888 -0.3255
  894MOL0     H23310   7.973  11.265   1.144  0.1769  0.0483 -1.3533
  894MOL0     H23311   7.888  11.129   1.316  1.3780 -0.7988 -3.8143
  894MOL0     H23312   8.029  11.114   1.393 -1.5141 -1.2371  0.5437
  894MOL0     H23313   8.021  11.382   1.447  1.5182 -0.8659 -3.4379
  894MOL0     H23314   7.908  11.286   1.530  2.8464  0.8191  0.7705
  894MOL0     H23315   7.797  11.486   1.429  0.0622  2.2029 -2.2044
  894MOL0     H23316   7.859  11.441   1.272 -0.6775  2.9567  1.1944
  894MOL0     H23317   7.693  11.229   1.395  0.1609 -1.7705 -1.9023
  894MOL0     H23318   7.695  11.268   1.229  0.9845  0.1099  0.5691
  894MOL0     H23319   7.483  11.346   1.318 -0.9189  2.7290 -1.7881
  894MOL0     H23320   7.569  11.462   1.422  0.1513 -1.8778  0.8309
  894MOL0     H23321   7.394  11.429   1.105 -1.0942  1.2708 -0.2738
  894MOL0     H23322   7.304  11.632   0.951  0.8594 -0.0859  1.8408
  894MOL0     H23323   7.453  11.630   0.856  0.3010 -0.8471  0.9179
  894MOL0     H23324   7.306  11.858   0.893 -0.4184  1.4292  0.6812
  894MOL0     H23325   7.446  11.882   1.012 -0.2602 -0.1614  0.0065
  894MOL0     H23326   7.564  11.789   0.796 -0.8518 -0.1238 -0.1631
  894MOL0     H23327   7.427  11.867   0.717  1.7630 -1.1949 -1.1355
  894MOL0     H23328   7.607  12.037   0.741  1.7371 -2.8998 -0.2124
  894MOL0     H23329   7.478  12.082   0.844 -1.5023 -1.6220  1.1161
  894MOL0     H23330   7.789  12.006   1.145 -0.8683 -0.7569  0.2953
  894MOL0     H23331   8.119  12.062   1.191 -0.8622  0.3430 -0.4407
  894MOL0     H23332   8.122  11.882   1.166  1.1843  0.8516  2.1780
  894MOL0     H23333   7.991  11.955   1.253 -0.0883 -1.4278 -0.0394
  894MOL0     H23334   8.363  11.699   0.828 -1.8718  2.2516  0.9731
  894MOL0     H23335   8.600  11.645   0.793 -0.2301  0.1102 -0.0213
  894MOL0     H23336   8.989  11.875   0.665  0.4212  0.0971  1.5356
  894MOL0     H23337   8.874  12.002   0.649 -1.1343  0.3661  0.5838
  894MOL0     H23338   8.868  12.025   0.886 -0.7405 -1.4363  0.2848
  894MOL0     H23339   8.921  11.855   0.912  0.7280 -1.7264 -0.5875
  894MOL0     H23340   9.135  11.930   0.797  2.0782 -0.2818  1.7039
  894MOL0     H23341   9.113  11.933   0.968 -2.8063 -3.1164 -1.3236
  894MOL0     H23342   9.047  12.182   0.946  1.8495  2.9657 -1.6833
  894MOL0     H23343   9.080  12.162   0.772 -2.6036  2.6466  0.8947
  894MOL0     H23344   9.276  12.258   0.943  4.6985 -0.3605  1.2179
  894MOL0     H23345   9.273  12.087   0.997  2.7323 -0.0370  0.2129
  894MOL0     H23346   9.344  12.179   0.713  1.4708  1.0219  0.1143
  894MOL0     H23347   9.345  12.009   0.786 -0.1879 -0.5946  1.7421
  894MOL0     H23348   9.506  12.080   0.938 -1.0593  1.7498  0.8890
  894MOL0     H23349   9.519  12.244   0.869  0.1238  0.7863 -3.7511
  894MOL0     H23350   9.575  11.995   0.709  0.1965 -0.6346  2.2571
  894MOL0     H23351   9.700  12.084   0.788  0.0755 -0.3168  1.3895
  894MOL0     H23352   8.670  12.039   0.636 -1.8661  0.0979 -2.2196
  894MOL0     H23353   8.435  12.103   0.693  0.0727  0.8424 -0.3119
  894MOL0     H23354   8.017  11.989   0.704 -1.3937  0.9118 -0.3718
  894MOL0     H23355   7.792  12.006   0.714 -0.8310  0.1797  0.2308
  894MOL0     H23356   8.474  11.123   1.382 -1.6462  1.0499 -3.0277
  894MOL0     H23357   8.712  11.151   1.380 -2.4972  1.5368  0.4313
  894MOL0     H23358   9.091  11.164   1.311 -0.8206 -0.0657  0.4284
  894MOL0     H23359   9.325  11.161   1.371  1.5590 -1.4364  0.9836
  894MOL0     H23360   9.525  11.201   1.334  2.2125  0.2912  0.2637
  894MOL0     H23361   9.498  11.064   1.443 -0.2953  2.0460  0.6548
  894MOL0     H23362   9.777  11.093   1.308 -0.2019 -0.4339  0.0693
  894MOL0     H23363   9.718  11.013   1.459 -0.2671 -1.4044 -0.7074
  894MOL0     H23364   9.687  11.314   1.415  2.6552  1.2166 -1.0335
  894MOL0     H23365   9.658  11.214   1.555  0.5968 -0.0746 -0.3387
  894MOL0     H23366   9.926  11.303   1.462 -1.4293  2.7742  1.7038
  894MOL0     H23367   9.920  11.135   1.514 -1.5538 -0.2320  0.7037
  894MOL0     H23368   9.901  11.274   1.891  1.9068 -0.3602 -0.2019
  894MOL0     H23369   9.405  10.891   1.042  1.5344  1.5089 -0.4364
  894MOL0     H23370   9.064  10.856   0.930 -0.3097 -0.7420 -2.2214
  894MOL0     H23371   9.182  10.969   0.854  0.6120 -0.1148  0.0462
  894MOL0     H23372   9.234  10.803   0.909  0.1756 -1.2247  2.8477
  895MOL0     O23373   6.375   8.211   8.476 -0.6618 -0.3613  0.5253
  895MOL0     C23374   6.399   8.225   8.596  0.2611  0.5337  0.2235
  895MOL0     O23375   6.516   8.267   8.643  0.4577 -0.3658 -0.2503
  895MOL0     C23376   6.629   8.266   8.573 -0.6659 -0.1647  0.6521
  895MOL0     C23377   6.735   8.325   8.651 -0.1387  0.3630  0.4730
  895MOL0     C23378   6.862   8.339   8.592 -0.7061  0.6526  0.2316
  895MOL0     C23379   6.885   8.303   8.458  0.0023  0.7116 -0.0697
  895MOL0     O23380   7.006   8.342   8.401  0.1847 -0.2971  0.0110
  895MOL0     C23381   7.009   8.381   8.264 -0.3236 -0.0108 -0.6009
  895MOL0     C23382   7.142   8.443   8.231 -0.2750  0.4176  1.0983
  895MOL0     C23383   7.267   8.339   8.242 -0.0319 -0.1714 -0.2154
  895MOL0     C23384   7.398   8.419   8.224 -0.0243  0.0802 -0.4943
  895MOL0     C23385   7.518   8.317   8.238  0.1291 -0.9427  0.9418
  895MOL0     C23386   7.650   8.391   8.227  0.7444 -0.7864  0.2159
  895MOL0     C23387   7.773   8.302   8.257  1.1493 -0.6759  0.1691
  895MOL0     C23388   7.769   8.230   8.388  0.8094  0.5513 -0.4263
  895MOL0     N23389   7.910   8.178   8.404  0.0634 -0.9263 -0.2661
  895MOL0     C23390   7.957   8.061   8.353 -0.3203  0.1654  0.1794
  895MOL0     C23391   8.094   8.060   8.377  0.8080  0.1103 -0.5145
  895MOL0     C23392   8.199   7.961   8.335 -0.6050  0.3365  0.1077
  895MOL0     C23393   8.171   7.832   8.404 -0.4230  0.3316  0.6860
  895MOL0     C23394   8.264   7.731   8.358  0.2230  0.6041  1.0343
  895MOL0     C23395   8.254   7.599   8.430 -0.8419  0.7234 -0.0702
  895MOL0     O23396   8.210   7.592   8.564 -0.2986  0.1816  0.8779
  895MOL0     C23397   8.299   7.612   8.657 -0.3198 -0.7261  0.0606
  895MOL0     C23398   8.249   7.588   8.786  0.0561  0.8826  0.3168
  895MOL0     C23399   8.326   7.610   8.899 -1.0163 -0.1056 -0.4709
  895MOL0     C23400   8.263   7.583   9.041  0.7064 -0.5600  0.1729
  895MOL0     C23401   8.464   7.643   8.887  1.1928  0.2619 -0.3228
  895MOL0     C23402   8.555   7.676   9.001  0.1303  0.3038  0.1861
  895MOL0     O23403   8.683   7.697   8.960 -0.3252 -0.6041  0.1206
  895MOL0     C23404   8.778   7.717   9.052  0.3309  0.8211  0.3292
  895MOL0     C23405   8.850   7.612   9.110  0.2499  0.6402  0.6339
  895MOL0     C23406   8.980   7.638   9.175  0.1170 -0.1703  0.4529
  895MOL0     C23407   9.021   7.773   9.192  0.4219 -0.7789 -0.3324
  895MOL0     O23408   9.142   7.808   9.256  0.4992  0.1707  0.7418
  895MOL0     C23409   9.237   7.705   9.301  0.7913 -0.0342 -0.0426
  895MOL0     C23410   9.354   7.779   9.373 -0.0195 -0.1522 -0.3831
  895MOL0     C23411   9.423   7.886   9.291  0.2216  0.5628  0.0566
  895MOL0     C23412   9.541   7.942   9.370 -0.1140 -0.5248  0.0505
  895MOL0     C23413   9.608   8.051   9.288 -0.6254  0.4056  1.2596
  895MOL0     C23414   9.700   8.156   9.365  0.7175  0.2060 -0.2059
  895MOL0     C23415   9.831   8.087   9.418  0.5903 -0.0612  0.2574
  895MOL0     C23416   9.919   8.010   9.327  0.1620  0.2205  0.2845
  895MOL0    Cl23417  10.088   8.011   9.412  0.2170  0.3361 -0.0118
  895MOL0     C23418   8.939   7.873   9.151  0.0621 -0.2763  0.0704
  895MOL0     C23419   8.825   7.842   9.079 -1.2583 -0.2431  0.3908
  895MOL0     O23420   8.519   7.682   9.120 -0.1844 -0.9206 -0.0119
  895MOL0     C23421   8.510   7.673   8.760 -0.5835  0.1521 -0.5308
  895MOL0     C23422   8.435   7.651   8.645  0.7681  0.8131  0.6366
  895MOL0     N23423   8.124   8.168   8.450  0.1806  0.1695  0.0537
  895MOL0     N23424   8.014   8.234   8.473 -0.3285  0.3354 -0.1646
  895MOL0     C23425   6.787   8.233   8.389 -0.2479 -0.6179 -0.1495
  895MOL0     C23426   6.662   8.217   8.444  0.0826  0.4668  0.2974
  895MOL0     C23427   6.299   8.190   8.703 -0.0068 -0.0156  0.0444
  895MOL0     C23428   6.165   8.190   8.659 -0.0893  0.3250 -0.7031
  895MOL0     C23429   6.062   8.159   8.752 -0.0698  0.4984  0.4317
  895MOL0     C23430   6.082   8.135   8.888 -0.3426 -0.0926  0.2313
  895MOL0     O23431   5.990   8.114   8.982 -0.7952  0.3560 -0.5761
  895MOL0     C23432   5.865   8.046   8.941 -0.1229 -1.0441 -0.9309
  895MOL0     C23433   5.893   7.895   8.926 -0.6156  0.3364 -0.3241
  895MOL0     C23434   5.768   7.807   8.941 -0.2516 -0.2934  0.2576
  895MOL0     C23435   5.774   7.691   8.840 -0.1114 -0.4056  0.4971
  895MOL0     C23436   5.648   7.622   8.840 -0.9166 -0.0074  0.0111
  895MOL0     C23437   5.536   7.567   8.827  0.6278  0.1907  0.3903
  895MOL0     C23438   6.215   8.143   8.929  0.2759  0.4051 -0.2137
  895MOL0     C23439   6.327   8.171   8.848  0.0051 -0.4240 -0.2668
  895MOL0     C23440   6.466   8.163   8.911  0.8037 -0.0955 -0.5412
  895MOL0     H23441   6.719   8.374   8.746 -1.9736  0.1180  0.3319
  895MOL0     H23442   6.950   8.376   8.643  0.1583  1.2325 -1.6216
  895MOL0     H23443   6.929   8.455   8.252 -3.0456 -1.7036  4.2990
  895MOL0     H23444   6.996   8.292   8.202 -0.1829  0.2886 -1.0634
  895MOL0     H23445   7.141   8.487   8.131 -1.0660 -2.1849 -0.1123
  895MOL0     H23446   7.165   8.517   8.309  0.2665 -0.1482  1.4831
  895MOL0     H23447   7.267   8.291   8.341  2.4675  1.9943  0.9662
  895MOL0     H23448   7.258   8.261   8.167 -1.2633 -0.1303 -0.1206
  895MOL0     H23449   7.399   8.452   8.120  0.1779 -1.3563 -0.9711
  895MOL0     H23450   7.399   8.509   8.286 -0.1751 -0.5328  0.4245
  895MOL0     H23451   7.520   8.246   8.156 -0.9617 -0.1475  0.1998
  895MOL0     H23452   7.513   8.276   8.340  1.7633  2.2454  2.4661
  895MOL0     H23453   7.651   8.428   8.124  0.8919 -0.4190  0.3464
  895MOL0     H23454   7.662   8.472   8.299  1.7553 -1.8968  1.3401
  895MOL0     H23455   7.865   8.362   8.260 -0.5545  2.0795  0.9219
  895MOL0     H23456   7.787   8.236   8.170 -0.5690 -2.0268  0.8693
  895MOL0     H23457   7.759   8.299   8.473  1.3114  0.5430 -0.3539
  895MOL0     H23458   7.701   8.145   8.389 -0.3753  1.3560 -3.1998
  895MOL0     H23459   7.904   7.985   8.296  0.0121  1.3111 -1.7584
  895MOL0     H23460   8.292   8.007   8.370 -1.1724 -0.0924  2.4009
  895MOL0     H23461   8.209   7.950   8.227  0.0292 -1.3061  0.2933
  895MOL0     H23462   8.183   7.857   8.510 -3.7732  6.3687  0.1078
  895MOL0     H23463   8.068   7.803   8.381 -0.2525 -0.3192  0.7165
  895MOL0     H23464   8.262   7.711   8.250  2.9930  0.6550  0.8972
  895MOL0     H23465   8.360   7.782   8.364 -0.4135  2.3591 -1.7919
  895MOL0     H23466   8.190   7.545   8.360  0.9222 -1.3458 -0.2096
  895MOL0     H23467   8.347   7.541   8.422 -0.3272  1.6905 -1.8083
  895MOL0     H23468   8.152   7.545   8.806  1.3424 -1.1475  2.6926
  895MOL0     H23469   8.246   7.675   9.097 -0.8266 -0.2111 -0.7863
  895MOL0     H23470   8.338   7.524   9.094  4.9012  3.3013 -0.8649
  895MOL0     H23471   8.163   7.539   9.042 -0.3787  1.7215  1.5784
  895MOL0     H23472   8.814   7.511   9.090  1.1862  0.5217 -0.5202
  895MOL0     H23473   9.037   7.549   9.199  0.5518 -0.0976 -0.2621
  895MOL0     H23474   9.186   7.632   9.364  2.2831 -0.8705  0.2627
  895MOL0     H23475   9.285   7.648   9.220  4.0790  0.2015  1.5789
  895MOL0     H23476   9.317   7.840   9.456  0.2541  0.0609 -0.4166
  895MOL0     H23477   9.421   7.700   9.409  0.2055 -1.2141 -2.8981
  895MOL0     H23478   9.361   7.970   9.259  2.5994  2.5007  0.2228
  895MOL0     H23479   9.465   7.840   9.202 -2.5846  1.1745 -1.7100
  895MOL0     H23480   9.616   7.866   9.398 -0.2918 -0.9764 -0.6590
  895MOL0     H23481   9.496   7.985   9.459  1.0580  1.7548 -0.3796
  895MOL0     H23482   9.657   8.023   9.195 -2.7649  1.3577 -0.2231
  895MOL0     H23483   9.525   8.108   9.246 -0.4941 -1.5757 -1.9647
  895MOL0     H23484   9.645   8.205   9.445 -1.6908  1.0958 -2.2521
  895MOL0     H23485   9.729   8.238   9.298 -0.1094 -0.6567 -1.6685
  895MOL0     H23486   9.812   8.031   9.510  1.9702  1.1521  1.3214
  895MOL0     H23487   9.891   8.172   9.452 -0.4492  1.0765 -0.6566
  895MOL0     H23488   9.934   8.054   9.228  2.3933 -1.6388 -0.2866
  895MOL0     H23489   9.875   7.910   9.313  1.5984 -0.1727 -1.9803
  895MOL0     H23490   8.986   7.970   9.168  0.0645 -0.3952  0.8113
  895MOL0     H23491   8.765   7.925   9.042  0.2119 -0.6338 -3.2583
  895MOL0     H23492   8.610   7.712   8.746 -0.3731  0.9303  2.4053
  895MOL0     H23493   8.484   7.682   8.553 -0.0854  0.1290 -0.0702
  895MOL0     H23494   6.807   8.194   8.290 -0.6312 -0.3373 -0.3413
  895MOL0     H23495   6.592   8.156   8.388  3.0372 -1.3965 -1.6623
  895MOL0     H23496   6.141   8.199   8.554 -1.3638  1.8326 -0.3123
  895MOL0     H23497   5.961   8.170   8.714  0.4247 -2.3707 -2.1192
  895MOL0     H23498   5.796   8.052   9.026  0.2649 -2.8626 -0.4502
  895MOL0     H23499   5.815   8.080   8.850 -1.1081 -1.1678 -0.4543
  895MOL0     H23500   5.967   7.858   8.999  0.1743 -0.2058 -1.3650
  895MOL0     H23501   5.944   7.886   8.830 -0.7120 -0.8475 -0.2814
  895MOL0     H23502   5.751   7.765   9.041 -2.7670 -0.3175 -0.1044
  895MOL0     H23503   5.678   7.868   8.928 -0.7930 -1.2296 -0.5544
  895MOL0     H23504   5.852   7.616   8.857 -0.4556 -0.7854  0.4174
  895MOL0     H23505   5.786   7.739   8.742 -1.9087 -2.1714 -0.6724
  895MOL0     H23506   5.443   7.519   8.805  1.0499  0.1022 -1.4040
  895MOL0     H23507   6.238   8.122   9.034  2.3213 -1.7984 -0.9959
  895MOL0     H23508   6.520   8.256   8.934  1.5136 -0.6557  0.1388
  895MOL0     H23509   6.477   8.090   8.993  0.1107 -1.4736 -1.6412
  895MOL0     H23510   6.530   8.121   8.833  2.0670 -0.8551  0.8327
  896MOL0     O23511   3.198   2.799   8.690 -0.3455  0.0207  0.3667
  896MOL0     C23512   3.169   2.895   8.618  0.3400  0.0291  0.3283
  896MOL0     O23513   3.252   2.993   8.588 -0.0338 -0.1609 -0.0302
  896MOL0     C23514   3.389   3.002   8.620  0.2490  1.0989 -0.1530
  896MOL0     C23515   3.441   2.933   8.733  0.0026 -0.1795  0.0951
  896MOL0     C23516   3.586   2.933   8.759 -0.4590  0.1013  0.4275
  896MOL0     C23517   3.667   3.001   8.666 -1.1360  0.0944 -0.1013
  896MOL0     O23518   3.802   2.980   8.685  0.3541  0.4258  0.5943
  896MOL0     C23519   3.873   2.915   8.579  0.4256  0.5379  0.9847
  896MOL0     C23520   3.998   2.999   8.537 -1.0324  0.3918 -0.6146
  896MOL0     C23521   4.113   2.906   8.503 -1.0725  0.0834  0.5560
  896MOL0     C23522   4.243   2.989   8.471 -0.3029  0.1052 -1.1341
  896MOL0     C23523   4.346   2.881   8.439 -0.2787  1.2417 -0.0741
  896MOL0     C23524   4.489   2.945   8.441  0.1145 -0.2463  0.2250
  896MOL0     C23525   4.608   2.859   8.394  0.2161 -0.0711 -0.2426
  896MOL0     C23526   4.614   2.851   8.242 -0.3497  0.5785 -0.1277
  896MOL0     N23527   4.736   2.793   8.193  0.5335  1.0547 -0.2830
  896MOL0     C23528   4.840   2.743   8.265 -0.0859  0.0070 -0.5995
  896MOL0     C23529   4.932   2.691   8.183  0.1514 -0.0500 -0.1179
  896MOL0     C23530   5.071   2.637   8.213  0.3374  0.1897  0.1798
  896MOL0     C23531   5.181   2.728   8.159  0.0248 -0.1591  0.2878
  896MOL0     C23532   5.305   2.666   8.234 -1.0374 -0.2578  0.1163
  896MOL0     C23533   5.429   2.715   8.158  1.0321  0.6653 -0.2955
  896MOL0     O23534   5.549   2.676   8.230  0.6085  0.2943  0.3188
  896MOL0     C23535   5.671   2.699   8.170 -0.1732  0.4715 -0.3830
  896MOL0     C23536   5.712   2.660   8.040 -0.6683  0.0385 -0.6495
  896MOL0     C23537   5.843   2.689   7.998 -0.0812 -0.3700 -0.3660
  896MOL0     C23538   5.882   2.650   7.854 -0.4552  0.2210 -1.0918
  896MOL0     C23539   5.938   2.750   8.089 -0.0447  0.6050 -0.5472
  896MOL0     C23540   6.081   2.785   8.060  0.5303 -0.7961  0.0334
  896MOL0     O23541   6.150   2.883   8.132  0.6054  0.1201 -0.2397
  896MOL0     C23542   6.284   2.884   8.112 -0.7976 -0.4666  0.2150
  896MOL0     C23543   6.362   2.808   8.207  0.9991  0.3900 -0.7847
  896MOL0     C23544   6.493   2.804   8.201 -0.1061  0.1796  0.5312
  896MOL0     C23545   6.563   2.875   8.102  0.0869  0.2832  0.0901
  896MOL0     O23546   6.700   2.876   8.095 -1.0740  0.1454  0.1360
  896MOL0     C23547   6.778   2.812   8.195 -0.2414 -0.0830 -0.3416
  896MOL0     C23548   6.926   2.827   8.169  0.5020 -0.5952 -0.2899
  896MOL0     C23549   7.014   2.786   8.279 -0.8394 -0.2465 -0.1883
  896MOL0     C23550   7.152   2.772   8.229 -0.8357 -0.1567  0.5346
  896MOL0     C23551   7.260   2.759   8.338 -0.7083 -0.7738  0.0783
  896MOL0     C23552   7.393   2.713   8.285  0.6593  0.3880  0.6251
  896MOL0     C23553   7.492   2.716   8.402  0.7035  0.2939 -0.3780
  896MOL0     C23554   7.635   2.709   8.339 -0.2509  0.0075 -0.8569
  896MOL0    Cl23555   7.664   2.543   8.279 -0.0874 -0.2699 -0.1392
  896MOL0     C23556   6.490   2.953   8.007  0.6023 -0.6053  0.2713
  896MOL0     C23557   6.356   2.962   8.015  0.0462 -0.0009  0.1611
  896MOL0     O23558   6.124   2.717   7.968 -0.1185  0.6565 -0.0373
  896MOL0     C23559   5.891   2.786   8.216 -0.3614 -0.3840  0.8628
  896MOL0     C23560   5.758   2.761   8.262  0.9390 -1.0861 -0.6362
  896MOL0     N23561   4.874   2.702   8.054  0.4264  0.5891  0.3117
  896MOL0     N23562   4.766   2.765   8.059 -0.7701 -0.6259  0.0842
  896MOL0     C23563   3.614   3.062   8.552 -0.3511 -0.0347  0.5093
  896MOL0     C23564   3.476   3.079   8.534  0.1220 -0.0599 -0.2270
  896MOL0     C23565   3.031   2.900   8.552 -0.3595  0.0682  0.1688
  896MOL0     C23566   2.932   2.832   8.619  0.2591 -0.4469  0.7117
  896MOL0     C23567   2.800   2.837   8.568  0.3126  1.0501  0.1078
  896MOL0     C23568   2.759   2.907   8.457 -1.6591  0.2767 -0.1246
  896MOL0     O23569   2.626   2.904   8.431 -0.0810  0.2387  0.2657
  896MOL0     C23570   2.569   2.972   8.316 -0.0626  0.2116 -0.4890
  896MOL0     C23571   2.419   2.966   8.346 -0.6300  0.3634  0.3872
  896MOL0     C23572   2.377   2.826   8.391  0.7408  0.7563 -0.1671
  896MOL0     C23573   2.227   2.795   8.348  0.1581  0.5214 -0.4084
  896MOL0     C23574   2.135   2.868   8.436 -0.3033  0.5139 -0.5872
  896MOL0     C23575   2.072   2.928   8.514  0.3570  0.5585  0.4722
  896MOL0     C23576   2.857   2.970   8.391 -0.0580 -0.1754  0.3161
  896MOL0     C23577   2.996   2.965   8.429 -0.3629 -0.0429 -0.8181
  896MOL0     C23578   3.111   3.032   8.348  0.2626  0.2064 -0.2546
  896MOL0     H23579   3.373   2.907   8.815 -0.2069 -1.1433 -0.3682
  896MOL0     H23580   3.625   2.878   8.844 -2.3018 -2.1620 -0.0906
  896MOL0     H23581   3.809   2.898   8.492  0.0830  0.6247  1.2182
  896MOL0     H23582   3.890   2.810   8.605 -0.9126 -0.4492 -1.7218
  896MOL0     H23583   3.966   3.056   8.448 -1.8833 -0.6310 -0.9898
  896MOL0     H23584   4.019   3.064   8.622  0.9056 -1.4183  0.3928
  896MOL0     H23585   4.130   2.827   8.577  0.9204  0.2267  0.3149
  896MOL0     H23586   4.083   2.844   8.417 -1.4727  3.3256 -1.8264
  896MOL0     H23587   4.232   3.061   8.389  0.5368  0.6374 -0.7931
  896MOL0     H23588   4.279   3.046   8.557 -2.4371 -2.5596  1.7652
  896MOL0     H23589   4.323   2.860   8.334 -0.1381  0.6689  0.0091
  896MOL0     H23590   4.347   2.800   8.512 -1.1832 -1.4325 -2.7830
  896MOL0     H23591   4.487   3.041   8.390 -1.6847 -0.0801  0.5336
  896MOL0     H23592   4.512   2.979   8.542 -2.2822 -1.6561  1.3475
  896MOL0     H23593   4.605   2.759   8.438 -3.4587  1.1581  2.8438
  896MOL0     H23594   4.700   2.907   8.428  0.6118 -1.1414  0.2427
  896MOL0     H23595   4.521   2.805   8.205 -2.1416  1.8571  2.4951
  896MOL0     H23596   4.617   2.947   8.190 -3.7114  0.1156 -1.4953
  896MOL0     H23597   4.852   2.745   8.373  0.2763  2.1596 -0.6258
  896MOL0     H23598   5.071   2.541   8.160  1.6728 -1.2469  2.5747
  896MOL0     H23599   5.080   2.620   8.321  2.9808 -2.5294 -0.3192
  896MOL0     H23600   5.182   2.717   8.051 -1.0492 -1.3026  0.3734
  896MOL0     H23601   5.168   2.831   8.194 -2.0350 -0.5593  0.8123
  896MOL0     H23602   5.313   2.708   8.335  1.6923  2.4936 -1.0768
  896MOL0     H23603   5.302   2.557   8.236 -0.1866 -0.2814  1.8068
  896MOL0     H23604   5.434   2.661   8.063 -0.6671 -1.1033  0.5555
  896MOL0     H23605   5.410   2.821   8.137 -2.5898 -0.3123 -2.9273
  896MOL0     H23606   5.641   2.609   7.975 -0.9107  2.1585 -2.1481
  896MOL0     H23607   5.969   2.584   7.855  0.1126  0.9554 -0.9694
  896MOL0     H23608   5.923   2.738   7.804  0.7630 -0.7885 -1.9031
  896MOL0     H23609   5.798   2.605   7.799  0.1503 -2.2162 -0.1429
  896MOL0     H23610   6.304   2.756   8.282  1.0237  0.8978 -0.4027
  896MOL0     H23611   6.533   2.758   8.290  0.7102  2.4319  1.3947
  896MOL0     H23612   6.756   2.856   8.293  0.9848 -1.6663  0.6802
  896MOL0     H23613   6.754   2.706   8.191 -1.2001  0.1208 -0.1799
  896MOL0     H23614   6.958   2.770   8.080  0.6823 -0.7533 -0.1254
  896MOL0     H23615   6.938   2.932   8.144  0.5004  0.3917  3.3692
  896MOL0     H23616   6.985   2.688   8.317 -1.4609  1.3452  3.9923
  896MOL0     H23617   7.015   2.861   8.358 -0.2681 -1.2013  0.7267
  896MOL0     H23618   7.181   2.859   8.168 -0.7725  0.5525  1.5496
  896MOL0     H23619   7.148   2.686   8.162  1.2822 -1.7824  2.3409
  896MOL0     H23620   7.265   2.851   8.395 -2.8618  0.2392 -1.2405
  896MOL0     H23621   7.232   2.680   8.408  2.0677 -1.8471  0.1253
  896MOL0     H23622   7.426   2.768   8.196  1.2090 -3.0837 -1.5273
  896MOL0     H23623   7.390   2.608   8.252  0.2176  0.6413 -0.1571
  896MOL0     H23624   7.490   2.632   8.472  0.8188  0.4376 -0.2016
  896MOL0     H23625   7.466   2.804   8.461 -1.2326  0.5648 -1.5448
  896MOL0     H23626   7.711   2.735   8.414 -0.1328  1.1820 -1.3603
  896MOL0     H23627   7.655   2.783   8.261  2.4574  1.3140  0.9278
  896MOL0     H23628   6.536   2.994   7.919 -1.5451 -1.0710 -1.1373
  896MOL0     H23629   6.304   3.012   7.933  0.0247 -0.9874 -0.4402
  896MOL0     H23630   5.963   2.821   8.289  2.9282  0.1587 -2.3298
  896MOL0     H23631   5.736   2.783   8.366  2.8688  2.5975 -0.8645
  896MOL0     H23632   3.687   3.114   8.490 -0.7885 -0.9694 -0.8349
  896MOL0     H23633   3.433   3.135   8.451 -0.6571  0.5848  0.5820
  896MOL0     H23634   2.960   2.777   8.708  2.4490  0.7229  0.8186
  896MOL0     H23635   2.715   2.786   8.612  1.0224 -0.4336 -0.1736
  896MOL0     H23636   2.610   3.073   8.318  1.4105 -0.1141  5.5964
  896MOL0     H23637   2.604   2.916   8.229  0.4424  0.2417 -0.3100
  896MOL0     H23638   2.366   2.996   8.255 -3.6578 -4.4711  0.2096
  896MOL0     H23639   2.401   3.044   8.421  0.4454  1.5818 -0.5681
  896MOL0     H23640   2.448   2.752   8.355  0.0484  0.0590 -0.1197
  896MOL0     H23641   2.370   2.794   8.495  1.1861 -2.3848 -0.9959
  896MOL0     H23642   2.203   2.688   8.350 -0.7424  0.6792 -1.5348
  896MOL0     H23643   2.206   2.823   8.244 -0.5043  0.1077 -0.3968
  896MOL0     H23644   2.008   2.977   8.585  1.4494  2.1221  0.4091
  896MOL0     H23645   2.821   3.046   8.322 -2.4417 -0.3886  1.2329
  896MOL0     H23646   3.075   3.042   8.245  1.9379 -0.1949 -0.9135
  896MOL0     H23647   3.128   3.136   8.378 -1.2554  0.4077 -0.0134
  896MOL0     H23648   3.202   2.970   8.343 -0.7447 -1.3677  0.2214
  897MOL0     O23649   0.203   2.669   2.696 -0.4403 -0.3529 -0.0161
  897MOL0     C23650   0.190   2.550   2.678 -0.0895 -0.2419 -0.0214
  897MOL0     O23651   0.288   2.464   2.697 -0.9093  0.5198 -0.8729
  897MOL0     C23652   0.422   2.501   2.713 -0.5346 -0.3881  0.6978
  897MOL0     C23653   0.479   2.494   2.838  0.3399  0.4132 -0.7949
  897MOL0     C23654   0.612   2.515   2.853  0.7107 -0.3596 -0.2544
  897MOL0     C23655   0.689   2.559   2.744 -0.0764 -0.0715 -0.6415
  897MOL0     O23656   0.819   2.581   2.740  0.3062 -1.0646  0.0661
  897MOL0     C23657   0.903   2.569   2.855  0.2069  1.5082 -0.0652
  897MOL0     C23658   0.955   2.419   2.879  0.4830  0.3219  0.1609
  897MOL0     C23659   1.064   2.381   2.779 -0.0865 -0.1084  0.4046
  897MOL0     C23660   1.128   2.241   2.788 -0.7954 -0.0857 -0.2844
  897MOL0     C23661   1.247   2.234   2.685 -0.2109 -0.2810 -0.0486
  897MOL0     C23662   1.332   2.112   2.697  0.1094 -0.6076 -0.0555
  897MOL0     C23663   1.461   2.094   2.607  1.1088 -0.1578  0.6773
  897MOL0     C23664   1.552   1.994   2.663 -0.2905 -0.1811 -0.1662
  897MOL0     N23665   1.669   1.966   2.572  0.1108  0.2369 -0.0430
  897MOL0     C23666   1.751   2.065   2.517 -0.1301 -0.8505  1.1585
  897MOL0     C23667   1.827   1.991   2.433 -0.3916 -0.3546 -0.4340
  897MOL0     C23668   1.942   2.036   2.347 -0.4571  0.0911 -0.2439
  897MOL0     C23669   2.076   2.054   2.427  0.0566  0.6191 -0.2810
  897MOL0     C23670   2.107   1.950   2.529 -0.4409 -0.7243 -0.2390
  897MOL0     C23671   2.255   1.942   2.566  0.2534 -0.3433 -0.3572
  897MOL0     O23672   2.280   1.841   2.671  0.2525 -0.0939  0.3536
  897MOL0     C23673   2.415   1.827   2.711 -0.1817  0.1138  0.0408
  897MOL0     C23674   2.442   1.731   2.806 -0.3189 -0.3536  0.5459
  897MOL0     C23675   2.573   1.708   2.859  0.1167 -0.1586  0.0711
  897MOL0     C23676   2.584   1.599   2.958 -0.0666 -0.3041 -0.6962
  897MOL0     C23677   2.679   1.789   2.808  0.1544 -0.0210  0.1346
  897MOL0     C23678   2.829   1.755   2.828 -0.0388 -1.1944 -0.5693
  897MOL0     O23679   2.861   1.680   2.941  0.6441 -0.3665  0.4155
  897MOL0     C23680   2.992   1.653   2.980 -0.4288 -0.5245  0.1126
  897MOL0     C23681   3.016   1.537   3.055 -0.5965  0.0755 -0.2195
  897MOL0     C23682   3.143   1.503   3.105  0.0101  0.7740 -0.8883
  897MOL0     C23683   3.254   1.581   3.073  0.1636 -0.3826  0.3193
  897MOL0     O23684   3.384   1.548   3.114 -0.0263 -0.5983  0.1864
  897MOL0     C23685   3.395   1.445   3.208  0.2130 -0.1892 -0.6747
  897MOL0     C23686   3.544   1.424   3.238 -0.8982 -0.1535 -1.0161
  897MOL0     C23687   3.561   1.310   3.345  0.0974  0.0908  0.4979
  897MOL0     C23688   3.702   1.294   3.402  0.9774  0.5588  0.3168
  897MOL0     C23689   3.715   1.322   3.560  0.0492 -0.5935 -0.2058
  897MOL0     C23690   3.853   1.293   3.624  0.6506 -0.1215  1.1277
  897MOL0     C23691   3.868   1.142   3.625  0.1771 -0.2730 -1.2894
  897MOL0     C23692   3.997   1.117   3.712 -0.1361  0.3884  0.2817
  897MOL0    Cl23693   4.143   1.190   3.646 -0.2183  0.4937 -0.1697
  897MOL0     C23694   3.236   1.692   2.993  0.2299 -0.2285 -0.6463
  897MOL0     C23695   3.104   1.732   2.953 -1.1435  0.1295 -0.6281
  897MOL0     O23696   2.915   1.802   2.749 -0.2368  0.5967  0.0744
  897MOL0     C23697   2.648   1.891   2.716 -0.6025 -0.9515  0.9400
  897MOL0     C23698   2.520   1.903   2.664  0.1859 -0.0218 -0.8535
  897MOL0     N23699   1.787   1.860   2.431 -0.4043 -0.1186  0.2578
  897MOL0     N23700   1.688   1.848   2.517  0.4578  0.4385  0.3526
  897MOL0     C23701   0.625   2.578   2.619 -0.4638 -0.3182 -0.0131
  897MOL0     C23702   0.494   2.547   2.609  0.0641 -0.4309  0.4504
  897MOL0     C23703   0.062   2.498   2.631  0.3620  0.0201  0.8376
  897MOL0     C23704   0.030   2.359   2.649  0.2725  0.0638 -0.3438
  897MOL0     C23705  -0.084   2.297   2.600  0.1632 -0.3162  0.7817
  897MOL0     C23706  -0.175   2.375   2.532  0.2628  0.8884 -0.0930
  897MOL0     O23707  -0.293   2.332   2.469  0.4972 -0.6904  0.0008
  897MOL0     C23708  -0.314   2.194   2.454  0.0897 -0.7041  0.1606
  897MOL0     C23709  -0.450   2.174   2.387  0.1091  0.5262 -0.9719
  897MOL0     C23710  -0.439   2.229   2.244 -0.5303 -0.4406 -0.1450
  897MOL0     C23711  -0.557   2.195   2.151  0.1080 -0.0720  0.6515
  897MOL0     C23712  -0.612   2.063   2.157  0.6048  0.0407  0.8177
  897MOL0     C23713  -0.644   1.945   2.168 -0.0364  0.7154 -0.1712
  897MOL0     C23714  -0.158   2.506   2.518  0.3323 -0.1689  0.0262
  897MOL0     C23715  -0.039   2.568   2.560 -0.2066 -0.5679  0.4337
  897MOL0     C23716  -0.028   2.718   2.541  0.7454  0.5184  0.0850
  897MOL0     H23717   0.421   2.474   2.927  3.7739 -1.6061  1.2010
  897MOL0     H23718   0.646   2.507   2.956 -1.1347 -1.0220  0.3408
  897MOL0     H23719   0.850   2.602   2.945 -0.2019 -1.5538  0.9511
  897MOL0     H23720   0.978   2.648   2.860 -1.0062  2.6226  1.3019
  897MOL0     H23721   0.979   2.396   2.983 -1.4571 -2.1850  0.1503
  897MOL0     H23722   0.870   2.353   2.859  0.1731  0.0027  2.2766
  897MOL0     H23723   1.024   2.396   2.678  0.3092  0.9727  0.3927
  897MOL0     H23724   1.138   2.461   2.792 -0.0309 -0.1084  0.1106
  897MOL0     H23725   1.160   2.216   2.889 -3.0772  0.3187  0.5816
  897MOL0     H23726   1.056   2.164   2.761 -1.6328 -0.0511  1.6978
  897MOL0     H23727   1.304   2.325   2.704  0.2531 -1.1483  3.3373
  897MOL0     H23728   1.212   2.243   2.581  0.7440  1.0814 -0.2780
  897MOL0     H23729   1.375   2.116   2.798  0.7424  1.8546 -0.3551
  897MOL0     H23730   1.275   2.019   2.690 -2.4668  0.6099  2.6094
  897MOL0     H23731   1.517   2.188   2.603  2.0786 -0.6707  1.7058
  897MOL0     H23732   1.435   2.076   2.502 -0.0354  2.2161  0.4873
  897MOL0     H23733   1.591   2.027   2.760 -0.7262 -3.2600  1.2072
  897MOL0     H23734   1.487   1.907   2.679 -2.5360  0.9079 -2.6872
  897MOL0     H23735   1.757   2.171   2.536  0.6633 -0.3060 -1.6519
  897MOL0     H23736   1.916   2.139   2.320  0.0217  0.2393 -0.1502
  897MOL0     H23737   1.940   1.975   2.256 -2.2178 -2.7250  1.5255
  897MOL0     H23738   2.162   2.057   2.358  1.4451  2.5763  1.4289
  897MOL0     H23739   2.071   2.153   2.473 -1.7103  0.1825  0.5349
  897MOL0     H23740   2.056   1.984   2.619 -0.2836  0.4225 -0.5621
  897MOL0     H23741   2.068   1.857   2.488 -2.4822 -1.1846  2.5283
  897MOL0     H23742   2.314   1.937   2.474 -2.4649  0.9602 -2.3181
  897MOL0     H23743   2.282   2.038   2.613 -0.1767 -0.2745 -0.2526
  897MOL0     H23744   2.369   1.659   2.843  1.0857 -2.2717 -0.2888
  897MOL0     H23745   2.670   1.533   2.950  2.0344  2.0728  0.9158
  897MOL0     H23746   2.496   1.533   2.953 -0.4262  0.0583  0.4576
  897MOL0     H23747   2.586   1.641   3.059  0.4452 -2.4004  0.2160
  897MOL0     H23748   2.937   1.465   3.073  0.7512 -1.1147  1.2338
  897MOL0     H23749   3.152   1.423   3.178 -0.3376  2.0689  0.6365
  897MOL0     H23750   3.336   1.466   3.298 -2.2537  2.2640 -2.6880
  897MOL0     H23751   3.348   1.356   3.165 -1.3606 -1.2263  2.8170
  897MOL0     H23752   3.602   1.405   3.147  1.9198 -0.9401  0.8191
  897MOL0     H23753   3.585   1.514   3.284 -2.1378 -0.7792  1.4390
  897MOL0     H23754   3.525   1.214   3.308  0.6012  0.2644 -0.4858
  897MOL0     H23755   3.505   1.332   3.436  0.4202 -1.9181  1.2166
  897MOL0     H23756   3.766   1.361   3.344  0.4423  0.9909  0.2175
  897MOL0     H23757   3.731   1.192   3.376  0.4793  0.1842  1.1914
  897MOL0     H23758   3.685   1.426   3.576 -0.1634 -0.7657  0.5539
  897MOL0     H23759   3.655   1.245   3.608  4.8483 -2.7486  3.1775
  897MOL0     H23760   3.852   1.335   3.725 -0.4773  1.4793  0.4847
  897MOL0     H23761   3.939   1.335   3.571  1.4404 -1.1342  1.5598
  897MOL0     H23762   3.880   1.112   3.521 -1.9833 -0.8620 -1.4024
  897MOL0     H23763   3.782   1.097   3.674 -2.3621  3.4882 -1.9012
  897MOL0     H23764   4.000   1.008   3.707 -4.6791  0.0802  0.2344
  897MOL0     H23765   3.975   1.152   3.813  0.0654  0.2101  0.3876
  897MOL0     H23766   3.328   1.748   2.985  0.3270 -0.5035 -1.6284
  897MOL0     H23767   3.103   1.824   2.896 -1.6880  0.5716  0.0787
  897MOL0     H23768   2.723   1.950   2.664 -0.0608 -5.1112 -3.7982
  897MOL0     H23769   2.501   1.976   2.586 -3.1676 -0.6771 -0.7699
  897MOL0     H23770   0.671   2.629   2.535 -2.7405  0.2795 -0.9824
  897MOL0     H23771   0.435   2.561   2.519 -0.5840  0.8080  1.0429
  897MOL0     H23772   0.097   2.299   2.708 -1.6184 -1.5676  0.2391
  897MOL0     H23773  -0.083   2.188   2.602  0.0388 -0.3301  2.5736
  897MOL0     H23774  -0.230   2.146   2.404  2.0622  1.0006  1.6873
  897MOL0     H23775  -0.327   2.146   2.552 -2.8935 -1.1192 -0.3404
  897MOL0     H23776  -0.522   2.212   2.460  0.2275 -1.7256  0.4474
  897MOL0     H23777  -0.472   2.067   2.389 -1.6290  0.8579  0.9819
  897MOL0     H23778  -0.424   2.337   2.241 -2.3686 -0.1132  0.9067
  897MOL0     H23779  -0.343   2.188   2.212  0.5970  0.4861  1.9321
  897MOL0     H23780  -0.532   2.212   2.046  0.6578  0.5981  0.8829
  897MOL0     H23781  -0.631   2.271   2.176 -0.5112 -0.0640 -1.0569
  897MOL0     H23782  -0.678   1.846   2.188 -2.2621  0.5138 -3.9565
  897MOL0     H23783  -0.244   2.555   2.472  0.3124 -0.2201  0.0104
  897MOL0     H23784  -0.119   2.754   2.491  0.7068  1.3288  0.7182
  897MOL0     H23785  -0.029   2.771   2.637  1.6243  0.1408  0.3080
  897MOL0     H23786   0.057   2.748   2.480  1.4277 -0.5660  0.4818
  898MOL0     O23787   5.637  11.176   4.440  0.2287  0.1872 -0.0138
  898MOL0     C23788   5.532  11.214   4.501  0.2967  0.5547  0.8797
  898MOL0     O23789   5.533  11.264   4.624  0.3270 -1.2819 -0.5212
  898MOL0     C23790   5.656  11.304   4.684  0.2057 -0.3624  0.0025
  898MOL0     C23791   5.693  11.437   4.681 -0.5589  0.2730 -0.2477
  898MOL0     C23792   5.812  11.480   4.742 -0.2838 -0.3923 -0.8983
  898MOL0     C23793   5.889  11.395   4.820 -0.1470 -0.0354 -0.6881
  898MOL0     O23794   6.011  11.431   4.870  0.3973  0.3416  0.0108
  898MOL0     C23795   6.070  11.556   4.844  0.1147 -0.4340  0.3536
  898MOL0     C23796   6.220  11.553   4.876  0.4234 -0.5400  0.3087
  898MOL0     C23797   6.232  11.538   5.028  0.1525 -0.5961  1.0605
  898MOL0     C23798   6.376  11.560   5.071  0.4415 -0.1221 -0.1754
  898MOL0     C23799   6.405  11.514   5.212 -0.4753 -0.0044  0.1459
  898MOL0     C23800   6.358  11.375   5.262 -0.4061  0.1231 -0.3679
  898MOL0     C23801   6.424  11.333   5.402 -0.2988 -0.3218 -0.0897
  898MOL0     C23802   6.546  11.246   5.402 -0.2168  0.5705 -0.3585
  898MOL0     N23803   6.659  11.314   5.340 -0.0467 -0.0976  0.0736
  898MOL0     C23804   6.729  11.263   5.228  0.3599 -0.5361 -0.6460
  898MOL0     C23805   6.836  11.349   5.229 -0.1755 -0.1766  0.8194
  898MOL0     C23806   6.948  11.355   5.124  0.2167  0.0967  0.2795
  898MOL0     C23807   7.081  11.411   5.179 -0.4383  0.3480 -0.3721
  898MOL0     C23808   7.147  11.314   5.285  0.6945  0.3903 -0.7052
  898MOL0     C23809   7.272  11.237   5.239 -0.7816 -1.1463  0.3525
  898MOL0     O23810   7.279  11.205   5.092  0.4152  0.0979 -0.7995
  898MOL0     C23811   7.177  11.118   5.053 -0.3493 -0.5028  0.0797
  898MOL0     C23812   7.104  11.031   5.133  0.2116  0.6510 -0.6129
  898MOL0     C23813   7.006  10.945   5.078 -0.0102  0.1412 -0.4245
  898MOL0     C23814   6.911  10.877   5.176 -0.8432 -0.1624  0.9047
  898MOL0     C23815   7.000  10.923   4.940  0.4626  0.3375 -0.1388
  898MOL0     C23816   6.906  10.821   4.878  0.5671 -0.3058  0.2651
  898MOL0     O23817   6.852  10.869   4.760 -0.6256 -0.3743  0.1108
  898MOL0     C23818   6.738  10.804   4.719 -0.9081 -0.0580 -0.6305
  898MOL0     C23819   6.615  10.859   4.744  0.1521  0.0019 -0.2010
  898MOL0     C23820   6.494  10.788   4.727  0.1942  0.5243 -1.0009
  898MOL0     C23821   6.506  10.658   4.677  0.1653  0.7757 -0.2360
  898MOL0     O23822   6.395  10.569   4.672 -0.7906  0.4785  0.3003
  898MOL0     C23823   6.274  10.631   4.680 -0.3127 -0.5619 -0.3902
  898MOL0     C23824   6.185  10.509   4.674 -0.3300  0.7163 -0.0158
  898MOL0     C23825   6.030  10.548   4.673 -0.1815 -0.7076 -0.0012
  898MOL0     C23826   5.940  10.416   4.667  0.9812  0.1486 -0.2574
  898MOL0     C23827   5.799  10.436   4.608 -0.6653  0.0766  0.0249
  898MOL0     C23828   5.730  10.302   4.609 -1.0966 -0.1317 -0.6308
  898MOL0     C23829   5.589  10.303   4.550 -0.0762 -0.4061  0.3607
  898MOL0     C23830   5.476  10.382   4.619  0.1000 -0.3763 -0.6514
  898MOL0    Cl23831   5.487  10.387   4.800  0.3628  0.5922  0.1470
  898MOL0     C23832   6.631  10.605   4.640 -0.5714  0.3544 -0.2964
  898MOL0     C23833   6.743  10.679   4.660  0.2663 -0.5904 -0.2949
  898MOL0     O23834   6.901  10.704   4.915  0.5489 -0.0877 -0.1704
  898MOL0     C23835   7.071  11.009   4.859 -0.2250  0.7464 -0.4723
  898MOL0     C23836   7.161  11.100   4.911  0.2762 -0.2576 -0.2015
  898MOL0     N23837   6.832  11.435   5.333  0.2116 -0.1952 -0.2456
  898MOL0     N23838   6.728  11.413   5.398  0.5202 -0.6553 -0.2087
  898MOL0     C23839   5.846  11.263   4.822 -0.3683  0.4428  0.7471
  898MOL0     C23840   5.730  11.214   4.759 -0.2879 -0.3386  0.0558
  898MOL0     C23841   5.397  11.193   4.437 -0.0749 -0.4144  1.1976
  898MOL0     C23842   5.284  11.186   4.519  0.0283 -0.6660  0.0438
  898MOL0     C23843   5.161  11.130   4.485 -0.4436  0.4692  0.4199
  898MOL0     C23844   5.147  11.076   4.360  0.7396 -0.6697  0.2904
  898MOL0     O23845   5.033  11.014   4.325 -0.1695  0.2849  0.0378
  898MOL0     C23846   4.917  11.022   4.408  0.2985 -0.1053 -0.4843
  898MOL0     C23847   4.794  10.989   4.320 -0.7416  0.1781  0.2211
  898MOL0     C23848   4.676  10.927   4.396 -0.2913 -0.3845 -0.6007
  898MOL0     C23849   4.566  10.895   4.295  0.4129 -0.0351  0.2718
  898MOL0     C23850   4.456  10.813   4.355  0.0641 -0.3972  0.0756
  898MOL0     C23851   4.374  10.742   4.404  0.1976 -0.6739 -0.5642
  898MOL0     C23852   5.253  11.106   4.266 -0.4062  0.4213  1.0160
  898MOL0     C23853   5.376  11.162   4.300 -0.1274 -0.2151  0.3931
  898MOL0     C23854   5.484  11.171   4.188 -0.2912  0.2063 -0.3579
  898MOL0     H23855   5.616  11.503   4.643 -0.2639  2.2371  2.3040
  898MOL0     H23856   5.841  11.583   4.725 -2.8023  0.7302  0.8722
  898MOL0     H23857   6.025  11.626   4.915  1.6458  0.9826  0.0091
  898MOL0     H23858   6.059  11.587   4.739  1.6875 -1.8902 -0.2919
  898MOL0     H23859   6.268  11.475   4.817  1.6297  0.9674 -0.7939
  898MOL0     H23860   6.262  11.649   4.842 -3.4387  0.8653 -1.0902
  898MOL0     H23861   6.179  11.621   5.076 -0.5801  1.9847 -3.5354
  898MOL0     H23862   6.187  11.440   5.048  0.6856 -1.3211 -0.9716
  898MOL0     H23863   6.433  11.491   5.008  1.4000 -2.3776  2.9426
  898MOL0     H23864   6.397  11.667   5.059 -1.7541  0.7180  2.5109
  898MOL0     H23865   6.346  11.584   5.273 -2.0750 -1.0407 -0.1621
  898MOL0     H23866   6.512  11.527   5.230 -0.4959  0.4673 -0.0580
  898MOL0     H23867   6.248  11.381   5.263 -0.3399  1.6190  0.9027
  898MOL0     H23868   6.375  11.291   5.193 -0.3917 -1.6689  1.7011
  898MOL0     H23869   6.347  11.279   5.460  1.5702 -1.8207  1.1543
  898MOL0     H23870   6.454  11.421   5.460 -1.0693  0.8854 -1.4655
  898MOL0     H23871   6.576  11.231   5.506  3.6212 -1.0751 -1.5127
  898MOL0     H23872   6.532  11.145   5.361  1.4434 -0.2341  0.9019
  898MOL0     H23873   6.711  11.180   5.160  1.1126 -0.7104 -0.6437
  898MOL0     H23874   6.925  11.424   5.042 -0.5420  1.1808  1.3526
  898MOL0     H23875   6.964  11.257   5.079  0.7484  1.2603 -2.2238
  898MOL0     H23876   7.160  11.423   5.105  1.6759  1.8900  1.9472
  898MOL0     H23877   7.073  11.512   5.220  1.2498  0.2841  0.1988
  898MOL0     H23878   7.165  11.368   5.378 -0.6497  2.0421 -1.3658
  898MOL0     H23879   7.074  11.239   5.317  2.3733 -0.3932  1.5895
  898MOL0     H23880   7.363  11.291   5.266 -1.5263  1.1749 -1.4676
  898MOL0     H23881   7.282  11.137   5.283  0.3984 -0.6601  1.2353
  898MOL0     H23882   7.117  11.029   5.241  1.1096  1.4804 -0.6924
  898MOL0     H23883   6.934  10.770   5.187  3.0456  0.4837  0.4798
  898MOL0     H23884   6.805  10.881   5.149 -0.7984 -1.2314  0.5231
  898MOL0     H23885   6.915  10.917   5.277 -1.6162  0.6882  0.6106
  898MOL0     H23886   6.623  10.955   4.793 -0.5245  0.1866 -0.4447
  898MOL0     H23887   6.405  10.845   4.752  0.2827  2.0135 -3.6561
  898MOL0     H23888   6.265  10.668   4.782 -0.1737 -1.0742 -0.1894
  898MOL0     H23889   6.254  10.700   4.598  0.3676  0.2479  0.1107
  898MOL0     H23890   6.199  10.455   4.580 -0.4305  1.4628 -0.4617
  898MOL0     H23891   6.215  10.446   4.758  0.0226  1.4407  0.4147
  898MOL0     H23892   6.007  10.606   4.584  1.5479 -3.5207 -2.5083
  898MOL0     H23893   6.000  10.603   4.763  0.3120 -1.8898  0.9177
  898MOL0     H23894   5.931  10.377   4.768  1.5490  0.3271 -0.1330
  898MOL0     H23895   5.994  10.349   4.599 -0.7492 -1.5557 -0.0199
  898MOL0     H23896   5.741  10.500   4.675  0.2401 -1.0238  1.9153
  898MOL0     H23897   5.813  10.481   4.509  4.3446  1.5837  1.1670
  898MOL0     H23898   5.739  10.263   4.711 -0.7219 -1.5036 -1.1681
  898MOL0     H23899   5.779  10.231   4.541  0.9488  0.5126  0.0908
  898MOL0     H23900   5.550  10.201   4.541  1.2591 -1.1928  2.4928
  898MOL0     H23901   5.598  10.350   4.452  3.7752  0.3506  0.9195
  898MOL0     H23902   5.380  10.347   4.579 -0.0364 -0.6367 -0.1025
  898MOL0     H23903   5.487  10.487   4.592 -1.6307  0.3138  1.1119
  898MOL0     H23904   6.633  10.502   4.607 -3.8035 -0.7729  2.5078
  898MOL0     H23905   6.836  10.631   4.632 -1.5975 -4.3731 -0.7000
  898MOL0     H23906   7.068  11.003   4.751 -1.1762 -1.1131 -0.3836
  898MOL0     H23907   7.209  11.171   4.844 -3.1021  2.2045 -0.2733
  898MOL0     H23908   5.921  11.196   4.864  1.8231  1.5651 -1.1681
  898MOL0     H23909   5.695  11.112   4.758 -2.7244  0.4229 -1.1035
  898MOL0     H23910   5.289  11.229   4.618 -1.6931  0.0070 -0.1312
  898MOL0     H23911   5.084  11.121   4.561  0.6013 -1.4507  1.3397
  898MOL0     H23912   4.929  10.957   4.495  4.0230 -1.1711 -1.6017
  898MOL0     H23913   4.906  11.125   4.445  1.0984 -0.4917  0.9000
  898MOL0     H23914   4.826  10.912   4.250  0.0775  0.2117  0.5492
  898MOL0     H23915   4.768  11.079   4.264 -1.4549 -1.0510 -1.5051
  898MOL0     H23916   4.709  10.847   4.463 -1.7939  1.4893  2.6496
  898MOL0     H23917   4.641  11.008   4.460  2.9200 -0.3412  1.3345
  898MOL0     H23918   4.619  10.840   4.217  2.0696 -0.9812  1.9791
  898MOL0     H23919   4.528  10.990   4.256  2.8454  1.0547  0.3753
  898MOL0     H23920   4.293  10.678   4.434 -0.0885  0.7030  1.7870
  898MOL0     H23921   5.240  11.070   4.165 -1.2849  1.5716  0.7022
  898MOL0     H23922   5.553  11.086   4.191  2.1762  2.0051 -1.8334
  898MOL0     H23923   5.445  11.170   4.085  1.0715 -0.2717 -0.8971
  898MOL0     H23924   5.537  11.266   4.191  0.2812 -0.0810 -1.0593
  899MOL0     O23925   7.018   1.667   1.899 -0.1960  0.2951  0.3059
  899MOL0     C23926   6.936   1.753   1.930  0.8012 -0.6661  1.7584
  899MOL0     O23927   6.961   1.890   1.940  0.4709  0.2493  0.4704
  899MOL0     C23928   7.094   1.920   1.954  0.1777 -0.3369 -0.7989
  899MOL0     C23929   7.163   1.984   1.850 -0.2838 -0.5814  0.2866
  899MOL0     C23930   7.297   2.024   1.868 -0.1092  0.1403  0.0518
  899MOL0     C23931   7.356   2.027   1.997 -0.3630 -0.6558  0.7825
  899MOL0     O23932   7.487   2.079   2.037 -0.9150 -0.1542 -0.0826
  899MOL0     C23933   7.564   2.144   1.927 -0.2741  0.2761 -0.9034
  899MOL0     C23934   7.709   2.173   1.989  0.7152  0.0663 -0.1035
  899MOL0     C23935   7.781   2.041   2.008 -0.2500  0.4362  0.0879
  899MOL0     C23936   7.894   2.061   2.109  0.1095  0.8871  0.7264
  899MOL0     C23937   8.012   1.959   2.107 -0.4516 -0.6678  0.7052
  899MOL0     C23938   8.100   2.001   2.225  0.1929 -0.5081  0.3751
  899MOL0     C23939   8.206   1.903   2.268 -0.2372  0.1859  0.1047
  899MOL0     C23940   8.334   1.923   2.197  0.4675  0.4381  0.1551
  899MOL0     N23941   8.432   1.817   2.235  0.3563  0.0391 -0.1210
  899MOL0     C23942   8.527   1.825   2.334  0.0271  0.4340  0.0325
  899MOL0     C23943   8.583   1.703   2.336 -0.3829 -0.3063 -0.4023
  899MOL0     C23944   8.679   1.648   2.435  1.0669  0.1135 -0.9087
  899MOL0     C23945   8.779   1.545   2.382 -0.0724  0.0255  0.8981
  899MOL0     C23946   8.871   1.499   2.489  0.1889  0.0203 -0.1617
  899MOL0     C23947   9.017   1.471   2.442  0.6293  0.4903 -0.3686
  899MOL0     O23948   9.085   1.585   2.416 -0.2884 -0.6183  0.1337
  899MOL0     C23949   9.144   1.668   2.509  0.0244  0.2138 -0.5583
  899MOL0     C23950   9.175   1.647   2.649  0.4768 -0.1615 -0.2883
  899MOL0     C23951   9.227   1.750   2.728 -0.3998  0.1277  0.5851
  899MOL0     C23952   9.209   1.723   2.875 -0.0546 -0.6436  0.7883
  899MOL0     C23953   9.274   1.870   2.672  0.3066 -0.1907  0.1264
  899MOL0     C23954   9.345   1.977   2.745  0.1803 -0.1874 -0.2881
  899MOL0     O23955   9.377   2.084   2.672 -0.0471  0.1080  0.4138
  899MOL0     C23956   9.433   2.202   2.724 -0.2112  0.6496  0.6429
  899MOL0     C23957   9.418   2.253   2.852 -0.0033 -0.0000 -0.8468
  899MOL0     C23958   9.471   2.372   2.887  0.6865 -0.9526 -0.5118
  899MOL0     C23959   9.541   2.442   2.794 -0.8520  0.2678 -0.4996
  899MOL0     O23960   9.583   2.570   2.818  0.1275 -0.1390 -0.3200
  899MOL0     C23961   9.660   2.583   2.945  0.3894  0.1616 -0.4518
  899MOL0     C23962   9.743   2.709   2.941  0.3154  0.2300  0.2107
  899MOL0     C23963   9.828   2.712   3.068  0.3190 -0.5468 -0.1792
  899MOL0     C23964   9.972   2.682   3.026  1.0108  0.3534  0.5892
  899MOL0     C23965  10.058   2.662   3.144 -0.1279  0.3175 -0.9214
  899MOL0     C23966  10.104   2.778   3.232 -0.1603 -1.3339 -0.2184
  899MOL0     C23967  10.207   2.744   3.337  0.1804 -0.2873  0.4347
  899MOL0     C23968  10.344   2.757   3.276  0.2623 -0.5963  0.4133
  899MOL0    Cl23969  10.408   2.615   3.191 -0.2296  0.3122 -0.0756
  899MOL0     C23970   9.569   2.391   2.661  0.1876  0.6379  0.7196
  899MOL0     C23971   9.515   2.267   2.629  0.3385 -0.1541 -0.6824
  899MOL0     O23972   9.369   1.960   2.862 -0.2230  0.2878 -0.1366
  899MOL0     C23973   9.263   1.884   2.535  0.5843  0.4880  0.1530
  899MOL0     C23974   9.200   1.786   2.458  0.4377 -0.4538  0.2290
  899MOL0     N23975   8.516   1.621   2.245 -0.3724 -0.6726  0.1959
  899MOL0     N23976   8.432   1.691   2.182 -0.3092 -0.1956  0.3765
  899MOL0     C23977   7.288   1.968   2.093  0.4066  0.0910  0.5029
  899MOL0     C23978   7.164   1.908   2.079  0.2164  0.0810 -0.6321
  899MOL0     C23979   6.806   1.705   1.997 -0.6952  0.8211  0.0176
  899MOL0     C23980   6.740   1.803   2.073 -0.7067 -0.6889 -0.0399
  899MOL0     C23981   6.625   1.766   2.134 -0.3085 -0.1278 -0.5922
  899MOL0     C23982   6.566   1.644   2.109  0.4823 -0.1510  1.3443
  899MOL0     O23983   6.450   1.602   2.162  0.1992  0.2157  0.3702
  899MOL0     C23984   6.367   1.703   2.218 -0.4918  0.2044 -0.7953
  899MOL0     C23985   6.231   1.643   2.232  0.3960 -0.4930  0.0549
  899MOL0     C23986   6.174   1.587   2.107  0.2294  0.1987  0.9897
  899MOL0     C23987   6.031   1.572   2.126  1.2662 -0.2346  1.1811
  899MOL0     C23988   5.959   1.528   2.004 -0.2203 -0.0815 -0.0061
  899MOL0     C23989   5.918   1.493   1.893 -0.8738  0.8969  0.5479
  899MOL0     C23990   6.634   1.546   2.039  0.4018 -0.6716  0.6252
  899MOL0     C23991   6.750   1.574   1.972 -0.3002 -0.7968 -0.5178
  899MOL0     C23992   6.835   1.466   1.912  0.2670 -0.3217 -0.4342
  899MOL0     H23993   7.102   2.013   1.765  2.3419 -1.4458 -2.0724
  899MOL0     H23994   7.349   2.050   1.777 -1.8823 -2.2251 -1.7867
  899MOL0     H23995   7.516   2.241   1.910 -2.0854 -0.4049  0.0942
  899MOL0     H23996   7.566   2.080   1.837 -2.7988 -1.9327  0.4664
  899MOL0     H23997   7.778   2.240   1.938  1.7437  1.4001  2.8001
  899MOL0     H23998   7.689   2.217   2.088  1.8865 -1.3468  0.8019
  899MOL0     H23999   7.714   1.959   2.034  0.1206 -0.1825 -0.8293
  899MOL0     H24000   7.830   2.016   1.913  0.2992  0.2183  0.4247
  899MOL0     H24001   7.946   2.157   2.099 -0.9377  1.3945  0.0079
  899MOL0     H24002   7.847   2.036   2.205 -0.2368 -1.2883  0.0518
  899MOL0     H24003   8.068   1.969   2.014 -0.1140 -1.6726  0.7880
  899MOL0     H24004   7.976   1.857   2.124 -1.0014 -0.3535  1.5024
  899MOL0     H24005   8.137   2.102   2.208 -0.0523 -0.6670 -1.2878
  899MOL0     H24006   8.026   2.017   2.304 -1.4964  1.0370 -1.4155
  899MOL0     H24007   8.171   1.800   2.260 -0.9722  0.4702 -0.4060
  899MOL0     H24008   8.226   1.918   2.374  0.1948  1.6452 -0.1616
  899MOL0     H24009   8.319   1.914   2.089 -0.0908 -2.1330  0.4019
  899MOL0     H24010   8.369   2.023   2.225 -0.6324  0.8332  0.1523
  899MOL0     H24011   8.561   1.904   2.400 -0.4148  0.0772  0.6935
  899MOL0     H24012   8.619   1.591   2.507 -0.8342  2.7850 -0.2154
  899MOL0     H24013   8.747   1.718   2.484  0.8800 -0.1325 -0.2881
  899MOL0     H24014   8.727   1.459   2.340  1.3452 -0.2233 -0.4138
  899MOL0     H24015   8.831   1.593   2.299 -1.2175  2.6159  1.5694
  899MOL0     H24016   8.876   1.558   2.581  0.0925  0.2554 -0.3067
  899MOL0     H24017   8.823   1.409   2.530 -0.4432  0.9807  1.3053
  899MOL0     H24018   9.076   1.407   2.508  1.4970  0.2739 -1.3210
  899MOL0     H24019   9.020   1.407   2.353 -0.1421  1.4223 -1.0859
  899MOL0     H24020   9.153   1.546   2.684 -2.2156 -0.1624 -1.7448
  899MOL0     H24021   9.175   1.621   2.896 -0.7987 -0.0642  2.5794
  899MOL0     H24022   9.124   1.788   2.897 -0.3128 -0.0204 -1.7092
  899MOL0     H24023   9.292   1.738   2.944  0.1409  0.8819  0.2435
  899MOL0     H24024   9.366   2.193   2.926  0.2679  3.2866  2.2733
  899MOL0     H24025   9.446   2.420   2.981  4.2475  0.2631 -0.0117
  899MOL0     H24026   9.592   2.591   3.030 -0.8033 -3.7122 -0.8452
  899MOL0     H24027   9.729   2.498   2.949  2.2436  1.4380 -2.6886
  899MOL0     H24028   9.795   2.701   2.846 -0.1710 -3.0025  0.0982
  899MOL0     H24029   9.674   2.794   2.940 -0.4853 -0.4079 -1.1220
  899MOL0     H24030   9.806   2.636   3.143  0.5692  0.0214  0.4729
  899MOL0     H24031   9.831   2.806   3.123  0.5689 -1.7586  1.9976
  899MOL0     H24032  10.013   2.759   2.961 -0.6574 -1.1491 -2.4214
  899MOL0     H24033   9.963   2.589   2.969 -1.1696 -0.3694  1.9566
  899MOL0     H24034  10.013   2.599   3.221  0.3293  1.0366 -0.0555
  899MOL0     H24035  10.151   2.613   3.112  1.5704  2.1368  1.0220
  899MOL0     H24036  10.021   2.817   3.292  2.1003  0.4032  1.9852
  899MOL0     H24037  10.139   2.864   3.174 -1.0127 -1.1264 -0.4347
  899MOL0     H24038  10.191   2.645   3.380 -1.4163 -0.5964 -0.7751
  899MOL0     H24039  10.202   2.810   3.424  0.4558  1.4861 -0.8321
  899MOL0     H24040  10.405   2.749   3.366 -0.5687  0.5711  1.0988
  899MOL0     H24041  10.355   2.836   3.201 -2.4138  0.2815  0.8528
  899MOL0     H24042   9.637   2.436   2.590 -0.6169 -2.5617 -2.3623
  899MOL0     H24043   9.516   2.229   2.527 -0.6171 -1.8837 -0.0827
  899MOL0     H24044   9.291   1.970   2.475 -0.6733  0.4559 -0.5185
  899MOL0     H24045   9.188   1.807   2.352 -1.4849  1.5981  0.7932
  899MOL0     H24046   7.322   1.960   2.196  1.4386  2.5887  0.4129
  899MOL0     H24047   7.133   1.851   2.167  2.7758 -0.4961 -0.0265
  899MOL0     H24048   6.784   1.900   2.094  0.4845 -1.2429  0.0885
  899MOL0     H24049   6.582   1.839   2.202  0.9440 -0.2819  0.3879
  899MOL0     H24050   6.408   1.735   2.314 -0.3145 -0.0226 -0.7949
  899MOL0     H24051   6.374   1.793   2.156  0.5013  2.0908  1.8387
  899MOL0     H24052   6.161   1.719   2.267  2.3604  1.7650 -0.6388
  899MOL0     H24053   6.230   1.560   2.304 -0.6345  0.8049  1.6169
  899MOL0     H24054   6.205   1.648   2.022  0.1618 -1.3245 -0.1868
  899MOL0     H24055   6.207   1.484   2.087 -0.7792 -0.1642  1.1453
  899MOL0     H24056   5.981   1.667   2.146 -1.9275 -0.9083 -2.3333
  899MOL0     H24057   6.014   1.511   2.215  1.4766 -2.5608 -0.2832
  899MOL0     H24058   5.889   1.460   1.795 -0.7648 -0.9542  1.0982
  899MOL0     H24059   6.578   1.456   2.017 -1.3063  0.9075 -2.1472
  899MOL0     H24060   6.885   1.492   1.818  2.0321 -1.4428  0.1389
  899MOL0     H24061   6.914   1.436   1.982  1.7102  1.4858 -1.2116
  899MOL0     H24062   6.762   1.388   1.890 -1.5305  1.0276  0.4497
  900MOL0     O24063   7.958   3.688   6.929 -0.4500 -0.1809 -0.5919
  900MOL0     C24064   7.922   3.784   6.858  0.2532  0.3306  0.2569
  900MOL0     O24065   7.979   3.911   6.862  0.0685 -0.8389 -0.4805
  900MOL0     C24066   8.103   3.940   6.909 -0.2843  0.6233 -0.5724
  900MOL0     C24067   8.212   3.856   6.882  0.5318 -0.2421  0.5524
  900MOL0     C24068   8.330   3.874   6.945 -0.2472 -0.0590  1.9372
  900MOL0     C24069   8.357   3.979   7.022 -0.5477 -0.3460 -0.3756
  900MOL0     O24070   8.486   3.988   7.067  1.0220  0.0859  0.6166
  900MOL0     C24071   8.493   4.049   7.200  0.5928  0.7150 -0.2690
  900MOL0     C24072   8.635   4.038   7.274 -0.0670  0.0096  0.3439
  900MOL0     C24073   8.619   4.076   7.417  0.4965 -0.3187  0.0076
  900MOL0     C24074   8.763   4.101   7.471  0.0617 -0.7100  0.0381
  900MOL0     C24075   8.754   4.094   7.629 -0.6343  0.2770 -0.8402
  900MOL0     C24076   8.888   4.111   7.681 -0.1819  0.7267 -0.8508
  900MOL0     C24077   8.869   4.121   7.839  0.8478  0.2487  0.3808
  900MOL0     C24078   9.000   4.107   7.913  0.1661 -1.0154 -0.5430
  900MOL0     N24079   9.081   4.228   7.875  0.1690 -0.5379  0.5544
  900MOL0     C24080   9.047   4.358   7.903  0.3928  0.4856  0.6089
  900MOL0     C24081   9.161   4.426   7.882  0.2387  0.3682 -0.1004
  900MOL0     C24082   9.176   4.576   7.894 -0.1236 -0.3353  0.5394
  900MOL0     C24083   9.312   4.639   7.894  0.0870  0.2813 -0.4402
  900MOL0     C24084   9.376   4.633   8.027 -0.5055 -0.2361 -0.1717
  900MOL0     C24085   9.518   4.684   8.020 -1.0058  0.2108 -0.1078
  900MOL0     O24086   9.559   4.696   8.156 -0.0535 -0.1644  0.2166
  900MOL0     C24087   9.692   4.732   8.172  0.1660  0.1930 -0.7712
  900MOL0     C24088   9.783   4.759   8.071 -0.6227  1.0553 -0.1260
  900MOL0     C24089   9.920   4.809   8.097 -0.3815  0.7242 -0.0813
  900MOL0     C24090  10.006   4.835   7.971 -1.1311 -0.3626  0.5132
  900MOL0     C24091   9.962   4.833   8.233  0.7145 -0.6643  0.7232
  900MOL0     C24092  10.083   4.905   8.269  0.4363  0.6554  0.1576
  900MOL0     O24093  10.124   4.892   8.396  0.0873  0.0328 -0.2711
  900MOL0     C24094  10.240   4.947   8.447  0.5194  0.4884 -0.1481
  900MOL0     C24095  10.272   4.898   8.581 -0.9443 -0.4386  0.6815
  900MOL0     C24096  10.389   4.930   8.644 -0.0071 -0.4864  0.4708
  900MOL0     C24097  10.476   5.023   8.585  0.3295  0.2291  0.5440
  900MOL0     O24098  10.589   5.053   8.657 -0.1823  0.1625 -0.0640
  900MOL0     C24099  10.688   5.145   8.599  0.4701  0.2599 -0.0530
  900MOL0     C24100  10.809   5.171   8.682  0.3073  0.5653 -0.0682
  900MOL0     C24101  10.905   5.055   8.670 -0.4678 -0.3196  0.3239
  900MOL0     C24102  11.035   5.089   8.742  0.9180  0.1743 -0.5339
  900MOL0     C24103  11.142   4.979   8.724  0.5397 -0.0085  0.4236
  900MOL0     C24104  11.098   4.847   8.803 -0.7088 -0.1077  1.1749
  900MOL0     C24105  11.217   4.766   8.831 -0.1391  0.2094  0.1761
  900MOL0     C24106  11.173   4.646   8.920 -0.6926 -0.1534  0.2056
  900MOL0    Cl24107  11.119   4.674   9.093 -0.0930 -0.0790  0.2963
  900MOL0     C24108  10.437   5.080   8.462 -0.4636  0.0817  0.1260
  900MOL0     C24109  10.320   5.050   8.392  0.5012  0.4485  0.0112
  900MOL0     O24110  10.132   4.971   8.180 -0.1707 -0.0582  0.2721
  900MOL0     C24111   9.869   4.785   8.326  0.2076 -0.8359  0.4064
  900MOL0     C24112   9.741   4.729   8.302  0.7428 -0.1494  0.3542
  900MOL0     N24113   9.262   4.339   7.838  0.0270  0.5240  0.1005
  900MOL0     N24114   9.204   4.223   7.815 -0.4010 -0.6279  0.0462
  900MOL0     C24115   8.256   4.070   7.048 -0.1485  0.2044 -0.3773
  900MOL0     C24116   8.128   4.048   6.994  0.2692 -0.3760 -0.6937
  900MOL0     C24117   7.810   3.752   6.763 -0.1157  0.5454  0.3333
  900MOL0     C24118   7.778   3.854   6.676 -0.4991  1.0262 -0.1027
  900MOL0     C24119   7.677   3.847   6.582  0.1689 -0.2614  0.4872
  900MOL0     C24120   7.598   3.735   6.569 -0.1588  0.8689 -0.6503
  900MOL0     O24121   7.495   3.746   6.484  1.0174  0.4905  0.0564
  900MOL0     C24122   7.409   3.632   6.457 -0.1862  0.0556 -0.8311
  900MOL0     C24123   7.299   3.680   6.353 -0.6142 -0.1929  0.8349
  900MOL0     C24124   7.227   3.811   6.401 -0.3234  0.0493  0.4237
  900MOL0     C24125   7.116   3.862   6.298 -1.3293 -0.2337 -0.1372
  900MOL0     C24126   7.025   3.962   6.352  0.0443 -0.3760 -0.2964
  900MOL0     C24127   6.945   4.053   6.376 -0.1259  0.9363 -0.4841
  900MOL0     C24128   7.631   3.626   6.649 -0.0623 -0.3491  0.0613
  900MOL0     C24129   7.735   3.632   6.749  0.3100 -0.1704  0.1843
  900MOL0     C24130   7.778   3.509   6.821  0.8929  0.1162 -1.0103
  900MOL0     H24131   8.207   3.772   6.813  0.8820  0.6293 -0.5645
  900MOL0     H24132   8.405   3.798   6.929  1.8683  2.0403  1.2371
  900MOL0     H24133   8.423   3.998   7.267 -2.1242 -0.6872 -3.8000
  900MOL0     H24134   8.461   4.153   7.200 -0.1854  0.6046  3.2432
  900MOL0     H24135   8.654   3.930   7.267 -0.1374  0.0687 -0.8799
  900MOL0     H24136   8.703   4.106   7.223 -1.7799  0.5798 -1.2893
  900MOL0     H24137   8.550   4.160   7.430 -1.2073 -1.6922  0.1020
  900MOL0     H24138   8.573   3.994   7.473  0.9918 -1.2545 -0.9408
  900MOL0     H24139   8.832   4.026   7.430  0.5884 -0.7780  1.0196
  900MOL0     H24140   8.795   4.200   7.437  0.5035  0.1918  2.8811
  900MOL0     H24141   8.720   3.994   7.657 -1.7303  0.9958  0.4689
  900MOL0     H24142   8.684   4.170   7.662  0.9402  1.7779 -0.8140
  900MOL0     H24143   8.957   4.030   7.654 -2.1362 -0.6023 -2.1649
  900MOL0     H24144   8.917   4.210   7.646  1.8128 -0.2551 -2.1213
  900MOL0     H24145   8.793   4.049   7.872 -0.6031  1.4163 -0.3161
  900MOL0     H24146   8.824   4.208   7.887 -0.2180  0.5323 -1.0858
  900MOL0     H24147   9.003   4.103   8.022  0.8589 -1.0163 -0.5557
  900MOL0     H24148   9.058   4.019   7.882  1.0004 -0.2867 -1.0797
  900MOL0     H24149   8.949   4.394   7.932 -0.4960 -1.5310  0.2783
  900MOL0     H24150   9.116   4.623   7.972 -0.9576  0.4521 -0.5469
  900MOL0     H24151   9.144   4.603   7.792  3.2876  2.6361  0.0326
  900MOL0     H24152   9.369   4.589   7.815 -2.5825 -0.0944 -2.2534
  900MOL0     H24153   9.306   4.742   7.858 -1.2378  0.9222  1.4151
  900MOL0     H24154   9.313   4.670   8.109  1.1720 -2.5945  2.3639
  900MOL0     H24155   9.384   4.526   8.048 -1.7802 -0.0878  1.2645
  900MOL0     H24156   9.587   4.614   7.971 -0.8877 -0.0232  0.3780
  900MOL0     H24157   9.524   4.775   7.960  0.2137 -0.7359 -1.4931
  900MOL0     H24158   9.769   4.733   7.966 -1.4312  0.0840  0.2056
  900MOL0     H24159   9.976   4.774   7.886  1.2120 -1.5088  0.4348
  900MOL0     H24160  10.109   4.801   7.980 -0.8750  0.3602  0.4016
  900MOL0     H24161  10.018   4.940   7.941  1.5723 -0.9713 -0.8156
  900MOL0     H24162  10.209   4.830   8.637 -1.3635 -1.4824 -0.9548
  900MOL0     H24163  10.417   4.886   8.740 -0.8638  0.1928  1.0530
  900MOL0     H24164  10.712   5.113   8.497  1.9353  2.3984 -0.4360
  900MOL0     H24165  10.635   5.240   8.597  0.5042  0.4386  2.9547
  900MOL0     H24166  10.864   5.257   8.643  3.2955 -0.3240  1.8571
  900MOL0     H24167  10.785   5.193   8.786  1.4979 -3.1579  1.1330
  900MOL0     H24168  10.926   5.032   8.565 -1.0631 -1.3856  0.4178
  900MOL0     H24169  10.853   4.966   8.708 -3.3728  0.4807 -1.4568
  900MOL0     H24170  11.014   5.106   8.848  2.5623 -1.0578  0.0382
  900MOL0     H24171  11.085   5.176   8.700 -0.5166  2.8897  2.9340
  900MOL0     H24172  11.140   4.956   8.617 -0.6996 -1.1114  0.6524
  900MOL0     H24173  11.241   5.013   8.752  1.0085 -1.3905  0.5213
  900MOL0     H24174  11.024   4.791   8.744  0.2551 -0.9074  0.6972
  900MOL0     H24175  11.059   4.872   8.902 -0.6294 -2.4633  1.8486
  900MOL0     H24176  11.293   4.830   8.877 -0.4578  0.5410  0.2422
  900MOL0     H24177  11.258   4.725   8.738 -1.4961 -2.2668  0.5873
  900MOL0     H24178  11.269   4.594   8.927 -0.3533  0.5506  0.9154
  900MOL0     H24179  11.111   4.585   8.854 -0.4372 -0.5025  0.2873
  900MOL0     H24180  10.500   5.158   8.422 -0.9798  0.3284 -0.2167
  900MOL0     H24181  10.297   5.094   8.295 -0.9582  0.6038  0.4140
  900MOL0     H24182   9.893   4.800   8.431  0.2809  1.0015  0.1570
  900MOL0     H24183   9.690   4.691   8.390  1.3369 -0.0635  0.7454
  900MOL0     H24184   8.272   4.155   7.113 -0.2078 -0.6849  0.8359
  900MOL0     H24185   8.051   4.114   7.032  0.0042 -2.6336  3.2410
  900MOL0     H24186   7.833   3.947   6.666 -1.1236  1.4205  0.0494
  900MOL0     H24187   7.653   3.921   6.506 -2.3076 -0.2615  1.1812
  900MOL0     H24188   7.474   3.559   6.408  0.2378 -0.9448  1.1121
  900MOL0     H24189   7.354   3.605   6.547 -0.0812 -0.0886 -0.8114
  900MOL0     H24190   7.226   3.600   6.340 -0.2063 -0.5401  0.7057
  900MOL0     H24191   7.344   3.705   6.257  0.9974 -3.3812  0.6527
  900MOL0     H24192   7.181   3.786   6.496 -0.3299 -0.6936  0.2326
  900MOL0     H24193   7.304   3.888   6.412 -1.0940  0.9623 -0.4138
  900MOL0     H24194   7.052   3.779   6.267 -1.2608 -0.0505 -0.7820
  900MOL0     H24195   7.173   3.899   6.213  0.5385  1.0886  1.5888
  900MOL0     H24196   6.875   4.134   6.385  0.6828  1.6334 -0.3569
  900MOL0     H24197   7.570   3.536   6.648 -0.2658 -0.2197 -1.5548
  900MOL0     H24198   7.744   3.422   6.764  0.2943 -0.4436  0.1671
  900MOL0     H24199   7.885   3.490   6.827  1.1554  1.5852 -0.7348
  900MOL0     H24200   7.736   3.503   6.922 -2.6119 -1.6066 -2.3885
  901MOL0     O24201   6.100   7.905   2.036  0.1106 -0.0728 -0.0686
  901MOL0     C24202   6.090   7.940   1.920 -0.0815 -0.7215  1.2186
  901MOL0     O24203   6.182   8.002   1.840 -0.0164 -0.1162  0.2799
  901MOL0     C24204   6.303   8.031   1.887  0.0733 -0.8248 -0.0271
  901MOL0     C24205   6.388   7.934   1.940  0.7900 -0.0372  0.4354
  901MOL0     C24206   6.506   7.974   2.006  0.2945  0.0600  1.1466
  901MOL0     C24207   6.549   8.104   2.016 -0.1990 -0.4392  0.3964
  901MOL0     O24208   6.664   8.132   2.085 -0.4008 -0.0840  0.7133
  901MOL0     C24209   6.783   8.087   2.013 -0.2753  0.5607 -0.5021
  901MOL0     C24210   6.915   8.120   2.079  0.6215  0.2141 -0.1404
  901MOL0     C24211   6.946   8.274   2.084  0.9029 -0.4215  0.6899
  901MOL0     C24212   7.047   8.300   2.193  0.2312  0.1247  0.0924
  901MOL0     C24213   7.126   8.430   2.180 -0.1281 -0.8968 -0.3848
  901MOL0     C24214   7.227   8.444   2.063  0.1007 -0.5627  0.4815
  901MOL0     C24215   7.356   8.355   2.105  0.2184 -0.8806 -0.0506
  901MOL0     C24216   7.418   8.293   1.979 -0.4823 -0.4581  0.1969
  901MOL0     N24217   7.562   8.287   1.973 -0.3252 -0.1946  0.4960
  901MOL0     C24218   7.640   8.390   2.010  0.0491  0.1423  0.6280
  901MOL0     C24219   7.764   8.339   1.993 -0.8604 -0.1648  0.8330
  901MOL0     C24220   7.888   8.425   2.013 -0.3309 -0.2759  0.5604
  901MOL0     C24221   7.879   8.515   2.128 -0.1759 -0.4687 -0.2792
  901MOL0     C24222   7.989   8.616   2.140 -0.0440 -0.0309 -0.2144
  901MOL0     C24223   8.125   8.544   2.173  0.2302  0.5915  0.5955
  901MOL0     O24224   8.132   8.486   2.308  0.2582 -0.1892  0.1207
  901MOL0     C24225   8.233   8.401   2.332 -0.3786  0.2066 -0.8195
  901MOL0     C24226   8.325   8.441   2.430 -0.0130  0.1355  0.2675
  901MOL0     C24227   8.441   8.364   2.463  0.9470 -0.6023  0.5932
  901MOL0     C24228   8.523   8.436   2.569  0.4176  0.4447  0.0390
  901MOL0     C24229   8.458   8.235   2.404  0.0503  0.8115  0.3470
  901MOL0     C24230   8.584   8.165   2.420 -0.5578 -0.0789  0.2016
  901MOL0     O24231   8.588   8.038   2.375 -0.0061  0.3041 -0.2723
  901MOL0     C24232   8.688   7.962   2.421 -1.1001  0.2625  0.3620
  901MOL0     C24233   8.707   7.932   2.553 -0.2384 -0.6989 -0.3596
  901MOL0     C24234   8.809   7.851   2.590 -0.3076  0.3082  0.4473
  901MOL0     C24235   8.898   7.794   2.496  0.1254  0.3308  0.3468
  901MOL0     O24236   9.005   7.714   2.546 -0.3569 -0.0934 -0.0052
  901MOL0     C24237   9.121   7.700   2.473 -0.1154 -0.3829 -0.0246
  901MOL0     C24238   9.204   7.633   2.576  0.2119  0.3667 -0.1348
  901MOL0     C24239   9.346   7.618   2.530  0.7340  1.0511  0.3639
  901MOL0     C24240   9.431   7.548   2.624 -0.6852 -0.2568  0.4348
  901MOL0     C24241   9.575   7.571   2.577 -0.7849 -0.0672  0.5814
  901MOL0     C24242   9.673   7.499   2.669  0.1397  0.0594 -0.0531
  901MOL0     C24243   9.689   7.543   2.813 -0.2456 -0.3892  0.7216
  901MOL0     C24244   9.823   7.520   2.874  0.3157 -0.7751  0.3821
  901MOL0    Cl24245   9.835   7.344   2.938 -0.2711 -0.0148  0.0387
  901MOL0     C24246   8.886   7.828   2.360 -0.2868 -0.6799 -0.3741
  901MOL0     C24247   8.777   7.909   2.317  0.2420  0.6447 -0.6036
  901MOL0     O24248   8.674   8.228   2.463 -0.0392  0.0595  0.7235
  901MOL0     C24249   8.362   8.192   2.302 -0.1612 -0.1633 -0.2929
  901MOL0     C24250   8.251   8.273   2.268  0.9035  0.2881 -0.2049
  901MOL0     N24251   7.754   8.205   1.958 -0.4507  0.3415  0.2470
  901MOL0     N24252   7.634   8.176   1.930  0.2890  0.3574 -0.6239
  901MOL0     C24253   6.467   8.202   1.957 -0.0260 -0.4549  0.8798
  901MOL0     C24254   6.354   8.165   1.890  0.2826 -0.0635  0.0104
  901MOL0     C24255   5.956   7.931   1.855  0.3156 -0.6259  0.2120
  901MOL0     C24256   5.954   7.917   1.712  0.0389  0.4416 -0.7613
  901MOL0     C24257   5.839   7.880   1.644  1.7656 -0.2492 -0.8201
  901MOL0     C24258   5.716   7.864   1.717 -0.1186 -0.6986 -0.7441
  901MOL0     O24259   5.594   7.837   1.662 -0.1083  0.8824 -0.3647
  901MOL0     C24260   5.597   7.803   1.523  1.1422 -0.6651  0.8895
  901MOL0     C24261   5.633   7.647   1.512  0.2845 -0.1595 -0.2533
  901MOL0     C24262   5.730   7.612   1.389  0.4556 -0.6841 -0.3917
  901MOL0     C24263   5.663   7.651   1.257 -0.3122 -0.8565  0.3252
  901MOL0     C24264   5.530   7.588   1.234  0.2014 -0.2380 -0.3998
  901MOL0     C24265   5.423   7.538   1.207  0.4563  0.1512 -0.5552
  901MOL0     C24266   5.711   7.889   1.859 -0.4085 -0.4790  0.8234
  901MOL0     C24267   5.831   7.922   1.925  0.2474  0.3216  1.1547
  901MOL0     C24268   5.812   7.941   2.069 -0.1953  0.1767  0.7372
  901MOL0     H24269   6.361   7.832   1.917 -0.2996  0.3265 -0.0018
  901MOL0     H24270   6.572   7.895   2.041 -1.4094 -1.2912  1.4245
  901MOL0     H24271   6.780   8.135   1.915 -0.8794 -2.1718 -1.9205
  901MOL0     H24272   6.785   7.980   1.991  0.6219  1.0579 -3.0799
  901MOL0     H24273   6.907   8.075   2.178  1.8398 -0.5529 -0.3773
  901MOL0     H24274   6.985   8.064   2.017  0.1085 -0.0674 -0.4788
  901MOL0     H24275   6.984   8.303   1.985  0.7624  0.3993  0.8714
  901MOL0     H24276   6.854   8.329   2.105  1.9392  1.6029  0.2479
  901MOL0     H24277   6.997   8.291   2.289 -0.1083  3.7660  0.3893
  901MOL0     H24278   7.113   8.213   2.185 -1.5833 -1.3707  0.6040
  901MOL0     H24279   7.181   8.440   2.275 -0.1893  0.5185 -0.4760
  901MOL0     H24280   7.056   8.510   2.154 -0.6317 -2.1065 -3.0242
  901MOL0     H24281   7.184   8.406   1.970  2.1504  0.0230 -0.7724
  901MOL0     H24282   7.256   8.548   2.050  0.4847 -0.9676 -2.3404
  901MOL0     H24283   7.334   8.271   2.172 -2.4694 -0.3893 -0.1935
  901MOL0     H24284   7.418   8.422   2.166 -1.8688  1.7165 -0.5876
  901MOL0     H24285   7.386   8.192   1.950 -1.3916  0.1635 -1.0821
  901MOL0     H24286   7.389   8.353   1.892  0.1828  0.0807  0.3401
  901MOL0     H24287   7.616   8.493   2.036 -1.1102 -0.3736  1.6985
  901MOL0     H24288   7.872   8.488   1.925 -1.2872  1.0602  1.6638
  901MOL0     H24289   7.984   8.372   1.999  0.0210  0.3537  0.5706
  901MOL0     H24290   7.787   8.575   2.124  0.8441  1.3005  1.3097
  901MOL0     H24291   7.880   8.461   2.223 -0.3411  2.3909  1.4872
  901MOL0     H24292   8.007   8.659   2.041 -1.6388 -0.1220 -0.5722
  901MOL0     H24293   7.976   8.690   2.219  3.4439  0.3815  0.1422
  901MOL0     H24294   8.143   8.467   2.097  1.2647  3.6920 -2.5952
  901MOL0     H24295   8.207   8.616   2.160  0.9346 -0.0504  1.3645
  901MOL0     H24296   8.305   8.536   2.478 -1.4156 -0.8212  1.7011
  901MOL0     H24297   8.549   8.379   2.659  0.4811  1.0654  0.4168
  901MOL0     H24298   8.466   8.524   2.599  0.7471  0.5434  0.3813
  901MOL0     H24299   8.615   8.470   2.521  0.3615  0.1604 -0.2778
  901MOL0     H24300   8.636   7.974   2.625  1.8905  0.4023  1.2042
  901MOL0     H24301   8.826   7.826   2.695  1.2093  0.2762  0.2213
  901MOL0     H24302   9.091   7.646   2.382 -3.1282  0.7192  0.2132
  901MOL0     H24303   9.165   7.796   2.443  0.5781 -1.3378 -2.3742
  901MOL0     H24304   9.201   7.693   2.667 -0.1866 -0.6497  0.5341
  901MOL0     H24305   9.157   7.538   2.600  1.0224 -0.1266 -0.4567
  901MOL0     H24306   9.390   7.717   2.516  1.8412  0.9402  2.6657
  901MOL0     H24307   9.350   7.553   2.442 -3.4623  1.3653 -0.2869
  901MOL0     H24308   9.408   7.441   2.628 -1.5257 -0.0741  0.7859
  901MOL0     H24309   9.420   7.594   2.723 -1.4477  4.6468 -1.6107
  901MOL0     H24310   9.600   7.529   2.479 -1.4634 -1.4091  0.9557
  901MOL0     H24311   9.591   7.679   2.572 -2.5405  0.3126  1.9650
  901MOL0     H24312   9.772   7.518   2.627  0.4450 -2.9543 -0.9187
  901MOL0     H24313   9.658   7.391   2.660  2.1278 -0.4080  1.5167
  901MOL0     H24314   9.615   7.500   2.881 -0.4211  1.3024  1.6683
  901MOL0     H24315   9.673   7.650   2.825 -1.2951 -0.3937 -0.4008
  901MOL0     H24316   9.842   7.587   2.958  0.5695 -0.7104  0.2741
  901MOL0     H24317   9.902   7.534   2.799  1.0837 -0.3361  1.2513
  901MOL0     H24318   8.961   7.793   2.290  0.0276  1.0110 -0.9183
  901MOL0     H24319   8.774   7.925   2.209  1.5651 -0.7036 -0.8755
  901MOL0     H24320   8.367   8.096   2.251  0.9150 -0.0235 -0.4849
  901MOL0     H24321   8.173   8.237   2.201  0.7043  0.4402 -0.0567
  901MOL0     H24322   6.500   8.305   1.963 -0.9102 -0.2442  2.8683
  901MOL0     H24323   6.288   8.241   1.849 -0.7392 -2.6560 -3.6896
  901MOL0     H24324   6.049   7.928   1.660 -0.5066  0.3683 -1.8067
  901MOL0     H24325   5.841   7.855   1.538 -0.6174  1.6251 -1.4007
  901MOL0     H24326   5.499   7.808   1.476  1.4775 -0.9282  0.1375
  901MOL0     H24327   5.654   7.868   1.455 -2.8073  0.6223 -1.5149
  901MOL0     H24328   5.541   7.588   1.515  0.5584 -0.6142 -0.6973
  901MOL0     H24329   5.678   7.616   1.607 -0.9822 -0.8782  0.1415
  901MOL0     H24330   5.826   7.665   1.396 -0.0913  0.4747 -1.1814
  901MOL0     H24331   5.743   7.504   1.395  0.2557 -0.6505  0.9505
  901MOL0     H24332   5.722   7.628   1.168  0.0746  2.6801 -0.4999
  901MOL0     H24333   5.653   7.760   1.255  1.5880 -0.6560 -0.2577
  901MOL0     H24334   5.320   7.514   1.188  0.1241  0.1509  1.0997
  901MOL0     H24335   5.612   7.871   1.901 -0.4432  1.6515  1.7367
  901MOL0     H24336   5.713   7.985   2.081  0.9324  3.2692 -0.3277
  901MOL0     H24337   5.828   7.850   2.128 -0.9523  0.1623  0.9287
  901MOL0     H24338   5.880   8.017   2.107  0.3298  0.1463 -0.1064
  902MOL0     O24339   8.922   2.615   4.443 -0.1100 -0.1658 -0.1063
  902MOL0     C24340   8.828   2.671   4.494  0.2143 -1.5340  0.5507
  902MOL0     O24341   8.843   2.789   4.557 -0.4229  0.1544 -0.0372
  902MOL0     C24342   8.960   2.835   4.606  0.2988 -0.6206  0.5355
  902MOL0     C24343   9.091   2.794   4.565 -0.0537 -0.7159 -0.5222
  902MOL0     C24344   9.198   2.860   4.623 -0.0934 -0.4788  0.5475
  902MOL0     C24345   9.195   2.974   4.689  0.1154 -0.0830 -0.3420
  902MOL0     O24346   9.310   3.039   4.716 -0.3270  0.7719 -0.7891
  902MOL0     C24347   9.302   3.174   4.779  0.0236  0.6301 -0.3991
  902MOL0     C24348   9.440   3.238   4.785  1.2664  0.3538  0.1473
  902MOL0     C24349   9.517   3.232   4.655 -0.4453 -0.2207  0.7687
  902MOL0     C24350   9.671   3.256   4.674  0.7398 -0.3055  0.3802
  902MOL0     C24351   9.699   3.404   4.702 -0.6039 -0.0306 -0.1071
  902MOL0     C24352   9.632   3.514   4.613  0.8619  0.0063  0.1061
  902MOL0     C24353   9.665   3.501   4.460 -0.3728  0.9169 -0.7149
  902MOL0     C24354   9.647   3.624   4.379  0.1525  0.4440  0.4794
  902MOL0     N24355   9.731   3.740   4.405 -0.7732 -0.0789 -0.8726
  902MOL0     C24356   9.703   3.849   4.485  0.5342 -0.6927  0.0629
  902MOL0     C24357   9.817   3.919   4.482 -0.4189 -0.0408  0.4835
  902MOL0     C24358   9.847   4.056   4.538  0.4024 -0.6427 -0.5549
  902MOL0     C24359   9.802   4.174   4.444 -0.2551  0.0873 -1.1497
  902MOL0     C24360   9.888   4.295   4.458 -0.2324  0.9050 -0.3630
  902MOL0     C24361  10.032   4.270   4.406  0.9206  0.3065  1.0586
  902MOL0     O24362  10.119   4.384   4.439 -0.1066  1.0007 -0.1243
  902MOL0     C24363  10.224   4.403   4.357  1.1971  0.0442 -1.2791
  902MOL0     C24364  10.318   4.501   4.411 -0.2892 -0.1028 -0.2150
  902MOL0     C24365  10.435   4.536   4.336  0.0543 -0.2041 -0.6083
  902MOL0     C24366  10.511   4.652   4.392 -0.0368  0.0519  0.0816
  902MOL0     C24367  10.454   4.478   4.207  0.4224  0.4541  0.1683
  902MOL0     C24368  10.580   4.511   4.136 -0.4287 -0.0669  0.2928
  902MOL0     O24369  10.587   4.480   4.000 -0.0927 -0.6409 -0.5147
  902MOL0     C24370  10.690   4.506   3.915 -0.5562  0.5972 -0.2678
  902MOL0     C24371  10.692   4.436   3.796  0.6081  1.2183  0.7632
  902MOL0     C24372  10.793   4.462   3.696  0.7182  0.6396 -0.3824
  902MOL0     C24373  10.897   4.551   3.730  0.1433  0.4056 -0.8462
  902MOL0     O24374  11.002   4.578   3.651  0.0250 -0.2645 -0.0556
  902MOL0     C24375  11.035   4.520   3.529 -0.3939  0.0732  0.1310
  902MOL0     C24376  11.130   4.402   3.546  0.3843 -0.0091 -0.3481
  902MOL0     C24377  11.052   4.290   3.623 -0.1422 -0.8361 -0.0901
  902MOL0     C24378  11.139   4.164   3.629 -0.3438 -0.1243 -0.0152
  902MOL0     C24379  11.078   4.046   3.705 -0.4798  0.0150 -0.0705
  902MOL0     C24380  11.175   3.922   3.709  0.0939 -0.5819 -0.7995
  902MOL0     C24381  11.127   3.826   3.821  0.1695  0.1208 -0.1538
  902MOL0     C24382  10.987   3.761   3.791  0.5368  0.7560 -0.8226
  902MOL0    Cl24383  10.994   3.644   3.659 -0.1159  0.0790 -0.1493
  902MOL0     C24384  10.901   4.619   3.849  0.8982 -0.5318 -0.5407
  902MOL0     C24385  10.795   4.598   3.938  0.0001 -0.0633  0.1151
  902MOL0     O24386  10.685   4.526   4.199 -0.1453  0.1281 -0.6736
  902MOL0     C24387  10.349   4.401   4.150 -0.1246 -0.6648 -0.4773
  902MOL0     C24388  10.239   4.360   4.221 -0.6121  0.0374 -0.6902
  902MOL0     N24389   9.908   3.870   4.382  0.7071 -0.4817 -0.0188
  902MOL0     N24390   9.856   3.752   4.345 -0.0138  0.0639 -0.1277
  902MOL0     C24391   9.065   3.010   4.729  0.2646 -0.2654  0.7512
  902MOL0     C24392   8.943   2.940   4.696  0.3260  0.9084  0.7074
  902MOL0     C24393   8.691   2.618   4.481  0.7523  0.5078  0.5181
  902MOL0     C24394   8.682   2.478   4.436  0.2812  0.3431  0.1779
  902MOL0     C24395   8.568   2.418   4.406 -0.5086  0.6895  0.0402
  902MOL0     C24396   8.445   2.490   4.411 -0.0070  0.7001  0.8108
  902MOL0     O24397   8.326   2.427   4.385 -0.2187  0.1259  0.4301
  902MOL0     C24398   8.214   2.498   4.326  0.7264 -0.8977  0.1378
  902MOL0     C24399   8.248   2.522   4.178  0.5615 -0.0878 -0.3486
  902MOL0     C24400   8.254   2.392   4.100 -0.5234  0.2971  0.3425
  902MOL0     C24401   8.285   2.406   3.955  1.0712  0.2348  0.8282
  902MOL0     C24402   8.191   2.488   3.870  0.1835 -0.3225 -0.4067
  902MOL0     C24403   8.118   2.558   3.806 -0.0367  0.0251  0.0157
  902MOL0     C24404   8.448   2.622   4.452  0.0143 -0.2327  0.5626
  902MOL0     C24405   8.567   2.687   4.492 -0.6237 -0.5565  0.3852
  902MOL0     C24406   8.558   2.828   4.539  0.6016  0.1825 -0.4444
  902MOL0     H24407   9.122   2.724   4.489  2.0263 -1.9981  1.4028
  902MOL0     H24408   9.300   2.826   4.605  1.5346  1.8586  4.0942
  902MOL0     H24409   9.268   3.153   4.881 -2.4955 -1.2096 -1.5049
  902MOL0     H24410   9.226   3.238   4.733 -0.5147 -1.5736 -2.7978
  902MOL0     H24411   9.411   3.342   4.797 -0.3381  0.1675 -1.6013
  902MOL0     H24412   9.501   3.199   4.867  0.3991  0.9863  1.1151
  902MOL0     H24413   9.495   3.142   4.598 -3.5585  0.5736  0.5536
  902MOL0     H24414   9.467   3.321   4.616 -0.9437  0.6792  3.2432
  902MOL0     H24415   9.713   3.208   4.763  3.2612  1.9377  0.5038
  902MOL0     H24416   9.709   3.222   4.578 -0.6689 -0.2874 -0.2029
  902MOL0     H24417   9.805   3.423   4.719 -0.6818 -0.6292  1.1589
  902MOL0     H24418   9.651   3.429   4.797  4.7481  2.8943  2.2601
  902MOL0     H24419   9.523   3.516   4.626  0.8002 -0.7646 -0.2117
  902MOL0     H24420   9.669   3.611   4.646  1.6497 -0.6410  1.2075
  902MOL0     H24421   9.596   3.427   4.418 -0.8090 -0.2494  1.8260
  902MOL0     H24422   9.771   3.485   4.439 -0.0304  2.2232 -0.1087
  902MOL0     H24423   9.669   3.587   4.279  1.5683 -1.8260  1.5306
  902MOL0     H24424   9.546   3.664   4.389  0.9345  1.9103  4.5893
  902MOL0     H24425   9.610   3.869   4.536 -0.4323  0.1941 -1.9541
  902MOL0     H24426   9.952   4.064   4.570 -0.5907  3.4935  2.5575
  902MOL0     H24427   9.792   4.055   4.633 -0.2569 -2.4179 -0.9051
  902MOL0     H24428   9.804   4.137   4.341 -0.4604  0.5532 -1.3212
  902MOL0     H24429   9.698   4.194   4.471  0.6854  0.6683  2.5676
  902MOL0     H24430   9.842   4.370   4.393 -1.4862  2.9395  2.6282
  902MOL0     H24431   9.893   4.335   4.560  0.2013  1.1433 -0.4758
  902MOL0     H24432  10.071   4.175   4.446  0.0490 -0.0253  1.1329
  902MOL0     H24433  10.024   4.250   4.299 -2.4712 -0.3414  1.3489
  902MOL0     H24434  10.298   4.547   4.507  1.9478  1.1360 -0.2752
  902MOL0     H24435  10.537   4.720   4.310 -1.6628 -1.2704 -1.5981
  902MOL0     H24436  10.599   4.602   4.434 -0.1378 -1.5963 -1.5539
  902MOL0     H24437  10.461   4.694   4.480  0.7715 -0.9401  1.0461
  902MOL0     H24438  10.625   4.352   3.776  0.9735  1.3956 -1.3928
  902MOL0     H24439  10.795   4.404   3.605  0.1927  1.0715 -0.6761
  902MOL0     H24440  10.947   4.482   3.477  0.3459 -0.1750 -0.9746
  902MOL0     H24441  11.073   4.596   3.461 -0.3664 -0.1261 -0.0768
  902MOL0     H24442  11.164   4.366   3.448 -0.7402 -2.3184  0.0624
  902MOL0     H24443  11.220   4.429   3.602 -0.6306  4.8530 -0.5817
  902MOL0     H24444  10.956   4.270   3.574 -1.2383 -2.9071  2.6120
  902MOL0     H24445  11.033   4.318   3.727  2.0471 -0.0250  0.1358
  902MOL0     H24446  11.242   4.194   3.652 -0.9598  1.2676  1.0377
  902MOL0     H24447  11.152   4.129   3.526  0.2347  2.1311 -0.7693
  902MOL0     H24448  11.056   4.073   3.809  2.8327  0.9320  0.5285
  902MOL0     H24449  10.990   4.010   3.651  0.0371 -0.2102 -0.7803
  902MOL0     H24450  11.273   3.956   3.742  0.1420 -0.4264 -1.0950
  902MOL0     H24451  11.199   3.864   3.620  1.3423 -2.3617  0.6142
  902MOL0     H24452  11.132   3.873   3.919  2.8015 -1.3670  0.5328
  902MOL0     H24453  11.199   3.744   3.831 -0.1842  0.0609  2.5204
  902MOL0     H24454  10.909   3.831   3.762  0.2507  0.3318 -1.0832
  902MOL0     H24455  10.960   3.701   3.878  0.9548 -0.8142 -1.7329
  902MOL0     H24456  10.981   4.691   3.862 -2.3433  3.2422  0.5151
  902MOL0     H24457  10.791   4.650   4.033 -3.1878 -2.8870  1.7261
  902MOL0     H24458  10.352   4.352   4.053 -3.7531 -0.9826 -0.5662
  902MOL0     H24459  10.164   4.299   4.170 -0.7776 -0.3511 -0.0056
  902MOL0     H24460   9.062   3.091   4.802 -0.7345 -1.7110  2.4128
  902MOL0     H24461   8.842   2.975   4.715  0.1277  0.2536  0.8841
  902MOL0     H24462   8.772   2.422   4.411  0.3562  1.5275 -2.6649
  902MOL0     H24463   8.562   2.317   4.367  0.6287  1.1548 -1.4259
  902MOL0     H24464   8.129   2.430   4.333  1.6249 -1.8987  2.5244
  902MOL0     H24465   8.181   2.590   4.376 -2.1875 -2.5096  1.4368
  902MOL0     H24466   8.345   2.572   4.164  0.6958  0.1291  1.2165
  902MOL0     H24467   8.173   2.589   4.136 -0.7169  0.2148  2.2451
  902MOL0     H24468   8.335   2.331   4.142  1.5472  2.1519 -0.7177
  902MOL0     H24469   8.157   2.343   4.110 -1.7934  2.6112  0.0066
  902MOL0     H24470   8.271   2.305   3.915 -2.0850  0.3680  1.3467
  902MOL0     H24471   8.389   2.439   3.942 -0.0110  3.2746 -1.3655
  902MOL0     H24472   8.041   2.618   3.760  1.7982  0.9121 -2.0760
  902MOL0     H24473   8.356   2.678   4.453 -0.3890 -0.8706 -0.0574
  902MOL0     H24474   8.614   2.839   4.632  0.5140 -0.6084 -0.2864
  902MOL0     H24475   8.608   2.890   4.464 -0.7103  1.8137 -0.0427
  902MOL0     H24476   8.454   2.860   4.550  0.7089  1.0239 -1.6403
  903MOL0     O24477   0.872  10.722   1.097  0.2959 -0.3408  0.3068
  903MOL0     C24478   0.866  10.642   1.192 -0.2264  0.9261 -0.0151
  903MOL0     O24479   0.973  10.574   1.250 -0.6365 -0.3803  0.2244
  903MOL0     C24480   1.105  10.605   1.215 -0.0235 -0.8782 -0.0091
  903MOL0     C24481   1.176  10.698   1.286 -0.0744 -0.8221 -0.7384
  903MOL0     C24482   1.306  10.736   1.259 -0.4115 -0.3874 -0.3037
  903MOL0     C24483   1.381  10.680   1.155  0.8336 -0.2045 -0.2613
  903MOL0     O24484   1.508  10.719   1.124  0.3082  0.1943  0.5057
  903MOL0     C24485   1.537  10.859   1.122  0.8157  0.6033  0.5644
  903MOL0     C24486   1.672  10.874   1.047  0.1723 -0.7551  0.2633
  903MOL0     C24487   1.790  10.821   1.129  0.3262 -0.7012  1.0086
  903MOL0     C24488   1.919  10.869   1.050  0.4868 -0.1966 -0.1446
  903MOL0     C24489   2.039  10.806   1.114 -0.1452 -0.2708  0.0128
  903MOL0     C24490   2.168  10.848   1.048 -0.7969  0.7677 -0.2559
  903MOL0     C24491   2.288  10.813   1.140 -0.1396 -0.6436  0.0414
  903MOL0     C24492   2.433  10.851   1.082 -0.1934 -0.5702 -0.2968
  903MOL0     N24493   2.542  10.782   1.146  0.3343 -0.5739 -0.0707
  903MOL0     C24494   2.585  10.812   1.265 -0.3860 -1.0696 -0.4437
  903MOL0     C24495   2.677  10.717   1.293  0.2806 -0.0557  0.0434
  903MOL0     C24496   2.748  10.695   1.427 -0.2133  0.4139 -0.0106
  903MOL0     C24497   2.885  10.763   1.427 -0.4326  0.3375  0.7410
  903MOL0     C24498   2.986  10.725   1.315 -0.0805 -0.0053 -0.3827
  903MOL0     C24499   3.117  10.794   1.349 -0.3439 -1.0428  0.5292
  903MOL0     O24500   3.203  10.791   1.235  0.4316  0.5710  0.6521
  903MOL0     C24501   3.335  10.849   1.248  0.7049 -0.0285 -0.2156
  903MOL0     C24502   3.428  10.840   1.146 -0.2678  0.4529  0.3332
  903MOL0     C24503   3.561  10.888   1.162 -0.2692  0.4354 -0.1807
  903MOL0     C24504   3.657  10.864   1.052 -0.3888 -0.7450 -0.2847
  903MOL0     C24505   3.604  10.934   1.288 -0.2925 -0.4948 -1.1820
  903MOL0     C24506   3.739  10.986   1.324  0.1235  0.0842 -0.2031
  903MOL0     O24507   3.748  11.064   1.440 -0.1477  0.9225  0.2976
  903MOL0     C24508   3.876  11.095   1.483 -0.1217 -0.3231  0.5139
  903MOL0     C24509   3.923  11.057   1.604 -0.0229 -0.1844 -0.2146
  903MOL0     C24510   4.042  11.083   1.663 -0.1796  0.5409  0.7775
  903MOL0     C24511   4.137  11.153   1.585  0.3613 -0.1330  0.3949
  903MOL0     O24512   4.261  11.177   1.638  0.0906  0.6035 -0.4408
  903MOL0     C24513   4.254  11.254   1.752 -0.0728 -0.2345 -0.4775
  903MOL0     C24514   4.395  11.296   1.813  0.1966  0.0376 -0.3721
  903MOL0     C24515   4.450  11.191   1.907  0.1425 -0.1932  0.3424
  903MOL0     C24516   4.605  11.194   1.906 -0.1378 -0.0810  0.0837
  903MOL0     C24517   4.661  11.075   1.980 -0.1775  0.3152  0.8180
  903MOL0     C24518   4.815  11.060   1.984  0.6809 -0.4923 -0.6367
  903MOL0     C24519   4.897  11.072   1.855  1.0517 -0.3481 -0.6901
  903MOL0     C24520   5.041  11.052   1.897 -1.0495  0.0976  0.4742
  903MOL0    Cl24521   5.135  11.029   1.745  0.4510 -0.1546  0.5578
  903MOL0     C24522   4.097  11.202   1.459  0.6016  0.3764  0.3165
  903MOL0     C24523   3.965  11.169   1.401 -0.3106 -0.7547  0.3459
  903MOL0     O24524   3.832  10.966   1.247 -0.4804 -0.2480 -0.4765
  903MOL0     C24525   3.510  10.931   1.393 -0.3561  0.4000 -0.7112
  903MOL0     C24526   3.379  10.892   1.378 -0.9152 -0.6678  0.4514
  903MOL0     N24527   2.686  10.637   1.179  0.2520  0.4974 -0.1262
  903MOL0     N24528   2.597  10.673   1.097 -0.3711 -0.0837  0.2469
  903MOL0     C24529   1.309  10.586   1.081  0.9439  0.3563 -0.2001
  903MOL0     C24530   1.180  10.547   1.116 -0.3820  0.1959 -0.2102
  903MOL0     C24531   0.729  10.601   1.242  0.2884  0.7977  0.0541
  903MOL0     C24532   0.724  10.573   1.381  0.9940 -0.8532 -0.0723
  903MOL0     C24533   0.603  10.527   1.434 -0.0928  0.0655  0.4925
  903MOL0     C24534   0.483  10.520   1.357  0.0577 -0.3898 -0.4137
  903MOL0     O24535   0.358  10.487   1.409  0.2510  0.9857 -0.3382
  903MOL0     C24536   0.353  10.430   1.544  0.3977  0.2217 -0.8205
  903MOL0     C24537   0.412  10.291   1.553 -0.4185 -0.6071  0.0649
  903MOL0     C24538   0.331  10.171   1.504  0.5667  0.0967  0.3861
  903MOL0     C24539   0.387  10.037   1.536  0.1665  0.6449 -0.9154
  903MOL0     C24540   0.375  10.017   1.682  0.3647  0.7387  0.8750
  903MOL0     C24541   0.349   9.998   1.797 -0.0135  0.1746 -0.2270
  903MOL0     C24542   0.486  10.562   1.232 -0.6405  0.1221  0.6640
  903MOL0     C24543   0.608  10.587   1.168  0.0199  0.4050 -0.1636
  903MOL0     C24544   0.609  10.595   1.012  0.3533 -0.3304 -0.6085
  903MOL0     H24545   1.125  10.747   1.368  2.8727 -0.8524  1.2775
  903MOL0     H24546   1.356  10.810   1.320 -0.7508  0.5374 -1.1236
  903MOL0     H24547   1.545  10.893   1.226  1.6827  2.0555  0.0560
  903MOL0     H24548   1.455  10.912   1.075  1.4153  1.6015  0.6198
  903MOL0     H24549   1.663  10.826   0.949 -0.8605 -1.4890  0.6896
  903MOL0     H24550   1.678  10.978   1.015 -0.8915  0.1525  2.6969
  903MOL0     H24551   1.794  10.851   1.234  0.5140 -0.2574  0.8762
  903MOL0     H24552   1.781  10.712   1.126 -0.6763 -0.6308 -1.5963
  903MOL0     H24553   1.910  10.834   0.947 -0.5067 -1.1753  0.2536
  903MOL0     H24554   1.919  10.978   1.050 -0.4274 -0.1789 -0.7431
  903MOL0     H24555   2.038  10.697   1.121  5.0278 -0.5255  0.0454
  903MOL0     H24556   2.051  10.849   1.213  1.5278  0.9322 -0.6792
  903MOL0     H24557   2.177  10.801   0.949 -0.2416 -1.5766  0.8474
  903MOL0     H24558   2.173  10.957   1.033  1.8739  0.7304 -0.1456
  903MOL0     H24559   2.290  10.704   1.151  1.3215 -0.4504  2.2037
  903MOL0     H24560   2.278  10.855   1.240  1.0263 -3.1024  1.2670
  903MOL0     H24561   2.433  10.834   0.974 -3.8896 -0.7119 -0.4249
  903MOL0     H24562   2.460  10.956   1.092  1.4721 -0.9911  0.0018
  903MOL0     H24563   2.544  10.893   1.325  1.0394  0.0485 -0.9266
  903MOL0     H24564   2.745  10.587   1.443  0.8308  0.1426 -1.4832
  903MOL0     H24565   2.685  10.744   1.501  1.5929 -1.2276  2.7827
  903MOL0     H24566   2.877  10.870   1.406  2.6126  0.4887 -0.1993
  903MOL0     H24567   2.935  10.741   1.522  1.2021  0.4520 -0.0597
  903MOL0     H24568   2.991  10.616   1.316 -2.0509 -0.1399 -0.0970
  903MOL0     H24569   2.960  10.758   1.214  1.0371 -3.6211 -2.0009
  903MOL0     H24570   3.094  10.898   1.371 -0.6768 -0.7825 -0.9745
  903MOL0     H24571   3.167  10.739   1.430 -0.0295 -2.3968 -0.5588
  903MOL0     H24572   3.408  10.785   1.055 -0.3896 -1.0482  1.2459
  903MOL0     H24573   3.712  10.957   1.032  1.8756 -2.3952 -2.3290
  903MOL0     H24574   3.590  10.833   0.972 -2.4972 -0.9642  1.4682
  903MOL0     H24575   3.732  10.789   1.078 -1.6974 -1.2971  2.1529
  903MOL0     H24576   3.851  11.000   1.663  0.4627 -0.1267  0.4520
  903MOL0     H24577   4.081  11.045   1.756  1.9234 -0.3436 -0.3924
  903MOL0     H24578   4.198  11.348   1.741  0.5191  0.2784  0.7051
  903MOL0     H24579   4.203  11.203   1.834  1.1425 -2.7511 -1.2026
  903MOL0     H24580   4.458  11.310   1.726 -0.2917 -0.4046 -0.8034
  903MOL0     H24581   4.390  11.389   1.871  0.9150 -0.5204  0.6131
  903MOL0     H24582   4.422  11.089   1.880 -0.0076  0.1176 -0.6887
  903MOL0     H24583   4.399  11.205   2.003  1.5067 -0.7348  1.1959
  903MOL0     H24584   4.644  11.285   1.952 -1.5684  1.4135 -1.5084
  903MOL0     H24585   4.645  11.198   1.804  2.5352 -3.1584  0.8309
  903MOL0     H24586   4.625  11.088   2.082  1.8340  0.2509  1.5741
  903MOL0     H24587   4.621  10.990   1.924  2.7417  0.3729 -1.6069
  903MOL0     H24588   4.827  10.962   2.030  0.3004  0.1073  0.8025
  903MOL0     H24589   4.856  11.134   2.052  2.8237 -1.2555 -1.0004
  903MOL0     H24590   4.883  11.175   1.820 -2.0450 -0.1036  0.9218
  903MOL0     H24591   4.859  11.007   1.776  1.3101  0.1807 -1.2636
  903MOL0     H24592   5.053  10.964   1.961  0.5665 -0.8492 -1.0286
  903MOL0     H24593   5.087  11.139   1.945  3.6441 -1.1096 -1.2542
  903MOL0     H24594   4.160  11.258   1.391  0.0237 -0.7574 -1.2104
  903MOL0     H24595   3.931  11.208   1.305 -1.1200 -0.1138  0.8855
  903MOL0     H24596   3.543  10.969   1.489 -1.1232 -2.3752  0.7415
  903MOL0     H24597   3.317  10.906   1.465  2.8840  1.6967  3.0818
  903MOL0     H24598   1.359  10.556   0.989  2.1462  2.3795 -0.2797
  903MOL0     H24599   1.137  10.470   1.053  0.0794 -1.4005  1.3742
  903MOL0     H24600   0.811  10.589   1.443  0.4192  1.5723  0.2094
  903MOL0     H24601   0.596  10.494   1.538  1.3651 -2.1070 -0.0259
  903MOL0     H24602   0.393  10.501   1.616 -1.7577 -0.8893  1.6205
  903MOL0     H24603   0.250  10.421   1.580  0.8733  0.0769  0.5666
  903MOL0     H24604   0.423  10.285   1.661 -1.1765 -0.5228  0.1532
  903MOL0     H24605   0.511  10.285   1.507  0.3957  1.9261  1.2521
  903MOL0     H24606   0.231  10.187   1.545  0.1401  1.7054 -1.1643
  903MOL0     H24607   0.305  10.173   1.398 -0.0481 -1.6080  0.4802
  903MOL0     H24608   0.491  10.037   1.502  0.6658 -2.6129  0.2608
  903MOL0     H24609   0.330   9.955   1.490 -1.7707  2.0317 -1.0794
  903MOL0     H24610   0.312   9.969   1.894  1.4575  1.5107  0.7881
  903MOL0     H24611   0.396  10.570   1.172 -0.2632  1.8753  0.2863
  903MOL0     H24612   0.509  10.594   0.968 -0.4230 -0.1607  1.0686
  903MOL0     H24613   0.662  10.682   0.972  2.7246 -1.1478  0.5383
  903MOL0     H24614   0.670  10.517   0.965  0.1949 -1.0782  0.3865
  904MOL0     O24615   7.343   4.293   3.402 -0.7728 -0.0040 -0.2711
  904MOL0     C24616   7.353   4.388   3.484  1.4469 -0.1646  0.3527
  904MOL0     O24617   7.436   4.507   3.475  0.0641  0.9457 -0.1736
  904MOL0     C24618   7.513   4.528   3.361  0.1071  0.8552 -0.2382
  904MOL0     C24619   7.639   4.579   3.369 -0.1719 -0.0566  0.0143
  904MOL0     C24620   7.712   4.615   3.253 -0.1456 -0.9171 -0.0094
  904MOL0     C24621   7.658   4.588   3.124 -0.0995 -0.0757 -0.2526
  904MOL0     O24622   7.724   4.636   3.006 -0.0083 -0.0937 -0.3457
  904MOL0     C24623   7.865   4.680   3.015 -0.0827  0.3596  0.1047
  904MOL0     C24624   7.934   4.689   2.878 -0.4541 -0.4464  0.0379
  904MOL0     C24625   7.932   4.564   2.787 -0.0675  0.1925  0.0804
  904MOL0     C24626   7.995   4.593   2.648  0.0819 -0.4074 -0.0122
  904MOL0     C24627   8.127   4.521   2.621  0.7436 -0.9170 -0.3757
  904MOL0     C24628   8.245   4.551   2.710 -0.0820  0.5287 -0.3898
  904MOL0     C24629   8.307   4.689   2.677  0.3215 -0.1695 -0.5334
  904MOL0     C24630   8.394   4.741   2.794  0.1769  1.2939 -0.2245
  904MOL0     N24631   8.522   4.666   2.806 -0.3439  0.0420  0.6654
  904MOL0     C24632   8.615   4.644   2.705  0.4507 -0.4941  0.0621
  904MOL0     C24633   8.701   4.552   2.745  0.6940  0.4320 -0.6256
  904MOL0     C24634   8.818   4.513   2.670 -0.5443 -0.0377  0.0433
  904MOL0     C24635   8.798   4.380   2.596  1.3741  0.1399  0.3801
  904MOL0     C24636   8.937   4.339   2.540  0.4843 -0.2468 -0.3664
  904MOL0     C24637   9.028   4.277   2.640  0.0422  0.3477 -0.8148
  904MOL0     O24638   9.150   4.265   2.567  0.2824 -0.2908 -0.2347
  904MOL0     C24639   9.262   4.223   2.632 -0.7788  0.2371 -0.7042
  904MOL0     C24640   9.274   4.184   2.764 -0.9979 -0.1255 -0.0501
  904MOL0     C24641   9.398   4.162   2.825 -1.0425  1.2574 -0.7235
  904MOL0     C24642   9.399   4.131   2.970  0.1084  0.0299  0.0111
  904MOL0     C24643   9.517   4.166   2.738  0.8518 -0.2224 -0.7906
  904MOL0     C24644   9.660   4.146   2.787  0.2006 -0.4471 -0.2712
  904MOL0     O24645   9.755   4.207   2.724  0.3700 -0.8818 -0.5902
  904MOL0     C24646   9.886   4.187   2.769 -0.8874  0.1998 -0.6488
  904MOL0     C24647   9.945   4.063   2.762  0.8814  0.0597  0.0296
  904MOL0     C24648  10.072   4.037   2.795  0.4162  0.2624  0.0745
  904MOL0     C24649  10.141   4.144   2.860  0.3628  0.0708  0.1165
  904MOL0     O24650  10.275   4.123   2.892 -0.3513  0.0797 -0.5107
  904MOL0     C24651  10.362   4.227   2.850 -0.4047  0.0194  0.3978
  904MOL0     C24652  10.508   4.189   2.896  0.0921 -0.0916 -0.2153
  904MOL0     C24653  10.620   4.256   2.813  0.5123  0.1917 -0.2312
  904MOL0     C24654  10.754   4.190   2.839 -0.2571  0.4864  0.4446
  904MOL0     C24655  10.877   4.268   2.789  0.0700 -0.7155 -0.1732
  904MOL0     C24656  10.911   4.255   2.635  0.2315  0.1202  0.3904
  904MOL0     C24657  11.025   4.355   2.599  0.4488 -0.1200  0.3156
  904MOL0     C24658  11.080   4.302   2.474 -1.0012  0.2061 -0.4261
  904MOL0    Cl24659  10.956   4.282   2.343 -0.3088 -0.4755 -0.1504
  904MOL0     C24660  10.073   4.261   2.892 -0.2857  0.2667  1.0918
  904MOL0     C24661   9.948   4.287   2.842  0.1161  0.2366 -0.3078
  904MOL0     O24662   9.676   4.078   2.889  0.2406 -0.3864  0.1222
  904MOL0     C24663   9.499   4.198   2.598  0.8204 -0.5007 -0.5470
  904MOL0     C24664   9.375   4.244   2.552  0.2738  0.2077 -0.7135
  904MOL0     N24665   8.665   4.514   2.874  0.2538  0.3101  0.6713
  904MOL0     N24666   8.555   4.579   2.906  0.0365  0.1509 -0.1718
  904MOL0     C24667   7.528   4.525   3.110 -0.5319  0.0089  0.4044
  904MOL0     C24668   7.456   4.489   3.233  0.8116 -0.1148  0.2990
  904MOL0     C24669   7.254   4.372   3.595  0.2205 -0.2041  1.0825
  904MOL0     C24670   7.131   4.305   3.565  0.3001  0.4416 -0.3091
  904MOL0     C24671   7.026   4.307   3.654  0.5587  0.3986  0.8009
  904MOL0     C24672   7.041   4.368   3.776  0.5968 -0.2015  0.4887
  904MOL0     O24673   6.928   4.358   3.852 -0.4829  0.1706 -0.4558
  904MOL0     C24674   6.930   4.422   3.981 -0.4563 -0.5939 -0.3581
  904MOL0     C24675   6.788   4.456   4.020 -0.3909 -0.5517  0.3749
  904MOL0     C24676   6.714   4.324   4.060 -0.3950  0.9028 -0.4538
  904MOL0     C24677   6.587   4.367   4.138  0.3548  0.3934  0.2980
  904MOL0     C24678   6.488   4.438   4.049 -0.1023  0.9633 -1.4016
  904MOL0     C24679   6.406   4.511   3.992 -0.9991  0.5459  1.1651
  904MOL0     C24680   7.164   4.434   3.809 -1.0501  0.7585 -0.1909
  904MOL0     C24681   7.271   4.431   3.721  0.3097  0.5391  0.3765
  904MOL0     C24682   7.394   4.513   3.764 -0.2783  0.1514 -0.5169
  904MOL0     H24683   7.672   4.605   3.469 -1.7506  3.9035 -0.2947
  904MOL0     H24684   7.810   4.658   3.266 -0.2324 -1.1488  1.6664
  904MOL0     H24685   7.911   4.599   3.071 -1.8036 -0.6335  0.1674
  904MOL0     H24686   7.867   4.780   3.060  0.3211  0.8772 -1.0209
  904MOL0     H24687   7.889   4.776   2.829  0.6924  2.7741  4.1196
  904MOL0     H24688   8.042   4.703   2.891 -0.6297 -0.8064  2.1568
  904MOL0     H24689   7.980   4.478   2.834  0.9473 -0.1426 -1.4585
  904MOL0     H24690   7.829   4.537   2.763  0.3957 -2.1580  0.5345
  904MOL0     H24691   7.931   4.546   2.574  1.3628 -0.2736 -1.2556
  904MOL0     H24692   8.004   4.701   2.632  1.0843 -0.3536  0.7980
  904MOL0     H24693   8.153   4.545   2.518 -1.5583  0.3584 -0.7407
  904MOL0     H24694   8.098   4.415   2.628 -1.1436 -0.5385 -1.5812
  904MOL0     H24695   8.218   4.543   2.815  3.1267 -2.6681  0.3675
  904MOL0     H24696   8.320   4.476   2.684  1.8470  1.8783  1.0237
  904MOL0     H24697   8.221   4.755   2.661 -1.0803 -1.7295  0.2000
  904MOL0     H24698   8.364   4.690   2.584 -0.3018  3.2328 -1.0059
  904MOL0     H24699   8.405   4.849   2.782  1.0683  1.3488  0.8909
  904MOL0     H24700   8.336   4.727   2.885  0.7257 -0.4649 -0.1052
  904MOL0     H24701   8.630   4.695   2.610  0.6252 -0.2674  0.2113
  904MOL0     H24702   8.894   4.490   2.746 -1.1254 -1.0875  0.3401
  904MOL0     H24703   8.863   4.590   2.608  0.0556 -0.6821 -0.3336
  904MOL0     H24704   8.749   4.304   2.656 -0.9508  1.6470  0.5008
  904MOL0     H24705   8.729   4.411   2.517  2.3431  2.5029  0.3803
  904MOL0     H24706   8.914   4.267   2.462 -0.5638 -0.2136 -0.1093
  904MOL0     H24707   8.990   4.424   2.497  1.5472 -0.1863  0.9782
  904MOL0     H24708   9.050   4.336   2.730  2.6341 -1.7714  0.0550
  904MOL0     H24709   8.986   4.182   2.673 -0.1891 -0.1734 -2.5119
  904MOL0     H24710   9.187   4.182   2.829 -1.0069 -2.9069 -0.0199
  904MOL0     H24711   9.439   4.214   3.029  1.1869 -0.3259 -0.1827
  904MOL0     H24712   9.443   4.037   3.006 -1.5370 -0.7025  0.1748
  904MOL0     H24713   9.298   4.118   3.009 -0.1340  1.0216 -0.2691
  904MOL0     H24714   9.887   3.985   2.714 -1.3532  2.2221 -0.9879
  904MOL0     H24715  10.122   3.942   2.781  0.9606 -0.0697  3.4204
  904MOL0     H24716  10.368   4.233   2.741 -0.8087  0.7946  0.4093
  904MOL0     H24717  10.330   4.323   2.890  2.5799  0.6479  1.5267
  904MOL0     H24718  10.516   4.224   2.999  1.0631 -3.6882  1.0987
  904MOL0     H24719  10.524   4.080   2.892  1.3010  0.0826 -0.6302
  904MOL0     H24720  10.622   4.361   2.841 -2.9752  0.1719  0.5135
  904MOL0     H24721  10.607   4.255   2.704 -0.7861 -1.7285 -0.1140
  904MOL0     H24722  10.746   4.099   2.780  0.8600  1.4522 -1.2655
  904MOL0     H24723  10.766   4.177   2.947 -2.6040  0.6485  0.7842
  904MOL0     H24724  10.859   4.372   2.815 -3.0404 -1.2963  0.4654
  904MOL0     H24725  10.967   4.236   2.841  2.3666  1.6679 -2.3971
  904MOL0     H24726  10.822   4.265   2.571  1.1787  0.2402 -0.9335
  904MOL0     H24727  10.942   4.154   2.610 -2.9969 -0.3072 -2.7821
  904MOL0     H24728  11.099   4.363   2.679 -0.0747 -0.2892  0.8232
  904MOL0     H24729  10.990   4.457   2.584  1.4577  0.2501  0.3912
  904MOL0     H24730  11.123   4.206   2.503  1.7755  1.2497 -0.8018
  904MOL0     H24731  11.169   4.356   2.439 -0.5168  1.6158  2.6943
  904MOL0     H24732  10.116   4.338   2.955  3.5124 -0.4552 -0.3509
  904MOL0     H24733   9.904   4.380   2.875  0.3701  0.1396  0.3145
  904MOL0     H24734   9.579   4.208   2.526  0.3797  3.5671 -0.6808
  904MOL0     H24735   9.366   4.271   2.447  1.4846 -1.6422 -1.3516
  904MOL0     H24736   7.471   4.520   3.018 -2.1836  1.2910  1.2938
  904MOL0     H24737   7.361   4.438   3.227  1.0758 -0.8905  2.1434
  904MOL0     H24738   7.113   4.263   3.466 -1.5054 -3.7633  1.5591
  904MOL0     H24739   6.929   4.269   3.624  1.7805 -0.8836 -1.9153
  904MOL0     H24740   6.978   4.355   4.053  1.3205  0.0310 -0.9250
  904MOL0     H24741   6.979   4.520   3.980 -0.3897 -0.6291 -1.5308
  904MOL0     H24742   6.740   4.504   3.934  3.0090 -1.2336 -2.1062
  904MOL0     H24743   6.797   4.527   4.102  0.2044  2.0083 -1.7918
  904MOL0     H24744   6.696   4.269   3.968  1.6305  1.2408 -1.0836
  904MOL0     H24745   6.783   4.275   4.129  0.2779  0.3127 -1.5249
  904MOL0     H24746   6.616   4.433   4.220  2.5559 -0.3777  0.2213
  904MOL0     H24747   6.530   4.285   4.182 -0.1254 -0.6931 -2.1250
  904MOL0     H24748   6.342   4.558   3.921  1.2377 -1.8907 -2.8230
  904MOL0     H24749   7.169   4.487   3.904 -0.0822  0.4550 -0.0619
  904MOL0     H24750   7.375   4.619   3.744  1.6931  0.9621  1.4856
  904MOL0     H24751   7.408   4.505   3.872 -0.6309 -0.3877 -0.5037
  904MOL0     H24752   7.490   4.477   3.726 -1.4373 -1.2666 -2.2797
  905MOL0     O24753   9.739   5.954   4.266  0.0796  0.0778  0.0553
  905MOL0     C24754   9.645   5.950   4.348 -0.1951 -0.0783  0.1076
  905MOL0     O24755   9.658   5.971   4.482  0.0980 -0.2847  0.0263
  905MOL0     C24756   9.786   5.969   4.545  0.8594 -0.5710  0.1416
  905MOL0     C24757   9.880   6.069   4.522  0.2547  0.8184  0.1412
  905MOL0     C24758  10.008   6.069   4.586  0.7960 -0.7073  0.8311
  905MOL0     C24759  10.038   5.959   4.668  0.6790  0.4489  0.3311
  905MOL0     O24760  10.161   5.935   4.726  0.1524 -0.3626 -0.5319
  905MOL0     C24761  10.256   5.929   4.626 -0.3389  0.2457  0.2068
  905MOL0     C24762  10.391   5.906   4.688 -0.8114  0.2291 -0.6597
  905MOL0     C24763  10.439   6.011   4.791 -0.1025 -0.3861 -0.3046
  905MOL0     C24764  10.586   6.021   4.781  0.0737 -0.2576  0.1617
  905MOL0     C24765  10.641   6.098   4.899 -0.8374  0.7053 -1.2562
  905MOL0     C24766  10.796   6.125   4.892  0.9630 -0.6463  0.0222
  905MOL0     C24767  10.822   6.219   4.773 -0.9337  0.5736  0.1852
  905MOL0     C24768  10.967   6.259   4.775 -0.3140 -0.0694 -0.3077
  905MOL0     N24769  11.052   6.152   4.716  0.0098  0.2027 -0.8833
  905MOL0     C24770  11.075   6.154   4.577 -0.3011 -1.4370 -0.4439
  905MOL0     C24771  11.135   6.036   4.549 -0.4202  1.5171 -0.2541
  905MOL0     C24772  11.174   5.978   4.417  0.2483 -0.5746 -0.3321
  905MOL0     C24773  11.328   6.004   4.412  1.0038 -0.6475  0.5265
  905MOL0     C24774  11.403   5.898   4.499  0.6311  0.4541 -0.7078
  905MOL0     C24775  11.552   5.879   4.460 -0.3660 -0.1464 -0.4604
  905MOL0     O24776  11.554   5.800   4.344 -0.0438 -0.0864  0.0713
  905MOL0     C24777  11.677   5.773   4.289  0.1004  0.8008  0.1930
  905MOL0     C24778  11.673   5.692   4.170 -0.3603 -0.9448 -0.4080
  905MOL0     C24779  11.787   5.653   4.096  0.6205  0.3392  0.3404
  905MOL0     C24780  11.762   5.579   3.969  0.0179 -0.1510 -0.2828
  905MOL0     C24781  11.915   5.702   4.142 -0.6431  0.4704 -0.5377
  905MOL0     C24782  12.049   5.689   4.070  0.0984  0.0845 -0.1448
  905MOL0     O24783  12.056   5.599   3.972 -0.2790 -0.0438 -0.3666
  905MOL0     C24784  12.172   5.579   3.907 -0.3441 -0.7778  0.1958
  905MOL0     C24785  12.293   5.541   3.955  0.4331 -0.1951 -0.3902
  905MOL0     C24786  12.396   5.506   3.863 -1.0035  0.1459 -0.0788
  905MOL0     C24787  12.385   5.506   3.727  0.0044  0.5196 -0.5852
  905MOL0     O24788  12.488   5.468   3.642 -0.2463 -0.4628 -0.0038
  905MOL0     C24789  12.554   5.343   3.663  0.1418  0.4858 -0.1834
  905MOL0     C24790  12.659   5.311   3.554  0.6055 -0.4634  0.0390
  905MOL0     C24791  12.717   5.170   3.569  0.1682 -0.4428  0.4239
  905MOL0     C24792  12.872   5.175   3.578  0.4303  0.1350  0.5391
  905MOL0     C24793  12.931   5.223   3.710  0.0693 -0.4901 -0.1664
  905MOL0     C24794  13.076   5.230   3.713  0.0866 -0.0391  0.4412
  905MOL0     C24795  13.141   5.242   3.853  0.1952  0.1399  0.5468
  905MOL0     C24796  13.285   5.284   3.819 -0.3631  0.0820  0.1745
  905MOL0    Cl24797  13.377   5.332   3.967  0.1483  0.0127  0.5425
  905MOL0     C24798  12.269   5.562   3.678 -0.2696  0.4189  0.1208
  905MOL0     C24799  12.168   5.603   3.764  0.0657  1.2035 -0.5333
  905MOL0     O24800  12.147   5.759   4.106 -0.1526 -0.0803  0.1073
  905MOL0     C24801  11.917   5.766   4.270 -0.2972  0.2718  0.9372
  905MOL0     C24802  11.800   5.805   4.340 -0.1540  0.2925  0.6918
  905MOL0     N24803  11.155   5.973   4.676 -0.1538 -0.7700 -0.2424
  905MOL0     N24804  11.108   6.041   4.777 -0.2794 -0.2456  0.4869
  905MOL0     C24805   9.940   5.865   4.696 -0.0965  0.3383  0.3065
  905MOL0     C24806   9.817   5.865   4.633  0.1925  0.4846 -0.3117
  905MOL0     C24807   9.516   5.924   4.285 -0.0908 -0.2035  0.3625
  905MOL0     C24808   9.497   5.961   4.148 -0.5408  0.8000 -0.2630
  905MOL0     C24809   9.371   5.948   4.087 -0.8576  0.2176  1.1012
  905MOL0     C24810   9.265   5.903   4.156  0.5452  0.3043  0.1713
  905MOL0     O24811   9.148   5.910   4.081  0.3111  0.4983 -0.8122
  905MOL0     C24812   9.029   5.865   4.143  0.6305  0.3612 -0.4407
  905MOL0     C24813   8.902   5.894   4.058 -0.4597 -0.5441 -0.0809
  905MOL0     C24814   8.917   6.043   4.012  0.4414 -0.1759 -0.0174
  905MOL0     C24815   8.792   6.091   3.933  0.4955  0.3542  0.5251
  905MOL0     C24816   8.818   6.223   3.885  0.2821 -0.9290 -0.2956
  905MOL0     C24817   8.842   6.334   3.848  0.2447  0.0988 -0.6446
  905MOL0     C24818   9.282   5.849   4.285  0.3419  0.1094  0.3407
  905MOL0     C24819   9.407   5.860   4.350 -0.1200 -0.6767 -0.0924
  905MOL0     C24820   9.403   5.806   4.487 -0.2963 -0.2367 -0.1546
  905MOL0     H24821   9.840   6.153   4.466 -1.9330 -1.5467 -2.0725
  905MOL0     H24822  10.077   6.150   4.565 -1.5069  0.9526 -0.8753
  905MOL0     H24823  10.264   6.019   4.565  1.9086  0.6209  0.9644
  905MOL0     H24824  10.236   5.850   4.554 -2.0501 -0.8885  1.8265
  905MOL0     H24825  10.393   5.802   4.720 -0.4216 -0.2130 -2.0486
  905MOL0     H24826  10.463   5.909   4.605  0.6245  0.1702  0.5407
  905MOL0     H24827  10.395   6.110   4.776 -1.2813 -0.4421  2.3729
  905MOL0     H24828  10.405   5.985   4.891 -0.0283  1.2634  0.1844
  905MOL0     H24829  10.632   5.923   4.769  0.1096  0.0321 -2.5057
  905MOL0     H24830  10.617   6.061   4.684  0.4733  0.7240  0.6817
  905MOL0     H24831  10.623   6.038   4.989  1.1036  1.6530 -0.1833
  905MOL0     H24832  10.581   6.188   4.912 -1.5440  0.1232 -0.3199
  905MOL0     H24833  10.816   6.179   4.985  0.8587 -0.2994 -0.1548
  905MOL0     H24834  10.849   6.030   4.885  3.8823  0.9113 -0.6792
  905MOL0     H24835  10.772   6.316   4.786 -0.0574  0.8713  1.5064
  905MOL0     H24836  10.800   6.175   4.676  1.1996 -0.9296  0.3326
  905MOL0     H24837  10.970   6.350   4.714  1.3969  0.3547  0.3433
  905MOL0     H24838  11.009   6.282   4.873 -0.2034 -0.7308 -0.1991
  905MOL0     H24839  11.043   6.228   4.505  1.2948 -0.6418 -0.3774
  905MOL0     H24840  11.125   6.038   4.340 -0.6486 -0.6939  0.1317
  905MOL0     H24841  11.130   5.879   4.406 -3.8726  1.2557 -2.6846
  905MOL0     H24842  11.344   6.000   4.304 -3.4237  0.7980 -0.3870
  905MOL0     H24843  11.367   6.103   4.439  0.0651  0.0779 -0.6886
  905MOL0     H24844  11.401   5.923   4.606  0.6099 -0.4385 -0.4911
  905MOL0     H24845  11.359   5.799   4.490  1.5192 -0.0741  0.4145
  905MOL0     H24846  11.590   5.981   4.447 -1.0538 -0.0145 -1.5624
  905MOL0     H24847  11.615   5.837   4.539  1.9506  2.1327 -0.9226
  905MOL0     H24848  11.571   5.668   4.142 -0.8844 -1.9972  2.1601
  905MOL0     H24849  11.668   5.609   3.919 -0.5519 -0.1277  0.7772
  905MOL0     H24850  11.762   5.472   3.991  0.9789 -0.1670 -0.3493
  905MOL0     H24851  11.838   5.594   3.892  0.2267 -1.2886 -0.3149
  905MOL0     H24852  12.302   5.526   4.062 -2.1258 -4.0146 -0.4849
  905MOL0     H24853  12.495   5.482   3.900 -1.7930  1.0010  2.8762
  905MOL0     H24854  12.599   5.339   3.762  1.5996  0.0228 -0.8289
  905MOL0     H24855  12.473   5.269   3.663  0.1041  0.4800 -1.8140
  905MOL0     H24856  12.605   5.318   3.459 -0.2378  2.6555  0.6275
  905MOL0     H24857  12.737   5.388   3.548  0.2572 -0.0044  1.1978
  905MOL0     H24858  12.692   5.112   3.480 -1.0713  1.6026 -0.6446
  905MOL0     H24859  12.678   5.112   3.653 -0.5184  1.8023  1.7551
  905MOL0     H24860  12.910   5.241   3.500  1.0366 -0.9216 -0.0862
  905MOL0     H24861  12.913   5.074   3.564 -1.4823 -0.3348 -2.5575
  905MOL0     H24862  12.886   5.317   3.743 -0.2876 -0.6427 -0.2210
  905MOL0     H24863  12.891   5.155   3.785  0.9926  0.2080  1.0067
  905MOL0     H24864  13.107   5.322   3.663  1.0783 -1.7490 -2.3093
  905MOL0     H24865  13.116   5.142   3.661  0.6035  0.3270  0.2156
  905MOL0     H24866  13.141   5.145   3.905 -0.5809  1.0809  2.3645
  905MOL0     H24867  13.094   5.314   3.920  1.8139  0.1047  1.7846
  905MOL0     H24868  13.289   5.365   3.746 -2.0849 -0.4098 -0.5329
  905MOL0     H24869  13.336   5.196   3.779  0.6896  0.2892  1.0024
  905MOL0     H24870  12.264   5.555   3.569  1.5200 -1.0572  0.0894
  905MOL0     H24871  12.072   5.638   3.727 -0.9337  0.3251  1.1155
  905MOL0     H24872  12.013   5.787   4.315  0.3823 -0.4344 -0.1355
  905MOL0     H24873  11.800   5.856   4.436 -1.7766  0.3500  0.6810
  905MOL0     H24874   9.965   5.790   4.771  0.1382  0.6556  0.5496
  905MOL0     H24875   9.744   5.785   4.625  1.9958 -1.1602 -1.1218
  905MOL0     H24876   9.568   6.020   4.093  2.4101 -1.4643  0.8424
  905MOL0     H24877   9.361   5.993   3.989  1.5184  2.0582  1.6082
  905MOL0     H24878   9.040   5.757   4.161  0.1371  0.3686 -0.0995
  905MOL0     H24879   9.014   5.928   4.231 -6.2374 -1.1626  0.0295
  905MOL0     H24880   8.820   5.886   4.130 -0.5684  1.5820  0.0794
  905MOL0     H24881   8.892   5.824   3.974  1.4335  1.0943 -1.7658
  905MOL0     H24882   8.918   6.112   4.097 -3.3371 -2.3260  2.0080
  905MOL0     H24883   9.005   6.053   3.947  0.2950  2.4768  0.1023
  905MOL0     H24884   8.698   6.086   3.988 -0.9399 -1.5676 -1.8641
  905MOL0     H24885   8.778   6.024   3.847  0.7759  0.0392  0.7239
  905MOL0     H24886   8.841   6.432   3.805  1.1563 -0.0827 -1.0933
  905MOL0     H24887   9.201   5.794   4.332  1.5101 -1.8704  0.1422
  905MOL0     H24888   9.377   5.874   4.570 -0.1444 -0.6757  0.2591
  905MOL0     H24889   9.328   5.727   4.496  0.2139 -0.6454  0.6914
  905MOL0     H24890   9.498   5.762   4.519 -1.3507 -3.2066 -0.7956
  906MOL0     O24891   8.204   8.340   7.013 -0.1319 -0.3874  0.6051
  906MOL0     C24892   8.174   8.242   7.077 -0.4105  0.1112 -1.0052
  906MOL0     O24893   8.235   8.200   7.198 -0.1610  0.7605  0.3974
  906MOL0     C24894   8.350   8.260   7.249  0.3167 -0.1953 -0.4496
  906MOL0     C24895   8.448   8.317   7.177 -0.3110  0.9237  0.4066
  906MOL0     C24896   8.557   8.378   7.235 -0.1116 -1.5663  0.2445
  906MOL0     C24897   8.580   8.377   7.375 -0.8719 -0.0344  0.0835
  906MOL0     O24898   8.707   8.409   7.425  0.6347 -0.3775 -0.3316
  906MOL0     C24899   8.713   8.492   7.539  0.0207 -0.3809  0.0377
  906MOL0     C24900   8.853   8.481   7.603  0.0523 -0.7573 -1.2726
  906MOL0     C24901   8.967   8.503   7.498  0.0383  0.4890  0.0770
  906MOL0     C24902   9.102   8.503   7.568 -0.3125  0.0232 -0.2497
  906MOL0     C24903   9.204   8.537   7.456  0.4990  0.0081 -0.3135
  906MOL0     C24904   9.328   8.598   7.517  0.4210 -0.3510  0.3498
  906MOL0     C24905   9.444   8.591   7.416 -0.4005 -0.6545  0.1066
  906MOL0     C24906   9.510   8.455   7.406  0.5208 -0.6396 -0.2421
  906MOL0     N24907   9.605   8.447   7.305 -0.0688 -0.3005  0.9256
  906MOL0     C24908   9.727   8.505   7.285 -0.6065 -0.2991  0.6995
  906MOL0     C24909   9.770   8.444   7.172  0.3096 -0.5867  0.3359
  906MOL0     C24910   9.896   8.476   7.101  0.6902 -0.5921  0.1675
  906MOL0     C24911  10.016   8.457   7.197 -0.7424  0.0231 -0.2174
  906MOL0     C24912  10.140   8.525   7.138  0.1987 -0.0585  0.3218
  906MOL0     C24913  10.269   8.522   7.226 -0.0022 -0.1473 -0.4119
  906MOL0     O24914  10.295   8.388   7.272  0.0125 -0.5153 -0.1574
  906MOL0     C24915  10.409   8.360   7.335 -0.1656  0.0558  0.3014
  906MOL0     C24916  10.408   8.252   7.423 -0.3546  0.2568 -0.1920
  906MOL0     C24917  10.525   8.203   7.473  0.1279  0.0407 -0.2918
  906MOL0     C24918  10.506   8.078   7.554  0.1523 -0.5888 -0.2114
  906MOL0     C24919  10.651   8.256   7.437  0.6447 -0.9034 -1.0427
  906MOL0     C24920  10.780   8.217   7.493 -0.1710  0.5375 -0.5423
  906MOL0     O24921  10.893   8.265   7.423  0.0873  0.5675  0.3482
  906MOL0     C24922  11.017   8.261   7.476  0.1322  0.4108 -0.6161
  906MOL0     C24923  11.122   8.167   7.438  0.0407  0.3447 -0.3836
  906MOL0     C24924  11.243   8.181   7.497  0.5088 -0.0927 -0.7665
  906MOL0     C24925  11.279   8.289   7.586 -0.3893 -0.2601  0.4360
  906MOL0     O24926  11.397   8.289   7.652  0.4456 -0.3500 -0.1709
  906MOL0     C24927  11.508   8.270   7.564  0.2452  0.4913  0.4707
  906MOL0     C24928  11.628   8.345   7.622  0.4928 -0.9916  0.3533
  906MOL0     C24929  11.605   8.504   7.612  0.2289  0.5189  0.3796
  906MOL0     C24930  11.712   8.587   7.679  0.3382  0.4880  0.3276
  906MOL0     C24931  11.686   8.734   7.644 -0.0701 -0.5013  0.5081
  906MOL0     C24932  11.807   8.834   7.685 -0.1748  0.2859 -0.2249
  906MOL0     C24933  11.843   8.828   7.832 -0.4828 -0.4494 -0.2754
  906MOL0     C24934  11.970   8.912   7.850  0.1976  0.7534  0.1470
  906MOL0    Cl24935  12.110   8.827   7.754 -0.0747 -0.2942  0.6202
  906MOL0     C24936  11.177   8.384   7.608 -0.4804  0.6672 -0.7180
  906MOL0     C24937  11.051   8.367   7.560  0.5604 -0.9120  0.9381
  906MOL0     O24938  10.790   8.150   7.600  0.0937 -0.4841  0.6238
  906MOL0     C24939  10.651   8.368   7.352 -0.3948  0.6916  0.1194
  906MOL0     C24940  10.538   8.423   7.308 -0.0495 -0.3140  0.1061
  906MOL0     N24941   9.677   8.353   7.130 -0.2407  1.5016 -0.0898
  906MOL0     N24942   9.577   8.354   7.207 -0.1514 -0.4654 -0.0400
  906MOL0     C24943   8.483   8.310   7.449  0.2582  0.2746  0.1790
  906MOL0     C24944   8.366   8.254   7.390  0.2057 -0.3631  0.2442
  906MOL0     C24945   8.064   8.160   7.023 -0.3230 -0.8866  0.6531
  906MOL0     C24946   7.951   8.220   6.962  0.0793 -0.3988  0.0052
  906MOL0     C24947   7.847   8.157   6.906  0.2156  0.0897 -1.3838
  906MOL0     C24948   7.842   8.014   6.913 -0.1725 -0.0551  0.2346
  906MOL0     O24949   7.720   7.959   6.859 -0.8071 -0.0055  0.8589
  906MOL0     C24950   7.699   7.819   6.872  0.0236  0.6783  0.6434
  906MOL0     C24951   7.656   7.791   7.012 -0.1074 -0.1160  0.8108
  906MOL0     C24952   7.582   7.657   7.014  0.2187  0.0019 -0.1490
  906MOL0     C24953   7.544   7.620   7.166 -0.4496  0.3372 -0.8937
  906MOL0     C24954   7.469   7.502   7.176 -0.3915  0.0144 -0.2442
  906MOL0     C24955   7.409   7.401   7.180  1.2916 -0.0684 -0.7746
  906MOL0     C24956   7.946   7.947   6.978 -0.3122  0.0891 -0.0908
  906MOL0     C24957   8.065   8.023   7.027  0.0391  0.0610  0.2901
  906MOL0     C24958   8.184   7.944   7.080  0.6803 -0.6182 -0.1038
  906MOL0     H24959   8.434   8.303   7.070 -1.5892 -2.3699  0.8808
  906MOL0     H24960   8.638   8.416   7.173 -1.9064  0.6117 -0.9267
  906MOL0     H24961   8.638   8.446   7.604  1.7221 -4.1571 -0.4201
  906MOL0     H24962   8.704   8.601   7.526  3.1279 -0.0802 -0.1631
  906MOL0     H24963   8.870   8.559   7.678  1.6355 -1.1923 -1.1416
  906MOL0     H24964   8.861   8.383   7.651  0.5053 -0.7628 -1.3540
  906MOL0     H24965   8.959   8.422   7.425  0.4781 -0.4547  1.0301
  906MOL0     H24966   8.941   8.598   7.452 -2.2184  0.9732  2.0958
  906MOL0     H24967   9.093   8.583   7.642  2.1158 -1.1764  1.4740
  906MOL0     H24968   9.128   8.405   7.609 -1.2910  0.0669  0.5195
  906MOL0     H24969   9.154   8.601   7.383 -0.1840 -1.7737 -1.4770
  906MOL0     H24970   9.224   8.440   7.410 -2.5044 -3.1844  4.1845
  906MOL0     H24971   9.304   8.702   7.539 -0.5813  0.0111 -2.0983
  906MOL0     H24972   9.362   8.555   7.611  2.6092  0.3112 -0.0729
  906MOL0     H24973   9.514   8.667   7.452 -0.4555 -0.2284 -0.6632
  906MOL0     H24974   9.405   8.621   7.318  0.2711  0.7746  0.2541
  906MOL0     H24975   9.561   8.427   7.499  0.7270  1.1351  0.2109
  906MOL0     H24976   9.434   8.379   7.385  2.1759 -2.5670  0.3450
  906MOL0     H24977   9.779   8.582   7.340 -0.6031 -0.8088  1.4322
  906MOL0     H24978   9.897   8.584   7.087  3.9809 -0.2047  2.4676
  906MOL0     H24979   9.895   8.426   7.003  0.3242 -0.5719  0.1574
  906MOL0     H24980  10.004   8.495   7.299 -0.3976  0.4573 -0.3334
  906MOL0     H24981  10.030   8.349   7.207  0.6322  0.1532 -0.5382
  906MOL0     H24982  10.166   8.489   7.037 -0.6831  1.2689 -0.4049
  906MOL0     H24983  10.116   8.631   7.130  0.0154  0.2977  3.9237
  906MOL0     H24984  10.355   8.559   7.170  0.8730 -1.7109 -0.1568
  906MOL0     H24985  10.252   8.591   7.309  0.2343  0.5959 -0.9622
  906MOL0     H24986  10.310   8.209   7.444 -0.8160  1.4663  0.2433
  906MOL0     H24987  10.533   8.098   7.658 -2.2905 -0.7156  0.5090
  906MOL0     H24988  10.559   7.994   7.508 -1.3214 -0.6932 -1.8444
  906MOL0     H24989  10.400   8.050   7.555 -0.0985  0.0377 -2.6103
  906MOL0     H24990  11.096   8.073   7.391 -0.8579  0.0477  0.6626
  906MOL0     H24991  11.322   8.106   7.492  1.0983  0.2899  1.6999
  906MOL0     H24992  11.546   8.167   7.565  1.8231  0.9728  3.5741
  906MOL0     H24993  11.485   8.308   7.465  2.2580 -1.6590 -0.9227
  906MOL0     H24994  11.644   8.306   7.723 -1.8286  0.1579  1.2289
  906MOL0     H24995  11.719   8.317   7.568  1.0868 -1.1275  1.3996
  906MOL0     H24996  11.512   8.533   7.661 -0.6684  1.4733 -1.7690
  906MOL0     H24997  11.601   8.538   7.508  2.8367  0.7915  0.3026
  906MOL0     H24998  11.817   8.564   7.660  0.2274  0.4279 -0.2307
  906MOL0     H24999  11.680   8.581   7.784 -2.9256 -0.3451 -0.5917
  906MOL0     H25000  11.666   8.739   7.536 -1.2976 -2.6020  0.5933
  906MOL0     H25001  11.596   8.764   7.697  2.4254  3.1863  3.1625
  906MOL0     H25002  11.773   8.935   7.665 -1.7561  0.4437  2.7783
  906MOL0     H25003  11.891   8.808   7.618 -0.0543  1.4883 -0.5621
  906MOL0     H25004  11.863   8.727   7.868  1.2708  0.6516  2.0817
  906MOL0     H25005  11.767   8.870   7.899 -0.8069  1.2604 -1.6330
  906MOL0     H25006  11.974   8.909   7.959 -3.3012 -0.7078  0.3895
  906MOL0     H25007  11.962   9.014   7.812  0.4517  0.9431  0.6062
  906MOL0     H25008  11.201   8.466   7.675 -1.9099  0.1880  0.4377
  906MOL0     H25009  10.977   8.441   7.587  1.5866  1.0998 -1.4702
  906MOL0     H25010  10.737   8.414   7.306  0.9026  0.5226  2.2293
  906MOL0     H25011  10.537   8.506   7.238 -4.0331  1.0824  1.5122
  906MOL0     H25012   8.488   8.296   7.556 -0.0932  0.9270  0.2806
  906MOL0     H25013   8.292   8.206   7.454 -0.2147  0.4130  0.3608
  906MOL0     H25014   7.953   8.328   6.963 -0.0447 -0.3864 -0.7478
  906MOL0     H25015   7.765   8.210   6.858 -1.8073 -1.1248  0.5503
  906MOL0     H25016   7.621   7.791   6.801  0.4613  0.7347  0.1373
  906MOL0     H25017   7.788   7.760   6.847 -0.0728 -1.3706  4.2768
  906MOL0     H25018   7.589   7.869   7.050  0.5146 -0.1876  2.1506
  906MOL0     H25019   7.747   7.779   7.072  0.5086 -0.5815 -0.1987
  906MOL0     H25020   7.483   7.676   6.970  0.6722  2.4918 -0.2864
  906MOL0     H25021   7.643   7.578   6.969  1.5017  0.3449  0.9288
  906MOL0     H25022   7.487   7.701   7.214 -2.3357 -0.7626 -1.1639
  906MOL0     H25023   7.628   7.606   7.234 -1.0433  2.4825  0.3737
  906MOL0     H25024   7.352   7.311   7.190  2.9890 -0.9945  1.3833
  906MOL0     H25025   7.944   7.839   6.991  0.4250  0.3026  2.1915
  906MOL0     H25026   8.185   7.842   7.041 -0.4067  0.1900 -2.4158
  906MOL0     H25027   8.280   7.991   7.053  0.6064 -0.8907 -0.8501
  906MOL0     H25028   8.176   7.935   7.189  3.4751 -0.8627  0.1582
  907MOL0     O25029   2.355   7.093   2.958 -0.2320 -0.8733 -0.3299
  907MOL0     C25030   2.279   7.103   2.866  0.6414 -0.4114  0.0236
  907MOL0     O25031   2.307   7.079   2.738  0.2922 -0.5674  0.2647
  907MOL0     C25032   2.434   7.081   2.693 -0.1291 -0.3755  0.0510
  907MOL0     C25033   2.472   7.195   2.627  0.4188  0.1848 -0.2011
  907MOL0     C25034   2.595   7.209   2.559  0.1401  0.1294  0.0115
  907MOL0     C25035   2.688   7.114   2.599 -0.4811  0.3194  0.1826
  907MOL0     O25036   2.816   7.138   2.559  0.2320 -0.1607  0.0335
  907MOL0     C25037   2.917   7.135   2.664  0.8101  0.1851 -0.2966
  907MOL0     C25038   3.033   7.055   2.615  0.4201 -0.7715 -0.5164
  907MOL0     C25039   3.145   7.071   2.716  0.1634  1.0056  0.8460
  907MOL0     C25040   3.281   7.040   2.644  0.6534  0.5225  0.5232
  907MOL0     C25041   3.391   7.066   2.753  0.1203  0.6063  0.4764
  907MOL0     C25042   3.535   7.070   2.691 -0.7628  0.0324 -0.4077
  907MOL0     C25043   3.638   7.084   2.805 -0.1460  0.4937 -0.1343
  907MOL0     C25044   3.772   7.020   2.774  0.4303  0.1019  0.2661
  907MOL0     N25045   3.880   7.035   2.875 -0.2516  0.2141  0.3226
  907MOL0     C25046   3.952   7.146   2.922  1.1046  0.1674 -0.0141
  907MOL0     C25047   4.028   7.101   3.021  0.1902 -0.2728 -0.8626
  907MOL0     C25048   4.128   7.173   3.114  0.1692  0.0211  0.8372
  907MOL0     C25049   4.210   7.278   3.038  0.6227  0.3736 -0.5647
  907MOL0     C25050   4.300   7.210   2.936 -0.9491 -0.2679  0.4371
  907MOL0     C25051   4.408   7.302   2.874 -0.2003 -0.4220 -0.6993
  907MOL0     O25052   4.511   7.334   2.975 -0.2514 -0.3447  0.3174
  907MOL0     C25053   4.627   7.383   2.929 -0.5851  0.2561 -0.7961
  907MOL0     C25054   4.732   7.377   3.021 -0.2673 -0.2513 -0.1746
  907MOL0     C25055   4.858   7.443   3.006  1.0165 -0.4357  0.1231
  907MOL0     C25056   4.941   7.456   3.126 -0.0872 -0.0161 -0.0027
  907MOL0     C25057   4.878   7.494   2.878 -0.3100  0.3513  0.4674
  907MOL0     C25058   5.015   7.544   2.830 -0.5156 -0.5159 -0.3212
  907MOL0     O25059   5.110   7.565   2.925 -0.1380  0.2353 -0.1517
  907MOL0     C25060   5.234   7.625   2.903 -0.2226 -0.6121  0.0659
  907MOL0     C25061   5.335   7.571   2.983 -0.5141  1.0085 -0.6354
  907MOL0     C25062   5.463   7.615   2.977 -0.5015 -0.6661  0.2757
  907MOL0     C25063   5.500   7.721   2.888  0.2361  0.9557 -0.2989
  907MOL0     O25064   5.634   7.766   2.888  0.4960  0.3632 -1.1835
  907MOL0     C25065   5.699   7.734   2.765 -0.5836  0.2277  0.1181
  907MOL0     C25066   5.798   7.837   2.717  0.1946 -0.5952 -0.1491
  907MOL0     C25067   5.924   7.842   2.803 -0.0690 -0.6175 -0.2115
  907MOL0     C25068   5.986   7.703   2.837  0.0329 -0.4711 -0.0337
  907MOL0     C25069   6.123   7.721   2.903  0.0482  0.3038 -0.0554
  907MOL0     C25070   6.199   7.588   2.933 -0.1291 -0.0813 -0.6201
  907MOL0     C25071   6.331   7.632   3.000 -0.0293  0.3674 -0.5269
  907MOL0     C25072   6.402   7.515   3.064  0.2247  0.2667  0.0952
  907MOL0    Cl25073   6.562   7.561   3.130  0.1615 -0.4277 -0.1711
  907MOL0     C25074   5.399   7.772   2.803  0.1459  0.1126  0.7366
  907MOL0     C25075   5.271   7.727   2.815 -0.1362 -0.5828  1.2523
  907MOL0     O25076   5.022   7.567   2.711  0.7280  0.2836  0.6156
  907MOL0     C25077   4.771   7.495   2.782 -0.6836  0.4068 -0.7972
  907MOL0     C25078   4.641   7.447   2.812 -0.4148 -0.0484  0.3250
  907MOL0     N25079   4.015   6.969   3.036 -0.4427  0.2422 -0.2662
  907MOL0     N25080   3.918   6.932   2.951 -0.4287  0.3941 -0.3572
  907MOL0     C25081   2.655   6.995   2.672  0.2299 -0.0558  0.2235
  907MOL0     C25082   2.524   6.977   2.712 -0.0556 -0.3631 -0.0244
  907MOL0     C25083   2.132   7.144   2.904  0.4216  0.1204  0.3089
  907MOL0     C25084   2.032   7.118   2.809  0.1870  0.4654  0.1348
  907MOL0     C25085   1.906   7.169   2.833 -0.8367 -1.1792  0.4818
  907MOL0     C25086   1.877   7.249   2.942 -0.4377 -0.6754 -0.0924
  907MOL0     O25087   1.737   7.284   2.948 -0.5418 -0.2912 -0.3676
  907MOL0     C25088   1.693   7.363   3.055  1.0046  0.1935 -0.7712
  907MOL0     C25089   1.544   7.377   3.068  0.0394 -0.5296 -0.7535
  907MOL0     C25090   1.478   7.265   3.143  0.7407 -0.5650  0.0438
  907MOL0     C25091   1.320   7.256   3.128 -0.5289  0.1767  0.1684
  907MOL0     C25092   1.269   7.249   2.991 -0.2914 -0.0040 -0.0968
  907MOL0     C25093   1.241   7.247   2.873 -0.1537  0.4757  0.0617
  907MOL0     C25094   1.969   7.264   3.034 -0.2462 -0.7777 -0.5333
  907MOL0     C25095   2.102   7.212   3.030  0.4189 -0.2682  0.2365
  907MOL0     C25096   2.189   7.241   3.152 -0.6584 -1.1979  0.1388
  907MOL0     H25097   2.406   7.281   2.625 -0.4569 -0.1013  4.7445
  907MOL0     H25098   2.624   7.297   2.503 -1.5200 -0.6068 -2.1483
  907MOL0     H25099   2.880   7.088   2.756  0.7377  0.8001 -0.0102
  907MOL0     H25100   2.943   7.238   2.686 -0.5262  0.1120  1.9051
  907MOL0     H25101   3.006   6.951   2.595 -1.6133 -0.0247 -1.9840
  907MOL0     H25102   3.066   7.094   2.519  0.7783 -2.0806 -0.9546
  907MOL0     H25103   3.151   7.172   2.757 -3.0412  0.9996  1.5511
  907MOL0     H25104   3.125   7.010   2.805  0.5950  0.4695  0.5827
  907MOL0     H25105   3.281   6.942   2.594  0.9855  1.3386 -1.1685
  907MOL0     H25106   3.312   7.114   2.570  3.3398  0.5290  1.5399
  907MOL0     H25107   3.391   6.983   2.824  2.2653  0.1654  0.0320
  907MOL0     H25108   3.379   7.156   2.814 -0.6142  1.1541 -0.4485
  907MOL0     H25109   3.557   6.972   2.647  0.6433  1.0276 -2.0139
  907MOL0     H25110   3.543   7.146   2.613  0.6809  0.5671  0.2248
  907MOL0     H25111   3.604   7.033   2.896  1.8697  1.8874  1.4797
  907MOL0     H25112   3.645   7.192   2.823  1.0477  0.3741  0.2148
  907MOL0     H25113   3.761   6.912   2.763  0.5257  0.2707 -2.1435
  907MOL0     H25114   3.804   7.064   2.679  0.4664 -1.0374 -0.2650
  907MOL0     H25115   3.942   7.240   2.868 -2.1934 -0.1855 -0.2380
  907MOL0     H25116   4.196   7.101   3.159 -0.2846 -2.1158 -1.6705
  907MOL0     H25117   4.073   7.225   3.193 -0.6450 -1.5380  1.3243
  907MOL0     H25118   4.138   7.344   2.989  0.8688  0.7279 -0.4537
  907MOL0     H25119   4.274   7.337   3.105  1.2701  0.5599 -1.3203
  907MOL0     H25120   4.360   7.131   2.981 -1.4631  0.1851  1.9789
  907MOL0     H25121   4.239   7.166   2.856  1.7836 -0.8145 -1.4950
  907MOL0     H25122   4.449   7.268   2.779  0.6557 -0.6230 -0.2700
  907MOL0     H25123   4.370   7.402   2.852  3.0756  1.7300  2.1535
  907MOL0     H25124   4.707   7.338   3.120 -0.3218 -0.3267 -0.2178
  907MOL0     H25125   4.875   7.441   3.212 -0.4956  0.7828 -0.1656
  907MOL0     H25126   4.995   7.550   3.140  2.1118 -1.1961 -0.1774
  907MOL0     H25127   5.017   7.378   3.126  0.1730  0.2125 -1.5380
  907MOL0     H25128   5.316   7.483   3.043  2.0402  2.1012  2.0216
  907MOL0     H25129   5.539   7.576   3.044 -2.2970 -1.6590  1.8625
  907MOL0     H25130   5.745   7.637   2.783 -1.1149  0.1525  1.1474
  907MOL0     H25131   5.627   7.705   2.688 -0.5757 -4.7193  1.6654
  907MOL0     H25132   5.838   7.802   2.621  0.6578 -0.3131 -0.0612
  907MOL0     H25133   5.756   7.938   2.706  1.4587 -0.0617 -0.1847
  907MOL0     H25134   5.891   7.889   2.896  2.8731  1.4058 -0.0456
  907MOL0     H25135   6.000   7.912   2.766  1.4971 -2.3779 -0.4283
  907MOL0     H25136   6.006   7.643   2.749 -0.1956 -2.1038  0.9880
  907MOL0     H25137   5.914   7.649   2.900  0.0892 -4.0849 -2.7741
  907MOL0     H25138   6.192   7.773   2.836  4.5999 -2.8601  1.6636
  907MOL0     H25139   6.121   7.783   2.993  0.2282 -0.2888  0.3590
  907MOL0     H25140   6.219   7.545   2.835  1.7905  0.4183 -0.4773
  907MOL0     H25141   6.131   7.522   2.988  3.2100 -3.4233 -0.0581
  907MOL0     H25142   6.306   7.708   3.075  1.9061  0.0052  0.5329
  907MOL0     H25143   6.395   7.669   2.920  2.8205 -2.7991  0.0626
  907MOL0     H25144   6.408   7.431   2.994 -0.8639  0.3086 -0.0570
  907MOL0     H25145   6.340   7.487   3.149  1.1511 -2.1948  0.0479
  907MOL0     H25146   5.432   7.854   2.740  1.1693  0.5827  1.8601
  907MOL0     H25147   5.192   7.757   2.747 -0.3142  0.1651  1.7693
  907MOL0     H25148   4.788   7.541   2.685 -1.9362 -0.3516 -1.3940
  907MOL0     H25149   4.563   7.446   2.736  0.3825 -1.2088 -0.5202
  907MOL0     H25150   2.728   6.925   2.711  0.9630  0.3381 -0.4166
  907MOL0     H25151   2.494   6.887   2.765 -0.4885 -1.3510 -1.8775
  907MOL0     H25152   2.039   7.071   2.711 -0.2491  1.4978 -0.4033
  907MOL0     H25153   1.817   7.168   2.771 -2.1445 -1.7748  2.2828
  907MOL0     H25154   1.727   7.331   3.154 -3.3959  0.2204  0.9784
  907MOL0     H25155   1.730   7.464   3.038 -1.0745  1.3526  1.1402
  907MOL0     H25156   1.511   7.394   2.965  2.0021 -0.7912 -1.4739
  907MOL0     H25157   1.527   7.465   3.129  2.7860 -1.3053  1.3308
  907MOL0     H25158   1.526   7.170   3.122  0.6230 -0.7555  0.6158
  907MOL0     H25159   1.506   7.291   3.246  1.7844  1.8221 -0.7597
  907MOL0     H25160   1.273   7.340   3.179 -2.3536  0.5586 -1.9598
  907MOL0     H25161   1.293   7.165   3.183  0.2755 -2.1533 -2.9758
  907MOL0     H25162   1.220   7.246   2.768 -0.8743 -1.0719  0.2020
  907MOL0     H25163   1.942   7.326   3.119  1.4118  0.7313 -1.0396
  907MOL0     H25164   2.271   7.307   3.124 -0.1757 -2.7391 -2.4674
  907MOL0     H25165   2.124   7.279   3.231  1.8675 -0.1385  1.8213
  907MOL0     H25166   2.229   7.146   3.189 -1.0239 -1.4383 -0.0665
  908MOL0     O25167   7.366   5.418   5.952 -0.0137  0.1193  0.4474
  908MOL0     C25168   7.298   5.361   6.038  0.2103 -0.2137 -0.7144
  908MOL0     O25169   7.343   5.314   6.156 -0.1804  0.3560 -0.8545
  908MOL0     C25170   7.473   5.340   6.192  0.1556  0.3743  0.7107
  908MOL0     C25171   7.583   5.305   6.112  0.3895 -0.2945 -0.9521
  908MOL0     C25172   7.708   5.306   6.174 -0.7115 -1.1321 -0.1282
  908MOL0     C25173   7.728   5.330   6.310  0.4482  0.3137  0.1634
  908MOL0     O25174   7.850   5.321   6.360  0.2148 -0.2702  0.0713
  908MOL0     C25175   7.937   5.423   6.311  0.0753 -0.5155  0.9744
  908MOL0     C25176   8.061   5.432   6.392 -0.3572  0.2207  0.5406
  908MOL0     C25177   8.039   5.466   6.536 -0.7741  0.1962 -0.0249
  908MOL0     C25178   8.172   5.476   6.621 -0.0723 -0.2823  0.3114
  908MOL0     C25179   8.153   5.499   6.773  0.1727  0.7904 -1.1128
  908MOL0     C25180   8.268   5.436   6.849  0.2772 -0.0180 -0.6675
  908MOL0     C25181   8.252   5.449   7.002  0.5813 -0.0910 -0.7178
  908MOL0     C25182   8.364   5.385   7.091  0.2592  0.0024 -1.0102
  908MOL0     N25183   8.495   5.449   7.057  0.7168  0.3881  0.0039
  908MOL0     C25184   8.521   5.583   7.064  0.4733 -0.3417 -0.5778
  908MOL0     C25185   8.652   5.595   7.025  0.2194  0.9861  0.3793
  908MOL0     C25186   8.728   5.715   6.998  0.4706  0.0151  0.0371
  908MOL0     C25187   8.868   5.709   6.943 -0.0231 -0.2402 -0.2342
  908MOL0     C25188   8.878   5.647   6.799 -0.0883  0.6335  0.2593
  908MOL0     C25189   9.019   5.646   6.737  0.0473  0.6679 -0.2847
  908MOL0     O25190   9.125   5.657   6.833  0.5749 -0.4918 -0.5545
  908MOL0     C25191   9.253   5.620   6.813 -0.0519  0.0238  0.0021
  908MOL0     C25192   9.319   5.595   6.689  1.0917 -0.3113 -0.2913
  908MOL0     C25193   9.461   5.554   6.692 -0.2081 -0.2002  0.2686
  908MOL0     C25194   9.528   5.545   6.556 -0.1795  0.6670 -0.3022
  908MOL0     C25195   9.534   5.534   6.811  0.6180 -0.3891 -0.3144
  908MOL0     C25196   9.665   5.472   6.817 -0.1977  0.4097  0.1370
  908MOL0     O25197   9.712   5.403   6.708  0.9029 -0.0934  0.5648
  908MOL0     C25198   9.836   5.347   6.703  0.2169  0.1132 -0.8860
  908MOL0     C25199   9.914   5.342   6.592  0.2926 -0.9166  0.2544
  908MOL0     C25200  10.031   5.260   6.584 -0.2913 -0.4181 -0.8531
  908MOL0     C25201  10.078   5.183   6.697  0.0963 -0.0610 -0.1092
  908MOL0     O25202  10.184   5.104   6.688 -0.0686 -0.2381  0.5108
  908MOL0     C25203  10.304   5.136   6.761  0.2697 -0.2282 -0.1401
  908MOL0     C25204  10.417   5.055   6.707 -0.8462  0.0875 -0.4055
  908MOL0     C25205  10.556   5.098   6.745  0.0575  0.2828 -0.2994
  908MOL0     C25206  10.660   5.008   6.695  0.1257  0.3617  0.3801
  908MOL0     C25207  10.788   5.065   6.751 -0.1898 -0.2154 -0.1386
  908MOL0     C25208  10.923   5.007   6.699  0.1294  0.0334  0.2632
  908MOL0     C25209  10.947   4.864   6.727 -0.0559  0.4267  0.1997
  908MOL0     C25210  11.083   4.812   6.668 -0.3254 -0.0197  0.7709
  908MOL0    Cl25211  11.071   4.635   6.643 -0.3843 -0.0412 -0.1902
  908MOL0     C25212  10.001   5.200   6.809 -0.1109  0.1241  0.4922
  908MOL0     C25213   9.880   5.269   6.818  0.1948  0.2962  0.2425
  908MOL0     O25214   9.729   5.510   6.915 -0.1633  0.0552  0.0233
  908MOL0     C25215   9.464   5.569   6.928 -0.3408  0.0294 -0.2397
  908MOL0     C25216   9.331   5.610   6.926  0.1122  0.5787 -0.2021
  908MOL0     N25217   8.692   5.471   6.984  0.6599 -0.5543 -0.0507
  908MOL0     N25218   8.595   5.384   6.999 -0.6343  0.1786  0.9193
  908MOL0     C25219   7.616   5.361   6.385  0.0515 -0.2998  0.2460
  908MOL0     C25220   7.488   5.365   6.327 -0.0164 -0.4401  0.3396
  908MOL0     C25221   7.147   5.349   6.029  0.1302  0.6495 -0.0528
  908MOL0     C25222   7.079   5.266   6.122  0.2743  0.6280 -0.1882
  908MOL0     C25223   6.941   5.239   6.113 -0.3599  0.9607  0.3734
  908MOL0     C25224   6.860   5.300   6.018 -0.5148 -0.0185  0.5608
  908MOL0     O25225   6.724   5.284   6.027 -0.1379  0.4583 -0.3375
  908MOL0     C25226   6.649   5.398   6.071  0.3685 -0.4887  0.1436
  908MOL0     C25227   6.617   5.376   6.222 -0.0680 -0.8424  0.1933
  908MOL0     C25228   6.505   5.264   6.242 -0.2094  0.7535 -0.5045
  908MOL0     C25229   6.483   5.241   6.396 -0.3562  1.0756 -0.0484
  908MOL0     C25230   6.411   5.347   6.462 -0.3467  0.1992  0.4525
  908MOL0     C25231   6.343   5.443   6.508 -0.4399  0.0018  0.0120
  908MOL0     C25232   6.928   5.377   5.921  0.5951 -0.3823 -0.5048
  908MOL0     C25233   7.066   5.392   5.922 -0.9907 -0.0283  0.1935
  908MOL0     C25234   7.114   5.474   5.808 -0.0759 -0.4183 -0.1633
  908MOL0     H25235   7.572   5.263   6.012  4.8842 -1.6641 -1.0958
  908MOL0     H25236   7.793   5.282   6.112  0.5145 -0.0415  1.0721
  908MOL0     H25237   7.885   5.518   6.298  1.9076  0.3720 -0.4021
  908MOL0     H25238   7.971   5.401   6.209  0.9645  2.1996  0.6238
  908MOL0     H25239   8.121   5.342   6.377  0.6514  0.9812 -0.1752
  908MOL0     H25240   8.116   5.507   6.333 -2.3664  2.2352  1.0753
  908MOL0     H25241   7.991   5.564   6.542  1.4234  1.3612 -0.4846
  908MOL0     H25242   7.978   5.390   6.585  1.9456 -1.9808  0.2515
  908MOL0     H25243   8.229   5.383   6.604  0.5234  0.3664 -1.5944
  908MOL0     H25244   8.232   5.557   6.580  0.0097 -0.7412 -0.5045
  908MOL0     H25245   8.057   5.454   6.799  0.2826  1.4197  0.4970
  908MOL0     H25246   8.146   5.606   6.793 -0.3370  0.6677 -0.5932
  908MOL0     H25247   8.281   5.329   6.830  0.5135 -0.0744 -0.2217
  908MOL0     H25248   8.362   5.484   6.819 -0.0249  0.7955 -0.3422
  908MOL0     H25249   8.168   5.386   7.029  0.2777 -0.8859 -3.2278
  908MOL0     H25250   8.239   5.552   7.035  1.7562 -0.0245 -0.3908
  908MOL0     H25251   8.344   5.389   7.198 -1.7714  1.1258 -1.3799
  908MOL0     H25252   8.370   5.278   7.072 -1.0500 -0.6821  1.9257
  908MOL0     H25253   8.446   5.661   7.079 -0.6401 -1.6948  1.2838
  908MOL0     H25254   8.736   5.770   7.092  1.6284 -0.4222  0.2080
  908MOL0     H25255   8.659   5.763   6.927  0.2950 -3.1429 -2.1440
  908MOL0     H25256   8.917   5.806   6.946  1.3383 -0.9455  1.3250
  908MOL0     H25257   8.923   5.648   7.014  0.7199 -1.5804 -1.8817
  908MOL0     H25258   8.854   5.541   6.808 -0.8371  0.8371  0.7402
  908MOL0     H25259   8.803   5.703   6.742 -1.9659  0.1439  2.1079
  908MOL0     H25260   9.034   5.545   6.696  0.0262  0.8612 -0.7802
  908MOL0     H25261   9.033   5.713   6.652 -1.8750  1.0685 -0.3195
  908MOL0     H25262   9.268   5.614   6.595 -1.2759 -1.8557  0.5855
  908MOL0     H25263   9.538   5.438   6.536 -1.3126  0.2107  1.3941
  908MOL0     H25264   9.625   5.597   6.555  0.7561 -0.9791 -0.1523
  908MOL0     H25265   9.475   5.594   6.474 -0.5214  0.1847 -0.3737
  908MOL0     H25266   9.888   5.395   6.501 -3.2449 -3.1824 -0.2531
  908MOL0     H25267  10.067   5.252   6.482 -1.3964  4.0598 -1.8047
  908MOL0     H25268  10.333   5.240   6.744  0.3828  0.6840  4.3076
  908MOL0     H25269  10.295   5.118   6.869 -2.1037  1.4910  0.0155
  908MOL0     H25270  10.402   4.951   6.736  0.3859 -0.3040 -1.0723
  908MOL0     H25271  10.421   5.052   6.598  2.3699 -0.6876 -0.3823
  908MOL0     H25272  10.559   5.081   6.853 -1.2125 -0.8441 -0.4044
  908MOL0     H25273  10.570   5.202   6.716 -0.0515  0.5376  0.5663
  908MOL0     H25274  10.657   4.997   6.586  0.8350 -0.4275  0.4320
  908MOL0     H25275  10.648   4.904   6.729  1.8871 -0.9427 -2.5395
  908MOL0     H25276  10.795   5.170   6.719  1.3458 -0.0784  0.5882
  908MOL0     H25277  10.789   5.056   6.860 -1.0915 -1.0855 -0.1865
  908MOL0     H25278  11.003   5.070   6.738  1.0755  0.3897 -2.1128
  908MOL0     H25279  10.921   5.017   6.590 -0.8496 -1.6312  0.0843
  908MOL0     H25280  10.872   4.806   6.673  0.8476  1.3355 -2.1216
  908MOL0     H25281  10.941   4.831   6.831 -0.9771 -0.7702 -0.2195
  908MOL0     H25282  11.172   4.835   6.727  0.4578  0.9211 -0.7177
  908MOL0     H25283  11.103   4.861   6.573 -0.0163  1.0349  1.3623
  908MOL0     H25284  10.034   5.146   6.898  1.3105  0.3016  0.1063
  908MOL0     H25285   9.828   5.267   6.912  0.9049  2.7604  0.7500
  908MOL0     H25286   9.519   5.564   7.021  0.1494  0.1998 -0.5195
  908MOL0     H25287   9.295   5.631   7.026 -1.3979 -0.8801 -0.3986
  908MOL0     H25288   7.629   5.390   6.489  1.7438  2.3097 -0.5914
  908MOL0     H25289   7.394   5.376   6.381  0.5227 -1.2607  1.5065
  908MOL0     H25290   7.127   5.198   6.191 -1.3519  0.8668  1.2442
  908MOL0     H25291   6.894   5.166   6.178 -1.3724  0.8482 -0.4484
  908MOL0     H25292   6.709   5.489   6.062 -1.2005  0.4569 -1.6492
  908MOL0     H25293   6.556   5.408   6.014 -0.0374  0.7074  0.9851
  908MOL0     H25294   6.582   5.473   6.259 -1.1653  0.1322 -3.0197
  908MOL0     H25295   6.707   5.362   6.282  1.8399  6.9085  0.2528
  908MOL0     H25296   6.412   5.296   6.195 -0.1364  0.8614 -0.5776
  908MOL0     H25297   6.530   5.167   6.198  0.9043  0.9819 -0.4059
  908MOL0     H25298   6.584   5.230   6.437 -0.4133 -1.0050 -0.3758
  908MOL0     H25299   6.421   5.151   6.406  1.9488 -0.4643  1.5158
  908MOL0     H25300   6.284   5.525   6.543 -1.6372 -0.6822 -0.3122
  908MOL0     H25301   6.866   5.411   5.838  0.7905 -2.6377 -1.6504
  908MOL0     H25302   7.129   5.414   5.718 -0.3993 -0.5994 -0.0983
  908MOL0     H25303   7.031   5.535   5.773 -0.9171 -1.6239 -0.3210
  908MOL0     H25304   7.201   5.537   5.827  0.9612 -2.0812  0.8529
  909MOL0     O25305   7.794   0.825   6.311 -0.0794 -0.0532  0.1547
  909MOL0     C25306   7.701   0.750   6.298  0.7261 -0.0519 -0.4463
  909MOL0     O25307   7.675   0.659   6.196  0.3354 -0.4416  0.3179
  909MOL0     C25308   7.756   0.675   6.088 -0.4886 -0.8452 -0.0437
  909MOL0     C25309   7.707   0.721   5.970 -0.3957 -0.0244  0.1308
  909MOL0     C25310   7.788   0.751   5.860  0.6290 -1.2597  0.2070
  909MOL0     C25311   7.924   0.718   5.854  0.5885  0.1087 -0.5187
  909MOL0     O25312   8.018   0.747   5.761  0.5279 -0.2581  0.5811
  909MOL0     C25313   7.990   0.850   5.663  0.5074  0.3160 -0.2107
  909MOL0     C25314   8.116   0.883   5.576  1.4839  0.0070 -0.3351
  909MOL0     C25315   8.168   0.754   5.509 -1.0779 -0.2531  0.4408
  909MOL0     C25316   8.298   0.782   5.436  0.3149 -0.5254  0.1130
  909MOL0     C25317   8.359   0.649   5.398  0.0713  0.2146 -0.1442
  909MOL0     C25318   8.483   0.672   5.320 -0.2514 -0.1825 -0.5268
  909MOL0     C25319   8.559   0.535   5.299 -0.0959  0.2325  0.0151
  909MOL0     C25320   8.468   0.447   5.212 -0.4146 -0.0919  0.6512
  909MOL0     N25321   8.546   0.328   5.155  0.6715 -1.4643 -0.1263
  909MOL0     C25322   8.556   0.207   5.220  0.3650  0.0140  0.1662
  909MOL0     C25323   8.610   0.126   5.128 -0.3428  0.2640 -0.3849
  909MOL0     C25324   8.647  -0.014   5.149  0.4319  0.7458 -0.0423
  909MOL0     C25325   8.796  -0.035   5.181  0.2092 -0.2333 -0.3380
  909MOL0     C25326   8.898  -0.020   5.070  1.2365  0.1192 -0.0357
  909MOL0     C25327   9.037  -0.027   5.117 -0.2105 -0.2019 -0.1525
  909MOL0     O25328   9.071   0.062   5.234 -0.0713  0.0745  0.6877
  909MOL0     C25329   9.200   0.053   5.280 -0.8946 -0.5346 -0.7398
  909MOL0     C25330   9.246   0.156   5.366 -0.3286 -1.2562  0.4392
  909MOL0     C25331   9.378   0.165   5.403 -0.4667  1.2766  0.0130
  909MOL0     C25332   9.427   0.285   5.471 -0.1917 -0.4969  0.3324
  909MOL0     C25333   9.457   0.047   5.392  0.2812 -0.3510  0.0515
  909MOL0     C25334   9.606   0.035   5.425  0.2525 -0.1129 -0.0162
  909MOL0     O25335   9.670  -0.063   5.349  0.1136  0.3560 -0.4579
  909MOL0     C25336   9.804  -0.055   5.325 -0.0595  0.5063  0.2799
  909MOL0     C25337   9.877  -0.178   5.326  0.1064 -0.3576 -0.6819
  909MOL0     C25338  10.012  -0.185   5.290  0.3853 -0.0038 -0.9858
  909MOL0     C25339  10.090  -0.065   5.269 -0.0935 -1.2463  0.2977
  909MOL0     O25340  10.224  -0.079   5.238 -1.2073 -0.5958 -0.1473
  909MOL0     C25341  10.295   0.037   5.194 -0.4431 -0.4276 -0.1508
  909MOL0     C25342  10.407  -0.029   5.111  0.1964 -0.5147 -0.3487
  909MOL0     C25343  10.495   0.061   5.020 -0.0980 -0.1289 -0.3406
  909MOL0     C25344  10.455   0.025   4.881  0.3658 -0.2606 -0.1988
  909MOL0     C25345  10.534   0.119   4.788 -0.3769 -0.1143  0.0246
  909MOL0     C25346  10.477   0.094   4.647 -0.2724 -0.3358 -0.1311
  909MOL0     C25347  10.547   0.192   4.545 -0.0098 -0.6199 -0.4635
  909MOL0     C25348  10.500   0.160   4.406  0.5331 -0.5556  1.2322
  909MOL0    Cl25349  10.558   0.297   4.312 -0.3970  0.1257 -0.2578
  909MOL0     C25350  10.016   0.056   5.275 -0.1399 -0.1227 -0.3526
  909MOL0     C25351   9.881   0.054   5.304  0.1525  0.1570  0.2666
  909MOL0     O25352   9.658   0.093   5.526 -0.3642 -1.3314  0.0558
  909MOL0     C25353   9.406  -0.064   5.325  0.1184 -0.4417 -0.3575
  909MOL0     C25354   9.282  -0.056   5.275 -0.5778 -0.4946  0.4379
  909MOL0     N25355   8.626   0.200   5.007 -1.0231  0.3242  0.1674
  909MOL0     N25356   8.579   0.318   5.027 -0.1222 -0.0277  0.4046
  909MOL0     C25357   7.972   0.667   5.977  0.4808 -0.1673  1.0594
  909MOL0     C25358   7.892   0.645   6.088  0.0063 -0.0568 -0.1470
  909MOL0     C25359   7.575   0.767   6.381 -0.5015  0.0000  0.0816
  909MOL0     C25360   7.487   0.656   6.384 -0.1340 -0.2288 -0.9684
  909MOL0     C25361   7.382   0.663   6.480 -0.0013 -0.2856  0.4679
  909MOL0     C25362   7.352   0.773   6.564 -0.2529 -0.5174 -0.0922
  909MOL0     O25363   7.246   0.765   6.651 -0.8617 -0.5487  0.2181
  909MOL0     C25364   7.242   0.859   6.756 -0.1877 -0.7149  0.3318
  909MOL0     C25365   7.135   0.818   6.861  0.2542  0.0292 -0.4012
  909MOL0     C25366   6.989   0.839   6.818  0.3675  0.3548 -0.3903
  909MOL0     C25367   6.894   0.823   6.935 -0.3155  0.6745  0.2417
  909MOL0     C25368   6.749   0.860   6.897 -0.0018  0.7137  0.0641
  909MOL0     C25369   6.638   0.891   6.854  0.4875  0.8518  0.3955
  909MOL0     C25370   7.441   0.888   6.553  0.0233 -0.7768  0.3948
  909MOL0     C25371   7.543   0.886   6.456 -0.3821  0.2199  0.0541
  909MOL0     C25372   7.624   1.010   6.452  0.2769  0.0156 -0.0175
  909MOL0     H25373   7.600   0.742   5.971 -1.6074 -4.8535  2.7101
  909MOL0     H25374   7.738   0.795   5.774 -1.8381 -0.8418  1.7766
  909MOL0     H25375   7.939   0.940   5.699 -2.2662 -1.0687 -0.4629
  909MOL0     H25376   7.916   0.802   5.599 -0.2054  0.3743  0.5501
  909MOL0     H25377   8.071   0.955   5.507 -1.7767  1.0472  2.5684
  909MOL0     H25378   8.198   0.939   5.623  3.4328 -0.8729 -2.4584
  909MOL0     H25379   8.188   0.674   5.581  1.2118 -1.2319 -1.1526
  909MOL0     H25380   8.104   0.709   5.434  0.4420  1.9711 -2.4006
  909MOL0     H25381   8.274   0.839   5.346 -3.1163 -3.0593 -0.8019
  909MOL0     H25382   8.373   0.834   5.496  2.2167  2.2788 -4.2105
  909MOL0     H25383   8.291   0.597   5.331  2.2858 -3.2704  0.0683
  909MOL0     H25384   8.370   0.584   5.486  0.7559  0.0173 -0.3728
  909MOL0     H25385   8.468   0.729   5.228  0.2500 -1.5139 -1.4667
  909MOL0     H25386   8.556   0.733   5.374  2.7094 -2.1517 -2.0278
  909MOL0     H25387   8.594   0.483   5.389 -0.3296 -1.6850 -0.9517
  909MOL0     H25388   8.650   0.562   5.245  0.7857 -0.5358  1.0583
  909MOL0     H25389   8.381   0.411   5.268 -2.4109 -0.8464 -2.6696
  909MOL0     H25390   8.421   0.506   5.133  0.8307 -1.8851 -1.5277
  909MOL0     H25391   8.540   0.188   5.325 -1.7386 -4.2648 -0.7219
  909MOL0     H25392   8.634  -0.066   5.054  1.4315 -1.9694  1.2068
  909MOL0     H25393   8.582  -0.058   5.224  3.5678 -2.4364  1.0622
  909MOL0     H25394   8.830   0.036   5.257 -0.6495 -0.5300  0.3435
  909MOL0     H25395   8.819  -0.132   5.226  2.5870  0.6192  0.4403
  909MOL0     H25396   8.879  -0.108   5.009 -0.2970  0.4896 -0.1499
  909MOL0     H25397   8.871   0.073   5.018 -1.2881 -1.7711 -2.4324
  909MOL0     H25398   9.068  -0.130   5.139 -0.2164 -0.0106  0.7916
  909MOL0     H25399   9.088   0.013   5.029 -1.0259 -0.7524 -0.8925
  909MOL0     H25400   9.171   0.232   5.381  0.2122 -0.7610  0.6791
  909MOL0     H25401   9.481   0.259   5.562  0.7911  0.4325  0.0372
  909MOL0     H25402   9.342   0.348   5.499 -0.4457  0.1939 -1.7724
  909MOL0     H25403   9.496   0.344   5.410  0.2428 -0.9185  0.4084
  909MOL0     H25404   9.828  -0.272   5.349 -2.0377  0.9171  0.2843
  909MOL0     H25405  10.056  -0.284   5.287 -1.1578 -0.6888 -2.6555
  909MOL0     H25406  10.242   0.096   5.118  0.4812  0.3387 -0.2268
  909MOL0     H25407  10.339   0.104   5.268  0.8707 -0.1119 -1.1551
  909MOL0     H25408  10.476  -0.081   5.177 -2.8007  1.9065  5.4133
  909MOL0     H25409  10.360  -0.106   5.050 -0.4456 -0.3856 -0.0306
  909MOL0     H25410  10.602   0.040   5.027 -0.2490 -1.5913 -1.8797
  909MOL0     H25411  10.485   0.167   5.046  1.9900 -0.1230  0.6521
  909MOL0     H25412  10.347   0.038   4.871  0.0844 -1.5244  0.8657
  909MOL0     H25413  10.467  -0.081   4.857 -0.5093 -0.1172 -1.3788
  909MOL0     H25414  10.528   0.225   4.815 -0.2122 -0.7023  2.7285
  909MOL0     H25415  10.639   0.092   4.801  0.0102  1.4891  0.5400
  909MOL0     H25416  10.369   0.111   4.647 -0.4905 -1.5396 -1.4453
  909MOL0     H25417  10.494  -0.010   4.619 -1.4876 -0.1509 -1.6935
  909MOL0     H25418  10.655   0.179   4.549 -0.2678 -2.8122  1.8226
  909MOL0     H25419  10.529   0.291   4.588  1.2294 -0.6795  0.2400
  909MOL0     H25420  10.393   0.140   4.396  0.8348 -1.1004 -1.7930
  909MOL0     H25421  10.543   0.068   4.366 -1.6172 -0.0990 -2.6332
  909MOL0     H25422  10.063   0.153   5.262 -0.0181 -0.2896 -1.1705
  909MOL0     H25423   9.825   0.147   5.303  0.3419  0.2711 -0.3820
  909MOL0     H25424   9.454  -0.161   5.322 -0.4627 -0.7425 -0.1589
  909MOL0     H25425   9.252  -0.136   5.208 -0.3716  1.5257 -2.2404
  909MOL0     H25426   8.080   0.653   5.982  0.7602 -0.5571 -2.8457
  909MOL0     H25427   7.945   0.620   6.179  1.3133  0.2517 -0.7931
  909MOL0     H25428   7.504   0.568   6.323 -2.6533 -0.9418 -0.7733
  909MOL0     H25429   7.335   0.567   6.498  0.5700 -0.6303  0.1614
  909MOL0     H25430   7.339   0.880   6.803 -0.9023  4.5651  0.0506
  909MOL0     H25431   7.210   0.960   6.730  0.1803 -0.2017  1.7536
  909MOL0     H25432   7.153   0.876   6.952  1.7338  0.8053 -1.1447
  909MOL0     H25433   7.149   0.714   6.890  1.0468  0.4890  0.9729
  909MOL0     H25434   6.978   0.941   6.779  0.7035 -0.6886 -3.4612
  909MOL0     H25435   6.981   0.764   6.739  1.2055 -1.1743  0.9299
  909MOL0     H25436   6.937   0.888   7.012  0.2613  0.3066  0.2369
  909MOL0     H25437   6.892   0.725   6.983 -1.2420  1.0356  0.9794
  909MOL0     H25438   6.542   0.929   6.826  0.3760  1.2317  1.2535
  909MOL0     H25439   7.430   0.983   6.604  0.3983 -0.5260  0.0173
  909MOL0     H25440   7.727   0.998   6.485  0.2540  0.4511  0.2277
  909MOL0     H25441   7.633   1.052   6.351  3.4220 -1.2176 -0.3363
  909MOL0     H25442   7.574   1.092   6.505  0.7954 -0.8266  1.8450
  910MOL0     O25443   6.041   1.432   3.692 -0.1148 -1.0786 -0.9038
  910MOL0     C25444   5.966   1.415   3.599  0.1889  0.7440  0.5287
  910MOL0     O25445   6.010   1.356   3.483 -0.0935 -0.1835 -0.0746
  910MOL0     C25446   6.134   1.309   3.459 -0.4693 -0.4864  0.2472
  910MOL0     C25447   6.140   1.234   3.345 -0.7613 -0.1928  0.4992
  910MOL0     C25448   6.266   1.196   3.285  0.0890 -0.5647 -0.5300
  910MOL0     C25449   6.381   1.255   3.338  0.5145  1.1673 -0.2124
  910MOL0     O25450   6.500   1.234   3.280 -0.0984 -0.8349 -0.0531
  910MOL0     C25451   6.528   1.106   3.218 -0.3555  0.2518  0.0481
  910MOL0     C25452   6.674   1.082   3.173  1.0871  0.1873 -0.0650
  910MOL0     C25453   6.752   1.061   3.306 -0.0391 -0.1215  0.0908
  910MOL0     C25454   6.899   1.078   3.273 -0.1825  0.0454 -0.2727
  910MOL0     C25455   6.988   1.063   3.399  0.5131  0.2747  0.3434
  910MOL0     C25456   7.126   1.089   3.360  0.7730 -0.0299  0.4090
  910MOL0     C25457   7.214   1.073   3.485  0.9834 -0.9976  0.1562
  910MOL0     C25458   7.360   1.074   3.446 -0.6989 -0.4399  0.0068
  910MOL0     N25459   7.406   1.204   3.399 -0.0082 -0.1886 -0.2001
  910MOL0     C25460   7.491   1.219   3.304 -0.5098  0.5960  0.5275
  910MOL0     C25461   7.543   1.344   3.305 -0.0200  0.4699 -0.2146
  910MOL0     C25462   7.645   1.413   3.220 -0.3699  1.1508  0.1905
  910MOL0     C25463   7.783   1.430   3.298  0.3760  0.4949 -0.6877
  910MOL0     C25464   7.903   1.441   3.189  0.7550  0.4404 -0.1955
  910MOL0     C25465   7.924   1.575   3.129  0.2479  0.6842  0.1233
  910MOL0     O25466   7.989   1.659   3.218 -0.7778  0.1368 -0.2026
  910MOL0     C25467   8.123   1.671   3.219 -0.1251  0.2825  0.5474
  910MOL0     C25468   8.184   1.724   3.111 -0.4311  0.4338  0.9982
  910MOL0     C25469   8.331   1.747   3.105  0.1223 -0.5252 -0.3318
  910MOL0     C25470   8.383   1.816   2.979 -0.7019  0.4467  0.5595
  910MOL0     C25471   8.402   1.700   3.216 -0.3767 -0.2982  0.1423
  910MOL0     C25472   8.561   1.715   3.221  0.2138 -0.1427  0.3896
  910MOL0     O25473   8.618   1.707   3.346  0.5878  0.5606  0.5428
  910MOL0     C25474   8.749   1.706   3.343  1.0550  0.6034 -0.8635
  910MOL0     C25475   8.822   1.609   3.269 -0.0054 -0.1428  0.0058
  910MOL0     C25476   8.961   1.615   3.265  0.2334 -0.1337 -0.1219
  910MOL0     C25477   9.032   1.703   3.350  0.4574  0.7186  0.7544
  910MOL0     O25478   9.165   1.711   3.359 -0.1525 -0.1088  0.2465
  910MOL0     C25479   9.251   1.605   3.309  0.8682 -0.4901 -0.4864
  910MOL0     C25480   9.392   1.641   3.309 -0.1782  0.9771 -0.2688
  910MOL0     C25481   9.426   1.776   3.226  0.0403 -0.9321  0.0567
  910MOL0     C25482   9.459   1.891   3.323 -0.3295 -0.5666 -0.7116
  910MOL0     C25483   9.496   2.025   3.250 -0.4392  0.2194  0.0293
  910MOL0     C25484   9.567   2.112   3.340 -0.2020 -0.0882 -0.0776
  910MOL0     C25485   9.520   2.131   3.487  0.9397  0.2061 -0.1932
  910MOL0     C25486   9.592   2.236   3.577  0.4075  0.5647  0.6210
  910MOL0    Cl25487   9.748   2.176   3.609 -0.5316  0.2252  0.0031
  910MOL0     C25488   8.961   1.797   3.424  0.4331  1.0757 -0.6064
  910MOL0     C25489   8.822   1.799   3.426  0.4163  0.1420 -0.3343
  910MOL0     O25490   8.615   1.755   3.118  0.4708  0.3156  0.3998
  910MOL0     C25491   8.337   1.643   3.327  0.2068  0.6300  0.3740
  910MOL0     C25492   8.194   1.629   3.328 -0.1954 -0.7155  0.3517
  910MOL0     N25493   7.470   1.413   3.399 -0.1737  0.3647 -0.1793
  910MOL0     N25494   7.390   1.329   3.458 -0.0518 -0.7879  0.1846
  910MOL0     C25495   6.373   1.340   3.449 -0.3244 -0.1428 -0.6628
  910MOL0     C25496   6.253   1.367   3.515 -0.0607  0.6827  0.3033
  910MOL0     C25497   5.827   1.478   3.591 -0.0322  0.0982 -0.2063
  910MOL0     C25498   5.796   1.553   3.475 -0.4878  0.2621  0.3117
  910MOL0     C25499   5.661   1.603   3.465  0.2457 -0.9687 -0.2619
  910MOL0     C25500   5.579   1.611   3.578 -0.2357  0.0995 -0.2624
  910MOL0     O25501   5.462   1.677   3.562  0.0379 -0.8129 -0.4014
  910MOL0     C25502   5.395   1.730   3.677 -0.2006 -0.6678  0.4701
  910MOL0     C25503   5.274   1.816   3.643 -0.2252 -0.4783 -0.7563
  910MOL0     C25504   5.192   1.743   3.541  0.5499 -0.8284 -0.3711
  910MOL0     C25505   5.064   1.828   3.504 -0.0344 -0.9404 -0.0385
  910MOL0     C25506   4.972   1.752   3.427  0.3916 -0.7484 -0.1464
  910MOL0     C25507   4.888   1.697   3.365  0.8658  0.7648 -0.1253
  910MOL0     C25508   5.627   1.550   3.694  0.2182 -1.0526 -0.6145
  910MOL0     C25509   5.746   1.474   3.702  0.2123 -0.7268  0.1494
  910MOL0     C25510   5.785   1.396   3.827  0.2874  0.1369  0.0328
  910MOL0     H25511   6.044   1.210   3.301 -1.0245  1.0528  0.3527
  910MOL0     H25512   6.262   1.139   3.192 -0.4033  2.7224 -2.6715
  910MOL0     H25513   6.453   1.090   3.140 -0.0648  0.0575 -0.1939
  910MOL0     H25514   6.507   1.023   3.287 -1.6497  0.8671  0.4199
  910MOL0     H25515   6.682   0.998   3.103  1.5688  1.2195 -1.2918
  910MOL0     H25516   6.724   1.161   3.116  0.3646 -0.8928 -2.3397
  910MOL0     H25517   6.723   1.137   3.379 -1.6421 -0.2976 -0.3153
  910MOL0     H25518   6.735   0.964   3.354 -0.5485 -0.0947 -0.0334
  910MOL0     H25519   6.921   0.990   3.211 -1.9158 -0.5434 -0.1049
  910MOL0     H25520   6.919   1.172   3.222  2.4075 -0.5176 -0.4775
  910MOL0     H25521   6.994   0.958   3.430  0.4040 -0.8713 -3.0291
  910MOL0     H25522   6.959   1.134   3.477 -2.7351 -0.8224  0.2786
  910MOL0     H25523   7.151   1.015   3.284  0.3211 -0.6797  0.8818
  910MOL0     H25524   7.146   1.193   3.333 -0.6202  0.4555  1.1715
  910MOL0     H25525   7.193   0.986   3.547 -0.5826 -0.5901  0.2331
  910MOL0     H25526   7.195   1.160   3.550  0.7871  1.3434 -2.8113
  910MOL0     H25527   7.406   1.059   3.544 -1.8862 -1.1845  0.4702
  910MOL0     H25528   7.384   0.995   3.373 -0.6075 -0.7632  0.3837
  910MOL0     H25529   7.515   1.146   3.227 -0.9220 -1.9479  2.7023
  910MOL0     H25530   7.622   1.514   3.182  0.0274  1.4565  0.7606
  910MOL0     H25531   7.652   1.356   3.127 -1.1888 -1.8800  1.8538
  910MOL0     H25532   7.788   1.522   3.357 -2.2168 -0.3652  1.0558
  910MOL0     H25533   7.802   1.344   3.362 -3.1745  0.0965  0.0113
  910MOL0     H25534   7.998   1.422   3.240  0.8093  0.9547 -0.1014
  910MOL0     H25535   7.886   1.357   3.121 -0.0638 -1.5120  2.2732
  910MOL0     H25536   7.996   1.564   3.048  2.9353 -0.6398  2.5038
  910MOL0     H25537   7.830   1.619   3.095  1.3747  0.9596 -2.9168
  910MOL0     H25538   8.119   1.755   3.029  0.2782 -0.0875  0.2189
  910MOL0     H25539   8.445   1.748   2.920 -1.2839 -0.9347  1.5012
  910MOL0     H25540   8.437   1.911   2.991 -1.1941  0.7941  0.0852
  910MOL0     H25541   8.295   1.844   2.920 -0.4915  1.9038  0.8897
  910MOL0     H25542   8.759   1.544   3.208 -0.2800  0.7894 -0.7185
  910MOL0     H25543   9.000   1.554   3.185 -1.0855 -1.0227 -0.1226
  910MOL0     H25544   9.231   1.510   3.359 -0.7636 -0.0655 -0.2639
  910MOL0     H25545   9.226   1.589   3.203 -2.0113  2.1024 -0.3279
  910MOL0     H25546   9.421   1.646   3.414 -0.0943  0.8012 -0.2836
  910MOL0     H25547   9.446   1.555   3.269 -1.6714 -0.1479  0.0466
  910MOL0     H25548   9.352   1.801   3.150  0.9140 -1.1640 -0.8891
  910MOL0     H25549   9.519   1.768   3.170  0.4295 -0.5490  0.6390
  910MOL0     H25550   9.544   1.863   3.385  0.3342  2.2507 -0.2077
  910MOL0     H25551   9.369   1.903   3.384 -0.0076 -1.9560  0.0518
  910MOL0     H25552   9.560   2.001   3.165  0.6077  0.5586  0.7032
  910MOL0     H25553   9.403   2.069   3.210 -1.1421 -2.5790 -1.6803
  910MOL0     H25554   9.566   2.211   3.293 -5.4427 -0.4549 -1.4482
  910MOL0     H25555   9.669   2.075   3.346 -1.4295 -3.5548  2.7211
  910MOL0     H25556   9.522   2.034   3.539 -1.2163  0.4873  0.5323
  910MOL0     H25557   9.417   2.168   3.487  1.0531  0.5169 -0.1531
  910MOL0     H25558   9.531   2.257   3.665 -1.7021  2.0893 -1.0796
  910MOL0     H25559   9.600   2.325   3.514  2.0814 -1.4880 -2.3176
  910MOL0     H25560   9.026   1.864   3.479 -2.9775  5.8182 -1.7229
  910MOL0     H25561   8.758   1.867   3.482  0.2426 -0.5753  0.3525
  910MOL0     H25562   8.395   1.603   3.409 -0.3062  0.6657  0.7573
  910MOL0     H25563   8.155   1.591   3.422 -0.5422 -0.8634  0.1524
  910MOL0     H25564   6.455   1.382   3.506  1.2907 -4.3690  0.4329
  910MOL0     H25565   6.258   1.418   3.610  0.7918 -0.2231  0.7618
  910MOL0     H25566   5.865   1.548   3.392  1.6725 -2.2487  2.1091
  910MOL0     H25567   5.624   1.661   3.381  1.9516  1.2348  0.3970
  910MOL0     H25568   5.343   1.649   3.729 -1.3452  0.3098  0.8956
  910MOL0     H25569   5.456   1.792   3.743 -0.1214  1.1586 -1.2357
  910MOL0     H25570   5.315   1.911   3.606  1.8615 -1.9188 -2.3882
  910MOL0     H25571   5.216   1.839   3.733  0.4060  1.5399 -0.8183
  910MOL0     H25572   5.236   1.734   3.441 -1.7907 -1.9472 -1.3723
  910MOL0     H25573   5.174   1.645   3.586 -1.3849 -0.5835 -0.5254
  910MOL0     H25574   5.075   1.913   3.437 -1.3690 -0.4493  0.3297
  910MOL0     H25575   5.014   1.852   3.598 -0.6507 -0.1017 -0.5741
  910MOL0     H25576   4.816   1.651   3.301 -0.0323  1.6812  0.2006
  910MOL0     H25577   5.562   1.558   3.781  2.3714  2.6454  0.8939
  910MOL0     H25578   5.690   1.374   3.877 -1.0301 -0.1337 -2.4195
  910MOL0     H25579   5.842   1.307   3.800  2.3055  1.4010 -0.0533
  910MOL0     H25580   5.834   1.465   3.896 -2.5850  1.8623  0.5169
  911MOL0     O25581   8.368   9.413  10.469  0.4280  0.7186  0.1138
  911MOL0     C25582   8.356   9.517  10.394 -0.4560 -0.1665  0.4050
  911MOL0     O25583   8.450   9.573  10.331  0.2781  0.9056 -0.3773
  911MOL0     C25584   8.563   9.501  10.322  0.6722 -0.1764  0.1895
  911MOL0     C25585   8.673   9.548  10.393  0.3956  0.8115  0.0109
  911MOL0     C25586   8.796   9.489  10.369  0.1426  0.4719  0.0822
  911MOL0     C25587   8.808   9.378  10.285  0.8900  0.0905 -0.1190
  911MOL0     O25588   8.927   9.318  10.264  0.0073 -0.2573  0.2457
  911MOL0     C25589   9.026   9.318  10.363 -0.3023 -1.1808 -0.2249
  911MOL0     C25590   9.136   9.216  10.331  0.4460 -0.2581 -0.5931
  911MOL0     C25591   9.251   9.243  10.420  0.5717  0.1257  0.7598
  911MOL0     C25592   9.383   9.174  10.371  0.0928 -0.3486 -0.5903
  911MOL0     C25593   9.486   9.192  10.485  0.4576 -0.3378  0.3938
  911MOL0     C25594   9.618   9.125  10.453 -0.8063  0.2299  0.8103
  911MOL0     C25595   9.709   9.131  10.579 -0.1307  0.1218  0.2548
  911MOL0     C25596   9.859   9.136  10.560 -0.8782  0.1597 -0.3257
  911MOL0     N25597   9.911   9.259  10.498 -0.6740  0.3934  0.1016
  911MOL0     C25598   9.899   9.379  10.556  0.1509  0.4367  0.5402
  911MOL0     C25599   9.936   9.467  10.456 -0.0387 -0.1101 -0.5379
  911MOL0     C25600   9.938   9.613  10.443 -0.0990 -0.0959 -0.0697
  911MOL0     C25601  10.073   9.669  10.404  0.0617  0.0378 -0.5417
  911MOL0     C25602  10.189   9.624  10.491 -0.3559 -0.2001  0.3574
  911MOL0     C25603  10.322   9.686  10.452  0.3624  0.5098 -0.1376
  911MOL0     O25604  10.359   9.648  10.315  0.2393  0.4754 -0.8390
  911MOL0     C25605  10.481   9.685  10.268  1.0331  0.0019  0.4809
  911MOL0     C25606  10.500   9.651  10.135 -0.7683  0.1971  0.5397
  911MOL0     C25607  10.615   9.673  10.066  0.2356 -0.3501  0.2122
  911MOL0     C25608  10.638   9.597   9.932 -0.0579  0.6390 -0.0367
  911MOL0     C25609  10.712   9.755  10.122 -0.2097  0.8735  0.1995
  911MOL0     C25610  10.832   9.798  10.061  0.5440 -0.3814  0.2964
  911MOL0     O25611  10.933   9.840  10.147  0.3099  0.3897  0.7053
  911MOL0     C25612  11.062   9.876  10.108 -0.0806 -0.0559 -0.0554
  911MOL0     C25613  11.133   9.956  10.199 -0.8412 -0.0767  0.2451
  911MOL0     C25614  11.260  10.005  10.172 -0.5088  0.2565  0.4421
  911MOL0     C25615  11.314   9.973  10.044  0.1355 -0.0442 -0.7352
  911MOL0     O25616  11.432  10.024   9.989 -0.7423  0.0484 -0.3078
  911MOL0     C25617  11.481  10.146  10.047 -0.6557  0.5401  0.1996
  911MOL0     C25618  11.582  10.229   9.962  1.0818  0.8040 -0.4820
  911MOL0     C25619  11.703  10.138   9.920 -0.0610  0.3445 -0.2041
  911MOL0     C25620  11.805  10.224   9.847 -0.3195 -0.5502  0.6097
  911MOL0     C25621  11.878  10.315   9.947 -0.4087  0.2340 -0.6616
  911MOL0     C25622  11.975  10.418   9.884  0.1573  0.6110 -0.4627
  911MOL0     C25623  12.096  10.359   9.823 -0.3719 -0.6488 -0.3092
  911MOL0     C25624  12.202  10.465   9.803  0.1662  0.1683 -0.6842
  911MOL0    Cl25625  12.145  10.573   9.664  0.1314  0.3978 -0.0146
  911MOL0     C25626  11.242   9.897   9.947 -0.1466  0.0254 -0.0754
  911MOL0     C25627  11.118   9.849   9.982 -0.4266  0.3547 -0.6585
  911MOL0     O25628  10.832   9.818   9.942 -0.6701 -0.5916  0.0414
  911MOL0     C25629  10.690   9.794  10.255  0.4919 -0.3075 -0.1119
  911MOL0     C25630  10.572   9.767  10.327 -0.3947  0.7743  0.6191
  911MOL0     N25631   9.973   9.392  10.347 -0.1350 -0.3798  0.3883
  911MOL0     N25632   9.966   9.263  10.372 -0.1012 -0.0160 -0.4529
  911MOL0     C25633   8.694   9.333  10.224  0.1030  0.6042 -0.3942
  911MOL0     C25634   8.574   9.389  10.238 -0.6006 -0.3675  0.6226
  911MOL0     C25635   8.230   9.600  10.403 -0.4101 -0.6871 -0.4525
  911MOL0     C25636   8.248   9.738  10.425 -0.3097 -1.1500 -0.9925
  911MOL0     C25637   8.137   9.816  10.442  0.1351  0.1548 -0.5699
  911MOL0     C25638   8.006   9.765  10.437  0.4758 -0.6749  0.1290
  911MOL0     O25639   7.901   9.852  10.443 -0.3109  0.0185  0.0241
  911MOL0     C25640   7.782   9.808  10.506  0.3367 -0.9377 -0.0925
  911MOL0     C25641   7.662   9.778  10.405  0.0865  1.1059 -0.3724
  911MOL0     C25642   7.547   9.706  10.478  0.8260 -0.1001  0.1186
  911MOL0     C25643   7.450   9.797  10.564 -0.2490 -0.1817 -0.3172
  911MOL0     C25644   7.506   9.862  10.684 -0.1980  0.3777  0.0240
  911MOL0     C25645   7.539   9.927  10.778 -0.5603 -0.2172  0.4201
  911MOL0     C25646   7.987   9.625  10.409  0.2049  0.6430 -0.3971
  911MOL0     C25647   8.100   9.543  10.399  0.2028 -0.0188  1.0788
  911MOL0     C25648   8.083   9.394  10.354  0.1793 -0.5585  0.6359
  911MOL0     H25649   8.664   9.630  10.464 -1.4131  2.1232 -1.6125
  911MOL0     H25650   8.884   9.524  10.422 -0.3377  2.4484 -0.3362
  911MOL0     H25651   8.979   9.307  10.461 -0.2425  0.3623  0.0042
  911MOL0     H25652   9.067   9.419  10.360 -0.2454 -1.1754 -3.8820
  911MOL0     H25653   9.100   9.113  10.329  0.4289 -0.2687  0.0253
  911MOL0     H25654   9.167   9.241  10.229 -0.7794  2.1811 -0.4411
  911MOL0     H25655   9.277   9.350  10.424 -0.5536  0.5463 -1.6705
  911MOL0     H25656   9.233   9.206  10.521  0.5169  0.3882  0.8478
  911MOL0     H25657   9.364   9.068  10.355 -3.0922  0.1518 -0.8716
  911MOL0     H25658   9.411   9.224  10.278 -1.0065 -0.2866 -0.9096
  911MOL0     H25659   9.443   9.142  10.572 -0.5431 -1.4387 -0.6975
  911MOL0     H25660   9.490   9.296  10.517  0.6657 -0.7864  1.9036
  911MOL0     H25661   9.594   9.025  10.413  0.1159  0.3768 -0.1668
  911MOL0     H25662   9.670   9.182  10.376  0.8225  1.4881  2.7568
  911MOL0     H25663   9.691   9.035  10.627  0.5482  0.0373  0.3536
  911MOL0     H25664   9.691   9.210  10.652  0.3681  1.4978 -1.0412
  911MOL0     H25665   9.914   9.124  10.655 -0.4830 -2.6727 -0.8287
  911MOL0     H25666   9.888   9.048  10.502  1.0525  0.0851  0.6462
  911MOL0     H25667   9.848   9.397  10.650 -1.7245  1.1676 -0.5545
  911MOL0     H25668   9.913   9.664  10.537  3.4272  0.8226  0.5392
  911MOL0     H25669   9.869   9.646  10.365 -0.6186 -1.0943 -0.0516
  911MOL0     H25670  10.101   9.646  10.301 -0.0597 -0.0205 -0.5616
  911MOL0     H25671  10.062   9.776  10.425 -0.8654 -0.4495  1.7733
  911MOL0     H25672  10.160   9.662  10.589 -5.0358 -1.6596 -0.1989
  911MOL0     H25673  10.194   9.516  10.512 -1.1240  0.0487  1.9579
  911MOL0     H25674  10.303   9.794  10.443  2.0142  0.8879  0.5463
  911MOL0     H25675  10.395   9.657  10.529  0.9144 -0.3537 -0.9743
  911MOL0     H25676  10.424   9.583  10.096 -0.8662 -0.2569  1.4865
  911MOL0     H25677  10.626   9.488   9.938 -1.6556  0.8538  1.7055
  911MOL0     H25678  10.745   9.608   9.910  0.7572 -1.4695  2.3512
  911MOL0     H25679  10.575   9.647   9.858  0.2484 -0.7256 -1.2679
  911MOL0     H25680  11.088   9.962  10.297 -0.2148 -1.1876  0.6102
  911MOL0     H25681  11.325  10.060  10.240  2.4013 -2.4381  0.0416
  911MOL0     H25682  11.396  10.213  10.063 -1.2631  0.1284 -1.1864
  911MOL0     H25683  11.520  10.123  10.147  3.2798  2.4011 -0.7057
  911MOL0     H25684  11.531  10.263   9.871 -0.1717  0.9761  0.2675
  911MOL0     H25685  11.591  10.317  10.025 -0.2369  0.3098  0.4548
  911MOL0     H25686  11.676  10.048   9.864 -1.6938  0.0576  0.9748
  911MOL0     H25687  11.748  10.103  10.013 -0.3752  0.5133  0.0138
  911MOL0     H25688  11.752  10.296   9.785  2.0229  3.1863  2.5750
  911MOL0     H25689  11.863  10.158   9.782 -0.2907 -0.6526  0.7379
  911MOL0     H25690  11.797  10.371   9.995 -1.1200 -1.0676 -0.2857
  911MOL0     H25691  11.927  10.256  10.025 -2.7846  0.8021  1.3978
  911MOL0     H25692  12.000  10.494   9.958 -0.8312  0.0029  0.5353
  911MOL0     H25693  11.923  10.470   9.803 -0.7284 -1.4504 -1.2987
  911MOL0     H25694  12.078  10.323   9.721  2.6715  0.2093 -1.2558
  911MOL0     H25695  12.138  10.284   9.891 -1.7061 -0.6792  0.4994
  911MOL0     H25696  12.299  10.422   9.776 -0.4009 -1.0719 -0.7985
  911MOL0     H25697  12.219  10.528   9.891 -1.4135  0.5453 -0.6153
  911MOL0     H25698  11.276   9.885   9.845  1.6470 -2.0610  0.6758
  911MOL0     H25699  11.068   9.792   9.904 -0.9793  0.4614 -0.3879
  911MOL0     H25700  10.763   9.843  10.319 -0.1795 -0.7132  1.0023
  911MOL0     H25701  10.550   9.807  10.425 -1.3056 -0.3592  0.9091
  911MOL0     H25702   8.688   9.242  10.165  0.5859  0.1709  0.2030
  911MOL0     H25703   8.486   9.367  10.179  0.1371 -0.9719 -0.2704
  911MOL0     H25704   8.340   9.791  10.447 -2.2750  1.4437  1.8503
  911MOL0     H25705   8.162   9.919  10.466  1.8083 -0.4943  0.7448
  911MOL0     H25706   7.800   9.721  10.569  0.5393  0.1848  1.4638
  911MOL0     H25707   7.756   9.889  10.575  1.8322  1.3914 -2.0647
  911MOL0     H25708   7.710   9.713  10.332  0.7030  2.8424 -1.5835
  911MOL0     H25709   7.624   9.873  10.366 -2.9163  0.6612  1.1564
  911MOL0     H25710   7.485   9.663  10.398  1.3982 -1.2476  0.2739
  911MOL0     H25711   7.576   9.613  10.529  0.0333 -0.4665 -0.0710
  911MOL0     H25712   7.367   9.737  10.604  0.6965  0.1800  2.3948
  911MOL0     H25713   7.413   9.876  10.498 -0.1170 -0.6262 -0.9339
  911MOL0     H25714   7.569   9.990  10.859 -0.5286  0.2545  0.0481
  911MOL0     H25715   7.887   9.584  10.403  0.2994  0.2397  0.4836
  911MOL0     H25716   8.143   9.373  10.265 -1.2342  1.3031 -0.8337
  911MOL0     H25717   8.105   9.328  10.439  1.9516  0.8837  1.3609
  911MOL0     H25718   7.976   9.376  10.338 -0.0021 -0.1211  1.2926
  912MOL0     O25719   4.496   2.869   2.516  0.4434 -0.2275 -0.0316
  912MOL0     C25720   4.452   2.982   2.520  0.6998 -1.2212 -0.2522
  912MOL0     O25721   4.521   3.093   2.551 -0.2139 -0.3334 -0.6792
  912MOL0     C25722   4.654   3.082   2.569  0.5131  0.3083 -0.3119
  912MOL0     C25723   4.741   3.027   2.463  0.6132 -0.7025 -0.7259
  912MOL0     C25724   4.875   3.025   2.492  0.4497 -1.0077  1.0142
  912MOL0     C25725   4.930   3.078   2.613 -0.7145  1.1907  0.8605
  912MOL0     O25726   5.062   3.073   2.644  0.0609 -0.3306 -0.0084
  912MOL0     C25727   5.154   2.989   2.565  0.7678 -1.1015 -0.4901
  912MOL0     C25728   5.285   2.993   2.638  0.1686  0.1433  0.7063
  912MOL0     C25729   5.385   2.904   2.568 -0.1094  0.1208 -0.0821
  912MOL0     C25730   5.500   2.872   2.656 -0.0581 -0.3422  0.7298
  912MOL0     C25731   5.585   3.002   2.670 -0.1613  0.5151 -0.9550
  912MOL0     C25732   5.721   2.968   2.746  0.5140  0.0680 -0.3736
  912MOL0     C25733   5.803   3.100   2.756 -0.2061  0.0580 -0.3174
  912MOL0     C25734   5.936   3.076   2.822 -0.5253  0.2336  0.5500
  912MOL0     N25735   6.003   3.197   2.854 -0.1527  0.3390  0.3234
  912MOL0     C25736   6.079   3.256   2.764  0.0256  0.2166  0.2696
  912MOL0     C25737   6.139   3.353   2.829  0.6892  0.2086  0.2485
  912MOL0     C25738   6.231   3.450   2.778 -0.7499  0.4467 -0.5019
  912MOL0     C25739   6.368   3.390   2.739 -0.4145  0.5420  1.0463
  912MOL0     C25740   6.473   3.501   2.725 -0.8968 -0.1653 -0.2968
  912MOL0     C25741   6.608   3.441   2.694 -0.6608  0.2023  0.0123
  912MOL0     O25742   6.708   3.545   2.663 -0.1627  0.2578  0.6244
  912MOL0     C25743   6.780   3.604   2.758  0.5591 -0.1951 -0.1338
  912MOL0     C25744   6.743   3.725   2.808  0.0092  0.1284 -0.1614
  912MOL0     C25745   6.820   3.804   2.887  0.5936  0.0315  0.2432
  912MOL0     C25746   6.752   3.923   2.938  0.2974  0.2282  0.6244
  912MOL0     C25747   6.955   3.756   2.914 -0.0260 -0.1093 -0.0209
  912MOL0     C25748   7.047   3.830   3.005 -0.1445 -0.8530 -0.3002
  912MOL0     O25749   7.167   3.777   3.030  0.8362  0.1762  0.1303
  912MOL0     C25750   7.268   3.833   3.105 -0.0300 -0.1483  0.4825
  912MOL0     C25751   7.272   3.959   3.168  0.1552  0.2546  0.3175
  912MOL0     C25752   7.397   4.009   3.211  0.4257 -0.8089 -0.3163
  912MOL0     C25753   7.513   3.933   3.216 -0.6180  0.1633 -0.9938
  912MOL0     O25754   7.632   3.973   3.273  0.3901 -0.0989  0.0692
  912MOL0     C25755   7.656   4.114   3.305 -0.0984 -0.0064  0.6114
  912MOL0     C25756   7.790   4.124   3.368 -0.4703 -0.1129  0.0339
  912MOL0     C25757   7.817   4.277   3.384 -0.0285  0.7277 -0.3012
  912MOL0     C25758   7.953   4.290   3.460  0.7213 -0.6479 -0.0346
  912MOL0     C25759   7.974   4.434   3.485  0.0192  0.3094  0.0082
  912MOL0     C25760   7.897   4.498   3.600 -0.2893 -0.2586 -0.3941
  912MOL0     C25761   7.929   4.649   3.612  0.0368  0.7956  1.1334
  912MOL0     C25762   7.832   4.725   3.699 -0.2209  0.4524  0.2862
  912MOL0    Cl25763   7.846   4.666   3.870  0.0011  0.2934 -0.1949
  912MOL0     C25764   7.500   3.804   3.170 -0.2904 -0.2258  0.2114
  912MOL0     C25765   7.383   3.755   3.119 -0.9717 -0.6561  1.3501
  912MOL0     O25766   6.997   3.929   3.058  0.1842  0.0469  0.5142
  912MOL0     C25767   7.001   3.638   2.864 -0.2153  1.2559 -0.3433
  912MOL0     C25768   6.911   3.561   2.779 -0.3387 -0.0270  0.3042
  912MOL0     N25769   6.078   3.361   2.959  0.5334  0.0731  0.3973
  912MOL0     N25770   5.994   3.270   2.968  0.9996  0.2265  0.1125
  912MOL0     C25771   4.845   3.140   2.703  0.7967  0.6859 -0.2686
  912MOL0     C25772   4.709   3.148   2.671 -0.8379 -0.1149  0.0408
  912MOL0     C25773   4.303   3.004   2.483  0.1587  0.2474  0.4466
  912MOL0     C25774   4.257   3.134   2.480  0.1131  0.4438 -0.2927
  912MOL0     C25775   4.123   3.161   2.443 -0.3265  0.0782 -0.1908
  912MOL0     C25776   4.038   3.065   2.396  0.3463  0.4971 -0.2535
  912MOL0     O25777   3.925   3.103   2.334  0.0957  0.1261  0.4577
  912MOL0     C25778   3.813   3.031   2.378 -0.3188 -0.2340 -0.3948
  912MOL0     C25779   3.693   3.118   2.390 -0.1054  0.1856 -0.5563
  912MOL0     C25780   3.561   3.042   2.425 -0.9697 -0.2221 -0.0036
  912MOL0     C25781   3.439   3.136   2.465  0.3793  0.0449 -1.1591
  912MOL0     C25782   3.423   3.247   2.365 -0.6250 -0.4486 -0.5314
  912MOL0     C25783   3.399   3.334   2.287 -0.1521  0.0895  0.2404
  912MOL0     C25784   4.092   2.929   2.393 -0.3032  0.2671  0.0635
  912MOL0     C25785   4.219   2.894   2.437 -0.2481  0.2566 -0.7558
  912MOL0     C25786   4.260   2.742   2.430  0.2444  0.4302 -0.4097
  912MOL0     H25787   4.695   2.974   2.380  0.3319  0.0799 -1.0769
  912MOL0     H25788   4.944   2.977   2.422  0.7140  1.8525 -0.8366
  912MOL0     H25789   5.161   3.021   2.461  0.3249 -2.5926 -1.0016
  912MOL0     H25790   5.117   2.887   2.551 -2.2445 -0.3803  1.3816
  912MOL0     H25791   5.325   3.094   2.644  3.7051 -1.0397 -0.4133
  912MOL0     H25792   5.284   2.941   2.734  0.5765 -0.2149  0.5198
  912MOL0     H25793   5.338   2.807   2.550 -0.3529 -0.1859  2.0276
  912MOL0     H25794   5.431   2.945   2.477  0.8930 -0.2760  0.2303
  912MOL0     H25795   5.472   2.838   2.756 -0.0136 -1.5524  0.3394
  912MOL0     H25796   5.558   2.799   2.599 -2.3361 -0.0230 -2.2149
  912MOL0     H25797   5.539   3.083   2.728  1.1608 -0.8311  2.2078
  912MOL0     H25798   5.603   3.047   2.571  1.3293  1.3730 -0.3355
  912MOL0     H25799   5.688   2.934   2.845 -1.2530  1.5728 -0.3850
  912MOL0     H25800   5.776   2.894   2.687  2.2026  1.0994 -0.1497
  912MOL0     H25801   5.745   3.172   2.815 -0.4289 -0.8425  0.6091
  912MOL0     H25802   5.830   3.145   2.661  1.1934  1.5136  0.7240
  912MOL0     H25803   5.918   3.029   2.919  1.1573  2.8796  2.2672
  912MOL0     H25804   5.998   3.016   2.754  1.0520  0.5739  1.6479
  912MOL0     H25805   6.095   3.226   2.661  1.4782 -0.8921  0.7890
  912MOL0     H25806   6.234   3.524   2.858 -1.1015  0.3121 -0.3629
  912MOL0     H25807   6.187   3.494   2.688 -3.6894 -1.6712 -0.2453
  912MOL0     H25808   6.400   3.325   2.821 -1.7379 -0.4041  0.8291
  912MOL0     H25809   6.362   3.329   2.649  1.1971  1.9867 -0.1188
  912MOL0     H25810   6.449   3.570   2.644  1.0857  1.5505  0.4685
  912MOL0     H25811   6.483   3.559   2.818 -0.2125 -2.3894  1.0804
  912MOL0     H25812   6.642   3.382   2.779 -0.8808 -0.1180 -0.1210
  912MOL0     H25813   6.603   3.374   2.608  1.1925  0.9816 -0.7504
  912MOL0     H25814   6.646   3.758   2.774 -1.0534 -3.0496 -0.5142
  912MOL0     H25815   6.790   4.017   2.898 -1.2592  0.1246 -1.2074
  912MOL0     H25816   6.756   3.916   3.047  3.2541 -2.2474  0.4976
  912MOL0     H25817   6.646   3.929   2.911 -0.2423  1.4210  2.7792
  912MOL0     H25818   7.184   4.023   3.162 -0.5023 -0.7487 -2.6008
  912MOL0     H25819   7.406   4.107   3.256  0.1033 -1.3470  0.9616
  912MOL0     H25820   7.642   4.188   3.225 -3.9461 -0.3821  0.7216
  912MOL0     H25821   7.588   4.154   3.381  1.1229  2.5470  0.4659
  912MOL0     H25822   7.780   4.091   3.472  1.5162  0.6150  0.5032
  912MOL0     H25823   7.863   4.066   3.310 -2.0420  0.4086 -2.6254
  912MOL0     H25824   7.733   4.318   3.440 -0.7275  1.4620 -1.8056
  912MOL0     H25825   7.815   4.333   3.290 -2.8376  1.0484 -0.1413
  912MOL0     H25826   8.034   4.249   3.399 -1.0343 -1.1990 -2.1214
  912MOL0     H25827   7.957   4.241   3.558 -0.9911 -0.1898  0.3114
  912MOL0     H25828   8.081   4.446   3.503  0.3836  2.3884 -2.9133
  912MOL0     H25829   7.952   4.499   3.400  0.2077  0.8305  0.3527
  912MOL0     H25830   7.925   4.469   3.701 -1.4112  1.4715  0.4701
  912MOL0     H25831   7.789   4.479   3.593 -0.3478 -0.3265  0.5857
  912MOL0     H25832   7.940   4.690   3.511  2.2739 -0.8644  0.6357
  912MOL0     H25833   8.031   4.666   3.646  0.4070  1.3484 -0.1663
  912MOL0     H25834   7.731   4.727   3.658  1.0971  0.6332 -3.3603
  912MOL0     H25835   7.866   4.829   3.704  0.9284  0.1709 -1.0103
  912MOL0     H25836   7.589   3.742   3.172  1.1284  1.6685 -1.1392
  912MOL0     H25837   7.392   3.650   3.094  1.6146 -0.5068  1.4245
  912MOL0     H25838   7.105   3.609   2.872 -0.5902  0.2055  1.1805
  912MOL0     H25839   6.945   3.469   2.732 -0.0127  0.0012  0.4856
  912MOL0     H25840   4.887   3.183   2.793  2.2266  0.7695 -0.9415
  912MOL0     H25841   4.641   3.199   2.739 -0.2458 -0.0318  0.5741
  912MOL0     H25842   4.314   3.224   2.503  1.1696 -0.2579 -0.0904
  912MOL0     H25843   4.097   3.267   2.442  1.7834  0.6700 -2.4988
  912MOL0     H25844   3.807   2.959   2.296  1.9204 -0.6123 -0.3065
  912MOL0     H25845   3.828   2.990   2.478 -1.6821 -0.2471 -0.1826
  912MOL0     H25846   3.683   3.172   2.295  2.2329 -1.0256 -1.6057
  912MOL0     H25847   3.717   3.191   2.468 -2.2933 -1.1554  1.4691
  912MOL0     H25848   3.534   2.994   2.330 -1.1181  3.4909 -2.0437
  912MOL0     H25849   3.575   2.975   2.510  1.1750  0.3108  0.1285
  912MOL0     H25850   3.453   3.176   2.565  1.8177 -2.0501 -0.4410
  912MOL0     H25851   3.349   3.074   2.463 -0.0304  0.4330  1.6644
  912MOL0     H25852   3.382   3.409   2.213  0.8324 -1.2863 -1.4625
  912MOL0     H25853   4.029   2.853   2.348  0.8110  0.8428 -2.6071
  912MOL0     H25854   4.314   2.730   2.336  0.1658 -1.9064 -0.2142
  912MOL0     H25855   4.330   2.706   2.506  3.0409 -1.4599 -3.6560
  912MOL0     H25856   4.171   2.679   2.423  0.4542  0.3511 -3.5244
  913MOL0     O25857  10.181   7.764   4.028  0.1741  0.2030 -0.1257
  913MOL0     C25858  10.112   7.801   3.931  0.0835  0.5668  0.8836
  913MOL0     O25859  10.156   7.809   3.802 -0.2582  0.2265 -0.4070
  913MOL0     C25860  10.288   7.820   3.771 -0.5745  0.0444  0.4087
  913MOL0     C25861  10.378   7.913   3.827  0.2193 -0.4325 -0.1429
  913MOL0     C25862  10.500   7.930   3.769  0.1023 -1.0237 -0.0231
  913MOL0     C25863  10.539   7.846   3.662 -0.2170 -0.2993 -0.2329
  913MOL0     O25864  10.667   7.850   3.615  0.2401 -0.2830  0.1503
  913MOL0     C25865  10.696   7.855   3.472 -0.5660 -0.5740  0.2459
  913MOL0     C25866  10.682   7.997   3.417  0.3365  1.1793  0.3225
  913MOL0     C25867  10.800   8.070   3.478 -0.1132  0.2280  0.6246
  913MOL0     C25868  10.822   8.216   3.423  0.6938  0.0115  0.2969
  913MOL0     C25869  10.931   8.291   3.510 -1.3333 -0.3820  0.0362
  913MOL0     C25870  11.064   8.219   3.494 -0.5890  0.0094 -0.1823
  913MOL0     C25871  11.170   8.298   3.578  0.2126 -0.6906  0.8472
  913MOL0     C25872  11.310   8.236   3.559  0.0361  0.6259  0.0127
  913MOL0     N25873  11.410   8.320   3.624 -0.4776  0.2446  0.3548
  913MOL0     C25874  11.473   8.290   3.742  0.4792 -0.2198 -0.1753
  913MOL0     C25875  11.573   8.387   3.745  0.2798 -0.1735  0.1075
  913MOL0     C25876  11.672   8.416   3.860 -0.2759  0.2318  0.1627
  913MOL0     C25877  11.812   8.439   3.812 -0.5111  0.1603 -0.1619
  913MOL0     C25878  11.903   8.459   3.924 -0.3104 -0.3120 -0.5796
  913MOL0     C25879  12.038   8.520   3.895 -0.7830  0.0525 -0.1485
  913MOL0     O25880  12.136   8.415   3.864 -0.2928  0.3255 -0.4245
  913MOL0     C25881  12.267   8.452   3.867  0.4462 -0.6208 -1.4408
  913MOL0     C25882  12.363   8.352   3.892  0.7621 -0.0023 -1.3699
  913MOL0     C25883  12.500   8.382   3.890 -0.2948  0.8187  0.0264
  913MOL0     C25884  12.583   8.257   3.890  0.0592  0.2662 -0.5086
  913MOL0     C25885  12.547   8.516   3.872 -0.0301 -0.6379  0.6755
  913MOL0     C25886  12.692   8.555   3.890  0.0697  0.4862  1.2205
  913MOL0     O25887  12.727   8.680   3.851 -0.5851 -0.4437  0.3428
  913MOL0     C25888  12.849   8.706   3.791  0.0941  0.3058  1.0527
  913MOL0     C25889  12.930   8.607   3.730 -0.2105 -0.0211  0.2981
  913MOL0     C25890  13.052   8.637   3.684 -0.2738 -0.0815 -0.4439
  913MOL0     C25891  13.101   8.769   3.682  0.1714  0.3218 -0.1360
  913MOL0     O25892  13.222   8.801   3.632 -0.4583  0.0094  0.7524
  913MOL0     C25893  13.345   8.743   3.675 -0.4144 -0.4361 -0.1649
  913MOL0     C25894  13.420   8.843   3.765  0.4448 -0.3782 -0.4026
  913MOL0     C25895  13.561   8.782   3.791 -0.7952 -0.0521 -0.6497
  913MOL0     C25896  13.659   8.886   3.849  0.6031 -0.3239 -0.0246
  913MOL0     C25897  13.779   8.812   3.916  0.0873 -0.6923 -0.0889
  913MOL0     C25898  13.894   8.909   3.942  0.0128  0.4618  0.2565
  913MOL0     C25899  14.035   8.843   3.917 -0.3118 -0.1428 -0.5885
  913MOL0     C25900  14.148   8.944   3.921  0.1504  0.0946  0.0865
  913MOL0    Cl25901  14.319   8.880   3.890 -0.2604  0.4621 -0.0102
  913MOL0     C25902  13.017   8.870   3.734 -0.1115 -0.3079 -0.6217
  913MOL0     C25903  12.888   8.838   3.777  0.2903  0.2825 -0.4624
  913MOL0     O25904  12.771   8.472   3.932  0.4244 -0.6585 -0.3672
  913MOL0     C25905  12.445   8.612   3.861  0.1094  0.5734 -0.3663
  913MOL0     C25906  12.310   8.585   3.850  0.2182  0.2023  0.1362
  913MOL0     N25907  11.560   8.467   3.634 -1.5709  0.5835  0.2861
  913MOL0     N25908  11.469   8.426   3.558  0.5834  0.3277 -0.5504
  913MOL0     C25909  10.451   7.756   3.602  0.5382 -0.5840  0.0399
  913MOL0     C25910  10.332   7.735   3.664 -0.9499 -0.4365 -0.2687
  913MOL0     C25911   9.965   7.837   3.953 -0.1987  0.2693 -0.4516
  913MOL0     C25912   9.906   7.927   3.869 -0.7528 -0.0532  0.3467
  913MOL0     C25913   9.775   7.981   3.884 -0.0067  0.9921  0.1864
  913MOL0     C25914   9.690   7.925   3.977 -0.1537  0.2650 -0.4919
  913MOL0     O25915   9.563   7.964   3.974  0.0875 -0.0999  0.3161
  913MOL0     C25916   9.473   7.936   4.083  0.7818 -0.1994  0.5973
  913MOL0     C25917   9.416   7.795   4.072  0.1045 -0.1785  0.3611
  913MOL0     C25918   9.321   7.760   4.192 -0.0589  0.1191  0.6121
  913MOL0     C25919   9.356   7.816   4.325 -0.4058 -0.0500 -0.1050
  913MOL0     C25920   9.465   7.739   4.382 -0.1827  0.6890  0.1441
  913MOL0     C25921   9.543   7.660   4.440 -0.4740  0.3617 -0.1480
  913MOL0     C25922   9.748   7.829   4.065  0.7557 -0.2877  0.2085
  913MOL0     C25923   9.886   7.784   4.056  0.0675  0.3565  1.0413
  913MOL0     C25924   9.930   7.684   4.162  0.1796 -0.7964 -0.6414
  913MOL0     H25925  10.361   7.975   3.915  1.1898 -2.2757  1.4109
  913MOL0     H25926  10.571   8.006   3.798 -0.0003  0.7447 -3.8644
  913MOL0     H25927  10.628   7.791   3.416 -2.6716  1.4153  0.3654
  913MOL0     H25928  10.800   7.819   3.470  0.0834  1.1920  0.3832
  913MOL0     H25929  10.699   7.996   3.309 -0.6275  1.6121  0.1504
  913MOL0     H25930  10.589   8.052   3.436 -0.6677  0.7291 -2.7196
  913MOL0     H25931  10.789   8.074   3.586 -0.2277  1.4926  0.5766
  913MOL0     H25932  10.891   8.012   3.461 -0.0356 -0.4554  3.1096
  913MOL0     H25933  10.845   8.219   3.316  2.4690 -4.1396  0.3858
  913MOL0     H25934  10.731   8.276   3.435 -0.3424 -0.7589 -2.7238
  913MOL0     H25935  10.899   8.304   3.614 -1.3225 -1.1018  0.1385
  913MOL0     H25936  10.938   8.386   3.456  0.8480 -0.5437 -0.0389
  913MOL0     H25937  11.066   8.117   3.533 -4.2935 -0.2118 -0.1786
  913MOL0     H25938  11.093   8.209   3.389  0.6232 -1.5157  0.2603
  913MOL0     H25939  11.133   8.297   3.681 -1.1820 -1.2935  0.3722
  913MOL0     H25940  11.156   8.402   3.545 -0.6000 -0.9270  0.4151
  913MOL0     H25941  11.315   8.137   3.606 -0.5535  0.8444  0.5588
  913MOL0     H25942  11.331   8.220   3.453 -2.0044 -0.5780 -0.2558
  913MOL0     H25943  11.459   8.205   3.809 -1.0490  0.9406  1.0661
  913MOL0     H25944  11.668   8.338   3.937  2.7051  1.3195  1.5870
  913MOL0     H25945  11.641   8.512   3.902 -1.5757  0.0958 -0.4220
  913MOL0     H25946  11.838   8.353   3.750  1.4208 -1.0298  2.1639
  913MOL0     H25947  11.809   8.530   3.751 -1.5212  0.7339  0.7133
  913MOL0     H25948  11.854   8.535   3.986  1.6348 -1.2344  2.2884
  913MOL0     H25949  11.920   8.368   3.981  1.4780  0.7035  0.6110
  913MOL0     H25950  12.029   8.595   3.816  1.5904 -0.6717 -1.1736
  913MOL0     H25951  12.062   8.571   3.989 -0.4716  0.5925 -0.5142
  913MOL0     H25952  12.325   8.251   3.901  1.2333 -0.1065 -0.4876
  913MOL0     H25953  12.604   8.236   3.995 -0.7527 -1.1420 -0.6008
  913MOL0     H25954  12.674   8.258   3.830  0.5243  2.7671  0.1221
  913MOL0     H25955  12.523   8.172   3.858 -0.2228  0.0078  0.6551
  913MOL0     H25956  12.892   8.505   3.725 -0.5793  0.1633 -0.8701
  913MOL0     H25957  13.120   8.564   3.639  0.4709  0.6571 -0.5417
  913MOL0     H25958  13.323   8.650   3.728  2.8575 -0.4325  1.4861
  913MOL0     H25959  13.409   8.727   3.588 -0.1646 -2.9610  0.4124
  913MOL0     H25960  13.438   8.933   3.705  0.1587  0.2743  0.4754
  913MOL0     H25961  13.363   8.863   3.856  0.8214 -1.1217  0.0067
  913MOL0     H25962  13.609   8.746   3.699 -0.4673 -0.3365 -0.3704
  913MOL0     H25963  13.552   8.697   3.859 -0.4155  1.2031  1.0492
  913MOL0     H25964  13.609   8.947   3.924  1.4639 -0.2470  0.4965
  913MOL0     H25965  13.685   8.960   3.772  0.3202  0.1921  0.3698
  913MOL0     H25966  13.748   8.758   4.007 -0.4400  0.3510  0.3741
  913MOL0     H25967  13.812   8.735   3.846 -1.4042 -1.2269 -0.2429
  913MOL0     H25968  13.892   8.936   4.047 -3.0884 -0.5140  0.5591
  913MOL0     H25969  13.882   9.001   3.884 -1.2480  1.5537  2.1583
  913MOL0     H25970  14.024   8.788   3.823  0.8233 -1.1411 -0.1561
  913MOL0     H25971  14.059   8.777   4.000 -0.2479  1.9489  1.1441
  913MOL0     H25972  14.164   8.970   4.026 -1.3244 -0.3353  0.4449
  913MOL0     H25973  14.125   9.033   3.863  3.3037  0.4925 -0.7437
  913MOL0     H25974  13.054   8.972   3.726  2.6178 -1.0509  1.2512
  913MOL0     H25975  12.819   8.912   3.816 -2.6452 -2.3636 -0.1951
  913MOL0     H25976  12.479   8.715   3.862  3.3411 -0.3653  1.6014
  913MOL0     H25977  12.244   8.661   3.808 -2.2242 -1.2528  1.1313
  913MOL0     H25978  10.472   7.691   3.517 -3.1864 -0.9686 -0.7303
  913MOL0     H25979  10.268   7.651   3.637 -3.0028  1.0996 -0.4746
  913MOL0     H25980   9.969   7.957   3.787  2.1510 -2.8985  1.3321
  913MOL0     H25981   9.731   8.054   3.817 -1.3806 -1.3829 -1.6737
  913MOL0     H25982   9.534   7.954   4.172 -0.6902  0.2097  1.5500
  913MOL0     H25983   9.393   8.010   4.088 -0.4762 -1.5952  2.7376
  913MOL0     H25984   9.497   7.722   4.078 -0.7406 -1.3753 -1.6823
  913MOL0     H25985   9.367   7.778   3.976  0.1432 -1.1121  0.4969
  913MOL0     H25986   9.234   7.799   4.139  1.2297 -1.2836 -2.8020
  913MOL0     H25987   9.315   7.651   4.203 -1.0965  0.2642  1.8021
  913MOL0     H25988   9.271   7.819   4.394  0.5949 -0.6416  1.1793
  913MOL0     H25989   9.384   7.920   4.308 -0.4685 -0.2926 -1.9336
  913MOL0     H25990   9.611   7.598   4.494  0.2800  0.5427 -0.8610
  913MOL0     H25991   9.684   7.789   4.144  0.1497  1.3601  0.5982
  913MOL0     H25992   9.944   7.590   4.107 -1.1132 -0.3371 -1.7992
  913MOL0     H25993  10.027   7.712   4.205  0.0786 -1.8703  0.3178
  913MOL0     H25994   9.851   7.667   4.235  0.6801 -2.2859 -0.4066
  914MOL0     O25995   4.206  11.054   3.122  0.3153  0.0843 -0.4886
  914MOL0     C25996   4.133  11.107   3.038 -0.1211  0.4502  0.1902
  914MOL0     O25997   4.176  11.199   2.945  0.3507  0.0428 -0.4335
  914MOL0     C25998   4.303  11.229   2.956 -0.9207  0.2491 -0.5869
  914MOL0     C25999   4.358  11.301   3.066  0.6057  0.3782 -0.7654
  914MOL0     C26000   4.493  11.320   3.081 -0.3990  0.0776  0.1691
  914MOL0     C26001   4.587  11.280   2.986 -0.6822 -0.6587  0.2854
  914MOL0     O26002   4.728  11.292   3.002  0.2636 -0.4400 -0.2513
  914MOL0     C26003   4.779  11.390   3.096 -0.2055  0.0029  0.4107
  914MOL0     C26004   4.926  11.419   3.075 -0.7245  0.1659  0.6591
  914MOL0     C26005   5.006  11.288   3.079 -0.0191  0.3758  0.3767
  914MOL0     C26006   5.152  11.309   3.079 -1.1491 -0.5687  0.3761
  914MOL0     C26007   5.227  11.173   3.086  0.0039  0.5868 -0.5711
  914MOL0     C26008   5.373  11.185   3.110 -0.6097  0.4364 -0.5994
  914MOL0     C26009   5.430  11.032   3.135 -0.0791 -0.2189  0.4352
  914MOL0     C26010   5.577  11.040   3.174  0.5999  0.1105  0.6372
  914MOL0     N26011   5.637  10.909   3.193  0.2277  0.1741 -0.6009
  914MOL0     C26012   5.611  10.816   3.292 -0.1730 -0.4967  0.0729
  914MOL0     C26013   5.682  10.708   3.262  0.1954  0.2131 -0.1950
  914MOL0     C26014   5.698  10.588   3.355  0.4163 -0.0511  0.3123
  914MOL0     C26015   5.584  10.574   3.457 -0.4809 -0.1138 -0.5595
  914MOL0     C26016   5.586  10.443   3.532 -1.2056  0.0048 -0.2205
  914MOL0     C26017   5.448  10.397   3.578  0.8309  0.5076  0.5857
  914MOL0     O26018   5.380  10.505   3.640  0.0791  0.2139 -0.7881
  914MOL0     C26019   5.386  10.525   3.778 -0.0241  0.0188 -0.0019
  914MOL0     C26020   5.342  10.644   3.829  0.0006 -0.2597 -0.2062
  914MOL0     C26021   5.367  10.692   3.962 -0.8225 -0.2903  0.7391
  914MOL0     C26022   5.315  10.833   4.001 -0.2918  0.6657 -0.3913
  914MOL0     C26023   5.433  10.603   4.052 -0.5135 -0.4247 -0.5741
  914MOL0     C26024   5.457  10.632   4.201  0.5600  0.0073 -0.5549
  914MOL0     O26025   5.449  10.759   4.237  0.4819 -0.0782 -0.2227
  914MOL0     C26026   5.457  10.776   4.372 -0.3818  0.3728  0.6642
  914MOL0     C26027   5.584  10.772   4.436 -0.2481  0.5557  0.9195
  914MOL0     C26028   5.595  10.795   4.574  0.8133 -0.4673  0.1425
  914MOL0     C26029   5.479  10.838   4.646 -0.2367  0.4714  0.1077
  914MOL0     O26030   5.480  10.847   4.782  0.0855 -0.9543 -0.6108
  914MOL0     C26031   5.587  10.783   4.856 -0.1800 -0.3144  0.0530
  914MOL0     C26032   5.579  10.802   5.008  0.0616 -1.1403 -0.5291
  914MOL0     C26033   5.509  10.940   5.046 -0.0724  0.4571  0.8860
  914MOL0     C26034   5.526  10.991   5.184 -0.0420  0.3365 -0.2136
  914MOL0     C26035   5.665  11.021   5.226  0.0109 -0.7210  0.8760
  914MOL0     C26036   5.673  11.090   5.354 -0.3094  0.4421  0.1819
  914MOL0     C26037   5.809  11.094   5.419 -0.5988 -0.5808  0.5776
  914MOL0     C26038   5.909  11.173   5.325 -0.8389  0.5881 -0.1125
  914MOL0    Cl26039   6.076  11.159   5.381  0.6297  0.2646  0.0784
  914MOL0     C26040   5.353  10.841   4.580 -0.7643 -0.6950 -0.0825
  914MOL0     C26041   5.347  10.807   4.442 -0.0998  0.3317  0.6824
  914MOL0     O26042   5.473  10.533   4.275  0.0790 -0.1072 -0.2707
  914MOL0     C26043   5.475  10.478   4.000  0.2634  0.5184 -0.0556
  914MOL0     C26044   5.444  10.434   3.870  0.2040  0.1178 -0.3117
  914MOL0     N26045   5.754  10.729   3.146 -0.3035  0.3420  0.6123
  914MOL0     N26046   5.719  10.849   3.104 -0.4389  0.4068 -0.0843
  914MOL0     C26047   4.537  11.219   2.871  0.1492  0.9840 -0.8826
  914MOL0     C26048   4.401  11.202   2.858 -0.1998 -0.0170  0.0244
  914MOL0     C26049   3.991  11.071   3.034 -0.7412  0.9300  0.9086
  914MOL0     C26050   3.907  11.164   2.972 -0.6330 -0.4459  0.3572
  914MOL0     C26051   3.773  11.140   2.949  0.4440 -0.6385 -0.0720
  914MOL0     C26052   3.712  11.027   2.986  0.0128  0.1785 -0.6791
  914MOL0     O26053   3.581  11.015   2.962 -0.0818 -0.3567 -0.5934
  914MOL0     C26054   3.521  10.889   2.989 -0.2736  0.0089  0.1616
  914MOL0     C26055   3.389  10.875   2.919 -0.7948 -0.5816 -0.2596
  914MOL0     C26056   3.285  10.968   2.977  0.2809 -0.5455  0.2247
  914MOL0     C26057   3.157  10.974   2.893 -0.4394 -0.0920  0.1237
  914MOL0     C26058   3.108  11.108   2.860  0.1324 -0.2399 -0.7884
  914MOL0     C26059   3.090  11.225   2.837 -0.0833  0.3357  0.0373
  914MOL0     C26060   3.794  10.932   3.059 -0.1994 -0.4009  0.4033
  914MOL0     C26061   3.932  10.947   3.072 -0.8304  0.6895  0.2805
  914MOL0     C26062   4.026  10.838   3.131 -0.2008  0.0343 -0.1945
  914MOL0     H26063   4.298  11.336   3.149  1.9993  2.0950 -0.4265
  914MOL0     H26064   4.527  11.366   3.173  0.9129  0.2324 -0.3719
  914MOL0     H26065   4.769  11.350   3.198  0.0533 -0.8869  0.0970
  914MOL0     H26066   4.719  11.481   3.091 -0.7413 -0.4064 -1.2931
  914MOL0     H26067   4.952  11.457   2.976  0.8705 -1.4221  0.4122
  914MOL0     H26068   4.962  11.474   3.161 -2.3038  1.4238  0.5659
  914MOL0     H26069   4.976  11.229   3.166  1.1457  1.1656  1.3474
  914MOL0     H26070   4.964  11.229   2.997 -1.5766  1.4932  0.3215
  914MOL0     H26071   5.182  11.359   2.987 -0.3670  0.6213  1.2455
  914MOL0     H26072   5.174  11.365   3.170  1.1121 -1.4506  0.4351
  914MOL0     H26073   5.193  11.105   3.008 -3.4609  2.2500 -0.7109
  914MOL0     H26074   5.205  11.125   3.182  1.5786  0.1239 -0.4161
  914MOL0     H26075   5.431  11.245   3.039  0.1372 -0.6251 -0.9035
  914MOL0     H26076   5.394  11.233   3.206 -0.9439 -0.8808  0.1498
  914MOL0     H26077   5.426  10.977   3.041  3.8892  0.5686 -0.3487
  914MOL0     H26078   5.377  10.968   3.206  2.1802 -2.4561  0.2352
  914MOL0     H26079   5.640  11.097   3.105  0.7901 -0.6711  0.1561
  914MOL0     H26080   5.590  11.101   3.264  0.0921 -0.0033  0.7947
  914MOL0     H26081   5.541  10.831   3.373  0.1959  2.9130 -0.1048
  914MOL0     H26082   5.788  10.592   3.416  1.1620 -2.4116 -0.5133
  914MOL0     H26083   5.721  10.496   3.300  1.2070 -0.0854  0.6916
  914MOL0     H26084   5.583  10.658   3.526 -0.3178 -1.1953  0.8074
  914MOL0     H26085   5.492  10.571   3.397 -0.2607 -0.0314 -0.9030
  914MOL0     H26086   5.623  10.366   3.463  1.7405  1.3259 -0.2796
  914MOL0     H26087   5.649  10.442   3.622 -0.3999  2.0461 -0.7193
  914MOL0     H26088   5.392  10.357   3.493 -0.3235 -1.0831  2.0087
  914MOL0     H26089   5.438  10.303   3.634  2.8347 -0.5748 -0.7769
  914MOL0     H26090   5.320  10.725   3.761 -0.8732 -0.6789 -0.4415
  914MOL0     H26091   5.248  10.806   4.083 -0.0404  0.4170 -0.2641
  914MOL0     H26092   5.268  10.873   3.911  2.0196  2.9204 -0.6949
  914MOL0     H26093   5.395  10.895   4.041 -0.4339 -0.4646  1.8150
  914MOL0     H26094   5.668  10.734   4.379 -2.9752 -0.5896 -2.8059
  914MOL0     H26095   5.695  10.774   4.612  1.8645  0.7627 -1.8097
  914MOL0     H26096   5.589  10.676   4.834 -2.4216 -0.4853  0.3825
  914MOL0     H26097   5.682  10.827   4.825 -0.4350 -0.0707 -0.3857
  914MOL0     H26098   5.530  10.718   5.058  3.6415 -2.7787  0.5719
  914MOL0     H26099   5.680  10.791   5.048  0.3239 -1.0276 -1.1505
  914MOL0     H26100   5.404  10.945   5.017 -0.0802  1.6240  1.0792
  914MOL0     H26101   5.555  11.003   4.969 -0.1381  0.0994  0.5451
  914MOL0     H26102   5.477  10.919   5.250 -1.7351 -0.8896 -2.6576
  914MOL0     H26103   5.472  11.086   5.187  1.9784  1.5458  0.2292
  914MOL0     H26104   5.738  10.941   5.243  0.9848  0.4359  2.3914
  914MOL0     H26105   5.696  11.090   5.147 -1.9818  0.9291  1.4663
  914MOL0     H26106   5.600  11.044   5.421 -1.1382  0.5951 -0.5876
  914MOL0     H26107   5.640  11.193   5.337  0.3978  0.3783 -1.8518
  914MOL0     H26108   5.847  10.992   5.428 -0.8322 -1.2123 -3.4872
  914MOL0     H26109   5.811  11.143   5.517  1.3706  2.4428 -0.8345
  914MOL0     H26110   5.882  11.279   5.325  1.0676  1.1484 -1.9931
  914MOL0     H26111   5.914  11.137   5.222 -0.7931 -1.7318  0.6286
  914MOL0     H26112   5.272  10.882   4.640 -1.0274  0.9799 -1.5381
  914MOL0     H26113   5.250  10.810   4.393  0.4037 -0.5294 -0.3942
  914MOL0     H26114   5.525  10.406   4.064 -0.0738  1.5648  1.4515
  914MOL0     H26115   5.466  10.331   3.843  0.9079  0.4505 -1.0657
  914MOL0     H26116   4.606  11.203   2.789 -0.3139 -3.8727 -0.6082
  914MOL0     H26117   4.369  11.156   2.766  0.2307  0.6145 -0.4526
  914MOL0     H26118   3.935  11.253   2.918 -0.0440 -1.6313 -1.3562
  914MOL0     H26119   3.721  11.219   2.896  1.6980 -0.8392 -1.6928
  914MOL0     H26120   3.588  10.808   2.959  2.3816  2.0259  0.2501
  914MOL0     H26121   3.511  10.869   3.096 -0.2521 -0.6190  0.0504
  914MOL0     H26122   3.362  10.769   2.925 -0.3546 -0.6073  2.7558
  914MOL0     H26123   3.405  10.909   2.816 -0.3127 -0.6886 -0.2203
  914MOL0     H26124   3.257  10.937   3.077  1.1614 -0.6737  0.4358
  914MOL0     H26125   3.323  11.068   3.002 -3.1901  1.0816 -0.4127
  914MOL0     H26126   3.074  10.930   2.950  0.1847 -0.3456  0.8523
  914MOL0     H26127   3.166  10.919   2.799 -2.5754 -0.4464  0.0672
  914MOL0     H26128   3.064  11.329   2.837  0.7682  0.5570  0.9859
  914MOL0     H26129   3.759  10.836   3.095 -1.1010  0.6153  2.3708
  914MOL0     H26130   3.969  10.747   3.153 -0.3557  0.7583  2.7673
  914MOL0     H26131   4.113  10.814   3.069 -1.3636 -0.0072 -1.9003
  914MOL0     H26132   4.048  10.870   3.233 -1.8059  0.2734  0.1055
  915MOL0     O26133   7.726  11.135   9.351  0.0304  0.7970 -0.3044
  915MOL0     C26134   7.666  11.164   9.249  0.2669  0.0183 -0.1253
  915MOL0     O26135   7.720  11.202   9.132  0.4771  0.5487 -0.1402
  915MOL0     C26136   7.850  11.226   9.127  0.2576  0.2239 -0.1592
  915MOL0     C26137   7.895  11.332   9.039 -0.3552 -0.7171 -0.5562
  915MOL0     C26138   8.033  11.347   9.015  0.4873  0.0799 -0.7098
  915MOL0     C26139   8.128  11.262   9.075  0.5423  0.1752  0.2926
  915MOL0     O26140   8.259  11.284   9.039  0.0299  0.1205 -0.1861
  915MOL0     C26141   8.366  11.223   9.112  0.6935 -0.6977  0.1393
  915MOL0     C26142   8.492  11.244   9.027 -0.2898 -0.0898  0.4374
  915MOL0     C26143   8.615  11.199   9.121  0.0961 -0.3183  0.3838
  915MOL0     C26144   8.742  11.184   9.039  0.0261  0.0681 -0.6485
  915MOL0     C26145   8.851  11.145   9.137 -0.5534  0.2250 -0.3679
  915MOL0     C26146   8.906  11.005   9.117  1.0321  0.8450 -0.4660
  915MOL0     C26147   8.999  10.992   8.994  0.4357  0.1383 -0.3306
  915MOL0     C26148   9.070  10.851   8.999 -1.2004 -0.0807  0.0578
  915MOL0     N26149   9.185  10.846   9.088 -0.6330 -0.0418  0.3018
  915MOL0     C26150   9.187  10.825   9.220 -0.2892  0.1342 -0.6980
  915MOL0     C26151   9.319  10.819   9.257  0.3224  0.6115  0.4841
  915MOL0     C26152   9.375  10.789   9.400  0.8340  0.4122  0.9994
  915MOL0     C26153   9.342  10.655   9.460 -0.4303  0.0576  0.3716
  915MOL0     C26154   9.459  10.616   9.543  0.5519  0.2137  0.0703
  915MOL0     C26155   9.429  10.488   9.616  0.3381 -0.1081  0.2774
  915MOL0     O26156   9.556  10.435   9.667 -0.4395 -0.1470  0.4540
  915MOL0     C26157   9.609  10.497   9.779 -0.2451  0.2330  0.2570
  915MOL0     C26158   9.558  10.498   9.910  0.0746  0.2553  1.0729
  915MOL0     C26159   9.610  10.554  10.033  0.1531 -0.1492 -0.4175
  915MOL0     C26160   9.535  10.535  10.161  0.6746  0.3769 -0.5673
  915MOL0     C26161   9.744  10.605  10.021  0.5497  0.2990  0.2752
  915MOL0     C26162   9.827  10.648  10.127 -0.0491 -0.2514 -0.9572
  915MOL0     O26163   9.937  10.722  10.100 -0.0088  0.5320  0.2892
  915MOL0     C26164   9.982  10.817  10.195  0.5548 -0.4228  0.3263
  915MOL0     C26165  10.104  10.876  10.178  0.5824  0.5339 -0.8104
  915MOL0     C26166  10.154  10.975  10.274 -0.1354 -0.2389  0.2128
  915MOL0     C26167  10.075  11.023  10.385 -0.1920  0.7795 -0.2168
  915MOL0     O26168  10.125  11.092  10.493  0.0750  0.0732 -0.3614
  915MOL0     C26169  10.045  11.101  10.604 -0.1234 -0.3045 -0.4506
  915MOL0     C26170  10.118  11.166  10.722 -0.1081 -0.1145  0.4232
  915MOL0     C26171  10.095  11.076  10.849  0.2632  0.3175 -0.0597
  915MOL0     C26172  10.208  11.099  10.943  0.0064  0.2953  0.9140
  915MOL0     C26173  10.206  11.020  11.075 -0.2414 -1.0508 -0.2596
  915MOL0     C26174  10.328  11.047  11.161 -0.0337 -0.3831  0.2645
  915MOL0     C26175  10.319  10.964  11.290 -0.2816 -0.3686 -0.0936
  915MOL0     C26176  10.407  11.011  11.409 -0.3755  0.1000  0.2033
  915MOL0    Cl26177  10.431  10.867  11.525 -0.0541 -0.0225 -0.3251
  915MOL0     C26178   9.943  10.969  10.389  0.3332  0.2120 -0.1607
  915MOL0     C26179   9.900  10.870  10.301 -0.2860  1.6107 -0.4345
  915MOL0     O26180   9.795  10.609  10.246  0.5031 -0.1348  0.6438
  915MOL0     C26181   9.799  10.607   9.887  0.1234  0.5843  0.1750
  915MOL0     C26182   9.729  10.563   9.772 -0.7321  0.6946  0.0267
  915MOL0     N26183   9.393  10.831   9.136 -1.5531  0.7873 -0.5261
  915MOL0     N26184   9.314  10.848   9.037 -0.0659 -0.6758 -0.3777
  915MOL0     C26185   8.082  11.152   9.156  0.2339 -0.1622 -0.4057
  915MOL0     C26186   7.945  11.137   9.173  0.1162  0.2695 -0.1004
  915MOL0     C26187   7.517  11.144   9.237  1.0064 -0.1930 -0.5017
  915MOL0     C26188   7.447  11.212   9.139 -0.1836 -0.0500 -0.1829
  915MOL0     C26189   7.312  11.212   9.120  0.3440 -0.2435 -0.0870
  915MOL0     C26190   7.230  11.137   9.208  0.3423 -0.7424 -0.5922
  915MOL0     O26191   7.099  11.149   9.177  0.6580 -0.7862  0.4334
  915MOL0     C26192   7.001  11.074   9.241  0.5206 -1.2351 -0.6093
  915MOL0     C26193   6.857  11.086   9.186  1.2081 -0.9745  0.8314
  915MOL0     C26194   6.801  11.236   9.211  0.2238  0.1192  0.6202
  915MOL0     C26195   6.670  11.252   9.125  0.3319 -0.5848 -0.6491
  915MOL0     C26196   6.580  11.349   9.192  0.3021 -0.6831 -0.0170
  915MOL0     C26197   6.500  11.427   9.251 -0.2167 -0.5244  0.6643
  915MOL0     C26198   7.295  11.062   9.308 -0.1522  0.1432  0.4908
  915MOL0     C26199   7.441  11.061   9.320  0.5376  0.8640 -1.2404
  915MOL0     C26200   7.500  10.992   9.434 -0.3472  0.1786  0.0189
  915MOL0     H26201   7.818  11.396   8.997 -2.8076 -2.3223  1.2131
  915MOL0     H26202   8.062  11.426   8.947  1.2093  1.0972  0.7501
  915MOL0     H26203   8.349  11.116   9.128  0.2593 -0.4687  1.3277
  915MOL0     H26204   8.384  11.266   9.211  2.9611 -1.1630 -0.0153
  915MOL0     H26205   8.489  11.187   8.934 -0.8381  1.3864 -0.4867
  915MOL0     H26206   8.504  11.346   8.991 -0.6617 -0.4756 -0.8191
  915MOL0     H26207   8.633  11.278   9.195 -0.1048 -0.2957  0.4066
  915MOL0     H26208   8.594  11.107   9.176  1.2670  0.3173  1.9798
  915MOL0     H26209   8.735  11.110   8.958 -0.1644 -0.2415 -0.3501
  915MOL0     H26210   8.776  11.273   8.986  2.0457  0.2261  0.7828
  915MOL0     H26211   8.812  11.149   9.239  0.6169 -0.8899  0.1363
  915MOL0     H26212   8.936  11.213   9.131 -0.6610  0.3700 -0.2709
  915MOL0     H26213   8.966  10.974   9.203  1.3141 -2.2760 -1.6387
  915MOL0     H26214   8.823  10.936   9.100  1.8179 -0.3394  0.2963
  915MOL0     H26215   9.079  11.066   8.983  1.7876 -1.6008 -4.2595
  915MOL0     H26216   8.936  11.004   8.906 -0.5723  3.0366  0.6734
  915MOL0     H26217   9.005  10.767   9.024  0.1964 -1.2767 -0.1601
  915MOL0     H26218   9.107  10.838   8.897 -1.7107 -2.3691  0.0979
  915MOL0     H26219   9.108  10.798   9.289 -0.4487 -0.4153 -1.0925
  915MOL0     H26220   9.331  10.866   9.465  0.9578  0.8815  0.5325
  915MOL0     H26221   9.482  10.809   9.404  0.4510  2.5471  1.8896
  915MOL0     H26222   9.247  10.645   9.513 -1.9746 -3.8408 -2.5691
  915MOL0     H26223   9.330  10.584   9.377  0.5814 -0.6617  0.8213
  915MOL0     H26224   9.547  10.604   9.480  0.2587  2.6117 -0.8809
  915MOL0     H26225   9.474  10.693   9.618 -1.1884  0.3602  0.3130
  915MOL0     H26226   9.361  10.498   9.701  1.1875 -0.7504  1.0571
  915MOL0     H26227   9.385  10.416   9.547  1.6774  0.9081 -1.7180
  915MOL0     H26228   9.466  10.440   9.916  0.9017 -1.2707 -0.2268
  915MOL0     H26229   9.530  10.636  10.202 -1.4347  0.3221 -0.5782
  915MOL0     H26230   9.595  10.471  10.226  1.7677 -0.8706 -2.7046
  915MOL0     H26231   9.429  10.506  10.155 -0.0768  3.0578 -1.4260
  915MOL0     H26232  10.172  10.846  10.098 -0.0089 -0.6639 -0.8876
  915MOL0     H26233  10.257  11.009  10.268 -0.1556  0.7999  3.4990
  915MOL0     H26234   9.947  11.146  10.584 -0.5277 -1.8361 -2.2317
  915MOL0     H26235  10.015  11.000  10.635 -1.9836 -1.0989 -4.1321
  915MOL0     H26236  10.223  11.173  10.693 -0.8833 -0.8852 -3.0231
  915MOL0     H26237  10.082  11.266  10.749  2.7446  0.7250  1.5081
  915MOL0     H26238  10.085  10.968  10.835 -0.6427  0.0659  2.1302
  915MOL0     H26239   9.999  11.105  10.892  0.6222 -1.6873  2.3442
  915MOL0     H26240  10.228  11.203  10.972  5.8479 -0.4601  0.8365
  915MOL0     H26241  10.299  11.063  10.895  1.7882  2.8712  2.1428
  915MOL0     H26242  10.115  11.043  11.131  0.5793  1.0646  0.2676
  915MOL0     H26243  10.199  10.913  11.053 -0.9076 -1.2325  0.7882
  915MOL0     H26244  10.351  11.150  11.191  2.3760 -1.0917  1.0569
  915MOL0     H26245  10.417  11.021  11.104  0.4107 -0.2310  0.8782
  915MOL0     H26246  10.345  10.860  11.267  0.1901 -0.5360  1.1115
  915MOL0     H26247  10.219  10.971  11.333 -0.3041 -0.4075 -0.1404
  915MOL0     H26248  10.358  11.087  11.470 -0.1916 -0.1235  0.6315
  915MOL0     H26249  10.495  11.042  11.352  1.7017 -2.9638  1.4750
  915MOL0     H26250   9.866  11.007  10.456  1.7671  1.0246  1.0783
  915MOL0     H26251   9.798  10.834  10.309  0.6958 -1.7303 -1.4215
  915MOL0     H26252   9.888  10.668   9.878  2.2116 -1.6319  3.5188
  915MOL0     H26253   9.787  10.569   9.680  1.7582  1.8000  1.5660
  915MOL0     H26254   8.154  11.081   9.195  0.3456  0.2894  0.2226
  915MOL0     H26255   7.911  11.045   9.220  1.1606 -0.6735 -1.1303
  915MOL0     H26256   7.500  11.288   9.081  0.7327 -0.4949  0.0515
  915MOL0     H26257   7.255  11.261   9.042 -0.5373  0.7088  1.1267
  915MOL0     H26258   7.026  10.968   9.254  0.9101 -0.9406  1.5089
  915MOL0     H26259   6.995  11.117   9.342  0.2384 -0.1113 -1.0975
  915MOL0     H26260   6.787  11.023   9.243 -1.0976  0.6797 -0.0038
  915MOL0     H26261   6.855  11.061   9.080 -1.7036 -2.6032  1.1494
  915MOL0     H26262   6.778  11.237   9.318 -1.8617  0.1209  0.2153
  915MOL0     H26263   6.877  11.311   9.187 -0.8937  0.5954 -1.6818
  915MOL0     H26264   6.608  11.163   9.114 -0.1992 -0.2564 -0.3227
  915MOL0     H26265   6.695  11.295   9.028  2.8715 -0.9131 -0.2150
  915MOL0     H26266   6.436  11.500   9.295  0.5496  0.7672 -0.3008
  915MOL0     H26267   7.244  10.997   9.377 -0.5649 -0.1314 -0.0655
  915MOL0     H26268   7.562  11.059   9.494 -0.4225  1.3996 -1.2309
  915MOL0     H26269   7.421  10.960   9.503  0.8855 -1.2949  0.8116
  915MOL0     H26270   7.560  10.905   9.404 -1.1431  0.3669 -2.3730
  916MOL0     O26271   8.219   5.581   4.221  0.1464 -0.5175 -0.2842
  916MOL0     C26272   8.109   5.640   4.247 -0.6122  0.6955 -0.4605
  916MOL0     O26273   8.105   5.765   4.287  0.4838 -0.7051 -0.8053
  916MOL0     C26274   8.225   5.834   4.280  0.5421 -0.1458 -0.0362
  916MOL0     C26275   8.281   5.868   4.406  0.8294 -0.0277 -0.0451
  916MOL0     C26276   8.407   5.924   4.420  0.6224  0.3687  0.4614
  916MOL0     C26277   8.461   5.977   4.303 -0.0360 -0.3550  0.0271
  916MOL0     O26278   8.582   6.043   4.306  0.1240 -0.6230  0.3732
  916MOL0     C26279   8.663   6.043   4.422  0.3991  0.3429 -0.5389
  916MOL0     C26280   8.780   6.135   4.406  0.5214  0.0215  0.0774
  916MOL0     C26281   8.865   6.138   4.536 -0.0670  0.1633  1.0660
  916MOL0     C26282   8.974   6.239   4.524  0.2272 -0.5160 -0.4534
  916MOL0     C26283   9.090   6.198   4.609 -0.0073  0.2043 -0.1542
  916MOL0     C26284   9.207   6.297   4.588 -0.6040 -0.0214 -0.1789
  916MOL0     C26285   9.331   6.270   4.681  0.0347 -0.6982 -0.6641
  916MOL0     C26286   9.419   6.179   4.614  0.4409  0.0987 -0.0186
  916MOL0     N26287   9.503   6.251   4.518 -0.3287  0.0168 -0.4056
  916MOL0     C26288   9.605   6.343   4.545  0.8363  0.1913 -0.2902
  916MOL0     C26289   9.654   6.377   4.424 -0.6284  0.1701  0.2478
  916MOL0     C26290   9.768   6.478   4.416 -0.7659 -0.1111  0.1585
  916MOL0     C26291   9.723   6.620   4.398 -0.6990  0.7673 -0.4317
  916MOL0     C26292   9.656   6.655   4.264  0.0771  0.4499  0.2946
  916MOL0     C26293   9.512   6.703   4.283  0.1516 -0.8211  0.4483
  916MOL0     O26294   9.504   6.813   4.371  0.3973 -0.7184 -0.3285
  916MOL0     C26295   9.385   6.887   4.381 -0.2617 -0.0863  0.7306
  916MOL0     C26296   9.280   6.895   4.285  0.6606 -1.0190 -0.1263
  916MOL0     C26297   9.165   6.973   4.313 -0.5346 -0.0492  1.6109
  916MOL0     C26298   9.057   6.977   4.208  0.3884  1.1035 -0.1740
  916MOL0     C26299   9.163   7.049   4.430  0.1174 -0.6343  0.2415
  916MOL0     C26300   9.046   7.141   4.458  0.5001 -0.4448 -0.8457
  916MOL0     O26301   8.992   7.228   4.372 -0.8653 -0.0171  0.5117
  916MOL0     C26302   8.894   7.315   4.416  0.3747 -0.1499  0.6661
  916MOL0     C26303   8.918   7.456   4.395  0.5819  0.2316 -0.2762
  916MOL0     C26304   8.823   7.547   4.433  0.4248 -0.8217  0.1237
  916MOL0     C26305   8.697   7.510   4.472 -0.4847 -0.7804 -0.3768
  916MOL0     O26306   8.613   7.605   4.516 -0.5577 -0.0862  0.1447
  916MOL0     C26307   8.607   7.622   4.653 -0.0802  0.1240 -0.6044
  916MOL0     C26308   8.460   7.668   4.686  0.0683  0.9372 -0.3080
  916MOL0     C26309   8.442   7.808   4.610 -0.4290  0.9199 -0.3767
  916MOL0     C26310   8.294   7.843   4.616  0.4900  0.3153  0.1568
  916MOL0     C26311   8.194   7.791   4.517 -0.3080  0.2098 -0.3425
  916MOL0     C26312   8.052   7.844   4.535 -0.3874 -0.4004 -0.0396
  916MOL0     C26313   7.952   7.777   4.433  0.1597 -0.8089  0.2384
  916MOL0     C26314   7.812   7.831   4.456 -0.2226  0.7716  0.1937
  916MOL0    Cl26315   7.739   7.764   4.607 -0.5767 -0.2178 -0.1442
  916MOL0     C26316   8.676   7.374   4.492 -0.5090  1.5781 -0.0530
  916MOL0     C26317   8.771   7.273   4.455  1.3368 -0.9483  0.3568
  916MOL0     O26318   9.028   7.155   4.580  0.3733  0.0300  0.2695
  916MOL0     C26319   9.280   7.048   4.515 -0.2403  0.4481 -0.0039
  916MOL0     C26320   9.384   6.969   4.490  0.1811  0.0769 -0.2973
  916MOL0     N26321   9.585   6.313   4.326  0.4844  0.6848  0.1362
  916MOL0     N26322   9.491   6.236   4.388 -0.2426  0.4224  0.5206
  916MOL0     C26323   8.407   5.966   4.173  0.0334 -0.2893  0.1482
  916MOL0     C26324   8.293   5.887   4.167  0.0226  0.3855 -1.1981
  916MOL0     C26325   7.980   5.570   4.219  0.3204 -0.0471 -0.3643
  916MOL0     C26326   7.985   5.446   4.156  0.0109  0.6072 -0.2635
  916MOL0     C26327   7.869   5.367   4.137  0.7973  1.1073 -0.2276
  916MOL0     C26328   7.740   5.419   4.164  1.1992 -0.5566 -0.3469
  916MOL0     O26329   7.625   5.341   4.133 -0.7891 -0.4466  0.0326
  916MOL0     C26330   7.495   5.393   4.118 -1.4767 -0.3346  0.4373
  916MOL0     C26331   7.473   5.413   3.968  0.5461  0.3061 -0.3706
  916MOL0     C26332   7.336   5.459   3.923 -0.2207  0.0926  0.3037
  916MOL0     C26333   7.232   5.355   3.954  0.4936 -0.0626 -0.4961
  916MOL0     C26334   7.114   5.397   3.876 -0.4447  0.5353  0.2839
  916MOL0     C26335   7.012   5.432   3.823  0.3843 -0.0613 -0.0734
  916MOL0     C26336   7.740   5.550   4.213  0.5094  0.2403 -1.2171
  916MOL0     C26337   7.848   5.634   4.241 -0.4711 -0.1209 -0.1411
  916MOL0     C26338   7.820   5.779   4.291  0.4440 -0.0307 -0.1234
  916MOL0     H26339   8.227   5.840   4.496 -1.1865  0.5139 -1.0104
  916MOL0     H26340   8.436   5.939   4.524  0.0386 -0.7453  0.7985
  916MOL0     H26341   8.707   5.943   4.430  2.9267  1.0705 -3.4073
  916MOL0     H26342   8.612   6.072   4.514  1.4229 -2.2289  0.9545
  916MOL0     H26343   8.839   6.108   4.318  0.5495  1.1576 -0.2674
  916MOL0     H26344   8.742   6.235   4.383  0.1356  0.7497  3.3578
  916MOL0     H26345   8.811   6.153   4.630 -0.8365 -1.6137  0.9541
  916MOL0     H26346   8.912   6.039   4.540  0.8652  0.5243 -0.4570
  916MOL0     H26347   9.002   6.249   4.419 -1.8637  0.7513 -0.9324
  916MOL0     H26348   8.935   6.339   4.545 -1.3390 -0.7463 -2.0719
  916MOL0     H26349   9.119   6.097   4.582 -0.0085 -0.0292  0.6805
  916MOL0     H26350   9.059   6.196   4.714 -0.3519 -1.7067 -0.2627
  916MOL0     H26351   9.234   6.287   4.482  1.0341  2.5302 -0.0835
  916MOL0     H26352   9.173   6.399   4.603  1.0071  1.0391 -2.9720
  916MOL0     H26353   9.304   6.217   4.773  1.0074  0.6363  0.4472
  916MOL0     H26354   9.372   6.367   4.712 -2.4840  0.8265 -1.8082
  916MOL0     H26355   9.488   6.128   4.681  0.6426  2.2940  1.5756
  916MOL0     H26356   9.365   6.102   4.558  0.8285  0.0994 -0.3964
  916MOL0     H26357   9.627   6.373   4.647 -2.3699  0.0379  0.5524
  916MOL0     H26358   9.832   6.460   4.329 -0.2004  0.4632  0.4546
  916MOL0     H26359   9.838   6.464   4.499  1.0481 -1.4827 -1.4763
  916MOL0     H26360   9.656   6.646   4.480  2.0546  3.5859  1.1707
  916MOL0     H26361   9.808   6.689   4.408  0.7924 -1.0805  0.0084
  916MOL0     H26362   9.716   6.725   4.204  1.0921 -2.7018 -2.7537
  916MOL0     H26363   9.650   6.567   4.199  0.8763  0.2425  0.4840
  916MOL0     H26364   9.468   6.731   4.186  0.2351  2.7476  1.2764
  916MOL0     H26365   9.452   6.624   4.328 -1.2304 -0.8364 -1.2783
  916MOL0     H26366   9.297   6.859   4.184  2.2687 -1.4941  0.2870
  916MOL0     H26367   9.052   6.884   4.150 -2.1577  0.4292  0.9774
  916MOL0     H26368   9.074   7.055   4.134  0.8716 -3.2241 -5.2065
  916MOL0     H26369   8.962   6.989   4.261  0.4232 -1.5457  0.6286
  916MOL0     H26370   9.009   7.492   4.349  3.3397 -1.9401  3.0298
  916MOL0     H26371   8.831   7.654   4.413 -0.1565 -0.7710  0.1497
  916MOL0     H26372   8.626   7.523   4.694  0.0669 -1.0416 -3.2853
  916MOL0     H26373   8.672   7.700   4.694  0.7753 -0.7151 -0.3402
  916MOL0     H26374   8.384   7.591   4.671  1.8636 -0.8527 -0.6488
  916MOL0     H26375   8.462   7.674   4.795 -0.9614  0.0226 -0.2180
  916MOL0     H26376   8.482   7.809   4.508  2.7020 -2.0209  0.6277
  916MOL0     H26377   8.484   7.890   4.669 -0.9990 -0.1396  1.5913
  916MOL0     H26378   8.295   7.952   4.606  0.1938  0.2345 -0.8380
  916MOL0     H26379   8.250   7.816   4.713 -1.7906  1.8423 -0.3853
  916MOL0     H26380   8.234   7.822   4.420 -2.1498 -1.1591 -1.6053
  916MOL0     H26381   8.190   7.682   4.512 -1.3795  0.2329 -0.3530
  916MOL0     H26382   8.078   7.950   4.524  4.2634 -1.3392  0.0954
  916MOL0     H26383   8.015   7.825   4.637  0.3635  1.9108  0.7345
  916MOL0     H26384   7.956   7.670   4.454 -0.6496 -0.5453  1.9183
  916MOL0     H26385   7.971   7.797   4.327  2.1639  0.3978  0.7808
  916MOL0     H26386   7.747   7.796   4.375 -2.6405  0.3215  2.2048
  916MOL0     H26387   7.811   7.940   4.457  0.1416  0.7901 -1.0435
  916MOL0     H26388   8.573   7.349   4.517 -1.0741  4.2021  0.5288
  916MOL0     H26389   8.745   7.170   4.477 -2.1349 -0.5426 -1.1368
  916MOL0     H26390   9.290   7.113   4.602  3.4634  0.3989 -0.2490
  916MOL0     H26391   9.460   6.968   4.567  2.1954 -0.7115 -2.2086
  916MOL0     H26392   8.455   6.015   4.090 -2.2158  2.3683  0.2870
  916MOL0     H26393   8.239   5.864   4.075  1.6335 -0.5121 -1.9579
  916MOL0     H26394   8.076   5.398   4.120 -0.6801  0.3247 -1.6871
  916MOL0     H26395   7.869   5.264   4.103 -1.0389  1.2986 -0.9330
  916MOL0     H26396   7.424   5.315   4.147 -0.8085 -0.7055  1.1285
  916MOL0     H26397   7.468   5.487   4.168  1.1288  1.3722 -1.0896
  916MOL0     H26398   7.493   5.320   3.915 -1.0513 -2.0668  2.8353
  916MOL0     H26399   7.531   5.496   3.927 -0.4041  1.1328 -0.0856
  916MOL0     H26400   7.307   5.551   3.975 -1.1804 -0.3547  0.5848
  916MOL0     H26401   7.344   5.468   3.814  2.6886 -0.6912  0.3574
  916MOL0     H26402   7.197   5.351   4.057 -2.5434  1.9958 -1.3066
  916MOL0     H26403   7.258   5.255   3.917 -1.6952 -1.6257  1.8748
  916MOL0     H26404   6.920   5.467   3.782  0.8054 -0.7453 -1.7030
  916MOL0     H26405   7.643   5.595   4.230 -0.9585 -3.1983  0.6216
  916MOL0     H26406   7.720   5.814   4.317  0.1998 -1.0290  0.2999
  916MOL0     H26407   7.877   5.817   4.376  1.1245 -0.2277 -0.4817
  916MOL0     H26408   7.827   5.848   4.206 -2.6393 -0.1913 -0.6031
  917MOL0     O26409   6.975  10.721   4.315  0.1204  0.0144 -0.0675
  917MOL0     C26410   6.943  10.628   4.237 -0.3625  0.4714  0.1822
  917MOL0     O26411   7.037  10.541   4.169 -0.4165 -0.0639 -0.7871
  917MOL0     C26412   7.167  10.572   4.176  0.1997  0.1437 -0.2387
  917MOL0     C26413   7.254  10.469   4.190 -0.4127  0.0210 -0.4152
  917MOL0     C26414   7.394  10.507   4.188 -0.1049 -1.1504  0.4266
  917MOL0     C26415   7.440  10.637   4.153 -0.5070  0.2279  0.2484
  917MOL0     O26416   7.566  10.683   4.153 -0.0095 -0.0828  0.5716
  917MOL0     C26417   7.651  10.625   4.251 -0.1729  0.2907  0.3317
  917MOL0     C26418   7.794  10.666   4.216 -0.8157 -0.0277 -0.1139
  917MOL0     C26419   7.875  10.643   4.339  0.7936  1.1442 -0.6435
  917MOL0     C26420   7.928  10.490   4.373 -0.0676 -0.2576 -0.7379
  917MOL0     C26421   8.031  10.475   4.496  0.1240 -0.2375  0.3982
  917MOL0     C26422   8.082  10.335   4.517  0.1243 -0.0533 -0.5430
  917MOL0     C26423   8.213  10.335   4.578 -0.2239 -0.1172 -1.0512
  917MOL0     C26424   8.271  10.199   4.630 -0.0156  0.2291 -0.2955
  917MOL0     N26425   8.419  10.206   4.646 -0.3256  0.6868 -0.0592
  917MOL0     C26426   8.472  10.294   4.737  0.5159 -0.6899  0.6432
  917MOL0     C26427   8.607  10.268   4.723 -0.3107  0.0685  0.2717
  917MOL0     C26428   8.706  10.316   4.821 -0.0121  0.6243 -0.0148
  917MOL0     C26429   8.854  10.324   4.778 -0.8249 -0.0589  0.9032
  917MOL0     C26430   8.952  10.304   4.902  0.1771  0.5006  0.1324
  917MOL0     C26431   9.101  10.341   4.874 -0.2758 -0.5802 -0.1145
  917MOL0     O26432   9.145  10.288   4.745  0.4620 -0.7725 -0.6717
  917MOL0     C26433   9.271  10.321   4.702  0.0710 -0.8690  0.0335
  917MOL0     C26434   9.332  10.448   4.723 -0.4078  0.0257 -0.2791
  917MOL0     C26435   9.461  10.482   4.668 -0.6372 -0.2556 -0.2655
  917MOL0     C26436   9.511  10.624   4.687 -0.1211 -0.0971 -0.4293
  917MOL0     C26437   9.528  10.390   4.579 -0.5108 -0.3602 -0.2256
  917MOL0     C26438   9.666  10.402   4.510  0.1758  0.2812 -0.5003
  917MOL0     O26439   9.692  10.315   4.405 -0.1008 -0.0409 -0.8077
  917MOL0     C26440   9.792  10.351   4.313 -0.2127  0.0712 -0.3169
  917MOL0     C26441   9.742  10.393   4.187 -0.1150  0.2677 -0.0403
  917MOL0     C26442   9.829  10.412   4.085  0.9301 -0.0854  0.0685
  917MOL0     C26443   9.964  10.406   4.110 -0.2022  0.3119  0.2579
  917MOL0     O26444  10.041  10.450   4.002  0.0918  0.2394 -1.0045
  917MOL0     C26445  10.150  10.362   3.962 -0.6293 -0.0271  0.8956
  917MOL0     C26446  10.181  10.389   3.813 -0.0945 -0.5617 -0.4397
  917MOL0     C26447  10.222  10.538   3.787 -0.1727  0.3031  0.3050
  917MOL0     C26448  10.339  10.591   3.866  1.1159  0.5431 -0.3354
  917MOL0     C26449  10.468  10.504   3.843 -0.5948 -0.6846 -0.0476
  917MOL0     C26450  10.587  10.600   3.861 -0.7302  0.0760  0.3253
  917MOL0     C26451  10.596  10.693   3.736  0.0273  0.2930 -0.3675
  917MOL0     C26452  10.713  10.790   3.760 -0.3460 -0.2728 -0.6020
  917MOL0    Cl26453  10.874  10.712   3.777  0.0735 -0.2106 -0.0558
  917MOL0     C26454  10.020  10.379   4.240 -0.6464  0.2569 -0.3142
  917MOL0     C26455   9.928  10.345   4.346 -0.9384 -0.1704  0.7530
  917MOL0     O26456   9.749  10.482   4.561 -0.0596 -0.0403 -0.0655
  917MOL0     C26457   9.459  10.270   4.558 -0.7744 -0.1824  0.8720
  917MOL0     C26458   9.332  10.241   4.617 -0.7279  0.0837 -0.0690
  917MOL0     N26459   8.626  10.179   4.612 -0.4951  0.2055 -0.7382
  917MOL0     N26460   8.514  10.141   4.575  0.3944  0.1565 -0.3207
  917MOL0     C26461   7.347  10.740   4.150 -0.8248  0.3366 -0.3750
  917MOL0     C26462   7.211  10.704   4.155  0.4046 -0.0787  0.4030
  917MOL0     C26463   6.795  10.610   4.223 -0.5744  0.0837  0.0693
  917MOL0     C26464   6.698  10.652   4.312 -0.2406 -0.6027  0.3137
  917MOL0     C26465   6.559  10.638   4.300 -0.5226 -0.3566  0.2407
  917MOL0     C26466   6.516  10.561   4.198 -0.6356 -0.4529  0.1742
  917MOL0     O26467   6.380  10.518   4.187 -1.0600 -0.3257  0.3918
  917MOL0     C26468   6.283  10.556   4.277  1.0111 -0.4170 -0.1344
  917MOL0     C26469   6.147  10.481   4.256 -0.6454 -0.6922 -0.0830
  917MOL0     C26470   6.151  10.338   4.300 -0.0016 -0.4915 -1.4533
  917MOL0     C26471   6.054  10.238   4.232  0.0737  0.0871  0.2977
  917MOL0     C26472   5.917  10.288   4.245 -0.3497  0.2690  1.4374
  917MOL0     C26473   5.807  10.342   4.253 -1.1017  0.9784  0.2158
  917MOL0     C26474   6.597  10.521   4.097  1.2769 -0.3880 -0.6085
  917MOL0     C26475   6.737  10.538   4.111  0.2720  0.9797  0.1070
  917MOL0     C26476   6.814  10.477   3.998 -0.9568 -0.6138  0.9658
  917MOL0     H26477   7.230  10.365   4.207 -2.0407  0.7567  2.5540
  917MOL0     H26478   7.462  10.425   4.207  0.1159 -1.3986 -1.2577
  917MOL0     H26479   7.662  10.517   4.242  0.3452  0.2612  1.2019
  917MOL0     H26480   7.621  10.646   4.354  0.6688  0.6020  0.5237
  917MOL0     H26481   7.825  10.616   4.124 -0.2412  0.0723  0.0217
  917MOL0     H26482   7.800  10.773   4.195 -1.3005  0.1397  0.5904
  917MOL0     H26483   7.968  10.700   4.330  1.6249  0.0322  0.5122
  917MOL0     H26484   7.843  10.680   4.437  2.3250  2.4282 -0.5894
  917MOL0     H26485   7.844  10.429   4.407  1.0332 -2.6945 -2.1443
  917MOL0     H26486   7.965  10.446   4.280 -1.4810 -2.3396 -0.3743
  917MOL0     H26487   7.985  10.512   4.588 -1.2880  2.0681 -1.1194
  917MOL0     H26488   8.115  10.539   4.467 -1.2411  1.6225  0.3892
  917MOL0     H26489   8.001  10.277   4.563  0.9239 -0.0710  0.9151
  917MOL0     H26490   8.098  10.284   4.422  0.8391 -1.4697  0.2999
  917MOL0     H26491   8.200  10.397   4.668  0.2318  1.2645 -1.9064
  917MOL0     H26492   8.286  10.384   4.513  1.5394 -1.0453  0.1693
  917MOL0     H26493   8.227  10.180   4.728 -1.3160  0.9975 -0.6968
  917MOL0     H26494   8.241  10.117   4.563  0.1900  0.3658 -0.5560
  917MOL0     H26495   8.421  10.363   4.803 -0.4743 -0.9978  0.2046
  917MOL0     H26496   8.706  10.241   4.901 -0.3140  0.1971 -0.4121
  917MOL0     H26497   8.675  10.413   4.861  1.5082  0.1491  2.5177
  917MOL0     H26498   8.887  10.246   4.709  1.4224  1.0125  0.6843
  917MOL0     H26499   8.863  10.420   4.727  1.6819 -2.6460 -4.2134
  917MOL0     H26500   8.912  10.362   4.986  2.6598  1.9364  0.4232
  917MOL0     H26501   8.953  10.202   4.939  2.2556  0.0147 -1.1193
  917MOL0     H26502   9.107  10.450   4.860  1.2610 -0.6831 -0.4266
  917MOL0     H26503   9.163  10.312   4.959 -2.2782 -0.6946  1.3791
  917MOL0     H26504   9.288  10.520   4.791 -1.1707 -0.0672 -0.6653
  917MOL0     H26505   9.438  10.697   4.721 -0.6045  0.3831 -2.3770
  917MOL0     H26506   9.535  10.662   4.587 -1.4022  0.6777 -0.4679
  917MOL0     H26507   9.595  10.622   4.758  0.5180  0.3363 -1.1541
  917MOL0     H26508   9.635  10.404   4.175 -0.2944 -0.4693  0.7351
  917MOL0     H26509   9.797  10.427   3.983 -0.6366 -2.5601  0.1107
  917MOL0     H26510  10.241  10.369   4.021 -1.1625 -1.6280  1.9794
  917MOL0     H26511  10.115  10.258   3.969  0.1692 -0.2482  1.6695
  917MOL0     H26512  10.248  10.315   3.769 -1.3477 -1.2498 -1.2690
  917MOL0     H26513  10.085  10.383   3.760 -2.0411  2.4321  2.3480
  917MOL0     H26514  10.141  10.610   3.800 -1.0008 -0.1490 -1.8827
  917MOL0     H26515  10.245  10.542   3.680  0.5794 -0.0854  0.4439
  917MOL0     H26516  10.305  10.594   3.970 -1.7083 -1.8530 -1.0739
  917MOL0     H26517  10.353  10.697   3.845 -3.3764  1.0835 -1.6104
  917MOL0     H26518  10.482  10.417   3.908  0.8766 -0.0526  0.5236
  917MOL0     H26519  10.480  10.455   3.746  0.6252 -1.4968  0.4946
  917MOL0     H26520  10.672  10.532   3.877 -0.6507 -0.0450 -0.5523
  917MOL0     H26521  10.560  10.650   3.955 -0.0636 -0.8100  1.0085
  917MOL0     H26522  10.506  10.753   3.721  0.4215  0.8283 -0.6501
  917MOL0     H26523  10.611  10.635   3.645 -1.7376 -3.7067  1.6667
  917MOL0     H26524  10.702  10.859   3.844  1.3528 -1.7121  0.8914
  917MOL0     H26525  10.708  10.856   3.673 -0.2556  0.4978 -0.0268
  917MOL0     H26526  10.128  10.374   4.255 -0.8619 -1.0328  1.0515
  917MOL0     H26527   9.955  10.316   4.447 -0.1939  0.2052  0.6694
  917MOL0     H26528   9.508  10.200   4.491 -2.3925 -1.3054  0.7864
  917MOL0     H26529   9.284  10.151   4.581  2.6514 -1.7801 -0.3737
  917MOL0     H26530   7.376  10.842   4.125 -0.1505  0.1320 -0.4498
  917MOL0     H26531   7.139  10.785   4.149 -0.8020 -1.0747  0.8939
  917MOL0     H26532   6.717  10.715   4.398 -0.1684  2.4529 -1.7830
  917MOL0     H26533   6.487  10.673   4.374 -1.7089 -2.0814 -0.0520
  917MOL0     H26534   6.317  10.549   4.381 -0.0785  4.7989  0.8790
  917MOL0     H26535   6.253  10.659   4.256 -1.9618 -1.6192 -2.6397
  917MOL0     H26536   6.125  10.488   4.149  0.5281  0.2065 -0.2950
  917MOL0     H26537   6.066  10.539   4.301 -0.6736  0.9350 -2.0715
  917MOL0     H26538   6.251  10.294   4.298  0.6962  0.7177  1.3350
  917MOL0     H26539   6.117  10.344   4.404  0.1523  0.3165 -1.4407
  917MOL0     H26540   6.062  10.138   4.276 -0.5936 -1.0238 -1.9149
  917MOL0     H26541   6.076  10.221   4.126  0.9356  1.0725  0.3037
  917MOL0     H26542   5.717  10.395   4.278  0.0218  3.3818 -0.4961
  917MOL0     H26543   6.547  10.465   4.019 -3.1059 -2.1312  3.0047
  917MOL0     H26544   6.885  10.397   4.023  0.4515  0.1676 -0.3810
  917MOL0     H26545   6.751  10.442   3.916 -1.3165 -1.4332  1.5717
  917MOL0     H26546   6.880  10.556   3.963  0.8925 -1.5328  2.1876
  918MOL0     O26547   3.568  10.269  11.005  0.8354 -0.0707 -0.3084
  918MOL0     C26548   3.577  10.153  10.969  0.1660  0.1524 -0.4778
  918MOL0     O26549   3.688  10.083  10.969 -0.4296  0.0040  0.1871
  918MOL0     C26550   3.803  10.122  11.031 -0.4402  0.7831 -0.3325
  918MOL0     C26551   3.801  10.172  11.156  0.5264 -0.4559 -0.0905
  918MOL0     C26552   3.924  10.212  11.216 -0.8324 -0.4020  0.6408
  918MOL0     C26553   4.048  10.179  11.155 -0.1410 -0.8878 -0.0380
  918MOL0     O26554   4.169  10.233  11.207  0.2531 -0.2316 -0.1556
  918MOL0     C26555   4.175  10.277  11.345 -0.7029 -0.1849  0.3929
  918MOL0     C26556   4.312  10.327  11.376 -0.3383 -0.6573 -0.2050
  918MOL0     C26557   4.321  10.387  11.520  0.6564  0.6612 -0.2022
  918MOL0     C26558   4.456  10.462  11.550  0.4581 -0.5415  0.2275
  918MOL0     C26559   4.557  10.351  11.576 -0.0385 -0.4353  0.0703
  918MOL0     C26560   4.704  10.398  11.615 -0.2073 -0.1878  0.9437
  918MOL0     C26561   4.802  10.274  11.598  0.3248 -0.4453 -0.7270
  918MOL0     C26562   4.947  10.317  11.624  0.0300  0.1883  0.8852
  918MOL0     N26563   4.983  10.325  11.766 -0.0845  0.2490 -0.4361
  918MOL0     C26564   5.036  10.226  11.849 -0.4932 -0.5611  0.2833
  918MOL0     C26565   5.043  10.277  11.971  0.6069 -0.0228 -0.4214
  918MOL0     C26566   5.094  10.193  12.095  1.1085 -0.1682 -0.0137
  918MOL0     C26567   5.233  10.219  12.142  0.1377  0.1677  0.6409
  918MOL0     C26568   5.238  10.353  12.205  0.1194  0.1408  0.4659
  918MOL0     C26569   5.374  10.400  12.259  0.5478 -0.0124 -0.0948
  918MOL0     O26570   5.432  10.300  12.340  0.3501 -0.1648 -0.0385
  918MOL0     C26571   5.566  10.312  12.380  0.5540  0.0462 -0.2180
  918MOL0     C26572   5.619  10.194  12.428 -0.1658  0.6696  0.4800
  918MOL0     C26573   5.749  10.181  12.472  0.4194  0.2740 -0.3989
  918MOL0     C26574   5.784  10.049  12.541  0.1911 -0.2184  0.1058
  918MOL0     C26575   5.834  10.290  12.473  0.5495 -0.2073  0.2932
  918MOL0     C26576   5.976  10.296  12.518  0.6628  0.6208  0.0329
  918MOL0     O26577   6.015  10.409  12.581 -0.4743 -0.5711 -0.3313
  918MOL0     C26578   6.145  10.418  12.624  0.3242 -0.2446 -0.3604
  918MOL0     C26579   6.234  10.518  12.562  0.7982 -0.4818 -0.0529
  918MOL0     C26580   6.365  10.529  12.604  0.2682 -0.1830  0.6859
  918MOL0     C26581   6.411  10.444  12.701 -0.6001  0.0505  0.7346
  918MOL0     O26582   6.543  10.440  12.745  0.3258  0.3001 -0.3675
  918MOL0     C26583   6.642  10.496  12.659 -0.1003  0.1394  1.2246
  918MOL0     C26584   6.784  10.484  12.720 -0.0161  0.0438 -0.9315
  918MOL0     C26585   6.887  10.439  12.622  0.6549  1.0081  0.8127
  918MOL0     C26586   6.919  10.556  12.523 -0.0463  0.4770 -0.1253
  918MOL0     C26587   7.004  10.520  12.404  1.1249 -0.1293 -0.8573
  918MOL0     C26588   7.134  10.455  12.439 -0.4926  0.4327  0.2891
  918MOL0     C26589   7.238  10.545  12.510 -0.0934  0.2128 -0.3976
  918MOL0     C26590   7.247  10.691  12.461 -0.9372  0.4128  0.1257
  918MOL0    Cl26591   7.403  10.758  12.490 -0.0360  0.0030 -0.2544
  918MOL0     C26592   6.330  10.354  12.764 -0.2095 -0.2647  0.5657
  918MOL0     C26593   6.197  10.337  12.725 -0.0548 -0.2916  0.4228
  918MOL0     O26594   6.044  10.193  12.505 -0.7979  0.1513  0.3678
  918MOL0     C26595   5.781  10.421  12.424 -0.4278  0.7541 -0.4295
  918MOL0     C26596   5.652  10.422  12.370  0.3033  0.5272 -0.5946
  918MOL0     N26597   4.991  10.403  11.961 -0.6211 -0.7422 -0.2394
  918MOL0     N26598   4.962  10.433  11.844 -0.4464 -0.0785  0.1600
  918MOL0     C26599   4.052  10.112  11.033 -0.2720  0.8599 -0.1694
  918MOL0     C26600   3.931  10.077  10.975  0.2537  0.5103 -0.7531
  918MOL0     C26601   3.446  10.086  10.959  0.3660  0.0997  0.0163
  918MOL0     C26602   3.447   9.945  10.973  0.4278 -0.5119 -0.0048
  918MOL0     C26603   3.338   9.869  10.949  0.5138 -0.0659 -0.3412
  918MOL0     C26604   3.222   9.924  10.911  0.7318  0.2641 -0.0114
  918MOL0     O26605   3.113   9.842  10.870 -0.2592  0.3381  0.1269
  918MOL0     C26606   3.001   9.902  10.794 -0.3972 -0.2342  0.5278
  918MOL0     C26607   2.914   9.795  10.735  0.0323  0.5201  0.0664
  918MOL0     C26608   2.847   9.707  10.840  0.3417  1.0154  0.3271
  918MOL0     C26609   2.767   9.599  10.761 -0.0615  0.6728  0.1560
  918MOL0     C26610   2.686   9.523  10.856 -0.8346  0.2702 -0.3399
  918MOL0     C26611   2.614   9.452  10.928 -0.5441  0.6658 -0.5235
  918MOL0     C26612   3.210  10.060  10.906  0.1041 -0.7450 -0.4853
  918MOL0     C26613   3.325  10.147  10.929 -0.5675  0.5566 -0.2005
  918MOL0     C26614   3.299  10.294  10.912 -0.3812  0.0564 -0.6485
  918MOL0     H26615   3.709  10.196  11.208  0.6950  0.8771 -0.3538
  918MOL0     H26616   3.924  10.260  11.314 -0.5869  3.0140 -0.8889
  918MOL0     H26617   4.145  10.193  11.408 -2.5685  0.4390  0.4201
  918MOL0     H26618   4.105  10.360  11.363 -0.2331  0.1285  0.7935
  918MOL0     H26619   4.392  10.254  11.357  3.3447  2.8535  0.3687
  918MOL0     H26620   4.335  10.414  11.314  0.8594  0.1360  1.2524
  918MOL0     H26621   4.241  10.460  11.535 -0.9277 -0.8211 -0.9891
  918MOL0     H26622   4.291  10.313  11.596 -0.6760  1.8249  0.4526
  918MOL0     H26623   4.490  10.520  11.465  0.1602 -0.8524 -0.1095
  918MOL0     H26624   4.450  10.530  11.635  3.8624  0.0443  0.1048
  918MOL0     H26625   4.565  10.286  11.489 -0.1794 -2.1271  1.2798
  918MOL0     H26626   4.522  10.294  11.662 -2.2666 -0.5567 -0.8464
  918MOL0     H26627   4.736  10.484  11.556 -1.8003  0.4330  0.9399
  918MOL0     H26628   4.706  10.426  11.721 -1.7170 -3.3403  1.9352
  918MOL0     H26629   4.789  10.220  11.504  0.0090 -0.9177 -0.4159
  918MOL0     H26630   4.771  10.209  11.680 -3.7731  0.6001 -1.2271
  918MOL0     H26631   5.012  10.247  11.571 -0.4530 -0.3429  0.9834
  918MOL0     H26632   4.959  10.416  11.579  0.5938 -0.4387 -0.3910
  918MOL0     H26633   5.074  10.129  11.820 -1.8050 -0.6502 -1.2558
  918MOL0     H26634   5.083  10.088  12.067  0.2656 -0.7527  2.2594
  918MOL0     H26635   5.020  10.214  12.173 -0.3021  0.7284 -1.5118
  918MOL0     H26636   5.262  10.139  12.211  0.4433  0.1079  0.4449
  918MOL0     H26637   5.308  10.227  12.063  0.5748  1.2783  1.1383
  918MOL0     H26638   5.202  10.432  12.139 -3.8033 -0.8080  1.1740
  918MOL0     H26639   5.172  10.359  12.292  0.3698 -2.7295  0.9378
  918MOL0     H26640   5.439  10.437  12.179  1.2133  0.3462  0.6014
  918MOL0     H26641   5.349  10.484  12.324  0.4539  1.1713 -1.6035
  918MOL0     H26642   5.551  10.109  12.434 -0.8675  1.0867 -1.0179
  918MOL0     H26643   5.824   9.984  12.463  2.5400  1.5432 -0.2865
  918MOL0     H26644   5.698  10.005  12.591  0.1026  1.0313  1.1224
  918MOL0     H26645   5.853  10.076  12.621  0.4873  2.3770 -0.9102
  918MOL0     H26646   6.182  10.587  12.496 -3.8689 -0.7261  2.8997
  918MOL0     H26647   6.423  10.604  12.552  0.7800 -1.4780 -0.6511
  918MOL0     H26648   6.633  10.433  12.571 -2.8373 -0.7608  2.0551
  918MOL0     H26649   6.623  10.602  12.638 -0.5620 -0.2687 -0.5666
  918MOL0     H26650   6.828  10.577  12.756 -0.6445 -0.3586  1.0272
  918MOL0     H26651   6.788  10.426  12.813 -0.4401  1.0424 -0.2694
  918MOL0     H26652   6.850  10.347  12.576 -1.3560  1.3150  1.7003
  918MOL0     H26653   6.977  10.414  12.679  1.6772  1.9562 -0.3432
  918MOL0     H26654   6.962  10.639  12.580 -0.0246  2.3011 -2.6403
  918MOL0     H26655   6.824  10.594  12.486 -2.0569 -1.3846  2.7225
  918MOL0     H26656   6.947  10.442  12.353 -2.7394  1.6583  0.3469
  918MOL0     H26657   7.007  10.602  12.331 -1.9575 -0.3014 -1.2829
  918MOL0     H26658   7.182  10.424  12.345  2.6929  3.5936  0.6519
  918MOL0     H26659   7.114  10.361  12.491  0.9767 -1.1301 -1.7806
  918MOL0     H26660   7.339  10.503  12.497 -0.1041  0.6787 -2.3210
  918MOL0     H26661   7.217  10.539  12.617  1.3639 -0.1272 -0.1065
  918MOL0     H26662   7.171  10.744  12.519  0.4272  0.5873  1.8667
  918MOL0     H26663   7.231  10.691  12.353  1.1145  1.0055 -0.2326
  918MOL0     H26664   6.378  10.299  12.844 -0.9135  2.0360  2.6938
  918MOL0     H26665   6.132  10.266  12.775 -0.0008  1.2467  2.8352
  918MOL0     H26666   5.848  10.504  12.405  0.9699 -0.5765 -1.5184
  918MOL0     H26667   5.612  10.513  12.325  0.8618  0.8536 -0.4446
  918MOL0     H26668   4.149  10.069  11.008  1.2340  0.9581  4.5272
  918MOL0     H26669   3.935  10.008  10.892 -3.0320  1.8992 -2.2354
  918MOL0     H26670   3.537   9.899  11.013  1.0830 -0.5003 -1.4067
  918MOL0     H26671   3.340   9.760  10.954 -0.3352 -0.1668 -1.5276
  918MOL0     H26672   2.943   9.968  10.859  1.4403  2.3029 -0.2625
  918MOL0     H26673   3.049   9.961  10.714  3.0121  1.1640  3.3420
  918MOL0     H26674   2.971   9.725  10.672 -4.8500 -1.4018 -2.7500
  918MOL0     H26675   2.833   9.834  10.672 -1.8652 -3.1380  0.0102
  918MOL0     H26676   2.913   9.654  10.909  0.6005  0.7744 -0.0985
  918MOL0     H26677   2.779   9.765  10.902  2.2552  2.1275  1.4552
  918MOL0     H26678   2.835   9.528  10.714  1.5664  1.0701  1.8033
  918MOL0     H26679   2.701   9.639  10.684 -1.7269  0.3090  1.3464
  918MOL0     H26680   2.551   9.386  10.984  1.7391 -1.1562  0.0418
  918MOL0     H26681   3.117  10.110  10.880 -1.5381 -3.4105 -0.0153
  918MOL0     H26682   3.364  10.340  10.837  2.0629 -0.5724  0.9726
  918MOL0     H26683   3.199  10.322  10.878 -0.6388 -2.0225 -1.7902
  918MOL0     H26684   3.320  10.344  11.007  0.4520  0.3537 -0.9827
  919MOL0     O26685   8.292   7.848   6.721  0.5985  0.9042 -0.0886
  919MOL0     C26686   8.236   7.939   6.664 -0.6003  0.3982 -1.1008
  919MOL0     O26687   8.289   8.067   6.650 -0.1973  0.1714 -0.0419
  919MOL0     C26688   8.420   8.107   6.671  0.8319 -0.3567 -0.2031
  919MOL0     C26689   8.471   8.115   6.801  0.0014  1.1463  0.5217
  919MOL0     C26690   8.588   8.183   6.830  0.1607 -0.1387  0.6819
  919MOL0     C26691   8.657   8.245   6.723 -0.2474 -0.7172 -0.4383
  919MOL0     O26692   8.763   8.318   6.761 -0.3417 -0.1599  0.3806
  919MOL0     C26693   8.847   8.385   6.663 -0.0104 -0.3251 -0.2339
  919MOL0     C26694   8.959   8.289   6.615  0.4872 -0.6566  0.2784
  919MOL0     C26695   9.073   8.260   6.713 -0.5463 -0.8040  0.7694
  919MOL0     C26696   9.170   8.153   6.657 -0.4760 -0.0243  0.6687
  919MOL0     C26697   9.294   8.150   6.754 -0.5682  0.1318 -1.1644
  919MOL0     C26698   9.377   8.018   6.752  0.2268  0.7993 -0.5564
  919MOL0     C26699   9.406   7.951   6.614 -0.3116  0.1030 -0.3207
  919MOL0     C26700   9.487   8.036   6.518 -0.0132  0.5233  0.1330
  919MOL0     N26701   9.512   7.967   6.387 -0.3586 -0.2330 -0.9447
  919MOL0     C26702   9.428   7.937   6.287  0.6540 -0.8970 -0.0390
  919MOL0     C26703   9.493   7.854   6.200  0.1098 -1.0461  0.4986
  919MOL0     C26704   9.459   7.791   6.066 -0.2653  0.4529  0.4603
  919MOL0     C26705   9.433   7.641   6.072  0.8177  0.3578  0.3219
  919MOL0     C26706   9.336   7.600   6.185 -0.3774 -0.5145  0.4918
  919MOL0     C26707   9.194   7.645   6.156 -0.2892  0.5873  1.3705
  919MOL0     O26708   9.107   7.584   6.261  0.1258 -0.5981  0.0995
  919MOL0     C26709   9.007   7.490   6.229  0.3008  0.7550  0.4232
  919MOL0     C26710   8.905   7.464   6.316  0.1900  0.1820 -0.4907
  919MOL0     C26711   8.800   7.374   6.298 -0.0407  0.9077 -0.1357
  919MOL0     C26712   8.687   7.370   6.398 -0.2456  0.3296 -0.6392
  919MOL0     C26713   8.800   7.299   6.179  0.1293  0.6282  0.7256
  919MOL0     C26714   8.704   7.191   6.148  0.7795 -1.1490  0.2282
  919MOL0     O26715   8.763   7.089   6.064  0.2088  0.3971  0.0000
  919MOL0     C26716   8.686   6.978   6.018 -0.6136 -0.1534  0.3259
  919MOL0     C26717   8.557   7.001   5.965 -0.0924  0.5950  1.0445
  919MOL0     C26718   8.497   6.888   5.916  0.5828  0.4042 -0.8837
  919MOL0     C26719   8.568   6.765   5.902  0.0347 -0.0733 -0.3625
  919MOL0     O26720   8.508   6.653   5.839 -0.0502  0.3391 -0.8591
  919MOL0     C26721   8.370   6.623   5.863  0.6290 -0.3520  0.2863
  919MOL0     C26722   8.297   6.546   5.751 -0.7216 -0.9116 -0.0358
  919MOL0     C26723   8.388   6.439   5.685  0.2368  0.0932  0.0526
  919MOL0     C26724   8.289   6.342   5.610 -0.7113 -0.7279  0.4775
  919MOL0     C26725   8.358   6.227   5.552  0.0135 -0.4550 -0.7995
  919MOL0     C26726   8.265   6.126   5.495  0.6277  0.7439 -0.6572
  919MOL0     C26727   8.279   5.988   5.553 -0.2931  0.4097  0.0335
  919MOL0     C26728   8.202   5.883   5.471  0.3941  0.9797  0.0380
  919MOL0    Cl26729   8.024   5.885   5.517  0.2714 -0.3771  0.4283
  919MOL0     C26730   8.694   6.746   5.953 -1.0469  0.4266 -0.6690
  919MOL0     C26731   8.758   6.851   6.010  0.4369 -0.1271  0.2523
  919MOL0     O26732   8.591   7.192   6.194  0.7590 -0.2739 -0.6401
  919MOL0     C26733   8.907   7.323   6.085  0.1550  0.3415 -0.6047
  919MOL0     C26734   9.006   7.413   6.112  0.8315  0.6471 -0.3647
  919MOL0     N26735   9.622   7.840   6.250  0.7317 -0.4570  0.0591
  919MOL0     N26736   9.625   7.916   6.357 -0.7882 -0.3999  0.4451
  919MOL0     C26737   8.616   8.223   6.593  0.5483 -0.0131 -0.1732
  919MOL0     C26738   8.494   8.153   6.569  0.0088 -0.0962 -0.3921
  919MOL0     C26739   8.105   7.904   6.607  0.3108  0.3210  0.9994
  919MOL0     C26740   8.079   7.774   6.587  0.5203  0.1843  0.2179
  919MOL0     C26741   7.951   7.724   6.553 -0.4679  0.2783  0.3027
  919MOL0     C26742   7.849   7.807   6.526  0.0177  0.2390 -0.5951
  919MOL0     O26743   7.723   7.770   6.482 -0.6990 -0.2599 -0.1412
  919MOL0     C26744   7.702   7.630   6.444  0.9032 -0.5998 -0.2038
  919MOL0     C26745   7.546   7.603   6.454 -0.6688 -0.5808 -0.4459
  919MOL0     C26746   7.484   7.603   6.590 -1.0950  0.3088 -0.4903
  919MOL0     C26747   7.342   7.556   6.585  0.6111  0.3785  0.2280
  919MOL0     C26748   7.308   7.524   6.725  0.0178 -0.3596  0.4030
  919MOL0     C26749   7.294   7.501   6.843  0.7632 -0.1276  0.0608
  919MOL0     C26750   7.877   7.947   6.525 -0.8838  0.8846 -0.1249
  919MOL0     C26751   8.005   7.994   6.568 -0.0735  0.1378 -0.9138
  919MOL0     C26752   8.021   8.137   6.561  0.4060 -1.2198 -0.1655
  919MOL0     H26753   8.423   8.070   6.888 -1.0946 -0.9488 -1.0639
  919MOL0     H26754   8.621   8.192   6.933  0.5622  1.2482  0.4524
  919MOL0     H26755   8.894   8.474   6.707  1.5015 -0.5765 -1.2414
  919MOL0     H26756   8.783   8.430   6.587 -0.3407  1.8900  1.2660
  919MOL0     H26757   8.918   8.198   6.569  2.4753 -0.8474 -1.2599
  919MOL0     H26758   9.006   8.335   6.528 -1.0775 -0.4099 -0.4610
  919MOL0     H26759   9.120   8.359   6.720 -0.8698 -0.4333 -1.5254
  919MOL0     H26760   9.040   8.236   6.815 -0.3777  1.4520  1.4307
  919MOL0     H26761   9.122   8.056   6.643  0.5801 -0.2481 -1.9812
  919MOL0     H26762   9.203   8.175   6.555 -1.4776  3.1507  0.9051
  919MOL0     H26763   9.260   8.172   6.856  1.4066  0.6793 -0.5764
  919MOL0     H26764   9.366   8.229   6.730 -2.4636  1.6581 -2.1070
  919MOL0     H26765   9.471   8.044   6.800 -0.1203 -0.1932  0.7028
  919MOL0     H26766   9.331   7.941   6.815  2.1542  0.5287  0.5953
  919MOL0     H26767   9.313   7.931   6.558 -1.1025 -2.4859  1.6998
  919MOL0     H26768   9.470   7.865   6.635  1.0494  1.7213  2.7429
  919MOL0     H26769   9.431   8.126   6.491  1.8784  2.0233  0.9465
  919MOL0     H26770   9.573   8.075   6.575 -1.3572  3.9438  0.0650
  919MOL0     H26771   9.328   7.972   6.264  1.5596  2.7384  0.8525
  919MOL0     H26772   9.544   7.801   5.999  0.7953 -2.5417  1.1824
  919MOL0     H26773   9.372   7.846   6.028 -0.3108 -0.3639 -0.6583
  919MOL0     H26774   9.388   7.606   5.979  1.6512  1.1540 -0.4078
  919MOL0     H26775   9.526   7.584   6.077  2.0270  1.8237 -2.8036
  919MOL0     H26776   9.340   7.492   6.202 -0.2183 -0.4763  0.7074
  919MOL0     H26777   9.368   7.653   6.275  0.9836  3.1099 -1.8801
  919MOL0     H26778   9.190   7.754   6.152  1.8437  0.6979  0.6553
  919MOL0     H26779   9.155   7.621   6.057  0.6728  2.1526  0.5734
  919MOL0     H26780   8.913   7.534   6.399 -0.1303  2.0154 -1.9396
  919MOL0     H26781   8.602   7.428   6.361  1.4181  3.2339 -0.2248
  919MOL0     H26782   8.718   7.415   6.493  0.7861 -0.6943 -0.4666
  919MOL0     H26783   8.662   7.264   6.411  1.3665 -0.1078 -0.9081
  919MOL0     H26784   8.500   7.092   5.979 -1.2730  0.0736 -0.1562
  919MOL0     H26785   8.395   6.897   5.882  0.3440  0.0431 -0.2793
  919MOL0     H26786   8.354   6.582   5.963 -1.3173 -1.5394 -0.4608
  919MOL0     H26787   8.315   6.716   5.877 -1.5128 -1.5362  0.1433
  919MOL0     H26788   8.216   6.492   5.800 -2.7461  0.8031 -1.2828
  919MOL0     H26789   8.263   6.624   5.681  1.7991 -0.9037 -1.3786
  919MOL0     H26790   8.433   6.371   5.758  0.0752  0.3506  0.3949
  919MOL0     H26791   8.478   6.472   5.631 -0.6618  1.1550 -0.8505
  919MOL0     H26792   8.237   6.402   5.534 -2.0212  0.3532  2.1517
  919MOL0     H26793   8.209   6.306   5.674 -0.8910  3.4017  2.9403
  919MOL0     H26794   8.426   6.254   5.471  2.2904 -0.8098  0.9192
  919MOL0     H26795   8.418   6.181   5.631 -1.3132  2.0058  1.8262
  919MOL0     H26796   8.290   6.128   5.388 -0.2215 -1.5176 -0.9508
  919MOL0     H26797   8.159   6.152   5.507  0.3663  0.1255 -1.5456
  919MOL0     H26798   8.234   5.989   5.652  0.5285 -2.3875  0.5211
  919MOL0     H26799   8.385   5.962   5.563  0.3190  2.1624 -1.3165
  919MOL0     H26800   8.238   5.780   5.476 -0.7849  0.3361 -2.6612
  919MOL0     H26801   8.210   5.905   5.364  4.7274 -3.3805 -0.8440
  919MOL0     H26802   8.746   6.652   5.943  2.0953  1.9528  0.0733
  919MOL0     H26803   8.863   6.840   6.037  0.3120 -0.9084  0.4573
  919MOL0     H26804   8.908   7.264   5.994 -1.5783  0.7014 -0.8859
  919MOL0     H26805   9.087   7.407   6.040  1.4329 -1.0560  0.4261
  919MOL0     H26806   8.666   8.262   6.504  1.0207 -1.2535 -0.4601
  919MOL0     H26807   8.461   8.139   6.466 -0.6857  1.0761 -0.3518
  919MOL0     H26808   8.149   7.701   6.626 -0.0496 -0.3980  0.1803
  919MOL0     H26809   7.951   7.616   6.545  1.0522  0.1137  1.9328
  919MOL0     H26810   7.747   7.624   6.345  0.8039  3.5592 -0.6768
  919MOL0     H26811   7.748   7.561   6.516 -0.1822 -3.5307 -2.1293
  919MOL0     H26812   7.548   7.509   6.400  1.2848 -1.4100  0.9481
  919MOL0     H26813   7.481   7.673   6.400 -3.2271 -2.0109  0.6207
  919MOL0     H26814   7.546   7.536   6.650  0.9657  0.1378 -2.6316
  919MOL0     H26815   7.498   7.698   6.643  1.3142  2.0321 -3.8396
  919MOL0     H26816   7.327   7.462   6.531  1.0832  0.1896  0.4215
  919MOL0     H26817   7.274   7.631   6.543  0.5887 -1.2452 -2.9630
  919MOL0     H26818   7.278   7.480   6.947  2.3576  0.6784  0.4974
  919MOL0     H26819   7.804   8.015   6.483 -0.6261 -0.3785 -2.8202
  919MOL0     H26820   8.098   8.155   6.485  0.1024 -2.4054 -0.7862
  919MOL0     H26821   7.930   8.189   6.529  0.2494 -0.0142  2.0634
  919MOL0     H26822   8.045   8.194   6.651 -0.1928  1.7555 -1.7483
  920MOL0     O26823   5.860   5.053   0.022 -0.2577  0.0679 -0.1587
  920MOL0     C26824   5.851   5.145  -0.057 -0.2348 -0.2051 -0.2691
  920MOL0     O26825   5.939   5.254  -0.060 -1.0064  0.0547 -0.6718
  920MOL0     C26826   6.054   5.242   0.013 -0.2311 -0.0022  0.0431
  920MOL0     C26827   6.134   5.130  -0.002 -0.3129 -0.0133 -0.2281
  920MOL0     C26828   6.253   5.117   0.084  0.8780  0.3452 -1.0757
  920MOL0     C26829   6.290   5.217   0.173 -0.4866  0.8760 -0.5235
  920MOL0     O26830   6.407   5.196   0.248  0.2074 -0.6448 -0.4578
  920MOL0     C26831   6.429   5.260   0.380  0.1084 -0.0398  0.4955
  920MOL0     C26832   6.564   5.218   0.437 -0.1379  0.0749 -0.3476
  920MOL0     C26833   6.574   5.060   0.443 -0.4153 -0.3641 -0.1408
  920MOL0     C26834   6.713   5.029   0.521  0.0382 -0.1319 -0.1347
  920MOL0     C26835   6.740   4.874   0.521  0.1962  0.8508  0.5205
  920MOL0     C26836   6.866   4.843   0.607 -0.7372 -0.1649  0.0072
  920MOL0     C26837   6.914   4.694   0.577  0.3348  0.3246 -0.0009
  920MOL0     C26838   6.813   4.587   0.606  0.8849  0.1162  0.3447
  920MOL0     N26839   6.879   4.462   0.585  0.0830 -0.2740  1.0537
  920MOL0     C26840   6.988   4.421   0.657 -0.9497  0.1078  0.3716
  920MOL0     C26841   7.021   4.296   0.604 -1.0013 -0.0198  0.0167
  920MOL0     C26842   7.122   4.197   0.662  0.2372  0.1862  0.3576
  920MOL0     C26843   7.267   4.243   0.662  0.3493  0.1495 -0.5971
  920MOL0     C26844   7.309   4.302   0.786 -0.6736  0.3029  0.2814
  920MOL0     C26845   7.460   4.342   0.779  0.1882 -0.0089 -0.0660
  920MOL0     O26846   7.530   4.220   0.781 -0.4795  0.3348  0.1612
  920MOL0     C26847   7.652   4.228   0.725 -0.1790 -0.2884  0.1393
  920MOL0     C26848   7.756   4.309   0.757 -0.2370 -0.3907  0.5565
  920MOL0     C26849   7.888   4.288   0.714 -0.0359  0.0049 -0.3027
  920MOL0     C26850   7.988   4.377   0.774 -0.3955 -0.9881 -0.2208
  920MOL0     C26851   7.907   4.214   0.596 -0.5599  0.3957 -0.2100
  920MOL0     C26852   8.036   4.214   0.525  0.1740  0.1642  0.7553
  920MOL0     O26853   8.028   4.224   0.385  0.0325  0.2475  0.4424
  920MOL0     C26854   8.126   4.196   0.291 -0.3162 -0.0823 -0.3328
  920MOL0     C26855   8.258   4.187   0.315  0.2860  0.7606  0.5878
  920MOL0     C26856   8.343   4.148   0.219 -0.3035 -0.2061 -0.1865
  920MOL0     C26857   8.308   4.140   0.088  0.2226  0.0496  0.7083
  920MOL0     O26858   8.400   4.106  -0.008 -0.1631  0.4168  0.1719
  920MOL0     C26859   8.368   4.089  -0.152 -0.0133  0.6658 -0.0272
  920MOL0     C26860   8.495   4.062  -0.222 -0.2164 -0.5698  0.9213
  920MOL0     C26861   8.589   4.185  -0.256 -0.8762  0.1216  0.1307
  920MOL0     C26862   8.672   4.232  -0.138 -0.0912 -0.3481  0.0871
  920MOL0     C26863   8.765   4.350  -0.172 -0.4102  0.1910  0.0088
  920MOL0     C26864   8.842   4.392  -0.050 -0.0244  0.3047 -0.7064
  920MOL0     C26865   8.942   4.500  -0.099  0.1668 -0.1746  0.3413
  920MOL0     C26866   8.994   4.590   0.008 -0.2133 -0.0682  1.1296
  920MOL0    Cl26867   9.078   4.475   0.128 -0.1114  0.4215  0.5461
  920MOL0     C26868   8.172   4.171   0.052 -1.2322  0.3328  0.1282
  920MOL0     C26869   8.082   4.186   0.162 -0.0397 -0.1904 -0.5715
  920MOL0     O26870   8.140   4.196   0.587 -0.1348 -0.7248 -0.6411
  920MOL0     C26871   7.795   4.142   0.554 -0.5133  0.0284  0.7996
  920MOL0     C26872   7.667   4.146   0.615 -0.0811 -0.0558  0.4643
  920MOL0     N26873   6.931   4.271   0.492 -0.5553  0.1099 -0.3061
  920MOL0     N26874   6.861   4.375   0.475 -0.0041  0.4028  0.5566
  920MOL0     C26875   6.212   5.328   0.184 -0.1549  1.0743  0.3025
  920MOL0     C26876   6.099   5.345   0.101 -0.0268 -1.1078  0.2394
  920MOL0     C26877   5.740   5.159  -0.151  0.7940  0.1217 -0.2889
  920MOL0     C26878   5.705   5.292  -0.198 -0.0664  0.8878  0.6443
  920MOL0     C26879   5.594   5.311  -0.273  0.0306  1.5591  0.2995
  920MOL0     C26880   5.518   5.213  -0.331 -0.5518 -0.1072 -0.1082
  920MOL0     O26881   5.420   5.241  -0.415 -0.4590 -0.2592 -0.1144
  920MOL0     C26882   5.301   5.278  -0.344  0.3749 -0.3411 -0.1902
  920MOL0     C26883   5.177   5.215  -0.415 -0.6777 -0.3345 -0.1234
  920MOL0     C26884   5.178   5.065  -0.412  0.1559 -0.1851  0.6808
  920MOL0     C26885   5.090   5.013  -0.295 -0.3266 -0.5797 -0.2516
  920MOL0     C26886   5.041   4.884  -0.333 -1.1997 -0.4465 -0.2839
  920MOL0     C26887   5.012   4.770  -0.359 -0.3573  0.0473  1.0454
  920MOL0     C26888   5.547   5.081  -0.288 -0.8773  0.3816 -0.0909
  920MOL0     C26889   5.654   5.052  -0.192  0.4432  0.0318 -0.2775
  920MOL0     C26890   5.686   4.909  -0.169  0.2117 -0.0029 -0.4232
  920MOL0     H26891   6.119   5.056  -0.080 -0.7072 -3.3026  2.7318
  920MOL0     H26892   6.328   5.039   0.078  1.1711  0.4356  0.7707
  920MOL0     H26893   6.344   5.233   0.443 -0.1357 -1.8458 -0.5272
  920MOL0     H26894   6.427   5.369   0.376  1.4622 -0.0379 -1.4772
  920MOL0     H26895   6.641   5.262   0.374  1.6909  1.4819  2.6565
  920MOL0     H26896   6.571   5.261   0.537 -1.8521  5.9947 -2.3749
  920MOL0     H26897   6.488   5.017   0.495 -0.2888  3.5014  3.9111
  920MOL0     H26898   6.570   5.027   0.339 -3.8795  1.5657 -0.7753
  920MOL0     H26899   6.797   5.082   0.475  1.5416 -1.1383  1.2931
  920MOL0     H26900   6.716   5.066   0.624  1.4667  2.9650 -1.1759
  920MOL0     H26901   6.762   4.838   0.420  1.0211 -1.9413  1.5840
  920MOL0     H26902   6.650   4.817   0.546  0.7524  0.0618  0.7853
  920MOL0     H26903   6.950   4.905   0.577 -0.0246 -0.5549  1.1290
  920MOL0     H26904   6.856   4.857   0.715  1.7369  0.8689  0.1705
  920MOL0     H26905   7.007   4.695   0.633  0.7811  1.4039 -0.7288
  920MOL0     H26906   6.943   4.694   0.472 -3.4409  3.4617 -1.3024
  920MOL0     H26907   6.771   4.595   0.707 -0.1720  1.3014 -0.1598
  920MOL0     H26908   6.726   4.594   0.540 -0.1576  1.2975  1.7785
  920MOL0     H26909   7.035   4.458   0.747  0.7273  2.3444 -1.2920
  920MOL0     H26910   7.119   4.102   0.608 -1.9453  0.8605 -0.8110
  920MOL0     H26911   7.100   4.163   0.764  0.5770  0.6749  0.6000
  920MOL0     H26912   7.320   4.150   0.640  1.5246  0.8511 -0.7703
  920MOL0     H26913   7.279   4.312   0.578  0.3515 -0.0324 -0.7497
  920MOL0     H26914   7.246   4.387   0.812 -3.1673 -1.3264 -0.1389
  920MOL0     H26915   7.292   4.229   0.866 -1.6471  0.5696  0.3275
  920MOL0     H26916   7.477   4.388   0.682  1.4014 -0.0651  0.0986
  920MOL0     H26917   7.485   4.410   0.861  0.1766 -0.9904  0.7834
  920MOL0     H26918   7.742   4.378   0.840  1.3846  1.9169 -0.9346
  920MOL0     H26919   8.089   4.335   0.776  1.4601  2.9349 -1.1131
  920MOL0     H26920   7.972   4.407   0.878 -1.8328 -0.0064 -0.6937
  920MOL0     H26921   7.991   4.471   0.718 -1.6179 -0.0578  1.2062
  920MOL0     H26922   8.304   4.202   0.412 -0.1038 -1.8405  1.2739
  920MOL0     H26923   8.446   4.138   0.252 -0.3376 -0.1444 -0.0604
  920MOL0     H26924   8.302   4.004  -0.172  2.9043 -1.8899  0.4121
  920MOL0     H26925   8.323   4.182  -0.187  1.7568  1.8885  0.7810
  920MOL0     H26926   8.552   3.984  -0.170  1.6262  1.7960  2.6780
  920MOL0     H26927   8.470   4.009  -0.315 -2.0273  1.0864  0.4072
  920MOL0     H26928   8.533   4.271  -0.291 -0.8260 -1.2331 -3.8136
  920MOL0     H26929   8.662   4.171  -0.336  1.1971  0.5037  1.8427
  920MOL0     H26930   8.750   4.159  -0.115 -0.8099 -1.2015 -0.1520
  920MOL0     H26931   8.618   4.247  -0.044  4.5516  0.0157  3.0591
  920MOL0     H26932   8.843   4.320  -0.242  0.3793 -2.8891  2.0315
  920MOL0     H26933   8.710   4.438  -0.206  0.6997  0.9235  0.0603
  920MOL0     H26934   8.901   4.303  -0.025  0.2338  0.3052 -1.2892
  920MOL0     H26935   8.782   4.422   0.036  3.0661  0.2303  1.6466
  920MOL0     H26936   8.892   4.562  -0.174  1.4169 -0.7155 -0.9862
  920MOL0     H26937   9.029   4.450  -0.142 -0.3186 -0.1872 -0.6670
  920MOL0     H26938   8.917   4.657   0.047  1.8343  3.0474  0.1886
  920MOL0     H26939   9.067   4.656  -0.039  0.0382 -1.0683  0.0672
  920MOL0     H26940   8.130   4.181  -0.048  1.3887  1.0320 -1.0013
  920MOL0     H26941   7.978   4.194   0.133  0.1890  1.1481 -1.1187
  920MOL0     H26942   7.814   4.077   0.469  0.7337  1.9743 -0.4957
  920MOL0     H26943   7.591   4.082   0.572  2.9091 -1.7278 -2.7462
  920MOL0     H26944   6.247   5.405   0.252 -1.9373  1.2238  1.1108
  920MOL0     H26945   6.035   5.429   0.127  1.5524 -0.8127  3.7680
  920MOL0     H26946   5.773   5.374  -0.181 -0.8785  1.6029  0.4754
  920MOL0     H26947   5.565   5.413  -0.299  2.7795  1.9565 -1.6510
  920MOL0     H26948   5.293   5.248  -0.239  2.8850 -0.2380  0.0856
  920MOL0     H26949   5.292   5.387  -0.341 -0.2505 -0.2638  4.9614
  920MOL0     H26950   5.176   5.245  -0.520  1.3826 -0.7713 -0.3266
  920MOL0     H26951   5.092   5.260  -0.363 -1.1769  0.1884 -1.3669
  920MOL0     H26952   5.129   5.025  -0.501 -1.9119  1.3709  1.0424
  920MOL0     H26953   5.281   5.028  -0.407  1.8403  4.0180  1.6277
  920MOL0     H26954   5.005   5.080  -0.279 -0.2792 -0.8901  1.4853
  920MOL0     H26955   5.149   5.001  -0.204 -0.2836 -4.1181 -0.6113
  920MOL0     H26956   4.993   4.667  -0.383  0.5942 -0.0016  0.3911
  920MOL0     H26957   5.502   4.990  -0.328 -0.1104  0.1306 -0.4142
  920MOL0     H26958   5.793   4.894  -0.185  0.9612  1.8219  2.3549
  920MOL0     H26959   5.656   4.897  -0.065  0.9917  3.2822  0.2640
  920MOL0     H26960   5.626   4.845  -0.236 -0.0040  0.8922 -1.1059
  921MOL0     O26961   4.386   6.807  10.983  0.3701  0.2998  0.7131
  921MOL0     C26962   4.474   6.771  11.058 -1.0364 -0.0585 -0.6731
  921MOL0     O26963   4.587   6.842  11.093  0.9599 -0.8805 -0.4223
  921MOL0     C26964   4.618   6.960  11.031 -0.8896 -0.1780 -0.1990
  921MOL0     C26965   4.759   6.974  11.010 -0.6386 -0.5906  0.1527
  921MOL0     C26966   4.816   7.091  10.951 -0.7406  0.3548  0.3376
  921MOL0     C26967   4.729   7.187  10.905  0.2729 -0.0789 -0.4167
  921MOL0     O26968   4.787   7.301  10.843  0.2285 -0.0806  0.7091
  921MOL0     C26969   4.710   7.419  10.811  0.1896 -0.2072  0.7042
  921MOL0     C26970   4.780   7.553  10.803 -0.7632 -0.1005  0.3297
  921MOL0     C26971   4.930   7.538  10.795  0.3309 -0.2676 -0.0575
  921MOL0     C26972   4.980   7.656  10.710  0.7306 -0.0631 -0.3206
  921MOL0     C26973   5.131   7.649  10.706  0.7345  0.2420 -0.1921
  921MOL0     C26974   5.194   7.743  10.816  0.2313  0.6861 -0.6101
  921MOL0     C26975   5.348   7.752  10.797  0.0418  0.4596  0.2777
  921MOL0     C26976   5.420   7.805  10.918  0.0350  0.7967  0.4365
  921MOL0     N26977   5.569   7.818  10.895 -0.1695  0.2379  0.0978
  921MOL0     C26978   5.672   7.736  10.921 -0.7968 -0.2682 -0.2310
  921MOL0     C26979   5.785   7.801  10.875  0.6042 -0.0768  0.2073
  921MOL0     C26980   5.923   7.753  10.881  0.0241  1.3083  0.5379
  921MOL0     C26981   6.030   7.862  10.848 -0.3973  0.9476  0.8666
  921MOL0     C26982   6.173   7.798  10.847  0.7045 -0.2559  0.2493
  921MOL0     C26983   6.269   7.913  10.809 -0.0877  0.1703 -0.4949
  921MOL0     O26984   6.396   7.849  10.816  0.1729 -0.1389  0.1953
  921MOL0     C26985   6.517   7.919  10.793  0.0217  0.7951  0.3496
  921MOL0     C26986   6.517   8.055  10.754  0.2109  0.7313 -0.5813
  921MOL0     C26987   6.642   8.113  10.726  0.2867 -0.9776  0.4226
  921MOL0     C26988   6.655   8.266  10.688  0.1811  0.0435  0.9173
  921MOL0     C26989   6.763   8.033  10.734 -0.0033  0.4312 -0.6478
  921MOL0     C26990   6.903   8.086  10.711  0.6354 -0.1276 -0.0842
  921MOL0     O26991   6.993   7.996  10.737 -0.3723 -0.1461 -0.1844
  921MOL0     C26992   7.114   8.021  10.686 -0.2487 -0.3575 -0.0704
  921MOL0     C26993   7.159   7.976  10.567 -0.3380  0.0825 -0.1037
  921MOL0     C26994   7.282   8.009  10.513 -0.3841 -0.1731  0.0851
  921MOL0     C26995   7.365   8.096  10.585 -0.4962 -0.1990 -0.5364
  921MOL0     O26996   7.492   8.136  10.545  0.5852 -0.0687 -0.3151
  921MOL0     C26997   7.515   8.165  10.408  0.5377  0.1654 -0.1608
  921MOL0     C26998   7.533   8.317  10.372  0.3089  0.4691 -0.8149
  921MOL0     C26999   7.632   8.387  10.463 -0.1667 -0.3847 -0.4553
  921MOL0     C27000   7.661   8.530  10.403  0.4508  0.1001  0.6135
  921MOL0     C27001   7.719   8.625  10.497  0.1206 -0.1343 -0.4797
  921MOL0     C27002   7.862   8.592  10.539  0.1154 -0.3168 -0.2810
  921MOL0     C27003   7.933   8.711  10.605  0.3883  0.9162  0.6471
  921MOL0     C27004   8.073   8.670  10.659  0.1063 -0.3587 -0.7059
  921MOL0    Cl27005   8.128   8.800  10.770  0.0729  0.4427  0.4695
  921MOL0     C27006   7.328   8.127  10.716 -0.1650 -0.5901  0.3795
  921MOL0     C27007   7.207   8.088  10.764  0.5270  0.3104 -0.2591
  921MOL0     O27008   6.925   8.201  10.664 -0.1505  0.0897  0.1851
  921MOL0     C27009   6.745   7.896  10.774 -0.5646  0.4103 -1.1230
  921MOL0     C27010   6.630   7.836  10.805  0.6164  0.3097  0.2835
  921MOL0     N27011   5.744   7.907  10.801 -0.0177 -0.2677 -0.5000
  921MOL0     N27012   5.613   7.916  10.816 -0.2096 -0.7493 -1.1397
  921MOL0     C27013   4.590   7.168  10.909  0.0588 -0.7507 -0.3890
  921MOL0     C27014   4.527   7.058  10.977  0.0509 -0.2074  0.5547
  921MOL0     C27015   4.471   6.634  11.116  0.4259 -0.8462 -0.1354
  921MOL0     C27016   4.587   6.567  11.140  0.6304 -0.4957 -0.2117
  921MOL0     C27017   4.588   6.435  11.184  0.9476  0.9651  0.2877
  921MOL0     C27018   4.472   6.368  11.221  0.6293 -0.0211 -0.1609
  921MOL0     O27019   4.483   6.245  11.276 -0.2826 -0.3773 -0.3528
  921MOL0     C27020   4.379   6.201  11.360 -0.0639  0.5368 -0.3913
  921MOL0     C27021   4.404   6.052  11.393  0.1582 -0.2432 -0.8013
  921MOL0     C27022   4.313   6.012  11.508  0.3420 -1.0122 -0.0578
  921MOL0     C27023   4.321   5.859  11.538  0.3489 -0.5880  0.7066
  921MOL0     C27024   4.445   5.832  11.614  1.2125 -0.7460 -0.5417
  921MOL0     C27025   4.539   5.796  11.672 -0.2405  0.3525  0.1492
  921MOL0     C27026   4.354   6.438  11.215 -0.7185  1.0423  0.2207
  921MOL0     C27027   4.349   6.571  11.161 -0.1273 -0.5761 -0.5783
  921MOL0     C27028   4.208   6.623  11.140 -0.7934  0.7041 -0.9601
  921MOL0     H27029   4.834   6.901  11.038  0.6608  1.1893  1.5688
  921MOL0     H27030   4.923   7.098  10.932 -1.0119  3.6735 -0.5007
  921MOL0     H27031   4.633   7.423  10.889 -1.8906 -2.1027 -1.0939
  921MOL0     H27032   4.652   7.399  10.720  0.9593  1.2122 -0.1422
  921MOL0     H27033   4.742   7.611  10.718  0.4257  0.2954  0.0470
  921MOL0     H27034   4.744   7.607  10.890 -2.0084 -1.7304  0.8764
  921MOL0     H27035   4.978   7.543  10.893  0.3757 -0.3120 -0.0762
  921MOL0     H27036   4.960   7.440  10.755 -0.5710  0.2391 -2.0658
  921MOL0     H27037   4.944   7.653  10.607 -1.1228 -1.1105  0.3026
  921MOL0     H27038   4.957   7.758  10.743 -0.6203  0.6702 -3.2244
  921MOL0     H27039   5.171   7.698  10.616  1.3012 -1.4134 -0.8727
  921MOL0     H27040   5.178   7.550  10.706  0.0335 -0.1085 -1.4712
  921MOL0     H27041   5.157   7.845  10.802  0.7795  0.8070 -1.2352
  921MOL0     H27042   5.182   7.701  10.917  2.7653 -0.7088 -0.8097
  921MOL0     H27043   5.359   7.810  10.704  3.7507 -3.8925 -2.4326
  921MOL0     H27044   5.390   7.654  10.772 -0.3023  0.7496 -1.6639
  921MOL0     H27045   5.384   7.900  10.958  3.4144  1.3293  2.6478
  921MOL0     H27046   5.397   7.734  10.997 -2.3285  1.1444  0.1203
  921MOL0     H27047   5.667   7.640  10.972 -0.2759 -0.4266 -0.4727
  921MOL0     H27048   5.929   7.676  10.803 -0.2302  2.5586 -0.7496
  921MOL0     H27049   5.947   7.716  10.982 -3.3959 -0.0745  0.9912
  921MOL0     H27050   6.010   7.894  10.745  1.9246 -0.3581 -0.0469
  921MOL0     H27051   6.015   7.948  10.915 -0.8182  3.2853 -2.0043
  921MOL0     H27052   6.189   7.756  10.946 -1.3166 -0.2615  0.6189
  921MOL0     H27053   6.177   7.724  10.766 -0.5748 -0.6438  0.5126
  921MOL0     H27054   6.252   7.938  10.704 -0.5301 -0.4067 -0.5644
  921MOL0     H27055   6.264   7.993  10.883 -0.7796 -0.0413 -0.3094
  921MOL0     H27056   6.425   8.111  10.742 -0.3192  0.0056  0.0227
  921MOL0     H27057   6.568   8.328  10.712  0.3500  0.5029  0.3513
  921MOL0     H27058   6.691   8.287  10.587 -0.8984 -1.0364  0.2774
  921MOL0     H27059   6.725   8.295  10.767  1.1611 -0.4620  0.2499
  921MOL0     H27060   7.100   7.904  10.511 -0.6405 -0.0766  0.4122
  921MOL0     H27061   7.303   7.964  10.417  0.0564  0.4636 -0.1199
  921MOL0     H27062   7.609   8.113  10.386 -0.1926 -1.0672 -0.4537
  921MOL0     H27063   7.439   8.118  10.345  0.7465  0.8878 -0.9728
  921MOL0     H27064   7.584   8.314  10.275 -1.8813  0.7509 -2.0343
  921MOL0     H27065   7.439   8.370  10.357 -1.0968 -1.8113 -0.5501
  921MOL0     H27066   7.721   8.324  10.471  1.4007  1.6287 -1.2278
  921MOL0     H27067   7.591   8.400  10.564  3.0089 -2.3393  1.2564
  921MOL0     H27068   7.566   8.576  10.376 -0.8047 -1.9366  1.4129
  921MOL0     H27069   7.724   8.525  10.313 -1.6703 -0.2268 -0.9414
  921MOL0     H27070   7.717   8.726  10.455  0.9339  0.4004  0.7033
  921MOL0     H27071   7.660   8.635  10.588  3.1243  1.2708  1.4730
  921MOL0     H27072   7.915   8.562  10.448  0.3135  3.3291 -1.5548
  921MOL0     H27073   7.856   8.512  10.613  4.2315 -0.3008  0.3246
  921MOL0     H27074   7.877   8.750  10.691  4.4267  1.6216  3.2785
  921MOL0     H27075   7.941   8.796  10.536 -5.6784  0.7659 -0.7578
  921MOL0     H27076   8.143   8.652  10.576 -0.5360 -2.8571 -0.8001
  921MOL0     H27077   8.075   8.577  10.717 -1.8572 -0.1424 -0.2264
  921MOL0     H27078   7.396   8.183  10.779 -0.9213  1.4597 -0.5274
  921MOL0     H27079   7.182   8.117  10.865  0.4252  3.9602 -1.1803
  921MOL0     H27080   6.829   7.828  10.786 -0.4128  0.7127 -0.4540
  921MOL0     H27081   6.619   7.731  10.830  0.5460  0.4987  1.0612
  921MOL0     H27082   4.528   7.243  10.862 -1.1172 -0.6890  1.1500
  921MOL0     H27083   4.419   7.058  10.993 -0.6815  0.9243 -3.3336
  921MOL0     H27084   4.684   6.610  11.118 -1.2408  3.6452 -1.4159
  921MOL0     H27085   4.683   6.384  11.189  0.7516  0.6096  0.3819
  921MOL0     H27086   4.393   6.259  11.453 -0.2536 -0.8828  0.5519
  921MOL0     H27087   4.272   6.214  11.343 -0.3673 -1.3777 -0.1382
  921MOL0     H27088   4.510   6.048  11.420  0.2138  1.4799 -0.6705
  921MOL0     H27089   4.374   5.989  11.309 -3.8461 -0.8268  0.8078
  921MOL0     H27090   4.341   6.081  11.588 -1.1739  0.6669 -0.8832
  921MOL0     H27091   4.210   6.027  11.473  0.6995 -4.1531 -3.0203
  921MOL0     H27092   4.320   5.806  11.442  1.8776  0.8645 -0.1620
  921MOL0     H27093   4.231   5.826  11.590  1.1245 -2.0111  1.2155
  921MOL0     H27094   4.625   5.759  11.725  1.3029  0.7317 -1.9384
  921MOL0     H27095   4.259   6.389  11.233  0.0650 -0.8926 -0.5606
  921MOL0     H27096   4.139   6.542  11.164  0.7448 -0.3471  0.1131
  921MOL0     H27097   4.194   6.710  11.204 -0.1108  0.3038 -0.2474
  921MOL0     H27098   4.203   6.655  11.035  1.7653  0.3278 -1.2692
  922MOL0     O27099   7.762   2.104  11.355 -0.8749 -0.5109  0.0941
  922MOL0     C27100   7.705   2.208  11.357  0.0803  0.0691 -0.2403
  922MOL0     O27101   7.746   2.322  11.423  0.1778  0.2889  0.2300
  922MOL0     C27102   7.861   2.327  11.491 -0.6715  0.3328 -0.0942
  922MOL0     C27103   7.863   2.359  11.622 -0.1591 -0.2112  0.1560
  922MOL0     C27104   7.986   2.341  11.699 -0.4840  0.6981 -0.2026
  922MOL0     C27105   8.105   2.294  11.630  0.4236 -0.8414 -0.2804
  922MOL0     O27106   8.225   2.298  11.700  0.4934 -0.0933 -0.6793
  922MOL0     C27107   8.295   2.172  11.688  0.2086 -0.3742  0.8200
  922MOL0     C27108   8.433   2.201  11.635 -1.3513  0.4617  0.0550
  922MOL0     C27109   8.519   2.077  11.605  0.3704  0.4506  0.3900
  922MOL0     C27110   8.613   2.043  11.730 -0.2173  0.2617  0.0699
  922MOL0     C27111   8.688   1.911  11.732  0.2016  0.0682 -0.5926
  922MOL0     C27112   8.799   1.901  11.628  1.0186  0.1048 -0.0878
  922MOL0     C27113   8.908   2.001  11.656 -0.4376  0.1996  0.2775
  922MOL0     C27114   9.018   1.982  11.545  0.0575 -0.1802  0.2083
  922MOL0     N27115   9.154   2.043  11.579 -0.3243 -0.0275 -0.6274
  922MOL0     C27116   9.252   1.966  11.639  0.1596 -0.3208 -0.5266
  922MOL0     C27117   9.359   2.049  11.630 -0.2700  0.1606 -0.0942
  922MOL0     C27118   9.503   2.014  11.657  0.4180  0.1480 -0.5013
  922MOL0     C27119   9.577   1.931  11.557  0.6161 -0.2343  0.2857
  922MOL0     C27120   9.713   1.874  11.585  0.8095  0.0349 -0.1203
  922MOL0     C27121   9.765   1.770  11.487  0.1076  0.3204  0.6766
  922MOL0     O27122   9.800   1.834  11.358  0.7576  0.3775  0.3209
  922MOL0     C27123   9.881   1.753  11.280 -0.4642 -1.1592 -0.6765
  922MOL0     C27124   9.827   1.666  11.182 -0.5912  1.1292  0.2556
  922MOL0     C27125   9.902   1.570  11.108  0.5653 -0.4721 -0.3342
  922MOL0     C27126   9.834   1.484  11.002 -0.2284 -0.7054 -0.6142
  922MOL0     C27127  10.041   1.577  11.121  0.3575 -0.1499 -0.0229
  922MOL0     C27128  10.120   1.472  11.048  0.6410  0.6585 -0.1147
  922MOL0     O27129  10.189   1.386  11.140  0.0523  0.2465  0.7597
  922MOL0     C27130  10.298   1.306  11.112  1.3647 -0.0948  0.8455
  922MOL0     C27131  10.349   1.290  10.973  0.1300 -0.1839 -0.1380
  922MOL0     C27132  10.474   1.230  10.956  0.2602  0.5755  0.1155
  922MOL0     C27133  10.548   1.184  11.073 -0.0547  0.2585  0.1382
  922MOL0     O27134  10.679   1.130  11.065 -0.0641  0.1141 -0.0181
  922MOL0     C27135  10.788   1.224  11.094  0.0889 -0.0796  0.4214
  922MOL0     C27136  10.922   1.154  11.098 -0.1181  0.0630 -0.3259
  922MOL0     C27137  10.923   1.072  11.235 -0.6764 -0.1702  0.3130
  922MOL0     C27138  10.994   0.940  11.212 -0.8383  0.5982 -0.0265
  922MOL0     C27139  11.006   0.846  11.333 -0.8571  0.9132  0.2416
  922MOL0     C27140  11.085   0.723  11.281 -0.1758  1.5794  0.0973
  922MOL0     C27141  11.152   0.644  11.394 -0.0555  0.8131 -1.6042
  922MOL0     C27142  11.185   0.503  11.357  0.8763 -0.1081  0.0445
  922MOL0    Cl27143  11.224   0.405  11.494 -0.0878 -0.1743 -0.0654
  922MOL0     C27144  10.493   1.182  11.202 -0.4837 -0.7840  1.3926
  922MOL0     C27145  10.369   1.244  11.220  0.3223  0.2847  0.0974
  922MOL0     O27146  10.123   1.478  10.926 -0.2526 -0.1478  0.3334
  922MOL0     C27147  10.098   1.653  11.221 -0.0060  0.1515  0.4707
  922MOL0     C27148  10.025   1.737  11.304  0.2558  0.7276  0.3675
  922MOL0     N27149   9.334   2.165  11.566 -0.3683 -0.7766 -0.7001
  922MOL0     N27150   9.208   2.161  11.529  0.6129 -0.8223  0.9141
  922MOL0     C27151   8.095   2.280  11.493  0.7305 -0.0412  1.0276
  922MOL0     C27152   7.977   2.296  11.425 -0.8320 -0.1648 -0.1908
  922MOL0     C27153   7.592   2.215  11.264 -0.3718 -0.5348  0.0559
  922MOL0     C27154   7.521   2.097  11.235  0.1469  0.3185  0.1670
  922MOL0     C27155   7.409   2.098  11.149 -0.6065  0.8946 -0.8234
  922MOL0     C27156   7.380   2.212  11.077  0.1787 -0.0113 -0.5606
  922MOL0     O27157   7.288   2.201  10.974 -0.9275  0.4269  0.2807
  922MOL0     C27158   7.271   2.315  10.879  0.6788  0.7305 -0.7308
  922MOL0     C27159   7.164   2.300  10.769 -0.0878  0.8204  1.4210
  922MOL0     C27160   7.228   2.230  10.651 -0.2712  0.4010 -0.4038
  922MOL0     C27161   7.116   2.164  10.574  0.0821 -1.1007 -0.8265
  922MOL0     C27162   7.180   2.044  10.509 -0.2000  0.0291 -0.1349
  922MOL0     C27163   7.220   1.948  10.452  0.1584 -1.0898  0.2130
  922MOL0     C27164   7.450   2.333  11.102  0.5868 -0.2696  0.6188
  922MOL0     C27165   7.556   2.339  11.201 -0.3869  0.1711 -0.1307
  922MOL0     C27166   7.632   2.468  11.207 -0.4457  1.0068 -0.5792
  922MOL0     H27167   7.762   2.381  11.656  0.1149  2.2877 -0.4295
  922MOL0     H27168   7.991   2.365  11.805 -0.9727 -0.7456  0.1741
  922MOL0     H27169   8.247   2.097  11.623 -1.8838  0.4687  1.3117
  922MOL0     H27170   8.305   2.125  11.786 -1.5812 -0.0285  1.1952
  922MOL0     H27171   8.418   2.271  11.552 -3.3301 -1.5017 -1.3371
  922MOL0     H27172   8.494   2.257  11.707  1.0117 -0.7765 -0.8520
  922MOL0     H27173   8.458   1.991  11.576 -3.2163  3.4924 -1.9195
  922MOL0     H27174   8.586   2.098  11.520 -2.5278 -0.8265 -2.4180
  922MOL0     H27175   8.690   2.116  11.755  0.6822 -1.2688  2.0053
  922MOL0     H27176   8.552   2.051  11.820  1.1333  0.1311  1.0172
  922MOL0     H27177   8.609   1.836  11.726  0.4258 -0.1969 -0.2468
  922MOL0     H27178   8.727   1.902  11.833  0.3518  5.7112  0.1971
  922MOL0     H27179   8.843   1.800  11.625  0.0267 -0.3282 -0.3179
  922MOL0     H27180   8.753   1.921  11.531 -0.3412  0.0324  0.5264
  922MOL0     H27181   8.951   1.964  11.749 -2.7122 -3.7901 -0.0503
  922MOL0     H27182   8.873   2.105  11.658 -0.4891  0.1919 -0.2129
  922MOL0     H27183   9.024   1.878  11.512 -0.9712  0.5416 -2.4853
  922MOL0     H27184   8.980   2.031  11.455 -2.7398 -1.1917  0.7386
  922MOL0     H27185   9.261   1.862  11.669  2.2607  0.5547  2.2571
  922MOL0     H27186   9.513   1.967  11.755 -0.6392  0.6486 -0.1450
  922MOL0     H27187   9.556   2.108  11.675 -1.2877  1.0311  0.1195
  922MOL0     H27188   9.507   1.853  11.527 -0.4516 -0.2216  2.5486
  922MOL0     H27189   9.587   1.987  11.464 -2.3149 -2.2618 -1.4337
  922MOL0     H27190   9.785   1.954  11.600  0.6928  0.2101 -0.4803
  922MOL0     H27191   9.707   1.817  11.678  0.1531 -0.7702 -0.6351
  922MOL0     H27192   9.857   1.724  11.525  0.2473 -0.7850 -0.9341
  922MOL0     H27193   9.701   1.687  11.454  1.2661 -0.3844  0.1434
  922MOL0     H27194   9.718   1.664  11.179 -0.5675  1.0086 -1.4057
  922MOL0     H27195   9.727   1.473  11.024 -0.3493 -1.3289 -1.4679
  922MOL0     H27196   9.878   1.384  11.006  1.3429 -0.0338 -0.4607
  922MOL0     H27197   9.858   1.533  10.907  3.5017 -1.9067 -0.4550
  922MOL0     H27198  10.286   1.324  10.892 -1.8625 -0.5515  1.2027
  922MOL0     H27199  10.521   1.208  10.860  3.3842  1.6386  1.2823
  922MOL0     H27200  10.792   1.301  11.016 -1.3775  0.3804  0.7659
  922MOL0     H27201  10.767   1.275  11.188  0.0690  0.7687 -0.0288
  922MOL0     H27202  10.930   1.094  11.007  2.5556  2.0767 -1.5809
  922MOL0     H27203  10.992   1.238  11.102 -0.1592  0.0909 -0.1680
  922MOL0     H27204  10.823   1.052  11.275  0.3439 -1.0951  2.5955
  922MOL0     H27205  10.978   1.119  11.316 -1.6212 -1.7354  1.9434
  922MOL0     H27206  11.097   0.956  11.179  0.8648 -0.6850  4.0505
  922MOL0     H27207  10.945   0.889  11.129  0.9739  0.3796 -1.0207
  922MOL0     H27208  11.066   0.897  11.408 -2.8273  1.6381  1.4071
  922MOL0     H27209  10.908   0.813  11.369  0.4026 -0.6359  2.5245
  922MOL0     H27210  11.152   0.755  11.201 -0.3708 -0.8305 -1.1086
  922MOL0     H27211  11.004   0.661  11.240  0.8188 -0.7337  1.4585
  922MOL0     H27212  11.086   0.639  11.481  2.2770  2.7183  0.4512
  922MOL0     H27213  11.242   0.694  11.431 -0.2139  1.2846 -1.8456
  922MOL0     H27214  11.266   0.495  11.283  1.0754 -0.4457  0.2938
  922MOL0     H27215  11.103   0.454  11.304 -1.8407  3.1941  0.8500
  922MOL0     H27216  10.551   1.151  11.289  3.1014  1.5169  0.0579
  922MOL0     H27217  10.344   1.270  11.323  1.0971  0.9786  0.1196
  922MOL0     H27218  10.205   1.650  11.238  0.0561 -2.4236  0.1582
  922MOL0     H27219  10.081   1.814  11.357  0.7640  0.8815 -0.3809
  922MOL0     H27220   8.180   2.242  11.438 -0.1480 -1.0087  0.2987
  922MOL0     H27221   7.987   2.271  11.319 -2.7151 -1.6995 -0.0564
  922MOL0     H27222   7.540   2.002  11.283  1.3223 -0.7735 -2.3431
  922MOL0     H27223   7.362   2.001  11.134 -0.1531  0.6943 -0.9930
  922MOL0     H27224   7.236   2.394  10.946  0.2951 -0.2247  0.2319
  922MOL0     H27225   7.366   2.347  10.835  1.0764  0.6272  0.0288
  922MOL0     H27226   7.145   2.402  10.734  0.6099  0.4434 -0.1562
  922MOL0     H27227   7.073   2.261  10.816 -0.2465  1.7135  1.8701
  922MOL0     H27228   7.281   2.305  10.592  0.0247 -0.0815 -0.7622
  922MOL0     H27229   7.309   2.163  10.685  0.8535  0.6997 -2.3456
  922MOL0     H27230   7.074   2.227  10.495  2.3214  3.2079  1.0889
  922MOL0     H27231   7.042   2.116  10.638 -0.3713  2.8116  1.9466
  922MOL0     H27232   7.291   1.881  10.407  3.5861  2.1248  0.3001
  922MOL0     H27233   7.433   2.423  11.044  1.1710  0.3137  1.3406
  922MOL0     H27234   7.614   2.524  11.115 -1.8100  1.8750  0.1887
  922MOL0     H27235   7.615   2.524  11.300  1.3588  1.5594 -0.5349
  922MOL0     H27236   7.739   2.445  11.209 -0.6451 -0.0080 -1.1422
  923MOL0     O27237  11.092   1.028  10.606 -0.6285 -0.1598  0.0419
  923MOL0     C27238  11.069   1.134  10.665 -0.3945  0.6754  0.0930
  923MOL0     O27239  11.130   1.182  10.772 -0.2410  0.4251  0.2330
  923MOL0     C27240  11.237   1.110  10.809  0.1926  0.3142  0.3891
  923MOL0     C27241  11.220   1.044  10.928 -0.7318  0.2760  1.0215
  923MOL0     C27242  11.321   0.980  10.993  0.3445 -0.5542 -0.2247
  923MOL0     C27243  11.447   0.960  10.929  0.6937  0.0503  0.4766
  923MOL0     O27244  11.544   0.898  10.997 -0.2318  0.7068 -0.3924
  923MOL0     C27245  11.653   0.843  10.925 -0.1573  0.4092  0.2506
  923MOL0     C27246  11.752   0.778  11.032 -0.4737  0.4041  0.1948
  923MOL0     C27247  11.825   0.653  10.978  0.1775  0.3406  0.5363
  923MOL0     C27248  11.912   0.688  10.862 -0.3091 -0.8852  0.7370
  923MOL0     C27249  12.050   0.748  10.901  0.0337 -0.1885  0.2148
  923MOL0     C27250  12.124   0.790  10.772 -0.7445  0.6464  0.0478
  923MOL0     C27251  12.252   0.874  10.796  0.6292  0.4873 -0.6350
  923MOL0     C27252  12.222   1.010  10.852  0.3873  0.1545  0.8081
  923MOL0     N27253  12.132   1.089  10.753  0.3317 -0.4063 -0.1678
  923MOL0     C27254  12.172   1.127  10.630  0.2626 -0.7202 -0.5234
  923MOL0     C27255  12.054   1.157  10.564  0.2018 -0.2387 -0.4511
  923MOL0     C27256  12.049   1.200  10.428 -0.2547 -0.1042 -0.4950
  923MOL0     C27257  12.029   1.353  10.407 -0.3025  0.0301  0.5175
  923MOL0     C27258  12.045   1.401  10.258  0.2256  1.4349  0.6790
  923MOL0     C27259  12.185   1.398  10.208 -0.7565 -0.7138  0.1086
  923MOL0     O27260  12.281   1.463  10.292 -0.2732 -0.0372 -0.5674
  923MOL0     C27261  12.418   1.438  10.268 -0.0045 -0.3352 -0.1821
  923MOL0     C27262  12.476   1.375  10.160 -0.3519 -0.6168  0.0390
  923MOL0     C27263  12.617   1.369  10.146  0.1648 -0.1647 -0.1657
  923MOL0     C27264  12.678   1.293  10.023  0.3515 -0.7290 -0.2437
  923MOL0     C27265  12.703   1.435  10.244 -0.5283  0.3145 -0.1079
  923MOL0     C27266  12.853   1.426  10.250  0.3133  0.0245  0.7613
  923MOL0     O27267  12.920   1.313  10.206  0.2181 -0.2279  0.0942
  923MOL0     C27268  13.060   1.305  10.200  0.1493  0.8829  0.2834
  923MOL0     C27269  13.134   1.298  10.319 -0.1303  0.0923  0.2332
  923MOL0     C27270  13.274   1.292  10.325 -0.4949 -0.1948  0.4051
  923MOL0     C27271  13.344   1.263  10.207 -0.4246  0.0462 -0.4455
  923MOL0     O27272  13.472   1.228  10.212 -0.1680  0.1889 -0.1307
  923MOL0     C27273  13.561   1.288  10.118 -0.5446  0.1858 -0.7537
  923MOL0     C27274  13.658   1.182  10.070  0.4569  0.3658  0.2230
  923MOL0     C27275  13.794   1.238  10.039 -0.1441 -0.2622  0.4690
  923MOL0     C27276  13.912   1.142  10.064 -0.8588  0.3766  0.0625
  923MOL0     C27277  14.045   1.220  10.052  0.2442  0.3448  0.3768
  923MOL0     C27278  14.084   1.317  10.170 -0.4261  0.4630  0.0299
  923MOL0     C27279  14.228   1.366  10.161 -0.5066 -0.6025 -0.3392
  923MOL0     C27280  14.260   1.485  10.266 -0.7055 -0.2438 -0.0558
  923MOL0    Cl27281  14.435   1.510  10.257 -0.3723  0.2558  0.0712
  923MOL0     C27282  13.268   1.259  10.086 -0.2776  0.1549  0.0884
  923MOL0     C27283  13.135   1.284  10.082  0.9352 -0.2500 -0.9548
  923MOL0     O27284  12.914   1.519  10.299  0.2749 -0.5812  0.0263
  923MOL0     C27285  12.637   1.485  10.358 -0.4613 -0.1098 -0.1221
  923MOL0     C27286  12.498   1.495  10.367 -0.1437  0.5380 -0.1151
  923MOL0     N27287  11.948   1.143  10.660 -0.0782  0.1509  1.1138
  923MOL0     N27288  11.996   1.095  10.768 -0.4144 -0.1867  0.8081
  923MOL0     C27289  11.463   1.025  10.803  0.2699  0.1205  0.2885
  923MOL0     C27290  11.361   1.106  10.744  0.0973 -0.1965  0.3502
  923MOL0     C27291  10.950   1.217  10.619 -0.5031 -0.0437  0.6681
  923MOL0     C27292  10.880   1.289  10.720 -0.0631  0.2964 -0.1065
  923MOL0     C27293  10.769   1.368  10.688 -0.4836 -0.1501 -0.3040
  923MOL0     C27294  10.709   1.363  10.561 -0.4942 -0.4609 -0.1276
  923MOL0     O27295  10.598   1.437  10.533 -0.4128  0.7270  0.4691
  923MOL0     C27296  10.626   1.580  10.544  0.9965 -0.4483  0.1278
  923MOL0     C27297  10.494   1.657  10.594 -0.5707  0.1524  0.9834
  923MOL0     C27298  10.466   1.603  10.743  0.5614 -0.1384  0.4335
  923MOL0     C27299  10.553   1.683  10.840  0.3434  1.0630  0.0102
  923MOL0     C27300  10.525   1.630  10.976 -0.3655 -0.2322  0.2796
  923MOL0     C27301  10.505   1.597  11.089 -0.3570 -0.5146 -0.9863
  923MOL0     C27302  10.764   1.276  10.470  0.3010 -0.2225  0.3670
  923MOL0     C27303  10.882   1.204  10.498 -0.7751 -0.1897  1.0171
  923MOL0     C27304  10.937   1.129  10.381  0.0740  0.4016  0.2452
  923MOL0     H27305  11.121   1.046  10.974 -0.4388 -0.4612  1.7019
  923MOL0     H27306  11.312   0.939  11.094 -0.6969  1.3256  0.4759
  923MOL0     H27307  11.716   0.920  10.878  0.2377  0.4306  0.7935
  923MOL0     H27308  11.622   0.763  10.857 -0.7093 -0.9802  2.0563
  923MOL0     H27309  11.816   0.849  11.085  0.2463 -0.0307 -0.0763
  923MOL0     H27310  11.683   0.749  11.112 -1.4768 -2.3774 -1.5069
  923MOL0     H27311  11.883   0.604  11.057 -1.3546 -4.2409 -0.9092
  923MOL0     H27312  11.754   0.576  10.950 -1.3804  1.2580  1.7673
  923MOL0     H27313  11.929   0.601  10.798  2.8214  0.1434  0.0016
  923MOL0     H27314  11.859   0.761  10.800  0.8921  1.8199  2.6918
  923MOL0     H27315  12.118   0.678  10.951 -0.6193  0.1150  1.5601
  923MOL0     H27316  12.043   0.826  10.977 -1.5606 -0.0883 -0.0047
  923MOL0     H27317  12.160   0.702  10.718 -1.3393  0.5636 -0.2331
  923MOL0     H27318  12.057   0.844  10.705 -0.6271 -0.1035 -0.6880
  923MOL0     H27319  12.310   0.879  10.703 -0.4179 -0.4346 -1.3778
  923MOL0     H27320  12.320   0.811  10.855  1.2157 -0.3230 -2.1083
  923MOL0     H27321  12.175   1.000  10.950  2.0370 -2.5809  1.4369
  923MOL0     H27322  12.307   1.072  10.879  0.3271 -0.1225  1.6671
  923MOL0     H27323  12.270   1.128  10.582  0.0962 -3.4456 -1.0984
  923MOL0     H27324  11.965   1.148  10.381  1.3021 -1.9178 -1.4427
  923MOL0     H27325  12.134   1.160  10.371 -0.7624  0.3310 -1.5862
  923MOL0     H27326  11.931   1.388  10.440 -1.2542  2.4286 -4.0611
  923MOL0     H27327  12.108   1.405  10.462  0.5458  0.3417 -0.9417
  923MOL0     H27328  11.989   1.332  10.195  1.4948 -1.1664  2.1980
  923MOL0     H27329  12.012   1.503  10.237  1.9334  1.4569 -2.5565
  923MOL0     H27330  12.214   1.294  10.192  0.0249 -0.3321 -1.0417
  923MOL0     H27331  12.193   1.439  10.107  1.4213  0.2015  0.6007
  923MOL0     H27332  12.405   1.330  10.092 -0.4918  0.5783 -0.6351
  923MOL0     H27333  12.712   1.191  10.044 -1.9316 -1.1334  2.0228
  923MOL0     H27334  12.770   1.345   9.996  0.5354 -0.3987  0.9633
  923MOL0     H27335  12.603   1.305   9.945  0.4253  1.5522 -0.0121
  923MOL0     H27336  13.089   1.311  10.416 -0.3161  1.2093  0.0020
  923MOL0     H27337  13.315   1.282  10.425 -2.6075 -2.7832  1.1243
  923MOL0     H27338  13.503   1.330  10.035 -2.8188 -1.3743 -0.0643
  923MOL0     H27339  13.612   1.370  10.168  3.1121 -1.7567 -0.9732
  923MOL0     H27340  13.681   1.103  10.142 -1.0131 -1.8444 -1.6178
  923MOL0     H27341  13.601   1.145   9.985 -2.8931  2.0946  1.5564
  923MOL0     H27342  13.811   1.314  10.116  0.7249 -1.4856  1.5302
  923MOL0     H27343  13.782   1.266   9.934 -1.2004 -3.6343 -0.4441
  923MOL0     H27344  13.905   1.063   9.988  1.0893 -1.1459  1.3328
  923MOL0     H27345  13.906   1.113  10.169 -0.0905 -2.2281 -0.5369
  923MOL0     H27346  14.122   1.142  10.057  0.6446  0.8157  3.7869
  923MOL0     H27347  14.056   1.270   9.956  0.4891 -0.0651  0.1876
  923MOL0     H27348  14.072   1.265  10.265 -2.6116  0.2405 -0.3166
  923MOL0     H27349  14.008   1.396  10.168 -2.3629 -1.2852  1.2186
  923MOL0     H27350  14.248   1.402  10.060  0.5868 -0.7969 -0.2088
  923MOL0     H27351  14.306   1.296  10.193 -1.1101 -2.1251 -2.0471
  923MOL0     H27352  14.233   1.444  10.364  1.6384  1.4804  1.4283
  923MOL0     H27353  14.195   1.570  10.246  1.2121  1.0019 -1.3078
  923MOL0     H27354  13.322   1.247   9.993 -2.3671  3.2694 -1.6702
  923MOL0     H27355  13.091   1.288   9.983 -1.5025  0.9890  0.0928
  923MOL0     H27356  12.699   1.536  10.431 -0.3855 -0.7614  0.2767
  923MOL0     H27357  12.463   1.547  10.456 -1.3008 -1.6900  0.8231
  923MOL0     H27358  11.559   1.016  10.753 -0.7356  0.1764 -1.7631
  923MOL0     H27359  11.377   1.171  10.659  0.5579 -0.1672  0.4578
  923MOL0     H27360  10.937   1.297  10.812  1.8592 -0.7388 -1.1440
  923MOL0     H27361  10.717   1.424  10.765  0.9784  0.1954  0.4522
  923MOL0     H27362  10.704   1.606  10.617  1.9508  3.1396 -1.9452
  923MOL0     H27363  10.653   1.624  10.448 -0.2460 -0.0624 -0.0524
  923MOL0     H27364  10.412   1.644  10.522 -0.5332  1.2674  0.7180
  923MOL0     H27365  10.510   1.765  10.598 -1.3946  0.3346 -0.0776
  923MOL0     H27366  10.361   1.629  10.756  1.3265  4.4812 -0.7369
  923MOL0     H27367  10.488   1.496  10.750 -1.1846 -0.7114 -1.8740
  923MOL0     H27368  10.527   1.789  10.839 -1.7892  0.6165  1.2163
  923MOL0     H27369  10.658   1.667  10.813 -0.2584 -1.9108 -0.9200
  923MOL0     H27370  10.501   1.602  11.196  0.3883  0.6395 -0.9879
  923MOL0     H27371  10.711   1.278  10.375  1.6288 -1.7831 -0.4600
  923MOL0     H27372  11.045   1.117  10.383 -0.1918 -2.7718  0.2340
  923MOL0     H27373  10.894   1.029  10.393  0.4776  0.2274  0.2513
  923MOL0     H27374  10.911   1.168  10.282 -3.4121 -0.7077  0.5832
  924MOL0     O27375   5.547   9.982   7.402  0.0411 -0.0629  0.7880
  924MOL0     C27376   5.435  10.020   7.439  0.4465  0.2788  0.1112
  924MOL0     O27377   5.408  10.116   7.531  0.3439 -0.4960  0.4772
  924MOL0     C27378   5.511  10.191   7.582  0.3751  0.4661 -0.6037
  924MOL0     C27379   5.583  10.141   7.693  0.2966 -0.3990  0.2590
  924MOL0     C27380   5.703  10.207   7.729  0.2191 -0.1000 -0.6356
  924MOL0     C27381   5.747  10.326   7.658 -0.1753  0.6749  0.2203
  924MOL0     O27382   5.868  10.391   7.677  0.7128 -0.3731  0.3424
  924MOL0     C27383   5.977  10.315   7.732 -0.2777 -0.7583 -0.8113
  924MOL0     C27384   6.115  10.359   7.672 -0.6484 -1.4736 -0.0386
  924MOL0     C27385   6.177  10.492   7.736 -0.0209  0.1258  0.2078
  924MOL0     C27386   6.332  10.508   7.727 -0.1997 -0.4150  0.5444
  924MOL0     C27387   6.386  10.632   7.808  0.4172 -0.1619  0.1517
  924MOL0     C27388   6.527  10.661   7.758  0.2935  0.4112  0.1981
  924MOL0     C27389   6.594  10.764   7.846  0.0557  0.1996 -0.1533
  924MOL0     C27390   6.744  10.771   7.829 -0.8419  0.5451  0.8899
  924MOL0     N27391   6.799  10.878   7.913  0.4289  0.2526 -0.4491
  924MOL0     C27392   6.843  10.841   8.038 -0.1890 -0.5662  0.2232
  924MOL0     C27393   6.878  10.960   8.092 -0.1858 -0.3616 -1.0793
  924MOL0     C27394   6.932  10.982   8.233  1.0829 -0.8068 -0.3993
  924MOL0     C27395   7.085  11.017   8.226  0.2446 -0.2712  0.1483
  924MOL0     C27396   7.141  11.093   8.349 -0.5368 -0.0166 -0.4845
  924MOL0     C27397   7.286  11.109   8.336  0.2191  0.5336  0.0435
  924MOL0     O27398   7.320  11.214   8.244 -0.9755  0.3768 -0.1020
  924MOL0     C27399   7.452  11.225   8.210  0.0898  0.2337  0.0406
  924MOL0     C27400   7.550  11.160   8.274 -0.0678 -0.1267 -0.6238
  924MOL0     C27401   7.682  11.163   8.238 -0.2698 -0.6530  0.3137
  924MOL0     C27402   7.789  11.101   8.325  0.3646 -0.0243  0.1499
  924MOL0     C27403   7.722  11.241   8.128  0.2498  0.5020  0.7036
  924MOL0     C27404   7.864  11.261   8.085  0.9641  0.4552  0.3883
  924MOL0     O27405   7.889  11.394   8.049  0.3247  0.3517 -0.1518
  924MOL0     C27406   8.029  11.416   8.039 -0.7135 -0.0895  0.2699
  924MOL0     C27407   8.121  11.382   8.141 -0.9440 -0.1548  0.7647
  924MOL0     C27408   8.255  11.410   8.139 -0.7659 -0.1813  0.6657
  924MOL0     C27409   8.311  11.485   8.032  0.1826 -0.4395 -0.1035
  924MOL0     O27410   8.446  11.525   8.025 -0.1669  0.8901 -0.4202
  924MOL0     C27411   8.533  11.465   8.119 -0.0663 -0.2520 -0.3258
  924MOL0     C27412   8.678  11.502   8.110  0.3307 -0.2435 -1.2835
  924MOL0     C27413   8.749  11.509   8.244 -0.4699 -0.1003  0.1519
  924MOL0     C27414   8.899  11.554   8.227  0.9878  0.2147 -0.5196
  924MOL0     C27415   8.916  11.703   8.217  0.0888  0.8958  0.5868
  924MOL0     C27416   9.065  11.743   8.247 -0.9685 -0.0009 -0.5240
  924MOL0     C27417   9.088  11.779   8.398  0.9452  0.3306  0.7255
  924MOL0     C27418   9.235  11.796   8.438 -0.1950  0.1711  0.9286
  924MOL0    Cl27419   9.312  11.634   8.455 -0.0335 -0.0126  0.0467
  924MOL0     C27420   8.219  11.525   7.936 -0.8891  0.8659  0.3838
  924MOL0     C27421   8.082  11.488   7.933 -0.2239  0.3312 -0.2831
  924MOL0     O27422   7.943  11.169   8.093  0.5867  0.3557 -0.2594
  924MOL0     C27423   7.617  11.304   8.063 -0.9956 -0.2053  0.6354
  924MOL0     C27424   7.488  11.300   8.110 -0.5408  0.3230  0.0785
  924MOL0     N27425   6.854  11.063   8.004 -0.1753  0.1080  0.1323
  924MOL0     N27426   6.801  11.011   7.893  0.6264 -0.4341 -0.6689
  924MOL0     C27427   5.658  10.390   7.574 -0.2489  0.5801  0.1027
  924MOL0     C27428   5.542  10.322   7.534  0.7346  0.3318  0.1418
  924MOL0     C27429   5.317   9.971   7.359 -0.6423  0.1704 -0.6353
  924MOL0     C27430   5.324   9.990   7.219  0.4282  0.9203  0.0114
  924MOL0     C27431   5.208   9.976   7.148  0.3813 -0.7260  0.3091
  924MOL0     C27432   5.086   9.941   7.211 -0.3269  0.1171 -0.2479
  924MOL0     O27433   4.981   9.920   7.138 -0.4400 -0.6336 -0.0084
  924MOL0     C27434   4.855   9.883   7.190  1.2801  1.0028 -0.7224
  924MOL0     C27435   4.844   9.730   7.193 -0.1371 -0.7718  0.5624
  924MOL0     C27436   4.877   9.671   7.063  0.4593 -0.6172  0.2105
  924MOL0     C27437   4.830   9.523   7.053 -0.0231 -0.3405  1.0140
  924MOL0     C27438   4.678   9.513   7.038 -0.0658 -0.2728  0.2136
  924MOL0     C27439   4.557   9.507   7.017 -0.1292 -0.6283  0.3903
  924MOL0     C27440   5.083   9.919   7.347 -0.6345  0.8189  0.6430
  924MOL0     C27441   5.199   9.939   7.429 -0.2636 -0.8189  0.0554
  924MOL0     C27442   5.183   9.941   7.575  0.0610 -0.1153 -0.5366
  924MOL0     H27443   5.558  10.048   7.742 -2.6655 -1.3998 -2.7427
  924MOL0     H27444   5.748  10.161   7.817 -2.2592 -0.3880  0.5576
  924MOL0     H27445   5.969  10.208   7.712  1.4397 -2.5039  5.5713
  924MOL0     H27446   5.981  10.321   7.841 -0.1265 -0.9733 -0.8049
  924MOL0     H27447   6.187  10.277   7.685  0.6440 -0.2597  0.7366
  924MOL0     H27448   6.105  10.375   7.564 -3.3237  0.3706  0.3949
  924MOL0     H27449   6.135  10.588   7.703 -1.5037 -0.0719  1.4212
  924MOL0     H27450   6.150  10.491   7.842 -1.7666 -0.1302 -0.2156
  924MOL0     H27451   6.384  10.416   7.754  2.6089  1.2333  1.0937
  924MOL0     H27452   6.360  10.526   7.623  1.8814  1.7891  1.3902
  924MOL0     H27453   6.378  10.606   7.914 -1.1835  0.4250  0.2172
  924MOL0     H27454   6.320  10.717   7.787 -0.9368 -1.1368  0.3365
  924MOL0     H27455   6.585  10.568   7.766  1.1982  0.9736  0.3663
  924MOL0     H27456   6.526  10.686   7.652  3.5693 -3.6967 -1.0636
  924MOL0     H27457   6.568  10.744   7.951  2.0417  3.1357  1.0269
  924MOL0     H27458   6.557  10.864   7.818  1.3575  0.6148 -0.4389
  924MOL0     H27459   6.784  10.671   7.850 -1.2661  0.3324  0.6896
  924MOL0     H27460   6.758  10.787   7.722 -2.5838 -4.3371 -0.3481
  924MOL0     H27461   6.832  10.744   8.086 -0.9609  0.2029  1.6765
  924MOL0     H27462   6.917  10.896   8.299 -0.1849 -1.0933 -1.0364
  924MOL0     H27463   6.869  11.062   8.273 -0.0755 -0.7501 -2.2422
  924MOL0     H27464   7.138  10.923   8.212 -1.4320 -1.0487 -1.2939
  924MOL0     H27465   7.106  11.080   8.139  0.3901 -0.6599 -0.1008
  924MOL0     H27466   7.113  11.198   8.357  3.1047  0.9798  1.0889
  924MOL0     H27467   7.106  11.039   8.438  0.6890  1.2064  0.7873
  924MOL0     H27468   7.310  11.133   8.440 -3.5570  2.9514  0.5389
  924MOL0     H27469   7.335  11.013   8.315 -3.3204 -1.6396  0.8683
  924MOL0     H27470   7.527  11.102   8.363 -1.4385 -0.8894 -1.4352
  924MOL0     H27471   7.859  11.180   8.354 -1.9690  1.4163  2.2209
  924MOL0     H27472   7.831  11.020   8.264  1.1281  1.4434 -1.3596
  924MOL0     H27473   7.752  11.069   8.423  0.2475  2.0245  0.8083
  924MOL0     H27474   8.086  11.325   8.226 -0.3179 -1.5404  0.1323
  924MOL0     H27475   8.319  11.378   8.220  2.3934  1.5391 -0.9516
  924MOL0     H27476   8.502  11.493   8.220  0.6185 -1.5062  0.2669
  924MOL0     H27477   8.533  11.355   8.125  0.4227 -0.2028  0.8119
  924MOL0     H27478   8.743  11.448   8.040  2.6299  1.9756 -1.0356
  924MOL0     H27479   8.669  11.602   8.066 -1.5221 -0.8720 -2.4694
  924MOL0     H27480   8.751  11.409   8.287  1.0816  0.1437  0.7199
  924MOL0     H27481   8.689  11.572   8.311 -0.7254 -2.1028  1.8925
  924MOL0     H27482   8.931  11.490   8.144  1.3884 -3.4261  2.2111
  924MOL0     H27483   8.956  11.511   8.309  3.3286  3.7977 -0.0505
  924MOL0     H27484   8.894  11.738   8.116  1.6274  1.7847  0.5288
  924MOL0     H27485   8.845  11.754   8.284 -1.0592  0.5618 -0.3393
  924MOL0     H27486   9.087  11.838   8.198 -0.6587 -1.0862 -2.5835
  924MOL0     H27487   9.124  11.654   8.220 -1.4642 -1.0350  1.5680
  924MOL0     H27488   9.060  11.701   8.470 -1.0147 -1.8892 -2.2258
  924MOL0     H27489   9.041  11.876   8.414  1.3698  1.0372 -1.9196
  924MOL0     H27490   9.252  11.842   8.536  2.2264  0.5364  0.4000
  924MOL0     H27491   9.294  11.859   8.371  1.2690 -1.3324  0.7221
  924MOL0     H27492   8.249  11.587   7.852 -1.8641  1.5670  0.5289
  924MOL0     H27493   8.017  11.527   7.855 -1.1096  0.0291  0.2955
  924MOL0     H27494   7.636  11.372   7.980 -1.2503  1.1684  1.6575
  924MOL0     H27495   7.410  11.350   8.052 -1.6681 -2.1744 -0.6938
  924MOL0     H27496   5.691  10.484   7.531  1.0389  0.7945  1.4977
  924MOL0     H27497   5.493  10.374   7.452 -0.0786 -1.4176 -0.5361
  924MOL0     H27498   5.418  10.009   7.168  0.3182 -0.5284 -0.7851
  924MOL0     H27499   5.206   9.986   7.040 -3.9919  1.9623  0.4002
  924MOL0     H27500   4.825   9.927   7.286  2.9664  2.4364 -0.7984
  924MOL0     H27501   4.783   9.925   7.119 -2.2281  0.7050  2.3241
  924MOL0     H27502   4.742   9.694   7.207 -0.4181 -1.5939 -2.8472
  924MOL0     H27503   4.923   9.693   7.259  0.5704  1.3616  1.0125
  924MOL0     H27504   4.835   9.729   6.980  3.4949 -0.6701 -1.5072
  924MOL0     H27505   4.986   9.678   7.063  0.3934  1.5221  1.7056
  924MOL0     H27506   4.866   9.465   7.138  3.0014 -0.3499 -0.1204
  924MOL0     H27507   4.882   9.477   6.968  1.4612  0.0102  1.6845
  924MOL0     H27508   4.453   9.498   6.991 -0.0627 -2.3060  0.6127
  924MOL0     H27509   4.999   9.872   7.396 -0.2002 -0.8743 -0.1678
  924MOL0     H27510   5.278   9.922   7.625  0.7794 -1.8952 -2.4032
  924MOL0     H27511   5.142  10.040   7.593 -0.2287 -0.8338  3.5947
  924MOL0     H27512   5.123   9.856   7.609 -0.2994  0.7266  1.0086
  925MOL0     O27513   9.491   6.422  10.078 -0.2628  0.0502  0.4826
  925MOL0     C27514   9.470   6.364   9.976  0.6124  0.4448  1.5429
  925MOL0     O27515   9.536   6.245   9.942  0.3814 -0.2561  0.1576
  925MOL0     C27516   9.645   6.200  10.013 -0.2933 -0.7198  0.2119
  925MOL0     C27517   9.637   6.154  10.147  0.4818 -0.3971  0.4046
  925MOL0     C27518   9.741   6.090  10.211 -0.0033 -0.7522 -0.0727
  925MOL0     C27519   9.868   6.083  10.150  0.7657  0.2049 -0.3272
  925MOL0     O27520   9.979   6.031  10.199  0.1655 -1.3174  0.0593
  925MOL0     C27521   9.972   5.967  10.326 -0.1293 -0.8052  0.6159
  925MOL0     C27522  10.102   5.886  10.355  0.4354 -0.7003  0.1844
  925MOL0     C27523  10.111   5.841  10.499  0.1661  0.8161 -0.3010
  925MOL0     C27524  10.237   5.749  10.530 -0.4309  0.6807 -0.0187
  925MOL0     C27525  10.236   5.721  10.679 -1.1910  0.2447  0.3366
  925MOL0     C27526  10.311   5.832  10.758 -0.1621  0.4863  0.2262
  925MOL0     C27527  10.325   5.780  10.904  0.0439 -0.4036  0.2651
  925MOL0     C27528  10.424   5.884  10.974  0.2818 -0.3148  0.3769
  925MOL0     N27529  10.458   5.843  11.113 -0.0642 -0.5542  0.1325
  925MOL0     C27530  10.442   5.918  11.223  0.0926 -0.1312  0.3540
  925MOL0     C27531  10.486   5.845  11.329 -0.1383  0.1488 -0.2921
  925MOL0     C27532  10.479   5.901  11.465 -0.6067 -0.0788 -0.0271
  925MOL0     C27533  10.338   5.910  11.521 -0.4245  0.4151 -0.2793
  925MOL0     C27534  10.353   5.947  11.674  0.0451 -0.4076  0.5224
  925MOL0     C27535  10.218   5.950  11.742  0.2751  0.0272  0.0354
  925MOL0     O27536  10.142   6.064  11.697 -0.1487  0.3366 -0.9053
  925MOL0     C27537  10.007   6.050  11.697  0.5883 -0.3533 -0.5442
  925MOL0     C27538   9.947   6.095  11.577  1.0535 -0.1780 -0.3882
  925MOL0     C27539   9.812   6.084  11.552 -0.4404 -0.0543  0.2595
  925MOL0     C27540   9.757   6.141  11.422  0.2527 -0.3717  0.0230
  925MOL0     C27541   9.735   6.016  11.649 -0.0025 -0.6636 -0.0625
  925MOL0     C27542   9.591   5.998  11.639  0.8154 -0.3393  0.6990
  925MOL0     O27543   9.529   5.961  11.756 -0.0876 -0.0449 -0.4978
  925MOL0     C27544   9.391   5.986  11.776  0.1560  0.3581 -0.2786
  925MOL0     C27545   9.358   6.065  11.892 -0.7196  1.1614 -0.7861
  925MOL0     C27546   9.228   6.105  11.919 -0.3669  0.2838 -0.4466
  925MOL0     C27547   9.122   6.059  11.839  0.3310 -0.3321 -0.2812
  925MOL0     O27548   8.992   6.094  11.864 -0.5052  0.0334 -0.6311
  925MOL0     C27549   8.975   6.229  11.917 -0.0412  0.4159 -0.6250
  925MOL0     C27550   8.934   6.222  12.068  0.1776  0.0505  1.1113
  925MOL0     C27551   8.832   6.114  12.088  0.3396  0.4813 -0.4261
  925MOL0     C27552   8.844   6.075  12.239  0.5061 -0.6241  1.1431
  925MOL0     C27553   8.718   6.001  12.293  0.5617 -0.0239  0.5047
  925MOL0     C27554   8.605   6.093  12.337  0.4760 -0.4662 -1.0219
  925MOL0     C27555   8.481   6.021  12.391 -0.0072  0.7173  0.0148
  925MOL0     C27556   8.406   6.098  12.495  0.4741  0.1378  0.0306
  925MOL0    Cl27557   8.327   6.236  12.415 -0.0802  0.0311  0.0342
  925MOL0     C27558   9.151   5.969  11.735  0.3610 -0.3280  1.1426
  925MOL0     C27559   9.289   5.935  11.700  0.8600 -0.6574 -0.2582
  925MOL0     O27560   9.521   6.044  11.548  0.3478  0.2261  0.0037
  925MOL0     C27561   9.796   5.970  11.767 -0.1681  0.9823  0.2856
  925MOL0     C27562   9.924   5.997  11.792 -0.9888 -0.0848  0.0580
  925MOL0     N27563  10.542   5.734  11.281 -0.2453 -0.2843 -0.7252
  925MOL0     N27564  10.509   5.727  11.157 -0.6208  0.6438  0.0969
  925MOL0     C27565   9.882   6.145  10.028 -0.4688 -0.7050 -0.5559
  925MOL0     C27566   9.769   6.206   9.959 -0.1708 -0.2804  0.0582
  925MOL0     C27567   9.353   6.413   9.889  0.9245  0.4681 -0.4256
  925MOL0     C27568   9.270   6.514   9.939  0.7124 -0.0136 -0.0705
  925MOL0     C27569   9.163   6.570   9.869 -0.4177 -0.6084 -0.5354
  925MOL0     C27570   9.134   6.522   9.744  0.0334  0.0035 -0.1217
  925MOL0     O27571   9.024   6.555   9.662 -0.2536 -0.3150  0.0666
  925MOL0     C27572   8.952   6.675   9.696 -0.0554 -0.3386  0.0917
  925MOL0     C27573   8.850   6.662   9.813  0.2469 -0.0738 -0.4504
  925MOL0     C27574   8.737   6.765   9.795  0.0778  0.5100  0.1546
  925MOL0     C27575   8.646   6.759   9.922  0.2192  0.5084  0.4447
  925MOL0     C27576   8.526   6.856   9.934 -0.7801 -0.6815  0.6947
  925MOL0     C27577   8.448   6.949   9.930  1.3750  1.2915  0.0499
  925MOL0     C27578   9.216   6.422   9.692  0.1420 -0.3836  0.2661
  925MOL0     C27579   9.319   6.365   9.762 -0.6036 -0.5903 -0.0608
  925MOL0     C27580   9.403   6.258   9.689  0.4423 -1.3417 -0.2440
  925MOL0     H27581   9.540   6.135  10.193  0.9377 -2.1149  0.7046
  925MOL0     H27582   9.707   6.038  10.300  1.2214 -1.4638  0.0148
  925MOL0     H27583   9.880   5.909  10.319 -0.0434 -0.7449 -1.7960
  925MOL0     H27584   9.959   6.035  10.411  2.5559  0.4898  0.0980
  925MOL0     H27585  10.113   5.812  10.275  0.0224 -0.8048  0.2244
  925MOL0     H27586  10.185   5.957  10.347  0.7438 -0.7728  2.1908
  925MOL0     H27587  10.105   5.927  10.568 -0.9542  0.4824  0.0428
  925MOL0     H27588  10.017   5.795  10.530  0.1264  0.9612 -0.2020
  925MOL0     H27589  10.220   5.655  10.476 -2.0826  1.7775 -1.5528
  925MOL0     H27590  10.330   5.790  10.489  0.1397  1.7032  2.1695
  925MOL0     H27591  10.288   5.625  10.691  1.4469  1.1552 -2.3997
  925MOL0     H27592  10.135   5.707  10.719 -1.5054 -1.0378 -0.8529
  925MOL0     H27593  10.406   5.859  10.711  0.1909  1.8655  1.6884
  925MOL0     H27594  10.248   5.921  10.753 -1.5192 -0.4964 -2.7982
  925MOL0     H27595  10.372   5.682  10.897 -0.5309 -0.5660 -2.4581
  925MOL0     H27596  10.232   5.776  10.961 -1.4704  2.9774 -1.6260
  925MOL0     H27597  10.523   5.888  10.927  1.7877  3.7683  3.3283
  925MOL0     H27598  10.389   5.987  10.967 -2.1684 -1.2077 -2.8429
  925MOL0     H27599  10.399   6.017  11.213  1.3105  0.1939 -2.9356
  925MOL0     H27600  10.530   5.998  11.458  0.9575 -0.9070 -0.4294
  925MOL0     H27601  10.538   5.841  11.534 -0.0216 -1.7928 -1.9310
  925MOL0     H27602  10.284   5.991  11.471 -0.7256  0.1041 -0.4624
  925MOL0     H27603  10.283   5.819  11.495 -0.6737  0.9737 -1.7952
  925MOL0     H27604  10.415   5.871  11.723  1.3488 -0.0010 -0.4437
  925MOL0     H27605  10.406   6.041  11.688 -0.4831 -0.1108  0.5634
  925MOL0     H27606  10.167   5.854  11.734 -0.8614  0.4508  1.7565
  925MOL0     H27607  10.232   5.961  11.850  2.5420 -0.5573 -0.1541
  925MOL0     H27608  10.003   6.133  11.493  0.1482 -0.7247 -1.2597
  925MOL0     H27609   9.723   6.064  11.352 -2.0950  1.1789 -0.6852
  925MOL0     H27610   9.842   6.191  11.376  0.6790 -1.0301  0.0860
  925MOL0     H27611   9.680   6.217  11.440  1.8122  2.3360 -3.6298
  925MOL0     H27612   9.444   6.091  11.953 -0.5723  0.0253 -0.4872
  925MOL0     H27613   9.232   6.169  12.007  1.2518  0.0654 -0.3177
  925MOL0     H27614   9.065   6.291  11.912  2.7055 -3.2733 -1.0552
  925MOL0     H27615   8.894   6.283  11.866 -0.9281  1.8681  2.0987
  925MOL0     H27616   9.028   6.196  12.117  0.4010  1.2077  1.3423
  925MOL0     H27617   8.893   6.318  12.101 -1.3255 -0.6948  1.5149
  925MOL0     H27618   8.847   6.020  12.034  0.2636 -0.5447  1.2610
  925MOL0     H27619   8.731   6.148  12.066  0.4027 -1.1580 -4.0325
  925MOL0     H27620   8.865   6.164  12.299 -0.4698 -0.8659  1.8717
  925MOL0     H27621   8.926   6.002  12.244 -0.0613 -1.4374 -0.8176
  925MOL0     H27622   8.680   5.938  12.212  1.0796  2.3679 -1.7303
  925MOL0     H27623   8.741   5.941  12.381 -0.6127  1.6736  2.0555
  925MOL0     H27624   8.574   6.150  12.250 -0.0325  0.4458 -0.2601
  925MOL0     H27625   8.654   6.157  12.412 -1.1535 -0.9651  0.5313
  925MOL0     H27626   8.509   5.930  12.445 -0.6051  0.0887 -0.7164
  925MOL0     H27627   8.419   5.997  12.304 -0.1143  0.7101  0.0920
  925MOL0     H27628   8.469   6.129  12.579  1.6316  0.8899 -1.0731
  925MOL0     H27629   8.321   6.043  12.535  0.9018 -0.1673  0.5188
  925MOL0     H27630   9.070   5.925  11.677 -0.4273  1.1284  1.0856
  925MOL0     H27631   9.316   5.872  11.615  3.4257  1.4263 -1.1465
  925MOL0     H27632   9.742   5.925  11.850 -2.2227  1.4221 -0.7245
  925MOL0     H27633   9.974   5.981  11.887  2.3581  0.4873 -1.4375
  925MOL0     H27634   9.977   6.152   9.976  0.7697  0.8100  1.7282
  925MOL0     H27635   9.796   6.268   9.874  0.0584  2.8787  2.2502
  925MOL0     H27636   9.291   6.560  10.035 -0.9003 -2.2194  1.4293
  925MOL0     H27637   9.102   6.647   9.916 -1.4140 -1.3711 -0.5434
  925MOL0     H27638   9.024   6.755   9.717 -1.8448  0.5279  3.5116
  925MOL0     H27639   8.898   6.702   9.605  0.6583 -0.3231 -0.3386
  925MOL0     H27640   8.896   6.687   9.909  1.7782  0.5318 -1.3047
  925MOL0     H27641   8.824   6.557   9.829  1.8024 -0.4034  0.0914
  925MOL0     H27642   8.774   6.865   9.771 -2.0877  0.6055 -3.7158
  925MOL0     H27643   8.669   6.733   9.715 -1.1644  0.2610  1.2719
  925MOL0     H27644   8.693   6.780  10.018  1.4822  1.5767 -0.3671
  925MOL0     H27645   8.599   6.661   9.931  1.0592 -0.2440 -2.3934
  925MOL0     H27646   8.363   7.012   9.914  0.6085  0.1546 -0.4432
  925MOL0     H27647   9.196   6.380   9.594 -1.2925 -0.2273  0.4711
  925MOL0     H27648   9.503   6.297   9.668 -0.1985 -0.1534 -1.2312
  925MOL0     H27649   9.421   6.169   9.750  2.6351 -0.0070  1.1975
  925MOL0     H27650   9.362   6.210   9.600 -0.0864  0.1029 -0.8100
  926MOL0     O27651   3.120   6.704  11.127  1.2329  0.2015  0.2896
  926MOL0     C27652   3.063   6.642  11.030  0.3715 -0.4410 -1.3454
  926MOL0     O27653   3.121   6.542  10.964 -0.5354  0.2988 -0.0726
  926MOL0     C27654   3.263   6.527  10.955 -0.7784 -0.3950 -0.5117
  926MOL0     C27655   3.318   6.404  10.971  0.0200  0.1676  0.0945
  926MOL0     C27656   3.459   6.386  10.966 -0.2327 -0.0743  0.3318
  926MOL0     C27657   3.540   6.494  10.925  0.4251  0.3159  0.8477
  926MOL0     O27658   3.678   6.493  10.915 -0.0627  0.9116  0.4126
  926MOL0     C27659   3.758   6.381  10.957 -0.2712 -0.2145  0.1819
  926MOL0     C27660   3.884   6.344  10.876  0.2186  0.0537 -0.4342
  926MOL0     C27661   3.981   6.247  10.942  0.3620 -0.6189 -0.0529
  926MOL0     C27662   4.101   6.233  10.847 -0.2935 -0.4302  0.2494
  926MOL0     C27663   4.226   6.198  10.927 -0.2351  0.4094 -0.7676
  926MOL0     C27664   4.346   6.182  10.835 -0.5950  0.8516  0.2590
  926MOL0     C27665   4.390   6.316  10.771  0.2763  0.2608 -0.0940
  926MOL0     C27666   4.530   6.360  10.824 -0.2768 -0.2235  0.4792
  926MOL0     N27667   4.578   6.472  10.730  0.3516  0.8429  0.1562
  926MOL0     C27668   4.534   6.601  10.736  0.7338 -0.1622  0.3482
  926MOL0     C27669   4.630   6.665  10.659  0.1964 -0.3832  0.1678
  926MOL0     C27670   4.634   6.818  10.645  0.0293  0.4636  0.4404
  926MOL0     C27671   4.516   6.878  10.567  1.2360  0.1808  0.0840
  926MOL0     C27672   4.505   7.026  10.572  0.0100 -0.2291 -0.4453
  926MOL0     C27673   4.629   7.105  10.570 -0.3460  0.5637  0.1105
  926MOL0     O27674   4.691   7.072  10.440  0.2586 -0.0840 -0.0068
  926MOL0     C27675   4.821   7.121  10.418 -0.6364 -0.3132 -0.2220
  926MOL0     C27676   4.910   7.163  10.517 -0.1292 -0.0355  0.2694
  926MOL0     C27677   5.047   7.195  10.476  0.2205  0.1489  0.1189
  926MOL0     C27678   5.152   7.253  10.575 -0.0581 -0.5631 -0.4970
  926MOL0     C27679   5.084   7.202  10.334  0.5549 -0.1359 -0.1371
  926MOL0     C27680   5.230   7.226  10.294 -0.7586  0.9801 -0.1265
  926MOL0     O27681   5.243   7.280  10.167  0.4971  0.1090  0.0949
  926MOL0     C27682   5.369   7.260  10.110 -0.9723 -0.1662  0.5421
  926MOL0     C27683   5.471   7.359  10.125 -0.4605  0.5481  0.4150
  926MOL0     C27684   5.593   7.341  10.057 -1.5717 -0.5402 -0.6963
  926MOL0     C27685   5.627   7.229   9.985 -0.2952 -0.6648 -0.5387
  926MOL0     O27686   5.749   7.225   9.924 -0.3533 -0.1216  0.0382
  926MOL0     C27687   5.810   7.096   9.931  0.2262 -0.0620 -0.3533
  926MOL0     C27688   5.947   7.094   9.867 -0.5344 -0.7350 -0.4624
  926MOL0     C27689   5.960   7.168   9.734 -0.0580  0.0679  0.2515
  926MOL0     C27690   6.108   7.183   9.707 -0.0561 -0.3123  0.0519
  926MOL0     C27691   6.137   7.283   9.596 -0.0067  0.8889  0.1873
  926MOL0     C27692   6.285   7.308   9.578 -1.2138 -0.3794  0.1228
  926MOL0     C27693   6.352   7.398   9.682 -0.2780  0.0750  0.1237
  926MOL0     C27694   6.500   7.417   9.659  0.5467  0.3072  0.2174
  926MOL0    Cl27695   6.543   7.524   9.525  0.3054 -0.4422 -0.1208
  926MOL0     C27696   5.525   7.126   9.985 -0.4254 -0.8593  0.1757
  926MOL0     C27697   5.405   7.142  10.041  0.3363  0.2336  0.0459
  926MOL0     O27698   5.325   7.195  10.365 -0.2380 -0.2509  0.7186
  926MOL0     C27699   4.986   7.177  10.237  0.1304  0.1961  0.6870
  926MOL0     C27700   4.860   7.131  10.283  0.1756  0.3687  0.4219
  926MOL0     N27701   4.720   6.572  10.612 -0.6588 -0.5730  1.2336
  926MOL0     N27702   4.686   6.453  10.646  0.7852  0.3301  0.4505
  926MOL0     C27703   3.478   6.620  10.889  0.3555  0.4505  1.0958
  926MOL0     C27704   3.343   6.630  10.912  0.3851  0.2041  0.8013
  926MOL0     C27705   2.911   6.672  11.016 -0.0713  0.4183  0.7983
  926MOL0     C27706   2.848   6.773  11.090 -0.1242  0.5006 -0.2681
  926MOL0     C27707   2.706   6.791  11.096 -0.1266  0.3893  0.5497
  926MOL0     C27708   2.629   6.717  11.013  0.0085 -0.3498  0.2901
  926MOL0     O27709   2.491   6.751  11.015 -0.5373 -0.0778  0.2233
  926MOL0     C27710   2.402   6.667  10.941 -0.6482  0.4055  0.6646
  926MOL0     C27711   2.365   6.543  11.027 -0.5730 -0.1809  0.5138
  926MOL0     C27712   2.289   6.587  11.152  0.7033 -0.2293  0.4666
  926MOL0     C27713   2.215   6.477  11.227 -0.6976 -0.0647  0.3320
  926MOL0     C27714   2.179   6.529  11.360 -0.0940 -0.5987 -0.3184
  926MOL0     C27715   2.151   6.564  11.476  0.7090  0.4799 -0.1565
  926MOL0     C27716   2.682   6.617  10.937 -0.0989  1.0332 -0.0196
  926MOL0     C27717   2.819   6.594  10.930  0.1432  0.2706  0.5085
  926MOL0     C27718   2.863   6.480  10.841  0.4391  0.1975  0.2730
  926MOL0     H27719   3.243   6.327  10.984 -0.2072  0.3551 -0.1011
  926MOL0     H27720   3.501   6.286  10.972  0.0377  0.1411  3.5015
  926MOL0     H27721   3.695   6.296  10.985 -1.5349 -0.5747 -3.2914
  926MOL0     H27722   3.785   6.413  11.058  0.4441 -0.7206  0.1633
  926MOL0     H27723   3.854   6.294  10.783 -1.3860 -1.4393  0.7974
  926MOL0     H27724   3.924   6.444  10.863  1.1268 -0.3235 -0.5803
  926MOL0     H27725   4.017   6.292  11.035 -0.6434 -2.5294  1.3357
  926MOL0     H27726   3.941   6.149  10.971 -0.7866  0.5288  2.5796
  926MOL0     H27727   4.076   6.153  10.777 -0.1473 -1.0110  0.8542
  926MOL0     H27728   4.114   6.325  10.788 -1.2104  0.9157  2.0412
  926MOL0     H27729   4.204   6.109  10.986 -0.5608  1.0458  0.0822
  926MOL0     H27730   4.252   6.276  10.998  2.0819 -0.6041 -0.4193
  926MOL0     H27731   4.430   6.150  10.897  0.7388 -0.8349 -2.2275
  926MOL0     H27732   4.320   6.104  10.762  0.2096  1.3923 -0.6157
  926MOL0     H27733   4.316   6.394  10.791 -1.2399 -0.8470 -1.1766
  926MOL0     H27734   4.396   6.311  10.662  0.7095  1.4170 -0.1399
  926MOL0     H27735   4.525   6.394  10.928  0.4227  1.2353  0.0611
  926MOL0     H27736   4.596   6.273  10.827 -1.8301 -1.4451  0.3262
  926MOL0     H27737   4.447   6.646  10.782  0.5795 -1.0475  0.9367
  926MOL0     H27738   4.729   6.832  10.592 -0.6834 -1.1013 -1.3876
  926MOL0     H27739   4.655   6.871  10.738  2.0352 -0.0906  0.3478
  926MOL0     H27740   4.529   6.856  10.460 -0.0502  1.4912 -0.3639
  926MOL0     H27741   4.423   6.843  10.612  1.5239  0.7575  1.1599
  926MOL0     H27742   4.444   7.063  10.489 -0.1382 -0.8784 -0.6290
  926MOL0     H27743   4.456   7.042  10.668  1.9375  2.3252  0.2190
  926MOL0     H27744   4.599   7.210  10.578 -1.9037  0.0950  0.9053
  926MOL0     H27745   4.691   7.075  10.655  0.7421  0.2955 -0.7524
  926MOL0     H27746   4.872   7.158  10.619  0.8192  2.1274  0.7864
  926MOL0     H27747   5.177   7.353  10.539 -1.3196  0.6414  1.7752
  926MOL0     H27748   5.232   7.180  10.595 -2.3690 -2.8731  0.9791
  926MOL0     H27749   5.104   7.281  10.669  2.8112  2.6743  0.2144
  926MOL0     H27750   5.450   7.456  10.168  0.2825  1.3665 -0.9902
  926MOL0     H27751   5.660   7.426  10.057 -2.1246 -0.0245  2.0631
  926MOL0     H27752   5.818   7.055  10.032 -1.6442 -2.1351 -0.9714
  926MOL0     H27753   5.757   7.027   9.865  0.2797  0.1346 -0.6033
  926MOL0     H27754   6.021   7.125   9.941  0.9639  0.1224 -2.2366
  926MOL0     H27755   5.961   6.988   9.841  0.4419 -0.7224 -0.0421
  926MOL0     H27756   5.915   7.267   9.745 -1.1649 -0.3158 -0.6230
  926MOL0     H27757   5.913   7.111   9.653 -0.8993 -2.6329  2.5043
  926MOL0     H27758   6.140   7.088   9.665 -3.5812 -0.8507 -1.8609
  926MOL0     H27759   6.169   7.198   9.796  1.6828 -0.9034 -0.9988
  926MOL0     H27760   6.089   7.247   9.504 -0.0676 -2.1535  1.2814
  926MOL0     H27761   6.083   7.372   9.628 -3.1763 -2.3384  5.3762
  926MOL0     H27762   6.297   7.362   9.484  1.6026 -1.9776 -0.5419
  926MOL0     H27763   6.329   7.209   9.568  0.5662  0.4566 -0.6647
  926MOL0     H27764   6.332   7.356   9.781 -0.2574  0.7910  0.4356
  926MOL0     H27765   6.307   7.498   9.679  1.3683  0.8388 -2.7651
  926MOL0     H27766   6.553   7.322   9.648  0.7751  0.4912 -0.3685
  926MOL0     H27767   6.534   7.474   9.746 -0.6092  1.5689 -0.1276
  926MOL0     H27768   5.540   7.035   9.929  1.9346 -0.4419  0.0569
  926MOL0     H27769   5.328   7.072  10.010  1.3785 -1.3219  0.8421
  926MOL0     H27770   5.008   7.192  10.132  0.3447 -1.0236  0.5378
  926MOL0     H27771   4.787   7.093  10.212 -0.8323  2.1541  0.4435
  926MOL0     H27772   3.532   6.701  10.840  3.8305 -2.4176 -0.2272
  926MOL0     H27773   3.287   6.719  10.887 -3.1492 -1.8486  0.6741
  926MOL0     H27774   2.903   6.840  11.156 -1.2788  0.8376  0.3936
  926MOL0     H27775   2.663   6.862  11.165 -1.0046  0.6261 -0.2137
  926MOL0     H27776   2.311   6.726  10.926 -0.7852 -0.0190 -0.2408
  926MOL0     H27777   2.442   6.660  10.840 -0.1443  1.5213  0.7754
  926MOL0     H27778   2.460   6.501  11.061  0.5068 -0.5667 -2.6976
  926MOL0     H27779   2.313   6.466  10.969  0.7178 -1.7363  1.3425
  926MOL0     H27780   2.362   6.629  11.221  1.1291  2.7472 -1.5960
  926MOL0     H27781   2.213   6.660  11.122 -0.7237 -1.6665  0.3974
  926MOL0     H27782   2.274   6.386  11.236 -1.1932 -0.4597 -0.3210
  926MOL0     H27783   2.128   6.440  11.171 -1.0916 -0.7307  1.3666
  926MOL0     H27784   2.125   6.599  11.574 -0.9626 -3.8192  1.1744
  926MOL0     H27785   2.623   6.554  10.871 -0.4966  1.2007  0.1694
  926MOL0     H27786   2.780   6.442  10.781  1.4469 -1.9573  0.1632
  926MOL0     H27787   2.948   6.502  10.776 -0.3289 -1.4828 -1.3758
  926MOL0     H27788   2.894   6.399  10.908  1.1629 -0.9956 -1.4589
  927MOL0     O27789   1.634   1.068   0.574  0.5643  0.0497  0.5577
  927MOL0     C27790   1.637   0.999   0.675 -0.0016  0.0449 -0.0698
  927MOL0     O27791   1.748   0.972   0.759 -0.6342 -0.4647  0.0636
  927MOL0     C27792   1.874   1.029   0.726 -0.2866 -0.4975  0.2008
  927MOL0     C27793   1.932   1.128   0.799  0.2043  0.3101 -0.0098
  927MOL0     C27794   2.045   1.199   0.760 -0.7613  0.1443 -0.4559
  927MOL0     C27795   2.125   1.158   0.651 -0.3756 -0.6497 -0.5403
  927MOL0     O27796   2.245   1.215   0.607 -0.2578  0.4766 -0.2234
  927MOL0     C27797   2.244   1.360   0.609 -0.7860  0.4137 -0.2375
  927MOL0     C27798   2.320   1.419   0.726 -0.5602 -1.0610 -0.2108
  927MOL0     C27799   2.470   1.382   0.708  0.5846 -0.3148 -0.3805
  927MOL0     C27800   2.561   1.470   0.790  0.5280  0.7160  0.1157
  927MOL0     C27801   2.708   1.428   0.793 -0.0715  0.4362  0.5114
  927MOL0     C27802   2.807   1.538   0.809 -0.2468 -0.4452 -0.0629
  927MOL0     C27803   2.800   1.616   0.945 -0.4646  0.1470  0.2412
  927MOL0     C27804   2.787   1.534   1.074  0.6273 -0.6966  0.3819
  927MOL0     N27805   2.883   1.429   1.093 -0.8658 -0.0981 -0.7480
  927MOL0     C27806   3.020   1.446   1.086 -0.5572 -0.4420 -0.3007
  927MOL0     C27807   3.075   1.321   1.081 -0.3298  0.0985 -0.2321
  927MOL0     C27808   3.219   1.284   1.052 -0.5454 -0.2715 -0.4410
  927MOL0     C27809   3.256   1.150   1.107  0.3150  0.5538  0.2309
  927MOL0     C27810   3.389   1.092   1.051 -0.5170 -0.1662 -0.0283
  927MOL0     C27811   3.515   1.173   1.104 -0.8158  0.4331 -0.5360
  927MOL0     O27812   3.577   1.086   1.203  0.9079  0.0614  0.1351
  927MOL0     C27813   3.709   1.103   1.235  0.8635  0.2582 -0.0930
  927MOL0     C27814   3.768   0.992   1.296 -0.9511 -0.2345  0.2744
  927MOL0     C27815   3.912   0.991   1.315 -0.0640  0.0261 -0.3305
  927MOL0     C27816   3.979   0.869   1.392 -0.2022  0.6958 -0.0343
  927MOL0     C27817   3.988   1.099   1.277 -0.3959 -0.2861  0.4947
  927MOL0     C27818   4.136   1.100   1.277 -0.2258 -0.2052  0.1207
  927MOL0     O27819   4.200   1.217   1.323  0.1683  0.4768 -0.8152
  927MOL0     C27820   4.333   1.222   1.352  1.0155  0.5728 -0.3240
  927MOL0     C27821   4.395   1.344   1.332  0.1251  0.1181 -0.1732
  927MOL0     C27822   4.534   1.360   1.332  0.0852  0.4609  0.4482
  927MOL0     C27823   4.624   1.249   1.347  0.8104  0.2699  0.3953
  927MOL0     O27824   4.756   1.260   1.328 -0.4955  0.4884 -0.1913
  927MOL0     C27825   4.822   1.139   1.287 -0.0338 -0.2804 -0.5009
  927MOL0     C27826   4.959   1.165   1.222 -0.0336 -0.7044 -0.1206
  927MOL0     C27827   4.948   1.195   1.077  0.1066  0.1634 -0.2871
  927MOL0     C27828   4.882   1.331   1.052 -0.3386 -0.0306 -0.0841
  927MOL0     C27829   4.888   1.404   0.908 -0.2822 -0.2770 -0.0923
  927MOL0     C27830   4.795   1.330   0.812  0.0801 -0.0198  0.9313
  927MOL0     C27831   4.791   1.402   0.669 -0.5079 -0.6609  0.4391
  927MOL0     C27832   4.715   1.300   0.581  0.0895 -0.5897  0.6006
  927MOL0    Cl27833   4.810   1.149   0.545 -0.3169  0.6469 -0.0617
  927MOL0     C27834   4.552   1.128   1.378 -0.5453  0.1628  0.2329
  927MOL0     C27835   4.417   1.110   1.374  0.0815 -1.0404  0.4419
  927MOL0     O27836   4.191   1.003   1.232 -0.1457 -0.3121 -0.1458
  927MOL0     C27837   3.922   1.221   1.233 -0.1694 -0.7926 -0.2524
  927MOL0     C27838   3.786   1.218   1.208 -0.1427 -0.5360 -0.8310
  927MOL0     N27839   2.971   1.231   1.074  0.0548 -0.1122  0.2204
  927MOL0     N27840   2.856   1.297   1.091 -0.0071  0.8516 -0.6280
  927MOL0     C27841   2.077   1.051   0.576  0.3092 -0.3892  0.5895
  927MOL0     C27842   1.951   0.992   0.609 -1.2832 -0.2579  0.1085
  927MOL0     C27843   1.514   0.917   0.693 -0.5424  0.3815  0.0183
  927MOL0     C27844   1.530   0.786   0.664  0.3980 -0.0111 -0.2461
  927MOL0     C27845   1.420   0.702   0.689 -0.5347  0.0765 -0.0692
  927MOL0     C27846   1.298   0.746   0.727  0.2408 -0.7303 -0.4799
  927MOL0     O27847   1.203   0.639   0.742 -0.0389  0.3833  0.3631
  927MOL0     C27848   1.066   0.672   0.773 -0.5248  0.1596 -0.2554
  927MOL0     C27849   0.986   0.575   0.688 -0.2124 -0.7245  0.1973
  927MOL0     C27850   0.837   0.591   0.723 -0.6185  0.6626  0.7465
  927MOL0     C27851   0.733   0.537   0.614 -0.3639  0.3138  0.6506
  927MOL0     C27852   0.782   0.535   0.470  0.4497 -0.5065  0.3507
  927MOL0     C27853   0.817   0.506   0.355  0.2657 -0.3251 -0.2656
  927MOL0     C27854   1.278   0.879   0.754 -0.5842  0.5789  0.4764
  927MOL0     C27855   1.387   0.969   0.734 -0.7889 -0.0223 -0.0976
  927MOL0     C27856   1.362   1.110   0.765 -0.2782  0.2498  0.1562
  927MOL0     H27857   1.866   1.162   0.879  2.2771  2.9448  0.6984
  927MOL0     H27858   2.082   1.274   0.829  1.1172 -0.8187 -0.3513
  927MOL0     H27859   2.144   1.404   0.615 -0.6799  0.4940  1.2632
  927MOL0     H27860   2.285   1.403   0.517  1.2652 -2.6527 -0.8679
  927MOL0     H27861   2.307   1.527   0.734 -0.3547 -1.0911  0.5481
  927MOL0     H27862   2.278   1.384   0.821 -1.4466  1.1658  0.2649
  927MOL0     H27863   2.477   1.276   0.736  0.8173 -0.6277 -1.5728
  927MOL0     H27864   2.501   1.402   0.605 -0.3804  1.5691 -0.3438
  927MOL0     H27865   2.554   1.574   0.756 -1.8909 -0.0239 -2.0129
  927MOL0     H27866   2.518   1.468   0.891 -1.4745  0.4108 -0.6834
  927MOL0     H27867   2.738   1.376   0.702 -1.7707  0.2812 -0.0030
  927MOL0     H27868   2.716   1.349   0.868 -0.0642  0.3754  0.4468
  927MOL0     H27869   2.901   1.481   0.803 -0.0467 -0.4449  2.2293
  927MOL0     H27870   2.797   1.619   0.736  2.7355  2.5791  2.5161
  927MOL0     H27871   2.715   1.685   0.941 -1.2187 -0.7571  0.4459
  927MOL0     H27872   2.894   1.672   0.949  0.0739 -0.5209 -1.8129
  927MOL0     H27873   2.789   1.590   1.168 -0.1730 -3.3403  2.0629
  927MOL0     H27874   2.685   1.493   1.068 -0.4521  1.6243  1.3395
  927MOL0     H27875   3.073   1.540   1.080  1.2774 -1.4140 -0.3109
  927MOL0     H27876   3.276   1.362   1.102 -0.9190  0.2216 -0.7772
  927MOL0     H27877   3.238   1.294   0.944 -1.6750  2.5442 -0.4541
  927MOL0     H27878   3.269   1.160   1.215  0.3670  0.9010  0.1939
  927MOL0     H27879   3.178   1.079   1.077  1.7082  0.1230 -2.6905
  927MOL0     H27880   3.389   0.984   1.071 -1.0836 -0.2253 -0.3260
  927MOL0     H27881   3.386   1.078   0.943 -1.3946 -0.6439  0.0469
  927MOL0     H27882   3.576   1.196   1.016 -0.7168 -2.1852 -1.2410
  927MOL0     H27883   3.495   1.274   1.140 -0.5078  0.4605 -0.4375
  927MOL0     H27884   3.714   0.901   1.321 -0.0630 -0.3311  2.0006
  927MOL0     H27885   3.907   0.795   1.429  0.6090 -0.8132 -1.3571
  927MOL0     H27886   4.030   0.915   1.478 -1.1215 -0.2720  1.0617
  927MOL0     H27887   4.049   0.814   1.329  0.0967 -0.9633  1.6649
  927MOL0     H27888   4.332   1.433   1.330  0.8371  0.7160  1.6206
  927MOL0     H27889   4.573   1.456   1.299 -0.2322 -0.1585 -1.9215
  927MOL0     H27890   4.840   1.073   1.372 -1.4834  1.0958  0.9484
  927MOL0     H27891   4.766   1.099   1.202  0.5404 -0.4825 -0.7932
  927MOL0     H27892   5.008   1.250   1.270 -2.4947  0.2120  0.9549
  927MOL0     H27893   5.021   1.080   1.254 -1.3500 -0.7613  2.6084
  927MOL0     H27894   4.895   1.118   1.020 -2.7693  1.5050  0.3608
  927MOL0     H27895   5.043   1.213   1.025 -0.4988  1.4972 -0.9926
  927MOL0     H27896   4.916   1.397   1.133  0.4381  0.3078 -0.6646
  927MOL0     H27897   4.775   1.320   1.068 -0.7120  2.2108 -0.7282
  927MOL0     H27898   4.845   1.504   0.918 -1.0956 -0.5356 -0.8642
  927MOL0     H27899   4.993   1.399   0.876  0.6046 -0.6858  2.6245
  927MOL0     H27900   4.694   1.337   0.852 -1.4954 -0.3647 -2.5965
  927MOL0     H27901   4.821   1.227   0.789 -1.6109  0.0009 -1.4101
  927MOL0     H27902   4.889   1.432   0.631 -0.1124  0.2224  2.0654
  927MOL0     H27903   4.744   1.500   0.670  0.5604 -0.1153 -0.5840
  927MOL0     H27904   4.691   1.337   0.481 -0.2819 -2.6629 -0.1131
  927MOL0     H27905   4.620   1.292   0.634 -0.6024  2.3530  0.0114
  927MOL0     H27906   4.604   1.036   1.401  1.7199  1.8685  2.5968
  927MOL0     H27907   4.372   1.012   1.385 -0.6806 -0.9172 -1.2864
  927MOL0     H27908   3.972   1.312   1.200 -1.2627  0.2614  0.8751
  927MOL0     H27909   3.750   1.306   1.157 -2.2147 -1.8634 -1.7803
  927MOL0     H27910   2.145   1.015   0.500 -1.2211 -0.2408 -0.9313
  927MOL0     H27911   1.904   0.912   0.553 -2.0151  1.2453 -1.5392
  927MOL0     H27912   1.630   0.750   0.644  0.8409 -0.5371  2.5359
  927MOL0     H27913   1.434   0.594   0.693  2.7909  0.3961 -0.3193
  927MOL0     H27914   1.049   0.647   0.879  0.7918 -0.7213 -0.2292
  927MOL0     H27915   1.031   0.773   0.751 -2.0987 -0.4534 -0.7511
  927MOL0     H27916   1.009   0.470   0.710 -0.6282 -0.8116  0.2242
  927MOL0     H27917   1.007   0.598   0.584 -1.1768 -1.6254 -0.2134
  927MOL0     H27918   0.804   0.540   0.814  1.6212 -2.7723 -0.2039
  927MOL0     H27919   0.814   0.697   0.741 -0.3121  0.8077  0.2886
  927MOL0     H27920   0.645   0.601   0.613  1.5156  3.0802 -0.2060
  927MOL0     H27921   0.700   0.437   0.645 -0.4508  0.0619 -0.2111
  927MOL0     H27922   0.852   0.493   0.254  1.3975  1.1033 -0.0963
  927MOL0     H27923   1.181   0.921   0.778 -1.1229  0.9630 -2.0112
  927MOL0     H27924   1.257   1.137   0.751 -0.3395 -0.7706 -1.8048
  927MOL0     H27925   1.411   1.132   0.860  2.2618 -0.1298 -0.9680
  927MOL0     H27926   1.414   1.171   0.690  5.0765 -0.1015  3.0677
  928MOL0     O27927   3.912   1.815   6.684  0.0091 -0.4433 -0.8673
  928MOL0     C27928   3.920   1.697   6.716  0.4110  0.3984  0.3118
  928MOL0     O27929   4.033   1.630   6.768  0.2431 -0.4452 -0.2508
  928MOL0     C27930   4.147   1.697   6.800 -0.2142  0.1532  0.4015
  928MOL0     C27931   4.270   1.646   6.763  0.2600 -0.7950  0.1402
  928MOL0     C27932   4.389   1.714   6.797 -0.0452  0.5874 -0.6335
  928MOL0     C27933   4.377   1.845   6.850 -0.5567  0.9280 -0.3730
  928MOL0     O27934   4.490   1.923   6.889 -0.7258 -0.1787  0.3060
  928MOL0     C27935   4.489   2.064   6.871 -0.6546 -0.2916  0.5564
  928MOL0     C27936   4.602   2.117   6.779  0.8243  0.3173 -0.0267
  928MOL0     C27937   4.560   2.068   6.639  0.0179 -0.7194  0.7060
  928MOL0     C27938   4.663   2.124   6.534 -0.3798 -0.8912  0.4019
  928MOL0     C27939   4.605   2.137   6.385  0.4043 -0.2947 -0.4762
  928MOL0     C27940   4.697   2.198   6.276 -0.2292  0.4783  0.2849
  928MOL0     C27941   4.823   2.112   6.260 -0.4035  0.4586  0.6237
  928MOL0     C27942   4.910   2.182   6.160  0.6228  0.2532 -0.3360
  928MOL0     N27943   5.016   2.086   6.119 -0.1938  0.7919 -0.1667
  928MOL0     C27944   5.093   2.007   6.207  0.2871 -0.0824 -0.1313
  928MOL0     C27945   5.166   1.931   6.122 -0.7936 -0.7237 -0.2154
  928MOL0     C27946   5.259   1.825   6.176  0.8670 -0.3903  0.9646
  928MOL0     C27947   5.399   1.878   6.207  0.3940  0.0848  0.1242
  928MOL0     C27948   5.485   1.760   6.248  0.4168  0.1033  0.0929
  928MOL0     C27949   5.612   1.809   6.298  0.2397 -0.0618 -0.2004
  928MOL0     O27950   5.677   1.910   6.217 -0.1082 -0.1071 -0.5367
  928MOL0     C27951   5.803   1.952   6.254  1.2754  0.4035 -1.2192
  928MOL0     C27952   5.874   2.034   6.171  0.2149 -0.1459 -0.6970
  928MOL0     C27953   6.006   2.078   6.194  0.4122 -0.3198  0.4740
  928MOL0     C27954   6.056   2.183   6.098  0.4285  0.5598 -0.7242
  928MOL0     C27955   6.081   2.029   6.304  0.4647  0.2716  0.3115
  928MOL0     C27956   6.223   2.059   6.329 -0.5379  1.1580 -0.4400
  928MOL0     O27957   6.313   2.103   6.230  0.0727 -0.4484  0.0521
  928MOL0     C27958   6.448   2.088   6.251 -0.3761 -0.3846 -0.2681
  928MOL0     C27959   6.526   2.027   6.157  0.0071  0.2108 -0.0824
  928MOL0     C27960   6.667   2.022   6.159  0.2198 -0.0658 -0.0072
  928MOL0     C27961   6.742   2.091   6.265 -0.2857  0.6651  0.4356
  928MOL0     O27962   6.883   2.078   6.283 -0.6049  0.4086  0.0486
  928MOL0     C27963   6.966   2.049   6.174 -0.0377 -0.1714 -0.2528
  928MOL0     C27964   7.114   2.086   6.214  0.8126 -0.6705 -0.2759
  928MOL0     C27965   7.176   1.956   6.268  0.0725 -0.1307 -0.5567
  928MOL0     C27966   7.323   1.967   6.300 -0.4511  0.7352 -0.1111
  928MOL0     C27967   7.345   2.053   6.416  0.3777 -0.4758  0.2113
  928MOL0     C27968   7.490   2.102   6.444 -0.5735 -0.0054  0.0051
  928MOL0     C27969   7.603   2.006   6.398 -0.3992  0.4875  0.2718
  928MOL0     C27970   7.743   2.069   6.406  0.0079 -0.0522 -0.4996
  928MOL0    Cl27971   7.857   1.932   6.411  0.0017 -0.0866 -0.1093
  928MOL0     C27972   6.656   2.155   6.355 -0.0253 -0.4224 -0.0825
  928MOL0     C27973   6.517   2.161   6.352  0.4215 -0.0966 -0.2437
  928MOL0     O27974   6.256   2.029   6.449 -0.1362  0.4700 -0.0728
  928MOL0     C27975   6.002   1.953   6.400  0.3446 -0.4843  0.0413
  928MOL0     C27976   5.867   1.916   6.375 -0.3396 -0.1574  0.1878
  928MOL0     N27977   5.139   1.962   5.992 -0.1346 -0.2288  0.3059
  928MOL0     N27978   5.051   2.056   5.993 -0.1626  0.4720  0.5213
  928MOL0     C27979   4.252   1.892   6.891  0.5564 -0.2974  0.0865
  928MOL0     C27980   4.137   1.821   6.865 -0.1428 -0.2645 -0.5214
  928MOL0     C27981   3.805   1.611   6.695  0.8251  0.7002 -0.3975
  928MOL0     C27982   3.680   1.671   6.678  0.3526 -0.4530 -0.3035
  928MOL0     C27983   3.563   1.603   6.648  0.1669  0.1954  0.3861
  928MOL0     C27984   3.565   1.465   6.631 -0.3883 -0.3226 -0.4974
  928MOL0     O27985   3.443   1.405   6.616  0.4827  0.0260  0.2206
  928MOL0     C27986   3.442   1.277   6.675 -0.2999  0.1113  0.4782
  928MOL0     C27987   3.303   1.223   6.663  0.1314 -0.5985  0.6863
  928MOL0     C27988   3.272   1.186   6.513  0.4679  0.6306 -0.4287
  928MOL0     C27989   3.152   1.092   6.492  0.3780  0.4560 -0.1968
  928MOL0     C27990   3.029   1.169   6.487 -0.1482  0.8397 -0.3512
  928MOL0     C27991   2.934   1.244   6.488  0.2182 -0.1856  0.7273
  928MOL0     C27992   3.697   1.400   6.649 -0.2599  0.3979 -0.1807
  928MOL0     C27993   3.811   1.466   6.684  0.6926 -0.3577 -0.6739
  928MOL0     C27994   3.931   1.382   6.722 -0.5183  0.5627  0.2325
  928MOL0     H27995   4.270   1.559   6.698 -2.2822  0.4422 -1.7384
  928MOL0     H27996   4.490   1.683   6.771 -0.2184  0.6613 -1.4303
  928MOL0     H27997   4.500   2.111   6.969  0.3437 -1.2150  0.9187
  928MOL0     H27998   4.392   2.094   6.832 -1.0597 -0.8385  1.1309
  928MOL0     H27999   4.601   2.226   6.788  0.9239  0.2421  0.9866
  928MOL0     H28000   4.698   2.077   6.811  0.8707 -0.3095 -0.8889
  928MOL0     H28001   4.559   1.959   6.630 -0.6780 -0.8164  1.7862
  928MOL0     H28002   4.460   2.109   6.620  0.2521 -0.4246  0.0525
  928MOL0     H28003   4.689   2.226   6.563 -1.3692 -0.0642 -1.4238
  928MOL0     H28004   4.749   2.056   6.536 -1.2597 -2.0566  2.6927
  928MOL0     H28005   4.518   2.204   6.391  0.3594 -0.4744  2.3875
  928MOL0     H28006   4.577   2.036   6.352  2.0078 -1.1970  0.7592
  928MOL0     H28007   4.645   2.210   6.180  0.3999 -0.5657 -0.2046
  928MOL0     H28008   4.725   2.301   6.299  1.2017  0.4211 -0.9835
  928MOL0     H28009   4.805   2.013   6.217  1.7687 -0.1496  1.0164
  928MOL0     H28010   4.875   2.091   6.353 -0.0845 -1.4685  0.0435
  928MOL0     H28011   4.855   2.215   6.072  2.6854  3.4890 -0.6036
  928MOL0     H28012   4.961   2.271   6.198  0.2831 -0.2564  1.4398
  928MOL0     H28013   5.090   1.993   6.315 -0.5891 -0.4393 -0.1956
  928MOL0     H28014   5.273   1.753   6.095  0.4363 -0.6410  1.1086
  928MOL0     H28015   5.216   1.776   6.264 -2.2013 -0.8537 -0.6414
  928MOL0     H28016   5.435   1.917   6.111 -0.7108 -0.1506 -0.4087
  928MOL0     H28017   5.397   1.954   6.285 -0.3192  1.4947 -1.2090
  928MOL0     H28018   5.438   1.712   6.334  0.5487  2.8764  1.8495
  928MOL0     H28019   5.497   1.691   6.164 -1.9745  1.4476 -1.4586
  928MOL0     H28020   5.582   1.840   6.398 -0.9863  2.1618 -1.1875
  928MOL0     H28021   5.680   1.723   6.311  1.1849  0.7146  0.0904
  928MOL0     H28022   5.831   2.057   6.074 -0.6214 -1.3434 -0.6379
  928MOL0     H28023   6.047   2.277   6.153 -1.3822 -1.7406  3.3690
  928MOL0     H28024   5.990   2.197   6.012  0.3763 -0.6319 -0.8975
  928MOL0     H28025   6.157   2.160   6.062  0.2834  0.2638 -0.9460
  928MOL0     H28026   6.474   1.980   6.074  0.9867  1.6208 -1.5621
  928MOL0     H28027   6.707   1.955   6.084 -0.1928 -3.0228  2.2298
  928MOL0     H28028   6.957   1.942   6.152 -0.4023 -0.0388 -0.7693
  928MOL0     H28029   6.938   2.105   6.084  1.3696  0.7891 -0.1267
  928MOL0     H28030   7.170   2.122   6.127  0.2896  3.2096  0.7843
  928MOL0     H28031   7.106   2.159   6.295  0.2632  1.5825 -2.2514
  928MOL0     H28032   7.155   1.883   6.190  0.0208  1.4670 -2.1099
  928MOL0     H28033   7.117   1.928   6.356 -1.0152 -3.4318 -2.1723
  928MOL0     H28034   7.364   2.007   6.207  1.4753  0.9042  0.7610
  928MOL0     H28035   7.366   1.869   6.323 -0.5401  0.8266  0.4462
  928MOL0     H28036   7.285   2.144   6.420  0.0793 -0.7026  3.2535
  928MOL0     H28037   7.300   2.002   6.502 -2.0377  0.2119 -0.5623
  928MOL0     H28038   7.503   2.120   6.551  0.9841 -0.1740 -0.1393
  928MOL0     H28039   7.496   2.203   6.401  1.8508  0.0478  0.3642
  928MOL0     H28040   7.593   1.973   6.294 -0.4270  1.3270  0.0016
  928MOL0     H28041   7.602   1.912   6.454  0.2815  2.0525  3.1314
  928MOL0     H28042   7.763   2.124   6.498  0.0532 -2.6736  1.1565
  928MOL0     H28043   7.760   2.125   6.314 -0.8033  0.0576 -0.5853
  928MOL0     H28044   6.703   2.212   6.435  0.4683 -0.4513 -0.3464
  928MOL0     H28045   6.468   2.213   6.433 -0.7065 -2.1647  0.4657
  928MOL0     H28046   6.050   1.909   6.487 -1.4804 -0.0268  1.3432
  928MOL0     H28047   5.816   1.851   6.446 -1.3461 -0.0225 -0.3918
  928MOL0     H28048   4.230   1.992   6.930  0.0312  1.3852 -4.0371
  928MOL0     H28049   4.038   1.866   6.868 -1.0137 -2.0888  0.4382
  928MOL0     H28050   3.677   1.780   6.672  0.0808 -0.3638  1.0853
  928MOL0     H28051   3.471   1.655   6.621  0.6838  1.0087  0.1354
  928MOL0     H28052   3.508   1.205   6.625 -1.2165 -1.2377  1.1417
  928MOL0     H28053   3.478   1.288   6.777 -1.5493  1.5566  0.8000
  928MOL0     H28054   3.223   1.293   6.690  0.4958  0.1047  0.0015
  928MOL0     H28055   3.284   1.139   6.730 -1.5523  0.0526  1.0864
  928MOL0     H28056   3.259   1.278   6.456  0.3590  0.5315 -0.5619
  928MOL0     H28057   3.364   1.132   6.486  0.3680  0.5252 -0.5577
  928MOL0     H28058   3.139   1.007   6.561 -0.7317  0.9486  0.2235
  928MOL0     H28059   3.179   1.042   6.399 -1.4628  1.8787 -1.5700
  928MOL0     H28060   2.859   1.320   6.474  0.0351 -0.5525 -0.3763
  928MOL0     H28061   3.702   1.293   6.631  1.4310 -0.0927  2.5801
  928MOL0     H28062   3.893   1.281   6.734  1.5784 -0.5898 -1.9387
  928MOL0     H28063   4.008   1.389   6.645 -1.8212 -0.3330 -1.2088
  928MOL0     H28064   3.982   1.409   6.815 -0.5201  1.3891  0.0018
  929MOL0     O28065   8.537   4.518  10.275  0.0132  0.2780 -0.0616
  929MOL0     C28066   8.514   4.639  10.297  0.2482  0.1256 -0.6102
  929MOL0     O28067   8.614   4.734  10.304  0.7806 -0.2173 -0.5503
  929MOL0     C28068   8.739   4.687  10.265  0.6116 -0.1905 -0.3591
  929MOL0     C28069   8.818   4.597  10.342  0.4113  0.0105  0.0518
  929MOL0     C28070   8.933   4.546  10.289 -0.9048  0.0574 -0.7033
  929MOL0     C28071   8.979   4.579  10.162  0.2898  0.5831 -0.3402
  929MOL0     O28072   9.095   4.528  10.115 -0.6209 -0.7766  0.3497
  929MOL0     C28073   9.145   4.567   9.984  0.0523 -0.0836 -0.7307
  929MOL0     C28074   9.270   4.482   9.965  0.0206 -0.0685  0.4005
  929MOL0     C28075   9.376   4.521  10.062  0.2489 -0.5123  0.0904
  929MOL0     C28076   9.508   4.444  10.030  0.2873 -0.5342 -0.2144
  929MOL0     C28077   9.609   4.465  10.148  0.0920  0.5230 -0.1152
  929MOL0     C28078   9.757   4.441  10.102 -0.3548  0.3011 -0.0294
  929MOL0     C28079   9.845   4.473  10.224 -0.6750 -0.1500  0.2609
  929MOL0     C28080   9.989   4.436  10.193 -0.0261  0.3954  0.3092
  929MOL0     N28081  10.051   4.543  10.114 -0.1016  0.0382 -0.6714
  929MOL0     C28082  10.125   4.525  10.004  1.3025  0.2321  0.1141
  929MOL0     C28083  10.179   4.648   9.987 -0.6029 -0.4380 -0.7681
  929MOL0     C28084  10.277   4.678   9.884  0.6938 -0.9892 -0.0525
  929MOL0     C28085  10.196   4.691   9.750 -1.1159  0.0654 -0.0399
  929MOL0     C28086  10.068   4.783   9.747 -0.1257  0.6375 -0.6723
  929MOL0     C28087   9.936   4.720   9.793 -0.6399  0.1330 -0.3783
  929MOL0     O28088   9.830   4.791   9.739  0.7605 -0.1276 -0.5392
  929MOL0     C28089   9.811   4.922   9.777  0.3779  1.0261 -0.6313
  929MOL0     C28090   9.825   4.971   9.910 -0.2183 -0.3938 -0.8772
  929MOL0     C28091   9.795   5.100   9.942  0.6867 -0.2902 -0.1454
  929MOL0     C28092   9.812   5.141  10.087  0.7743  0.1587 -0.2694
  929MOL0     C28093   9.732   5.182   9.838 -0.0115 -0.2312 -0.2129
  929MOL0     C28094   9.685   5.326   9.858 -0.8677 -0.6901 -0.8331
  929MOL0     O28095   9.642   5.390   9.742 -0.4572 -0.2290  0.1301
  929MOL0     C28096   9.559   5.498   9.740  1.0505 -0.0996  0.0699
  929MOL0     C28097   9.536   5.561   9.615  0.6700 -0.2815 -0.5132
  929MOL0     C28098   9.438   5.659   9.590  0.3058  0.0695 -0.1368
  929MOL0     C28099   9.364   5.711   9.700 -0.2596  0.2225 -0.1290
  929MOL0     O28100   9.276   5.818   9.676  0.8666  0.4315 -0.3424
  929MOL0     C28101   9.229   5.878   9.799  0.5082 -0.6572  0.1496
  929MOL0     C28102   9.164   6.003   9.763 -0.5192  0.2453 -0.0327
  929MOL0     C28103   9.033   5.987   9.673  0.5358 -0.6281  1.2638
  929MOL0     C28104   8.980   6.134   9.650 -0.6238  0.3815  0.6077
  929MOL0     C28105   8.841   6.134   9.597  0.2897  0.4065 -0.2173
  929MOL0     C28106   8.796   6.270   9.539 -0.7230  0.6079 -0.9516
  929MOL0     C28107   8.657   6.264   9.486 -0.2567 -0.3578 -0.4532
  929MOL0     C28108   8.592   6.401   9.450 -0.5465 -0.7069 -0.2599
  929MOL0    Cl28109   8.689   6.506   9.339  0.0668  0.0496 -0.1209
  929MOL0     C28110   9.384   5.640   9.826  0.3732  0.6189 -0.6710
  929MOL0     C28111   9.475   5.535   9.853 -0.5978 -0.0870 -0.2751
  929MOL0     O28112   9.690   5.372   9.978  1.1461  0.2991  0.4112
  929MOL0     C28113   9.722   5.132   9.706 -0.0480 -0.0370 -0.3666
  929MOL0     C28114   9.764   5.004   9.675 -0.5237 -0.3581  0.1317
  929MOL0     N28115  10.124   4.739  10.070  0.1802  0.8077  0.0071
  929MOL0     N28116  10.049   4.676  10.152 -0.0336  0.0385 -0.1537
  929MOL0     C28117   8.896   4.668  10.082  1.0100 -0.1773 -0.5615
  929MOL0     C28118   8.779   4.725  10.138 -0.7193  0.3773 -0.2343
  929MOL0     C28119   8.378   4.673  10.334  0.2558 -0.5900 -0.0959
  929MOL0     C28120   8.371   4.774  10.433 -0.0094 -0.0806 -0.0274
  929MOL0     C28121   8.249   4.835  10.465  0.7586 -0.9623  0.3184
  929MOL0     C28122   8.130   4.805  10.403  0.1671 -0.1776  0.5426
  929MOL0     O28123   8.011   4.863  10.419  0.1716  0.1788 -0.2057
  929MOL0     C28124   8.011   5.005  10.449 -0.3694  0.2669  0.6693
  929MOL0     C28125   7.966   5.018  10.590  0.6013 -0.0498  0.0125
  929MOL0     C28126   7.816   4.976  10.608  0.7948 -0.0621 -0.4691
  929MOL0     C28127   7.746   5.024  10.738  0.4974 -0.3321  0.1278
  929MOL0     C28128   7.611   5.070  10.715  1.1954 -0.4468 -0.2354
  929MOL0     C28129   7.500   5.125  10.706 -0.0392  0.2901 -0.0046
  929MOL0     C28130   8.137   4.696  10.313  0.6296 -0.2032 -0.5568
  929MOL0     C28131   8.259   4.634  10.273  0.1722  0.5022  0.7222
  929MOL0     C28132   8.238   4.520  10.174 -0.8978 -0.2151 -0.3548
  929MOL0     H28133   8.791   4.578  10.445 -0.6571 -0.2566 -0.2633
  929MOL0     H28134   8.983   4.478  10.357 -1.0331 -0.3161 -0.9812
  929MOL0     H28135   9.170   4.674   9.982 -1.9485  0.4633  0.7012
  929MOL0     H28136   9.077   4.539   9.903 -1.2058  0.8672 -0.0366
  929MOL0     H28137   9.252   4.379   9.996  0.1698  0.3250  1.8375
  929MOL0     H28138   9.304   4.484   9.861 -0.2721  0.5294  0.3106
  929MOL0     H28139   9.387   4.630  10.057 -0.8836 -0.3569  0.6241
  929MOL0     H28140   9.353   4.500  10.167 -2.8695  2.2851  0.1601
  929MOL0     H28141   9.489   4.337  10.024 -1.2369 -0.2801 -0.3250
  929MOL0     H28142   9.556   4.466   9.934  1.1833 -1.8493 -0.0946
  929MOL0     H28143   9.590   4.396  10.231 -0.1593  1.5565  0.7023
  929MOL0     H28144   9.591   4.567  10.182 -0.4825  0.3526  0.0977
  929MOL0     H28145   9.762   4.339  10.064 -2.9732  0.6730 -1.6401
  929MOL0     H28146   9.799   4.502  10.022  0.9204 -0.4167  0.0725
  929MOL0     H28147   9.810   4.414  10.309  2.2431 -1.8856  0.4180
  929MOL0     H28148   9.837   4.577  10.254 -1.4596  0.2139 -1.1041
  929MOL0     H28149  10.048   4.419  10.283  1.4134 -1.8813 -0.9678
  929MOL0     H28150   9.997   4.343  10.136 -2.5699 -0.0253  0.5173
  929MOL0     H28151  10.144   4.433   9.950  0.0566 -1.5967  2.5968
  929MOL0     H28152  10.346   4.593   9.890  2.0427  0.1468  1.4197
  929MOL0     H28153  10.327   4.773   9.903 -0.5237 -0.5416  1.0386
  929MOL0     H28154  10.268   4.739   9.684 -1.2466  0.7685  0.3167
  929MOL0     H28155  10.172   4.595   9.704 -3.0912 -0.3097  1.6304
  929MOL0     H28156  10.083   4.871   9.810 -0.7024  0.7956 -0.7563
  929MOL0     H28157  10.045   4.828   9.650  0.7786  1.6394 -0.4539
  929MOL0     H28158   9.923   4.618   9.754  0.5818 -0.6329  1.0928
  929MOL0     H28159   9.918   4.717   9.901 -0.5824  2.9794 -0.2259
  929MOL0     H28160   9.872   4.908   9.985 -3.3465 -1.4730  0.3104
  929MOL0     H28161   9.845   5.056  10.148 -2.9747 -1.2587  0.1046
  929MOL0     H28162   9.713   5.168  10.126  0.3148 -0.4323 -0.9874
  929MOL0     H28163   9.877   5.228  10.100  1.5371 -0.5782  0.9955
  929MOL0     H28164   9.598   5.525   9.534  2.3424  0.2029  0.4996
  929MOL0     H28165   9.436   5.698   9.488  0.5742  1.7469  0.4611
  929MOL0     H28166   9.155   5.816   9.850  1.5242  0.5046  3.2873
  929MOL0     H28167   9.314   5.893   9.866  0.6819  1.8155 -0.5162
  929MOL0     H28168   9.119   6.041   9.855 -2.4509  1.1285 -1.2677
  929MOL0     H28169   9.240   6.069   9.721  0.2331  0.2882  1.3452
  929MOL0     H28170   8.964   5.921   9.726  1.8136 -2.2459  1.0136
  929MOL0     H28171   9.054   5.931   9.581  1.0597  1.0752  0.3161
  929MOL0     H28172   9.048   6.180   9.579  2.4218 -1.9389  1.7887
  929MOL0     H28173   8.989   6.191   9.743  1.4606 -1.3536  1.5532
  929MOL0     H28174   8.835   6.062   9.515  2.5297 -0.6228  0.4393
  929MOL0     H28175   8.776   6.101   9.678  1.5168  1.7014  1.3568
  929MOL0     H28176   8.866   6.288   9.457 -1.1287  0.6077 -1.3008
  929MOL0     H28177   8.802   6.342   9.621 -2.2581 -0.8061  0.4944
  929MOL0     H28178   8.591   6.214   9.557 -0.5629 -0.0634 -0.5248
  929MOL0     H28179   8.655   6.219   9.387 -1.5718 -0.0062 -0.6101
  929MOL0     H28180   8.581   6.458   9.542  0.3978  1.1057 -1.2105
  929MOL0     H28181   8.495   6.384   9.403 -1.9530 -0.6461  2.4635
  929MOL0     H28182   9.326   5.664   9.915  1.5783 -0.5243  0.4784
  929MOL0     H28183   9.480   5.493   9.952  2.0200 -0.4167 -0.4789
  929MOL0     H28184   9.676   5.190   9.627 -1.7167 -2.5318 -1.3517
  929MOL0     H28185   9.746   4.968   9.574 -0.7476  3.7643 -1.5011
  929MOL0     H28186   8.900   4.663   9.973 -1.5893 -3.4579 -0.6695
  929MOL0     H28187   8.710   4.787  10.082 -1.8761 -1.0090 -0.4111
  929MOL0     H28188   8.460   4.815  10.480 -0.2614  1.4734 -0.8224
  929MOL0     H28189   8.246   4.912  10.541 -0.6431 -0.5801 -0.1062
  929MOL0     H28190   8.108   5.054  10.444  0.0648 -0.6080  0.1926
  929MOL0     H28191   7.943   5.056  10.379 -0.7132 -1.4754 -0.3346
  929MOL0     H28192   7.977   5.121  10.626 -0.5126  0.3597 -0.7577
  929MOL0     H28193   8.038   4.967  10.654  2.3614  0.7065 -1.2737
  929MOL0     H28194   7.757   5.014  10.525  0.6998 -0.2925 -0.5078
  929MOL0     H28195   7.803   4.868  10.605  0.0950 -0.0160  0.4448
  929MOL0     H28196   7.801   5.105  10.786  0.1351  1.1450 -1.8457
  929MOL0     H28197   7.752   4.939  10.807  2.3570  0.9246  1.6091
  929MOL0     H28198   7.404   5.161  10.678 -0.4055  0.0584  0.9264
  929MOL0     H28199   8.040   4.671  10.272 -0.1482 -0.5577  1.4410
  929MOL0     H28200   8.147   4.540  10.116 -1.7803  3.3897  1.9711
  929MOL0     H28201   8.321   4.508  10.104 -1.5599 -0.1389 -1.1816
  929MOL0     H28202   8.215   4.421  10.216 -0.1736 -0.1194  0.2737
  930MOL0     O28203  11.255   0.433   4.135  0.2278  0.1817 -0.2877
  930MOL0     C28204  11.270   0.531   4.208  0.0109  0.1001  0.9512
  930MOL0     O28205  11.379   0.555   4.283 -0.3593  0.4822 -0.1325
  930MOL0     C28206  11.503   0.505   4.262 -0.0979  0.0546  0.0880
  930MOL0     C28207  11.592   0.505   4.368 -0.1907 -1.3677 -0.5481
  930MOL0     C28208  11.719   0.457   4.362  0.4205 -0.2798  0.2769
  930MOL0     C28209  11.775   0.415   4.237 -0.2575 -0.5307 -0.1324
  930MOL0     O28210  11.907   0.384   4.221  0.0066 -0.4455  0.2694
  930MOL0     C28211  11.994   0.407   4.323 -0.2747  0.3993 -0.5345
  930MOL0     C28212  12.134   0.442   4.285 -0.0171 -0.6568  0.1238
  930MOL0     C28213  12.229   0.422   4.404 -0.1196  0.8394 -1.0834
  930MOL0     C28214  12.370   0.483   4.375  0.5984  0.0919  0.3515
  930MOL0     C28215  12.465   0.450   4.493 -0.6120  0.1096  0.6626
  930MOL0     C28216  12.596   0.524   4.490  0.1403  0.1575  0.0628
  930MOL0     C28217  12.684   0.461   4.388 -0.7065 -0.1871 -0.0038
  930MOL0     C28218  12.814   0.533   4.379  0.5918 -0.7495  0.2638
  930MOL0     N28219  12.900   0.506   4.497  0.2071 -0.4817  0.9168
  930MOL0     C28220  12.959   0.392   4.524 -0.4201  0.1848  0.3014
  930MOL0     C28221  13.002   0.413   4.655 -0.4738  0.5290  0.2986
  930MOL0     C28222  13.078   0.302   4.734 -0.7348  0.1146 -0.9760
  930MOL0     C28223  13.229   0.315   4.733  0.0793 -0.5894 -0.5596
  930MOL0     C28224  13.281   0.454   4.744 -0.1540 -0.4409  0.6093
  930MOL0     C28225  13.433   0.455   4.719 -0.6099 -0.2084 -0.2644
  930MOL0     O28226  13.494   0.395   4.835  0.1513  0.0811 -0.2361
  930MOL0     C28227  13.631   0.374   4.829  0.1400 -0.2107 -0.3818
  930MOL0     C28228  13.709   0.427   4.721 -0.9329  0.7125  0.2836
  930MOL0     C28229  13.844   0.410   4.726 -0.1538  0.4879 -0.0773
  930MOL0     C28230  13.923   0.461   4.610  0.4380  0.3124 -0.1796
  930MOL0     C28231  13.909   0.349   4.835  0.7879  0.3404  0.0212
  930MOL0     C28232  14.051   0.310   4.831 -0.5493  0.1587  0.1076
  930MOL0     O28233  14.100   0.217   4.739 -0.4108  0.0964  0.6952
  930MOL0     C28234  14.231   0.202   4.725  0.1903  0.0407 -0.1627
  930MOL0     C28235  14.281   0.083   4.787 -0.1097  0.5821 -1.1894
  930MOL0     C28236  14.410   0.041   4.757 -0.0953 -0.3921 -0.2327
  930MOL0     C28237  14.499   0.113   4.673  0.6069  0.0728  0.4146
  930MOL0     O28238  14.615   0.044   4.657  0.8915 -0.1174 -0.5470
  930MOL0     C28239  14.705   0.095   4.555  0.0988 -0.0370 -0.3753
  930MOL0     C28240  14.844   0.035   4.568  0.2892 -0.6019 -0.1106
  930MOL0     C28241  14.926   0.103   4.682  0.3969  1.0187  0.9587
  930MOL0     C28242  15.045   0.027   4.726 -0.2313  0.6110 -0.3087
  930MOL0     C28243  15.023  -0.093   4.826  0.2249  0.1379 -0.3161
  930MOL0     C28244  15.003  -0.054   4.976  0.6849  0.3450  0.5965
  930MOL0     C28245  14.976  -0.175   5.062 -0.3508 -0.4338  0.7404
  930MOL0     C28246  15.098  -0.266   5.061 -0.0579  0.6062  0.4141
  930MOL0    Cl28247  15.102  -0.388   5.199  0.2153  0.2505 -0.3495
  930MOL0     C28248  14.459   0.235   4.624 -0.5146  0.4193  0.5426
  930MOL0     C28249  14.324   0.284   4.653  0.4297  0.3467  0.0925
  930MOL0     O28250  14.119   0.379   4.906  0.8299  0.2579 -0.1453
  930MOL0     C28251  13.837   0.290   4.939  0.3827  0.1875  0.1290
  930MOL0     C28252  13.696   0.300   4.933 -0.3246  0.7106 -0.0150
  930MOL0     N28253  12.982   0.550   4.685  0.2715 -0.7970  0.3462
  930MOL0     N28254  12.915   0.605   4.591  0.0932  0.2330 -0.4914
  930MOL0     C28255  11.696   0.412   4.128 -0.0027 -0.4540  0.1603
  930MOL0     C28256  11.558   0.458   4.143 -0.1151  0.6445 -0.4529
  930MOL0     C28257  11.160   0.627   4.225  0.3919  0.6436  0.0574
  930MOL0     C28258  11.189   0.748   4.287  0.8644  0.3780 -0.8279
  930MOL0     C28259  11.091   0.839   4.308  0.3762  0.6879 -0.4688
  930MOL0     C28260  10.958   0.815   4.268  0.7421  0.2851  0.3941
  930MOL0     O28261  10.860   0.908   4.261  0.4448 -0.2553 -0.3290
  930MOL0     C28262  10.869   1.035   4.326 -0.0004  0.0177  0.5507
  930MOL0     C28263  10.958   1.130   4.244  0.3475 -0.2173  0.1712
  930MOL0     C28264  10.903   1.150   4.109  0.7484 -0.8185  0.0427
  930MOL0     C28265  11.010   1.211   4.017  0.0342  0.4796  0.0909
  930MOL0     C28266  10.965   1.241   3.871 -0.8010  0.4256 -0.1291
  930MOL0     C28267  10.945   1.257   3.753 -0.0606 -0.9147  0.0286
  930MOL0     C28268  10.927   0.695   4.209  0.4684 -0.7478  0.0319
  930MOL0     C28269  11.026   0.601   4.183 -0.7099 -0.4040 -0.4011
  930MOL0     C28270  10.979   0.485   4.102 -0.5486  0.2761  0.0861
  930MOL0     H28271  11.570   0.545   4.467 -1.8242  0.8609 -1.7222
  930MOL0     H28272  11.774   0.444   4.455  0.6410  2.3761  0.6108
  930MOL0     H28273  11.988   0.325   4.395 -2.7980  1.5819  0.7131
  930MOL0     H28274  11.962   0.487   4.390  1.2190 -1.7544  3.1221
  930MOL0     H28275  12.152   0.379   4.197  0.2169  0.4862 -0.6578
  930MOL0     H28276  12.134   0.545   4.250 -4.0105 -0.5291 -0.0596
  930MOL0     H28277  12.180   0.470   4.489 -0.0246  1.8813 -1.5901
  930MOL0     H28278  12.241   0.316   4.425 -1.1599  0.8324 -0.4514
  930MOL0     H28279  12.403   0.447   4.277  0.3701 -2.7496  1.2166
  930MOL0     H28280  12.362   0.592   4.369  0.7120  0.0358 -3.2809
  930MOL0     H28281  12.493   0.346   4.472  2.1018  1.0119 -0.6202
  930MOL0     H28282  12.422   0.459   4.593  0.8344  0.2755  1.3036
  930MOL0     H28283  12.572   0.630   4.483  0.7323  0.3421  0.8300
  930MOL0     H28284  12.647   0.510   4.586  1.7149  1.1369 -0.5944
  930MOL0     H28285  12.639   0.467   4.289 -1.8256 -1.2225  0.4057
  930MOL0     H28286  12.709   0.356   4.408 -0.9550 -0.0136  1.3760
  930MOL0     H28287  12.874   0.506   4.292  0.5392 -1.9374  0.5825
  930MOL0     H28288  12.798   0.640   4.364 -0.4701 -0.9335  0.0058
  930MOL0     H28289  12.964   0.298   4.470  0.6148  1.3534 -1.7585
  930MOL0     H28290  13.041   0.205   4.699 -1.4707 -0.0086  0.0935
  930MOL0     H28291  13.045   0.309   4.838 -0.3555 -1.5700 -0.7121
  930MOL0     H28292  13.268   0.254   4.815 -1.4518 -0.6186  0.1878
  930MOL0     H28293  13.248   0.274   4.634 -2.6705  1.4664 -2.0962
  930MOL0     H28294  13.231   0.519   4.672 -0.0138  0.2117  1.0934
  930MOL0     H28295  13.267   0.507   4.839 -0.5306  3.4195 -1.3818
  930MOL0     H28296  13.463   0.406   4.626  1.8936 -1.5000  1.0848
  930MOL0     H28297  13.466   0.559   4.710  1.7087 -0.8705 -0.1115
  930MOL0     H28298  13.669   0.471   4.631 -1.3710 -1.7610 -0.7954
  930MOL0     H28299  14.014   0.513   4.640  1.6185 -0.9676 -1.3896
  930MOL0     H28300  13.859   0.528   4.551 -2.4379 -1.1197  1.0941
  930MOL0     H28301  13.951   0.384   4.538 -1.5182 -0.9965  0.3918
  930MOL0     H28302  14.223   0.015   4.848  1.8107 -0.4808 -0.4477
  930MOL0     H28303  14.430  -0.060   4.789  0.6872 -0.1471  0.0721
  930MOL0     H28304  14.664   0.070   4.457  0.6003  0.3890 -0.6987
  930MOL0     H28305  14.718   0.204   4.556 -1.4253  0.1712  1.0806
  930MOL0     H28306  14.841  -0.073   4.586  1.8991 -0.2468  3.0154
  930MOL0     H28307  14.897   0.051   4.474 -2.2108 -1.3910 -1.7460
  930MOL0     H28308  14.864   0.123   4.770 -2.2364 -3.2718  0.3641
  930MOL0     H28309  14.958   0.198   4.638  0.1665 -0.2462 -2.1815
  930MOL0     H28310  15.121   0.095   4.767  0.5976 -0.3334 -0.2478
  930MOL0     H28311  15.095  -0.010   4.636  2.2711  0.8023  0.8868
  930MOL0     H28312  14.933  -0.150   4.801  0.8004 -0.3004 -1.4656
  930MOL0     H28313  15.103  -0.165   4.807  1.9056  2.2840 -1.9224
  930MOL0     H28314  14.920   0.017   4.984  1.2377  1.0100  0.5133
  930MOL0     H28315  15.092  -0.004   5.016  1.6532 -0.6455 -0.2721
  930MOL0     H28316  14.887  -0.231   5.034 -1.3631  1.3969  0.1189
  930MOL0     H28317  14.960  -0.132   5.161 -1.1198 -1.0813  0.9082
  930MOL0     H28318  15.191  -0.209   5.061  0.6097 -0.2589 -3.1883
  930MOL0     H28319  15.095  -0.329   4.971  0.4625 -1.1274  1.5421
  930MOL0     H28320  14.525   0.287   4.556 -1.1446 -0.1337 -0.5196
  930MOL0     H28321  14.273   0.372   4.618 -1.6588 -2.0768 -3.6533
  930MOL0     H28322  13.890   0.240   5.019  0.0121  2.8275  2.1642
  930MOL0     H28323  13.636   0.244   5.004 -0.3333 -1.1436 -1.4073
  930MOL0     H28324  11.729   0.391   4.027  1.7264  1.8860  0.1645
  930MOL0     H28325  11.488   0.460   4.060 -2.7688 -0.9400  1.5649
  930MOL0     H28326  11.289   0.771   4.322  0.3559  0.3686  0.7211
  930MOL0     H28327  11.113   0.925   4.370  0.7050 -0.1496  0.6065
  930MOL0     H28328  10.772   1.083   4.338  1.0919  2.5368 -0.0005
  930MOL0     H28329  10.911   1.031   4.427 -0.2251  4.0552  0.9341
  930MOL0     H28330  11.051   1.073   4.236 -1.2309 -3.2496  1.6490
  930MOL0     H28331  10.964   1.225   4.297  1.0569  1.2040 -2.2928
  930MOL0     H28332  10.851   1.060   4.076  0.5784 -1.1718  1.2166
  930MOL0     H28333  10.831   1.233   4.113  3.0755  1.3449 -0.2154
  930MOL0     H28334  11.091   1.139   4.011 -0.2469  0.0099  1.4421
  930MOL0     H28335  11.047   1.303   4.064 -0.4945 -0.4828  2.5971
  930MOL0     H28336  10.935   1.271   3.647 -0.0635  1.1211  0.2571
  930MOL0     H28337  10.824   0.684   4.177 -0.4075  0.4836  2.1850
  930MOL0     H28338  10.874   0.487   4.071 -1.0058  0.2804  1.5723
  930MOL0     H28339  11.040   0.482   4.011  0.3064  2.3771  0.5431
  930MOL0     H28340  11.000   0.399   4.166 -0.1355 -0.3943 -0.9084
  931MOL0     O28341   8.487   9.983   7.713 -0.5083  0.6839 -0.7504
  931MOL0     C28342   8.414  10.082   7.737 -0.2823  0.7492  0.8153
  931MOL0     O28343   8.453  10.209   7.777 -0.9574 -0.1185  0.7023
  931MOL0     C28344   8.593  10.233   7.788 -0.0416  0.3811 -0.2412
  931MOL0     C28345   8.669  10.167   7.886 -0.3070  0.0074  0.2983
  931MOL0     C28346   8.803  10.192   7.917 -0.5117  0.8790  0.5607
  931MOL0     C28347   8.877  10.287   7.854 -0.3019 -0.6923  0.7631
  931MOL0     O28348   9.005  10.311   7.905  0.3984  0.8941 -0.5789
  931MOL0     C28349   9.084  10.420   7.842  0.7861  0.7544 -0.3974
  931MOL0     C28350   9.219  10.415   7.907 -0.1869  0.7981 -0.2793
  931MOL0     C28351   9.315  10.299   7.862 -0.1018 -0.3652 -0.7039
  931MOL0     C28352   9.444  10.301   7.941  0.1404 -0.0609  0.2898
  931MOL0     C28353   9.548  10.388   7.865  0.1179  0.3547  0.3381
  931MOL0     C28354   9.681  10.398   7.934  0.5160 -0.3174 -0.7590
  931MOL0     C28355   9.760  10.502   7.857  0.0548 -0.0578  0.5422
  931MOL0     C28356   9.912  10.480   7.838 -0.4384  0.9504 -0.1355
  931MOL0     N28357   9.978  10.504   7.965  0.2305 -0.0881  0.0121
  931MOL0     C28358  10.007  10.624   8.026  0.9371  0.0180  0.2010
  931MOL0     C28359  10.058  10.591   8.143  0.3925  0.2669 -0.1486
  931MOL0     C28360  10.095  10.697   8.241 -0.6154 -0.0068 -0.0887
  931MOL0     C28361  10.197  10.650   8.347  0.1927 -0.4872  1.1054
  931MOL0     C28362  10.342  10.634   8.300  0.1104 -0.0365  0.6199
  931MOL0     C28363  10.441  10.573   8.398  0.1784 -0.3261  1.2408
  931MOL0     O28364  10.395  10.446   8.444 -0.1954  0.1080 -0.2467
  931MOL0     C28365  10.482  10.367   8.512 -0.4724 -0.4692 -0.6823
  931MOL0     C28366  10.431  10.241   8.537  0.3825 -0.1361 -0.6840
  931MOL0     C28367  10.507  10.136   8.590 -0.5002 -0.0982 -0.7094
  931MOL0     C28368  10.429  10.011   8.629  0.0012 -0.6668  0.0257
  931MOL0     C28369  10.635  10.162   8.632 -0.2942 -0.4389 -0.0149
  931MOL0     C28370  10.744  10.063   8.677  0.2947  0.2690 -0.2003
  931MOL0     O28371  10.872  10.103   8.717 -0.5358 -0.5239 -0.5982
  931MOL0     C28372  10.972  10.014   8.703 -0.3131  0.1891 -0.1525
  931MOL0     C28373  11.012   9.973   8.573  0.2139 -0.1886 -0.9628
  931MOL0     C28374  11.128   9.897   8.553  0.9892 -0.1895  0.2081
  931MOL0     C28375  11.202   9.863   8.664  0.0531 -0.0515  0.5953
  931MOL0     O28376  11.313   9.791   8.641 -0.3948 -0.5491 -0.8072
  931MOL0     C28377  11.425   9.875   8.632  0.2121 -0.1406  0.7327
  931MOL0     C28378  11.531   9.800   8.563 -0.8634  0.1732  0.2777
  931MOL0     C28379  11.655   9.896   8.554 -0.7447 -0.1012  0.2399
  931MOL0     C28380  11.754   9.851   8.448  0.1246 -0.9803 -0.4609
  931MOL0     C28381  11.810   9.709   8.480 -0.1959  1.2765  0.1939
  931MOL0     C28382  11.932   9.686   8.392 -0.1186  0.0619  0.2750
  931MOL0     C28383  12.011   9.561   8.446 -1.2735 -0.1079 -0.2905
  931MOL0     C28384  12.158   9.555   8.387  0.7363 -0.4088  0.7926
  931MOL0    Cl28385  12.269   9.440   8.464  0.3251 -0.1102 -0.1750
  931MOL0     C28386  11.163   9.898   8.791  0.1633 -0.4196  0.2512
  931MOL0     C28387  11.040   9.965   8.812 -0.2386  0.0561 -0.3218
  931MOL0     O28388  10.708   9.943   8.676  0.4200 -0.7502 -0.0836
  931MOL0     C28389  10.691  10.291   8.626 -0.1838 -1.1710  0.4208
  931MOL0     C28390  10.612  10.400   8.560 -0.6227  0.3731  0.0070
  931MOL0     N28391  10.045  10.452   8.162  0.1615 -0.2157  0.0558
  931MOL0     N28392  10.008  10.399   8.054  0.5627  0.1630  0.7269
  931MOL0     C28393   8.812  10.359   7.753 -0.1455 -0.3771  0.2502
  931MOL0     C28394   8.673  10.319   7.711  0.0253 -0.5605  0.6969
  931MOL0     C28395   8.262  10.060   7.723 -0.5874 -0.0656  0.4919
  931MOL0     C28396   8.179  10.173   7.724  0.3510  0.7412 -0.5192
  931MOL0     C28397   8.036  10.163   7.697 -0.6403 -0.5384  0.4928
  931MOL0     C28398   7.984  10.032   7.689  0.2934 -0.7831  0.6857
  931MOL0     O28399   7.847  10.006   7.689  0.6352  0.1200  0.1500
  931MOL0     C28400   7.748  10.115   7.669  0.0858  0.0245  0.8489
  931MOL0     C28401   7.721  10.174   7.806 -0.4127  0.5779 -0.2167
  931MOL0     C28402   7.632  10.298   7.802  0.2200  0.7626 -1.1081
  931MOL0     C28403   7.508  10.270   7.897 -0.6943 -0.0159  0.3189
  931MOL0     C28404   7.545  10.255   8.038 -0.4010 -0.2571 -0.9685
  931MOL0     C28405   7.567  10.243   8.161  0.5538  0.2450  0.4909
  931MOL0     C28406   8.066   9.922   7.685 -0.1218 -0.2106  0.7502
  931MOL0     C28407   8.202   9.929   7.707 -0.7201 -0.1648  0.1947
  931MOL0     C28408   8.273   9.798   7.739  0.4622 -0.3740  0.5145
  931MOL0     H28409   8.612  10.092   7.939  0.0362  1.3005  2.6292
  931MOL0     H28410   8.863  10.131   7.984  0.9232 -0.8046 -2.0977
  931MOL0     H28411   9.046  10.513   7.884  3.6726  1.2177  1.4523
  931MOL0     H28412   9.070  10.423   7.733 -5.2945  0.2388  0.0150
  931MOL0     H28413   9.260  10.517   7.905  0.0282  0.7058 -0.6232
  931MOL0     H28414   9.207  10.411   8.016 -1.3803  2.2329 -0.3205
  931MOL0     H28415   9.264  10.205   7.887 -0.3255  0.3294  1.7565
  931MOL0     H28416   9.326  10.301   7.754  0.5644 -1.4893 -0.6680
  931MOL0     H28417   9.422  10.324   8.045  0.7194 -0.4776  0.5074
  931MOL0     H28418   9.473  10.196   7.941 -0.0219 -0.1371  2.2864
  931MOL0     H28419   9.509  10.488   7.846  1.1763  0.8515  0.6631
  931MOL0     H28420   9.570  10.344   7.767  2.7731  0.3987  0.8283
  931MOL0     H28421   9.673  10.426   8.039  2.3386  1.6599 -1.0842
  931MOL0     H28422   9.720  10.297   7.919  3.3496  0.2286  1.9436
  931MOL0     H28423   9.765  10.594   7.915  1.6829 -1.1659  2.2930
  931MOL0     H28424   9.710  10.531   7.764  0.2531  1.2535  0.8352
  931MOL0     H28425   9.926  10.379   7.799 -1.3534  0.3828  0.9380
  931MOL0     H28426   9.960  10.555   7.774 -0.3929  0.6284 -0.4740
  931MOL0     H28427   9.992  10.721   7.979  1.7579 -0.6146 -1.4653
  931MOL0     H28428  10.003  10.743   8.280  0.3822  1.5459  0.5309
  931MOL0     H28429  10.138  10.780   8.184 -0.7970  0.6402  0.6996
  931MOL0     H28430  10.198  10.735   8.416  0.2036  0.2441  0.2327
  931MOL0     H28431  10.172  10.557   8.397 -1.0201 -0.3945  0.7081
  931MOL0     H28432  10.344  10.570   8.211  1.3675  0.9387 -0.0771
  931MOL0     H28433  10.377  10.734   8.275  1.3481 -0.4238  0.7391
  931MOL0     H28434  10.537  10.564   8.347 -0.9208  0.3669 -1.1440
  931MOL0     H28435  10.449  10.639   8.484 -0.2762  1.9966 -0.3883
  931MOL0     H28436  10.333  10.211   8.501  0.6605 -3.2805  0.7839
  931MOL0     H28437  10.321  10.019   8.612 -0.7170 -0.6719  3.8561
  931MOL0     H28438  10.442  10.001   8.737  0.4579  2.3693  0.3276
  931MOL0     H28439  10.473   9.923   8.581  1.6250 -0.8836  1.8010
  931MOL0     H28440  10.954  10.014   8.491 -2.1563 -0.2820  0.5897
  931MOL0     H28441  11.149   9.847   8.459 -2.7911 -0.6309 -0.5611
  931MOL0     H28442  11.397   9.957   8.565  0.2775 -0.0569  0.8069
  931MOL0     H28443  11.457   9.912   8.730 -2.6531  4.6212  0.2195
  931MOL0     H28444  11.554   9.714   8.627  1.2620 -0.2589 -0.9615
  931MOL0     H28445  11.498   9.768   8.463  1.8317 -1.2550 -0.2642
  931MOL0     H28446  11.700   9.898   8.653 -1.2823  2.4410  0.5096
  931MOL0     H28447  11.613   9.992   8.524 -4.8440 -2.2363 -1.7493
  931MOL0     H28448  11.833   9.926   8.459  0.0778 -0.9933  0.0252
  931MOL0     H28449  11.716   9.853   8.346  0.7862  2.0794 -0.7375
  931MOL0     H28450  11.829   9.682   8.584  0.2377 -0.3216 -0.2790
  931MOL0     H28451  11.738   9.630   8.456  0.5324  1.0781 -1.4420
  931MOL0     H28452  11.998   9.773   8.393  1.9757 -1.4493  0.9099
  931MOL0     H28453  11.899   9.663   8.291  1.5489 -2.4181  0.2046
  931MOL0     H28454  11.971   9.460   8.433  1.7712 -1.3694 -0.6917
  931MOL0     H28455  12.022   9.570   8.555  2.3967 -2.2585 -0.2894
  931MOL0     H28456  12.197   9.657   8.390  2.8933 -1.1876  0.5370
  931MOL0     H28457  12.143   9.523   8.283  0.5810 -0.6863  0.8997
  931MOL0     H28458  11.229   9.858   8.868  1.4390 -0.4357 -0.8186
  931MOL0     H28459  10.999   9.985   8.911  1.0721 -1.1682  0.5178
  931MOL0     H28460  10.796  10.312   8.645 -0.5779  2.2887 -0.5902
  931MOL0     H28461  10.644  10.502   8.573 -0.1798  0.4518 -1.5586
  931MOL0     H28462   8.861  10.442   7.702  0.2957 -0.8246 -0.0654
  931MOL0     H28463   8.618  10.369   7.632  0.0205  0.5615  1.3939
  931MOL0     H28464   8.216  10.275   7.732  1.4748  0.2146  2.2252
  931MOL0     H28465   7.978  10.253   7.681 -0.3676 -0.9083 -3.4089
  931MOL0     H28466   7.795  10.187   7.602 -2.6121 -0.6656 -1.9835
  931MOL0     H28467   7.656  10.080   7.623  0.2271  0.5189  0.1734
  931MOL0     H28468   7.818  10.202   7.849  1.1598 -0.7685 -2.6570
  931MOL0     H28469   7.683  10.099   7.875  0.4643 -1.3481 -1.7395
  931MOL0     H28470   7.688  10.387   7.831 -1.9503  1.4306  1.5153
  931MOL0     H28471   7.571  10.303   7.711 -2.9061  0.3788  0.8181
  931MOL0     H28472   7.447  10.188   7.860 -1.7292  0.8927 -0.0194
  931MOL0     H28473   7.444  10.358   7.890 -3.0857 -1.7319 -0.5335
  931MOL0     H28474   7.604  10.229   8.261 -1.4794 -1.5165  1.0635
  931MOL0     H28475   8.011   9.830   7.663 -0.6935 -0.1824  1.9728
  931MOL0     H28476   8.351   9.812   7.814 -1.5195 -1.3412  2.8984
  931MOL0     H28477   8.204   9.725   7.781 -1.9457 -0.5848 -3.3372
  931MOL0     H28478   8.314   9.757   7.646  0.8583  0.9274  0.0879
  932MOL0     O28479  10.076   7.727  10.937  0.6644  0.9608 -1.0760
  932MOL0     C28480  10.042   7.609  10.913 -0.6047 -0.3733  0.0938
  932MOL0     O28481  10.133   7.500  10.908  0.3280 -0.4014 -0.2460
  932MOL0     C28482  10.268   7.524  10.935 -0.4777 -0.5587 -0.0408
  932MOL0     C28483  10.343   7.447  11.020 -0.0491 -0.1555  0.0133
  932MOL0     C28484  10.481   7.473  11.041  0.3457 -0.0286 -0.1299
  932MOL0     C28485  10.551   7.569  10.967 -0.3552 -0.3493 -0.6009
  932MOL0     O28486  10.680   7.594  11.000  0.1250  0.0825 -0.3949
  932MOL0     C28487  10.749   7.702  10.947 -0.0251 -0.1544  0.5237
  932MOL0     C28488  10.897   7.693  10.975  0.5471 -0.5324 -1.0854
  932MOL0     C28489  10.931   7.784  11.088  0.9795 -0.6015  0.4970
  932MOL0     C28490  11.082   7.777  11.121  0.7671 -0.0437  0.1219
  932MOL0     C28491  11.117   7.822  11.262  0.9350 -0.6256  0.8226
  932MOL0     C28492  11.255   7.796  11.306 -1.0524  0.3228 -0.0770
  932MOL0     C28493  11.363   7.890  11.243  0.6549  0.3474  0.7719
  932MOL0     C28494  11.487   7.858  11.311 -0.1027  1.0313  0.3479
  932MOL0     N28495  11.590   7.945  11.260 -1.0258  0.7344 -1.0167
  932MOL0     C28496  11.648   7.956  11.135 -0.1764  0.5442  0.3232
  932MOL0     C28497  11.731   8.062  11.141 -0.8972  0.7071  0.2182
  932MOL0     C28498  11.788   8.132  11.020  0.1435  0.3755 -0.6843
  932MOL0     C28499  11.887   8.045  10.956 -0.3012 -0.6299 -0.1862
  932MOL0     C28500  11.964   8.126  10.843  0.7281  0.0617  0.3014
  932MOL0     C28501  12.093   8.205  10.890  1.2225  0.5289 -0.5549
  932MOL0     O28502  12.176   8.107  10.945 -0.3645 -0.2207  0.1451
  932MOL0     C28503  12.313   8.125  10.946 -1.0066  0.3783  0.3683
  932MOL0     C28504  12.367   8.252  10.957 -1.0194 -0.0583 -0.0015
  932MOL0     C28505  12.510   8.281  10.938 -0.0326  0.0315 -0.3238
  932MOL0     C28506  12.546   8.430  10.934  0.1591 -0.0952  0.5922
  932MOL0     C28507  12.595   8.172  10.917  0.0157  0.1772  0.1153
  932MOL0     C28508  12.748   8.194  10.925  1.0193 -0.6836  0.7346
  932MOL0     O28509  12.818   8.091  10.892  0.1067  0.1775  0.2589
  932MOL0     C28510  12.954   8.092  10.911  0.7392  0.6489  0.0456
  932MOL0     C28511  13.019   8.123  11.030  0.4662  0.7223  0.1721
  932MOL0     C28512  13.156   8.120  11.041  0.2701  0.4299  0.6789
  932MOL0     C28513  13.237   8.088  10.932  0.7556 -0.1121  0.0499
  932MOL0     O28514  13.370   8.087  10.961  0.6314  0.2483  0.3330
  932MOL0     C28515  13.423   8.217  10.996  0.8416 -0.2435 -0.0517
  932MOL0     C28516  13.572   8.187  11.027 -0.3695  0.5683  0.0320
  932MOL0     C28517  13.656   8.183  10.900 -1.4765 -0.6180  1.2893
  932MOL0     C28518  13.802   8.162  10.943  0.3202 -0.0771 -1.1769
  932MOL0     C28519  13.891   8.123  10.828  0.1425  0.1264 -1.1103
  932MOL0     C28520  14.046   8.166  10.852 -0.4166  0.3154  0.3212
  932MOL0     C28521  14.147   8.133  10.739  0.1535 -1.2169  0.2648
  932MOL0     C28522  14.291   8.195  10.753  0.4696  0.3746 -0.4021
  932MOL0    Cl28523  14.401   8.064  10.793 -0.0213 -0.2936  0.0373
  932MOL0     C28524  13.176   8.042  10.814  0.1940 -0.4324 -0.3661
  932MOL0     C28525  13.035   8.046  10.810  0.0678 -0.1999  0.1738
  932MOL0     O28526  12.789   8.292  10.983 -0.4882  0.1911  0.1816
  932MOL0     C28527  12.545   8.045  10.912 -0.0341  0.3509 -0.8475
  932MOL0     C28528  12.405   8.014  10.928 -0.8050  0.0766  0.0040
  932MOL0     N28529  11.746   8.100  11.275  0.2714  0.0344  0.4020
  932MOL0     N28530  11.665   8.028  11.343 -0.1615 -0.1928  0.3045
  932MOL0     C28531  10.480   7.632  10.859  0.3081 -0.2026 -0.5483
  932MOL0     C28532  10.341   7.611  10.850  1.0159  0.3874 -0.9319
  932MOL0     C28533   9.897   7.595  10.851  0.4158 -0.6689  0.0401
  932MOL0     C28534   9.789   7.673  10.912 -0.1999  1.0516 -0.0120
  932MOL0     C28535   9.656   7.664  10.863  0.8651 -0.1896 -0.1311
  932MOL0     C28536   9.633   7.600  10.740 -0.6038 -0.3260  0.3258
  932MOL0     O28537   9.505   7.593  10.693 -0.0490  0.3661 -0.7260
  932MOL0     C28538   9.481   7.583  10.551  0.4413 -0.1896 -0.2302
  932MOL0     C28539   9.335   7.580  10.522  0.0027  0.0036 -0.5792
  932MOL0     C28540   9.274   7.713  10.554  0.0060 -0.1122 -0.5267
  932MOL0     C28541   9.126   7.694  10.522  0.2750 -0.6576  0.3941
  932MOL0     C28542   9.057   7.815  10.572 -0.3308 -0.0218 -0.0323
  932MOL0     C28543   8.999   7.908  10.624  0.3968  0.5242 -0.0983
  932MOL0     C28544   9.735   7.536  10.679 -0.4190 -0.5583 -0.4650
  932MOL0     C28545   9.871   7.541  10.730  0.3238  0.1970  0.8738
  932MOL0     C28546   9.978   7.464  10.645  0.2755 -0.8113 -0.0801
  932MOL0     H28547  10.294   7.359  11.062 -1.8442  0.3371 -0.9244
  932MOL0     H28548  10.541   7.411  11.107 -1.1129 -1.2958  0.0599
  932MOL0     H28549  10.712   7.795  10.991  0.9574  0.7711 -0.5167
  932MOL0     H28550  10.738   7.704  10.838  1.6232 -0.0557  0.3348
  932MOL0     H28551  10.932   7.592  10.997 -0.6899 -0.4734  1.5823
  932MOL0     H28552  10.958   7.728  10.892  1.1197 -0.6972 -0.7344
  932MOL0     H28553  10.896   7.885  11.067 -0.1657 -0.9180  0.8291
  932MOL0     H28554  10.883   7.765  11.185  1.6716 -0.3640  0.8954
  932MOL0     H28555  11.115   7.673  11.111  0.5103 -0.1939  0.8238
  932MOL0     H28556  11.136   7.840  11.049  1.3811  0.8824  1.3711
  932MOL0     H28557  11.043   7.775  11.327 -0.0480 -0.3408 -0.0466
  932MOL0     H28558  11.081   7.926  11.260  3.3016  0.2347 -0.5894
  932MOL0     H28559  11.261   7.815  11.413  1.6483  0.0122 -0.1215
  932MOL0     H28560  11.279   7.692  11.280 -2.4422  0.6066 -2.9617
  932MOL0     H28561  11.332   7.992  11.264  1.9736  0.2284  3.7315
  932MOL0     H28562  11.364   7.884  11.133 -2.9977  4.5254  0.2396
  932MOL0     H28563  11.473   7.865  11.419 -2.5275  0.1201  0.1412
  932MOL0     H28564  11.519   7.756  11.284  3.0036  2.5326 -2.4392
  932MOL0     H28565  11.620   7.894  11.049 -1.1204  0.5087  0.6441
  932MOL0     H28566  11.841   8.218  11.061  2.0395 -0.5671 -1.0157
  932MOL0     H28567  11.706   8.161  10.954 -0.5304 -2.3177 -1.1679
  932MOL0     H28568  11.963   8.009  11.026 -0.1230  0.2492  0.0918
  932MOL0     H28569  11.827   7.964  10.916  1.1236 -2.1883  0.6935
  932MOL0     H28570  12.001   8.057  10.766 -0.0721  0.8179 -0.7886
  932MOL0     H28571  11.896   8.190  10.785  1.2806 -1.5404 -2.2893
  932MOL0     H28572  12.144   8.257  10.809  0.6675 -0.0769 -1.3036
  932MOL0     H28573  12.057   8.277  10.963 -1.6098  1.9904 -3.1820
  932MOL0     H28574  12.297   8.333  10.978 -1.7670 -1.3179  2.7923
  932MOL0     H28575  12.586   8.460  11.031 -0.6530 -1.8590  1.5278
  932MOL0     H28576  12.453   8.484  10.915 -1.6244 -3.0922  0.1259
  932MOL0     H28577  12.620   8.456  10.858  0.9460 -0.6180  1.1663
  932MOL0     H28578  12.969   8.141  11.125  0.8892 -0.1892  0.5797
  932MOL0     H28579  13.204   8.122  11.138  0.2394 -2.1330  0.8176
  932MOL0     H28580  13.412   8.297  10.922  1.6198 -0.0901 -0.0063
  932MOL0     H28581  13.375   8.239  11.093 -0.2805 -0.7146 -0.4791
  932MOL0     H28582  13.614   8.263  11.093  1.4083 -1.6690  1.6308
  932MOL0     H28583  13.574   8.094  11.086  0.1599  0.5337 -0.0331
  932MOL0     H28584  13.644   8.266  10.831  1.0511  0.1396  1.6466
  932MOL0     H28585  13.623   8.101  10.836 -1.2694  1.2659 -1.3796
  932MOL0     H28586  13.791   8.092  11.026 -0.0269 -1.0700 -2.0333
  932MOL0     H28587  13.842   8.255  10.984 -1.3761  0.5979 -0.9696
  932MOL0     H28588  13.871   8.016  10.821 -0.4678  0.2268 -1.0184
  932MOL0     H28589  13.855   8.165  10.734 -2.4209  3.1434  0.9832
  932MOL0     H28590  14.087   8.130  10.947  1.2118  1.6061  0.1698
  932MOL0     H28591  14.050   8.275  10.864  2.5275  0.3262 -0.0677
  932MOL0     H28592  14.102   8.176  10.649  0.0929  0.1341  0.9113
  932MOL0     H28593  14.151   8.026  10.715 -0.0829 -1.9318  3.0538
  932MOL0     H28594  14.296   8.275  10.828  1.6300 -1.6625  1.8183
  932MOL0     H28595  14.312   8.233  10.653 -0.5528  0.7693 -0.4721
  932MOL0     H28596  13.234   8.006  10.730 -0.7374  0.1176 -1.2593
  932MOL0     H28597  12.982   8.025  10.718  2.1912  1.5808 -1.6102
  932MOL0     H28598  12.605   7.955  10.902  0.3130  0.4026  0.5930
  932MOL0     H28599  12.367   7.913  10.922 -0.4594 -0.0917  0.5476
  932MOL0     H28600  10.525   7.713  10.803  0.7086  0.2132  0.3596
  932MOL0     H28601  10.275   7.674  10.791 -1.1518 -0.4838  0.4207
  932MOL0     H28602   9.818   7.733  10.998  3.8131  0.3641 -0.7297
  932MOL0     H28603   9.577   7.728  10.902  1.1128  0.9007 -1.3170
  932MOL0     H28604   9.533   7.661  10.494 -0.2296  0.0156 -0.5723
  932MOL0     H28605   9.509   7.479  10.530 -0.1170 -0.0663 -1.7025
  932MOL0     H28606   9.286   7.503  10.583 -1.1007  1.3538  0.2922
  932MOL0     H28607   9.325   7.553  10.416  2.4653  0.4574 -0.9809
  932MOL0     H28608   9.279   7.728  10.662 -1.1982 -0.5625 -0.3905
  932MOL0     H28609   9.325   7.799  10.509  0.0093 -0.7851 -1.8620
  932MOL0     H28610   9.076   7.611  10.573 -1.8154 -0.2293 -0.8052
  932MOL0     H28611   9.116   7.685  10.414 -0.6830  3.0559  0.0253
  932MOL0     H28612   8.940   7.985  10.668 -2.9140 -2.8621  1.9969
  932MOL0     H28613   9.723   7.482  10.585  0.1807 -1.2458 -0.1566
  932MOL0     H28614  10.028   7.390  10.708  3.1476  2.1118  1.3441
  932MOL0     H28615   9.935   7.417  10.555 -2.3729 -0.9046  1.1597
  932MOL0     H28616  10.060   7.531  10.615  1.6015 -0.4378  3.8149
  933MOL0     O28617   0.211   8.227   6.429  0.4833 -0.2518 -0.4748
  933MOL0     C28618   0.194   8.283   6.540 -1.3680 -0.1304 -0.7657
  933MOL0     O28619   0.074   8.315   6.592  0.1886  0.2268 -0.2204
  933MOL0     C28620  -0.042   8.278   6.534  0.7633 -0.2555 -0.3641
  933MOL0     C28621  -0.079   8.145   6.539  0.0773 -0.2844 -0.2957
  933MOL0     C28622  -0.187   8.106   6.467 -0.0193  0.3949  0.7720
  933MOL0     C28623  -0.263   8.193   6.394 -0.1767 -0.0481 -1.1478
  933MOL0     O28624  -0.369   8.147   6.317  0.3463  0.2023  0.8252
  933MOL0     C28625  -0.498   8.210   6.354  0.4666  0.0011 -0.2299
  933MOL0     C28626  -0.536   8.168   6.503  0.5959 -0.8380  0.0818
  933MOL0     C28627  -0.596   8.029   6.525  0.1236  0.6062 -0.3064
  933MOL0     C28628  -0.512   7.905   6.488 -0.3833  0.1052  0.3242
  933MOL0     C28629  -0.573   7.769   6.527 -0.5744  0.0914  0.9710
  933MOL0     C28630  -0.486   7.653   6.487 -0.7489 -0.4049  0.2588
  933MOL0     C28631  -0.345   7.639   6.562  0.1942 -0.3026  0.8422
  933MOL0     C28632  -0.365   7.641   6.712 -0.2285  0.2943  0.5674
  933MOL0     N28633  -0.240   7.610   6.788 -0.2015 -0.0944  0.3488
  933MOL0     C28634  -0.138   7.514   6.763  0.5656 -0.1430  1.5949
  933MOL0     C28635  -0.052   7.519   6.868 -0.5839 -0.1893 -0.0670
  933MOL0     C28636   0.070   7.442   6.904 -0.7261 -0.2557  0.2712
  933MOL0     C28637   0.205   7.524   6.882 -0.7571  0.5439  0.1651
  933MOL0     C28638   0.250   7.538   6.734  0.2022 -0.4423  0.7421
  933MOL0     C28639   0.382   7.614   6.704 -0.4497  0.6802 -0.6477
  933MOL0     O28640   0.477   7.584   6.809 -0.1662 -0.1125 -0.2528
  933MOL0     C28641   0.600   7.645   6.799 -0.4116  0.2991 -1.2095
  933MOL0     C28642   0.633   7.750   6.712  1.2758  0.5987  0.2770
  933MOL0     C28643   0.762   7.805   6.711  0.1936  0.5801  0.8016
  933MOL0     C28644   0.778   7.931   6.629 -0.7060 -0.5785 -0.1511
  933MOL0     C28645   0.870   7.751   6.788  0.0402 -0.1129  0.0131
  933MOL0     C28646   0.998   7.812   6.802 -0.4602  1.3122 -0.5195
  933MOL0     O28647   1.098   7.731   6.855 -0.2128  0.1204 -0.6361
  933MOL0     C28648   1.232   7.754   6.830 -0.2231 -0.1620  0.3099
  933MOL0     C28649   1.293   7.813   6.720  0.7651 -0.0191  0.2037
  933MOL0     C28650   1.433   7.826   6.721 -0.4843  0.0533 -0.1439
  933MOL0     C28651   1.516   7.782   6.819  0.0497 -0.6756 -0.1066
  933MOL0     O28652   1.651   7.807   6.828  1.0327  0.5386  0.7834
  933MOL0     C28653   1.711   7.773   6.705  0.0429 -0.0109  0.7590
  933MOL0     C28654   1.853   7.736   6.738 -1.1053  1.1020 -0.7819
  933MOL0     C28655   1.935   7.701   6.609 -0.1233 -0.2135  0.6095
  933MOL0     C28656   2.063   7.640   6.648  0.7492  0.3114  0.4616
  933MOL0     C28657   2.139   7.621   6.523  0.2548 -0.1526 -1.2959
  933MOL0     C28658   2.261   7.539   6.536 -1.2478 -1.1488  0.7017
  933MOL0     C28659   2.361   7.606   6.633  0.7161  0.5594  0.1264
  933MOL0     C28660   2.478   7.511   6.644  0.0520 -0.7294  0.0143
  933MOL0    Cl28661   2.562   7.486   6.495 -0.1726  0.5630  0.0089
  933MOL0     C28662   1.454   7.725   6.936 -0.3150  0.2014  0.9343
  933MOL0     C28663   1.313   7.709   6.934 -1.0543 -0.1574  1.0622
  933MOL0     O28664   1.011   7.936   6.780  0.8182 -0.0093 -0.1058
  933MOL0     C28665   0.842   7.629   6.851  0.4749  0.6126 -0.9479
  933MOL0     C28666   0.704   7.595   6.866 -0.5452 -0.0264 -0.3545
  933MOL0     N28667  -0.094   7.621   6.956 -0.0304  1.0489  0.2256
  933MOL0     N28668  -0.204   7.675   6.900  0.0307  0.2144 -0.5649
  933MOL0     C28669  -0.226   8.326   6.392  0.1253 -0.1876  0.2267
  933MOL0     C28670  -0.124   8.374   6.460 -0.3615  0.5288  0.7959
  933MOL0     C28671   0.323   8.314   6.608  0.6261 -0.6178  0.1685
  933MOL0     C28672   0.434   8.314   6.527  0.8959 -0.7943  0.1507
  933MOL0     C28673   0.556   8.349   6.584 -0.2962  0.2730  0.3291
  933MOL0     C28674   0.572   8.379   6.721 -0.9524  0.1685 -0.0036
  933MOL0     O28675   0.690   8.424   6.777 -0.2704  0.3935  1.0640
  933MOL0     C28676   0.697   8.477   6.907 -0.2860 -0.0308  0.6012
  933MOL0     C28677   0.648   8.622   6.913 -0.2645 -0.4264 -0.3679
  933MOL0     C28678   0.751   8.716   6.832  0.1517  0.3935 -0.0445
  933MOL0     C28679   0.848   8.797   6.917  0.4076 -0.3506  0.2544
  933MOL0     C28680   0.922   8.881   6.822  0.5067 -0.2463 -0.1987
  933MOL0     C28681   0.964   8.948   6.738 -0.3437  0.2003  0.5767
  933MOL0     C28682   0.460   8.356   6.799  0.5691  0.5999 -0.3739
  933MOL0     C28683   0.335   8.335   6.751 -0.0357  0.4897  0.5561
  933MOL0     C28684   0.222   8.308   6.852  0.6146 -0.5222  0.5976
  933MOL0     H28685  -0.010   8.084   6.597  1.0762 -1.0950 -2.2480
  933MOL0     H28686  -0.212   8.000   6.475 -3.4678  1.1692  1.6311
  933MOL0     H28687  -0.567   8.184   6.274  2.7079 -1.2373 -1.8695
  933MOL0     H28688  -0.493   8.319   6.344 -1.4433  0.1062 -0.3374
  933MOL0     H28689  -0.448   8.180   6.566  1.0443  0.3193 -0.7226
  933MOL0     H28690  -0.600   8.243   6.550  1.0588 -1.4799  1.8091
  933MOL0     H28691  -0.613   8.028   6.633 -0.3985 -0.5331 -0.3941
  933MOL0     H28692  -0.691   8.018   6.472  0.5002 -1.1698 -0.6567
  933MOL0     H28693  -0.501   7.907   6.379 -0.5351 -2.5067  0.1949
  933MOL0     H28694  -0.421   7.919   6.547 -1.1638 -1.7772  2.1041
  933MOL0     H28695  -0.673   7.782   6.484  1.2903  3.1828 -3.1736
  933MOL0     H28696  -0.590   7.766   6.635 -1.3055  2.4953  0.9744
  933MOL0     H28697  -0.550   7.566   6.503  0.7045 -2.0090 -2.0144
  933MOL0     H28698  -0.482   7.665   6.379 -3.2711 -1.5509 -0.0387
  933MOL0     H28699  -0.273   7.718   6.537 -0.4757  0.4543  1.2837
  933MOL0     H28700  -0.298   7.549   6.521 -1.0215 -1.7057  2.3860
  933MOL0     H28701  -0.399   7.742   6.739 -0.0990  0.2359  0.9475
  933MOL0     H28702  -0.442   7.573   6.750 -0.0098  0.6236  1.6349
  933MOL0     H28703  -0.131   7.447   6.678  0.1948 -0.6497  1.9568
  933MOL0     H28704   0.069   7.344   6.856 -4.4973  0.4056 -1.3656
  933MOL0     H28705   0.057   7.425   7.011  2.3052  4.7064  1.7711
  933MOL0     H28706   0.199   7.626   6.922  1.2849  2.2222 -3.3257
  933MOL0     H28707   0.273   7.457   6.936 -1.0237  0.1128 -0.0326
  933MOL0     H28708   0.252   7.437   6.692  0.1487 -0.4503  0.7596
  933MOL0     H28709   0.170   7.595   6.685  1.6207  1.5158  0.5640
  933MOL0     H28710   0.424   7.593   6.605 -1.2463  0.7605 -1.0153
  933MOL0     H28711   0.369   7.721   6.723 -0.1269  0.1400  3.6144
  933MOL0     H28712   0.560   7.801   6.650 -1.2184  0.6459  3.0242
  933MOL0     H28713   0.766   8.015   6.697 -1.4723 -1.5897  1.0176
  933MOL0     H28714   0.698   7.944   6.555  0.5334  2.4817 -1.0889
  933MOL0     H28715   0.875   7.930   6.578 -0.0502 -1.0316  1.0678
  933MOL0     H28716   1.239   7.845   6.632  3.4348  1.5630 -0.9958
  933MOL0     H28717   1.478   7.881   6.639  0.4069 -0.1631  0.1765
  933MOL0     H28718   1.658   7.686   6.665 -1.4279  1.0201  0.3649
  933MOL0     H28719   1.705   7.848   6.625  1.0078 -0.4740  0.2400
  933MOL0     H28720   1.903   7.821   6.786  1.3182 -0.7010  0.1282
  933MOL0     H28721   1.859   7.649   6.805  0.9099  1.2796 -0.6661
  933MOL0     H28722   1.943   7.793   6.551  1.5165 -0.1623  0.8527
  933MOL0     H28723   1.889   7.622   6.549 -0.3832  0.4084 -0.0226
  933MOL0     H28724   2.049   7.544   6.698 -0.3104 -1.1973 -2.5226
  933MOL0     H28725   2.121   7.715   6.704  2.5128  0.5627 -1.5502
  933MOL0     H28726   2.085   7.563   6.447 -1.0610 -3.0385  1.6218
  933MOL0     H28727   2.159   7.722   6.485  1.9724 -0.4329 -1.1994
  933MOL0     H28728   2.301   7.521   6.436  2.5761 -0.9655  2.0241
  933MOL0     H28729   2.246   7.441   6.583  0.3269 -0.6011  2.4518
  933MOL0     H28730   2.309   7.613   6.730 -0.5643  1.7635 -0.6155
  933MOL0     H28731   2.384   7.710   6.610 -3.0183  1.5682  0.3093
  933MOL0     H28732   2.445   7.413   6.682 -1.3600 -0.2731  0.0388
  933MOL0     H28733   2.548   7.555   6.715 -0.0283 -1.1998  0.3959
  933MOL0     H28734   1.510   7.682   7.019  1.1293  0.4996  0.1468
  933MOL0     H28735   1.255   7.662   7.013  0.1461  1.1460  2.7851
  933MOL0     H28736   0.911   7.574   6.914 -0.1240 -0.7235 -1.4283
  933MOL0     H28737   0.693   7.509   6.930 -0.0982  0.6172  0.6068
  933MOL0     H28738  -0.285   8.395   6.333 -0.3704 -0.4949  0.3580
  933MOL0     H28739  -0.093   8.475   6.436 -0.7563 -0.3643 -4.5327
  933MOL0     H28740   0.433   8.294   6.420  3.3677 -0.2318 -0.0301
  933MOL0     H28741   0.641   8.357   6.518  1.5090 -0.9179  2.3634
  933MOL0     H28742   0.645   8.417   6.983 -0.4733  0.8704  1.1989
  933MOL0     H28743   0.802   8.482   6.937  0.1856  0.7957 -1.1008
  933MOL0     H28744   0.634   8.662   7.014  1.3812  0.1213 -0.3224
  933MOL0     H28745   0.550   8.635   6.866 -0.3281  1.9063  0.2981
  933MOL0     H28746   0.798   8.670   6.744  0.9188 -1.0731  1.0929
  933MOL0     H28747   0.684   8.787   6.782 -0.6689 -1.0620 -1.0733
  933MOL0     H28748   0.912   8.725   6.969 -2.1565 -3.3323 -0.4528
  933MOL0     H28749   0.793   8.854   6.993  1.5754 -0.5996  1.3267
  933MOL0     H28750   1.002   9.005   6.656  1.4993 -1.2791  0.3165
  933MOL0     H28751   0.466   8.353   6.907 -0.4022 -0.2621 -0.3252
  933MOL0     H28752   0.156   8.395   6.857  1.9460  0.7129 -1.8273
  933MOL0     H28753   0.163   8.223   6.817 -2.1072  1.6442 -0.3516
  933MOL0     H28754   0.261   8.277   6.950 -0.2391 -1.4896  0.6446
  934MOL0     O28755   2.485   6.195   2.955  0.2469 -0.5200 -0.7399
  934MOL0     C28756   2.442   6.279   3.038  0.1008  0.1177  0.9879
  934MOL0     O28757   2.519   6.346   3.127 -0.0545 -0.7725 -0.1140
  934MOL0     C28758   2.659   6.315   3.127  0.4331  0.1993  0.0740
  934MOL0     C28759   2.700   6.191   3.175  0.2167 -0.5377 -0.0607
  934MOL0     C28760   2.832   6.162   3.185  0.0223 -0.0933  0.1628
  934MOL0     C28761   2.928   6.259   3.158 -0.2265  0.1530 -0.5643
  934MOL0     O28762   3.057   6.224   3.193  0.2001 -0.0410  0.4023
  934MOL0     C28763   3.162   6.319   3.165  0.2809 -0.6316  0.2157
  934MOL0     C28764   3.300   6.273   3.218 -0.3297 -0.4133  0.8081
  934MOL0     C28765   3.344   6.135   3.179  0.3813  0.3926  0.2477
  934MOL0     C28766   3.492   6.123   3.177  0.4309 -0.5830  0.4596
  934MOL0     C28767   3.529   5.975   3.143 -0.5428  0.0411 -0.7583
  934MOL0     C28768   3.678   5.945   3.169 -0.3930 -0.4379 -0.9968
  934MOL0     C28769   3.704   5.801   3.130  0.3949  0.0449  0.2048
  934MOL0     C28770   3.852   5.776   3.101 -0.0111  0.4586  0.0596
  934MOL0     N28771   3.933   5.788   3.218  0.0961 -0.0975 -0.6613
  934MOL0     C28772   3.972   5.684   3.297  0.1065 -0.4614  0.2768
  934MOL0     C28773   4.023   5.734   3.410  0.3893  0.1244  0.1150
  934MOL0     C28774   4.070   5.648   3.527  0.2692 -1.1223 -0.5224
  934MOL0     C28775   4.211   5.701   3.574 -0.4450 -0.0380  0.5788
  934MOL0     C28776   4.252   5.616   3.698 -0.5731  0.4036 -0.2968
  934MOL0     C28777   4.396   5.638   3.740 -0.0183  0.6319 -0.2893
  934MOL0     O28778   4.484   5.573   3.648  0.1688  0.4624 -0.5009
  934MOL0     C28779   4.615   5.622   3.655  0.4343 -0.5787  0.5993
  934MOL0     C28780   4.685   5.647   3.774 -0.1093  0.4305 -0.3971
  934MOL0     C28781   4.818   5.674   3.778  0.5175 -0.5469 -0.6832
  934MOL0     C28782   4.882   5.687   3.913 -0.6944 -0.3750  0.2671
  934MOL0     C28783   4.892   5.687   3.648  0.4604 -0.3342 -0.1983
  934MOL0     C28784   5.038   5.694   3.643 -0.3000 -0.0567 -0.4310
  934MOL0     O28785   5.104   5.693   3.763  0.2593  0.6134 -0.5950
  934MOL0     C28786   5.241   5.698   3.766  0.8212  0.4425  1.1490
  934MOL0     C28787   5.323   5.811   3.730  0.3805  0.0384 -0.5878
  934MOL0     C28788   5.460   5.795   3.716 -0.2730  0.3354 -0.4857
  934MOL0     C28789   5.522   5.677   3.748  0.2106 -0.3165 -0.4060
  934MOL0     O28790   5.657   5.664   3.757 -0.1881  0.7253 -0.0850
  934MOL0     C28791   5.719   5.751   3.859 -0.2888 -0.9939  0.9209
  934MOL0     C28792   5.860   5.699   3.882  0.7185 -1.1436  0.9525
  934MOL0     C28793   5.950   5.801   3.944 -0.2512 -0.0096 -0.2019
  934MOL0     C28794   5.934   5.811   4.095 -0.3766  0.0902  0.1603
  934MOL0     C28795   6.042   5.894   4.169  0.4210 -0.0669  0.4832
  934MOL0     C28796   6.116   6.001   4.089  0.1575 -0.3675 -0.7112
  934MOL0     C28797   6.202   6.094   4.166 -0.6537 -0.3916  0.4881
  934MOL0     C28798   6.301   6.020   4.247  0.1247 -0.1217 -0.2316
  934MOL0    Cl28799   6.393   5.916   4.138 -0.0379 -0.4699 -0.4921
  934MOL0     C28800   5.440   5.566   3.781  0.9306 -0.0796  0.7224
  934MOL0     C28801   5.300   5.579   3.787 -1.4639  0.3313 -0.1505
  934MOL0     O28802   5.095   5.696   3.535 -0.1633 -0.8332  0.3981
  934MOL0     C28803   4.812   5.672   3.528  0.3829  0.5266  0.0335
  934MOL0     C28804   4.682   5.628   3.535  0.5076 -0.5420 -0.5923
  934MOL0     N28805   4.023   5.872   3.396  0.5154  0.3521  0.5493
  934MOL0     N28806   3.971   5.904   3.281 -0.0198 -0.4943 -0.5083
  934MOL0     C28807   2.886   6.374   3.095 -0.1752 -0.3379  0.0308
  934MOL0     C28808   2.747   6.403   3.077 -0.1822 -0.1836  0.0005
  934MOL0     C28809   2.302   6.325   3.043  0.0273  0.1169  0.1907
  934MOL0     C28810   2.270   6.458   3.076  0.1516 -0.2001 -0.9524
  934MOL0     C28811   2.137   6.501   3.084  0.9136  0.5688  0.2868
  934MOL0     C28812   2.033   6.407   3.063  0.2701  0.2569  0.5564
  934MOL0     O28813   1.906   6.453   3.072  0.4346  0.1128 -0.4304
  934MOL0     C28814   1.848   6.439   3.203 -0.0245  0.0603 -0.4036
  934MOL0     C28815   1.694   6.422   3.180 -0.7977  0.1504  0.1963
  934MOL0     C28816   1.676   6.283   3.115  0.4980  0.1365  0.5367
  934MOL0     C28817   1.530   6.255   3.087  0.1555 -0.1213 -0.0506
  934MOL0     C28818   1.440   6.244   3.203  0.0054 -0.0153  0.2691
  934MOL0     C28819   1.365   6.250   3.287  0.3567 -0.7660 -0.5874
  934MOL0     C28820   2.064   6.279   3.009  0.0662  0.1142 -0.4261
  934MOL0     C28821   2.198   6.239   3.010  0.4145  0.9585  0.9475
  934MOL0     C28822   2.222   6.091   2.974 -0.1431 -0.0780 -0.4228
  934MOL0     H28823   2.630   6.110   3.190  0.2411 -0.5836 -0.1940
  934MOL0     H28824   2.866   6.064   3.216  0.4151 -0.5236 -1.5470
  934MOL0     H28825   3.147   6.415   3.215 -2.5847 -1.8510  1.9442
  934MOL0     H28826   3.177   6.328   3.057  3.0213 -2.2852  0.3787
  934MOL0     H28827   3.374   6.347   3.187  0.0172 -0.5615  1.2543
  934MOL0     H28828   3.304   6.280   3.327  1.2044 -1.5189  0.8604
  934MOL0     H28829   3.310   6.069   3.259  1.6114 -1.3189 -0.5688
  934MOL0     H28830   3.295   6.121   3.083 -2.9351  3.2300  1.3514
  934MOL0     H28831   3.533   6.191   3.103  3.8460 -2.7252  0.1742
  934MOL0     H28832   3.530   6.155   3.275  1.2706 -3.5535  1.2134
  934MOL0     H28833   3.510   5.969   3.035  1.6812 -0.9476 -1.1454
  934MOL0     H28834   3.460   5.911   3.198 -1.7495  2.7044  1.0490
  934MOL0     H28835   3.745   6.005   3.106  0.5594  0.0686  0.4605
  934MOL0     H28836   3.700   5.960   3.275 -1.1083  0.2031 -0.9264
  934MOL0     H28837   3.652   5.766   3.041 -0.6563  0.3218  0.6980
  934MOL0     H28838   3.684   5.742   3.220  0.5150  2.7108  2.0718
  934MOL0     H28839   3.856   5.676   3.056  0.0297 -1.1383  3.3611
  934MOL0     H28840   3.885   5.847   3.025  1.5391 -0.6227 -0.3336
  934MOL0     H28841   3.957   5.582   3.265  1.7113  0.5826 -4.6271
  934MOL0     H28842   4.073   5.541   3.505 -0.4788 -1.1287 -0.6200
  934MOL0     H28843   4.006   5.664   3.615  2.3511 -1.3329  1.1155
  934MOL0     H28844   4.279   5.684   3.490 -1.3580  2.2658 -0.7302
  934MOL0     H28845   4.202   5.805   3.606  0.0760 -0.5981  2.7328
  934MOL0     H28846   4.182   5.632   3.781  0.8705  0.1777  1.0165
  934MOL0     H28847   4.229   5.512   3.675 -1.6780  0.6451 -0.3779
  934MOL0     H28848   4.425   5.742   3.757 -0.9905  1.0456 -1.0684
  934MOL0     H28849   4.417   5.596   3.839  1.0124 -0.0871 -0.7916
  934MOL0     H28850   4.621   5.631   3.860 -0.5682  1.0967 -0.6041
  934MOL0     H28851   4.807   5.699   3.992  0.0610  1.6653  0.7285
  934MOL0     H28852   4.938   5.780   3.911 -0.8584 -0.2629  0.7467
  934MOL0     H28853   4.938   5.596   3.937 -1.2274 -0.8189 -0.1322
  934MOL0     H28854   5.291   5.910   3.702  0.5380 -0.0332 -1.0235
  934MOL0     H28855   5.523   5.884   3.706  0.9944 -0.3539  0.9254
  934MOL0     H28856   5.734   5.852   3.818  1.9410 -1.5304  0.3014
  934MOL0     H28857   5.659   5.750   3.950 -2.6329  3.1311 -0.2956
  934MOL0     H28858   5.846   5.597   3.919 -0.9674 -2.4155 -2.6817
  934MOL0     H28859   5.896   5.695   3.779 -0.0114 -0.0846  0.6435
  934MOL0     H28860   5.928   5.894   3.890  0.3842  0.4295  0.2783
  934MOL0     H28861   6.052   5.778   3.912  0.2184  2.4002 -0.6519
  934MOL0     H28862   5.933   5.712   4.141 -1.0308  0.0103 -0.0194
  934MOL0     H28863   5.840   5.864   4.108 -0.9321 -0.6469 -0.7063
  934MOL0     H28864   6.001   5.938   4.260 -1.0684 -0.3412 -0.0364
  934MOL0     H28865   6.126   5.832   4.203  1.3208  1.9385  2.2147
  934MOL0     H28866   6.041   6.061   4.038  0.5206  1.6400  0.9712
  934MOL0     H28867   6.176   5.955   4.009  1.5785  2.1219 -1.1718
  934MOL0     H28868   6.135   6.152   4.230  0.0261  1.0283 -0.0335
  934MOL0     H28869   6.258   6.156   4.095 -2.6230  2.2678  1.1240
  934MOL0     H28870   6.259   5.957   4.326 -0.3161  0.6360  0.1481
  934MOL0     H28871   6.354   6.094   4.307  0.7858 -1.6688  1.1825
  934MOL0     H28872   5.483   5.468   3.796 -1.0165 -1.4628 -1.9511
  934MOL0     H28873   5.239   5.493   3.814 -0.4065  0.1236  1.7224
  934MOL0     H28874   4.874   5.667   3.440 -0.6093  0.9999 -0.7193
  934MOL0     H28875   4.635   5.608   3.439  0.4860 -0.3981 -0.6119
  934MOL0     H28876   2.958   6.447   3.058 -0.7694 -0.3033 -1.1006
  934MOL0     H28877   2.703   6.489   3.028  2.4483  1.6183  0.6022
  934MOL0     H28878   2.360   6.519   3.085  0.1796 -0.2812 -0.6600
  934MOL0     H28879   2.103   6.604   3.089  0.0000  0.2920 -0.0887
  934MOL0     H28880   1.892   6.352   3.253 -2.0963  0.2419  1.9517
  934MOL0     H28881   1.874   6.531   3.257  0.3105 -0.4405  0.3080
  934MOL0     H28882   1.656   6.503   3.118 -0.9309  0.4138  0.6120
  934MOL0     H28883   1.634   6.424   3.272 -0.1092  0.0031  0.6619
  934MOL0     H28884   1.742   6.275   3.028  2.3050 -0.9357  1.9357
  934MOL0     H28885   1.714   6.211   3.188 -1.1466 -0.5787  0.7391
  934MOL0     H28886   1.519   6.165   3.026  0.0472 -1.1156  1.3960
  934MOL0     H28887   1.506   6.342   3.024  1.4082  0.5582  0.3661
  934MOL0     H28888   1.301   6.252   3.373  2.0826  0.0602  0.7592
  934MOL0     H28889   1.985   6.212   2.975  0.0502 -0.3704  0.5424
  934MOL0     H28890   2.128   6.037   2.984 -0.3603  0.5250  0.9453
  934MOL0     H28891   2.242   6.089   2.866  1.1771  3.2244 -0.3568
  934MOL0     H28892   2.297   6.036   3.032 -0.7741 -1.2620 -0.6905
  935MOL0     O28893   3.189  10.164   9.446 -0.0138  0.5438 -0.5964
  935MOL0     C28894   3.085  10.226   9.468 -0.0878 -0.4016 -0.5591
  935MOL0     O28895   3.082  10.362   9.516  0.3173  0.1466 -0.6878
  935MOL0     C28896   3.200  10.429   9.507 -0.2158 -0.5285 -0.7274
  935MOL0     C28897   3.268  10.452   9.389 -0.3868  0.3178 -0.8752
  935MOL0     C28898   3.380  10.522   9.380 -0.2643 -0.4414  0.3235
  935MOL0     C28899   3.449  10.572   9.497 -0.1803 -0.6357 -0.0614
  935MOL0     O28900   3.559  10.647   9.484 -0.1882 -0.2572 -0.4664
  935MOL0     C28901   3.670  10.597   9.540  0.3940  0.3844  0.1693
  935MOL0     C28902   3.781  10.699   9.540  0.1807  0.4420  0.2711
  935MOL0     C28903   3.917  10.626   9.568  0.1449 -1.0607  0.5412
  935MOL0     C28904   4.028  10.732   9.588  0.7689  0.1978  0.0857
  935MOL0     C28905   4.156  10.680   9.651  0.2122 -0.0003 -0.7102
  935MOL0     C28906   4.269  10.783   9.669 -0.3543 -0.0021 -0.0563
  935MOL0     C28907   4.408  10.710   9.711  0.6329 -0.2193  0.1375
  935MOL0     C28908   4.486  10.817   9.785  0.0922  0.7787  0.6283
  935MOL0     N28909   4.621  10.761   9.820 -0.8480  0.4550  0.0159
  935MOL0     C28910   4.732  10.800   9.759 -0.7723  0.5533  0.5526
  935MOL0     C28911   4.830  10.721   9.807 -0.6241  0.5292  0.1391
  935MOL0     C28912   4.971  10.719   9.752  0.1956 -0.1014 -0.4091
  935MOL0     C28913   5.078  10.764   9.859  0.0861  0.7392  0.0265
  935MOL0     C28914   5.217  10.816   9.799  0.1955  0.0537  0.0743
  935MOL0     C28915   5.301  10.866   9.921  0.3571  0.1485  0.7947
  935MOL0     O28916   5.377  10.755   9.968  0.3110  0.1038 -0.3352
  935MOL0     C28917   5.491  10.773  10.033 -0.6666 -0.4588 -0.6116
  935MOL0     C28918   5.567  10.661  10.024 -0.2281  0.6043  0.0323
  935MOL0     C28919   5.693  10.662  10.077 -0.3257  1.1901  0.4210
  935MOL0     C28920   5.785  10.540  10.047  0.3063 -0.1177 -0.0193
  935MOL0     C28921   5.744  10.779  10.144  0.6406 -0.5107 -0.8346
  935MOL0     C28922   5.873  10.778  10.214 -0.5414  0.3064  0.5356
  935MOL0     O28923   5.928  10.907  10.240  0.8022  0.4585 -0.1897
  935MOL0     C28924   6.027  10.921  10.334 -0.0031 -0.0493 -0.1438
  935MOL0     C28925   6.163  10.901  10.299  1.1087 -0.9714  0.6415
  935MOL0     C28926   6.264  10.909  10.391 -0.3542 -0.2398 -0.2387
  935MOL0     C28927   6.241  10.966  10.513 -0.2610 -0.0657  0.2081
  935MOL0     O28928   6.348  11.008  10.585 -0.1306 -0.5645 -0.2827
  935MOL0     C28929   6.331  11.048  10.726  0.5885  0.4077  0.2259
  935MOL0     C28930   6.460  11.039  10.797  0.2063  0.2865  0.2770
  935MOL0     C28931   6.536  10.903  10.784  0.5453  0.2781 -0.4319
  935MOL0     C28932   6.662  10.900  10.877  0.1623  0.3866  0.1353
  935MOL0     C28933   6.768  10.799  10.854 -0.2011  0.5974  0.3358
  935MOL0     C28934   6.865  10.772  10.968 -0.4824  0.3652  0.4256
  935MOL0     C28935   6.945  10.902  10.997  0.8517  0.6877  0.1439
  935MOL0     C28936   7.037  10.877  11.119  0.8365  0.3036  0.2922
  935MOL0    Cl28937   7.123  11.025  11.152  0.2136 -0.6410 -0.0452
  935MOL0     C28938   6.108  10.984  10.544  0.3713 -0.2743 -0.3037
  935MOL0     C28939   6.002  10.960  10.462  0.0596 -0.5377  0.1362
  935MOL0     O28940   5.917  10.670  10.266 -0.3048 -0.0324 -0.0715
  935MOL0     C28941   5.670  10.893  10.142  0.6974 -0.1552 -0.1217
  935MOL0     C28942   5.540  10.893  10.087 -0.4818 -0.1478  0.5671
  935MOL0     N28943   4.771  10.637   9.911  0.0903  0.6201  0.3537
  935MOL0     N28944   4.643  10.655   9.900  0.2634 -0.5333 -0.1595
  935MOL0     C28945   3.386  10.552   9.617 -0.1997  0.5981 -0.1039
  935MOL0     C28946   3.257  10.490   9.626  0.1850  0.0111  0.2052
  935MOL0     C28947   2.953  10.162   9.447 -0.5297  0.8543  0.0735
  935MOL0     C28948   2.834  10.232   9.485 -0.5106 -1.1414 -0.7590
  935MOL0     C28949   2.709  10.178   9.459  0.6367  0.6877  0.6601
  935MOL0     C28950   2.694  10.068   9.385  0.8293 -0.0995  0.2442
  935MOL0     O28951   2.566  10.032   9.341  0.4618  0.5614 -0.2257
  935MOL0     C28952   2.535   9.941   9.234  0.0634  0.8043  0.5031
  935MOL0     C28953   2.534   9.800   9.305 -0.2507  0.5584  0.0216
  935MOL0     C28954   2.416   9.776   9.400  0.2787  0.2441 -0.2114
  935MOL0     C28955   2.386   9.628   9.428  0.1817 -0.1110 -0.7895
  935MOL0     C28956   2.508   9.553   9.476  0.1283  0.0956  0.2648
  935MOL0     C28957   2.615   9.502   9.504 -0.0859  0.2766  0.3280
  935MOL0     C28958   2.805  10.001   9.337  0.3820  0.2001  0.2270
  935MOL0     C28959   2.934  10.048   9.365  0.5924  1.1170 -0.3286
  935MOL0     C28960   3.053   9.959   9.314 -0.4067  0.0466  0.2205
  935MOL0     H28961   3.228  10.393   9.307  2.1605 -0.5729 -1.5835
  935MOL0     H28962   3.427  10.537   9.283  0.1623  0.2101  0.6195
  935MOL0     H28963   3.706  10.524   9.467  1.7730  1.1526  0.0539
  935MOL0     H28964   3.664  10.551   9.640  1.8925  2.2235  1.1531
  935MOL0     H28965   3.781  10.749   9.443  1.9925 -0.8890 -0.4535
  935MOL0     H28966   3.770  10.774   9.619  2.3299  0.0837  0.9805
  935MOL0     H28967   3.897  10.557   9.651  1.5474 -3.3256 -0.8940
  935MOL0     H28968   3.960  10.562   9.490  2.3838 -1.8821  2.3308
  935MOL0     H28969   4.051  10.776   9.490 -3.7223 -0.6867 -1.6626
  935MOL0     H28970   3.994  10.816   9.649  1.0646  0.8695 -0.6469
  935MOL0     H28971   4.185  10.600   9.583 -1.3730  1.7556 -3.6175
  935MOL0     H28972   4.144  10.631   9.749  1.4106  1.1672  0.0483
  935MOL0     H28973   4.299  10.840   9.581  0.5856 -3.2729 -2.0251
  935MOL0     H28974   4.242  10.854   9.747  0.0333 -1.7132  1.7155
  935MOL0     H28975   4.462  10.670   9.624 -1.3487 -2.8461 -0.0101
  935MOL0     H28976   4.384  10.630   9.782 -2.0431  2.2839  2.2876
  935MOL0     H28977   4.492  10.909   9.726  0.1412 -0.7753 -1.9572
  935MOL0     H28978   4.432  10.847   9.875 -0.3537  2.3800 -0.1484
  935MOL0     H28979   4.740  10.880   9.687 -3.8810  0.7154  0.2704
  935MOL0     H28980   4.969  10.795   9.674  0.0502 -1.3203 -1.6331
  935MOL0     H28981   5.007  10.624   9.712  0.9218  1.8931 -5.1810
  935MOL0     H28982   5.031  10.846   9.914 -2.1818  0.2455 -1.0419
  935MOL0     H28983   5.114  10.682   9.921  1.4472  0.6128 -0.8904
  935MOL0     H28984   5.268  10.740   9.740  1.6670  0.8443  0.2883
  935MOL0     H28985   5.186  10.905   9.744 -1.2777  0.8150  1.9871
  935MOL0     H28986   5.367  10.941   9.876 -1.6637  1.7601  0.3658
  935MOL0     H28987   5.242  10.911  10.001  0.0132 -0.2119  0.7459
  935MOL0     H28988   5.521  10.569   9.991  0.1804 -0.0025  1.1384
  935MOL0     H28989   5.890  10.569  10.041 -0.0392  0.8613 -1.9191
  935MOL0     H28990   5.754  10.496   9.952 -1.2650  0.3324  0.2598
  935MOL0     H28991   5.774  10.467  10.128  0.3770  1.9860  1.9856
  935MOL0     H28992   6.180  10.864  10.198 -1.2130 -2.0563  0.5959
  935MOL0     H28993   6.363  10.866  10.381 -0.1236 -0.2523  1.7638
  935MOL0     H28994   6.289  11.148  10.725 -2.2556 -0.6480  2.3196
  935MOL0     H28995   6.271  10.974  10.779  4.2222 -2.2936  0.9716
  935MOL0     H28996   6.520  11.120  10.755  0.1989  0.8365  1.2957
  935MOL0     H28997   6.438  11.063  10.901 -0.3485 -0.7850  0.4312
  935MOL0     H28998   6.564  10.876  10.682  2.8583  2.8360 -0.6039
  935MOL0     H28999   6.469  10.819  10.804 -0.3880  0.0239 -4.0173
  935MOL0     H29000   6.622  10.904  10.979 -0.2570  0.0541 -0.0184
  935MOL0     H29001   6.711  10.997  10.863 -0.1696  0.4008 -0.9777
  935MOL0     H29002   6.713  10.704  10.845  0.5115  0.2415 -0.5231
  935MOL0     H29003   6.815  10.814  10.756 -2.2315 -1.5145 -1.1071
  935MOL0     H29004   6.930  10.686  10.948  0.6020  0.7642  2.0268
  935MOL0     H29005   6.802  10.757  11.056 -0.2406 -1.5234  0.3253
  935MOL0     H29006   6.881  10.985  11.030 -0.3312 -0.2307  0.2175
  935MOL0     H29007   7.001  10.935  10.908 -0.9804  0.4397 -1.1505
  935MOL0     H29008   7.099  10.792  11.090  2.2909  2.0561 -2.0697
  935MOL0     H29009   6.978  10.852  11.208 -0.6399  0.0042 -0.7248
  935MOL0     H29010   6.078  11.005  10.646 -0.8904 -1.5305 -0.3817
  935MOL0     H29011   5.898  10.981  10.483 -0.1799  0.1723 -1.6077
  935MOL0     H29012   5.699  10.991  10.177  1.4598 -0.2680 -0.4405
  935MOL0     H29013   5.485  10.987  10.095 -0.2494 -0.1446  2.6481
  935MOL0     H29014   3.439  10.587   9.705  1.5208 -0.4819 -0.6761
  935MOL0     H29015   3.209  10.462   9.719 -0.7746 -1.8243 -0.7790
  935MOL0     H29016   2.828  10.326   9.538 -2.2817  1.6514 -5.3346
  935MOL0     H29017   2.613  10.216   9.494 -1.0536 -1.9545 -0.7369
  935MOL0     H29018   2.435   9.958   9.195 -0.5039 -0.2313  1.4504
  935MOL0     H29019   2.606   9.946   9.151 -0.8898  0.9111 -0.3097
  935MOL0     H29020   2.628   9.779   9.356 -0.9432 -0.6226  0.8569
  935MOL0     H29021   2.545   9.724   9.228  1.7121 -0.8756  1.6123
  935MOL0     H29022   2.446   9.826   9.493  2.6848  1.0313 -1.3364
  935MOL0     H29023   2.327   9.812   9.348 -0.2801 -3.3270 -2.0135
  935MOL0     H29024   2.341   9.594   9.334  1.2555  3.1695 -2.6373
  935MOL0     H29025   2.310   9.614   9.505 -0.2662  0.0391 -1.2003
  935MOL0     H29026   2.703   9.447   9.530 -1.3151 -0.6375  2.9914
  935MOL0     H29027   2.796   9.914   9.274  1.6255  0.2136  0.0181
  935MOL0     H29028   3.099   9.924   9.406 -0.4104  1.8783  0.9497
  935MOL0     H29029   3.017   9.881   9.246  2.0190  0.1058 -1.2839
  935MOL0     H29030   3.127  10.018   9.259 -0.3555  1.1451  1.4456
  936MOL0     O29031   0.232   9.034   4.751 -0.2489 -0.1791 -0.1252
  936MOL0     C29032   0.148   9.111   4.802 -0.6413 -0.0140  0.1216
  936MOL0     O29033   0.183   9.225   4.867  0.9517  0.0653  0.1067
  936MOL0     C29034   0.315   9.263   4.885 -1.0375 -0.6358 -0.2779
  936MOL0     C29035   0.367   9.378   4.823  0.1669 -0.2818  0.3431
  936MOL0     C29036   0.499   9.428   4.844  0.4375  0.6583 -0.4022
  936MOL0     C29037   0.581   9.347   4.913  0.6046 -0.1814  0.0345
  936MOL0     O29038   0.716   9.375   4.941 -0.1121  0.3748 -0.1175
  936MOL0     C29039   0.788   9.456   4.849  0.2473  0.2352  0.6162
  936MOL0     C29040   0.935   9.465   4.898  0.0657  0.3743  0.2512
  936MOL0     C29041   1.006   9.334   4.901  0.4860  0.2504  0.7002
  936MOL0     C29042   1.146   9.354   4.949  1.2403 -0.1515  0.1790
  936MOL0     C29043   1.238   9.230   4.907  0.5085  0.5063  0.2238
  936MOL0     C29044   1.381   9.254   4.940 -0.9493  0.3718 -0.5097
  936MOL0     C29045   1.478   9.131   4.910  0.1002 -0.0437  0.0110
  936MOL0     C29046   1.596   9.140   5.008 -0.5946 -0.2556 -1.1417
  936MOL0     N29047   1.688   9.025   4.998  0.0809 -0.9350 -0.0066
  936MOL0     C29048   1.678   8.900   4.942 -0.7165  0.3221  0.3753
  936MOL0     C29049   1.805   8.847   4.949 -0.2970  0.3091 -0.3030
  936MOL0     C29050   1.834   8.702   4.908  1.4210 -0.4712 -0.6220
  936MOL0     C29051   1.981   8.682   4.878 -0.9453 -0.3492  1.4027
  936MOL0     C29052   2.083   8.683   4.995 -0.8190 -0.0447 -0.1243
  936MOL0     C29053   2.200   8.586   4.968 -1.4215 -0.9634  0.2161
  936MOL0     O29054   2.253   8.614   4.831  0.1956  0.0368 -0.1202
  936MOL0     C29055   2.373   8.556   4.789 -1.3174 -0.2896  0.7388
  936MOL0     C29056   2.453   8.461   4.864 -0.1958 -0.2627 -0.0937
  936MOL0     C29057   2.574   8.415   4.823 -0.1395  0.3043  0.0306
  936MOL0     C29058   2.630   8.311   4.909 -0.5228 -0.4810 -0.1938
  936MOL0     C29059   2.636   8.468   4.706 -0.4658 -0.5515  0.4442
  936MOL0     C29060   2.765   8.419   4.654 -0.6974 -0.2905 -0.0135
  936MOL0     O29061   2.869   8.402   4.745  0.3205 -0.3529 -0.4566
  936MOL0     C29062   3.004   8.406   4.706 -0.0283 -0.5191 -0.5189
  936MOL0     C29063   3.090   8.416   4.815 -0.2354  0.0200 -1.0481
  936MOL0     C29064   3.227   8.404   4.797  0.0674 -0.7024 -0.3626
  936MOL0     C29065   3.287   8.400   4.674  0.1563 -0.7466 -0.4728
  936MOL0     O29066   3.423   8.376   4.669  0.3776 -0.7086  0.1298
  936MOL0     C29067   3.496   8.488   4.620 -0.1046 -0.7259  0.4591
  936MOL0     C29068   3.637   8.456   4.584  0.6511  0.4201 -0.2003
  936MOL0     C29069   3.639   8.342   4.483 -0.1350  0.1464 -0.6378
  936MOL0     C29070   3.785   8.335   4.436  0.4447 -0.1848 -0.0607
  936MOL0     C29071   3.799   8.241   4.314  0.4232 -0.2427  0.7235
  936MOL0     C29072   3.743   8.310   4.191  0.0219 -0.7509  0.6442
  936MOL0     C29073   3.769   8.220   4.072 -0.3993  0.0881 -0.3854
  936MOL0     C29074   3.697   8.271   3.946  0.3434 -0.2563 -0.2232
  936MOL0    Cl29075   3.781   8.424   3.888  0.1802 -0.1562 -0.2196
  936MOL0     C29076   3.201   8.403   4.563 -0.3188 -0.1529  0.1350
  936MOL0     C29077   3.061   8.398   4.579  0.0424 -0.2892 -0.3397
  936MOL0     O29078   2.767   8.396   4.533 -0.2039 -0.0916  0.7662
  936MOL0     C29079   2.556   8.558   4.627  0.1247  0.3661 -0.3005
  936MOL0     C29080   2.427   8.596   4.668 -0.2628  0.2877  0.4526
  936MOL0     N29081   1.891   8.940   5.001 -0.5819 -0.1219 -0.2938
  936MOL0     N29082   1.816   9.048   5.028 -0.3621  1.0924 -0.9153
  936MOL0     C29083   0.535   9.235   4.975 -0.9115 -0.6654 -0.4047
  936MOL0     C29084   0.400   9.198   4.965 -0.2829  0.1939  0.4195
  936MOL0     C29085   0.002   9.089   4.805 -0.4443 -0.2294 -0.0862
  936MOL0     C29086  -0.078   9.176   4.869  0.2290 -0.2340  0.0134
  936MOL0     C29087  -0.221   9.174   4.865  0.1379  0.1124  0.7548
  936MOL0     C29088  -0.288   9.071   4.795  0.4384 -0.1676 -0.1986
  936MOL0     O29089  -0.423   9.049   4.785  0.3655 -0.0390  0.2374
  936MOL0     C29090  -0.513   9.122   4.869 -0.9983 -0.4574 -0.0094
  936MOL0     C29091  -0.638   9.044   4.905  0.3986 -0.1170  0.1663
  936MOL0     C29092  -0.720   9.116   5.006  0.6114 -0.8278  0.3982
  936MOL0     C29093  -0.804   9.235   4.948 -0.6399  0.0963 -0.6859
  936MOL0     C29094  -0.891   9.293   5.048 -0.1034  0.5993 -0.2129
  936MOL0     C29095  -0.969   9.338   5.127 -0.1898  0.6082 -0.0296
  936MOL0     C29096  -0.207   8.981   4.731 -0.5560 -0.1369  1.2071
  936MOL0     C29097  -0.069   8.997   4.724  0.0245  0.8785 -0.4616
  936MOL0     C29098   0.004   8.893   4.635 -0.9375  0.7215 -0.3215
  936MOL0     H29099   0.293   9.431   4.764 -1.9985 -2.5445  0.8368
  936MOL0     H29100   0.534   9.516   4.791  1.6915  0.6332  0.3456
  936MOL0     H29101   0.756   9.561   4.848 -1.0988 -0.1539  0.9859
  936MOL0     H29102   0.777   9.435   4.743  0.5807 -1.3725  0.8805
  936MOL0     H29103   0.989   9.533   4.830  1.7649  0.5128  1.6469
  936MOL0     H29104   0.926   9.496   5.003 -3.7422 -2.5001  0.9660
  936MOL0     H29105   0.957   9.255   4.959  1.6558 -1.0677 -0.0363
  936MOL0     H29106   1.005   9.298   4.798  1.4290  0.4178  0.6254
  936MOL0     H29107   1.188   9.443   4.902 -1.4779  2.2996  2.0678
  936MOL0     H29108   1.142   9.368   5.058 -2.4043  1.2119 -0.0189
  936MOL0     H29109   1.228   9.204   4.801  0.8127 -3.1007  0.9371
  936MOL0     H29110   1.202   9.137   4.954  0.7577 -0.5186 -1.5135
  936MOL0     H29111   1.405   9.344   4.883  1.2864 -1.1499 -2.1643
  936MOL0     H29112   1.387   9.285   5.044 -1.4328 -0.8678 -0.0828
  936MOL0     H29113   1.487   9.132   4.801 -2.7491  2.7217 -0.3425
  936MOL0     H29114   1.434   9.037   4.944 -0.5554  0.8978  1.8683
  936MOL0     H29115   1.653   9.232   4.999 -0.8454 -0.0400 -0.5289
  936MOL0     H29116   1.555   9.148   5.109 -2.1332  1.0009 -1.8331
  936MOL0     H29117   1.597   8.840   4.902  0.0423 -0.4745  0.0084
  936MOL0     H29118   1.781   8.669   4.818 -0.0684 -0.0985  0.0764
  936MOL0     H29119   1.799   8.635   4.988 -1.7988  3.1381  1.3352
  936MOL0     H29120   1.990   8.585   4.827  0.0437  0.3760  0.1400
  936MOL0     H29121   2.017   8.757   4.806  1.6248 -0.2934  2.6272
  936MOL0     H29122   2.126   8.782   5.012  0.2916 -0.2982 -1.2830
  936MOL0     H29123   2.033   8.648   5.086 -2.7628 -1.0528 -1.5083
  936MOL0     H29124   2.278   8.598   5.044  2.1280  1.6794 -3.4269
  936MOL0     H29125   2.168   8.482   4.976 -0.0795 -1.2598  2.8183
  936MOL0     H29126   2.415   8.419   4.956  0.6187 -1.3606 -0.2320
  936MOL0     H29127   2.553   8.255   4.963 -1.0967  0.2600 -0.2250
  936MOL0     H29128   2.712   8.348   4.971 -0.0443 -2.3886  0.4028
  936MOL0     H29129   2.684   8.238   4.847 -0.0408 -0.1144 -0.2061
  936MOL0     H29130   3.052   8.425   4.917 -0.2996 -1.5756 -0.9072
  936MOL0     H29131   3.294   8.403   4.882  0.5081 -1.4690 -0.7070
  936MOL0     H29132   3.456   8.541   4.533  0.5057 -2.4258 -0.9209
  936MOL0     H29133   3.487   8.565   4.698  1.1774  1.6595 -1.6036
  936MOL0     H29134   3.687   8.544   4.544 -1.7495  0.9009 -2.4506
  936MOL0     H29135   3.687   8.424   4.675 -2.7522  0.6698  1.9234
  936MOL0     H29136   3.571   8.363   4.400 -1.3219  2.1273  0.7328
  936MOL0     H29137   3.610   8.249   4.531  1.9425  0.4551  1.3711
  936MOL0     H29138   3.847   8.294   4.516  0.1133 -1.6653 -0.5295
  936MOL0     H29139   3.828   8.432   4.407 -0.3160  0.0110 -0.5784
  936MOL0     H29140   3.907   8.237   4.299  0.5998  0.2866  1.7663
  936MOL0     H29141   3.758   8.141   4.329 -1.8562  0.6515  0.9198
  936MOL0     H29142   3.795   8.405   4.177 -0.0870 -0.5376  1.6204
  936MOL0     H29143   3.636   8.327   4.208 -0.0392 -0.9449  0.4610
  936MOL0     H29144   3.725   8.122   4.093 -1.1328  0.0496 -1.9203
  936MOL0     H29145   3.876   8.210   4.053 -0.2197 -2.1574  1.3690
  936MOL0     H29146   3.594   8.285   3.980  1.0887  1.7130  1.4155
  936MOL0     H29147   3.693   8.192   3.870 -1.7815 -0.3633 -0.0574
  936MOL0     H29148   3.246   8.376   4.468 -0.1170  1.4635 -0.2435
  936MOL0     H29149   3.002   8.398   4.488  0.0765 -1.6230 -0.3754
  936MOL0     H29150   2.604   8.594   4.537  1.9452  0.1497  0.5272
  936MOL0     H29151   2.386   8.663   4.592  3.7383  1.1743 -1.1915
  936MOL0     H29152   0.608   9.178   5.030  0.3600  2.2111  1.0780
  936MOL0     H29153   0.365   9.108   5.015  0.6799 -0.2716  0.2758
  936MOL0     H29154  -0.046   9.265   4.923  0.0504  0.4290 -0.9657
  936MOL0     H29155  -0.272   9.255   4.917  2.8445  1.3852  1.6314
  936MOL0     H29156  -0.461   9.137   4.963 -3.1566 -1.7441  1.4703
  936MOL0     H29157  -0.532   9.222   4.829 -0.3270  0.3024  1.5157
  936MOL0     H29158  -0.596   8.949   4.938  0.5335 -0.6181 -1.3830
  936MOL0     H29159  -0.694   9.027   4.813  2.0656  0.9378 -1.0996
  936MOL0     H29160  -0.785   9.045   5.059  0.4371 -0.4362  0.7204
  936MOL0     H29161  -0.650   9.151   5.082 -1.4957  0.0167  2.0342
  936MOL0     H29162  -0.877   9.191   4.879 -0.7499 -1.5162  0.4057
  936MOL0     H29163  -0.747   9.314   4.899  1.0902  0.2486  1.4451
  936MOL0     H29164  -1.045   9.369   5.195 -1.4866  2.3777 -2.1584
  936MOL0     H29165  -0.249   8.893   4.681  3.1190 -2.1820  1.3583
  936MOL0     H29166   0.073   8.935   4.561 -0.1843  0.0712 -0.0076
  936MOL0     H29167   0.065   8.833   4.704  0.2660  1.5176 -0.6639
  936MOL0     H29168  -0.063   8.825   4.581  0.7750 -1.8506  0.5588
  937MOL0     O29169   7.118   4.613   7.740  0.4236 -0.2628  0.0332
  937MOL0     C29170   7.073   4.625   7.851 -0.2381 -0.0425 -0.6561
  937MOL0     O29171   7.146   4.612   7.960 -0.5718  0.3744  0.4523
  937MOL0     C29172   7.248   4.517   7.963 -0.6617  0.2415 -0.4161
  937MOL0     C29173   7.361   4.547   8.032  0.6384 -0.7763 -0.5908
  937MOL0     C29174   7.464   4.459   8.039  0.3415  1.3482  0.7408
  937MOL0     C29175   7.458   4.330   7.979 -0.2114 -0.5191  0.5507
  937MOL0     O29176   7.569   4.243   7.986 -0.5173 -0.5935  0.1147
  937MOL0     C29177   7.542   4.109   7.964 -0.4633 -0.5310  0.7390
  937MOL0     C29178   7.648   4.026   8.040  0.3969 -0.3907  0.6819
  937MOL0     C29179   7.681   4.067   8.188 -0.0713  0.4593 -0.7787
  937MOL0     C29180   7.764   3.962   8.278  0.1822 -0.6989 -0.2346
  937MOL0     C29181   7.915   3.974   8.280 -0.2465 -0.2299  0.1618
  937MOL0     C29182   7.992   3.848   8.324  0.6377 -0.8533  0.4164
  937MOL0     C29183   8.138   3.889   8.350  0.9017  0.0290  0.8661
  937MOL0     C29184   8.221   3.761   8.370  1.0868  0.9442 -0.0417
  937MOL0     N29185   8.360   3.781   8.378 -0.6124 -0.2000 -0.1980
  937MOL0     C29186   8.433   3.786   8.494 -0.6254 -0.4037  0.7076
  937MOL0     C29187   8.563   3.767   8.455  1.0387 -0.3311 -0.1813
  937MOL0     C29188   8.679   3.768   8.550  0.0081  0.5285  0.1315
  937MOL0     C29189   8.793   3.675   8.505 -0.1231  0.7902 -0.5450
  937MOL0     C29190   8.908   3.679   8.610 -0.0124 -0.3310 -0.3058
  937MOL0     C29191   8.879   3.681   8.758  0.5422 -0.0931  0.6426
  937MOL0     O29192   8.990   3.707   8.840 -0.3064  0.1570 -0.4569
  937MOL0     C29193   9.091   3.619   8.857 -0.3720 -0.3810  0.4289
  937MOL0     C29194   9.219   3.671   8.907 -0.2333  0.7178  0.3648
  937MOL0     C29195   9.325   3.583   8.930 -0.1660 -0.7555  0.4725
  937MOL0     C29196   9.447   3.659   8.992  0.1193 -0.5797  0.2631
  937MOL0     C29197   9.310   3.445   8.908 -1.0531 -0.1763 -0.5039
  937MOL0     C29198   9.418   3.348   8.935 -0.5738  0.5416  0.0456
  937MOL0     O29199   9.518   3.373   9.028 -0.0261  0.1170  0.1526
  937MOL0     C29200   9.624   3.291   9.042 -0.2241 -0.0283  0.9302
  937MOL0     C29201   9.680   3.218   8.933 -0.2288  0.4858 -0.7288
  937MOL0     C29202   9.789   3.133   8.962 -1.0141  0.3596  0.6082
  937MOL0     C29203   9.854   3.140   9.079  0.2319  0.3892  0.0069
  937MOL0     O29204   9.974   3.067   9.088  0.4461  0.1313 -0.8915
  937MOL0     C29205  10.044   3.051   9.216 -0.5524 -1.5558  0.4798
  937MOL0     C29206  10.168   2.972   9.189 -0.6522  0.3589  0.0707
  937MOL0     C29207  10.150   2.819   9.191  0.2714  0.8531  0.2244
  937MOL0     C29208  10.280   2.738   9.151  0.0872  0.0442  0.7024
  937MOL0     C29209  10.239   2.590   9.124 -0.0543  0.6468 -0.3496
  937MOL0     C29210  10.356   2.494   9.147 -0.1425  0.5827  0.6601
  937MOL0     C29211  10.456   2.496   9.029 -0.1917 -0.1544  0.2167
  937MOL0     C29212  10.570   2.401   9.040  0.5444  0.0297 -0.7973
  937MOL0    Cl29213  10.691   2.442   8.917  0.2441  0.4798 -0.0934
  937MOL0     C29214   9.797   3.203   9.189  0.7932  0.0856  0.7424
  937MOL0     C29215   9.679   3.283   9.172  0.0514  0.6291  0.3556
  937MOL0     O29216   9.400   3.240   8.882  0.9017  0.8784  0.3583
  937MOL0     C29217   9.182   3.397   8.859  0.2842  0.0434 -0.8151
  937MOL0     C29218   9.076   3.482   8.840  0.9000  0.4242 -0.5421
  937MOL0     N29219   8.571   3.747   8.324 -0.3222  0.7822  0.3369
  937MOL0     N29220   8.454   3.759   8.279  0.2554 -0.0094  0.0988
  937MOL0     C29221   7.340   4.301   7.909  0.7670  0.3438 -0.5811
  937MOL0     C29222   7.235   4.395   7.895  0.2312  0.4936 -0.4710
  937MOL0     C29223   6.938   4.675   7.859  0.1575  0.5843  0.0117
  937MOL0     C29224   6.896   4.728   7.981 -0.6814  0.0827  0.3687
  937MOL0     C29225   6.777   4.789   7.997  0.2492 -0.2218  0.3783
  937MOL0     C29226   6.678   4.783   7.901 -0.1810  0.0893 -0.7489
  937MOL0     O29227   6.555   4.822   7.942  0.5229 -0.3507 -0.3062
  937MOL0     C29228   6.494   4.916   7.850 -0.1720  0.8522  0.1525
  937MOL0     C29229   6.357   4.961   7.897 -0.0559 -0.9192  0.4884
  937MOL0     C29230   6.246   4.852   7.890 -0.3224 -0.1701  0.1199
  937MOL0     C29231   6.108   4.927   7.916 -1.7011  0.2685 -0.1948
  937MOL0     C29232   6.087   4.966   8.054  0.1933 -0.4738 -0.4350
  937MOL0     C29233   6.071   4.994   8.170  1.1557 -0.0656  0.4690
  937MOL0     C29234   6.714   4.717   7.783  0.4110  0.2071  0.3787
  937MOL0     C29235   6.844   4.663   7.761  0.7148  0.5145 -0.1165
  937MOL0     C29236   6.867   4.582   7.640 -0.3032  0.2198 -0.0644
  937MOL0     H29237   7.373   4.645   8.078 -0.1890 -1.4581  1.1864
  937MOL0     H29238   7.558   4.487   8.085  2.0701 -0.5047 -1.3881
  937MOL0     H29239   7.539   4.092   7.856 -0.5634  3.5280 -0.0336
  937MOL0     H29240   7.446   4.069   7.996 -1.0985  0.5910  0.2760
  937MOL0     H29241   7.618   3.921   8.034  2.4070 -0.9796 -0.0227
  937MOL0     H29242   7.743   4.041   7.988 -0.0101 -1.0214 -0.2671
  937MOL0     H29243   7.734   4.162   8.199  0.1460  0.2121  0.5449
  937MOL0     H29244   7.587   4.072   8.245 -1.4666  0.4966 -2.9500
  937MOL0     H29245   7.717   3.976   8.376 -4.9457  0.6945 -2.5288
  937MOL0     H29246   7.740   3.861   8.245 -2.4707 -0.3001  0.2483
  937MOL0     H29247   7.948   4.056   8.344  2.6970 -1.1381 -0.0705
  937MOL0     H29248   7.943   3.993   8.176 -1.4581  0.6538 -0.0356
  937MOL0     H29249   7.942   3.803   8.410 -1.5792  1.9378  0.7381
  937MOL0     H29250   7.987   3.771   8.247  0.9001 -2.2122  1.6918
  937MOL0     H29251   8.143   3.951   8.441  1.7977  0.0931  0.7866
  937MOL0     H29252   8.179   3.943   8.265 -0.0414  0.1666  0.4943
  937MOL0     H29253   8.175   3.712   8.456  0.8367 -0.2189 -0.8042
  937MOL0     H29254   8.212   3.699   8.280 -1.5831 -0.6304  1.1885
  937MOL0     H29255   8.407   3.810   8.597 -1.6616  0.7702  0.2037
  937MOL0     H29256   8.643   3.749   8.652  1.7895 -1.1866  0.4957
  937MOL0     H29257   8.720   3.869   8.561  1.6844 -0.1496  0.2614
  937MOL0     H29258   8.753   3.573   8.503 -2.0240  1.4526  0.5819
  937MOL0     H29259   8.821   3.697   8.402  2.5842  0.8629  0.1161
  937MOL0     H29260   8.964   3.588   8.589 -0.9452 -0.6277 -1.6406
  937MOL0     H29261   8.965   3.765   8.574 -1.1527  0.5978  0.0343
  937MOL0     H29262   8.814   3.766   8.779  2.9094  1.7594  0.8109
  937MOL0     H29263   8.835   3.588   8.797  0.5249 -0.0374  0.7558
  937MOL0     H29264   9.210   3.778   8.921 -3.3883  1.0772 -3.0504
  937MOL0     H29265   9.457   3.754   8.939  1.2474 -0.8453 -0.0170
  937MOL0     H29266   9.541   3.606   8.971  1.3922  1.3668  0.7637
  937MOL0     H29267   9.437   3.677   9.100  0.1021  0.1430  0.1462
  937MOL0     H29268   9.631   3.224   8.837 -1.4220 -0.7877 -0.2372
  937MOL0     H29269   9.822   3.068   8.882 -0.9776  1.0365  0.0640
  937MOL0     H29270  10.074   3.143   9.266  0.9634 -2.3487  1.1020
  937MOL0     H29271   9.977   2.998   9.285  0.0288 -1.5571  1.0443
  937MOL0     H29272  10.217   3.012   9.100  1.3350 -2.0957 -0.0156
  937MOL0     H29273  10.237   3.013   9.263  0.8463  2.2367 -2.2279
  937MOL0     H29274  10.076   2.786   9.118  0.1157 -0.5840  1.0116
  937MOL0     H29275  10.127   2.785   9.292  3.3103 -0.1556  0.6930
  937MOL0     H29276  10.346   2.753   9.237  0.5531 -3.1176  1.0150
  937MOL0     H29277  10.321   2.780   9.059 -1.6992 -2.7091 -1.4990
  937MOL0     H29278  10.160   2.564   9.195 -1.4762 -0.3324 -2.2333
  937MOL0     H29279  10.193   2.581   9.026  0.8502  2.1686 -0.9474
  937MOL0     H29280  10.305   2.397   9.151 -0.4039  0.7654  2.3464
  937MOL0     H29281  10.399   2.511   9.246 -3.1665  2.0262  1.8334
  937MOL0     H29282  10.502   2.595   9.029  1.1949 -0.7741  0.5908
  937MOL0     H29283  10.408   2.474   8.933  0.7455 -0.4755 -0.1874
  937MOL0     H29284  10.523   2.304   9.019  1.0619 -0.1638 -1.0624
  937MOL0     H29285  10.608   2.395   9.142  2.1630  0.9169 -1.3214
  937MOL0     H29286   9.852   3.204   9.282  0.6233 -1.4558  0.8911
  937MOL0     H29287   9.632   3.329   9.258 -1.0068  1.4487 -0.6273
  937MOL0     H29288   9.169   3.291   8.839 -1.9723  0.3042 -1.0016
  937MOL0     H29289   8.982   3.436   8.810 -0.4053  1.9556  0.9956
  937MOL0     H29290   7.323   4.199   7.877 -2.2181  0.6904 -0.3583
  937MOL0     H29291   7.147   4.364   7.840  0.8690 -2.8993  0.2000
  937MOL0     H29292   6.968   4.741   8.061 -0.1037 -2.1978  0.2836
  937MOL0     H29293   6.757   4.832   8.095 -0.6366  0.9324 -0.2705
  937MOL0     H29294   6.557   5.004   7.834 -0.1278  0.2734 -3.9610
  937MOL0     H29295   6.482   4.874   7.750 -0.1260  0.4661  0.3055
  937MOL0     H29296   6.323   5.051   7.845  1.0825 -1.0276 -0.4938
  937MOL0     H29297   6.362   4.989   8.002 -2.4541 -1.3352  0.7707
  937MOL0     H29298   6.248   4.803   7.792 -0.5595 -0.0497  0.0531
  937MOL0     H29299   6.253   4.783   7.975  0.4360 -0.7711 -0.4113
  937MOL0     H29300   6.026   4.861   7.886 -0.3185 -1.6486  0.0517
  937MOL0     H29301   6.100   5.016   7.854  0.6459  0.2181 -0.6554
  937MOL0     H29302   6.067   5.016   8.275  2.0725  0.7049  0.3517
  937MOL0     H29303   6.640   4.710   7.705 -0.2515 -5.1843  1.1415
  937MOL0     H29304   6.771   4.573   7.589 -0.3463  2.7960 -0.5918
  937MOL0     H29305   6.935   4.635   7.572  1.2007 -0.7301  0.6435
  937MOL0     H29306   6.908   4.484   7.665 -0.2216 -0.1328 -1.4578
  938MOL0     O29307   6.111   0.006   2.674  0.1395 -0.4497  0.0269
  938MOL0     C29308   6.097   0.129   2.690  0.2644 -0.4000  0.7701
  938MOL0     O29309   6.166   0.226   2.620  0.2584 -0.2361 -0.2066
  938MOL0     C29310   6.275   0.175   2.544  0.4190 -0.8342  0.0247
  938MOL0     C29311   6.378   0.086   2.591  0.0465 -0.5383  0.4881
  938MOL0     C29312   6.474   0.036   2.502  0.8775 -0.2534  1.0648
  938MOL0     C29313   6.470   0.081   2.370  0.4612  0.6382 -0.1899
  938MOL0     O29314   6.564   0.045   2.274  0.2385 -0.4141 -0.0795
  938MOL0     C29315   6.654  -0.068   2.282 -0.7093 -0.0581 -0.6231
  938MOL0     C29316   6.788  -0.017   2.339  0.0934  0.8137  0.2516
  938MOL0     C29317   6.883  -0.133   2.374  0.2808 -1.0376 -0.6174
  938MOL0     C29318   7.022  -0.075   2.409  0.2870  0.0933  0.2146
  938MOL0     C29319   7.116  -0.067   2.284 -0.3631 -0.3435 -0.8000
  938MOL0     C29320   7.256  -0.018   2.322  0.1702 -0.6032 -0.5604
  938MOL0     C29321   7.342  -0.130   2.369 -0.1894  0.4641  0.5038
  938MOL0     C29322   7.488  -0.083   2.400 -0.4926 -0.3626 -0.9776
  938MOL0     N29323   7.496   0.032   2.496 -1.0263  0.2898  0.1527
  938MOL0     C29324   7.531   0.162   2.457  0.6969  0.4829  0.5833
  938MOL0     C29325   7.512   0.229   2.572 -0.1204 -0.7873 -0.4524
  938MOL0     C29326   7.533   0.384   2.578  0.0983  0.2151  0.2462
  938MOL0     C29327   7.399   0.458   2.596  0.2059  0.7606 -0.1517
  938MOL0     C29328   7.298   0.431   2.481  0.6430 -0.1162  0.3607
  938MOL0     C29329   7.179   0.530   2.476  1.2501  0.2395  0.4595
  938MOL0     O29330   7.212   0.656   2.539 -0.1527 -0.4398  0.3389
  938MOL0     C29331   7.120   0.742   2.580  0.9886 -0.0023  0.9090
  938MOL0     C29332   7.136   0.827   2.694  0.3774  1.0874  0.3411
  938MOL0     C29333   7.036   0.913   2.747 -0.1794 -0.4237  0.1838
  938MOL0     C29334   7.073   0.988   2.871 -0.1874  0.0989 -0.1344
  938MOL0     C29335   6.910   0.920   2.686  0.5583  0.0087  0.1472
  938MOL0     C29336   6.802   1.002   2.727 -0.9684  0.1331 -0.4908
  938MOL0     O29337   6.682   0.945   2.752  0.9933  0.0023  0.5559
  938MOL0     C29338   6.577   1.022   2.789 -0.2486  0.7686 -0.1458
  938MOL0     C29339   6.567   1.166   2.833  0.0174  1.1347  0.3612
  938MOL0     C29340   6.443   1.222   2.870 -0.6646  0.6941  0.2303
  938MOL0     C29341   6.331   1.141   2.873  1.1838 -1.2601 -0.9248
  938MOL0     O29342   6.213   1.202   2.915 -0.7023  0.1000  0.3353
  938MOL0     C29343   6.097   1.153   2.845 -0.2371 -0.0210 -0.6607
  938MOL0     C29344   5.976   1.229   2.873 -0.2929 -1.0972  0.8439
  938MOL0     C29345   5.936   1.218   3.021  0.1964 -0.9677  0.8110
  938MOL0     C29346   5.804   1.284   3.046  0.9430  0.0664 -0.4920
  938MOL0     C29347   5.755   1.299   3.193  0.2039 -0.3107  0.1713
  938MOL0     C29348   5.737   1.179   3.292  0.1074  0.1383 -0.4914
  938MOL0     C29349   5.630   1.081   3.233  0.3294  0.6338  0.6584
  938MOL0     C29350   5.611   0.953   3.319  0.8042 -1.1502  0.5412
  938MOL0    Cl29351   5.493   0.841   3.240 -0.2296 -0.5680  0.3918
  938MOL0     C29352   6.342   1.005   2.851  0.1499 -0.1498 -0.0503
  938MOL0     C29353   6.460   0.948   2.811  0.0534 -0.7862 -0.4287
  938MOL0     O29354   6.831   1.117   2.736 -0.1503 -0.3114  0.1840
  938MOL0     C29355   6.894   0.851   2.567  0.0255  0.3081 -0.2003
  938MOL0     C29356   6.995   0.770   2.515  0.3554  0.2153  0.4375
  938MOL0     N29357   7.470   0.152   2.671  0.3998  0.2299  0.6041
  938MOL0     N29358   7.466   0.030   2.626  0.6962 -0.0170 -0.4647
  938MOL0     C29359   6.374   0.172   2.330 -0.0642  0.0510  0.6959
  938MOL0     C29360   6.276   0.219   2.410  0.0908 -0.8148  0.6120
  938MOL0     C29361   5.974   0.182   2.768 -0.9579 -1.0150  0.1348
  938MOL0     C29362   5.923   0.307   2.726  0.5515 -0.1058  0.6353
  938MOL0     C29363   5.802   0.356   2.776  0.1948 -0.6629  0.2660
  938MOL0     C29364   5.729   0.291   2.871  0.3346 -0.0293 -0.4815
  938MOL0     O29365   5.613   0.328   2.924 -0.2365 -0.3001 -0.1148
  938MOL0     C29366   5.577   0.471   2.930  1.2087 -0.3514 -0.3506
  938MOL0     C29367   5.445   0.488   3.005  0.2068  0.1580  0.5750
  938MOL0     C29368   5.428   0.398   3.123 -0.1758  0.8268  0.0217
  938MOL0     C29369   5.310   0.434   3.197  0.0230 -0.3136  0.1509
  938MOL0     C29370   5.275   0.328   3.294 -0.2691 -0.6015 -0.3139
  938MOL0     C29371   5.245   0.239   3.373  0.8117 -0.1506 -0.4905
  938MOL0     C29372   5.774   0.160   2.907 -0.1005  0.0345  0.4544
  938MOL0     C29373   5.896   0.107   2.858  0.9890  0.1191 -0.3907
  938MOL0     C29374   5.931  -0.038   2.889  0.2238  0.2978 -0.2521
  938MOL0     H29375   6.387   0.062   2.696  0.6819  0.6393  0.7209
  938MOL0     H29376   6.549  -0.024   2.552  0.8932 -1.6185 -0.5377
  938MOL0     H29377   6.680  -0.111   2.185  1.7626  0.4777 -0.2577
  938MOL0     H29378   6.611  -0.140   2.353  1.5006 -1.7017 -0.8456
  938MOL0     H29379   6.837   0.039   2.259 -0.6820  1.4526  0.2092
  938MOL0     H29380   6.782   0.058   2.418  0.5230  0.0616  1.0220
  938MOL0     H29381   6.836  -0.181   2.460  1.4824 -0.0383  0.6607
  938MOL0     H29382   6.894  -0.199   2.288  0.1943 -0.1222 -1.3439
  938MOL0     H29383   7.009   0.025   2.451  1.1661  1.8331 -3.3021
  938MOL0     H29384   7.062  -0.143   2.485 -0.4771 -2.1932 -1.3081
  938MOL0     H29385   7.071   0.004   2.213 -0.0271  0.4412 -0.2472
  938MOL0     H29386   7.118  -0.166   2.239  0.3939 -1.0517  0.7159
  938MOL0     H29387   7.294   0.029   2.230 -0.6490  0.7653 -0.2241
  938MOL0     H29388   7.248   0.059   2.399  3.0583  0.4923 -1.2171
  938MOL0     H29389   7.339  -0.201   2.286 -2.5350  0.8415  0.2117
  938MOL0     H29390   7.300  -0.178   2.458 -1.0703  1.7822  0.8308
  938MOL0     H29391   7.547  -0.163   2.446  0.3212  1.2004  0.7941
  938MOL0     H29392   7.536  -0.047   2.308  1.1860  4.5706  1.5194
  938MOL0     H29393   7.539   0.193   2.353 -0.4281  1.0831  0.6571
  938MOL0     H29394   7.577   0.403   2.480 -2.2442  0.5359 -0.8088
  938MOL0     H29395   7.594   0.416   2.664  1.3058 -2.3255  0.4586
  938MOL0     H29396   7.353   0.424   2.690 -1.7104  2.9380 -0.2029
  938MOL0     H29397   7.426   0.563   2.605  1.5082  0.5147 -1.0056
  938MOL0     H29398   7.361   0.431   2.392  1.8207 -1.1753  1.1657
  938MOL0     H29399   7.256   0.329   2.482 -1.3853  0.6557 -0.1002
  938MOL0     H29400   7.157   0.553   2.371 -0.0441  1.1289  0.9079
  938MOL0     H29401   7.097   0.489   2.534 -0.4901  2.7293 -0.0872
  938MOL0     H29402   7.225   0.799   2.750 -1.0599 -0.7718  1.8673
  938MOL0     H29403   7.169   1.038   2.854  0.2614 -0.8335 -0.4046
  938MOL0     H29404   7.100   0.903   2.934  0.0039 -1.0582 -1.7144
  938MOL0     H29405   6.988   1.035   2.922 -0.1887 -0.7402  0.6435
  938MOL0     H29406   6.650   1.236   2.832  0.0479  1.1246  1.3557
  938MOL0     H29407   6.447   1.329   2.886  1.3959  1.1283 -2.5391
  938MOL0     H29408   6.112   1.166   2.737  1.0151 -2.1161 -0.8113
  938MOL0     H29409   6.074   1.046   2.853 -2.0768  0.0698 -3.3223
  938MOL0     H29410   5.999   1.332   2.843  0.2903 -1.8722 -1.6136
  938MOL0     H29411   5.895   1.201   2.805  1.5268 -0.8155 -1.6228
  938MOL0     H29412   6.007   1.279   3.077 -0.3342  0.9455 -0.4936
  938MOL0     H29413   5.930   1.115   3.058  2.4029 -1.2676  0.4718
  938MOL0     H29414   5.722   1.226   3.003  0.2895  1.8025 -1.7485
  938MOL0     H29415   5.796   1.376   2.986 -4.8280 -1.0995 -2.1334
  938MOL0     H29416   5.832   1.356   3.245 -0.2971  1.3310 -0.7899
  938MOL0     H29417   5.671   1.370   3.196  0.1561 -0.3980  2.1356
  938MOL0     H29418   5.707   1.214   3.391  0.7934  1.2288 -0.6536
  938MOL0     H29419   5.832   1.125   3.299 -1.0227 -1.7815  0.8405
  938MOL0     H29420   5.654   1.061   3.128 -0.7521 -1.0335  0.6899
  938MOL0     H29421   5.530   1.124   3.228 -1.0210 -2.4395 -2.1359
  938MOL0     H29422   5.564   0.981   3.414 -1.9345  1.8834 -1.5081
  938MOL0     H29423   5.707   0.901   3.331  1.7670  0.6586  1.1570
  938MOL0     H29424   6.260   0.935   2.860 -0.9160  1.1944  1.0971
  938MOL0     H29425   6.469   0.841   2.791  0.7781 -0.3352 -2.8037
  938MOL0     H29426   6.800   0.843   2.512 -0.8906 -0.7255  1.4274
  938MOL0     H29427   6.969   0.725   2.420 -1.9303 -1.6808  1.8369
  938MOL0     H29428   6.388   0.213   2.230 -0.8932  1.3168  1.0780
  938MOL0     H29429   6.195   0.284   2.380 -0.9683 -0.1563  4.4171
  938MOL0     H29430   5.974   0.379   2.663 -2.3571  0.4237 -1.3087
  938MOL0     H29431   5.773   0.453   2.737  0.4942 -0.8972 -0.5642
  938MOL0     H29432   5.653   0.535   2.976  0.0824 -0.7098  2.1743
  938MOL0     H29433   5.560   0.510   2.829  0.9587  1.0673  0.2129
  938MOL0     H29434   5.356   0.479   2.942  0.2495 -1.7400  0.7113
  938MOL0     H29435   5.439   0.589   3.046  1.3187  0.1627  0.7816
  938MOL0     H29436   5.416   0.293   3.092  3.2908 -0.9084  3.6678
  938MOL0     H29437   5.515   0.399   3.189  1.1999 -2.5247 -1.4845
  938MOL0     H29438   5.218   0.441   3.138 -1.4811  0.8770  2.4545
  938MOL0     H29439   5.321   0.525   3.257 -2.6929 -0.3972  0.9279
  938MOL0     H29440   5.231   0.166   3.451 -0.3141  1.2906  0.7255
  938MOL0     H29441   5.710   0.112   2.981  1.8847 -1.6845  1.1526
  938MOL0     H29442   5.891  -0.043   2.990 -1.6056  2.1133 -0.8207
  938MOL0     H29443   5.883  -0.117   2.830  3.2493 -2.7173  1.0055
  938MOL0     H29444   6.037  -0.063   2.890 -0.0347 -0.8792  0.2177
  939MOL0     O29445   5.814   8.110   3.955 -0.6218  0.0201  0.3488
  939MOL0     C29446   5.814   7.995   4.004  0.4747 -1.0429 -0.0522
  939MOL0     O29447   5.914   7.913   4.028 -1.0307 -0.6060  0.5937
  939MOL0     C29448   6.032   7.942   3.959  0.5459 -0.4395  0.5128
  939MOL0     C29449   6.047   7.951   3.821  0.3138  0.3605  0.1654
  939MOL0     C29450   6.174   7.956   3.764 -0.6149 -0.0506  0.7049
  939MOL0     C29451   6.291   7.964   3.845 -0.3983  0.0310 -0.9644
  939MOL0     O29452   6.424   7.958   3.808 -0.2764  0.8987 -0.1597
  939MOL0     C29453   6.455   7.922   3.676  0.5548 -0.1600  0.2439
  939MOL0     C29454   6.568   7.809   3.684  0.7123 -0.2225  0.8785
  939MOL0     C29455   6.615   7.772   3.545  0.1661 -0.3641 -0.0945
  939MOL0     C29456   6.704   7.874   3.477  0.5295 -0.7830  0.3249
  939MOL0     C29457   6.691   7.844   3.329  0.2306  0.5169  0.4544
  939MOL0     C29458   6.769   7.947   3.241  0.2900 -0.2356 -0.2358
  939MOL0     C29459   6.918   7.927   3.235  0.0498  0.7155 -0.2195
  939MOL0     C29460   6.991   8.027   3.149  0.5471 -0.5574  0.0935
  939MOL0     N29461   7.135   8.011   3.166  0.0327 -0.0510  0.8181
  939MOL0     C29462   7.224   8.076   3.238  0.1425 -0.0516  0.6598
  939MOL0     C29463   7.341   8.025   3.219 -0.2736  0.7151 -0.4731
  939MOL0     C29464   7.470   8.085   3.269 -0.6076  0.4530  0.1331
  939MOL0     C29465   7.597   7.991   3.250  0.7981  0.7115  0.0789
  939MOL0     C29466   7.720   8.085   3.250 -0.9396 -0.0398  0.4370
  939MOL0     C29467   7.743   8.192   3.140 -0.0618 -0.4994  0.2525
  939MOL0     O29468   7.779   8.133   3.015 -0.1183  0.4881 -0.1889
  939MOL0     C29469   7.718   8.186   2.908 -0.2100  0.4488  0.7337
  939MOL0     C29470   7.584   8.163   2.876  0.3057  0.0579 -0.8236
  939MOL0     C29471   7.527   8.226   2.766 -0.1036  0.4735 -0.0160
  939MOL0     C29472   7.379   8.182   2.746  0.0723 -0.6138 -0.9677
  939MOL0     C29473   7.604   8.312   2.681  0.4798  0.0379 -0.9279
  939MOL0     C29474   7.547   8.396   2.564  0.6366  0.0961 -0.0719
  939MOL0     O29475   7.637   8.484   2.520 -0.5119  0.4198  0.1164
  939MOL0     C29476   7.603   8.592   2.440  0.0305  0.4363  0.4408
  939MOL0     C29477   7.483   8.607   2.363 -0.3569 -0.8404 -0.8160
  939MOL0     C29478   7.466   8.706   2.269  0.3466 -0.3478 -0.7234
  939MOL0     C29479   7.560   8.810   2.249  0.3054 -0.4334 -1.0186
  939MOL0     O29480   7.561   8.918   2.158  0.2695  0.5542 -0.3642
  939MOL0     C29481   7.440   8.940   2.087  0.4350  0.2684  0.1099
  939MOL0     C29482   7.353   9.019   2.178  0.9174  0.0784 -0.5689
  939MOL0     C29483   7.209   9.021   2.123  0.1938  0.0405  0.2476
  939MOL0     C29484   7.110   8.913   2.169 -0.3388  0.3075 -0.5037
  939MOL0     C29485   7.065   8.945   2.310  0.4381  1.2304  0.4343
  939MOL0     C29486   6.969   8.840   2.362 -0.0465  0.0506  0.6872
  939MOL0     C29487   7.033   8.696   2.382  0.4448 -0.0880 -0.5650
  939MOL0     C29488   6.998   8.637   2.519  0.6874 -0.3070 -0.2692
  939MOL0    Cl29489   7.071   8.478   2.558 -0.2674 -0.1523 -0.4293
  939MOL0     C29490   7.681   8.798   2.322  0.1284 -0.7090  0.9436
  939MOL0     C29491   7.705   8.695   2.417  0.2890 -0.0577  0.7657
  939MOL0     O29492   7.429   8.380   2.523 -0.5666 -1.0727 -0.4475
  939MOL0     C29493   7.741   8.324   2.716 -0.2220 -0.6167  0.2301
  939MOL0     C29494   7.794   8.267   2.827 -1.1073 -0.4580  0.0063
  939MOL0     N29495   7.324   7.924   3.126  0.0224 -0.2964  0.3913
  939MOL0     N29496   7.198   7.919   3.093 -0.7208  0.0112  0.1919
  939MOL0     C29497   6.269   7.963   3.983  0.7211 -0.2315 -0.1808
  939MOL0     C29498   6.143   7.963   4.037 -0.2578  0.2399 -0.5626
  939MOL0     C29499   5.685   7.941   4.063  0.2709 -0.1400  0.5942
  939MOL0     C29500   5.691   7.833   4.157 -0.0974 -0.2695 -1.4769
  939MOL0     C29501   5.575   7.803   4.223 -0.4458  0.6734  1.1266
  939MOL0     C29502   5.447   7.854   4.193 -0.9890 -0.7337  0.2921
  939MOL0     O29503   5.346   7.807   4.274  0.3395 -0.0449  0.3051
  939MOL0     C29504   5.210   7.835   4.231 -0.0634 -0.6994  0.4446
  939MOL0     C29505   5.117   7.800   4.345 -0.2960  0.5220  0.7786
  939MOL0     C29506   4.965   7.809   4.309 -0.0754  0.8040 -0.5794
  939MOL0     C29507   4.890   7.769   4.438  0.0057 -0.3084  0.4876
  939MOL0     C29508   4.749   7.754   4.430  0.0718  0.4896  0.8327
  939MOL0     C29509   4.631   7.739   4.425  0.5540 -0.3273  0.0503
  939MOL0     C29510   5.439   7.957   4.100  0.2724  0.4599 -0.2615
  939MOL0     C29511   5.556   7.999   4.031 -0.2227  0.3948 -0.9301
  939MOL0     C29512   5.529   8.103   3.927  0.6408 -1.0793 -0.3247
  939MOL0     H29513   5.965   7.941   3.750  2.1957 -0.9058 -1.9513
  939MOL0     H29514   6.190   7.935   3.659  1.8477  0.4387  0.9106
  939MOL0     H29515   6.502   8.008   3.627 -1.0631  0.1476 -0.8358
  939MOL0     H29516   6.370   7.892   3.615  0.5454 -0.2325  0.2931
  939MOL0     H29517   6.648   7.847   3.748  2.0632 -2.5216  0.6574
  939MOL0     H29518   6.521   7.719   3.725 -0.6388  0.4336  0.8418
  939MOL0     H29519   6.666   7.676   3.543 -0.1527 -0.6487  2.4309
  939MOL0     H29520   6.526   7.762   3.481  0.7238 -0.3239 -0.8998
  939MOL0     H29521   6.672   7.977   3.496  1.1789  0.3992 -3.8964
  939MOL0     H29522   6.808   7.857   3.507  1.0589  1.1395 -0.2606
  939MOL0     H29523   6.585   7.849   3.303  0.3762  0.7695 -0.1029
  939MOL0     H29524   6.725   7.743   3.303 -1.3321 -0.0380  0.5178
  939MOL0     H29525   6.736   7.933   3.138 -0.2630 -0.7126  0.0047
  939MOL0     H29526   6.750   8.048   3.278  0.3879 -0.3611  0.1664
  939MOL0     H29527   6.939   7.824   3.204 -0.6430  0.9983 -1.7076
  939MOL0     H29528   6.953   7.928   3.339 -1.4016 -1.5101  0.3727
  939MOL0     H29529   6.969   8.018   3.042 -0.5650  1.2685  0.1197
  939MOL0     H29530   6.963   8.130   3.173 -0.5377 -0.6501 -0.7112
  939MOL0     H29531   7.207   8.160   3.305 -1.3818  2.5571 -2.6799
  939MOL0     H29532   7.457   8.102   3.376 -1.0150  0.3535  0.0990
  939MOL0     H29533   7.482   8.182   3.220 -0.5697  0.6373  0.5033
  939MOL0     H29534   7.602   7.915   3.328 -3.2457  1.4446  1.2422
  939MOL0     H29535   7.582   7.938   3.156 -2.2228  0.6699  0.5034
  939MOL0     H29536   7.723   8.129   3.350  2.0108  0.7257  0.1097
  939MOL0     H29537   7.812   8.026   3.254 -2.4061 -2.4294  1.3993
  939MOL0     H29538   7.652   8.253   3.127 -0.5099 -1.2243 -0.1040
  939MOL0     H29539   7.826   8.258   3.166 -1.8648  1.0748  2.3994
  939MOL0     H29540   7.516   8.105   2.938  0.7485 -0.2378 -0.6067
  939MOL0     H29541   7.382   8.109   2.664 -0.8638 -0.7304 -0.9039
  939MOL0     H29542   7.323   8.273   2.726 -0.0321 -0.5287 -0.3141
  939MOL0     H29543   7.332   8.139   2.835 -3.1411 -0.5584 -2.4913
  939MOL0     H29544   7.394   8.546   2.379 -1.4945  1.5874  4.0576
  939MOL0     H29545   7.376   8.709   2.207  0.5355  0.7239 -0.9563
  939MOL0     H29546   7.462   8.999   1.998 -0.9393  1.7793  0.7289
  939MOL0     H29547   7.399   8.845   2.051 -0.6534  1.6572 -2.6022
  939MOL0     H29548   7.362   8.985   2.281 -1.1747 -2.4807 -1.1398
  939MOL0     H29549   7.400   9.118   2.172  3.8390 -1.0444  1.7730
  939MOL0     H29550   7.203   9.026   2.014 -1.4082  1.8545  0.3655
  939MOL0     H29551   7.157   9.113   2.150 -1.2140 -0.6215 -0.0991
  939MOL0     H29552   7.159   8.815   2.173  0.5608  0.5937 -2.7406
  939MOL0     H29553   7.021   8.911   2.106 -1.7817  1.5417  1.3856
  939MOL0     H29554   7.152   8.964   2.373  0.2008 -0.9129  1.4951
  939MOL0     H29555   7.009   9.039   2.308 -0.3146  0.8328  1.5856
  939MOL0     H29556   6.891   8.825   2.287  0.6727 -4.6269  0.6061
  939MOL0     H29557   6.918   8.870   2.454  1.3331 -0.5832  1.6962
  939MOL0     H29558   7.141   8.706   2.382  0.3448  1.1965 -0.9769
  939MOL0     H29559   6.974   8.633   2.315 -0.7309  1.5935 -1.1644
  939MOL0     H29560   6.890   8.628   2.527  0.5569  1.1039 -0.2272
  939MOL0     H29561   7.024   8.712   2.594  0.4464  2.1037 -2.4840
  939MOL0     H29562   7.752   8.879   2.304 -1.3398  0.8670  1.9333
  939MOL0     H29563   7.799   8.699   2.470  1.2939 -1.8546 -0.7576
  939MOL0     H29564   7.811   8.386   2.660  1.3894 -1.2958  1.4090
  939MOL0     H29565   7.898   8.288   2.849 -1.2179  1.1846 -0.9629
  939MOL0     H29566   6.358   7.977   4.043 -0.3185  1.6273  1.0514
  939MOL0     H29567   6.130   7.968   4.144  0.8348  2.1097 -0.4703
  939MOL0     H29568   5.782   7.783   4.191 -0.6516  0.1412  0.7296
  939MOL0     H29569   5.565   7.726   4.300  0.7772  1.9262  2.6009
  939MOL0     H29570   5.195   7.939   4.199  2.2875 -1.2291 -2.9281
  939MOL0     H29571   5.191   7.778   4.140 -0.3249  0.6761 -0.4011
  939MOL0     H29572   5.127   7.874   4.426 -2.0128  0.3002  1.2365
  939MOL0     H29573   5.144   7.705   4.389  1.5105  0.1700 -0.9635
  939MOL0     H29574   4.937   7.909   4.273 -1.7600  0.7296  0.3919
  939MOL0     H29575   4.932   7.738   4.233 -0.2998 -1.5735  1.6056
  939MOL0     H29576   4.913   7.830   4.526  0.2779  0.0395  0.1804
  939MOL0     H29577   4.936   7.674   4.464  2.0324  0.3853 -0.3378
  939MOL0     H29578   4.524   7.735   4.422  0.5620 -0.0954 -0.9823
  939MOL0     H29579   5.341   8.002   4.088  0.5096  0.9711 -0.3235
  939MOL0     H29580   5.587   8.188   3.961 -0.9325  0.6689 -1.7685
  939MOL0     H29581   5.563   8.062   3.831  0.6473 -1.9396  0.0329
  939MOL0     H29582   5.426   8.138   3.915  1.7081  1.9689 -1.6015
  940MOL0     O29583   9.369   9.121   6.073 -0.0411  0.2609 -0.4358
  940MOL0     C29584   9.325   9.064   5.972  0.6313  0.0251 -0.4615
  940MOL0     O29585   9.383   9.068   5.843  0.0783  0.3831 -0.5912
  940MOL0     C29586   9.507   9.123   5.847 -0.6259  0.5236 -0.1971
  940MOL0     C29587   9.618   9.037   5.887 -0.4845 -0.5864  0.1236
  940MOL0     C29588   9.749   9.099   5.887 -0.7346  0.7923 -0.2561
  940MOL0     C29589   9.771   9.234   5.856 -0.5491 -0.4807  0.2035
  940MOL0     O29590   9.894   9.288   5.870 -1.1078  0.8493 -0.0858
  940MOL0     C29591   9.916   9.422   5.861 -0.0110 -0.0703 -0.8463
  940MOL0     C29592  10.059   9.460   5.899  0.4009  0.5246  0.3106
  940MOL0     C29593  10.087   9.409   6.040  0.3710  0.0983  0.8031
  940MOL0     C29594  10.231   9.443   6.073 -0.0685 -0.0513 -0.0806
  940MOL0     C29595  10.271   9.403   6.211  0.6082 -0.0470  0.2485
  940MOL0     C29596  10.432   9.425   6.228 -0.1669  0.2680 -0.1133
  940MOL0     C29597  10.514   9.344   6.128 -0.5729  0.2699  0.2724
  940MOL0     C29598  10.486   9.190   6.149 -0.1470 -0.0133 -0.6252
  940MOL0     N29599  10.532   9.143   6.279 -0.5109  0.1869 -0.5874
  940MOL0     C29600  10.661   9.129   6.323 -0.7263  0.0009 -0.2390
  940MOL0     C29601  10.652   9.073   6.448 -0.2624  0.1315 -0.0791
  940MOL0     C29602  10.764   9.029   6.536  0.4631 -0.1372  0.2007
  940MOL0     C29603  10.800   9.127   6.647 -0.4135  0.3569  0.8031
  940MOL0     C29604  10.838   9.265   6.589  0.2841 -0.3217 -0.6090
  940MOL0     C29605  10.881   9.368   6.694  0.2623  0.6461 -0.2951
  940MOL0     O29606  10.789   9.395   6.811  0.2336  0.5763 -0.4313
  940MOL0     C29607  10.792   9.521   6.867  0.5528 -0.5135  0.0262
  940MOL0     C29608  10.900   9.605   6.876  0.2270  0.3585 -0.7211
  940MOL0     C29609  10.896   9.721   6.947 -0.1119 -0.9611 -0.6021
  940MOL0     C29610  11.021   9.800   6.942  0.5970  0.0309  0.3473
  940MOL0     C29611  10.775   9.764   7.011  0.4104 -0.5674  0.0351
  940MOL0     C29612  10.751   9.902   7.066 -0.5478 -0.8295 -0.4123
  940MOL0     O29613  10.618   9.957   7.065  0.1676 -0.2864  0.8730
  940MOL0     C29614  10.591  10.063   7.154 -0.2856  0.2857 -0.3767
  940MOL0     C29615  10.652  10.073   7.290 -0.2126  0.4457  1.3583
  940MOL0     C29616  10.606  10.181   7.365  0.4155 -0.4926  1.1199
  940MOL0     C29617  10.519  10.280   7.314  0.9020  0.4472  0.3348
  940MOL0     O29618  10.484  10.387   7.392  0.0968  0.2108 -0.1241
  940MOL0     C29619  10.487  10.515   7.325  0.6668 -0.5775 -0.5093
  940MOL0     C29620  10.439  10.631   7.415  0.6668 -0.6472  0.3531
  940MOL0     C29621  10.553  10.659   7.515 -0.2711 -0.0173  0.5863
  940MOL0     C29622  10.494  10.764   7.616  0.2126  0.1508 -0.2120
  940MOL0     C29623  10.598  10.785   7.723 -0.0427 -0.6976  0.7214
  940MOL0     C29624  10.717  10.877   7.672 -0.3424 -0.7523  0.2709
  940MOL0     C29625  10.831  10.891   7.775  0.7831 -0.1467 -0.2596
  940MOL0     C29626  10.928  11.000   7.718 -0.3467  0.1062 -0.2221
  940MOL0    Cl29627  10.841  11.159   7.726 -0.0226  0.4343  0.2189
  940MOL0     C29628  10.466  10.264   7.187 -0.1029  0.1357  0.0819
  940MOL0     C29629  10.498  10.155   7.111 -0.4914 -0.1582 -0.7626
  940MOL0     O29630  10.853   9.966   7.093 -0.0864 -0.0645 -0.4439
  940MOL0     C29631  10.658   9.681   7.000 -0.2505  0.4699  0.1180
  940MOL0     C29632  10.678   9.559   6.930  0.8115 -1.0118  0.1584
  940MOL0     N29633  10.513   9.064   6.475 -0.1146 -1.3544 -0.0961
  940MOL0     N29634  10.440   9.110   6.375 -0.7281 -0.4529 -0.0743
  940MOL0     C29635   9.658   9.310   5.829 -0.3162  0.7670  0.1055
  940MOL0     C29636   9.531   9.257   5.813  0.3359 -0.6591 -0.4226
  940MOL0     C29637   9.197   8.983   5.978  0.1130  0.0710  0.0268
  940MOL0     C29638   9.164   8.915   5.859 -0.2031 -1.3664  0.0375
  940MOL0     C29639   9.053   8.848   5.839  0.0225  0.4486  0.1081
  940MOL0     C29640   8.952   8.832   5.940 -0.2996  0.1189  0.0689
  940MOL0     O29641   8.833   8.770   5.930 -0.0124  0.2756 -0.0949
  940MOL0     C29642   8.800   8.690   5.812 -0.4139 -0.4959  0.2330
  940MOL0     C29643   8.664   8.613   5.839  0.8218 -0.3230  0.0829
  940MOL0     C29644   8.548   8.713   5.844 -1.3412 -0.0806  0.5296
  940MOL0     C29645   8.416   8.647   5.882  0.0433  0.8004 -0.1549
  940MOL0     C29646   8.350   8.594   5.760 -0.1398 -0.0825  0.6209
  940MOL0     C29647   8.290   8.545   5.665 -0.3847  0.0741  0.0181
  940MOL0     C29648   8.980   8.899   6.056  0.0895 -0.2671  0.2259
  940MOL0     C29649   9.105   8.967   6.082  0.3231  0.1288  0.2889
  940MOL0     C29650   9.125   9.030   6.220  0.0645 -0.2565 -0.8452
  940MOL0     H29651   9.601   8.932   5.911 -1.0603 -0.1323  1.8201
  940MOL0     H29652   9.824   9.031   5.926 -0.0784  1.8238  0.3464
  940MOL0     H29653   9.850   9.478   5.928  2.0265  1.8256 -0.3210
  940MOL0     H29654   9.903   9.458   5.758  1.3931  2.3817 -0.2336
  940MOL0     H29655  10.127   9.409   5.830  0.7648  2.6165 -0.9447
  940MOL0     H29656  10.074   9.568   5.892  0.1240  0.4586 -1.6251
  940MOL0     H29657  10.022   9.461   6.110 -1.4029 -3.5093  2.0871
  940MOL0     H29658  10.071   9.302   6.056  2.4176 -0.4536 -0.3669
  940MOL0     H29659  10.285   9.397   5.990 -0.5340  0.3527 -0.6233
  940MOL0     H29660  10.250   9.551   6.064  0.8014 -0.2998 -1.5954
  940MOL0     H29661  10.235   9.300   6.219  0.9924 -0.3399 -1.4576
  940MOL0     H29662  10.216   9.467   6.280  2.4256  1.3521  0.4574
  940MOL0     H29663  10.460   9.531   6.236 -0.7758  0.2979  2.5164
  940MOL0     H29664  10.445   9.391   6.331 -4.1421 -1.7411 -0.0927
  940MOL0     H29665  10.619   9.368   6.145 -1.2831  2.5961  1.7970
  940MOL0     H29666  10.498   9.372   6.023  1.1510 -1.0778 -0.3982
  940MOL0     H29667  10.381   9.160   6.150 -0.5254  0.9983  2.7140
  940MOL0     H29668  10.547   9.134   6.078  0.9924 -0.6604  0.8072
  940MOL0     H29669  10.753   9.146   6.269 -0.2380 -0.1229  0.5325
  940MOL0     H29670  10.857   9.023   6.479  1.5888  0.1720  1.9418
  940MOL0     H29671  10.731   8.932   6.576  1.9867  0.0293  1.9645
  940MOL0     H29672  10.716   9.143   6.716 -1.4406 -2.8796  0.4468
  940MOL0     H29673  10.884   9.083   6.701  1.6395  0.8702 -1.7825
  940MOL0     H29674  10.923   9.257   6.519 -0.7147  0.3232 -1.9449
  940MOL0     H29675  10.756   9.307   6.530  1.2826  1.8625 -0.5583
  940MOL0     H29676  10.978   9.332   6.729  0.1113 -0.4148 -0.8982
  940MOL0     H29677  10.900   9.462   6.642 -1.5921  0.0257 -2.2336
  940MOL0     H29678  10.993   9.586   6.823  0.2466 -1.2549 -0.1543
  940MOL0     H29679  11.008   9.885   6.875 -2.4629  0.2533  1.0496
  940MOL0     H29680  11.114   9.748   6.921  2.0928  0.5034  4.7843
  940MOL0     H29681  11.050   9.840   7.039 -0.8699 -1.2682  1.3867
  940MOL0     H29682  10.724  10.005   7.332  0.0564  1.2480  2.2440
  940MOL0     H29683  10.658  10.198   7.459 -0.4104 -1.7364  1.8276
  940MOL0     H29684  10.591  10.535   7.295  0.5203  2.8025  0.7483
  940MOL0     H29685  10.433  10.512   7.231  3.6277  0.2187 -2.3769
  940MOL0     H29686  10.421  10.718   7.352  3.0646 -1.4603 -1.6108
  940MOL0     H29687  10.346  10.608   7.468  0.5183 -1.0280 -0.0618
  940MOL0     H29688  10.643  10.693   7.464 -1.0380  1.0229 -0.1183
  940MOL0     H29689  10.584  10.570   7.569  2.3928 -0.1916 -1.0555
  940MOL0     H29690  10.404  10.716   7.656  0.0131 -0.9349 -1.8740
  940MOL0     H29691  10.475  10.858   7.563 -0.5004 -1.3485 -2.8050
  940MOL0     H29692  10.557  10.826   7.816  1.8522 -1.3139  1.8981
  940MOL0     H29693  10.640  10.688   7.754  1.7006 -0.2567 -0.1170
  940MOL0     H29694  10.691  10.973   7.626  1.0444 -0.3097  0.3365
  940MOL0     H29695  10.758  10.813   7.593 -3.5059 -3.1155  0.3497
  940MOL0     H29696  10.884  10.796   7.786 -0.5641 -0.8523  0.2878
  940MOL0     H29697  10.803  10.931   7.873  0.3199 -0.9024 -0.0812
  940MOL0     H29698  10.967  10.964   7.623  0.2155  1.3452 -0.4777
  940MOL0     H29699  11.016  11.016   7.781 -1.2710  2.2257  0.6379
  940MOL0     H29700  10.386  10.327   7.150  0.0969  0.3683  0.0392
  940MOL0     H29701  10.441  10.144   7.020 -1.1759 -0.2484 -0.3271
  940MOL0     H29702  10.568   9.697   7.057 -1.5708 -1.3112 -1.3495
  940MOL0     H29703  10.585   9.502   6.930 -1.6613  2.7181 -0.5596
  940MOL0     H29704   9.679   9.411   5.796  0.8877 -0.2359 -2.4094
  940MOL0     H29705   9.447   9.317   5.780 -0.5848  0.7745  3.8631
  940MOL0     H29706   9.216   8.924   5.764 -0.3329  4.7999  0.1540
  940MOL0     H29707   9.041   8.794   5.745  2.8096  1.7221 -1.0835
  940MOL0     H29708   8.785   8.752   5.724 -0.2443 -0.5038  0.1992
  940MOL0     H29709   8.879   8.616   5.796 -1.0219 -1.0751 -0.1759
  940MOL0     H29710   8.678   8.564   5.936 -1.6648  0.0490  0.7024
  940MOL0     H29711   8.656   8.542   5.756  0.5189 -0.4832  0.2443
  940MOL0     H29712   8.575   8.785   5.922  1.7160  1.1063 -1.4836
  940MOL0     H29713   8.545   8.762   5.747 -0.3484 -1.4931 -0.2389
  940MOL0     H29714   8.349   8.706   5.945 -2.7170 -3.9007  1.8081
  940MOL0     H29715   8.438   8.565   5.950  1.0979  0.8234 -0.4574
  940MOL0     H29716   8.254   8.504   5.573  1.0239 -1.7583  0.2331
  940MOL0     H29717   8.913   8.892   6.142 -0.2383 -2.4428 -0.1541
  940MOL0     H29718   9.122   9.140   6.224  0.1126 -0.2055  3.7732
  940MOL0     H29719   9.055   8.996   6.297 -0.5741  1.9318 -0.3877
  940MOL0     H29720   9.226   9.004   6.253  0.0657 -0.6200 -1.1267
  941MOL0     O29721   3.005   6.709   2.457 -0.2102 -0.6053  0.8130
  941MOL0     C29722   2.979   6.706   2.334  0.0730 -0.3074  0.7152
  941MOL0     O29723   3.062   6.658   2.235 -0.4362  0.6028  0.3023
  941MOL0     C29724   3.189   6.620   2.261  0.3576  1.0627  0.2777
  941MOL0     C29725   3.268   6.680   2.355 -0.3508 -0.3817  0.0272
  941MOL0     C29726   3.401   6.642   2.379  0.3215 -0.0277 -1.3529
  941MOL0     C29727   3.451   6.531   2.319  0.2741 -0.1024  0.1359
  941MOL0     O29728   3.585   6.506   2.341  0.1909 -0.2332  0.1936
  941MOL0     C29729   3.644   6.385   2.275  1.3326 -0.9426 -0.7398
  941MOL0     C29730   3.799   6.406   2.270  0.1573 -0.3227  0.3233
  941MOL0     C29731   3.854   6.282   2.199  0.9123  0.3098  0.7788
  941MOL0     C29732   4.001   6.297   2.153  0.1166  0.9156 -0.3848
  941MOL0     C29733   4.026   6.192   2.045 -0.8350 -0.2076 -0.5406
  941MOL0     C29734   4.174   6.172   2.023 -0.3272 -0.0633  0.1895
  941MOL0     C29735   4.238   6.284   1.941 -0.5085  0.8984 -0.9628
  941MOL0     C29736   4.391   6.245   1.922 -0.3481 -0.3054  0.2650
  941MOL0     N29737   4.446   6.356   1.832 -0.2932  0.7249 -0.1466
  941MOL0     C29738   4.460   6.492   1.844  0.0737 -0.2139 -0.6860
  941MOL0     C29739   4.521   6.544   1.726  0.2737  0.3558 -0.1058
  941MOL0     C29740   4.554   6.683   1.693  0.3911  0.2335 -0.1817
  941MOL0     C29741   4.696   6.707   1.678 -0.4799 -0.0742  0.4355
  941MOL0     C29742   4.765   6.709   1.813  1.0909  0.0546 -1.2291
  941MOL0     C29743   4.913   6.738   1.795  0.2013  0.5719  0.4743
  941MOL0     O29744   4.966   6.738   1.925 -0.6834  0.3952  0.1868
  941MOL0     C29745   5.092   6.800   1.934 -0.1668 -0.3454 -0.5961
  941MOL0     C29746   5.116   6.872   2.050  0.2168 -0.7039  0.9922
  941MOL0     C29747   5.233   6.947   2.074 -0.1410  0.6798  0.0345
  941MOL0     C29748   5.244   6.993   2.221  1.3961  0.0346  0.0462
  941MOL0     C29749   5.333   6.948   1.968 -0.6810  0.0296 -0.2622
  941MOL0     C29750   5.465   7.006   1.985 -0.4099  0.6468 -0.4678
  941MOL0     O29751   5.523   7.053   1.869 -0.2609 -0.1727 -0.5202
  941MOL0     C29752   5.661   7.031   1.862  0.5717 -0.4092 -0.0265
  941MOL0     C29753   5.710   6.922   1.794  1.0679 -0.5762  0.7547
  941MOL0     C29754   5.850   6.907   1.792  0.3367  0.5954 -0.1127
  941MOL0     C29755   5.939   7.005   1.849  0.2022  0.2102  0.0098
  941MOL0     O29756   6.075   6.997   1.847  0.4030  0.2945 -0.5266
  941MOL0     C29757   6.139   6.903   1.758  0.4863  0.3559 -0.5177
  941MOL0     C29758   6.293   6.920   1.763  0.0394  0.6468  0.0256
  941MOL0     C29759   6.328   7.070   1.722 -0.5204 -0.0012  0.6732
  941MOL0     C29760   6.479   7.089   1.713  0.5105 -0.3539 -0.7982
  941MOL0     C29761   6.512   7.231   1.659  0.9348 -0.0455  0.7269
  941MOL0     C29762   6.518   7.352   1.747  0.0156 -0.3390 -0.6291
  941MOL0     C29763   6.572   7.480   1.670  0.0862  0.2330  0.2448
  941MOL0     C29764   6.616   7.605   1.751  0.3460  0.7873 -0.1211
  941MOL0    Cl29765   6.771   7.551   1.835 -0.1364 -0.3474  0.3245
  941MOL0     C29766   5.885   7.114   1.910  0.0443 -0.6687 -0.8791
  941MOL0     C29767   5.744   7.127   1.917  0.2639  0.0733 -0.0476
  941MOL0     O29768   5.524   7.008   2.095 -0.2179  0.6363 -0.5531
  941MOL0     C29769   5.303   6.886   1.850 -0.7619 -0.5838  0.3671
  941MOL0     C29770   5.185   6.816   1.831 -0.0787 -0.0004 -0.3422
  941MOL0     N29771   4.520   6.439   1.631 -0.6208 -0.3272 -0.6506
  941MOL0     N29772   4.475   6.332   1.697  0.0883 -0.3690 -0.7987
  941MOL0     C29773   3.372   6.469   2.219  0.9373 -0.2390  0.6864
  941MOL0     C29774   3.240   6.505   2.195  0.1741 -0.6991 -0.7348
  941MOL0     C29775   2.851   6.756   2.280 -0.1205  0.6527 -0.1546
  941MOL0     C29776   2.793   6.856   2.360  0.2268 -0.7317 -0.6488
  941MOL0     C29777   2.649   6.880   2.344  0.3038  0.2144 -0.3847
  941MOL0     C29778   2.579   6.824   2.237  0.2796  0.1920  0.3897
  941MOL0     O29779   2.455   6.866   2.179  0.5141 -0.3218 -0.8940
  941MOL0     C29780   2.368   6.948   2.257 -0.0130 -0.2383  1.0206
  941MOL0     C29781   2.299   6.875   2.376  0.0533  0.7295 -0.6128
  941MOL0     C29782   2.173   6.949   2.432  0.2335  0.3485 -0.6564
  941MOL0     C29783   2.049   6.919   2.347 -0.0321 -1.3291  0.8178
  941MOL0     C29784   1.927   6.960   2.414 -0.0086  0.6474 -0.2204
  941MOL0     C29785   1.825   7.008   2.469 -0.7981  0.1368  0.0742
  941MOL0     C29786   2.644   6.718   2.162  0.6371  0.2683  0.0312
  941MOL0     C29787   2.774   6.686   2.181  0.3037  0.2050 -0.5036
  941MOL0     C29788   2.817   6.567   2.103 -0.0655  0.3164 -0.8352
  941MOL0     H29789   3.235   6.773   2.402  1.0850 -0.7717  1.9443
  941MOL0     H29790   3.470   6.696   2.444  0.1729  0.3712 -1.5186
  941MOL0     H29791   3.600   6.362   2.177 -0.0340 -0.1981 -0.3232
  941MOL0     H29792   3.625   6.296   2.335 -0.9887 -0.0566 -0.0467
  941MOL0     H29793   3.822   6.497   2.214 -0.1759  1.5164  3.0207
  941MOL0     H29794   3.835   6.419   2.372  0.9506 -2.0911  0.3117
  941MOL0     H29795   3.835   6.205   2.274  1.2395  2.2758  3.0085
  941MOL0     H29796   3.800   6.265   2.106 -0.4701  0.4635  1.5248
  941MOL0     H29797   4.014   6.400   2.118  1.7037  1.2160  0.9318
  941MOL0     H29798   4.069   6.280   2.237 -0.0567 -0.1188 -0.4380
  941MOL0     H29799   3.983   6.220   1.948 -0.0555  0.7919 -0.6151
  941MOL0     H29800   3.974   6.100   2.075 -1.7235  0.2601 -0.6088
  941MOL0     H29801   4.221   6.160   2.121  2.6282  0.1162 -1.1168
  941MOL0     H29802   4.181   6.076   1.972 -1.5435  0.2858 -0.6970
  941MOL0     H29803   4.234   6.377   1.999  3.5575  0.5016  0.2562
  941MOL0     H29804   4.184   6.295   1.846 -1.2539  2.2440 -0.4102
  941MOL0     H29805   4.448   6.240   2.015 -1.4498  1.8055  1.1014
  941MOL0     H29806   4.398   6.153   1.863 -0.0545  1.3093 -2.3843
  941MOL0     H29807   4.436   6.543   1.937 -1.0826 -1.6492 -0.1559
  941MOL0     H29808   4.512   6.753   1.766 -1.1402  0.1670 -0.9586
  941MOL0     H29809   4.506   6.707   1.598 -0.0478 -2.4589 -0.7038
  941MOL0     H29810   4.724   6.619   1.618 -0.5935  0.5571 -0.5715
  941MOL0     H29811   4.723   6.797   1.622  1.1227 -0.4039  0.6229
  941MOL0     H29812   4.720   6.786   1.876 -0.7625 -1.0015 -1.1870
  941MOL0     H29813   4.755   6.617   1.872  2.1946 -1.0286 -2.6502
  941MOL0     H29814   4.958   6.658   1.735  0.4465  1.2530 -0.2674
  941MOL0     H29815   4.915   6.840   1.757 -0.5658  1.4004  2.5532
  941MOL0     H29816   5.040   6.879   2.127 -1.3238  1.2153 -0.6018
  941MOL0     H29817   5.249   6.903   2.282  0.8753  0.0467  0.1168
  941MOL0     H29818   5.153   7.052   2.239  1.6138  0.6509 -0.7736
  941MOL0     H29819   5.326   7.063   2.238  1.3234  0.0250  0.4417
  941MOL0     H29820   5.642   6.859   1.738 -0.5993 -0.5971  2.6820
  941MOL0     H29821   5.894   6.827   1.734 -0.7167  0.3012 -0.5096
  941MOL0     H29822   6.107   6.804   1.792 -4.3726  1.4200 -1.1654
  941MOL0     H29823   6.103   6.903   1.655  0.6449 -2.2983 -0.6277
  941MOL0     H29824   6.331   6.906   1.864  3.3901  1.3158 -1.0034
  941MOL0     H29825   6.338   6.845   1.698 -1.0794 -0.0951  0.0824
  941MOL0     H29826   6.289   7.128   1.806 -1.1331 -4.0628  3.4758
  941MOL0     H29827   6.287   7.095   1.623 -0.0781  0.6826  0.6587
  941MOL0     H29828   6.509   7.019   1.635  2.5599 -1.9380  1.3115
  941MOL0     H29829   6.538   7.078   1.804  2.4684  0.3330 -1.9130
  941MOL0     H29830   6.604   7.220   1.601 -0.0908 -0.6731 -0.8241
  941MOL0     H29831   6.437   7.250   1.582  1.6897 -1.8409 -0.5391
  941MOL0     H29832   6.587   7.324   1.827  0.8740 -1.7702 -1.8166
  941MOL0     H29833   6.425   7.383   1.796  0.4384  2.3188 -1.3536
  941MOL0     H29834   6.491   7.502   1.600  0.3588 -1.0817 -0.5160
  941MOL0     H29835   6.660   7.445   1.615 -0.1421  0.2741 -0.1459
  941MOL0     H29836   6.537   7.635   1.820  1.8368  1.1557  1.5145
  941MOL0     H29837   6.640   7.685   1.681 -0.0974  0.1497 -1.0188
  941MOL0     H29838   5.954   7.182   1.958  2.8211 -0.8394 -4.2803
  941MOL0     H29839   5.693   7.200   1.979 -2.9107 -0.8846 -1.3069
  941MOL0     H29840   5.379   6.882   1.773 -2.2735 -1.3704 -1.1505
  941MOL0     H29841   5.172   6.764   1.737  0.0598  2.4568 -1.8165
  941MOL0     H29842   3.410   6.383   2.164 -1.0401 -2.4588  2.5630
  941MOL0     H29843   3.188   6.451   2.116  2.5728 -3.3801 -0.6196
  941MOL0     H29844   2.851   6.913   2.432  0.4324 -2.8281  0.9418
  941MOL0     H29845   2.588   6.944   2.406 -1.8635 -2.5485  0.5285
  941MOL0     H29846   2.420   7.036   2.296 -1.8926  2.0113 -1.1581
  941MOL0     H29847   2.295   6.992   2.188  0.8237  1.7045  1.3032
  941MOL0     H29848   2.373   6.873   2.457 -0.6085 -0.0383 -0.0044
  941MOL0     H29849   2.279   6.775   2.335 -1.3266  0.1351  1.3274
  941MOL0     H29850   2.152   6.904   2.530  2.3757 -0.3797 -0.4650
  941MOL0     H29851   2.205   7.053   2.430  2.3730 -0.2658 -0.9736
  941MOL0     H29852   2.052   6.811   2.329  0.4672 -0.9055 -2.1688
  941MOL0     H29853   2.055   6.967   2.249  1.6019  1.7504  2.2972
  941MOL0     H29854   1.745   7.052   2.525 -0.2506 -0.2589  1.1903
  941MOL0     H29855   2.596   6.657   2.086  0.5179 -1.4309  1.4080
  941MOL0     H29856   2.739   6.502   2.062 -1.2948 -0.6285  2.6174
  941MOL0     H29857   2.886   6.610   2.030  0.8289  1.1692  0.4658
  941MOL0     H29858   2.868   6.498   2.172 -0.5994  1.1710  0.4500
  942MOL0     O29859   0.827   5.161   6.185  0.1726  0.2440  0.6723
  942MOL0     C29860   0.825   5.196   6.303  0.0785  0.0006  0.0488
  942MOL0     O29861   0.924   5.261   6.366 -0.4327  0.4222 -0.2745
  942MOL0     C29862   1.048   5.268   6.313  0.3410 -0.8582  0.6102
  942MOL0     C29863   1.114   5.174   6.240  0.4814 -0.4336 -0.1157
  942MOL0     C29864   1.252   5.180   6.228 -0.2814 -0.5594  0.5299
  942MOL0     C29865   1.329   5.283   6.284 -0.6856  0.3098 -0.4554
  942MOL0     O29866   1.461   5.289   6.257  0.4905 -0.8582  1.1322
  942MOL0     C29867   1.568   5.338   6.335 -0.2433 -0.0947  1.0071
  942MOL0     C29868   1.614   5.231   6.433  0.0398  0.1747 -0.2189
  942MOL0     C29869   1.516   5.202   6.552  0.9180  0.7916 -0.7753
  942MOL0     C29870   1.504   5.320   6.658  0.1765 -0.0064 -1.2851
  942MOL0     C29871   1.368   5.298   6.735 -1.0785 -0.4638 -0.0879
  942MOL0     C29872   1.380   5.168   6.828 -0.2312 -1.0934  0.5294
  942MOL0     C29873   1.241   5.162   6.904  0.1290 -0.2689 -0.1736
  942MOL0     C29874   1.119   5.131   6.815 -0.2620  0.2764 -0.2841
  942MOL0     N29875   1.144   5.007   6.750 -0.3239 -0.7556  0.1618
  942MOL0     C29876   1.196   5.003   6.616  0.1258 -0.0127 -0.2613
  942MOL0     C29877   1.204   4.872   6.588  0.2070 -1.0573  0.3353
  942MOL0     C29878   1.228   4.826   6.439 -0.2461  0.0394 -0.5490
  942MOL0     C29879   1.366   4.864   6.396  0.3520  0.6499 -0.2313
  942MOL0     C29880   1.403   4.802   6.268 -0.0796 -0.8502 -0.2480
  942MOL0     C29881   1.537   4.833   6.223  0.1997  0.0805  0.6132
  942MOL0     O29882   1.531   4.962   6.167  0.3109 -0.3710 -0.3841
  942MOL0     C29883   1.648   5.020   6.122 -0.7200 -0.0006  0.3129
  942MOL0     C29884   1.776   4.959   6.126  0.0459  0.0555  0.5664
  942MOL0     C29885   1.891   5.016   6.067  0.4378 -0.0493 -0.6755
  942MOL0     C29886   2.014   4.932   6.057 -0.4623  0.2612  0.4526
  942MOL0     C29887   1.876   5.145   6.004  0.0422  0.1503  0.1662
  942MOL0     C29888   1.987   5.214   5.938 -0.0868 -0.2454  0.3571
  942MOL0     O29889   2.114   5.178   5.981 -0.6366 -0.1074 -0.5727
  942MOL0     C29890   2.218   5.212   5.896  1.1377  0.1495 -0.4306
  942MOL0     C29891   2.299   5.334   5.921  0.1001 -0.0224  0.2845
  942MOL0     C29892   2.413   5.351   5.841  0.4632  1.0579 -0.0794
  942MOL0     C29893   2.455   5.259   5.751 -0.2867 -0.5407  1.1027
  942MOL0     O29894   2.557   5.301   5.673  0.7483  0.1096  0.0488
  942MOL0     C29895   2.592   5.225   5.555  0.1851  0.4578  1.0524
  942MOL0     C29896   2.641   5.332   5.448  0.5127  0.1384 -0.1169
  942MOL0     C29897   2.766   5.398   5.503 -0.6843  0.2127  0.1037
  942MOL0     C29898   2.829   5.486   5.394  0.1378  0.6435 -0.8270
  942MOL0     C29899   2.937   5.588   5.434  0.2207  0.2354 -0.1181
  942MOL0     C29900   3.001   5.655   5.315 -0.1993 -0.5474 -0.2196
  942MOL0     C29901   2.908   5.754   5.236 -0.3487  0.5567 -0.2879
  942MOL0     C29902   2.911   5.895   5.306 -0.0798  0.5241 -0.1281
  942MOL0    Cl29903   2.781   5.993   5.243 -0.1637  0.3500 -0.2311
  942MOL0     C29904   2.383   5.135   5.742  0.8879  0.2236  0.8700
  942MOL0     C29905   2.265   5.110   5.812 -0.4864 -0.5728 -1.2518
  942MOL0     O29906   1.965   5.296   5.848  0.1206  0.1780 -0.8261
  942MOL0     C29907   1.750   5.207   6.001 -0.8379 -0.8819 -0.3120
  942MOL0     C29908   1.643   5.145   6.058  0.0285  0.9067  0.1465
  942MOL0     N29909   1.143   4.806   6.694  0.6394  0.2505  0.4199
  942MOL0     N29910   1.115   4.879   6.795 -0.2247 -0.3029 -0.7151
  942MOL0     C29911   1.263   5.382   6.354  0.3627 -0.1374 -0.5570
  942MOL0     C29912   1.123   5.372   6.368 -0.8291  0.1358 -0.1598
  942MOL0     C29913   0.701   5.166   6.384 -0.5353 -0.0286 -0.2515
  942MOL0     C29914   0.577   5.163   6.321  0.5808 -0.7706  0.0536
  942MOL0     C29915   0.460   5.136   6.390  0.3091 -0.8950 -0.1133
  942MOL0     C29916   0.470   5.112   6.525 -0.6972 -0.0997  0.1597
  942MOL0     O29917   0.353   5.106   6.597 -0.1289  0.1458  0.3953
  942MOL0     C29918   0.289   4.978   6.591  0.5346  0.4904  0.4294
  942MOL0     C29919   0.138   5.015   6.582 -0.5830  0.0213 -0.5518
  942MOL0     C29920   0.042   4.899   6.580 -0.3460  1.3943  0.8033
  942MOL0     C29921   0.061   4.806   6.464  0.1698 -0.1743  0.1739
  942MOL0     C29922  -0.047   4.809   6.369  0.2224  0.2547 -0.6925
  942MOL0     C29923  -0.125   4.810   6.275  0.0859  0.4496 -0.4254
  942MOL0     C29924   0.590   5.112   6.590 -0.2547 -0.0718  0.4018
  942MOL0     C29925   0.705   5.144   6.525 -0.2754 -0.0512 -0.8240
  942MOL0     C29926   0.838   5.149   6.613 -0.2698 -0.1104  0.2042
  942MOL0     H29927   1.063   5.082   6.214 -1.3948  0.3086  0.7030
  942MOL0     H29928   1.292   5.106   6.160  0.0489 -0.6784  0.8483
  942MOL0     H29929   1.547   5.430   6.389  2.7782  0.1445  1.9729
  942MOL0     H29930   1.645   5.365   6.262 -2.8391  3.2670 -0.7126
  942MOL0     H29931   1.658   5.153   6.370  2.2370  1.0724  0.1123
  942MOL0     H29932   1.709   5.271   6.469 -0.5173  1.3223  0.0507
  942MOL0     H29933   1.413   5.181   6.522  0.6505 -0.1323  0.6558
  942MOL0     H29934   1.555   5.109   6.595 -0.2331 -0.0930 -1.5825
  942MOL0     H29935   1.594   5.318   6.720 -1.2523  1.4254  0.9673
  942MOL0     H29936   1.497   5.412   6.600  1.3919  1.4148  0.6693
  942MOL0     H29937   1.285   5.294   6.663 -0.5525  1.5919 -0.8693
  942MOL0     H29938   1.344   5.392   6.785 -2.2479  0.3873 -2.1092
  942MOL0     H29939   1.411   5.076   6.778 -0.4919 -0.9340  0.0676
  942MOL0     H29940   1.453   5.185   6.907  0.3928 -1.1197 -0.0326
  942MOL0     H29941   1.233   5.250   6.968  0.9257 -1.5914  1.8716
  942MOL0     H29942   1.242   5.087   6.984 -1.2687 -0.0770  0.0545
  942MOL0     H29943   1.028   5.125   6.875 -0.6978  2.4909 -0.6171
  942MOL0     H29944   1.095   5.220   6.756 -2.2927  0.8099  1.2360
  942MOL0     H29945   1.223   5.090   6.556  0.0401  0.2418  0.0708
  942MOL0     H29946   1.152   4.867   6.371  0.1509 -0.6834 -1.4558
  942MOL0     H29947   1.210   4.718   6.437 -2.7875  0.4051 -0.7219
  942MOL0     H29948   1.371   4.973   6.387 -0.3226  0.5053 -3.6207
  942MOL0     H29949   1.435   4.832   6.473 -3.3155 -1.0815  2.6749
  942MOL0     H29950   1.393   4.694   6.274 -0.9724 -0.7736 -0.2083
  942MOL0     H29951   1.328   4.829   6.193  0.2620 -0.8951 -0.6091
  942MOL0     H29952   1.611   4.830   6.304  3.0407 -2.7132 -1.8432
  942MOL0     H29953   1.574   4.764   6.147  2.0050  0.3331  1.2144
  942MOL0     H29954   1.778   4.860   6.171 -3.4058 -0.3072  0.1590
  942MOL0     H29955   2.051   4.929   5.954  1.2052 -0.7784  1.0378
  942MOL0     H29956   1.993   4.829   6.087  2.7413 -0.7736 -0.3975
  942MOL0     H29957   2.100   4.971   6.112  2.0432 -1.7514 -1.7678
  942MOL0     H29958   2.259   5.414   5.981 -0.2804  4.0389 -4.7038
  942MOL0     H29959   2.456   5.450   5.845 -0.1589  1.3040  2.7869
  942MOL0     H29960   2.672   5.151   5.569 -2.3545 -3.1435 -1.6412
  942MOL0     H29961   2.502   5.180   5.512 -0.4546  2.1508  0.5353
  942MOL0     H29962   2.656   5.282   5.352  0.0642  0.1279 -0.1855
  942MOL0     H29963   2.560   5.405   5.436  1.0338  0.8385  0.5853
  942MOL0     H29964   2.845   5.325   5.525  1.1392  1.5796 -1.5029
  942MOL0     H29965   2.757   5.456   5.595 -2.8603 -1.3008  0.9250
  942MOL0     H29966   2.744   5.552   5.371 -0.3987  1.0253  1.9022
  942MOL0     H29967   2.880   5.426   5.319 -1.4961 -0.6035 -0.9957
  942MOL0     H29968   2.894   5.655   5.508 -1.3135 -1.0195  0.1784
  942MOL0     H29969   3.012   5.530   5.489 -0.1059  2.4150  2.8703
  942MOL0     H29970   3.036   5.573   5.251 -1.6679 -0.8782 -0.6219
  942MOL0     H29971   3.084   5.717   5.352  0.5230 -0.9026 -1.1869
  942MOL0     H29972   2.807   5.713   5.247  0.9021 -2.2073  2.5305
  942MOL0     H29973   2.935   5.753   5.130  3.6471  0.5462  0.5699
  942MOL0     H29974   3.002   5.949   5.278  0.3655 -0.8692 -1.5538
  942MOL0     H29975   2.903   5.879   5.414 -0.6699 -0.5398 -0.3147
  942MOL0     H29976   2.409   5.056   5.673  2.2458 -0.4786  2.1129
  942MOL0     H29977   2.216   5.014   5.809 -0.9726 -0.3604 -0.5943
  942MOL0     H29978   1.751   5.311   5.966  0.5825  0.4834  3.3252
  942MOL0     H29979   1.554   5.205   6.068 -1.3124 -1.2172  1.9370
  942MOL0     H29980   1.315   5.463   6.403 -0.0899  0.3733 -0.9134
  942MOL0     H29981   1.080   5.440   6.440 -1.7389  2.3654 -2.6623
  942MOL0     H29982   0.570   5.180   6.214  0.8316 -3.4077 -0.4632
  942MOL0     H29983   0.366   5.154   6.338  0.4890  4.0331  0.8343
  942MOL0     H29984   0.325   4.910   6.514  0.3912  0.6279  0.2402
  942MOL0     H29985   0.301   4.931   6.689 -0.9532  1.7059  1.2373
  942MOL0     H29986   0.117   5.072   6.491 -0.0660 -1.1946 -1.4691
  942MOL0     H29987   0.108   5.073   6.670  1.4129 -2.2727  1.8424
  942MOL0     H29988   0.043   4.837   6.670 -1.4504  0.8647  0.4677
  942MOL0     H29989  -0.061   4.934   6.574 -0.5628  0.5474 -1.7492
  942MOL0     H29990   0.076   4.702   6.497 -0.0101 -1.0991 -2.3871
  942MOL0     H29991   0.147   4.818   6.397 -0.3289 -1.7088 -0.8183
  942MOL0     H29992  -0.192   4.807   6.191  0.2732 -1.5518 -0.5340
  942MOL0     H29993   0.591   5.087   6.696 -0.5548 -2.1630 -0.0538
  942MOL0     H29994   0.862   5.255   6.622 -2.2146  0.4039 -0.1163
  942MOL0     H29995   0.824   5.097   6.708 -0.3603 -0.6777 -0.1130
  942MOL0     H29996   0.922   5.101   6.563  0.3232  1.9612 -0.8814
  943MOL0     O29997  11.065   8.205  10.016 -0.6767 -0.1777 -0.3710
  943MOL0     C29998  11.045   8.090   9.984  0.6867 -0.0189  0.2540
  943MOL0     O29999  11.138   8.005   9.930 -0.7358 -0.3085  0.5312
  943MOL0     C30000  11.265   8.045   9.898  0.2655  0.0981 -0.8233
  943MOL0     C30001  11.315   7.980   9.778 -0.3237 -0.4551  0.2195
  943MOL0     C30002  11.445   7.998   9.742  0.3015 -0.3908  0.9090
  943MOL0     C30003  11.526   8.081   9.818 -0.7614  0.6057 -0.1489
  943MOL0     O30004  11.657   8.110   9.781 -0.2100  0.0914 -0.1183
  943MOL0     C30005  11.741   8.006   9.724  0.0266 -0.3073 -0.1234
  943MOL0     C30006  11.754   7.893   9.833  0.0044  0.0644 -0.3859
  943MOL0     C30007  11.843   7.923   9.953 -1.0282  0.2131 -0.0920
  943MOL0     C30008  11.990   7.915   9.923  0.2271 -0.1221  0.1187
  943MOL0     C30009  12.080   7.942  10.046 -0.3018 -0.9230  0.2266
  943MOL0     C30010  12.230   7.916  10.012  0.5417  0.3987  0.0083
  943MOL0     C30011  12.272   7.779  10.069 -0.1855  0.0830  0.0207
  943MOL0     C30012  12.424   7.769  10.080  0.2191  0.1195  0.7108
  943MOL0     N30013  12.489   7.748   9.952  0.2619  0.4982  0.0740
  943MOL0     C30014  12.555   7.847   9.882  0.4553  0.6239 -0.5373
  943MOL0     C30015  12.575   7.790   9.762 -0.2657  0.5924  0.4742
  943MOL0     C30016  12.628   7.861   9.639  0.1573  0.5961 -0.2565
  943MOL0     C30017  12.774   7.853   9.647  0.0818  0.0695  0.0682
  943MOL0     C30018  12.835   7.906   9.519  0.3851 -0.4784  0.2453
  943MOL0     C30019  12.803   8.048   9.452  1.0972  0.8524  0.5056
  943MOL0     O30020  12.824   8.154   9.539 -0.2782 -0.5355  0.1963
  943MOL0     C30021  12.950   8.209   9.522  0.5695 -0.7433  0.3452
  943MOL0     C30022  13.055   8.183   9.606  0.0208 -0.9038 -0.1464
  943MOL0     C30023  13.190   8.235   9.593 -0.4790 -0.2793 -0.1317
  943MOL0     C30024  13.290   8.189   9.690  1.2038 -0.0884 -1.3051
  943MOL0     C30025  13.212   8.326   9.490 -0.7940  0.3270  0.3752
  943MOL0     C30026  13.337   8.385   9.453 -0.3264  0.4809  0.0847
  943MOL0     O30027  13.450   8.309   9.476  0.6185  0.1690 -0.3296
  943MOL0     C30028  13.578   8.350   9.483  1.0571  0.2512 -0.2545
  943MOL0     C30029  13.675   8.257   9.463 -1.2214 -0.5570 -0.0265
  943MOL0     C30030  13.814   8.298   9.474 -0.6561 -1.0487 -0.7714
  943MOL0     C30031  13.844   8.435   9.505  0.3054  0.4062  0.6659
  943MOL0     O30032  13.963   8.486   9.526  0.5822 -0.4923  0.2746
  943MOL0     C30033  14.080   8.420   9.481 -0.2030 -0.3835 -0.6242
  943MOL0     C30034  14.201   8.457   9.580  0.2205 -0.1955  1.1236
  943MOL0     C30035  14.278   8.589   9.547  0.7651  0.0319  0.4073
  943MOL0     C30036  14.358   8.572   9.419  0.2062 -0.0849  0.1881
  943MOL0     C30037  14.442   8.699   9.401  0.3517 -0.7077 -0.2734
  943MOL0     C30038  14.538   8.683   9.283 -0.4069 -0.0839  0.4299
  943MOL0     C30039  14.662   8.605   9.311  0.5622  0.1803 -0.2414
  943MOL0     C30040  14.756   8.617   9.194 -0.2416 -0.5459  0.2431
  943MOL0    Cl30041  14.691   8.514   9.053 -0.1978  0.0463 -0.2774
  943MOL0     C30042  13.738   8.527   9.530 -0.5326  1.1478 -0.3456
  943MOL0     C30043  13.602   8.484   9.514 -0.2862  0.5376  0.9514
  943MOL0     O30044  13.333   8.495   9.386  0.7511  0.1152 -0.5352
  943MOL0     C30045  13.105   8.365   9.407 -0.0899 -1.1279  0.6310
  943MOL0     C30046  12.975   8.306   9.421 -0.8415 -0.5654  0.6730
  943MOL0     N30047  12.520   7.659   9.768 -0.5485  0.0250  0.0234
  943MOL0     N30048  12.479   7.634   9.887 -0.3281 -0.1437 -0.3109
  943MOL0     C30049  11.471   8.135   9.931 -0.4754  0.6552 -0.9668
  943MOL0     C30050  11.345   8.127   9.978 -0.1626 -0.1263  0.0960
  943MOL0     C30051  10.898   8.037   9.998 -0.0210 -0.1230  0.7499
  943MOL0     C30052  10.859   7.923   9.915  1.0395 -0.5729 -0.1687
  943MOL0     C30053  10.731   7.879   9.912  0.8549 -0.3072  0.0240
  943MOL0     C30054  10.627   7.946   9.980 -0.3847  0.0386  0.2685
  943MOL0     O30055  10.496   7.896   9.970 -0.0952 -0.1807  0.0033
  943MOL0     C30056  10.378   7.965  10.011 -0.5960  0.0185 -0.3455
  943MOL0     C30057  10.335   8.060   9.901 -0.3056 -0.1147 -0.4032
  943MOL0     C30058  10.311   7.987   9.774 -0.0235  0.2326  0.3596
  943MOL0     C30059  10.220   7.865   9.782 -0.7113  0.0690 -0.2229
  943MOL0     C30060  10.093   7.898   9.854  0.0144 -0.1236  0.0437
  943MOL0     C30061  10.007   7.946   9.922 -0.3573 -0.1820  0.6661
  943MOL0     C30062  10.666   8.062  10.050  0.8265 -0.0312  0.4707
  943MOL0     C30063  10.801   8.101  10.074  0.6517 -0.3755  0.4861
  943MOL0     C30064  10.827   8.214  10.168  0.4017 -0.4048  0.2558
  943MOL0     H30065  11.252   7.920   9.714  0.1627  1.1543 -1.9046
  943MOL0     H30066  11.486   7.956   9.651 -1.5861  0.9938 -0.6603
  943MOL0     H30067  11.838   8.052   9.704  0.3712  0.7203  3.2710
  943MOL0     H30068  11.697   7.967   9.632  0.5083 -0.5050 -0.2693
  943MOL0     H30069  11.656   7.858   9.867  1.1225 -2.0382  0.8523
  943MOL0     H30070  11.795   7.807   9.780  1.9338  0.9140 -0.3397
  943MOL0     H30071  11.830   8.022   9.996  1.9019  0.8593 -0.5371
  943MOL0     H30072  11.813   7.852  10.031  0.4773  0.0149  0.3252
  943MOL0     H30073  12.016   7.818   9.881 -1.6066 -0.9998  0.9162
  943MOL0     H30074  12.016   7.988   9.845  1.7250  0.6636  1.3002
  943MOL0     H30075  12.044   7.884  10.131 -0.2197 -1.7793 -0.3063
  943MOL0     H30076  12.068   8.050  10.063 -0.7514 -0.8831 -0.2879
  943MOL0     H30077  12.243   7.940   9.906 -0.0795  2.6468  0.3778
  943MOL0     H30078  12.296   7.986  10.063  1.4996 -0.5787  0.1401
  943MOL0     H30079  12.231   7.703  10.001  2.9573 -2.3609  0.6506
  943MOL0     H30080  12.232   7.766  10.171 -2.2124 -1.4510 -0.8816
  943MOL0     H30081  12.455   7.864  10.124 -0.3306  0.9074 -0.5583
  943MOL0     H30082  12.467   7.692  10.146  0.6290  0.0950  0.4254
  943MOL0     H30083  12.570   7.952   9.906 -2.4668  0.9862  0.0374
  943MOL0     H30084  12.583   7.959   9.620  1.5288  1.5028  0.9648
  943MOL0     H30085  12.594   7.800   9.555 -0.5451  3.2034 -1.9906
  943MOL0     H30086  12.818   7.901   9.735  2.6794  2.2482 -2.2623
  943MOL0     H30087  12.800   7.747   9.653 -0.1622  0.0849  1.8674
  943MOL0     H30088  12.944   7.902   9.532  0.2387  1.9230  3.6213
  943MOL0     H30089  12.803   7.837   9.441 -1.7675 -0.6053  1.1782
  943MOL0     H30090  12.864   8.050   9.361 -0.2357 -1.0352 -0.4693
  943MOL0     H30091  12.701   8.046   9.414  0.4398 -0.1635  2.2187
  943MOL0     H30092  13.031   8.109   9.683 -0.6239  1.1483  1.7352
  943MOL0     H30093  13.325   8.269   9.756 -0.9569 -0.6848  0.6882
  943MOL0     H30094  13.382   8.152   9.643  4.9114  2.8973  2.8421
  943MOL0     H30095  13.246   8.113   9.755  0.8412  0.5649 -0.7773
  943MOL0     H30096  13.657   8.153   9.440 -0.7962 -0.7057  0.3157
  943MOL0     H30097  13.899   8.232   9.472  0.4402  0.2666  0.2206
  943MOL0     H30098  14.074   8.310   9.483 -2.3508 -0.3296  1.9190
  943MOL0     H30099  14.101   8.452   9.379  0.8882 -1.9077 -0.9181
  943MOL0     H30100  14.155   8.458   9.679  1.1671  2.6648  1.6337
  943MOL0     H30101  14.266   8.370   9.571  0.0284 -0.3226  0.9715
  943MOL0     H30102  14.346   8.618   9.627  2.9664 -0.0873 -1.3338
  943MOL0     H30103  14.204   8.667   9.525 -0.9959 -1.7731 -0.3691
  943MOL0     H30104  14.295   8.570   9.330  0.1542  0.3694  0.2155
  943MOL0     H30105  14.423   8.485   9.431  3.3956  2.1218  0.1251
  943MOL0     H30106  14.374   8.781   9.372  1.6356  0.8152  0.8391
  943MOL0     H30107  14.487   8.733   9.494 -0.7796 -2.1732  0.8478
  943MOL0     H30108  14.565   8.783   9.247 -3.7592  0.2775 -1.4543
  943MOL0     H30109  14.488   8.637   9.198  0.3914  0.0977 -0.1472
  943MOL0     H30110  14.637   8.500   9.328 -3.0275  0.9377 -0.0150
  943MOL0     H30111  14.701   8.639   9.407 -0.5793 -1.1894  0.7512
  943MOL0     H30112  14.852   8.583   9.233 -0.6810 -0.9530  0.9883
  943MOL0     H30113  14.759   8.720   9.157 -0.8987 -1.4785 -2.6561
  943MOL0     H30114  13.763   8.630   9.551  3.3329  0.4381 -0.7037
  943MOL0     H30115  13.527   8.562   9.528 -1.5275 -0.7827  2.0606
  943MOL0     H30116  13.110   8.445   9.334 -2.8268 -1.6892 -0.2937
  943MOL0     H30117  12.899   8.337   9.350  0.0543  2.9091  1.0695
  943MOL0     H30118  11.541   8.175  10.004 -0.4356  0.6024 -0.9763
  943MOL0     H30119  11.304   8.174  10.067  1.0013 -1.4840  1.3925
  943MOL0     H30120  10.921   7.874   9.841 -1.3785 -0.4838 -2.3701
  943MOL0     H30121  10.711   7.789   9.856 -2.0455 -1.0318  1.9610
  943MOL0     H30122  10.298   7.894  10.031  0.4767 -1.2910 -0.6016
  943MOL0     H30123  10.386   8.018  10.107 -0.6214 -0.2265 -0.2093
  943MOL0     H30124  10.429   8.110   9.878  2.6370 -3.2681  3.2429
  943MOL0     H30125  10.245   8.119   9.917  2.3406  3.8175  1.7578
  943MOL0     H30126  10.270   8.056   9.699 -0.3474 -1.9986 -1.6228
  943MOL0     H30127  10.403   7.955   9.726  0.3074  0.2392  0.9777
  943MOL0     H30128  10.281   7.791   9.834 -0.6011  0.9201  0.8979
  943MOL0     H30129  10.193   7.831   9.681  0.8083  1.4886 -1.1614
  943MOL0     H30130   9.934   8.004   9.975 -0.2359  2.5324 -1.8254
  943MOL0     H30131  10.583   8.116  10.093  1.6446  1.5873  0.1011
  943MOL0     H30132  10.750   8.229  10.244  0.7027 -0.7785  0.6442
  943MOL0     H30133  10.919   8.206  10.227  0.5560 -3.4453 -0.2250
  943MOL0     H30134  10.838   8.299  10.100  0.8917 -1.1578 -0.6262
  944MOL0     O30135   0.464   2.962  10.996  0.4384 -0.2944 -0.5913
  944MOL0     C30136   0.389   3.030  11.064  0.5925 -0.2189 -0.5199
  944MOL0     O30137   0.434   3.143  11.122 -0.6380 -0.1964 -0.1808
  944MOL0     C30138   0.569   3.159  11.141 -0.7675  0.4010 -0.2403
  944MOL0     C30139   0.640   3.269  11.089 -0.2708 -0.1626 -0.0861
  944MOL0     C30140   0.784   3.276  11.087 -0.1098 -0.2230  0.7148
  944MOL0     C30141   0.847   3.168  11.141  0.1994  0.7586  0.0893
  944MOL0     O30142   0.980   3.158  11.144  0.0433  0.2376  0.3202
  944MOL0     C30143   1.057   3.266  11.095 -0.3378 -0.0983  0.1685
  944MOL0     C30144   1.203   3.229  11.114  0.0052 -0.3321 -0.7429
  944MOL0     C30145   1.313   3.344  11.098  0.6923  0.3844 -0.6196
  944MOL0     C30146   1.454   3.282  11.095  1.3567 -0.1080  0.4477
  944MOL0     C30147   1.553   3.369  11.017  0.0635 -0.1962 -1.1869
  944MOL0     C30148   1.689   3.290  11.025  0.3496 -0.8319  0.2110
  944MOL0     C30149   1.802   3.358  10.955 -0.7699  0.2943  0.0116
  944MOL0     C30150   1.943   3.298  11.005 -0.3604  0.4586 -0.9052
  944MOL0     N30151   2.053   3.369  10.947  0.5928 -0.2177  0.0996
  944MOL0     C30152   2.113   3.347  10.824  0.1325 -0.4751 -0.1079
  944MOL0     C30153   2.217   3.429  10.819 -0.1838 -0.0988  0.3264
  944MOL0     C30154   2.312   3.439  10.705 -1.1216 -0.6990 -0.0364
  944MOL0     C30155   2.438   3.353  10.719  0.5055  0.1315  0.7833
  944MOL0     C30156   2.439   3.203  10.676  0.1912 -0.0718  0.0244
  944MOL0     C30157   2.366   3.188  10.545  0.8621 -0.6896  1.1351
  944MOL0     O30158   2.432   3.252  10.426  0.3783  0.5363 -0.7098
  944MOL0     C30159   2.543   3.195  10.377 -0.3484  0.0259 -0.8400
  944MOL0     C30160   2.597   3.076  10.426 -0.1646  0.7654  0.7364
  944MOL0     C30161   2.706   3.011  10.363  0.1172 -0.3961 -0.6106
  944MOL0     C30162   2.742   2.874  10.412  1.1208  0.0100  0.1997
  944MOL0     C30163   2.755   3.065  10.244 -0.7333  0.2870  0.3301
  944MOL0     C30164   2.874   2.998  10.167 -0.4804  0.0591  0.8219
  944MOL0     O30165   2.898   3.065  10.052  0.6021  0.2122 -0.4742
  944MOL0     C30166   3.008   3.015   9.986  1.3577  0.1767 -0.6561
  944MOL0     C30167   2.995   2.903   9.899  0.0014 -0.7088 -0.2331
  944MOL0     C30168   3.112   2.856   9.837  0.4745  0.4010  0.1100
  944MOL0     C30169   3.243   2.908   9.854  0.8118  0.2088  0.4527
  944MOL0     O30170   3.363   2.855   9.798 -0.5021  0.3691 -0.4829
  944MOL0     C30171   3.368   2.711   9.780 -0.1744 -0.1824 -0.6012
  944MOL0     C30172   3.513   2.682   9.737  0.2227 -0.3871  0.3391
  944MOL0     C30173   3.527   2.546   9.683  0.0209  0.0532  0.1340
  944MOL0     C30174   3.663   2.511   9.616  0.0231 -0.0388  0.6517
  944MOL0     C30175   3.693   2.365   9.619 -0.1886 -0.0756 -0.2814
  944MOL0     C30176   3.839   2.330   9.592  0.0127 -0.1482  0.8884
  944MOL0     C30177   3.861   2.175   9.617 -0.0953 -0.3502  0.1531
  944MOL0     C30178   4.001   2.137   9.614  0.0020 -0.2188  0.3226
  944MOL0    Cl30179   4.060   2.122   9.448  0.2509 -0.6634  0.3152
  944MOL0     C30180   3.255   3.022   9.938  0.8845  0.4443  0.4859
  944MOL0     C30181   3.136   3.070  10.005 -0.1704 -0.2755 -0.2237
  944MOL0     O30182   2.928   2.895  10.203  0.1060 -0.5321  0.4444
  944MOL0     C30183   2.700   3.183  10.199 -0.5102  0.3240  1.4708
  944MOL0     C30184   2.590   3.241  10.259 -0.2302  1.2379  0.5634
  944MOL0     N30185   2.223   3.492  10.937 -0.7446 -0.4666  0.2294
  944MOL0     N30186   2.127   3.462  11.008 -0.1091 -0.0194 -0.4818
  944MOL0     C30187   0.778   3.057  11.200 -0.7944  0.0864 -0.1391
  944MOL0     C30188   0.643   3.055  11.202  0.1049 -0.0803 -0.0751
  944MOL0     C30189   0.249   2.976  11.083 -0.3848  0.0416 -0.0287
  944MOL0     C30190   0.166   3.044  11.174 -0.5698 -0.2970  0.2014
  944MOL0     C30191   0.035   3.000  11.203  0.1899  0.1541  0.1103
  944MOL0     C30192  -0.023   2.894  11.137 -0.1102  0.3333 -0.5884
  944MOL0     O30193  -0.154   2.845  11.152  1.3072 -0.1455 -0.2122
  944MOL0     C30194  -0.263   2.940  11.186 -0.3344 -0.0710 -0.2886
  944MOL0     C30195  -0.374   2.865  11.261  0.5504  0.1968 -0.3810
  944MOL0     C30196  -0.408   2.717  11.217  0.1813 -0.2664  0.8670
  944MOL0     C30197  -0.469   2.715  11.068 -0.2301 -0.1941 -0.6391
  944MOL0     C30198  -0.602   2.768  11.060  0.7885 -0.8873  0.5618
  944MOL0     C30199  -0.707   2.831  11.044  0.2361  0.0451  0.5522
  944MOL0     C30200   0.048   2.838  11.036 -0.3616 -0.7198 -0.6249
  944MOL0     C30201   0.180   2.874  11.006 -0.8015  0.3912 -0.7613
  944MOL0     C30202   0.238   2.804  10.885  0.0561  0.1504 -0.0992
  944MOL0     H30203   0.592   3.353  11.038  1.4281  1.3311  0.6648
  944MOL0     H30204   0.833   3.358  11.037  1.5635 -1.0842  0.8708
  944MOL0     H30205   1.040   3.356  11.155  0.7631  0.4558 -0.3221
  944MOL0     H30206   1.027   3.283  10.991  0.9056 -0.3041 -0.2497
  944MOL0     H30207   1.212   3.189  11.216 -1.0598 -1.9740 -1.2497
  944MOL0     H30208   1.227   3.135  11.063 -2.2008 -1.9412  1.0013
  944MOL0     H30209   1.293   3.411  11.014  2.8549  1.5815 -0.2456
  944MOL0     H30210   1.303   3.412  11.183  3.1294 -0.1882  0.2122
  944MOL0     H30211   1.496   3.259  11.193  0.7229  0.0718  0.7674
  944MOL0     H30212   1.446   3.184  11.048 -2.1111 -0.5580  1.7200
  944MOL0     H30213   1.560   3.462  11.074 -0.8374 -1.1247  0.5498
  944MOL0     H30214   1.511   3.389  10.918  2.2915  2.7933 -1.6677
  944MOL0     H30215   1.704   3.275  11.132  0.7929  1.3595  0.5132
  944MOL0     H30216   1.668   3.194  10.976 -1.4293  0.7822 -2.4792
  944MOL0     H30217   1.808   3.464  10.982  1.6350 -0.2696  2.1197
  944MOL0     H30218   1.793   3.345  10.847  0.9472 -3.1637  0.1386
  944MOL0     H30219   1.946   3.305  11.114  0.1127 -0.8546 -0.8110
  944MOL0     H30220   1.961   3.192  10.981  2.2115 -0.3210  3.3577
  944MOL0     H30221   2.077   3.286  10.742  0.0284 -0.2334 -0.2428
  944MOL0     H30222   2.344   3.543  10.718  2.0950 -1.4333 -1.1135
  944MOL0     H30223   2.262   3.436  10.608 -2.3514 -1.3188  0.5951
  944MOL0     H30224   2.528   3.392  10.669  1.7434 -3.2508  0.0437
  944MOL0     H30225   2.466   3.355  10.825  1.8831  2.0602  0.4394
  944MOL0     H30226   2.543   3.169  10.675  0.6298  1.1147  1.4604
  944MOL0     H30227   2.385   3.143  10.749  1.0186 -0.5862  0.2267
  944MOL0     H30228   2.341   3.084  10.526 -3.4083  0.5005 -1.1652
  944MOL0     H30229   2.266   3.230  10.559  1.3025  1.1691 -0.8735
  944MOL0     H30230   2.562   3.020  10.512  0.1218 -1.1316 -0.3274
  944MOL0     H30231   2.711   2.806  10.332  2.5048 -1.1816  0.6326
  944MOL0     H30232   2.695   2.839  10.505  0.1658 -0.3884 -0.4116
  944MOL0     H30233   2.850   2.867  10.426  1.3206  1.4711 -0.4440
  944MOL0     H30234   2.897   2.857   9.899 -0.2303 -0.2393  0.8218
  944MOL0     H30235   3.117   2.763   9.780  2.0880  0.6135 -0.1379
  944MOL0     H30236   3.336   2.664   9.873 -1.1298  2.9974  0.8476
  944MOL0     H30237   3.297   2.675   9.704 -0.6682 -0.9268  0.1974
  944MOL0     H30238   3.527   2.751   9.653 -3.4397  1.2217  0.8972
  944MOL0     H30239   3.578   2.704   9.823 -0.9571  1.1522  0.8805
  944MOL0     H30240   3.444   2.534   9.612  1.1676  0.2288 -1.2951
  944MOL0     H30241   3.522   2.480   9.770  0.5848 -0.0840  0.0666
  944MOL0     H30242   3.746   2.554   9.673 -1.4424  2.6493  0.9308
  944MOL0     H30243   3.666   2.557   9.517 -0.8718  0.3255  0.7758
  944MOL0     H30244   3.667   2.335   9.721  0.8302  0.0029  0.0177
  944MOL0     H30245   3.633   2.304   9.552  2.3709 -3.2332  0.0693
  944MOL0     H30246   3.899   2.375   9.671  0.0517  1.6031 -0.0780
  944MOL0     H30247   3.871   2.358   9.490  0.2589  0.1235  1.0369
  944MOL0     H30248   3.792   2.124   9.548 -1.2989  0.4917  0.7126
  944MOL0     H30249   3.839   2.152   9.721  2.1262 -0.7371  0.5750
  944MOL0     H30250   4.012   2.036   9.654  0.3368 -0.7979 -1.1456
  944MOL0     H30251   4.066   2.199   9.675  0.4119 -1.6558  1.3977
  944MOL0     H30252   3.352   3.069   9.950  1.0905  0.3679 -0.7690
  944MOL0     H30253   3.156   3.165  10.052  3.6064  0.3688 -2.7144
  944MOL0     H30254   2.722   3.213  10.097  0.6187 -0.1620  1.5586
  944MOL0     H30255   2.538   3.325  10.215 -0.2892  1.4218  0.9784
  944MOL0     H30256   0.840   2.983  11.251 -0.2205  0.5025 -0.2170
  944MOL0     H30257   0.596   2.973  11.257  0.5774 -0.4649 -0.2389
  944MOL0     H30258   0.217   3.120  11.231  1.3475 -1.6729  0.4012
  944MOL0     H30259  -0.017   3.060  11.277  0.3883  1.7203 -0.9848
  944MOL0     H30260  -0.233   3.031  11.238  1.2139 -0.1956 -0.9075
  944MOL0     H30261  -0.299   2.980  11.090  2.3438 -0.3672 -1.5166
  944MOL0     H30262  -0.462   2.925  11.236  0.3859  0.0295 -0.2054
  944MOL0     H30263  -0.360   2.862  11.369 -2.5898 -0.4712  0.0876
  944MOL0     H30264  -0.315   2.659  11.221  1.2903  1.2239 -1.3752
  944MOL0     H30265  -0.478   2.669  11.287 -1.1054  2.4645  1.5701
  944MOL0     H30266  -0.479   2.611  11.035 -3.3182  0.4528 -2.0940
  944MOL0     H30267  -0.407   2.759  10.989 -0.0809  0.5775 -0.1043
  944MOL0     H30268  -0.794   2.893  11.033  0.8137  0.8680  0.5362
  944MOL0     H30269  -0.004   2.756  10.988 -0.2878 -0.9486 -0.3188
  944MOL0     H30270   0.158   2.772  10.818 -2.8854  1.6317  2.4751
  944MOL0     H30271   0.299   2.878  10.832  1.5385  0.3678  1.8233
  944MOL0     H30272   0.299   2.722  10.924  0.9986  1.3016  0.9096
  945MOL0     O30273   7.355  10.383   9.006  0.2649  0.6461  0.3144
  945MOL0     C30274   7.330  10.368   8.888  0.1377  0.4001 -0.2113
  945MOL0     O30275   7.427  10.372   8.791 -0.1819 -0.1656 -0.4682
  945MOL0     C30276   7.556  10.351   8.822 -0.6694 -0.4324 -0.3946
  945MOL0     C30277   7.604  10.258   8.920  0.0359  0.1195 -0.1543
  945MOL0     C30278   7.737  10.244   8.949  0.4264  0.5901  0.1167
  945MOL0     C30279   7.832  10.321   8.874  0.2906 -0.3826 -0.1106
  945MOL0     O30280   7.968  10.316   8.882  0.3577  1.4059  0.0389
  945MOL0     C30281   8.024  10.219   8.971  0.5880 -0.1063  0.2981
  945MOL0     C30282   8.174  10.194   8.931  0.3362  0.1679 -0.7257
  945MOL0     C30283   8.254  10.317   8.935 -0.2147  0.7866  0.2346
  945MOL0     C30284   8.310  10.339   9.074  0.4786 -0.0257  0.2293
  945MOL0     C30285   8.362  10.479   9.082  0.8502 -0.3205  0.0504
  945MOL0     C30286   8.458  10.501   9.199  0.2383  0.1711  0.9336
  945MOL0     C30287   8.525  10.632   9.196 -0.0806 -0.3124  0.6643
  945MOL0     C30288   8.429  10.750   9.234  0.6003 -0.5837  0.5239
  945MOL0     N30289   8.368  10.738   9.376  0.7742  0.0791 -0.0084
  945MOL0     C30290   8.237  10.754   9.417 -0.3860 -1.0830  0.1364
  945MOL0     C30291   8.246  10.743   9.552  0.3516  0.3174 -0.0311
  945MOL0     C30292   8.136  10.749   9.662  0.2029 -0.0873  0.2989
  945MOL0     C30293   7.996  10.723   9.602  0.4382 -0.0022 -0.0084
  945MOL0     C30294   7.888  10.715   9.711  0.0830 -0.6725  0.2507
  945MOL0     C30295   7.829  10.853   9.762  1.1104  0.2504 -0.2841
  945MOL0     O30296   7.725  10.829   9.860  0.0045  0.5741  0.7908
  945MOL0     C30297   7.591  10.809   9.829 -0.5543 -0.1900  0.0157
  945MOL0     C30298   7.494  10.807   9.931 -0.0304 -0.6014  0.0192
  945MOL0     C30299   7.355  10.793   9.907  0.2227  0.5420 -0.4090
  945MOL0     C30300   7.262  10.798  10.026  0.0854  0.3881  0.5824
  945MOL0     C30301   7.313  10.781   9.775  0.4262 -0.0109  0.0100
  945MOL0     C30302   7.172  10.768   9.734 -1.2358 -0.0451  0.1588
  945MOL0     O30303   7.162  10.726   9.602 -0.5133 -0.0062 -0.2300
  945MOL0     C30304   7.033  10.696   9.569 -0.3977 -0.6249 -1.1842
  945MOL0     C30305   6.974  10.572   9.563 -0.2726  0.0196 -0.7987
  945MOL0     C30306   6.844  10.559   9.518 -0.3131  0.6690  0.3067
  945MOL0     C30307   6.771  10.671   9.475 -0.1086 -0.4836  0.1892
  945MOL0     O30308   6.654  10.672   9.404  0.3826 -0.0201  0.2769
  945MOL0     C30309   6.577  10.553   9.405  0.2492 -0.3161 -0.2063
  945MOL0     C30310   6.449  10.585   9.331 -0.2304  0.0834 -0.7548
  945MOL0     C30311   6.337  10.494   9.360  0.0007  0.0729 -0.2717
  945MOL0     C30312   6.215  10.521   9.266 -0.0713  0.1551  0.3712
  945MOL0     C30313   6.093  10.438   9.303 -0.7075 -0.2507 -0.1758
  945MOL0     C30314   6.037  10.480   9.438 -0.3742  0.2176  0.4512
  945MOL0     C30315   5.896  10.416   9.450 -1.0605  0.0107  0.8637
  945MOL0     C30316   5.838  10.432   9.593  0.0712 -0.2031 -0.0557
  945MOL0    Cl30317   5.792  10.603   9.651  0.1308 -0.1690 -0.2262
  945MOL0     C30318   6.832  10.797   9.484 -0.4389 -0.2813  0.3655
  945MOL0     C30319   6.957  10.811   9.532 -0.6113 -0.4774 -0.0218
  945MOL0     O30320   7.074  10.793   9.803  0.4347 -0.1767 -0.3037
  945MOL0     C30321   7.413  10.774   9.673  0.6267 -0.4542  1.0225
  945MOL0     C30322   7.547  10.786   9.700  0.0199  0.4657 -0.3830
  945MOL0     N30323   8.376  10.728   9.585  0.2811  0.1575  0.0578
  945MOL0     N30324   8.444  10.715   9.479 -0.3726  0.0803  0.2619
  945MOL0     C30325   7.785  10.416   8.774 -0.3936  1.0228 -0.3497
  945MOL0     C30326   7.651  10.434   8.758  0.5346  0.3447 -0.1876
  945MOL0     C30327   7.195  10.316   8.852 -0.0947  0.5605 -0.6048
  945MOL0     C30328   7.114  10.259   8.953  0.7755  0.3562  0.8587
  945MOL0     C30329   6.983  10.216   8.929  0.0867  0.9029 -0.5487
  945MOL0     C30330   6.923  10.215   8.803 -0.7983 -0.5807  0.4262
  945MOL0     O30331   6.795  10.176   8.794  0.7421 -0.2237 -0.3545
  945MOL0     C30332   6.744  10.145   8.658 -0.4821  0.0692 -0.7660
  945MOL0     C30333   6.632  10.048   8.665 -0.4986  0.3911 -1.3760
  945MOL0     C30334   6.587  10.007   8.530  0.0294  0.7425 -0.1301
  945MOL0     C30335   6.459   9.923   8.538 -0.6553  0.4014  0.4557
  945MOL0     C30336   6.416   9.900   8.401 -0.1333 -0.0924  0.3575
  945MOL0     C30337   6.369   9.876   8.291  0.1514  0.3377  0.1762
  945MOL0     C30338   7.001  10.281   8.700 -0.0035 -0.3363 -0.7034
  945MOL0     C30339   7.126  10.336   8.732 -0.2230  0.6729 -0.0717
  945MOL0     C30340   7.196  10.399   8.607  0.2534  0.2382 -0.2619
  945MOL0     H30341   7.538  10.194   8.978  0.8891 -1.0151 -0.3974
  945MOL0     H30342   7.766  10.175   9.027  1.1386  1.6803  0.8447
  945MOL0     H30343   7.981  10.119   8.970 -1.9222  0.8831  0.6314
  945MOL0     H30344   8.005  10.255   9.073 -1.6257 -0.4261  0.0511
  945MOL0     H30345   8.220  10.120   8.998  1.5346 -0.8017 -2.5343
  945MOL0     H30346   8.167  10.143   8.835 -0.1764 -2.2076  0.4830
  945MOL0     H30347   8.338  10.310   8.865 -0.4308  0.0687  0.0365
  945MOL0     H30348   8.187  10.400   8.912 -1.3925  0.2059  1.4792
  945MOL0     H30349   8.233  10.335   9.152 -0.6489 -0.1388 -0.8653
  945MOL0     H30350   8.388  10.267   9.102  0.5390  0.7811  2.3084
  945MOL0     H30351   8.281  10.552   9.072  1.6242  0.9179  2.1491
  945MOL0     H30352   8.417  10.503   8.990  0.7536 -3.0228 -0.7832
  945MOL0     H30353   8.400  10.473   9.288  2.0314 -1.2582  1.7153
  945MOL0     H30354   8.540  10.429   9.195 -0.6671 -0.7944 -1.8932
  945MOL0     H30355   8.565  10.646   9.095 -1.4053 -1.8375 -0.1044
  945MOL0     H30356   8.604  10.642   9.271 -1.3204 -0.0091  1.9733
  945MOL0     H30357   8.489  10.841   9.230  0.4337 -0.3867  1.8842
  945MOL0     H30358   8.347  10.766   9.163  1.2425  1.3970  0.1679
  945MOL0     H30359   8.146  10.769   9.361 -0.5307  0.5019  0.7578
  945MOL0     H30360   8.135  10.852   9.697  0.3600  0.0597 -0.1175
  945MOL0     H30361   8.152  10.677   9.743 -0.6407  2.3646  2.7965
  945MOL0     H30362   7.964  10.802   9.533  0.9678 -0.3245 -0.6308
  945MOL0     H30363   7.994  10.630   9.544 -0.6516  0.1159 -0.1889
  945MOL0     H30364   7.804  10.650   9.682 -1.1702  0.8850  0.2287
  945MOL0     H30365   7.922  10.669   9.804 -1.8055 -0.0643  1.3061
  945MOL0     H30366   7.904  10.912   9.817 -0.8428  1.2219  1.4745
  945MOL0     H30367   7.782  10.918   9.687 -0.7366  2.9314  2.9063
  945MOL0     H30368   7.531  10.834  10.029  0.3161  0.3081 -0.3480
  945MOL0     H30369   7.305  10.764  10.121  1.2396  2.7011  0.9510
  945MOL0     H30370   7.175  10.733  10.011  0.6960 -0.0407 -1.3721
  945MOL0     H30371   7.228  10.900  10.044 -0.2636  0.3474  0.1575
  945MOL0     H30372   7.041  10.490   9.588  1.9551  1.9411 -0.0791
  945MOL0     H30373   6.805  10.460   9.536 -0.7175  1.2845  3.2798
  945MOL0     H30374   6.639  10.476   9.358  1.9941  1.3437 -0.7544
  945MOL0     H30375   6.551  10.518   9.505  1.8115 -2.3106 -0.4238
  945MOL0     H30376   6.416  10.687   9.352 -0.5805 -0.6784  3.0719
  945MOL0     H30377   6.466  10.565   9.225  1.2774  2.2460 -0.9979
  945MOL0     H30378   6.297  10.506   9.461 -0.3781 -2.8036  0.0264
  945MOL0     H30379   6.377  10.392   9.365 -1.6022 -0.5427  0.9350
  945MOL0     H30380   6.251  10.496   9.166 -0.9599 -0.4743  0.1968
  945MOL0     H30381   6.189  10.627   9.280  0.5656  1.0950 -4.1161
  945MOL0     H30382   6.011  10.440   9.231 -0.2852 -0.3535 -0.6607
  945MOL0     H30383   6.113  10.331   9.293 -0.5935 -0.0109 -3.9495
  945MOL0     H30384   6.030  10.589   9.443  3.3604  0.6419 -0.6202
  945MOL0     H30385   6.111  10.443   9.509 -0.1021  1.0415  0.6052
  945MOL0     H30386   5.910  10.310   9.429  3.4340  0.9362 -2.4146
  945MOL0     H30387   5.826  10.453   9.375  0.8238 -0.2000 -1.1149
  945MOL0     H30388   5.904  10.384   9.666  2.4842  2.5587 -0.2606
  945MOL0     H30389   5.745  10.373   9.597 -2.0151  2.7577 -1.0727
  945MOL0     H30390   6.763  10.875   9.456  0.6423 -0.0265 -1.7568
  945MOL0     H30391   7.010  10.905   9.542 -0.6602 -0.5319  0.8207
  945MOL0     H30392   7.378  10.751   9.573  0.3184 -3.0133  1.6531
  945MOL0     H30393   7.614  10.784   9.614 -0.5954  0.5855 -0.8687
  945MOL0     H30394   7.861  10.474   8.724  3.2220 -1.1821  2.0633
  945MOL0     H30395   7.610  10.516   8.699  2.2177  2.2187  1.0928
  945MOL0     H30396   7.147  10.256   9.057 -0.0363 -1.7954  1.1003
  945MOL0     H30397   6.930  10.183   9.018 -0.0297 -1.5062 -1.4252
  945MOL0     H30398   6.705  10.241   8.620 -1.5192 -0.2093 -0.4389
  945MOL0     H30399   6.814  10.102   8.585  0.3256  0.1177 -0.0335
  945MOL0     H30400   6.546  10.093   8.716 -1.9276 -3.5200  0.1136
  945MOL0     H30401   6.663   9.957   8.718  2.6061  1.5198 -1.0447
  945MOL0     H30402   6.569  10.101   8.477  0.5466  3.3431  3.8607
  945MOL0     H30403   6.658   9.950   8.469 -1.7579 -0.0588 -1.5722
  945MOL0     H30404   6.377   9.978   8.585  0.3127  0.2660  2.4156
  945MOL0     H30405   6.471   9.837   8.604  2.3054  1.6260  1.7224
  945MOL0     H30406   6.327   9.844   8.198 -0.9173 -1.0596  1.1015
  945MOL0     H30407   6.964  10.304   8.600 -1.7373  2.5027  0.4492
  945MOL0     H30408   7.272  10.464   8.651 -2.3141  2.3412  1.3702
  945MOL0     H30409   7.223  10.327   8.529 -2.2257  1.1970 -2.1141
  945MOL0     H30410   7.124  10.463   8.556 -3.4557 -3.5257 -0.3508
  946MOL0     O30411  10.399   4.481   5.279 -0.0419 -1.1080  0.2848
  946MOL0     C30412  10.316   4.453   5.189 -0.2987 -0.1369  0.2912
  946MOL0     O30413  10.334   4.358   5.097  0.5574  0.9573 -0.4821
  946MOL0     C30414  10.414   4.258   5.137 -0.8249 -0.2396 -0.3432
  946MOL0     C30415  10.384   4.164   5.234  0.3075 -0.2516 -1.1632
  946MOL0     C30416  10.475   4.053   5.259 -0.5569  0.1180 -0.1828
  946MOL0     C30417  10.597   4.047   5.186 -0.4448 -0.0793  0.1225
  946MOL0     O30418  10.684   3.945   5.200  0.3536 -0.2969  0.3624
  946MOL0     C30419  10.728   3.902   5.326  0.4937 -1.4420 -0.2322
  946MOL0     C30420  10.814   3.776   5.297 -0.1000  0.5932  0.2504
  946MOL0     C30421  10.946   3.813   5.221  0.5624 -0.5579 -0.2898
  946MOL0     C30422  11.046   3.705   5.215 -0.2982  0.3922  0.5932
  946MOL0     C30423  11.179   3.760   5.166  0.1636 -0.0980 -0.2793
  946MOL0     C30424  11.293   3.674   5.233  0.2038 -0.4718  0.3731
  946MOL0     C30425  11.426   3.726   5.187  0.4564  0.2434 -0.1096
  946MOL0     C30426  11.457   3.859   5.260 -0.1581 -0.4685  0.0902
  946MOL0     N30427  11.589   3.913   5.218  0.8409 -0.6202  0.0568
  946MOL0     C30428  11.612   3.995   5.110 -0.2403  0.8263  0.4699
  946MOL0     C30429  11.734   4.044   5.118 -0.0291 -0.5247 -0.2179
  946MOL0     C30430  11.788   4.158   5.036 -0.3048  0.6665 -0.0023
  946MOL0     C30431  11.882   4.101   4.926 -0.1786  0.2772  0.0500
  946MOL0     C30432  11.839   3.992   4.831 -0.6199  0.5244 -0.8358
  946MOL0     C30433  11.941   3.956   4.724  0.0700  0.3006 -0.2977
  946MOL0     O30434  12.006   4.068   4.679  0.2177  0.1947  0.0231
  946MOL0     C30435  12.125   4.066   4.615  0.3945  0.4648  0.7046
  946MOL0     C30436  12.193   3.955   4.564 -0.8691 -0.2200 -0.2957
  946MOL0     C30437  12.326   3.967   4.514 -0.6797  1.3936  0.0187
  946MOL0     C30438  12.390   3.841   4.457 -0.3194  0.0101 -0.3547
  946MOL0     C30439  12.387   4.091   4.520 -0.3790 -0.4286  0.1149
  946MOL0     C30440  12.525   4.111   4.491 -1.6873  0.3132 -0.2792
  946MOL0     O30441  12.608   4.008   4.528  0.2515 -0.5999 -0.2940
  946MOL0     C30442  12.740   4.010   4.493  0.0493 -0.1993  0.1835
  946MOL0     C30443  12.836   4.103   4.520  0.2314 -0.7577  0.0336
  946MOL0     C30444  12.962   4.098   4.462  0.0652  0.1374 -0.8975
  946MOL0     C30445  12.997   3.986   4.387 -0.2584  0.3819 -0.3846
  946MOL0     O30446  13.120   3.957   4.337 -0.2602  0.0507 -0.6278
  946MOL0     C30447  13.233   4.060   4.342 -0.1165  0.2999  0.0233
  946MOL0     C30448  13.355   4.013   4.259 -0.5196 -0.3275 -0.5797
  946MOL0     C30449  13.470   4.082   4.332  0.2642 -0.2865 -0.2188
  946MOL0     C30450  13.587   4.112   4.238 -0.2623  0.0574  0.6869
  946MOL0     C30451  13.720   4.164   4.298 -0.3655  0.3307 -0.7171
  946MOL0     C30452  13.827   4.207   4.197  0.2863 -0.1330  0.3614
  946MOL0     C30453  13.952   4.239   4.272 -1.0275  0.3108 -0.1425
  946MOL0     C30454  14.077   4.245   4.191 -0.5333 -0.4198 -0.2513
  946MOL0    Cl30455  14.080   4.392   4.088 -0.1163  0.4884 -0.3128
  946MOL0     C30456  12.896   3.892   4.353 -0.1467 -1.1498 -0.1160
  946MOL0     C30457  12.770   3.901   4.411  0.8733 -0.5894  0.0848
  946MOL0     O30458  12.553   4.222   4.444  0.6032  0.3501 -0.1350
  946MOL0     C30459  12.317   4.201   4.571  0.6604  0.3681  0.3223
  946MOL0     C30460  12.185   4.189   4.616 -0.5092 -0.7899  0.2498
  946MOL0     N30461  11.791   3.997   5.235  0.5474  0.7352 -0.3050
  946MOL0     N30462  11.708   3.912   5.290 -0.0483  0.6156  0.2297
  946MOL0     C30463  10.623   4.144   5.090 -0.0102 -0.4797 -0.4862
  946MOL0     C30464  10.528   4.241   5.062 -0.7731  0.2232 -0.5023
  946MOL0     C30465  10.183   4.514   5.206  0.0580 -0.6019  0.5084
  946MOL0     C30466  10.067   4.442   5.192  0.2293  0.3534 -0.3851
  946MOL0     C30467   9.942   4.488   5.216 -0.2436  0.3598 -0.5964
  946MOL0     C30468   9.922   4.618   5.258 -0.5035  0.2880  0.6100
  946MOL0     O30469   9.806   4.673   5.301  0.1783 -0.1714  0.2005
  946MOL0     C30470   9.686   4.658   5.231  0.2751 -0.0511  0.5312
  946MOL0     C30471   9.593   4.781   5.261  0.7583 -0.0267  0.5135
  946MOL0     C30472   9.441   4.748   5.233 -0.2062  0.0647 -0.1599
  946MOL0     C30473   9.418   4.728   5.087 -0.6492 -1.0725  0.8895
  946MOL0     C30474   9.283   4.710   5.061  0.8957  0.0768 -0.7334
  946MOL0     C30475   9.164   4.693   5.030 -1.0565  0.8385  0.2000
  946MOL0     C30476  10.040   4.696   5.277 -0.4175  0.5116 -1.1638
  946MOL0     C30477  10.172   4.648   5.249  0.2366  0.1147  0.4379
  946MOL0     C30478  10.288   4.744   5.252 -0.3575  0.4172 -0.3577
  946MOL0     H30479  10.302   4.164   5.306  1.3682 -0.9181  0.0778
  946MOL0     H30480  10.460   3.978   5.337  1.7381 -2.2306 -1.8266
  946MOL0     H30481  10.641   3.869   5.384  0.6762 -0.4948  0.6270
  946MOL0     H30482  10.784   3.979   5.381 -3.3354  0.2767  1.6496
  946MOL0     H30483  10.833   3.730   5.395  0.5842 -1.8093 -0.9377
  946MOL0     H30484  10.760   3.699   5.241  2.8654 -0.7623 -1.0158
  946MOL0     H30485  10.915   3.856   5.125 -1.4827 -0.4303  0.3712
  946MOL0     H30486  10.983   3.900   5.277 -1.3900  1.5553 -2.0986
  946MOL0     H30487  11.043   3.657   5.313 -1.6759 -0.2230  0.2892
  946MOL0     H30488  11.005   3.636   5.141  2.3454 -0.3109 -0.2971
  946MOL0     H30489  11.193   3.861   5.207  1.7099 -0.0553 -0.8285
  946MOL0     H30490  11.183   3.749   5.058 -0.4510  0.3805 -0.3511
  946MOL0     H30491  11.287   3.666   5.342  0.6264  2.5597  0.7178
  946MOL0     H30492  11.277   3.572   5.197 -1.3785 -0.0362 -0.2500
  946MOL0     H30493  11.431   3.734   5.078 -0.2268 -2.7157 -0.4455
  946MOL0     H30494  11.497   3.648   5.216 -1.0845 -1.6397 -1.0941
  946MOL0     H30495  11.387   3.940   5.239 -0.6113 -0.9199 -0.1546
  946MOL0     H30496  11.471   3.835   5.365 -1.8631 -1.8808  0.0345
  946MOL0     H30497  11.543   4.020   5.030 -0.1983 -3.4116 -1.1279
  946MOL0     H30498  11.842   4.222   5.105 -0.7679 -1.1435  2.1380
  946MOL0     H30499  11.708   4.220   4.993 -0.9369 -0.7397 -0.9542
  946MOL0     H30500  11.913   4.182   4.859 -0.7303  0.8870  0.5155
  946MOL0     H30501  11.970   4.068   4.981  0.4577  1.9414  0.0904
  946MOL0     H30502  11.804   3.908   4.891 -2.3483  1.5874 -0.2855
  946MOL0     H30503  11.746   4.027   4.786 -1.3909 -0.4889 -0.0469
  946MOL0     H30504  12.017   3.888   4.762 -1.6214 -1.9460 -0.7177
  946MOL0     H30505  11.881   3.904   4.649  2.5258  1.7852 -3.5319
  946MOL0     H30506  12.155   3.854   4.561  3.0810 -1.9634  1.4235
  946MOL0     H30507  12.316   3.765   4.431  1.0639 -1.1727 -0.9821
  946MOL0     H30508  12.455   3.800   4.535  1.9298 -0.7894 -2.5016
  946MOL0     H30509  12.450   3.862   4.368 -1.7337 -0.7590 -1.5297
  946MOL0     H30510  12.788   4.186   4.570 -0.3082 -0.8348 -0.3487
  946MOL0     H30511  13.037   4.176   4.474  0.0817 -0.1617  1.2657
  946MOL0     H30512  13.194   4.156   4.307 -1.1367  0.3996  1.3190
  946MOL0     H30513  13.263   4.064   4.447 -2.6566 -1.3866  0.9227
  946MOL0     H30514  13.377   3.906   4.264 -0.1090 -0.1928  0.9551
  946MOL0     H30515  13.339   4.039   4.154 -1.3940  0.3196 -0.3034
  946MOL0     H30516  13.502   4.012   4.409  0.4233 -0.7851 -0.7273
  946MOL0     H30517  13.438   4.178   4.372  1.1547 -0.7606  1.7572
  946MOL0     H30518  13.554   4.193   4.172  2.9019  1.1362  0.2159
  946MOL0     H30519  13.612   4.022   4.181 -1.5029  0.1563 -0.0490
  946MOL0     H30520  13.698   4.244   4.369  0.1968  2.2883 -2.6227
  946MOL0     H30521  13.753   4.082   4.362 -1.6437  0.3574 -0.0005
  946MOL0     H30522  13.786   4.291   4.140 -0.1514 -1.0414 -0.6939
  946MOL0     H30523  13.842   4.128   4.123 -1.7656  1.9977 -2.5994
  946MOL0     H30524  13.968   4.157   4.343 -1.6615 -0.2743 -0.6641
  946MOL0     H30525  13.929   4.321   4.341 -0.3678 -0.5792  1.1765
  946MOL0     H30526  14.088   4.160   4.122 -0.3729 -1.3836  0.9388
  946MOL0     H30527  14.162   4.251   4.258 -1.0309  0.9668  0.2811
  946MOL0     H30528  12.928   3.825   4.274  1.8348  3.0214 -3.2678
  946MOL0     H30529  12.685   3.841   4.384 -1.9543  2.5528  1.2572
  946MOL0     H30530  12.357   4.302   4.565 -0.9134  0.9517 -0.9181
  946MOL0     H30531  12.133   4.275   4.655  0.6279 -1.3377  3.2657
  946MOL0     H30532  10.717   4.134   5.036 -0.5915 -2.8113 -1.1713
  946MOL0     H30533  10.537   4.308   4.977 -0.1147 -1.6341 -1.9876
  946MOL0     H30534  10.081   4.335   5.173  0.1157  0.4172 -0.8356
  946MOL0     H30535   9.855   4.422   5.216  0.6507 -0.8461 -0.7160
  946MOL0     H30536   9.704   4.656   5.123 -2.7954  3.7754 -0.3184
  946MOL0     H30537   9.648   4.558   5.250  0.8773 -0.6299 -1.1147
  946MOL0     H30538   9.616   4.875   5.210 -0.8416 -0.7854 -1.7883
  946MOL0     H30539   9.604   4.794   5.369  2.6759 -0.1593  0.3653
  946MOL0     H30540   9.411   4.657   5.286 -0.3138  0.5858  0.6913
  946MOL0     H30541   9.377   4.825   5.278 -1.7350 -2.4727  2.3905
  946MOL0     H30542   9.473   4.644   5.043  2.0277  0.6752  0.6559
  946MOL0     H30543   9.448   4.826   5.048  1.5523 -1.7440  0.8006
  946MOL0     H30544   9.067   4.678   4.989 -0.1585 -0.1386 -1.6928
  946MOL0     H30545  10.028   4.798   5.314 -3.0141 -0.7648  1.9972
  946MOL0     H30546  10.372   4.703   5.308  0.5129  1.3396 -0.9726
  946MOL0     H30547  10.325   4.762   5.151  0.5778 -0.6284 -0.2244
  946MOL0     H30548  10.271   4.845   5.289  1.5155  1.8398 -3.1029
  947MOL0     O30549   7.314   7.227  10.231 -0.0838  1.4186 -0.7202
  947MOL0     C30550   7.296   7.168  10.127  0.0147  0.3315 -0.3855
  947MOL0     O30551   7.402   7.130  10.048 -0.2107  0.4450  0.5252
  947MOL0     C30552   7.533   7.153  10.088  0.9184 -0.5176  0.1070
  947MOL0     C30553   7.585   7.284  10.090  0.0859  0.0220 -0.9553
  947MOL0     C30554   7.715   7.300  10.127  0.1250 -0.5250  1.0278
  947MOL0     C30555   7.798   7.197  10.166  0.1625  0.0769 -0.0172
  947MOL0     O30556   7.920   7.223  10.203 -0.4260  0.9322 -0.5979
  947MOL0     C30557   8.019   7.122  10.175 -0.4718  0.3514 -0.1920
  947MOL0     C30558   8.158   7.191  10.194 -0.7162  0.6792 -0.3069
  947MOL0     C30559   8.268   7.095  10.235 -0.2274  0.6163  0.0046
  947MOL0     C30560   8.399   7.167  10.214 -0.1859 -0.4499 -0.4643
  947MOL0     C30561   8.516   7.074  10.247 -0.4863  0.6494  0.0001
  947MOL0     C30562   8.651   7.115  10.172  0.9161  0.3514  0.3490
  947MOL0     C30563   8.775   7.031  10.210  0.6660  0.2062 -0.3431
  947MOL0     C30564   8.900   7.058  10.124 -0.5303 -0.2089  0.0424
  947MOL0     N30565   8.996   6.960  10.157  0.0242  0.3268 -0.4820
  947MOL0     C30566   9.095   6.977  10.244  0.8481  0.0562 -0.6057
  947MOL0     C30567   9.179   6.873  10.242 -0.0617  0.8342  0.2982
  947MOL0     C30568   9.292   6.864  10.340  0.6783  1.1267 -0.1078
  947MOL0     C30569   9.430   6.875  10.284 -0.0893  0.2837  0.1123
  947MOL0     C30570   9.467   6.758  10.191  0.3423 -0.4542 -0.4860
  947MOL0     C30571   9.592   6.765  10.109 -0.1406 -0.0424  0.3866
  947MOL0     O30572   9.706   6.788  10.197 -0.1819 -0.1001 -0.1594
  947MOL0     C30573   9.799   6.688  10.208  0.4127  0.0570  0.2992
  947MOL0     C30574   9.927   6.742  10.225  0.5221  0.4927  0.2900
  947MOL0     C30575  10.031   6.660  10.269 -0.1020 -0.3464  0.0859
  947MOL0     C30576  10.166   6.728  10.268  0.1633 -1.0963  0.1792
  947MOL0     C30577  10.014   6.528  10.279 -0.8334 -0.6180 -0.0715
  947MOL0     C30578  10.119   6.423  10.316 -0.1739 -0.2059  0.6485
  947MOL0     O30579  10.192   6.449  10.419 -0.0580  1.2430 -0.2544
  947MOL0     C30580  10.281   6.363  10.484  0.1604  0.2288 -0.7842
  947MOL0     C30581  10.378   6.413  10.565  0.0004 -0.2693 -0.2123
  947MOL0     C30582  10.464   6.336  10.636  0.0997  0.0428 -0.7404
  947MOL0     C30583  10.438   6.194  10.641  0.2677 -0.7982 -0.3966
  947MOL0     O30584  10.514   6.106  10.711  0.8170  0.1341 -0.1582
  947MOL0     C30585  10.631   6.142  10.794  0.2712  0.4807 -0.2516
  947MOL0     C30586  10.753   6.166  10.713 -0.1873  0.2630 -0.1204
  947MOL0     C30587  10.874   6.208  10.803 -0.3436  0.4560  0.7044
  947MOL0     C30588  10.994   6.240  10.714 -0.7832  0.4590  0.1869
  947MOL0     C30589  10.985   6.380  10.654  0.0254  0.5066 -0.0405
  947MOL0     C30590  11.106   6.421  10.575 -0.7362 -0.4040  0.8998
  947MOL0     C30591  11.082   6.570  10.535 -0.2931  0.2505 -0.2343
  947MOL0     C30592  11.154   6.601  10.406 -0.1223 -0.4236  0.1373
  947MOL0    Cl30593  11.157   6.779  10.394 -0.0286 -0.1681  0.2519
  947MOL0     C30594  10.349   6.138  10.563  0.1189  0.0446 -0.0209
  947MOL0     C30595  10.275   6.223  10.478 -0.2970 -0.2052 -0.4692
  947MOL0     O30596  10.125   6.317  10.252  0.2678 -0.2862 -0.0034
  947MOL0     C30597   9.886   6.473  10.262 -0.6331  0.0287  0.5244
  947MOL0     C30598   9.778   6.554  10.226 -0.4615  0.6678 -0.2360
  947MOL0     N30599   9.121   6.778  10.159  0.2114  0.5668 -0.7658
  947MOL0     N30600   9.016   6.838  10.108 -0.0191 -0.3005 -0.0061
  947MOL0     C30601   7.747   7.072  10.149 -0.2126  0.2801 -0.3994
  947MOL0     C30602   7.613   7.050  10.111 -0.6679  0.3262  0.2124
  947MOL0     C30603   7.159   7.156  10.080 -0.1990  0.3370 -0.2172
  947MOL0     C30604   7.147   7.131   9.941 -0.2862  0.8808 -0.1476
  947MOL0     C30605   7.021   7.147   9.884 -0.3422  0.1016 -0.1655
  947MOL0     C30606   6.906   7.163   9.963 -0.0423  0.1503  0.0776
  947MOL0     O30607   6.782   7.171   9.915  0.9868  0.0673  0.3432
  947MOL0     C30608   6.740   7.073   9.811 -0.3489 -0.0406 -0.3995
  947MOL0     C30609   6.583   7.047   9.842 -0.1467  0.1018 -0.1164
  947MOL0     C30610   6.541   7.044   9.983  0.3729 -0.1587 -0.2770
  947MOL0     C30611   6.394   7.011   9.998  1.0232  0.1106  0.7989
  947MOL0     C30612   6.317   7.092  10.100  0.3379  0.3561  0.5708
  947MOL0     C30613   6.239   7.161  10.165 -0.3708 -0.2307  0.4102
  947MOL0     C30614   6.919   7.164  10.101  0.3976  0.1004 -0.2396
  947MOL0     C30615   7.041   7.160  10.165 -0.3148  0.0212  0.3499
  947MOL0     C30616   7.043   7.175  10.315  1.1585  0.5298  0.7941
  947MOL0     H30617   7.527   7.371  10.062 -0.7505 -0.7794 -1.7766
  947MOL0     H30618   7.756   7.401  10.119  0.0437 -0.6299 -1.5510
  947MOL0     H30619   8.010   7.079  10.075  3.0570  0.3467 -0.6539
  947MOL0     H30620   8.007   7.043  10.249  2.3804  1.3171  1.4752
  947MOL0     H30621   8.200   7.247  10.110  4.0839  0.2928  1.5283
  947MOL0     H30622   8.153   7.272  10.267  0.4737 -0.3497  0.9702
  947MOL0     H30623   8.261   7.052  10.335 -1.1380 -0.8421 -0.6476
  947MOL0     H30624   8.259   7.007  10.171 -0.3330 -0.8378  1.9198
  947MOL0     H30625   8.397   7.206  10.112 -3.0019  0.8461  0.0075
  947MOL0     H30626   8.409   7.257  10.276  1.4916 -0.1896 -1.0550
  947MOL0     H30627   8.491   6.972  10.217  1.8955  0.5707 -2.0556
  947MOL0     H30628   8.529   7.075  10.356 -2.1370  1.4673  0.2213
  947MOL0     H30629   8.629   7.091  10.067 -3.0987  2.2283  0.5422
  947MOL0     H30630   8.675   7.221  10.180  2.4278  0.1315 -0.8386
  947MOL0     H30631   8.749   6.925  10.204 -2.2328  0.8080  0.1039
  947MOL0     H30632   8.800   7.049  10.315  1.7649 -1.6381 -0.2478
  947MOL0     H30633   8.879   7.061  10.017 -0.7572  0.6192  0.1065
  947MOL0     H30634   8.935   7.157  10.153  1.7715 -0.6084 -1.1763
  947MOL0     H30635   9.099   7.065  10.308  0.8553 -0.7421  0.5120
  947MOL0     H30636   9.290   6.766  10.389 -0.2782  1.5111  0.6384
  947MOL0     H30637   9.281   6.941  10.416  0.0598  1.3714 -0.4433
  947MOL0     H30638   9.447   6.969  10.229 -1.7238  0.7981  0.4421
  947MOL0     H30639   9.502   6.870  10.366  0.9785  2.3197 -0.6000
  947MOL0     H30640   9.465   6.671  10.258  0.9614 -0.9380 -1.0766
  947MOL0     H30641   9.387   6.736  10.119  0.3017 -0.8908 -0.3097
  947MOL0     H30642   9.604   6.674  10.050 -0.1198  0.6537 -0.7113
  947MOL0     H30643   9.590   6.846  10.036  0.9055 -0.5027 -0.1649
  947MOL0     H30644   9.944   6.849  10.221  1.1496  0.4688  1.8636
  947MOL0     H30645  10.195   6.766  10.170 -0.3669 -1.0605  0.0321
  947MOL0     H30646  10.248   6.672  10.313  0.3839  0.0871  1.2768
  947MOL0     H30647  10.150   6.814  10.333 -0.5379 -0.1101 -1.2441
  947MOL0     H30648  10.392   6.521  10.571  2.0177 -0.4889 -0.1910
  947MOL0     H30649  10.547   6.389  10.681  0.9285 -0.3439 -1.7650
  947MOL0     H30650  10.617   6.236  10.848 -0.2466  0.7253 -0.8069
  947MOL0     H30651  10.664   6.063  10.862 -0.1052 -1.3740 -2.1006
  947MOL0     H30652  10.777   6.073  10.660 -2.7047  1.5367 -3.8835
  947MOL0     H30653  10.728   6.243  10.639 -0.8180  0.6316  0.4600
  947MOL0     H30654  10.918   6.124  10.858  0.4053 -1.2244 -2.2392
  947MOL0     H30655  10.852   6.291  10.870 -3.0890  1.3511 -1.1463
  947MOL0     H30656  11.007   6.160  10.642 -0.6611 -0.7704  1.5240
  947MOL0     H30657  11.082   6.238  10.780 -0.5299 -1.8436 -0.1472
  947MOL0     H30658  10.903   6.395  10.583  0.9025 -1.5808 -1.6205
  947MOL0     H30659  10.969   6.438  10.745  1.4999 -0.8859  1.1686
  947MOL0     H30660  11.112   6.366  10.481 -0.1916  0.3586  0.4738
  947MOL0     H30661  11.194   6.418  10.640 -0.4282  2.9947  0.8175
  947MOL0     H30662  11.122   6.634  10.615  1.0153  3.0542 -2.9309
  947MOL0     H30663  10.977   6.592  10.518 -0.4744 -0.2926  0.1528
  947MOL0     H30664  11.096   6.551  10.328 -1.1659 -1.3674  1.4696
  947MOL0     H30665  11.256   6.562  10.404 -0.4793 -1.3819 -0.2873
  947MOL0     H30666  10.336   6.031  10.554 -2.6955  0.4312 -1.6894
  947MOL0     H30667  10.191   6.176  10.427 -1.6724 -0.8910  2.2388
  947MOL0     H30668   9.873   6.366  10.280 -0.5472  0.0351  0.6190
  947MOL0     H30669   9.679   6.509  10.225 -0.9209  1.6049 -2.1102
  947MOL0     H30670   7.802   6.984  10.182 -1.3138 -0.3902 -0.2911
  947MOL0     H30671   7.574   6.949  10.105  1.3844 -0.5117  0.1589
  947MOL0     H30672   7.236   7.125   9.880  1.3017  4.7191  1.4257
  947MOL0     H30673   7.011   7.148   9.776  1.8953 -0.1852 -0.4227
  947MOL0     H30674   6.755   7.107   9.708 -1.0958 -0.0699 -0.5280
  947MOL0     H30675   6.796   6.982   9.832  0.1550  0.1033 -1.0953
  947MOL0     H30676   6.554   6.952   9.796  2.6535 -1.0553  0.3213
  947MOL0     H30677   6.542   7.135   9.790 -3.0306 -1.1914 -0.2302
  947MOL0     H30678   6.604   6.977  10.041  2.0554 -0.0399 -1.8744
  947MOL0     H30679   6.553   7.149  10.013 -2.8141  0.6869 -1.5007
  947MOL0     H30680   6.379   6.906  10.024  1.7889 -0.4939 -1.0231
  947MOL0     H30681   6.345   7.016   9.900  2.1417 -1.7917  0.0836
  947MOL0     H30682   6.175   7.232  10.214 -2.1011 -1.9553  0.7352
  947MOL0     H30683   6.833   7.169  10.166  0.3412  2.7855 -0.4258
  947MOL0     H30684   6.945   7.149  10.356  0.5793  1.9682  0.3788
  947MOL0     H30685   7.125   7.115  10.354  4.1307  1.1474 -3.6947
  947MOL0     H30686   7.067   7.280  10.335  0.3700  0.1552  4.4767
  948MOL0     O30687  10.165  10.443   2.550 -0.7044  0.3619  0.5906
  948MOL0     C30688  10.078  10.390   2.619  0.1499  0.3039  0.2826
  948MOL0     O30689  10.095  10.343   2.743 -0.5687 -1.4282 -0.7879
  948MOL0     C30690  10.215  10.357   2.808 -0.0324  0.2356 -0.4175
  948MOL0     C30691  10.274  10.480   2.825 -0.2927  0.0489 -0.4084
  948MOL0     C30692  10.384  10.495   2.909 -0.3751  0.1915 -0.6175
  948MOL0     C30693  10.438  10.385   2.976 -0.4657 -0.0456  1.3454
  948MOL0     O30694  10.545  10.396   3.069 -0.0706  0.2779  1.1424
  948MOL0     C30695  10.572  10.531   3.116 -0.1453  0.3974 -0.0575
  948MOL0     C30696  10.708  10.532   3.197  0.5152  0.4936  0.5566
  948MOL0     C30697  10.816  10.431   3.160  0.6719 -0.0692 -0.2208
  948MOL0     C30698  10.946  10.473   3.218 -0.8958 -0.5124 -0.3689
  948MOL0     C30699  11.061  10.391   3.161 -0.5788 -0.2444  0.1857
  948MOL0     C30700  11.052  10.234   3.187  0.9248  0.9127 -0.5731
  948MOL0     C30701  11.062  10.198   3.337  0.3657  0.4018  0.2921
  948MOL0     C30702  11.210  10.200   3.377 -0.3879  0.1012 -0.4217
  948MOL0     N30703  11.288  10.095   3.314  0.9616  0.2046  0.2274
  948MOL0     C30704  11.258   9.956   3.300  0.3477  0.0643 -1.0078
  948MOL0     C30705  11.363   9.912   3.227 -0.2900 -0.1204  1.3504
  948MOL0     C30706  11.399   9.767   3.194 -1.1342  0.5068 -0.4948
  948MOL0     C30707  11.540   9.735   3.250 -0.5315 -0.5203  0.9559
  948MOL0     C30708  11.601   9.606   3.189 -0.3602  0.1177  1.0249
  948MOL0     C30709  11.724   9.567   3.266 -0.6726  0.1739  0.2798
  948MOL0     O30710  11.832   9.662   3.265  0.1628  0.4856  0.0549
  948MOL0     C30711  11.963   9.616   3.283 -0.2760  0.6041  0.9710
  948MOL0     C30712  11.997   9.489   3.336  0.0152 -0.3275 -0.3457
  948MOL0     C30713  12.131   9.459   3.374  0.0716  0.5851 -0.3076
  948MOL0     C30714  12.157   9.322   3.436  0.3427  0.8764  0.7821
  948MOL0     C30715  12.236   9.555   3.344 -0.4565  0.2691 -0.1999
  948MOL0     C30716  12.374   9.537   3.380  0.6443 -0.5546 -0.1655
  948MOL0     O30717  12.458   9.616   3.305  0.0123 -0.4890 -0.3161
  948MOL0     C30718  12.594   9.606   3.336 -0.5685  0.4588 -0.0546
  948MOL0     C30719  12.671   9.499   3.303 -0.2610  0.0530  0.2401
  948MOL0     C30720  12.808   9.494   3.358 -0.1487 -0.3301 -0.1961
  948MOL0     C30721  12.852   9.593   3.430 -0.2562 -0.3154 -0.3010
  948MOL0     O30722  12.977   9.560   3.491 -0.4368 -0.2285  0.2196
  948MOL0     C30723  13.060   9.675   3.518  0.4631 -0.6517  0.7385
  948MOL0     C30724  13.127   9.711   3.388 -0.1470 -0.2147  0.6821
  948MOL0     C30725  13.203   9.592   3.323 -0.2217  0.2675  0.3774
  948MOL0     C30726  13.283   9.641   3.200  0.2446  0.0848  0.1665
  948MOL0     C30727  13.379   9.532   3.135  0.7266  0.2782  0.4011
  948MOL0     C30728  13.483   9.499   3.233  0.4501  0.3676  0.4684
  948MOL0     C30729  13.584   9.403   3.165 -0.4219 -0.7272 -0.1143
  948MOL0     C30730  13.720   9.409   3.230 -0.8250 -0.4596 -0.5100
  948MOL0    Cl30731  13.841   9.332   3.128 -0.5974  0.1229 -0.2534
  948MOL0     C30732  12.784   9.719   3.442 -0.0478  0.0729 -0.3895
  948MOL0     C30733  12.656   9.717   3.395  1.2168 -0.9459  0.3548
  948MOL0     O30734  12.406   9.453   3.463  0.7245 -0.5161  0.3086
  948MOL0     C30735  12.198   9.673   3.279 -0.2144  0.1038  0.6276
  948MOL0     C30736  12.062   9.706   3.264 -0.0870  0.1261 -1.4596
  948MOL0     N30737  11.450  10.015   3.179  0.6717 -0.5666 -0.4219
  948MOL0     N30738  11.399  10.123   3.235  0.1325 -0.8450  0.0907
  948MOL0     C30739  10.383  10.256   2.948  0.0341 -0.7370 -0.1205
  948MOL0     C30740  10.268  10.244   2.866 -0.3287 -0.4706 -0.2376
  948MOL0     C30741   9.953  10.371   2.544 -0.5407 -0.2318 -0.5776
  948MOL0     C30742   9.835  10.377   2.615 -0.0785 -0.4066 -0.7639
  948MOL0     C30743   9.711  10.373   2.560  0.3111 -0.1053  0.0873
  948MOL0     C30744   9.700  10.364   2.417 -1.0174  0.8283  0.3310
  948MOL0     O30745   9.580  10.361   2.346  0.2544  0.3214  0.1212
  948MOL0     C30746   9.459  10.332   2.421 -0.0505  1.2141  0.3113
  948MOL0     C30747   9.347  10.307   2.324 -0.7522 -0.1011 -0.5146
  948MOL0     C30748   9.237  10.226   2.393 -0.1825 -0.7437 -0.3389
  948MOL0     C30749   9.131  10.211   2.286 -0.0447 -0.6078 -0.1808
  948MOL0     C30750   9.027  10.136   2.355 -0.2102 -0.3104 -0.3307
  948MOL0     C30751   8.935  10.089   2.412 -0.0546 -0.0296  0.1517
  948MOL0     C30752   9.819  10.359   2.338  0.0312 -0.0237 -0.3682
  948MOL0     C30753   9.944  10.363   2.399 -0.9248  0.2290  1.1445
  948MOL0     C30754  10.064  10.355   2.304  0.1485  0.1466  1.0027
  948MOL0     H30755  10.239  10.574   2.783  1.9006  0.8960 -0.5057
  948MOL0     H30756  10.425  10.595   2.914  0.5389 -0.1996  4.1585
  948MOL0     H30757  10.493  10.555   3.188  0.2914 -1.2411  1.0390
  948MOL0     H30758  10.576  10.597   3.029 -2.1334 -1.8160 -1.9411
  948MOL0     H30759  10.750  10.631   3.183  0.9143  0.0491 -1.8096
  948MOL0     H30760  10.681  10.503   3.299  2.3279 -1.7553  0.4715
  948MOL0     H30761  10.792  10.332   3.202 -0.8678  0.8288  1.1241
  948MOL0     H30762  10.815  10.416   3.052  0.3124 -2.0389  0.0125
  948MOL0     H30763  10.980  10.576   3.199 -1.9508  0.3450  2.0516
  948MOL0     H30764  10.942  10.455   3.325  2.3113 -1.5900 -0.3122
  948MOL0     H30765  11.153  10.429   3.205 -1.1697 -0.3043  1.5254
  948MOL0     H30766  11.067  10.418   3.055 -1.2622  1.6501  0.5697
  948MOL0     H30767  10.952  10.207   3.152  0.1863  2.2574  0.3764
  948MOL0     H30768  11.130  10.175   3.139  1.8570 -0.0178  1.9514
  948MOL0     H30769  11.004  10.107   3.357 -0.8043  1.6352  3.0232
  948MOL0     H30770  11.004  10.267   3.400 -1.7982  0.1230 -1.2582
  948MOL0     H30771  11.249  10.295   3.339  0.3669 -1.7438 -4.8548
  948MOL0     H30772  11.230  10.192   3.484  1.5325 -0.4412 -0.7913
  948MOL0     H30773  11.183   9.902   3.358  0.7343 -0.3797 -0.9134
  948MOL0     H30774  11.396   9.751   3.086 -0.8562  0.3113 -0.4744
  948MOL0     H30775  11.324   9.697   3.235 -0.1125 -1.1515 -1.3307
  948MOL0     H30776  11.605   9.818   3.219  0.0283 -1.6436 -1.0902
  948MOL0     H30777  11.534   9.729   3.359 -1.0771 -0.9906  0.9065
  948MOL0     H30778  11.532   9.521   3.183 -2.2729  1.6567  0.2178
  948MOL0     H30779  11.631   9.634   3.088 -1.9227  3.0325  1.2843
  948MOL0     H30780  11.696   9.551   3.370 -1.4668 -3.6333 -0.3524
  948MOL0     H30781  11.768   9.473   3.231  0.7374 -0.8130  4.1748
  948MOL0     H30782  11.929   9.404   3.336  0.0265 -0.4383 -3.2314
  948MOL0     H30783  12.253   9.286   3.398 -1.1066 -1.4953 -0.9861
  948MOL0     H30784  12.088   9.251   3.388  3.1321 -0.0872 -2.2279
  948MOL0     H30785  12.148   9.329   3.544  0.7877  0.9379  0.8167
  948MOL0     H30786  12.620   9.410   3.267 -0.0054  0.1126 -0.2845
  948MOL0     H30787  12.879   9.413   3.348  2.6218  1.5493  2.5603
  948MOL0     H30788  13.004   9.756   3.565 -1.7921 -3.1445  2.6474
  948MOL0     H30789  13.141   9.645   3.586  2.7450 -0.9857 -1.9410
  948MOL0     H30790  13.056   9.752   3.315  0.0053 -0.1506  0.5683
  948MOL0     H30791  13.194   9.793   3.415 -0.1783 -0.0523  0.2750
  948MOL0     H30792  13.141   9.509   3.288 -0.0586  0.1016  0.4829
  948MOL0     H30793  13.268   9.549   3.399  3.9022  0.1738 -2.8137
  948MOL0     H30794  13.343   9.729   3.222  2.2442 -0.6784 -1.8723
  948MOL0     H30795  13.213   9.670   3.122 -0.3720 -2.8382 -0.5057
  948MOL0     H30796  13.328   9.438   3.114  1.6867 -0.6772  2.1081
  948MOL0     H30797  13.418   9.574   3.041 -2.5706 -0.1396 -1.2774
  948MOL0     H30798  13.435   9.456   3.321 -0.2762 -0.0960 -0.1433
  948MOL0     H30799  13.543   9.586   3.261  2.0584 -0.3553 -0.5854
  948MOL0     H30800  13.598   9.428   3.060 -2.1902  0.4986 -0.0891
  948MOL0     H30801  13.549   9.301   3.186 -1.4306  0.2653  3.9313
  948MOL0     H30802  13.722   9.357   3.326  0.6795 -1.7274 -1.1812
  948MOL0     H30803  13.763   9.508   3.250 -2.6193  0.3868 -0.6522
  948MOL0     H30804  12.814   9.800   3.508  2.7658 -2.9914  2.4652
  948MOL0     H30805  12.601   9.806   3.424  0.9280 -0.7596 -0.7170
  948MOL0     H30806  12.263   9.759   3.260 -0.9227  0.8138  1.3552
  948MOL0     H30807  12.031   9.803   3.229 -0.1070  0.4099 -0.6724
  948MOL0     H30808  10.429  10.165   2.983 -0.2659 -1.5484 -1.7442
  948MOL0     H30809  10.224  10.145   2.855 -0.9227 -0.4914  1.8608
  948MOL0     H30810   9.840  10.382   2.723 -0.6117  1.7374 -0.7913
  948MOL0     H30811   9.623  10.383   2.623  0.8477 -1.0422  1.0016
  948MOL0     H30812   9.477  10.247   2.487 -0.4737  0.3629 -0.6469
  948MOL0     H30813   9.427  10.410   2.490  0.4567 -0.5580  2.6557
  948MOL0     H30814   9.392  10.241   2.250  2.4425  1.5623 -0.2301
  948MOL0     H30815   9.319  10.392   2.261  1.3357  0.3636 -0.9089
  948MOL0     H30816   9.281  10.133   2.430 -3.2178 -2.1329  0.0324
  948MOL0     H30817   9.210  10.284   2.482  2.0712 -1.4208  0.8603
  948MOL0     H30818   9.181  10.143   2.216  0.9621 -2.6299  2.3594
  948MOL0     H30819   9.097  10.300   2.233  0.1461 -1.0932 -1.1459
  948MOL0     H30820   8.845  10.043   2.449  1.5969 -1.7100  2.3846
  948MOL0     H30821   9.809  10.347   2.230  0.8975  0.6459 -0.5405
  948MOL0     H30822  10.026  10.323   2.206  2.5237 -0.6910  0.2783
  948MOL0     H30823  10.106  10.455   2.299 -1.6154  0.8945 -2.6742
  948MOL0     H30824  10.139  10.280   2.331  0.3030  0.3559  1.1575
  949MOL0     O30825   2.596  10.809   5.059  0.7151 -0.0835 -0.3382
  949MOL0     C30826   2.629  10.689   5.067  0.0537 -0.1591 -0.3282
  949MOL0     O30827   2.561  10.593   5.128 -0.7785 -0.1386 -0.2333
  949MOL0     C30828   2.470  10.611   5.226  0.6112 -0.7888 -0.2464
  949MOL0     C30829   2.379  10.507   5.247  0.1513 -0.4500  0.2183
  949MOL0     C30830   2.279  10.510   5.347 -0.0804 -0.3921  0.3344
  949MOL0     C30831   2.286  10.619   5.436 -0.1592 -0.9983 -0.3867
  949MOL0     O30832   2.190  10.621   5.530  0.1650  0.6003  0.0800
  949MOL0     C30833   2.221  10.678   5.666  0.2833 -0.0557 -0.1094
  949MOL0     C30834   2.122  10.611   5.760  0.2075  0.5172  0.5454
  949MOL0     C30835   2.101  10.693   5.882 -0.1766  0.1351 -0.1317
  949MOL0     C30836   1.988  10.644   5.969  0.0876  0.3116 -0.5053
  949MOL0     C30837   2.025  10.500   6.025  0.3279 -0.3393  0.0261
  949MOL0     C30838   1.927  10.465   6.146 -0.7901  0.6650  0.1766
  949MOL0     C30839   1.790  10.418   6.087 -0.6168 -0.3399 -0.1263
  949MOL0     C30840   1.673  10.428   6.177  0.8790  0.2392 -0.8072
  949MOL0     N30841   1.610  10.562   6.194 -0.3189  0.6066 -0.1585
  949MOL0     C30842   1.531  10.624   6.103 -0.0270 -0.2508 -0.3613
  949MOL0     C30843   1.496  10.739   6.162 -0.1377 -0.1936 -0.6585
  949MOL0     C30844   1.410  10.845   6.108 -0.0282 -0.6372  1.0252
  949MOL0     C30845   1.451  10.877   5.968 -0.4316 -0.0209  0.5004
  949MOL0     C30846   1.583  10.954   5.969 -0.6786  0.3187  0.3971
  949MOL0     C30847   1.710  10.870   5.940 -0.1853 -0.4090 -0.4349
  949MOL0     O30848   1.837  10.943   5.927  0.1519  0.2748  0.5670
  949MOL0     C30849   1.864  11.008   5.806  0.2573 -0.4842  0.0466
  949MOL0     C30850   1.792  11.010   5.687 -0.2426  0.0068  0.4217
  949MOL0     C30851   1.838  11.051   5.559  0.2782  0.0839  0.6041
  949MOL0     C30852   1.751  11.030   5.439  0.8462  0.5376 -0.2353
  949MOL0     C30853   1.970  11.102   5.548 -0.4060 -0.2361  0.0704
  949MOL0     C30854   2.030  11.154   5.422 -0.0076  0.4041  0.0010
  949MOL0     O30855   2.157  11.206   5.443 -0.4886 -0.3937 -0.0230
  949MOL0     C30856   2.227  11.201   5.330 -0.1120 -0.6112 -0.3583
  949MOL0     C30857   2.298  11.086   5.290 -0.0135  0.0982  0.2147
  949MOL0     C30858   2.380  11.091   5.179 -1.1237 -0.6070 -0.3119
  949MOL0     C30859   2.402  11.223   5.119 -1.1078  0.4739  0.2145
  949MOL0     O30860   2.489  11.229   5.011 -0.3949  0.2898  0.2896
  949MOL0     C30861   2.426  11.274   4.894 -0.1187  0.0587  0.2073
  949MOL0     C30862   2.531  11.333   4.793 -0.1818 -0.1905 -0.1238
  949MOL0     C30863   2.454  11.392   4.664 -0.2675  0.8389 -1.2385
  949MOL0     C30864   2.373  11.284   4.596  0.1469  0.8437 -0.7456
  949MOL0     C30865   2.292  11.332   4.476  0.1368 -0.2735  1.2351
  949MOL0     C30866   2.148  11.393   4.504 -0.5666 -0.8466 -0.9724
  949MOL0     C30867   2.095  11.444   4.375 -0.2239 -0.0266  0.8000
  949MOL0     C30868   1.962  11.369   4.350  0.1796 -0.9868  0.3935
  949MOL0    Cl30869   1.823  11.450   4.436 -0.1815  0.1481 -0.1847
  949MOL0     C30870   2.343  11.337   5.167  0.0649 -0.0965 -0.3780
  949MOL0     C30871   2.249  11.321   5.264  0.3408  0.4367  0.1787
  949MOL0     O30872   1.980  11.147   5.307  1.2499 -0.2067  0.3686
  949MOL0     C30873   2.039  11.109   5.676  0.2292  0.2873 -0.1746
  949MOL0     C30874   1.996  11.061   5.796  0.3782 -0.2846  0.2517
  949MOL0     N30875   1.550  10.739   6.292  0.2649  0.5410 -1.0450
  949MOL0     N30876   1.622  10.631   6.308  0.2724 -0.7323  0.1361
  949MOL0     C30877   2.373  10.728   5.420 -0.0978 -0.3131 -0.3390
  949MOL0     C30878   2.468  10.725   5.317  0.0991 -0.6981  0.1302
  949MOL0     C30879   2.752  10.644   4.994  0.4494 -0.0822 -0.1305
  949MOL0     C30880   2.847  10.569   5.069  0.6255  0.5100 -0.7504
  949MOL0     C30881   2.967  10.529   5.021 -0.5170 -0.0969 -1.1564
  949MOL0     C30882   3.004  10.580   4.896 -0.5898  0.3729 -0.2839
  949MOL0     O30883   3.139  10.562   4.857 -0.3427  0.9357  0.4193
  949MOL0     C30884   3.169  10.590   4.719  0.8918 -0.8382 -0.3295
  949MOL0     C30885   3.321  10.567   4.686 -0.4167 -0.4325  0.5331
  949MOL0     C30886   3.363  10.424   4.722  0.0143  0.6955 -0.1029
  949MOL0     C30887   3.514  10.398   4.699 -0.0051  0.9513 -0.7270
  949MOL0     C30888   3.556  10.399   4.557 -0.3246 -0.5167  0.8337
  949MOL0     C30889   3.575  10.393   4.435  0.5452  0.7818 -0.0966
  949MOL0     C30890   2.906  10.641   4.812 -0.0528  0.0260 -1.2892
  949MOL0     C30891   2.782  10.675   4.861 -0.0188  0.5478  0.3398
  949MOL0     C30892   2.682  10.749   4.778 -0.2908  0.0486 -0.2513
  949MOL0     H30893   2.391  10.438   5.164 -3.3667 -0.9513  0.0031
  949MOL0     H30894   2.206  10.430   5.350  0.4664 -0.9027  0.2050
  949MOL0     H30895   2.202  10.786   5.669  2.0067  0.3270 -1.1452
  949MOL0     H30896   2.322  10.660   5.705  0.2370  2.1670  1.1951
  949MOL0     H30897   2.026  10.589   5.712  1.0242  0.6486 -1.2344
  949MOL0     H30898   2.173  10.515   5.769 -0.8148  0.0887  2.1964
  949MOL0     H30899   2.193  10.685   5.941 -0.9354  1.3010  1.2477
  949MOL0     H30900   2.080  10.799   5.869 -0.3466  0.0175 -0.8674
  949MOL0     H30901   1.967  10.710   6.054 -2.7844 -1.0506 -0.0211
  949MOL0     H30902   1.902  10.632   5.903 -0.0002 -3.0913  0.0595
  949MOL0     H30903   2.124  10.486   6.069 -1.3004 -2.2110  3.4846
  949MOL0     H30904   2.013  10.417   5.955  2.6615 -2.0496  1.5048
  949MOL0     H30905   1.972  10.376   6.192 -0.0449 -0.0943 -1.8949
  949MOL0     H30906   1.916  10.550   6.214 -0.8911  0.2422  0.6958
  949MOL0     H30907   1.812  10.316   6.053  2.4890  0.7692 -1.9095
  949MOL0     H30908   1.764  10.462   5.990 -2.8994 -2.7921 -0.7473
  949MOL0     H30909   1.591  10.365   6.142  1.0750 -1.2566  1.2613
  949MOL0     H30910   1.699  10.397   6.278 -2.2655  0.3483  0.1419
  949MOL0     H30911   1.517  10.583   6.004  2.9855 -0.0974 -0.9457
  949MOL0     H30912   1.416  10.938   6.166 -2.0244 -0.2951  0.7369
  949MOL0     H30913   1.306  10.815   6.097  0.6027 -2.5619 -0.2172
  949MOL0     H30914   1.468  10.793   5.900  3.5229  1.4866 -0.6139
  949MOL0     H30915   1.384  10.949   5.918  1.7370  0.9792 -1.1565
  949MOL0     H30916   1.574  11.023   5.884  1.7398 -1.1665 -1.1727
  949MOL0     H30917   1.607  11.023   6.050  0.8512 -0.9541  1.0844
  949MOL0     H30918   1.741  10.810   6.026  2.0045 -1.1113 -1.6327
  949MOL0     H30919   1.694  10.792   5.866  2.3117 -2.9066  1.4133
  949MOL0     H30920   1.695  10.961   5.686 -0.2646  0.0133 -1.3329
  949MOL0     H30921   1.730  11.122   5.385 -0.0170 -0.4844 -1.6971
  949MOL0     H30922   1.656  10.979   5.456  0.9959 -0.6949 -2.6737
  949MOL0     H30923   1.804  10.960   5.373  0.4688 -0.3267  0.3507
  949MOL0     H30924   2.276  10.994   5.343  0.1782  0.5677  1.1389
  949MOL0     H30925   2.420  11.004   5.127  0.1610  0.1489 -0.6300
  949MOL0     H30926   2.375  11.185   4.857 -3.3645  1.6959  0.4432
  949MOL0     H30927   2.345  11.347   4.905 -1.6448 -1.7373  1.2347
  949MOL0     H30928   2.590  11.406   4.849  1.0848 -1.6855  0.5819
  949MOL0     H30929   2.603  11.256   4.762  1.4302  1.9999 -2.1129
  949MOL0     H30930   2.524  11.435   4.592  0.5903  2.4595  0.4702
  949MOL0     H30931   2.388  11.471   4.700  0.5143  0.4331  1.3077
  949MOL0     H30932   2.308  11.226   4.663  3.5583 -0.2580  1.9322
  949MOL0     H30933   2.447  11.212   4.560 -0.8334 -0.9394  0.6374
  949MOL0     H30934   2.351  11.400   4.416 -0.8185 -1.0510 -0.6574
  949MOL0     H30935   2.270  11.253   4.403 -0.1345  2.5323 -1.9327
  949MOL0     H30936   2.162  11.482   4.566 -1.4138 -0.3039 -1.5441
  949MOL0     H30937   2.087  11.317   4.553  1.1413 -1.4864  0.2754
  949MOL0     H30938   2.167  11.429   4.295 -0.2781 -0.7849  0.8850
  949MOL0     H30939   2.067  11.550   4.380 -2.8228 -0.7030  2.7599
  949MOL0     H30940   1.975  11.267   4.387 -0.7068 -0.5413  2.0470
  949MOL0     H30941   1.942  11.368   4.243  0.5845 -2.1044  0.3274
  949MOL0     H30942   2.383  11.432   5.132 -3.4646  0.8545 -2.2412
  949MOL0     H30943   2.183  11.403   5.290 -1.8018 -0.3176 -2.4047
  949MOL0     H30944   2.142  11.143   5.681  0.0052  0.7653  2.1853
  949MOL0     H30945   2.067  11.045   5.877  1.4042 -0.2374 -0.6050
  949MOL0     H30946   2.353  10.809   5.490  0.3074 -1.1145  0.7274
  949MOL0     H30947   2.535  10.809   5.302 -0.0043 -0.6678 -0.1883
  949MOL0     H30948   2.833  10.547   5.175  0.3573  1.2225 -0.6328
  949MOL0     H30949   3.044  10.477   5.076  0.6978  1.8501 -0.9329
  949MOL0     H30950   3.107  10.528   4.653  0.9612  1.3488 -2.6147
  949MOL0     H30951   3.141  10.694   4.697  0.7265 -0.7993  0.0652
  949MOL0     H30952   3.370  10.632   4.759  1.3856 -0.7867 -0.2972
  949MOL0     H30953   3.351  10.587   4.583 -0.3845 -0.3543  0.5568
  949MOL0     H30954   3.336  10.413   4.827 -0.7310 -0.1026 -0.3671
  949MOL0     H30955   3.309  10.345   4.669 -0.7809  1.1862 -0.0392
  949MOL0     H30956   3.538  10.293   4.722 -4.0958  0.1151  0.4421
  949MOL0     H30957   3.584  10.459   4.758 -0.1270 -0.3718  0.8614
  949MOL0     H30958   3.591  10.372   4.331 -0.4890 -2.2324  0.2319
  949MOL0     H30959   2.934  10.669   4.711  1.2951  3.9233 -0.0080
  949MOL0     H30960   2.678  10.858   4.795  1.7732 -0.0034  0.9632
  949MOL0     H30961   2.717  10.727   4.677 -2.3561  0.5228 -1.1184
  949MOL0     H30962   2.586  10.699   4.793  1.2672 -3.3619 -0.7808
  950MOL0     O30963   6.849   0.630  10.296  0.4455  0.2252 -0.0482
  950MOL0     C30964   6.766   0.720  10.306  0.7069  0.0063 -0.9479
  950MOL0     O30965   6.798   0.848  10.347  0.0843  0.0859  0.6510
  950MOL0     C30966   6.917   0.864  10.408  0.1451  0.1386  0.5091
  950MOL0     C30967   6.920   0.935  10.527  0.9099 -0.1306 -0.9038
  950MOL0     C30968   7.033   0.944  10.613  0.2622  0.7296 -0.1690
  950MOL0     C30969   7.156   0.908  10.550  0.0459  0.3892 -0.5454
  950MOL0     O30970   7.283   0.913  10.610  0.9305  1.0591  0.4248
  950MOL0     C30971   7.291   0.970  10.742  0.2881 -0.4241  0.4230
  950MOL0     C30972   7.437   0.974  10.798 -0.2172 -0.5413  0.1295
  950MOL0     C30973   7.511   0.836  10.800  0.7248  0.4446 -0.0711
  950MOL0     C30974   7.660   0.847  10.777 -0.5300 -0.1986  0.2391
  950MOL0     C30975   7.720   0.718  10.721  0.3489 -0.1781 -0.6773
  950MOL0     C30976   7.871   0.709  10.729  0.9459  0.7388  0.0856
  950MOL0     C30977   7.926   0.714  10.867  0.3958 -0.9056 -0.9726
  950MOL0     C30978   8.075   0.689  10.869 -0.9990  0.2003  0.0407
  950MOL0     N30979   8.102   0.552  10.838  0.4613 -0.4325 -0.2314
  950MOL0     C30980   8.072   0.446  10.924 -0.4392 -0.6581  0.0045
  950MOL0     C30981   8.099   0.331  10.866 -0.6249  0.1918 -0.3198
  950MOL0     C30982   8.084   0.188  10.901  0.4146 -1.0016 -0.3044
  950MOL0     C30983   8.029   0.173  11.041 -0.2803 -0.2044  0.1169
  950MOL0     C30984   8.004   0.025  11.075  0.3629  0.2073 -0.0147
  950MOL0     C30985   7.912  -0.052  10.989 -0.3166 -0.6288  0.0013
  950MOL0     O30986   7.898  -0.181  11.037  0.8702 -0.7242 -0.2705
  950MOL0     C30987   7.994  -0.273  11.028  0.2600  0.7996  0.3043
  950MOL0     C30988   7.973  -0.399  11.092 -0.0198  0.3422 -1.0776
  950MOL0     C30989   8.063  -0.502  11.094  1.0571 -0.0857  0.3243
  950MOL0     C30990   8.026  -0.623  11.178 -0.0711 -0.4424 -0.2777
  950MOL0     C30991   8.185  -0.484  11.020  0.2443  0.3916  0.7774
  950MOL0     C30992   8.273  -0.598  10.995 -0.9301 -0.4428 -0.4425
  950MOL0     O30993   8.335  -0.599  10.877 -0.3263  0.5736  0.3711
  950MOL0     C30994   8.421  -0.707  10.865  0.5157 -0.0196  1.3893
  950MOL0     C30995   8.386  -0.838  10.835  0.6258 -0.2345  0.7569
  950MOL0     C30996   8.478  -0.936  10.791  0.9976  0.2645 -0.2042
  950MOL0     C30997   8.615  -0.908  10.795 -0.5091  1.0969 -0.2224
  950MOL0     O30998   8.715  -0.996  10.765  0.0735 -0.3379  0.3175
  950MOL0     C30999   8.698  -1.139  10.784 -0.2985  0.5106 -0.4841
  950MOL0     C31000   8.836  -1.200  10.795  0.0117 -0.0931  0.3670
  950MOL0     C31001   8.878  -1.247  10.653  0.2098 -0.4290  0.8709
  950MOL0     C31002   9.004  -1.325  10.638  0.7103 -0.3205 -0.0375
  950MOL0     C31003   9.125  -1.243  10.683 -0.1671 -0.1438  0.2242
  950MOL0     C31004   9.264  -1.326  10.676  0.7314  0.0219  0.7586
  950MOL0     C31005   9.378  -1.223  10.670 -0.2004 -0.2596 -0.1336
  950MOL0     C31006   9.513  -1.271  10.715  0.5436  0.0895  0.4079
  950MOL0    Cl31007   9.513  -1.349  10.877 -0.1781  0.0741  0.3987
  950MOL0     C31008   8.649  -0.777  10.833  1.3977  0.0923 -0.7339
  950MOL0     C31009   8.556  -0.676  10.858 -0.5040 -0.7043  0.4326
  950MOL0     O31010   8.281  -0.683  11.083  0.5032 -0.3155 -1.1974
  950MOL0     C31011   8.202  -0.370  10.942  0.2748  0.8642 -0.4586
  950MOL0     C31012   8.110  -0.266  10.941 -0.7682  0.7774 -0.1865
  950MOL0     N31013   8.141   0.369  10.740  0.9364  0.4325 -0.5873
  950MOL0     N31014   8.151   0.498  10.719  0.7883 -0.0168  0.4052
  950MOL0     C31015   7.153   0.871  10.415  0.0053  0.1527 -0.6155
  950MOL0     C31016   7.039   0.844  10.339  0.5022  0.0764 -0.3107
  950MOL0     C31017   6.621   0.704  10.261  0.2615  0.3216 -0.7660
  950MOL0     C31018   6.548   0.819  10.219 -0.0482 -0.2030  0.4889
  950MOL0     C31019   6.416   0.811  10.186  0.2536 -0.6734  0.4520
  950MOL0     C31020   6.347   0.687  10.207  0.6077  0.2194  0.3014
  950MOL0     O31021   6.215   0.672  10.185 -0.6423 -0.8684  1.2192
  950MOL0     C31022   6.144   0.784  10.130 -0.1118 -0.1438 -0.5906
  950MOL0     C31023   6.016   0.725  10.074  0.4906 -0.0722 -1.0311
  950MOL0     C31024   5.946   0.817   9.971 -0.2295  0.0930 -1.3690
  950MOL0     C31025   5.807   0.770   9.943 -1.3529 -0.5259 -0.1148
  950MOL0     C31026   5.719   0.753  10.062 -0.2102 -0.1518  0.4890
  950MOL0     C31027   5.641   0.736  10.150 -0.1571 -0.7043  1.0468
  950MOL0     C31028   6.419   0.577  10.244 -0.8526 -0.1562  0.0454
  950MOL0     C31029   6.558   0.583  10.269 -0.1969  0.3798 -0.6693
  950MOL0     C31030   6.640   0.453  10.293  0.0116 -0.6077  0.5821
  950MOL0     H31031   6.828   0.953  10.582  1.2110 -3.0103  0.7087
  950MOL0     H31032   7.028   0.975  10.717 -2.0951 -3.6264  1.2549
  950MOL0     H31033   7.219   0.919  10.807 -1.9071 -0.9633 -2.2092
  950MOL0     H31034   7.265   1.076  10.736 -1.2541 -0.7743  0.4050
  950MOL0     H31035   7.495   1.042  10.734  1.5491 -2.1920 -0.1111
  950MOL0     H31036   7.427   1.012  10.900 -0.2667 -3.7465  1.4230
  950MOL0     H31037   7.490   0.789  10.896 -1.9682  0.0832 -0.7514
  950MOL0     H31038   7.476   0.768  10.722 -1.3244  0.9137  0.3651
  950MOL0     H31039   7.686   0.927  10.707  1.9390  0.1483  1.4552
  950MOL0     H31040   7.702   0.866  10.876 -1.1955 -2.3929  1.0097
  950MOL0     H31041   7.693   0.704  10.616 -2.1602  3.2633 -0.6586
  950MOL0     H31042   7.678   0.632  10.774  0.2772 -1.4915 -2.7617
  950MOL0     H31043   7.898   0.613  10.685  2.0205  0.5912  1.0198
  950MOL0     H31044   7.914   0.786  10.664 -0.9472  1.0678 -0.8600
  950MOL0     H31045   7.867   0.646  10.930  0.1882 -0.3377 -0.5427
  950MOL0     H31046   7.903   0.814  10.903 -2.0836 -1.1046 -1.8363
  950MOL0     H31047   8.124   0.752  10.793 -0.9068  0.1096  0.0248
  950MOL0     H31048   8.123   0.721  10.962 -0.7709 -0.8413  0.2974
  950MOL0     H31049   8.038   0.465  11.025  1.0076  2.4795  0.0235
  950MOL0     H31050   8.186   0.147  10.892 -0.2783 -2.6237 -1.2497
  950MOL0     H31051   8.022   0.145  10.822  0.2960  0.9029 -1.2899
  950MOL0     H31052   8.108   0.209  11.109  0.4055 -0.8346 -0.3275
  950MOL0     H31053   7.940   0.233  11.058  0.7078  1.7390 -1.2196
  950MOL0     H31054   8.102  -0.025  11.070  0.0813 -0.3247 -0.3145
  950MOL0     H31055   7.963   0.007  11.175 -1.0127 -0.3246 -0.6604
  950MOL0     H31056   7.817   0.002  10.989 -0.1030 -0.2515 -0.0213
  950MOL0     H31057   7.950  -0.055  10.887  2.1135  1.0350  0.7604
  950MOL0     H31058   7.886  -0.413  11.155  0.6918 -0.9634 -0.3464
  950MOL0     H31059   7.917  -0.613  11.182 -0.0144 -0.1242  1.7324
  950MOL0     H31060   8.078  -0.618  11.274 -2.2839  1.0455  0.9289
  950MOL0     H31061   8.052  -0.721  11.136  1.1549 -1.8773  3.3667
  950MOL0     H31062   8.281  -0.866  10.828  1.4199 -3.2757 -0.5237
  950MOL0     H31063   8.445  -1.037  10.770  1.1468 -0.3093  2.0227
  950MOL0     H31064   8.635  -1.161  10.870 -0.0461 -0.5859 -0.5519
  950MOL0     H31065   8.642  -1.191  10.706  0.2004 -1.7713  0.5883
  950MOL0     H31066   8.897  -1.114  10.824 -0.3176  1.0332 -2.0520
  950MOL0     H31067   8.857  -1.282  10.865  1.0076 -0.0974  0.0837
  950MOL0     H31068   8.869  -1.161  10.587 -1.4139 -0.3491  1.1597
  950MOL0     H31069   8.790  -1.302  10.618  0.4963  1.9836 -4.4986
  950MOL0     H31070   9.020  -1.351  10.533 -1.1925 -0.4918 -0.3227
  950MOL0     H31071   8.995  -1.421  10.689 -0.7717  0.7944  1.9679
  950MOL0     H31072   9.120  -1.144  10.637 -0.6792 -0.0871  0.4008
  950MOL0     H31073   9.124  -1.222  10.790  0.7349 -1.7668  0.5838
  950MOL0     H31074   9.268  -1.382  10.582  1.4949  1.6747 -0.2589
  950MOL0     H31075   9.271  -1.395  10.761  0.1976  0.2850  1.0215
  950MOL0     H31076   9.350  -1.138  10.734 -0.8384 -1.1881  0.8614
  950MOL0     H31077   9.377  -1.179  10.570 -0.3307 -1.9115 -0.8822
  950MOL0     H31078   9.582  -1.186  10.718  2.3130 -1.2874  0.6658
  950MOL0     H31079   9.542  -1.348  10.642 -4.4090  0.1318 -2.0451
  950MOL0     H31080   8.749  -0.747  10.863  0.7838  3.6329 -1.7537
  950MOL0     H31081   8.584  -0.571  10.861 -0.3890 -0.6923 -0.8401
  950MOL0     H31082   8.292  -0.370  10.881  0.4772 -0.1782 -0.1880
  950MOL0     H31083   8.128  -0.182  10.875 -0.5247 -0.9182 -2.4009
  950MOL0     H31084   7.249   0.857  10.367  0.0232 -0.7027 -0.3373
  950MOL0     H31085   7.039   0.825  10.232 -2.7368  1.7629 -0.7313
  950MOL0     H31086   6.592   0.918  10.218 -2.8467  1.1524  1.0544
  950MOL0     H31087   6.364   0.904  10.165  1.0157 -0.0591  1.2331
  950MOL0     H31088   6.118   0.854  10.211  2.2455 -1.3087  1.3036
  950MOL0     H31089   6.191   0.832  10.044 -1.7489 -0.3217 -1.6265
  950MOL0     H31090   5.950   0.709  10.159  3.8553  0.4008  1.8876
  950MOL0     H31091   6.034   0.626  10.031  1.3966 -0.4581  0.1737
  950MOL0     H31092   5.947   0.921  10.006  2.4215 -1.3217  3.7773
  950MOL0     H31093   6.008   0.816   9.881  1.3596 -2.2677 -0.3447
  950MOL0     H31094   5.799   0.678   9.884  0.8752 -0.1032 -1.1805
  950MOL0     H31095   5.769   0.845   9.872 -1.2937 -1.6117 -1.3304
  950MOL0     H31096   5.578   0.736  10.236 -1.9347  0.2793 -0.1979
  950MOL0     H31097   6.375   0.482  10.271 -0.1316 -0.3030  0.7200
  950MOL0     H31098   6.702   0.441  10.204 -0.4264 -2.2850  0.4666
  950MOL0     H31099   6.700   0.461  10.385  0.6130 -0.6582  0.1978
  950MOL0     H31100   6.573   0.367  10.300 -2.0549  0.6172 -2.2314
  951MOL0     O31101   0.818  10.839   7.831  0.0007 -0.0960  0.1596
  951MOL0     C31102   0.787  10.737   7.887 -0.0340 -0.3269 -0.1877
  951MOL0     O31103   0.871  10.642   7.928  0.0557 -0.2807  0.3688
  951MOL0     C31104   1.004  10.652   7.903 -0.1285 -0.3862  0.6732
  951MOL0     C31105   1.055  10.620   7.773 -0.1404 -0.3083  0.1894
  951MOL0     C31106   1.194  10.637   7.729  0.2429 -0.0957  0.1593
  951MOL0     C31107   1.287  10.681   7.830  0.1455 -0.1334 -0.3408
  951MOL0     O31108   1.427  10.685   7.813 -0.1337 -0.7832 -0.0728
  951MOL0     C31109   1.466  10.675   7.681  0.4852 -0.6167  0.3706
  951MOL0     C31110   1.611  10.705   7.664  0.0100 -0.0743  0.8997
  951MOL0     C31111   1.654  10.848   7.699  0.2806  0.2722 -0.6455
  951MOL0     C31112   1.788  10.866   7.629 -0.6705 -0.3441  0.3558
  951MOL0     C31113   1.876  10.986   7.673 -0.4600 -0.5639  0.1578
  951MOL0     C31114   1.955  10.954   7.798 -0.1192 -0.1361  0.3894
  951MOL0     C31115   2.083  10.861   7.783  0.4159  0.9483 -0.1239
  951MOL0     C31116   2.129  10.823   7.927 -0.2551 -0.0362 -0.2316
  951MOL0     N31117   2.271  10.776   7.925  0.1711 -0.2006 -0.5632
  951MOL0     C31118   2.317  10.666   7.864  0.2528  0.5609  0.1521
  951MOL0     C31119   2.441  10.655   7.911 -0.2501 -0.9693  0.2558
  951MOL0     C31120   2.527  10.547   7.877  0.7490  1.0473  0.2831
  951MOL0     C31121   2.656  10.591   7.817  0.6743 -0.4941  0.6166
  951MOL0     C31122   2.726  10.471   7.751 -0.0004  1.0031  0.2347
  951MOL0     C31123   2.837  10.511   7.661 -0.2782  0.0294 -0.3415
  951MOL0     O31124   2.943  10.556   7.754 -0.5396  1.1279  0.6373
  951MOL0     C31125   3.069  10.553   7.692 -0.2629 -0.6643  0.1385
  951MOL0     C31126   3.106  10.613   7.572 -0.4107  0.3653  0.2884
  951MOL0     C31127   3.238  10.590   7.519 -0.8365  0.1877 -0.7722
  951MOL0     C31128   3.259  10.658   7.382  0.3327 -0.3607  0.6580
  951MOL0     C31129   3.339  10.520   7.597 -0.3658  0.4643 -1.2149
  951MOL0     C31130   3.478  10.493   7.552 -0.9974  0.0896 -0.4454
  951MOL0     O31131   3.519  10.531   7.424 -0.3648  0.0702 -0.4170
  951MOL0     C31132   3.641  10.484   7.388 -0.3645 -0.2773  1.2628
  951MOL0     C31133   3.752  10.559   7.429 -0.5274 -0.4446 -0.0060
  951MOL0     C31134   3.886  10.536   7.388  0.4002  0.2631  0.4644
  951MOL0     C31135   3.907  10.430   7.294  0.2558 -0.0369 -0.4334
  951MOL0     O31136   4.036  10.419   7.238  0.4106 -0.6445  0.2701
  951MOL0     C31137   4.112  10.322   7.315  0.4150 -0.8335  0.4946
  951MOL0     C31138   4.184  10.232   7.218 -0.2899  0.1128 -0.3972
  951MOL0     C31139   4.289  10.320   7.141 -0.0479 -0.3911  1.1352
  951MOL0     C31140   4.385  10.230   7.074 -0.1883 -0.0227  0.0299
  951MOL0     C31141   4.487  10.166   7.170  0.3074  0.5155  0.4723
  951MOL0     C31142   4.603  10.263   7.191  0.9728  0.1383  0.2168
  951MOL0     C31143   4.700  10.199   7.294  0.1111  0.4201  0.9232
  951MOL0     C31144   4.823  10.291   7.308 -0.0716 -0.5891 -0.6416
  951MOL0    Cl31145   4.945  10.240   7.435 -0.2378  0.1997  0.1556
  951MOL0     C31146   3.795  10.364   7.245  0.1528 -0.1895 -0.7171
  951MOL0     C31147   3.664  10.384   7.290  0.0118  0.3880  0.0046
  951MOL0     O31148   3.549  10.438   7.636 -0.0418  0.3123  0.4390
  951MOL0     C31149   3.299  10.475   7.717 -0.4228 -0.0629  0.5406
  951MOL0     C31150   3.166  10.482   7.759 -0.0669 -0.8837 -0.5200
  951MOL0     N31151   2.473  10.753   7.998 -0.1071 -0.7098 -0.6983
  951MOL0     N31152   2.371  10.833   7.998  0.2175  0.4473 -0.0264
  951MOL0     C31153   1.234  10.710   7.967  0.3432 -0.7458  0.6445
  951MOL0     C31154   1.100  10.694   7.995 -0.3039 -0.7107 -0.3359
  951MOL0     C31155   0.644  10.709   7.886 -0.0401  0.2045  0.5313
  951MOL0     C31156   0.612  10.569   7.884 -0.2141  0.5796  0.1954
  951MOL0     C31157   0.481  10.529   7.871 -0.7272  0.2267  0.1862
  951MOL0     C31158   0.373  10.623   7.866 -0.8887  0.8996  0.3893
  951MOL0     O31159   0.247  10.566   7.854 -0.1032  0.3765  0.2720
  951MOL0     C31160   0.132  10.646   7.822  0.4707  0.1391  0.2073
  951MOL0     C31161   0.017  10.567   7.872 -0.4790 -0.0379  0.2229
  951MOL0     C31162  -0.113  10.640   7.852 -0.1707  0.2414  0.0255
  951MOL0     C31163  -0.239  10.583   7.918  0.3958 -1.1003  0.2260
  951MOL0     C31164  -0.237  10.436   7.903  0.3987  0.8561  0.0627
  951MOL0     C31165  -0.214  10.317   7.896  0.5299  1.1510  0.4430
  951MOL0     C31166   0.412  10.757   7.867  0.9347  0.6535 -0.0082
  951MOL0     C31167   0.542  10.801   7.872  0.2333 -0.6439  0.8815
  951MOL0     C31168   0.563  10.946   7.873  0.0618 -0.8455  0.6266
  951MOL0     H31169   0.977  10.581   7.708 -0.6161  0.8860 -0.0022
  951MOL0     H31170   1.211  10.610   7.625 -5.1350 -1.4149 -0.6508
  951MOL0     H31171   1.407  10.744   7.620  0.2455 -0.8164  0.3775
  951MOL0     H31172   1.455  10.573   7.642 -0.0223 -0.8284  1.0612
  951MOL0     H31173   1.669  10.637   7.726 -1.4200 -0.4833  1.8542
  951MOL0     H31174   1.631  10.680   7.560 -1.2100 -3.1171  1.2860
  951MOL0     H31175   1.575  10.916   7.666  0.6376  1.2502  0.4490
  951MOL0     H31176   1.673  10.866   7.805 -2.0461 -0.0807 -0.1075
  951MOL0     H31177   1.854  10.780   7.643 -1.7830 -1.6796 -1.9222
  951MOL0     H31178   1.773  10.887   7.522  0.2052 -0.2565  0.2386
  951MOL0     H31179   1.818  11.076   7.692 -0.7290 -0.7142  0.0581
  951MOL0     H31180   1.946  10.998   7.590  0.8498 -2.4151  0.9276
  951MOL0     H31181   1.994  11.047   7.842 -2.4308  0.3165  1.6208
  951MOL0     H31182   1.884  10.910   7.868 -2.3519  1.4967 -0.7456
  951MOL0     H31183   2.159  10.902   7.715 -0.0662  0.3753 -1.0206
  951MOL0     H31184   2.049  10.775   7.725  0.0317  0.3302  0.9882
  951MOL0     H31185   2.126  10.910   7.993  3.6109 -1.1157  1.6419
  951MOL0     H31186   2.062  10.744   7.964 -1.9851  1.7518  0.6090
  951MOL0     H31187   2.265  10.582   7.818 -1.0312  0.2088  2.1410
  951MOL0     H31188   2.481  10.477   7.806  0.6918  1.3263  0.0458
  951MOL0     H31189   2.537  10.478   7.961 -2.1187 -1.0369 -0.9140
  951MOL0     H31190   2.623  10.665   7.744  1.4712  2.6437  3.2093
  951MOL0     H31191   2.712  10.638   7.898  0.0086 -0.3992  1.0333
  951MOL0     H31192   2.757  10.399   7.827 -1.2580 -2.1136 -1.9758
  951MOL0     H31193   2.658  10.411   7.690  0.4316  0.9016 -0.1491
  951MOL0     H31194   2.856  10.425   7.596 -2.2834 -2.6933  2.3826
  951MOL0     H31195   2.811  10.597   7.599  0.6698 -0.5735 -1.6202
  951MOL0     H31196   3.030  10.673   7.522 -0.4518 -1.3401 -1.8415
  951MOL0     H31197   3.164  10.676   7.330  1.2458  2.3295 -0.2711
  951MOL0     H31198   3.311  10.609   7.299 -1.1826 -0.6835 -0.1353
  951MOL0     H31199   3.295  10.761   7.392 -1.3969  0.4617 -0.8223
  951MOL0     H31200   3.737  10.648   7.489 -0.2773  0.0979 -0.7235
  951MOL0     H31201   3.968  10.596   7.427  0.2525  0.8224 -0.0592
  951MOL0     H31202   4.176  10.386   7.376 -2.2980  1.4353  1.1812
  951MOL0     H31203   4.047  10.260   7.377 -0.8552 -0.7227 -0.6792
  951MOL0     H31204   4.235  10.153   7.274  2.2970  0.1385 -2.4926
  951MOL0     H31205   4.105  10.186   7.158  0.5962 -0.2025 -1.3759
  951MOL0     H31206   4.352  10.392   7.194  2.7408 -1.4097 -0.5901
  951MOL0     H31207   4.239  10.371   7.058  0.7728  1.2917  1.6313
  951MOL0     H31208   4.442  10.285   6.999 -0.8311 -1.4283 -1.5772
  951MOL0     H31209   4.327  10.150   7.026 -0.3180 -1.1659  1.9808
  951MOL0     H31210   4.447  10.141   7.269 -2.1236 -2.2277 -1.0265
  951MOL0     H31211   4.518  10.070   7.128  1.8580  0.0589  2.5339
  951MOL0     H31212   4.578  10.363   7.227  2.0571 -0.3761  2.6014
  951MOL0     H31213   4.654  10.280   7.096  0.4606  1.4006  0.1530
  951MOL0     H31214   4.746  10.104   7.264 -0.9476  0.1447  0.0790
  951MOL0     H31215   4.650  10.194   7.391 -2.5369  1.8115 -0.2687
  951MOL0     H31216   4.791  10.393   7.329 -1.8994 -1.0339 -1.0581
  951MOL0     H31217   4.874  10.299   7.212 -1.6522  0.1127 -1.4619
  951MOL0     H31218   3.826  10.296   7.166  1.0743  0.6788 -1.1310
  951MOL0     H31219   3.588  10.333   7.232 -0.5457  1.9016 -0.6568
  951MOL0     H31220   3.364  10.427   7.790 -0.8077  2.1991  2.4960
  951MOL0     H31221   3.157  10.439   7.859  3.8428  1.7564  1.2518
  951MOL0     H31222   1.301  10.748   8.043  0.5741 -1.7286  0.9441
  951MOL0     H31223   1.075  10.714   8.099  3.1307 -0.4092  0.5794
  951MOL0     H31224   0.683  10.487   7.891 -2.3569 -1.4167 -0.0970
  951MOL0     H31225   0.455  10.424   7.863 -2.9798  0.8436 -1.6302
  951MOL0     H31226   0.131  10.747   7.864 -1.1993  1.1661 -2.0855
  951MOL0     H31227   0.131  10.660   7.713 -0.2422  1.7134  0.3905
  951MOL0     H31228   0.038  10.551   7.978  1.3500 -1.5283 -0.3168
  951MOL0     H31229   0.018  10.473   7.816  2.3317  1.7019 -3.0958
  951MOL0     H31230  -0.100  10.741   7.892  1.4504 -0.7193  2.0920
  951MOL0     H31231  -0.127  10.630   7.744 -0.5291 -0.9794  0.1749
  951MOL0     H31232  -0.330  10.625   7.874  0.8316  2.3928  2.2926
  951MOL0     H31233  -0.246  10.608   8.025 -0.7343  1.5170 -0.3894
  951MOL0     H31234  -0.178  10.216   7.897  4.0872  2.2821  1.3439
  951MOL0     H31235   0.336  10.835   7.858 -0.7308 -0.5797  2.2600
  951MOL0     H31236   0.600  10.986   7.778  0.7667 -1.8237  0.4683
  951MOL0     H31237   0.471  11.003   7.894  1.2822  0.8272  1.6810
  951MOL0     H31238   0.631  10.981   7.951  1.0386 -1.0981 -0.0933
  952MOL0     O31239   6.971   5.185  11.339  0.3532 -0.4756  0.1575
  952MOL0     C31240   6.903   5.225  11.431  0.1323 -0.0679  0.2941
  952MOL0     O31241   6.879   5.148  11.544  0.2016 -0.7600  0.4658
  952MOL0     C31242   6.959   5.045  11.571 -0.2025 -0.3694  0.2906
  952MOL0     C31243   7.049   5.043  11.678 -0.0723 -0.6765 -0.2820
  952MOL0     C31244   7.121   4.929  11.712  0.5282 -0.0300  0.4575
  952MOL0     C31245   7.097   4.813  11.636 -0.3378 -0.0462  0.3794
  952MOL0     O31246   7.163   4.701  11.680 -0.6793  0.1066  0.2338
  952MOL0     C31247   7.155   4.579  11.607  0.5824 -0.8698 -0.5405
  952MOL0     C31248   7.259   4.493  11.659 -0.9389  0.2357 -0.1350
  952MOL0     C31249   7.401   4.554  11.633 -0.0137  0.1479  0.6827
  952MOL0     C31250   7.503   4.452  11.666  0.5360  0.8327 -0.3579
  952MOL0     C31251   7.643   4.512  11.648  0.5750  0.6518  0.2298
  952MOL0     C31252   7.675   4.626  11.746  1.2567  0.7523  1.0555
  952MOL0     C31253   7.826   4.639  11.765 -0.5498 -0.5238 -0.8859
  952MOL0     C31254   7.903   4.661  11.634  0.2991  0.2472  0.1942
  952MOL0     N31255   8.050   4.667  11.664  0.2258  0.1614 -0.5520
  952MOL0     C31256   8.139   4.558  11.677  0.5702 -0.0913  0.4670
  952MOL0     C31257   8.262   4.611  11.690 -0.9892 -1.0377  1.0393
  952MOL0     C31258   8.388   4.522  11.701  1.5752 -0.0109 -0.7462
  952MOL0     C31259   8.398   4.488  11.852 -1.1321  0.1067  1.0300
  952MOL0     C31260   8.429   4.608  11.948 -0.3166  0.1179 -0.3195
  952MOL0     C31261   8.382   4.561  12.093 -1.1944 -0.0107 -1.0769
  952MOL0     O31262   8.452   4.440  12.123 -0.3528 -0.4002 -0.4913
  952MOL0     C31263   8.585   4.450  12.146 -0.1519  0.1075  0.6907
  952MOL0     C31264   8.646   4.325  12.153 -0.4106 -0.3217 -0.9145
  952MOL0     C31265   8.782   4.308  12.160 -0.7441 -0.2396 -0.2488
  952MOL0     C31266   8.829   4.163  12.154 -1.4421  0.6249 -0.4316
  952MOL0     C31267   8.860   4.423  12.160 -0.6535 -0.7409  0.2267
  952MOL0     C31268   9.009   4.417  12.157  0.1402  0.3065 -0.1801
  952MOL0     O31269   9.069   4.526  12.112  0.4974  0.0191  0.5262
  952MOL0     C31270   9.204   4.529  12.107 -0.0244  0.1982  0.5490
  952MOL0     C31271   9.264   4.492  11.984 -0.5587  0.2447 -0.1518
  952MOL0     C31272   9.405   4.513  11.970  0.4782 -0.1883 -0.0747
  952MOL0     C31273   9.482   4.548  12.081 -0.1764 -0.7370 -0.1478
  952MOL0     O31274   9.619   4.564  12.069 -0.1728 -0.6906 -0.1757
  952MOL0     C31275   9.696   4.445  12.026  0.5058  0.2079  0.5871
  952MOL0     C31276   9.809   4.415  12.124  0.3560 -0.3931 -1.1934
  952MOL0     C31277   9.748   4.350  12.246  0.4229 -0.6705 -0.5664
  952MOL0     C31278   9.836   4.369  12.368 -0.3328  0.3072 -1.6596
  952MOL0     C31279   9.979   4.312  12.351 -0.9453  0.1830  0.3907
  952MOL0     C31280  10.038   4.273  12.487  0.0557 -0.3165 -0.1453
  952MOL0     C31281  10.163   4.190  12.480 -0.3309  0.0090 -0.1483
  952MOL0     C31282  10.298   4.263  12.458 -0.5749 -0.1421  0.0509
  952MOL0    Cl31283  10.336   4.367  12.590  0.3284  0.0220 -0.6037
  952MOL0     C31284   9.415   4.574  12.207 -0.8816  0.7113 -0.9615
  952MOL0     C31285   9.276   4.589  12.208 -0.0915  0.6277 -0.3185
  952MOL0     O31286   9.066   4.322  12.199 -0.5460 -0.2414 -0.3084
  952MOL0     C31287   8.801   4.554  12.151 -0.5563  0.3491 -0.0687
  952MOL0     C31288   8.661   4.567  12.139 -0.8798 -0.1096 -0.4874
  952MOL0     N31289   8.250   4.748  11.708  0.9634 -1.2193  0.0729
  952MOL0     N31290   8.126   4.779  11.705  0.1876 -0.1247  1.2614
  952MOL0     C31291   6.994   4.810  11.538 -1.2100 -0.1813 -0.2575
  952MOL0     C31292   6.939   4.927  11.502  0.2867  0.4277  0.3936
  952MOL0     C31293   6.858   5.365  11.433 -0.0373 -0.7865 -0.4166
  952MOL0     C31294   6.725   5.387  11.462 -0.4878 -0.4013  0.0488
  952MOL0     C31295   6.677   5.519  11.477  1.7744  1.0035  0.1757
  952MOL0     C31296   6.751   5.632  11.466  0.6275  0.4621  0.3732
  952MOL0     O31297   6.688   5.756  11.483 -0.1784 -0.1443  0.6379
  952MOL0     C31298   6.599   5.790  11.372 -0.0216 -0.1572 -0.1425
  952MOL0     C31299   6.462   5.823  11.430  0.0188 -0.6658 -0.6072
  952MOL0     C31300   6.458   5.959  11.504 -0.5562  0.3091 -0.1300
  952MOL0     C31301   6.331   5.996  11.582  0.3724 -0.2690  0.5625
  952MOL0     C31302   6.215   6.002  11.496 -0.3593  0.1017  0.1711
  952MOL0     C31303   6.109   5.993  11.438 -0.4837 -0.2444 -0.5507
  952MOL0     C31304   6.885   5.610  11.437 -0.0788  0.4831 -0.7268
  952MOL0     C31305   6.941   5.480  11.417  0.6239 -0.6537 -0.2976
  952MOL0     C31306   7.089   5.465  11.378  0.4090 -0.1201  0.5172
  952MOL0     H31307   7.067   5.134  11.733  2.4157 -1.1663 -0.1432
  952MOL0     H31308   7.194   4.928  11.793  0.0005  0.3094  0.9429
  952MOL0     H31309   7.169   4.600  11.501 -0.0105  2.3581 -0.0917
  952MOL0     H31310   7.057   4.533  11.624 -0.5750  1.5659 -0.2932
  952MOL0     H31311   7.236   4.493  11.766 -0.0510 -2.5710  0.1226
  952MOL0     H31312   7.257   4.394  11.613  3.4759 -0.6820  1.1218
  952MOL0     H31313   7.413   4.602  11.536  1.8373  3.0797  2.2424
  952MOL0     H31314   7.412   4.636  11.704  0.8593 -0.8999  1.7816
  952MOL0     H31315   7.482   4.406  11.763 -0.9163 -1.2732 -1.5748
  952MOL0     H31316   7.489   4.361  11.607 -0.1789 -0.4015  1.6148
  952MOL0     H31317   7.656   4.551  11.547  2.4586  3.7224  1.5272
  952MOL0     H31318   7.707   4.428  11.678  0.4788  1.0294  1.5499
  952MOL0     H31319   7.633   4.711  11.690 -1.5558 -1.2738 -0.1943
  952MOL0     H31320   7.629   4.615  11.845  0.7678 -0.1836  0.7334
  952MOL0     H31321   7.869   4.558  11.824 -0.5085  0.9121  1.1660
  952MOL0     H31322   7.853   4.732  11.815 -2.1181 -1.5146  2.0265
  952MOL0     H31323   7.903   4.571  11.572  3.3435  0.6650 -0.5675
  952MOL0     H31324   7.866   4.752  11.584 -1.3160  0.3714  1.5292
  952MOL0     H31325   8.114   4.453  11.666 -1.0907  0.5445 -3.2310
  952MOL0     H31326   8.472   4.587  11.678  1.6029  0.6565  1.0395
  952MOL0     H31327   8.390   4.437  11.632  3.9689  0.0345 -0.8258
  952MOL0     H31328   8.313   4.430  11.890 -1.0085  0.0942  1.2902
  952MOL0     H31329   8.479   4.416  11.864 -0.7495  0.4210  0.3956
  952MOL0     H31330   8.533   4.641  11.940 -1.4493  3.6673 -2.4082
  952MOL0     H31331   8.369   4.689  11.906  0.0514  0.8301  0.5009
  952MOL0     H31332   8.410   4.630  12.172  1.6906 -2.1651 -0.0229
  952MOL0     H31333   8.278   4.528  12.100 -1.4205  1.0309  1.3045
  952MOL0     H31334   8.589   4.232  12.150  1.4718 -1.6384  1.2328
  952MOL0     H31335   8.887   4.134  12.242  0.1485 -0.2999 -1.7222
  952MOL0     H31336   8.893   4.136  12.070  1.2826 -2.0423  2.2658
  952MOL0     H31337   8.747   4.090  12.151 -0.7023 -0.2513  0.3231
  952MOL0     H31338   9.205   4.454  11.902  1.5593  0.9339 -2.1096
  952MOL0     H31339   9.455   4.485  11.878  2.1663  1.5615  0.2564
  952MOL0     H31340   9.636   4.356  12.006  1.3024  0.3863 -3.6170
  952MOL0     H31341   9.740   4.467  11.928 -1.2700 -4.6031 -1.6164
  952MOL0     H31342   9.888   4.352  12.083  2.5360  0.8029  0.8943
  952MOL0     H31343   9.855   4.510  12.154  0.2782 -0.5040 -0.7152
  952MOL0     H31344   9.722   4.246  12.223 -2.4075 -0.0288 -0.6618
  952MOL0     H31345   9.648   4.388  12.270 -0.9136 -2.3273 -3.0169
  952MOL0     H31346   9.784   4.324  12.454  0.6621 -0.8758 -1.6568
  952MOL0     H31347   9.847   4.475  12.390  1.2794 -0.0405 -0.6015
  952MOL0     H31348   9.982   4.224  12.287  1.7677 -1.0338  2.0018
  952MOL0     H31349  10.039   4.387  12.299 -1.8566  1.3774  1.0151
  952MOL0     H31350   9.974   4.209  12.550  1.7641  0.7348  2.8653
  952MOL0     H31351  10.055   4.367  12.540 -0.9787  1.3100 -2.5427
  952MOL0     H31352  10.152   4.112  12.404  1.5930  0.2512 -0.7426
  952MOL0     H31353  10.171   4.140  12.577 -1.5843 -2.0053 -1.0121
  952MOL0     H31354  10.302   4.317  12.363 -0.3778 -2.1390 -1.1531
  952MOL0     H31355  10.375   4.186  12.443  0.6157  1.2672 -1.4235
  952MOL0     H31356   9.475   4.607  12.291 -0.3548 -1.9634 -0.1824
  952MOL0     H31357   9.232   4.624  12.301  2.8417 -3.8755  3.1706
  952MOL0     H31358   8.859   4.646  12.155 -0.5969  0.3904 -0.4558
  952MOL0     H31359   8.625   4.670  12.142  1.3296  0.6964  1.8220
  952MOL0     H31360   6.964   4.732  11.469  2.3305 -1.1638 -0.8971
  952MOL0     H31361   6.858   4.924  11.429 -0.4048 -3.0253  1.1298
  952MOL0     H31362   6.658   5.305  11.482 -1.5251  0.4420  0.0949
  952MOL0     H31363   6.574   5.537  11.506  0.9796 -3.9447  1.3307
  952MOL0     H31364   6.629   5.877  11.311 -1.8655 -0.1983 -1.1907
  952MOL0     H31365   6.589   5.708  11.301 -0.2578  1.9359 -2.6968
  952MOL0     H31366   6.435   5.740  11.497  2.9809 -1.6703 -0.5186
  952MOL0     H31367   6.391   5.820  11.347  0.7600 -2.5246 -1.2307
  952MOL0     H31368   6.541   5.957  11.575  1.0493  1.1712 -1.9008
  952MOL0     H31369   6.479   6.035  11.429 -1.4992  0.3795 -0.3385
  952MOL0     H31370   6.344   6.094  11.629  1.5064  0.3343 -0.9534
  952MOL0     H31371   6.321   5.911  11.651  2.6474 -2.6405 -1.7948
  952MOL0     H31372   6.030   5.990  11.365  1.4390  0.1891 -2.7989
  952MOL0     H31373   6.952   5.695  11.423 -0.7500  1.3041  0.8561
  952MOL0     H31374   7.110   5.469  11.270  1.8805  1.2548  0.8310
  952MOL0     H31375   7.138   5.553  11.419  0.1811  0.3692 -0.2288
  952MOL0     H31376   7.137   5.376  11.419  0.1890 -0.5004 -0.0355
  953MOL0     O31377   1.361   8.675   1.308  0.4004 -0.4810  0.5056
  953MOL0     C31378   1.375   8.691   1.183 -0.2229 -0.7128  0.1943
  953MOL0     O31379   1.497   8.727   1.119  0.3209 -0.1589 -0.0306
  953MOL0     C31380   1.610   8.730   1.190 -0.0162 -1.0008 -0.2870
  953MOL0     C31381   1.686   8.612   1.195  0.2824  0.0084  0.0306
  953MOL0     C31382   1.806   8.598   1.266  0.1033  0.2648  0.6215
  953MOL0     C31383   1.856   8.713   1.325  0.1545 -0.0101  0.0056
  953MOL0     O31384   1.979   8.693   1.385 -0.5930  0.4479 -0.0383
  953MOL0     C31385   2.044   8.799   1.459 -0.7720 -0.1781  0.6051
  953MOL0     C31386   2.122   8.893   1.362  0.5187  0.6474 -0.3747
  953MOL0     C31387   2.253   8.812   1.320  0.9326 -0.5422  0.1847
  953MOL0     C31388   2.350   8.907   1.245 -0.5706 -0.0742  0.4131
  953MOL0     C31389   2.471   8.827   1.194 -0.3329 -0.4030  0.5585
  953MOL0     C31390   2.440   8.779   1.047  0.0539  0.0536 -0.2411
  953MOL0     C31391   2.558   8.731   0.966 -0.1155  0.1561  0.0413
  953MOL0     C31392   2.515   8.637   0.844  0.0107 -0.5881 -0.3656
  953MOL0     N31393   2.465   8.711   0.729  0.8358  1.2037  0.7985
  953MOL0     C31394   2.528   8.825   0.668  0.6906  0.1208 -0.2658
  953MOL0     C31395   2.458   8.845   0.554 -0.0429  0.7463  1.3354
  953MOL0     C31396   2.501   8.928   0.432 -0.1752  0.3406  0.2000
  953MOL0     C31397   2.603   8.854   0.348  0.5118  0.1395 -0.1951
  953MOL0     C31398   2.637   8.942   0.225 -0.3096 -0.2838  0.3425
  953MOL0     C31399   2.704   8.861   0.111  0.0166 -0.2599  0.3407
  953MOL0     O31400   2.820   8.793   0.161 -0.5438  0.8505  0.3439
  953MOL0     C31401   2.943   8.845   0.136 -0.4565 -0.2571 -0.3318
  953MOL0     C31402   2.970   8.981   0.114 -0.2445  0.2653  0.2010
  953MOL0     C31403   3.104   9.031   0.110 -0.2981 -0.1520  0.0153
  953MOL0     C31404   3.127   9.180   0.088 -0.2719 -0.6989 -0.1495
  953MOL0     C31405   3.213   8.943   0.145 -0.7966 -0.4032  0.5118
  953MOL0     C31406   3.360   8.987   0.156  0.3229  0.6462  0.5486
  953MOL0     O31407   3.441   8.901   0.231  0.5901 -0.1185  0.1405
  953MOL0     C31408   3.570   8.946   0.262  1.1736  0.3557 -0.0107
  953MOL0     C31409   3.611   8.965   0.392  0.9507  0.2620 -0.0567
  953MOL0     C31410   3.741   8.998   0.426 -0.6846 -0.8994 -0.0875
  953MOL0     C31411   3.831   9.024   0.323  0.4936  0.4733 -0.2308
  953MOL0     O31412   3.951   9.072   0.369  0.6138 -0.5197  0.3871
  953MOL0     C31413   4.058   9.060   0.280 -1.0936  0.1228 -1.2551
  953MOL0     C31414   4.189   9.068   0.366  0.0686 -1.0052 -0.0140
  953MOL0     C31415   4.317   9.016   0.282 -0.4146  0.1254  0.2524
  953MOL0     C31416   4.449   9.039   0.354  0.4306  0.8186  0.1214
  953MOL0     C31417   4.556   8.963   0.271  0.1792  0.4847  0.3217
  953MOL0     C31418   4.674   8.937   0.363  0.5281 -1.2636 -0.7736
  953MOL0     C31419   4.789   8.841   0.316  0.0931 -0.9978  0.6621
  953MOL0     C31420   4.913   8.853   0.400  0.6527  0.3424  0.1431
  953MOL0    Cl31421   4.986   9.010   0.393  0.2889  0.0256  0.0936
  953MOL0     C31422   3.797   9.011   0.187 -0.3384 -0.4895  0.4449
  953MOL0     C31423   3.667   8.969   0.161  0.2329 -0.0080 -0.2534
  953MOL0     O31424   3.398   9.091   0.102  0.2190  0.1848  0.0782
  953MOL0     C31425   3.181   8.810   0.170 -0.0840 -0.4252 -0.5422
  953MOL0     C31426   3.050   8.755   0.162  0.3938  0.4414  0.3539
  953MOL0     N31427   2.357   8.738   0.553 -0.4301 -0.3561 -0.2497
  953MOL0     N31428   2.365   8.663   0.657 -0.2885  0.3963 -0.2244
  953MOL0     C31429   1.780   8.838   1.318 -0.0485  0.1781 -0.5847
  953MOL0     C31430   1.655   8.846   1.254 -0.0938  0.5467 -0.3848
  953MOL0     C31431   1.248   8.697   1.106  0.2128  0.3258 -0.7393
  953MOL0     C31432   1.250   8.766   0.988 -0.1180  0.2927 -0.3925
  953MOL0     C31433   1.143   8.770   0.891  0.4161 -0.2982  0.2096
  953MOL0     C31434   1.019   8.715   0.936 -0.3322  0.3125 -1.3140
  953MOL0     O31435   0.903   8.740   0.870 -0.1703  0.7015 -0.0089
  953MOL0     C31436   0.849   8.873   0.908 -0.5005 -0.4654  0.0168
  953MOL0     C31437   0.762   8.904   0.787 -0.2341 -0.2658 -0.5753
  953MOL0     C31438   0.685   9.032   0.792  0.1610 -0.2697  0.3945
  953MOL0     C31439   0.612   9.080   0.673  0.0080 -0.5612  0.2453
  953MOL0     C31440   0.510   8.989   0.626 -0.0824 -0.4285  0.2223
  953MOL0     C31441   0.429   8.915   0.576  0.0305 -0.2048  0.0448
  953MOL0     C31442   1.016   8.650   1.056  0.8732  0.4596 -0.3339
  953MOL0     C31443   1.132   8.627   1.138 -0.2071 -1.5987 -0.1668
  953MOL0     C31444   1.115   8.536   1.256  0.3292 -0.0196 -0.2526
  953MOL0     H31445   1.646   8.536   1.129  1.2050  0.2245 -0.7944
  953MOL0     H31446   1.873   8.512   1.263  1.2072  1.1244 -1.3797
  953MOL0     H31447   2.112   8.765   1.538  0.6270  1.5035  0.1869
  953MOL0     H31448   1.971   8.862   1.509 -1.3204  0.6264 -1.1386
  953MOL0     H31449   2.080   8.920   1.264  0.4840  1.1325 -0.2310
  953MOL0     H31450   2.138   8.985   1.420  0.0914 -0.6529  1.9189
  953MOL0     H31451   2.310   8.766   1.401  0.6391  0.6152  1.0878
  953MOL0     H31452   2.218   8.739   1.246  1.0795 -1.4470  0.9898
  953MOL0     H31453   2.292   8.955   1.166 -2.0225 -1.2527  0.7131
  953MOL0     H31454   2.394   8.981   1.313  1.7314 -0.2168 -0.8457
  953MOL0     H31455   2.494   8.747   1.266  0.8124  0.2050  0.8894
  953MOL0     H31456   2.556   8.895   1.182 -1.0481  0.0952 -2.6124
  953MOL0     H31457   2.358   8.706   1.047  0.4607 -0.4804 -2.0519
  953MOL0     H31458   2.405   8.866   0.991  3.0348  0.8660 -1.0173
  953MOL0     H31459   2.613   8.668   1.036 -0.1961  0.6227  0.5318
  953MOL0     H31460   2.634   8.805   0.939 -2.7300  3.0249 -0.1661
  953MOL0     H31461   2.611   8.589   0.825  0.7979  0.4085  0.9447
  953MOL0     H31462   2.444   8.561   0.877 -1.1046  1.0916  1.3473
  953MOL0     H31463   2.608   8.886   0.710 -0.3272  1.5068 -0.2735
  953MOL0     H31464   2.538   9.022   0.474  1.3642 -1.4389  3.1211
  953MOL0     H31465   2.414   8.957   0.372 -0.4692 -2.1666 -0.6855
  953MOL0     H31466   2.693   8.842   0.410  0.4545  1.9018  0.2755
  953MOL0     H31467   2.562   8.758   0.316  0.7393 -0.4607  1.2107
  953MOL0     H31468   2.538   8.974   0.191 -0.2715 -0.7522 -0.2152
  953MOL0     H31469   2.688   9.036   0.247 -0.8938 -0.3660  2.2092
  953MOL0     H31470   2.638   8.783   0.073 -0.5563  0.4143 -0.0753
  953MOL0     H31471   2.727   8.931   0.030  0.2100 -0.2102  0.4362
  953MOL0     H31472   2.885   9.048   0.108 -0.6425 -0.3535 -1.6897
  953MOL0     H31473   3.036   9.226   0.049 -0.9315 -0.3911  1.6285
  953MOL0     H31474   3.207   9.205   0.018  1.5107 -1.7564  1.4053
  953MOL0     H31475   3.149   9.239   0.178  0.1392 -1.5034  0.2800
  953MOL0     H31476   3.541   8.941   0.472  0.8730  1.4774  0.2586
  953MOL0     H31477   3.768   9.013   0.529  0.3027 -3.3102  0.0646
  953MOL0     H31478   4.061   8.963   0.230  1.9884  0.4046 -1.8122
  953MOL0     H31479   4.066   9.140   0.205  1.5315  1.8749  0.6746
  953MOL0     H31480   4.217   9.170   0.393  1.0565 -0.5426 -2.4731
  953MOL0     H31481   4.174   9.006   0.455 -1.3207 -0.5487  0.0808
  953MOL0     H31482   4.325   9.082   0.195  0.8823  1.1725  1.1215
  953MOL0     H31483   4.309   8.911   0.255  0.8172 -0.1509  0.8728
  953MOL0     H31484   4.447   9.013   0.460 -0.4845  0.0699 -0.0674
  953MOL0     H31485   4.482   9.143   0.363  0.9228  0.5230  2.0163
  953MOL0     H31486   4.528   8.870   0.221 -2.5128 -0.3357  3.0291
  953MOL0     H31487   4.595   9.028   0.192  0.9357  0.0805  0.3500
  953MOL0     H31488   4.623   8.887   0.446 -0.8107 -1.3721 -1.6216
  953MOL0     H31489   4.707   9.028   0.414 -0.4124 -2.3925  2.0327
  953MOL0     H31490   4.821   8.868   0.215 -4.3727 -1.3320 -1.0659
  953MOL0     H31491   4.745   8.741   0.315 -0.1747 -0.9015 -1.2442
  953MOL0     H31492   4.979   8.766   0.400  1.0966  0.5891 -2.6329
  953MOL0     H31493   4.878   8.858   0.504  0.1131 -1.9485  0.1179
  953MOL0     H31494   3.869   9.031   0.107 -2.6321 -1.0651 -1.9068
  953MOL0     H31495   3.645   8.962   0.055 -0.6579 -1.7481  0.0124
  953MOL0     H31496   3.257   8.748   0.215  0.4701  0.2405 -0.5435
  953MOL0     H31497   3.024   8.653   0.190 -0.9303  0.6322 -0.1034
  953MOL0     H31498   1.812   8.934   1.355 -5.0130  1.4130  1.2546
  953MOL0     H31499   1.586   8.929   1.265 -0.2475  0.1436  2.5075
  953MOL0     H31500   1.338   8.820   0.952 -0.6083  0.4546 -1.4006
  953MOL0     H31501   1.158   8.821   0.797  3.3917  1.4099  1.4661
  953MOL0     H31502   0.803   8.867   1.007  1.2159 -0.1157  0.8554
  953MOL0     H31503   0.928   8.947   0.919 -0.8737 -0.0138 -0.2963
  953MOL0     H31504   0.695   8.820   0.767  2.6084 -2.3039 -2.2720
  953MOL0     H31505   0.835   8.921   0.708 -0.3288  0.2279 -0.5628
  953MOL0     H31506   0.611   9.026   0.872 -1.1505 -1.8108 -0.8829
  953MOL0     H31507   0.759   9.111   0.810 -1.6951  1.4798  0.6239
  953MOL0     H31508   0.665   9.114   0.584 -1.2322 -0.1701 -0.3662
  953MOL0     H31509   0.562   9.172   0.704 -0.0002 -0.5442  0.1803
  953MOL0     H31510   0.357   8.846   0.538  0.9381 -0.6650 -0.8555
  953MOL0     H31511   0.923   8.605   1.092  2.4501 -1.9181  1.0676
  953MOL0     H31512   1.205   8.476   1.268 -0.8107 -1.3920  2.2683
  953MOL0     H31513   1.094   8.591   1.349 -1.0666 -0.8132 -0.0670
  953MOL0     H31514   1.029   8.469   1.243 -1.0700  1.1943  1.9538
  954MOL0     O31515   1.532   5.640  10.803 -0.0474  0.0856  0.1670
  954MOL0     C31516   1.471   5.538  10.762 -0.1619 -0.2028  0.0395
  954MOL0     O31517   1.485   5.475  10.644  0.0717  0.8607 -0.1197
  954MOL0     C31518   1.567   5.534  10.546 -0.0819  0.7251 -0.4499
  954MOL0     C31519   1.662   5.437  10.496  0.2865  0.2203 -0.0546
  954MOL0     C31520   1.752   5.482  10.398 -0.2586 -0.2922 -0.5690
  954MOL0     C31521   1.760   5.613  10.359 -0.2356  0.1083 -0.1473
  954MOL0     O31522   1.845   5.654  10.258 -0.1484  0.1216 -0.0957
  954MOL0     C31523   1.800   5.615  10.132  0.1331 -0.7948 -0.5278
  954MOL0     C31524   1.803   5.742  10.049  0.2722 -0.1125 -0.4225
  954MOL0     C31525   1.926   5.819  10.063 -0.3662 -0.0206 -0.6136
  954MOL0     C31526   1.923   5.943   9.966 -0.2237 -0.6219 -0.3131
  954MOL0     C31527   2.040   6.042   9.984 -0.2796  0.3227  0.5192
  954MOL0     C31528   2.022   6.160   9.895 -0.1905  0.0390  0.4157
  954MOL0     C31529   2.145   6.248   9.899 -0.0609  0.1342 -0.5873
  954MOL0     C31530   2.138   6.356   9.796 -0.3019 -0.2496 -0.5039
  954MOL0     N31531   2.272   6.412   9.771 -0.2148 -0.0532  0.5127
  954MOL0     C31532   2.283   6.545   9.763 -0.3008  0.5078 -0.0522
  954MOL0     C31533   2.419   6.566   9.745 -0.0616 -0.1586 -1.0265
  954MOL0     C31534   2.479   6.700   9.735  0.1440 -0.4874 -0.5366
  954MOL0     C31535   2.628   6.705   9.713  0.8251 -0.3008  0.4070
  954MOL0     C31536   2.674   6.841   9.662  1.0317  0.0967 -0.6377
  954MOL0     C31537   2.822   6.847   9.679 -0.6681 -0.1322 -0.1257
  954MOL0     O31538   2.884   6.972   9.632  0.2376 -0.3506  0.1462
  954MOL0     C31539   3.016   6.983   9.592  0.3561 -0.1708 -0.2785
  954MOL0     C31540   3.039   7.102   9.531 -0.5084  0.1597  0.0503
  954MOL0     C31541   3.157   7.121   9.461 -0.7799 -0.0776  0.6307
  954MOL0     C31542   3.162   7.253   9.380  0.5452 -0.0900  0.1247
  954MOL0     C31543   3.257   7.022   9.464 -0.2733  0.2958 -0.5870
  954MOL0     C31544   3.381   7.049   9.392  0.3825 -0.7459 -0.6962
  954MOL0     O31545   3.460   7.133   9.465  0.5961 -0.4769  0.7760
  954MOL0     C31546   3.587   7.177   9.429 -0.3998  1.1429 -0.5003
  954MOL0     C31547   3.694   7.080   9.398 -0.1428 -0.3676  0.0777
  954MOL0     C31548   3.824   7.116   9.363  0.5782  0.4797 -0.3304
  954MOL0     C31549   3.859   7.248   9.395  0.3495  0.3398 -0.5788
  954MOL0     O31550   3.988   7.296   9.385 -0.3071  0.8186  0.0876
  954MOL0     C31551   4.099   7.203   9.390 -0.0273 -0.2385  0.2124
  954MOL0     C31552   4.219   7.293   9.417  0.0590 -0.7632  0.5338
  954MOL0     C31553   4.358   7.237   9.398  0.0977 -0.2372 -0.8376
  954MOL0     C31554   4.404   7.198   9.538 -0.2860  0.4243 -0.1215
  954MOL0     C31555   4.536   7.118   9.562  1.1300  0.7097  0.5098
  954MOL0     C31556   4.648   7.167   9.480  0.2212  0.3849 -0.3769
  954MOL0     C31557   4.681   7.301   9.539  0.4024 -0.0104 -0.3563
  954MOL0     C31558   4.764   7.381   9.441  1.0621 -0.1843 -0.6889
  954MOL0    Cl31559   4.922   7.309   9.398 -0.0440  0.0770 -0.0152
  954MOL0     C31560   3.765   7.339   9.441 -0.3964 -0.2239 -0.1175
  954MOL0     C31561   3.628   7.309   9.461 -0.2932 -0.7468 -0.3451
  954MOL0     O31562   3.406   7.020   9.276  0.2329  0.0587 -0.0287
  954MOL0     C31563   3.239   6.907   9.545 -0.4583 -0.2682  0.3911
  954MOL0     C31564   3.112   6.882   9.597  0.4824  0.0826  0.5276
  954MOL0     N31565   2.482   6.445   9.717 -0.3677  0.4388  0.2423
  954MOL0     N31566   2.383   6.357   9.716 -0.1398 -0.1193 -0.4519
  954MOL0     C31567   1.669   5.704  10.415  0.0033  0.5659 -0.2998
  954MOL0     C31568   1.575   5.660  10.510  0.2267 -0.3208  0.6217
  954MOL0     C31569   1.363   5.485  10.853  0.5547 -0.2532 -0.1074
  954MOL0     C31570   1.296   5.370  10.821 -0.0663 -0.2026 -0.1110
  954MOL0     C31571   1.196   5.329  10.904  0.2002  1.1485 -0.5915
  954MOL0     C31572   1.161   5.394  11.023 -0.6501  0.2548 -0.2211
  954MOL0     O31573   1.060   5.358  11.103  0.0601  0.0062 -0.5260
  954MOL0     C31574   0.983   5.232  11.082 -0.6459  0.5354  0.4989
  954MOL0     C31575   0.888   5.194  11.202  0.9334 -0.3864 -0.1177
  954MOL0     C31576   0.972   5.187  11.325  0.4390 -0.3101  0.3195
  954MOL0     C31577   0.888   5.168  11.449 -0.2285  0.5357  0.7200
  954MOL0     C31578   0.975   5.187  11.560 -0.0062  0.0922 -0.7517
  954MOL0     C31579   1.048   5.189  11.660 -0.2168  1.4729  0.4656
  954MOL0     C31580   1.228   5.507  11.054 -0.3881  0.7899  0.3633
  954MOL0     C31581   1.330   5.549  10.972  0.2912  0.6805  0.5165
  954MOL0     C31582   1.393   5.674  11.034  0.2702 -0.1730  0.4205
  954MOL0     H31583   1.646   5.331  10.513 -0.5854  0.2832 -0.4285
  954MOL0     H31584   1.822   5.412  10.354  0.5136  0.2227 -0.1795
  954MOL0     H31585   1.700   5.572  10.139 -0.6744  1.2481  1.6230
  954MOL0     H31586   1.877   5.544  10.100  1.1485  0.2583 -0.5031
  954MOL0     H31587   1.787   5.720   9.943  0.2873  3.2933 -1.2468
  954MOL0     H31588   1.715   5.798  10.082 -0.4251 -0.8448 -0.9881
  954MOL0     H31589   1.922   5.856  10.166 -1.3322  0.3743 -0.7810
  954MOL0     H31590   2.018   5.760  10.054 -0.4506 -0.4725  1.1074
  954MOL0     H31591   1.929   5.897   9.867  0.8129 -1.2454  0.0262
  954MOL0     H31592   1.828   5.994   9.983 -0.1032 -0.1494 -1.0219
  954MOL0     H31593   2.133   5.990   9.960 -0.8034 -0.3336 -0.1442
  954MOL0     H31594   2.047   6.067  10.090 -0.4233 -0.8047  0.8057
  954MOL0     H31595   2.023   6.101   9.803  1.3996 -1.0278  1.0653
  954MOL0     H31596   1.931   6.216   9.920 -0.4392 -0.6917  1.2108
  954MOL0     H31597   2.230   6.180   9.888 -0.1462  0.2225 -1.8805
  954MOL0     H31598   2.158   6.302   9.993  1.4616  1.7474 -1.6645
  954MOL0     H31599   2.086   6.322   9.706  0.2589  0.7730 -1.2299
  954MOL0     H31600   2.070   6.429   9.841  0.9227 -1.0876  3.0176
  954MOL0     H31601   2.213   6.628   9.757 -1.7650 -0.3371  3.1161
  954MOL0     H31602   2.454   6.766   9.818 -3.9705  0.3746 -2.1955
  954MOL0     H31603   2.425   6.746   9.652 -0.3331  1.5866  0.8372
  954MOL0     H31604   2.678   6.670   9.804  2.9241  0.9620 -0.1905
  954MOL0     H31605   2.648   6.638   9.629 -1.2727  1.2506 -1.4526
  954MOL0     H31606   2.645   6.861   9.559  2.0208 -1.7979 -1.3277
  954MOL0     H31607   2.631   6.924   9.719 -2.2745 -0.3622 -2.2353
  954MOL0     H31608   2.848   6.826   9.783  4.3483 -0.5230 -1.2127
  954MOL0     H31609   2.860   6.757   9.630 -1.5760 -0.9526  0.6186
  954MOL0     H31610   2.962   7.178   9.524  0.2479  0.7902 -2.5672
  954MOL0     H31611   3.258   7.272   9.332  0.9751 -0.6684  0.7319
  954MOL0     H31612   3.146   7.330   9.456 -0.4016 -0.4776  0.3382
  954MOL0     H31613   3.076   7.271   9.314  0.2107  2.9062  1.2265
  954MOL0     H31614   3.661   6.977   9.387 -1.3781  0.1446 -1.5331
  954MOL0     H31615   3.896   7.045   9.323  0.0237 -1.1598  1.4399
  954MOL0     H31616   4.094   7.135   9.476 -1.2551 -0.1882  0.1933
  954MOL0     H31617   4.104   7.144   9.299 -0.3726  2.0327 -1.3762
  954MOL0     H31618   4.213   7.366   9.335  0.6155 -1.6864 -0.3613
  954MOL0     H31619   4.206   7.344   9.512 -1.6981  0.3332 -0.2362
  954MOL0     H31620   4.426   7.311   9.354 -0.5050 -3.0673 -7.8016
  954MOL0     H31621   4.357   7.152   9.329  0.4216 -0.6915 -0.2961
  954MOL0     H31622   4.333   7.133   9.590 -0.0368  2.7844  3.4871
  954MOL0     H31623   4.401   7.278   9.612 -0.5375 -2.2913  2.9992
  954MOL0     H31624   4.556   7.122   9.669  0.1341  2.7982  0.6773
  954MOL0     H31625   4.507   7.021   9.521 -1.9971  2.0555 -0.8537
  954MOL0     H31626   4.605   7.189   9.382 -0.0047 -2.7060 -1.0817
  954MOL0     H31627   4.734   7.100   9.473  1.4322  1.6385  1.6002
  954MOL0     H31628   4.725   7.282   9.637 -0.4695  0.6802  0.1829
  954MOL0     H31629   4.591   7.359   9.561  0.8768  0.4310  0.4481
  954MOL0     H31630   4.771   7.482   9.483 -2.4112  0.7371 -1.9042
  954MOL0     H31631   4.699   7.398   9.354 -1.8864  0.8485  1.5049
  954MOL0     H31632   3.794   7.439   9.468 -1.8909  0.1387  0.2266
  954MOL0     H31633   3.558   7.386   9.493 -0.0539 -0.1934 -1.1295
  954MOL0     H31634   3.321   6.838   9.560  1.2930  1.3667 -1.0380
  954MOL0     H31635   3.113   6.785   9.647  2.4430  0.8008  2.0076
  954MOL0     H31636   1.679   5.808  10.385  1.0324  1.2731  2.2364
  954MOL0     H31637   1.507   5.737  10.544  1.2036  1.1125 -0.4915
  954MOL0     H31638   1.321   5.326  10.726 -2.9723  0.1226 -1.1296
  954MOL0     H31639   1.140   5.238  10.883  0.2282  0.0837  3.2530
  954MOL0     H31640   0.925   5.242  10.990  2.7520 -2.5533 -2.2726
  954MOL0     H31641   1.055   5.150  11.067  1.9100  2.9716 -1.7909
  954MOL0     H31642   0.826   5.106  11.183  1.0675 -0.5526  0.2131
  954MOL0     H31643   0.816   5.276  11.210  1.8176  0.6161 -1.8602
  954MOL0     H31644   1.047   5.107  11.314  0.2320 -0.3073 -1.3120
  954MOL0     H31645   1.026   5.281  11.336 -0.5435  0.4734 -1.2653
  954MOL0     H31646   0.853   5.064  11.447 -2.6156  1.1740  3.4126
  954MOL0     H31647   0.807   5.240  11.456 -1.6092 -1.0308  1.6658
  954MOL0     H31648   1.102   5.202  11.751  1.9570 -0.7482 -0.4094
  954MOL0     H31649   1.199   5.554  11.148 -3.6514  0.3645 -0.3110
  954MOL0     H31650   1.376   5.761  10.970  4.5422  0.7910  0.3294
  954MOL0     H31651   1.352   5.689  11.134 -1.7362 -1.0982 -0.2029
  954MOL0     H31652   1.502   5.664  11.034  0.4119 -0.8760 -4.2105
  955MOL0     O31653   1.639   2.493  11.263 -0.6258  0.3566 -0.4855
  955MOL0     C31654   1.576   2.398  11.213 -0.4952  0.2188 -0.5865
  955MOL0     O31655   1.637   2.310  11.124 -0.9842  0.0098  0.3757
  955MOL0     C31656   1.772   2.342  11.094 -0.2000  0.0138 -0.2997
  955MOL0     C31657   1.874   2.261  11.154  0.1331 -0.3743  0.1612
  955MOL0     C31658   2.014   2.286  11.134  0.6337 -0.4216  0.8647
  955MOL0     C31659   2.045   2.387  11.042  0.2663 -0.2276  0.2297
  955MOL0     O31660   2.174   2.419  11.017 -0.3753 -0.0625 -0.5604
  955MOL0     C31661   2.269   2.306  11.007  0.3780  0.2200 -0.0840
  955MOL0     C31662   2.345   2.289  11.136  0.5880  0.1441  0.1138
  955MOL0     C31663   2.435   2.166  11.132  0.7812 -0.3314 -0.0928
  955MOL0     C31664   2.487   2.133  11.272 -0.2600 -0.3003 -0.0352
  955MOL0     C31665   2.637   2.176  11.296  0.6018 -0.2173 -0.4878
  955MOL0     C31666   2.688   2.105  11.419  0.0076  0.7963  0.6451
  955MOL0     C31667   2.838   2.091  11.415  0.4188  0.0811  0.0753
  955MOL0     C31668   2.894   2.020  11.533  0.5624  0.8760  0.2838
  955MOL0     N31669   3.036   2.002  11.522 -0.2003 -0.3189  0.0134
  955MOL0     C31670   3.110   1.883  11.518  0.4841  0.8915  0.3232
  955MOL0     C31671   3.232   1.921  11.474  0.3920 -1.2861  1.0050
  955MOL0     C31672   3.343   1.825  11.429  0.4173  0.4509 -0.2464
  955MOL0     C31673   3.455   1.889  11.345 -1.1775 -0.7632  0.4870
  955MOL0     C31674   3.582   1.806  11.322  0.5512  0.2448 -0.5379
  955MOL0     C31675   3.692   1.892  11.249  0.4057 -0.1567 -0.0782
  955MOL0     O31676   3.800   1.805  11.210  0.4825 -0.1592 -0.0781
  955MOL0     C31677   3.908   1.854  11.157  0.0576 -0.4285  0.1992
  955MOL0     C31678   4.005   1.778  11.088  0.9221  0.5109 -0.1373
  955MOL0     C31679   4.123   1.836  11.033 -0.1110  0.5708  0.2733
  955MOL0     C31680   4.218   1.727  10.990  0.1134 -0.1454 -0.6035
  955MOL0     C31681   4.146   1.976  11.037  0.1485  0.6030  0.2498
  955MOL0     C31682   4.267   2.038  10.981 -0.0607 -0.0164 -0.2092
  955MOL0     O31683   4.352   1.967  10.901 -0.2896 -0.3963 -0.7122
  955MOL0     C31684   4.483   1.992  10.905 -0.8207 -0.6644 -0.9733
  955MOL0     C31685   4.532   2.108  10.851 -0.2855  0.1405  0.2860
  955MOL0     C31686   4.666   2.152  10.864 -0.1370  0.7023 -0.5967
  955MOL0     C31687   4.752   2.063  10.921 -0.3473 -0.5172  0.4498
  955MOL0     O31688   4.874   2.115  10.956 -0.4407  0.1216 -0.2443
  955MOL0     C31689   4.957   2.049  11.056 -0.2529  0.8387  0.2908
  955MOL0     C31690   5.045   1.935  10.989  0.6656 -0.0303 -1.1495
  955MOL0     C31691   5.126   1.977  10.872 -0.0795  0.0172  0.2121
  955MOL0     C31692   5.145   1.855  10.783 -0.3994  0.3187  0.1179
  955MOL0     C31693   5.234   1.888  10.668  0.1045  0.1301  0.2333
  955MOL0     C31694   5.286   1.772  10.573  0.5929 -0.0306  0.2391
  955MOL0     C31695   5.174   1.711  10.484 -0.5367 -0.5949  0.2649
  955MOL0     C31696   5.115   1.581  10.544 -0.4500 -0.6478 -0.1566
  955MOL0    Cl31697   5.250   1.460  10.582 -0.1872  0.1763 -0.1055
  955MOL0     C31698   4.705   1.937  10.961 -0.5441  0.8018  0.6832
  955MOL0     C31699   4.569   1.903  10.953  0.3040 -0.0188 -0.6555
  955MOL0     O31700   4.282   2.152  11.008 -0.4618 -0.8270  0.0943
  955MOL0     C31701   4.050   2.052  11.106 -0.3584  0.4069  0.5676
  955MOL0     C31702   3.944   1.989  11.166  0.0358  0.1563 -0.0555
  955MOL0     N31703   3.230   2.060  11.451 -0.1655  0.1817  0.1934
  955MOL0     N31704   3.116   2.110  11.489  0.3680 -0.0395 -0.2062
  955MOL0     C31705   1.936   2.462  10.977  0.7432  0.3257  1.0545
  955MOL0     C31706   1.805   2.437  11.000  0.3413 -0.1951 -0.5288
  955MOL0     C31707   1.437   2.373  11.261 -0.4389  0.0928  0.2867
  955MOL0     C31708   1.400   2.414  11.389  0.1456 -0.0576  0.2153
  955MOL0     C31709   1.277   2.384  11.437 -0.5148 -0.7943 -0.7742
  955MOL0     C31710   1.175   2.329  11.359  0.0733 -0.6186 -0.1262
  955MOL0     O31711   1.051   2.323  11.420  0.1133 -0.0514  0.4506
  955MOL0     C31712   1.038   2.232  11.527  0.1540  0.1191 -0.3057
  955MOL0     C31713   0.911   2.142  11.511  0.6266  0.9980  0.5217
  955MOL0     C31714   0.778   2.208  11.510  0.7609  0.0138  0.0694
  955MOL0     C31715   0.740   2.271  11.372  0.1909  0.2089  0.0480
  955MOL0     C31716   0.592   2.292  11.367  0.1203 -0.3870 -0.7056
  955MOL0     C31717   0.474   2.316  11.354  0.0273 -0.4024 -0.1981
  955MOL0     C31718   1.201   2.300  11.229 -0.1813 -0.6207 -0.2695
  955MOL0     C31719   1.337   2.323  11.176  0.1194  0.1065 -1.0081
  955MOL0     C31720   1.371   2.288  11.026  0.0572 -0.1928 -0.7475
  955MOL0     H31721   1.837   2.185  11.221 -1.2922  0.6638  0.6026
  955MOL0     H31722   2.083   2.210  11.169  2.8932  0.0488 -2.2452
  955MOL0     H31723   2.332   2.328  10.921  0.1246  0.7146 -0.1495
  955MOL0     H31724   2.208   2.218  10.985 -0.7350  0.9797 -0.1474
  955MOL0     H31725   2.409   2.377  11.132 -0.5176  0.9359 -1.6029
  955MOL0     H31726   2.284   2.300  11.226  2.6204  1.4956  1.3864
  955MOL0     H31727   2.375   2.081  11.099  0.3453  0.3135 -1.0002
  955MOL0     H31728   2.516   2.174  11.059  0.0261  0.6805 -0.8506
  955MOL0     H31729   2.424   2.172  11.353 -0.6445  1.1471 -0.9950
  955MOL0     H31730   2.477   2.024  11.281 -0.5581 -0.2910 -0.2711
  955MOL0     H31731   2.634   2.283  11.320 -1.6560 -0.0253 -1.4019
  955MOL0     H31732   2.695   2.150  11.207 -0.2299 -0.3530 -0.9997
  955MOL0     H31733   2.663   2.165  11.507  0.8818  1.6049  0.3683
  955MOL0     H31734   2.651   2.003  11.433  3.0714 -1.1901 -3.5864
  955MOL0     H31735   2.883   2.190  11.404  0.4210 -0.0904 -1.9836
  955MOL0     H31736   2.853   2.042  11.318  0.8890 -0.3676  0.3732
  955MOL0     H31737   2.858   2.054  11.631 -2.0196 -0.3315 -0.1504
  955MOL0     H31738   2.849   1.920  11.528 -0.1877  0.7993  4.6478
  955MOL0     H31739   3.074   1.783  11.540 -0.2840  1.7024  3.2335
  955MOL0     H31740   3.303   1.751  11.360 -0.9058  1.3507 -0.4745
  955MOL0     H31741   3.390   1.786  11.520  1.0592  3.6518  0.9312
  955MOL0     H31742   3.410   1.918  11.249  0.9779  1.0898 -0.0698
  955MOL0     H31743   3.482   1.980  11.400 -1.4016 -2.2375  3.1821
  955MOL0     H31744   3.639   1.781  11.412 -0.4096  1.1461  0.3413
  955MOL0     H31745   3.545   1.713  11.278 -0.7940  0.3849  0.2269
  955MOL0     H31746   3.658   1.943  11.159  0.7012  0.1323 -0.0289
  955MOL0     H31747   3.724   1.971  11.318 -1.4157  2.0276 -1.5847
  955MOL0     H31748   4.005   1.669  11.091  3.8266  0.4180  2.3669
  955MOL0     H31749   4.176   1.627  11.007  1.1067 -0.9578 -2.6434
  955MOL0     H31750   4.299   1.728  11.064 -0.8077 -1.4508  0.4707
  955MOL0     H31751   4.252   1.730  10.887  0.0763  1.6066 -0.5861
  955MOL0     H31752   4.462   2.174  10.802 -0.1654 -0.5771 -0.9164
  955MOL0     H31753   4.703   2.244  10.820  0.8041 -0.0701 -1.4638
  955MOL0     H31754   5.024   2.124  11.099 -0.7667  1.1631  0.5219
  955MOL0     H31755   4.904   2.010  11.143  0.8420  0.8943  1.0057
  955MOL0     H31756   5.120   1.897  11.060  3.1680  2.5196 -2.2552
  955MOL0     H31757   4.973   1.859  10.957  0.3411  0.0894 -0.7096
  955MOL0     H31758   5.217   2.023  10.911 -0.0434 -1.3518  1.8701
  955MOL0     H31759   5.075   2.048  10.806  1.3075  2.2186  1.3981
  955MOL0     H31760   5.047   1.833  10.739  0.6562  1.5960 -3.0837
  955MOL0     H31761   5.186   1.764  10.828 -0.7971  0.6574  1.2022
  955MOL0     H31762   5.175   1.949  10.599  0.2309 -0.3178 -0.2830
  955MOL0     H31763   5.325   1.938  10.701  0.9669 -1.3134  0.1603
  955MOL0     H31764   5.341   1.690  10.621 -1.1954 -1.2195  0.3687
  955MOL0     H31765   5.351   1.823  10.502 -2.0902  1.8511 -1.0292
  955MOL0     H31766   5.224   1.698  10.387 -1.7808  0.1335 -0.5050
  955MOL0     H31767   5.097   1.788  10.472  0.3082  0.8294  3.1276
  955MOL0     H31768   5.054   1.530  10.468 -0.8667  0.8591 -0.8897
  955MOL0     H31769   5.056   1.615  10.629 -1.5680 -2.3117 -0.2272
  955MOL0     H31770   4.767   1.865  11.012  1.9775 -0.0368 -3.0992
  955MOL0     H31771   4.528   1.810  10.992  3.1300 -1.1456 -0.0855
  955MOL0     H31772   4.057   2.160  11.106 -1.4454  0.5826 -2.6061
  955MOL0     H31773   3.883   2.061  11.218  1.0722  1.0976 -0.1086
  955MOL0     H31774   1.968   2.530  10.899  0.1202 -0.7579 -0.1933
  955MOL0     H31775   1.725   2.496  10.957 -0.9355 -1.2619  0.2814
  955MOL0     H31776   1.479   2.462  11.446  1.2518  0.4819 -1.7057
  955MOL0     H31777   1.250   2.417  11.537 -1.4211  1.0692 -1.5780
  955MOL0     H31778   1.125   2.166  11.534  0.0870  0.1332  1.1139
  955MOL0     H31779   1.030   2.282  11.624  0.8582 -1.8003  0.7981
  955MOL0     H31780   0.904   2.065  11.588  1.1989  1.7396  1.3434
  955MOL0     H31781   0.927   2.093  11.415 -0.7289 -0.2718  0.9122
  955MOL0     H31782   0.705   2.127  11.517 -1.0102  1.4090 -1.2262
  955MOL0     H31783   0.763   2.284  11.588 -3.3975  1.3084 -1.6947
  955MOL0     H31784   0.755   2.202  11.289  0.6832 -0.8850  1.0166
  955MOL0     H31785   0.794   2.365  11.362  4.3423 -1.9204  0.2995
  955MOL0     H31786   0.371   2.340  11.336  0.1299  1.0411  0.9076
  955MOL0     H31787   1.132   2.255  11.158 -1.7310  3.9297 -1.9667
  955MOL0     H31788   1.443   2.205  11.034 -0.8942 -0.9867 -0.1157
  955MOL0     H31789   1.281   2.251  10.976 -1.5380  1.4367  0.8047
  955MOL0     H31790   1.411   2.377  10.977  0.1724  1.7134  2.5424
  956MOL0     O31791   4.081   2.164   6.768  0.2691  0.2453  0.1193
  956MOL0     C31792   4.007   2.227   6.690  0.0048 -0.1912 -0.0668
  956MOL0     O31793   3.932   2.335   6.730  0.2562  0.5524  0.2949
  956MOL0     C31794   3.875   2.345   6.861  0.1131 -0.1375  0.8043
  956MOL0     C31795   3.877   2.474   6.920  0.1278  0.2862  0.5963
  956MOL0     C31796   3.838   2.482   7.050 -0.6666 -0.0094 -0.7443
  956MOL0     C31797   3.798   2.373   7.118  0.5364 -0.2227  0.0149
  956MOL0     O31798   3.762   2.389   7.252  0.5574 -0.2615 -0.4780
  956MOL0     C31799   3.739   2.269   7.332 -1.2007 -0.2464 -1.4356
  956MOL0     C31800   3.735   2.319   7.477  0.4706  0.1936 -0.0577
  956MOL0     C31801   3.880   2.324   7.536 -0.0976  0.0837  0.0469
  956MOL0     C31802   3.874   2.354   7.688 -0.5861 -0.8330 -0.6594
  956MOL0     C31803   4.009   2.342   7.757 -1.0202  0.4737 -1.0427
  956MOL0     C31804   4.037   2.190   7.790  0.3001 -0.7000  0.3935
  956MOL0     C31805   4.178   2.172   7.833  1.3035 -1.1898 -0.4654
  956MOL0     C31806   4.197   2.030   7.872 -0.0589  0.1305  0.8244
  956MOL0     N31807   4.128   1.975   7.987 -0.0533 -0.1940 -0.2637
  956MOL0     C31808   4.144   2.005   8.115 -0.1903  0.5589 -1.3021
  956MOL0     C31809   4.045   1.946   8.187  0.3613  0.9027  0.2162
  956MOL0     C31810   4.021   1.949   8.338  0.5153 -0.6496  0.0467
  956MOL0     C31811   4.060   1.822   8.421 -0.3933 -0.7424 -0.1464
  956MOL0     C31812   4.206   1.811   8.459 -0.5350  0.3687 -0.0128
  956MOL0     C31813   4.254   1.917   8.559 -0.0649 -0.7299  0.3573
  956MOL0     O31814   4.286   2.045   8.504  0.7830 -0.4618 -0.2898
  956MOL0     C31815   4.300   2.142   8.597  0.5898 -0.1543 -0.1086
  956MOL0     C31816   4.281   2.272   8.549 -0.0896  0.5156 -1.0070
  956MOL0     C31817   4.286   2.386   8.627  0.0279  0.4795 -0.0089
  956MOL0     C31818   4.256   2.518   8.562  0.7952 -0.2853  0.8308
  956MOL0     C31819   4.293   2.364   8.766 -0.4986  0.6438  0.2542
  956MOL0     C31820   4.285   2.474   8.863  0.5130  0.7687 -1.1489
  956MOL0     O31821   4.327   2.445   8.987 -0.5895 -0.3106  0.0145
  956MOL0     C31822   4.293   2.530   9.096  0.3503 -0.3751 -0.3134
  956MOL0     C31823   4.340   2.656   9.115  0.0657  0.0288  0.0431
  956MOL0     C31824   4.301   2.733   9.220 -0.0071 -0.4492  0.2732
  956MOL0     C31825   4.206   2.688   9.314 -0.0723  0.0832 -0.1555
  956MOL0     O31826   4.170   2.773   9.414  0.3033  0.3041 -0.3077
  956MOL0     C31827   4.163   2.718   9.546  0.0264 -0.0320  0.5098
  956MOL0     C31828   4.117   2.834   9.634 -0.9588  0.1950 -0.7154
  956MOL0     C31829   3.969   2.883   9.615 -0.8421  0.9490  1.0052
  956MOL0     C31830   3.932   2.986   9.717 -0.7753  0.1414 -0.4139
  956MOL0     C31831   3.805   3.053   9.672 -0.4390 -0.6437  0.5370
  956MOL0     C31832   3.744   3.146   9.777  0.2385  0.2650  0.1690
  956MOL0     C31833   3.608   3.211   9.739  0.3440  0.6024 -0.0574
  956MOL0     C31834   3.588   3.335   9.818  0.5134 -0.5239 -0.7574
  956MOL0    Cl31835   3.596   3.311   9.998  0.5581 -0.4059  0.4586
  956MOL0     C31836   4.157   2.557   9.300 -0.9512  0.4951 -0.3906
  956MOL0     C31837   4.204   2.476   9.192  0.7672  0.0934 -0.2396
  956MOL0     O31838   4.250   2.588   8.828 -0.4358  0.0202  0.1206
  956MOL0     C31839   4.314   2.235   8.818  0.5934  0.8170  1.1247
  956MOL0     C31840   4.317   2.125   8.735  0.3404  0.0703  1.0373
  956MOL0     N31841   3.956   1.887   8.096 -0.3659 -0.3368  0.3829
  956MOL0     N31842   4.013   1.904   7.978  0.5409  0.3602  0.5761
  956MOL0     C31843   3.792   2.251   7.060 -0.9362  0.4216  0.2625
  956MOL0     C31844   3.836   2.236   6.934 -1.0973 -0.1246  0.3266
  956MOL0     C31845   4.000   2.199   6.541 -0.5603 -0.6296  0.1613
  956MOL0     C31846   3.907   2.274   6.468  0.4651 -0.0312  0.3303
  956MOL0     C31847   3.896   2.241   6.334  0.5197  0.7020 -0.0712
  956MOL0     C31848   3.967   2.140   6.270  0.6278  0.0414 -1.0328
  956MOL0     O31849   3.939   2.115   6.138 -0.3611  0.2913 -0.3288
  956MOL0     C31850   3.845   2.015   6.114 -0.5374  0.6161  0.0224
  956MOL0     C31851   3.736   1.978   6.227 -0.0248 -0.9445 -0.5996
  956MOL0     C31852   3.675   1.840   6.193  0.1733  0.3947  0.5090
  956MOL0     C31853   3.593   1.792   6.315 -0.6486 -0.5512  0.4300
  956MOL0     C31854   3.520   1.675   6.276  0.3310  0.6288 -0.8995
  956MOL0     C31855   3.423   1.595   6.239  0.6412  0.0299  0.1691
  956MOL0     C31856   4.053   2.064   6.353 -0.1670  0.2510 -0.1642
  956MOL0     C31857   4.068   2.088   6.488  0.5057 -0.0847  0.2247
  956MOL0     C31858   4.171   2.003   6.554  0.4399 -0.0848 -0.6611
  956MOL0     H31859   3.921   2.558   6.868  2.4055 -0.7146  0.7739
  956MOL0     H31860   3.862   2.579   7.093  8.4632 -1.0924 -1.4488
  956MOL0     H31861   3.813   2.188   7.323 -2.0996 -1.7606  2.6128
  956MOL0     H31862   3.640   2.226   7.320 -1.4479 -0.2526  0.2990
  956MOL0     H31863   3.672   2.408   7.484  0.4802  0.3285 -1.3375
  956MOL0     H31864   3.672   2.254   7.538  0.1772  2.0160  1.6843
  956MOL0     H31865   3.929   2.230   7.510  0.6871  0.5479 -0.1663
  956MOL0     H31866   3.924   2.406   7.480 -2.3781  0.8769 -0.7118
  956MOL0     H31867   3.838   2.456   7.701 -0.1798 -0.8309  0.6146
  956MOL0     H31868   3.806   2.281   7.732  0.5148 -0.8822  1.0621
  956MOL0     H31869   4.022   2.407   7.843 -1.7525  3.3320 -2.9474
  956MOL0     H31870   4.087   2.367   7.684  1.3064 -2.5877  0.2068
  956MOL0     H31871   3.967   2.151   7.864  0.3818 -2.1431 -0.2573
  956MOL0     H31872   4.020   2.134   7.698 -1.6794 -0.2385  0.4509
  956MOL0     H31873   4.186   2.238   7.920 -3.1588 -0.3574 -0.4050
  956MOL0     H31874   4.253   2.199   7.759  0.0463 -4.7159 -3.3604
  956MOL0     H31875   4.171   1.977   7.780 -0.2126  1.6604 -0.0470
  956MOL0     H31876   4.304   2.008   7.881 -0.6164 -3.2437  0.2844
  956MOL0     H31877   4.216   2.074   8.158 -1.1751  1.2003 -0.6403
  956MOL0     H31878   3.913   1.966   8.344  0.4044 -0.5036 -1.7347
  956MOL0     H31879   4.074   2.038   8.374 -0.5543  0.9784 -2.1595
  956MOL0     H31880   4.009   1.811   8.517 -1.7906  0.1807 -0.7575
  956MOL0     H31881   4.043   1.724   8.375  2.2311 -0.8800 -0.9887
  956MOL0     H31882   4.217   1.713   8.506 -0.7143  1.2348  1.9353
  956MOL0     H31883   4.259   1.809   8.364 -3.3548  1.0910 -1.7128
  956MOL0     H31884   4.181   1.931   8.639  2.0336  0.9988  2.0901
  956MOL0     H31885   4.350   1.889   8.604  2.5446  3.5960 -1.8107
  956MOL0     H31886   4.265   2.280   8.442  0.5556 -0.2280 -1.1751
  956MOL0     H31887   4.343   2.583   8.571  1.8713 -1.4551 -0.6097
  956MOL0     H31888   4.162   2.564   8.593  0.1731 -0.3682 -0.8208
  956MOL0     H31889   4.243   2.500   8.454  2.4096  1.1199  0.3519
  956MOL0     H31890   4.412   2.692   9.043  0.6967  0.6330  0.9467
  956MOL0     H31891   4.344   2.832   9.232 -1.4688  0.1888  0.4259
  956MOL0     H31892   4.085   2.642   9.555 -0.2192 -0.0153 -1.2233
  956MOL0     H31893   4.258   2.688   9.591 -0.8530 -0.4732  2.1555
  956MOL0     H31894   4.132   2.818   9.741 -0.1479  3.9882 -0.1090
  956MOL0     H31895   4.183   2.918   9.611  1.2382 -1.0793  0.5408
  956MOL0     H31896   3.907   2.794   9.623 -1.1652  1.2563  2.1683
  956MOL0     H31897   3.959   2.928   9.516 -0.6396 -1.6612 -0.3121
  956MOL0     H31898   4.011   3.058   9.737  0.1965 -0.5639 -1.5770
  956MOL0     H31899   3.916   2.929   9.809  1.3202  1.9960  1.1908
  956MOL0     H31900   3.825   3.112   9.582  1.8626  2.6609  2.9867
  956MOL0     H31901   3.738   2.968   9.653  0.5158 -1.5780  1.2290
  956MOL0     H31902   3.815   3.228   9.790 -0.5857  1.0742 -0.3909
  956MOL0     H31903   3.738   3.105   9.879 -2.0185  2.1097  0.8573
  956MOL0     H31904   3.534   3.132   9.757  0.7406  0.2654  0.1025
  956MOL0     H31905   3.622   3.235   9.633 -0.6668 -0.2185 -0.3975
  956MOL0     H31906   3.488   3.376   9.798  0.7782  1.5609  1.7703
  956MOL0     H31907   3.654   3.418   9.788  1.8656 -1.8276 -1.5191
  956MOL0     H31908   4.077   2.516   9.361 -1.0892  1.8704  0.4087
  956MOL0     H31909   4.173   2.372   9.188  0.9095  0.0920 -2.1377
  956MOL0     H31910   4.317   2.215   8.925 -1.5013 -0.3408  1.0262
  956MOL0     H31911   4.315   2.027   8.781  1.9973 -1.7376 -2.2915
  956MOL0     H31912   3.770   2.155   7.105  1.8198  0.3476  1.6787
  956MOL0     H31913   3.829   2.138   6.887 -0.2888  0.6261 -1.4769
  956MOL0     H31914   3.849   2.358   6.505 -0.4190 -0.7599  0.6626
  956MOL0     H31915   3.812   2.284   6.280  0.1375 -1.7123 -1.5174
  956MOL0     H31916   3.790   2.029   6.020  0.5909 -0.2189 -0.7848
  956MOL0     H31917   3.905   1.924   6.118  0.8580  1.3873 -1.7790
  956MOL0     H31918   3.658   2.053   6.247 -0.0795 -1.3471  0.8048
  956MOL0     H31919   3.786   1.978   6.325 -1.6252 -0.5359  0.2530
  956MOL0     H31920   3.620   1.842   6.099  0.7106 -2.7817  0.0287
  956MOL0     H31921   3.750   1.762   6.180 -0.0553 -0.0157  1.5850
  956MOL0     H31922   3.529   1.874   6.347  0.8985  0.2602  1.5811
  956MOL0     H31923   3.660   1.765   6.397  0.0191 -0.5266 -0.0925
  956MOL0     H31924   3.341   1.532   6.213 -0.5318  0.8485  1.7291
  956MOL0     H31925   4.117   1.988   6.309  1.9877  1.3817  0.8268
  956MOL0     H31926   4.236   1.959   6.477 -1.3350 -2.2488 -1.0447
  956MOL0     H31927   4.233   2.067   6.617 -2.3371  3.4045 -1.1818
  956MOL0     H31928   4.129   1.923   6.616  1.4049  0.7905  1.2032
  957MOL0     O31929   5.481   6.026   9.429  0.3898 -0.3852  0.0028
  957MOL0     C31930   5.383   6.053   9.364 -0.3875  0.0673  0.3488
  957MOL0     O31931   5.375   6.066   9.227  0.3181 -0.2846  0.2860
  957MOL0     C31932   5.483   6.083   9.152  0.5365  0.4720  0.4449
  957MOL0     C31933   5.557   6.203   9.132 -0.5067 -0.0887 -0.8477
  957MOL0     C31934   5.654   6.203   9.030 -0.3383 -0.8408  0.1919
  957MOL0     C31935   5.700   6.084   8.964 -0.1601  0.3742 -0.7515
  957MOL0     O31936   5.799   6.078   8.875 -0.2808  0.4013 -0.3952
  957MOL0     C31937   5.927   6.127   8.917  0.2151 -0.0694  0.1158
  957MOL0     C31938   6.041   6.110   8.805 -0.4881 -0.1006 -0.1310
  957MOL0     C31939   6.064   5.962   8.781 -0.1940 -0.9807  0.4516
  957MOL0     C31940   6.137   5.931   8.648 -0.4552  0.3950  0.1189
  957MOL0     C31941   6.283   5.990   8.642  0.5339  1.2080 -0.8190
  957MOL0     C31942   6.344   5.974   8.496 -0.6223  0.1762 -0.3849
  957MOL0     C31943   6.479   6.040   8.492  1.0502  0.8841  0.4078
  957MOL0     C31944   6.575   5.984   8.597 -0.4181 -0.4083 -0.3171
  957MOL0     N31945   6.716   6.037   8.577  0.1596  0.3474 -0.1185
  957MOL0     C31946   6.756   6.167   8.593  0.0076  0.2329  0.5916
  957MOL0     C31947   6.891   6.165   8.570  0.3421 -0.2387 -0.2704
  957MOL0     C31948   6.987   6.273   8.599 -0.7021  0.4522 -0.0921
  957MOL0     C31949   7.126   6.237   8.539  0.2584  0.5137 -1.0866
  957MOL0     C31950   7.225   6.343   8.572 -0.5823  0.3599 -0.6794
  957MOL0     C31951   7.363   6.308   8.522  0.0481 -0.4255  0.1043
  957MOL0     O31952   7.412   6.190   8.585  1.3958 -0.7884 -0.0336
  957MOL0     C31953   7.533   6.157   8.545  0.3261  0.0062 -0.5962
  957MOL0     C31954   7.616   6.222   8.448 -0.2242  0.3083  0.4028
  957MOL0     C31955   7.741   6.179   8.415 -0.3703  0.1280 -0.1709
  957MOL0     C31956   7.816   6.263   8.313  0.0620 -0.2559  0.2263
  957MOL0     C31957   7.789   6.064   8.475  0.3166  0.0945 -0.3486
  957MOL0     C31958   7.926   6.014   8.450  0.2217  0.2742  0.0868
  957MOL0     O31959   7.944   5.880   8.470  0.6795 -0.1624 -0.0610
  957MOL0     C31960   8.067   5.827   8.457  0.0347  0.2485 -0.5527
  957MOL0     C31961   8.174   5.858   8.542  0.4381 -0.0410  1.1859
  957MOL0     C31962   8.296   5.805   8.516  0.4513  0.8603  0.2979
  957MOL0     C31963   8.331   5.726   8.406  0.6247 -0.0318  0.4171
  957MOL0     O31964   8.458   5.680   8.387 -0.0134  0.0008 -0.6523
  957MOL0     C31965   8.492   5.627   8.258 -0.4318 -0.3980  0.7344
  957MOL0     C31966   8.641   5.591   8.244 -0.5291 -0.0724  0.6427
  957MOL0     C31967   8.743   5.707   8.283  0.7130 -0.4028  0.4644
  957MOL0     C31968   8.880   5.673   8.224 -0.5025 -0.1561  0.3932
  957MOL0     C31969   8.977   5.792   8.237  0.3660  0.3562 -0.5663
  957MOL0     C31970   9.115   5.738   8.199 -0.0914 -0.6259 -0.3491
  957MOL0     C31971   9.211   5.859   8.217  0.4707 -0.6251 -0.1339
  957MOL0     C31972   9.193   5.958   8.099 -0.0874  0.6419  0.4280
  957MOL0    Cl31973   9.307   6.086   8.111  0.1162  0.9621 -0.2930
  957MOL0     C31974   8.219   5.693   8.326  0.8814  0.2325  0.2477
  957MOL0     C31975   8.090   5.743   8.353 -0.3939  0.8122  0.3691
  957MOL0     O31976   8.011   6.095   8.415  0.0222 -0.2114 -0.1756
  957MOL0     C31977   7.707   5.997   8.574  0.3547 -0.0744 -0.2563
  957MOL0     C31978   7.584   6.050   8.612 -0.4589 -0.3490  0.7461
  957MOL0     N31979   6.928   6.034   8.540 -0.3452  0.0991 -0.2774
  957MOL0     N31980   6.817   5.959   8.539  0.3927  0.4319 -0.8201
  957MOL0     C31981   5.631   5.969   8.989 -0.0851 -0.8036  0.6791
  957MOL0     C31982   5.522   5.969   9.080  0.5079 -1.1189 -0.3993
  957MOL0     C31983   5.259   6.085   9.440 -0.2899  0.5827 -0.6474
  957MOL0     C31984   5.140   6.055   9.371 -1.0263 -0.2580  0.6853
  957MOL0     C31985   5.019   6.084   9.425  0.4235 -0.3438 -0.6949
  957MOL0     C31986   5.003   6.135   9.553 -0.2121  0.1853  0.1029
  957MOL0     O31987   4.894   6.183   9.615 -0.0274  0.3811 -0.4875
  957MOL0     C31988   4.777   6.190   9.532  0.5324 -0.0956 -1.0381
  957MOL0     C31989   4.673   6.271   9.600  0.0825  0.5407 -0.8590
  957MOL0     C31990   4.548   6.269   9.511  0.1758 -0.4078  0.8574
  957MOL0     C31991   4.431   6.324   9.603 -0.8139 -0.0507  0.0917
  957MOL0     C31992   4.320   6.372   9.520 -0.3940 -0.0082  0.3689
  957MOL0     C31993   4.244   6.422   9.442 -0.8646  0.5294 -0.4141
  957MOL0     C31994   5.120   6.146   9.631 -1.1983  0.2057 -0.0295
  957MOL0     C31995   5.254   6.125   9.578  0.9146 -0.3030  0.9408
  957MOL0     C31996   5.376   6.150   9.668  0.0473  0.7741  0.3319
  957MOL0     H31997   5.526   6.294   9.182 -2.6240 -0.7310 -0.8870
  957MOL0     H31998   5.719   6.290   9.021 -0.7622 -0.5807 -0.4264
  957MOL0     H31999   5.964   6.070   9.003  5.1840  1.2962 -0.7511
  957MOL0     H32000   5.924   6.233   8.945  1.9032  0.7705 -2.4995
  957MOL0     H32001   6.015   6.162   8.713 -1.2656  1.3384  0.8441
  957MOL0     H32002   6.136   6.150   8.842 -0.8636  1.6142 -0.9225
  957MOL0     H32003   6.122   5.923   8.865  0.1068 -1.3493  0.0701
  957MOL0     H32004   5.971   5.905   8.781 -0.8478  0.0305 -0.9636
  957MOL0     H32005   6.133   5.822   8.643 -1.8981  0.5065 -2.5873
  957MOL0     H32006   6.087   5.979   8.563  1.5657 -0.3687 -1.5819
  957MOL0     H32007   6.347   5.928   8.706  0.9196  1.6668 -0.7567
  957MOL0     H32008   6.273   6.095   8.672 -2.3658  0.4632  1.3374
  957MOL0     H32009   6.351   5.867   8.477 -1.2582  0.3019 -1.3385
  957MOL0     H32010   6.280   6.025   8.424  0.1013  0.2186 -1.0060
  957MOL0     H32011   6.461   6.148   8.497 -0.5681  0.5939  2.7006
  957MOL0     H32012   6.524   6.011   8.397  2.0351 -1.7256  1.5745
  957MOL0     H32013   6.542   6.016   8.696  1.2792  2.1411 -0.4604
  957MOL0     H32014   6.565   5.876   8.587 -2.6300 -0.5681  2.4165
  957MOL0     H32015   6.697   6.248   8.636  0.0820 -0.1496  1.4317
  957MOL0     H32016   6.969   6.274   8.706  0.1717  2.5779  0.0747
  957MOL0     H32017   6.952   6.367   8.555 -1.7953  0.7047  1.2482
  957MOL0     H32018   7.152   6.135   8.570 -2.4031 -0.0610 -0.4618
  957MOL0     H32019   7.105   6.228   8.432 -0.3035 -1.5178 -0.8611
  957MOL0     H32020   7.198   6.438   8.526  0.4598 -0.4397 -3.1354
  957MOL0     H32021   7.224   6.354   8.681 -1.9661 -1.3937 -0.4763
  957MOL0     H32022   7.361   6.282   8.416  1.6371  0.4109 -0.1506
  957MOL0     H32023   7.429   6.393   8.542 -0.1848 -0.4780  1.2148
  957MOL0     H32024   7.571   6.303   8.391  0.4165  1.2721  1.2283
  957MOL0     H32025   7.862   6.202   8.235  0.0076  0.6986 -0.5631
  957MOL0     H32026   7.885   6.338   8.353 -3.0705  3.2092 -0.3032
  957MOL0     H32027   7.741   6.328   8.269 -0.7047  0.4544  2.4307
  957MOL0     H32028   8.153   5.916   8.631  0.1061 -0.0543  1.1192
  957MOL0     H32029   8.381   5.828   8.579  0.6355  1.2810 -0.0931
  957MOL0     H32030   8.436   5.534   8.256 -0.3536 -0.4353 -0.1484
  957MOL0     H32031   8.463   5.693   8.175  1.8124  1.3542  1.2095
  957MOL0     H32032   8.671   5.507   8.308  1.0842  0.1129  0.1728
  957MOL0     H32033   8.663   5.571   8.139 -0.4726 -0.1542  0.6705
  957MOL0     H32034   8.755   5.726   8.390  3.8172  2.6406 -0.2618
  957MOL0     H32035   8.706   5.803   8.245  0.5700  0.0876  1.7954
  957MOL0     H32036   8.858   5.663   8.118 -3.3460 -0.9117  0.9669
  957MOL0     H32037   8.929   5.581   8.256 -1.9031 -0.4731  1.7265
  957MOL0     H32038   8.936   5.869   8.170  1.1176 -0.9089 -2.5672
  957MOL0     H32039   8.976   5.843   8.334  0.6646  0.4311 -0.6014
  957MOL0     H32040   9.107   5.711   8.094 -0.2787  1.4906 -0.9222
  957MOL0     H32041   9.160   5.659   8.260  4.8934  1.1784 -1.2175
  957MOL0     H32042   9.313   5.823   8.231  0.0905 -2.1332 -1.0508
  957MOL0     H32043   9.175   5.907   8.309  2.1207 -3.0662  1.9260
  957MOL0     H32044   9.090   5.996   8.100 -1.0036 -1.6070 -0.1802
  957MOL0     H32045   9.209   5.901   8.007  1.7919 -1.3075  1.8764
  957MOL0     H32046   8.235   5.627   8.242 -1.7581 -0.2729  0.0385
  957MOL0     H32047   8.006   5.717   8.289  0.0878 -0.9292  0.3851
  957MOL0     H32048   7.731   5.907   8.630 -1.4820 -0.5745 -0.2234
  957MOL0     H32049   7.534   6.002   8.696  0.2249 -0.9226  0.8412
  957MOL0     H32050   5.647   5.884   8.924 -5.3280 -2.0989  0.6187
  957MOL0     H32051   5.470   5.874   9.093 -0.8516 -0.5120 -1.2479
  957MOL0     H32052   5.144   6.030   9.265  2.2605  0.5081  0.5453
  957MOL0     H32053   4.930   6.070   9.365  1.8042 -0.4640 -2.8206
  957MOL0     H32054   4.808   6.231   9.435  5.7255 -0.1965  0.2753
  957MOL0     H32055   4.751   6.084   9.522 -2.1672 -0.1868  4.0743
  957MOL0     H32056   4.716   6.371   9.607 -3.0102  1.9330  0.3587
  957MOL0     H32057   4.644   6.237   9.700  1.7171 -2.3841 -1.2763
  957MOL0     H32058   4.552   6.318   9.413 -2.5861 -2.9078 -0.6697
  957MOL0     H32059   4.538   6.164   9.480  0.9420  0.2397 -1.8241
  957MOL0     H32060   4.465   6.409   9.663  3.5769 -0.9827 -0.7198
  957MOL0     H32061   4.398   6.245   9.671  0.9711 -0.9924 -0.0826
  957MOL0     H32062   4.195   6.482   9.369 -1.4535  2.5591  1.5343
  957MOL0     H32063   5.110   6.177   9.734  0.8936  1.0563 -0.0535
  957MOL0     H32064   5.419   6.064   9.720 -3.0403 -0.4293  1.1050
  957MOL0     H32065   5.452   6.199   9.606  0.7210  0.0681  0.5857
  957MOL0     H32066   5.337   6.225   9.737 -2.3703  1.3524 -1.5158
  958MOL0     O32067   5.722   9.028   5.572 -0.3245  0.5876  0.3978
  958MOL0     C32068   5.635   9.049   5.658 -0.1335 -0.3691  0.3012
  958MOL0     O32069   5.634   9.161   5.748 -0.3381  0.1537  0.2282
  958MOL0     C32070   5.754   9.228   5.759  1.1478 -0.6572  0.5203
  958MOL0     C32071   5.831   9.223   5.878  0.4190 -0.0295  0.0795
  958MOL0     C32072   5.940   9.307   5.904  0.3430  0.3361 -0.1333
  958MOL0     C32073   5.983   9.393   5.805  0.1363 -1.7743 -0.2917
  958MOL0     O32074   6.087   9.479   5.825 -0.7790 -0.3540  0.4561
  958MOL0     C32075   6.184   9.450   5.927 -0.2350  0.5607 -0.2349
  958MOL0     C32076   6.309   9.545   5.911  0.0443 -0.0343 -0.3110
  958MOL0     C32077   6.273   9.688   5.864 -0.3096  0.3404 -1.1727
  958MOL0     C32078   6.400   9.774   5.874  0.1240 -0.2454  0.6669
  958MOL0     C32079   6.500   9.730   5.774  0.1549  0.6590  0.0869
  958MOL0     C32080   6.558   9.843   5.688  1.2571  0.7106 -0.0556
  958MOL0     C32081   6.651   9.804   5.566 -0.1381 -0.1384  0.1285
  958MOL0     C32082   6.791   9.753   5.617  0.3053 -0.4494 -0.6608
  958MOL0     N32083   6.899   9.848   5.588 -0.4210 -0.0548 -0.5299
  958MOL0     C32084   6.899   9.985   5.614  0.8358 -0.1736 -0.9287
  958MOL0     C32085   7.020  10.023   5.574  0.4996  0.3585 -1.3634
  958MOL0     C32086   7.065  10.166   5.610 -0.6317  0.2503 -0.1317
  958MOL0     C32087   6.959  10.279   5.581  0.0420  0.7836  0.2800
  958MOL0     C32088   7.009  10.417   5.597  0.1375 -0.0420  0.2545
  958MOL0     C32089   7.034  10.460   5.739 -0.3833 -0.2957  0.5990
  958MOL0     O32090   6.916  10.524   5.785  0.2561 -0.3566 -0.2004
  958MOL0     C32091   6.925  10.598   5.899  0.9118  0.0120  0.7491
  958MOL0     C32092   6.799  10.642   5.947  0.0401  0.7791 -0.5548
  958MOL0     C32093   6.788  10.700   6.075  0.3104 -0.4652 -0.3130
  958MOL0     C32094   6.655  10.737   6.128 -0.0659 -0.1013  0.0238
  958MOL0     C32095   6.904  10.705   6.165 -0.4207 -0.2470  0.4455
  958MOL0     C32096   6.921  10.757   6.308  0.2725 -0.5535 -0.3630
  958MOL0     O32097   6.819  10.820   6.385 -0.7493  0.5225  0.0531
  958MOL0     C32098   6.843  10.875   6.515  0.1158  0.3365 -0.1772
  958MOL0     C32099   6.723  10.918   6.577  0.1324  0.5433 -0.5166
  958MOL0     C32100   6.720  10.999   6.686  0.0518 -0.6684  0.0186
  958MOL0     C32101   6.840  11.047   6.734 -0.8310 -0.7735  0.2061
  958MOL0     O32102   6.844  11.130   6.843  0.6432  0.1338 -0.5850
  958MOL0     C32103   6.802  11.068   6.971 -0.4047  0.6310  1.0779
  958MOL0     C32104   6.912  11.089   7.077 -0.2224 -0.6739 -0.4308
  958MOL0     C32105   6.867  11.081   7.221  0.4230 -1.3473 -0.8169
  958MOL0     C32106   6.987  11.108   7.321 -0.3658 -0.1312 -0.3566
  958MOL0     C32107   6.977  11.076   7.472 -0.0742  0.3252 -0.8428
  958MOL0     C32108   7.109  11.126   7.547 -0.1018 -0.2129  0.0602
  958MOL0     C32109   7.104  11.101   7.695 -0.1092 -2.0421  0.0697
  958MOL0     C32110   7.207  11.171   7.781 -0.5638 -0.1262 -0.8413
  958MOL0    Cl32111   7.375  11.110   7.735  0.3518 -0.1860 -0.2122
  958MOL0     C32112   6.962  11.013   6.679  1.0065 -0.0716  0.4939
  958MOL0     C32113   6.963  10.923   6.563 -1.0499  0.1293 -0.9950
  958MOL0     O32114   7.033  10.737   6.357 -0.0705 -0.4954 -0.1396
  958MOL0     C32115   7.027  10.665   6.107 -0.4905 -0.8280 -0.8352
  958MOL0     C32116   7.036  10.617   5.974  0.2621 -0.0461  0.5084
  958MOL0     N32117   7.098   9.916   5.531 -0.3845 -0.3556 -0.1361
  958MOL0     N32118   7.026   9.810   5.546  0.6952 -0.9950  0.3929
  958MOL0     C32119   5.921   9.396   5.677 -0.3301  0.4844 -0.3005
  958MOL0     C32120   5.806   9.312   5.657  0.5904  0.0688 -0.7991
  958MOL0     C32121   5.530   8.950   5.681  0.1215 -0.5137 -0.1883
  958MOL0     C32122   5.411   8.983   5.754 -0.1483 -0.2501 -0.1995
  958MOL0     C32123   5.309   8.891   5.773 -0.0203  0.2914  0.3534
  958MOL0     C32124   5.318   8.753   5.734 -0.2032  0.0873  0.3487
  958MOL0     O32125   5.211   8.674   5.758 -0.3391  0.4120  0.4563
  958MOL0     C32126   5.216   8.536   5.737  0.6077 -0.2607 -0.3024
  958MOL0     C32127   5.096   8.449   5.798 -0.8191 -0.6485 -0.3573
  958MOL0     C32128   4.957   8.492   5.751 -0.3966 -0.6532 -0.3025
  958MOL0     C32129   4.902   8.623   5.804  0.3396 -0.2120  0.6698
  958MOL0     C32130   4.840   8.605   5.938  0.6422 -0.3857 -0.6765
  958MOL0     C32131   4.808   8.594   6.058  0.0968 -0.1688  0.4400
  958MOL0     C32132   5.444   8.713   5.674  0.2408  0.1546  0.8263
  958MOL0     C32133   5.535   8.809   5.643  0.2049  0.0496  0.3709
  958MOL0     C32134   5.653   8.748   5.558 -0.0080  0.0456  0.1012
  958MOL0     H32135   5.793   9.159   5.957 -1.6446  0.8526 -0.1494
  958MOL0     H32136   5.986   9.302   6.002  1.7273 -0.3689 -0.7986
  958MOL0     H32137   6.199   9.342   5.917 -1.8942  0.4898 -3.0663
  958MOL0     H32138   6.141   9.474   6.024 -3.7242 -0.7025 -1.3239
  958MOL0     H32139   6.342   9.552   6.015  1.5837 -0.9987 -0.7106
  958MOL0     H32140   6.392   9.512   5.848 -0.8380  0.3190 -1.7091
  958MOL0     H32141   6.238   9.693   5.760  1.4994 -2.4728 -2.0471
  958MOL0     H32142   6.209   9.734   5.940  0.3750 -2.4786  1.3301
  958MOL0     H32143   6.376   9.881   5.864  1.7910  0.3963  2.7466
  958MOL0     H32144   6.444   9.771   5.974 -0.1225  1.7974  0.8935
  958MOL0     H32145   6.465   9.654   5.704 -2.7679  0.8003  1.2559
  958MOL0     H32146   6.578   9.677   5.830 -0.0990 -0.3547 -0.5043
  958MOL0     H32147   6.479   9.901   5.638 -0.5231 -1.4313  0.0980
  958MOL0     H32148   6.604   9.916   5.755 -2.5657  0.2548  3.4414
  958MOL0     H32149   6.680   9.889   5.503  2.0527 -1.4999 -0.8032
  958MOL0     H32150   6.604   9.726   5.506 -1.4801 -1.9078  3.2187
  958MOL0     H32151   6.797   9.729   5.724  0.6195  1.6166 -0.1709
  958MOL0     H32152   6.809   9.658   5.565  0.1199  0.2123 -1.9696
  958MOL0     H32153   6.817  10.049   5.642  0.0933 -1.9791  1.3799
  958MOL0     H32154   7.146  10.209   5.549 -2.7441  4.0508 -0.5954
  958MOL0     H32155   7.087  10.165   5.717  1.5512 -3.8746 -0.4212
  958MOL0     H32156   6.926  10.269   5.477  3.0918  0.1522 -0.7043
  958MOL0     H32157   6.875  10.276   5.651  0.3568 -0.2645  0.6266
  958MOL0     H32158   7.105  10.422   5.544  0.4120  0.4989  0.8021
  958MOL0     H32159   6.951  10.491   5.541  0.7446 -1.0299 -1.7890
  958MOL0     H32160   7.052  10.370   5.799  0.4241 -1.5090 -1.3544
  958MOL0     H32161   7.122  10.524   5.742 -0.7097  0.5112 -2.7367
  958MOL0     H32162   6.706  10.632   5.892 -2.1608  1.5453  2.7426
  958MOL0     H32163   6.586  10.728   6.044  1.7385  2.3523 -1.8558
  958MOL0     H32164   6.640  10.840   6.161 -2.5011 -1.3960  3.5771
  958MOL0     H32165   6.630  10.666   6.208 -0.4133 -0.4653 -0.3989
  958MOL0     H32166   6.628  10.902   6.526  0.8911  0.4148 -1.9326
  958MOL0     H32167   6.630  11.026   6.740 -0.4810 -2.0937 -0.1055
  958MOL0     H32168   6.720  11.133   7.003  0.4715  1.8040  1.0116
  958MOL0     H32169   6.777  10.962   6.961 -0.5621  0.4693  2.8372
  958MOL0     H32170   6.992  11.017   7.059  1.6320  0.4952  2.3640
  958MOL0     H32171   6.965  11.183   7.057 -0.2363 -0.5580  0.0505
  958MOL0     H32172   6.826  10.985   7.254  1.5441 -1.1269  1.3715
  958MOL0     H32173   6.793  11.159   7.241  1.1911 -1.1314  1.3103
  958MOL0     H32174   6.993  11.217   7.312 -1.2851  0.1853  2.2195
  958MOL0     H32175   7.082  11.073   7.279 -0.4683 -0.5884 -0.2114
  958MOL0     H32176   6.894  11.133   7.514  1.1708  0.4444  1.6542
  958MOL0     H32177   6.956  10.969   7.474 -2.0853  0.6845  0.7199
  958MOL0     H32178   7.116  11.235   7.540 -0.4882 -0.1881 -0.0045
  958MOL0     H32179   7.197  11.073   7.512 -0.3003 -0.8621  0.5102
  958MOL0     H32180   7.106  10.996   7.723 -1.7504 -1.9743  0.5548
  958MOL0     H32181   7.004  11.138   7.720 -0.3994 -2.2618 -0.7257
  958MOL0     H32182   7.194  11.143   7.886 -0.7547  2.3610 -0.1408
  958MOL0     H32183   7.218  11.280   7.775  1.8109 -0.3006 -0.4464
  958MOL0     H32184   7.048  11.066   6.719  1.4369 -0.1750 -0.2750
  958MOL0     H32185   7.059  10.912   6.513  0.3703  0.4517  1.5071
  958MOL0     H32186   7.119  10.684   6.161 -1.4736  1.4029  0.1818
  958MOL0     H32187   7.137  10.589   5.943  0.2452  0.5378 -0.0962
  958MOL0     H32188   5.959   9.465   5.601  1.0759 -0.5689 -0.5855
  958MOL0     H32189   5.751   9.315   5.564  0.7712 -0.7979 -0.9418
  958MOL0     H32190   5.391   9.087   5.777  0.6680 -0.0069 -0.5304
  958MOL0     H32191   5.222   8.922   5.829 -1.2574 -0.4592 -1.0827
  958MOL0     H32192   5.223   8.519   5.629  0.6128  1.0661 -0.5261
  958MOL0     H32193   5.309   8.488   5.770  0.1017 -0.8492  0.2921
  958MOL0     H32194   5.100   8.466   5.906  0.0806 -0.4732 -0.4056
  958MOL0     H32195   5.123   8.348   5.765  0.2140  0.2321 -2.3943
  958MOL0     H32196   4.958   8.508   5.643  0.7073 -2.1125 -0.5398
  958MOL0     H32197   4.885   8.415   5.780  0.6014 -1.8808 -0.9565
  958MOL0     H32198   4.829   8.674   5.741 -0.0710  1.7320  2.6042
  958MOL0     H32199   4.977   8.702   5.813 -1.5710  1.4590  3.3291
  958MOL0     H32200   4.776   8.574   6.159  0.7367  0.8066  0.8452
  958MOL0     H32201   5.466   8.610   5.649  1.6575  0.1786  1.8103
  958MOL0     H32202   5.649   8.639   5.553 -0.5602  0.1197 -1.5746
  958MOL0     H32203   5.658   8.796   5.460  0.4845  2.2774  1.1577
  958MOL0     H32204   5.749   8.782   5.598  0.1232  0.5902 -0.6631
  959MOL0     O32205  10.061   0.147   4.900 -0.1554  0.0232 -0.4604
  959MOL0     C32206   9.945   0.114   4.881  0.5021 -0.1231 -0.9945
  959MOL0     O32207   9.909   0.018   4.795 -0.2468 -0.6118  0.1940
  959MOL0     C32208  10.006  -0.048   4.728 -0.0954  0.6256  0.2811
  959MOL0     C32209  10.122  -0.119   4.783 -0.4192  0.2586 -0.5658
  959MOL0     C32210  10.220  -0.187   4.708 -0.0139  0.6415 -0.5268
  959MOL0     C32211  10.205  -0.198   4.577  0.1021 -0.3865  0.3698
  959MOL0     O32212  10.307  -0.270   4.520  0.7781 -0.1891  0.1040
  959MOL0     C32213  10.335  -0.280   4.381 -0.7601 -0.9918 -0.2028
  959MOL0     C32214  10.457  -0.361   4.380  0.1454  1.0632  0.5355
  959MOL0     C32215  10.528  -0.381   4.244 -0.3696 -0.6703 -0.8035
  959MOL0     C32216  10.664  -0.458   4.262  0.2790 -0.8511  0.4281
  959MOL0     C32217  10.759  -0.427   4.147 -0.0248 -0.4897 -0.8312
  959MOL0     C32218  10.908  -0.476   4.165 -0.5269  0.0955 -0.5247
  959MOL0     C32219  10.972  -0.406   4.293  0.1297  0.4346  0.8426
  959MOL0     C32220  11.118  -0.449   4.295  0.1564 -0.9514 -0.9332
  959MOL0     N32221  11.188  -0.370   4.394 -0.4504 -0.2828  0.4109
  959MOL0     C32222  11.212  -0.230   4.393 -0.6883  0.8626  0.3409
  959MOL0     C32223  11.314  -0.211   4.484 -0.2395  0.2693 -0.0787
  959MOL0     C32224  11.378  -0.082   4.502  0.0826  0.5034  0.8374
  959MOL0     C32225  11.528  -0.090   4.453 -0.4082  0.6430 -0.1636
  959MOL0     C32226  11.591   0.051   4.453  0.4130  0.0758  0.1515
  959MOL0     C32227  11.721   0.064   4.380 -0.7426 -0.6067  0.0031
  959MOL0     O32228  11.825  -0.003   4.455  0.3137 -0.1122 -0.2372
  959MOL0     C32229  11.951   0.005   4.396 -0.6004  0.0655  0.1592
  959MOL0     C32230  11.982   0.066   4.278 -0.9383 -0.2863 -0.8845
  959MOL0     C32231  12.115   0.059   4.230  0.1912  1.7014 -0.2897
  959MOL0     C32232  12.148   0.113   4.094  0.1369 -0.1192  0.9970
  959MOL0     C32233  12.218   0.003   4.311 -0.6245 -0.0555 -1.1038
  959MOL0     C32234  12.360   0.008   4.279  0.0775  0.8285 -0.7822
  959MOL0     O32235  12.409   0.125   4.240 -0.2791 -0.9962 -0.3778
  959MOL0     C32236  12.538   0.148   4.211 -0.5625  0.4035 -0.4924
  959MOL0     C32237  12.649   0.075   4.255  0.5477 -0.3275  0.0965
  959MOL0     C32238  12.785   0.120   4.219  0.7484  0.5527  0.0325
  959MOL0     C32239  12.803   0.233   4.129  0.1109  0.0576  0.6595
  959MOL0     O32240  12.929   0.270   4.093 -0.4628  0.2299  0.0117
  959MOL0     C32241  13.047   0.229   4.171 -0.4077  0.5307 -0.5079
  959MOL0     C32242  13.168   0.278   4.086 -0.4762  0.1930  0.0147
  959MOL0     C32243  13.198   0.185   3.969 -0.2230 -0.2454 -0.3961
  959MOL0     C32244  13.327   0.232   3.894  0.4185  0.9531  0.8737
  959MOL0     C32245  13.328   0.158   3.751 -0.0344 -0.4740  0.6858
  959MOL0     C32246  13.354   0.007   3.750  0.0244  0.4852 -1.2013
  959MOL0     C32247  13.379  -0.042   3.605 -0.6184  0.0409 -1.0029
  959MOL0     C32248  13.273  -0.014   3.499 -1.3714 -0.3965 -0.7715
  959MOL0    Cl32249  13.116  -0.090   3.527 -0.0095 -0.3493 -0.1620
  959MOL0     C32250  12.687   0.301   4.085 -0.2580 -0.0621 -0.3433
  959MOL0     C32251  12.561   0.263   4.130  0.2113  0.8206  0.8045
  959MOL0     O32252  12.421  -0.093   4.302 -0.4865 -0.2281  0.2830
  959MOL0     C32253  12.183  -0.067   4.432  0.1568  0.6723 -0.3588
  959MOL0     C32254  12.047  -0.066   4.472 -0.8911  0.0437  0.2914
  959MOL0     N32255  11.343  -0.332   4.552  0.1926 -0.2119  0.5905
  959MOL0     N32256  11.266  -0.419   4.492  0.3781 -0.2959 -0.0467
  959MOL0     C32257  10.093  -0.131   4.515  0.1152 -0.9301 -0.5100
  959MOL0     C32258   9.995  -0.055   4.588 -0.5354  0.1148  0.0199
  959MOL0     C32259   9.835   0.165   4.964  0.4279 -0.6690  0.7942
  959MOL0     C32260   9.836   0.297   5.005 -0.3477  0.4939  0.0669
  959MOL0     C32261   9.729   0.348   5.059  0.1142 -0.7883  0.4777
  959MOL0     C32262   9.613   0.278   5.090  0.0436  0.6458 -0.7956
  959MOL0     O32263   9.497   0.339   5.147  0.8085 -0.0108  0.7217
  959MOL0     C32264   9.467   0.471   5.094 -0.0625 -0.8246 -0.2631
  959MOL0     C32265   9.339   0.520   5.157  1.0009 -0.0550 -0.0817
  959MOL0     C32266   9.312   0.667   5.141 -0.4523  0.4863 -0.8096
  959MOL0     C32267   9.296   0.709   4.993 -0.7997 -0.0530 -0.4927
  959MOL0     C32268   9.257   0.853   4.994  0.1307  0.3314  0.1266
  959MOL0     C32269   9.218   0.965   4.990  0.6033 -0.4556  0.0312
  959MOL0     C32270   9.611   0.136   5.060 -0.1613 -0.2241 -0.4479
  959MOL0     C32271   9.725   0.081   4.999 -0.1643 -0.1061 -0.0901
  959MOL0     C32272   9.720  -0.068   4.987  0.0275  0.3695  0.1069
  959MOL0     H32273  10.127  -0.114   4.892 -2.7399  0.9468 -0.4374
  959MOL0     H32274  10.299  -0.233   4.767 -1.5589 -1.6190 -0.0524
  959MOL0     H32275  10.358  -0.186   4.330  1.3446 -1.2332  0.1847
  959MOL0     H32276  10.262  -0.326   4.314 -0.1815 -2.4487  0.1208
  959MOL0     H32277  10.539  -0.322   4.440  2.5512 -2.2900 -0.2742
  959MOL0     H32278  10.436  -0.463   4.413  1.9092 -0.4524 -2.5220
  959MOL0     H32279  10.465  -0.436   4.173  1.6732 -0.3792 -2.9686
  959MOL0     H32280  10.549  -0.282   4.202  1.1214 -0.6766 -0.1081
  959MOL0     H32281  10.707  -0.420   4.356 -0.0652  1.4493 -0.2680
  959MOL0     H32282  10.635  -0.562   4.279  0.8859 -0.9864  0.6678
  959MOL0     H32283  10.763  -0.317   4.151  1.1407 -0.5457  0.5815
  959MOL0     H32284  10.721  -0.460   4.050 -1.5124 -1.3521  0.0206
  959MOL0     H32285  10.897  -0.583   4.186 -1.2905  0.0470 -1.1248
  959MOL0     H32286  10.973  -0.468   4.077  1.2255  2.4112  0.8482
  959MOL0     H32287  10.917  -0.437   4.382 -0.7557  1.0882  0.5336
  959MOL0     H32288  10.966  -0.297   4.280 -0.5756  0.2497 -0.5865
  959MOL0     H32289  11.125  -0.556   4.317  3.7729 -0.6806 -0.2363
  959MOL0     H32290  11.153  -0.435   4.193  1.4182 -3.0292 -0.8527
  959MOL0     H32291  11.175  -0.157   4.322 -1.7260 -0.3998 -0.4719
  959MOL0     H32292  11.359  -0.038   4.601 -0.1916  1.5417  0.3337
  959MOL0     H32293  11.320  -0.006   4.449 -1.1103 -1.6366 -1.0369
  959MOL0     H32294  11.582  -0.157   4.520 -3.7043 -1.8164  0.2546
  959MOL0     H32295  11.536  -0.130   4.352  2.3913  3.6702 -1.3292
  959MOL0     H32296  11.524   0.123   4.405  5.0182  2.9840 -2.6090
  959MOL0     H32297  11.601   0.077   4.559 -0.9350 -0.4727  0.4383
  959MOL0     H32298  11.714   0.020   4.280 -0.2225  0.8354 -0.6928
  959MOL0     H32299  11.739   0.170   4.363 -1.6045 -0.6293 -1.2213
  959MOL0     H32300  11.907   0.121   4.220  0.2330  2.7607  0.2760
  959MOL0     H32301  12.194   0.041   4.025 -1.3059 -0.8950  0.7891
  959MOL0     H32302  12.215   0.199   4.095 -0.0114 -0.0023  0.8038
  959MOL0     H32303  12.054   0.142   4.045  0.6247 -2.9647 -1.9850
  959MOL0     H32304  12.641  -0.012   4.319 -1.8409 -0.3910 -0.1878
  959MOL0     H32305  12.866   0.056   4.253 -0.5464 -0.8225  0.5948
  959MOL0     H32306  13.044   0.284   4.266 -1.9694 -0.8568  0.2918
  959MOL0     H32307  13.043   0.121   4.185  1.3158  0.6584  1.3707
  959MOL0     H32308  13.139   0.372   4.037 -1.2640 -0.4272 -0.7361
  959MOL0     H32309  13.258   0.287   4.148  0.6877 -2.0515 -1.2241
  959MOL0     H32310  13.110   0.182   3.904 -0.3191 -1.8429 -0.2172
  959MOL0     H32311  13.214   0.082   4.001 -0.4875  0.0351  0.6678
  959MOL0     H32312  13.416   0.211   3.953  0.9024 -0.4816 -0.2918
  959MOL0     H32313  13.319   0.339   3.873 -2.6369  0.8875  1.2418
  959MOL0     H32314  13.231   0.177   3.705 -0.7916  0.7637  2.6404
  959MOL0     H32315  13.406   0.197   3.685 -2.3651 -1.2613 -2.7769
  959MOL0     H32316  13.271  -0.048   3.794  2.0154 -1.8663 -0.1201
  959MOL0     H32317  13.445  -0.016   3.806 -0.3509 -0.0290 -0.7905
  959MOL0     H32318  13.398  -0.149   3.597  0.0060  0.2212 -2.1446
  959MOL0     H32319  13.469   0.007   3.567  0.0531 -0.5170 -0.1773
  959MOL0     H32320  13.321  -0.055   3.410  0.9294  0.0829  0.1747
  959MOL0     H32321  13.261   0.094   3.488 -0.8128 -0.0591  1.3768
  959MOL0     H32322  12.683   0.393   4.027 -2.6715 -0.9703 -1.8188
  959MOL0     H32323  12.476   0.321   4.097  0.7554 -1.2668 -5.9500
  959MOL0     H32324  12.245  -0.117   4.506  0.3275  2.9460  1.1398
  959MOL0     H32325  12.018  -0.144   4.542  2.9068 -1.7018  0.2049
  959MOL0     H32326  10.086  -0.128   4.407 -0.1235 -0.7841 -0.4933
  959MOL0     H32327   9.912  -0.002   4.541 -1.6073 -1.2670  0.3006
  959MOL0     H32328   9.917   0.360   4.972 -1.3119  1.7479  0.0308
  959MOL0     H32329   9.720   0.455   5.074 -0.5573 -0.8717  0.6730
  959MOL0     H32330   9.540   0.538   5.140  0.4295 -2.3395  1.2595
  959MOL0     H32331   9.470   0.488   4.986 -1.8105  0.6919 -0.1196
  959MOL0     H32332   9.331   0.499   5.264 -1.0105 -0.3891 -0.2527
  959MOL0     H32333   9.264   0.460   5.104  0.9789  0.7718 -1.0186
  959MOL0     H32334   9.220   0.692   5.194  0.4149 -1.4731  1.7905
  959MOL0     H32335   9.400   0.712   5.187  0.6260  0.0401 -2.3382
  959MOL0     H32336   9.230   0.641   4.938 -1.6219  1.8715 -2.0172
  959MOL0     H32337   9.394   0.708   4.943 -1.1154 -3.4894 -1.2738
  959MOL0     H32338   9.184   1.065   4.973 -0.6756 -0.6916  1.0856
  959MOL0     H32339   9.519   0.080   5.078 -0.1840 -1.0296 -2.7616
  959MOL0     H32340   9.690  -0.091   4.884  2.6623 -0.1047 -0.6146
  959MOL0     H32341   9.808  -0.133   4.997 -0.2840  0.0302  0.7495
  959MOL0     H32342   9.646  -0.112   5.055 -1.6429  2.6560 -0.1050
  960MOL0     O32343  10.658   2.653   6.155 -0.0521 -0.5458 -0.0339
  960MOL0     C32344  10.664   2.628   6.273 -0.0317  0.4285 -0.1093
  960MOL0     O32345  10.567   2.555   6.337  0.3354  0.4011  0.4023
  960MOL0     C32346  10.465   2.481   6.278 -0.2059 -0.4285 -0.0995
  960MOL0     C32347  10.458   2.446   6.143 -0.1833 -0.5811  0.3816
  960MOL0     C32348  10.336   2.402   6.094 -0.4301 -0.5476 -0.5814
  960MOL0     C32349  10.210   2.408   6.161  0.9739 -0.2812 -0.5217
  960MOL0     O32350  10.086   2.377   6.114  0.5379  0.2245 -0.2940
  960MOL0     C32351  10.056   2.287   6.010 -0.6385 -0.5078  0.9561
  960MOL0     C32352  10.009   2.149   6.062 -0.1358  0.0368  0.1494
  960MOL0     C32353  10.108   2.064   6.142  0.7940 -0.2548  0.7325
  960MOL0     C32354  10.199   2.000   6.044 -0.5098  0.3009  0.0876
  960MOL0     C32355  10.299   1.905   6.112 -0.3380  0.0702  0.7730
  960MOL0     C32356  10.416   1.867   6.017  0.2417 -1.2638 -0.0562
  960MOL0     C32357  10.502   1.751   6.067  1.0318  0.0357 -0.3822
  960MOL0     C32358  10.433   1.613   6.058 -0.1798  0.0487 -0.0405
  960MOL0     N32359  10.527   1.501   6.092 -0.0725 -0.4343  1.1661
  960MOL0     C32360  10.509   1.399   6.177 -0.3439  0.5320 -0.4506
  960MOL0     C32361  10.614   1.319   6.160  0.1555  0.1226  1.3174
  960MOL0     C32362  10.627   1.177   6.221  0.6097  0.1605  0.2162
  960MOL0     C32363  10.584   1.072   6.112 -0.2333 -0.3612  0.0193
  960MOL0     C32364  10.603   0.924   6.151  0.3389  0.3525 -0.1761
  960MOL0     C32365  10.752   0.882   6.151  0.1974  0.3635  0.0307
  960MOL0     O32366  10.761   0.737   6.166 -0.7524 -0.3319 -0.0540
  960MOL0     C32367  10.888   0.698   6.183 -0.3996 -0.1553 -0.1942
  960MOL0     C32368  10.944   0.702   6.316  0.5330  0.0492 -0.3299
  960MOL0     C32369  11.076   0.664   6.334 -0.8197 -0.1584 -0.4873
  960MOL0     C32370  11.121   0.689   6.480  0.7918  0.4034  0.2439
  960MOL0     C32371  11.157   0.607   6.233 -0.4578  0.3707  0.3223
  960MOL0     C32372  11.310   0.583   6.245  0.5625 -0.0990 -0.8019
  960MOL0     O32373  11.351   0.547   6.365 -0.6170  0.3882 -0.1812
  960MOL0     C32374  11.484   0.557   6.408 -0.3310 -0.2060 -0.0385
  960MOL0     C32375  11.589   0.490   6.345 -0.1375  0.7771  0.2301
  960MOL0     C32376  11.721   0.515   6.369  0.3649 -0.7024 -0.6111
  960MOL0     C32377  11.755   0.602   6.480  0.5774 -0.1080  0.6926
  960MOL0     O32378  11.891   0.611   6.492  0.0873 -0.0346  0.2076
  960MOL0     C32379  11.942   0.690   6.597  0.1396  0.4006 -1.0769
  960MOL0     C32380  12.088   0.663   6.602  0.3644  0.4183  0.5308
  960MOL0     C32381  12.152   0.773   6.691  0.3010  0.9889 -0.0542
  960MOL0     C32382  12.297   0.748   6.716 -0.2344 -0.1210  0.2919
  960MOL0     C32383  12.363   0.877   6.760 -0.3578 -0.3118  1.0433
  960MOL0     C32384  12.497   0.904   6.693  0.5883  0.5244  0.6053
  960MOL0     C32385  12.488   0.992   6.565  0.6576  0.0500 -0.7528
  960MOL0     C32386  12.623   1.046   6.519  0.8122 -0.5771  0.6286
  960MOL0    Cl32387  12.736   0.908   6.495 -0.0525 -0.2581 -0.0913
  960MOL0     C32388  11.658   0.654   6.563 -0.8462 -0.3297  0.3520
  960MOL0     C32389  11.523   0.630   6.527  0.7613 -0.0580 -0.0459
  960MOL0     O32390  11.381   0.602   6.148  0.3992 -0.3949 -0.4413
  960MOL0     C32391  11.094   0.579   6.116 -0.2876  0.0870  0.2720
  960MOL0     C32392  10.972   0.638   6.084 -0.5206  0.0537 -0.2495
  960MOL0     N32393  10.695   1.374   6.064 -0.3797  0.8527  0.3902
  960MOL0     N32394  10.646   1.487   6.020 -0.1676  0.8288 -0.0695
  960MOL0     C32395  10.221   2.441   6.296  0.3256  0.3620 -0.1904
  960MOL0     C32396  10.350   2.469   6.354  0.7462 -1.0655 -0.2533
  960MOL0     C32397  10.786   2.658   6.352  0.3659 -0.1892 -0.2169
  960MOL0     C32398  10.878   2.756   6.301  0.2728  0.3989  0.2675
  960MOL0     C32399  10.992   2.791   6.367 -0.5056  0.3884  0.3995
  960MOL0     C32400  11.011   2.744   6.501  0.6119  0.2452  0.6807
  960MOL0     O32401  11.122   2.780   6.582  0.1379  0.6983 -0.5561
  960MOL0     C32402  11.227   2.851   6.515 -0.6648  0.3352  0.5337
  960MOL0     C32403  11.348   2.857   6.604 -1.0567  0.3907  0.1109
  960MOL0     C32404  11.473   2.926   6.541 -0.4143 -0.3693  0.7236
  960MOL0     C32405  11.535   2.842   6.425  0.7934 -0.2063 -1.1169
  960MOL0     C32406  11.636   2.929   6.366 -0.3343 -0.2953  0.4130
  960MOL0     C32407  11.720   3.003   6.318  0.6826  0.4019 -0.4549
  960MOL0     C32408  10.916   2.652   6.550 -0.3375  0.2764  0.1202
  960MOL0     C32409  10.813   2.602   6.479  0.0010 -0.0247 -0.6631
  960MOL0     C32410  10.724   2.497   6.553 -1.5619  0.0431  0.2604
  960MOL0     H32411  10.549   2.444   6.085 -0.5548 -3.3693 -0.2464
  960MOL0     H32412  10.341   2.373   5.989 -0.0069 -1.2665 -0.3736
  960MOL0     H32413  10.136   2.277   5.937  0.2740  0.9203  1.7152
  960MOL0     H32414   9.964   2.314   5.957 -0.8274 -4.1166 -0.8830
  960MOL0     H32415   9.919   2.167   6.122 -0.1711  0.1748  0.0563
  960MOL0     H32416   9.978   2.096   5.971 -1.2331  0.1199  0.4621
  960MOL0     H32417  10.155   2.136   6.210 -2.1431  2.0671  0.4728
  960MOL0     H32418  10.057   1.986   6.199 -0.0025  1.2686  2.1842
  960MOL0     H32419  10.144   1.944   5.968  2.4343  0.5383 -2.4396
  960MOL0     H32420  10.261   2.071   5.989  0.1329 -1.7674 -2.0547
  960MOL0     H32421  10.244   1.816   6.143 -1.2034  1.8528  5.1389
  960MOL0     H32422  10.335   1.958   6.201 -0.2241  2.7169 -0.7429
  960MOL0     H32423  10.364   1.847   5.922 -0.4575  1.1629 -0.2404
  960MOL0     H32424  10.484   1.951   6.003 -0.6335 -0.0347  2.5899
  960MOL0     H32425  10.521   1.777   6.171  0.0654 -1.4910  0.2038
  960MOL0     H32426  10.600   1.752   6.018  1.3829  0.4306  0.3082
  960MOL0     H32427  10.352   1.609   6.131  1.4380 -0.8001  1.8224
  960MOL0     H32428  10.394   1.597   5.957 -1.2626  1.0699  0.2035
  960MOL0     H32429  10.426   1.390   6.246 -0.0355  3.7287  0.4670
  960MOL0     H32430  10.556   1.163   6.303 -2.0354  0.7758 -1.8420
  960MOL0     H32431  10.729   1.161   6.258  0.5686 -1.3372 -0.2284
  960MOL0     H32432  10.477   1.085   6.094 -0.5847  1.2768  2.7763
  960MOL0     H32433  10.646   1.084   6.022 -1.3399 -1.8877 -0.9927
  960MOL0     H32434  10.551   0.906   6.246  2.2654  0.5767  0.9756
  960MOL0     H32435  10.565   0.859   6.072  1.2007 -0.0961 -0.2283
  960MOL0     H32436  10.797   0.905   6.054 -0.0618  0.1426 -0.1433
  960MOL0     H32437  10.805   0.938   6.228  0.6952 -0.3556  0.2232
  960MOL0     H32438  10.883   0.735   6.400  0.9758 -2.1224  0.9180
  960MOL0     H32439  11.225   0.723   6.484  0.7439  1.1900 -2.4896
  960MOL0     H32440  11.106   0.597   6.536 -0.3795  1.0163  0.9672
  960MOL0     H32441  11.059   0.765   6.528 -0.1261 -0.5930  0.6550
  960MOL0     H32442  11.581   0.430   6.255  0.7986  0.6228  0.2435
  960MOL0     H32443  11.803   0.474   6.311  1.5401  0.1345  0.3932
  960MOL0     H32444  11.905   0.791   6.577 -1.6094  0.5206  2.1489
  960MOL0     H32445  11.900   0.658   6.693 -1.2743  0.3115 -1.6954
  960MOL0     H32446  12.103   0.564   6.646  1.4871 -0.3094 -1.3561
  960MOL0     H32447  12.136   0.665   6.503 -0.7710 -0.8659 -0.0881
  960MOL0     H32448  12.102   0.781   6.788 -0.4466  0.8943 -0.4234
  960MOL0     H32449  12.143   0.867   6.636 -0.3926  1.0859  0.2126
  960MOL0     H32450  12.344   0.719   6.621 -1.1292 -0.4761 -0.0509
  960MOL0     H32451  12.306   0.664   6.785  2.5219 -1.4398 -1.4874
  960MOL0     H32452  12.303   0.968   6.748 -1.2760 -0.6009  3.0603
  960MOL0     H32453  12.385   0.869   6.867  0.2078 -0.3805  0.9266
  960MOL0     H32454  12.537   0.808   6.658 -1.1580 -0.1828  0.4276
  960MOL0     H32455  12.564   0.947   6.768  0.3205 -0.1458  1.2463
  960MOL0     H32456  12.419   1.076   6.578  0.4743 -0.1533 -0.4054
  960MOL0     H32457  12.456   0.941   6.473  0.9498  0.0172 -0.8377
  960MOL0     H32458  12.657   1.125   6.586  0.1469  1.7427 -1.5880
  960MOL0     H32459  12.615   1.102   6.425  0.4618 -0.0020  0.9924
  960MOL0     H32460  11.691   0.724   6.639  1.4580 -0.9396 -0.0233
  960MOL0     H32461  11.440   0.670   6.584  0.4136  0.0632 -0.6318
  960MOL0     H32462  11.158   0.536   6.040  0.2027  1.0155  0.1574
  960MOL0     H32463  10.933   0.639   5.983 -2.6694 -1.4275  0.4810
  960MOL0     H32464  10.127   2.445   6.350 -0.1554 -1.5862 -0.8008
  960MOL0     H32465  10.360   2.505   6.456  2.6936 -0.2567 -0.6835
  960MOL0     H32466  10.851   2.818   6.216 -0.7260  0.0436  0.3056
  960MOL0     H32467  11.039   2.870   6.309  0.9313 -0.8485 -0.1903
  960MOL0     H32468  11.252   2.792   6.427 -1.6989 -3.9397  2.8218
  960MOL0     H32469  11.203   2.957   6.498  1.7152  1.0265  1.0847
  960MOL0     H32470  11.367   2.755   6.638  0.4828  0.7550  0.4071
  960MOL0     H32471  11.309   2.916   6.687  1.2515  0.8476  0.9484
  960MOL0     H32472  11.441   3.026   6.509 -1.1371 -1.3398 -1.7786
  960MOL0     H32473  11.548   2.937   6.620 -0.5368 -0.3962  0.8447
  960MOL0     H32474  11.470   2.804   6.345  0.1951 -0.3465 -0.5785
  960MOL0     H32475  11.578   2.753   6.471 -1.8632 -0.3937  1.2361
  960MOL0     H32476  11.817   3.046   6.312  1.7530 -1.9238 -1.4676
  960MOL0     H32477  10.938   2.605   6.645  1.9444 -0.7113 -0.8111
  960MOL0     H32478  10.632   2.550   6.579 -0.1081  1.9178  1.8686
  960MOL0     H32479  10.709   2.419   6.477 -1.2299  0.9801 -0.7869
  960MOL0     H32480  10.750   2.460   6.652 -2.3057  2.6265  1.5111
  961MOL0     O32481   0.934   1.434   5.914  0.1490  0.1936 -0.1849
  961MOL0     C32482   0.976   1.407   6.025 -0.3720  0.2148  0.0502
  961MOL0     O32483   1.036   1.491   6.115  0.1406 -0.4510  0.2436
  961MOL0     C32484   1.093   1.612   6.089  0.0090  0.4288 -0.1284
  961MOL0     C32485   1.110   1.681   5.970 -0.2729 -0.1584  0.5897
  961MOL0     C32486   1.179   1.804   5.968 -0.3910 -0.4537  0.0908
  961MOL0     C32487   1.223   1.865   6.081 -0.5016 -0.7851 -0.0194
  961MOL0     O32488   1.303   1.975   6.077  0.4680  0.2524 -0.1815
  961MOL0     C32489   1.231   2.097   6.084 -0.0861  0.4021  0.4014
  961MOL0     C32490   1.321   2.219   6.093  0.1811  0.5137  0.0687
  961MOL0     C32491   1.246   2.351   6.114 -1.1701  0.6825 -1.0406
  961MOL0     C32492   1.189   2.417   5.984  0.2871  0.0275 -0.1339
  961MOL0     C32493   1.174   2.556   6.014  0.5293  0.1757  0.5043
  961MOL0     C32494   1.115   2.624   5.891  0.7893 -0.6602  0.1492
  961MOL0     C32495   0.976   2.567   5.850 -0.0373  0.1767 -0.6539
  961MOL0     C32496   0.875   2.589   5.963  1.0934  0.1435 -0.6140
  961MOL0     N32497   0.865   2.723   6.002 -0.2631  0.1256  0.0494
  961MOL0     C32498   0.860   2.834   5.921  0.0259 -0.6236 -0.7238
  961MOL0     C32499   0.818   2.940   6.000 -0.1667  0.1062 -0.4613
  961MOL0     C32500   0.803   3.087   5.967  0.1749  1.1544  0.1434
  961MOL0     C32501   0.935   3.148   5.929 -0.2865  0.3165 -0.0020
  961MOL0     C32502   0.924   3.294   5.886  0.1827 -0.4443 -1.3296
  961MOL0     C32503   1.054   3.344   5.860 -0.2476  0.3251  0.3562
  961MOL0     O32504   1.026   3.475   5.790 -0.2284 -0.1074  0.1985
  961MOL0     C32505   1.137   3.525   5.725  0.1959 -0.6972 -0.2878
  961MOL0     C32506   1.129   3.559   5.590 -0.6006  0.5510 -0.2069
  961MOL0     C32507   1.241   3.599   5.516  0.9436 -0.0888  0.6352
  961MOL0     C32508   1.224   3.605   5.373  0.4951 -0.5680 -0.2568
  961MOL0     C32509   1.360   3.633   5.584  0.2533 -0.2950 -0.2602
  961MOL0     C32510   1.486   3.685   5.521  0.0045 -0.0738 -0.9672
  961MOL0     O32511   1.499   3.688   5.382 -0.1301 -0.0637  0.2568
  961MOL0     C32512   1.614   3.744   5.333  0.5968  0.4482  0.7217
  961MOL0     C32513   1.670   3.870   5.362  0.0317  0.8595 -0.3743
  961MOL0     C32514   1.794   3.913   5.305  0.6732  0.4046 -0.6410
  961MOL0     C32515   1.859   3.827   5.221 -0.8209 -0.0732  0.3098
  961MOL0     O32516   1.975   3.873   5.157  0.3759  0.2640  0.1629
  961MOL0     C32517   2.038   3.991   5.205  0.5778 -0.9482 -0.2844
  961MOL0     C32518   2.175   4.019   5.150  0.2144  0.3136 -1.2221
  961MOL0     C32519   2.283   3.919   5.201  0.1100 -0.2275  0.3276
  961MOL0     C32520   2.417   3.939   5.131 -0.3636 -0.0433 -0.1145
  961MOL0     C32521   2.515   3.817   5.138 -0.0358  0.7701 -0.4260
  961MOL0     C32522   2.627   3.836   5.035  0.7203 -0.4172  0.0823
  961MOL0     C32523   2.709   3.967   5.038  0.4825  0.0892  0.4467
  961MOL0     C32524   2.798   3.975   5.156  0.6530 -0.7019 -0.0601
  961MOL0    Cl32525   2.704   4.019   5.304  0.1540  0.1517 -0.5468
  961MOL0     C32526   1.801   3.712   5.168 -0.0149  0.0766 -0.5741
  961MOL0     C32527   1.686   3.670   5.229  0.8035  0.2581 -0.2561
  961MOL0     O32528   1.566   3.727   5.600 -0.2766 -0.2728  0.0029
  961MOL0     C32529   1.362   3.603   5.724 -0.2962 -0.2400  0.0136
  961MOL0     C32530   1.249   3.553   5.793 -0.5480  0.0550 -0.3120
  961MOL0     N32531   0.824   2.888   6.127  0.0720 -0.0937  0.0928
  961MOL0     N32532   0.850   2.766   6.133  0.1699  0.6045  0.3003
  961MOL0     C32533   1.208   1.798   6.204  0.1703  0.3423 -0.1211
  961MOL0     C32534   1.136   1.680   6.206 -0.5538 -0.0206 -0.4091
  961MOL0     C32535   0.958   1.266   6.076 -0.6939  0.6498  0.8357
  961MOL0     C32536   0.963   1.249   6.212  0.2670 -0.4701  0.5070
  961MOL0     C32537   0.948   1.125   6.273  0.4973  0.8686  0.2248
  961MOL0     C32538   0.908   1.016   6.192 -0.3174 -0.0569 -0.0948
  961MOL0     O32539   0.884   0.893   6.246 -0.4394 -0.2182 -0.1345
  961MOL0     C32540   0.750   0.878   6.280 -0.4454  0.1177 -0.4685
  961MOL0     C32541   0.684   0.753   6.228  0.6552  0.0684  0.2466
  961MOL0     C32542   0.682   0.730   6.068  0.3443 -0.0469  0.1488
  961MOL0     C32543   0.584   0.621   6.041  1.4583  0.0651  0.2290
  961MOL0     C32544   0.442   0.660   6.058  0.0085  0.0802  0.5604
  961MOL0     C32545   0.327   0.689   6.040  0.4069  0.7590 -0.1464
  961MOL0     C32546   0.919   1.022   6.051  1.1787 -0.1000  0.1657
  961MOL0     C32547   0.934   1.151   5.998  0.6597 -0.1661 -0.2579
  961MOL0     C32548   0.942   1.148   5.847  1.1704  0.1050 -0.3431
  961MOL0     H32549   1.066   1.634   5.883 -0.3751  0.7038  0.1566
  961MOL0     H32550   1.191   1.860   5.876 -0.5031  1.2124  1.0511
  961MOL0     H32551   1.167   2.104   6.172  0.9814 -3.0060  1.6002
  961MOL0     H32552   1.162   2.107   6.000 -2.9899  0.0693  2.5812
  961MOL0     H32553   1.402   2.210   6.166  0.4860 -1.5011 -0.4583
  961MOL0     H32554   1.368   2.217   5.995  0.9157 -1.9198  0.3965
  961MOL0     H32555   1.164   2.338   6.185  1.1746  1.1111  1.9821
  961MOL0     H32556   1.322   2.421   6.149  1.1987  0.0012 -4.3142
  961MOL0     H32557   1.254   2.401   5.896 -0.2012  0.8536 -0.6532
  961MOL0     H32558   1.093   2.372   5.960  1.0666 -1.4757 -0.5949
  961MOL0     H32559   1.264   2.610   6.044 -1.3553  2.6098  2.2263
  961MOL0     H32560   1.116   2.568   6.107 -1.2814 -1.6733 -0.3104
  961MOL0     H32561   1.099   2.730   5.915 -3.3414 -1.2018  0.4931
  961MOL0     H32562   1.184   2.629   5.806 -1.3225 -2.3902 -1.8113
  961MOL0     H32563   0.983   2.464   5.816  1.2456  0.7174 -2.1533
  961MOL0     H32564   0.931   2.625   5.769 -2.6563 -2.6497 -1.3786
  961MOL0     H32565   0.775   2.567   5.924  1.3907 -1.5209 -0.5326
  961MOL0     H32566   0.891   2.522   6.048 -0.4120 -0.9602 -1.1545
  961MOL0     H32567   0.880   2.837   5.815 -0.1857  0.1408 -0.7426
  961MOL0     H32568   0.740   3.135   6.042  0.5750  1.1418  0.4931
  961MOL0     H32569   0.728   3.100   5.888 -0.4836 -0.4804  0.4551
  961MOL0     H32570   1.002   3.134   6.014 -0.3447 -1.6136 -0.2338
  961MOL0     H32571   0.974   3.095   5.842 -3.5869 -4.1406  0.8283
  961MOL0     H32572   0.861   3.307   5.798 -0.7428 -0.6390 -0.7030
  961MOL0     H32573   0.875   3.346   5.969 -2.7634 -4.4206 -0.2609
  961MOL0     H32574   1.105   3.361   5.955 -1.6079 -1.0668  1.3822
  961MOL0     H32575   1.124   3.288   5.798 -2.8174  1.1224 -3.6817
  961MOL0     H32576   1.031   3.553   5.543 -1.1014  2.1317  0.5486
  961MOL0     H32577   1.234   3.711   5.349 -0.0181  0.0742  2.1331
  961MOL0     H32578   1.124   3.569   5.347 -0.3665  0.2383  1.7896
  961MOL0     H32579   1.301   3.556   5.312 -0.3360 -2.9269  0.4973
  961MOL0     H32580   1.619   3.919   5.444 -1.5113 -0.7038 -0.3473
  961MOL0     H32581   1.840   4.006   5.340  2.2921 -0.7117  0.3377
  961MOL0     H32582   1.974   4.073   5.171 -0.1888 -0.1821  2.7284
  961MOL0     H32583   2.040   3.992   5.314  0.1780  0.1718 -0.2753
  961MOL0     H32584   2.165   4.008   5.042 -2.0784  1.7565 -1.2145
  961MOL0     H32585   2.204   4.121   5.175 -0.3854  0.1503  0.2649
  961MOL0     H32586   2.264   3.814   5.177 -0.7572 -0.0623  0.2600
  961MOL0     H32587   2.302   3.925   5.308  2.2037  1.7241 -0.0890
  961MOL0     H32588   2.468   4.027   5.171 -0.7250 -1.3028  3.5130
  961MOL0     H32589   2.395   3.950   5.025  1.5288  2.7941 -0.3226
  961MOL0     H32590   2.566   3.805   5.233  3.1295  3.0619 -1.6527
  961MOL0     H32591   2.458   3.725   5.120  1.5644 -0.5285  0.8337
  961MOL0     H32592   2.578   3.836   4.937  0.9969  2.6277 -0.1451
  961MOL0     H32593   2.695   3.752   5.053  1.4102 -0.2900 -1.7773
  961MOL0     H32594   2.641   4.052   5.028  1.6876  0.8105 -3.2315
  961MOL0     H32595   2.768   3.969   4.946 -2.3758 -0.8442 -1.5445
  961MOL0     H32596   2.866   4.056   5.126 -0.6720  0.3980 -0.1830
  961MOL0     H32597   2.860   3.887   5.174 -0.9442 -1.3916  2.5987
  961MOL0     H32598   1.838   3.653   5.085  0.5818  1.0677 -1.0271
  961MOL0     H32599   1.650   3.574   5.192  0.7633  0.5514 -1.0034
  961MOL0     H32600   1.452   3.616   5.783 -1.2796  1.7525  1.1624
  961MOL0     H32601   1.258   3.534   5.899  0.3600 -2.3244 -0.7587
  961MOL0     H32602   1.233   1.841   6.300  0.6233 -0.6301  0.2136
  961MOL0     H32603   1.126   1.630   6.301 -0.6638  0.7801  0.0094
  961MOL0     H32604   0.991   1.333   6.275 -0.0496 -0.5510  0.7609
  961MOL0     H32605   0.958   1.108   6.380 -4.0645 -1.3018  0.5545
  961MOL0     H32606   0.753   0.876   6.390 -0.1471 -0.1577 -0.4808
  961MOL0     H32607   0.693   0.963   6.243  2.4751  1.7026 -1.6276
  961MOL0     H32608   0.581   0.756   6.266  0.6118 -0.4869  0.1824
  961MOL0     H32609   0.737   0.668   6.271 -1.1258 -1.2237  0.0358
  961MOL0     H32610   0.645   0.818   6.014  1.1367 -0.2849 -0.8060
  961MOL0     H32611   0.779   0.697   6.031 -0.0324  1.4219 -2.3932
  961MOL0     H32612   0.597   0.532   6.104 -0.3787  0.5924  1.4128
  961MOL0     H32613   0.607   0.577   5.943 -0.9121  0.0387 -0.3711
  961MOL0     H32614   0.223   0.712   6.033 -0.3528 -0.8073  3.6934
  961MOL0     H32615   0.906   0.929   5.997  0.7307 -0.6535  1.1952
  961MOL0     H32616   1.045   1.168   5.815  0.8159  2.6016 -0.0714
  961MOL0     H32617   0.929   1.048   5.805  1.5197 -1.1944  2.4203
  961MOL0     H32618   0.882   1.225   5.799  1.2811  0.8068  0.6202
  962MOL0     O32619   9.122   6.623   5.405  0.0082 -0.3194  0.3531
  962MOL0     C32620   9.046   6.538   5.451  0.8465 -0.1982 -0.1028
  962MOL0     O32621   9.086   6.446   5.546 -0.5948  0.2696  0.1168
  962MOL0     C32622   9.219   6.429   5.562 -0.4983  0.0676 -0.3143
  962MOL0     C32623   9.292   6.490   5.667  0.8538  0.9890  0.5909
  962MOL0     C32624   9.428   6.481   5.672  0.0850  0.5914 -1.1281
  962MOL0     C32625   9.501   6.406   5.577 -0.1258 -0.6629 -0.4381
  962MOL0     O32626   9.634   6.398   5.583 -0.1823 -0.3013 -0.6616
  962MOL0     C32627   9.697   6.474   5.473  0.6422 -0.8330 -0.5636
  962MOL0     C32628   9.827   6.404   5.431 -0.1685 -0.1478  0.8970
  962MOL0     C32629   9.929   6.392   5.544  0.7104  1.2229 -0.2410
  962MOL0     C32630  10.040   6.487   5.524  0.2701  0.5033 -0.3419
  962MOL0     C32631  10.145   6.468   5.640  0.6479 -0.4439 -0.2804
  962MOL0     C32632  10.279   6.531   5.608 -0.5543  1.0876  0.0582
  962MOL0     C32633  10.262   6.667   5.540  0.5975 -0.2321  0.3227
  962MOL0     C32634  10.392   6.754   5.555 -0.2146 -0.1994 -0.1405
  962MOL0     N32635  10.510   6.680   5.504 -0.3329 -0.1070 -0.0108
  962MOL0     C32636  10.524   6.623   5.383 -0.3020 -0.3692  0.5157
  962MOL0     C32637  10.647   6.557   5.392 -0.8031  0.6487 -0.1327
  962MOL0     C32638  10.733   6.487   5.284  0.8712  0.4816 -0.9028
  962MOL0     C32639  10.698   6.346   5.261 -0.1774  0.3391 -0.3375
  962MOL0     C32640  10.551   6.329   5.215 -0.3342 -0.0478 -0.5299
  962MOL0     C32641  10.501   6.191   5.216 -0.5925  0.4062 -0.4311
  962MOL0     O32642  10.440   6.163   5.348 -0.7605  0.2186  0.3914
  962MOL0     C32643  10.347   6.065   5.347  0.4744 -0.4008 -0.1837
  962MOL0     C32644  10.335   5.963   5.247 -0.6372 -0.1178 -0.2576
  962MOL0     C32645  10.241   5.859   5.260  0.5900 -0.1066  0.2223
  962MOL0     C32646  10.248   5.753   5.152 -0.0283  0.5549 -0.6287
  962MOL0     C32647  10.153   5.854   5.372 -0.3017 -0.2528  0.4134
  962MOL0     C32648  10.060   5.748   5.405  0.6143  0.2334  0.5523
  962MOL0     O32649  10.012   5.746   5.537 -0.1422  0.2761 -0.1009
  962MOL0     C32650   9.932   5.641   5.586  0.0211  0.3546  0.1564
  962MOL0     C32651   9.804   5.618   5.541  0.2078 -0.5160  0.4134
  962MOL0     C32652   9.722   5.517   5.586  0.5246  0.6368 -0.6496
  962MOL0     C32653   9.764   5.436   5.693  0.4411 -0.3770 -0.2008
  962MOL0     O32654   9.671   5.345   5.741 -0.1186  0.3256 -0.4990
  962MOL0     C32655   9.719   5.203   5.738 -0.1829 -0.2214  0.5059
  962MOL0     C32656   9.601   5.113   5.764  0.4226  0.3503  0.0487
  962MOL0     C32657   9.533   5.132   5.903 -0.0100  0.1473  0.0901
  962MOL0     C32658   9.391   5.061   5.901  0.2217 -0.3880 -0.3405
  962MOL0     C32659   9.336   5.042   6.045  0.8183  0.7672 -0.2808
  962MOL0     C32660   9.186   5.006   6.038 -0.5083 -0.5275 -0.8049
  962MOL0     C32661   9.129   4.984   6.175 -0.5663 -0.5538  0.7264
  962MOL0     C32662   8.988   5.038   6.187  0.4066 -0.1621  0.0038
  962MOL0    Cl32663   8.969   5.218   6.188 -0.1234  0.2175 -0.0120
  962MOL0     C32664   9.894   5.451   5.740 -0.0911  0.2951  0.3154
  962MOL0     C32665   9.978   5.551   5.681 -0.0602  0.0185 -0.0510
  962MOL0     O32666  10.022   5.666   5.319  0.9265 -0.1404 -0.0368
  962MOL0     C32667  10.169   5.962   5.470 -0.2085 -0.5851  0.5016
  962MOL0     C32668  10.262   6.061   5.461  0.2732 -0.5043  0.0876
  962MOL0     N32669  10.697   6.571   5.520  0.3318 -0.1263  0.3971
  962MOL0     N32670  10.616   6.641   5.580 -0.0203 -0.5061 -0.2474
  962MOL0     C32671   9.432   6.351   5.467 -0.3755 -0.4932 -0.5907
  962MOL0     C32672   9.294   6.359   5.459 -0.4381  0.0227 -0.0477
  962MOL0     C32673   8.905   6.542   5.413 -0.0117 -0.2042  0.8708
  962MOL0     C32674   8.830   6.439   5.473  0.3035  0.1950  0.5616
  962MOL0     C32675   8.694   6.420   5.429  0.4070 -1.2649  0.7732
  962MOL0     C32676   8.635   6.520   5.343  0.5595 -0.4559 -0.5906
  962MOL0     O32677   8.496   6.502   5.330  0.1392  0.4101 -0.3286
  962MOL0     C32678   8.433   6.579   5.223  0.1879 -0.1504  0.2339
  962MOL0     C32679   8.288   6.532   5.194  0.3850 -0.3599 -0.4331
  962MOL0     C32680   8.277   6.384   5.168  0.5325 -0.4921  0.8668
  962MOL0     C32681   8.136   6.334   5.189 -0.9086  0.5561  0.3017
  962MOL0     C32682   8.048   6.412   5.110 -0.8684  0.6111  0.1229
  962MOL0     C32683   7.962   6.458   5.045  0.7401 -0.5402  0.8294
  962MOL0     C32684   8.714   6.613   5.281 -0.1763  0.0102  0.1869
  962MOL0     C32685   8.849   6.637   5.322 -0.4673 -0.5154 -0.0953
  962MOL0     C32686   8.915   6.761   5.266  0.3862 -0.0258 -0.5998
  962MOL0     H32687   9.233   6.533   5.748  0.7878  1.6310  0.2079
  962MOL0     H32688   9.489   6.515   5.756  1.0233 -3.5169  0.0783
  962MOL0     H32689   9.715   6.572   5.518 -3.1998 -0.8763  1.4929
  962MOL0     H32690   9.631   6.494   5.388  0.1615  0.5610  0.1232
  962MOL0     H32691   9.810   6.306   5.386  0.5057  0.6239 -1.1389
  962MOL0     H32692   9.875   6.465   5.354  1.7445  0.4769  2.4849
  962MOL0     H32693   9.888   6.407   5.645 -1.0380 -1.4688 -0.4599
  962MOL0     H32694   9.984   6.299   5.530  0.1085  1.0103 -1.2531
  962MOL0     H32695  10.093   6.443   5.439  0.0440 -3.1129  1.1884
  962MOL0     H32696  10.007   6.587   5.498 -0.8560 -0.4220 -2.8206
  962MOL0     H32697  10.174   6.363   5.651 -0.1400 -0.6326  0.0277
  962MOL0     H32698  10.102   6.514   5.730  0.9607  0.1741 -0.4421
  962MOL0     H32699  10.346   6.539   5.694  0.2397  4.8062 -0.7590
  962MOL0     H32700  10.327   6.468   5.533  0.7027  1.9241  0.1391
  962MOL0     H32701  10.187   6.730   5.588  2.6859  1.1251  2.0511
  962MOL0     H32702  10.236   6.656   5.435  1.1620  0.8282  0.0524
  962MOL0     H32703  10.384   6.851   5.506 -0.4391 -0.2169 -0.1422
  962MOL0     H32704  10.406   6.778   5.661 -3.0352 -0.9852  0.5005
  962MOL0     H32705  10.456   6.629   5.299  0.1656 -3.4250 -0.1678
  962MOL0     H32706  10.836   6.480   5.319  0.5681 -2.1299 -0.3080
  962MOL0     H32707  10.736   6.538   5.187 -0.3421 -1.5535 -2.0790
  962MOL0     H32708  10.768   6.314   5.183  1.5757 -0.4708  1.4735
  962MOL0     H32709  10.719   6.289   5.352  0.7449 -1.0994 -1.4126
  962MOL0     H32710  10.480   6.380   5.281  0.9581 -0.8613  1.5680
  962MOL0     H32711  10.543   6.369   5.113  2.7798  1.3611 -0.3456
  962MOL0     H32712  10.420   6.176   5.144 -2.0147 -2.7988  1.5870
  962MOL0     H32713  10.584   6.122   5.197 -1.9577 -0.8751 -2.1301
  962MOL0     H32714  10.415   5.964   5.174  1.0810  2.4198  1.4730
  962MOL0     H32715  10.311   5.800   5.076 -0.1329 -0.1065 -1.1390
  962MOL0     H32716  10.151   5.745   5.102 -0.8848  0.1203  1.0494
  962MOL0     H32717  10.297   5.660   5.184  0.1548  0.7719 -0.2820
  962MOL0     H32718   9.769   5.689   5.467  1.4983 -0.1975  0.0817
  962MOL0     H32719   9.620   5.504   5.551 -0.3056 -0.5437  1.9876
  962MOL0     H32720   9.770   5.182   5.644  1.9550 -2.3474  2.0093
  962MOL0     H32721   9.793   5.196   5.818  1.5205 -2.0757 -1.1114
  962MOL0     H32722   9.530   5.131   5.682  2.0952  0.3978 -1.4464
  962MOL0     H32723   9.631   5.008   5.759  1.6627  0.6917 -0.0068
  962MOL0     H32724   9.507   5.236   5.924 -3.9615 -1.0030  1.8601
  962MOL0     H32725   9.598   5.091   5.981 -0.9200 -1.4881  0.0397
  962MOL0     H32726   9.395   4.963   5.853 -0.7883 -0.7236  0.2453
  962MOL0     H32727   9.327   5.128   5.843  0.5781  0.7064  0.4789
  962MOL0     H32728   9.387   4.964   6.103  0.5323  1.3175  0.7313
  962MOL0     H32729   9.349   5.136   6.100  0.5680 -0.0730  1.2938
  962MOL0     H32730   9.180   4.914   5.978 -0.2595 -1.3346  0.3827
  962MOL0     H32731   9.141   5.092   5.989 -2.7794 -2.1784 -1.7677
  962MOL0     H32732   9.197   5.021   6.252 -0.0820  0.5157 -0.1890
  962MOL0     H32733   9.128   4.875   6.184  0.1313 -0.6518 -0.2092
  962MOL0     H32734   8.940   5.005   6.280  1.3742 -2.6100 -0.2940
  962MOL0     H32735   8.931   5.003   6.101 -0.5515  1.1063  0.0890
  962MOL0     H32736   9.937   5.381   5.812 -1.0525 -1.1616 -0.4743
  962MOL0     H32737  10.080   5.550   5.718 -0.5945 -1.4530  1.4696
  962MOL0     H32738  10.101   5.963   5.555 -3.0142 -4.1681 -1.4310
  962MOL0     H32739  10.278   6.140   5.534 -0.4213 -0.2097 -0.0643
  962MOL0     H32740   9.486   6.291   5.394 -0.1402 -3.2308  1.6454
  962MOL0     H32741   9.253   6.313   5.369  3.8707 -1.0533 -1.7483
  962MOL0     H32742   8.858   6.364   5.546 -2.7502 -1.4029  0.2498
  962MOL0     H32743   8.624   6.350   5.474 -2.2565  0.5407 -0.2688
  962MOL0     H32744   8.439   6.683   5.255 -0.7901 -0.6034  2.0077
  962MOL0     H32745   8.493   6.567   5.133 -1.1451 -1.2013 -0.5532
  962MOL0     H32746   8.249   6.589   5.110  0.3547 -0.0841 -0.2324
  962MOL0     H32747   8.233   6.561   5.284 -0.8294 -2.8082 -0.2989
  962MOL0     H32748   8.293   6.373   5.060  4.9123 -0.8462  1.3550
  962MOL0     H32749   8.356   6.328   5.219  2.4480 -1.9516 -3.1835
  962MOL0     H32750   8.117   6.338   5.297  0.9678 -0.6370  0.7220
  962MOL0     H32751   8.136   6.228   5.162  2.0765  0.2528  1.0865
  962MOL0     H32752   7.892   6.502   4.977  2.6551  0.2603 -0.7293
  962MOL0     H32753   8.661   6.687   5.222  0.3203  0.9877  0.9438
  962MOL0     H32754   9.004   6.741   5.206 -0.4545  2.7130 -3.0076
  962MOL0     H32755   8.848   6.815   5.199 -0.5966 -1.5045 -0.8703
  962MOL0     H32756   8.928   6.829   5.351  0.5305  0.3929 -0.9547
  963MOL0     O32757   8.712   3.508   5.942 -0.5651 -0.3726  0.3254
  963MOL0     C32758   8.656   3.403   5.954  0.0517  0.2251  0.2241
  963MOL0     O32759   8.686   3.303   6.042  0.6628 -0.0288  0.1011
  963MOL0     C32760   8.758   3.326   6.149  0.9359 -0.2488 -0.1286
  963MOL0     C32761   8.696   3.316   6.275 -0.5136  0.2244  0.6265
  963MOL0     C32762   8.768   3.359   6.388  0.6157  0.9735  1.0396
  963MOL0     C32763   8.903   3.390   6.366 -0.2442  0.5831  0.4408
  963MOL0     O32764   8.987   3.419   6.470  0.3930  0.5401  0.1672
  963MOL0     C32765   8.943   3.406   6.605  0.3465 -0.0621  0.0849
  963MOL0     C32766   9.056   3.429   6.704  0.3822 -0.6153  0.3391
  963MOL0     C32767   8.998   3.424   6.840 -0.6613  0.6450  0.2345
  963MOL0     C32768   9.114   3.443   6.948  0.4776  0.7735  0.6134
  963MOL0     C32769   9.101   3.333   7.048  0.1520 -0.2066  0.3817
  963MOL0     C32770   9.220   3.340   7.160 -0.3931  0.5229  0.3736
  963MOL0     C32771   9.195   3.263   7.291 -0.2998  0.0444 -0.0433
  963MOL0     C32772   9.307   3.298   7.386 -0.4329 -0.4398 -0.5672
  963MOL0     N32773   9.444   3.280   7.343 -0.0990 -0.0225 -0.0254
  963MOL0     C32774   9.506   3.168   7.288  0.6386 -0.0411  0.9035
  963MOL0     C32775   9.636   3.200   7.289  0.2177  0.5362 -0.3096
  963MOL0     C32776   9.751   3.104   7.248  0.4669  0.2190 -0.3972
  963MOL0     C32777   9.874   3.103   7.337 -0.5862  0.2239 -0.1977
  963MOL0     C32778   9.977   2.991   7.310  1.0782 -0.6138 -0.3271
  963MOL0     C32779  10.097   2.982   7.412 -0.6398 -0.1915 -0.0640
  963MOL0     O32780  10.173   3.107   7.427  0.8014  1.0194  0.1732
  963MOL0     C32781  10.305   3.092   7.474  0.0748 -0.0435 -0.3432
  963MOL0     C32782  10.408   3.178   7.416  0.8099 -0.4843 -0.9422
  963MOL0     C32783  10.545   3.171   7.449  1.3537 -0.2436 -0.5474
  963MOL0     C32784  10.633   3.278   7.399  0.2439  0.4622  0.7492
  963MOL0     C32785  10.581   3.077   7.544 -0.6576 -0.1956 -0.8866
  963MOL0     C32786  10.724   3.056   7.593 -0.9251 -0.1533  0.2631
  963MOL0     O32787  10.837   3.094   7.523  0.1273 -0.0358  0.5590
  963MOL0     C32788  10.964   3.081   7.567  0.3174 -0.4020  0.2128
  963MOL0     C32789  11.072   3.052   7.485  0.1869 -0.0952  0.2740
  963MOL0     C32790  11.203   3.054   7.536 -0.5100 -0.3568 -0.2420
  963MOL0     C32791  11.231   3.082   7.664  0.0131  0.0635 -0.6950
  963MOL0     O32792  11.358   3.081   7.706 -0.3913 -0.1686  0.5604
  963MOL0     C32793  11.393   3.204   7.771  0.2458  0.0242 -0.3519
  963MOL0     C32794  11.529   3.201   7.846 -0.5934  0.5815  0.3542
  963MOL0     C32795  11.520   3.095   7.950 -0.6658  0.0130  0.1651
  963MOL0     C32796  11.656   3.070   8.006  0.4216  0.9422  0.0394
  963MOL0     C32797  11.660   2.956   8.108  0.0971  0.2153 -0.5429
  963MOL0     C32798  11.791   2.956   8.184 -0.2780  0.1368  0.3724
  963MOL0     C32799  11.911   2.918   8.097 -0.0946  0.4761  0.1065
  963MOL0     C32800  12.034   2.880   8.167  0.6328 -0.1051 -0.7305
  963MOL0    Cl32801  12.116   3.023   8.255  0.0721  0.0069 -0.1938
  963MOL0     C32802  11.122   3.100   7.753 -0.1362 -0.6388 -0.2661
  963MOL0     C32803  10.994   3.108   7.705 -0.5222  0.5720 -0.3348
  963MOL0     O32804  10.726   2.996   7.703  0.3007  0.0173 -0.7985
  963MOL0     C32805  10.477   2.993   7.601 -0.0535 -0.5714  0.8091
  963MOL0     C32806  10.346   3.000   7.572 -0.3338  0.3492  0.8286
  963MOL0     N32807   9.653   3.322   7.333 -0.9212 -0.1432 -0.5211
  963MOL0     N32808   9.540   3.363   7.369 -0.6791  0.0021 -0.2050
  963MOL0     C32809   8.962   3.379   6.241  0.6812  0.0633 -0.9460
  963MOL0     C32810   8.885   3.356   6.132 -0.2172  0.4665 -0.6386
  963MOL0     C32811   8.547   3.366   5.865  0.2924 -0.1367  0.1033
  963MOL0     C32812   8.527   3.228   5.829 -0.3994  0.7044 -0.6343
  963MOL0     C32813   8.422   3.187   5.742 -0.1310 -0.2412  0.0680
  963MOL0     C32814   8.331   3.279   5.694  0.3118  0.7825 -0.1963
  963MOL0     O32815   8.223   3.232   5.625  0.0898  0.7967 -0.1228
  963MOL0     C32816   8.244   3.166   5.503 -0.3397  0.5282  0.5964
  963MOL0     C32817   8.112   3.144   5.428  0.9968 -0.7643  0.6089
  963MOL0     C32818   8.026   3.273   5.410 -0.9767 -0.1441 -0.4235
  963MOL0     C32819   7.873   3.236   5.394 -0.0496  0.0637 -0.8059
  963MOL0     C32820   7.842   3.207   5.253  0.2985 -0.2045 -0.5226
  963MOL0     C32821   7.815   3.175   5.136 -0.4142 -0.8591 -0.1894
  963MOL0     C32822   8.353   3.418   5.726  0.1253 -0.0326  0.2449
  963MOL0     C32823   8.460   3.459   5.807 -0.0621 -0.7799  0.2402
  963MOL0     C32824   8.462   3.601   5.837 -0.8828 -0.3263 -0.2596
  963MOL0     H32825   8.591   3.290   6.283 -0.8553  1.6815  1.1865
  963MOL0     H32826   8.719   3.346   6.484  0.3848 -1.8391  0.6296
  963MOL0     H32827   8.889   3.313   6.624 -0.3309 -0.2476 -2.3999
  963MOL0     H32828   8.865   3.482   6.618  1.1802  0.6749  0.9842
  963MOL0     H32829   9.122   3.342   6.700  1.5201  0.1971  0.7967
  963MOL0     H32830   9.114   3.521   6.689 -0.5858  0.4675  2.7012
  963MOL0     H32831   8.928   3.507   6.845 -2.2760 -0.4880 -1.9162
  963MOL0     H32832   8.948   3.329   6.860 -0.4574  0.5720  0.4032
  963MOL0     H32833   9.212   3.439   6.901  0.0294 -0.3279 -0.2920
  963MOL0     H32834   9.098   3.544   6.985 -3.2572  1.5226 -2.3722
  963MOL0     H32835   9.105   3.236   6.998  1.2649 -0.5009  0.9964
  963MOL0     H32836   9.002   3.332   7.094 -0.3332 -1.7901 -0.6118
  963MOL0     H32837   9.311   3.297   7.117 -1.4651 -0.2457 -1.2166
  963MOL0     H32838   9.250   3.445   7.167  0.4016  0.3637 -0.4388
  963MOL0     H32839   9.195   3.157   7.267  1.2805  0.5583 -2.7084
  963MOL0     H32840   9.097   3.284   7.335  1.2616  0.7043  3.4416
  963MOL0     H32841   9.301   3.403   7.417  3.2882 -0.3045  0.1319
  963MOL0     H32842   9.286   3.238   7.475 -2.3374 -0.9486 -1.3150
  963MOL0     H32843   9.468   3.070   7.261  2.1610 -0.0329 -1.6736
  963MOL0     H32844   9.783   3.124   7.146  0.5054 -0.9857 -0.6418
  963MOL0     H32845   9.715   3.000   7.247 -0.4558  0.4809  1.5379
  963MOL0     H32846   9.920   3.201   7.330 -0.6086  0.1951 -0.8739
  963MOL0     H32847   9.848   3.088   7.442  2.5741 -2.2138  0.3834
  963MOL0     H32848   9.915   2.901   7.297 -0.3084  0.4002 -0.9414
  963MOL0     H32849  10.022   3.003   7.212  2.2407  0.3520  0.2988
  963MOL0     H32850  10.051   2.955   7.507 -1.8298  5.2621  1.2828
  963MOL0     H32851  10.155   2.897   7.374  0.0375  0.6614 -0.9998
  963MOL0     H32852  10.383   3.251   7.339  0.8936  0.7350  0.1519
  963MOL0     H32853  10.584   3.356   7.340 -0.2565 -0.5143 -0.1610
  963MOL0     H32854  10.719   3.244   7.341  0.7121  2.3225  0.2878
  963MOL0     H32855  10.672   3.333   7.485 -0.7898  2.3735  0.0712
  963MOL0     H32856  11.046   3.032   7.382 -3.3314 -0.5898  1.1202
  963MOL0     H32857  11.277   3.028   7.462 -0.4578 -2.2482  0.4294
  963MOL0     H32858  11.396   3.283   7.694 -3.0980  0.6599 -0.0111
  963MOL0     H32859  11.322   3.233   7.849  1.2456 -2.4663  1.6294
  963MOL0     H32860  11.605   3.164   7.778  0.1120  1.1578  0.8153
  963MOL0     H32861  11.549   3.300   7.887 -2.1474  0.6748  0.9662
  963MOL0     H32862  11.465   3.009   7.910 -3.0145  2.2804 -1.8644
  963MOL0     H32863  11.466   3.132   8.037  1.0126  1.8307  0.5114
  963MOL0     H32864  11.703   3.153   8.059  1.0856 -0.7792  2.2816
  963MOL0     H32865  11.718   3.057   7.916 -0.3798 -0.6220 -0.3133
  963MOL0     H32866  11.585   2.969   8.187 -1.1108 -2.6728 -1.0859
  963MOL0     H32867  11.633   2.860   8.065  1.2395  0.1788 -1.2175
  963MOL0     H32868  11.782   2.882   8.264 -2.3855 -1.7405 -1.4586
  963MOL0     H32869  11.812   3.050   8.236 -1.0709 -0.2605  1.4492
  963MOL0     H32870  11.932   3.006   8.034  0.1138  0.7399  0.5382
  963MOL0     H32871  11.883   2.836   8.031  1.0111 -0.0197  0.2232
  963MOL0     H32872  12.105   2.830   8.101  0.7042  0.4814 -1.1062
  963MOL0     H32873  12.004   2.798   8.233  0.7168 -0.8066 -1.5537
  963MOL0     H32874  11.137   3.126   7.858  2.5956 -2.2755 -0.1610
  963MOL0     H32875  10.919   3.133   7.779 -1.5189 -2.8610  0.0311
  963MOL0     H32876  10.495   2.916   7.676 -1.0406  1.0897  2.8627
  963MOL0     H32877  10.280   2.922   7.608  0.9936 -1.4420 -0.4523
  963MOL0     H32878   9.064   3.413   6.227 -0.0240  2.1159 -1.4341
  963MOL0     H32879   8.916   3.351   6.029 -1.2259  3.9116 -1.2447
  963MOL0     H32880   8.589   3.150   5.872  1.0752  0.9990 -2.1434
  963MOL0     H32881   8.407   3.080   5.734  1.7402 -0.6691  1.4790
  963MOL0     H32882   8.313   3.228   5.445  0.4217  1.5401  2.4978
  963MOL0     H32883   8.301   3.073   5.515 -0.5258  0.0355 -1.7322
  963MOL0     H32884   8.049   3.076   5.486 -1.2103 -0.9780 -1.8274
  963MOL0     H32885   8.133   3.103   5.328  3.1288  0.0437  0.6786
  963MOL0     H32886   8.034   3.336   5.499  2.6377 -0.7664 -0.1565
  963MOL0     H32887   8.062   3.330   5.325  1.4396 -0.3029  0.4252
  963MOL0     H32888   7.820   3.324   5.431  2.2769  0.6174  1.4854
  963MOL0     H32889   7.829   3.160   5.460  1.2410  1.8665  2.3385
  963MOL0     H32890   7.807   3.155   5.031  2.1119  0.6017 -0.7228
  963MOL0     H32891   8.277   3.489   5.696 -1.1455 -0.7226  1.7056
  963MOL0     H32892   8.383   3.626   5.909 -0.3461 -0.6835  0.4550
  963MOL0     H32893   8.551   3.638   5.889 -1.2599 -2.6998  2.3166
  963MOL0     H32894   8.436   3.663   5.751 -0.8663  0.8869  0.5793
  964MOL0     O32895  11.302   0.211   9.119 -0.5148 -0.3706  0.4867
  964MOL0     C32896  11.220   0.154   9.195 -0.0116 -0.3239  0.0679
  964MOL0     O32897  11.230   0.155   9.325  0.5827  0.4638 -0.0221
  964MOL0     C32898  11.348   0.193   9.378  0.1435 -0.2369 -0.0823
  964MOL0     C32899  11.459   0.105   9.383  0.5243 -0.3123 -0.4244
  964MOL0     C32900  11.579   0.158   9.427 -0.9821  0.0730  0.2969
  964MOL0     C32901  11.599   0.285   9.472  0.2095 -1.2602  0.3509
  964MOL0     O32902  11.708   0.346   9.517 -0.3045 -0.1539  0.3186
  964MOL0     C32903  11.825   0.279   9.482 -0.9405  0.2476 -0.3446
  964MOL0     C32904  11.943   0.367   9.511 -1.0192  0.1305 -1.0085
  964MOL0     C32905  11.953   0.505   9.446 -0.0207  0.3382  0.7101
  964MOL0     C32906  12.024   0.490   9.310  0.5754 -0.7303  0.5511
  964MOL0     C32907  12.053   0.621   9.237  0.7154  0.4853  0.7683
  964MOL0     C32908  12.133   0.600   9.102 -0.4777 -0.3092  0.2564
  964MOL0     C32909  12.054   0.562   8.978 -0.3367  0.0327 -0.1553
  964MOL0     C32910  12.130   0.528   8.851 -0.7551  0.2331 -0.6986
  964MOL0     N32911  12.242   0.427   8.874 -0.1824  0.0603  0.0417
  964MOL0     C32912  12.236   0.291   8.872 -0.6577 -0.0554 -0.6990
  964MOL0     C32913  12.371   0.249   8.884 -0.3360 -0.0063  0.0226
  964MOL0     C32914  12.421   0.104   8.888  0.1352 -0.0208 -1.3931
  964MOL0     C32915  12.568   0.100   8.856  0.3149 -0.3045  0.3510
  964MOL0     C32916  12.626  -0.042   8.840  0.4112 -0.2470 -0.1370
  964MOL0     C32917  12.774  -0.042   8.823 -0.1324 -0.8871 -0.2705
  964MOL0     O32918  12.808  -0.044   8.681  0.4873 -0.3905  0.4507
  964MOL0     C32919  12.950  -0.046   8.654  0.2266 -0.7965  0.0182
  964MOL0     C32920  12.983  -0.057   8.522 -0.1385 -0.7530  0.8424
  964MOL0     C32921  13.118  -0.064   8.482  0.0463  0.8559  0.5347
  964MOL0     C32922  13.149  -0.063   8.340  0.4036 -0.3909  0.3714
  964MOL0     C32923  13.221  -0.065   8.587 -0.0439  0.2048  0.8172
  964MOL0     C32924  13.360  -0.099   8.562 -0.4170 -0.6194  0.0081
  964MOL0     O32925  13.454  -0.011   8.618 -0.1211 -0.1118 -0.0177
  964MOL0     C32926  13.589  -0.032   8.614  0.2436  0.0527 -0.6742
  964MOL0     C32927  13.666   0.084   8.624  1.2283 -0.7569 -0.2639
  964MOL0     C32928  13.798   0.090   8.612  0.3164 -0.4504  1.2194
  964MOL0     C32929  13.867  -0.022   8.582  0.9271 -0.1894  0.3200
  964MOL0     O32930  14.005  -0.036   8.565 -0.4167  0.1734 -0.5829
  964MOL0     C32931  14.078   0.084   8.579  0.3277  0.5895 -0.7609
  964MOL0     C32932  14.223   0.046   8.616 -0.4743  0.4452  0.5236
  964MOL0     C32933  14.288  -0.039   8.509  0.1486 -0.0412 -0.1865
  964MOL0     C32934  14.443  -0.017   8.514  0.3484  0.0436 -0.0870
  964MOL0     C32935  14.493  -0.114   8.402  0.4557  0.1088 -0.0618
  964MOL0     C32936  14.645  -0.103   8.383  0.0266  0.4003  0.2787
  964MOL0     C32937  14.732  -0.138   8.513 -0.0656 -0.4366  0.5141
  964MOL0     C32938  14.887  -0.142   8.483 -0.0608  0.1409  0.5916
  964MOL0    Cl32939  14.953   0.021   8.465  0.0931 -0.2605 -0.6104
  964MOL0     C32940  13.796  -0.142   8.577 -0.1763 -0.5231  0.0668
  964MOL0     C32941  13.658  -0.146   8.593  0.1428  0.6165  0.0610
  964MOL0     O32942  13.388  -0.194   8.491 -0.2098  0.2275 -0.4405
  964MOL0     C32943  13.186  -0.056   8.719  0.5940 -1.0708  0.0680
  964MOL0     C32944  13.053  -0.042   8.747  0.3775 -0.1327 -0.4350
  964MOL0     N32945  12.450   0.361   8.883 -0.4424 -0.3830  0.1066
  964MOL0     N32946  12.372   0.467   8.880 -0.1269  0.1804 -0.6223
  964MOL0     C32947  11.486   0.370   9.474  0.9661 -0.6740 -0.1903
  964MOL0     C32948  11.361   0.327   9.414  0.3766 -0.7000 -0.2078
  964MOL0     C32949  11.096   0.103   9.145 -0.0861 -0.9508 -0.5472
  964MOL0     C32950  10.977   0.129   9.217  0.5825  0.0730  0.1152
  964MOL0     C32951  10.857   0.090   9.160  0.8923  0.7450  0.2297
  964MOL0     C32952  10.850   0.019   9.032 -0.3672 -0.4834  0.2549
  964MOL0     O32953  10.734  -0.026   8.965 -0.7854 -0.7831 -0.2351
  964MOL0     C32954  10.616  -0.024   9.045 -0.4787  0.1460 -0.3548
  964MOL0     C32955  10.539   0.115   9.027  0.1076 -1.0116  0.4981
  964MOL0     C32956  10.384   0.114   8.993 -0.0245  0.5236 -0.0869
  964MOL0     C32957  10.326   0.252   8.969  0.6491 -0.3998  0.7679
  964MOL0     C32958  10.182   0.247   9.008  0.8276  0.6432  0.2869
  964MOL0     C32959  10.066   0.244   9.034 -0.1112 -0.0718 -0.3937
  964MOL0     C32960  10.969  -0.011   8.970 -0.1046 -0.1963  0.4198
  964MOL0     C32961  11.090   0.033   9.018  1.1577 -0.4666 -0.8857
  964MOL0     C32962  11.226  -0.005   8.960 -0.1038  0.0688  0.2087
  964MOL0     H32963  11.452   0.007   9.337  0.8600 -0.6229  0.1671
  964MOL0     H32964  11.669   0.098   9.435 -0.6645  0.7095  2.0627
  964MOL0     H32965  11.824   0.264   9.373 -0.5149  0.6817 -0.4098
  964MOL0     H32966  11.831   0.184   9.534 -1.4537  0.0834 -0.5744
  964MOL0     H32967  11.936   0.396   9.616 -1.1891  0.1233 -1.0184
  964MOL0     H32968  12.031   0.303   9.493 -0.4595  1.5004 -3.8099
  964MOL0     H32969  11.852   0.546   9.435 -0.4224 -0.6619  0.5023
  964MOL0     H32970  12.007   0.573   9.512 -0.6125 -0.8823  2.5302
  964MOL0     H32971  12.123   0.445   9.313  0.3354 -1.4438 -1.1141
  964MOL0     H32972  11.962   0.429   9.244 -0.0090  0.6991 -0.2790
  964MOL0     H32973  12.115   0.683   9.303  0.6674 -0.2724  1.5460
  964MOL0     H32974  11.958   0.672   9.219  0.4967 -0.6510 -1.6525
  964MOL0     H32975  12.188   0.688   9.067 -2.3079  0.5128 -0.7420
  964MOL0     H32976  12.210   0.525   9.123  0.8559  1.2452  1.1616
  964MOL0     H32977  11.980   0.641   8.960 -1.0974 -0.8027 -0.8266
  964MOL0     H32978  12.000   0.470   9.003 -0.7400 -0.3068 -2.0728
  964MOL0     H32979  12.055   0.489   8.782  1.1657  2.4123 -4.3174
  964MOL0     H32980  12.179   0.614   8.805  2.7254 -0.7876  0.7373
  964MOL0     H32981  12.145   0.233   8.865 -0.4934 -0.4788  0.4256
  964MOL0     H32982  12.361   0.040   8.822 -1.9716  1.2239 -0.7886
  964MOL0     H32983  12.397   0.085   8.993 -0.7219  3.0728 -0.9249
  964MOL0     H32984  12.582   0.155   8.763  0.0467  0.6670  0.8669
  964MOL0     H32985  12.621   0.158   8.933 -2.0480  1.2148  0.9243
  964MOL0     H32986  12.606  -0.106   8.926 -2.3751  0.0823 -0.4550
  964MOL0     H32987  12.587  -0.094   8.751  2.2241  1.5094 -2.0535
  964MOL0     H32988  12.816   0.051   8.863  1.4331 -0.9726 -1.6153
  964MOL0     H32989  12.813  -0.126   8.880  0.4604  0.3167  1.1870
  964MOL0     H32990  12.913  -0.035   8.443  1.3568 -0.1023 -0.3591
  964MOL0     H32991  13.255  -0.042   8.323  0.4574  1.6482  2.6296
  964MOL0     H32992  13.084   0.012   8.293  1.5814 -0.0318 -0.7553
  964MOL0     H32993  13.120  -0.162   8.305  0.7019 -0.1957 -0.4598
  964MOL0     H32994  13.616   0.178   8.644 -2.7607 -2.6462 -0.3299
  964MOL0     H32995  13.834   0.193   8.616 -1.4186  0.2070  0.6330
  964MOL0     H32996  14.068   0.150   8.493 -2.6964 -2.0458 -2.6863
  964MOL0     H32997  14.035   0.148   8.656 -0.3515  0.5375 -1.0842
  964MOL0     H32998  14.261   0.148   8.623  2.2670 -0.1698 -3.0013
  964MOL0     H32999  14.238  -0.014   8.707 -2.6057 -0.7482  0.1592
  964MOL0     H33000  14.254   0.001   8.413 -0.5388  2.8166  1.1564
  964MOL0     H33001  14.262  -0.145   8.504  0.2490 -0.0200 -1.5522
  964MOL0     H33002  14.482  -0.036   8.615  1.6530 -0.0700 -0.5853
  964MOL0     H33003  14.463   0.087   8.486  2.1087 -0.0818  0.5181
  964MOL0     H33004  14.465  -0.217   8.428  0.4649 -0.3506 -1.7711
  964MOL0     H33005  14.446  -0.097   8.305  1.4293 -1.4705 -0.8520
  964MOL0     H33006  14.675  -0.005   8.347  0.7225  0.9283  2.1844
  964MOL0     H33007  14.674  -0.176   8.307 -0.4381  1.3647 -0.8486
  964MOL0     H33008  14.706  -0.239   8.546 -1.7340  1.1523  4.7248
  964MOL0     H33009  14.710  -0.073   8.599 -1.9138 -0.4773  0.1189
  964MOL0     H33010  14.916  -0.191   8.389  0.4997 -1.1875  1.4275
  964MOL0     H33011  14.929  -0.184   8.575 -0.9292  0.5637  1.1906
  964MOL0     H33012  13.857  -0.231   8.558  1.5656  1.2210 -3.6020
  964MOL0     H33013  13.606  -0.241   8.588 -0.9237  1.0639  1.9199
  964MOL0     H33014  13.255  -0.069   8.802 -1.4339  0.5556  2.1570
  964MOL0     H33015  13.018  -0.029   8.849  0.9817 -1.3306 -0.0588
  964MOL0     H33016  11.500   0.474   9.504  0.8825  0.1487 -2.8137
  964MOL0     H33017  11.273   0.390   9.410  1.4747  0.8987 -0.0790
  964MOL0     H33018  10.975   0.177   9.315  1.2563 -1.8069  1.1039
  964MOL0     H33019  10.766   0.113   9.214  2.0204 -0.5542  2.8949
  964MOL0     H33020  10.553  -0.108   9.014 -0.3538  0.3592 -1.2251
  964MOL0     H33021  10.636  -0.048   9.149 -1.9390 -1.3473 -0.3769
  964MOL0     H33022  10.585   0.159   8.938 -0.2680 -1.1144  0.2502
  964MOL0     H33023  10.554   0.184   9.110  0.3662  0.6299 -0.8708
  964MOL0     H33024  10.371   0.064   8.897  2.4364 -0.4684  0.0248
  964MOL0     H33025  10.324   0.065   9.070 -0.4027  2.8914  1.2330
  964MOL0     H33026  10.329   0.284   8.864  0.0287  3.0849  1.6905
  964MOL0     H33027  10.387   0.325   9.023  2.9940  0.0608 -2.2023
  964MOL0     H33028   9.970   0.257   9.081 -0.2556  2.4392 -1.2042
  964MOL0     H33029  10.970  -0.032   8.864  2.3689  3.2732 -0.4331
  964MOL0     H33030  11.289   0.075   8.921 -0.6343  0.5017  0.2227
  964MOL0     H33031  11.279  -0.071   9.029  1.6437 -0.2425 -1.3703
  964MOL0     H33032  11.202  -0.081   8.884  2.3778 -3.2018  2.3870
  965MOL0     O33033   6.222   2.305   7.824 -0.7447 -0.4202 -0.4522
  965MOL0     C33034   6.170   2.338   7.717 -0.7591  1.2965 -0.7243
  965MOL0     O33035   6.238   2.410   7.616  0.7167  0.1456  0.3015
  965MOL0     C33036   6.360   2.470   7.649  0.1345  0.0916 -0.1727
  965MOL0     C33037   6.383   2.541   7.768  0.2472  0.2488 -0.1937
  965MOL0     C33038   6.504   2.617   7.782  0.8615 -0.0264 -0.4861
  965MOL0     C33039   6.609   2.598   7.691 -0.2317  0.1876 -0.0144
  965MOL0     O33040   6.726   2.669   7.694  0.3679  0.0953  0.2898
  965MOL0     C33041   6.762   2.746   7.803  0.8746 -0.1695 -0.7811
  965MOL0     C33042   6.894   2.821   7.786  0.8057  0.0520  0.1737
  965MOL0     C33043   7.008   2.713   7.785 -0.9624  0.5415  0.3850
  965MOL0     C33044   7.135   2.774   7.809 -0.3347  0.4765 -0.0584
  965MOL0     C33045   7.244   2.667   7.832 -0.0770 -0.2235  0.3421
  965MOL0     C33046   7.382   2.703   7.886  0.1828  0.2862  0.1437
  965MOL0     C33047   7.461   2.575   7.935  0.4570 -0.3445  0.1085
  965MOL0     C33048   7.549   2.516   7.823  0.0712 -0.4149  0.2229
  965MOL0     N33049   7.612   2.387   7.849  0.8189  0.0719  0.1274
  965MOL0     C33050   7.738   2.357   7.900  0.5970 -0.2739 -0.0616
  965MOL0     C33051   7.739   2.222   7.910  1.0629 -0.3622 -0.4678
  965MOL0     C33052   7.847   2.132   7.955  1.1229  0.0135 -0.6193
  965MOL0     C33053   7.870   2.155   8.109 -0.4701 -0.0557 -0.0132
  965MOL0     C33054   7.976   2.053   8.164  0.3047 -0.8134  0.8212
  965MOL0     C33055   8.113   2.114   8.141 -0.5067  0.8436 -0.1519
  965MOL0     O33056   8.201   2.008   8.142 -0.5265  0.4184  0.6199
  965MOL0     C33057   8.328   2.026   8.089 -0.1455  1.3503  0.6686
  965MOL0     C33058   8.391   1.918   8.035  0.0680  0.2362 -0.4468
  965MOL0     C33059   8.523   1.924   7.985  0.0035  0.7525 -1.1551
  965MOL0     C33060   8.579   1.798   7.928 -0.3249  0.3584  0.4055
  965MOL0     C33061   8.588   2.054   7.993 -0.4170  0.0216 -0.6578
  965MOL0     C33062   8.723   2.087   7.937 -0.1143 -0.1583 -0.2272
  965MOL0     O33063   8.766   2.214   7.935  0.9208 -0.1018 -0.2312
  965MOL0     C33064   8.870   2.244   7.854 -1.0033  1.0776  1.0894
  965MOL0     C33065   9.004   2.188   7.880 -0.0603  0.6738  0.5389
  965MOL0     C33066   9.112   2.229   7.798 -0.4242  0.3435  0.0510
  965MOL0     C33067   9.083   2.313   7.678  0.1640 -0.2333  0.0704
  965MOL0     O33068   9.189   2.351   7.596  0.5590  0.0533 -0.9489
  965MOL0     C33069   9.242   2.478   7.639 -0.1290  0.1927  0.4848
  965MOL0     C33070   9.378   2.496   7.568 -0.5557  1.1220 -0.4528
  965MOL0     C33071   9.499   2.499   7.656  0.0842 -0.0265 -0.1674
  965MOL0     C33072   9.632   2.518   7.580  0.1919  0.8086 -1.1001
  965MOL0     C33073   9.739   2.539   7.693  0.2454  0.3638 -0.6842
  965MOL0     C33074   9.869   2.539   7.619  0.3003 -0.0192 -0.1592
  965MOL0     C33075   9.981   2.595   7.701  0.1232 -0.3230  0.8012
  965MOL0     C33076  10.053   2.487   7.786  0.3082 -1.0158  0.2756
  965MOL0    Cl33077  10.204   2.552   7.857  0.0012  0.1582 -0.1147
  965MOL0     C33078   8.957   2.370   7.665  0.0565 -0.3540 -0.3261
  965MOL0     C33079   8.852   2.330   7.750  0.7887  0.2328 -1.1488
  965MOL0     O33080   8.795   1.989   7.913 -0.8857  0.5693 -0.0414
  965MOL0     C33081   8.516   2.164   8.050 -0.2640 -0.5233  0.6418
  965MOL0     C33082   8.394   2.147   8.106  0.3546  0.4588 -0.6455
  965MOL0     N33083   7.619   2.182   7.868 -0.3116 -0.6305 -0.4996
  965MOL0     N33084   7.546   2.272   7.824  0.1545  0.6259  0.0277
  965MOL0     C33085   6.593   2.502   7.581  0.7963  0.2049  0.0044
  965MOL0     C33086   6.462   2.445   7.560  0.2941 -0.5605  0.4150
  965MOL0     C33087   6.037   2.276   7.683 -0.6811  0.1555  0.8539
  965MOL0     C33088   6.015   2.258   7.546  0.1623  0.4172 -0.0992
  965MOL0     C33089   5.901   2.182   7.512 -0.0432  1.2073  0.8151
  965MOL0     C33090   5.794   2.147   7.599  0.3620 -0.2373  0.3165
  965MOL0     O33091   5.678   2.078   7.554 -0.2732 -0.1547  0.7454
  965MOL0     C33092   5.566   2.158   7.593 -0.4650 -0.5598 -0.3087
  965MOL0     C33093   5.442   2.075   7.582 -0.2908 -0.3843 -1.1368
  965MOL0     C33094   5.445   1.982   7.709  0.5237 -0.0798  0.2385
  965MOL0     C33095   5.351   1.863   7.689  0.5170  0.2977  0.1594
  965MOL0     C33096   5.358   1.774   7.804  0.5832  0.1435  0.5588
  965MOL0     C33097   5.359   1.719   7.908  0.6984 -1.0414  0.4101
  965MOL0     C33098   5.822   2.164   7.735  0.2386  0.4636  0.1442
  965MOL0     C33099   5.940   2.227   7.780 -0.5212 -0.4143  0.2018
  965MOL0     C33100   5.945   2.264   7.927  0.0647  0.0846  0.4822
  965MOL0     H33101   6.295   2.560   7.829  1.5300 -0.5240  1.9691
  965MOL0     H33102   6.511   2.692   7.860  1.8531 -0.4100 -0.1949
  965MOL0     H33103   6.772   2.681   7.891  1.8572 -1.7425 -2.0005
  965MOL0     H33104   6.679   2.815   7.819  0.0462 -1.4830  0.8851
  965MOL0     H33105   6.890   2.883   7.696 -1.9434  0.3122  0.3973
  965MOL0     H33106   6.909   2.882   7.875  1.4034 -2.4436  1.8747
  965MOL0     H33107   6.986   2.644   7.867  2.1184 -0.0543  0.8599
  965MOL0     H33108   7.013   2.644   7.701 -0.8049  1.1744 -0.1326
  965MOL0     H33109   7.159   2.846   7.731 -0.1246  0.7947  0.2952
  965MOL0     H33110   7.121   2.840   7.895  1.1872  0.0176  0.5891
  965MOL0     H33111   7.257   2.617   7.735 -0.4276  0.0547  0.1489
  965MOL0     H33112   7.206   2.589   7.898 -0.6393 -1.4772 -1.3663
  965MOL0     H33113   7.449   2.748   7.812 -1.8126 -0.0762 -2.0326
  965MOL0     H33114   7.370   2.768   7.972  0.9015  0.5009  0.0887
  965MOL0     H33115   7.397   2.502   7.985 -0.0197  1.0073  1.5366
  965MOL0     H33116   7.527   2.604   8.017  2.2484 -1.3540 -0.9021
  965MOL0     H33117   7.485   2.505   7.735 -2.8087  2.9890  1.6320
  965MOL0     H33118   7.623   2.595   7.808 -1.1538  0.6363 -0.5045
  965MOL0     H33119   7.816   2.427   7.929 -0.0348 -0.4836  2.4227
  965MOL0     H33120   7.939   2.156   7.901  3.2484  0.2614  2.8442
  965MOL0     H33121   7.806   2.035   7.927 -1.0347 -0.5125  3.5791
  965MOL0     H33122   7.893   2.259   8.136 -1.9014  0.3254 -0.1548
  965MOL0     H33123   7.782   2.138   8.171  0.5336 -1.4853  1.0758
  965MOL0     H33124   7.962   2.024   8.269  0.4373 -2.5613  0.3712
  965MOL0     H33125   7.960   1.960   8.110  0.0305 -0.2720 -0.0478
  965MOL0     H33126   8.118   2.167   8.045  1.0140  0.6622 -0.2044
  965MOL0     H33127   8.134   2.185   8.221  0.2135 -0.6032  0.9986
  965MOL0     H33128   8.336   1.825   8.037 -1.4340  1.0857  1.8992
  965MOL0     H33129   8.665   1.761   7.983 -0.5098 -1.9193 -0.7226
  965MOL0     H33130   8.618   1.811   7.826 -0.6936 -0.5422  0.1406
  965MOL0     H33131   8.512   1.712   7.928  2.1435 -1.6768  0.6074
  965MOL0     H33132   9.021   2.113   7.957 -0.9014  1.1129  1.1678
  965MOL0     H33133   9.214   2.197   7.814 -1.1658 -0.9066  3.0873
  965MOL0     H33134   9.167   2.549   7.605 -1.0366 -0.7510  0.4510
  965MOL0     H33135   9.247   2.466   7.748 -0.0788  0.2764  0.4921
  965MOL0     H33136   9.405   2.410   7.506 -1.9942 -0.8408  1.4825
  965MOL0     H33137   9.384   2.586   7.506 -1.0780  0.3855 -1.5949
  965MOL0     H33138   9.505   2.403   7.709 -2.9256 -0.4007 -0.3227
  965MOL0     H33139   9.480   2.579   7.728 -1.2541 -1.6425  1.3800
  965MOL0     H33140   9.616   2.611   7.525  0.0237  0.6508 -1.3204
  965MOL0     H33141   9.655   2.431   7.517 -0.0141 -0.2379  0.2219
  965MOL0     H33142   9.715   2.633   7.743  0.4552  1.9867 -3.4212
  965MOL0     H33143   9.734   2.451   7.758 -2.6380 -0.3796 -1.7800
  965MOL0     H33144   9.858   2.589   7.522  1.4582  2.1311  0.7435
  965MOL0     H33145   9.885   2.432   7.607 -1.6829 -0.2791 -0.8485
  965MOL0     H33146   9.939   2.664   7.774  4.8521  2.8907  0.9051
  965MOL0     H33147  10.050   2.665   7.653 -0.1279 -1.1143 -0.7958
  965MOL0     H33148  10.055   2.397   7.723 -1.2924 -0.7039 -0.2865
  965MOL0     H33149   9.995   2.457   7.873  1.7648 -0.4173  1.4904
  965MOL0     H33150   8.952   2.432   7.576 -0.3518 -1.7520 -1.3111
  965MOL0     H33151   8.749   2.365   7.745  0.3092 -0.8957  0.1903
  965MOL0     H33152   8.552   2.266   8.044 -0.7493 -0.2524  1.9141
  965MOL0     H33153   8.348   2.228   8.161 -0.0252 -1.4885  2.1158
  965MOL0     H33154   6.670   2.490   7.505 -0.9005  0.1700 -1.8164
  965MOL0     H33155   6.433   2.399   7.466 -2.4641  2.5876 -0.4510
  965MOL0     H33156   6.096   2.262   7.474  0.6466 -2.0492  0.2182
  965MOL0     H33157   5.878   2.165   7.407 -0.4596  3.1576  0.5469
  965MOL0     H33158   5.577   2.205   7.692  0.6251 -0.2438 -0.5653
  965MOL0     H33159   5.557   2.248   7.533 -0.9001  1.1291  2.1491
  965MOL0     H33160   5.453   2.013   7.493  0.8632  1.0574 -2.0395
  965MOL0     H33161   5.353   2.138   7.575 -1.0923 -0.9227  2.2521
  965MOL0     H33162   5.542   1.938   7.736 -0.6492 -3.2636 -0.4189
  965MOL0     H33163   5.417   2.033   7.802  0.3940 -0.9931  0.7144
  965MOL0     H33164   5.375   1.795   7.607 -2.4642 -2.0136  1.0340
  965MOL0     H33165   5.247   1.894   7.679  0.1633 -1.2546 -1.2904
  965MOL0     H33166   5.351   1.670   8.003 -1.1023  1.9733  1.9646
  965MOL0     H33167   5.759   2.121   7.812  1.5384 -3.8186 -0.9013
  965MOL0     H33168   5.987   2.183   7.987  1.0327  0.0519 -0.2167
  965MOL0     H33169   6.007   2.354   7.931  3.8702 -2.1215 -2.7388
  965MOL0     H33170   5.845   2.291   7.963  0.5537  2.1437  0.4445
  966MOL0     O33171   8.997  10.298   6.414  0.1119 -0.4029 -0.2920
  966MOL0     C33172   8.956  10.208   6.480 -0.1169  0.7614 -0.4416
  966MOL0     O33173   9.031  10.124   6.550  0.4370  0.6854 -0.1652
  966MOL0     C33174   9.159  10.145   6.596  0.2420 -0.7533 -0.6700
  966MOL0     C33175   9.213  10.046   6.679 -0.4569 -0.1919 -0.0320
  966MOL0     C33176   9.345  10.055   6.727 -0.5632  0.4220  0.4564
  966MOL0     C33177   9.425  10.166   6.698 -0.5766 -0.4241  0.3097
  966MOL0     O33178   9.547  10.181   6.766 -0.5388 -0.3972 -0.1658
  966MOL0     C33179   9.651  10.261   6.707  0.1156 -0.1068  1.0871
  966MOL0     C33180   9.780  10.228   6.789 -0.6515 -0.3471 -0.0899
  966MOL0     C33181   9.831  10.082   6.788 -0.0251 -0.6282 -0.3344
  966MOL0     C33182   9.865  10.035   6.646  1.0056 -0.2280 -0.0997
  966MOL0     C33183   9.829   9.887   6.612 -0.2585 -0.4988 -0.1350
  966MOL0     C33184   9.903   9.787   6.700 -0.6054 -0.2480 -0.2698
  966MOL0     C33185   9.865   9.647   6.657  0.1262 -0.1723 -0.1773
  966MOL0     C33186   9.952   9.548   6.723 -0.5459 -0.0844 -0.2945
  966MOL0     N33187   9.946   9.419   6.664 -0.3480  0.6101  0.0551
  966MOL0     C33188  10.000   9.377   6.547 -0.9383  0.1189 -0.7657
  966MOL0     C33189   9.997   9.243   6.556  0.3773  0.7632  0.0087
  966MOL0     C33190  10.045   9.129   6.463 -0.0518 -0.1877 -0.0991
  966MOL0     C33191   9.954   9.139   6.329 -0.1054 -0.6855 -0.0040
  966MOL0     C33192  10.021   9.068   6.210 -0.5855 -0.2121 -0.3076
  966MOL0     C33193  10.015   8.919   6.235 -0.1722  0.0980 -1.1627
  966MOL0     O33194  10.079   8.842   6.131 -0.8881 -0.1530  0.5676
  966MOL0     C33195  10.221   8.828   6.122  0.0177 -0.3215  0.4415
  966MOL0     C33196  10.271   8.780   6.001  0.3396 -0.0008 -0.0178
  966MOL0     C33197  10.403   8.739   5.987  0.6066 -0.1795 -0.1716
  966MOL0     C33198  10.428   8.686   5.845  0.7467 -0.8628 -1.0085
  966MOL0     C33199  10.498   8.761   6.097 -0.0040  0.6609 -0.5681
  966MOL0     C33200  10.639   8.737   6.084 -0.5048 -1.1024  0.2662
  966MOL0     O33201  10.709   8.719   6.199  0.4648 -0.6958 -0.2374
  966MOL0     C33202  10.845   8.701   6.190  0.0330 -0.3863  0.3693
  966MOL0     C33203  10.915   8.746   6.299  0.3907 -0.3576 -0.5202
  966MOL0     C33204  11.051   8.728   6.324  0.1155 -0.2613  0.6122
  966MOL0     C33205  11.122   8.663   6.225 -0.3940  0.5299  0.3451
  966MOL0     O33206  11.250   8.641   6.262  0.2264 -0.3811 -0.3044
  966MOL0     C33207  11.344   8.601   6.161 -1.1966 -0.1424 -0.4713
  966MOL0     C33208  11.479   8.590   6.241 -0.1571 -0.5071 -0.2918
  966MOL0     C33209  11.603   8.618   6.150 -0.6198  0.2364 -0.8687
  966MOL0     C33210  11.745   8.627   6.220  0.5867 -0.0360  0.0706
  966MOL0     C33211  11.746   8.692   6.359  0.3541 -0.2395 -0.4107
  966MOL0     C33212  11.880   8.735   6.412 -1.1861  0.4696  0.1329
  966MOL0     C33213  11.931   8.849   6.329 -0.7784  0.0732  0.5272
  966MOL0     C33214  12.050   8.908   6.410  0.1363  0.0077  0.9758
  966MOL0    Cl33215  12.181   8.786   6.457 -0.0143  0.3323  0.2291
  966MOL0     C33216  11.058   8.614   6.108  0.2805  0.3458  0.1463
  966MOL0     C33217  10.922   8.625   6.095  0.1805  0.0800  0.0657
  966MOL0     O33218  10.689   8.749   5.973 -0.0263 -0.9627  0.9776
  966MOL0     C33219  10.443   8.810   6.219 -0.6277  0.0829  0.6411
  966MOL0     C33220  10.307   8.852   6.229 -0.8839  0.5785  0.0985
  966MOL0     N33221   9.931   9.199   6.667 -0.4157  0.1815  0.3594
  966MOL0     N33222   9.900   9.306   6.730 -0.5007  0.7766  0.5051
  966MOL0     C33223   9.376  10.266   6.614  0.3410 -0.7112  0.5600
  966MOL0     C33224   9.248  10.257   6.563  1.4862 -0.1203  0.0448
  966MOL0     C33225   8.807  10.181   6.476 -0.1155  0.7609 -0.4075
  966MOL0     C33226   8.761  10.046   6.494  0.1390  0.3921  0.0682
  966MOL0     C33227   8.621  10.023   6.492  0.3208 -0.3966 -0.3160
  966MOL0     C33228   8.529  10.125   6.483  0.2904 -0.1383 -0.1363
  966MOL0     O33229   8.400  10.087   6.492  0.0946  0.3414  0.1762
  966MOL0     C33230   8.295  10.186   6.503 -0.2275  0.5926 -0.5363
  966MOL0     C33231   8.174  10.109   6.557 -0.2513  0.2285  0.3154
  966MOL0     C33232   8.144   9.977   6.482  0.9091 -0.5875  0.5744
  966MOL0     C33233   8.058  10.010   6.354  0.1409  0.4568  0.6051
  966MOL0     C33234   7.930  10.083   6.379 -0.7674 -0.4354  0.5459
  966MOL0     C33235   7.837  10.156   6.388 -0.4797  0.4023  0.1716
  966MOL0     C33236   8.572  10.263   6.466  0.3033  0.0651 -0.6467
  966MOL0     C33237   8.709  10.290   6.468 -0.1778 -0.1044 -1.3852
  966MOL0     C33238   8.757  10.425   6.443 -0.1029 -0.9843 -0.7937
  966MOL0     H33239   9.148   9.964   6.708  1.6449 -1.9227  0.0677
  966MOL0     H33240   9.381   9.976   6.793 -1.3094  0.1397  0.5276
  966MOL0     H33241   9.629  10.366   6.727  1.3622 -0.0815  2.4920
  966MOL0     H33242   9.666  10.254   6.599  1.4868  2.4493  1.0453
  966MOL0     H33243   9.863  10.290   6.754 -0.2644 -0.4715  0.5776
  966MOL0     H33244   9.761  10.257   6.893 -0.7789 -2.2914  0.4758
  966MOL0     H33245   9.915  10.068   6.857  0.3997  1.3658 -0.3929
  966MOL0     H33246   9.745  10.028   6.828 -1.6561  3.6129  2.5481
  966MOL0     H33247   9.800  10.089   6.576 -0.1943  1.5858  2.2842
  966MOL0     H33248   9.974  10.046   6.636  0.9251  1.2682  0.3585
  966MOL0     H33249   9.875   9.882   6.512  0.6123 -2.4862  0.3203
  966MOL0     H33250   9.721   9.869   6.609 -0.0247 -2.3276  0.9613
  966MOL0     H33251  10.011   9.806   6.705 -0.9251  2.0439 -0.6717
  966MOL0     H33252   9.876   9.806   6.804  1.5047  0.2926  0.2285
  966MOL0     H33253   9.878   9.643   6.548  0.2881  2.2665 -0.3086
  966MOL0     H33254   9.758   9.628   6.667  0.3193 -2.5543 -1.9809
  966MOL0     H33255  10.053   9.588   6.716 -0.3463 -0.4137  0.7207
  966MOL0     H33256   9.918   9.547   6.827  0.2637 -0.8465 -0.0321
  966MOL0     H33257  10.041   9.437   6.466 -0.9657  0.4062 -0.5647
  966MOL0     H33258  10.038   9.031   6.510  0.7186 -0.2950 -0.1950
  966MOL0     H33259  10.153   9.146   6.454  0.1018  1.4078  3.1870
  966MOL0     H33260   9.853   9.098   6.334 -1.1673  1.8088  0.1191
  966MOL0     H33261   9.938   9.244   6.305 -1.5269 -0.5487  1.3475
  966MOL0     H33262   9.965   9.091   6.119 -0.7934  0.0410 -0.1140
  966MOL0     H33263  10.126   9.096   6.193 -0.2452 -1.1007  0.2336
  966MOL0     H33264  10.034   8.881   6.336  0.7624  0.2908 -1.2538
  966MOL0     H33265   9.913   8.883   6.219  0.0821 -1.7860  0.9147
  966MOL0     H33266  10.202   8.769   5.918  0.4226 -1.1548  0.0481
  966MOL0     H33267  10.410   8.772   5.781 -1.7035  1.8682  2.8968
  966MOL0     H33268  10.352   8.610   5.823 -0.8442  0.8262 -1.5084
  966MOL0     H33269  10.526   8.638   5.837  1.1979 -0.3420  0.9738
  966MOL0     H33270  10.860   8.801   6.375  1.0551 -0.2956 -0.0752
  966MOL0     H33271  11.095   8.767   6.415  2.3133  0.6941 -0.7850
  966MOL0     H33272  11.311   8.507   6.114  1.0993 -1.2367 -0.0647
  966MOL0     H33273  11.358   8.681   6.088  1.8953  2.0311  2.2369
  966MOL0     H33274  11.494   8.669   6.315 -0.5660  2.1717 -2.8357
  966MOL0     H33275  11.481   8.495   6.294 -2.3957  0.0110  0.8351
  966MOL0     H33276  11.594   8.714   6.098  1.5823 -0.0642 -1.9147
  966MOL0     H33277  11.606   8.540   6.073  1.7301  0.6447 -1.2616
  966MOL0     H33278  11.814   8.685   6.157  0.4173 -1.0411 -1.0669
  966MOL0     H33279  11.784   8.526   6.238 -0.1011 -0.3001  0.0809
  966MOL0     H33280  11.679   8.778   6.355 -0.1023 -0.6410 -3.0398
  966MOL0     H33281  11.714   8.621   6.436  0.1805  1.1217  0.8244
  966MOL0     H33282  11.947   8.650   6.404 -0.2408  1.2198 -0.1295
  966MOL0     H33283  11.873   8.766   6.517  1.2851 -0.8216  0.7391
  966MOL0     H33284  11.856   8.923   6.300 -2.0782 -2.1369 -2.4002
  966MOL0     H33285  11.975   8.817   6.234  2.5618  1.1163  1.5983
  966MOL0     H33286  12.012   8.949   6.504  2.5121  0.5789  1.7736
  966MOL0     H33287  12.088   8.994   6.354 -1.0106  0.7442  1.2897
  966MOL0     H33288  11.119   8.544   6.052  1.5671  0.9662  0.7342
  966MOL0     H33289  10.874   8.559   6.023 -1.2983 -2.0997  2.8238
  966MOL0     H33290  10.495   8.818   6.314 -4.8929  2.3823  3.0800
  966MOL0     H33291  10.261   8.892   6.319 -1.1119 -2.5021  1.4595
  966MOL0     H33292   9.439  10.351   6.592  0.0732 -0.5331  0.4759
  966MOL0     H33293   9.211  10.341   6.505  0.4234 -0.1382  0.6710
  966MOL0     H33294   8.826   9.960   6.503  0.7424  0.9473  1.2741
  966MOL0     H33295   8.589   9.919   6.487  1.4791 -0.6874 -2.4782
  966MOL0     H33296   8.322  10.273   6.563  1.3998  1.7223 -2.7646
  966MOL0     H33297   8.271  10.219   6.401 -1.0839 -1.2587 -0.9680
  966MOL0     H33298   8.090  10.180   6.558 -0.1926  0.3431 -0.7985
  966MOL0     H33299   8.203  10.084   6.659  1.6528  3.0504  0.5811
  966MOL0     H33300   8.241   9.928   6.465  0.3724 -1.6881  0.6444
  966MOL0     H33301   8.089   9.908   6.546 -0.9516 -1.1125 -1.4758
  966MOL0     H33302   8.033   9.914   6.309  1.8066  1.3617 -2.5345
  966MOL0     H33303   8.119  10.057   6.277 -1.6549  0.3622 -0.9282
  966MOL0     H33304   7.750  10.217   6.399 -2.1565 -1.9062  0.4974
  966MOL0     H33305   8.500  10.343   6.454 -0.5658 -0.8674 -1.9579
  966MOL0     H33306   8.674  10.496   6.452  1.7128  1.0303  2.0665
  966MOL0     H33307   8.822  10.448   6.528 -0.8841  0.7284 -0.6123
  966MOL0     H33308   8.803  10.434   6.345  2.4092  0.0951  0.3966
  967MOL0     O33309   2.797   3.423   6.911  0.6285 -0.2248  0.9513
  967MOL0     C33310   2.795   3.346   6.813  0.2630 -0.0002 -0.2308
  967MOL0     O33311   2.867   3.365   6.699 -0.1531  0.0934 -0.3801
  967MOL0     C33312   2.936   3.481   6.674 -0.1723  0.3801  0.5413
  967MOL0     C33313   3.056   3.515   6.743  1.3058  0.2443  0.6767
  967MOL0     C33314   3.139   3.615   6.687 -0.1897  1.2539 -0.7216
  967MOL0     C33315   3.112   3.682   6.570 -0.0470 -0.1960  0.3281
  967MOL0     O33316   3.181   3.797   6.538 -0.4267 -0.5358  0.1658
  967MOL0     C33317   3.143   3.886   6.432  0.4170 -0.7548 -0.7499
  967MOL0     C33318   3.237   4.011   6.437  0.0424 -0.0936 -0.3516
  967MOL0     C33319   3.388   3.974   6.456 -0.0698  0.3057 -0.0455
  967MOL0     C33320   3.479   4.096   6.469 -0.2122 -0.6196  0.3484
  967MOL0     C33321   3.618   4.067   6.507 -0.3338 -0.5728 -0.2915
  967MOL0     C33322   3.641   4.086   6.659  0.0115 -0.5704  0.4071
  967MOL0     C33323   3.794   4.076   6.692  0.2498 -0.8682  0.1175
  967MOL0     C33324   3.821   4.069   6.837  0.5147  0.6729  0.4899
  967MOL0     N33325   3.967   4.078   6.871  0.2131 -0.0016 -0.2278
  967MOL0     C33326   4.080   4.109   6.793  1.0751  0.5639  0.5178
  967MOL0     C33327   4.184   4.058   6.863  0.0561  0.0837  0.3324
  967MOL0     C33328   4.329   4.045   6.838  0.4063  0.0109  0.2382
  967MOL0     C33329   4.404   4.183   6.853  0.2108 -0.0921 -0.0941
  967MOL0     C33330   4.552   4.175   6.807 -0.6754 -0.3392  0.5646
  967MOL0     C33331   4.648   4.101   6.899  0.2827  0.0587  0.0427
  967MOL0     O33332   4.789   4.127   6.871  0.6658 -0.1932  0.6544
  967MOL0     C33333   4.845   4.244   6.907 -0.3973 -0.7783  0.5159
  967MOL0     C33334   4.791   4.347   6.992  0.4680  0.7286 -0.2866
  967MOL0     C33335   4.849   4.466   7.035 -1.1668 -0.1074 -0.0410
  967MOL0     C33336   4.773   4.566   7.107 -1.3357 -0.0205  0.1558
  967MOL0     C33337   4.987   4.483   6.996  0.0588 -0.3438  0.1356
  967MOL0     C33338   5.068   4.602   7.034 -0.1953 -0.6275  0.2061
  967MOL0     O33339   5.007   4.720   7.078  0.5269  0.0480 -0.0327
  967MOL0     C33340   5.083   4.834   7.106 -0.1746  0.5825 -0.1620
  967MOL0     C33341   5.102   4.878   7.240 -0.0083 -0.2774 -0.0418
  967MOL0     C33342   5.189   4.979   7.272 -0.3056 -0.3627  0.0088
  967MOL0     C33343   5.260   5.054   7.173  0.5422  0.8397 -0.0479
  967MOL0     O33344   5.363   5.134   7.215 -0.2030 -0.1206  0.2777
  967MOL0     C33345   5.391   5.254   7.140 -0.4743 -1.0785  0.3313
  967MOL0     C33346   5.503   5.325   7.211  0.2795 -0.1084  0.1961
  967MOL0     C33347   5.510   5.474   7.176 -0.1454  0.0600 -0.4067
  967MOL0     C33348   5.588   5.547   7.283  0.0510 -0.0721  0.1254
  967MOL0     C33349   5.728   5.496   7.276  0.2786 -0.3618 -0.2889
  967MOL0     C33350   5.811   5.589   7.357 -0.5703 -0.2204  0.6601
  967MOL0     C33351   5.964   5.563   7.362 -0.5505 -0.3193 -0.2963
  967MOL0     C33352   6.009   5.419   7.379 -0.6218 -1.0417  0.2415
  967MOL0    Cl33353   6.003   5.367   7.542 -0.2550 -0.3587  0.2972
  967MOL0     C33354   5.238   5.029   7.035 -0.2753  0.3742 -0.4775
  967MOL0     C33355   5.145   4.921   7.006  0.8641  0.2190 -0.0416
  967MOL0     O33356   5.189   4.593   7.008 -0.3445  0.0239 -0.6265
  967MOL0     C33357   5.040   4.391   6.902  0.8106 -0.3362  0.0422
  967MOL0     C33358   4.974   4.272   6.865 -0.2211  0.5702  0.7100
  967MOL0     N33359   4.135   4.024   6.983 -0.8875 -0.4716 -0.3084
  967MOL0     N33360   4.009   4.028   6.989 -0.3608  0.4660 -0.1762
  967MOL0     C33361   2.984   3.657   6.511  0.0997  0.5056  0.3008
  967MOL0     C33362   2.902   3.554   6.560 -0.5642  0.1597  0.5110
  967MOL0     C33363   2.708   3.220   6.819 -0.3126  0.0908 -0.3169
  967MOL0     C33364   2.713   3.135   6.708 -0.8292  0.0331 -0.1865
  967MOL0     C33365   2.642   3.013   6.696 -0.6268 -0.8259 -0.2621
  967MOL0     C33366   2.559   2.978   6.803 -0.3433  0.4248  0.6180
  967MOL0     O33367   2.479   2.866   6.806 -0.0644 -0.4842  0.0458
  967MOL0     C33368   2.442   2.815   6.679 -0.1769  0.1234  1.0475
  967MOL0     C33369   2.337   2.703   6.694  0.2367  0.8775  0.4005
  967MOL0     C33370   2.406   2.564   6.713 -0.6339 -0.3799 -0.2198
  967MOL0     C33371   2.308   2.444   6.722 -0.1453 -0.8195 -0.3392
  967MOL0     C33372   2.391   2.327   6.754  0.8510  0.2051  0.4981
  967MOL0     C33373   2.449   2.221   6.762 -0.7246  0.8140  0.6634
  967MOL0     C33374   2.566   3.056   6.916  0.1410  0.4570  0.8192
  967MOL0     C33375   2.627   3.181   6.928 -1.3796  1.1652  0.0021
  967MOL0     C33376   2.613   3.251   7.060 -0.1994 -0.0480 -0.6452
  967MOL0     H33377   3.072   3.463   6.837  0.6928 -0.4017  0.4369
  967MOL0     H33378   3.223   3.631   6.753  0.2473 -4.2246  0.4755
  967MOL0     H33379   3.038   3.911   6.452  0.8399 -0.2192  0.9331
  967MOL0     H33380   3.151   3.848   6.330  1.9390 -0.8565 -0.6204
  967MOL0     H33381   3.231   4.076   6.349 -1.9569  2.0101  1.2359
  967MOL0     H33382   3.204   4.080   6.515 -0.5144  0.1865 -0.8345
  967MOL0     H33383   3.398   3.913   6.546 -1.1683 -0.4886 -0.4426
  967MOL0     H33384   3.418   3.901   6.380 -0.5139  0.8793 -0.7806
  967MOL0     H33385   3.482   4.153   6.375 -1.4006 -0.2931  0.5006
  967MOL0     H33386   3.433   4.170   6.535  3.3046  2.0510  0.1578
  967MOL0     H33387   3.680   4.136   6.450  2.9196 -2.2516  0.9427
  967MOL0     H33388   3.634   3.964   6.472 -3.0365 -0.8467 -0.9140
  967MOL0     H33389   3.603   4.184   6.688 -0.6958 -1.2628  1.9332
  967MOL0     H33390   3.587   4.011   6.718  0.9211 -1.4371  0.1649
  967MOL0     H33391   3.836   4.159   6.636 -1.4437  0.2707  0.4545
  967MOL0     H33392   3.838   3.981   6.659  1.7650 -0.8713  1.9458
  967MOL0     H33393   3.762   4.148   6.883 -0.5280  0.4006 -0.3487
  967MOL0     H33394   3.767   3.984   6.880 -1.4350  1.5491 -0.1021
  967MOL0     H33395   4.079   4.152   6.693 -1.4478 -0.3968  0.0639
  967MOL0     H33396   4.334   4.018   6.732 -1.1328  0.7207 -0.0362
  967MOL0     H33397   4.376   3.971   6.903  0.2570 -0.4697 -0.1890
  967MOL0     H33398   4.359   4.256   6.786 -0.9264 -0.1775  0.5374
  967MOL0     H33399   4.393   4.218   6.956  1.6167  1.8668 -0.5668
  967MOL0     H33400   4.551   4.127   6.709 -0.3369 -0.6418  0.7071
  967MOL0     H33401   4.592   4.277   6.797  0.6409 -0.6810  1.8710
  967MOL0     H33402   4.621   4.121   7.004  2.3108 -3.6402  1.4755
  967MOL0     H33403   4.632   3.993   6.888 -0.1712  0.0319  0.8579
  967MOL0     H33404   4.691   4.329   7.031  0.2061  1.9111 -0.3827
  967MOL0     H33405   4.673   4.525   7.118 -0.1771 -3.0843  0.2615
  967MOL0     H33406   4.771   4.650   7.037  0.5783 -2.6806 -3.5111
  967MOL0     H33407   4.813   4.596   7.204 -1.8616 -0.4553  0.5113
  967MOL0     H33408   5.075   4.818   7.326  1.4288 -0.0520  0.5910
  967MOL0     H33409   5.225   4.997   7.372  1.3576  0.3619 -0.6743
  967MOL0     H33410   5.432   5.229   7.042 -0.0052 -1.4669  0.6231
  967MOL0     H33411   5.297   5.310   7.132  1.6008  2.4600 -1.4710
  967MOL0     H33412   5.488   5.313   7.319 -0.6386  0.8988  0.1907
  967MOL0     H33413   5.599   5.276   7.189  0.9115  1.4150 -0.5782
  967MOL0     H33414   5.409   5.515   7.181  0.6414  1.9278  1.0020
  967MOL0     H33415   5.546   5.494   7.075  0.5122  0.4556 -0.0997
  967MOL0     H33416   5.542   5.521   7.379 -1.3079 -2.3660 -1.0642
  967MOL0     H33417   5.574   5.655   7.273 -3.7915 -0.3451  0.9663
  967MOL0     H33418   5.729   5.394   7.316  2.8434 -1.2005 -2.1976
  967MOL0     H33419   5.757   5.498   7.170 -0.1896  2.1160 -0.4285
  967MOL0     H33420   5.775   5.574   7.459  2.7081  1.1508  2.1395
  967MOL0     H33421   5.802   5.694   7.329  0.9558  0.1733  1.5862
  967MOL0     H33422   6.014   5.636   7.427  0.8565 -1.1228 -0.4293
  967MOL0     H33423   6.001   5.592   7.264 -0.5739 -2.5104 -1.0070
  967MOL0     H33424   6.111   5.401   7.343 -0.2189 -1.1069  1.3830
  967MOL0     H33425   5.957   5.346   7.315  0.1163 -1.4570  0.0925
  967MOL0     H33426   5.304   5.073   6.961 -1.0249  2.5772  0.1034
  967MOL0     H33427   5.146   4.893   6.901  0.5215  0.2966 -0.0659
  967MOL0     H33428   5.135   4.422   6.858  0.2747  2.5842  0.7691
  967MOL0     H33429   5.017   4.199   6.797  1.1251  1.1428  0.9210
  967MOL0     H33430   2.954   3.704   6.418 -0.1091  0.0487  0.1356
  967MOL0     H33431   2.814   3.532   6.501 -1.2722  3.3128  0.2489
  967MOL0     H33432   2.780   3.150   6.625 -0.5089 -1.4214 -0.2167
  967MOL0     H33433   2.646   2.956   6.604  0.6983 -0.7446 -0.2715
  967MOL0     H33434   2.402   2.890   6.610 -1.8911  0.0899  1.9447
  967MOL0     H33435   2.527   2.766   6.632 -2.5930 -3.1942 -0.2529
  967MOL0     H33436   2.268   2.696   6.609 -0.3660  0.1927  0.9363
  967MOL0     H33437   2.270   2.725   6.777  1.1679  0.9230  1.1546
  967MOL0     H33438   2.464   2.539   6.624 -0.2998  1.3514 -0.5282
  967MOL0     H33439   2.473   2.569   6.800 -1.2125  2.2084  0.1640
  967MOL0     H33440   2.240   2.431   6.638 -0.5809 -4.1299  0.3921
  967MOL0     H33441   2.241   2.469   6.805 -2.4880 -1.4518 -1.9421
  967MOL0     H33442   2.509   2.132   6.759  0.2654  1.4842 -0.5436
  967MOL0     H33443   2.533   3.001   7.004  1.1836  0.2044  1.0665
  967MOL0     H33444   2.605   3.359   7.049 -0.2476 -0.1656 -1.8153
  967MOL0     H33445   2.526   3.211   7.114  0.3807  1.2617  1.3869
  967MOL0     H33446   2.697   3.236   7.128  1.1633 -1.1863 -2.4942
  968MOL0     O33447  10.443   8.656   4.866 -0.0644 -0.1258  0.5648
  968MOL0     C33448  10.413   8.685   4.983 -1.0152 -0.1118  0.4740
  968MOL0     O33449  10.440   8.604   5.089  0.1769  0.1213 -0.1286
  968MOL0     C33450  10.539   8.511   5.072  1.2522  0.0179 -0.2109
  968MOL0     C33451  10.498   8.389   5.024 -0.5200 -0.5950  0.1648
  968MOL0     C33452  10.603   8.290   5.012  0.4478 -0.8179  0.4254
  968MOL0     C33453  10.740   8.325   5.034 -1.1456 -0.9872  0.9068
  968MOL0     O33454  10.849   8.240   5.021  0.2905 -0.2041  0.4729
  968MOL0     C33455  10.829   8.127   4.941  0.5827 -0.3222  0.3436
  968MOL0     C33456  10.970   8.064   4.941 -0.0439 -0.0724 -0.0232
  968MOL0     C33457  11.013   8.004   5.075 -0.1516 -0.0068  0.2988
  968MOL0     C33458  11.139   7.915   5.058 -0.4932  0.0812 -0.0435
  968MOL0     C33459  11.191   7.853   5.197  0.5612 -0.1250  0.3969
  968MOL0     C33460  11.302   7.743   5.183  0.0958  0.7578  0.2247
  968MOL0     C33461  11.375   7.732   5.322  0.0026  0.3019 -0.2096
  968MOL0     C33462  11.481   7.622   5.329  0.1444 -0.9510  0.5742
  968MOL0     N33463  11.530   7.617   5.463  0.8194 -0.5845 -0.1102
  968MOL0     C33464  11.636   7.693   5.512  1.4208 -0.7301  0.1421
  968MOL0     C33465  11.650   7.639   5.642  0.3476  0.0699  0.7294
  968MOL0     C33466  11.762   7.691   5.732  0.6265  0.0450  0.1012
  968MOL0     C33467  11.857   7.583   5.759  0.4344 -0.5645 -0.2286
  968MOL0     C33468  11.921   7.530   5.636 -0.5721 -0.3725  1.3991
  968MOL0     C33469  11.982   7.394   5.657  0.1040 -0.4361  0.5442
  968MOL0     O33470  12.104   7.378   5.585 -0.6257 -0.2352 -0.1909
  968MOL0     C33471  12.226   7.410   5.646 -0.2554 -0.9239 -0.3719
  968MOL0     C33472  12.242   7.468   5.771 -0.0781 -0.5859 -0.6145
  968MOL0     C33473  12.364   7.492   5.836 -0.0389  1.2577  0.3789
  968MOL0     C33474  12.348   7.563   5.970  0.4591  0.5829 -0.5848
  968MOL0     C33475  12.484   7.448   5.767 -0.6645  0.6017 -1.1420
  968MOL0     C33476  12.629   7.465   5.813 -0.0151 -0.4392  0.2390
  968MOL0     O33477  12.720   7.382   5.746  0.2559  0.2570 -0.3744
  968MOL0     C33478  12.854   7.401   5.777  0.0592  0.8901  0.8139
  968MOL0     C33479  12.909   7.528   5.760  0.2410  1.0422 -0.0316
  968MOL0     C33480  13.038   7.554   5.790 -0.2395  0.1226  0.3068
  968MOL0     C33481  13.130   7.448   5.829  1.3018  0.4490 -0.4834
  968MOL0     O33482  13.258   7.495   5.855  0.7845  0.3265  0.8700
  968MOL0     C33483  13.360   7.387   5.857 -0.2376 -0.0240  1.4167
  968MOL0     C33484  13.398   7.338   6.000  0.0698  0.5079 -0.3148
  968MOL0     C33485  13.510   7.418   6.073  0.5387  0.1263  0.8003
  968MOL0     C33486  13.465   7.565   6.094 -0.4174  0.6212  0.2551
  968MOL0     C33487  13.590   7.650   6.141  0.6883  1.5071  0.0330
  968MOL0     C33488  13.554   7.791   6.191 -0.6142 -0.1231  0.1108
  968MOL0     C33489  13.684   7.865   6.234 -0.0533 -0.7837 -0.7249
  968MOL0     C33490  13.647   8.002   6.282  0.1556 -0.0459 -0.7157
  968MOL0    Cl33491  13.547   7.995   6.437 -0.3093  0.3578  0.3932
  968MOL0     C33492  13.079   7.315   5.849 -0.0889 -0.4834  0.9530
  968MOL0     C33493  12.940   7.302   5.829 -0.6028  0.5991  0.6195
  968MOL0     O33494  12.655   7.543   5.900 -0.3307 -1.1308 -0.2802
  968MOL0     C33495  12.471   7.383   5.643  0.1655  0.3125  0.6914
  968MOL0     C33496  12.343   7.371   5.587  0.0165 -0.3251  0.4207
  968MOL0     N33497  11.561   7.536   5.663  0.2513 -0.5592 -0.7897
  968MOL0     N33498  11.491   7.521   5.554 -0.0531  0.0230 -0.3868
  968MOL0     C33499  10.775   8.449   5.087 -0.2101  0.6606 -0.0961
  968MOL0     C33500  10.673   8.540   5.108  0.6487 -0.3015  0.1063
  968MOL0     C33501  10.334   8.811   5.000 -0.6926 -0.3795 -1.0953
  968MOL0     C33502  10.281   8.832   5.128  0.1899 -0.3483  0.1499
  968MOL0     C33503  10.188   8.933   5.152  0.3779  0.5148  0.4467
  968MOL0     C33504  10.154   9.021   5.046 -0.1855  0.8129  0.2708
  968MOL0     O33505  10.071   9.133   5.079 -0.3670  0.2506  0.2592
  968MOL0     C33506  10.001   9.198   4.972 -0.5447 -0.4955  0.8052
  968MOL0     C33507   9.858   9.220   5.017  0.4629  0.7031 -0.5162
  968MOL0     C33508   9.768   9.100   4.965  0.1282 -0.0655 -0.5016
  968MOL0     C33509   9.635   9.131   5.020  0.1619 -0.1160 -0.5692
  968MOL0     C33510   9.534   9.043   4.957  0.0078  0.2740 -0.7678
  968MOL0     C33511   9.447   8.967   4.918  0.1791 -0.7374  0.4712
  968MOL0     C33512  10.217   9.005   4.921  0.1563 -0.4973  0.0380
  968MOL0     C33513  10.305   8.900   4.893 -0.7787  0.2876  0.9199
  968MOL0     C33514  10.358   8.891   4.747 -0.2701  0.0449  0.1048
  968MOL0     H33515  10.395   8.359   5.009 -0.7238  0.0529  0.2437
  968MOL0     H33516  10.571   8.188   4.993  0.8601 -1.3587  2.3584
  968MOL0     H33517  10.796   8.163   4.844  1.0125  0.0743  0.3415
  968MOL0     H33518  10.759   8.050   4.975 -0.2402  0.3072  0.1146
  968MOL0     H33519  10.970   7.993   4.858  3.5260  0.5434 -0.7163
  968MOL0     H33520  11.045   8.141   4.922  0.6634 -1.0846 -1.5671
  968MOL0     H33521  11.027   8.086   5.146 -0.0282 -0.7035  1.0874
  968MOL0     H33522  10.939   7.929   5.106  1.0111 -1.1618  0.3866
  968MOL0     H33523  11.126   7.832   4.988 -1.0842  1.2192 -1.3355
  968MOL0     H33524  11.208   7.980   5.003 -0.8440  0.5170  0.0284
  968MOL0     H33525  11.109   7.799   5.247 -0.2972 -0.2647 -1.1026
  968MOL0     H33526  11.223   7.940   5.255 -1.1046  0.5113  0.4217
  968MOL0     H33527  11.267   7.646   5.147  1.1998  1.8091 -4.2484
  968MOL0     H33528  11.375   7.780   5.110  0.2262  0.9636  0.4572
  968MOL0     H33529  11.301   7.725   5.402  2.4979  0.8980  2.2945
  968MOL0     H33530  11.423   7.830   5.334 -3.7579  2.0977  1.7547
  968MOL0     H33531  11.444   7.525   5.296  2.6519 -1.9763  0.5628
  968MOL0     H33532  11.568   7.642   5.265 -1.4063  0.4917 -1.2127
  968MOL0     H33533  11.687   7.779   5.469 -0.1501 -0.0909 -0.5307
  968MOL0     H33534  11.709   7.716   5.824 -0.6895  0.6046 -0.7949
  968MOL0     H33535  11.818   7.780   5.703 -1.3378  2.1988  2.4124
  968MOL0     H33536  11.930   7.620   5.832 -1.6502  1.9933  0.7106
  968MOL0     H33537  11.799   7.505   5.808  1.0431 -1.1145 -0.3698
  968MOL0     H33538  11.856   7.529   5.548  1.1801 -3.8706 -0.0530
  968MOL0     H33539  11.987   7.613   5.610 -0.5842 -0.8056 -0.1202
  968MOL0     H33540  12.008   7.380   5.762 -0.3191  0.5443  0.7858
  968MOL0     H33541  11.901   7.326   5.630 -0.9095  1.0657 -0.3092
  968MOL0     H33542  12.165   7.495   5.842 -0.9957 -0.3210 -1.6884
  968MOL0     H33543  12.445   7.586   6.016  1.0205  0.6305 -1.7402
  968MOL0     H33544  12.312   7.490   6.043  2.0137 -1.0860 -1.3911
  968MOL0     H33545  12.299   7.660   5.967 -2.7298 -0.9017 -1.4384
  968MOL0     H33546  12.851   7.612   5.726 -1.0115 -0.0296 -0.6020
  968MOL0     H33547  13.068   7.658   5.792 -1.1592  0.5495 -2.7225
  968MOL0     H33548  13.321   7.303   5.800 -0.9387  0.1584  1.6130
  968MOL0     H33549  13.450   7.428   5.810  0.3295  0.9091  3.2239
  968MOL0     H33550  13.301   7.340   6.049 -0.8390 -2.7690 -1.7133
  968MOL0     H33551  13.411   7.230   6.001 -0.7190  0.3802 -1.6072
  968MOL0     H33552  13.603   7.421   6.016 -1.6248  0.9284 -3.0332
  968MOL0     H33553  13.522   7.377   6.174 -1.3703  0.1240  1.0609
  968MOL0     H33554  13.381   7.577   6.164  0.9836 -1.7834  2.5389
  968MOL0     H33555  13.434   7.608   5.999 -1.1933 -0.0887  0.1807
  968MOL0     H33556  13.656   7.599   6.211  0.1858  1.6285  0.6061
  968MOL0     H33557  13.655   7.675   6.057  2.3634  0.8265  1.0684
  968MOL0     H33558  13.495   7.776   6.282 -1.1258  2.8940  0.3595
  968MOL0     H33559  13.503   7.853   6.117  0.1825  0.6831  0.2141
  968MOL0     H33560  13.763   7.878   6.160  1.8170 -0.7607  1.1668
  968MOL0     H33561  13.735   7.807   6.312 -0.6278  0.4853  0.6360
  968MOL0     H33562  13.596   8.063   6.207 -0.2574  2.6112  1.5517
  968MOL0     H33563  13.741   8.053   6.305 -0.8286  1.6097 -0.2567
  968MOL0     H33564  13.135   7.234   5.894  2.8437  0.9573  0.1415
  968MOL0     H33565  12.908   7.204   5.862  2.9900  0.0080  2.9503
  968MOL0     H33566  12.545   7.356   5.568 -0.3079 -1.7559  0.9176
  968MOL0     H33567  12.342   7.330   5.486  2.3000 -0.9099  0.5736
  968MOL0     H33568  10.878   8.477   5.109  0.4312  0.2163 -2.3010
  968MOL0     H33569  10.691   8.637   5.155 -0.9604 -0.2778  0.7351
  968MOL0     H33570  10.290   8.769   5.216 -0.0998  0.5698  0.8626
  968MOL0     H33571  10.128   8.938   5.243  0.8194  1.3584  0.6999
  968MOL0     H33572  10.043   9.298   4.959  1.9600 -1.1664  2.8848
  968MOL0     H33573  10.000   9.146   4.876 -3.1809  3.6931 -1.7445
  968MOL0     H33574   9.811   9.312   4.981 -4.1578 -0.7765  0.9136
  968MOL0     H33575   9.860   9.223   5.126  0.8679  0.5609 -0.5186
  968MOL0     H33576   9.776   9.100   4.856  0.1063  2.4861 -0.5590
  968MOL0     H33577   9.805   9.002   4.995  1.4127 -1.0825 -4.6929
  968MOL0     H33578   9.616   9.237   4.998  0.9407  0.1197 -0.1118
  968MOL0     H33579   9.646   9.099   5.123  0.1557 -2.8829 -1.3490
  968MOL0     H33580   9.371   8.909   4.870  0.8803  0.7921 -2.7934
  968MOL0     H33581  10.204   9.082   4.845 -0.0676 -1.0296 -0.4735
  968MOL0     H33582  10.337   8.986   4.697 -2.0146 -0.2324  0.2790
  968MOL0     H33583  10.466   8.869   4.752 -0.1814  0.6677  1.3368
  968MOL0     H33584  10.314   8.803   4.700  1.5003  0.7805 -3.3001
  969MOL0     O33585   1.833  10.021   2.221 -0.3449 -0.1782 -0.1428
  969MOL0     C33586   1.749  10.113   2.228  0.4202 -0.1117 -0.5626
  969MOL0     O33587   1.769  10.239   2.280 -0.9271  0.0278 -0.3178
  969MOL0     C33588   1.899  10.288   2.300  0.6996 -0.5094  0.0954
  969MOL0     C33589   2.011  10.248   2.225 -0.6078 -0.1627  1.2895
  969MOL0     C33590   2.137  10.316   2.227  0.0176  0.2622  0.0408
  969MOL0     C33591   2.149  10.425   2.321  0.1566  0.7463  0.7425
  969MOL0     O33592   2.266  10.497   2.330  0.1291  0.8682 -0.0536
  969MOL0     C33593   2.375  10.473   2.241 -0.3998 -0.5007 -0.6909
  969MOL0     C33594   2.462  10.601   2.243  0.3299 -0.3455  0.0419
  969MOL0     C33595   2.600  10.568   2.184 -0.3908 -1.1854 -0.0744
  969MOL0     C33596   2.692  10.686   2.203 -0.2440  0.3031 -1.1691
  969MOL0     C33597   2.836  10.674   2.149 -0.2890  0.6890  0.2799
  969MOL0     C33598   2.833  10.653   1.997 -0.2441  0.4126 -0.1128
  969MOL0     C33599   2.979  10.660   1.951 -0.5998 -0.5028  0.2253
  969MOL0     C33600   2.984  10.654   1.794 -0.9506  0.5247 -0.3152
  969MOL0     N33601   3.123  10.635   1.744  0.5154 -0.6710 -0.3205
  969MOL0     C33602   3.199  10.530   1.781 -0.1708  0.0009 -1.0184
  969MOL0     C33603   3.326  10.576   1.765 -0.4430  0.4181  0.0882
  969MOL0     C33604   3.459  10.497   1.758  0.2646 -0.4364 -0.4871
  969MOL0     C33605   3.580  10.586   1.724  0.3056  0.7397 -0.9273
  969MOL0     C33606   3.629  10.661   1.849  0.0983  0.6823  0.6777
  969MOL0     C33607   3.757  10.733   1.825  0.4010  0.5022 -0.8610
  969MOL0     O33608   3.805  10.762   1.959 -0.2989  0.2721  0.1069
  969MOL0     C33609   3.938  10.781   1.987  0.0971  0.2940 -0.1058
  969MOL0     C33610   3.963  10.760   2.117  0.0590 -0.3174  0.7190
  969MOL0     C33611   4.099  10.749   2.159  0.0271  0.1559  0.7090
  969MOL0     C33612   4.133  10.710   2.301  0.7337 -0.1083  0.6818
  969MOL0     C33613   4.207  10.779   2.059  0.6480 -0.0462  0.2902
  969MOL0     C33614   4.354  10.790   2.091  0.4093 -0.1348 -0.4151
  969MOL0     O33615   4.385  10.797   2.219 -0.1235  0.0715  0.1036
  969MOL0     C33616   4.512  10.788   2.246 -0.0568 -0.6123  0.4342
  969MOL0     C33617   4.589  10.669   2.214  0.0852  0.2427 -0.1038
  969MOL0     C33618   4.717  10.653   2.262  0.1188 -0.6176 -0.1453
  969MOL0     C33619   4.791  10.756   2.325 -0.6013 -0.4037 -0.7030
  969MOL0     O33620   4.920  10.753   2.365  0.5884  0.5381  0.0620
  969MOL0     C33621   5.024  10.693   2.278 -0.5908 -0.7091  0.5830
  969MOL0     C33622   5.158  10.749   2.315 -0.3805  0.0318 -0.2774
  969MOL0     C33623   5.191  10.877   2.242 -0.2693 -0.6150 -0.0456
  969MOL0     C33624   5.339  10.896   2.218  0.0340 -0.8866 -0.0260
  969MOL0     C33625   5.365  11.047   2.183 -0.3644 -0.5192 -0.0654
  969MOL0     C33626   5.516  11.076   2.183 -0.4283  0.4854 -0.1380
  969MOL0     C33627   5.544  11.208   2.109  0.1491  0.2106  0.9207
  969MOL0     C33628   5.473  11.230   1.972  0.2189  0.4301  0.3927
  969MOL0    Cl33629   5.491  11.076   1.866  0.0472 -0.3679  0.0840
  969MOL0     C33630   4.724  10.882   2.332 -0.1544 -0.1965 -0.8743
  969MOL0     C33631   4.590  10.894   2.299 -0.6227  0.8504 -0.0990
  969MOL0     O33632   4.434  10.778   1.996 -0.1075 -0.9733 -0.0391
  969MOL0     C33633   4.169  10.804   1.926  0.0244 -0.7132  0.2995
  969MOL0     C33634   4.037  10.802   1.896 -0.6411 -0.2679  0.3090
  969MOL0     N33635   3.315  10.710   1.724  0.7580  0.0954  0.0252
  969MOL0     N33636   3.189  10.745   1.716  0.2814 -0.7001  0.6319
  969MOL0     C33637   2.039  10.460   2.401  0.0177  0.1863 -0.0283
  969MOL0     C33638   1.919  10.388   2.394  0.1400  0.5146  0.4295
  969MOL0     C33639   1.605  10.086   2.187 -0.1458  0.4568  0.5642
  969MOL0     C33640   1.507  10.192   2.195 -0.1195  0.0974  0.2860
  969MOL0     C33641   1.371  10.160   2.183 -0.5786 -0.6144 -0.2428
  969MOL0     C33642   1.329  10.035   2.153  0.6951  1.1117  0.0606
  969MOL0     O33643   1.190  10.023   2.147 -0.2074  0.3637 -0.6860
  969MOL0     C33644   1.135   9.895   2.187 -0.1407 -0.2917  0.7817
  969MOL0     C33645   0.982   9.907   2.186 -0.8554  0.1763  0.1275
  969MOL0     C33646   0.927   9.992   2.305  0.0768 -0.5246  0.0063
  969MOL0     C33647   0.926   9.903   2.436  0.0675 -0.6842 -0.1004
  969MOL0     C33648   0.884   9.985   2.547 -0.1827 -0.0530  0.4693
  969MOL0     C33649   0.850  10.055   2.637  0.0481 -0.0064 -0.3744
  969MOL0     C33650   1.422   9.933   2.145  0.3229 -0.1101  0.4631
  969MOL0     C33651   1.559   9.952   2.154  0.1913 -0.1784 -0.2188
  969MOL0     C33652   1.652   9.836   2.112  0.0448  0.4962  0.3197
  969MOL0     H33653   1.993  10.170   2.151  0.0236  1.0647 -0.2221
  969MOL0     H33654   2.215  10.282   2.160  0.3374  0.1301  0.4823
  969MOL0     H33655   2.345  10.458   2.137  0.7814 -0.1902 -1.0904
  969MOL0     H33656   2.428  10.387   2.284 -1.2263 -1.4375 -1.4902
  969MOL0     H33657   2.413  10.675   2.179  2.0178 -0.2680 -1.2329
  969MOL0     H33658   2.469  10.631   2.348  0.1174  1.8717 -0.5175
  969MOL0     H33659   2.641  10.484   2.240  0.2094 -0.0207  1.2990
  969MOL0     H33660   2.581  10.536   2.081  0.4309 -0.0133 -0.6210
  969MOL0     H33661   2.639  10.774   2.165  0.2167  2.0007  1.8101
  969MOL0     H33662   2.704  10.687   2.312 -0.4304  2.4178 -1.1110
  969MOL0     H33663   2.900  10.594   2.189  0.6983  0.9242 -0.7819
  969MOL0     H33664   2.890  10.763   2.182  0.4295 -0.5829  2.7700
  969MOL0     H33665   2.788  10.558   1.965  0.4649 -0.3059  0.9308
  969MOL0     H33666   2.772  10.730   1.949  1.9052  1.1920 -1.7421
  969MOL0     H33667   3.029  10.576   2.000 -0.7238  1.0794  3.3089
  969MOL0     H33668   3.035  10.750   1.978 -1.4162  0.5472 -1.3923
  969MOL0     H33669   2.936  10.563   1.754  1.8883 -1.5712  0.7389
  969MOL0     H33670   2.937  10.742   1.749  1.2632  2.1154  0.3717
  969MOL0     H33671   3.157  10.432   1.801  1.4705 -0.4577  0.5054
  969MOL0     H33672   3.463  10.416   1.684  3.5568  0.3143 -1.2640
  969MOL0     H33673   3.466  10.459   1.861 -1.3270  0.7788  0.1091
  969MOL0     H33674   3.661  10.520   1.692  1.5538  2.2112 -0.9050
  969MOL0     H33675   3.555  10.650   1.638 -1.1687 -0.4593 -1.4299
  969MOL0     H33676   3.556  10.733   1.888  0.6502  2.4541 -1.3573
  969MOL0     H33677   3.648  10.587   1.928 -0.8962 -0.9680 -0.5702
  969MOL0     H33678   3.824  10.667   1.771 -2.1280 -0.8751 -2.5286
  969MOL0     H33679   3.736  10.827   1.773 -3.1110  0.2524 -0.1500
  969MOL0     H33680   3.883  10.741   2.188 -1.7585  0.7196 -0.9634
  969MOL0     H33681   4.047  10.648   2.327 -0.2974  1.8362  2.1282
  969MOL0     H33682   4.132  10.789   2.377 -1.2833 -1.2318  1.8939
  969MOL0     H33683   4.223  10.649   2.313  0.9784 -0.0427 -0.6605
  969MOL0     H33684   4.550  10.586   2.157  2.9239 -2.0203  0.9552
  969MOL0     H33685   4.765  10.557   2.248  1.1881  0.0758 -1.4600
  969MOL0     H33686   5.028  10.584   2.276 -0.7395 -0.7649 -2.7345
  969MOL0     H33687   5.001  10.712   2.172 -1.0357 -0.1891  0.7687
  969MOL0     H33688   5.179  10.755   2.422  0.9805 -2.9022 -0.2711
  969MOL0     H33689   5.239  10.683   2.280 -0.6279 -0.5226  0.1695
  969MOL0     H33690   5.152  10.960   2.301 -2.3084 -3.4717  3.0410
  969MOL0     H33691   5.138  10.885   2.147 -0.8704  0.5120  0.3711
  969MOL0     H33692   5.386  10.837   2.139 -1.2598 -1.9397 -0.0470
  969MOL0     H33693   5.385  10.859   2.310  2.3111  1.6466 -0.0361
  969MOL0     H33694   5.333  11.048   2.078  2.7882 -0.3713 -1.1228
  969MOL0     H33695   5.304  11.119   2.238 -3.5395  0.8275 -4.7369
  969MOL0     H33696   5.584  11.002   2.140  2.4615  2.1760  1.2793
  969MOL0     H33697   5.553  11.092   2.284  1.1309  0.7281 -0.7169
  969MOL0     H33698   5.650  11.229   2.094  0.3241 -1.8016 -1.2954
  969MOL0     H33699   5.499  11.288   2.170 -0.7780 -0.2775  0.8981
  969MOL0     H33700   5.514  11.316   1.918  0.4369 -0.9467 -1.7650
  969MOL0     H33701   5.366  11.254   1.981 -0.4806 -1.2664 -2.3593
  969MOL0     H33702   4.777  10.968   2.370 -0.5437  0.9218 -2.7000
  969MOL0     H33703   4.547  10.989   2.328 -0.6176  0.7878  0.1185
  969MOL0     H33704   4.243  10.808   1.848 -0.0569  2.3496  0.2594
  969MOL0     H33705   4.014  10.819   1.791  2.2028  0.5378 -0.2769
  969MOL0     H33706   2.056  10.536   2.477  0.0164 -0.1749  0.3418
  969MOL0     H33707   1.847  10.425   2.466 -0.1981  0.8902 -0.0954
  969MOL0     H33708   1.534  10.296   2.206  2.7310 -0.3422 -1.5341
  969MOL0     H33709   1.297  10.238   2.189  1.1131  1.0535 -0.0198
  969MOL0     H33710   1.170   9.815   2.120 -1.7290  1.0372 -1.8152
  969MOL0     H33711   1.161   9.872   2.291  1.1414 -0.4441  0.4468
  969MOL0     H33712   0.935   9.809   2.186 -1.7541  0.5815  1.5823
  969MOL0     H33713   0.951   9.953   2.092  1.7928 -0.3590 -1.1031
  969MOL0     H33714   0.997  10.076   2.320  1.0560 -1.4251  0.6407
  969MOL0     H33715   0.834  10.044   2.280  1.4450  1.0921 -2.1718
  969MOL0     H33716   1.026   9.860   2.450  1.0093  0.0549 -3.5450
  969MOL0     H33717   0.854   9.824   2.410  0.1046 -0.2202 -1.7282
  969MOL0     H33718   0.813  10.099   2.727 -0.0487 -0.8030 -0.0173
  969MOL0     H33719   1.383   9.833   2.132 -0.8916  0.4049  0.0435
  969MOL0     H33720   1.727   9.878   2.044  1.4596  1.8008  2.5760
  969MOL0     H33721   1.713   9.791   2.190  1.4376  0.9899 -0.4448
  969MOL0     H33722   1.589   9.761   2.063  0.9297 -0.3267  0.4028
  970MOL0     O33723  10.855   6.276  11.272  0.1328 -0.2794 -0.8533
  970MOL0     C33724  10.972   6.295  11.247  1.0985 -0.1643  0.6469
  970MOL0     O33725  11.056   6.194  11.226 -1.3184  1.1343 -0.2071
  970MOL0     C33726  11.021   6.065  11.250  0.2804 -0.1694 -1.1016
  970MOL0     C33727  10.985   6.029  11.384 -0.2138  0.1756  0.3986
  970MOL0     C33728  10.941   5.895  11.409 -0.2346 -0.1373 -0.2704
  970MOL0     C33729  10.940   5.803  11.301 -0.2273 -0.7215  0.7974
  970MOL0     O33730  10.894   5.675  11.322  0.3443  0.1742  0.1273
  970MOL0     C33731  10.898   5.626  11.450  0.6108 -0.4191 -0.4107
  970MOL0     C33732  10.863   5.482  11.445 -0.9302  0.6681  0.5284
  970MOL0     C33733  10.897   5.417  11.573 -0.0761  0.3863  0.1032
  970MOL0     C33734  11.029   5.343  11.550 -0.0391  0.2633 -0.1946
  970MOL0     C33735  11.081   5.297  11.689 -0.0533 -0.1341 -0.5896
  970MOL0     C33736  11.221   5.225  11.672  0.7023 -0.3631  0.4833
  970MOL0     C33737  11.271   5.187  11.804  0.1935 -0.4785 -0.5764
  970MOL0     C33738  11.422   5.183  11.810 -0.2587 -0.4671 -0.2656
  970MOL0     N33739  11.472   5.108  11.925  0.3988 -0.0723  0.3360
  970MOL0     C33740  11.489   5.150  12.057 -1.5675  0.4265 -0.4832
  970MOL0     C33741  11.530   5.040  12.125 -0.5034 -0.5354 -0.1375
  970MOL0     C33742  11.562   5.025  12.265 -0.6017  0.1743 -0.7378
  970MOL0     C33743  11.695   5.095  12.306 -0.6712  0.2819 -0.4159
  970MOL0     C33744  11.783   4.988  12.382  0.0405 -0.0173  0.7441
  970MOL0     C33745  11.928   5.030  12.398 -0.7121  0.0447  0.1022
  970MOL0     O33746  11.928   5.141  12.488 -0.5737 -0.3334  0.0530
  970MOL0     C33747  12.048   5.217  12.505  0.3897 -0.9358 -0.5428
  970MOL0     C33748  12.052   5.305  12.613  0.1984 -0.7835  0.3341
  970MOL0     C33749  12.170   5.363  12.649 -0.4759  0.2749 -0.3468
  970MOL0     C33750  12.164   5.442  12.781  0.2953 -0.4363 -0.1807
  970MOL0     C33751  12.288   5.342  12.576  0.2463 -0.1022 -0.8289
  970MOL0     C33752  12.419   5.404  12.610  0.2968  0.1632  0.1580
  970MOL0     O33753  12.488   5.433  12.492 -0.2832 -0.5984  0.1980
  970MOL0     C33754  12.615   5.485  12.485  0.6461 -0.6556 -0.1904
  970MOL0     C33755  12.665   5.512  12.353 -0.0837 -0.0097 -0.0933
  970MOL0     C33756  12.778   5.587  12.327  0.2396  1.2956 -0.2340
  970MOL0     C33757  12.849   5.632  12.438 -1.1310 -0.5252  0.4511
  970MOL0     O33758  12.967   5.701  12.439  0.9653  0.6934  0.1996
  970MOL0     C33759  13.035   5.711  12.308  0.9970 -0.2232  0.1594
  970MOL0     C33760  13.166   5.773  12.310 -0.9392 -0.1270 -0.3713
  970MOL0     C33761  13.161   5.927  12.320 -0.4107  0.1672  0.6827
  970MOL0     C33762  13.106   6.003  12.197 -0.7411 -0.5907  0.2909
  970MOL0     C33763  13.116   6.157  12.219  0.1907  0.5401  0.5391
  970MOL0     C33764  13.023   6.202  12.334 -0.4007  0.4091  0.2846
  970MOL0     C33765  13.040   6.348  12.369  0.2904  0.5208 -0.9345
  970MOL0     C33766  12.987   6.448  12.268  0.3865 -0.1118 -0.2238
  970MOL0    Cl33767  12.809   6.405  12.261 -0.0001 -0.4160  0.3410
  970MOL0     C33768  12.801   5.616  12.570  0.4086 -0.8150 -0.0453
  970MOL0     C33769  12.682   5.538  12.596  0.6301  0.0156 -0.9114
  970MOL0     O33770  12.450   5.421  12.727  0.6992  0.1935  0.7111
  970MOL0     C33771  12.283   5.263  12.462  0.0614  0.1086  0.3980
  970MOL0     C33772  12.163   5.197  12.427 -0.4026 -0.3500  0.1184
  970MOL0     N33773  11.556   4.941  12.032  0.0460 -0.0487  0.3758
  970MOL0     N33774  11.509   4.978  11.918 -0.9501  0.2570  0.5167
  970MOL0     C33775  10.999   5.833  11.182 -0.1738  0.1836  0.3255
  970MOL0     C33776  11.028   5.967  11.155 -0.0321  0.0266  0.8773
  970MOL0     C33777  11.035   6.430  11.249  1.2003 -0.0324 -0.5596
  970MOL0     C33778  11.153   6.436  11.193 -1.0119 -0.6059  0.3475
  970MOL0     C33779  11.216   6.557  11.169  0.5707  0.2357  0.4919
  970MOL0     C33780  11.159   6.677  11.213  0.3382 -0.5164  0.2359
  970MOL0     O33781  11.230   6.791  11.198  0.1428  0.7413  0.6708
  970MOL0     C33782  11.201   6.902  11.279 -0.2287  0.8541 -0.2938
  970MOL0     C33783  11.318   6.983  11.295 -0.8494 -0.2326  0.6171
  970MOL0     C33784  11.445   6.903  11.331  0.1832 -0.3394  0.1168
  970MOL0     C33785  11.558   6.989  11.389  0.3702 -0.0094 -0.0637
  970MOL0     C33786  11.630   7.065  11.289  0.1749 -0.2131  0.4219
  970MOL0     C33787  11.677   7.116  11.187 -0.3813  0.9419  0.0711
  970MOL0     C33788  11.040   6.674  11.282  0.1001  0.5670 -0.3321
  970MOL0     C33789  10.976   6.550  11.305  0.4193 -0.8448 -0.3247
  970MOL0     C33790  10.849   6.549  11.391 -0.3216 -0.2142  0.0428
  970MOL0     H33791  10.967   6.101  11.463  0.5634 -0.8576  1.5357
  970MOL0     H33792  10.920   5.858  11.508  3.0168 -2.9639 -0.4245
  970MOL0     H33793  10.824   5.680  11.510 -0.9076 -1.8630 -0.8985
  970MOL0     H33794  10.999   5.647  11.486 -0.1658  0.1329  1.5687
  970MOL0     H33795  10.757   5.479  11.420 -1.1310 -1.1501  1.4255
  970MOL0     H33796  10.918   5.443  11.359 -0.7057  2.3242 -0.1044
  970MOL0     H33797  10.905   5.486  11.658 -1.1329  0.0868  0.4547
  970MOL0     H33798  10.818   5.342  11.580 -0.7080  0.6626 -2.8319
  970MOL0     H33799  11.017   5.261  11.479  0.5202 -1.1901  1.3471
  970MOL0     H33800  11.107   5.407  11.507 -0.4084  0.2417 -0.9101
  970MOL0     H33801  11.018   5.224  11.741 -1.4665  1.6947  0.3739
  970MOL0     H33802  11.092   5.384  11.754  0.3296  0.5656 -1.5551
  970MOL0     H33803  11.213   5.138  11.606 -2.4799  1.2872 -1.5112
  970MOL0     H33804  11.290   5.291  11.619 -2.8397  3.0247 -0.3408
  970MOL0     H33805  11.225   5.092  11.833  2.1909 -1.4443 -0.4224
  970MOL0     H33806  11.241   5.251  11.887  1.0972 -2.8202  1.6972
  970MOL0     H33807  11.454   5.123  11.724 -1.1269 -0.9113 -0.2906
  970MOL0     H33808  11.466   5.282  11.797  2.8619 -1.8462 -1.0965
  970MOL0     H33809  11.465   5.246  12.101 -0.9799  0.1202  0.5112
  970MOL0     H33810  11.559   4.920  12.296  0.1608  0.3935  0.1337
  970MOL0     H33811  11.481   5.063  12.329 -2.4004  0.7807 -3.2323
  970MOL0     H33812  11.752   5.139  12.223  2.1225  1.7071  2.0406
  970MOL0     H33813  11.686   5.180  12.374  0.0432  0.6130 -0.7197
  970MOL0     H33814  11.740   4.959  12.479 -0.4299  1.1286  0.8940
  970MOL0     H33815  11.781   4.894  12.327 -2.5000 -0.4559  1.4319
  970MOL0     H33816  11.993   4.947  12.427 -1.1440  0.3638  2.1443
  970MOL0     H33817  11.969   5.059  12.301 -4.1698  1.8694 -0.9746
  970MOL0     H33818  11.958   5.326  12.663  0.9059 -2.0664  2.3409
  970MOL0     H33819  12.236   5.524  12.782  0.0305 -0.2065  0.2162
  970MOL0     H33820  12.182   5.378  12.868 -0.5733  1.4660  1.4635
  970MOL0     H33821  12.064   5.486  12.786  0.9795  1.0688  1.1408
  970MOL0     H33822  12.615   5.465  12.268  1.7565  0.8519 -1.7332
  970MOL0     H33823  12.814   5.616  12.228 -0.8507 -0.9072 -1.3406
  970MOL0     H33824  13.046   5.606  12.281 -2.1789 -0.7622  0.5847
  970MOL0     H33825  12.979   5.768  12.233  2.5742  3.2865  1.4059
  970MOL0     H33826  13.235   5.727  12.382 -2.0923 -1.4440 -0.0600
  970MOL0     H33827  13.214   5.745  12.215 -0.1432 -0.9602  0.2552
  970MOL0     H33828  13.263   5.958  12.340 -0.0762 -0.9733  0.8244
  970MOL0     H33829  13.099   5.950  12.408 -0.9675  0.8876  0.1161
  970MOL0     H33830  13.002   5.973  12.181 -1.7451  0.2779  4.1827
  970MOL0     H33831  13.169   5.978  12.111  0.1762  1.8913  0.1650
  970MOL0     H33832  13.221   6.174  12.244  0.5928 -2.8304  1.7637
  970MOL0     H33833  13.082   6.207  12.129  1.8256  2.9177  1.1475
  970MOL0     H33834  13.043   6.151  12.429  0.4457 -0.6492 -0.4398
  970MOL0     H33835  12.923   6.181  12.294  1.3012 -0.0459 -4.3239
  970MOL0     H33836  13.147   6.370  12.372  1.1358 -2.8789 -1.6667
  970MOL0     H33837  12.991   6.361  12.466 -1.1708 -3.9985 -0.8367
  970MOL0     H33838  13.042   6.445  12.173 -0.5590 -0.6489 -0.7673
  970MOL0     H33839  12.994   6.548  12.312  0.5527  0.7079 -2.0114
  970MOL0     H33840  12.861   5.649  12.655 -1.3126  0.2024  0.8366
  970MOL0     H33841  12.663   5.515  12.700 -0.6503 -0.9307 -1.3251
  970MOL0     H33842  12.374   5.236  12.410  0.3361  1.2883  0.2393
  970MOL0     H33843  12.171   5.131  12.341  0.7690 -0.2017  0.0961
  970MOL0     H33844  11.022   5.757  11.108 -2.3816  1.5945 -1.9865
  970MOL0     H33845  11.060   5.992  11.054 -0.2683  2.0002  1.2500
  970MOL0     H33846  11.201   6.343  11.164 -3.7613 -3.7670  4.6324
  970MOL0     H33847  11.303   6.562  11.105  0.2606  1.1134  0.1224
  970MOL0     H33848  11.125   6.958  11.223 -2.3910 -1.2564  0.3640
  970MOL0     H33849  11.163   6.874  11.378  0.2947 -0.0864 -0.3513
  970MOL0     H33850  11.308   7.064  11.367 -2.4312 -0.0857  0.2646
  970MOL0     H33851  11.346   7.018  11.195  3.2672 -5.3941 -0.5100
  970MOL0     H33852  11.417   6.835  11.412  1.1666 -0.4663  0.3646
  970MOL0     H33853  11.472   6.850  11.239  0.9399  0.2516 -0.0173
  970MOL0     H33854  11.628   6.918  11.433 -1.0397 -2.4520 -1.5263
  970MOL0     H33855  11.517   7.054  11.466  0.5376  0.4332 -0.3463
  970MOL0     H33856  11.732   7.173  11.115  0.0744  2.5789  1.6207
  970MOL0     H33857  10.990   6.767  11.307  1.1775  1.3169 -0.8863
  970MOL0     H33858  10.856   6.488  11.481  0.1394  1.6624  1.3212
  970MOL0     H33859  10.812   6.650  11.412 -1.4899 -0.8701  1.2878
  970MOL0     H33860  10.766   6.503  11.336 -1.3349 -1.1462  2.2543
  971MOL0     O33861   3.342   9.016   2.031 -1.0734  0.1788 -0.6244
  971MOL0     C33862   3.287   9.090   2.110 -1.0608 -0.5501 -0.0797
  971MOL0     O33863   3.347   9.205   2.157 -0.1688  0.0371 -0.2927
  971MOL0     C33864   3.436   9.264   2.080 -0.0277 -0.2403  0.0491
  971MOL0     C33865   3.565   9.210   2.047  0.7112 -0.7576  0.1266
  971MOL0     C33866   3.652   9.287   1.965 -0.5010  0.7935 -0.0345
  971MOL0     C33867   3.620   9.417   1.922 -0.9597  0.8957 -0.1606
  971MOL0     O33868   3.716   9.487   1.853  0.1414  0.8388  0.1582
  971MOL0     C33869   3.745   9.623   1.908 -0.2086 -0.2906  0.0499
  971MOL0     C33870   3.719   9.732   1.800 -0.0366 -0.6452 -0.2385
  971MOL0     C33871   3.831   9.728   1.688  0.8200 -0.1011 -0.4603
  971MOL0     C33872   3.820   9.839   1.597  0.6520  0.3596 -0.5151
  971MOL0     C33873   3.909   9.836   1.472  0.0235 -0.4371 -0.6407
  971MOL0     C33874   4.047   9.858   1.512 -0.3903  0.2303 -0.8481
  971MOL0     C33875   4.138   9.897   1.392 -0.4999 -0.4638 -0.5359
  971MOL0     C33876   4.265   9.971   1.430 -0.4210  0.7761 -0.4701
  971MOL0     N33877   4.331   9.904   1.548 -0.9168 -0.0590  0.5279
  971MOL0     C33878   4.368   9.970   1.658  0.7791 -0.4549 -0.2473
  971MOL0     C33879   4.448   9.876   1.724  0.8375 -0.0009 -0.2233
  971MOL0     C33880   4.511   9.889   1.858 -1.1039 -0.0641  0.6160
  971MOL0     C33881   4.638   9.978   1.856  0.5831  0.2233  0.4988
  971MOL0     C33882   4.747   9.920   1.935  0.2909  0.5815 -0.0344
  971MOL0     C33883   4.883   9.997   1.910  0.4576  0.2745 -0.4088
  971MOL0     O33884   4.935  10.053   2.041  0.0646  0.5221 -0.3800
  971MOL0     C33885   5.053  10.121   2.041  0.5723  0.6615 -0.4087
  971MOL0     C33886   5.097  10.160   2.169  0.9083 -0.4857  0.0764
  971MOL0     C33887   5.218  10.228   2.174  0.3517  0.0161 -0.0055
  971MOL0     C33888   5.276  10.254   2.311 -0.5956 -0.4641  0.2146
  971MOL0     C33889   5.295  10.263   2.071  0.2361  0.4240  0.4343
  971MOL0     C33890   5.418  10.344   2.078  1.0573  0.2083  0.4536
  971MOL0     O33891   5.417  10.446   2.169  0.0976 -0.3632  0.1250
  971MOL0     C33892   5.513  10.541   2.177 -0.2899 -0.0630  0.8189
  971MOL0     C33893   5.530  10.616   2.292  0.0063 -0.1918  0.2597
  971MOL0     C33894   5.628  10.716   2.295  0.6849 -0.3608  0.2842
  971MOL0     C33895   5.701  10.749   2.189 -0.2283  0.6337 -0.2061
  971MOL0     O33896   5.792  10.853   2.204  0.0652 -0.2263 -0.8019
  971MOL0     C33897   5.924  10.825   2.165 -0.5001  0.0826 -0.4687
  971MOL0     C33898   6.017  10.933   2.234 -0.0680  0.1604 -0.3139
  971MOL0     C33899   5.958  11.077   2.240  0.8531  0.0911  0.0685
  971MOL0     C33900   6.071  11.174   2.305  1.5182  0.3040  0.2047
  971MOL0     C33901   6.198  11.195   2.224 -0.3363 -0.5990  0.6237
  971MOL0     C33902   6.179  11.226   2.078 -0.2606  0.1388 -0.1595
  971MOL0     C33903   6.297  11.291   2.012  0.0686 -0.2038  0.1262
  971MOL0     C33904   6.420  11.209   2.020  0.5157 -0.9052 -0.5812
  971MOL0    Cl33905   6.406  11.059   1.933 -0.2312  0.4187  0.4315
  971MOL0     C33906   5.677  10.682   2.069 -0.2033 -0.0458 -0.0250
  971MOL0     C33907   5.574  10.583   2.057 -0.0040 -0.2329 -0.2257
  971MOL0     O33908   5.505  10.322   1.997  0.1109  0.3998  0.8766
  971MOL0     C33909   5.261  10.210   1.946  0.8845 -1.2071 -0.1849
  971MOL0     C33910   5.146  10.130   1.932  0.6175 -0.8983  0.2732
  971MOL0     N33911   4.449   9.755   1.652  1.2217 -1.0098 -0.2833
  971MOL0     N33912   4.386   9.785   1.547  1.3145 -0.0679  0.2197
  971MOL0     C33913   3.498   9.472   1.952 -0.0314 -0.6897  0.2241
  971MOL0     C33914   3.410   9.392   2.030 -0.2108 -0.7183 -1.0668
  971MOL0     C33915   3.166   9.051   2.181  1.1315  0.5878  0.4655
  971MOL0     C33916   3.146   9.097   2.306  0.4753  0.6741 -0.5303
  971MOL0     C33917   3.041   9.050   2.379 -0.0460  0.3392 -0.9977
  971MOL0     C33918   2.951   8.957   2.331  0.6362  0.5333  0.2032
  971MOL0     O33919   2.842   8.919   2.403 -0.2580  0.7468 -0.0770
  971MOL0     C33920   2.766   8.797   2.374 -0.2060  0.2410 -0.1862
  971MOL0     C33921   2.702   8.736   2.499 -1.0873 -0.5314 -0.0370
  971MOL0     C33922   2.817   8.688   2.596 -0.0574 -0.7607  0.7930
  971MOL0     C33923   2.786   8.576   2.688  0.0502  0.1065  0.1105
  971MOL0     C33924   2.680   8.605   2.784  0.1518 -0.3287 -0.5570
  971MOL0     C33925   2.602   8.650   2.866  0.8322 -0.6183 -0.1589
  971MOL0     C33926   2.969   8.913   2.200  0.2337 -0.5325  0.1145
  971MOL0     C33927   3.070   8.963   2.121  0.1778  0.0686  0.8407
  971MOL0     C33928   3.074   8.920   1.973  0.1031 -0.6693  0.2122
  971MOL0     H33929   3.594   9.110   2.077  3.0171 -0.2599 -0.2300
  971MOL0     H33930   3.746   9.245   1.931  0.0662  3.1195 -1.6014
  971MOL0     H33931   3.849   9.624   1.943 -0.2397 -0.5034  0.1538
  971MOL0     H33932   3.684   9.644   1.997 -2.2740 -1.6196 -0.9991
  971MOL0     H33933   3.618   9.716   1.761 -1.0050 -0.5219  2.0861
  971MOL0     H33934   3.731   9.827   1.852  1.0731 -0.5102 -0.7076
  971MOL0     H33935   3.928   9.734   1.738  0.9899  1.0884 -0.9203
  971MOL0     H33936   3.815   9.629   1.644 -0.1060  0.6778 -1.9784
  971MOL0     H33937   3.720   9.849   1.555  0.3606  0.5983  0.2179
  971MOL0     H33938   3.844   9.936   1.641  1.5179  0.2400 -0.7045
  971MOL0     H33939   3.861   9.918   1.418 -1.5570 -0.0369  1.2453
  971MOL0     H33940   3.899   9.743   1.415 -1.3057 -1.0809  0.5692
  971MOL0     H33941   4.049   9.937   1.588 -2.1816 -0.3839 -0.0994
  971MOL0     H33942   4.089   9.770   1.562 -0.2477  0.2065 -1.0101
  971MOL0     H33943   4.084   9.978   1.342 -2.4818 -1.0514  0.5523
  971MOL0     H33944   4.169   9.821   1.319  2.9736  0.4521 -0.2112
  971MOL0     H33945   4.338   9.996   1.352 -0.3193  3.4969  0.3764
  971MOL0     H33946   4.222  10.066   1.462  1.9534  2.2450 -1.3431
  971MOL0     H33947   4.344  10.075   1.675 -2.2340 -1.0250 -0.3834
  971MOL0     H33948   4.539   9.790   1.894 -1.8766 -0.1420  1.0252
  971MOL0     H33949   4.438   9.927   1.930 -1.8780 -0.0671 -0.1511
  971MOL0     H33950   4.683   9.985   1.756  1.0273  0.3546  0.7031
  971MOL0     H33951   4.614  10.083   1.877  1.7735  0.4297  0.9032
  971MOL0     H33952   4.721   9.920   2.041 -4.8390 -3.7118 -0.8399
  971MOL0     H33953   4.759   9.813   1.914 -1.4205  0.5714 -1.0874
  971MOL0     H33954   4.951   9.923   1.868  0.5755 -0.7054  1.3836
  971MOL0     H33955   4.871  10.078   1.837 -0.7215 -0.7631 -1.4042
  971MOL0     H33956   5.054  10.124   2.261  1.3087 -1.2684 -0.0310
  971MOL0     H33957   5.380  10.223   2.320  0.7747  3.1659 -1.2822
  971MOL0     H33958   5.208  10.202   2.380  0.5685 -1.6354  0.5265
  971MOL0     H33959   5.273  10.362   2.330 -0.9649 -0.5022  0.3836
  971MOL0     H33960   5.475  10.591   2.382 -0.8898  0.5088 -0.0864
  971MOL0     H33961   5.642  10.786   2.376  0.2303 -1.0217  0.9435
  971MOL0     H33962   5.963  10.725   2.189  1.3283  0.1313 -2.8638
  971MOL0     H33963   5.929  10.826   2.055  3.4680  0.6662 -0.4067
  971MOL0     H33964   6.042  10.896   2.333 -0.8399  0.1312 -0.1250
  971MOL0     H33965   6.109  10.930   2.174  0.0591 -2.4667 -0.0884
  971MOL0     H33966   5.872  11.067   2.307  0.1373  1.2847 -0.6204
  971MOL0     H33967   5.922  11.116   2.144  1.8099  0.9224  0.0320
  971MOL0     H33968   6.096  11.131   2.402 -2.2769 -1.7010  0.4637
  971MOL0     H33969   6.041  11.272   2.344 -0.8659 -0.7315  1.1212
  971MOL0     H33970   6.254  11.281   2.264  0.9406 -0.6822 -0.8799
  971MOL0     H33971   6.260  11.105   2.224  1.2168  0.4113 -0.3377
  971MOL0     H33972   6.092  11.291   2.064  1.1662  1.6978 -2.7174
  971MOL0     H33973   6.163  11.133   2.023 -0.7493  0.1335 -0.0112
  971MOL0     H33974   6.313  11.388   2.059 -0.7302 -0.3473  0.7286
  971MOL0     H33975   6.273  11.296   1.906 -2.0729 -2.2677  0.4133
  971MOL0     H33976   6.449  11.191   2.124  3.8279 -1.8114 -1.5572
  971MOL0     H33977   6.503  11.266   1.979 -0.0642  1.0204  0.7736
  971MOL0     H33978   5.741  10.698   1.983 -1.1536  0.7558 -0.5905
  971MOL0     H33979   5.562  10.534   1.961 -0.3339 -0.0936 -0.2567
  971MOL0     H33980   5.327  10.222   1.861  1.7200  0.6229  0.6796
  971MOL0     H33981   5.133  10.076   1.839 -1.2575 -2.8825  1.5862
  971MOL0     H33982   3.465   9.570   1.918 -1.1264 -0.4184  1.9435
  971MOL0     H33983   3.314   9.437   2.052  0.1619 -0.7865  0.8864
  971MOL0     H33984   3.216   9.169   2.347  2.6585 -1.4910 -0.2200
  971MOL0     H33985   3.026   9.081   2.482  0.6740 -0.5446 -0.6191
  971MOL0     H33986   2.682   8.817   2.308 -1.0733  0.3130  0.9112
  971MOL0     H33987   2.824   8.720   2.322  1.3507 -0.7999  2.8303
  971MOL0     H33988   2.644   8.652   2.461  2.2267 -2.2215 -1.7917
  971MOL0     H33989   2.642   8.815   2.546  1.3497  1.2376  0.2862
  971MOL0     H33990   2.911   8.673   2.542  1.4916  1.5705  2.6339
  971MOL0     H33991   2.839   8.780   2.652 -3.2861  3.2709 -3.6635
  971MOL0     H33992   2.884   8.560   2.735 -0.4739 -2.2843  0.5079
  971MOL0     H33993   2.771   8.486   2.628  2.5586  0.8300 -1.7715
  971MOL0     H33994   2.542   8.678   2.951 -0.0093 -4.4018  0.6481
  971MOL0     H33995   2.900   8.844   2.153  0.1486 -0.5926  0.3257
  971MOL0     H33996   3.162   8.862   1.943  1.0582  0.5116  0.5922
  971MOL0     H33997   2.989   8.860   1.940  0.8097 -1.7599  0.3430
  971MOL0     H33998   3.083   9.009   1.910  1.5663  0.0350  1.3245
  972MOL0     O33999   1.321   8.843   0.027  0.1218  1.2658  0.9570
  972MOL0     C34000   1.262   8.763  -0.044  0.1882  0.6654  0.7865
  972MOL0     O34001   1.321   8.661  -0.119 -0.0132  0.0314 -0.3879
  972MOL0     C34002   1.450   8.611  -0.079 -0.1695 -0.5557 -0.4356
  972MOL0     C34003   1.519   8.635   0.044 -0.0561 -0.3683 -0.0104
  972MOL0     C34004   1.643   8.566   0.063  0.0468 -0.0148  0.1193
  972MOL0     C34005   1.689   8.476  -0.033  0.3223 -0.6120 -1.0279
  972MOL0     O34006   1.792   8.398  -0.003  0.2063 -0.2315  0.6458
  972MOL0     C34007   1.901   8.438   0.088 -0.2997  0.2800 -0.0811
  972MOL0     C34008   2.016   8.341   0.045 -0.1351  0.7008  0.5930
  972MOL0     C34009   1.979   8.199   0.110  0.3220  0.0898 -0.7557
  972MOL0     C34010   2.075   8.095   0.049  0.1566 -0.2313 -0.4139
  972MOL0     C34011   2.215   8.140   0.068 -0.2909 -0.0118 -0.2780
  972MOL0     C34012   2.295   8.013   0.061 -0.5077  0.0904 -0.6745
  972MOL0     C34013   2.439   8.041   0.071 -0.3554  0.1013  0.0449
  972MOL0     C34014   2.509   8.068  -0.052 -0.1957 -0.7649  0.2688
  972MOL0     N34015   2.653   8.026  -0.048 -1.0848 -0.8269 -0.5527
  972MOL0     C34016   2.728   7.995  -0.153  0.5620 -0.6815 -0.3388
  972MOL0     C34017   2.855   7.994  -0.099 -0.0186 -0.3568 -0.1098
  972MOL0     C34018   2.982   7.975  -0.179  0.5893 -0.1176  0.0065
  972MOL0     C34019   3.103   7.952  -0.078 -0.1721  0.4329 -0.2283
  972MOL0     C34020   3.234   7.915  -0.157  0.4522 -0.0136 -0.8388
  972MOL0     C34021   3.351   7.890  -0.066 -0.6906  0.6405  0.0625
  972MOL0     O34022   3.460   7.943  -0.141  0.4791  0.2255  0.8483
  972MOL0     C34023   3.587   7.897  -0.114  0.2485  0.0334 -0.8017
  972MOL0     C34024   3.682   7.939  -0.200 -0.5123 -0.3725  0.4207
  972MOL0     C34025   3.820   7.916  -0.175  0.6120  0.1797  0.2122
  972MOL0     C34026   3.915   7.968  -0.281  0.2585 -0.5070 -0.2439
  972MOL0     C34027   3.866   7.849  -0.055 -0.1278 -0.2804  0.0503
  972MOL0     C34028   4.002   7.820  -0.010 -0.2393 -0.4846  0.0010
  972MOL0     O34029   4.022   7.796   0.122 -0.0238 -0.2315  0.6711
  972MOL0     C34030   4.145   7.778   0.176  0.2923 -0.4532  0.7495
  972MOL0     C34031   4.256   7.869   0.157 -0.0584  0.4986 -0.1128
  972MOL0     C34032   4.379   7.848   0.205  0.2886 -0.2831  0.1215
  972MOL0     C34033   4.399   7.737   0.281 -0.8970  0.0353  0.3025
  972MOL0     O34034   4.526   7.724   0.324 -0.6670 -0.2568 -0.0516
  972MOL0     C34035   4.559   7.604   0.393 -0.7053 -0.1111 -0.6844
  972MOL0     C34036   4.715   7.609   0.405  0.0459 -0.0969  0.7228
  972MOL0     C34037   4.759   7.493   0.491 -0.7992  0.3692 -0.6639
  972MOL0     C34038   4.914   7.481   0.489  0.1812 -0.5804 -0.4299
  972MOL0     C34039   4.978   7.601   0.565  0.8133  0.1514  0.5088
  972MOL0     C34040   5.130   7.583   0.588  0.3672  0.1641 -0.1775
  972MOL0     C34041   5.202   7.672   0.691  0.9517  0.1391  0.1135
  972MOL0     C34042   5.133   7.687   0.828 -0.0410 -0.3791  0.2116
  972MOL0    Cl34043   5.139   7.535   0.924 -0.2860 -0.0902  0.0235
  972MOL0     C34044   4.289   7.654   0.323  0.8245 -0.7514  0.3227
  972MOL0     C34045   4.166   7.673   0.264  0.0094 -0.2856  0.3258
  972MOL0     O34046   4.083   7.822  -0.101  0.1651  0.3893 -0.2257
  972MOL0     C34047   3.762   7.813   0.032  0.4103 -0.2333  0.4581
  972MOL0     C34048   3.630   7.828   0.001 -1.0589  0.2035 -0.2453
  972MOL0     N34049   2.847   8.014   0.037 -0.1693  0.2407  0.2673
  972MOL0     N34050   2.729   8.044   0.063  0.5072 -0.1051  0.5741
  972MOL0     C34051   1.613   8.460  -0.145  0.0820  0.8955  0.4088
  972MOL0     C34052   1.496   8.520  -0.174 -0.1173 -0.3758  0.1678
  972MOL0     C34053   1.116   8.787  -0.081 -0.0716 -0.4229  0.4547
  972MOL0     C34054   1.083   8.748  -0.206  1.8101 -0.1912  0.5498
  972MOL0     C34055   0.949   8.773  -0.261 -1.0700  0.4104  0.5272
  972MOL0     C34056   0.849   8.840  -0.190  0.0309 -0.7003 -0.6517
  972MOL0     O34057   0.729   8.888  -0.235  0.5517 -0.3435  0.2714
  972MOL0     C34058   0.684   8.834  -0.360  0.3657 -0.6081  0.0616
  972MOL0     C34059   0.555   8.903  -0.387  0.4230  0.0242  0.2004
  972MOL0     C34060   0.449   8.855  -0.283  0.3163 -0.4948 -0.5895
  972MOL0     C34061   0.303   8.890  -0.325  0.2098 -0.6719 -0.1844
  972MOL0     C34062   0.196   8.864  -0.221 -0.2575  0.0770  0.9240
  972MOL0     C34063   0.101   8.832  -0.151 -0.3544  0.1296  0.2946
  972MOL0     C34064   0.896   8.883  -0.062  0.0430 -0.5095  0.4508
  972MOL0     C34065   1.021   8.853  -0.004  0.3408 -0.1680 -0.1765
  972MOL0     C34066   1.041   8.906   0.136 -0.3765 -0.2868  0.4953
  972MOL0     H34067   1.482   8.702   0.121  1.8127  0.5197  0.1773
  972MOL0     H34068   1.687   8.597   0.157 -0.6419  0.7279  0.2090
  972MOL0     H34069   1.870   8.425   0.192  2.0148 -0.3349  0.5906
  972MOL0     H34070   1.925   8.542   0.066  0.9163 -0.2107 -1.3193
  972MOL0     H34071   2.015   8.338  -0.064  0.5862  1.1612  0.5640
  972MOL0     H34072   2.117   8.382   0.061  1.3002 -1.3421 -2.3449
  972MOL0     H34073   1.997   8.204   0.218  1.3842 -2.0652 -0.7805
  972MOL0     H34074   1.875   8.168   0.098  0.1474  0.1588  0.4370
  972MOL0     H34075   2.055   7.997   0.093  1.1162 -1.2946 -2.2432
  972MOL0     H34076   2.053   8.074  -0.056 -0.3367 -4.3919  0.3560
  972MOL0     H34077   2.233   8.192   0.163  0.5938 -2.3242  0.8966
  972MOL0     H34078   2.241   8.206  -0.015  1.0313 -0.2835 -0.1096
  972MOL0     H34079   2.273   7.956   0.151 -0.3241  0.7026 -0.2331
  972MOL0     H34080   2.265   7.945  -0.019 -2.1992 -0.0727  0.0530
  972MOL0     H34081   2.487   7.949   0.108 -0.3873 -0.1973 -0.6446
  972MOL0     H34082   2.473   8.115   0.143  2.3514  1.6721 -2.6316
  972MOL0     H34083   2.473   8.015  -0.141  1.5772 -0.1989 -0.8475
  972MOL0     H34084   2.509   8.176  -0.067  0.5049 -0.5435  1.7301
  972MOL0     H34085   2.693   7.980  -0.254  3.6173  0.9810 -1.7835
  972MOL0     H34086   2.993   8.061  -0.245 -0.9643  0.7980  0.8843
  972MOL0     H34087   2.977   7.883  -0.238 -1.1311  0.9566 -1.6322
  972MOL0     H34088   3.130   8.050  -0.037  3.1944  1.1300 -3.5201
  972MOL0     H34089   3.068   7.880  -0.003 -0.9862 -0.1108 -1.0988
  972MOL0     H34090   3.209   7.825  -0.214 -1.9310 -0.7173  1.0886
  972MOL0     H34091   3.264   7.998  -0.221  0.5592  1.6780  1.2780
  972MOL0     H34092   3.351   7.931   0.035 -1.4738 -0.4213  0.5185
  972MOL0     H34093   3.362   7.782  -0.054 -3.9604  0.1510 -0.4900
  972MOL0     H34094   3.640   7.997  -0.282 -1.4143 -0.1022  1.0589
  972MOL0     H34095   3.884   8.063  -0.326  0.8655 -1.5402 -3.0538
  972MOL0     H34096   3.907   7.905  -0.370 -3.0786  1.2569 -1.3797
  972MOL0     H34097   4.015   7.983  -0.241  0.0093 -0.3179  0.3159
  972MOL0     H34098   4.227   7.953   0.095 -0.4894 -0.0327 -0.6357
  972MOL0     H34099   4.460   7.919   0.193 -0.1055  0.2228  0.4241
  972MOL0     H34100   4.508   7.617   0.489 -0.8645 -0.5113 -0.7088
  972MOL0     H34101   4.526   7.517   0.335 -1.1098  0.2310 -0.9722
  972MOL0     H34102   4.747   7.587   0.303 -0.4884 -0.1452  0.5624
  972MOL0     H34103   4.758   7.706   0.431 -2.5846  0.8980  1.6881
  972MOL0     H34104   4.721   7.401   0.447  2.7057 -0.5370 -2.1300
  972MOL0     H34105   4.721   7.496   0.594  1.7021 -2.0357  0.4722
  972MOL0     H34106   4.950   7.490   0.386 -0.1346  1.6492 -0.3896
  972MOL0     H34107   4.944   7.393   0.546 -0.8375 -0.3890  0.4234
  972MOL0     H34108   4.959   7.697   0.515  1.6027 -0.2236 -0.5245
  972MOL0     H34109   4.926   7.609   0.662  1.1764  0.5146  0.6795
  972MOL0     H34110   5.172   7.620   0.494  0.9401 -0.1783 -0.0580
  972MOL0     H34111   5.151   7.477   0.605  1.9103  0.0944 -2.1627
  972MOL0     H34112   5.226   7.768   0.644  3.3055 -0.6627 -0.4804
  972MOL0     H34113   5.301   7.625   0.700  0.6589 -0.8887 -1.5873
  972MOL0     H34114   5.028   7.707   0.802  0.4354  2.5411  0.1737
  972MOL0     H34115   5.163   7.780   0.877 -1.1326  0.4314 -0.5933
  972MOL0     H34116   4.291   7.573   0.394  0.0829 -1.2785 -0.2342
  972MOL0     H34117   4.080   7.611   0.286  0.7123 -1.3739  0.0653
  972MOL0     H34118   3.780   7.758   0.124 -2.1828 -0.1633  1.0947
  972MOL0     H34119   3.552   7.792   0.067 -0.5794 -0.3541  0.0252
  972MOL0     H34120   1.635   8.379  -0.215  0.1094 -2.2445  3.7802
  972MOL0     H34121   1.445   8.505  -0.268 -0.6758 -1.5287  0.6383
  972MOL0     H34122   1.158   8.716  -0.278  2.3773  0.7751  0.6951
  972MOL0     H34123   0.940   8.739  -0.364  1.5318  0.2077  0.2873
  972MOL0     H34124   0.759   8.849  -0.438 -0.4376 -2.2561 -1.1033
  972MOL0     H34125   0.680   8.724  -0.363  0.2087 -0.5953 -3.0077
  972MOL0     H34126   0.524   8.865  -0.485  2.0816  0.1417 -0.3927
  972MOL0     H34127   0.572   9.011  -0.387 -0.5020  0.1915 -0.8578
  972MOL0     H34128   0.451   8.746  -0.274  4.5332 -0.5071  0.2710
  972MOL0     H34129   0.470   8.891  -0.182  2.7646 -0.5414 -1.0084
  972MOL0     H34130   0.274   8.839  -0.417 -3.1372  1.4114 -0.4789
  972MOL0     H34131   0.302   8.994  -0.357  1.2429 -1.5264 -3.3142
  972MOL0     H34132   0.044   8.781  -0.076  1.9577 -1.6436  0.9762
  972MOL0     H34133   0.818   8.937  -0.010 -1.6859 -0.1994 -2.2444
  972MOL0     H34134   1.100   8.831   0.188 -0.3607  0.0682  0.9998
  972MOL0     H34135   1.110   8.991   0.134 -2.5611  1.6057  0.1848
  972MOL0     H34136   0.945   8.919   0.188 -1.1630 -2.0375 -0.4561
  973MOL0     O34137   3.482   6.611   4.972  0.1907  0.0673  0.0948
  973MOL0     C34138   3.462   6.501   5.025  0.0234  0.2537 -0.5944
  973MOL0     O34139   3.566   6.424   5.089  0.3839 -0.3231 -0.0038
  973MOL0     C34140   3.684   6.485   5.115  0.3398  0.5260  0.0408
  973MOL0     C34141   3.689   6.551   5.235  0.9631  0.2123  0.4982
  973MOL0     C34142   3.809   6.606   5.271 -0.5472  0.1954  0.0443
  973MOL0     C34143   3.926   6.605   5.195  0.7002  0.2890  0.4900
  973MOL0     O34144   4.052   6.663   5.218  0.6378  0.4499 -0.1671
  973MOL0     C34145   4.044   6.802   5.220 -0.0314 -0.7882  0.3203
  973MOL0     C34146   4.020   6.879   5.086 -0.4374 -0.0821 -0.0695
  973MOL0     C34147   4.116   6.831   4.981 -0.0169 -0.2363  0.7480
  973MOL0     C34148   4.114   6.935   4.868 -0.8695  0.0931  0.0982
  973MOL0     C34149   4.204   6.879   4.750  0.3878 -0.5686 -0.8182
  973MOL0     C34150   4.133   6.760   4.684  0.7726 -0.0002 -0.3451
  973MOL0     C34151   4.232   6.691   4.588 -0.4230 -0.2675  0.6150
  973MOL0     C34152   4.174   6.568   4.529  0.6646  0.5144  1.0410
  973MOL0     N34153   4.285   6.505   4.455  0.2384 -0.3075 -0.1853
  973MOL0     C34154   4.401   6.448   4.509  0.4757  0.0958  0.3706
  973MOL0     C34155   4.481   6.450   4.402  0.0797  0.4141 -0.0700
  973MOL0     C34156   4.608   6.383   4.407 -0.3352  0.1230 -0.1657
  973MOL0     C34157   4.727   6.461   4.344  0.9361  0.0617 -0.4947
  973MOL0     C34158   4.852   6.371   4.316 -0.1150  0.2413 -0.0442
  973MOL0     C34159   4.951   6.443   4.237 -0.1682 -0.1311  0.5287
  973MOL0     O34160   5.021   6.542   4.316 -0.0833 -0.4656 -0.1138
  973MOL0     C34161   5.149   6.583   4.288  0.3850  0.1201  0.4352
  973MOL0     C34162   5.192   6.572   4.156  0.0667  0.1469 -0.6085
  973MOL0     C34163   5.322   6.601   4.115 -0.1196 -0.0605  0.4150
  973MOL0     C34164   5.342   6.600   3.971  0.6310 -0.5630  0.8512
  973MOL0     C34165   5.408   6.650   4.212 -0.3899  0.3637  0.7477
  973MOL0     C34166   5.536   6.721   4.187  0.1554 -0.1845  0.0557
  973MOL0     O34167   5.619   6.745   4.291 -0.6547  0.6280 -1.0100
  973MOL0     C34168   5.732   6.826   4.279 -0.3030 -0.0762  0.0779
  973MOL0     C34169   5.814   6.814   4.387 -0.2073 -0.0590  0.0949
  973MOL0     C34170   5.938   6.889   4.391  0.3465  0.4307  0.1267
  973MOL0     C34171   5.974   6.978   4.290  0.8451  1.0564  0.2668
  973MOL0     O34172   6.092   7.040   4.299  0.0377  0.1420  0.0925
  973MOL0     C34173   6.169   7.036   4.178  0.4170  0.7409  0.9038
  973MOL0     C34174   6.313   7.065   4.201  0.1632 -0.0891 -0.4723
  973MOL0     C34175   6.381   6.930   4.222 -0.0659  0.0083  0.2435
  973MOL0     C34176   6.517   6.964   4.284  0.1664 -0.2337 -0.1331
  973MOL0     C34177   6.599   7.047   4.194  0.1187 -0.5721 -0.3882
  973MOL0     C34178   6.744   7.044   4.254  0.6465  0.4980  0.0428
  973MOL0     C34179   6.832   7.118   4.151  0.5202  0.5957  0.0108
  973MOL0     C34180   6.974   7.124   4.208  0.7126  0.3554  0.6212
  973MOL0    Cl34181   7.056   6.974   4.212 -0.4486  0.0733  0.1267
  973MOL0     C34182   5.890   6.999   4.186  0.6479  0.0968  0.0611
  973MOL0     C34183   5.773   6.919   4.176  0.2575 -0.2007 -1.1449
  973MOL0     O34184   5.552   6.770   4.078 -0.3525  0.0664 -0.1669
  973MOL0     C34185   5.370   6.636   4.354 -0.0132 -0.7628  0.2885
  973MOL0     C34186   5.240   6.603   4.387 -0.1454 -0.3311 -0.4229
  973MOL0     N34187   4.417   6.499   4.291 -0.1334 -0.0778 -0.1858
  973MOL0     N34188   4.305   6.543   4.324  0.3786  0.1817  0.4054
  973MOL0     C34189   3.911   6.540   5.070  0.5520 -0.2615  0.6296
  973MOL0     C34190   3.792   6.474   5.033  0.6778  0.1584  0.8814
  973MOL0     C34191   3.352   6.408   4.968  0.4528 -0.7292 -0.3759
  973MOL0     C34192   3.284   6.449   4.852 -0.4290  0.5357  0.3915
  973MOL0     C34193   3.208   6.358   4.782  0.7900  0.8826 -0.3357
  973MOL0     C34194   3.175   6.234   4.833  0.3994 -0.7322  0.2965
  973MOL0     O34195   3.080   6.163   4.772 -1.1178  0.0026  0.1038
  973MOL0     C34196   2.959   6.141   4.844 -0.0964 -0.3696  0.8670
  973MOL0     C34197   2.928   5.988   4.856  0.3438  0.1916  0.2013
  973MOL0     C34198   2.883   5.926   4.729  0.0489 -0.1877 -0.6220
  973MOL0     C34199   2.840   5.775   4.762 -0.7981 -0.5932  0.2373
  973MOL0     C34200   2.707   5.770   4.833 -0.8242  1.1334 -0.7767
  973MOL0     C34201   2.601   5.764   4.892  0.2872 -0.0537 -0.5301
  973MOL0     C34202   3.236   6.190   4.953 -0.3831 -0.4327  0.6225
  973MOL0     C34203   3.325   6.278   5.019  0.0978  0.1403 -0.5047
  973MOL0     C34204   3.378   6.225   5.148 -0.2686  0.8503 -0.5417
  973MOL0     H34205   3.599   6.563   5.295 -0.4036  2.6159 -1.8205
  973MOL0     H34206   3.813   6.648   5.371 -1.3873  0.5992 -0.0762
  973MOL0     H34207   4.137   6.846   5.258 -1.1890  1.4836  0.7069
  973MOL0     H34208   3.964   6.829   5.289 -2.5248 -1.5704 -2.0904
  973MOL0     H34209   3.924   6.843   5.048  0.0647 -0.6632 -0.8255
  973MOL0     H34210   4.024   6.986   5.104 -0.7471  0.2151 -1.6767
  973MOL0     H34211   4.217   6.821   5.021  0.6437  1.2235 -0.4532
  973MOL0     H34212   4.080   6.734   4.946 -2.9647  0.0756  2.5984
  973MOL0     H34213   4.011   6.941   4.831 -0.6296 -0.0934 -0.6253
  973MOL0     H34214   4.152   7.034   4.895  1.2535 -1.1277  1.9337
  973MOL0     H34215   4.296   6.848   4.800 -2.3722 -1.5334  4.3635
  973MOL0     H34216   4.222   6.955   4.674  0.8732 -0.5663 -0.7047
  973MOL0     H34217   4.086   6.681   4.743  1.3627 -2.0003 -2.4040
  973MOL0     H34218   4.050   6.800   4.625  1.8763  0.4794 -1.6114
  973MOL0     H34219   4.325   6.673   4.643 -0.8723 -0.7448  1.2441
  973MOL0     H34220   4.249   6.764   4.509  2.0979 -2.5546 -1.1815
  973MOL0     H34221   4.144   6.502   4.611 -0.3081  1.3823  1.4042
  973MOL0     H34222   4.090   6.575   4.459  2.0562 -2.9416 -1.2442
  973MOL0     H34223   4.419   6.404   4.607 -1.9586 -3.5470 -0.6283
  973MOL0     H34224   4.596   6.293   4.346 -0.2175 -0.0909  0.1203
  973MOL0     H34225   4.640   6.332   4.499  1.3028 -2.3355 -1.9446
  973MOL0     H34226   4.690   6.503   4.250  1.9810 -0.3575 -1.0999
  973MOL0     H34227   4.765   6.547   4.400  2.8026  0.3076 -2.0544
  973MOL0     H34228   4.896   6.336   4.410  0.2668 -0.2027 -0.3842
  973MOL0     H34229   4.819   6.281   4.263 -0.2139  1.2813 -1.7916
  973MOL0     H34230   5.030   6.371   4.214  2.3971  1.8290  2.5736
  973MOL0     H34231   4.894   6.484   4.153  0.2173  2.0017  1.2609
  973MOL0     H34232   5.121   6.538   4.082  0.0916  1.3168 -1.1941
  973MOL0     H34233   5.445   6.592   3.936  0.1511  1.5750 -1.3779
  973MOL0     H34234   5.299   6.693   3.932 -2.4628 -2.0577  0.3779
  973MOL0     H34235   5.292   6.514   3.925  0.8951 -0.0397 -0.4796
  973MOL0     H34236   5.794   6.742   4.466  0.5259 -2.2551 -1.6261
  973MOL0     H34237   5.994   6.888   4.484  0.5064 -3.1438  0.1635
  973MOL0     H34238   6.157   6.939   4.129 -1.6059  1.7330 -0.7243
  973MOL0     H34239   6.136   7.103   4.098  0.5177 -1.2610 -0.8888
  973MOL0     H34240   6.348   7.102   4.104 -2.1282  0.1146 -1.2779
  973MOL0     H34241   6.309   7.139   4.282 -0.9376  2.2653 -2.5339
  973MOL0     H34242   6.391   6.886   4.123  2.2490  0.4820  0.2083
  973MOL0     H34243   6.323   6.864   4.288 -1.5447 -1.0044 -1.9553
  973MOL0     H34244   6.559   6.866   4.309  0.2559 -0.3053 -0.5689
  973MOL0     H34245   6.499   7.017   4.378 -4.6610 -3.0747  0.9016
  973MOL0     H34246   6.604   7.008   4.092 -2.2458  0.8519 -1.1237
  973MOL0     H34247   6.556   7.147   4.185  1.5483  0.1462  0.4324
  973MOL0     H34248   6.788   6.947   4.277 -0.6775 -0.0021  0.5527
  973MOL0     H34249   6.751   7.095   4.351  0.1438  0.7473 -0.0465
  973MOL0     H34250   6.793   7.220   4.145 -0.5312  0.3190  1.5499
  973MOL0     H34251   6.821   7.076   4.050 -1.6133 -1.3655  0.9759
  973MOL0     H34252   6.960   7.156   4.311 -0.8527  0.8362  0.2778
  973MOL0     H34253   7.033   7.201   4.157  0.3515  0.5479  0.4902
  973MOL0     H34254   5.923   7.080   4.122  0.5384  1.2743  1.4298
  973MOL0     H34255   5.703   6.936   4.095 -2.2327 -1.4335  0.6242
  973MOL0     H34256   5.436   6.665   4.435  2.5818 -3.6125 -0.6222
  973MOL0     H34257   5.204   6.600   4.489  2.0091 -0.3433  0.3947
  973MOL0     H34258   3.989   6.546   4.995 -0.1323 -2.3887 -0.3011
  973MOL0     H34259   3.789   6.430   4.933  2.2642 -0.2620  1.0015
  973MOL0     H34260   3.298   6.549   4.814  2.2748  0.0708 -0.0447
  973MOL0     H34261   3.157   6.390   4.692 -0.6621  0.4658  0.3056
  973MOL0     H34262   2.964   6.195   4.939  1.3677  1.4605 -0.1770
  973MOL0     H34263   2.883   6.192   4.784  1.0049 -1.2165 -1.3873
  973MOL0     H34264   2.854   5.987   4.937  4.1531  1.4274  4.0702
  973MOL0     H34265   3.008   5.926   4.898  0.7159  0.3697 -0.2355
  973MOL0     H34266   2.796   5.975   4.683  0.2607 -0.7177 -1.6071
  973MOL0     H34267   2.966   5.924   4.658  2.2274  0.2833  1.7807
  973MOL0     H34268   2.924   5.720   4.805 -0.4078 -0.3403 -0.1940
  973MOL0     H34269   2.830   5.723   4.667  0.5763 -3.3575  1.4813
  973MOL0     H34270   2.505   5.755   4.938  1.2889  0.5158  1.8056
  973MOL0     H34271   3.209   6.093   4.993 -3.2774 -0.4571 -1.0542
  973MOL0     H34272   3.465   6.164   5.124 -1.3758 -0.1267 -2.3141
  973MOL0     H34273   3.393   6.301   5.225 -1.5047  0.7301 -0.1602
  973MOL0     H34274   3.305   6.154   5.190 -0.8928  0.5351 -2.0865
  974MOL0     O34275   6.048   6.409   4.608 -0.6903 -0.7825 -0.4539
  974MOL0     C34276   5.982   6.443   4.512 -0.6187 -0.1992  0.0919
  974MOL0     O34277   6.039   6.502   4.397  0.1750  0.3987 -0.2277
  974MOL0     C34278   6.171   6.484   4.357 -0.9275 -0.7270  0.5160
  974MOL0     C34279   6.205   6.570   4.248  0.1022 -0.3866 -0.6397
  974MOL0     C34280   6.336   6.576   4.199 -0.3388 -0.2221  0.3129
  974MOL0     C34281   6.436   6.484   4.239  0.4845 -0.1950  0.1048
  974MOL0     O34282   6.556   6.489   4.160  0.1984  0.5219  0.1014
  974MOL0     C34283   6.668   6.406   4.184  0.2820 -0.0263 -0.3722
  974MOL0     C34284   6.733   6.412   4.325  0.4996 -1.0472  0.2620
  974MOL0     C34285   6.836   6.523   4.331 -0.0137  0.4488 -0.4263
  974MOL0     C34286   6.952   6.486   4.429  0.1904  0.0975  0.3324
  974MOL0     C34287   7.063   6.596   4.458  0.1789  0.3075  0.7356
  974MOL0     C34288   7.143   6.638   4.329 -0.1903  0.4133 -0.4842
  974MOL0     C34289   7.246   6.749   4.369 -0.7071 -0.4976 -0.3079
  974MOL0     C34290   7.342   6.800   4.272  0.4884  0.2068  0.0661
  974MOL0     N34291   7.439   6.887   4.343 -0.8969  0.4502  0.1641
  974MOL0     C34292   7.405   6.979   4.437  0.4429  0.1861  0.2708
  974MOL0     C34293   7.519   7.019   4.489 -0.6555  0.4434 -0.3855
  974MOL0     C34294   7.555   7.104   4.616 -0.3201  0.1150  0.3659
  974MOL0     C34295   7.648   7.220   4.571  0.5579 -0.1965  0.1901
  974MOL0     C34296   7.671   7.328   4.675 -0.0326  0.2498  0.2029
  974MOL0     C34297   7.744   7.452   4.616 -0.0607  0.0975 -0.0398
  974MOL0     O34298   7.874   7.410   4.570  0.1136  0.4406 -0.0813
  974MOL0     C34299   7.971   7.377   4.661  0.0554 -0.7452  0.0773
  974MOL0     C34300   8.086   7.325   4.606  0.7854 -0.6389  0.3609
  974MOL0     C34301   8.203   7.312   4.673  0.5749  0.1319  0.6920
  974MOL0     C34302   8.311   7.236   4.604  0.1025 -0.0922 -1.2430
  974MOL0     C34303   8.210   7.338   4.806 -0.2410  0.3903 -0.0843
  974MOL0     C34304   8.332   7.318   4.884  0.2526 -0.3762 -0.2588
  974MOL0     O34305   8.461   7.338   4.823  0.1615 -0.3171 -0.0270
  974MOL0     C34306   8.573   7.289   4.894  0.4113 -0.4660 -0.1079
  974MOL0     C34307   8.598   7.293   5.038  0.8057 -0.6807  0.0067
  974MOL0     C34308   8.715   7.239   5.091  0.1193 -0.9157 -0.6025
  974MOL0     C34309   8.808   7.178   5.010 -0.0085  0.8914 -0.2489
  974MOL0     O34310   8.914   7.108   5.059  0.1581  0.3526 -0.4685
  974MOL0     C34311   9.026   7.075   4.981 -0.0007  0.2343 -0.1204
  974MOL0     C34312   9.040   6.924   4.980  0.7864 -0.2174  0.9269
  974MOL0     C34313   9.160   6.893   4.888 -0.7834  1.1371  0.5703
  974MOL0     C34314   9.187   6.738   4.876 -0.8625 -0.0660 -0.8739
  974MOL0     C34315   9.303   6.683   4.793 -0.2293 -0.2223  0.0939
  974MOL0     C34316   9.438   6.747   4.841  1.2080  0.1223 -0.0520
  974MOL0     C34317   9.549   6.721   4.741 -0.7345  0.8236  0.4591
  974MOL0     C34318   9.665   6.816   4.774  0.5512 -0.7969 -0.1812
  974MOL0    Cl34319   9.742   6.767   4.925  0.1238 -0.1633 -0.0956
  974MOL0     C34320   8.777   7.172   4.874  0.2521 -0.0223  0.8399
  974MOL0     C34321   8.666   7.233   4.813 -0.7924  0.9076  0.1028
  974MOL0     O34322   8.320   7.273   4.998  0.2321  0.3787 -0.1058
  974MOL0     C34323   8.094   7.386   4.870  0.0864  0.4051  1.0311
  974MOL0     C34324   7.980   7.410   4.796  0.1045  0.0044  0.0339
  974MOL0     N34325   7.625   6.948   4.432 -0.3708  0.0304  0.3531
  974MOL0     N34326   7.576   6.868   4.335  0.6887  0.3048  0.6131
  974MOL0     C34327   6.399   6.390   4.337  0.9166  0.2530 -0.3387
  974MOL0     C34328   6.275   6.394   4.398  1.0998  0.2169 -0.5367
  974MOL0     C34329   5.830   6.444   4.537 -0.1807 -0.3374 -0.0282
  974MOL0     C34330   5.771   6.474   4.663  0.1687  0.1558  0.4739
  974MOL0     C34331   5.626   6.477   4.683 -0.0270  0.3395  0.8032
  974MOL0     C34332   5.541   6.447   4.580  0.6590 -0.6249  0.5671
  974MOL0     O34333   5.405   6.449   4.603  0.5905  0.2741 -0.4578
  974MOL0     C34334   5.365   6.353   4.704 -0.6728 -0.3140  0.1284
  974MOL0     C34335   5.216   6.332   4.723 -0.0926  0.2283  0.0976
  974MOL0     C34336   5.154   6.261   4.613  0.5304  0.3255  0.2341
  974MOL0     C34337   5.018   6.201   4.649  0.4883  0.3078  0.6800
  974MOL0     C34338   5.033   6.071   4.719 -1.2080 -0.7979 -0.8681
  974MOL0     C34339   5.046   5.967   4.773  0.2088  0.0645  1.3951
  974MOL0     C34340   5.594   6.424   4.459 -0.1816 -0.0030  0.2264
  974MOL0     C34341   5.732   6.425   4.429  0.2835  0.6559  0.1183
  974MOL0     C34342   5.769   6.409   4.288  0.0594 -0.8866 -0.8269
  974MOL0     H34343   6.136   6.642   4.204 -1.0594  0.2920  2.0974
  974MOL0     H34344   6.357   6.641   4.114  2.2657  0.9479  1.7123
  974MOL0     H34345   6.739   6.424   4.103  1.5686  0.3689  0.7980
  974MOL0     H34346   6.638   6.301   4.174  1.6481 -0.5885  0.9815
  974MOL0     H34347   6.662   6.431   4.406 -0.6861 -1.2477 -0.7137
  974MOL0     H34348   6.790   6.321   4.346  2.6843  0.1951 -0.0073
  974MOL0     H34349   6.879   6.530   4.231 -0.4946  1.4206 -0.5724
  974MOL0     H34350   6.794   6.616   4.370 -1.6357 -0.8342  1.0881
  974MOL0     H34351   6.909   6.477   4.528  3.7543  1.2080  2.1631
  974MOL0     H34352   6.998   6.391   4.401  0.4355  0.4694 -0.5834
  974MOL0     H34353   7.123   6.540   4.531 -0.3848 -1.1691  0.1016
  974MOL0     H34354   7.024   6.685   4.509 -0.9348  0.7822 -0.8803
  974MOL0     H34355   7.199   6.559   4.277  1.4780  0.2344  1.4564
  974MOL0     H34356   7.073   6.681   4.257 -1.0565 -0.4892 -0.1991
  974MOL0     H34357   7.301   6.710   4.454  0.3077 -2.2022 -1.6764
  974MOL0     H34358   7.179   6.833   4.389 -1.3753 -0.2422 -3.1179
  974MOL0     H34359   7.401   6.720   4.225  0.4204  0.8189 -1.1023
  974MOL0     H34360   7.287   6.852   4.193 -0.0384 -0.0640  0.2489
  974MOL0     H34361   7.312   6.991   4.491  1.0845  0.9688  1.2360
  974MOL0     H34362   7.608   7.045   4.690 -0.9119 -0.5864  0.2427
  974MOL0     H34363   7.463   7.137   4.666 -0.7692 -1.2729  0.4920
  974MOL0     H34364   7.745   7.182   4.538  1.9047  2.8485  0.2697
  974MOL0     H34365   7.603   7.271   4.485  0.0947 -2.0483 -0.7273
  974MOL0     H34366   7.585   7.366   4.732  1.3277  1.7136  1.3849
  974MOL0     H34367   7.738   7.291   4.753 -3.3684 -4.2041  1.3813
  974MOL0     H34368   7.688   7.493   4.531  0.8051  1.2936 -0.0587
  974MOL0     H34369   7.760   7.528   4.693  0.7967  0.7042 -0.7893
  974MOL0     H34370   8.084   7.292   4.502  2.2089  0.8540 -0.1761
  974MOL0     H34371   8.364   7.174   4.677 -1.4117  1.3864  1.2949
  974MOL0     H34372   8.379   7.307   4.556  1.1946  2.7726  3.8400
  974MOL0     H34373   8.272   7.166   4.529 -0.4710  0.2584 -1.2750
  974MOL0     H34374   8.517   7.336   5.096  2.0647 -1.4990  2.4784
  974MOL0     H34375   8.733   7.242   5.198  2.8058  1.9431 -0.9792
  974MOL0     H34376   9.017   7.106   4.877 -0.1202 -0.4495 -0.3111
  974MOL0     H34377   9.117   7.123   5.020  0.8428  0.4935 -2.2996
  974MOL0     H34378   9.069   6.888   5.079  2.3553  1.0940  0.9795
  974MOL0     H34379   8.956   6.860   4.950  2.3740 -1.3967 -1.3796
  974MOL0     H34380   9.244   6.940   4.941 -1.3497  0.3755  2.1848
  974MOL0     H34381   9.171   6.938   4.789  0.2448 -2.2085 -0.9467
  974MOL0     H34382   9.105   6.698   4.816  0.1260  1.2471 -3.1992
  974MOL0     H34383   9.188   6.695   4.977  3.2655  1.1445 -0.2015
  974MOL0     H34384   9.304   6.574   4.804 -0.0969 -0.4588 -1.8954
  974MOL0     H34385   9.279   6.702   4.688  0.0960 -1.3730 -0.2131
  974MOL0     H34386   9.464   6.714   4.942  0.0261 -0.0772  0.2117
  974MOL0     H34387   9.424   6.855   4.842  2.2085  0.2661  2.1776
  974MOL0     H34388   9.514   6.746   4.641 -0.9923  3.7382  1.1806
  974MOL0     H34389   9.589   6.620   4.737 -1.6774  0.4612 -0.2427
  974MOL0     H34390   9.633   6.920   4.786 -1.1983 -1.0055 -2.5940
  974MOL0     H34391   9.722   6.818   4.681 -1.0594  0.3735 -1.1879
  974MOL0     H34392   8.841   7.122   4.803 -0.1569  2.2896 -1.3003
  974MOL0     H34393   8.638   7.220   4.709  0.8949 -3.2209 -0.0262
  974MOL0     H34394   8.087   7.403   4.976 -3.1209  2.4926  0.6134
  974MOL0     H34395   7.890   7.448   4.843  0.8963  2.4566 -0.3014
  974MOL0     H34396   6.470   6.322   4.383  1.5524  0.7878 -0.5098
  974MOL0     H34397   6.239   6.327   4.475  0.4608  0.5581 -0.5270
  974MOL0     H34398   5.840   6.498   4.743  2.1779 -0.4732 -0.9933
  974MOL0     H34399   5.595   6.510   4.781  1.1514  0.7645  1.0487
  974MOL0     H34400   5.415   6.258   4.684 -3.0187 -1.8099  1.0010
  974MOL0     H34401   5.408   6.399   4.793  2.4127  0.8400 -1.8095
  974MOL0     H34402   5.158   6.423   4.742  0.6277  0.6317  0.4285
  974MOL0     H34403   5.204   6.268   4.811  0.5085 -1.5781 -1.0912
  974MOL0     H34404   5.140   6.322   4.523  0.3991  0.9118  0.6469
  974MOL0     H34405   5.222   6.180   4.585  0.5684  0.3789  0.1717
  974MOL0     H34406   4.969   6.188   4.552 -0.0619  1.6494  0.7654
  974MOL0     H34407   4.951   6.267   4.705 -0.1829  0.4429 -0.2561
  974MOL0     H34408   5.036   5.874   4.824 -1.0978 -0.5978  0.0232
  974MOL0     H34409   5.524   6.423   4.376  0.1914 -0.1699 -0.0870
  974MOL0     H34410   5.877   6.422   4.273  1.0242 -2.0534  3.8022
  974MOL0     H34411   5.755   6.307   4.251 -2.2071  0.2109 -3.3412
  974MOL0     H34412   5.714   6.484   4.230  2.0123  2.5781  1.4475
  975MOL0     O34413   6.851   7.740  10.526  0.4807 -0.1060  0.1123
  975MOL0     C34414   6.830   7.625  10.485  0.0909 -0.2846 -0.0156
  975MOL0     O34415   6.921   7.538  10.468 -0.4341 -0.0851  0.0073
  975MOL0     C34416   7.048   7.563  10.482  0.0466  0.2889 -0.9597
  975MOL0     C34417   7.103   7.596  10.607 -0.4573  0.3625 -0.3926
  975MOL0     C34418   7.243   7.594  10.621  0.0907 -0.7785 -0.2063
  975MOL0     C34419   7.324   7.568  10.516  0.6101 -0.4695  0.2503
  975MOL0     O34420   7.456   7.587  10.517 -0.1318 -0.2444  0.4134
  975MOL0     C34421   7.498   7.722  10.542 -0.1618 -0.4602 -0.8008
  975MOL0     C34422   7.644   7.736  10.596  0.4362 -0.1435  0.9666
  975MOL0     C34423   7.746   7.692  10.488  0.7025  0.5382 -0.1834
  975MOL0     C34424   7.811   7.799  10.402  0.2774  0.0441  0.1296
  975MOL0     C34425   7.921   7.754  10.302 -0.9198 -0.1867 -0.2106
  975MOL0     C34426   8.061   7.786  10.349  0.6856 -0.6768 -0.3186
  975MOL0     C34427   8.166   7.746  10.242 -0.2165 -0.1510 -0.5259
  975MOL0     C34428   8.219   7.604  10.254 -0.3764  0.5600 -0.3210
  975MOL0     N34429   8.334   7.587  10.160 -0.4320  0.1303 -0.2352
  975MOL0     C34430   8.453   7.652  10.170  0.7180  0.3834  0.1851
  975MOL0     C34431   8.528   7.598  10.071  0.5889  0.3000 -0.4177
  975MOL0     C34432   8.668   7.641  10.041  0.3746  0.1189 -0.6549
  975MOL0     C34433   8.763   7.562  10.133 -0.0227  0.5068  0.1658
  975MOL0     C34434   8.880   7.646  10.186 -0.2061 -0.5220 -0.6013
  975MOL0     C34435   8.957   7.707  10.063  0.0018  0.6534  0.5661
  975MOL0     O34436   9.098   7.727  10.087  0.2655  1.3334 -0.2898
  975MOL0     C34437   9.184   7.617  10.099  0.4962 -0.0808  0.1924
  975MOL0     C34438   9.151   7.482  10.060 -0.3086 -0.0752 -0.6278
  975MOL0     C34439   9.263   7.388  10.070  0.2617 -0.2768  0.0508
  975MOL0     C34440   9.233   7.248  10.028 -0.0446  0.3231  0.7342
  975MOL0     C34441   9.391   7.426  10.119  0.1739 -0.6001  0.5468
  975MOL0     C34442   9.510   7.334  10.149  0.5625 -0.5632  0.6866
  975MOL0     O34443   9.585   7.365  10.255 -0.6575  0.2074 -0.4508
  975MOL0     C34444   9.708   7.303  10.271 -0.0183 -0.6094 -0.1346
  975MOL0     C34445   9.832   7.379  10.250  0.0379  0.3055 -0.4582
  975MOL0     C34446   9.952   7.310  10.269 -0.7548 -0.1026  0.7338
  975MOL0     C34447   9.957   7.166  10.294  0.5212  0.4586 -0.2819
  975MOL0     O34448  10.064   7.091  10.329 -0.9199 -0.0483  0.0669
  975MOL0     C34449  10.189   7.156  10.312  0.2041  0.3003 -0.1611
  975MOL0     C34450  10.233   7.216  10.445  0.4106  1.1671  1.1742
  975MOL0     C34451  10.324   7.335  10.418  0.2024  0.1971 -0.3361
  975MOL0     C34452  10.345   7.399  10.559  0.4152  0.0243  0.6621
  975MOL0     C34453  10.466   7.356  10.641  0.5846 -0.6005  0.0624
  975MOL0     C34454  10.436   7.240  10.740  0.1346  0.7566  0.6260
  975MOL0     C34455  10.566   7.216  10.812  0.3106  0.0717 -0.1863
  975MOL0     C34456  10.561   7.089  10.898 -0.2530 -0.5917  0.2207
  975MOL0    Cl34457  10.429   7.105  11.013 -0.1982 -0.3011 -0.1946
  975MOL0     C34458   9.828   7.104  10.303 -0.3208 -0.2983  0.3998
  975MOL0     C34459   9.714   7.172  10.284  0.9141  0.2452 -0.8278
  975MOL0     O34460   9.534   7.248  10.071  0.2323  0.0324 -0.6294
  975MOL0     C34461   9.409   7.562  10.153 -0.7408 -0.0774  0.0997
  975MOL0     C34462   9.312   7.658  10.138  0.0906  0.6483  0.7011
  975MOL0     N34463   8.456   7.506  10.006 -1.1374 -0.0539 -0.2569
  975MOL0     N34464   8.339   7.502  10.054  0.6335  0.2869  0.1043
  975MOL0     C34465   7.265   7.532  10.393  0.5738 -1.0810  0.2651
  975MOL0     C34466   7.129   7.539  10.373  0.0785 -0.0499  0.3335
  975MOL0     C34467   6.687   7.580  10.473  0.5563 -0.9016  0.5068
  975MOL0     C34468   6.585   7.672  10.497  0.1779 -0.1972  0.0363
  975MOL0     C34469   6.452   7.629  10.501  0.4148  0.4636  0.0866
  975MOL0     C34470   6.411   7.504  10.455 -0.1830  0.5926 -0.2164
  975MOL0     O34471   6.285   7.469  10.425 -0.0287 -0.0146  0.4593
  975MOL0     C34472   6.178   7.563  10.424 -0.1285 -0.7563 -0.3586
  975MOL0     C34473   6.044   7.514  10.382 -0.6205  0.4536 -0.1955
  975MOL0     C34474   5.926   7.613  10.395 -0.1537  0.3137  0.0629
  975MOL0     C34475   5.793   7.546  10.336 -0.3206  0.4383 -0.9684
  975MOL0     C34476   5.720   7.465  10.432  0.3800  0.3544  0.0791
  975MOL0     C34477   5.649   7.400  10.508  0.1656 -0.0813 -0.4140
  975MOL0     C34478   6.517   7.418  10.413  0.1476  0.2700 -0.3959
  975MOL0     C34479   6.653   7.450  10.430 -0.0722 -0.0533 -0.5003
  975MOL0     C34480   6.752   7.334  10.406  1.0048 -0.3742 -0.1861
  975MOL0     H34481   7.031   7.611  10.687 -1.4295 -0.7469 -1.0253
  975MOL0     H34482   7.293   7.618  10.714  2.0623  1.6432 -1.7584
  975MOL0     H34483   7.439   7.761  10.625  2.7949 -2.4119  2.5234
  975MOL0     H34484   7.471   7.791  10.462 -3.0079  0.2963  0.6980
  975MOL0     H34485   7.668   7.839  10.622 -0.3606  0.1500  0.5500
  975MOL0     H34486   7.656   7.674  10.686 -1.9878 -1.5029  0.4177
  975MOL0     H34487   7.815   7.628  10.543 -1.6053 -1.9413  0.0545
  975MOL0     H34488   7.694   7.618  10.426 -3.9064  1.9776  1.4901
  975MOL0     H34489   7.740   7.854  10.340 -0.9592 -3.2672 -1.6317
  975MOL0     H34490   7.856   7.873  10.469 -0.7117  0.6662  0.1258
  975MOL0     H34491   7.901   7.809  10.209 -0.9316  0.0662 -0.0608
  975MOL0     H34492   7.910   7.650  10.271 -0.1275 -0.1682 -0.5627
  975MOL0     H34493   8.062   7.894  10.364 -0.7249 -0.3039 -2.4611
  975MOL0     H34494   8.084   7.743  10.447  0.1409  1.3987  0.7883
  975MOL0     H34495   8.257   7.806  10.247  0.0464 -0.4503 -1.5920
  975MOL0     H34496   8.122   7.759  10.142 -0.9462  1.2911 -0.0595
  975MOL0     H34497   8.252   7.576  10.354 -0.8737 -2.4316 -0.9014
  975MOL0     H34498   8.139   7.530  10.237 -0.3903 -0.2410  2.7694
  975MOL0     H34499   8.493   7.727  10.237  1.0122  1.7685 -1.4917
  975MOL0     H34500   8.672   7.749  10.053  0.8770  0.1054 -0.6535
  975MOL0     H34501   8.681   7.620   9.935  0.2345 -2.9199 -0.1689
  975MOL0     H34502   8.712   7.524  10.223  1.2944  0.0755  0.7645
  975MOL0     H34503   8.803   7.471  10.087  2.3593 -0.0635  2.9910
  975MOL0     H34504   8.835   7.723  10.249  0.5066 -0.4736 -0.1511
  975MOL0     H34505   8.937   7.578  10.249 -1.5173 -4.0396 -2.8615
  975MOL0     H34506   8.944   7.639   9.978 -0.1603 -0.8782  1.7703
  975MOL0     H34507   8.902   7.800  10.044  0.2897  1.0464  1.5893
  975MOL0     H34508   9.046   7.464  10.043 -0.3065 -2.9397  1.5259
  975MOL0     H34509   9.311   7.224   9.955 -0.4841  3.9088 -1.1136
  975MOL0     H34510   9.135   7.244   9.979  0.6356  0.1019 -0.6459
  975MOL0     H34511   9.243   7.182  10.115  1.4914  0.0042  0.3413
  975MOL0     H34512   9.834   7.485  10.228  1.5398  0.5227  0.6019
  975MOL0     H34513  10.045   7.365  10.258 -2.0323  1.9614 -0.3731
  975MOL0     H34514  10.251   7.073  10.278  1.7392  1.1359  0.4898
  975MOL0     H34515  10.192   7.225  10.227 -2.2722  2.1605  1.1376
  975MOL0     H34516  10.149   7.249  10.506 -0.2019 -0.8637  1.4897
  975MOL0     H34517  10.282   7.135  10.499 -0.8860 -0.5034 -0.0622
  975MOL0     H34518  10.271   7.414  10.364 -2.7449  0.5281  2.6597
  975MOL0     H34519  10.416   7.297  10.374 -0.5837 -0.4757 -1.4687
  975MOL0     H34520  10.253   7.398  10.617 -0.1092 -0.8424 -0.1593
  975MOL0     H34521  10.367   7.505  10.542 -0.6147 -0.1234 -2.2253
  975MOL0     H34522  10.549   7.325  10.578 -0.7282 -0.1909 -1.9779
  975MOL0     H34523  10.503   7.446  10.691 -0.0472 -1.2959  1.8286
  975MOL0     H34524  10.411   7.153  10.679 -2.2426 -0.2029  2.7864
  975MOL0     H34525  10.349   7.247  10.806 -0.7183  0.2789 -0.4197
  975MOL0     H34526  10.589   7.303  10.874 -2.7013  0.5925  0.3344
  975MOL0     H34527  10.639   7.194  10.732 -1.0983 -0.4320 -1.3808
  975MOL0     H34528  10.655   7.063  10.948 -1.2810 -0.8458  2.0803
  975MOL0     H34529  10.534   7.002  10.837 -0.0458  0.3058 -1.1870
  975MOL0     H34530   9.810   6.998  10.316  0.3345 -0.8608 -2.5887
  975MOL0     H34531   9.620   7.122  10.310  1.0404  1.1887  1.7550
  975MOL0     H34532   9.505   7.598  10.188 -0.8986  1.4060 -0.9138
  975MOL0     H34533   9.340   7.760  10.162  2.7087 -0.0742  1.0584
  975MOL0     H34534   7.327   7.520  10.305  0.5713 -1.2561  0.2870
  975MOL0     H34535   7.085   7.529  10.275  1.9254 -0.7156 -0.4671
  975MOL0     H34536   6.595   7.773  10.534 -0.3698  0.9802 -2.8282
  975MOL0     H34537   6.380   7.699  10.542  0.6442 -0.1678  1.6468
  975MOL0     H34538   6.167   7.607  10.523  1.0822  3.2328 -1.8024
  975MOL0     H34539   6.204   7.648  10.360 -3.4035  3.3004  3.1608
  975MOL0     H34540   6.029   7.437  10.458 -1.6107  1.4246  0.6295
  975MOL0     H34541   6.048   7.468  10.282 -0.4414  1.9643 -0.9117
  975MOL0     H34542   5.914   7.636  10.501  1.7540 -2.4888  1.0086
  975MOL0     H34543   5.947   7.705  10.339  0.0778  1.4054  1.8652
  975MOL0     H34544   5.815   7.489  10.246 -3.0084 -3.1656  0.4093
  975MOL0     H34545   5.723   7.623  10.302  0.3063  1.6867  0.4705
  975MOL0     H34546   5.582   7.338  10.563 -1.1130  2.2020  0.7431
  975MOL0     H34547   6.483   7.322  10.373 -1.3449  0.1039  1.1627
  975MOL0     H34548   6.803   7.292  10.493  1.6640 -0.8594 -0.8004
  975MOL0     H34549   6.695   7.251  10.364  0.5622 -1.3306  2.1726
  975MOL0     H34550   6.829   7.359  10.333 -0.9086 -0.5338 -2.3956
  976MOL0     O34551   8.717   1.818   1.395 -0.0140  0.2633 -0.1440
  976MOL0     C34552   8.657   1.868   1.299 -0.3156 -0.9307  1.2109
  976MOL0     O34553   8.711   1.909   1.177  0.0358  0.0967 -0.2215
  976MOL0     C34554   8.846   1.930   1.162  0.0398  0.8126 -1.5383
  976MOL0     C34555   8.899   1.883   1.047 -0.6386  0.0595  0.0814
  976MOL0     C34556   9.033   1.896   1.014  0.0172  0.6774 -0.3885
  976MOL0     C34557   9.115   1.946   1.123 -0.8059 -0.4178  0.2771
  976MOL0     O34558   9.248   1.955   1.077  0.8764  0.1473  0.0932
  976MOL0     C34559   9.329   1.843   1.079 -0.3624 -0.1609  0.3792
  976MOL0     C34560   9.421   1.837   1.202 -0.2663  0.3569  0.3171
  976MOL0     C34561   9.518   1.713   1.209 -0.0271  0.1301  0.4745
  976MOL0     C34562   9.444   1.580   1.219  0.7024  0.6348 -0.3693
  976MOL0     C34563   9.532   1.469   1.285  0.2987  0.4784 -0.1173
  976MOL0     C34564   9.589   1.496   1.418  0.6279 -0.2210 -0.6268
  976MOL0     C34565   9.482   1.541   1.530 -0.5423 -0.3941  0.7068
  976MOL0     C34566   9.544   1.518   1.663  1.0421 -0.2853  0.2579
  976MOL0     N34567   9.650   1.609   1.700  0.4520 -0.7613  0.9599
  976MOL0     C34568   9.669   1.672   1.819  0.1678  0.3171 -0.5508
  976MOL0     C34569   9.784   1.739   1.810 -0.0280  0.2186  0.2337
  976MOL0     C34570   9.837   1.840   1.910  0.2087  0.9740 -0.1755
  976MOL0     C34571   9.874   1.772   2.038  0.7673 -0.5554 -0.5106
  976MOL0     C34572  10.006   1.702   2.035 -0.1685 -0.4207  0.2165
  976MOL0     C34573  10.009   1.602   2.159 -0.4944  0.0656  0.7956
  976MOL0     O34574   9.962   1.674   2.271  0.2646  0.0143  0.1165
  976MOL0     C34575  10.037   1.768   2.328 -0.1133 -1.3356  0.0785
  976MOL0     C34576  10.173   1.789   2.302 -1.2537 -0.6211  0.0398
  976MOL0     C34577  10.247   1.911   2.347  0.0092  0.3804 -0.1765
  976MOL0     C34578  10.392   1.928   2.308  0.3011  0.1543  0.2906
  976MOL0     C34579  10.177   2.007   2.422  0.8545 -0.0039 -0.7840
  976MOL0     C34580  10.237   2.137   2.462 -0.1860  0.4849  0.0289
  976MOL0     O34581  10.363   2.126   2.500 -0.4221 -0.4478  0.5344
  976MOL0     C34582  10.441   2.235   2.545 -0.4346 -0.2455  0.0731
  976MOL0     C34583  10.441   2.362   2.490  0.0527 -0.2028 -0.0421
  976MOL0     C34584  10.532   2.461   2.532 -0.0669  0.3914  0.1662
  976MOL0     C34585  10.627   2.433   2.635 -0.1924 -0.4521  0.4452
  976MOL0     O34586  10.702   2.536   2.676  0.2395  0.5267 -0.7276
  976MOL0     C34587  10.809   2.506   2.769  0.5343 -0.3121  1.4591
  976MOL0     C34588  10.868   2.642   2.805 -0.5880  0.0012 -0.6621
  976MOL0     C34589  10.969   2.648   2.929  0.5329 -0.1814  0.3110
  976MOL0     C34590  11.111   2.645   2.882 -1.2047  0.4372  0.4658
  976MOL0     C34591  11.200   2.677   2.998  1.2160 -0.2554 -0.3252
  976MOL0     C34592  11.335   2.609   2.987  0.0255  0.9309 -0.0400
  976MOL0     C34593  11.427   2.657   3.108  0.0045  0.0560  0.1406
  976MOL0     C34594  11.567   2.590   3.100  0.8170 -0.7768 -0.3111
  976MOL0    Cl34595  11.558   2.411   3.082  0.2268 -0.5726 -0.5561
  976MOL0     C34596  10.641   2.303   2.686  1.0188  0.4858  0.2559
  976MOL0     C34597  10.542   2.206   2.650 -0.5929 -0.7114  0.1316
  976MOL0     O34598  10.168   2.233   2.490 -0.0384 -0.4476  0.2143
  976MOL0     C34599  10.037   1.989   2.449  0.3006  0.1697  0.7883
  976MOL0     C34600   9.980   1.871   2.396  0.1374  0.2382 -0.2960
  976MOL0     N34601   9.848   1.711   1.690  0.2027  0.3601 -0.1336
  976MOL0     N34602   9.762   1.640   1.628 -0.7430  0.1208  0.2600
  976MOL0     C34603   9.073   2.006   1.241 -0.1717 -0.2157  0.0174
  976MOL0     C34604   8.932   1.997   1.260 -0.5797  0.1904 -0.0671
  976MOL0     C34605   8.508   1.882   1.319 -0.1991  0.1249 -0.4440
  976MOL0     C34606   8.455   1.828   1.436  0.3950 -0.0663  0.0647
  976MOL0     C34607   8.319   1.844   1.472  0.8009 -0.3919  0.4292
  976MOL0     C34608   8.236   1.916   1.386 -0.6903 -0.1239 -0.0291
  976MOL0     O34609   8.111   1.941   1.431 -0.3807  0.0559  0.6715
  976MOL0     C34610   8.006   1.932   1.332 -0.7655  0.2661 -0.1857
  976MOL0     C34611   7.936   2.065   1.289  0.0820  0.4371  0.4489
  976MOL0     C34612   7.839   2.111   1.399  0.9648  0.0173  0.0361
  976MOL0     C34613   7.753   2.223   1.342  0.4402 -0.1965 -0.3439
  976MOL0     C34614   7.643   2.261   1.438 -0.7435  0.5446  0.3898
  976MOL0     C34615   7.564   2.290   1.520  0.3186 -0.0257 -0.3933
  976MOL0     C34616   8.295   1.977   1.270  0.7827  0.0043 -0.4615
  976MOL0     C34617   8.431   1.957   1.232 -0.2934 -0.5112  0.5027
  976MOL0     C34618   8.473   2.038   1.110  0.5300 -0.4168  0.0891
  976MOL0     H34619   8.825   1.851   0.974 -0.2698  0.2177 -0.3688
  976MOL0     H34620   9.080   1.881   0.918  2.0655  3.8065 -0.0460
  976MOL0     H34621   9.390   1.851   0.989  2.2973  0.8516  2.1680
  976MOL0     H34622   9.277   1.747   1.064  1.4649 -0.8141 -2.6238
  976MOL0     H34623   9.484   1.926   1.215  1.0727 -0.2526 -1.6251
  976MOL0     H34624   9.347   1.833   1.283  0.1516  0.8575  0.7280
  976MOL0     H34625   9.578   1.713   1.117  1.4373  2.7346  1.3185
  976MOL0     H34626   9.581   1.738   1.295 -1.5755 -1.7038  2.2566
  976MOL0     H34627   9.359   1.584   1.288  1.2163 -1.1752  0.4319
  976MOL0     H34628   9.421   1.560   1.114  1.8033  3.1063 -1.1412
  976MOL0     H34629   9.618   1.457   1.219 -0.6971  0.0631 -1.3884
  976MOL0     H34630   9.475   1.376   1.289  1.1235 -0.1281 -1.5490
  976MOL0     H34631   9.638   1.402   1.446 -1.4775 -1.2473 -0.1492
  976MOL0     H34632   9.664   1.576   1.419 -1.3834  1.7988  2.1478
  976MOL0     H34633   9.393   1.483   1.506  0.2105 -1.2639 -0.0606
  976MOL0     H34634   9.461   1.648   1.519  3.2390  0.4250  0.1563
  976MOL0     H34635   9.467   1.529   1.740 -1.2491 -1.0211 -1.7900
  976MOL0     H34636   9.579   1.414   1.657  0.9201 -0.2610 -1.0201
  976MOL0     H34637   9.610   1.670   1.910  1.8692 -1.3260  0.5814
  976MOL0     H34638   9.753   1.909   1.927 -0.3591  0.3731 -0.4675
  976MOL0     H34639   9.926   1.892   1.873 -1.1084  3.2713 -0.3820
  976MOL0     H34640   9.884   1.846   2.117  2.0046 -1.4704  0.2309
  976MOL0     H34641   9.796   1.700   2.067  0.9801 -0.9695 -0.9456
  976MOL0     H34642  10.009   1.648   1.940 -1.3052 -0.2239  0.0531
  976MOL0     H34643  10.089   1.773   2.038 -0.0342 -0.6136  1.3419
  976MOL0     H34644   9.942   1.517   2.147  0.2328 -0.1586 -2.7100
  976MOL0     H34645  10.106   1.550   2.161  0.6288  1.8302 -1.7892
  976MOL0     H34646  10.226   1.713   2.245 -2.3829  0.0905 -2.0767
  976MOL0     H34647  10.426   1.838   2.256 -0.5485 -0.0853  0.1402
  976MOL0     H34648  10.450   1.933   2.401 -1.4335 -1.1081  1.4963
  976MOL0     H34649  10.413   2.017   2.248 -0.4967 -1.2695 -2.2264
  976MOL0     H34650  10.375   2.391   2.409  2.1312  2.0514 -1.0805
  976MOL0     H34651  10.531   2.559   2.486 -1.3698 -0.6143 -2.0849
  976MOL0     H34652  10.771   2.450   2.855  0.1899 -1.7149  0.4380
  976MOL0     H34653  10.881   2.436   2.726 -0.0377 -0.5785  0.9226
  976MOL0     H34654  10.899   2.687   2.710  1.1506  1.3603  0.4809
  976MOL0     H34655  10.788   2.710   2.838  0.0189  1.2514 -1.6635
  976MOL0     H34656  10.948   2.556   2.984  0.4166 -1.1059 -1.2228
  976MOL0     H34657  10.949   2.733   2.994  0.8724 -0.0344  0.2247
  976MOL0     H34658  11.132   2.716   2.801  2.2772  1.7023  2.2591
  976MOL0     H34659  11.145   2.548   2.844 -0.0505  0.2855  1.8153
  976MOL0     H34660  11.215   2.784   3.015  1.0595 -0.0544 -1.3657
  976MOL0     H34661  11.158   2.643   3.093 -1.0567  1.1898 -0.7395
  976MOL0     H34662  11.382   2.623   2.890 -0.3826  1.0186 -0.2260
  976MOL0     H34663  11.316   2.502   2.983  0.8106  0.8252 -1.7322
  976MOL0     H34664  11.382   2.632   3.205  2.8995 -3.2857  0.8115
  976MOL0     H34665  11.454   2.763   3.101  1.3802 -0.3947 -2.7895
  976MOL0     H34666  11.621   2.606   3.194  1.6532 -2.6848 -0.4373
  976MOL0     H34667  11.620   2.643   3.021  0.2953  1.6746  0.8662
  976MOL0     H34668  10.719   2.266   2.752 -0.2917 -3.2940 -0.0579
  976MOL0     H34669  10.546   2.104   2.686  1.1732 -0.3746  0.9821
  976MOL0     H34670   9.978   2.061   2.505 -0.8459 -1.0980  1.2652
  976MOL0     H34671   9.880   1.841   2.427 -0.4449  1.6416 -0.7333
  976MOL0     H34672   9.138   2.072   1.298 -0.8288 -0.9368  1.6480
  976MOL0     H34673   8.889   2.030   1.355  0.0990  0.4699  0.1498
  976MOL0     H34674   8.517   1.761   1.495 -0.0346  0.5426  1.2233
  976MOL0     H34675   8.272   1.814   1.565  1.3054 -0.4615  0.6659
  976MOL0     H34676   8.030   1.880   1.239  1.1613 -1.1999  1.0657
  976MOL0     H34677   7.941   1.868   1.392  2.1063 -0.7650  2.0486
  976MOL0     H34678   7.881   2.052   1.195  1.8518 -3.1059 -0.2305
  976MOL0     H34679   8.016   2.140   1.280 -0.0652  0.3668 -4.0290
  976MOL0     H34680   7.785   2.029   1.448  2.7224  0.7071  3.4403
  976MOL0     H34681   7.910   2.145   1.475  0.8554 -3.1132  1.6966
  976MOL0     H34682   7.706   2.187   1.250 -1.3175  0.5444  0.2272
  976MOL0     H34683   7.806   2.315   1.315 -1.0226  1.3746  1.7930
  976MOL0     H34684   7.492   2.319   1.594  0.0535 -0.7936 -0.3467
  976MOL0     H34685   8.230   2.039   1.209  0.6683 -1.1142 -1.5160
  976MOL0     H34686   8.391   2.078   1.051 -0.4799  0.9761  2.3119
  976MOL0     H34687   8.525   2.124   1.153 -0.8856  0.8637 -0.6881
  976MOL0     H34688   8.536   1.977   1.044  2.1116 -0.4079  1.5147
  977MOL0     O34689   0.729   8.693   0.262  0.3645  0.2985  0.2442
  977MOL0     C34690   0.674   8.596   0.315  0.0281 -0.0084 -0.0406
  977MOL0     O34691   0.730   8.516   0.404 -0.5775 -0.3786 -0.3485
  977MOL0     C34692   0.856   8.549   0.421 -0.9290  0.3200 -0.1088
  977MOL0     C34693   0.904   8.643   0.508  0.2028  0.4679  0.7251
  977MOL0     C34694   1.037   8.648   0.547 -0.0502 -0.1893 -0.1507
  977MOL0     C34695   1.125   8.568   0.489  0.4614  0.0789 -0.4721
  977MOL0     O34696   1.258   8.582   0.527 -0.1196  0.5578  0.2581
  977MOL0     C34697   1.358   8.575   0.420  0.6306 -0.1598 -1.0017
  977MOL0     C34698   1.480   8.658   0.467 -0.1308  0.2625  1.4000
  977MOL0     C34699   1.517   8.639   0.613  0.3794  0.0521  0.7216
  977MOL0     C34700   1.652   8.722   0.643 -0.7142 -0.4489  0.0902
  977MOL0     C34701   1.715   8.692   0.774 -0.4407 -0.2862 -0.6619
  977MOL0     C34702   1.856   8.753   0.785  0.5827 -0.7994  0.2487
  977MOL0     C34703   1.920   8.735   0.925 -0.3440 -0.1800  1.1469
  977MOL0     C34704   2.072   8.768   0.922 -0.3901 -0.3934 -0.5666
  977MOL0     N34705   2.095   8.907   0.890 -0.6683 -0.0977  0.2482
  977MOL0     C34706   2.176   8.954   0.784 -0.8507  0.8695  0.2016
  977MOL0     C34707   2.224   9.075   0.831 -0.5448  0.3574 -0.3974
  977MOL0     C34708   2.316   9.164   0.748  0.8019 -0.1206  0.4261
  977MOL0     C34709   2.440   9.172   0.838  1.1865  0.0626 -0.0078
  977MOL0     C34710   2.565   9.228   0.751 -0.3477  0.2595 -1.2415
  977MOL0     C34711   2.694   9.216   0.839 -0.3721 -0.0809 -0.1796
  977MOL0     O34712   2.734   9.081   0.850 -0.4750  0.1407  0.0145
  977MOL0     C34713   2.857   9.049   0.789 -0.3070 -0.5453 -0.9301
  977MOL0     C34714   2.887   9.089   0.663 -0.1246  0.3314 -0.2103
  977MOL0     C34715   3.000   9.034   0.598 -0.4557  0.3138  0.9171
  977MOL0     C34716   3.026   9.084   0.461  0.3205  0.7147  0.0395
  977MOL0     C34717   3.086   8.934   0.656 -0.1514  0.4349 -0.2190
  977MOL0     C34718   3.212   8.871   0.606  0.4977 -0.0246  0.2798
  977MOL0     O34719   3.268   8.787   0.693 -0.5054 -0.3069 -0.0884
  977MOL0     C34720   3.388   8.724   0.645  0.8657  0.8499  0.2903
  977MOL0     C34721   3.386   8.659   0.514  0.1747 -0.4631 -0.3786
  977MOL0     C34722   3.507   8.615   0.462  0.2615  0.2015  0.4285
  977MOL0     C34723   3.626   8.624   0.527  0.7591  0.1327  0.6602
  977MOL0     O34724   3.743   8.590   0.475  0.0897  0.0170  0.6705
  977MOL0     C34725   3.762   8.583   0.331  0.0747  0.2493 -0.4266
  977MOL0     C34726   3.917   8.576   0.317 -0.9335  0.4951  0.3897
  977MOL0     C34727   3.960   8.659   0.198 -0.1894 -0.0201 -0.4984
  977MOL0     C34728   4.115   8.662   0.176 -0.0469 -0.6279  0.4282
  977MOL0     C34729   4.153   8.759   0.057 -0.7390 -0.4508 -0.0757
  977MOL0     C34730   4.158   8.697  -0.086 -0.7664  1.0364 -0.4734
  977MOL0     C34731   4.180   8.806  -0.198 -0.3113  1.4072 -0.3227
  977MOL0     C34732   4.181   8.746  -0.338 -0.1408 -0.2568  0.5438
  977MOL0    Cl34733   4.024   8.680  -0.399  0.1597 -0.4728 -0.3090
  977MOL0     C34734   3.618   8.672   0.661  1.0645 -0.6628 -0.1285
  977MOL0     C34735   3.501   8.731   0.721  0.1012 -0.6456  0.6933
  977MOL0     O34736   3.258   8.905   0.503  0.5293 -0.0271 -0.1430
  977MOL0     C34737   3.043   8.899   0.791 -0.7766  0.1989  0.5202
  977MOL0     C34738   2.933   8.957   0.853  0.8921  0.3867  0.5419
  977MOL0     N34739   2.167   9.099   0.959 -0.3864 -0.6058 -0.0415
  977MOL0     N34740   2.092   9.001   0.993 -0.0678 -0.1887  0.5004
  977MOL0     C34741   1.083   8.468   0.396 -0.4055  1.1309  0.2695
  977MOL0     C34742   0.945   8.463   0.369  0.2962  0.5165 -0.5022
  977MOL0     C34743   0.544   8.549   0.262  0.4452 -0.2056 -0.1228
  977MOL0     C34744   0.506   8.416   0.251 -0.3454  0.6442 -0.8891
  977MOL0     C34745   0.389   8.370   0.184 -0.4153  0.8218 -0.2812
  977MOL0     C34746   0.295   8.460   0.134 -0.9378 -0.0514 -0.0513
  977MOL0     O34747   0.188   8.439   0.051  0.0645  0.5941 -0.6278
  977MOL0     C34748   0.139   8.313   0.023 -0.3526  0.0797  0.8231
  977MOL0     C34749  -0.008   8.320  -0.030  0.0120 -0.9733 -0.6148
  977MOL0     C34750  -0.109   8.341   0.080 -0.7986  0.3232  0.2835
  977MOL0     C34751  -0.226   8.421   0.030  0.1482 -1.0946 -0.4648
  977MOL0     C34752  -0.211   8.567   0.049 -0.2413 -0.5186 -0.7894
  977MOL0     C34753  -0.212   8.688   0.054 -0.7599 -0.3875 -0.1682
  977MOL0     C34754   0.329   8.594   0.141  0.0584 -1.1337 -0.2724
  977MOL0     C34755   0.445   8.638   0.210  0.1933 -1.2887  0.1838
  977MOL0     C34756   0.466   8.789   0.206 -0.1039 -0.2733 -0.3549
  977MOL0     H34757   0.842   8.718   0.556  0.4740  0.1463  1.5921
  977MOL0     H34758   1.086   8.721   0.610  0.3053 -1.8605  1.5939
  977MOL0     H34759   1.309   8.606   0.327 -1.4011  1.2963  0.4528
  977MOL0     H34760   1.400   8.474   0.417  1.2335 -0.1169  2.4150
  977MOL0     H34761   1.564   8.624   0.407 -1.7265 -4.4586  1.3746
  977MOL0     H34762   1.457   8.764   0.454  0.1995  0.1709 -0.0680
  977MOL0     H34763   1.444   8.680   0.684  1.2720  1.6459  0.7590
  977MOL0     H34764   1.534   8.532   0.628 -2.6748 -0.9921 -2.1784
  977MOL0     H34765   1.730   8.712   0.566  1.5050 -1.3183  2.3210
  977MOL0     H34766   1.625   8.828   0.645  2.0033  0.4379 -2.0823
  977MOL0     H34767   1.707   8.588   0.808  2.0674 -0.7948 -1.4757
  977MOL0     H34768   1.657   8.754   0.843  1.2810  0.4555  0.1782
  977MOL0     H34769   1.916   8.709   0.704 -0.0881 -1.0416 -0.1307
  977MOL0     H34770   1.844   8.861   0.772 -1.3489 -0.8860  0.9709
  977MOL0     H34771   1.906   8.629   0.951 -0.0507 -0.6220 -0.3942
  977MOL0     H34772   1.873   8.802   0.998  0.0076  0.8280  0.4673
  977MOL0     H34773   2.128   8.768   1.016 -0.7462  3.1976 -0.2157
  977MOL0     H34774   2.122   8.697   0.855  1.1250 -2.0354  2.0725
  977MOL0     H34775   2.210   8.895   0.700 -0.4123  1.9132 -0.3701
  977MOL0     H34776   2.273   9.264   0.734 -1.8205 -1.0251  1.2960
  977MOL0     H34777   2.319   9.120   0.647 -3.4023 -3.1564  1.3146
  977MOL0     H34778   2.422   9.228   0.930 -3.1380 -0.6198 -0.2655
  977MOL0     H34779   2.477   9.073   0.865  2.8546  0.5224 -0.4819
  977MOL0     H34780   2.587   9.176   0.657 -0.2228 -3.7387  0.7786
  977MOL0     H34781   2.549   9.335   0.734 -0.7442  0.1870 -1.3339
  977MOL0     H34782   2.772   9.280   0.797  3.7212 -2.7506  2.6185
  977MOL0     H34783   2.674   9.264   0.935  1.7842  0.7804 -0.1222
  977MOL0     H34784   2.829   9.171   0.621  0.5320  0.1545 -1.5262
  977MOL0     H34785   3.005   9.014   0.379 -0.5993  3.1283 -1.9207
  977MOL0     H34786   3.129   9.122   0.455  0.3853  0.7845  1.4127
  977MOL0     H34787   2.967   9.172   0.432  2.4550  1.1194 -3.8392
  977MOL0     H34788   3.295   8.651   0.455  0.1627 -1.4464 -0.2343
  977MOL0     H34789   3.499   8.572   0.363  0.7736 -0.1005  0.5133
  977MOL0     H34790   3.718   8.498   0.278 -2.0652 -0.2171  1.9420
  977MOL0     H34791   3.728   8.674   0.280 -0.5356 -0.3500 -1.1173
  977MOL0     H34792   3.952   8.614   0.413  1.4111  0.3821 -0.3392
  977MOL0     H34793   3.944   8.470   0.314  0.0738  0.7233  0.8562
  977MOL0     H34794   3.924   8.761   0.218  0.1143 -0.1482  0.8511
  977MOL0     H34795   3.911   8.612   0.113 -1.1498 -0.8542  0.4880
  977MOL0     H34796   4.162   8.564   0.160  0.6192 -0.3794  0.8091
  977MOL0     H34797   4.162   8.705   0.265 -2.9301  1.6829  0.9669
  977MOL0     H34798   4.092   8.849   0.067 -0.6414  0.0764 -3.2019
  977MOL0     H34799   4.255   8.796   0.071  0.2952 -2.6745 -1.2484
  977MOL0     H34800   4.062   8.644  -0.095  1.3606 -3.1501 -1.2402
  977MOL0     H34801   4.230   8.615  -0.096 -0.6909  0.7072  2.1228
  977MOL0     H34802   4.281   8.845  -0.185  0.3594 -0.0370 -0.9821
  977MOL0     H34803   4.109   8.890  -0.194  0.5926  2.3613 -2.6026
  977MOL0     H34804   4.265   8.680  -0.361 -0.4113 -0.0560 -1.1432
  977MOL0     H34805   4.190   8.825  -0.412 -2.6309 -0.6227 -0.2712
  977MOL0     H34806   3.708   8.670   0.723  0.8053  0.8124  0.3472
  977MOL0     H34807   3.493   8.779   0.818 -3.2573 -0.2858  0.3767
  977MOL0     H34808   3.098   8.836   0.860  0.5613  2.4435  1.5801
  977MOL0     H34809   2.914   8.924   0.954 -1.0213  0.3627  0.2092
  977MOL0     H34810   1.154   8.406   0.342 -1.0246 -0.9529  1.7239
  977MOL0     H34811   0.912   8.382   0.305 -0.8614  1.0428 -0.6099
  977MOL0     H34812   0.575   8.343   0.291  0.8879  1.0478 -2.2328
  977MOL0     H34813   0.365   8.266   0.169  1.2692  0.0320  1.9219
  977MOL0     H34814   0.203   8.278  -0.059 -1.5868  1.0972 -0.6283
  977MOL0     H34815   0.141   8.242   0.106 -2.9183 -2.8034 -1.3186
  977MOL0     H34816  -0.032   8.223  -0.074 -0.7683 -1.4702  0.8371
  977MOL0     H34817  -0.012   8.394  -0.110 -1.2197  1.5776  1.6282
  977MOL0     H34818  -0.141   8.242   0.115  0.9584  0.3070  2.0219
  977MOL0     H34819  -0.063   8.398   0.161  0.6184 -1.0674  0.4962
  977MOL0     H34820  -0.300   8.376   0.096 -0.4268  1.3005  0.6337
  977MOL0     H34821  -0.248   8.397  -0.075  1.9864 -0.0076 -1.1561
  977MOL0     H34822  -0.208   8.794   0.066 -2.0244 -0.3277 -0.0912
  977MOL0     H34823   0.263   8.668   0.097 -1.5233 -1.0650  2.0666
  977MOL0     H34824   0.507   8.832   0.298 -0.2324 -0.5211 -0.1801
  977MOL0     H34825   0.534   8.821   0.127  1.6365 -1.8860  0.4017
  977MOL0     H34826   0.366   8.834   0.210  0.3029  0.5975  2.1907
  978MOL0     O34827  10.989   4.445   8.627 -0.1032  0.5465 -0.1371
  978MOL0     C34828  10.936   4.332   8.614  0.3670 -0.3595  0.7370
  978MOL0     O34829  11.008   4.214   8.569 -0.0854  0.8153  0.3510
  978MOL0     C34830  11.128   4.224   8.514 -0.4969 -0.5670  0.1111
  978MOL0     C34831  11.189   4.100   8.523 -0.2679  0.0146  0.9247
  978MOL0     C34832  11.327   4.089   8.497 -0.3108  0.2193  0.4007
  978MOL0     C34833  11.400   4.191   8.440 -0.4100 -0.2035  0.5610
  978MOL0     O34834  11.529   4.163   8.423 -0.3857  0.3196 -0.2912
  978MOL0     C34835  11.621   4.259   8.378  0.0434 -0.7876 -0.6566
  978MOL0     C34836  11.760   4.202   8.382  0.1815 -0.3616  0.5156
  978MOL0     C34837  11.870   4.278   8.320 -0.1788 -0.0529 -0.2328
  978MOL0     C34838  11.987   4.271   8.423  0.3027  0.1332  0.4131
  978MOL0     C34839  12.119   4.333   8.375  0.0356  0.3069  0.0723
  978MOL0     C34840  12.189   4.265   8.247  1.0477  0.3411  0.2905
  978MOL0     C34841  12.210   4.107   8.246  0.1001 -0.2985 -0.7820
  978MOL0     C34842  12.323   4.079   8.354  0.2980  0.4096 -0.5970
  978MOL0     N34843  12.452   4.132   8.309  0.0100 -0.6392  0.3047
  978MOL0     C34844  12.545   4.066   8.230  0.3510 -0.4683 -0.4543
  978MOL0     C34845  12.659   4.137   8.227 -0.3617 -0.3408  0.4675
  978MOL0     C34846  12.772   4.100   8.143  0.4844 -0.1339  0.1787
  978MOL0     C34847  12.912   4.143   8.198 -0.6672 -0.6596  0.4126
  978MOL0     C34848  12.944   4.104   8.346 -0.2360  0.0711  0.3785
  978MOL0     C34849  13.077   4.149   8.386 -0.1447  0.2587  0.0937
  978MOL0     O34850  13.189   4.081   8.321 -0.4400  0.6023  0.1420
  978MOL0     C34851  13.312   4.132   8.331 -0.1092 -0.2920 -0.3823
  978MOL0     C34852  13.352   4.239   8.418 -0.2105 -0.0218 -0.5948
  978MOL0     C34853  13.483   4.285   8.422 -0.0563 -0.6502 -0.8689
  978MOL0     C34854  13.506   4.392   8.526 -0.0489  0.4003 -0.2899
  978MOL0     C34855  13.585   4.225   8.349  0.1887 -0.4019 -0.0436
  978MOL0     C34856  13.728   4.257   8.356 -0.6492 -0.5606 -0.0070
  978MOL0     O34857  13.818   4.163   8.328 -0.2700 -0.0417  0.0457
  978MOL0     C34858  13.953   4.196   8.338  0.0991 -0.1111  0.5548
  978MOL0     C34859  14.016   4.271   8.235 -0.2633  0.5930 -0.3820
  978MOL0     C34860  14.145   4.312   8.248 -0.0218  0.7987 -0.5759
  978MOL0     C34861  14.215   4.281   8.364  0.7695 -0.6066 -0.1038
  978MOL0     O34862  14.341   4.332   8.371 -0.7515 -0.6182 -0.7391
  978MOL0     C34863  14.451   4.255   8.336 -0.0572 -0.7188 -0.1319
  978MOL0     C34864  14.573   4.343   8.340  0.0417  0.7060  0.5025
  978MOL0     C34865  14.563   4.467   8.260 -0.4154 -0.0895  0.1932
  978MOL0     C34866  14.697   4.544   8.226  0.0052 -0.0778 -0.4482
  978MOL0     C34867  14.689   4.691   8.180 -0.3149 -0.1335 -0.0057
  978MOL0     C34868  14.825   4.758   8.183 -0.9920 -0.2051 -0.0384
  978MOL0     C34869  14.813   4.890   8.106 -0.1187  0.2370 -0.6802
  978MOL0     C34870  14.942   4.958   8.101  0.0918 -0.3830 -0.4331
  978MOL0    Cl34871  15.015   4.995   8.262  0.3964 -0.2609  0.0211
  978MOL0     C34872  14.158   4.209   8.467  0.6407  0.1503 -0.3680
  978MOL0     C34873  14.030   4.156   8.450  0.2010  0.7764 -0.6242
  978MOL0     O34874  13.758   4.372   8.381  0.3846 -0.1823  0.0338
  978MOL0     C34875  13.544   4.121   8.270 -0.1701  0.3028  0.3299
  978MOL0     C34876  13.410   4.072   8.255 -0.6064 -0.3543  0.1163
  978MOL0     N34877  12.640   4.241   8.316  0.3327 -0.1820  0.5064
  978MOL0     N34878  12.517   4.245   8.361 -0.5072 -0.2666 -0.4224
  978MOL0     C34879  11.335   4.316   8.413  0.3256 -0.0575  0.0312
  978MOL0     C34880  11.194   4.329   8.444  0.3395  0.5682 -0.8908
  978MOL0     C34881  10.793   4.313   8.652 -0.1989 -0.1624 -0.4266
  978MOL0     C34882  10.732   4.194   8.619 -1.1975  0.6944  0.2319
  978MOL0     C34883  10.608   4.162   8.667  0.3916 -0.5097  0.2663
  978MOL0     C34884  10.534   4.250   8.746  0.1786  0.2241 -0.2368
  978MOL0     O34885  10.417   4.218   8.798 -0.0457 -0.3636  0.3871
  978MOL0     C34886  10.375   4.085   8.808 -0.2187 -0.6076 -0.5782
  978MOL0     C34887  10.290   4.072   8.937  0.1283  0.1466 -0.1983
  978MOL0     C34888  10.376   4.065   9.071  0.1447  0.6474 -0.7233
  978MOL0     C34889  10.282   4.024   9.192 -0.9686  1.0048 -0.1433
  978MOL0     C34890  10.171   4.114   9.221  0.6609 -0.4091 -0.1996
  978MOL0     C34891  10.075   4.182   9.260 -0.1426  0.3220 -0.1496
  978MOL0     C34892  10.586   4.374   8.774 -0.7146 -0.2352 -0.6688
  978MOL0     C34893  10.714   4.406   8.734 -0.9182 -1.1244 -0.1361
  978MOL0     C34894  10.767   4.536   8.798 -0.2621 -0.8116  0.7060
  978MOL0     H34895  11.147   4.014   8.575 -0.2294 -0.6321 -0.0802
  978MOL0     H34896  11.368   3.991   8.517 -2.2251 -0.4859  1.0969
  978MOL0     H34897  11.630   4.339   8.452 -0.3498 -0.6827 -0.7219
  978MOL0     H34898  11.598   4.300   8.280 -2.8974  0.5845  0.4883
  978MOL0     H34899  11.794   4.180   8.483 -0.8386 -1.1329  0.7066
  978MOL0     H34900  11.756   4.106   8.330 -2.2699 -1.3063  2.2484
  978MOL0     H34901  11.909   4.225   8.232 -1.2474  2.8725 -2.6800
  978MOL0     H34902  11.830   4.376   8.291 -1.7299 -0.6834 -0.3498
  978MOL0     H34903  11.956   4.332   8.509 -1.2245  0.1597 -0.1241
  978MOL0     H34904  12.015   4.169   8.450  1.4532  0.5140  0.7649
  978MOL0     H34905  12.187   4.330   8.460 -0.6605 -3.8694  0.7214
  978MOL0     H34906  12.092   4.436   8.353 -1.0770  0.0232  0.0052
  978MOL0     H34907  12.125   4.290   8.162  1.6283 -0.3841 -0.3736
  978MOL0     H34908  12.288   4.305   8.223  1.7427 -1.2444  0.3953
  978MOL0     H34909  12.248   4.065   8.153  1.4517  3.5219 -2.1303
  978MOL0     H34910  12.116   4.057   8.272 -1.6986  0.8264 -4.4114
  978MOL0     H34911  12.282   4.109   8.451 -0.9150 -0.7944 -0.7057
  978MOL0     H34912  12.327   3.972   8.375  1.0584  0.6254  0.4114
  978MOL0     H34913  12.533   3.972   8.177  1.6772 -0.2445 -1.1930
  978MOL0     H34914  12.754   4.149   8.047 -0.0301 -0.4236  0.1280
  978MOL0     H34915  12.783   3.993   8.123  1.5748 -0.3299  1.6820
  978MOL0     H34916  12.985   4.103   8.128 -0.3064 -0.0447  0.4350
  978MOL0     H34917  12.900   4.252   8.189 -2.0302 -0.5947  2.2762
  978MOL0     H34918  12.874   4.149   8.416 -0.7244 -2.6708  1.8048
  978MOL0     H34919  12.933   3.995   8.356 -0.0249 -0.2155 -1.9819
  978MOL0     H34920  13.076   4.257   8.374 -3.0587  0.1939 -1.2772
  978MOL0     H34921  13.082   4.116   8.490  0.9397  1.6507  0.4967
  978MOL0     H34922  13.280   4.303   8.468  2.0807  3.2229 -1.1096
  978MOL0     H34923  13.591   4.368   8.590 -1.2601 -1.9497  0.5403
  978MOL0     H34924  13.415   4.409   8.585  0.0156 -3.4034  1.1487
  978MOL0     H34925  13.532   4.482   8.470  0.5883  0.7682  0.5746
  978MOL0     H34926  13.978   4.306   8.140  0.2571  5.2363  0.8479
  978MOL0     H34927  14.190   4.378   8.175  1.1559  1.3563  0.6065
  978MOL0     H34928  14.455   4.169   8.404 -0.4061 -0.3672  0.3419
  978MOL0     H34929  14.443   4.212   8.236 -0.0868  0.1409 -0.5031
  978MOL0     H34930  14.593   4.366   8.445 -0.2038 -0.2999  0.7780
  978MOL0     H34931  14.650   4.271   8.310 -0.5857 -0.7189  2.1354
  978MOL0     H34932  14.496   4.534   8.315  1.2096 -0.0433  2.2599
  978MOL0     H34933  14.517   4.453   8.162  1.5507  0.4307 -0.8545
  978MOL0     H34934  14.751   4.486   8.151  3.1367  2.3752 -0.3173
  978MOL0     H34935  14.759   4.537   8.316  0.2796 -0.8369 -0.6911
  978MOL0     H34936  14.664   4.691   8.074  1.1863  3.6968 -0.5090
  978MOL0     H34937  14.623   4.743   8.250 -0.8437 -1.0774  0.2141
  978MOL0     H34938  14.903   4.702   8.130 -1.4331 -0.4737 -0.4045
  978MOL0     H34939  14.854   4.777   8.287 -0.9199  0.8658 -0.2467
  978MOL0     H34940  14.751   4.966   8.155  1.0444  2.0175 -1.8540
  978MOL0     H34941  14.782   4.881   8.001  1.1085 -1.7899 -0.9231
  978MOL0     H34942  14.914   5.054   8.057 -0.5116 -0.7920 -0.9575
  978MOL0     H34943  15.018   4.910   8.039  1.9038  0.4752  1.0286
  978MOL0     H34944  14.217   4.175   8.551  0.1218 -4.2016 -1.5206
  978MOL0     H34945  13.984   4.104   8.534  0.5426  2.0225  0.3678
  978MOL0     H34946  13.622   4.070   8.215 -0.8228  0.0178 -0.3509
  978MOL0     H34947  13.386   3.992   8.186  2.6371 -2.1058  0.8084
  978MOL0     H34948  11.387   4.404   8.376  0.1429 -0.3287 -0.8759
  978MOL0     H34949  11.144   4.422   8.418  1.2264  0.6811 -2.3177
  978MOL0     H34950  10.774   4.125   8.546 -1.3222  0.4103  0.4285
  978MOL0     H34951  10.573   4.065   8.633 -0.0030 -0.0931 -0.5392
  978MOL0     H34952  10.322   4.067   8.714 -1.1915  1.0089 -0.3644
  978MOL0     H34953  10.453   4.009   8.816 -0.7940 -1.3878 -1.9664
  978MOL0     H34954  10.237   3.977   8.930  0.6344 -0.1139 -0.5393
  978MOL0     H34955  10.216   4.153   8.937 -1.7218 -1.4535 -0.9940
  978MOL0     H34956  10.461   3.998   9.052  0.8815  1.3241  0.1203
  978MOL0     H34957  10.423   4.162   9.083  1.3421  0.1481 -1.2348
  978MOL0     H34958  10.343   4.020   9.283 -0.8832  0.0300 -0.2256
  978MOL0     H34959  10.244   3.923   9.174 -1.1070  1.2625 -1.3526
  978MOL0     H34960   9.996   4.252   9.278  0.0720  0.6076 -0.3144
  978MOL0     H34961  10.520   4.439   8.830  0.1984 -0.0326  0.2074
  978MOL0     H34962  10.843   4.536   8.877  0.8809  1.3700 -0.2964
  978MOL0     H34963  10.812   4.598   8.720 -1.0381 -0.4194  0.5565
  978MOL0     H34964  10.684   4.600   8.830  0.2895  0.9325 -1.1807
  979MOL0     O34965   2.681   7.570   4.268 -0.4706 -0.4946 -0.2054
  979MOL0     C34966   2.695   7.562   4.392  0.4597  0.4422 -0.5873
  979MOL0     O34967   2.802   7.577   4.460  0.2408  0.3873 -0.0270
  979MOL0     C34968   2.918   7.557   4.388  0.4993  0.0749 -0.2229
  979MOL0     C34969   3.012   7.653   4.391 -0.9951  0.5353 -0.3945
  979MOL0     C34970   3.135   7.630   4.324  0.1198  0.0949  0.3413
  979MOL0     C34971   3.166   7.517   4.258  0.2067  0.5970 -0.2959
  979MOL0     O34972   3.282   7.506   4.196 -0.3704  0.1815  0.6007
  979MOL0     C34973   3.377   7.604   4.179 -0.4403 -0.1027  0.6631
  979MOL0     C34974   3.511   7.537   4.170 -0.4681  0.2417 -0.0172
  979MOL0     C34975   3.544   7.470   4.311  0.2209  0.6461 -0.0759
  979MOL0     C34976   3.668   7.391   4.301  0.2267  0.8281  0.0559
  979MOL0     C34977   3.697   7.327   4.436  0.4099 -0.6192  0.4293
  979MOL0     C34978   3.835   7.276   4.435 -0.9168 -0.1539  0.1474
  979MOL0     C34979   3.868   7.214   4.571 -0.5524 -0.0704  0.2353
  979MOL0     C34980   4.005   7.141   4.576  0.8727 -0.0533  0.2870
  979MOL0     N34981   4.105   7.234   4.535 -0.1879  0.3001  0.7497
  979MOL0     C34982   4.197   7.213   4.429 -0.1100 -0.5422 -0.6738
  979MOL0     C34983   4.306   7.292   4.455 -0.8627  0.1338 -0.2226
  979MOL0     C34984   4.423   7.313   4.362  0.7111  0.1351  0.4565
  979MOL0     C34985   4.512   7.191   4.353  0.0184 -0.3026 -0.5562
  979MOL0     C34986   4.567   7.148   4.491 -0.4588  0.2545  0.6728
  979MOL0     C34987   4.647   7.257   4.561  0.2809 -0.2431  0.3907
  979MOL0     O34988   4.746   7.193   4.652  0.8879  0.6496  0.4837
  979MOL0     C34989   4.710   7.120   4.757 -0.2790 -0.5229  0.1191
  979MOL0     C34990   4.801   7.062   4.840 -0.2701  0.2609 -0.2554
  979MOL0     C34991   4.757   6.988   4.956  0.3091 -0.7672  0.0505
  979MOL0     C34992   4.867   6.907   5.027  0.2991  0.4238  0.4107
  979MOL0     C34993   4.624   6.984   4.987  0.7635 -0.0124 -0.5798
  979MOL0     C34994   4.576   6.903   5.108  0.1832  0.3729  0.5971
  979MOL0     O34995   4.459   6.942   5.160 -0.2255 -0.0223  0.2080
  979MOL0     C34996   4.418   6.913   5.285 -0.5125  0.1564 -0.5746
  979MOL0     C34997   4.401   7.021   5.369  0.0061 -0.0594  0.1469
  979MOL0     C34998   4.357   7.009   5.500  0.3550 -0.2321 -0.4735
  979MOL0     C34999   4.327   6.881   5.548  0.1271  0.4572  0.7491
  979MOL0     O35000   4.270   6.864   5.670  0.5828  0.0495  0.2345
  979MOL0     C35001   4.127   6.827   5.655  0.0052  0.4268  0.1984
  979MOL0     C35002   4.090   6.727   5.761 -0.5500  0.6608  0.4427
  979MOL0     C35003   3.937   6.709   5.777  0.2668 -0.4619 -0.4093
  979MOL0     C35004   3.877   6.617   5.666 -0.6091 -0.3902  0.7122
  979MOL0     C35005   3.725   6.630   5.668 -0.7816 -0.3407  0.4764
  979MOL0     C35006   3.670   6.555   5.793  0.3435 -0.4599  1.1244
  979MOL0     C35007   3.523   6.564   5.803  0.5492  0.2568  0.0596
  979MOL0     C35008   3.463   6.468   5.913 -0.1865  1.2227 -0.1968
  979MOL0    Cl35009   3.496   6.523   6.082  0.0285  0.1464  0.2407
  979MOL0     C35010   4.355   6.768   5.472 -0.6733  0.4150 -0.1833
  979MOL0     C35011   4.403   6.786   5.339  0.5498 -0.1318  0.6045
  979MOL0     O35012   4.643   6.807   5.149 -0.1493  0.4876  0.9201
  979MOL0     C35013   4.531   7.065   4.918 -0.7843  0.6221  0.1955
  979MOL0     C35014   4.579   7.123   4.800  0.1344 -0.1053  0.2700
  979MOL0     N35015   4.276   7.358   4.575  0.7234  0.9648  0.4035
  979MOL0     N35016   4.162   7.321   4.619  0.1600 -0.0498 -0.0771
  979MOL0     C35017   3.075   7.413   4.262 -0.1628 -0.0619  0.1065
  979MOL0     C35018   2.943   7.434   4.319  0.0087 -0.7853 -0.1805
  979MOL0     C35019   2.578   7.541   4.480  0.3765 -0.1433  0.2793
  979MOL0     C35020   2.575   7.429   4.566  0.2466  0.2642  0.4879
  979MOL0     C35021   2.458   7.394   4.635  1.1264  0.3395  0.7104
  979MOL0     C35022   2.344   7.483   4.635  0.0295  0.0093  0.0163
  979MOL0     O35023   2.232   7.440   4.706  0.2058 -0.3333 -0.4610
  979MOL0     C35024   2.145   7.539   4.757 -0.2144 -1.6776  0.6072
  979MOL0     C35025   2.031   7.492   4.848  0.4031  0.0907 -0.3962
  979MOL0     C35026   2.080   7.404   4.959 -0.1916 -0.0022 -0.3128
  979MOL0     C35027   1.969   7.357   5.055  0.3286  0.3750 -0.3156
  979MOL0     C35028   2.008   7.264   5.160 -0.6442  0.4773  0.0317
  979MOL0     C35029   2.041   7.177   5.239  0.0754  0.1020  0.2358
  979MOL0     C35030   2.347   7.599   4.564  0.3453 -0.6406  0.4551
  979MOL0     C35031   2.466   7.626   4.487 -0.7329  0.0279 -0.1762
  979MOL0     C35032   2.459   7.753   4.404 -0.1530 -0.7166  0.0830
  979MOL0     H35033   2.996   7.752   4.433  1.2823  0.3524  1.1403
  979MOL0     H35034   3.209   7.710   4.321 -0.3182  0.5432  1.1308
  979MOL0     H35035   3.401   7.668   4.264  1.5613  2.4349 -1.6264
  979MOL0     H35036   3.355   7.665   4.091  2.7630  0.8199  0.3548
  979MOL0     H35037   3.514   7.468   4.085  0.2702  1.7360 -1.2604
  979MOL0     H35038   3.581   7.619   4.153 -0.8714  0.4710 -0.5987
  979MOL0     H35039   3.557   7.548   4.386 -1.1114  0.9244 -0.1100
  979MOL0     H35040   3.466   7.408   4.355  2.3010  0.5316  3.8871
  979MOL0     H35041   3.652   7.312   4.227  1.3752 -0.0087  0.6733
  979MOL0     H35042   3.742   7.454   4.249 -1.3259  3.4269  0.7864
  979MOL0     H35043   3.639   7.236   4.449  0.3200 -0.5759  0.3323
  979MOL0     H35044   3.696   7.407   4.511  0.7626 -0.3140  0.1166
  979MOL0     H35045   3.839   7.207   4.350 -0.4130  0.3221 -0.2186
  979MOL0     H35046   3.905   7.354   4.408 -1.8443  0.3855 -0.7655
  979MOL0     H35047   3.793   7.137   4.593 -1.1568  0.5777  0.4683
  979MOL0     H35048   3.874   7.296   4.643 -0.0519 -0.2070  0.3596
  979MOL0     H35049   4.020   7.121   4.682 -3.3153 -1.4587  0.7928
  979MOL0     H35050   4.004   7.049   4.516 -1.4834 -0.0462  0.2050
  979MOL0     H35051   4.173   7.147   4.346  0.2481 -1.3853 -0.1212
  979MOL0     H35052   4.474   7.408   4.383  0.7631  0.7577 -2.1129
  979MOL0     H35053   4.376   7.311   4.263 -1.4159  1.2719  1.3826
  979MOL0     H35054   4.460   7.103   4.312  1.0716 -1.2145  0.0156
  979MOL0     H35055   4.590   7.219   4.282  0.4818 -1.5692 -0.5700
  979MOL0     H35056   4.488   7.099   4.549 -0.0934 -1.4386 -0.2056
  979MOL0     H35057   4.633   7.062   4.472 -0.2520  1.0946 -3.1943
  979MOL0     H35058   4.692   7.329   4.492 -1.4107  1.2010  0.7213
  979MOL0     H35059   4.583   7.318   4.626  1.5555  0.4410  1.0337
  979MOL0     H35060   4.907   7.073   4.817 -0.4956 -0.7013 -1.9077
  979MOL0     H35061   4.968   6.917   4.984  0.6020 -1.4277  0.6179
  979MOL0     H35062   4.850   6.800   5.013  0.8487  0.3889 -0.0362
  979MOL0     H35063   4.857   6.935   5.132  0.6653 -2.8300  1.4325
  979MOL0     H35064   4.407   7.118   5.322 -0.8138  0.5106  1.1620
  979MOL0     H35065   4.345   7.102   5.555  0.9574 -0.0716 -0.6031
  979MOL0     H35066   4.068   6.919   5.667 -0.5769 -0.2355  3.1667
  979MOL0     H35067   4.094   6.783   5.560 -0.4170 -3.2027  1.8451
  979MOL0     H35068   4.144   6.634   5.740 -0.8159  0.5262  0.3527
  979MOL0     H35069   4.131   6.758   5.858  0.9008 -3.0723  1.1709
  979MOL0     H35070   3.897   6.811   5.782  1.1421 -0.0824 -0.7694
  979MOL0     H35071   3.925   6.655   5.871  0.2351 -2.2377 -1.4094
  979MOL0     H35072   3.916   6.516   5.680  0.7475  0.1156  0.7072
  979MOL0     H35073   3.914   6.649   5.568  1.6988 -2.3342  0.8622
  979MOL0     H35074   3.695   6.735   5.679 -0.2759 -0.2057  0.5964
  979MOL0     H35075   3.688   6.582   5.577 -0.1678  4.4560 -2.6496
  979MOL0     H35076   3.709   6.590   5.889  1.2668 -0.1509  0.6482
  979MOL0     H35077   3.704   6.453   5.779  3.4571  0.5141  0.8074
  979MOL0     H35078   3.475   6.536   5.709  0.0045  0.9430  0.1307
  979MOL0     H35079   3.486   6.665   5.819 -0.8086  0.1674 -2.1987
  979MOL0     H35080   3.500   6.366   5.903  0.5580  1.3543  0.9915
  979MOL0     H35081   3.355   6.466   5.899 -0.3826 -0.5372  1.1622
  979MOL0     H35082   4.322   6.671   5.509  0.5993 -0.1209 -0.3845
  979MOL0     H35083   4.419   6.699   5.275 -0.9457 -0.8185  1.1152
  979MOL0     H35084   4.424   7.050   4.930 -0.8220 -0.4005 -1.1231
  979MOL0     H35085   4.499   7.178   4.752  0.5855 -0.8940 -1.4910
  979MOL0     H35086   3.090   7.321   4.206  0.4466  0.5122 -0.6972
  979MOL0     H35087   2.871   7.353   4.316  0.2220 -0.9798 -0.1111
  979MOL0     H35088   2.664   7.370   4.582  2.1190  2.7519 -0.1178
  979MOL0     H35089   2.461   7.297   4.683  0.9424  0.3582  0.7587
  979MOL0     H35090   2.203   7.612   4.815  0.1588  0.5165 -2.3394
  979MOL0     H35091   2.107   7.588   4.667 -0.0433  0.2060  1.4909
  979MOL0     H35092   1.957   7.433   4.794  1.7140 -2.4495  0.4527
  979MOL0     H35093   1.982   7.580   4.891  0.0012 -0.0830 -0.4957
  979MOL0     H35094   2.123   7.312   4.920  0.4248 -0.3583  1.1396
  979MOL0     H35095   2.158   7.451   5.019 -3.0728  3.1500  1.3300
  979MOL0     H35096   1.880   7.316   5.008 -1.2628  1.4581  1.6161
  979MOL0     H35097   1.931   7.444   5.110 -0.5881 -1.2437  1.7131
  979MOL0     H35098   2.080   7.100   5.302  2.4246 -2.3823 -3.7994
  979MOL0     H35099   2.263   7.667   4.563  0.1624 -0.8197 -1.6903
  979MOL0     H35100   2.358   7.762   4.363  0.4243 -0.1464 -1.2785
  979MOL0     H35101   2.465   7.844   4.465 -0.5369 -1.1036  0.7118
  979MOL0     H35102   2.536   7.767   4.328  1.9571  1.6733  2.4368
  980MOL0     O35103   2.921   8.075   9.675 -0.6642 -0.0426 -1.0110
  980MOL0     C35104   2.909   8.035   9.562 -0.7882 -0.0896 -0.4266
  980MOL0     O35105   2.997   8.062   9.456 -0.2770  0.3005  0.3209
  980MOL0     C35106   3.125   8.106   9.478  0.3116 -0.3588 -0.3664
  980MOL0     C35107   3.189   8.154   9.363 -0.7526  0.3026 -0.5844
  980MOL0     C35108   3.326   8.187   9.362 -0.5136 -0.1449  0.0173
  980MOL0     C35109   3.400   8.179   9.480  0.5058 -0.2844 -0.2318
  980MOL0     O35110   3.536   8.213   9.485  0.2485  0.1962 -0.8454
  980MOL0     C35111   3.598   8.285   9.379 -0.3302  0.0538 -0.3072
  980MOL0     C35112   3.743   8.304   9.424 -1.1834  0.1818 -0.6123
  980MOL0     C35113   3.799   8.433   9.372 -0.7490 -0.0085  0.0273
  980MOL0     C35114   3.803   8.439   9.217  0.8663 -0.4710  0.4040
  980MOL0     C35115   3.865   8.565   9.167 -0.2675 -0.7619  0.4106
  980MOL0     C35116   4.009   8.555   9.130  0.6447 -0.1978 -0.7440
  980MOL0     C35117   4.109   8.517   9.234 -0.5495  0.1630 -0.9328
  980MOL0     C35118   4.145   8.618   9.343 -0.0801 -0.4268  0.6797
  980MOL0     N35119   4.202   8.560   9.465 -0.6389  0.5481 -0.4030
  980MOL0     C35120   4.250   8.643   9.559  0.4362 -0.1688  0.5185
  980MOL0     C35121   4.281   8.566   9.666  0.7174 -0.3408 -0.0848
  980MOL0     C35122   4.349   8.626   9.793 -0.4840  0.6383 -0.3702
  980MOL0     C35123   4.496   8.673   9.756  0.3143 -0.4777  0.4080
  980MOL0     C35124   4.581   8.671   9.887  0.0935  0.3574  1.0351
  980MOL0     C35125   4.708   8.756   9.869  0.4417  0.0205  0.1448
  980MOL0     O35126   4.797   8.678   9.782  0.6015 -0.2695  0.5466
  980MOL0     C35127   4.919   8.732   9.744  0.0771 -0.0335  0.7766
  980MOL0     C35128   4.955   8.867   9.756  0.3128 -0.1565 -0.6325
  980MOL0     C35129   5.077   8.915   9.714 -0.9910 -0.0922  0.2598
  980MOL0     C35130   5.104   9.062   9.733 -0.0563  0.5855 -1.0215
  980MOL0     C35131   5.166   8.825   9.650 -0.1638  0.1196 -0.4533
  980MOL0     C35132   5.305   8.855   9.606 -0.1435 -0.6914  0.1153
  980MOL0     O35133   5.367   8.754   9.541 -0.1825  0.1520  0.1356
  980MOL0     C35134   5.504   8.764   9.510  0.7780  0.5163  0.4529
  980MOL0     C35135   5.547   8.766   9.377 -0.1476  0.2624 -1.1294
  980MOL0     C35136   5.680   8.749   9.354 -0.0666  1.3826 -0.1882
  980MOL0     C35137   5.765   8.735   9.462 -1.0061  0.0622 -0.2588
  980MOL0     O35138   5.894   8.718   9.425  1.3390 -0.4030  0.8262
  980MOL0     C35139   5.996   8.743   9.518  0.2201  0.1663 -0.0736
  980MOL0     C35140   6.131   8.750   9.454 -0.6041 -0.2706  0.2297
  980MOL0     C35141   6.236   8.778   9.566 -0.5793  0.0889  0.7466
  980MOL0     C35142   6.374   8.763   9.506 -0.2950 -0.2158  0.3625
  980MOL0     C35143   6.488   8.801   9.600  0.0289  0.4142  0.5216
  980MOL0     C35144   6.611   8.794   9.520  0.5231 -0.1322 -0.5131
  980MOL0     C35145   6.723   8.860   9.593 -0.5386  0.8471 -0.3339
  980MOL0     C35146   6.755   8.802   9.733 -0.0653 -0.4762  0.3903
  980MOL0    Cl35147   6.744   8.623   9.747  0.1426 -0.6990 -0.1763
  980MOL0     C35148   5.727   8.724   9.596  0.8576 -0.4136  0.0378
  980MOL0     C35149   5.592   8.753   9.617 -0.1167  0.2106  0.3007
  980MOL0     O35150   5.353   8.967   9.633  0.1330 -0.8084 -0.0860
  980MOL0     C35151   5.128   8.682   9.639  0.7942  0.5685 -0.8114
  980MOL0     C35152   5.002   8.645   9.683 -0.4045 -0.2426  0.8497
  980MOL0     N35153   4.247   8.437   9.633  0.6159  0.6498 -0.1185
  980MOL0     N35154   4.206   8.432   9.513  0.0797 -0.4873  0.3031
  980MOL0     C35155   3.337   8.131   9.592 -0.2561  0.2297  1.0586
  980MOL0     C35156   3.199   8.088   9.594  0.1098 -0.1157 -0.5163
  980MOL0     C35157   2.772   7.997   9.517  0.0840 -0.4593 -0.7669
  980MOL0     C35158   2.738   8.017   9.381 -0.4057  0.0143  0.4335
  980MOL0     C35159   2.619   7.972   9.327  0.0522 -0.4506 -0.3150
  980MOL0     C35160   2.524   7.921   9.408  0.1062 -0.0287 -0.4713
  980MOL0     O35161   2.400   7.886   9.361  0.0082 -0.2206  0.2620
  980MOL0     C35162   2.354   7.920   9.234  0.1056 -0.2545  0.0600
  980MOL0     C35163   2.205   7.900   9.210 -0.3949  0.2588 -0.0038
  980MOL0     C35164   2.125   8.017   9.286 -0.1050  0.2340 -0.4176
  980MOL0     C35165   1.970   7.994   9.264 -0.5119 -0.6067 -0.0640
  980MOL0     C35166   1.937   7.873   9.342 -0.3067  0.1664  0.7388
  980MOL0     C35167   1.908   7.767   9.400 -0.5132  0.1301 -0.1174
  980MOL0     C35168   2.555   7.895   9.541 -0.1745 -0.2558 -0.2488
  980MOL0     C35169   2.686   7.925   9.596  0.8670  0.8176 -0.2497
  980MOL0     C35170   2.714   7.863   9.736  0.4138  0.2849 -0.0432
  980MOL0     H35171   3.123   8.167   9.278  0.4834  1.6723 -1.3863
  980MOL0     H35172   3.365   8.223   9.268  0.0115 -3.3774 -1.1140
  980MOL0     H35173   3.547   8.382   9.374  0.8399  0.7452  0.6575
  980MOL0     H35174   3.588   8.238   9.280 -2.5891  0.2261 -0.2202
  980MOL0     H35175   3.759   8.306   9.533  2.3050  0.2080 -1.0100
  980MOL0     H35176   3.800   8.220   9.383 -3.7005 -2.0074  0.1127
  980MOL0     H35177   3.738   8.517   9.405 -1.3018 -0.3104 -0.2084
  980MOL0     H35178   3.899   8.442   9.416 -0.7034 -1.1497  0.1962
  980MOL0     H35179   3.871   8.359   9.184  1.2856 -0.6787  1.7089
  980MOL0     H35180   3.702   8.431   9.177  1.4936 -0.4287 -1.2830
  980MOL0     H35181   3.849   8.648   9.237 -1.1620 -0.4473 -0.1340
  980MOL0     H35182   3.813   8.591   9.073  0.8666 -0.6033 -0.1852
  980MOL0     H35183   4.007   8.474   9.056  2.6820  0.0706 -1.1361
  980MOL0     H35184   4.038   8.645   9.075  1.2049 -0.8939 -1.6168
  980MOL0     H35185   4.196   8.495   9.171 -0.6592  1.8498 -1.7480
  980MOL0     H35186   4.075   8.425   9.282  1.7226  0.3527  1.2174
  980MOL0     H35187   4.201   8.701   9.298 -1.4442  0.3504  0.3799
  980MOL0     H35188   4.048   8.658   9.374 -0.0353 -0.1504  0.4633
  980MOL0     H35189   4.267   8.750   9.547 -0.6289 -0.0545 -0.0254
  980MOL0     H35190   4.354   8.555   9.876  2.2144 -0.1366 -1.0790
  980MOL0     H35191   4.295   8.717   9.822  1.7397  2.4627 -1.6479
  980MOL0     H35192   4.536   8.610   9.676  1.2327  0.9054 -0.2730
  980MOL0     H35193   4.490   8.777   9.723 -3.9379  0.4878  3.3406
  980MOL0     H35194   4.532   8.711   9.976  3.3952 -2.4085  4.4147
  980MOL0     H35195   4.602   8.566   9.908  0.9345  0.2243 -0.2992
  980MOL0     H35196   4.683   8.849   9.817  2.0084  1.0072  1.0821
  980MOL0     H35197   4.738   8.785   9.970 -1.0812  0.2724  0.5453
  980MOL0     H35198   4.883   8.944   9.782  1.6970  1.8089 -2.3190
  980MOL0     H35199   5.019   9.114   9.778  1.8563  1.0766  2.4057
  980MOL0     H35200   5.144   9.103   9.640  2.7460  0.3710 -0.0232
  980MOL0     H35201   5.190   9.064   9.801  2.0790 -2.6810 -3.3016
  980MOL0     H35202   5.470   8.770   9.301 -0.4282 -0.0252 -0.8648
  980MOL0     H35203   5.722   8.738   9.254  1.1376 -2.0681  0.5720
  980MOL0     H35204   5.977   8.831   9.581  0.4787  0.1939 -0.0300
  980MOL0     H35205   5.990   8.659   9.587  0.0948  2.1680  2.5364
  980MOL0     H35206   6.158   8.654   9.410  4.6455  0.0891  2.0533
  980MOL0     H35207   6.144   8.828   9.378 -2.3314 -0.9417 -0.8336
  980MOL0     H35208   6.221   8.717   9.656  0.0791 -0.4286  0.5107
  980MOL0     H35209   6.222   8.879   9.604  0.8235  1.3035 -1.7413
  980MOL0     H35210   6.384   8.824   9.416  0.2036 -0.5446  0.1892
  980MOL0     H35211   6.397   8.657   9.486  1.4834  0.1375  0.3752
  980MOL0     H35212   6.470   8.901   9.640  1.0898  0.7046  0.2941
  980MOL0     H35213   6.490   8.725   9.679 -1.5759  0.1913  0.3831
  980MOL0     H35214   6.608   8.852   9.427  0.4762 -1.4989 -1.3901
  980MOL0     H35215   6.626   8.690   9.490 -2.1535 -0.6982 -0.2027
  980MOL0     H35216   6.704   8.967   9.604  0.2975  1.3347 -2.8927
  980MOL0     H35217   6.814   8.847   9.533  0.1972 -0.4747  1.0073
  980MOL0     H35218   6.694   8.852   9.809  0.6375  1.6328 -0.3413
  980MOL0     H35219   6.857   8.835   9.752 -0.1841  1.0990 -1.4038
  980MOL0     H35220   5.792   8.696   9.678  1.2801  0.4350  0.0053
  980MOL0     H35221   5.558   8.741   9.720  0.3614  1.2546  0.5918
  980MOL0     H35222   5.188   8.606   9.590  1.8929  0.5948  0.4430
  980MOL0     H35223   4.971   8.541   9.686  2.0305 -1.0177  2.2037
  980MOL0     H35224   3.401   8.104   9.675  3.0145 -2.1120 -1.8901
  980MOL0     H35225   3.159   8.049   9.687 -1.3401  1.6910 -0.3319
  980MOL0     H35226   2.807   8.069   9.316 -0.6749  0.3871  0.4432
  980MOL0     H35227   2.606   8.003   9.223  0.6734 -0.9899 -0.5569
  980MOL0     H35228   2.364   8.029   9.223 -1.5159  0.2060  2.4014
  980MOL0     H35229   2.419   7.874   9.159 -1.0286  2.7136 -3.0581
  980MOL0     H35230   2.173   7.801   9.244  0.4542  0.1245  0.4139
  980MOL0     H35231   2.184   7.907   9.103  0.9556  3.3708 -0.1595
  980MOL0     H35232   2.133   8.009   9.395  0.4599 -1.6007 -0.5612
  980MOL0     H35233   2.168   8.112   9.253  3.1640 -0.7558  0.5364
  980MOL0     H35234   1.955   7.977   9.157 -1.7948  0.6501 -0.1070
  980MOL0     H35235   1.920   8.082   9.305  1.3114  0.6716 -0.4297
  980MOL0     H35236   1.884   7.682   9.461 -2.4866  0.6066 -0.1699
  980MOL0     H35237   2.481   7.846   9.604 -1.0371 -0.7154 -1.5724
  980MOL0     H35238   2.701   7.941   9.811  3.5888  1.4495 -0.5562
  980MOL0     H35239   2.651   7.778   9.764 -1.4803  1.6985  0.1788
  980MOL0     H35240   2.817   7.826   9.738  0.7868  0.7126 -3.7240
  981MOL0     O35241   8.699   8.434  11.096 -0.3696  0.5348 -0.2254
  981MOL0     C35242   8.634   8.351  11.157  0.3442 -0.5952  0.2230
  981MOL0     O35243   8.677   8.262  11.249  0.0025 -0.1030 -0.0143
  981MOL0     C35244   8.792   8.269  11.322 -0.6990  0.2569  0.3980
  981MOL0     C35245   8.828   8.160  11.397 -0.1953  0.0699  0.1477
  981MOL0     C35246   8.939   8.163  11.478  0.0878  1.1127  1.1238
  981MOL0     C35247   9.022   8.281  11.486  0.4356 -0.5508 -0.2079
  981MOL0     O35248   9.133   8.274  11.568 -0.1985  0.3863  0.2455
  981MOL0     C35249   9.238   8.370  11.541 -0.1806 -0.0333 -0.5730
  981MOL0     C35250   9.349   8.329  11.647 -0.4542  0.1502  0.4181
  981MOL0     C35251   9.478   8.405  11.613  0.1631 -0.1621 -0.2258
  981MOL0     C35252   9.582   8.388  11.729  0.0953  0.2001  0.6435
  981MOL0     C35253   9.644   8.245  11.754 -0.6265 -0.0827 -0.8426
  981MOL0     C35254   9.757   8.221  11.649  0.5791  0.4798 -0.7751
  981MOL0     C35255   9.834   8.093  11.670 -0.1190 -0.9621 -0.0807
  981MOL0     C35256   9.803   7.989  11.556 -0.3721 -0.0069 -0.0799
  981MOL0     N35257   9.667   7.943  11.583  0.0930 -0.5027 -0.1661
  981MOL0     C35258   9.552   7.994  11.521 -0.4911  0.4157  0.7184
  981MOL0     C35259   9.455   7.924  11.570  0.0524 -0.6118 -0.4903
  981MOL0     C35260   9.308   7.942  11.534  0.6758  0.1203 -0.1766
  981MOL0     C35261   9.279   7.920  11.383  0.0820  0.4584  0.1078
  981MOL0     C35262   9.293   7.769  11.344  0.3995  0.2225 -0.0363
  981MOL0     C35263   9.321   7.751  11.196  1.1456 -0.3623  0.8027
  981MOL0     O35264   9.432   7.827  11.146 -0.6043 -0.2636 -0.1140
  981MOL0     C35265   9.558   7.795  11.196 -0.4526 -0.1939 -0.0327
  981MOL0     C35266   9.599   7.682  11.259 -0.5709  0.2326 -0.6172
  981MOL0     C35267   9.737   7.649  11.286 -0.4059  0.4060  0.5739
  981MOL0     C35268   9.773   7.509  11.330  0.8167 -0.6490  0.0607
  981MOL0     C35269   9.835   7.747  11.273 -1.0100 -0.0828  0.1043
  981MOL0     C35270   9.986   7.747  11.298  0.3735 -1.0368 -0.4582
  981MOL0     O35271  10.043   7.630  11.323  0.2993  0.0583 -0.4203
  981MOL0     C35272  10.176   7.631  11.344 -0.2584 -0.5829  0.8424
  981MOL0     C35273  10.216   7.611  11.471 -0.0844 -0.6397 -0.4615
  981MOL0     C35274  10.352   7.623  11.510  0.0593  0.9742  0.4867
  981MOL0     C35275  10.450   7.660  11.415  0.0910  0.2518 -0.3570
  981MOL0     O35276  10.583   7.641  11.452 -0.7196  0.1718 -0.0338
  981MOL0     C35277  10.674   7.597  11.352 -0.1904  0.4608 -0.0115
  981MOL0     C35278  10.821   7.565  11.396  0.2651 -0.0592  0.0556
  981MOL0     C35279  10.832   7.458  11.505  0.6775  0.1228  0.0270
  981MOL0     C35280  10.797   7.523  11.644  0.4028  0.0586  0.2252
  981MOL0     C35281  10.825   7.417  11.756  0.0800  0.3265 -0.3899
  981MOL0     C35282  10.875   7.480  11.880 -0.5540  0.1150  0.3725
  981MOL0     C35283  11.031   7.494  11.872  0.6887  0.3175 -0.2221
  981MOL0     C35284  11.090   7.580  11.984 -0.3144 -0.7727 -0.2557
  981MOL0    Cl35285  11.099   7.483  12.140 -0.0609  0.5910 -0.0552
  981MOL0     C35286  10.406   7.688  11.282 -0.2978  0.4169 -0.1185
  981MOL0     C35287  10.270   7.678  11.252 -0.2527  0.1191 -0.1159
  981MOL0     O35288  10.045   7.857  11.301  0.4249  0.1862 -0.1904
  981MOL0     C35289   9.787   7.866  11.227 -0.3718  0.0411 -0.1104
  981MOL0     C35290   9.656   7.886  11.173  0.4506 -0.3653 -0.4489
  981MOL0     N35291   9.502   7.824  11.659  0.6588 -0.0485  0.0975
  981MOL0     N35292   9.627   7.837  11.661  0.1593 -0.2288 -0.6424
  981MOL0     C35293   8.983   8.394  11.408  0.3979 -0.4295 -0.3812
  981MOL0     C35294   8.867   8.388  11.335  0.0966 -0.2542  0.3842
  981MOL0     C35295   8.489   8.344  11.128 -0.1216  0.2752  0.3000
  981MOL0     C35296   8.418   8.222  11.146  0.0461 -0.5899  0.3853
  981MOL0     C35297   8.282   8.214  11.122  0.5899  0.4274 -0.3922
  981MOL0     C35298   8.210   8.325  11.080 -0.5270  0.9275  0.1391
  981MOL0     O35299   8.074   8.321  11.048 -0.3201  0.8223 -0.1115
  981MOL0     C35300   7.990   8.206  11.059  0.1300 -1.6716 -0.6565
  981MOL0     C35301   7.873   8.214  10.950  0.0659  0.5786  0.3391
  981MOL0     C35302   7.805   8.350  10.950 -1.6990  0.2923  0.2347
  981MOL0     C35303   7.701   8.346  10.845  0.2672 -0.5099  0.4765
  981MOL0     C35304   7.628   8.474  10.839  0.4977 -0.7997 -0.1286
  981MOL0     C35305   7.561   8.579  10.834  0.6658  0.4683  0.3233
  981MOL0     C35306   8.280   8.436  11.049  0.4554  0.5269 -0.0863
  981MOL0     C35307   8.416   8.457  11.084  0.3455  0.2558  0.5447
  981MOL0     C35308   8.477   8.592  11.048 -0.3852  0.2025 -0.6981
  981MOL0     H35309   8.763   8.073  11.390 -0.2308  0.1453 -0.5802
  981MOL0     H35310   8.969   8.072  11.529  1.0317  1.2354  0.7900
  981MOL0     H35311   9.199   8.471  11.554 -1.3978 -0.4339 -1.0389
  981MOL0     H35312   9.272   8.368  11.437 -1.4980  3.6633 -1.2219
  981MOL0     H35313   9.314   8.361  11.746  1.5841 -0.5630  1.4240
  981MOL0     H35314   9.370   8.222  11.647 -1.6386 -0.1072 -0.0574
  981MOL0     H35315   9.520   8.376  11.516 -1.4837  0.8709 -1.3037
  981MOL0     H35316   9.452   8.509  11.588  1.9970  0.2960 -0.3919
  981MOL0     H35317   9.664   8.459  11.717 -0.5325  1.5971  3.6516
  981MOL0     H35318   9.528   8.415  11.820 -0.5500 -0.6016  0.5111
  981MOL0     H35319   9.566   8.169  11.763 -3.7248  2.9301 -0.0697
  981MOL0     H35320   9.692   8.249  11.852 -3.9993 -4.4052  1.3221
  981MOL0     H35321   9.712   8.212  11.550 -2.6738 -0.1228  0.6491
  981MOL0     H35322   9.826   8.306  11.651  0.0071  0.9332  0.0530
  981MOL0     H35323   9.802   8.046  11.764  0.0789 -0.5139  0.2167
  981MOL0     H35324   9.940   8.121  11.674 -0.7707  1.7468  0.5141
  981MOL0     H35325   9.811   8.044  11.462  1.6363 -0.5129 -0.2526
  981MOL0     H35326   9.872   7.904  11.567  1.8625  1.9573  2.4963
  981MOL0     H35327   9.543   8.069  11.443 -0.5735 -0.2899  0.0436
  981MOL0     H35328   9.277   8.043  11.563  1.2158  0.0253  0.7973
  981MOL0     H35329   9.251   7.867  11.590  3.1271 -0.3668  1.8697
  981MOL0     H35330   9.177   7.946  11.353  0.1506 -1.5887 -2.2207
  981MOL0     H35331   9.346   7.977  11.318  0.6696 -1.1350 -0.7653
  981MOL0     H35332   9.362   7.711  11.406 -0.7714 -0.7121  0.4296
  981MOL0     H35333   9.195   7.721  11.356  1.4980 -2.3890 -0.7353
  981MOL0     H35334   9.334   7.644  11.175  0.3112 -0.8666  2.6643
  981MOL0     H35335   9.234   7.778  11.136  0.4448 -2.3718  0.8535
  981MOL0     H35336   9.537   7.595  11.279  0.2749  0.0911  1.6235
  981MOL0     H35337   9.840   7.460  11.257  2.9829  1.0297  0.8192
  981MOL0     H35338   9.683   7.448  11.344 -1.2048  2.5031  1.9047
  981MOL0     H35339   9.838   7.519  11.417  0.4220  1.3008  0.1709
  981MOL0     H35340  10.132   7.590  11.537 -1.5813 -0.8975 -2.3543
  981MOL0     H35341  10.378   7.605  11.614 -0.0101 -1.3351  0.1499
  981MOL0     H35342  10.636   7.502  11.312  1.2295  0.1729 -0.7164
  981MOL0     H35343  10.681   7.653  11.259 -1.9047 -1.5089 -1.4382
  981MOL0     H35344  10.876   7.527  11.310  1.2963 -2.8583  1.8068
  981MOL0     H35345  10.860   7.660  11.432 -2.8457  1.3764  0.0204
  981MOL0     H35346  10.932   7.412  11.502  2.4231  3.3805  2.1306
  981MOL0     H35347  10.760   7.380  11.478 -2.0014  2.4945 -0.0717
  981MOL0     H35348  10.694   7.558  11.643  0.4932  0.3319 -0.6136
  981MOL0     H35349  10.860   7.610  11.667  1.0588  0.0103 -1.2793
  981MOL0     H35350  10.738   7.354  11.777  0.1085  0.0156 -1.1774
  981MOL0     H35351  10.905   7.353  11.718 -0.0357 -0.6459  0.9296
  981MOL0     H35352  10.848   7.434  11.975 -0.1366  1.2469  1.0563
  981MOL0     H35353  10.825   7.577  11.885  0.5354  0.7996 -1.1522
  981MOL0     H35354  11.049   7.538  11.773 -2.7807 -1.1638 -1.6761
  981MOL0     H35355  11.080   7.397  11.867 -0.5005 -0.2431 -1.3361
  981MOL0     H35356  11.027   7.667  12.006  0.2059 -0.5966  0.5786
  981MOL0     H35357  11.190   7.616  11.959 -1.2029  2.6420  0.5247
  981MOL0     H35358  10.478   7.716  11.206  0.2328 -0.5601 -0.0072
  981MOL0     H35359  10.239   7.701  11.150 -3.2150 -0.4825  0.5549
  981MOL0     H35360   9.850   7.950  11.200 -0.3763  0.5262  1.3069
  981MOL0     H35361   9.628   7.973  11.115 -1.0408  0.6984  1.7163
  981MOL0     H35362   9.038   8.487  11.415 -0.3807 -0.0078  0.4398
  981MOL0     H35363   8.821   8.479  11.300 -1.6980 -0.5914  1.7019
  981MOL0     H35364   8.481   8.142  11.183  2.9708  1.4025  0.0250
  981MOL0     H35365   8.224   8.122  11.129  0.2143  0.7125  0.4714
  981MOL0     H35366   8.033   8.110  11.030  0.9491 -0.6657 -3.0476
  981MOL0     H35367   7.956   8.196  11.162  1.3923 -0.2595 -0.0652
  981MOL0     H35368   7.796   8.137  10.963 -1.8226  2.0586 -1.3689
  981MOL0     H35369   7.921   8.190  10.855 -2.1942  1.1047 -1.0066
  981MOL0     H35370   7.776   8.358  11.055  1.2278  1.6367  1.0446
  981MOL0     H35371   7.879   8.430  10.941 -1.2269 -0.0574  0.9206
  981MOL0     H35372   7.635   8.259  10.855  0.0013 -0.3382  0.2099
  981MOL0     H35373   7.746   8.340  10.745  0.0000  0.3401  0.3005
  981MOL0     H35374   7.490   8.659  10.834 -0.5090 -0.5054 -1.1833
  981MOL0     H35375   8.223   8.513  10.999 -3.0753 -2.3407 -0.8388
  981MOL0     H35376   8.504   8.600  10.942 -2.3945 -2.0989 -1.4667
  981MOL0     H35377   8.397   8.666  11.056  2.1433  3.3069 -1.8155
  981MOL0     H35378   8.562   8.603  11.116  0.0750 -4.8612 -0.0732
  982MOL0     O35379   4.212   2.963   7.793  0.5685  0.9014 -0.5910
  982MOL0     C35380   4.190   2.944   7.915 -0.1216  0.0848 -0.9714
  982MOL0     O35381   4.268   2.997   8.014 -0.1125 -0.2865  0.6514
  982MOL0     C35382   4.382   3.059   7.970 -0.1724 -1.2799 -0.1349
  982MOL0     C35383   4.496   2.989   7.924  0.5880  0.5919 -1.1009
  982MOL0     C35384   4.601   3.067   7.889 -0.5609  0.2125  0.2526
  982MOL0     C35385   4.602   3.207   7.886 -0.3014  0.3151 -0.4984
  982MOL0     O35386   4.729   3.264   7.852  0.4565 -0.4587  0.5942
  982MOL0     C35387   4.746   3.409   7.863  0.4813  0.4350 -0.1478
  982MOL0     C35388   4.876   3.449   7.787 -0.3122  0.5013  0.1839
  982MOL0     C35389   4.992   3.368   7.841 -0.2838 -0.1698  0.2891
  982MOL0     C35390   5.109   3.393   7.743 -0.3657 -0.6507  0.7923
  982MOL0     C35391   5.240   3.409   7.822 -0.5289 -0.4072 -0.7185
  982MOL0     C35392   5.368   3.401   7.735 -0.6964 -0.0798 -1.0349
  982MOL0     C35393   5.499   3.449   7.807 -0.3828  0.4086 -1.2439
  982MOL0     C35394   5.617   3.435   7.709  0.2022  0.2223 -0.2688
  982MOL0     N35395   5.737   3.518   7.745  0.1732  0.5289  0.6434
  982MOL0     C35396   5.818   3.497   7.850  0.2861 -0.3246  0.1865
  982MOL0     C35397   5.911   3.598   7.848  0.6936  1.0122 -0.4887
  982MOL0     C35398   6.032   3.613   7.945  0.2694 -1.0638  0.1084
  982MOL0     C35399   5.985   3.634   8.084 -0.3568 -0.2780  0.0992
  982MOL0     C35400   6.098   3.642   8.184 -1.1996 -0.0060  0.5775
  982MOL0     C35401   6.028   3.650   8.320 -0.8287  0.1333  0.1104
  982MOL0     O35402   6.133   3.638   8.423  0.2015  0.0785  0.0350
  982MOL0     C35403   6.075   3.626   8.544  0.6585 -0.0876 -0.5857
  982MOL0     C35404   5.988   3.717   8.596 -0.0217 -0.6905  0.4028
  982MOL0     C35405   5.929   3.710   8.719  0.5985  0.4965 -0.9034
  982MOL0     C35406   5.825   3.820   8.746 -0.2492  0.1989  0.2766
  982MOL0     C35407   5.954   3.602   8.803  0.2165  0.2190  0.4872
  982MOL0     C35408   5.905   3.584   8.940 -0.3801  0.0758 -0.4532
  982MOL0     O35409   5.921   3.462   8.994 -0.5251  0.2916  0.6231
  982MOL0     C35410   5.899   3.449   9.127 -0.3415  1.0616  0.0994
  982MOL0     C35411   5.779   3.442   9.181  0.8810  1.1431  0.1571
  982MOL0     C35412   5.756   3.437   9.317  0.5503 -0.8497 -0.6348
  982MOL0     C35413   5.873   3.437   9.406  0.6096  0.1728 -0.3817
  982MOL0     O35414   5.883   3.431   9.543  0.5166 -0.4067  0.4887
  982MOL0     C35415   5.778   3.365   9.615 -0.1183 -0.0198  0.1980
  982MOL0     C35416   5.742   3.474   9.721  0.0955  0.7748  0.2082
  982MOL0     C35417   5.610   3.426   9.782  0.0795 -0.1973 -0.6422
  982MOL0     C35418   5.548   3.513   9.896 -0.1235 -0.6206  0.4708
  982MOL0     C35419   5.418   3.452   9.947 -0.2832 -0.2722 -0.0705
  982MOL0     C35420   5.431   3.327  10.024 -0.8955  0.3939  0.5649
  982MOL0     C35421   5.292   3.294  10.061 -0.1120  0.0234 -0.5508
  982MOL0     C35422   5.285   3.175  10.158  0.5225  0.2088  0.4881
  982MOL0    Cl35423   5.349   3.025  10.079 -0.1776  0.0564  0.0198
  982MOL0     C35424   6.000   3.448   9.346  1.0441  0.4851 -0.1784
  982MOL0     C35425   6.012   3.457   9.211 -0.1748  0.0408 -0.2809
  982MOL0     O35426   5.851   3.677   8.999 -0.1595  0.4436  0.1285
  982MOL0     C35427   6.054   3.513   8.755  0.8985  0.0585 -0.6928
  982MOL0     C35428   6.114   3.525   8.632 -0.1107 -0.3997  0.8930
  982MOL0     N35429   5.883   3.665   7.732 -0.3997 -0.1870 -0.4088
  982MOL0     N35430   5.775   3.623   7.668  0.5075 -0.1409 -0.2123
  982MOL0     C35431   4.485   3.278   7.921  0.2127  0.5802 -0.3476
  982MOL0     C35432   4.374   3.203   7.969  0.3384  1.0380  0.1306
  982MOL0     C35433   4.062   2.878   7.958 -0.0033  0.0152  0.4984
  982MOL0     C35434   3.991   2.927   8.061  0.0362 -0.7001 -0.5925
  982MOL0     C35435   3.868   2.880   8.098 -0.0121  0.5618 -0.3545
  982MOL0     C35436   3.813   2.767   8.035  0.2671  0.1102 -0.1532
  982MOL0     O35437   3.685   2.730   8.074  0.0772  1.0666 -0.8423
  982MOL0     C35438   3.626   2.609   8.022 -0.3620  0.6326 -0.8825
  982MOL0     C35439   3.692   2.475   8.061  0.3967 -0.4369  0.2547
  982MOL0     C35440   3.680   2.457   8.215 -0.0989  0.0823 -0.3066
  982MOL0     C35441   3.745   2.327   8.248  0.0299  0.3235 -0.1900
  982MOL0     C35442   3.889   2.316   8.211 -0.6377  0.2376 -0.4899
  982MOL0     C35443   4.006   2.306   8.186  0.0633 -0.6760 -0.2368
  982MOL0     C35444   3.895   2.709   7.932 -0.1423  0.2822  0.1999
  982MOL0     C35445   4.023   2.760   7.896  0.2373  0.0544  0.7137
  982MOL0     C35446   4.106   2.690   7.792  0.5763  0.6481  0.7809
  982MOL0     H35447   4.498   2.882   7.939 -0.8851  0.8956  2.0488
  982MOL0     H35448   4.693   3.014   7.870 -1.3240 -0.7990 -0.7272
  982MOL0     H35449   4.743   3.435   7.969  0.9501  0.8608 -0.2330
  982MOL0     H35450   4.663   3.465   7.819  0.0532  0.4908  0.7149
  982MOL0     H35451   4.875   3.427   7.680  0.9204 -1.1770  0.4746
  982MOL0     H35452   4.905   3.555   7.792  1.7183  0.1179 -1.7783
  982MOL0     H35453   5.028   3.405   7.937 -0.2558 -0.4626  0.3918
  982MOL0     H35454   4.977   3.260   7.854 -0.5373  0.0360  1.8907
  982MOL0     H35455   5.117   3.303   7.682 -0.0243  0.6183 -1.1215
  982MOL0     H35456   5.095   3.476   7.673 -0.8168  1.1307  2.8457
  982MOL0     H35457   5.249   3.344   7.910  1.2724 -1.2397 -1.4693
  982MOL0     H35458   5.228   3.508   7.866 -2.9028 -0.7194 -0.5193
  982MOL0     H35459   5.373   3.300   7.693 -1.0021  0.1724 -1.6985
  982MOL0     H35460   5.349   3.478   7.659 -0.9778  0.8004 -0.0919
  982MOL0     H35461   5.520   3.394   7.899 -1.0444  1.5361 -0.3941
  982MOL0     H35462   5.476   3.554   7.825  0.7412  0.1487  2.6566
  982MOL0     H35463   5.639   3.328   7.699 -1.5945 -0.1712 -0.3693
  982MOL0     H35464   5.585   3.454   7.606  0.3539  2.7281  0.0794
  982MOL0     H35465   5.812   3.418   7.923 -0.0092  0.5098  1.0909
  982MOL0     H35466   6.091   3.701   7.916  0.5414 -1.3542 -0.2263
  982MOL0     H35467   6.093   3.523   7.935 -0.5869 -1.6135 -0.3740
  982MOL0     H35468   5.920   3.723   8.084  0.9392  0.7632 -2.2571
  982MOL0     H35469   5.928   3.545   8.110 -0.6035  0.1532  1.0908
  982MOL0     H35470   6.157   3.550   8.185 -1.7195 -0.3754  3.0912
  982MOL0     H35471   6.162   3.729   8.167 -2.3727  1.0551  1.4465
  982MOL0     H35472   5.976   3.746   8.336  3.2782  2.4909  0.6036
  982MOL0     H35473   5.959   3.565   8.316 -0.9834  0.2990 -0.9390
  982MOL0     H35474   5.964   3.796   8.525 -0.9102 -1.7754 -0.5489
  982MOL0     H35475   5.727   3.771   8.747 -1.3645  2.0427 -2.8847
  982MOL0     H35476   5.821   3.891   8.662  2.0882 -0.6926 -0.6447
  982MOL0     H35477   5.845   3.877   8.838  1.6256  1.1396 -0.6639
  982MOL0     H35478   5.698   3.440   9.108  0.7323 -0.5847  0.3276
  982MOL0     H35479   5.660   3.420   9.365  1.3719  0.8296  1.8539
  982MOL0     H35480   5.688   3.342   9.557  1.2028  0.4605 -2.2131
  982MOL0     H35481   5.808   3.272   9.663 -0.7275  0.6490  1.9523
  982MOL0     H35482   5.826   3.487   9.791  1.0545  2.8823 -1.2363
  982MOL0     H35483   5.730   3.570   9.669 -1.4291  1.9988  2.6236
  982MOL0     H35484   5.628   3.324   9.817 -3.1152 -1.3443 -2.0150
  982MOL0     H35485   5.536   3.413   9.703 -1.9137 -3.0834  1.4971
  982MOL0     H35486   5.527   3.614   9.858 -2.9635 -1.3513 -0.1694
  982MOL0     H35487   5.618   3.525   9.979  0.9174  0.9897 -0.5820
  982MOL0     H35488   5.367   3.535   9.997  0.2395  0.6536 -1.0308
  982MOL0     H35489   5.354   3.427   9.862 -2.0914  0.3315  1.0538
  982MOL0     H35490   5.503   3.330  10.106  0.4311 -2.0907 -0.4058
  982MOL0     H35491   5.463   3.250   9.952  2.3053  1.3219  0.8659
  982MOL0     H35492   5.247   3.270   9.964  0.1169  2.4163 -1.2954
  982MOL0     H35493   5.239   3.372  10.117  0.6176 -0.4086  0.7842
  982MOL0     H35494   5.179   3.161  10.182  0.7372 -1.1522  0.7595
  982MOL0     H35495   5.347   3.208  10.242 -0.3396 -0.4818  1.4337
  982MOL0     H35496   6.089   3.441   9.408  0.7092  0.8504  0.3522
  982MOL0     H35497   6.112   3.458   9.169 -0.3356  3.3825 -0.8616
  982MOL0     H35498   6.089   3.431   8.817  2.7166  1.3118  0.0037
  982MOL0     H35499   6.184   3.450   8.597  0.5950  0.5500  0.2636
  982MOL0     H35500   4.468   3.382   7.896 -0.7148  1.0316  1.9182
  982MOL0     H35501   4.289   3.245   8.020  1.2449  0.4722  2.2014
  982MOL0     H35502   4.035   3.006   8.121 -2.5377 -0.6348  1.3345
  982MOL0     H35503   3.819   2.933   8.178 -0.5103  0.2478 -0.4490
  982MOL0     H35504   3.523   2.602   8.057  0.1540 -2.6577  0.3374
  982MOL0     H35505   3.623   2.633   7.915  1.6418  2.7517 -0.5592
  982MOL0     H35506   3.792   2.482   8.017 -0.4496  1.2298 -1.5599
  982MOL0     H35507   3.645   2.391   8.009 -0.8964 -0.0594  0.7869
  982MOL0     H35508   3.724   2.541   8.271 -2.1171  1.8448 -1.2196
  982MOL0     H35509   3.576   2.462   8.248  0.5535  2.8256  1.6880
  982MOL0     H35510   3.691   2.249   8.193  0.2223  0.8727 -1.1774
  982MOL0     H35511   3.738   2.303   8.355 -0.3387 -0.8429 -0.4559
  982MOL0     H35512   4.110   2.291   8.164 -0.0560  0.7262 -1.8955
  982MOL0     H35513   3.864   2.630   7.865  0.2091  1.1621 -1.0454
  982MOL0     H35514   4.191   2.638   7.836  1.5226  0.1979 -1.4878
  982MOL0     H35515   4.029   2.624   7.750 -2.2132  2.1930  3.0205
  982MOL0     H35516   4.138   2.758   7.712 -0.0728  0.8554  0.6809
  983MOL0     O35517   0.167   9.683   7.912  0.3049  0.2736 -0.3015
  983MOL0     C35518   0.170   9.727   8.028  0.3850  0.4094  0.1179
  983MOL0     O35519   0.278   9.729   8.113 -0.1402  0.4589  0.9045
  983MOL0     C35520   0.395   9.719   8.046  0.7057  0.4069  0.4651
  983MOL0     C35521   0.452   9.837   7.998 -0.5658  0.0352  0.0352
  983MOL0     C35522   0.585   9.835   7.950  0.5429  0.8119 -0.4185
  983MOL0     C35523   0.660   9.712   7.956  0.1254  0.1278  0.0174
  983MOL0     O35524   0.794   9.713   7.932 -0.4907 -0.0958  1.1188
  983MOL0     C35525   0.872   9.644   8.035 -0.1144  0.2539  0.9578
  983MOL0     C35526   1.025   9.673   8.023 -0.4145  0.3118 -0.2277
  983MOL0     C35527   1.082   9.650   7.882  1.1039 -0.2777  0.1864
  983MOL0     C35528   1.233   9.678   7.874 -1.0375  0.1041 -0.0646
  983MOL0     C35529   1.294   9.657   7.732  0.1198  0.6289 -0.1307
  983MOL0     C35530   1.427   9.740   7.716 -0.2990 -0.5956 -0.6251
  983MOL0     C35531   1.461   9.760   7.565 -0.4146 -0.3185  0.3619
  983MOL0     C35532   1.602   9.827   7.559  0.3947  0.9718 -0.0526
  983MOL0     N35533   1.641   9.839   7.417  1.1710 -1.2490 -0.4739
  983MOL0     C35534   1.611   9.960   7.347  0.0785 -0.3899  0.5406
  983MOL0     C35535   1.666   9.935   7.226  0.0630  0.3347 -0.2663
  983MOL0     C35536   1.669  10.037   7.109  0.2000 -0.6426 -0.0707
  983MOL0     C35537   1.809  10.094   7.102  0.2684 -1.2863  0.2286
  983MOL0     C35538   1.826  10.189   6.974 -0.3227 -0.1982 -0.1058
  983MOL0     C35539   1.936  10.293   6.997 -0.7474  0.4471  0.4069
  983MOL0     O35540   2.065  10.230   7.007  0.7443  0.0477  0.3425
  983MOL0     C35541   2.175  10.316   7.005  0.0208 -0.8107  0.3801
  983MOL0     C35542   2.170  10.455   7.019 -0.2606  0.3975 -0.2869
  983MOL0     C35543   2.293  10.536   7.041  0.5302  0.1338  0.0134
  983MOL0     C35544   2.268  10.679   7.091  0.2914  0.1935 -1.8416
  983MOL0     C35545   2.419  10.479   7.009  0.3506  0.2849  0.0665
  983MOL0     C35546   2.555  10.544   7.006  0.5344 -0.3216  0.1214
  983MOL0     O35547   2.647  10.478   6.934  0.0126 -0.0475  0.9721
  983MOL0     C35548   2.780  10.511   6.951  0.0956 -0.1075 -0.2601
  983MOL0     C35549   2.860  10.553   6.843  0.4139 -0.3159 -0.9608
  983MOL0     C35550   2.991  10.585   6.863  0.1783  0.2641 -0.5887
  983MOL0     C35551   3.051  10.567   6.992 -0.0156 -0.8303  0.2608
  983MOL0     O35552   3.178  10.593   7.027 -0.2142  0.0376 -0.2782
  983MOL0     C35553   3.274  10.581   6.916  0.5709 -0.0649 -0.0085
  983MOL0     C35554   3.419  10.587   6.955  0.5159  0.8017 -0.7290
  983MOL0     C35555   3.452  10.718   7.016  0.1280 -0.8171 -0.3907
  983MOL0     C35556   3.598  10.723   7.069 -0.9256  0.4991 -0.0520
  983MOL0     C35557   3.648  10.863   7.118  0.5730  1.3631  0.5150
  983MOL0     C35558   3.791  10.853   7.151 -0.2889  0.2095  0.0761
  983MOL0     C35559   3.849  10.991   7.196  0.3822 -0.3509  0.1912
  983MOL0     C35560   3.875  11.069   7.070 -0.1438  0.3850  0.1371
  983MOL0    Cl35561   3.996  11.198   7.107  0.2776  0.3181  0.2226
  983MOL0     C35562   2.977  10.503   7.095 -0.0758  0.1378  1.0777
  983MOL0     C35563   2.842  10.478   7.074 -0.3504  0.2512  0.0522
  983MOL0     O35564   2.570  10.648   7.064 -0.3808  0.3054 -0.0523
  983MOL0     C35565   2.414  10.346   6.964  0.5436 -0.7528 -0.3714
  983MOL0     C35566   2.305  10.264   6.985 -0.2722  0.4166  0.0827
  983MOL0     N35567   1.721   9.806   7.217 -0.1444  0.1348 -0.1595
  983MOL0     N35568   1.718   9.755   7.340 -0.4946 -0.8929  0.1589
  983MOL0     C35569   0.588   9.591   7.992 -0.0396 -0.2819  0.0184
  983MOL0     C35570   0.460   9.601   8.032  0.7213 -0.5122 -0.3921
  983MOL0     C35571   0.051   9.797   8.073  0.5695 -1.0420  0.0531
  983MOL0     C35572   0.065   9.881   8.178  0.2231 -0.3281 -0.1172
  983MOL0     C35573  -0.029   9.969   8.229  0.6843  0.2620 -0.3766
  983MOL0     C35574  -0.151   9.983   8.155 -0.2226  0.4048  0.0097
  983MOL0     O35575  -0.246  10.071   8.204 -0.6045 -0.1099  0.5015
  983MOL0     C35576  -0.380  10.070   8.139 -0.0017 -1.2316 -1.2302
  983MOL0     C35577  -0.447  10.180   8.230  0.4195 -0.8238  0.3513
  983MOL0     C35578  -0.427  10.327   8.183  0.5138 -0.3667  0.4288
  983MOL0     C35579  -0.511  10.426   8.262 -0.2365  1.2929 -0.4421
  983MOL0     C35580  -0.521  10.556   8.185 -0.1458  0.7691 -0.0485
  983MOL0     C35581  -0.523  10.656   8.114  0.0833  0.1384 -0.3550
  983MOL0     C35582  -0.169   9.895   8.045  0.7677  0.0622  0.5517
  983MOL0     C35583  -0.070   9.800   8.000  0.6561 -0.5274 -0.3679
  983MOL0     C35584  -0.111   9.722   7.879 -0.0066  0.2423  0.5450
  983MOL0     H35585   0.413   9.938   7.999 -0.3203  0.1349 -0.2246
  983MOL0     H35586   0.627   9.921   7.899  0.2435  0.4208 -1.3407
  983MOL0     H35587   0.854   9.537   8.023 -1.6628  0.3100  2.3873
  983MOL0     H35588   0.842   9.664   8.138 -3.3905 -1.7730  0.5679
  983MOL0     H35589   1.056   9.773   8.056  1.1579 -0.9098  2.2625
  983MOL0     H35590   1.080   9.603   8.086  2.9363  1.9760 -1.0791
  983MOL0     H35591   1.058   9.548   7.850 -2.1724  0.3847  0.1215
  983MOL0     H35592   1.036   9.730   7.823  2.6854  2.9711  2.9911
  983MOL0     H35593   1.258   9.774   7.920  2.1416 -1.7620  2.5018
  983MOL0     H35594   1.279   9.599   7.934 -2.3255  1.2117  2.5380
  983MOL0     H35595   1.221   9.688   7.656 -0.5450 -1.8616 -0.5794
  983MOL0     H35596   1.310   9.549   7.721  0.0155  0.7832 -2.2192
  983MOL0     H35597   1.414   9.833   7.772  1.1081 -1.6672  1.6176
  983MOL0     H35598   1.505   9.693   7.776 -0.3908 -0.0988 -0.1024
  983MOL0     H35599   1.396   9.823   7.504 -0.9561 -0.8840  0.3528
  983MOL0     H35600   1.460   9.660   7.521  0.8918  0.3335 -1.2702
  983MOL0     H35601   1.607   9.924   7.609  0.0001  0.4066  1.1127
  983MOL0     H35602   1.677   9.761   7.605  1.5054  1.9016 -0.4773
  983MOL0     H35603   1.551  10.046   7.377 -2.9367 -1.8775 -0.7599
  983MOL0     H35604   1.600  10.121   7.126  0.7676 -0.5379  1.9110
  983MOL0     H35605   1.631   9.994   7.016 -1.8100 -3.2100  1.7743
  983MOL0     H35606   1.833  10.155   7.189 -0.2860 -0.9701  0.1692
  983MOL0     H35607   1.885  10.016   7.097  0.6742 -0.9379  0.9091
  983MOL0     H35608   1.848  10.142   6.877 -0.1121  0.5310 -0.4173
  983MOL0     H35609   1.730  10.236   6.953 -0.4679 -1.6084 -3.3671
  983MOL0     H35610   1.934  10.362   6.912 -4.6383 -0.8114 -0.7056
  983MOL0     H35611   1.917  10.340   7.094  0.5141  0.5554  0.6228
  983MOL0     H35612   2.078  10.511   7.026  0.3241  1.2768  0.7720
  983MOL0     H35613   2.265  10.674   7.201 -2.5287  1.4691 -1.7679
  983MOL0     H35614   2.167  10.710   7.064 -1.8181 -1.7964  2.6378
  983MOL0     H35615   2.350  10.745   7.063  0.9583  0.2956  0.1617
  983MOL0     H35616   2.810  10.567   6.748  0.1616 -2.4015 -1.1670
  983MOL0     H35617   3.044  10.613   6.773 -1.7259  1.7108 -1.3234
  983MOL0     H35618   3.257  10.484   6.869 -0.5810 -0.7829  1.7952
  983MOL0     H35619   3.264  10.659   6.840  3.5579 -0.2769 -0.7203
  983MOL0     H35620   3.437  10.501   7.020 -1.8471  1.5080  0.9538
  983MOL0     H35621   3.481  10.579   6.865  2.4187  0.1213  0.5730
  983MOL0     H35622   3.390  10.738   7.104  4.2915  0.6136  2.5619
  983MOL0     H35623   3.442  10.801   6.946 -3.2502  1.2555  2.2489
  983MOL0     H35624   3.668  10.692   6.991  0.6886  2.3287  0.5846
  983MOL0     H35625   3.612  10.648   7.149  0.0376  0.2674 -0.4233
  983MOL0     H35626   3.620  10.938   7.044  0.5171  1.5161  0.6906
  983MOL0     H35627   3.582  10.884   7.203  0.1544  0.5995  0.3881
  983MOL0     H35628   3.850  10.808   7.070  1.2448  1.5369  0.4167
  983MOL0     H35629   3.807  10.783   7.233 -0.5902  0.0382 -0.0104
  983MOL0     H35630   3.932  10.985   7.266  0.5616  0.4931  0.0563
  983MOL0     H35631   3.777  11.050   7.253 -1.8366 -2.3751 -0.3149
  983MOL0     H35632   3.784  11.122   7.040  0.3001  1.1883  0.1702
  983MOL0     H35633   3.906  11.004   6.988  0.3483  0.4693  0.2521
  983MOL0     H35634   3.033  10.499   7.188  1.5035  1.0395  0.2169
  983MOL0     H35635   2.780  10.440   7.155  0.5919 -1.7462 -0.1280
  983MOL0     H35636   2.500  10.296   6.919  0.6070  0.8047 -2.0760
  983MOL0     H35637   2.310  10.159   6.957  0.8236  1.4584 -4.4335
  983MOL0     H35638   0.647   9.500   7.993  1.3235  0.4070 -3.5334
  983MOL0     H35639   0.400   9.515   8.059 -1.8456  1.8806  2.3043
  983MOL0     H35640   0.160   9.880   8.232  0.3512 -2.4909 -0.2912
  983MOL0     H35641  -0.007  10.025   8.319  1.5782  0.2878 -0.5998
  983MOL0     H35642  -0.372  10.097   8.033 -0.2898  0.4117 -0.8611
  983MOL0     H35643  -0.436   9.976   8.149  0.1909 -1.1548  1.0693
  983MOL0     H35644  -0.428  10.176   8.338  2.1515  1.5370  0.2015
  983MOL0     H35645  -0.553  10.154   8.220  0.0666  1.2984 -2.5226
  983MOL0     H35646  -0.324  10.364   8.184  0.7531 -0.8629 -1.3818
  983MOL0     H35647  -0.462  10.336   8.080  0.7099  4.6102  0.5846
  983MOL0     H35648  -0.483  10.449   8.365  1.4712  0.4880 -0.6824
  983MOL0     H35649  -0.606  10.373   8.266  0.7806 -0.5244  2.4889
  983MOL0     H35650  -0.524  10.747   8.057 -0.5963  0.3126 -0.0807
  983MOL0     H35651  -0.261   9.886   7.988 -0.1216  1.5690  1.7032
  983MOL0     H35652  -0.206   9.754   7.836  0.3781  0.6872  0.0060
  983MOL0     H35653  -0.040   9.736   7.797 -0.3997 -0.9020 -0.0178
  983MOL0     H35654  -0.119   9.615   7.901  0.6483 -0.0918 -0.7075
  984MOL0     O35655   8.511   5.035   2.618 -0.7758  0.4110  0.5945
  984MOL0     C35656   8.489   5.070   2.501 -0.1354  0.6852  0.4761
  984MOL0     O35657   8.574   5.062   2.390  0.1992  0.2297 -0.3324
  984MOL0     C35658   8.700   5.008   2.401 -0.1253 -0.1829 -0.0169
  984MOL0     C35659   8.730   4.870   2.393  0.6151  0.2455 -0.5970
  984MOL0     C35660   8.856   4.810   2.412  0.0677  0.3789  0.5409
  984MOL0     C35661   8.968   4.897   2.430  0.7677  0.2582 -0.5829
  984MOL0     O35662   9.096   4.853   2.424 -0.9618  1.2216 -1.0029
  984MOL0     C35663   9.121   4.720   2.469  0.4881  0.4886 -0.1611
  984MOL0     C35664   9.275   4.703   2.514 -0.5397  0.6797 -0.3694
  984MOL0     C35665   9.323   4.795   2.623 -0.3272  0.2450  0.2915
  984MOL0     C35666   9.480   4.816   2.620  0.3424 -0.0094  0.3316
  984MOL0     C35667   9.535   4.883   2.745  0.5742  0.4997  0.7257
  984MOL0     C35668   9.670   4.952   2.714 -0.0714 -0.2019 -0.1239
  984MOL0     C35669   9.742   4.986   2.847 -0.1855  0.4966  0.2386
  984MOL0     C35670   9.881   5.030   2.807  0.8132  0.0288  0.5312
  984MOL0     N35671   9.948   5.090   2.923  0.7668  0.1217  0.7377
  984MOL0     C35672   9.983   5.021   3.028 -0.1507  0.4208 -0.1928
  984MOL0     C35673  10.040   5.111   3.105 -0.4285  0.0150  0.4496
  984MOL0     C35674  10.108   5.081   3.228 -0.2524 -0.4570 -0.3822
  984MOL0     C35675  10.239   4.997   3.195  1.0658  0.7592  0.1982
  984MOL0     C35676  10.322   4.968   3.317  0.1011 -0.1471  0.5789
  984MOL0     C35677  10.419   5.079   3.351  0.4003 -0.1648  0.5037
  984MOL0     O35678  10.502   5.092   3.232 -0.3495  0.2743  0.4295
  984MOL0     C35679  10.607   5.185   3.237  0.2443 -0.2611 -0.1632
  984MOL0     C35680  10.681   5.195   3.118  0.4530 -0.1217 -0.4557
  984MOL0     C35681  10.799   5.271   3.107 -0.1432 -0.2438 -0.0514
  984MOL0     C35682  10.877   5.266   2.982  1.1375  0.2625 -0.3566
  984MOL0     C35683  10.832   5.357   3.217 -0.3630  0.3181  0.5131
  984MOL0     C35684  10.953   5.446   3.202 -0.1923 -0.2110  0.2371
  984MOL0     O35685  10.980   5.495   3.078 -0.2851 -0.2290 -0.1872
  984MOL0     C35686  11.099   5.574   3.059 -0.1385  0.6827 -0.6951
  984MOL0     C35687  11.113   5.702   3.114  0.3516 -0.3126 -0.7642
  984MOL0     C35688  11.233   5.776   3.094  0.1179 -0.4227 -0.1324
  984MOL0     C35689  11.323   5.724   3.006 -0.3321  0.5384  0.5258
  984MOL0     O35690  11.442   5.798   2.995 -0.4262  0.3223  0.2467
  984MOL0     C35691  11.529   5.767   2.887  0.2950 -0.4796  0.8469
  984MOL0     C35692  11.647   5.865   2.885 -0.6772  0.6109 -0.9944
  984MOL0     C35693  11.731   5.868   3.016  0.7648  0.5157 -0.3045
  984MOL0     C35694  11.851   5.957   3.017 -0.3296 -0.0906  0.3050
  984MOL0     C35695  11.961   5.908   2.921 -0.4028  0.5613  0.2203
  984MOL0     C35696  12.093   5.998   2.939 -0.0895 -0.6486 -0.6646
  984MOL0     C35697  12.200   5.960   2.846 -0.8193 -0.4663 -0.3026
  984MOL0     C35698  12.340   6.012   2.875  0.3417 -0.6527 -0.4652
  984MOL0    Cl35699  12.454   5.944   2.766  0.0586 -0.2085 -0.0554
  984MOL0     C35700  11.303   5.593   2.950  0.7387  0.3442  0.4617
  984MOL0     C35701  11.187   5.523   2.975  0.5935 -0.0869 -0.0380
  984MOL0     O35702  11.018   5.475   3.300 -0.0724 -0.5174 -1.2412
  984MOL0     C35703  10.760   5.350   3.335 -0.4341 -0.2730  0.1081
  984MOL0     C35704  10.644   5.269   3.347  0.2232  1.1305  0.1143
  984MOL0     N35705  10.036   5.233   3.042  0.3821  0.7589 -0.1101
  984MOL0     N35706   9.969   5.217   2.933  0.4784 -0.3606  0.4546
  984MOL0     C35707   8.942   5.028   2.437 -0.0077  0.5015  0.1496
  984MOL0     C35708   8.815   5.085   2.432 -0.5626  0.0388 -1.0702
  984MOL0     C35709   8.348   5.116   2.478 -0.4858  0.6509 -0.6948
  984MOL0     C35710   8.307   5.221   2.567  0.5251  0.6452  0.0784
  984MOL0     C35711   8.181   5.279   2.550 -0.3361 -0.2287 -0.2349
  984MOL0     C35712   8.098   5.253   2.444 -0.5009 -0.2827 -0.0726
  984MOL0     O35713   7.982   5.317   2.444 -0.7934 -0.3114 -0.2733
  984MOL0     C35714   7.887   5.297   2.343  0.4317  0.2399 -0.4498
  984MOL0     C35715   7.759   5.378   2.375  0.7292  0.1124  0.4570
  984MOL0     C35716   7.784   5.528   2.388 -0.0022  0.1849 -0.4480
  984MOL0     C35717   7.656   5.594   2.446  0.4180 -0.7630 -0.3444
  984MOL0     C35718   7.664   5.739   2.428 -0.3568 -0.0536 -0.0704
  984MOL0     C35719   7.702   5.856   2.415  0.8090 -0.2023 -0.3555
  984MOL0     C35720   8.132   5.143   2.366 -0.3067  0.6497 -0.3762
  984MOL0     C35721   8.251   5.072   2.379  1.0760 -0.4996 -0.4908
  984MOL0     C35722   8.281   4.973   2.274  0.3069  0.3010 -0.6325
  984MOL0     H35723   8.641   4.809   2.389 -0.7071  1.1022  5.8176
  984MOL0     H35724   8.859   4.703   2.392 -0.4527  0.8988 -2.9422
  984MOL0     H35725   9.104   4.646   2.391  1.7265  0.6949 -0.6468
  984MOL0     H35726   9.058   4.699   2.556 -0.4831  3.3421 -0.0848
  984MOL0     H35727   9.302   4.597   2.523  2.0901  0.9944 -3.1262
  984MOL0     H35728   9.338   4.720   2.426  1.3557 -4.3874 -0.3358
  984MOL0     H35729   9.275   4.892   2.611 -1.2626 -0.2573 -0.2081
  984MOL0     H35730   9.299   4.755   2.722  0.7344  0.0653  0.4795
  984MOL0     H35731   9.533   4.720   2.610 -1.6818 -1.1468 -0.0496
  984MOL0     H35732   9.508   4.879   2.535  0.1797  2.0830  1.7766
  984MOL0     H35733   9.536   4.820   2.834  0.1792  1.9499  1.7976
  984MOL0     H35734   9.463   4.960   2.773 -3.4605 -2.8410  0.4907
  984MOL0     H35735   9.728   4.892   2.643 -0.2170  0.5279 -0.8720
  984MOL0     H35736   9.648   5.048   2.668  4.9995  1.9163  1.2384
  984MOL0     H35737   9.744   4.896   2.909  0.6756 -1.8791 -2.9603
  984MOL0     H35738   9.683   5.058   2.905  1.2804  1.8540  0.1071
  984MOL0     H35739   9.939   4.945   2.770 -0.7784  0.2148 -2.8220
  984MOL0     H35740   9.876   5.100   2.723  0.2382 -0.9386 -0.2633
  984MOL0     H35741   9.961   4.917   3.050 -3.1075  1.0512  0.1431
  984MOL0     H35742  10.051   5.017   3.295  0.8267  1.0360  2.0711
  984MOL0     H35743  10.143   5.179   3.261  1.4559  0.1930 -3.6685
  984MOL0     H35744  10.210   4.907   3.141  2.6683  0.7038 -0.6307
  984MOL0     H35745  10.293   5.061   3.124 -2.5991  1.3160 -2.3654
  984MOL0     H35746  10.258   4.947   3.404 -0.3112 -0.1154  0.2842
  984MOL0     H35747  10.387   4.883   3.295 -0.3552 -0.7553  1.4963
  984MOL0     H35748  10.366   5.174   3.360  2.4832  1.0263  0.9068
  984MOL0     H35749  10.479   5.067   3.441  0.3339  1.4629  0.7949
  984MOL0     H35750  10.668   5.121   3.040  1.1358 -2.4206  1.4832
  984MOL0     H35751  10.861   5.357   2.923  2.8528 -0.1837 -1.6022
  984MOL0     H35752  10.839   5.186   2.919  2.6130 -0.8171  0.0592
  984MOL0     H35753  10.985   5.261   3.003  1.0650 -1.2110 -0.2262
  984MOL0     H35754  11.043   5.738   3.189  0.6175 -2.2615  0.5054
  984MOL0     H35755  11.231   5.876   3.135 -1.4625 -0.2889 -0.4413
  984MOL0     H35756  11.571   5.666   2.894  4.0773  0.8588  0.2841
  984MOL0     H35757  11.484   5.776   2.788 -0.4318  0.2399  1.2360
  984MOL0     H35758  11.706   5.834   2.798  0.7801  1.9116 -0.4989
  984MOL0     H35759  11.602   5.960   2.857  0.6995  1.0203 -1.8654
  984MOL0     H35760  11.763   5.766   3.036  0.2688  0.5872  0.9561
  984MOL0     H35761  11.682   5.904   3.107  1.5432 -2.3129  1.3404
  984MOL0     H35762  11.903   5.973   3.112 -0.2078  2.5934 -0.1250
  984MOL0     H35763  11.835   6.059   2.981 -0.9322 -0.3165 -0.0788
  984MOL0     H35764  11.992   5.807   2.951  0.7568  0.4749 -1.1544
  984MOL0     H35765  11.938   5.907   2.814  0.4850  0.4726  0.0235
  984MOL0     H35766  12.139   5.978   3.036 -0.1660 -0.2836 -0.5527
  984MOL0     H35767  12.070   6.105   2.945  1.1578 -0.4014  0.1758
  984MOL0     H35768  12.178   5.992   2.744  2.2890 -2.5727 -1.7938
  984MOL0     H35769  12.209   5.851   2.854  0.9704 -0.4446 -1.6020
  984MOL0     H35770  12.377   5.996   2.977  3.7916 -1.4831 -1.7224
  984MOL0     H35771  12.335   6.120   2.858  0.2756 -0.1227  2.4016
  984MOL0     H35772  11.376   5.556   2.878  2.3625 -1.4018  2.8151
  984MOL0     H35773  11.179   5.434   2.914  1.3293  0.7928 -1.4785
  984MOL0     H35774  10.793   5.405   3.423  2.6009 -1.7100 -0.0033
  984MOL0     H35775  10.572   5.272   3.428 -1.1700  0.2398 -1.0294
  984MOL0     H35776   9.036   5.082   2.438  0.0614  0.3788  1.2513
  984MOL0     H35777   8.806   5.193   2.438  0.9332  0.2985 -2.5446
  984MOL0     H35778   8.378   5.248   2.645 -0.0003 -0.0544  0.8119
  984MOL0     H35779   8.156   5.358   2.619 -2.0081 -0.7111 -0.2458
  984MOL0     H35780   7.928   5.321   2.245  1.8605  3.3945  0.7808
  984MOL0     H35781   7.855   5.192   2.338  0.4350  0.2767 -1.5121
  984MOL0     H35782   7.716   5.343   2.468 -0.5179 -4.4276 -1.5536
  984MOL0     H35783   7.682   5.358   2.300  0.5839  1.8480  0.0871
  984MOL0     H35784   7.865   5.545   2.460 -1.7165  3.3485  0.9799
  984MOL0     H35785   7.820   5.573   2.295 -0.1332 -0.9063 -1.0350
  984MOL0     H35786   7.639   5.574   2.552 -1.8435  1.2210 -0.2767
  984MOL0     H35787   7.569   5.560   2.389 -0.5053 -1.8448  1.6350
  984MOL0     H35788   7.726   5.958   2.396  0.3024 -0.5381 -3.1570
  984MOL0     H35789   8.062   5.117   2.288  1.3826  0.9132 -2.0467
  984MOL0     H35790   8.185   4.934   2.239 -0.5057  1.2072  0.4944
  984MOL0     H35791   8.340   5.023   2.197  1.5685  2.2237  1.4592
  984MOL0     H35792   8.341   4.890   2.313 -1.7469 -1.6641 -1.4151
  985MOL0     O35793   7.963   8.346   0.612  0.1756 -0.5949  0.8581
  985MOL0     C35794   7.924   8.230   0.570 -0.8259  0.1930  0.0835
  985MOL0     O35795   7.995   8.119   0.588 -0.0586  0.5107  0.0254
  985MOL0     C35796   8.135   8.113   0.591  0.5194 -0.9426  0.4040
  985MOL0     C35797   8.217   8.214   0.533  0.3345  0.0879  0.5402
  985MOL0     C35798   8.355   8.214   0.552  0.4086 -0.3161 -0.1016
  985MOL0     C35799   8.415   8.120   0.631 -0.7189 -0.1005 -0.2653
  985MOL0     O35800   8.549   8.104   0.653 -0.2803  0.7351 -0.2274
  985MOL0     C35801   8.636   8.221   0.625 -0.3225 -0.0899  0.7772
  985MOL0     C35802   8.776   8.171   0.634 -1.0581 -0.4302 -0.8353
  985MOL0     C35803   8.814   8.070   0.532 -0.9816 -0.1499 -0.2707
  985MOL0     C35804   8.961   8.025   0.551  0.1384 -0.4422 -0.4071
  985MOL0     C35805   8.975   7.924   0.661  0.3568  0.1614  0.3004
  985MOL0     C35806   9.079   7.817   0.641  0.4988 -0.5507 -0.1931
  985MOL0     C35807   9.221   7.864   0.682 -0.4476  1.2225 -0.8167
  985MOL0     C35808   9.326   7.751   0.645  0.1835  0.0192  0.3946
  985MOL0     N35809   9.451   7.789   0.703 -0.1255  0.3567 -0.7559
  985MOL0     C35810   9.551   7.873   0.651  0.3666 -0.4033  0.1656
  985MOL0     C35811   9.631   7.900   0.752  0.1773 -0.2337  0.0850
  985MOL0     C35812   9.744   7.997   0.749 -0.2701  1.1778  0.6969
  985MOL0     C35813   9.856   7.976   0.853  0.5090  0.2181 -0.7264
  985MOL0     C35814   9.918   8.104   0.907  0.2848 -0.2750  0.0537
  985MOL0     C35815  10.000   8.091   1.027  0.1318  0.6004  0.4292
  985MOL0     O35816  10.108   8.001   0.980 -0.6517 -0.1340 -0.0868
  985MOL0     C35817  10.239   8.018   1.024  0.6080  0.0922 -1.2818
  985MOL0     C35818  10.280   8.069   1.152 -0.1311  0.9735 -0.2577
  985MOL0     C35819  10.409   8.080   1.185 -0.1672  1.1534  0.1883
  985MOL0     C35820  10.444   8.132   1.315  0.0004  0.8010 -0.3512
  985MOL0     C35821  10.507   8.032   1.093  0.3065  0.4366 -0.0950
  985MOL0     C35822  10.654   8.052   1.119  0.3604 -1.6206  0.1626
  985MOL0     O35823  10.709   8.035   1.241  0.0690 -0.0621 -0.7777
  985MOL0     C35824  10.840   8.075   1.260 -1.0832 -0.1126 -0.4094
  985MOL0     C35825  10.863   8.183   1.344 -0.5148  0.4338  0.6597
  985MOL0     C35826  10.996   8.228   1.369  0.2584 -0.3127 -0.1909
  985MOL0     C35827  11.108   8.157   1.321 -0.0248 -0.1115  1.0527
  985MOL0     O35828  11.229   8.206   1.364 -0.2055  0.3938 -0.2841
  985MOL0     C35829  11.350   8.147   1.308 -0.4708 -0.7338 -0.0631
  985MOL0     C35830  11.459   8.249   1.336  0.2782  0.3221 -0.5919
  985MOL0     C35831  11.437   8.390   1.267 -0.7303  0.0924  0.6527
  985MOL0     C35832  11.458   8.388   1.115  0.5121  0.6938  0.2038
  985MOL0     C35833  11.324   8.396   1.024  0.1024  0.2517  0.4386
  985MOL0     C35834  11.256   8.527   1.052  0.6984 -0.3831 -0.6001
  985MOL0     C35835  11.169   8.575   0.939  0.1694  0.0875 -0.0694
  985MOL0     C35836  11.048   8.491   0.910 -0.3008 -0.1706 -0.4725
  985MOL0    Cl35837  10.946   8.580   0.783  0.0650 -0.4076 -0.0247
  985MOL0     C35838  11.072   8.036   1.245 -0.5822  0.3323 -0.4899
  985MOL0     C35839  10.947   8.004   1.207 -0.1233 -0.4970  0.2411
  985MOL0     O35840  10.710   8.082   1.015 -0.1609 -0.2038  0.3368
  985MOL0     C35841  10.467   7.984   0.968 -0.2053 -0.5721  0.3048
  985MOL0     C35842  10.333   7.981   0.931 -0.1453  0.0588 -0.6483
  985MOL0     N35843   9.583   7.847   0.867 -0.8721  0.1412 -0.0763
  985MOL0     N35844   9.478   7.786   0.835 -0.0069  0.2122 -0.1059
  985MOL0     C35845   8.336   8.023   0.693 -0.0019  0.3078 -0.2993
  985MOL0     C35846   8.195   8.020   0.670  0.0311 -0.2360  0.5966
  985MOL0     C35847   7.788   8.197   0.508  0.1546 -0.5365 -0.3889
  985MOL0     C35848   7.706   8.307   0.483  0.2799  0.2237  0.6945
  985MOL0     C35849   7.577   8.288   0.440  0.3341  0.7691 -0.0774
  985MOL0     C35850   7.521   8.158   0.417  0.1136 -0.1249 -0.1800
  985MOL0     O35851   7.392   8.119   0.374 -0.5152  0.1408  0.3480
  985MOL0     C35852   7.297   8.223   0.353 -0.2898  0.0294  0.4037
  985MOL0     C35853   7.220   8.277   0.477  0.1262  1.1250  0.2749
  985MOL0     C35854   7.232   8.431   0.482 -0.7396 -0.4088  0.2008
  985MOL0     C35855   7.127   8.502   0.572 -0.7841 -0.1952  0.1700
  985MOL0     C35856   6.984   8.484   0.535 -0.0036 -0.3310  0.6750
  985MOL0     C35857   6.865   8.473   0.509  0.6181 -0.8444  0.2539
  985MOL0     C35858   7.610   8.055   0.430  0.5503 -0.2777  0.6295
  985MOL0     C35859   7.739   8.061   0.475 -0.8314  0.0420  0.2890
  985MOL0     C35860   7.814   7.936   0.471 -0.0107 -0.0062  0.0163
  985MOL0     H35861   8.165   8.297   0.485 -0.9665 -0.3819  1.1148
  985MOL0     H35862   8.420   8.287   0.505 -1.9002  2.1170  0.2816
  985MOL0     H35863   8.619   8.297   0.702  0.9109  0.3510  0.6376
  985MOL0     H35864   8.622   8.270   0.528 -2.1086  4.0529  2.8543
  985MOL0     H35865   8.856   8.245   0.638  0.8810 -2.4434  0.0450
  985MOL0     H35866   8.770   8.117   0.729  0.0202  2.9845  1.3532
  985MOL0     H35867   8.742   7.988   0.540 -1.1286 -0.0193 -0.2464
  985MOL0     H35868   8.796   8.102   0.429 -1.4893 -0.6543 -0.3403
  985MOL0     H35869   9.001   7.979   0.460  0.3380 -0.0602 -0.5150
  985MOL0     H35870   9.024   8.109   0.582 -0.1920 -0.3045 -0.0937
  985MOL0     H35871   8.882   7.870   0.683  1.4545 -0.9041  2.8735
  985MOL0     H35872   8.994   7.987   0.749 -2.3568  1.5787 -0.0233
  985MOL0     H35873   9.043   7.731   0.699 -1.5456 -0.7834 -1.7008
  985MOL0     H35874   9.086   7.785   0.537  1.5376 -0.0757 -0.2877
  985MOL0     H35875   9.225   7.874   0.790  2.6494 -2.3408 -0.3929
  985MOL0     H35876   9.244   7.955   0.625  0.9327  0.5646 -1.3500
  985MOL0     H35877   9.289   7.655   0.681  0.0337  0.2967  0.9983
  985MOL0     H35878   9.348   7.754   0.538 -0.0919 -1.6870  0.2667
  985MOL0     H35879   9.553   7.918   0.552 -1.1853  0.6570  0.5821
  985MOL0     H35880   9.697   8.096   0.758 -0.2825  1.0843  1.7967
  985MOL0     H35881   9.794   8.001   0.652 -0.8218 -1.1870  0.2535
  985MOL0     H35882   9.821   7.906   0.929  0.7124 -0.6373 -1.4041
  985MOL0     H35883   9.940   7.922   0.810  1.7730 -0.0356  1.8739
  985MOL0     H35884   9.986   8.157   0.839  2.3832  0.9713  2.8928
  985MOL0     H35885   9.834   8.163   0.946 -1.7218 -2.4997 -0.6948
  985MOL0     H35886  10.032   8.193   1.053  2.1776  0.8772 -2.6183
  985MOL0     H35887   9.949   8.041   1.110  0.5871 -0.8887 -0.1541
  985MOL0     H35888  10.195   8.091   1.216 -0.9949 -0.0901 -0.9899
  985MOL0     H35889  10.354   8.170   1.364 -0.3157  0.1601 -0.4136
  985MOL0     H35890  10.513   8.216   1.306  1.6762 -0.2086  2.0639
  985MOL0     H35891  10.487   8.061   1.386 -1.1368  1.1894  0.7638
  985MOL0     H35892  10.783   8.225   1.403 -0.1114 -2.2543  3.4072
  985MOL0     H35893  11.006   8.321   1.425 -0.8233 -0.0880 -0.3353
  985MOL0     H35894  11.381   8.052   1.352  2.6426  0.8113  1.3887
  985MOL0     H35895  11.337   8.144   1.200 -1.3382 -0.7188  0.0296
  985MOL0     H35896  11.460   8.268   1.444 -3.5374  0.0782 -0.3698
  985MOL0     H35897  11.556   8.211   1.302  0.1143 -1.6778  0.9726
  985MOL0     H35898  11.516   8.456   1.305 -0.2117  0.6374 -1.2697
  985MOL0     H35899  11.340   8.432   1.295  0.1310  3.2432 -0.6294
  985MOL0     H35900  11.502   8.290   1.094 -0.9481  0.2385 -0.9793
  985MOL0     H35901  11.529   8.465   1.082 -0.2726  0.4321 -2.3491
  985MOL0     H35902  11.352   8.384   0.919  1.5652 -0.4970  0.8884
  985MOL0     H35903  11.272   8.303   1.050  0.6977 -0.5472 -1.1161
  985MOL0     H35904  11.331   8.605   1.067 -0.6619  0.6794  0.9712
  985MOL0     H35905  11.203   8.523   1.147 -0.6497 -1.9464 -1.3678
  985MOL0     H35906  11.228   8.576   0.847 -0.1741 -1.6479 -0.3553
  985MOL0     H35907  11.131   8.672   0.972 -0.6378 -0.5110  0.8292
  985MOL0     H35908  10.989   8.479   1.001 -1.6431 -1.1890 -1.4396
  985MOL0     H35909  11.073   8.390   0.876 -3.2909 -0.8315 -1.0083
  985MOL0     H35910  11.159   7.973   1.230 -0.2455  0.1907  1.7077
  985MOL0     H35911  10.937   7.909   1.155 -0.7458  0.8699 -2.3203
  985MOL0     H35912  10.545   7.955   0.898  3.1802  2.2875  2.5687
  985MOL0     H35913  10.308   7.951   0.830 -1.4170  0.8698 -0.5961
  985MOL0     H35914   8.375   7.943   0.755 -0.3127  1.8673  2.0383
  985MOL0     H35915   8.140   7.930   0.694 -1.3104 -0.0563 -1.4969
  985MOL0     H35916   7.742   8.410   0.485  2.3569 -0.2866 -2.7606
  985MOL0     H35917   7.512   8.374   0.426  0.8726  1.5204  1.7990
  985MOL0     H35918   7.348   8.309   0.310  0.3965  0.8733  2.7534
  985MOL0     H35919   7.225   8.205   0.273  1.3816  0.2517 -1.2164
  985MOL0     H35920   7.265   8.241   0.571 -0.2472  1.7174  0.6860
  985MOL0     H35921   7.118   8.237   0.474  1.1366 -1.6424 -0.2059
  985MOL0     H35922   7.333   8.466   0.504 -1.1031 -0.1234  1.4691
  985MOL0     H35923   7.236   8.469   0.380  1.8025 -1.2030 -0.0611
  985MOL0     H35924   7.166   8.603   0.584 -0.3408 -0.3139 -0.2495
  985MOL0     H35925   7.127   8.465   0.675  2.8212  2.6004  1.3607
  985MOL0     H35926   6.761   8.450   0.496  0.7203 -1.0627 -0.2198
  985MOL0     H35927   7.580   7.956   0.395 -2.9015 -0.1528  2.7608
  985MOL0     H35928   7.888   7.935   0.551  0.8736  0.5648 -0.7825
  985MOL0     H35929   7.746   7.851   0.484 -1.2730  1.2527  2.2445
  985MOL0     H35930   7.867   7.922   0.376  0.7161  0.8119  0.2909
  986MOL0     O35931   4.395   3.383   0.428 -0.5790 -0.7120 -0.1525
  986MOL0     C35932   4.361   3.342   0.315 -0.7281 -0.1017 -1.4014
  986MOL0     O35933   4.450   3.336   0.207 -0.3057 -0.3361  0.7163
  986MOL0     C35934   4.568   3.406   0.212 -0.2107  0.5668 -0.0736
  986MOL0     C35935   4.676   3.341   0.278 -0.1515 -0.6934 -0.6571
  986MOL0     C35936   4.796   3.403   0.294  0.2697 -0.4825 -0.1352
  986MOL0     C35937   4.817   3.528   0.236 -0.2380 -0.0114 -0.1187
  986MOL0     O35938   4.946   3.578   0.247 -0.1706 -0.7917  0.5804
  986MOL0     C35939   4.965   3.719   0.209  0.4145 -0.2012 -0.4520
  986MOL0     C35940   5.103   3.757   0.263  0.0018  0.0158 -0.3325
  986MOL0     C35941   5.164   3.874   0.185 -0.3985 -0.0610 -0.8395
  986MOL0     C35942   5.292   3.913   0.266  0.1162  0.5435  0.2647
  986MOL0     C35943   5.358   4.034   0.193 -0.4814 -0.5730 -1.1176
  986MOL0     C35944   5.448   4.109   0.294 -0.5443 -0.1543  0.3016
  986MOL0     C35945   5.565   4.018   0.346 -0.2110  0.0239 -0.9476
  986MOL0     C35946   5.669   3.966   0.244  0.1684  0.5140  0.1043
  986MOL0     N35947   5.756   4.061   0.178 -1.0623  0.2057  0.0810
  986MOL0     C35948   5.863   4.132   0.226  0.8612  0.2660 -0.4587
  986MOL0     C35949   5.915   4.207   0.131  0.4650 -0.0960 -0.0220
  986MOL0     C35950   6.023   4.305   0.145 -0.2201 -0.5881  0.0293
  986MOL0     C35951   6.164   4.235   0.143 -0.0641  0.3248  0.0051
  986MOL0     C35952   6.258   4.348   0.131 -0.1731  0.3138  0.3752
  986MOL0     C35953   6.389   4.279   0.080 -0.0691 -0.0920 -0.3288
  986MOL0     O35954   6.445   4.213   0.190  0.0886 -0.1512  0.3892
  986MOL0     C35955   6.559   4.135   0.175 -0.7755 -0.3844  0.6378
  986MOL0     C35956   6.619   4.099   0.052  0.1152 -0.4482 -1.1465
  986MOL0     C35957   6.746   4.046   0.046 -0.7920 -0.9525 -0.6215
  986MOL0     C35958   6.790   4.010  -0.093 -1.0061  0.0705 -0.4316
  986MOL0     C35959   6.816   4.025   0.168 -0.3863 -0.6836  0.4838
  986MOL0     C35960   6.953   3.965   0.183 -0.0337 -1.1072 -0.2046
  986MOL0     O35961   7.033   4.007   0.289 -0.5148 -0.7938  0.6136
  986MOL0     C35962   7.156   3.961   0.307  0.8503 -0.3745 -0.0428
  986MOL0     C35963   7.199   3.831   0.288  0.4278  0.2272 -0.2921
  986MOL0     C35964   7.332   3.798   0.304  0.2732  0.1835  0.4309
  986MOL0     C35965   7.425   3.891   0.350 -0.5289  0.2427  0.2877
  986MOL0     O35966   7.557   3.875   0.390  0.9417  0.3202  0.3633
  986MOL0     C35967   7.584   3.738   0.422 -0.4201  0.4697 -0.0980
  986MOL0     C35968   7.725   3.738   0.467 -0.2172  0.9115 -0.5481
  986MOL0     C35969   7.824   3.769   0.347 -0.2494 -0.6969 -0.1142
  986MOL0     C35970   7.969   3.729   0.396 -0.2110 -0.6960  0.0002
  986MOL0     C35971   8.065   3.796   0.290  0.4029 -0.4909  0.3886
  986MOL0     C35972   8.214   3.772   0.324  0.4533 -1.1284  0.3279
  986MOL0     C35973   8.269   3.630   0.326 -0.0291 -0.7257 -0.1621
  986MOL0     C35974   8.409   3.638   0.413  1.1720 -0.2687  0.0713
  986MOL0    Cl35975   8.500   3.486   0.406 -0.0633  0.2307 -0.1569
  986MOL0     C35976   7.389   4.024   0.359  0.4589 -0.7005 -0.0006
  986MOL0     C35977   7.253   4.062   0.343  0.4658  0.4192 -0.9120
  986MOL0     O35978   6.995   3.898   0.089  0.1068  0.2548  0.7427
  986MOL0     C35979   6.752   4.055   0.294  0.5903  0.0639  0.4541
  986MOL0     C35980   6.623   4.114   0.298  0.1912  0.2229  0.3098
  986MOL0     N35981   5.849   4.176   0.015  0.4880  0.3316 -0.0071
  986MOL0     N35982   5.750   4.096   0.046  0.2058 -0.4619  0.0385
  986MOL0     C35983   4.710   3.593   0.169 -0.1342  0.4958  0.4436
  986MOL0     C35984   4.583   3.539   0.171  0.5113 -0.6024 -0.8309
  986MOL0     C35985   4.223   3.303   0.285 -0.3704 -0.4289  1.2475
  986MOL0     C35986   4.198   3.228   0.165 -0.6867 -0.6764  0.2091
  986MOL0     C35987   4.069   3.199   0.115 -0.5563 -0.1697 -0.4973
  986MOL0     C35988   3.960   3.243   0.190  0.4978 -0.2440 -0.2844
  986MOL0     O35989   3.833   3.225   0.146 -0.0289  0.0448 -0.2087
  986MOL0     C35990   3.778   3.105   0.190 -0.1244  0.6709  0.4278
  986MOL0     C35991   3.630   3.115   0.217 -0.2425 -1.0404 -0.2662
  986MOL0     C35992   3.596   3.211   0.334  0.6726  0.2977  0.4253
  986MOL0     C35993   3.597   3.135   0.470 -0.6867  0.1055  0.1556
  986MOL0     C35994   3.515   3.014   0.484 -0.3605  0.1147  0.2063
  986MOL0     C35995   3.450   2.912   0.508 -0.3457  0.1094 -0.7832
  986MOL0     C35996   3.982   3.280   0.319  0.1442  0.3028  0.0250
  986MOL0     C35997   4.108   3.314   0.371  0.5194  0.7722  0.1000
  986MOL0     C35998   4.107   3.382   0.508  0.7127 -0.0068  0.0848
  986MOL0     H35999   4.674   3.238   0.314  1.0280  0.1351  1.9876
  986MOL0     H36000   4.871   3.338   0.337  1.0260  1.3288  1.3943
  986MOL0     H36001   4.898   3.785   0.265 -1.4101 -3.8937  2.2229
  986MOL0     H36002   4.964   3.721   0.100  1.7072  0.7729 -0.4572
  986MOL0     H36003   5.080   3.790   0.365  0.2155 -3.1411  0.8412
  986MOL0     H36004   5.168   3.669   0.259  2.0806  1.4288  0.6993
  986MOL0     H36005   5.179   3.844   0.081  0.5474  0.8434 -0.9876
  986MOL0     H36006   5.093   3.957   0.185 -1.3272 -0.8065  0.6029
  986MOL0     H36007   5.250   3.931   0.365  1.5320  0.6478  0.8753
  986MOL0     H36008   5.356   3.825   0.275  0.9455  1.1818  0.8662
  986MOL0     H36009   5.282   4.101   0.151  0.7511  0.1548 -2.2477
  986MOL0     H36010   5.411   3.996   0.105 -0.9520  2.3053 -2.7880
  986MOL0     H36011   5.491   4.197   0.244 -0.6911  0.1690  0.7296
  986MOL0     H36012   5.384   4.145   0.376  2.3206  3.8173  1.1193
  986MOL0     H36013   5.523   3.934   0.401  4.4219 -3.0750 -1.5684
  986MOL0     H36014   5.620   4.068   0.427  0.8926 -0.9434 -1.0679
  986MOL0     H36015   5.745   3.899   0.284  0.4841  0.4525 -0.5712
  986MOL0     H36016   5.608   3.912   0.170 -2.1922  1.5891  1.1706
  986MOL0     H36017   5.891   4.127   0.331  1.5195 -1.7768 -0.6857
  986MOL0     H36018   6.018   4.369   0.234  1.7872  2.1346 -1.6550
  986MOL0     H36019   6.016   4.372   0.059  1.3708 -0.6883 -0.2066
  986MOL0     H36020   6.179   4.189   0.241  3.0686  1.4553  0.1424
  986MOL0     H36021   6.164   4.166   0.058  0.4018  1.1569 -0.6880
  986MOL0     H36022   6.221   4.412   0.051 -0.7576 -0.1173  0.3008
  986MOL0     H36023   6.267   4.414   0.219 -0.7188  1.7919 -0.6381
  986MOL0     H36024   6.373   4.212  -0.004  1.0571 -1.6297  0.6357
  986MOL0     H36025   6.449   4.360   0.038 -0.7681  1.1043  0.8880
  986MOL0     H36026   6.569   4.121  -0.042 -0.2347  1.1498 -0.6212
  986MOL0     H36027   6.807   3.903  -0.109  0.9841  0.2095  0.4618
  986MOL0     H36028   6.889   4.052  -0.106 -1.9731  3.3963  1.7022
  986MOL0     H36029   6.731   4.058  -0.171 -2.0217 -0.3004  0.0809
  986MOL0     H36030   7.128   3.756   0.254 -1.5263  1.9724 -0.2858
  986MOL0     H36031   7.372   3.697   0.292 -1.5115 -0.8924  2.8314
  986MOL0     H36032   7.524   3.710   0.509  1.5574 -0.4955  1.0126
  986MOL0     H36033   7.572   3.663   0.343  1.0292  1.0974 -0.9364
  986MOL0     H36034   7.737   3.805   0.553 -0.3291  1.8672 -1.2638
  986MOL0     H36035   7.749   3.637   0.502 -0.3487  0.9611 -0.3147
  986MOL0     H36036   7.820   3.875   0.320 -1.3923 -0.8917 -0.8309
  986MOL0     H36037   7.797   3.716   0.255 -1.2647  0.1210 -0.3126
  986MOL0     H36038   7.976   3.620   0.407 -2.0260 -0.9876 -1.2568
  986MOL0     H36039   7.977   3.784   0.490  0.7604  0.8930 -0.9572
  986MOL0     H36040   8.038   3.751   0.194 -0.1265  0.0353  0.2917
  986MOL0     H36041   8.047   3.904   0.293 -1.5606 -0.7912  0.6896
  986MOL0     H36042   8.220   3.826   0.420 -0.4015 -2.1516  0.9833
  986MOL0     H36043   8.270   3.830   0.250 -2.6597  3.0488  0.8152
  986MOL0     H36044   8.280   3.590   0.225 -3.3364 -0.3500 -0.7928
  986MOL0     H36045   8.189   3.569   0.370 -1.4646 -0.8820 -2.7699
  986MOL0     H36046   8.395   3.666   0.518  0.7229 -0.7486  0.1422
  986MOL0     H36047   8.470   3.710   0.357 -0.7044  2.0185  0.8248
  986MOL0     H36048   7.459   4.103   0.386  2.1323 -1.6689 -1.3444
  986MOL0     H36049   7.225   4.166   0.358  2.8008  1.0763 -0.7144
  986MOL0     H36050   6.795   4.029   0.390 -0.4400 -2.9682  0.2045
  986MOL0     H36051   6.574   4.145   0.389 -0.9800 -0.3996 -0.0941
  986MOL0     H36052   4.728   3.687   0.118  2.2190  0.0296  0.2885
  986MOL0     H36053   4.505   3.593   0.118  1.0306 -0.6902 -1.6896
  986MOL0     H36054   4.281   3.207   0.099 -0.9188 -0.6108 -0.1044
  986MOL0     H36055   4.058   3.149   0.020 -0.5679  0.3771 -0.7830
  986MOL0     H36056   3.795   3.025   0.118 -1.1787  0.6560  0.1775
  986MOL0     H36057   3.825   3.084   0.287  2.6111  1.8392 -0.5512
  986MOL0     H36058   3.591   3.015   0.237 -0.3324 -0.3098  4.3634
  986MOL0     H36059   3.578   3.150   0.127  1.4694  1.2671 -0.4682
  986MOL0     H36060   3.660   3.299   0.331  2.1273 -0.7460 -1.9183
  986MOL0     H36061   3.492   3.233   0.307  1.3228  1.4188 -1.3104
  986MOL0     H36062   3.564   3.204   0.549  1.5143  0.2359  1.0396
  986MOL0     H36063   3.700   3.105   0.492 -0.1968  0.1104 -1.9877
  986MOL0     H36064   3.391   2.823   0.511  0.7428 -0.6339 -1.1264
  986MOL0     H36065   3.899   3.290   0.388 -1.3523 -1.7624 -1.3502
  986MOL0     H36066   4.149   3.482   0.492  0.5422  0.0055 -0.2901
  986MOL0     H36067   4.011   3.391   0.560  0.4358 -1.1840 -0.1852
  986MOL0     H36068   4.162   3.329   0.586 -1.6696  0.4098  2.1619
  987MOL0     O36069  10.625  10.890   0.650 -0.1249 -0.3003 -0.7482
  987MOL0     C36070  10.711  10.811   0.615  0.0720  1.1379  0.6233
  987MOL0     O36071  10.780  10.737   0.696  0.5885  0.4294  0.1131
  987MOL0     C36072  10.757  10.748   0.830 -0.4786  0.6457 -0.3847
  987MOL0     C36073  10.766  10.628   0.899  0.2672 -0.0235  0.2739
  987MOL0     C36074  10.784  10.630   1.036  1.1670  0.8263  1.0644
  987MOL0     C36075  10.788  10.748   1.106  0.1624  1.5383  0.2620
  987MOL0     O36076  10.781  10.750   1.241 -0.4985 -0.0101  0.6930
  987MOL0     C36077  10.843  10.646   1.322  0.3254 -0.2995 -0.2286
  987MOL0     C36078  10.891  10.708   1.450 -0.7463 -0.0892 -0.5916
  987MOL0     C36079  11.038  10.764   1.422  0.1685  0.0902 -0.6867
  987MOL0     C36080  11.088  10.862   1.533 -1.4842 -0.7040 -0.3494
  987MOL0     C36081  11.238  10.890   1.499  0.4952 -0.6605 -0.1616
  987MOL0     C36082  11.311  10.959   1.612  0.0151  0.0338 -0.2521
  987MOL0     C36083  11.428  11.042   1.555  0.4609  0.0533 -0.2289
  987MOL0     C36084  11.380  11.176   1.495 -0.0989  0.5783 -0.2804
  987MOL0     N36085  11.373  11.292   1.581  0.1453  0.2234  0.2195
  987MOL0     C36086  11.432  11.411   1.546  0.2493 -0.0539 -0.4256
  987MOL0     C36087  11.365  11.505   1.621 -0.3542  0.5643  0.2337
  987MOL0     C36088  11.387  11.661   1.619  0.2425 -0.2749  0.2490
  987MOL0     C36089  11.518  11.693   1.678 -0.2202 -0.9124 -0.3550
  987MOL0     C36090  11.528  11.851   1.665  0.2842  0.8340  0.2055
  987MOL0     C36091  11.640  11.900   1.739  0.6697 -0.2730 -0.9575
  987MOL0     O36092  11.763  11.859   1.678 -0.2049 -0.2491  0.3393
  987MOL0     C36093  11.870  11.937   1.719 -0.0972  0.0056  0.5090
  987MOL0     C36094  11.963  11.958   1.622  0.1568 -0.5535 -0.6320
  987MOL0     C36095  12.082  12.045   1.644  1.1394  0.4065 -0.2067
  987MOL0     C36096  12.174  12.069   1.530 -0.1746 -0.5354  0.5032
  987MOL0     C36097  12.093  12.108   1.774  0.1616  0.9279 -0.0678
  987MOL0     C36098  12.202  12.199   1.796 -0.3224  0.0585  0.6199
  987MOL0     O36099  12.323  12.165   1.747  0.6603  0.7668  0.7559
  987MOL0     C36100  12.437  12.241   1.765  1.0785  0.0350 -0.4818
  987MOL0     C36101  12.564  12.179   1.756 -0.3334  0.3876  0.0749
  987MOL0     C36102  12.682  12.243   1.773 -0.8447 -0.7162  0.3758
  987MOL0     C36103  12.685  12.383   1.807  0.6322 -0.2895 -0.5690
  987MOL0     O36104  12.809  12.438   1.843  0.2278 -0.8070 -0.5907
  987MOL0     C36105  12.814  12.576   1.859 -0.0506 -0.0488 -0.1073
  987MOL0     C36106  12.964  12.625   1.874 -0.6193  0.0940  0.3548
  987MOL0     C36107  13.033  12.608   1.735  0.0613  0.1666 -0.8139
  987MOL0     C36108  13.154  12.694   1.733 -0.2974 -0.5907  0.0384
  987MOL0     C36109  13.229  12.689   1.591 -0.3091  0.3049  0.1003
  987MOL0     C36110  13.363  12.761   1.583 -1.1124 -0.7180 -0.3209
  987MOL0     C36111  13.472  12.705   1.681 -0.6111 -0.3210 -0.5195
  987MOL0     C36112  13.615  12.729   1.626  0.6540 -0.0303  0.2280
  987MOL0    Cl36113  13.647  12.904   1.603  0.2266 -0.4120  0.1400
  987MOL0     C36114  12.559  12.448   1.808  0.3230  0.3352 -0.2493
  987MOL0     C36115  12.435  12.388   1.784  0.3892  0.6800  0.4246
  987MOL0     O36116  12.182  12.293   1.879 -0.3554 -0.0704 -0.2489
  987MOL0     C36117  11.994  12.086   1.870  0.1668 -0.9462 -0.0288
  987MOL0     C36118  11.885  12.002   1.844  0.5100  0.3203 -0.3037
  987MOL0     N36119  11.259  11.439   1.679 -0.1213 -0.5328 -0.3650
  987MOL0     N36120  11.262  11.317   1.657 -0.1566 -0.2431 -0.0668
  987MOL0     C36121  10.776  10.869   1.031 -0.5975 -0.2877 -0.0400
  987MOL0     C36122  10.766  10.874   0.896  0.1045  0.3575  0.2270
  987MOL0     C36123  10.755  10.811   0.476  0.0058  0.2337  0.5735
  987MOL0     C36124  10.861  10.719   0.435  0.6031  0.1404  0.1887
  987MOL0     C36125  10.912  10.716   0.303  0.3505 -0.2701 -0.1545
  987MOL0     C36126  10.871  10.805   0.207  0.2550 -0.2319  1.0559
  987MOL0     O36127  10.931  10.818   0.086 -0.2406 -0.3601  0.7556
  987MOL0     C36128  10.887  10.727  -0.013 -0.0307  0.2588  0.7134
  987MOL0     C36129  10.752  10.758  -0.066  0.8048 -0.2921  0.0021
  987MOL0     C36130  10.710  10.650  -0.166  0.4838 -0.2178  1.1179
  987MOL0     C36131  10.617  10.534  -0.113 -0.2355 -0.3302 -0.2081
  987MOL0     C36132  10.555  10.459  -0.227 -0.1770  0.1045  0.6459
  987MOL0     C36133  10.511  10.395  -0.324  0.2380 -0.6737 -0.2854
  987MOL0     C36134  10.766  10.891   0.245  0.0589 -0.4390  0.4128
  987MOL0     C36135  10.718  10.901   0.376  0.3058 -0.2770  0.6340
  987MOL0     C36136  10.613  11.015   0.401 -1.1903 -0.0168  0.4716
  987MOL0     H36137  10.753  10.530   0.854 -1.0298  0.4261 -0.3928
  987MOL0     H36138  10.799  10.530   1.074 -2.2782 -0.5907 -0.8780
  987MOL0     H36139  10.932  10.603   1.274  0.0516 -1.6012  0.4055
  987MOL0     H36140  10.766  10.571   1.342  1.9258 -1.9276  0.0891
  987MOL0     H36141  10.833  10.792   1.487  0.4443  0.9757 -1.0445
  987MOL0     H36142  10.895  10.620   1.515  0.0018  0.0793 -0.4030
  987MOL0     H36143  11.107  10.679   1.414 -1.2310 -1.1195 -0.4262
  987MOL0     H36144  11.041  10.817   1.327  0.0382  2.5080  0.5896
  987MOL0     H36145  11.033  10.956   1.538  0.8676  0.8234 -1.3715
  987MOL0     H36146  11.074  10.804   1.625 -0.8300 -1.5694 -0.7743
  987MOL0     H36147  11.252  10.946   1.406  0.0389 -0.6014 -0.1972
  987MOL0     H36148  11.297  10.799   1.480  0.7774 -1.0024  2.0637
  987MOL0     H36149  11.253  11.028   1.674  1.7624  0.1777  1.3159
  987MOL0     H36150  11.343  10.879   1.680 -0.0858  2.0354  2.2740
  987MOL0     H36151  11.479  10.996   1.470  0.5445 -0.7989  0.2706
  987MOL0     H36152  11.500  11.063   1.635 -1.5285  1.1601  1.3559
  987MOL0     H36153  11.453  11.204   1.417  1.2524 -2.9168 -0.4325
  987MOL0     H36154  11.279  11.157   1.458  0.1505  2.6537 -2.2895
  987MOL0     H36155  11.518  11.434   1.484  0.0202 -0.0566 -0.7443
  987MOL0     H36156  11.296  11.696   1.667 -1.0822 -2.2407 -0.7253
  987MOL0     H36157  11.393  11.689   1.513 -0.7602 -0.6129  0.0956
  987MOL0     H36158  11.525  11.661   1.782 -1.1094  0.3033  0.1093
  987MOL0     H36159  11.594  11.645   1.616 -1.2545 -2.0933 -0.7415
  987MOL0     H36160  11.528  11.869   1.557 -2.9072  0.8798  0.1034
  987MOL0     H36161  11.439  11.899   1.707  0.6755  2.8525 -1.1178
  987MOL0     H36162  11.641  12.009   1.730 -1.3198 -0.3860 -3.8539
  987MOL0     H36163  11.627  11.888   1.847  2.8234  0.2914 -0.6022
  987MOL0     H36164  11.943  11.923   1.521  2.1209 -0.8513 -0.9587
  987MOL0     H36165  12.169  12.175   1.505  0.0081 -0.7989 -0.7578
  987MOL0     H36166  12.134  12.013   1.445 -0.6484 -1.4819  1.3294
  987MOL0     H36167  12.275  12.032   1.553 -0.2562  0.1199  2.0099
  987MOL0     H36168  12.573  12.071   1.747 -1.3469  0.2087  1.0733
  987MOL0     H36169  12.775  12.186   1.774 -0.4839 -0.3491 -2.6277
  987MOL0     H36170  12.758  12.638   1.788 -1.6127  0.0080  1.1160
  987MOL0     H36171  12.776  12.604   1.958  0.1453  1.4858 -0.4413
  987MOL0     H36172  12.972  12.730   1.905 -0.3356 -0.3512  1.8634
  987MOL0     H36173  13.015  12.568   1.952  3.9223  2.0798 -0.7813
  987MOL0     H36174  12.966  12.628   1.651 -0.7782  0.8740  0.0131
  987MOL0     H36175  13.063  12.502   1.731  0.1097  0.0389  1.4251
  987MOL0     H36176  13.215  12.673   1.822  1.3310 -0.5452 -1.0214
  987MOL0     H36177  13.102  12.789   1.750 -3.8777 -2.8663  3.6053
  987MOL0     H36178  13.256  12.584   1.577  0.2763  0.6060 -1.1960
  987MOL0     H36179  13.161  12.720   1.511  0.4878  1.1837 -0.2657
  987MOL0     H36180  13.335  12.865   1.603 -0.5535 -0.4853 -0.7323
  987MOL0     H36181  13.399  12.764   1.480 -2.0401 -1.1096 -0.6621
  987MOL0     H36182  13.462  12.598   1.702  2.5540 -0.9831 -1.9030
  987MOL0     H36183  13.461  12.757   1.777  1.4777  0.1904 -0.5177
  987MOL0     H36184  13.634  12.672   1.534 -0.8652 -3.1891  1.7279
  987MOL0     H36185  13.682  12.687   1.702  1.2830  0.7944  0.1392
  987MOL0     H36186  12.558  12.556   1.819 -0.6112  0.3467 -0.3688
  987MOL0     H36187  12.353  12.460   1.780 -0.1770  0.2762  2.9286
  987MOL0     H36188  12.006  12.142   1.962  1.5575  3.7931 -2.7653
  987MOL0     H36189  11.814  11.985   1.925  1.2544 -0.2010  0.2525
  987MOL0     H36190  10.774  10.964   1.083  1.1550 -0.1394 -0.1669
  987MOL0     H36191  10.763  10.966   0.839 -2.0743  1.2477  1.6615
  987MOL0     H36192  10.883  10.631   0.494 -2.5696 -1.1338 -0.3176
  987MOL0     H36193  10.982  10.638   0.274  1.5132  0.6295  0.1768
  987MOL0     H36194  10.957  10.721  -0.097  0.2945 -3.2278  1.0899
  987MOL0     H36195  10.893  10.631   0.040  0.6128  0.2943  0.7158
  987MOL0     H36196  10.752  10.855  -0.118  1.0629 -0.0055  0.5242
  987MOL0     H36197  10.677  10.760   0.013 -1.3643  2.1497 -1.9488
  987MOL0     H36198  10.660  10.711  -0.242  3.5714  0.8677 -0.2327
  987MOL0     H36199  10.798  10.608  -0.215 -0.4053 -1.7568  0.8035
  987MOL0     H36200  10.537  10.578  -0.054 -1.5952  2.3329 -3.6896
  987MOL0     H36201  10.676  10.473  -0.043 -1.0764 -0.8986  0.0208
  987MOL0     H36202  10.477  10.341  -0.410  0.3987 -0.7587 -0.2970
  987MOL0     H36203  10.730  10.969   0.179 -0.7189 -2.1872 -1.3157
  987MOL0     H36204  10.650  11.093   0.467  0.5961  0.4967 -1.0368
  987MOL0     H36205  10.599  11.069   0.307  1.9654 -1.0256 -0.7133
  987MOL0     H36206  10.527  10.965   0.446 -1.1919 -0.7514 -0.3158
  988MOL0     O36207   9.765   7.663   9.124 -0.2572  0.2522 -0.0489
  988MOL0     C36208   9.735   7.675   9.001  0.5865  0.6871  0.8038
  988MOL0     O36209   9.807   7.624   8.900 -0.1806  1.1305  0.1571
  988MOL0     C36210   9.916   7.532   8.922 -0.6686 -0.5597  0.3036
  988MOL0     C36211  10.000   7.513   8.811 -0.6879  0.0151  0.3492
  988MOL0     C36212  10.123   7.442   8.833 -0.6822 -0.7482 -0.0840
  988MOL0     C36213  10.146   7.374   8.948 -0.2692 -0.0092 -0.2923
  988MOL0     O36214  10.266   7.305   8.948 -0.4670 -0.0579  1.0094
  988MOL0     C36215  10.287   7.216   9.061 -1.3506 -0.4086  0.1483
  988MOL0     C36216  10.439   7.181   9.054  0.2825  0.5089 -0.0822
  988MOL0     C36217  10.460   7.027   9.093  0.0511 -0.1373  0.6919
  988MOL0     C36218  10.589   6.970   9.036 -0.8628  0.1878 -0.5425
  988MOL0     C36219  10.710   7.047   9.099  0.1257  0.4385 -0.3540
  988MOL0     C36220  10.835   6.987   9.042 -0.5866  0.1733  0.5753
  988MOL0     C36221  10.961   7.044   9.105 -1.5316 -0.1402  0.0541
  988MOL0     C36222  10.987   6.996   9.248 -0.6575 -0.2870  1.2423
  988MOL0     N36223  11.125   6.941   9.273 -1.1318  0.0170  0.4992
  988MOL0     C36224  11.194   6.848   9.203  0.6805  0.4931 -0.4595
  988MOL0     C36225  11.304   6.798   9.271  0.1652 -1.1644 -0.2129
  988MOL0     C36226  11.385   6.674   9.256 -0.2465 -0.0707  0.1074
  988MOL0     C36227  11.522   6.687   9.319 -0.4958  1.2921  0.7574
  988MOL0     C36228  11.617   6.576   9.276 -0.1670  0.1872 -0.2275
  988MOL0     C36229  11.771   6.589   9.315 -0.9908 -0.6046 -0.4151
  988MOL0     O36230  11.841   6.475   9.265  0.9468 -0.0046 -0.2796
  988MOL0     C36231  11.975   6.476   9.265 -1.1343  0.3039 -0.5163
  988MOL0     C36232  12.062   6.581   9.300  0.1098  0.1186  0.2817
  988MOL0     C36233  12.200   6.562   9.315 -0.2718  0.1584  0.6305
  988MOL0     C36234  12.272   6.672   9.379  0.6557 -0.1247 -0.5316
  988MOL0     C36235  12.259   6.440   9.282  0.4054  0.0096  0.4238
  988MOL0     C36236  12.404   6.412   9.294  0.2968  0.4091  0.1316
  988MOL0     O36237  12.428   6.278   9.293  0.1569  0.3401  0.3668
  988MOL0     C36238  12.547   6.216   9.307 -0.2486 -0.4953  0.2640
  988MOL0     C36239  12.531   6.077   9.293 -0.3028  0.2215 -0.3874
  988MOL0     C36240  12.647   5.991   9.306  0.9560  0.1725  0.5313
  988MOL0     C36241  12.770   6.046   9.335 -0.3713  0.4679 -0.4819
  988MOL0     O36242  12.876   5.953   9.339 -0.0349  0.1673 -0.1207
  988MOL0     C36243  12.996   5.990   9.403  0.4467 -0.1166 -0.0866
  988MOL0     C36244  13.093   5.879   9.388 -0.6204 -0.6434  0.2813
  988MOL0     C36245  13.187   5.861   9.506 -0.3373  0.6590 -0.7825
  988MOL0     C36246  13.288   5.736   9.505 -0.0447  0.1497  0.0147
  988MOL0     C36247  13.368   5.719   9.629  0.5903 -0.0958  0.1988
  988MOL0     C36248  13.480   5.815   9.641 -0.0351 -0.5925 -0.2580
  988MOL0     C36249  13.578   5.771   9.751  0.1579 -0.2424 -0.2112
  988MOL0     C36250  13.723   5.824   9.738  0.1096  0.3775 -0.1953
  988MOL0    Cl36251  13.730   6.001   9.717  0.4896 -0.1139  0.3445
  988MOL0     C36252  12.781   6.190   9.352  0.0049  0.2057  0.6777
  988MOL0     C36253  12.673   6.272   9.324  0.1342 -0.9710  0.2387
  988MOL0     O36254  12.484   6.506   9.295  0.2211  0.1185  0.2487
  988MOL0     C36255  12.172   6.335   9.243 -0.7347 -0.5938  0.0316
  988MOL0     C36256  12.036   6.352   9.234  0.5680  0.4474  0.3785
  988MOL0     N36257  11.294   6.870   9.391 -0.4484  0.3605 -0.1092
  988MOL0     N36258  11.201   6.959   9.387 -0.0688  0.1413  0.2373
  988MOL0     C36259  10.042   7.370   9.042  0.0342 -0.6407 -0.8013
  988MOL0     C36260   9.933   7.451   9.032 -1.0055  0.5879 -0.1081
  988MOL0     C36261   9.616   7.755   8.967  0.7478 -0.3498 -0.4809
  988MOL0     C36262   9.489   7.696   8.970 -0.3732 -0.4228  0.5384
  988MOL0     C36263   9.377   7.757   8.932  0.4636  0.8153  0.6504
  988MOL0     C36264   9.372   7.887   8.891 -0.0088 -0.6097 -0.2082
  988MOL0     O36265   9.252   7.935   8.848 -0.4597  0.9165  0.6215
  988MOL0     C36266   9.246   8.072   8.806  0.5728  0.1028  0.4684
  988MOL0     C36267   9.093   8.097   8.802 -0.5211  0.0751 -0.0455
  988MOL0     C36268   9.054   8.244   8.799  0.7224 -0.5979 -0.1999
  988MOL0     C36269   8.906   8.276   8.849 -0.2515 -0.3046  1.1385
  988MOL0     C36270   8.878   8.229   8.984  0.0174 -0.5245  0.4093
  988MOL0     C36271   8.840   8.194   9.094  0.2610  0.5038  0.9626
  988MOL0     C36272   9.502   7.957   8.884 -0.5204  0.5742  0.1593
  988MOL0     C36273   9.619   7.892   8.921  0.1062 -0.1404  0.0184
  988MOL0     C36274   9.749   7.973   8.904 -0.1448  0.0946  0.1042
  988MOL0     H36275   9.973   7.560   8.717 -0.5724 -3.4656 -1.5922
  988MOL0     H36276  10.182   7.444   8.742 -2.8710 -0.1553 -1.5736
  988MOL0     H36277  10.227   7.125   9.056 -0.8913 -0.8655  2.1396
  988MOL0     H36278  10.270   7.263   9.158 -0.6504  0.5900 -0.1962
  988MOL0     H36279  10.485   7.214   8.960  0.1369  1.0670  0.0339
  988MOL0     H36280  10.490   7.254   9.118  0.0836  1.1535 -0.6330
  988MOL0     H36281  10.454   7.016   9.202 -2.6381  1.6141  0.8118
  988MOL0     H36282  10.369   6.976   9.060 -0.6698  1.3602  0.2591
  988MOL0     H36283  10.586   6.868   9.076  0.7485  0.2394 -0.2436
  988MOL0     H36284  10.599   6.963   8.928 -1.2353  0.4965 -0.5991
  988MOL0     H36285  10.713   7.016   9.204  3.2868  0.4030 -0.3646
  988MOL0     H36286  10.713   7.155   9.081  0.3580  0.2575 -1.4600
  988MOL0     H36287  10.831   6.879   9.059 -3.5778 -0.1949 -1.6155
  988MOL0     H36288  10.835   7.002   8.933  2.1520 -0.4572  0.4301
  988MOL0     H36289  10.971   7.152   9.095 -0.9654 -0.2603 -0.8338
  988MOL0     H36290  11.048   7.007   9.050 -0.4571 -0.2278  1.7450
  988MOL0     H36291  10.983   7.078   9.320 -2.1110  1.0788 -0.2932
  988MOL0     H36292  10.913   6.923   9.280  0.2834 -1.6809  0.3333
  988MOL0     H36293  11.150   6.799   9.117 -2.0928  0.3435  0.9345
  988MOL0     H36294  11.391   6.646   9.150 -0.9524  0.4249 -0.0674
  988MOL0     H36295  11.327   6.587   9.288  1.1042 -1.7789 -1.7844
  988MOL0     H36296  11.563   6.786   9.298 -2.1541  1.4644 -2.1968
  988MOL0     H36297  11.512   6.682   9.428  2.2578  1.5152  1.0981
  988MOL0     H36298  11.575   6.480   9.309 -0.2108  1.3254  3.4875
  988MOL0     H36299  11.622   6.578   9.167 -0.1102 -0.6527 -0.2484
  988MOL0     H36300  11.818   6.682   9.283  0.3721 -0.8113  0.8631
  988MOL0     H36301  11.780   6.597   9.424  1.0406  0.8413 -0.6370
  988MOL0     H36302  12.028   6.676   9.340 -0.1877  0.0157  0.2718
  988MOL0     H36303  12.206   6.722   9.451  0.2580  2.2238 -2.4100
  988MOL0     H36304  12.305   6.743   9.303  3.0245  0.0882  0.6005
  988MOL0     H36305  12.352   6.632   9.442  0.3721 -1.5915 -1.0718
  988MOL0     H36306  12.436   6.033   9.266 -0.4577 -0.2021  0.8089
  988MOL0     H36307  12.638   5.883   9.307 -2.1270  0.1850 -2.8851
  988MOL0     H36308  13.045   6.078   9.359  0.0146 -0.5267 -1.4559
  988MOL0     H36309  12.976   5.998   9.510  0.6941  1.1298 -0.1140
  988MOL0     H36310  13.042   5.782   9.383 -0.7033 -0.5614 -0.9588
  988MOL0     H36311  13.158   5.894   9.301  3.2620 -0.9951  2.8849
  988MOL0     H36312  13.134   5.842   9.599 -0.4176  1.7253 -0.6016
  988MOL0     H36313  13.236   5.953   9.538 -2.8761  1.8268 -0.0047
  988MOL0     H36314  13.356   5.745   9.419  0.7081  3.3326  0.7846
  988MOL0     H36315  13.222   5.651   9.489 -0.6894  0.9566 -1.8893
  988MOL0     H36316  13.297   5.718   9.712 -0.4260  1.3110 -0.6248
  988MOL0     H36317  13.400   5.614   9.625 -2.4956 -1.0894 -1.3666
  988MOL0     H36318  13.434   5.914   9.650  1.5983  0.3575 -1.8219
  988MOL0     H36319  13.537   5.814   9.548 -0.3485  0.1452 -0.4616
  988MOL0     H36320  13.586   5.662   9.747  1.0119 -0.1363 -2.9202
  988MOL0     H36321  13.545   5.806   9.850 -0.1504 -1.0077 -0.0381
  988MOL0     H36322  13.761   5.777   9.647  3.4591  1.3780  0.5381
  988MOL0     H36323  13.787   5.787   9.819  0.7672 -1.0208 -1.3041
  988MOL0     H36324  12.876   6.236   9.378  3.1545 -4.3646 -1.3597
  988MOL0     H36325  12.687   6.379   9.330 -0.7071 -0.7171 -1.6519
  988MOL0     H36326  12.221   6.247   9.201 -1.5174 -0.8931 -0.2766
  988MOL0     H36327  11.979   6.266   9.200  2.9594 -0.5065 -1.5818
  988MOL0     H36328  10.062   7.311   9.132  2.7485 -0.5206 -1.2646
  988MOL0     H36329   9.871   7.454   9.121 -0.0060 -0.6213  0.6692
  988MOL0     H36330   9.483   7.592   9.001 -0.6640 -0.1455  1.4561
  988MOL0     H36331   9.278   7.712   8.935  1.0103 -0.3840  2.9488
  988MOL0     H36332   9.297   8.132   8.882  1.8036  0.3909 -0.5461
  988MOL0     H36333   9.283   8.097   8.706 -0.7082 -2.0199 -0.6350
  988MOL0     H36334   9.055   8.048   8.892  0.7991  1.7969  1.5315
  988MOL0     H36335   9.057   8.044   8.713 -3.0712  2.1594 -0.3804
  988MOL0     H36336   9.123   8.306   8.857  2.3017 -0.0534 -2.5107
  988MOL0     H36337   9.050   8.277   8.695  0.8145  1.0007  0.2736
  988MOL0     H36338   8.837   8.234   8.775 -1.8666  1.5608  1.4987
  988MOL0     H36339   8.892   8.384   8.847  2.0614  0.1216 -2.6479
  988MOL0     H36340   8.792   8.160   9.183 -1.3286  3.0161  1.1604
  988MOL0     H36341   9.506   8.059   8.847 -2.8074  1.1164  1.2371
  988MOL0     H36342   9.755   8.055   8.976 -2.6996  1.8980 -1.5766
  988MOL0     H36343   9.839   7.913   8.918  0.4828  0.4381 -2.0829
  988MOL0     H36344   9.757   8.024   8.808  2.3762  1.7458  1.0978
  989MOL0     O36345   0.253   8.207   2.245  0.5334  0.1065 -0.6534
  989MOL0     C36346   0.155   8.280   2.277 -0.0874  0.1759  0.9864
  989MOL0     O36347   0.156   8.372   2.378  0.7730  0.4709 -0.5568
  989MOL0     C36348   0.261   8.371   2.467  0.5054 -0.0108  0.0874
  989MOL0     C36349   0.400   8.389   2.438  0.4005  0.1883  0.6056
  989MOL0     C36350   0.489   8.402   2.539 -0.1664 -0.1957 -0.4408
  989MOL0     C36351   0.447   8.400   2.671  0.2413 -0.3750  0.1208
  989MOL0     O36352   0.549   8.423   2.763  0.3500  0.0982 -0.1281
  989MOL0     C36353   0.562   8.320   2.856 -0.4428 -0.0143 -0.4218
  989MOL0     C36354   0.710   8.280   2.883  0.0298 -0.3084  0.1565
  989MOL0     C36355   0.726   8.193   3.008  0.0288 -0.2856 -0.4878
  989MOL0     C36356   0.871   8.139   3.016  0.2662  0.2767 -0.1241
  989MOL0     C36357   0.909   8.062   3.142  0.1797 -0.1140 -0.7612
  989MOL0     C36358   0.810   7.949   3.174  0.2815  0.0976  0.1682
  989MOL0     C36359   0.772   7.859   3.057  0.5769 -0.4143 -0.3724
  989MOL0     C36360   0.667   7.749   3.092  0.2537  0.7698 -0.8100
  989MOL0     N36361   0.676   7.626   3.006 -0.6172 -0.6493  0.2935
  989MOL0     C36362   0.651   7.626   2.868  0.4141  0.1673 -0.6911
  989MOL0     C36363   0.698   7.503   2.826 -0.6895 -0.8996  0.1181
  989MOL0     C36364   0.692   7.446   2.685  0.3737  0.3702 -0.8256
  989MOL0     C36365   0.803   7.511   2.601 -0.7424  0.1501 -0.5535
  989MOL0     C36366   0.946   7.469   2.648  0.2236 -0.4344  0.1991
  989MOL0     C36367   1.055   7.515   2.540 -0.6933  0.2123  0.8103
  989MOL0     O36368   1.169   7.426   2.560  0.3082 -0.6641  0.3791
  989MOL0     C36369   1.289   7.473   2.602 -0.0808  1.1418 -0.4981
  989MOL0     C36370   1.407   7.420   2.548  0.4149 -0.0865  0.4466
  989MOL0     C36371   1.534   7.461   2.599  0.7640  0.9090  0.1460
  989MOL0     C36372   1.654   7.389   2.541 -0.4818  0.1368  0.2317
  989MOL0     C36373   1.535   7.558   2.697 -0.3591  0.7618 -0.7636
  989MOL0     C36374   1.657   7.609   2.754 -1.3016  0.0302  0.5584
  989MOL0     O36375   1.651   7.654   2.881 -0.2174 -0.1439 -0.2688
  989MOL0     C36376   1.770   7.708   2.941  0.9046 -1.3557  0.2308
  989MOL0     C36377   1.887   7.640   2.951 -0.3811  0.2077  0.5969
  989MOL0     C36378   1.989   7.676   3.032  0.0285 -0.9617  0.7561
  989MOL0     C36379   1.982   7.798   3.101 -0.0740  0.2476  0.4814
  989MOL0     O36380   2.082   7.835   3.187 -0.3350  0.0010 -0.9422
  989MOL0     C36381   2.083   7.962   3.251 -0.4761 -0.2528 -0.2635
  989MOL0     C36382   2.213   7.966   3.332 -0.2542 -0.5301  0.3203
  989MOL0     C36383   2.226   7.874   3.455 -0.3627  0.7610 -0.7072
  989MOL0     C36384   2.137   7.907   3.575 -0.4328 -0.6646  0.3898
  989MOL0     C36385   2.155   7.823   3.694 -0.4182 -0.3268  0.7380
  989MOL0     C36386   2.053   7.840   3.804 -0.4810 -0.0988  0.2969
  989MOL0     C36387   1.929   7.758   3.790 -0.2809  0.3242 -0.0966
  989MOL0     C36388   1.859   7.726   3.922 -0.3543 -0.4937  0.0734
  989MOL0    Cl36389   1.699   7.643   3.871 -0.2142  0.0076  0.0737
  989MOL0     C36390   1.868   7.882   3.088 -0.1963  1.0879 -0.3170
  989MOL0     C36391   1.761   7.833   3.008  0.0641 -0.1291  0.1642
  989MOL0     O36392   1.745   7.638   2.671 -0.0979 -0.1169 -0.4115
  989MOL0     C36393   1.418   7.620   2.745  0.7983 -0.0853  0.1071
  989MOL0     C36394   1.292   7.577   2.697  0.3213  0.4863  0.0925
  989MOL0     N36395   0.746   7.443   2.937  0.1523  0.0030  0.0044
  989MOL0     N36396   0.734   7.509   3.046 -0.0112 -0.4256 -0.0069
  989MOL0     C36397   0.313   8.400   2.698 -0.2605  0.2931 -0.0462
  989MOL0     C36398   0.218   8.380   2.601  0.5998 -0.0527  0.0251
  989MOL0     C36399   0.033   8.278   2.192 -0.1084 -0.1959  1.1829
  989MOL0     C36400  -0.057   8.378   2.221  0.0825 -0.2907 -0.6016
  989MOL0     C36401  -0.181   8.389   2.161 -0.2471 -0.5718 -0.6731
  989MOL0     C36402  -0.212   8.320   2.045 -0.4644 -0.0142 -0.9668
  989MOL0     O36403  -0.329   8.338   1.973 -0.5434 -0.5267  0.2203
  989MOL0     C36404  -0.367   8.242   1.869  0.4158 -0.1472  0.1325
  989MOL0     C36405  -0.509   8.282   1.835  0.6709 -1.0141 -0.0056
  989MOL0     C36406  -0.577   8.183   1.736  1.2175 -0.4038  0.0193
  989MOL0     C36407  -0.722   8.223   1.701  0.4809  0.2624 -0.0407
  989MOL0     C36408  -0.742   8.342   1.613 -0.3053  0.6691 -0.2502
  989MOL0     C36409  -0.764   8.432   1.540  0.4658 -0.3185 -0.9435
  989MOL0     C36410  -0.116   8.214   2.005  0.9400 -0.1370  0.0044
  989MOL0     C36411  -0.003   8.187   2.085 -0.2229 -0.0943  0.2123
  989MOL0     C36412   0.085   8.073   2.045 -0.4586  0.0046  0.0802
  989MOL0     H36413   0.437   8.388   2.337  0.6120  1.8673  0.6414
  989MOL0     H36414   0.596   8.409   2.521 -0.4539  1.4674 -1.8716
  989MOL0     H36415   0.505   8.231   2.828 -0.0988  0.0303 -1.2783
  989MOL0     H36416   0.531   8.361   2.953  1.8414 -4.4591  2.5486
  989MOL0     H36417   0.744   8.226   2.794 -3.1523 -0.2166 -1.2672
  989MOL0     H36418   0.769   8.370   2.899  1.5968 -1.8009  3.7925
  989MOL0     H36419   0.692   8.253   3.093  0.4860  2.4546 -2.1309
  989MOL0     H36420   0.663   8.105   2.994  1.2548 -1.4574  0.9198
  989MOL0     H36421   0.896   8.079   2.929  1.0476  0.5021 -0.0710
  989MOL0     H36422   0.925   8.235   3.018 -0.3409  0.7259  3.7365
  989MOL0     H36423   0.905   8.131   3.227 -1.0457 -0.2782 -0.6638
  989MOL0     H36424   1.009   8.018   3.136  0.5289  0.5069  0.1501
  989MOL0     H36425   0.849   7.890   3.257  0.0190  1.9157  1.6337
  989MOL0     H36426   0.717   7.999   3.199  0.4865  1.8256 -2.1807
  989MOL0     H36427   0.861   7.806   3.024  1.1398 -0.3379  0.9653
  989MOL0     H36428   0.731   7.915   2.972  0.3585 -1.6644 -1.0996
  989MOL0     H36429   0.695   7.729   3.196  0.1373  0.4028 -0.8466
  989MOL0     H36430   0.563   7.783   3.096 -0.3621 -1.0288  2.5599
  989MOL0     H36431   0.601   7.701   2.808 -0.8683  1.9419  2.3956
  989MOL0     H36432   0.592   7.454   2.642 -1.4253 -2.6348  2.2409
  989MOL0     H36433   0.711   7.338   2.693  0.6707  0.5302  1.2784
  989MOL0     H36434   0.795   7.476   2.498  1.2838 -1.8670 -0.0870
  989MOL0     H36435   0.787   7.619   2.613  2.0489  1.4273 -5.5465
  989MOL0     H36436   0.977   7.521   2.739  2.0064  0.0623 -0.6331
  989MOL0     H36437   0.954   7.360   2.654 -1.0334 -0.9111 -3.6607
  989MOL0     H36438   1.014   7.495   2.441 -0.7322 -1.1083  1.0823
  989MOL0     H36439   1.074   7.623   2.546  2.2456 -0.2350  1.2339
  989MOL0     H36440   1.402   7.356   2.461 -4.8536  0.4009  0.0129
  989MOL0     H36441   1.614   7.314   2.473  2.6896  0.0954 -1.7851
  989MOL0     H36442   1.698   7.330   2.621  0.2140  0.0480 -0.2090
  989MOL0     H36443   1.728   7.452   2.490 -0.1827  0.7783  1.4183
  989MOL0     H36444   1.901   7.545   2.900  1.0483  0.6920  0.0174
  989MOL0     H36445   2.077   7.614   3.050  1.9686  2.1734  3.0703
  989MOL0     H36446   2.090   8.038   3.173  1.2963 -1.4919 -1.3500
  989MOL0     H36447   1.990   7.979   3.308 -0.0976  2.1133 -0.2299
  989MOL0     H36448   2.286   7.940   3.256  1.3079  2.6473  0.5548
  989MOL0     H36449   2.235   8.067   3.369 -1.4612 -1.0453  2.6131
  989MOL0     H36450   2.329   7.879   3.492  0.1925 -3.1080 -1.3272
  989MOL0     H36451   2.209   7.768   3.431 -0.5492  1.1042 -2.2140
  989MOL0     H36452   2.031   7.898   3.550 -0.6967 -1.9890  1.8426
  989MOL0     H36453   2.165   8.008   3.604  1.3625 -0.8764 -0.4718
  989MOL0     H36454   2.165   7.719   3.663 -1.8376  0.2512 -2.0436
  989MOL0     H36455   2.251   7.856   3.734 -0.2870  1.7640 -1.1228
  989MOL0     H36456   2.035   7.945   3.827  0.4968  0.2398 -0.3909
  989MOL0     H36457   2.110   7.797   3.886  0.1402  0.7127  0.3001
  989MOL0     H36458   1.944   7.664   3.736 -1.9624  0.9302 -1.7333
  989MOL0     H36459   1.850   7.808   3.733 -1.2050 -0.7690  0.1791
  989MOL0     H36460   1.850   7.821   3.976  2.2887 -1.0661  1.7439
  989MOL0     H36461   1.927   7.652   3.966 -2.1541 -2.0803  0.2898
  989MOL0     H36462   1.851   7.978   3.136 -0.0017  1.5669 -1.1871
  989MOL0     H36463   1.665   7.881   2.989 -0.1961 -0.3622  0.8782
  989MOL0     H36464   1.415   7.695   2.823 -1.4816  1.5750 -1.4647
  989MOL0     H36465   1.197   7.622   2.726 -0.3354 -1.2285  0.7237
  989MOL0     H36466   0.285   8.393   2.803 -0.0557 -1.0007 -0.0616
  989MOL0     H36467   0.113   8.365   2.624  0.9764 -1.7117  0.7970
  989MOL0     H36468  -0.046   8.450   2.301 -0.8941 -1.6169  0.7942
  989MOL0     H36469  -0.247   8.468   2.196  1.3304  0.3352  0.4076
  989MOL0     H36470  -0.305   8.244   1.779 -1.7576  2.3364 -1.4584
  989MOL0     H36471  -0.363   8.146   1.923  0.9615  0.8110  1.8855
  989MOL0     H36472  -0.501   8.378   1.782  1.1975 -2.8425 -3.5285
  989MOL0     H36473  -0.571   8.293   1.925  1.2544  1.7401  0.1626
  989MOL0     H36474  -0.538   8.171   1.635 -1.0357 -2.3218 -0.6986
  989MOL0     H36475  -0.584   8.086   1.786  1.0359 -0.8976 -0.9541
  989MOL0     H36476  -0.768   8.244   1.798  2.7880 -1.9520  1.6647
  989MOL0     H36477  -0.783   8.141   1.662 -2.7355  1.2964  2.4032
  989MOL0     H36478  -0.785   8.521   1.484  1.6182  1.3598  1.1510
  989MOL0     H36479  -0.135   8.152   1.918 -0.3980  1.4810 -0.9136
  989MOL0     H36480   0.158   8.112   1.974  2.9596 -0.7436  2.9357
  989MOL0     H36481   0.128   8.024   2.133 -2.6826 -2.0944  0.1240
  989MOL0     H36482   0.036   7.987   1.997 -1.0722  0.6308 -0.4434
  990MOL0     O36483   0.237   0.956   3.527  0.3113  0.3390  0.2918
  990MOL0     C36484   0.171   0.921   3.426  0.2203  0.7624 -0.6252
  990MOL0     O36485   0.212   0.828   3.330  0.1158 -0.2204 -0.4252
  990MOL0     C36486   0.338   0.773   3.333 -0.2349  0.3034 -0.1399
  990MOL0     C36487   0.452   0.834   3.390 -0.0098 -0.3886  0.7488
  990MOL0     C36488   0.579   0.778   3.391 -0.7545  0.4228 -0.4824
  990MOL0     C36489   0.599   0.660   3.309  0.1987 -0.0369  0.1684
  990MOL0     O36490   0.726   0.622   3.309 -0.4529  0.8535 -0.1616
  990MOL0     C36491   0.760   0.502   3.236  0.5858  0.1184 -1.0245
  990MOL0     C36492   0.909   0.467   3.240 -0.3516 -0.1713 -0.0701
  990MOL0     C36493   0.969   0.478   3.383  0.8325  0.5212 -0.6335
  990MOL0     C36494   1.119   0.437   3.396 -0.2808  0.2166 -0.6093
  990MOL0     C36495   1.168   0.408   3.539 -0.3065  0.2413 -0.7325
  990MOL0     C36496   1.320   0.383   3.559  0.8191  0.1650  0.2171
  990MOL0     C36497   1.364   0.359   3.704  0.1241 -0.1611  0.2243
  990MOL0     C36498   1.495   0.271   3.712 -0.2506  0.0764 -0.3130
  990MOL0     N36499   1.614   0.344   3.656  0.1092 -0.3211  0.3915
  990MOL0     C36500   1.676   0.326   3.527  0.9219  0.2170 -0.2919
  990MOL0     C36501   1.790   0.401   3.527  0.6469 -0.2922 -0.7643
  990MOL0     C36502   1.874   0.423   3.402  0.0907  0.8196 -0.1815
  990MOL0     C36503   2.006   0.483   3.447 -0.0729  0.1376  0.4983
  990MOL0     C36504   2.067   0.541   3.327  0.1842 -0.3167 -0.2366
  990MOL0     C36505   2.210   0.591   3.354 -0.1643  0.0418  0.2611
  990MOL0     O36506   2.245   0.689   3.256  0.8301 -0.5529  0.5211
  990MOL0     C36507   2.371   0.750   3.256 -0.3077  0.3200  1.1163
  990MOL0     C36508   2.456   0.766   3.367  1.0881 -0.4221 -0.3501
  990MOL0     C36509   2.585   0.818   3.365 -0.6310 -0.1445  0.3452
  990MOL0     C36510   2.660   0.821   3.501  0.1554  0.3894 -0.3451
  990MOL0     C36511   2.635   0.865   3.234 -0.7079 -0.1627 -0.4009
  990MOL0     C36512   2.773   0.910   3.215  0.1531  0.3687  0.5120
  990MOL0     O36513   2.801   0.966   3.087  0.0864 -0.0321 -0.3551
  990MOL0     C36514   2.925   1.023   3.057  1.7184  0.6613  0.4721
  990MOL0     C36515   3.042   0.964   3.092  1.2319  0.2649  0.7868
  990MOL0     C36516   3.161   1.014   3.044  0.1122  0.2981 -0.0103
  990MOL0     C36517   3.165   1.141   2.979 -0.0251 -0.9886  0.0245
  990MOL0     O36518   3.285   1.193   2.946 -0.3270  0.0993  1.0226
  990MOL0     C36519   3.298   1.307   2.865  0.1892  0.0737  0.5408
  990MOL0     C36520   3.442   1.337   2.860 -0.4001  0.3385 -0.2620
  990MOL0     C36521   3.472   1.466   2.790 -1.1173  0.0048 -0.1869
  990MOL0     C36522   3.616   1.519   2.811  0.0805 -0.6320 -0.5710
  990MOL0     C36523   3.722   1.414   2.787  0.4069  0.5639  0.3176
  990MOL0     C36524   3.851   1.481   2.741  0.8873  0.6442  0.6387
  990MOL0     C36525   3.907   1.557   2.864 -0.5147  0.0411 -0.1177
  990MOL0     C36526   4.046   1.605   2.825 -0.7881  0.2888 -0.1897
  990MOL0    Cl36527   4.168   1.469   2.832 -0.1422  0.5172  0.2522
  990MOL0     C36528   3.051   1.201   2.950 -0.3634  0.0790 -0.3379
  990MOL0     C36529   2.931   1.139   2.987  0.4442 -0.6707  0.2415
  990MOL0     O36530   2.842   0.918   3.312  0.3903  0.4975  0.1913
  990MOL0     C36531   2.543   0.867   3.128 -0.0799  0.6416  0.3828
  990MOL0     C36532   2.418   0.813   3.137  1.0977 -0.5425 -0.5447
  990MOL0     N36533   1.808   0.449   3.655  0.2826  0.4895 -0.3801
  990MOL0     N36534   1.706   0.410   3.726  0.4017  0.1265 -0.3019
  990MOL0     C36535   0.484   0.602   3.253 -0.0081  0.9069  0.1711
  990MOL0     C36536   0.363   0.655   3.271  0.4891  0.1835  1.0582
  990MOL0     C36537   0.037   0.981   3.412 -0.1798  0.9397 -1.0797
  990MOL0     C36538  -0.064   0.889   3.376  0.1596 -0.5113 -0.0888
  990MOL0     C36539  -0.202   0.937   3.361  0.3197 -0.1681 -0.0862
  990MOL0     C36540  -0.226   1.074   3.385 -0.0177  0.8902  0.1570
  990MOL0     O36541  -0.353   1.127   3.376 -0.0436  0.7306 -0.2014
  990MOL0     C36542  -0.445   1.043   3.306  0.4873  0.5576  0.4019
  990MOL0     C36543  -0.583   1.110   3.281  0.1056  0.0210 -0.1067
  990MOL0     C36544  -0.694   1.112   3.395 -0.3557 -0.3901 -0.3970
  990MOL0     C36545  -0.826   1.171   3.346 -0.2225 -0.0174 -0.7045
  990MOL0     C36546  -0.902   1.100   3.247 -0.4638 -0.5644  1.2577
  990MOL0     C36547  -0.960   1.018   3.174  0.0232  0.7378  0.5492
  990MOL0     C36548  -0.123   1.161   3.424  0.8436  0.8039 -0.0010
  990MOL0     C36549   0.010   1.117   3.431  0.0284  0.0225  0.8696
  990MOL0     C36550   0.128   1.211   3.457 -0.8233 -0.6989 -0.4527
  990MOL0     H36551   0.453   0.932   3.437 -0.5019 -0.2126  0.4054
  990MOL0     H36552   0.656   0.836   3.440 -1.6219  0.8618  0.3926
  990MOL0     H36553   0.719   0.502   3.135  0.1559  0.5386 -0.8515
  990MOL0     H36554   0.711   0.423   3.295 -0.5841  1.6198  0.0770
  990MOL0     H36555   0.932   0.366   3.205 -0.9544 -0.5361  0.5573
  990MOL0     H36556   0.974   0.523   3.172  0.2202 -2.5556 -1.5830
  990MOL0     H36557   0.941   0.577   3.419  1.2739  0.6087 -0.5206
  990MOL0     H36558   0.913   0.405   3.443  2.7155  0.1379  0.7591
  990MOL0     H36559   1.142   0.348   3.336  1.0432  1.3527 -1.8622
  990MOL0     H36560   1.176   0.524   3.361 -0.9228  1.0372  0.3242
  990MOL0     H36561   1.106   0.325   3.576  0.2173  0.2155  0.1255
  990MOL0     H36562   1.150   0.500   3.597 -0.3126 -2.1757  3.5250
  990MOL0     H36563   1.347   0.298   3.495  1.1148 -1.1838  2.0589
  990MOL0     H36564   1.372   0.472   3.523  1.4872  0.1692  1.1795
  990MOL0     H36565   1.292   0.298   3.760  1.1984 -0.1810  1.6407
  990MOL0     H36566   1.367   0.458   3.749 -1.2336 -0.5145  1.1660
  990MOL0     H36567   1.508   0.247   3.818 -3.2900 -1.1104 -0.1312
  990MOL0     H36568   1.487   0.174   3.662 -1.2852 -0.4823  0.8947
  990MOL0     H36569   1.632   0.279   3.439  0.7254 -0.2440  0.0477
  990MOL0     H36570   1.823   0.490   3.332 -0.7518 -1.4767 -1.8888
  990MOL0     H36571   1.891   0.329   3.348 -1.3656  0.7958 -0.6487
  990MOL0     H36572   1.990   0.562   3.521  3.5014  2.9004 -1.3622
  990MOL0     H36573   2.063   0.399   3.488 -0.9190 -1.5078 -1.5067
  990MOL0     H36574   2.077   0.461   3.253  1.3466 -2.3691  1.9992
  990MOL0     H36575   2.008   0.624   3.288 -2.2892 -2.2941 -0.9698
  990MOL0     H36576   2.209   0.638   3.453 -2.3300  3.2532 -1.1403
  990MOL0     H36577   2.279   0.506   3.357 -1.5769 -1.1480  2.7614
  990MOL0     H36578   2.408   0.737   3.460  0.6301  2.6144  0.4643
  990MOL0     H36579   2.684   0.919   3.543  1.5944 -0.8055  1.8106
  990MOL0     H36580   2.753   0.762   3.499 -0.3009 -0.4011  0.9103
  990MOL0     H36581   2.602   0.786   3.587 -0.7271  1.0437 -0.6665
  990MOL0     H36582   3.049   0.867   3.140 -0.3342 -1.1210 -1.5908
  990MOL0     H36583   3.255   0.967   3.072 -1.1219 -1.0481  2.1931
  990MOL0     H36584   3.266   1.283   2.764  1.1862  1.2805 -0.0915
  990MOL0     H36585   3.236   1.392   2.894 -0.7512 -0.1671 -0.7029
  990MOL0     H36586   3.482   1.348   2.962 -0.2531  1.0768 -0.3911
  990MOL0     H36587   3.498   1.255   2.814  0.2737  1.4034 -1.3936
  990MOL0     H36588   3.398   1.537   2.828 -2.4119 -0.5764 -1.4713
  990MOL0     H36589   3.447   1.451   2.684  0.4585 -2.1524 -0.3050
  990MOL0     H36590   3.627   1.542   2.917  2.5460 -0.0165 -0.9136
  990MOL0     H36591   3.630   1.606   2.746 -2.2833 -1.4302 -2.2997
  990MOL0     H36592   3.729   1.365   2.885  1.4711 -1.6059 -0.7817
  990MOL0     H36593   3.681   1.363   2.700 -0.1533  2.4784 -0.6084
  990MOL0     H36594   3.826   1.556   2.666 -0.6435 -0.1551  0.3110
  990MOL0     H36595   3.925   1.412   2.699  0.4657  0.3014  0.4489
  990MOL0     H36596   3.914   1.484   2.945 -3.6350 -0.7031 -0.3684
  990MOL0     H36597   3.842   1.639   2.894  1.6990  1.1318  1.9466
  990MOL0     H36598   4.076   1.693   2.883  1.2276  0.4021 -1.3155
  990MOL0     H36599   4.038   1.631   2.720  2.6909  1.7155 -0.2175
  990MOL0     H36600   3.044   1.298   2.900  1.6065  0.8473  0.7886
  990MOL0     H36601   2.845   1.200   2.959  1.4177  0.1783 -1.0199
  990MOL0     H36602   2.575   0.918   3.038 -2.0636  1.9750  0.3558
  990MOL0     H36603   2.364   0.820   3.044  2.2487  0.3378 -1.1740
  990MOL0     H36604   0.482   0.515   3.188  0.4649 -1.1133  2.6969
  990MOL0     H36605   0.285   0.585   3.242  0.4778  0.9737 -0.9359
  990MOL0     H36606  -0.052   0.784   3.352 -1.2654 -0.6536 -0.2611
  990MOL0     H36607  -0.273   0.862   3.328  2.0010 -1.2974 -1.2943
  990MOL0     H36608  -0.412   1.017   3.204 -2.8676  3.2216 -1.5950
  990MOL0     H36609  -0.475   0.954   3.361 -3.0089 -0.1602 -2.2848
  990MOL0     H36610  -0.633   1.064   3.196 -0.8059  3.7226 -1.7932
  990MOL0     H36611  -0.559   1.212   3.249 -0.5415  1.7338  4.1527
  990MOL0     H36612  -0.732   1.015   3.428 -1.1248  0.8399  2.6506
  990MOL0     H36613  -0.650   1.154   3.486  0.0658 -0.4767 -0.5592
  990MOL0     H36614  -0.801   1.271   3.309 -1.1805  0.1124 -1.0453
  990MOL0     H36615  -0.899   1.193   3.424 -2.5069  0.1296 -2.7411
  990MOL0     H36616  -1.017   0.961   3.104  1.0249  0.5410 -0.1334
  990MOL0     H36617  -0.150   1.265   3.436  2.7634  1.8004 -3.1551
  990MOL0     H36618   0.152   1.211   3.563 -0.2020 -0.4298 -0.5858
  990MOL0     H36619   0.219   1.188   3.400 -0.5856 -1.1403  0.0918
  990MOL0     H36620   0.097   1.308   3.417  0.7372 -0.0352 -0.1365
  991MOL0     O36621   6.704   6.940  11.252 -0.2592  0.4139 -0.2949
  991MOL0     C36622   6.646   6.855  11.179  0.5725 -0.6908 -0.0825
  991MOL0     O36623   6.704   6.754  11.108  0.9621 -0.1625  0.7698
  991MOL0     C36624   6.829   6.781  11.071 -0.5393  0.0744  0.0557
  991MOL0     C36625   6.862   6.880  10.969  0.0699  0.3819 -0.9160
  991MOL0     C36626   6.993   6.877  10.916  1.0968 -0.2854 -0.6066
  991MOL0     C36627   7.101   6.833  10.987 -0.1105 -0.4522 -0.0323
  991MOL0     O36628   7.224   6.866  10.936 -0.6395  0.5335 -0.4068
  991MOL0     C36629   7.339   6.788  10.981  0.3494 -0.9090 -0.0055
  991MOL0     C36630   7.377   6.679  10.877 -0.4511 -0.2952 -0.0705
  991MOL0     C36631   7.528   6.660  10.903  0.6508 -0.1824  0.2301
  991MOL0     C36632   7.568   6.530  10.832 -0.5833 -0.1308  0.3722
  991MOL0     C36633   7.710   6.503  10.866  0.2038 -0.0682 -0.6031
  991MOL0     C36634   7.758   6.378  10.810  0.6896  0.0783 -0.0390
  991MOL0     C36635   7.749   6.376  10.660  0.0710  0.0418 -0.4397
  991MOL0     C36636   7.830   6.482  10.587  0.0359  0.3704 -0.3909
  991MOL0     N36637   7.975   6.471  10.631  0.7467  0.8954  0.1443
  991MOL0     C36638   8.034   6.510  10.749 -0.7931  0.5834 -0.2725
  991MOL0     C36639   8.165   6.504  10.725 -0.0371 -0.0877 -0.8060
  991MOL0     C36640   8.278   6.539  10.823 -0.4693 -0.1284  0.2100
  991MOL0     C36641   8.239   6.628  10.938 -0.7223 -0.1003 -0.2155
  991MOL0     C36642   8.350   6.692  11.027 -0.3732 -1.4673 -0.3961
  991MOL0     C36643   8.378   6.622  11.164 -0.8654  0.8665 -0.0532
  991MOL0     O36644   8.503   6.659  11.220  0.0806 -0.1979 -0.0574
  991MOL0     C36645   8.623   6.608  11.171 -0.0239  0.5775  0.0437
  991MOL0     C36646   8.631   6.515  11.067  0.1442 -0.1399 -0.4471
  991MOL0     C36647   8.758   6.475  11.029  0.3862 -0.1109  0.6079
  991MOL0     C36648   8.763   6.389  10.904  0.3850 -0.0550  0.9152
  991MOL0     C36649   8.876   6.519  11.089 -0.3599 -0.5494 -0.4259
  991MOL0     C36650   9.016   6.469  11.054 -0.6516 -0.0033  0.7922
  991MOL0     O36651   9.025   6.347  10.997 -0.1575  0.4835  0.3815
  991MOL0     C36652   9.137   6.267  11.025 -0.4620 -0.4829 -0.2567
  991MOL0     C36653   9.198   6.265  11.152 -0.1374 -0.0919  0.4964
  991MOL0     C36654   9.312   6.195  11.173 -0.6150 -0.0447  0.0180
  991MOL0     C36655   9.387   6.143  11.058  0.1060  0.7524 -0.4237
  991MOL0     O36656   9.509   6.084  11.072 -0.0964 -0.1782 -0.0534
  991MOL0     C36657   9.612   6.168  11.130  1.2110 -0.0165  0.9740
  991MOL0     C36658   9.634   6.286  11.035 -0.2946  0.1860  0.4191
  991MOL0     C36659   9.735   6.377  11.097 -0.2672 -0.6691 -0.6436
  991MOL0     C36660   9.872   6.367  11.035 -0.1701  0.8458 -0.5540
  991MOL0     C36661   9.970   6.470  11.088  0.6705  0.3715 -0.4776
  991MOL0     C36662   9.927   6.610  11.067 -0.1870 -0.8592 -0.5673
  991MOL0     C36663  10.030   6.724  11.095  1.0812  1.2371  0.5018
  991MOL0     C36664  10.094   6.724  11.226 -0.7050 -0.2171 -0.3848
  991MOL0    Cl36665   9.977   6.743  11.357  0.2638  0.1158 -0.0633
  991MOL0     C36666   9.328   6.151  10.931  0.8230  0.1695 -0.2655
  991MOL0     C36667   9.199   6.209  10.919  0.4154 -0.3089 -0.3339
  991MOL0     O36668   9.117   6.539  11.078  1.1275 -0.4648 -0.1524
  991MOL0     C36669   8.866   6.605  11.200  0.4276  0.5307  0.4566
  991MOL0     C36670   8.738   6.653  11.241 -0.4249 -0.4448 -0.6113
  991MOL0     N36671   8.182   6.463  10.593 -0.9668  0.0421  0.2721
  991MOL0     N36672   8.069   6.440  10.534  1.0885  0.5708 -0.0051
  991MOL0     C36673   7.072   6.754  11.099  0.2915 -0.0883  0.0844
  991MOL0     C36674   6.942   6.727  11.139  0.0226 -0.4033 -0.1110
  991MOL0     C36675   6.499   6.853  11.188  0.4913 -0.6084  0.0660
  991MOL0     C36676   6.435   6.730  11.221  0.6453 -0.6129 -0.9604
  991MOL0     C36677   6.294   6.727  11.229  0.1651 -0.2035 -0.3459
  991MOL0     C36678   6.213   6.835  11.211 -0.1085 -0.2098 -0.3756
  991MOL0     O36679   6.076   6.815  11.235  0.0063  0.5748 -0.4157
  991MOL0     C36680   5.988   6.921  11.247  0.5775  0.4110 -0.0941
  991MOL0     C36681   5.884   6.898  11.132  0.1534 -0.0690 -0.6351
  991MOL0     C36682   5.807   6.771  11.154  1.1489 -0.0531 -0.1094
  991MOL0     C36683   5.691   6.769  11.055  0.4820 -0.1625  0.3433
  991MOL0     C36684   5.581   6.673  11.093 -1.3157 -0.3076  0.2572
  991MOL0     C36685   5.492   6.594  11.127 -0.7796 -0.2735  0.3444
  991MOL0     C36686   6.278   6.955  11.168  0.7305 -1.2043 -0.1500
  991MOL0     C36687   6.415   6.964  11.148 -0.0143  0.4106 -0.6337
  991MOL0     C36688   6.475   7.087  11.082 -0.2199 -0.5444  0.5322
  991MOL0     H36689   6.780   6.925  10.914  0.3811  0.7361 -1.0956
  991MOL0     H36690   6.988   6.916  10.815 -4.5119 -2.5005 -1.5409
  991MOL0     H36691   7.329   6.734  11.075 -0.7041 -0.8381 -0.0712
  991MOL0     H36692   7.410   6.871  10.995 -0.2029 -0.5432  0.6946
  991MOL0     H36693   7.315   6.590  10.892 -2.5567  0.9321 -0.9971
  991MOL0     H36694   7.366   6.706  10.771 -2.6380 -4.7219 -1.2207
  991MOL0     H36695   7.584   6.743  10.857  0.6694 -0.0104  0.5525
  991MOL0     H36696   7.554   6.649  11.009  0.6784  0.1571  0.2605
  991MOL0     H36697   7.504   6.445  10.859 -3.6248  2.1734  0.8992
  991MOL0     H36698   7.551   6.542  10.725 -0.4429  2.2813  0.5736
  991MOL0     H36699   7.726   6.500  10.974 -0.3120 -0.2984 -0.5307
  991MOL0     H36700   7.772   6.583  10.826  0.5384  0.3512  0.6909
  991MOL0     H36701   7.860   6.351  10.839  0.5476 -0.0521  0.3460
  991MOL0     H36702   7.689   6.303  10.849 -1.3924  0.3906 -2.7934
  991MOL0     H36703   7.648   6.364  10.619 -0.6496  1.3660  0.8331
  991MOL0     H36704   7.797   6.285  10.624  2.6443  0.8919  0.5944
  991MOL0     H36705   7.811   6.468  10.480 -4.6233  1.7175  0.0326
  991MOL0     H36706   7.802   6.584  10.615 -4.9473 -0.9586  0.4643
  991MOL0     H36707   7.997   6.537  10.848  2.3501  0.6842  0.9758
  991MOL0     H36708   8.359   6.585  10.767 -0.1066  0.8144  1.4976
  991MOL0     H36709   8.321   6.448  10.866 -2.1103 -1.6842 -1.2153
  991MOL0     H36710   8.173   6.705  10.897 -0.5407  0.7902  1.0997
  991MOL0     H36711   8.179   6.567  11.007  1.8471 -1.5864  0.8737
  991MOL0     H36712   8.441   6.688  10.966 -1.3125 -4.1245 -1.8047
  991MOL0     H36713   8.321   6.794  11.054  0.9057 -1.4225  0.9036
  991MOL0     H36714   8.301   6.647  11.237 -0.7490 -1.6634  1.0235
  991MOL0     H36715   8.375   6.513  11.160  0.1424  0.7075  2.1474
  991MOL0     H36716   8.548   6.480  11.006  0.6117  0.5622 -1.5258
  991MOL0     H36717   8.765   6.286  10.939 -2.0373 -0.6003 -0.3864
  991MOL0     H36718   8.849   6.403  10.838 -0.8042  0.2454 -0.6182
  991MOL0     H36719   8.676   6.403  10.840  0.5050 -0.2668  0.7054
  991MOL0     H36720   9.146   6.320  11.229 -0.2661 -0.3652  0.6045
  991MOL0     H36721   9.361   6.184  11.269  1.8956  0.6055 -1.0891
  991MOL0     H36722   9.581   6.201  11.229  0.4660  1.9724  0.1246
  991MOL0     H36723   9.704   6.109  11.138  0.8349 -0.4428  2.3339
  991MOL0     H36724   9.662   6.252  10.935 -1.1942  0.2093  0.1474
  991MOL0     H36725   9.541   6.345  11.036  0.1766  0.9273  0.9512
  991MOL0     H36726   9.753   6.354  11.202  2.7250 -1.4960 -1.2307
  991MOL0     H36727   9.693   6.477  11.081  2.2073  0.3837 -1.0530
  991MOL0     H36728   9.865   6.376  10.927  0.9749  0.0370 -0.7208
  991MOL0     H36729   9.916   6.269  11.059 -0.1184  1.4261  2.0654
  991MOL0     H36730   9.977   6.462  11.197  2.0155  1.9669 -0.3946
  991MOL0     H36731  10.072   6.467  11.048  0.9491 -0.9331  0.2726
  991MOL0     H36732   9.842   6.631  11.132  0.0951  1.2162 -0.7872
  991MOL0     H36733   9.893   6.618  10.963  2.1783 -0.6994 -1.3875
  991MOL0     H36734   9.976   6.818  11.084  0.4075  0.6595 -1.6817
  991MOL0     H36735  10.110   6.728  11.021  1.8880 -1.8263  1.0603
  991MOL0     H36736  10.169   6.804  11.222  0.6927 -1.5257 -1.4345
  991MOL0     H36737  10.150   6.632  11.245 -1.3736 -0.6995 -0.7228
  991MOL0     H36738   9.374   6.109  10.842 -0.1525 -2.4310  0.3760
  991MOL0     H36739   9.133   6.222  10.833  0.4294 -1.8862 -0.6170
  991MOL0     H36740   8.952   6.650  11.248  2.4010 -0.1905 -2.1212
  991MOL0     H36741   8.734   6.721  11.325  1.2055 -0.3057 -0.6169
  991MOL0     H36742   7.145   6.694  11.153  0.6804  0.5510  0.2812
  991MOL0     H36743   6.919   6.665  11.225  1.9318 -1.3987 -0.2661
  991MOL0     H36744   6.500   6.650  11.257  1.4133  0.7987  0.9639
  991MOL0     H36745   6.254   6.633  11.264 -2.0453  0.4378 -1.0273
  991MOL0     H36746   5.935   6.902  11.341 -1.0810  4.3670 -0.0227
  991MOL0     H36747   6.037   7.019  11.250 -0.1045  0.7487  0.4767
  991MOL0     H36748   5.945   6.893  11.041  2.5495  1.2739  0.8054
  991MOL0     H36749   5.818   6.985  11.122  0.8228  0.5548  0.2142
  991MOL0     H36750   5.871   6.687  11.124 -1.4919 -1.2029 -3.2018
  991MOL0     H36751   5.760   6.762  11.252  0.2134 -2.4355 -0.6963
  991MOL0     H36752   5.740   6.736  10.962  2.6872 -2.4790  2.1681
  991MOL0     H36753   5.639   6.863  11.037 -0.4731 -1.0908 -2.3257
  991MOL0     H36754   5.415   6.526  11.158  0.6898 -1.5475  1.3081
  991MOL0     H36755   6.213   7.036  11.138  2.6263  0.3348 -0.2705
  991MOL0     H36756   6.413   7.175  11.105  0.7707  0.7918 -1.5840
  991MOL0     H36757   6.575   7.119  11.113 -0.7551  1.7707  0.0634
  991MOL0     H36758   6.482   7.067  10.975 -1.7015  1.6255 -0.0489
  992MOL0     O36759   9.601   3.761   0.900 -0.3353  0.9158  0.2783
  992MOL0     C36760   9.571   3.878   0.903 -0.3541 -0.7440 -0.0004
  992MOL0     O36761   9.598   3.964   1.005 -0.2180 -0.2587 -1.0986
  992MOL0     C36762   9.710   3.946   1.091 -0.6613 -0.1686  0.3522
  992MOL0     C36763   9.700   3.994   1.217 -0.2514  0.6468 -0.1674
  992MOL0     C36764   9.806   3.984   1.304 -0.8827  0.5023 -0.1636
  992MOL0     C36765   9.924   3.923   1.265 -0.1347 -0.6346 -0.7551
  992MOL0     O36766  10.011   3.917   1.367  0.0303 -0.0118 -0.3090
  992MOL0     C36767  10.139   3.860   1.345  0.0137 -0.0427  0.6292
  992MOL0     C36768  10.225   3.897   1.460 -0.2353 -0.1657  0.1827
  992MOL0     C36769  10.375   3.856   1.452  0.8254  1.3202  0.2925
  992MOL0     C36770  10.468   3.902   1.560 -0.2832  0.4781 -0.2384
  992MOL0     C36771  10.613   3.847   1.526 -0.3911 -0.1115 -0.0783
  992MOL0     C36772  10.710   3.917   1.621 -0.4530 -0.3348  0.3147
  992MOL0     C36773  10.849   3.918   1.570  0.1608  0.1317  0.0809
  992MOL0     C36774  10.921   3.785   1.593  0.2306  0.0702 -0.0340
  992MOL0     N36775  11.058   3.791   1.560 -0.4044 -0.6556  0.7946
  992MOL0     C36776  11.164   3.727   1.625 -0.1454  0.0229 -0.0758
  992MOL0     C36777  11.269   3.717   1.534  0.4288  1.4764  0.0831
  992MOL0     C36778  11.404   3.647   1.558 -1.2073 -0.3595  0.6651
  992MOL0     C36779  11.468   3.714   1.678  0.1663  0.3126 -0.7383
  992MOL0     C36780  11.590   3.620   1.717 -0.7634 -0.1600  0.1857
  992MOL0     C36781  11.708   3.591   1.615 -0.3088 -1.0042 -0.7402
  992MOL0     O36782  11.804   3.501   1.674  0.1674  0.1130  0.2666
  992MOL0     C36783  11.898   3.531   1.768  0.0388 -0.5801 -0.5159
  992MOL0     C36784  11.905   3.661   1.828 -0.3584  0.7198  0.1202
  992MOL0     C36785  12.009   3.696   1.911  0.0083  0.2569 -0.7636
  992MOL0     C36786  12.024   3.851   1.940  0.0967  0.4556  0.2146
  992MOL0     C36787  12.098   3.599   1.959 -0.2890 -0.2913  0.6358
  992MOL0     C36788  12.197   3.622   2.058  0.4248  0.4987  0.5353
  992MOL0     O36789  12.293   3.525   2.090 -0.1555 -0.5084 -0.6353
  992MOL0     C36790  12.390   3.557   2.187 -0.6399  0.2512  0.3748
  992MOL0     C36791  12.413   3.458   2.276 -0.2876 -1.2249  0.1532
  992MOL0     C36792  12.506   3.479   2.385 -0.6213 -0.3730  0.4081
  992MOL0     C36793  12.581   3.596   2.393  0.1383 -0.3904 -0.6252
  992MOL0     O36794  12.673   3.610   2.495  0.0447  0.1188 -0.4051
  992MOL0     C36795  12.785   3.701   2.491  1.3111  0.0161  0.4413
  992MOL0     C36796  12.882   3.679   2.602  0.7341 -0.3201  0.8225
  992MOL0     C36797  13.020   3.739   2.580 -0.1057  0.1923  0.3154
  992MOL0     C36798  13.032   3.891   2.566  0.0410  1.1974  0.0347
  992MOL0     C36799  13.164   3.955   2.607  0.3388 -0.1597  0.4145
  992MOL0     C36800  13.282   3.871   2.542 -0.6596 -0.5769  0.4181
  992MOL0     C36801  13.407   3.948   2.581 -0.1379  0.2440  0.1576
  992MOL0     C36802  13.535   3.872   2.546 -0.4377 -0.6900  0.3857
  992MOL0    Cl36803  13.559   3.840   2.377 -0.2406  0.2076  0.3338
  992MOL0     C36804  12.551   3.699   2.302 -0.2118 -0.3394  0.3160
  992MOL0     C36805  12.456   3.683   2.196 -0.3417  0.1995  0.3840
  992MOL0     O36806  12.183   3.723   2.121  0.0734 -0.2680  0.3638
  992MOL0     C36807  12.083   3.469   1.908  0.8832  0.0956  0.2893
  992MOL0     C36808  11.983   3.435   1.809 -0.1172  0.1743  0.3226
  992MOL0     N36809  11.228   3.770   1.416 -0.8608 -0.8043 -0.6037
  992MOL0     N36810  11.107   3.810   1.432 -0.6597 -0.1226  0.1446
  992MOL0     C36811   9.937   3.882   1.135 -0.2562 -0.7297  0.6021
  992MOL0     C36812   9.836   3.893   1.042  0.6992  0.0600  0.4859
  992MOL0     C36813   9.480   3.932   0.797 -0.3507  0.0191  0.7552
  992MOL0     C36814   9.426   4.065   0.814  0.2079 -0.0727  0.5733
  992MOL0     C36815   9.339   4.129   0.718 -0.5547 -0.3953  0.1500
  992MOL0     C36816   9.323   4.073   0.592 -0.6916 -0.2902 -1.1440
  992MOL0     O36817   9.249   4.152   0.502 -0.2779 -0.0017 -0.4581
  992MOL0     C36818   9.199   4.090   0.383 -0.0526 -0.0723 -0.9620
  992MOL0     C36819   9.072   4.157   0.327  0.3774 -0.0050 -0.1650
  992MOL0     C36820   8.956   4.136   0.417 -0.5545  0.0999 -0.0841
  992MOL0     C36821   8.831   4.207   0.381  0.1736 -0.2380  1.1707
  992MOL0     C36822   8.760   4.146   0.264  0.2896  0.4842 -0.2595
  992MOL0     C36823   8.710   4.093   0.169 -0.0914 -0.0119 -0.2464
  992MOL0     C36824   9.379   3.949   0.575 -0.5446  0.4979  1.1502
  992MOL0     C36825   9.455   3.873   0.667  0.1840  0.8901 -0.7106
  992MOL0     C36826   9.508   3.738   0.623 -0.3007  1.1254  0.2353
  992MOL0     H36827   9.606   4.037   1.250  0.0726  0.8937  0.4698
  992MOL0     H36828   9.796   4.020   1.406 -0.8448 -0.7863  0.3132
  992MOL0     H36829  10.193   3.901   1.259 -2.6274 -0.0124 -1.1000
  992MOL0     H36830  10.134   3.752   1.332  0.8993  0.2501 -3.2087
  992MOL0     H36831  10.202   3.999   1.491 -1.4828 -0.5806  0.6549
  992MOL0     H36832  10.189   3.839   1.545  0.5855  0.2519  0.8299
  992MOL0     H36833  10.393   3.749   1.454  1.0501  1.3554  2.4980
  992MOL0     H36834  10.410   3.897   1.357  0.0086 -1.8280 -1.4940
  992MOL0     H36835  10.471   4.011   1.567 -0.0638  0.4839 -0.4190
  992MOL0     H36836  10.433   3.856   1.653 -0.3963  0.2163 -0.4080
  992MOL0     H36837  10.624   3.867   1.419 -4.1719 -1.3930 -0.8436
  992MOL0     H36838  10.605   3.738   1.534  0.7356 -0.4265 -2.3233
  992MOL0     H36839  10.680   4.023   1.625 -0.2221  0.0155 -3.6535
  992MOL0     H36840  10.706   3.860   1.714  1.7698  0.7012  1.0989
  992MOL0     H36841  10.901   3.992   1.633  0.4794 -1.0039  1.2013
  992MOL0     H36842  10.862   3.954   1.468  1.5362  1.0439  0.5435
  992MOL0     H36843  10.913   3.750   1.696 -0.2851  1.3159  0.3601
  992MOL0     H36844  10.865   3.714   1.530 -2.0050 -0.0042  1.8951
  992MOL0     H36845  11.158   3.675   1.720 -1.3754 -1.4217 -0.8950
  992MOL0     H36846  11.470   3.678   1.477 -2.0779  0.1343  0.1253
  992MOL0     H36847  11.400   3.538   1.566 -0.0234 -0.6591 -1.9967
  992MOL0     H36848  11.501   3.816   1.655  0.1496  0.1202 -1.6590
  992MOL0     H36849  11.409   3.715   1.770 -0.2210  1.8349 -0.9677
  992MOL0     H36850  11.642   3.662   1.803  3.9441 -2.5403 -1.1207
  992MOL0     H36851  11.540   3.528   1.749 -2.9272  0.9017  0.0676
  992MOL0     H36852  11.667   3.551   1.522 -1.2702 -0.4156 -0.5894
  992MOL0     H36853  11.753   3.688   1.591  0.1592 -1.1480 -0.4528
  992MOL0     H36854  11.848   3.737   1.776  1.0878  1.7894  0.0291
  992MOL0     H36855  11.988   3.913   1.856  1.3623  1.3963  0.3425
  992MOL0     H36856  12.130   3.873   1.950  0.8718 -0.9627 -3.2086
  992MOL0     H36857  11.958   3.876   2.023 -0.3361  0.3815 -0.1010
  992MOL0     H36858  12.366   3.362   2.259  0.1227 -1.3194 -0.4674
  992MOL0     H36859  12.515   3.404   2.463  0.8310 -1.3880 -0.6909
  992MOL0     H36860  12.833   3.688   2.393  0.0947  0.0635 -0.1845
  992MOL0     H36861  12.747   3.803   2.502 -0.6461 -0.2893 -2.3603
  992MOL0     H36862  12.829   3.720   2.688 -3.7346  0.1838 -1.8482
  992MOL0     H36863  12.905   3.573   2.612  1.4292 -0.2953 -0.3098
  992MOL0     H36864  13.071   3.690   2.497 -0.4727  0.7849 -0.2778
  992MOL0     H36865  13.081   3.708   2.665 -0.2633 -1.6969 -0.2266
  992MOL0     H36866  12.955   3.941   2.625 -0.6611 -0.5786  0.6923
  992MOL0     H36867  13.024   3.908   2.458  0.3071 -1.2790 -0.4399
  992MOL0     H36868  13.168   4.061   2.580  2.4159 -0.6778 -1.6225
  992MOL0     H36869  13.177   3.959   2.715  4.0282  1.2629  0.0555
  992MOL0     H36870  13.279   3.871   2.433  2.7698  2.8429  0.0844
  992MOL0     H36871  13.275   3.768   2.579 -0.6002 -1.0933 -0.9694
  992MOL0     H36872  13.406   3.960   2.690 -3.6651 -1.4909  0.4365
  992MOL0     H36873  13.401   4.052   2.546 -2.5201  0.8741  2.1305
  992MOL0     H36874  13.536   3.778   2.602  0.8241 -0.5834  0.5498
  992MOL0     H36875  13.625   3.924   2.578 -1.1018  1.4030 -0.9136
  992MOL0     H36876  12.602   3.795   2.309 -0.1107 -0.4845  2.1940
  992MOL0     H36877  12.438   3.776   2.142  1.7359  1.2405  1.3602
  992MOL0     H36878  12.156   3.399   1.948 -0.5234 -0.2747  2.3183
  992MOL0     H36879  11.974   3.337   1.762  1.2840 -0.5312  1.4594
  992MOL0     H36880  10.035   3.845   1.104  1.8965  5.0992 -0.9571
  992MOL0     H36881   9.853   3.851   0.943 -2.0702 -1.6646  0.6626
  992MOL0     H36882   9.459   4.125   0.898  1.4242 -1.2791  0.9929
  992MOL0     H36883   9.299   4.229   0.730 -0.2671  0.1104 -2.5232
  992MOL0     H36884   9.274   4.095   0.304  1.6528 -4.6826  0.0167
  992MOL0     H36885   9.185   3.981   0.392  1.3884 -0.5203 -3.3137
  992MOL0     H36886   9.043   4.109   0.233 -0.6629 -2.6492  1.3940
  992MOL0     H36887   9.091   4.264   0.313  0.6241 -0.3062 -2.6296
  992MOL0     H36888   8.928   4.031   0.425 -0.9464  0.2610  0.7530
  992MOL0     H36889   8.990   4.155   0.519  0.2729 -0.6502 -0.2140
  992MOL0     H36890   8.849   4.314   0.370  0.6439 -0.3691  0.6563
  992MOL0     H36891   8.759   4.191   0.462 -0.0890 -0.1827  0.9504
  992MOL0     H36892   8.667   4.032   0.092 -1.5256 -0.0256  0.5288
  992MOL0     H36893   9.356   3.908   0.477  0.7452  2.2711  0.0316
  992MOL0     H36894   9.617   3.735   0.622 -0.3171  0.3886 -0.5014
  992MOL0     H36895   9.472   3.660   0.691  1.2825  1.3559  1.3838
  992MOL0     H36896   9.469   3.716   0.523 -1.1395  1.0936  0.5650
  993MOL0     O36897   5.172   1.834   3.092 -0.4329 -0.0149  0.1116
  993MOL0     C36898   5.214   1.910   3.002 -0.0394 -0.3925  0.2328
  993MOL0     O36899   5.350   1.937   2.971 -0.2505  1.3747 -0.1207
  993MOL0     C36900   5.455   1.857   3.003  0.5063 -0.1264  0.0373
  993MOL0     C36901   5.579   1.890   2.948 -0.7080  0.2682 -0.0840
  993MOL0     C36902   5.704   1.827   2.980 -0.3465  0.6374  0.3609
  993MOL0     C36903   5.694   1.712   3.071  0.4018 -0.3127  0.2971
  993MOL0     O36904   5.791   1.624   3.098  0.4293  0.1328  0.0577
  993MOL0     C36905   5.913   1.692   3.120 -0.9143  0.0767 -0.1109
  993MOL0     C36906   6.020   1.581   3.105 -0.4825  0.2148 -0.3834
  993MOL0     C36907   6.151   1.636   3.166 -0.3899 -0.1639 -0.1037
  993MOL0     C36908   6.271   1.540   3.128  0.6190 -0.0144 -1.1007
  993MOL0     C36909   6.371   1.600   3.022 -0.8928  0.0092  0.0657
  993MOL0     C36910   6.317   1.596   2.885  0.1435 -0.0582 -0.1987
  993MOL0     C36911   6.415   1.615   2.779 -0.2924  0.5551  0.5032
  993MOL0     C36912   6.472   1.756   2.780  0.2098  0.6183 -0.4405
  993MOL0     N36913   6.556   1.775   2.654  0.2730 -0.2425  0.3253
  993MOL0     C36914   6.686   1.733   2.655  0.1058 -0.2316 -0.4774
  993MOL0     C36915   6.732   1.781   2.534  0.4765 -0.3290 -0.5041
  993MOL0     C36916   6.868   1.773   2.477  0.1153  0.6481  0.2686
  993MOL0     C36917   6.988   1.783   2.578  0.4711  0.6434 -0.2663
  993MOL0     C36918   7.122   1.802   2.490 -0.3583  0.0785 -0.2808
  993MOL0     C36919   7.253   1.753   2.571  1.2644  0.0958  0.2906
  993MOL0     O36920   7.371   1.783   2.498  0.3780 -0.1217  0.3214
  993MOL0     C36921   7.489   1.789   2.561 -0.5522  0.5793  0.2483
  993MOL0     C36922   7.519   1.752   2.698 -0.7762 -0.3411  0.3731
  993MOL0     C36923   7.649   1.770   2.755 -0.1764  0.3134 -0.4494
  993MOL0     C36924   7.666   1.725   2.900 -0.8260 -0.4392 -0.5232
  993MOL0     C36925   7.751   1.831   2.681 -0.3272 -0.0684  0.0013
  993MOL0     C36926   7.892   1.843   2.724 -0.5748  0.5693  0.8484
  993MOL0     O36927   7.987   1.876   2.628  0.0769 -0.1880 -0.4313
  993MOL0     C36928   8.120   1.878   2.653  0.9126 -0.1628 -1.2987
  993MOL0     C36929   8.181   1.996   2.702 -0.5169  0.2023  0.3319
  993MOL0     C36930   8.321   2.009   2.715 -0.3978  1.1179 -0.1495
  993MOL0     C36931   8.399   1.908   2.657 -0.9147  0.0626  0.0745
  993MOL0     O36932   8.536   1.923   2.639 -0.4378  0.4181 -0.0525
  993MOL0     C36933   8.610   1.992   2.740 -0.2781 -0.2560 -0.0745
  993MOL0     C36934   8.748   2.022   2.677  0.3781 -0.1184  0.0837
  993MOL0     C36935   8.835   2.104   2.769  0.9677 -0.0144  0.3895
  993MOL0     C36936   8.970   2.142   2.717  0.0571 -0.3764  0.3580
  993MOL0     C36937   9.057   2.227   2.817 -0.1648  0.7349  0.1634
  993MOL0     C36938   8.994   2.360   2.847 -0.0058  0.1456  0.6546
  993MOL0     C36939   9.103   2.444   2.920  0.4191 -0.0436  0.1028
  993MOL0     C36940   9.040   2.586   2.951 -0.2264 -0.9746 -0.5548
  993MOL0    Cl36941   8.903   2.573   3.063 -0.2253  0.1477 -0.7355
  993MOL0     C36942   8.333   1.795   2.603 -0.5797  0.3578 -0.9939
  993MOL0     C36943   8.197   1.779   2.603 -0.8965  0.3819 -0.7220
  993MOL0     O36944   7.920   1.821   2.840 -0.1741  0.1649  0.5777
  993MOL0     C36945   7.724   1.866   2.545 -0.6921  0.0389 -1.0247
  993MOL0     C36946   7.592   1.857   2.489  0.7893  0.1165 -0.8297
  993MOL0     N36947   6.630   1.845   2.464  0.3925  1.3191 -0.8118
  993MOL0     N36948   6.524   1.844   2.542  0.0841 -0.4427  0.1337
  993MOL0     C36949   5.567   1.673   3.121 -0.2280 -1.0011 -0.1360
  993MOL0     C36950   5.451   1.737   3.081 -0.5269 -0.9390 -0.0197
  993MOL0     C36951   5.115   1.999   2.934  0.7456 -0.1459  0.1315
  993MOL0     C36952   5.167   2.096   2.853  0.4267 -0.3007  0.2300
  993MOL0     C36953   5.085   2.178   2.782 -0.7923 -0.1286  0.5476
  993MOL0     C36954   4.952   2.183   2.812  1.0984  0.1708  0.6932
  993MOL0     O36955   4.876   2.275   2.742  0.8590 -0.2920  0.1837
  993MOL0     C36956   4.738   2.251   2.703  0.4438  0.1146 -0.8384
  993MOL0     C36957   4.634   2.324   2.797 -1.0170  0.0391  0.1695
  993MOL0     C36958   4.496   2.321   2.739 -0.5497  0.2605 -0.7083
  993MOL0     C36959   4.471   2.421   2.623  0.2963  0.6968 -0.3499
  993MOL0     C36960   4.320   2.438   2.619 -1.1128 -0.1344 -0.3161
  993MOL0     C36961   4.203   2.454   2.606  0.2911  0.3645  0.3585
  993MOL0     C36962   4.890   2.091   2.892 -0.2095  0.0301 -0.4847
  993MOL0     C36963   4.971   1.995   2.953  0.4126  0.0806  0.1703
  993MOL0     C36964   4.902   1.885   3.034  0.1340  0.2124  0.7642
  993MOL0     H36965   5.574   1.972   2.877 -1.9406  0.6779  0.4365
  993MOL0     H36966   5.789   1.859   2.921 -0.8701  2.6846  0.6097
  993MOL0     H36967   5.920   1.742   3.217  2.0997  1.9426 -1.1665
  993MOL0     H36968   5.949   1.762   3.043 -0.5622  0.4681  0.4075
  993MOL0     H36969   5.989   1.488   3.154 -1.2456  0.2443 -0.7824
  993MOL0     H36970   6.025   1.554   2.999  0.2456 -1.3995  0.0272
  993MOL0     H36971   6.164   1.737   3.126 -0.5715 -0.0700  0.0756
  993MOL0     H36972   6.153   1.637   3.275 -0.8188 -0.4806 -0.0937
  993MOL0     H36973   6.325   1.517   3.220 -0.3081 -2.6343 -1.1243
  993MOL0     H36974   6.223   1.453   3.082  0.3035 -0.0096 -0.7866
  993MOL0     H36975   6.461   1.539   3.034 -0.0083  1.6175  2.3492
  993MOL0     H36976   6.407   1.698   3.056 -0.5767 -0.6014  1.5643
  993MOL0     H36977   6.266   1.500   2.879 -1.6172  0.8848 -1.4550
  993MOL0     H36978   6.240   1.673   2.875 -1.3913 -1.2517  1.6753
  993MOL0     H36979   6.365   1.618   2.682  4.3791 -0.2381 -2.2253
  993MOL0     H36980   6.488   1.534   2.781 -0.9405 -0.0437  0.3525
  993MOL0     H36981   6.391   1.829   2.788  1.2210  1.7472 -0.0490
  993MOL0     H36982   6.523   1.767   2.876  2.9180 -0.1260 -1.6907
  993MOL0     H36983   6.748   1.683   2.728  0.8994 -0.2994 -1.1696
  993MOL0     H36984   6.886   1.863   2.418  2.0550  1.7168  2.3308
  993MOL0     H36985   6.855   1.686   2.413  0.5632 -0.2284  1.3354
  993MOL0     H36986   6.973   1.869   2.644  1.1454  0.2674  0.3919
  993MOL0     H36987   6.999   1.688   2.631 -0.4387 -0.6552 -2.2996
  993MOL0     H36988   7.121   1.734   2.404 -0.6546  0.0421 -0.2497
  993MOL0     H36989   7.130   1.902   2.449 -0.1386  0.3313  0.3688
  993MOL0     H36990   7.254   1.814   2.662  1.3079  0.9896 -0.2900
  993MOL0     H36991   7.244   1.652   2.612 -1.9045  1.7488  4.4004
  993MOL0     H36992   7.443   1.706   2.760 -0.8222 -0.9163 -0.0971
  993MOL0     H36993   7.702   1.810   2.959  1.2437 -1.4358 -0.2441
  993MOL0     H36994   7.745   1.650   2.896 -1.1907 -0.7661 -1.9849
  993MOL0     H36995   7.581   1.683   2.954 -1.2552  0.1649 -0.7201
  993MOL0     H36996   8.124   2.082   2.736  0.0407  1.1052 -0.9528
  993MOL0     H36997   8.355   2.101   2.763 -1.6413  1.5882 -0.1471
  993MOL0     H36998   8.566   2.087   2.773 -1.8648 -0.9301 -0.1791
  993MOL0     H36999   8.620   1.929   2.828  1.6383  0.7574  0.4909
  993MOL0     H37000   8.787   1.923   2.649 -0.7161 -0.1885 -1.2578
  993MOL0     H37001   8.735   2.074   2.582 -0.4030 -0.0543  0.2223
  993MOL0     H37002   8.845   2.046   2.861  0.3606  1.1118  1.1935
  993MOL0     H37003   8.772   2.191   2.792 -0.2201 -0.9994  0.9853
  993MOL0     H37004   8.953   2.209   2.632 -1.9848  0.9417  1.6979
  993MOL0     H37005   9.028   2.055   2.685  1.1704  0.6425 -0.4748
  993MOL0     H37006   9.079   2.161   2.901  0.1479  0.3746 -0.1944
  993MOL0     H37007   9.149   2.251   2.763  1.2112  0.1733  2.1524
  993MOL0     H37008   8.908   2.362   2.914 -0.3845  2.3293  0.1914
  993MOL0     H37009   8.973   2.418   2.757 -1.6426 -0.1152  0.8290
  993MOL0     H37010   9.181   2.454   2.844  1.4456 -0.6515  1.0394
  993MOL0     H37011   9.151   2.386   2.999  0.6944 -1.8830 -1.3172
  993MOL0     H37012   9.016   2.641   2.859  0.5665  1.4233  0.6107
  993MOL0     H37013   9.124   2.641   2.992 -0.2904 -1.6301  0.4871
  993MOL0     H37014   8.388   1.716   2.553 -1.5055  0.1346 -1.6838
  993MOL0     H37015   8.145   1.701   2.548  0.8045 -0.1959 -1.5578
  993MOL0     H37016   7.794   1.922   2.484  0.4049  0.4282  0.5450
  993MOL0     H37017   7.576   1.898   2.390  1.0883  1.5718 -0.2957
  993MOL0     H37018   5.558   1.574   3.163 -1.7757 -1.3244 -1.1775
  993MOL0     H37019   5.359   1.692   3.117 -0.8377  0.0079  0.3952
  993MOL0     H37020   5.273   2.122   2.849  0.6401 -1.2475 -0.5872
  993MOL0     H37021   5.123   2.247   2.707 -2.4807  1.0524  0.7161
  993MOL0     H37022   4.731   2.289   2.601 -2.6244  1.8944 -0.0918
  993MOL0     H37023   4.713   2.146   2.687 -0.6644  0.3580 -0.8098
  993MOL0     H37024   4.669   2.428   2.803 -0.5059 -0.1184 -0.0102
  993MOL0     H37025   4.631   2.272   2.893  1.2422 -0.8246 -0.1594
  993MOL0     H37026   4.471   2.217   2.718  0.7037 -0.2623  0.2865
  993MOL0     H37027   4.432   2.356   2.820  1.0634 -1.3959  1.4066
  993MOL0     H37028   4.514   2.385   2.529  2.2554  2.2374 -0.1115
  993MOL0     H37029   4.517   2.516   2.651 -1.4566  1.1027  1.3575
  993MOL0     H37030   4.097   2.444   2.599 -0.0169 -0.5292  4.0436
  993MOL0     H37031   4.782   2.088   2.900 -0.1713 -1.1978 -0.0879
  993MOL0     H37032   4.793   1.898   3.038 -0.0649 -0.7811 -0.5230
  993MOL0     H37033   4.932   1.790   2.989  0.5262  1.0903 -0.9201
  993MOL0     H37034   4.935   1.896   3.137  0.7004  0.9238  0.5099
  994MOL0     O37035  11.212   0.689   8.875 -0.4346 -0.7469 -0.2446
  994MOL0     C37036  11.096   0.709   8.841 -0.2190 -0.9695 -0.1151
  994MOL0     O37037  11.036   0.655   8.737  0.0278  0.1549 -0.5376
  994MOL0     C37038  11.080   0.532   8.688  0.0738 -0.5267 -0.4638
  994MOL0     C37039  11.136   0.431   8.769 -0.3099 -0.8961 -0.2035
  994MOL0     C37040  11.173   0.312   8.726  0.1534  0.5154 -0.2469
  994MOL0     C37041  11.157   0.283   8.588 -0.5466 -0.7829  0.2213
  994MOL0     O37042  11.176   0.165   8.518  0.9590  0.1349 -0.1366
  994MOL0     C37043  11.258   0.061   8.567 -1.1042  0.2834 -0.1515
  994MOL0     C37044  11.403   0.114   8.593  0.0178 -0.2238  0.4596
  994MOL0     C37045  11.506   0.007   8.605 -0.7166  0.4097 -0.3533
  994MOL0     C37046  11.526  -0.088   8.483  0.6365 -0.3830 -0.5797
  994MOL0     C37047  11.630  -0.197   8.514  0.2633 -0.4427 -0.6623
  994MOL0     C37048  11.568  -0.316   8.590  0.3254  0.7807 -0.2892
  994MOL0     C37049  11.668  -0.414   8.640 -0.0223 -1.0592 -0.2529
  994MOL0     C37050  11.736  -0.504   8.524  0.2831 -0.2141 -0.1755
  994MOL0     N37051  11.718  -0.645   8.554  0.0667 -1.0917  0.4497
  994MOL0     C37052  11.813  -0.737   8.587 -0.0329 -0.0679  0.6560
  994MOL0     C37053  11.751  -0.852   8.603 -0.0755  0.6700  0.1207
  994MOL0     C37054  11.831  -0.983   8.630 -0.4806 -0.3397  0.6666
  994MOL0     C37055  11.801  -1.105   8.533  0.5501  0.3589  0.1526
  994MOL0     C37056  11.811  -1.079   8.385  0.4399  0.4047 -0.5031
  994MOL0     C37057  11.949  -1.045   8.333 -0.4316 -0.0993 -0.0808
  994MOL0     O37058  11.932  -1.034   8.188 -0.5855  0.1537 -0.1934
  994MOL0     C37059  12.038  -1.054   8.109  0.0079 -0.1886 -0.3569
  994MOL0     C37060  12.016  -1.112   7.991 -0.7476 -0.5553  1.0276
  994MOL0     C37061  12.119  -1.131   7.888  0.0249  0.0901 -0.6473
  994MOL0     C37062  12.081  -1.160   7.749 -0.2754  0.5168  0.1025
  994MOL0     C37063  12.257  -1.112   7.937 -0.0571 -0.4799  0.4683
  994MOL0     C37064  12.377  -1.124   7.841 -0.3548  0.1217  0.1518
  994MOL0     O37065  12.494  -1.130   7.907  0.6023  0.4178 -0.4881
  994MOL0     C37066  12.615  -1.128   7.843 -0.1583  0.3338 -0.0509
  994MOL0     C37067  12.647  -1.224   7.747  0.1477  0.5689 -0.3726
  994MOL0     C37068  12.769  -1.229   7.687  0.1483 -0.0389  0.1083
  994MOL0     C37069  12.868  -1.131   7.704 -0.3166 -0.7054  0.0030
  994MOL0     O37070  12.981  -1.146   7.625 -0.6765 -0.0135  0.0278
  994MOL0     C37071  13.083  -1.041   7.631  0.6327  0.0013 -0.6068
  994MOL0     C37072  13.198  -1.089   7.542  0.0845 -0.3941 -0.0799
  994MOL0     C37073  13.320  -0.987   7.540  0.4189 -0.0929  0.4085
  994MOL0     C37074  13.411  -1.006   7.414  0.0599  0.9921 -0.6252
  994MOL0     C37075  13.544  -0.937   7.426 -0.3711 -0.6371 -0.4687
  994MOL0     C37076  13.659  -1.039   7.455 -0.8303 -0.1886  0.2010
  994MOL0     C37077  13.792  -0.971   7.484 -0.0212  0.6744  0.0770
  994MOL0     C37078  13.837  -0.883   7.370 -0.3204  0.3566 -0.5166
  994MOL0    Cl37079  14.008  -0.825   7.394 -0.2152 -0.2860  0.0935
  994MOL0     C37080  12.831  -1.022   7.788  0.1393  0.6261 -0.9918
  994MOL0     C37081  12.702  -1.024   7.858  0.5049  0.2978  0.5532
  994MOL0     O37082  12.371  -1.146   7.718 -0.5505 -0.4077  1.1067
  994MOL0     C37083  12.273  -1.064   8.072  0.1505 -0.3020  0.4859
  994MOL0     C37084  12.165  -1.023   8.150 -0.0148  0.0609 -0.6883
  994MOL0     N37085  11.615  -0.834   8.574 -0.1962 -0.9901 -0.5217
  994MOL0     N37086  11.600  -0.706   8.554 -0.0090 -0.4289  0.0208
  994MOL0     C37087  11.104   0.384   8.512 -0.4316  0.7789  0.7577
  994MOL0     C37088  11.069   0.512   8.552 -0.0244 -0.2814  0.4001
  994MOL0     C37089  11.021   0.819   8.908  0.1035 -0.0726  0.1443
  994MOL0     C37090  10.883   0.828   8.912 -0.5341 -0.5632  0.6840
  994MOL0     C37091  10.811   0.925   8.983  0.2879  0.5781  0.1579
  994MOL0     C37092  10.885   1.026   9.035 -0.7773 -0.2874  0.0569
  994MOL0     O37093  10.807   1.120   9.096  0.4896 -0.1028 -0.0649
  994MOL0     C37094  10.858   1.250   9.127  0.1288  0.4003  0.7083
  994MOL0     C37095  10.751   1.364   9.118  0.4549  1.0436  0.1222
  994MOL0     C37096  10.642   1.386   9.230 -0.1372  0.3023  0.7688
  994MOL0     C37097  10.540   1.278   9.230  0.2698  0.1401 -0.2581
  994MOL0     C37098  10.482   1.236   9.108  0.7849  0.0529  0.5314
  994MOL0     C37099  10.427   1.196   9.009 -0.5546  0.0581  0.4696
  994MOL0     C37100  11.027   1.040   9.031 -0.1023  0.2075 -0.6740
  994MOL0     C37101  11.097   0.935   8.965 -0.2632  0.9241  0.4647
  994MOL0     C37102  11.251   0.958   8.969 -0.0429 -0.3636  0.5277
  994MOL0     H37103  11.129   0.443   8.876 -0.7492 -1.0011 -0.2162
  994MOL0     H37104  11.212   0.234   8.791  0.4582  2.5991  2.2398
  994MOL0     H37105  11.256  -0.024   8.498  0.7531 -0.7354  0.9451
  994MOL0     H37106  11.230   0.015   8.662 -0.1073  0.3496  0.1932
  994MOL0     H37107  11.428   0.179   8.508  0.0756  1.8000  1.9287
  994MOL0     H37108  11.395   0.183   8.677 -2.2143  0.3570 -0.1614
  994MOL0     H37109  11.601   0.060   8.602 -0.7503  0.4347 -1.6624
  994MOL0     H37110  11.495  -0.044   8.702 -0.5109  0.5385 -0.2625
  994MOL0     H37111  11.427  -0.129   8.460  0.5876 -0.4776 -0.2034
  994MOL0     H37112  11.547  -0.024   8.397 -0.1138  1.8707  0.8205
  994MOL0     H37113  11.709  -0.153   8.575 -0.5789 -2.2525  1.8716
  994MOL0     H37114  11.674  -0.238   8.422 -1.2118 -2.7783 -0.3849
  994MOL0     H37115  11.507  -0.288   8.677 -0.7919  1.9178 -1.3922
  994MOL0     H37116  11.506  -0.378   8.525 -0.9190 -1.4755  2.8057
  994MOL0     H37117  11.625  -0.482   8.714  1.4302 -0.7660  0.9104
  994MOL0     H37118  11.751  -0.359   8.685  0.9578 -2.8221  0.2204
  994MOL0     H37119  11.680  -0.492   8.431  0.2542 -0.4769 -0.1913
  994MOL0     H37120  11.839  -0.470   8.508 -0.0788  2.2501  2.0784
  994MOL0     H37121  11.919  -0.715   8.592 -0.2227  0.8586  0.8830
  994MOL0     H37122  11.802  -1.008   8.733  0.1616  0.4091  1.0366
  994MOL0     H37123  11.940  -0.970   8.627 -0.7088  1.5735 -1.5568
  994MOL0     H37124  11.862  -1.193   8.555  0.7678  0.8534  1.6260
  994MOL0     H37125  11.697  -1.133   8.554  0.5990  0.9192  1.1800
  994MOL0     H37126  11.777  -1.170   8.335 -0.0218 -0.3466  1.1205
  994MOL0     H37127  11.739  -1.000   8.360 -0.8238  0.1275  1.9711
  994MOL0     H37128  11.980  -0.948   8.373 -0.4931  0.1325 -0.5852
  994MOL0     H37129  12.022  -1.122   8.357 -0.8429 -0.5614 -0.3006
  994MOL0     H37130  11.915  -1.149   7.972 -0.1765 -1.4104 -0.5681
  994MOL0     H37131  12.132  -1.252   7.718 -0.1077  0.2181  1.2239
  994MOL0     H37132  12.126  -1.082   7.687 -0.1234 -0.2326 -0.7551
  994MOL0     H37133  11.972  -1.166   7.747 -0.2038 -2.0441  0.2019
  994MOL0     H37134  12.572  -1.299   7.724  1.2172 -0.6848  0.0723
  994MOL0     H37135  12.788  -1.316   7.625  0.3211 -1.1902  1.7263
  994MOL0     H37136  13.044  -0.943   7.602 -3.1052 -0.2722  2.6063
  994MOL0     H37137  13.119  -1.024   7.733 -0.8415 -0.2929 -0.0146
  994MOL0     H37138  13.225  -1.190   7.573  1.0897 -1.7168 -4.5447
  994MOL0     H37139  13.172  -1.105   7.437 -1.3786 -0.3843  0.2470
  994MOL0     H37140  13.380  -0.991   7.631  0.3208  0.0870  0.4804
  994MOL0     H37141  13.276  -0.888   7.525 -1.6732 -0.7897  1.4953
  994MOL0     H37142  13.351  -0.979   7.326 -0.5902 -2.2258 -1.2926
  994MOL0     H37143  13.433  -1.112   7.402  0.4846  1.1221 -1.0376
  994MOL0     H37144  13.555  -0.879   7.334  0.0411  3.4053  1.9163
  994MOL0     H37145  13.531  -0.860   7.502  3.1513 -0.8351  0.4939
  994MOL0     H37146  13.674  -1.097   7.363  2.1079  1.2544 -0.3556
  994MOL0     H37147  13.639  -1.102   7.542 -0.3912  0.0421  0.4708
  994MOL0     H37148  13.869  -1.041   7.515 -2.2526 -1.9334  0.0602
  994MOL0     H37149  13.778  -0.905   7.571  1.3893 -0.3363  1.1204
  994MOL0     H37150  13.764  -0.803   7.365  0.7657  1.3166 -2.3467
  994MOL0     H37151  13.842  -0.949   7.283 -1.4728  0.4066 -0.6289
  994MOL0     H37152  12.903  -0.942   7.797  1.3694 -0.5636  0.4092
  994MOL0     H37153  12.672  -0.942   7.923  0.7876 -0.5592  1.7818
  994MOL0     H37154  12.370  -1.048   8.116  0.3047 -0.6837  0.2904
  994MOL0     H37155  12.178  -0.975   8.247  0.3323  0.6093 -1.0009
  994MOL0     H37156  11.079   0.361   8.409 -7.1406  0.5183  1.9699
  994MOL0     H37157  11.030   0.588   8.485 -0.9210  0.5875  1.8530
  994MOL0     H37158  10.824   0.763   8.848  2.0601 -1.5519 -0.8997
  994MOL0     H37159  10.702   0.921   8.985  0.2827  0.9899  0.7931
  994MOL0     H37160  10.899   1.237   9.227  2.1225 -0.5954 -0.1789
  994MOL0     H37161  10.948   1.277   9.070  0.7527 -1.3290  0.8069
  994MOL0     H37162  10.710   1.364   9.016  1.4493  0.6787 -0.2864
  994MOL0     H37163  10.808   1.457   9.119  1.3997  0.4752  0.5193
  994MOL0     H37164  10.695   1.395   9.325  0.9025  1.2866  0.1205
  994MOL0     H37165  10.591   1.479   9.203  2.5091  1.8335  0.6036
  994MOL0     H37166  10.460   1.316   9.294  0.1259  0.4581 -0.6243
  994MOL0     H37167  10.583   1.197   9.290  0.2410  0.6594  0.4859
  994MOL0     H37168  10.375   1.172   8.919 -0.8914  3.8276 -0.5046
  994MOL0     H37169  11.088   1.118   9.076 -0.3227  0.4365 -0.7705
  994MOL0     H37170  11.272   1.063   8.994  0.7279 -0.4558  0.2928
  994MOL0     H37171  11.296   0.902   9.051  0.6052  0.1865  0.5568
  994MOL0     H37172  11.298   0.934   8.874  1.1996  2.8825  0.1892
  995MOL0     O37173   2.906   0.831  10.199  0.7928 -1.0009 -0.3754
  995MOL0     C37174   2.801   0.842  10.269 -0.4711  0.3176 -0.5067
  995MOL0     O37175   2.787   0.907  10.389 -0.0325 -0.2782 -0.3108
  995MOL0     C37176   2.886   0.983  10.435 -0.7949  0.2982 -0.0377
  995MOL0     C37177   2.920   0.993  10.569  0.4346  0.0610  0.3470
  995MOL0     C37178   3.028   1.067  10.624  0.6360  0.3402 -0.0291
  995MOL0     C37179   3.111   1.131  10.540  0.0704 -0.2525  1.1868
  995MOL0     O37180   3.218   1.210  10.585 -0.7594 -0.3151 -1.0686
  995MOL0     C37181   3.309   1.268  10.486 -0.1413  0.4961 -0.4565
  995MOL0     C37182   3.436   1.320  10.577  1.0382  0.0948  0.1968
  995MOL0     C37183   3.399   1.431  10.676  0.5655  0.1847 -0.4266
  995MOL0     C37184   3.523   1.481  10.756 -1.2709  0.4018  0.6466
  995MOL0     C37185   3.488   1.580  10.875 -0.2537 -0.1398 -0.3744
  995MOL0     C37186   3.605   1.650  10.955  0.0158 -1.0350 -0.5816
  995MOL0     C37187   3.695   1.740  10.862  0.9716  0.0236 -0.2053
  995MOL0     C37188   3.622   1.864  10.827 -0.0087 -0.3942 -0.3148
  995MOL0     N37189   3.716   1.962  10.762  0.2321 -0.5168 -0.4611
  995MOL0     C37190   3.802   2.061  10.816  0.9888  0.2093 -0.5662
  995MOL0     C37191   3.825   2.140  10.708  0.2335  0.2059  0.1563
  995MOL0     C37192   3.916   2.255  10.715 -0.0939  0.0983  0.3084
  995MOL0     C37193   4.065   2.240  10.666 -0.6065  0.3365 -0.1012
  995MOL0     C37194   4.147   2.374  10.677  0.0365  0.1909  0.3547
  995MOL0     C37195   4.293   2.375  10.635 -0.2690 -0.1490 -0.3854
  995MOL0     O37196   4.388   2.413  10.737  0.1408  0.6129  0.2975
  995MOL0     C37197   4.506   2.465  10.696 -0.4862 -0.9678 -0.2166
  995MOL0     C37198   4.575   2.547  10.785  0.4687 -0.0108 -0.8245
  995MOL0     C37199   4.698   2.610  10.761  0.0182 -0.3951 -0.8152
  995MOL0     C37200   4.758   2.693  10.871  0.5192 -0.2037 -0.4337
  995MOL0     C37201   4.754   2.596  10.630 -0.2373 -0.3128 -0.6077
  995MOL0     C37202   4.874   2.668  10.579  0.6003  0.5604  0.0758
  995MOL0     O37203   4.931   2.756  10.660  0.5030  0.0167  0.0169
  995MOL0     C37204   5.037   2.835  10.612 -0.1659 -0.5217  0.7273
  995MOL0     C37205   5.145   2.872  10.698 -0.5423  0.4249  0.4042
  995MOL0     C37206   5.246   2.956  10.653 -0.2536 -1.3152 -0.7349
  995MOL0     C37207   5.243   3.008  10.523 -0.3476  0.0056  0.2669
  995MOL0     O37208   5.333   3.096  10.471 -0.9590  0.4439 -0.6800
  995MOL0     C37209   5.417   3.189  10.554  1.0066 -1.0959  0.5107
  995MOL0     C37210   5.470   3.298  10.457  0.3201 -0.5538 -0.1961
  995MOL0     C37211   5.531   3.423  10.539  0.8577  1.0173 -0.9016
  995MOL0     C37212   5.618   3.499  10.442  0.8001 -0.4947 -0.1832
  995MOL0     C37213   5.645   3.633  10.513 -0.9967  0.1816  0.0226
  995MOL0     C37214   5.651   3.734  10.395  0.2306 -0.3847 -0.3202
  995MOL0     C37215   5.665   3.880  10.450 -0.5989 -0.1257 -0.4676
  995MOL0     C37216   5.659   3.993  10.340  0.1507  0.4074 -0.3669
  995MOL0    Cl37217   5.496   3.987  10.276  0.0871 -0.0805  0.0642
  995MOL0     C37218   5.133   2.975  10.444 -0.2356 -0.3172  0.6606
  995MOL0     C37219   5.038   2.886  10.484 -0.4705 -0.9813 -0.1788
  995MOL0     O37220   4.918   2.633  10.471 -0.0687  0.0776 -0.0081
  995MOL0     C37221   4.690   2.510  10.540  0.4006 -0.0114 -0.3571
  995MOL0     C37222   4.571   2.440  10.572 -0.5252  0.2082 -0.7710
  995MOL0     N37223   3.753   2.092  10.601 -0.4651  0.2075 -0.2492
  995MOL0     N37224   3.691   1.984  10.632 -0.6618 -0.5680  0.5866
  995MOL0     C37225   3.084   1.130  10.400 -0.0074 -0.4077 -1.0524
  995MOL0     C37226   2.971   1.066  10.350  0.0146 -0.0466 -0.0424
  995MOL0     C37227   2.669   0.794  10.214 -0.7334  0.7108  0.6742
  995MOL0     C37228   2.550   0.821  10.293 -0.0630 -1.0530 -0.2152
  995MOL0     C37229   2.431   0.776  10.248 -0.3549 -0.9959  0.1728
  995MOL0     C37230   2.418   0.701  10.131 -0.0858 -0.6299  0.0644
  995MOL0     O37231   2.299   0.647  10.085  0.1659  0.0339 -0.3757
  995MOL0     C37232   2.182   0.666  10.165  0.5898  0.4306  0.2397
  995MOL0     C37233   2.059   0.608  10.108 -1.0156  0.2907  0.4015
  995MOL0     C37234   2.062   0.458  10.098 -0.1563  0.2433  0.2425
  995MOL0     C37235   1.931   0.401  10.043  0.1511  0.5642 -0.2810
  995MOL0     C37236   1.821   0.422  10.132  0.8271 -0.2443 -0.0971
  995MOL0     C37237   1.713   0.421  10.192 -0.5450  0.1183  0.1932
  995MOL0     C37238   2.529   0.672  10.059 -0.4862  0.5215 -0.6935
  995MOL0     C37239   2.654   0.719  10.097 -0.2575  1.2351  0.6499
  995MOL0     C37240   2.771   0.670  10.013 -0.3615  0.8838 -0.2873
  995MOL0     H37241   2.871   0.921  10.634  1.6925 -0.6126  0.5871
  995MOL0     H37242   3.045   1.081  10.730 -0.1737 -1.7589  0.4245
  995MOL0     H37243   3.267   1.359  10.442 -0.2955  0.3465 -0.6225
  995MOL0     H37244   3.355   1.200  10.415  1.8268 -0.4864  1.6245
  995MOL0     H37245   3.473   1.240  10.643  2.1194  0.7926  0.4718
  995MOL0     H37246   3.517   1.367  10.521  2.6522 -1.9953  0.6210
  995MOL0     H37247   3.353   1.517  10.628  1.3877  0.9389  0.1122
  995MOL0     H37248   3.327   1.400  10.752 -0.2784  3.5703  0.2885
  995MOL0     H37249   3.568   1.387  10.789  0.3862  0.2865 -1.7064
  995MOL0     H37250   3.598   1.527  10.691 -0.4044 -1.9345 -0.1289
  995MOL0     H37251   3.435   1.518  10.948 -1.2606  1.9047  0.6887
  995MOL0     H37252   3.412   1.653  10.848 -0.2246  0.7133  1.6650
  995MOL0     H37253   3.569   1.716  11.035  0.6359  0.5329 -1.5545
  995MOL0     H37254   3.657   1.567  11.004  0.2843  0.2672  1.4833
  995MOL0     H37255   3.731   1.688  10.773  2.3390 -1.3634  1.0956
  995MOL0     H37256   3.785   1.759  10.922 -0.2147 -0.0466  1.6727
  995MOL0     H37257   3.545   1.854  10.749  1.1805  0.9515 -1.7313
  995MOL0     H37258   3.581   1.902  10.921  1.4340 -2.1803  1.0949
  995MOL0     H37259   3.829   2.072  10.920  2.5072 -0.7777 -0.8332
  995MOL0     H37260   3.930   2.287  10.819  0.6325 -1.2450  0.6462
  995MOL0     H37261   3.872   2.339  10.659  2.6159 -0.0690 -2.3312
  995MOL0     H37262   4.118   2.164  10.725 -0.3452 -0.7528 -1.6854
  995MOL0     H37263   4.073   2.202  10.564 -0.5837 -0.3197  0.1409
  995MOL0     H37264   4.089   2.450  10.625 -0.0606 -0.0036  0.1801
  995MOL0     H37265   4.149   2.424  10.775  0.4760 -0.4862  0.6987
  995MOL0     H37266   4.311   2.272  10.601 -0.0662  0.2918 -1.6605
  995MOL0     H37267   4.303   2.447  10.553 -2.5231 -1.5590 -2.0328
  995MOL0     H37268   4.529   2.552  10.884  0.0952 -0.5306 -0.9658
  995MOL0     H37269   4.767   2.793  10.828  2.3336 -1.3853 -3.0591
  995MOL0     H37270   4.856   2.653  10.899 -1.0826 -3.4377  1.0118
  995MOL0     H37271   4.706   2.685  10.967  2.6188 -3.0140  0.6246
  995MOL0     H37272   5.152   2.830  10.798  2.1380  0.9068  0.5002
  995MOL0     H37273   5.329   2.984  10.719 -0.4139 -2.0124 -0.2248
  995MOL0     H37274   5.350   3.235  10.628 -2.9754 -1.8993 -2.2467
  995MOL0     H37275   5.503   3.134  10.593  1.6630 -0.7133 -0.3582
  995MOL0     H37276   5.542   3.246  10.392 -0.9887  0.2021 -2.3400
  995MOL0     H37277   5.392   3.344  10.396  1.2188  0.1199 -0.8748
  995MOL0     H37278   5.576   3.387  10.632 -4.2318  0.9418  1.8829
  995MOL0     H37279   5.451   3.489  10.573  2.2025  0.3758  4.3233
  995MOL0     H37280   5.547   3.526  10.363 -0.7122  0.5130  1.4700
  995MOL0     H37281   5.704   3.438  10.410  2.3107  1.3844  0.1304
  995MOL0     H37282   5.565   3.659  10.584 -1.4843 -3.5986  1.0817
  995MOL0     H37283   5.739   3.625  10.569 -0.2745  1.5801 -0.9249
  995MOL0     H37284   5.567   3.724  10.326  0.7746  0.2829 -1.1012
  995MOL0     H37285   5.743   3.711  10.341  0.8832  0.3419  0.4501
  995MOL0     H37286   5.764   3.893  10.495 -1.6309  3.0198  1.2115
  995MOL0     H37287   5.592   3.896  10.530 -2.0738 -0.4386 -1.7310
  995MOL0     H37288   5.731   3.981  10.258  2.4208 -2.2394  1.8217
  995MOL0     H37289   5.686   4.089  10.385  1.5429  0.5533 -1.4408
  995MOL0     H37290   5.122   3.023  10.347 -0.2150 -0.8030  0.4140
  995MOL0     H37291   4.964   2.861  10.410 -0.8012 -0.9212  0.1305
  995MOL0     H37292   4.736   2.494  10.443 -0.2086 -0.7039 -0.5424
  995MOL0     H37293   4.513   2.387  10.496 -2.7498 -0.8696  1.5290
  995MOL0     H37294   3.139   1.186  10.326  0.7864 -0.1585 -0.2952
  995MOL0     H37295   2.957   1.088  10.245  2.4564  3.4548  0.1840
  995MOL0     H37296   2.549   0.883  10.383 -1.2053  1.4645 -1.8349
  995MOL0     H37297   2.342   0.812  10.299 -0.7054  0.9121 -1.6310
  995MOL0     H37298   2.191   0.624  10.265 -0.5031  1.5818  0.8431
  995MOL0     H37299   2.164   0.772  10.185 -1.8155  0.0620  0.2915
  995MOL0     H37300   2.059   0.650  10.007  2.8355  0.6321  0.3963
  995MOL0     H37301   1.968   0.639  10.161 -0.1184  0.7346  1.7066
  995MOL0     H37302   2.147   0.427  10.037 -0.3227  0.7107 -0.2354
  995MOL0     H37303   2.077   0.414  10.197  1.5864  0.6282  0.1791
  995MOL0     H37304   1.949   0.299  10.008  0.4172  0.7335 -0.6573
  995MOL0     H37305   1.906   0.458   9.953 -3.1643  0.3221  0.3667
  995MOL0     H37306   1.613   0.420  10.230 -0.6921  0.8935 -0.1546
  995MOL0     H37307   2.520   0.604   9.975  2.6826  1.0378 -1.5712
  995MOL0     H37308   2.738   0.598   9.938  1.9516 -0.5208 -0.0478
  995MOL0     H37309   2.809   0.752   9.952  1.6029 -0.8823 -1.5694
  995MOL0     H37310   2.857   0.626  10.064 -0.2253 -0.9595 -1.9734
  996MOL0     O37311   2.828   3.859   7.529  0.0038 -0.2256  0.1237
  996MOL0     C37312   2.812   3.821   7.645 -0.2844  0.1086 -1.5099
  996MOL0     O37313   2.904   3.784   7.738 -0.9985  0.1169  0.3699
  996MOL0     C37314   3.046   3.800   7.718 -0.4033 -0.0043 -0.8872
  996MOL0     C37315   3.126   3.750   7.827 -0.1449  0.6234  0.0857
  996MOL0     C37316   3.269   3.750   7.822 -0.3310 -0.4888  0.1165
  996MOL0     C37317   3.332   3.786   7.703  0.0318  1.0353  0.1416
  996MOL0     O37318   3.467   3.780   7.677 -0.1307 -0.0985  0.6395
  996MOL0     C37319   3.563   3.774   7.778  0.2223  0.4087 -0.0977
  996MOL0     C37320   3.580   3.626   7.813 -0.1338 -0.6193  0.2720
  996MOL0     C37321   3.706   3.573   7.737  0.4797  0.2152  0.7768
  996MOL0     C37322   3.836   3.624   7.811  0.6580 -0.5584 -0.3016
  996MOL0     C37323   3.951   3.575   7.727 -0.3790  0.7131 -0.5035
  996MOL0     C37324   4.079   3.625   7.796  0.5195  0.0883  0.0078
  996MOL0     C37325   4.203   3.567   7.733 -0.2709 -0.3829 -0.3816
  996MOL0     C37326   4.227   3.608   7.586  0.1897  0.4530 -0.0928
  996MOL0     N37327   4.346   3.535   7.527  0.0657 -0.3894 -0.1552
  996MOL0     C37328   4.386   3.406   7.509  0.2692  0.4568  1.0924
  996MOL0     C37329   4.508   3.416   7.477 -0.7015 -0.0118  0.2864
  996MOL0     C37330   4.595   3.298   7.470  0.2645 -0.9879  0.5421
  996MOL0     C37331   4.602   3.250   7.330  0.1237  0.4526 -0.6229
  996MOL0     C37332   4.687   3.333   7.238  0.5006  0.8435 -0.8047
  996MOL0     C37333   4.834   3.342   7.285  0.2518 -0.1104 -0.0418
  996MOL0     O37334   4.886   3.208   7.312  0.1799 -0.0235 -0.3923
  996MOL0     C37335   5.026   3.202   7.326  0.9979 -0.4165  0.1304
  996MOL0     C37336   5.112   3.312   7.335  0.2197  0.7652 -0.2755
  996MOL0     C37337   5.248   3.297   7.335  0.2362  0.8919 -0.3214
  996MOL0     C37338   5.336   3.428   7.335 -0.0786  0.7040 -0.1954
  996MOL0     C37339   5.299   3.167   7.341  0.5910  0.0232  0.1505
  996MOL0     C37340   5.441   3.147   7.362  0.2740 -0.2496 -0.3871
  996MOL0     O37341   5.537   3.227   7.300 -0.0742  0.6573  0.6430
  996MOL0     C37342   5.659   3.233   7.358 -0.1154 -0.9318 -0.3104
  996MOL0     C37343   5.738   3.123   7.401 -0.0464  0.1265  0.3283
  996MOL0     C37344   5.854   3.148   7.477 -0.0726  0.1134 -0.4286
  996MOL0     C37345   5.908   3.272   7.500  0.0636  0.3482  0.5571
  996MOL0     O37346   6.032   3.273   7.563 -0.7285 -0.6689 -0.3587
  996MOL0     C37347   6.118   3.392   7.562  0.7374  0.4003 -0.2495
  996MOL0     C37348   6.253   3.347   7.616  0.2818 -0.3806 -0.9140
  996MOL0     C37349   6.262   3.353   7.774  0.5989 -0.2862  0.9551
  996MOL0     C37350   6.397   3.329   7.830 -0.3209  0.3077 -0.4844
  996MOL0     C37351   6.403   3.371   7.974 -0.7879 -0.1695  0.1794
  996MOL0     C37352   6.527   3.348   8.048 -0.1833  0.1495  0.4099
  996MOL0     C37353   6.655   3.410   7.985  0.3042  0.2997 -0.1666
  996MOL0     C37354   6.770   3.415   8.086  0.3082 -0.3504  0.3482
  996MOL0    Cl37355   6.803   3.248   8.130 -0.0856 -0.2649 -0.2136
  996MOL0     C37356   5.839   3.377   7.437 -0.3788 -0.2664 -0.5957
  996MOL0     C37357   5.711   3.360   7.379  0.0497  0.1275  0.9158
  996MOL0     O37358   5.467   3.058   7.443 -0.0985  0.2799  1.1776
  996MOL0     C37359   5.212   3.056   7.331 -0.8243  0.2573 -0.0877
  996MOL0     C37360   5.075   3.075   7.323 -0.6471  0.6076  0.9637
  996MOL0     N37361   4.549   3.546   7.451  0.5688  0.4400  0.1391
  996MOL0     N37362   4.445   3.616   7.477  0.5522 -0.4183  0.4334
  996MOL0     C37363   3.250   3.839   7.600 -0.5921 -0.2485 -0.0989
  996MOL0     C37364   3.114   3.842   7.606  0.2951 -0.7344  0.1568
  996MOL0     C37365   2.675   3.782   7.687 -0.3210  0.4639  0.2007
  996MOL0     C37366   2.658   3.677   7.777  0.2627 -0.3041  0.5824
  996MOL0     C37367   2.530   3.632   7.814  0.1960  0.2968 -0.2143
  996MOL0     C37368   2.414   3.701   7.772  0.2712  0.5453 -0.3577
  996MOL0     O37369   2.285   3.663   7.796 -0.5496 -1.0918  0.0493
  996MOL0     C37370   2.252   3.566   7.888  0.6012 -0.6376  0.6075
  996MOL0     C37371   2.096   3.546   7.901 -0.5667 -0.4296  0.5651
  996MOL0     C37372   2.011   3.666   7.942 -0.5041 -0.2325  0.3956
  996MOL0     C37373   1.963   3.752   7.824  0.0079  0.9210  0.1082
  996MOL0     C37374   1.877   3.861   7.871  0.3218  0.5779  0.3992
  996MOL0     C37375   1.824   3.952   7.928  0.5309 -0.2449  1.2440
  996MOL0     C37376   2.433   3.817   7.691  0.1157 -0.1343  0.5339
  996MOL0     C37377   2.561   3.858   7.643 -0.3958 -0.6684  0.0056
  996MOL0     C37378   2.568   3.978   7.548 -0.2018  0.6817 -0.3027
  996MOL0     H37379   3.069   3.711   7.911 -1.0831  1.2562 -0.2354
  996MOL0     H37380   3.323   3.708   7.906 -2.2603 -1.1357  1.1004
  996MOL0     H37381   3.545   3.811   7.879  3.8021  0.2098  0.7387
  996MOL0     H37382   3.653   3.821   7.738  1.5228 -0.0219  2.1946
  996MOL0     H37383   3.575   3.605   7.920 -2.7195 -1.7105  0.0208
  996MOL0     H37384   3.495   3.578   7.765 -1.3553  2.2916 -0.7154
  996MOL0     H37385   3.699   3.464   7.739  1.5654  0.1320  1.3463
  996MOL0     H37386   3.705   3.610   7.635 -0.7342  1.3531  1.1863
  996MOL0     H37387   3.833   3.733   7.827 -0.4279 -0.2732 -2.1173
  996MOL0     H37388   3.838   3.576   7.909  1.3799 -0.5525 -0.3133
  996MOL0     H37389   3.944   3.605   7.622 -2.0295  1.4229 -0.2148
  996MOL0     H37390   3.956   3.465   7.725 -2.2985  0.6019 -0.7733
  996MOL0     H37391   4.081   3.733   7.783 -1.8403 -0.0474 -2.2684
  996MOL0     H37392   4.073   3.594   7.901  0.0895  0.8931  0.2272
  996MOL0     H37393   4.186   3.463   7.760 -2.6770  0.5834  2.3878
  996MOL0     H37394   4.296   3.593   7.785  0.9420 -0.8516 -2.2178
  996MOL0     H37395   4.142   3.599   7.518 -0.8136  0.5679  1.1040
  996MOL0     H37396   4.238   3.716   7.599  1.0665  0.1928  1.5677
  996MOL0     H37397   4.330   3.318   7.538 -1.7498  2.4079  3.6397
  996MOL0     H37398   4.559   3.209   7.521 -0.8840 -1.9311 -1.7843
  996MOL0     H37399   4.688   3.339   7.513 -0.2266  1.5432 -0.6187
  996MOL0     H37400   4.651   3.153   7.328 -0.2717  0.2604 -1.7915
  996MOL0     H37401   4.497   3.244   7.298 -0.5738  0.3046  1.5228
  996MOL0     H37402   4.675   3.284   7.142 -1.6974  0.4919 -0.4065
  996MOL0     H37403   4.650   3.435   7.222 -0.2477  0.7922  0.4385
  996MOL0     H37404   4.887   3.382   7.199 -0.2289 -1.1370 -0.8438
  996MOL0     H37405   4.839   3.403   7.376 -2.1434  2.0748 -1.2266
  996MOL0     H37406   5.070   3.411   7.324 -0.1294  0.2921 -4.8415
  996MOL0     H37407   5.403   3.422   7.421 -1.0413 -2.6720  0.4765
  996MOL0     H37408   5.271   3.516   7.337 -1.3765 -0.2433  1.1245
  996MOL0     H37409   5.401   3.433   7.247 -0.1943 -3.1365 -0.6687
  996MOL0     H37410   5.707   3.021   7.383  2.1114 -0.3511 -1.0221
  996MOL0     H37411   5.906   3.059   7.512 -3.1105 -0.5948  2.7967
  996MOL0     H37412   6.119   3.440   7.464 -2.1656 -0.2730 -0.7033
  996MOL0     H37413   6.075   3.472   7.624  1.1500 -0.2006  0.8390
  996MOL0     H37414   6.265   3.247   7.573  0.0356  0.0251 -1.9424
  996MOL0     H37415   6.337   3.407   7.581 -1.7690  3.2380 -0.0880
  996MOL0     H37416   6.186   3.280   7.807 -1.3154 -0.6964 -3.5093
  996MOL0     H37417   6.233   3.452   7.809 -0.2193 -0.9263  2.1756
  996MOL0     H37418   6.469   3.382   7.767  0.1955 -0.3419 -0.4536
  996MOL0     H37419   6.418   3.222   7.818  1.6599  0.6143 -0.0081
  996MOL0     H37420   6.396   3.480   7.983 -0.8765  0.2256 -3.4280
  996MOL0     H37421   6.315   3.330   8.025 -0.7644  0.4621  0.7461
  996MOL0     H37422   6.538   3.240   8.045 -0.1835  0.1750 -1.8808
  996MOL0     H37423   6.523   3.371   8.155 -1.3208 -1.2104  0.6821
  996MOL0     H37424   6.635   3.512   7.949 -1.4792  0.0824  0.1391
  996MOL0     H37425   6.689   3.350   7.900  1.7566 -1.1712  1.3857
  996MOL0     H37426   6.745   3.473   8.175 -1.4807 -0.6656  0.0812
  996MOL0     H37427   6.854   3.460   8.031 -0.2242 -0.6395 -0.7256
  996MOL0     H37428   5.886   3.475   7.438  1.3622 -1.0626 -0.7005
  996MOL0     H37429   5.662   3.446   7.335  1.0472  0.9659  1.4067
  996MOL0     H37430   5.250   2.954   7.323 -0.2441  0.5691 -1.8349
  996MOL0     H37431   5.016   2.985   7.319  0.9830 -0.6987  3.4324
  996MOL0     H37432   3.298   3.868   7.508 -0.4041  0.4740  0.2161
  996MOL0     H37433   3.068   3.893   7.522  1.6216 -1.2147 -0.9006
  996MOL0     H37434   2.753   3.633   7.808  2.3047  3.5381  0.3488
  996MOL0     H37435   2.534   3.547   7.881  1.4686  1.9131  1.8714
  996MOL0     H37436   2.292   3.465   7.875 -0.7498 -1.0200 -1.0412
  996MOL0     H37437   2.285   3.595   7.988 -0.3648  2.5971  0.0899
  996MOL0     H37438   2.072   3.470   7.976 -1.1459 -0.5889  0.2180
  996MOL0     H37439   2.072   3.513   7.799 -1.6377 -0.1960  0.7352
  996MOL0     H37440   1.926   3.628   7.998 -1.4215 -0.3404 -1.0289
  996MOL0     H37441   2.069   3.723   8.016 -0.7092  0.2441  0.1922
  996MOL0     H37442   1.917   3.685   7.750 -0.8005  0.1965  1.2308
  996MOL0     H37443   2.053   3.797   7.782 -0.1242  1.0886  0.0015
  996MOL0     H37444   1.759   4.025   7.973  0.3935 -1.0316  2.3589
  996MOL0     H37445   2.350   3.876   7.654  0.6452 -0.2839 -0.9431
  996MOL0     H37446   2.624   4.061   7.592  0.2592 -1.1053  2.7831
  996MOL0     H37447   2.617   3.938   7.459 -3.1333 -4.0942 -0.1430
  996MOL0     H37448   2.468   4.006   7.513 -0.9700  1.2142  2.0970
  997MOL0     O37449  10.179   3.983  10.784  0.2355  0.4108  0.2989
  997MOL0     C37450  10.108   4.081  10.794  0.2865 -0.5822  0.3342
  997MOL0     O37451  10.113   4.174  10.899 -0.8614 -0.6466  0.8962
  997MOL0     C37452  10.214   4.169  10.996  0.3023  0.2964  0.5801
  997MOL0     C37453  10.181   4.184  11.127  0.0613  0.1774  1.0902
  997MOL0     C37454  10.267   4.180  11.232 -0.4749  0.7977 -0.0949
  997MOL0     C37455  10.406   4.172  11.203 -0.5845 -0.2468  0.4779
  997MOL0     O37456  10.499   4.201  11.295 -1.1970  0.0900  0.6462
  997MOL0     C37457  10.591   4.093  11.323 -0.3623  0.8380 -0.7942
  997MOL0     C37458  10.526   4.018  11.434 -0.0037  0.6238  0.2104
  997MOL0     C37459  10.602   3.892  11.478  0.2914  0.6023 -0.5544
  997MOL0     C37460  10.534   3.804  11.583 -0.3540  0.6735  0.1218
  997MOL0     C37461  10.528   3.881  11.717  0.1797  0.7317 -0.5325
  997MOL0     C37462  10.496   3.780  11.837 -0.1178 -0.3200  0.3178
  997MOL0     C37463  10.487   3.853  11.969  0.1924  0.8082 -0.6076
  997MOL0     C37464  10.624   3.880  12.029 -0.1039  0.4056  0.3912
  997MOL0     N37465  10.692   3.760  12.067  0.0710  0.4359 -0.6280
  997MOL0     C37466  10.649   3.647  12.134 -0.5137  0.3374 -0.3107
  997MOL0     C37467  10.756   3.564  12.143  0.5052  0.2786 -1.1583
  997MOL0     C37468  10.760   3.434  12.219 -0.3554  0.2727 -0.1908
  997MOL0     C37469  10.897   3.375  12.261  0.4788 -0.2298  0.1672
  997MOL0     C37470  10.977   3.311  12.153 -0.4587 -0.5450  0.3792
  997MOL0     C37471  11.095   3.238  12.228 -0.0412  0.1180  0.7926
  997MOL0     O37472  11.170   3.161  12.128 -0.5664  0.7286  0.2125
  997MOL0     C37473  11.307   3.175  12.120  0.7515  0.2866 -1.0208
  997MOL0     C37474  11.380   3.083  12.194  0.8005  0.2679 -0.1142
  997MOL0     C37475  11.519   3.084  12.198  0.6521  0.0149  0.0454
  997MOL0     C37476  11.591   2.991  12.294 -0.1131  0.2799 -0.1828
  997MOL0     C37477  11.589   3.171  12.113  0.0474 -0.0811 -0.3230
  997MOL0     C37478  11.734   3.168  12.105  0.5916  0.7123  0.0525
  997MOL0     O37479  11.801   3.256  12.187  0.4286  0.0849 -0.2413
  997MOL0     C37480  11.938   3.243  12.199 -0.5165 -1.0857 -0.2423
  997MOL0     C37481  11.995   3.194  12.311  0.3000  0.1148 -0.2829
  997MOL0     C37482  12.133   3.179  12.320  1.4865  0.7594  0.6500
  997MOL0     C37483  12.213   3.216  12.216  0.4685 -0.6146  0.1652
  997MOL0     O37484  12.343   3.193  12.247 -0.4160 -0.1362  0.4830
  997MOL0     C37485  12.448   3.213  12.149  0.2553  0.6570  0.0429
  997MOL0     C37486  12.546   3.302  12.208 -0.5986 -0.2340 -0.0954
  997MOL0     C37487  12.493   3.447  12.213 -0.4828 -0.2979 -0.4657
  997MOL0     C37488  12.580   3.533  12.295  0.4092  0.8423 -0.3633
  997MOL0     C37489  12.728   3.538  12.260 -0.3365  0.1780 -0.9154
  997MOL0     C37490  12.809   3.629  12.348 -0.3627 -0.4408 -1.0590
  997MOL0     C37491  12.958   3.615  12.343 -0.6304  0.7711 -0.5321
  997MOL0     C37492  13.033   3.741  12.389  0.1266  1.0144 -0.8352
  997MOL0    Cl37493  13.211   3.726  12.378 -0.0627 -0.0425  0.0290
  997MOL0     C37494  12.161   3.288  12.106  0.9792  0.4554 -0.5495
  997MOL0     C37495  12.022   3.299  12.098  0.2596  0.4751 -0.5993
  997MOL0     O37496  11.787   3.086  12.030 -0.6790  0.4656 -0.0417
  997MOL0     C37497  11.514   3.261  12.032 -0.5679  0.4589 -0.2417
  997MOL0     C37498  11.373   3.265  12.040  0.4221 -0.0040  0.4310
  997MOL0     N37499  10.863   3.624  12.086  0.3793  0.5931  0.2174
  997MOL0     N37500  10.813   3.729  12.028 -0.1978  0.3143  0.1686
  997MOL0     C37501  10.452   4.156  11.070  0.2337  0.0566 -0.3700
  997MOL0     C37502  10.351   4.149  10.974 -0.6581 -1.7105 -0.2549
  997MOL0     C37503   9.995   4.107  10.702  0.3833  0.5769 -0.3247
  997MOL0     C37504   9.889   4.195  10.741 -0.4348 -0.0521 -1.4837
  997MOL0     C37505   9.775   4.208  10.667 -0.3225  0.1419  0.3222
  997MOL0     C37506   9.773   4.153  10.541  0.0129  0.4709 -0.0862
  997MOL0     O37507   9.667   4.173  10.456 -0.7547 -0.1005 -0.1263
  997MOL0     C37508   9.559   4.078  10.467 -0.3937  0.6091 -0.0861
  997MOL0     C37509   9.472   4.095  10.596  0.3861  0.2790  0.0067
  997MOL0     C37510   9.393   4.227  10.609 -0.3747 -1.0835  0.2051
  997MOL0     C37511   9.314   4.255  10.476 -0.0383 -0.4909 -0.2554
  997MOL0     C37512   9.233   4.376  10.496 -0.5238 -0.2146 -0.7569
  997MOL0     C37513   9.192   4.485  10.513  0.5826  0.0250 -0.4373
  997MOL0     C37514   9.879   4.078  10.495  0.2083  0.4623 -1.1755
  997MOL0     C37515   9.991   4.054  10.579 -0.7272 -0.6023 -0.1559
  997MOL0     C37516  10.101   3.971  10.519  0.8727  0.4628  1.2040
  997MOL0     H37517  10.079   4.182  11.163  0.1595  0.1517  1.3681
  997MOL0     H37518  10.230   4.175  11.334  0.0134  0.4260  0.0675
  997MOL0     H37519  10.687   4.132  11.358  0.2090  0.0295 -1.4132
  997MOL0     H37520  10.622   4.031  11.238  1.3146 -0.1018  0.4518
  997MOL0     H37521  10.520   4.078  11.525 -1.0389 -1.1956  1.4033
  997MOL0     H37522  10.421   3.993  11.415  0.5171 -1.6702  0.0765
  997MOL0     H37523  10.642   3.843  11.388 -1.1409  0.9726 -1.4271
  997MOL0     H37524  10.698   3.924  11.520  1.2731 -2.0996 -0.5203
  997MOL0     H37525  10.439   3.774  11.538 -1.0504  3.0710 -0.1006
  997MOL0     H37526  10.591   3.716  11.614  1.1559  1.8816  0.9240
  997MOL0     H37527  10.453   3.960  11.704  0.5436  0.9415 -1.3823
  997MOL0     H37528  10.625   3.930  11.732  0.0996  1.0340 -0.9918
  997MOL0     H37529  10.406   3.725  11.808  1.0395 -1.8469 -0.5014
  997MOL0     H37530  10.571   3.701  11.832 -2.4398 -2.6892  0.4548
  997MOL0     H37531  10.427   3.787  12.033 -1.8252  0.8985 -2.3135
  997MOL0     H37532  10.421   3.939  11.959 -3.4650 -1.5967  0.5310
  997MOL0     H37533  10.686   3.939  11.961  3.5862 -2.4201  0.9770
  997MOL0     H37534  10.606   3.949  12.112 -0.5296  1.4209 -0.5129
  997MOL0     H37535  10.554   3.633  12.185 -0.1228  1.3556  0.7588
  997MOL0     H37536  10.702   3.365  12.157 -4.2406  2.4805  0.6101
  997MOL0     H37537  10.703   3.457  12.310 -2.0327  0.4152 -1.2280
  997MOL0     H37538  10.959   3.453  12.308 -0.0451 -0.0457  0.5646
  997MOL0     H37539  10.875   3.296  12.333  0.5552 -0.6772 -0.2954
  997MOL0     H37540  10.926   3.242  12.085 -0.0028 -1.6038  1.0761
  997MOL0     H37541  11.017   3.395  12.096  0.1557  0.3440  2.0465
  997MOL0     H37542  11.168   3.309  12.266  2.8373 -1.1698 -1.9502
  997MOL0     H37543  11.061   3.172  12.309 -1.4037  1.2473  1.1996
  997MOL0     H37544  11.321   3.011  12.251  0.5577 -1.2408 -2.1764
  997MOL0     H37545  11.518   2.948  12.364 -0.0895 -1.2602 -1.0551
  997MOL0     H37546  11.678   3.028  12.349 -0.1064  2.5317 -1.5670
  997MOL0     H37547  11.639   2.906  12.244 -1.0393 -0.2048 -0.2720
  997MOL0     H37548  11.931   3.147  12.385  0.4066  1.8404  0.9689
  997MOL0     H37549  12.181   3.133  12.406  2.4120  0.8427  0.1878
  997MOL0     H37550  12.492   3.115  12.128 -0.0539 -0.0700  2.3768
  997MOL0     H37551  12.419   3.258  12.054  2.0679  1.0977 -0.3354
  997MOL0     H37552  12.569   3.259  12.306 -4.8935  0.9165  1.6471
  997MOL0     H37553  12.629   3.294  12.137 -0.1322  0.4496  0.3544
  997MOL0     H37554  12.391   3.455  12.253 -0.2036 -1.4352  0.5635
  997MOL0     H37555  12.493   3.487  12.112  1.9906  2.0107  0.3435
  997MOL0     H37556  12.574   3.494  12.397 -0.1049 -1.3205 -1.1705
  997MOL0     H37557  12.550   3.638  12.285  2.3505  1.3406 -1.4044
  997MOL0     H37558  12.780   3.442  12.271  2.2982  1.2528 -2.7594
  997MOL0     H37559  12.739   3.564  12.154 -0.8619 -0.5202 -1.1485
  997MOL0     H37560  12.770   3.632  12.450 -0.0411 -1.9279 -0.8629
  997MOL0     H37561  12.788   3.732  12.316  2.0122  0.6260  0.5593
  997MOL0     H37562  12.999   3.585  12.246 -1.5790 -1.0165 -0.4069
  997MOL0     H37563  12.981   3.535  12.415 -0.8132  2.1660  1.1556
  997MOL0     H37564  13.014   3.749  12.497  0.0506  2.3181 -0.9272
  997MOL0     H37565  12.986   3.828  12.342  0.7625  1.3614 -0.8392
  997MOL0     H37566  12.230   3.345  12.043  1.1596  0.9532  0.0871
  997MOL0     H37567  11.977   3.354  12.016 -1.4255  0.5687  0.3411
  997MOL0     H37568  11.563   3.335  11.969  3.9013 -0.2746  1.9704
  997MOL0     H37569  11.314   3.321  11.969  1.2096  1.5866  0.9849
  997MOL0     H37570  10.556   4.149  11.040  0.3239 -4.2636  0.3551
  997MOL0     H37571  10.379   4.137  10.869 -1.1282 -0.7164 -0.5122
  997MOL0     H37572   9.896   4.243  10.839 -5.1975 -1.9983  0.0914
  997MOL0     H37573   9.693   4.266  10.706 -0.8510 -0.0009 -0.5546
  997MOL0     H37574   9.502   4.084  10.373  1.9038 -0.2504 -1.6332
  997MOL0     H37575   9.589   3.973  10.468  1.7341  1.1490 -1.3154
  997MOL0     H37576   9.541   4.072  10.678  1.6626 -1.3073 -1.4235
  997MOL0     H37577   9.389   4.023  10.600 -0.5937  1.2063 -2.2827
  997MOL0     H37578   9.327   4.228  10.696 -0.5800  0.7241  0.0701
  997MOL0     H37579   9.458   4.311  10.634 -0.0478 -1.7005  1.5088
  997MOL0     H37580   9.249   4.168  10.465  0.0825 -0.5567 -0.4572
  997MOL0     H37581   9.384   4.275  10.394 -1.0051 -0.0011 -0.9659
  997MOL0     H37582   9.159   4.586  10.511  0.7886  0.1670 -4.1579
  997MOL0     H37583   9.878   4.043  10.392  1.1138 -0.7033 -0.8041
  997MOL0     H37584  10.203   4.007  10.536  1.1826  1.5803 -2.2596
  997MOL0     H37585  10.086   3.867  10.552 -5.6725 -0.5651 -3.1534
  997MOL0     H37586  10.081   3.963  10.412  1.4278  1.2124  1.0324
  998MOL0     O37587   0.888   6.927   7.068 -0.0403 -0.8460  0.1349
  998MOL0     C37588   0.835   6.986   7.164  0.2526 -0.0881  0.6143
  998MOL0     O37589   0.894   6.996   7.285 -0.1293 -0.2726 -0.7092
  998MOL0     C37590   1.031   6.959   7.292  0.1476  0.1623  0.1813
  998MOL0     C37591   1.061   6.854   7.374 -0.3530 -0.4173  0.7301
  998MOL0     C37592   1.190   6.814   7.409 -0.4860 -0.2290  0.4470
  998MOL0     C37593   1.298   6.891   7.356 -0.1603 -0.1752 -0.2716
  998MOL0     O37594   1.421   6.854   7.406 -0.1242  0.0832 -0.3223
  998MOL0     C37595   1.532   6.915   7.350  0.3584 -0.0996  0.2907
  998MOL0     C37596   1.654   6.836   7.393  0.2973 -0.0847 -0.3328
  998MOL0     C37597   1.694   6.877   7.536 -0.4416 -0.2108 -0.2920
  998MOL0     C37598   1.822   6.807   7.590  0.5762 -0.2865  0.5201
  998MOL0     C37599   1.921   6.907   7.662 -0.3506 -0.2066 -0.0184
  998MOL0     C37600   2.066   6.858   7.662 -0.8516  0.3954 -0.4693
  998MOL0     C37601   2.160   6.934   7.759 -0.6864 -0.2127  0.5083
  998MOL0     C37602   2.143   6.906   7.907  0.7046 -0.0163  0.5257
  998MOL0     N37603   2.237   6.989   7.978  0.0600 -0.1651  0.3026
  998MOL0     C37604   2.211   7.103   8.041  0.4064  0.2557 -0.4315
  998MOL0     C37605   2.333   7.156   8.074 -0.4000  0.5207 -0.1351
  998MOL0     C37606   2.379   7.288   8.132  0.5278 -0.1883  0.5712
  998MOL0     C37607   2.312   7.408   8.070  0.1685 -0.3191  0.1194
  998MOL0     C37608   2.375   7.539   8.095  0.3350  0.2852  0.7163
  998MOL0     C37609   2.510   7.558   8.029  0.4607 -0.3039  0.4673
  998MOL0     O37610   2.616   7.497   8.115  0.3578 -0.9935  0.2626
  998MOL0     C37611   2.741   7.540   8.096  0.1843  0.4143 -0.2782
  998MOL0     C37612   2.843   7.454   8.143  0.0761  0.5769  0.2684
  998MOL0     C37613   2.980   7.492   8.135  0.4767  0.9629  0.2919
  998MOL0     C37614   3.080   7.388   8.166 -0.4190  1.0182 -0.3136
  998MOL0     C37615   3.021   7.618   8.086  0.1157 -0.5688 -0.2937
  998MOL0     C37616   3.165   7.668   8.060 -0.2118 -0.0416 -0.3199
  998MOL0     O37617   3.180   7.790   8.007 -1.1487 -0.3014 -0.1051
  998MOL0     C37618   3.299   7.836   7.960 -0.1518 -0.4504  0.0151
  998MOL0     C37619   3.388   7.883   8.059 -0.8211 -0.7614  0.7412
  998MOL0     C37620   3.516   7.942   8.034 -0.3416  0.2964  0.6007
  998MOL0     C37621   3.554   7.956   7.904 -0.6985  0.7286  0.0282
  998MOL0     O37622   3.675   8.008   7.865  0.2923 -0.0834  0.8342
  998MOL0     C37623   3.781   8.002   7.954 -0.0071  0.3559 -0.2126
  998MOL0     C37624   3.929   8.005   7.898  0.4951 -0.3541  0.1264
  998MOL0     C37625   4.034   8.007   8.017 -0.2435 -0.5124  0.2139
  998MOL0     C37626   4.181   7.984   7.971  0.1768 -0.4785  0.4571
  998MOL0     C37627   4.244   8.092   7.884  0.7109 -0.1591 -0.6566
  998MOL0     C37628   4.389   8.067   7.861 -0.2014 -0.0791  0.2391
  998MOL0     C37629   4.451   8.187   7.782 -0.0627  0.8115  0.1457
  998MOL0     C37630   4.577   8.152   7.708  0.4327  0.9715 -0.0232
  998MOL0    Cl37631   4.686   8.076   7.816 -0.0106 -0.3581  0.6518
  998MOL0     C37632   3.468   7.909   7.802  0.1181  0.9873 -0.1268
  998MOL0     C37633   3.342   7.849   7.832 -0.5028  0.7426 -0.4008
  998MOL0     O37634   3.256   7.588   8.072 -0.1822  1.0634  0.7511
  998MOL0     C37635   2.917   7.701   8.040  0.1854  0.2503  0.1163
  998MOL0     C37636   2.784   7.669   8.055  0.7066 -0.2259 -0.0763
  998MOL0     N37637   2.433   7.080   8.010 -0.6391  0.4870  0.9320
  998MOL0     N37638   2.370   6.981   7.961 -0.3294  0.1263  0.0753
  998MOL0     C37639   1.266   6.986   7.257 -1.0577 -0.5006 -0.7689
  998MOL0     C37640   1.137   7.023   7.227 -0.5624 -0.4708 -0.8911
  998MOL0     C37641   0.693   7.031   7.130  0.3897  0.3717 -0.8224
  998MOL0     C37642   0.590   6.951   7.193 -0.2084  0.1963 -0.4546
  998MOL0     C37643   0.461   6.978   7.166 -0.0878  0.1131 -0.2448
  998MOL0     C37644   0.421   7.073   7.068  0.5355  0.0826  0.7300
  998MOL0     O37645   0.289   7.100   7.033 -0.5107  0.1327 -0.8432
  998MOL0     C37646   0.179   7.020   7.094  0.9413 -0.2517 -0.5666
  998MOL0     C37647   0.053   7.117   7.096  0.6401 -0.1688  0.5373
  998MOL0     C37648  -0.082   7.044   7.137  0.1262 -0.7228 -0.1516
  998MOL0     C37649  -0.124   6.931   7.046  0.3733 -0.0049  0.5567
  998MOL0     C37650  -0.270   6.908   7.058  0.4901  0.2144 -0.0751
  998MOL0     C37651  -0.387   6.888   7.064 -0.6862 -0.2126 -0.2021
  998MOL0     C37652   0.514   7.154   7.007 -0.8021  0.0127 -0.2331
  998MOL0     C37653   0.650   7.136   7.039 -0.4100 -0.0554  0.6442
  998MOL0     C37654   0.760   7.231   6.988  0.3639  0.5267 -0.4327
  998MOL0     H37655   0.975   6.802   7.415  0.5786 -0.7302  2.3482
  998MOL0     H37656   1.217   6.727   7.469 -1.3398 -1.3955 -0.8124
  998MOL0     H37657   1.548   7.021   7.370 -2.2724 -0.0381  2.4478
  998MOL0     H37658   1.525   6.904   7.241 -1.5547  0.3155  0.3549
  998MOL0     H37659   1.632   6.730   7.372 -1.2103  0.4268 -1.5369
  998MOL0     H37660   1.736   6.865   7.326 -1.3831  2.5972 -1.3744
  998MOL0     H37661   1.718   6.983   7.535 -0.3516 -0.2237 -1.7159
  998MOL0     H37662   1.614   6.850   7.606  2.1538  0.8380  3.3500
  998MOL0     H37663   1.797   6.727   7.659  0.9401 -0.3810  0.5447
  998MOL0     H37664   1.874   6.762   7.505 -1.2382 -0.9195 -0.3114
  998MOL0     H37665   1.893   6.923   7.766  0.8140 -0.8269  0.4068
  998MOL0     H37666   1.921   7.003   7.610  1.5206 -1.1215 -1.8632
  998MOL0     H37667   2.072   6.755   7.698  2.9264  1.6077  3.0775
  998MOL0     H37668   2.107   6.866   7.561 -0.4380 -0.5120 -0.3836
  998MOL0     H37669   2.161   7.043   7.751  0.3980 -0.1877  0.7599
  998MOL0     H37670   2.257   6.906   7.718 -0.0595 -0.6584  2.2107
  998MOL0     H37671   2.039   6.928   7.933  0.2361  1.0366 -1.9091
  998MOL0     H37672   2.163   6.802   7.932 -2.7987 -0.6946  0.9782
  998MOL0     H37673   2.117   7.157   8.044  0.0287 -0.3476 -1.0745
  998MOL0     H37674   2.488   7.288   8.133  0.5359  0.4242  0.3514
  998MOL0     H37675   2.342   7.294   8.234 -2.9080 -1.2187 -0.4487
  998MOL0     H37676   2.304   7.390   7.963  2.2034  0.5461 -0.2057
  998MOL0     H37677   2.214   7.406   8.119 -0.6885 -0.3882 -1.5507
  998MOL0     H37678   2.311   7.616   8.053 -0.9728 -2.2752 -2.3865
  998MOL0     H37679   2.376   7.560   8.203 -2.1461 -0.3789  0.9062
  998MOL0     H37680   2.509   7.505   7.934  0.1790 -0.9524  0.8233
  998MOL0     H37681   2.523   7.664   8.010 -0.0040  0.4137  3.5287
  998MOL0     H37682   2.822   7.351   8.172 -1.0868  0.4149 -1.0510
  998MOL0     H37683   3.044   7.298   8.217 -0.4423  1.4836  0.5133
  998MOL0     H37684   3.153   7.439   8.230  0.8852  0.0439 -0.9938
  998MOL0     H37685   3.130   7.352   8.076 -1.2412 -0.2089 -0.2904
  998MOL0     H37686   3.359   7.871   8.163 -1.8853  2.6663  0.9810
  998MOL0     H37687   3.572   7.967   8.124  0.4133 -1.5991  0.6881
  998MOL0     H37688   3.769   8.084   8.026  1.3623  0.2374  0.1760
  998MOL0     H37689   3.775   7.907   8.010  1.2794 -0.4138 -1.3310
  998MOL0     H37690   3.934   7.917   7.833 -4.0173 -0.1752 -0.7816
  998MOL0     H37691   3.937   8.096   7.838  0.5995  0.4036  1.2576
  998MOL0     H37692   4.020   7.921   8.082 -0.2786  0.7739  1.9794
  998MOL0     H37693   4.038   8.095   8.081  4.9660 -1.6314  1.9055
  998MOL0     H37694   4.188   7.896   7.907  0.6334  0.6155 -1.0572
  998MOL0     H37695   4.234   7.962   8.064 -2.0972 -0.8119  1.7400
  998MOL0     H37696   4.189   8.102   7.790  1.8328 -2.1960 -1.6028
  998MOL0     H37697   4.229   8.187   7.937  1.6703 -0.7552  0.7251
  998MOL0     H37698   4.410   7.973   7.810 -0.0753 -0.4382  0.9325
  998MOL0     H37699   4.436   8.060   7.960  1.2143  2.4866 -0.1535
  998MOL0     H37700   4.476   8.269   7.850  1.7254  0.6070 -0.2216
  998MOL0     H37701   4.366   8.221   7.722 -1.3265  1.0802  1.9948
  998MOL0     H37702   4.622   8.244   7.669  2.6083  0.2005  0.5195
  998MOL0     H37703   4.543   8.093   7.623  0.1051  0.3041  0.5624
  998MOL0     H37704   3.495   7.922   7.698 -1.4146  1.0765 -0.5395
  998MOL0     H37705   3.281   7.814   7.749 -0.5536  1.1799 -0.5526
  998MOL0     H37706   2.946   7.789   7.984  1.0635 -0.8932 -1.2927
  998MOL0     H37707   2.715   7.740   8.011 -1.0251 -1.6363  0.2360
  998MOL0     H37708   1.341   7.052   7.216  2.4259 -3.7834 -0.2457
  998MOL0     H37709   1.122   7.106   7.159 -3.0037  0.0284  0.1684
  998MOL0     H37710   0.617   6.873   7.263  0.4112  0.2855 -0.5871
  998MOL0     H37711   0.391   6.909   7.213  0.9040 -0.8061 -0.0832
  998MOL0     H37712   0.163   6.943   7.018  0.9336 -0.4379 -0.3778
  998MOL0     H37713   0.202   6.970   7.189  1.7876 -0.8327 -1.0620
  998MOL0     H37714   0.033   7.146   6.992  0.0954 -2.0797  0.0599
  998MOL0     H37715   0.070   7.208   7.155 -1.8080  1.3856 -0.9700
  998MOL0     H37716  -0.067   7.022   7.243  2.7114 -0.0297 -0.3011
  998MOL0     H37717  -0.171   7.109   7.137  0.5086 -0.1406 -1.6747
  998MOL0     H37718  -0.081   6.834   7.073 -0.6932 -0.4467  0.6949
  998MOL0     H37719  -0.095   6.945   6.942 -0.6134 -2.4864 -0.1124
  998MOL0     H37720  -0.492   6.873   7.075 -1.2888  2.1443 -1.8757
  998MOL0     H37721   0.479   7.238   6.948  1.7082  1.4160  0.1706
  998MOL0     H37722   0.736   7.311   6.917 -2.5885  2.2015  2.2250
  998MOL0     H37723   0.804   7.290   7.069 -1.5976  2.1094 -0.4479
  998MOL0     H37724   0.837   7.166   6.944  2.1786 -0.0968  3.2551
  999MOL0     O37725   6.474   9.881   3.303  0.4994  0.0263 -0.1110
  999MOL0     C37726   6.453   9.872   3.180 -0.5993  0.7798 -1.1888
  999MOL0     O37727   6.544   9.833   3.091  0.1946 -0.2154  0.2931
  999MOL0     C37728   6.678   9.836   3.124 -0.5947 -0.1435 -0.0931
  999MOL0     C37729   6.736   9.956   3.155 -0.5310 -0.0399  1.0222
  999MOL0     C37730   6.874   9.966   3.190  1.4382  0.3634 -0.6428
  999MOL0     C37731   6.950   9.852   3.215  0.0712  0.2967  0.0489
  999MOL0     O37732   7.081   9.877   3.243 -0.5086  0.6181  0.0508
  999MOL0     C37733   7.178   9.781   3.199  0.0913 -0.5484 -0.6135
  999MOL0     C37734   7.314   9.812   3.262 -0.2564  0.1406 -0.2623
  999MOL0     C37735   7.309   9.845   3.412 -1.2059  1.2366  0.2286
  999MOL0     C37736   7.455   9.883   3.449  0.2057 -0.1438  0.1772
  999MOL0     C37737   7.459   9.927   3.593 -0.2664  0.1286  0.3621
  999MOL0     C37738   7.603   9.942   3.635  0.2167  0.4410  0.1409
  999MOL0     C37739   7.667   9.805   3.672 -0.4024 -0.4604 -0.3954
  999MOL0     C37740   7.806   9.822   3.737 -0.6796  0.5837  0.1882
  999MOL0     N37741   7.903   9.708   3.720  0.5289 -1.0298  0.2812
  999MOL0     C37742   7.891   9.588   3.794  0.4754  0.1330 -0.5977
  999MOL0     C37743   8.001   9.522   3.759  0.5031  0.0320 -0.7532
  999MOL0     C37744   8.041   9.389   3.833  0.9194  0.0460 -0.2593
  999MOL0     C37745   8.087   9.285   3.721  0.0984 -0.2088  0.6497
  999MOL0     C37746   8.143   9.153   3.778 -0.5542  0.2453  0.0453
  999MOL0     C37747   8.224   9.078   3.672 -0.0529 -0.5593 -0.0301
  999MOL0     O37748   8.351   9.133   3.658  0.1875  0.9702 -0.0989
  999MOL0     C37749   8.441   9.067   3.570  0.1082 -0.8204  0.1248
  999MOL0     C37750   8.406   8.970   3.483  0.2432 -0.3337 -0.0296
  999MOL0     C37751   8.508   8.899   3.418 -0.5014  0.1620 -0.1448
  999MOL0     C37752   8.457   8.795   3.311  0.6942 -0.1661  0.1270
  999MOL0     C37753   8.646   8.925   3.438  0.1168 -0.5692 -0.9619
  999MOL0     C37754   8.768   8.853   3.375  0.0097  0.2445 -0.0981
  999MOL0     O37755   8.885   8.891   3.422 -0.2487  0.1201  0.3413
  999MOL0     C37756   8.995   8.877   3.338 -0.5410  0.3000 -0.1678
  999MOL0     C37757   9.049   8.754   3.285 -0.0371  0.3308 -0.2380
  999MOL0     C37758   9.170   8.758   3.214  0.4162 -0.3780 -0.3432
  999MOL0     C37759   9.245   8.877   3.215 -0.1159 -0.5592 -0.8813
  999MOL0     O37760   9.364   8.907   3.150 -0.3098 -0.4742 -0.5114
  999MOL0     C37761   9.401   8.811   3.046  0.1641  0.4856 -0.7264
  999MOL0     C37762   9.531   8.853   2.980  0.5043  0.4847 -0.2384
  999MOL0     C37763   9.566   8.764   2.866 -0.0944  0.2946  0.6203
  999MOL0     C37764   9.472   8.781   2.750 -0.2092  0.0119 -0.0601
  999MOL0     C37765   9.532   8.712   2.624 -0.2111 -0.9957 -0.7405
  999MOL0     C37766   9.431   8.724   2.506 -0.8939 -0.2947 -0.4559
  999MOL0     C37767   9.481   8.705   2.361 -0.2127  0.4834  0.1553
  999MOL0     C37768   9.568   8.583   2.341 -0.4657 -0.1757 -0.1825
  999MOL0    Cl37769   9.588   8.562   2.165 -0.0282 -0.1333  0.0819
  999MOL0     C37770   9.193   8.998   3.256  0.3054  0.4232 -0.3263
  999MOL0     C37771   9.066   8.995   3.320 -0.1242 -0.0069 -0.4501
  999MOL0     O37772   8.753   8.778   3.281  0.1478 -0.0856  0.3344
  999MOL0     C37773   8.670   9.044   3.516 -0.3417  0.6092  0.2767
  999MOL0     C37774   8.572   9.103   3.592 -0.0925  0.3007  0.0224
  999MOL0     N37775   8.074   9.594   3.667 -0.2768  0.3668 -0.0592
  999MOL0     N37776   8.014   9.703   3.646 -0.1510  0.6389 -0.3095
  999MOL0     C37777   6.889   9.722   3.180  0.1648 -0.1075 -0.7449
  999MOL0     C37778   6.755   9.716   3.134  0.6343  0.2113  0.2413
  999MOL0     C37779   6.314   9.888   3.132  0.2644 -0.0697 -0.3105
  999MOL0     C37780   6.208   9.904   3.228 -0.9967  1.0731 -0.1586
  999MOL0     C37781   6.072   9.926   3.194 -0.5548  0.6332 -0.2008
  999MOL0     C37782   6.031   9.919   3.060  0.0296  0.0765  0.4282
  999MOL0     O37783   5.896   9.929   3.037  0.5399  0.6241 -0.2162
  999MOL0     C37784   5.851   9.906   2.903  0.5591  0.6701 -0.4131
  999MOL0     C37785   5.701   9.889   2.903 -0.0954  0.3401 -0.5556
  999MOL0     C37786   5.626  10.009   2.941 -0.2595 -0.7511 -0.6114
  999MOL0     C37787   5.590  10.106   2.828  0.2588 -0.6627  0.3709
  999MOL0     C37788   5.706  10.162   2.756  0.0424  0.5520 -0.3247
  999MOL0     C37789   5.802  10.213   2.704 -0.7618 -0.2871  0.2520
  999MOL0     C37790   6.135   9.911   2.966 -0.3992 -0.3443  0.0833
  999MOL0     C37791   6.271   9.897   2.996  0.2375  1.0161  0.7874
  999MOL0     C37792   6.372   9.912   2.886 -0.3820 -0.2436  0.3616
  999MOL0     H37793   6.678  10.048   3.157 -0.7003 -0.1108  3.6231
  999MOL0     H37794   6.924  10.061   3.208  0.7878  0.2276  2.5479
  999MOL0     H37795   7.179   9.801   3.092  0.0659  2.4147 -0.1427
  999MOL0     H37796   7.158   9.677   3.228 -0.1722 -0.1957  0.5360
  999MOL0     H37797   7.376   9.727   3.234  0.2650  0.7567 -1.0128
  999MOL0     H37798   7.345   9.905   3.214 -0.6977  0.7732  0.6464
  999MOL0     H37799   7.240   9.925   3.441 -1.7257  0.6096  0.7618
  999MOL0     H37800   7.276   9.753   3.462 -1.2440  1.6521  0.9827
  999MOL0     H37801   7.528   9.806   3.422 -0.0305  0.4893 -2.6254
  999MOL0     H37802   7.483   9.971   3.390 -0.6746  1.9371  2.6883
  999MOL0     H37803   7.416   9.847   3.654 -2.0835 -1.7101 -2.9865
  999MOL0     H37804   7.420  10.029   3.601  2.6233  1.1853  1.9757
  999MOL0     H37805   7.650   9.991   3.549 -0.5080 -1.2117 -1.2819
  999MOL0     H37806   7.599  10.018   3.713 -1.4348  3.1030 -2.3312
  999MOL0     H37807   7.679   9.732   3.591 -1.2525 -1.2751  0.1970
  999MOL0     H37808   7.606   9.760   3.751  0.7622 -1.3625  0.0315
  999MOL0     H37809   7.851   9.916   3.705 -0.8298  0.9318  0.9865
  999MOL0     H37810   7.795   9.836   3.845  1.0835 -2.3346  0.8679
  999MOL0     H37811   7.815   9.550   3.862 -0.2166 -1.4248 -2.1574
  999MOL0     H37812   7.947   9.356   3.879 -0.0841 -0.2176 -2.3968
  999MOL0     H37813   8.125   9.400   3.902  0.9870  0.6207 -0.4265
  999MOL0     H37814   8.009   9.286   3.644  2.8907  3.6904 -2.5904
  999MOL0     H37815   8.164   9.331   3.658 -1.9870  0.6246 -1.4710
  999MOL0     H37816   8.209   9.172   3.863 -0.6810  0.9587 -0.0134
  999MOL0     H37817   8.065   9.095   3.826 -0.2156  0.3842  0.7784
  999MOL0     H37818   8.243   8.972   3.694 -0.6563 -0.2902  1.9417
  999MOL0     H37819   8.169   9.092   3.578 -1.2597  4.5696  1.1845
  999MOL0     H37820   8.299   8.959   3.471 -0.0729  0.5415  1.6710
  999MOL0     H37821   8.491   8.829   3.213 -0.8652  4.5067  0.9408
  999MOL0     H37822   8.348   8.785   3.311  0.5516 -0.2450 -3.7983
  999MOL0     H37823   8.502   8.699   3.338  0.5231  0.3071  2.2722
  999MOL0     H37824   8.987   8.665   3.295 -2.9436  2.4347  2.5043
  999MOL0     H37825   9.222   8.673   3.172 -2.0045 -2.3591  0.4200
  999MOL0     H37826   9.407   8.711   3.090 -1.8494  0.7147  0.1696
  999MOL0     H37827   9.327   8.816   2.966  0.2915 -0.6457 -0.9237
  999MOL0     H37828   9.535   8.959   2.951  0.6098  0.2054 -1.2864
  999MOL0     H37829   9.610   8.828   3.051  1.8802  0.0379 -1.8697
  999MOL0     H37830   9.579   8.660   2.898 -1.7459 -0.0943  0.1259
  999MOL0     H37831   9.659   8.804   2.824  0.8833  0.2735  2.6329
  999MOL0     H37832   9.468   8.889   2.730  2.8045 -0.0358 -1.4049
  999MOL0     H37833   9.378   8.731   2.775  0.0942 -0.5253  0.0210
  999MOL0     H37834   9.626   8.760   2.595  0.0595 -1.0859 -0.0204
  999MOL0     H37835   9.542   8.606   2.650  0.2992 -1.4991 -2.8325
  999MOL0     H37836   9.385   8.823   2.494 -0.2102  0.3867  2.0525
  999MOL0     H37837   9.359   8.643   2.519  1.1969 -2.2593 -0.6003
  999MOL0     H37838   9.524   8.797   2.320 -2.6066  1.0392 -1.3195
  999MOL0     H37839   9.395   8.699   2.295 -0.5587 -1.8212  0.7303
  999MOL0     H37840   9.523   8.495   2.389  0.9260  0.3468  2.2239
  999MOL0     H37841   9.663   8.593   2.394 -1.0579  0.3580  0.7983
  999MOL0     H37842   9.235   9.097   3.249 -1.8580  1.6902  2.6663
  999MOL0     H37843   9.025   9.090   3.353  1.6579 -0.1647  2.6807
  999MOL0     H37844   8.763   9.096   3.531 -0.6721  0.9100  1.3717
  999MOL0     H37845   8.603   9.179   3.662 -1.5349  1.8693 -0.9483
  999MOL0     H37846   6.946   9.631   3.197 -2.4580 -1.7547 -0.1780
  999MOL0     H37847   6.693   9.627   3.125  0.9419  0.1218 -1.1304
  999MOL0     H37848   6.239   9.911   3.332  3.5866  2.5427 -1.3961
  999MOL0     H37849   5.998   9.928   3.273 -0.2264 -0.7257  0.1729
  999MOL0     H37850   5.877   9.991   2.839 -0.4874  1.8413  0.6571
  999MOL0     H37851   5.894   9.813   2.864  2.9497  1.5755 -0.0886
  999MOL0     H37852   5.677   9.808   2.973  1.6002  0.0197 -0.2999
  999MOL0     H37853   5.664   9.859   2.805 -2.5695 -0.0899  0.4453
  999MOL0     H37854   5.526   9.980   2.976  0.4296 -0.0577  2.2048
  999MOL0     H37855   5.679  10.065   3.018  0.7890  1.1062 -2.5665
  999MOL0     H37856   5.528  10.188   2.868  0.8632  1.2875 -2.3950
  999MOL0     H37857   5.525  10.049   2.761 -0.9078 -0.1111  0.9911
  999MOL0     H37858   5.885  10.264   2.661  0.3492 -1.9264  0.3603
  999MOL0     H37859   6.118   9.939   2.863  0.6788  0.6665  0.1585
  999MOL0     H37860   6.332   9.934   2.786  0.7517  0.3323  0.0188
  999MOL0     H37861   6.445   9.993   2.897  0.8835 -1.0112 -1.7445
  999MOL0     H37862   6.425   9.816   2.879 -1.4321 -0.7254 -2.1111
 1000MOL0     O37863   9.027   2.557   0.631  0.2709 -0.0378  0.1461
 1000MOL0     C37864   9.068   2.543   0.745 -0.1380  0.1335  0.1273
 1000MOL0     O37865   9.201   2.547   0.789  0.3091 -0.2604 -0.1159
 1000MOL0     C37866   9.310   2.547   0.703 -0.2448  0.4551  0.2225
 1000MOL0     C37867   9.320   2.524   0.563 -0.5704  0.0268 -0.6519
 1000MOL0     C37868   9.449   2.529   0.507 -0.6516  0.3490  0.7443
 1000MOL0     C37869   9.561   2.553   0.581 -0.7876  0.0108  0.0006
 1000MOL0     O37870   9.684   2.559   0.512  0.2153 -0.4700 -0.1682
 1000MOL0     C37871   9.802   2.609   0.575  0.0899 -0.2183 -0.2975
 1000MOL0     C37872   9.891   2.654   0.458 -0.5896  0.3812  0.5925
 1000MOL0     C37873  10.029   2.706   0.507  0.2967  0.4310 -0.1064
 1000MOL0     C37874  10.109   2.586   0.562 -0.1442 -0.3800 -0.7311
 1000MOL0     C37875  10.251   2.623   0.609  0.3545  1.0454  0.1790
 1000MOL0     C37876  10.341   2.679   0.501 -0.8150 -0.4621  0.0840
 1000MOL0     C37877  10.494   2.691   0.543  0.3881  0.1293 -0.1659
 1000MOL0     C37878  10.519   2.821   0.620 -0.3624 -0.2138 -0.2323
 1000MOL0     N37879  10.660   2.854   0.657  0.2846 -0.1164  0.0776
 1000MOL0     C37880  10.734   2.784   0.747  0.8733  0.2887 -0.3419
 1000MOL0     C37881  10.830   2.872   0.787 -0.2796  0.9489 -0.4485
 1000MOL0     C37882  10.934   2.858   0.902  0.3634  0.1896  0.7946
 1000MOL0     C37883  11.071   2.832   0.848 -0.3427  0.0864  0.0901
 1000MOL0     C37884  11.110   2.690   0.811 -0.0201 -0.4027 -0.8969
 1000MOL0     C37885  11.249   2.682   0.744  0.1164 -1.2232  0.2199
 1000MOL0     O37886  11.349   2.674   0.846  0.4089 -0.2234  0.0409
 1000MOL0     C37887  11.479   2.659   0.814  0.3965 -0.5311 -0.3810
 1000MOL0     C37888  11.557   2.615   0.915 -0.0954 -0.5593 -0.7806
 1000MOL0     C37889  11.691   2.604   0.900 -0.3344  0.0908  0.4158
 1000MOL0     C37890  11.763   2.567   1.019  0.4936  0.0866  0.1656
 1000MOL0     C37891  11.748   2.634   0.773 -0.4122 -0.1261  0.1412
 1000MOL0     C37892  11.899   2.632   0.747 -0.2208  0.1721  0.5130
 1000MOL0     O37893  11.992   2.611   0.841 -0.3042  0.6363 -0.0004
 1000MOL0     C37894  12.119   2.661   0.830  0.6726  0.0952  0.8786
 1000MOL0     C37895  12.227   2.577   0.833  0.4445 -0.4752 -0.1394
 1000MOL0     C37896  12.357   2.630   0.832  0.4757  0.0094 -0.0469
 1000MOL0     C37897  12.370   2.772   0.823 -0.7738  0.1249 -0.8699
 1000MOL0     O37898  12.485   2.851   0.839  0.1267  0.8316  0.0438
 1000MOL0     C37899  12.592   2.779   0.915  0.2200  0.2583  0.8926
 1000MOL0     C37900  12.702   2.875   0.940 -0.1594  0.4503 -0.5702
 1000MOL0     C37901  12.645   2.981   1.035  0.6735 -0.5391 -0.5248
 1000MOL0     C37902  12.750   3.080   1.083 -0.8348  0.2278  0.2167
 1000MOL0     C37903  12.715   3.163   1.207  0.2363  0.8235  1.1081
 1000MOL0     C37904  12.826   3.255   1.253 -0.0459 -0.7509 -0.7330
 1000MOL0     C37905  12.773   3.327   1.381  0.0285  0.4869 -0.2282
 1000MOL0     C37906  12.860   3.442   1.424  0.4157 -0.5956  0.3516
 1000MOL0    Cl37907  13.028   3.390   1.462  0.0661 -0.3912  0.4413
 1000MOL0     C37908  12.261   2.855   0.804 -0.3629  0.5480 -0.3144
 1000MOL0     C37909  12.132   2.800   0.806  1.0901 -0.0586 -0.3600
 1000MOL0     O37910  11.926   2.641   0.631 -0.0148 -0.3186  0.5313
 1000MOL0     C37911  11.668   2.679   0.671 -0.2891  0.1560  0.5039
 1000MOL0     C37912  11.529   2.673   0.692 -0.4181  0.1435  0.1020
 1000MOL0     N37913  10.814   2.987   0.718  0.2174 -0.0103  0.6994
 1000MOL0     N37914  10.717   2.980   0.633 -0.4056 -0.1765 -0.0944
 1000MOL0     C37915   9.549   2.592   0.715 -0.3069 -0.2774  0.6961
 1000MOL0     C37916   9.423   2.578   0.771  0.4307 -0.7265  0.1140
 1000MOL0     C37917   8.965   2.521   0.847 -0.0017 -0.3129 -0.1809
 1000MOL0     C37918   8.837   2.582   0.841  1.0572  0.2629 -0.8111
 1000MOL0     C37919   8.740   2.551   0.933  0.0803  0.1802 -0.1657
 1000MOL0     C37920   8.759   2.471   1.040 -0.4689  0.4912 -0.3194
 1000MOL0     O37921   8.658   2.457   1.138  0.0367  0.2501  0.3173
 1000MOL0     C37922   8.689   2.374   1.251  0.3013 -0.6211 -0.6382
 1000MOL0     C37923   8.572   2.365   1.362 -0.5064 -0.1140 -0.1900
 1000MOL0     C37924   8.498   2.494   1.368 -0.0703 -0.9972  0.5787
 1000MOL0     C37925   8.378   2.507   1.468  0.0053  0.1833  0.9493
 1000MOL0     C37926   8.254   2.446   1.431 -0.6521 -0.5924 -0.2746
 1000MOL0     C37927   8.151   2.414   1.382  1.2844 -0.1094 -0.2435
 1000MOL0     C37928   8.893   2.414   1.054  0.0579  0.7745 -0.1292
 1000MOL0     C37929   8.992   2.444   0.963  0.1244 -0.9978  0.0829
 1000MOL0     C37930   9.130   2.391   1.001  0.6965  0.7012 -0.5594
 1000MOL0     H37931   9.235   2.494   0.504 -1.0493 -2.3061  1.0563
 1000MOL0     H37932   9.456   2.504   0.401 -0.7009 -1.1886  1.0796
 1000MOL0     H37933   9.847   2.534   0.641  0.4793 -0.9979 -1.4184
 1000MOL0     H37934   9.783   2.704   0.626  2.8442  0.9381 -1.2214
 1000MOL0     H37935   9.897   2.572   0.386 -3.4310 -0.3903  1.1158
 1000MOL0     H37936   9.839   2.740   0.414  3.6665  3.2173  0.4899
 1000MOL0     H37937  10.073   2.750   0.417 -1.4773  2.2492 -0.1600
 1000MOL0     H37938  10.012   2.785   0.582 -1.1365 -0.1458  0.2070
 1000MOL0     H37939  10.060   2.523   0.637  1.7948 -0.7103  0.3416
 1000MOL0     H37940  10.122   2.515   0.480 -3.1835 -0.4621 -1.2355
 1000MOL0     H37941  10.293   2.530   0.647 -1.2153 -0.3942 -1.4478
 1000MOL0     H37942  10.246   2.695   0.692 -0.5246 -0.1361  1.1996
 1000MOL0     H37943  10.343   2.595   0.431 -0.2770 -1.2788  1.0534
 1000MOL0     H37944  10.310   2.778   0.468 -2.5706 -0.6360  1.0530
 1000MOL0     H37945  10.555   2.675   0.453 -0.9667  0.2520 -1.1387
 1000MOL0     H37946  10.511   2.608   0.611  0.0734  0.6511  0.5616
 1000MOL0     H37947  10.467   2.906   0.576  1.3098  0.1692 -1.5831
 1000MOL0     H37948  10.471   2.809   0.717  0.9193 -0.9287  0.3463
 1000MOL0     H37949  10.701   2.687   0.782 -0.8426  1.6548  2.0956
 1000MOL0     H37950  10.905   2.782   0.975 -1.8083  0.3869  0.2001
 1000MOL0     H37951  10.948   2.953   0.955  3.4817 -1.4534  3.2432
 1000MOL0     H37952  11.083   2.890   0.756 -0.7863 -0.3280 -0.2331
 1000MOL0     H37953  11.141   2.867   0.925 -1.9017  0.9744  1.1468
 1000MOL0     H37954  11.109   2.627   0.901  0.7160 -2.6148 -2.3513
 1000MOL0     H37955  11.026   2.653   0.753 -1.0604 -0.2731  0.4852
 1000MOL0     H37956  11.254   2.595   0.677  2.0491  1.2612 -3.2132
 1000MOL0     H37957  11.269   2.772   0.686 -0.3934 -1.6866 -0.6941
 1000MOL0     H37958  11.514   2.597   1.012  0.9871 -0.7094 -0.3102
 1000MOL0     H37959  11.829   2.481   1.004  0.0254 -0.0499 -1.2442
 1000MOL0     H37960  11.694   2.548   1.101  0.2808  2.1901  0.5159
 1000MOL0     H37961  11.824   2.651   1.054  0.7857 -0.6907  1.6003
 1000MOL0     H37962  12.199   2.472   0.828 -1.4948  0.0296 -1.0685
 1000MOL0     H37963  12.439   2.561   0.841 -0.3046 -0.9089  0.1625
 1000MOL0     H37964  12.558   2.733   1.008  0.2627 -1.1049  0.2493
 1000MOL0     H37965  12.634   2.698   0.856 -0.7271  0.8634 -0.6618
 1000MOL0     H37966  12.785   2.826   0.993 -1.3132  1.4855  2.4537
 1000MOL0     H37967  12.735   2.916   0.845  1.1501 -1.8015 -1.1568
 1000MOL0     H37968  12.598   2.934   1.122 -0.9830 -0.2398 -1.2092
 1000MOL0     H37969  12.556   3.029   0.993 -1.8403 -2.0889  2.5336
 1000MOL0     H37970  12.776   3.143   0.997  0.6769  0.4369  0.8139
 1000MOL0     H37971  12.840   3.026   1.111 -0.6658  0.8854  0.9877
 1000MOL0     H37972  12.621   3.209   1.178  1.2389  1.2253 -1.7917
 1000MOL0     H37973  12.705   3.073   1.269  2.5911 -0.7399 -0.5809
 1000MOL0     H37974  12.848   3.329   1.175  0.5906  0.6648  0.7426
 1000MOL0     H37975  12.917   3.197   1.274 -0.7754 -1.3526  0.8710
 1000MOL0     H37976  12.774   3.251   1.459  1.0038  0.8836  0.1536
 1000MOL0     H37977  12.671   3.363   1.367 -0.8177 -2.2120 -1.8480
 1000MOL0     H37978  12.818   3.484   1.516  1.1143 -1.1643  0.9429
 1000MOL0     H37979  12.848   3.518   1.347 -0.6523  0.4856  1.5276
 1000MOL0     H37980  12.281   2.958   0.778  3.4608  0.0472  0.0099
 1000MOL0     H37981  12.039   2.854   0.792 -0.5393 -1.5414  3.2727
 1000MOL0     H37982  11.713   2.716   0.579 -2.4298 -2.2408 -1.7044
 1000MOL0     H37983  11.477   2.695   0.599  1.3344 -0.9055 -1.1838
 1000MOL0     H37984   9.635   2.612   0.778  1.9047 -2.9793 -1.1611
 1000MOL0     H37985   9.404   2.605   0.874  1.4464  1.9038 -0.3148
 1000MOL0     H37986   8.814   2.644   0.754  2.2234 -0.1977 -1.4650
 1000MOL0     H37987   8.639   2.591   0.928 -0.1125 -0.0922  1.1821
 1000MOL0     H37988   8.731   2.276   1.231  1.3441 -0.5266  0.8758
 1000MOL0     H37989   8.766   2.423   1.311 -0.4481 -1.7217  1.3302
 1000MOL0     H37990   8.616   2.342   1.460  1.3774 -1.5300 -1.3150
 1000MOL0     H37991   8.494   2.289   1.350 -0.6041 -0.2363  1.0693
 1000MOL0     H37992   8.573   2.574   1.366  0.5181 -1.5456  0.3548
 1000MOL0     H37993   8.447   2.518   1.274 -0.1461  0.0513  0.8663
 1000MOL0     H37994   8.369   2.616   1.474  2.6693  0.6036 -0.7620
 1000MOL0     H37995   8.407   2.463   1.564 -0.6144 -0.6129  0.7752
 1000MOL0     H37996   8.056   2.377   1.348  0.8974  0.9033 -0.2930
 1000MOL0     H37997   8.921   2.353   1.139 -0.5029 -0.2572 -0.6627
 1000MOL0     H37998   9.208   2.463   1.028  1.0830 -0.3946  1.4531
 1000MOL0     H37999   9.129   2.336   1.095  2.1592  2.1120  0.3289
 1000MOL0     H38000   9.159   2.315   0.927 -2.7838 -0.3202 -1.0771
 1001MOL0     O38001   4.336   8.690   5.674 -0.5320 -0.1715  0.3657
 1001MOL0     C38002   4.326   8.574   5.635  0.3612 -0.5278 -0.9570
 1001MOL0     O38003   4.427   8.511   5.570 -0.6312  0.2081 -0.2018
 1001MOL0     C38004   4.543   8.578   5.529  0.6539  0.3478 -0.1544
 1001MOL0     C38005   4.643   8.490   5.477 -0.1280 -0.9092  0.6793
 1001MOL0     C38006   4.766   8.538   5.433 -0.1267  0.1975  0.5886
 1001MOL0     C38007   4.790   8.673   5.423 -0.2128  0.4549  0.3478
 1001MOL0     O38008   4.900   8.745   5.383 -0.1026  0.1326 -0.5317
 1001MOL0     C38009   4.967   8.676   5.279  0.8191  0.9268 -0.2836
 1001MOL0     C38010   5.087   8.756   5.237 -0.5316  0.1228 -0.6201
 1001MOL0     C38011   5.185   8.777   5.351  0.0259 -0.0282  0.1159
 1001MOL0     C38012   5.322   8.815   5.298  0.1334  0.3136  0.3451
 1001MOL0     C38013   5.331   8.956   5.240  0.5342  0.7422  0.1803
 1001MOL0     C38014   5.313   9.068   5.345 -0.3289  0.5258  0.5300
 1001MOL0     C38015   5.329   9.201   5.277 -0.1025  0.2392  0.8949
 1001MOL0     C38016   5.473   9.222   5.229 -0.1115 -0.3077 -0.0879
 1001MOL0     N38017   5.493   9.359   5.185 -0.1200 -0.3376  0.2813
 1001MOL0     C38018   5.476   9.400   5.052  0.3873  0.3779 -0.0001
 1001MOL0     C38019   5.529   9.527   5.054 -0.1865  0.1765  0.6537
 1001MOL0     C38020   5.547   9.622   4.938  0.1298 -0.5314  0.8135
 1001MOL0     C38021   5.670   9.614   4.835  0.8721  0.4863 -0.2404
 1001MOL0     C38022   5.798   9.640   4.918 -0.5824 -0.2775  0.3697
 1001MOL0     C38023   5.925   9.627   4.830  0.1664  0.1164  0.2131
 1001MOL0     O38024   6.045   9.644   4.915 -0.0485 -0.5049 -0.1570
 1001MOL0     C38025   6.168   9.625   4.842 -0.5957 -0.0154 -0.3235
 1001MOL0     C38026   6.289   9.612   4.915 -0.5094 -0.4329 -0.2082
 1001MOL0     C38027   6.413   9.593   4.855  0.5410 -0.0332 -0.3985
 1001MOL0     C38028   6.523   9.577   4.954  0.4822  0.0756  0.3596
 1001MOL0     C38029   6.423   9.584   4.716  0.7716 -0.7451 -0.2532
 1001MOL0     C38030   6.538   9.559   4.635 -0.0023  0.6282 -0.4912
 1001MOL0     O38031   6.649   9.563   4.705 -0.9134 -0.4095  1.0328
 1001MOL0     C38032   6.775   9.536   4.644 -0.5246  0.0766  0.3150
 1001MOL0     C38033   6.811   9.541   4.508 -0.0749 -0.3795  0.1403
 1001MOL0     C38034   6.947   9.525   4.460  0.5990 -0.5879  0.0040
 1001MOL0     C38035   7.051   9.497   4.553 -0.1864 -0.9886  0.6402
 1001MOL0     O38036   7.174   9.482   4.499  0.4400  0.4006 -1.1838
 1001MOL0     C38037   7.236   9.362   4.548  0.0931 -0.2955 -0.1150
 1001MOL0     C38038   7.388   9.368   4.524 -0.2887  0.2677 -0.3733
 1001MOL0     C38039   7.455   9.243   4.583 -1.0181  0.8102 -0.5903
 1001MOL0     C38040   7.607   9.270   4.614  0.2074  0.6294 -0.6180
 1001MOL0     C38041   7.678   9.147   4.660 -0.3241 -0.0804  0.0393
 1001MOL0     C38042   7.832   9.160   4.659  0.4748  0.2419 -0.8197
 1001MOL0     C38043   7.906   9.170   4.526  1.1045 -0.2237  0.5316
 1001MOL0     C38044   8.057   9.200   4.527 -0.3518  0.2522 -0.9017
 1001MOL0    Cl38045   8.103   9.198   4.362  0.6359  0.1971 -0.3321
 1001MOL0     C38046   7.025   9.498   4.693  0.4401 -0.1478  0.0170
 1001MOL0     C38047   6.887   9.526   4.731 -0.9600  0.4984 -0.0914
 1001MOL0     O38048   6.529   9.558   4.514 -0.9647 -0.1792 -0.4645
 1001MOL0     C38049   6.309   9.615   4.645  0.0363  0.5835 -0.5577
 1001MOL0     C38050   6.187   9.633   4.707  0.4793  0.3814 -0.3006
 1001MOL0     N38051   5.582   9.550   5.182  0.6231  0.4333  0.5098
 1001MOL0     N38052   5.545   9.458   5.258  0.5240 -0.1530 -0.9339
 1001MOL0     C38053   4.696   8.758   5.479  0.4602 -0.5719  0.9382
 1001MOL0     C38054   4.569   8.711   5.523  0.0169 -1.1935  0.4113
 1001MOL0     C38055   4.198   8.511   5.654 -0.3342 -0.6992 -0.6074
 1001MOL0     C38056   4.105   8.571   5.749 -0.2805 -0.3127  0.2047
 1001MOL0     C38057   3.985   8.509   5.778  0.4813 -0.7182 -0.3205
 1001MOL0     C38058   3.946   8.394   5.711 -0.3382  0.6035  0.5569
 1001MOL0     O38059   3.827   8.344   5.751  0.8952 -0.2876  0.3113
 1001MOL0     C38060   3.768   8.220   5.699 -1.2493  0.3720  0.0978
 1001MOL0     C38061   3.634   8.198   5.771  0.1113  0.5142 -0.3913
 1001MOL0     C38062   3.565   8.064   5.729  0.4659  0.9402 -0.4916
 1001MOL0     C38063   3.461   8.092   5.614 -0.1223 -0.9560  0.3158
 1001MOL0     C38064   3.427   7.973   5.535 -0.2588 -0.4853 -0.1414
 1001MOL0     C38065   3.410   7.871   5.481 -0.0264  0.5413  0.1158
 1001MOL0     C38066   4.033   8.335   5.614 -0.8936 -0.3514 -0.3875
 1001MOL0     C38067   4.159   8.395   5.578  0.1811 -0.0525  0.4070
 1001MOL0     C38068   4.240   8.328   5.478 -0.3671 -0.5403 -0.2766
 1001MOL0     H38069   4.620   8.385   5.461 -0.3198 -0.6725 -0.8041
 1001MOL0     H38070   4.825   8.460   5.386  0.9408  1.4336 -0.1881
 1001MOL0     H38071   4.897   8.647   5.200  2.3880  0.4559 -1.5348
 1001MOL0     H38072   4.997   8.573   5.301 -3.5328 -0.7215 -1.0087
 1001MOL0     H38073   5.145   8.705   5.160 -0.5428  1.6385 -1.6774
 1001MOL0     H38074   5.053   8.856   5.210 -1.2376 -0.1341 -0.7068
 1001MOL0     H38075   5.149   8.854   5.419  0.2624  1.8669 -1.7792
 1001MOL0     H38076   5.199   8.680   5.400 -0.2116 -1.5469 -2.5804
 1001MOL0     H38077   5.400   8.808   5.374  1.4635  3.3456 -0.6234
 1001MOL0     H38078   5.364   8.740   5.230  0.2188  0.8314 -0.1812
 1001MOL0     H38079   5.252   8.972   5.167  0.8343  1.1945 -0.0503
 1001MOL0     H38080   5.428   8.958   5.189  0.3963  0.7383 -0.0834
 1001MOL0     H38081   5.213   9.074   5.390 -1.8627  0.4705 -2.6171
 1001MOL0     H38082   5.391   9.048   5.419  1.4408 -1.0448 -1.6251
 1001MOL0     H38083   5.291   9.288   5.330  0.4149  1.7511 -1.0900
 1001MOL0     H38084   5.268   9.206   5.186 -1.7984  2.9580  2.0581
 1001MOL0     H38085   5.543   9.199   5.310 -1.6070 -1.3917  0.9392
 1001MOL0     H38086   5.506   9.160   5.146  2.0128 -2.8838  2.4887
 1001MOL0     H38087   5.437   9.349   4.965  0.9383 -0.6391  0.3288
 1001MOL0     H38088   5.543   9.727   4.967 -1.8239 -0.2212 -0.4156
 1001MOL0     H38089   5.452   9.617   4.884  0.9085  1.3942 -0.8598
 1001MOL0     H38090   5.681   9.520   4.780  2.0896 -0.1257  0.9804
 1001MOL0     H38091   5.663   9.687   4.754  1.3445 -2.9995 -3.7070
 1001MOL0     H38092   5.779   9.743   4.952 -1.3166 -0.2876 -0.0038
 1001MOL0     H38093   5.810   9.580   5.009  1.4743  0.7668  0.8705
 1001MOL0     H38094   5.924   9.526   4.788  1.1570  0.2117 -0.0437
 1001MOL0     H38095   5.906   9.700   4.751 -3.6794  1.7036  2.2957
 1001MOL0     H38096   6.272   9.608   5.022 -0.2854  1.3768 -0.0730
 1001MOL0     H38097   6.470   9.599   5.047 -1.4817 -1.2946 -0.3673
 1001MOL0     H38098   6.588   9.664   4.941 -1.4936  1.6663  0.6099
 1001MOL0     H38099   6.574   9.480   4.951 -0.2635 -0.3445  0.9400
 1001MOL0     H38100   6.741   9.569   4.430 -0.9263 -0.7351  0.7629
 1001MOL0     H38101   6.960   9.552   4.356 -3.6382 -0.2654 -0.6077
 1001MOL0     H38102   7.233   9.346   4.657  4.3152  3.9697  0.9545
 1001MOL0     H38103   7.201   9.276   4.491  2.2596 -0.1208 -1.8224
 1001MOL0     H38104   7.396   9.381   4.416 -0.8150  1.9099 -0.2476
 1001MOL0     H38105   7.432   9.451   4.579  1.3174 -0.4799 -0.4763
 1001MOL0     H38106   7.449   9.159   4.513  0.3203  1.0058 -0.9678
 1001MOL0     H38107   7.407   9.215   4.678 -0.9143  1.0889 -0.4536
 1001MOL0     H38108   7.619   9.343   4.694 -0.6168 -0.4838  0.5679
 1001MOL0     H38109   7.659   9.305   4.525 -1.0721  1.4544 -1.0798
 1001MOL0     H38110   7.639   9.121   4.759 -0.2270 -1.1238 -0.1849
 1001MOL0     H38111   7.657   9.065   4.590  0.7075 -0.8723  0.6305
 1001MOL0     H38112   7.878   9.073   4.708  1.8615  1.3176 -0.1631
 1001MOL0     H38113   7.848   9.247   4.723 -0.5232 -1.8600  2.5855
 1001MOL0     H38114   7.855   9.248   4.469  0.8909  1.7957  3.2497
 1001MOL0     H38115   7.881   9.072   4.486 -0.5300  0.1039  0.7127
 1001MOL0     H38116   8.106   9.131   4.595 -3.0508  0.8812  1.9467
 1001MOL0     H38117   8.070   9.300   4.570  0.2451 -0.3194  0.3105
 1001MOL0     H38118   7.106   9.474   4.760 -1.0573 -0.1064  1.9371
 1001MOL0     H38119   6.871   9.532   4.838 -0.5007  1.4646 -0.0620
 1001MOL0     H38120   6.300   9.603   4.537 -2.9098  0.7068 -0.4083
 1001MOL0     H38121   6.099   9.661   4.651 -1.5632  1.5313  3.1369
 1001MOL0     H38122   4.707   8.865   5.471 -1.8480 -0.3267  0.1844
 1001MOL0     H38123   4.491   8.785   5.542 -0.1261 -1.3319  0.3703
 1001MOL0     H38124   4.124   8.662   5.805  2.1426 -1.8368  2.0504
 1001MOL0     H38125   3.915   8.553   5.848  1.9052 -0.8299  1.2502
 1001MOL0     H38126   3.750   8.239   5.593  0.8987  0.5894 -0.2568
 1001MOL0     H38127   3.840   8.140   5.718  1.0322  2.5842  1.3715
 1001MOL0     H38128   3.569   8.285   5.755  1.5221  2.0471  1.7380
 1001MOL0     H38129   3.659   8.188   5.877 -0.1309 -0.4477 -0.4188
 1001MOL0     H38130   3.631   7.984   5.693 -2.2618 -1.6921 -0.0729
 1001MOL0     H38131   3.507   8.023   5.813  0.3068  1.3207 -0.4121
 1001MOL0     H38132   3.510   8.169   5.553 -1.1806  0.0726  0.7386
 1001MOL0     H38133   3.372   8.144   5.649 -0.1277  1.1763 -2.4999
 1001MOL0     H38134   3.382   7.779   5.432  1.3409  0.8037 -1.2330
 1001MOL0     H38135   3.999   8.245   5.564  0.4280  0.6516 -3.2752
 1001MOL0     H38136   4.170   8.266   5.421 -1.6831  1.9069 -1.4714
 1001MOL0     H38137   4.275   8.400   5.404  0.5621  2.4072  2.7573
 1001MOL0     H38138   4.319   8.271   5.528 -1.4895  0.3461  2.7695
 1002MOL0     O38139   1.997  11.135  10.263 -0.1137 -0.2302  0.0226
 1002MOL0     C38140   1.972  11.047  10.346  0.5466 -0.0298  0.1904
 1002MOL0     O38141   2.067  10.977  10.414  0.6020  0.4768 -0.2752
 1002MOL0     C38142   2.197  11.024  10.414  0.1452 -0.2216  0.3633
 1002MOL0     C38143   2.236  11.153  10.438 -0.4633  0.6115  0.0408
 1002MOL0     C38144   2.374  11.179  10.453  0.6081  0.2759 -0.6538
 1002MOL0     C38145   2.470  11.080  10.428  0.1696 -0.9405 -0.7162
 1002MOL0     O38146   2.605  11.099  10.450 -0.0399  0.3487  0.2568
 1002MOL0     C38147   2.658  11.074  10.583  0.6274  0.2916 -0.6316
 1002MOL0     C38148   2.792  11.132  10.602 -0.5652 -0.0641  0.2099
 1002MOL0     C38149   2.913  11.070  10.529 -0.8065  0.3726 -0.2262
 1002MOL0     C38150   3.047  11.152  10.552  0.7123 -0.4127  0.4357
 1002MOL0     C38151   3.185  11.094  10.523 -0.3641  0.0382  0.0021
 1002MOL0     C38152   3.283  11.209  10.524  0.1481 -0.1332  0.9563
 1002MOL0     C38153   3.428  11.177  10.514  0.1737  0.1657  0.1912
 1002MOL0     C38154   3.453  11.115  10.369 -0.1729 -0.1064 -0.4627
 1002MOL0     N38155   3.574  11.041  10.364 -0.7238  0.1396  0.1473
 1002MOL0     C38156   3.598  10.912  10.416  0.5785 -0.4964 -0.4546
 1002MOL0     C38157   3.721  10.882  10.365 -0.9611  0.4240  0.2826
 1002MOL0     C38158   3.788  10.754  10.407 -0.5588  0.4732 -1.1642
 1002MOL0     C38159   3.894  10.777  10.522  0.0267 -0.0983 -0.6448
 1002MOL0     C38160   3.950  10.638  10.549  1.1900 -0.3261 -0.0402
 1002MOL0     C38161   4.040  10.632  10.668  0.2642  0.4229  0.4367
 1002MOL0     O38162   4.177  10.672  10.634  0.6365  0.2614  0.3493
 1002MOL0     C38163   4.276  10.633  10.713 -0.6998 -0.4836  0.5730
 1002MOL0     C38164   4.268  10.557  10.826  0.8393  0.5838  0.0602
 1002MOL0     C38165   4.376  10.521  10.904  0.0771 -0.2925  0.1296
 1002MOL0     C38166   4.333  10.448  11.026 -0.0939 -0.1324 -0.2951
 1002MOL0     C38167   4.512  10.553  10.867  0.0633  0.1129 -0.0100
 1002MOL0     C38168   4.636  10.500  10.929 -0.1857 -0.3320  0.5084
 1002MOL0     O38169   4.625  10.450  11.055  0.4905 -0.2047  0.4027
 1002MOL0     C38170   4.739  10.406  11.119 -0.1509 -0.1010 -0.2389
 1002MOL0     C38171   4.856  10.483  11.124 -0.1472 -0.7136  0.0119
 1002MOL0     C38172   4.965  10.438  11.191  0.0483 -0.1215  0.5567
 1002MOL0     C38173   4.977  10.307  11.243  0.2266 -1.2277 -0.1438
 1002MOL0     O38174   5.083  10.255  11.310  0.1344  0.0661  0.3441
 1002MOL0     C38175   5.206  10.328  11.289  0.2145  0.2304  0.2627
 1002MOL0     C38176   5.233  10.420  11.403 -0.0247  0.3093 -0.9127
 1002MOL0     C38177   5.374  10.454  11.414  0.2759 -0.0467 -0.2602
 1002MOL0     C38178   5.382  10.593  11.484  0.2523  0.3787 -0.4052
 1002MOL0     C38179   5.524  10.616  11.533  0.0380 -0.6688  0.2726
 1002MOL0     C38180   5.562  10.767  11.530 -0.5173 -0.0750  0.0385
 1002MOL0     C38181   5.475  10.852  11.631  0.4800 -0.1997  0.4073
 1002MOL0     C38182   5.474  10.999  11.604 -0.5384 -0.2078 -0.2854
 1002MOL0    Cl38183   5.350  11.082  11.700 -0.2690  0.7035  0.0217
 1002MOL0     C38184   4.866  10.228  11.231  0.5092  1.1026 -0.3188
 1002MOL0     C38185   4.749  10.274  11.175  0.6300  0.2545  0.0820
 1002MOL0     O38186   4.742  10.515  10.862  0.2634  0.1792 -0.3512
 1002MOL0     C38187   4.525  10.624  10.740 -0.1267 -0.0598  0.5158
 1002MOL0     C38188   4.408  10.665  10.671  0.3922  0.1010 -0.1942
 1002MOL0     N38189   3.775  10.994  10.303 -0.7492  0.3323 -0.1156
 1002MOL0     N38190   3.687  11.088  10.303 -0.5760  0.3956  0.1664
 1002MOL0     C38191   2.432  10.953  10.397  0.7222 -0.2320  0.6708
 1002MOL0     C38192   2.292  10.924  10.391 -0.5842 -1.0161  0.3953
 1002MOL0     C38193   1.839  10.993  10.356  0.1820  0.4325 -0.3777
 1002MOL0     C38194   1.727  11.069  10.309  0.1569  1.1332  0.1852
 1002MOL0     C38195   1.591  11.023  10.306 -0.0962 -0.4438  0.1247
 1002MOL0     C38196   1.555  10.899  10.357  0.4222 -0.0872 -0.6970
 1002MOL0     O38197   1.432  10.839  10.353 -0.4808 -0.5050 -0.6433
 1002MOL0     C38198   1.341  10.881  10.254  0.0375 -0.5270 -0.6922
 1002MOL0     C38199   1.211  10.815  10.269  0.1997 -0.5945 -0.3814
 1002MOL0     C38200   1.111  10.869  10.163 -0.0256  0.3923 -0.0445
 1002MOL0     C38201   0.963  10.839  10.185 -0.0238 -0.4249  1.0089
 1002MOL0     C38202   0.948  10.696  10.166  0.2473  0.7512  0.0931
 1002MOL0     C38203   0.949  10.576  10.156 -0.2962 -0.3167  0.4151
 1002MOL0     C38204   1.653  10.823  10.417  0.7413 -0.7448 -0.0817
 1002MOL0     C38205   1.794  10.871  10.422  0.0893 -0.3017 -0.1951
 1002MOL0     C38206   1.881  10.769  10.483 -0.1737  0.6273 -0.4097
 1002MOL0     H38207   2.165  11.234  10.436 -1.2355 -0.0119  1.0610
 1002MOL0     H38208   2.414  11.276  10.482 -0.7220  0.8752 -0.7409
 1002MOL0     H38209   2.652  10.967  10.605 -1.4364  0.7851  1.6011
 1002MOL0     H38210   2.591  11.124  10.653  1.2277 -1.5452  1.3683
 1002MOL0     H38211   2.798  11.238  10.575  2.8467 -0.6172 -1.8957
 1002MOL0     H38212   2.825  11.112  10.704  1.4054  0.4874 -0.2650
 1002MOL0     H38213   2.928  10.969  10.569 -2.9498 -0.3614 -1.1119
 1002MOL0     H38214   2.893  11.074  10.421 -0.4632 -0.8013 -0.3467
 1002MOL0     H38215   3.036  11.235  10.482  0.1699 -1.9068 -1.3146
 1002MOL0     H38216   3.040  11.209  10.645  0.7060  0.1194  0.1148
 1002MOL0     H38217   3.184  11.055  10.421  0.5665 -0.7443  0.2792
 1002MOL0     H38218   3.202  11.019  10.600 -1.0035  2.5396  2.7867
 1002MOL0     H38219   3.257  11.275  10.441 -2.3216 -0.3449  1.4703
 1002MOL0     H38220   3.275  11.270  10.615  0.5450  2.5478 -0.6931
 1002MOL0     H38221   3.450  11.110  10.598 -0.7912  0.1441  0.4423
 1002MOL0     H38222   3.490  11.266  10.520 -1.8998  2.0599 -3.2485
 1002MOL0     H38223   3.375  11.047  10.333  0.5058 -0.6456 -0.9502
 1002MOL0     H38224   3.465  11.188  10.288 -1.3243 -0.8441 -1.3326
 1002MOL0     H38225   3.522  10.865  10.478  2.4155 -1.9032  0.8370
 1002MOL0     H38226   3.841  10.716  10.319  1.1618  0.3595 -0.1335
 1002MOL0     H38227   3.715  10.676  10.429  1.5134 -1.8020 -1.8884
 1002MOL0     H38228   3.982  10.840  10.507  1.7054 -2.0378  0.5405
 1002MOL0     H38229   3.832  10.816  10.603  0.6367 -0.7833  0.1717
 1002MOL0     H38230   3.869  10.564  10.550  0.1061  0.7965 -1.1393
 1002MOL0     H38231   4.009  10.619  10.459  0.4374 -0.2045 -0.5734
 1002MOL0     H38232   3.998  10.700  10.743 -2.8465 -0.3944 -0.4082
 1002MOL0     H38233   4.027  10.529  10.702  2.6756  0.3363  1.2758
 1002MOL0     H38234   4.166  10.528  10.849  0.3290 -1.8760 -4.2924
 1002MOL0     H38235   4.353  10.512  11.113  1.7365 -3.2507  1.8009
 1002MOL0     H38236   4.378  10.350  11.046 -2.7374 -1.2081  0.9385
 1002MOL0     H38237   4.225  10.428  11.034 -0.3266  0.9213 -0.6595
 1002MOL0     H38238   4.858  10.581  11.077  2.2207 -1.4468 -1.6442
 1002MOL0     H38239   5.043  10.513  11.183  1.2669 -1.5598 -4.2653
 1002MOL0     H38240   5.287  10.254  11.290  0.5767  0.6257  1.3536
 1002MOL0     H38241   5.201  10.373  11.189 -1.3350 -2.0578 -0.7908
 1002MOL0     H38242   5.172  10.510  11.402  1.2297  1.2206  0.5140
 1002MOL0     H38243   5.210  10.364  11.494 -0.3806 -1.2884 -1.9467
 1002MOL0     H38244   5.422  10.455  11.315 -0.0867  0.6933 -0.4348
 1002MOL0     H38245   5.432  10.380  11.469  0.4756  0.0420 -0.3488
 1002MOL0     H38246   5.312  10.583  11.568  0.1943 -4.3155 -0.7859
 1002MOL0     H38247   5.358  10.673  11.413 -0.4153  1.0278  0.5157
 1002MOL0     H38248   5.528  10.575  11.634  2.0461 -1.6908 -0.1612
 1002MOL0     H38249   5.596  10.564  11.469 -0.9945  0.0875 -1.5807
 1002MOL0     H38250   5.560  10.809  11.429  1.3503 -2.2406 -0.9737
 1002MOL0     H38251   5.667  10.761  11.557 -0.6575 -3.3086  0.2780
 1002MOL0     H38252   5.493  10.832  11.737  0.9180  0.7856  0.5275
 1002MOL0     H38253   5.373  10.820  11.608  0.5586  0.5089 -1.0261
 1002MOL0     H38254   5.458  11.021  11.498  2.3654  1.1710 -0.5291
 1002MOL0     H38255   5.570  11.039  11.636 -1.8087  2.2070  0.7305
 1002MOL0     H38256   4.866  10.127  11.271  0.6936  1.7765  1.4840
 1002MOL0     H38257   4.664  10.207  11.167 -0.8569  2.2070 -1.7271
 1002MOL0     H38258   4.618  10.643  10.687 -1.0686  2.4672 -0.3467
 1002MOL0     H38259   4.419  10.719  10.577  1.9939  3.3479  1.6589
 1002MOL0     H38260   2.507  10.879  10.370  0.1455 -0.9214  0.9315
 1002MOL0     H38261   2.262  10.823  10.367 -0.0641 -1.3147  0.9595
 1002MOL0     H38262   1.745  11.168  10.269  2.4393  1.4805  1.8845
 1002MOL0     H38263   1.525  11.096  10.261 -1.7443 -1.4173  0.8730
 1002MOL0     H38264   1.325  10.989  10.265  2.0359 -0.1175 -1.4082
 1002MOL0     H38265   1.377  10.858  10.153  1.4277  0.0454 -0.3471
 1002MOL0     H38266   1.169  10.837  10.368 -0.2545  1.3239 -0.9768
 1002MOL0     H38267   1.221  10.706  10.267  1.5482 -0.4850 -0.5174
 1002MOL0     H38268   1.124  10.978  10.162  1.7778  0.2059 -0.4757
 1002MOL0     H38269   1.140  10.836  10.063 -0.2705 -0.7296  0.2472
 1002MOL0     H38270   0.888  10.894  10.126  1.6116  1.0894  0.2556
 1002MOL0     H38271   0.932  10.865  10.287 -1.6282  1.0210  0.2118
 1002MOL0     H38272   0.978  10.474  10.138 -1.4887 -0.5438 -0.3349
 1002MOL0     H38273   1.614  10.734  10.465 -0.6466 -1.6032 -2.5992
 1002MOL0     H38274   1.818  10.686  10.517 -1.2798  1.5812 -0.0858
 1002MOL0     H38275   1.956  10.723  10.418  1.4829  2.3379  0.2095
 1002MOL0     H38276   1.928  10.805  10.575 -3.0177  0.4535  1.2105
 1003MOL0     O38277   4.625   3.731   0.869  0.0598 -0.3907 -0.8929
 1003MOL0     C38278   4.528   3.785   0.928  0.0990  0.3267  0.3686
 1003MOL0     O38279   4.533   3.879   1.021 -0.5114  0.6813 -0.4400
 1003MOL0     C38280   4.658   3.920   1.065 -0.2678 -0.7295  0.3280
 1003MOL0     C38281   4.749   3.831   1.110 -0.2173  0.0235  0.3628
 1003MOL0     C38282   4.883   3.874   1.128 -0.3826  0.2113  0.2646
 1003MOL0     C38283   4.911   4.010   1.120  0.5376 -0.0487 -0.4923
 1003MOL0     O38284   5.032   4.060   1.149 -0.1621  0.3967  0.8935
 1003MOL0     C38285   5.144   3.974   1.136  0.1159 -0.3463 -0.5595
 1003MOL0     C38286   5.274   4.049   1.156  0.1959 -0.5235 -0.7870
 1003MOL0     C38287   5.387   3.959   1.121  0.2856  0.7049  0.0133
 1003MOL0     C38288   5.514   4.040   1.099  0.3100 -0.0949  0.0426
 1003MOL0     C38289   5.625   3.942   1.073  0.4164  0.7056  0.2442
 1003MOL0     C38290   5.760   4.019   1.051 -0.2475  0.2848  0.2365
 1003MOL0     C38291   5.881   3.927   1.047  0.2637 -0.0163  0.6790
 1003MOL0     C38292   6.006   4.010   1.034  0.8902  0.3095  0.6499
 1003MOL0     N38293   6.124   3.921   1.008  1.0046  0.4744  0.1990
 1003MOL0     C38294   6.156   3.805   1.087 -0.0273 -0.2013  1.2273
 1003MOL0     C38295   6.262   3.754   1.016  0.6441  0.0179  0.9265
 1003MOL0     C38296   6.335   3.632   1.049 -0.2312 -0.3277 -0.4366
 1003MOL0     C38297   6.481   3.628   0.985  0.2688  0.9882 -0.1920
 1003MOL0     C38298   6.544   3.487   0.987  0.6525  0.2686  0.4889
 1003MOL0     C38299   6.669   3.489   0.894  0.1910 -0.0358  0.4195
 1003MOL0     O38300   6.716   3.355   0.887  0.0126  0.0035  0.5076
 1003MOL0     C38301   6.704   3.279   0.776 -0.1403 -0.4704  0.1259
 1003MOL0     C38302   6.636   3.313   0.656  0.9540 -0.8779 -0.5305
 1003MOL0     C38303   6.610   3.227   0.551  0.3159  0.0405  0.2325
 1003MOL0     C38304   6.534   3.286   0.430 -0.7945 -0.0127  0.7129
 1003MOL0     C38305   6.666   3.098   0.559  0.2508 -0.2344 -0.3277
 1003MOL0     C38306   6.647   2.993   0.453  0.9735 -0.3359 -0.9002
 1003MOL0     O38307   6.564   3.015   0.337 -0.0799  0.1944  0.0333
 1003MOL0     C38308   6.527   2.906   0.260 -0.1846 -0.1672 -0.1276
 1003MOL0     C38309   6.470   2.794   0.322 -0.2967 -0.1079  0.9243
 1003MOL0     C38310   6.433   2.688   0.236  0.4865 -0.3286 -0.1449
 1003MOL0     C38311   6.438   2.693   0.092 -0.3086  0.2290 -0.8486
 1003MOL0     O38312   6.374   2.590   0.028 -0.1454 -0.6717 -0.6532
 1003MOL0     C38313   6.447   2.459   0.031  0.4393  0.5806  0.1296
 1003MOL0     C38314   6.348   2.355   0.085  0.0883  0.7729  0.8954
 1003MOL0     C38315   6.388   2.207   0.055 -0.4641 -0.0239  0.2526
 1003MOL0     C38316   6.278   2.116   0.095  0.8827 -0.3421  0.2439
 1003MOL0     C38317   6.293   1.975   0.040  0.4599  0.8770 -0.8873
 1003MOL0     C38318   6.323   1.969  -0.106 -0.1474  0.1274 -0.6197
 1003MOL0     C38319   6.328   1.829  -0.160  0.0274  0.0311  0.3038
 1003MOL0     C38320   6.357   1.812  -0.313  0.1410 -0.6246 -0.2991
 1003MOL0    Cl38321   6.503   1.908  -0.363 -0.2785 -0.2496  0.4169
 1003MOL0     C38322   6.498   2.807   0.035 -0.4265 -0.3082 -0.2915
 1003MOL0     C38323   6.531   2.917   0.123  1.2557  0.3619 -0.3255
 1003MOL0     O38324   6.697   2.890   0.486 -0.6657  0.2244  0.2148
 1003MOL0     C38325   6.738   3.073   0.676  0.2230  0.6720  0.5226
 1003MOL0     C38326   6.754   3.158   0.785 -1.1721  0.5730  0.2657
 1003MOL0     N38327   6.293   3.837   0.906 -0.5330 -0.0863 -0.0613
 1003MOL0     N38328   6.212   3.933   0.907  0.6601 -0.3080 -0.0333
 1003MOL0     C38329   4.812   4.103   1.077 -0.0901  1.2680 -0.3082
 1003MOL0     C38330   4.689   4.056   1.038 -0.6563  0.3205 -0.1966
 1003MOL0     C38331   4.397   3.741   0.876 -0.0578  1.3773 -1.1586
 1003MOL0     C38332   4.371   3.603   0.862  0.2397 -0.8408  0.4048
 1003MOL0     C38333   4.247   3.565   0.805 -0.3424 -0.0106  0.0987
 1003MOL0     C38334   4.150   3.658   0.769 -0.1119  0.7147  0.5569
 1003MOL0     O38335   4.035   3.606   0.707 -1.0792  0.3897 -0.0395
 1003MOL0     C38336   3.935   3.697   0.660 -0.7097  0.1550 -0.5162
 1003MOL0     C38337   3.817   3.613   0.601 -0.1110 -0.0692  0.0197
 1003MOL0     C38338   3.756   3.499   0.690  0.0409 -0.1069  0.2754
 1003MOL0     C38339   3.635   3.543   0.770 -0.9818  0.0823 -0.4914
 1003MOL0     C38340   3.671   3.619   0.895 -0.7147 -1.0729 -0.3889
 1003MOL0     C38341   3.709   3.687   0.990 -0.3737 -0.3895  0.1694
 1003MOL0     C38342   4.175   3.792   0.794  0.0603  0.1375 -0.3601
 1003MOL0     C38343   4.298   3.831   0.853 -0.4424  0.5497  0.8023
 1003MOL0     C38344   4.322   3.976   0.879  0.0676  1.0089 -0.0078
 1003MOL0     H38345   4.719   3.728   1.126 -1.7211  0.5983  1.4004
 1003MOL0     H38346   4.959   3.806   1.164  1.6201  2.6791  0.9529
 1003MOL0     H38347   5.148   3.925   1.038  0.1940 -3.0894  0.7208
 1003MOL0     H38348   5.141   3.896   1.212  1.8859  0.7212  0.6769
 1003MOL0     H38349   5.277   4.140   1.096  1.5125  0.7054  1.0561
 1003MOL0     H38350   5.282   4.081   1.260 -1.2636  0.4550 -0.9505
 1003MOL0     H38351   5.399   3.880   1.197  3.9505 -0.4929 -1.5897
 1003MOL0     H38352   5.368   3.908   1.026  2.6332  1.8218 -1.1146
 1003MOL0     H38353   5.499   4.121   1.026  0.6395  1.5364  1.7016
 1003MOL0     H38354   5.536   4.095   1.191  2.2296 -2.1552  0.9111
 1003MOL0     H38355   5.602   3.877   0.988 -0.2024 -1.1366  1.7285
 1003MOL0     H38356   5.630   3.882   1.164 -2.2796  1.1486  0.7829
 1003MOL0     H38357   5.756   4.077   0.957 -2.6887  0.5304  0.4194
 1003MOL0     H38358   5.779   4.088   1.133  3.3798  0.2964 -0.4694
 1003MOL0     H38359   5.895   3.858   0.963 -0.7843 -0.1104  0.5765
 1003MOL0     H38360   5.882   3.862   1.135  0.7568  0.2662  0.8906
 1003MOL0     H38361   5.991   4.072   0.945  1.0079 -0.2357  0.2471
 1003MOL0     H38362   6.014   4.082   1.116 -1.1177  2.3811 -0.8314
 1003MOL0     H38363   6.123   3.764   1.182  0.9003 -1.2619  1.1050
 1003MOL0     H38364   6.282   3.540   1.024 -2.1220  0.1253  1.6148
 1003MOL0     H38365   6.364   3.636   1.154 -0.5494 -1.2493 -0.3063
 1003MOL0     H38366   6.468   3.670   0.885 -1.2453  1.9741  0.3889
 1003MOL0     H38367   6.558   3.692   1.030  1.1869  0.9946 -1.6846
 1003MOL0     H38368   6.588   3.461   1.084 -0.9888 -1.3970  0.8354
 1003MOL0     H38369   6.473   3.413   0.950 -2.4802  2.8180  0.9845
 1003MOL0     H38370   6.649   3.536   0.798 -0.0851  0.0749  0.5309
 1003MOL0     H38371   6.750   3.546   0.941  1.1309 -2.0175  1.3223
 1003MOL0     H38372   6.588   3.410   0.659  2.7195  0.0781 -1.4497
 1003MOL0     H38373   6.511   3.392   0.444 -1.5410  0.1221 -1.2212
 1003MOL0     H38374   6.431   3.252   0.420 -1.8997  3.3707 -1.0897
 1003MOL0     H38375   6.588   3.263   0.338 -0.9815  0.7814  0.3960
 1003MOL0     H38376   6.454   2.779   0.428 -0.2647 -1.0495  0.8029
 1003MOL0     H38377   6.389   2.601   0.283 -0.8928  0.2297 -0.3463
 1003MOL0     H38378   6.474   2.434  -0.072 -0.5901  0.6986 -0.1773
 1003MOL0     H38379   6.542   2.456   0.085  2.3694 -2.4902 -2.9655
 1003MOL0     H38380   6.344   2.378   0.192  0.5895  0.1461  1.0584
 1003MOL0     H38381   6.254   2.364   0.029 -0.4310  0.2359  1.6672
 1003MOL0     H38382   6.472   2.163   0.111  0.8859 -0.2091 -1.8061
 1003MOL0     H38383   6.403   2.203  -0.053  3.0840  1.2680  0.5497
 1003MOL0     H38384   6.178   2.150   0.067  0.4819 -2.2878 -0.8409
 1003MOL0     H38385   6.272   2.111   0.204 -0.0513 -1.2668  0.1633
 1003MOL0     H38386   6.376   1.927   0.092 -0.0144  2.4357  1.4644
 1003MOL0     H38387   6.203   1.920   0.071  1.3165 -0.5175 -0.8022
 1003MOL0     H38388   6.424   2.005  -0.127 -0.5493  1.0302 -1.0574
 1003MOL0     H38389   6.239   2.023  -0.151 -0.2485  1.2903  0.9021
 1003MOL0     H38390   6.231   1.786  -0.132 -0.8870  1.6871 -0.2134
 1003MOL0     H38391   6.399   1.773  -0.098 -1.2750 -0.1659  1.6791
 1003MOL0     H38392   6.269   1.858  -0.358  0.4742  0.2086 -0.1116
 1003MOL0     H38393   6.357   1.705  -0.336  1.3882 -1.0326  1.4066
 1003MOL0     H38394   6.497   2.817  -0.073 -3.2061  0.1070 -0.3086
 1003MOL0     H38395   6.561   3.009   0.075  2.2920 -0.6454 -1.7098
 1003MOL0     H38396   6.803   2.987   0.693  0.5155  0.9223  0.6728
 1003MOL0     H38397   6.808   3.143   0.877 -0.7313  2.8019  0.4367
 1003MOL0     H38398   4.835   4.207   1.060 -0.1365  1.3716  0.2565
 1003MOL0     H38399   4.612   4.121   0.998 -0.8589  0.7693  0.8798
 1003MOL0     H38400   4.448   3.528   0.876 -0.8088 -2.1758 -0.7574
 1003MOL0     H38401   4.227   3.463   0.775  0.6377  0.5829 -2.9772
 1003MOL0     H38402   3.901   3.751   0.748  1.3274  1.6132 -0.5456
 1003MOL0     H38403   3.984   3.768   0.592 -0.5753 -0.5443 -1.1698
 1003MOL0     H38404   3.853   3.579   0.504  0.2034  0.1790  0.0509
 1003MOL0     H38405   3.733   3.683   0.589  0.2861  0.6517  1.2357
 1003MOL0     H38406   3.723   3.423   0.618 -1.3261  1.8709 -1.3231
 1003MOL0     H38407   3.833   3.450   0.750  1.5330  1.2559 -0.4565
 1003MOL0     H38408   3.576   3.453   0.790 -0.4028 -0.1237  0.3061
 1003MOL0     H38409   3.565   3.614   0.726 -1.8356 -0.1982  0.3864
 1003MOL0     H38410   3.743   3.747   1.072  0.0840 -0.5756  0.1157
 1003MOL0     H38411   4.092   3.859   0.776 -2.5366 -1.4387  4.0234
 1003MOL0     H38412   4.331   3.993   0.986  1.9389  0.8815 -0.1107
 1003MOL0     H38413   4.404   4.017   0.820 -1.0358  2.0669 -0.8860
 1003MOL0     H38414   4.233   4.035   0.855  1.1268  2.9053  0.5249
 1004MOL0     O38415   0.382   4.372   7.356  0.3878 -0.6015 -1.1118
 1004MOL0     C38416   0.327   4.322   7.264  0.0268 -0.6198 -0.4149
 1004MOL0     O38417   0.397   4.274   7.162 -0.1461 -0.8682  0.0477
 1004MOL0     C38418   0.536   4.292   7.151 -0.6194  0.6000 -0.1887
 1004MOL0     C38419   0.595   4.412   7.115 -0.3528 -0.2336 -0.3091
 1004MOL0     C38420   0.731   4.424   7.106 -0.3611  0.2359 -0.3002
 1004MOL0     C38421   0.820   4.326   7.155 -0.1024 -0.3155  0.1099
 1004MOL0     O38422   0.960   4.359   7.181  0.3362 -0.0986  0.0850
 1004MOL0     C38423   1.054   4.275   7.118  0.1756 -0.1309  0.2766
 1004MOL0     C38424   1.165   4.238   7.219 -0.2269 -0.5072 -0.8103
 1004MOL0     C38425   1.288   4.157   7.160 -0.0663  0.1815  0.3992
 1004MOL0     C38426   1.369   4.237   7.054 -0.5347  0.1604  0.2044
 1004MOL0     C38427   1.493   4.140   7.029 -0.4990  0.1713  0.3247
 1004MOL0     C38428   1.603   4.223   6.946  0.2568  0.0413 -0.0246
 1004MOL0     C38429   1.691   4.306   7.038  0.2345 -0.9950 -0.5245
 1004MOL0     C38430   1.797   4.390   6.973 -0.1003  0.5276  0.3634
 1004MOL0     N38431   1.895   4.305   6.901  0.1402 -0.3494  0.8608
 1004MOL0     C38432   2.000   4.236   6.954 -0.2754 -0.6842  0.3987
 1004MOL0     C38433   2.075   4.186   6.854 -0.2424  0.3786  0.8964
 1004MOL0     C38434   2.202   4.110   6.854  0.0254  0.4894 -0.3330
 1004MOL0     C38435   2.193   4.002   6.734  0.4382  0.5171  0.0003
 1004MOL0     C38436   2.315   3.912   6.719  0.7430  0.7069 -0.0122
 1004MOL0     C38437   2.296   3.792   6.627  0.1615 -0.3708  0.8099
 1004MOL0     O38438   2.297   3.844   6.490  0.0020  0.5247 -1.0627
 1004MOL0     C38439   2.286   3.763   6.382  0.0391  0.6786  0.7404
 1004MOL0     C38440   2.295   3.821   6.252  0.7084  0.6346  1.2920
 1004MOL0     C38441   2.276   3.744   6.133  0.2287  0.4298  0.3133
 1004MOL0     C38442   2.297   3.812   6.004  0.2782 -0.5839  0.6821
 1004MOL0     C38443   2.249   3.603   6.146 -0.1843 -0.3562 -0.1926
 1004MOL0     C38444   2.242   3.512   6.032 -0.0780 -0.3273  0.6009
 1004MOL0     O38445   2.281   3.555   5.905  0.0424  1.0686 -0.0300
 1004MOL0     C38446   2.329   3.472   5.805 -0.6048 -0.4173 -0.3082
 1004MOL0     C38447   2.468   3.475   5.783  0.1516  0.0426 -0.6489
 1004MOL0     C38448   2.531   3.400   5.687 -0.7839 -0.7931  0.4981
 1004MOL0     C38449   2.460   3.320   5.602  0.5267 -0.1965 -0.3086
 1004MOL0     O38450   2.515   3.244   5.502  0.2398  0.5005  0.2021
 1004MOL0     C38451   2.652   3.245   5.479 -0.1477 -0.1812 -0.6623
 1004MOL0     C38452   2.688   3.183   5.347 -0.3726  0.5986 -0.0275
 1004MOL0     C38453   2.652   3.258   5.223 -0.4978 -0.3690  0.2116
 1004MOL0     C38454   2.729   3.387   5.213 -0.7045 -0.8597  0.7949
 1004MOL0     C38455   2.751   3.432   5.067 -0.9760  0.2535 -0.2211
 1004MOL0     C38456   2.625   3.428   4.983  1.1117 -0.0838  0.5106
 1004MOL0     C38457   2.654   3.489   4.837  0.3430  0.7796  0.0991
 1004MOL0     C38458   2.536   3.514   4.757  0.7127  0.0717  0.1610
 1004MOL0    Cl38459   2.426   3.637   4.824 -0.2139 -0.2429 -0.2275
 1004MOL0     C38460   2.322   3.306   5.626 -0.1338  0.4883  0.3385
 1004MOL0     C38461   2.258   3.382   5.720  0.8985  0.5400 -0.1841
 1004MOL0     O38462   2.209   3.395   6.058 -1.1140  0.1235 -0.0551
 1004MOL0     C38463   2.240   3.547   6.277 -0.2211  0.0884 -0.2054
 1004MOL0     C38464   2.261   3.619   6.392  0.0126 -0.3740  0.6866
 1004MOL0     N38465   2.038   4.254   6.738  1.0637  0.6165  0.1144
 1004MOL0     N38466   1.922   4.302   6.765  0.5128 -0.3720  0.1937
 1004MOL0     C38467   0.767   4.203   7.185 -0.1128  0.9966 -0.3766
 1004MOL0     C38468   0.628   4.188   7.182  0.3331 -0.5606  0.2862
 1004MOL0     C38469   0.173   4.315   7.249 -0.0449  0.3230  0.9098
 1004MOL0     C38470   0.123   4.202   7.177 -0.6281  0.7853 -0.0905
 1004MOL0     C38471  -0.015   4.178   7.166 -0.8356 -0.3606  0.1403
 1004MOL0     C38472  -0.108   4.272   7.220 -0.2121  0.3075  0.4967
 1004MOL0     O38473  -0.238   4.269   7.200  0.7847 -0.2644 -0.5393
 1004MOL0     C38474  -0.312   4.258   7.321 -0.7701 -0.3928 -0.6572
 1004MOL0     C38475  -0.439   4.181   7.289 -0.0790 -0.7079  0.3954
 1004MOL0     C38476  -0.532   4.192   7.412 -0.0077  0.4953  0.5428
 1004MOL0     C38477  -0.665   4.142   7.357  0.4028  0.1073  0.4600
 1004MOL0     C38478  -0.760   4.148   7.466  0.2009 -0.3614  0.1207
 1004MOL0     C38479  -0.849   4.139   7.552  0.5666 -0.8278 -0.2461
 1004MOL0     C38480  -0.053   4.382   7.285 -1.0091 -0.4771 -0.0378
 1004MOL0     C38481   0.082   4.404   7.299  0.1576 -0.1301 -0.5558
 1004MOL0     C38482   0.127   4.529   7.377  0.5110  0.4342 -0.3184
 1004MOL0     H38483   0.528   4.495   7.097  0.2323  0.7676  1.7887
 1004MOL0     H38484   0.780   4.517   7.080  0.6341 -0.2558 -0.2374
 1004MOL0     H38485   1.093   4.338   7.038  0.8741  0.3700  0.9904
 1004MOL0     H38486   1.009   4.187   7.071 -0.3439 -0.1602  0.8152
 1004MOL0     H38487   1.197   4.335   7.257 -0.3441  0.2298 -2.4836
 1004MOL0     H38488   1.130   4.182   7.305 -0.0270  1.0532  0.3205
 1004MOL0     H38489   1.360   4.146   7.242  2.0572  1.9129 -1.0914
 1004MOL0     H38490   1.268   4.058   7.117  0.5800  0.6380 -1.0340
 1004MOL0     H38491   1.312   4.242   6.961 -0.1169  0.3752 -0.0433
 1004MOL0     H38492   1.405   4.332   7.096 -2.6048  1.2765 -0.3921
 1004MOL0     H38493   1.444   4.057   6.977  0.0957  0.5472 -0.8847
 1004MOL0     H38494   1.524   4.092   7.122 -2.5073  0.2610  1.0796
 1004MOL0     H38495   1.673   4.151   6.902 -1.1316 -1.6604  0.4387
 1004MOL0     H38496   1.564   4.284   6.863  0.0115  0.4935  0.4172
 1004MOL0     H38497   1.740   4.241   7.112 -0.8266 -1.8146 -0.5089
 1004MOL0     H38498   1.624   4.379   7.084 -0.9498 -0.8282 -2.4114
 1004MOL0     H38499   1.745   4.458   6.905 -0.0197 -0.6076 -0.8803
 1004MOL0     H38500   1.855   4.441   7.050  0.2715  1.2570 -0.3758
 1004MOL0     H38501   2.023   4.225   7.059 -0.7091 -0.0281  0.5721
 1004MOL0     H38502   2.209   4.064   6.952 -0.1475  0.5829 -0.2757
 1004MOL0     H38503   2.295   4.166   6.839  1.3511 -1.0273  1.7731
 1004MOL0     H38504   2.102   3.941   6.734 -0.9094  2.3680 -2.2576
 1004MOL0     H38505   2.185   4.059   6.641  2.0769 -0.2638 -0.6507
 1004MOL0     H38506   2.396   3.977   6.684 -1.0305  2.2849 -1.4081
 1004MOL0     H38507   2.332   3.876   6.821 -0.4070  1.1815  0.3601
 1004MOL0     H38508   2.374   3.718   6.646 -0.0047 -0.3721  1.5162
 1004MOL0     H38509   2.201   3.737   6.634 -0.5197  0.2695 -2.0167
 1004MOL0     H38510   2.314   3.925   6.228  1.3902  0.0745 -0.8292
 1004MOL0     H38511   2.379   3.769   5.947 -1.8750 -0.5326 -2.7469
 1004MOL0     H38512   2.311   3.918   6.028 -1.9326  0.2396 -1.2770
 1004MOL0     H38513   2.205   3.802   5.945  0.7755 -0.3730 -0.1464
 1004MOL0     H38514   2.527   3.537   5.849 -2.4718 -0.3199  2.3083
 1004MOL0     H38515   2.637   3.410   5.665 -1.6170 -0.0541 -4.3219
 1004MOL0     H38516   2.705   3.340   5.491 -1.2738  0.4002 -0.2107
 1004MOL0     H38517   2.709   3.185   5.551  2.9108 -0.3818 -2.9922
 1004MOL0     H38518   2.796   3.168   5.346 -0.0413  1.5145  3.9685
 1004MOL0     H38519   2.633   3.088   5.348  0.7265 -0.1274 -2.2216
 1004MOL0     H38520   2.547   3.284   5.239 -0.5072 -0.3305  0.0880
 1004MOL0     H38521   2.660   3.203   5.129  0.7176 -0.7609  0.5275
 1004MOL0     H38522   2.831   3.380   5.251 -0.1090 -3.4104 -1.0073
 1004MOL0     H38523   2.667   3.457   5.269 -2.5290 -1.9440  0.2216
 1004MOL0     H38524   2.793   3.532   5.053 -2.2661  0.8454  0.0122
 1004MOL0     H38525   2.828   3.371   5.018 -0.2106 -0.0112  1.2477
 1004MOL0     H38526   2.552   3.494   5.032 -0.1506 -0.2199 -1.1231
 1004MOL0     H38527   2.574   3.332   4.973 -2.0221  1.5459 -0.7402
 1004MOL0     H38528   2.715   3.413   4.788  0.9902  1.4164 -0.0809
 1004MOL0     H38529   2.712   3.581   4.844  2.5117 -0.6342  2.6002
 1004MOL0     H38530   2.491   3.423   4.718 -0.0030  1.9398 -3.7961
 1004MOL0     H38531   2.565   3.557   4.661 -1.6230 -0.0505 -0.6684
 1004MOL0     H38532   2.263   3.242   5.562 -1.6570  2.4330 -0.3135
 1004MOL0     H38533   2.151   3.366   5.721  1.1125 -1.0204 -0.0018
 1004MOL0     H38534   2.215   3.443   6.295  1.7044 -0.1957  1.1323
 1004MOL0     H38535   2.243   3.586   6.494  0.2485  0.8162  1.1268
 1004MOL0     H38536   0.828   4.116   7.209 -0.7920  0.5275 -0.3095
 1004MOL0     H38537   0.580   4.091   7.197 -1.3011  0.1307 -0.3062
 1004MOL0     H38538   0.196   4.131   7.141 -0.4759  0.6834  0.4072
 1004MOL0     H38539  -0.059   4.087   7.126 -2.0495 -1.0457  2.7899
 1004MOL0     H38540  -0.259   4.207   7.402 -0.8482  1.2655  0.5062
 1004MOL0     H38541  -0.334   4.360   7.355  1.5725  1.5325 -4.2679
 1004MOL0     H38542  -0.401   4.080   7.267  0.8091 -0.3494  0.2479
 1004MOL0     H38543  -0.490   4.217   7.199  1.7491  2.3482  0.4424
 1004MOL0     H38544  -0.495   4.146   7.505  1.2319 -0.8999 -0.5925
 1004MOL0     H38545  -0.553   4.297   7.435  1.1520  0.6419  1.0491
 1004MOL0     H38546  -0.661   4.037   7.324 -3.5312 -1.9421  5.2070
 1004MOL0     H38547  -0.701   4.217   7.287  1.5931  1.9197  1.7055
 1004MOL0     H38548  -0.937   4.132   7.612  0.6317 -2.3436 -0.2765
 1004MOL0     H38549  -0.128   4.450   7.325 -2.5786 -1.8411 -0.4987
 1004MOL0     H38550   0.201   4.584   7.318  0.4877  2.4722  1.4489
 1004MOL0     H38551   0.037   4.588   7.399  0.0831  0.5476 -2.1659
 1004MOL0     H38552   0.167   4.500   7.474 -1.6887 -2.2640 -0.0841
 1005MOL0     O38553   4.489   5.895   8.979 -0.3189 -0.0116 -0.2320
 1005MOL0     C38554   4.378   5.926   8.934  0.0189  0.5991 -0.2333
 1005MOL0     O38555   4.358   6.010   8.827 -0.4335  0.0503 -0.3595
 1005MOL0     C38556   4.467   6.074   8.787  0.2069  0.9822 -0.1467
 1005MOL0     C38557   4.490   6.205   8.812  0.3287 -0.2076  0.2847
 1005MOL0     C38558   4.619   6.257   8.783  0.0363 -0.3065  0.4292
 1005MOL0     C38559   4.715   6.180   8.723 -0.2838  0.6371  0.1442
 1005MOL0     O38560   4.837   6.220   8.670  1.0857  0.2147 -0.5197
 1005MOL0     C38561   4.890   6.338   8.728 -0.0615  0.1185 -0.1340
 1005MOL0     C38562   5.035   6.349   8.698  0.0622  0.5588  0.3211
 1005MOL0     C38563   5.067   6.373   8.552  0.6221  0.4838 -0.5496
 1005MOL0     C38564   5.214   6.397   8.519  0.2650 -0.1314 -0.8730
 1005MOL0     C38565   5.265   6.397   8.372  0.1487  0.6475  0.8717
 1005MOL0     C38566   5.424   6.424   8.358  0.0268  0.1408  0.0772
 1005MOL0     C38567   5.485   6.385   8.215 -0.0445  0.3721 -0.2847
 1005MOL0     C38568   5.637   6.383   8.207  0.4856 -0.2794  0.2137
 1005MOL0     N38569   5.686   6.522   8.242 -0.1007 -0.5434 -0.5404
 1005MOL0     C38570   5.738   6.560   8.363 -0.8000 -0.3747 -0.1397
 1005MOL0     C38571   5.756   6.692   8.355  0.3986 -0.1595  0.0081
 1005MOL0     C38572   5.833   6.777   8.462 -1.2145  0.5094  0.8895
 1005MOL0     C38573   5.988   6.784   8.440  0.3453  0.0152 -0.3089
 1005MOL0     C38574   6.043   6.885   8.544  0.5160 -0.0660 -0.9772
 1005MOL0     C38575   6.182   6.926   8.528  0.2776 -0.9427 -0.0403
 1005MOL0     O38576   6.255   6.803   8.532 -0.2059  0.1061  0.5306
 1005MOL0     C38577   6.390   6.802   8.532  0.0617  0.3075  0.1884
 1005MOL0     C38578   6.460   6.684   8.496  0.1726  0.3236 -0.2887
 1005MOL0     C38579   6.599   6.676   8.498 -0.5172  0.0196 -0.1980
 1005MOL0     C38580   6.659   6.533   8.475 -0.0543  0.1745 -0.1559
 1005MOL0     C38581   6.679   6.793   8.526 -0.6222  0.8572  0.6620
 1005MOL0     C38582   6.833   6.804   8.528 -0.4854  1.2364  0.2662
 1005MOL0     O38583   6.885   6.924   8.505  0.9134 -0.1125 -0.5274
 1005MOL0     C38584   7.017   6.945   8.494  0.3193  0.1310 -0.1722
 1005MOL0     C38585   7.078   6.948   8.372 -0.1676 -0.2657 -0.2852
 1005MOL0     C38586   7.210   6.965   8.366  0.9246 -0.8856 -0.1408
 1005MOL0     C38587   7.294   6.982   8.484 -0.4437  0.0092  0.2771
 1005MOL0     O38588   7.427   6.993   8.470  0.1905  0.5513  0.1587
 1005MOL0     C38589   7.510   7.035   8.582  0.3165  0.1156  0.4821
 1005MOL0     C38590   7.486   7.183   8.615  0.3236 -0.1632 -0.5253
 1005MOL0     C38591   7.503   7.269   8.489 -0.1818 -0.2724  0.4280
 1005MOL0     C38592   7.478   7.414   8.531  0.6656 -0.1894 -0.7410
 1005MOL0     C38593   7.451   7.502   8.412  0.4265 -0.5537  0.0677
 1005MOL0     C38594   7.427   7.648   8.437  1.0525  0.1922 -0.0286
 1005MOL0     C38595   7.313   7.657   8.546 -0.2980  0.0502  0.0439
 1005MOL0     C38596   7.183   7.582   8.503  0.2845  0.1519  0.4085
 1005MOL0    Cl38597   7.118   7.638   8.344 -0.2559  0.4101  0.4571
 1005MOL0     C38598   7.222   6.972   8.605  0.4881  0.0281  0.5043
 1005MOL0     C38599   7.090   6.949   8.612 -0.9273 -0.8552 -0.1798
 1005MOL0     O38600   6.897   6.700   8.557  0.1012 -0.8191 -0.4401
 1005MOL0     C38601   6.606   6.909   8.545  0.8779 -0.5295 -0.3465
 1005MOL0     C38602   6.469   6.915   8.550  0.1969  0.3142  0.6730
 1005MOL0     N38603   5.705   6.733   8.235  0.2322 -0.0203  1.2272
 1005MOL0     N38604   5.662   6.631   8.167  0.1633  0.2675 -0.7783
 1005MOL0     C38605   4.690   6.047   8.692 -0.6744 -0.1961 -0.2506
 1005MOL0     C38606   4.563   5.996   8.717  0.3160 -0.3577 -0.0440
 1005MOL0     C38607   4.257   5.871   8.994 -0.1377  0.3022 -0.2308
 1005MOL0     C38608   4.129   5.922   8.964 -0.2183  0.2195  0.9419
 1005MOL0     C38609   4.020   5.869   9.020 -0.0471  0.2480 -1.1033
 1005MOL0     C38610   4.020   5.759   9.107  0.5725 -0.4616  0.1129
 1005MOL0     O38611   3.902   5.704   9.144  0.1273 -0.7575  0.3127
 1005MOL0     C38612   3.899   5.633   9.265 -0.5544 -0.2299 -0.8651
 1005MOL0     C38613   3.757   5.626   9.331 -0.6326  0.6710 -0.1998
 1005MOL0     C38614   3.647   5.589   9.229 -0.5182  0.3582  0.6814
 1005MOL0     C38615   3.511   5.663   9.239  0.3960  0.2537 -0.1335
 1005MOL0     C38616   3.441   5.609   9.360  0.5422  0.1369 -1.3684
 1005MOL0     C38617   3.383   5.562   9.466  0.5887  0.8593  0.6139
 1005MOL0     C38618   4.145   5.700   9.133 -0.5132  0.3519 -0.0564
 1005MOL0     C38619   4.263   5.753   9.079 -0.3433 -0.3179  0.1606
 1005MOL0     C38620   4.389   5.674   9.114  0.0143  0.4357  0.5601
 1005MOL0     H38621   4.417   6.271   8.858  1.1185  0.6506  0.3494
 1005MOL0     H38622   4.644   6.362   8.792  0.1296 -0.3629  0.8591
 1005MOL0     H38623   4.882   6.341   8.837  1.7662 -2.8539  0.2061
 1005MOL0     H38624   4.826   6.419   8.693 -3.0141 -0.8855  2.4666
 1005MOL0     H38625   5.065   6.435   8.759 -1.6594  0.6882  1.0613
 1005MOL0     H38626   5.087   6.266   8.746 -0.6806  0.0407  0.2376
 1005MOL0     H38627   5.039   6.278   8.507  0.3981 -0.1935  0.9638
 1005MOL0     H38628   4.998   6.449   8.513  1.7339  1.7513 -0.1270
 1005MOL0     H38629   5.229   6.500   8.555 -0.2839 -0.6242  0.8630
 1005MOL0     H38630   5.279   6.328   8.572  0.3700  1.2857  0.9839
 1005MOL0     H38631   5.202   6.466   8.314  0.3293 -0.5011 -0.7483
 1005MOL0     H38632   5.249   6.295   8.337 -0.8025  0.4930  1.7126
 1005MOL0     H38633   5.448   6.528   8.384 -1.1253  0.0654  1.6045
 1005MOL0     H38634   5.470   6.355   8.429 -0.2773 -0.4813 -0.3250
 1005MOL0     H38635   5.458   6.464   8.144  2.2774  1.2280 -0.2977
 1005MOL0     H38636   5.453   6.283   8.193 -1.4489  0.8579 -0.6277
 1005MOL0     H38637   5.679   6.307   8.274 -1.6112  0.7121  2.8194
 1005MOL0     H38638   5.682   6.366   8.109 -0.2924 -1.0075 -0.0249
 1005MOL0     H38639   5.768   6.498   8.447  0.9842 -1.2447 -1.3566
 1005MOL0     H38640   5.805   6.740   8.561 -1.7396 -3.4435 -0.5804
 1005MOL0     H38641   5.803   6.881   8.443  2.1717  1.0771 -2.6420
 1005MOL0     H38642   6.030   6.686   8.466  0.1775  0.7413  3.2179
 1005MOL0     H38643   6.020   6.820   8.342  1.4471 -0.0337  0.0204
 1005MOL0     H38644   6.001   6.984   8.520  0.0263 -0.4021 -1.5290
 1005MOL0     H38645   6.018   6.857   8.646  0.2305 -0.8689 -1.2646
 1005MOL0     H38646   6.195   6.968   8.427  1.4849 -1.8058 -0.2750
 1005MOL0     H38647   6.212   6.997   8.606 -0.3435 -1.5969  0.8154
 1005MOL0     H38648   6.403   6.592   8.486 -1.1486  0.8449  1.7468
 1005MOL0     H38649   6.688   6.493   8.573  2.6539  2.3870  0.0692
 1005MOL0     H38650   6.752   6.540   8.419  2.7718 -3.0675  3.5923
 1005MOL0     H38651   6.590   6.470   8.419  1.3559 -0.2594 -1.4689
 1005MOL0     H38652   7.022   6.920   8.283 -2.7348  2.0793  0.4596
 1005MOL0     H38653   7.245   6.959   8.263 -0.4209  4.4864 -1.1915
 1005MOL0     H38654   7.497   6.970   8.669 -0.0759 -0.6959 -0.1667
 1005MOL0     H38655   7.616   7.022   8.558 -0.4009 -1.4813 -2.2805
 1005MOL0     H38656   7.385   7.184   8.658 -1.0082  0.4652 -3.3944
 1005MOL0     H38657   7.556   7.217   8.692 -0.0932 -2.2973  0.8731
 1005MOL0     H38658   7.430   7.236   8.415  2.6645  0.3067 -2.8768
 1005MOL0     H38659   7.604   7.257   8.451 -0.0635  0.3827  0.5202
 1005MOL0     H38660   7.564   7.447   8.591 -0.2437  0.2704  0.3385
 1005MOL0     H38661   7.390   7.406   8.595  1.4292 -1.3588  0.2145
 1005MOL0     H38662   7.537   7.499   8.344 -1.4241 -4.2083 -2.4063
 1005MOL0     H38663   7.370   7.464   8.350 -0.1510 -2.5532  1.9320
 1005MOL0     H38664   7.398   7.705   8.348 -1.2514  0.6157  0.9212
 1005MOL0     H38665   7.518   7.690   8.479  2.1227 -1.6613 -0.4083
 1005MOL0     H38666   7.297   7.762   8.575  1.0889  0.9022 -2.0027
 1005MOL0     H38667   7.352   7.622   8.642 -2.1438  0.5000  0.9952
 1005MOL0     H38668   7.114   7.610   8.583  0.3267  3.8784 -0.6537
 1005MOL0     H38669   7.194   7.474   8.490  0.6741  0.3433 -1.1026
 1005MOL0     H38670   7.274   6.983   8.700 -0.3657  0.5954  0.9235
 1005MOL0     H38671   7.055   6.931   8.713 -0.0357  1.1786  0.5619
 1005MOL0     H38672   6.650   7.004   8.572  0.0854 -0.9297  2.7840
 1005MOL0     H38673   6.421   7.010   8.572 -1.6350  0.0390 -1.6600
 1005MOL0     H38674   4.761   5.976   8.651  0.0516 -1.1225  2.3605
 1005MOL0     H38675   4.536   5.894   8.691 -1.4663  1.1175 -5.3791
 1005MOL0     H38676   4.117   6.009   8.901 -1.2388 -0.5334  0.0604
 1005MOL0     H38677   3.924   5.920   9.008  0.2066  1.1908  0.5403
 1005MOL0     H38678   3.939   5.534   9.243  0.5856  0.0841 -0.2736
 1005MOL0     H38679   3.966   5.676   9.340  1.1330 -0.4093 -2.1865
 1005MOL0     H38680   3.733   5.717   9.386 -1.1202 -0.5621  1.7148
 1005MOL0     H38681   3.746   5.554   9.413 -1.9826  1.4268  0.3118
 1005MOL0     H38682   3.674   5.598   9.123 -0.2569  2.5976  0.9048
 1005MOL0     H38683   3.633   5.480   9.236 -1.2127  0.5095  1.7637
 1005MOL0     H38684   3.453   5.648   9.148  0.1721  0.8967 -0.1001
 1005MOL0     H38685   3.540   5.768   9.246  0.9227  0.5946 -4.6790
 1005MOL0     H38686   3.316   5.549   9.548  1.2879 -3.9703  0.6966
 1005MOL0     H38687   4.148   5.616   9.201 -0.1198  0.5169  0.1274
 1005MOL0     H38688   4.357   5.585   9.170 -0.9374  0.7344  0.5161
 1005MOL0     H38689   4.444   5.634   9.028 -2.8064 -2.0361 -0.2813
 1005MOL0     H38690   4.461   5.733   9.172  0.3932 -0.6196  1.2011
 1006MOL0     O38691   2.515   3.756   2.539 -0.4735  0.7539  0.0726
 1006MOL0     C38692   2.497   3.641   2.504  0.4481  0.3254 -0.4051
 1006MOL0     O38693   2.522   3.588   2.389  0.4765 -0.3152  0.1529
 1006MOL0     C38694   2.589   3.663   2.298 -0.5007  0.2878 -0.2072
 1006MOL0     C38695   2.728   3.659   2.298  0.3416 -0.0859 -0.3457
 1006MOL0     C38696   2.801   3.741   2.217  0.0346  0.2850  0.5648
 1006MOL0     C38697   2.750   3.839   2.136 -0.5581 -0.2944  0.3866
 1006MOL0     O38698   2.840   3.902   2.046 -0.1532 -0.1254 -0.5195
 1006MOL0     C38699   2.804   3.894   1.912  0.2155 -0.4530  0.1872
 1006MOL0     C38700   2.850   3.772   1.834  0.0875  0.5949  1.0151
 1006MOL0     C38701   2.993   3.745   1.849 -0.4165  0.7211  0.5828
 1006MOL0     C38702   3.029   3.608   1.800  0.6156  0.7464  0.4044
 1006MOL0     C38703   3.182   3.562   1.824  0.3082 -0.2756  0.1272
 1006MOL0     C38704   3.280   3.655   1.749  0.1422 -0.5127 -0.6088
 1006MOL0     C38705   3.420   3.601   1.763 -0.4510  0.5370  0.2154
 1006MOL0     C38706   3.482   3.593   1.902 -0.6442  0.1608 -0.1408
 1006MOL0     N38707   3.616   3.540   1.908  0.0864  0.3077  0.8403
 1006MOL0     C38708   3.652   3.441   2.001 -0.8611  0.0371 -0.2621
 1006MOL0     C38709   3.782   3.443   1.986  0.6429  1.2952 -0.0218
 1006MOL0     C38710   3.874   3.346   2.059 -0.1472 -0.4982  0.1098
 1006MOL0     C38711   3.991   3.295   1.976 -0.0931  0.6639  0.1421
 1006MOL0     C38712   4.060   3.189   2.061  0.2741 -0.3098 -0.1199
 1006MOL0     C38713   4.192   3.146   1.995  0.0925 -0.0288  0.7185
 1006MOL0     O38714   4.277   3.084   2.101 -0.3112  0.1068 -1.3286
 1006MOL0     C38715   4.410   3.047   2.070  0.0080  0.3191 -0.2861
 1006MOL0     C38716   4.482   3.102   1.963  0.7596 -0.4517  0.0627
 1006MOL0     C38717   4.615   3.059   1.939  0.2315 -0.6016  0.6954
 1006MOL0     C38718   4.688   3.134   1.824 -0.3298 -0.1112  0.2485
 1006MOL0     C38719   4.679   2.963   2.021  0.2257  0.1931  0.6263
 1006MOL0     C38720   4.828   2.930   2.009 -0.2843  0.5606 -0.6672
 1006MOL0     O38721   4.885   2.915   2.130  0.4001 -0.2054 -0.5069
 1006MOL0     C38722   5.017   2.900   2.142  0.5688  0.8892  0.3293
 1006MOL0     C38723   5.070   2.780   2.190  0.5450 -0.2013  0.3551
 1006MOL0     C38724   5.205   2.764   2.215 -0.4017 -0.2527 -0.7476
 1006MOL0     C38725   5.295   2.870   2.197  0.9377 -0.5639 -0.1686
 1006MOL0     O38726   5.428   2.847   2.203  0.9192  0.5327  0.3105
 1006MOL0     C38727   5.533   2.927   2.152  0.2778  0.6937  0.4829
 1006MOL0     C38728   5.534   2.924   1.998 -0.0664 -0.6643  0.4009
 1006MOL0     C38729   5.664   2.952   1.920 -0.2512 -0.0184  0.5763
 1006MOL0     C38730   5.767   3.033   1.999 -0.1352  0.3353  0.2313
 1006MOL0     C38731   5.898   3.059   1.926  0.3233  0.0601 -0.0246
 1006MOL0     C38732   5.987   3.145   2.022  0.3532  0.6982 -0.3338
 1006MOL0     C38733   6.112   3.199   1.947 -0.0253 -0.0144 -0.1757
 1006MOL0     C38734   6.201   3.292   2.029 -0.4768  0.3318  0.3506
 1006MOL0    Cl38735   6.319   3.366   1.913 -0.0688  0.3353  0.1644
 1006MOL0     C38736   5.232   2.999   2.156 -0.5572 -0.7714 -0.6491
 1006MOL0     C38737   5.101   3.011   2.125 -0.0079  0.0438 -0.2063
 1006MOL0     O38738   4.887   2.923   1.902  0.4331 -0.5700  0.5656
 1006MOL0     C38739   4.594   2.901   2.113  0.0230 -0.4325  0.3448
 1006MOL0     C38740   4.468   2.944   2.143  0.0917  0.1067 -0.5896
 1006MOL0     N38741   3.823   3.537   1.890  0.6105  0.1124  0.2269
 1006MOL0     N38742   3.716   3.594   1.843  0.5367  0.3675  0.4838
 1006MOL0     C38743   2.614   3.847   2.135  0.1535  0.2346 -0.7611
 1006MOL0     C38744   2.539   3.762   2.217  0.3147 -0.0810 -0.7144
 1006MOL0     C38745   2.427   3.554   2.598  0.3247  0.3366  0.3349
 1006MOL0     C38746   2.492   3.547   2.721  0.0957  0.1022  0.7012
 1006MOL0     C38747   2.446   3.449   2.816  0.1882 -0.9175  0.2030
 1006MOL0     C38748   2.316   3.390   2.801 -0.0910 -0.2871 -0.4998
 1006MOL0     O38749   2.282   3.312   2.912  0.2396 -0.1749  0.2375
 1006MOL0     C38750   2.162   3.233   2.905 -0.4895 -0.4875 -0.4406
 1006MOL0     C38751   2.045   3.325   2.950 -0.1543 -0.0523 -0.9180
 1006MOL0     C38752   1.898   3.262   2.951 -0.6889  0.4431  0.2579
 1006MOL0     C38753   1.857   3.224   2.802 -0.0955 -0.4515 -0.7398
 1006MOL0     C38754   1.878   3.337   2.709  0.3425 -0.3098  0.5195
 1006MOL0     C38755   1.881   3.435   2.637 -1.0833 -0.9591 -0.6898
 1006MOL0     C38756   2.240   3.416   2.689  0.3964  0.1887  0.9369
 1006MOL0     C38757   2.303   3.486   2.574  0.1395  0.2375  0.1601
 1006MOL0     C38758   2.222   3.494   2.450  0.6196 -0.2437 -0.1429
 1006MOL0     H38759   2.787   3.607   2.373 -0.1567  2.2635  1.7907
 1006MOL0     H38760   2.909   3.735   2.217  0.0525  0.5774 -0.0713
 1006MOL0     H38761   2.841   3.986   1.865 -2.0778  0.7292  0.5424
 1006MOL0     H38762   2.696   3.891   1.898  0.4471  0.2106 -2.3676
 1006MOL0     H38763   2.795   3.683   1.864  0.9437 -0.3739 -0.1612
 1006MOL0     H38764   2.824   3.786   1.728 -0.4181 -0.8438  0.9246
 1006MOL0     H38765   3.044   3.826   1.796 -0.5961  0.5840  0.1973
 1006MOL0     H38766   3.021   3.750   1.955 -1.6671  1.3239  0.9043
 1006MOL0     H38767   2.955   3.544   1.850 -0.0399  3.3373  3.0100
 1006MOL0     H38768   3.009   3.601   1.693  0.5608  0.7777  0.4126
 1006MOL0     H38769   3.197   3.456   1.804 -0.6975 -0.0385 -2.3506
 1006MOL0     H38770   3.211   3.578   1.928 -2.6095  1.0663  0.8551
 1006MOL0     H38771   3.245   3.662   1.646  0.5643  1.9447 -0.6599
 1006MOL0     H38772   3.281   3.755   1.795  4.3831  0.1284 -1.6203
 1006MOL0     H38773   3.493   3.651   1.699 -0.4930 -0.2400 -0.4545
 1006MOL0     H38774   3.420   3.498   1.724  1.3161  1.1272 -1.4829
 1006MOL0     H38775   3.479   3.684   1.961 -0.7045 -1.9123  3.3260
 1006MOL0     H38776   3.427   3.520   1.962  0.2784 -0.4316 -0.0089
 1006MOL0     H38777   3.592   3.377   2.065 -2.1673  1.1636 -0.3014
 1006MOL0     H38778   3.815   3.263   2.099 -2.4171  2.0394  2.4514
 1006MOL0     H38779   3.919   3.398   2.144  1.2589 -2.9057  0.9523
 1006MOL0     H38780   3.950   3.252   1.884  0.9969  0.2425 -0.1672
 1006MOL0     H38781   4.057   3.376   1.942  0.3068  0.4675  0.4427
 1006MOL0     H38782   4.090   3.225   2.160  0.2716 -1.4740  0.3247
 1006MOL0     H38783   3.993   3.103   2.068  1.9533 -1.7066 -0.4712
 1006MOL0     H38784   4.186   3.063   1.924  4.0069  0.8488 -0.8591
 1006MOL0     H38785   4.246   3.234   1.960 -0.7787  0.8057  1.4077
 1006MOL0     H38786   4.436   3.179   1.901  2.1452  1.6533  1.5006
 1006MOL0     H38787   4.768   3.200   1.859  2.0732 -1.2966 -2.5736
 1006MOL0     H38788   4.627   3.190   1.753  1.2872  0.9284 -0.3887
 1006MOL0     H38789   4.730   3.062   1.753  0.7553  1.3936 -0.6828
 1006MOL0     H38790   5.008   2.692   2.203  1.2527 -0.9864 -1.2612
 1006MOL0     H38791   5.250   2.667   2.232 -1.2342 -0.2963  1.6307
 1006MOL0     H38792   5.523   3.033   2.176 -1.5134  1.1717 -1.9273
 1006MOL0     H38793   5.625   2.879   2.185 -0.6701 -2.4209 -0.9248
 1006MOL0     H38794   5.484   2.838   1.953 -0.5614 -0.1479 -0.0415
 1006MOL0     H38795   5.471   3.010   1.975  1.3258  0.1862 -0.3937
 1006MOL0     H38796   5.633   3.005   1.829 -1.7738 -2.6032 -0.5337
 1006MOL0     H38797   5.711   2.858   1.891 -1.3680 -0.0299 -1.3946
 1006MOL0     H38798   5.800   2.983   2.091  0.4564  1.5818  0.7050
 1006MOL0     H38799   5.726   3.129   2.031  0.6131  0.2225  1.5926
 1006MOL0     H38800   5.953   2.968   1.899  0.8052  0.7838 -1.6093
 1006MOL0     H38801   5.870   3.110   1.833  0.1856  0.9803  0.5160
 1006MOL0     H38802   6.012   3.084   2.109 -0.8825  1.5321  0.6658
 1006MOL0     H38803   5.935   3.235   2.059 -2.6674 -1.1444  0.2998
 1006MOL0     H38804   6.079   3.233   1.848 -2.6987  0.0491  0.6668
 1006MOL0     H38805   6.175   3.111   1.934 -1.7497 -1.4691  0.8352
 1006MOL0     H38806   6.266   3.238   2.099 -1.2768 -2.5103 -0.9408
 1006MOL0     H38807   6.147   3.373   2.079 -1.9794 -0.3510 -0.0966
 1006MOL0     H38808   5.299   3.082   2.134  0.5032 -1.3600  0.2428
 1006MOL0     H38809   5.068   3.113   2.105  0.8617  0.1911 -0.9325
 1006MOL0     H38810   4.629   2.809   2.158  0.4508 -2.0134 -2.8920
 1006MOL0     H38811   4.417   2.906   2.231  1.7338  2.5587  1.5922
 1006MOL0     H38812   2.572   3.923   2.070 -2.3041 -2.3386 -2.4074
 1006MOL0     H38813   2.431   3.772   2.209  0.2813 -0.5334 -0.8477
 1006MOL0     H38814   2.579   3.607   2.742  0.0766  0.5306 -0.3927
 1006MOL0     H38815   2.512   3.421   2.898  0.8645 -1.9102 -0.6428
 1006MOL0     H38816   2.140   3.193   2.805 -0.8962 -0.4646 -0.3617
 1006MOL0     H38817   2.172   3.145   2.969 -2.5911  0.9788  2.1159
 1006MOL0     H38818   2.037   3.414   2.887 -0.5605 -1.2156 -2.6079
 1006MOL0     H38819   2.065   3.355   3.053 -1.6616  1.0199 -0.8967
 1006MOL0     H38820   1.890   3.177   3.019  1.3209 -1.0033 -1.2152
 1006MOL0     H38821   1.835   3.344   2.988 -2.6824 -0.9618  0.1251
 1006MOL0     H38822   1.753   3.189   2.790  0.1580 -0.4934 -3.5626
 1006MOL0     H38823   1.925   3.145   2.769 -1.2101 -0.8968 -2.0691
 1006MOL0     H38824   1.884   3.526   2.581  1.0912  0.5158  1.6312
 1006MOL0     H38825   2.147   3.362   2.671  1.5340 -1.0853 -1.6763
 1006MOL0     H38826   2.175   3.397   2.432  0.7316 -0.2690 -0.3006
 1006MOL0     H38827   2.146   3.571   2.467  1.0207 -0.3561  2.5396
 1006MOL0     H38828   2.284   3.528   2.367  0.8305 -0.8530 -0.2362
 1007MOL0     O38829   5.131   7.497   4.898 -0.1009  0.2445  0.1101
 1007MOL0     C38830   5.037   7.527   4.829  0.1711  0.0448 -0.1111
 1007MOL0     O38831   5.053   7.592   4.705  0.3592 -0.1470 -0.0415
 1007MOL0     C38832   5.183   7.606   4.657  0.8717 -0.5023  0.1724
 1007MOL0     C38833   5.260   7.502   4.609  0.3647 -0.2556 -0.4544
 1007MOL0     C38834   5.396   7.521   4.578  0.9420 -0.0592 -0.1591
 1007MOL0     C38835   5.459   7.644   4.613  0.5434 -0.3931  0.3124
 1007MOL0     O38836   5.595   7.645   4.585 -0.4117 -0.0593 -0.3547
 1007MOL0     C38837   5.663   7.770   4.577 -0.3861  0.4936  0.2282
 1007MOL0     C38838   5.795   7.765   4.508 -0.5557  0.0375  0.0106
 1007MOL0     C38839   5.863   7.904   4.500  0.7558 -0.5292 -0.6605
 1007MOL0     C38840   5.989   7.911   4.590  0.0768  0.0720 -1.0199
 1007MOL0     C38841   6.081   8.023   4.556 -1.0013 -0.8054  0.2987
 1007MOL0     C38842   6.204   8.015   4.642  0.0553 -0.3491  0.6253
 1007MOL0     C38843   6.301   8.120   4.587  0.4808 -0.3794 -0.6349
 1007MOL0     C38844   6.438   8.105   4.658  0.6877 -0.3559 -0.4529
 1007MOL0     N38845   6.531   8.220   4.646  0.6008 -0.0938  0.4312
 1007MOL0     C38846   6.624   8.243   4.545  0.3185 -0.7876 -0.2604
 1007MOL0     C38847   6.696   8.340   4.588  0.6481  0.3203 -0.3022
 1007MOL0     C38848   6.816   8.401   4.514 -0.3286 -0.0484  0.2039
 1007MOL0     C38849   6.771   8.442   4.368  0.0639 -0.1055  0.4960
 1007MOL0     C38850   6.889   8.514   4.298  0.2447 -0.6481  0.2899
 1007MOL0     C38851   7.023   8.431   4.307  0.2439  0.4489  0.0008
 1007MOL0     O38852   7.109   8.480   4.201  0.3606 -0.4575 -0.2316
 1007MOL0     C38853   7.238   8.426   4.197  0.2983 -0.1583  0.2768
 1007MOL0     C38854   7.275   8.317   4.275 -0.8805  0.0149 -0.0640
 1007MOL0     C38855   7.407   8.269   4.268 -0.2974  0.8402  0.8245
 1007MOL0     C38856   7.434   8.149   4.362  0.2491  0.1337  0.4446
 1007MOL0     C38857   7.510   8.328   4.183  0.6767  0.1339 -0.1451
 1007MOL0     C38858   7.647   8.273   4.182  0.3922 -0.1338  0.3775
 1007MOL0     O38859   7.704   8.258   4.059  0.0041  0.2415  0.3002
 1007MOL0     C38860   7.825   8.198   4.046  0.4150  0.1621 -0.3253
 1007MOL0     C38861   7.834   8.061   4.032 -0.6934 -0.1261 -0.2525
 1007MOL0     C38862   7.962   8.015   4.037  0.2997  0.3413 -0.2664
 1007MOL0     C38863   8.080   8.088   4.047  0.4517  0.1373  0.4208
 1007MOL0     O38864   8.205   8.028   4.057  1.1246 -0.2888  0.3111
 1007MOL0     C38865   8.242   7.918   3.984  0.7162 -0.6298  0.2423
 1007MOL0     C38866   8.392   7.910   3.967 -0.3768 -0.6196 -0.3271
 1007MOL0     C38867   8.466   7.919   4.097  1.0435 -1.1959  0.4685
 1007MOL0     C38868   8.614   7.878   4.077  0.2445  0.0425  0.4264
 1007MOL0     C38869   8.697   7.901   4.197 -0.4431  0.0891  0.0537
 1007MOL0     C38870   8.833   7.830   4.180 -0.6731  0.0298  0.4954
 1007MOL0     C38871   8.938   7.866   4.286 -0.1372  0.4444  0.3721
 1007MOL0     C38872   9.017   7.992   4.241  0.5392 -0.2191 -0.2484
 1007MOL0    Cl38873   9.118   8.057   4.371  0.1813 -0.1732  0.1326
 1007MOL0     C38874   8.067   8.226   4.036  0.0431 -0.0819  1.4463
 1007MOL0     C38875   7.941   8.281   4.040  0.3219  0.8981 -0.3886
 1007MOL0     O38876   7.710   8.266   4.291 -0.0689  0.1103  0.1000
 1007MOL0     C38877   7.458   8.419   4.090 -0.3447 -0.6051 -0.3166
 1007MOL0     C38878   7.325   8.467   4.099 -0.8847 -0.5207 -0.0737
 1007MOL0     N38879   6.645   8.381   4.716  0.5560  0.4824  0.3304
 1007MOL0     N38880   6.530   8.321   4.733 -0.4750  0.7044 -0.7733
 1007MOL0     C38881   5.385   7.749   4.674  0.2896 -1.0596 -0.2315
 1007MOL0     C38882   5.243   7.726   4.694 -1.3993 -0.2282  0.5449
 1007MOL0     C38883   4.897   7.506   4.894 -0.0640  0.6802 -0.6770
 1007MOL0     C38884   4.784   7.515   4.811  0.3692 -0.9981 -0.4058
 1007MOL0     C38885   4.652   7.498   4.845 -0.8245 -0.3263 -0.3876
 1007MOL0     C38886   4.622   7.459   4.979 -0.3690 -0.6859  0.0859
 1007MOL0     O38887   4.502   7.429   5.035 -0.1536  0.2879  0.5931
 1007MOL0     C38888   4.385   7.446   4.958  0.3303 -0.4515 -0.5525
 1007MOL0     C38889   4.277   7.412   5.057  0.0860  0.9513 -0.0606
 1007MOL0     C38890   4.252   7.536   5.132  0.4144  0.0783  0.6694
 1007MOL0     C38891   4.133   7.518   5.237 -0.8220 -0.1994 -0.1663
 1007MOL0     C38892   4.137   7.395   5.313 -0.1172 -0.6474  0.2612
 1007MOL0     C38893   4.138   7.292   5.380  0.3472 -0.7937 -0.9122
 1007MOL0     C38894   4.732   7.447   5.069 -0.0740  0.0415  0.7161
 1007MOL0     C38895   4.868   7.451   5.027  0.3044  0.7755  0.2312
 1007MOL0     C38896   4.967   7.412   5.133 -0.1252 -0.0830  0.4724
 1007MOL0     H38897   5.206   7.412   4.580 -1.6799  1.0608 -0.9939
 1007MOL0     H38898   5.453   7.450   4.519  2.4627  1.8859 -1.1881
 1007MOL0     H38899   5.664   7.818   4.675 -0.8142 -0.3467  0.6615
 1007MOL0     H38900   5.601   7.834   4.514  1.7423  0.8801 -1.6055
 1007MOL0     H38901   5.858   7.694   4.563  0.3311 -0.0138 -1.0298
 1007MOL0     H38902   5.794   7.733   4.403 -0.8978  1.3346 -0.4041
 1007MOL0     H38903   5.895   7.922   4.397 -1.6629  1.0102 -1.2364
 1007MOL0     H38904   5.796   7.988   4.524  0.5921 -1.0934  0.9482
 1007MOL0     H38905   5.957   7.910   4.695 -0.1671 -1.6296 -1.0769
 1007MOL0     H38906   6.054   7.826   4.566 -0.3886  0.2569 -3.1186
 1007MOL0     H38907   6.038   8.123   4.568  1.8136  0.4278  0.8997
 1007MOL0     H38908   6.116   8.010   4.453 -0.8008  0.5865  0.1718
 1007MOL0     H38909   6.176   8.020   4.748  1.0263 -1.0189  0.9258
 1007MOL0     H38910   6.248   7.915   4.642 -0.2979 -0.5691 -1.6711
 1007MOL0     H38911   6.252   8.217   4.603 -0.2769 -1.0011  1.0080
 1007MOL0     H38912   6.324   8.108   4.481  2.8366 -0.9698 -0.1067
 1007MOL0     H38913   6.406   8.107   4.763  2.1025 -1.4252  0.0268
 1007MOL0     H38914   6.477   8.011   4.619  1.0000 -0.1065 -0.7437
 1007MOL0     H38915   6.654   8.197   4.451  0.2481  0.8220 -1.1214
 1007MOL0     H38916   6.895   8.325   4.513 -0.5526 -0.3883 -2.8874
 1007MOL0     H38917   6.853   8.490   4.566 -0.0133 -0.4001  0.5899
 1007MOL0     H38918   6.732   8.357   4.311 -0.3452  0.3700  0.0520
 1007MOL0     H38919   6.688   8.511   4.381 -0.7191 -0.3552 -2.3791
 1007MOL0     H38920   6.866   8.528   4.192  0.0962 -1.3322  0.2343
 1007MOL0     H38921   6.916   8.614   4.333 -1.8360  0.1340 -0.1733
 1007MOL0     H38922   7.066   8.439   4.408  0.3901 -2.0268  0.2035
 1007MOL0     H38923   7.001   8.325   4.295 -0.9947  0.6412  0.4247
 1007MOL0     H38924   7.209   8.280   4.353 -0.5051  1.3305  0.9099
 1007MOL0     H38925   7.457   8.058   4.305 -1.3332 -0.8087  1.2616
 1007MOL0     H38926   7.344   8.126   4.419 -1.2184 -1.4441 -2.2751
 1007MOL0     H38927   7.516   8.172   4.431 -0.9582  0.2253  1.8757
 1007MOL0     H38928   7.749   7.995   4.042 -0.2743 -0.4026  1.9331
 1007MOL0     H38929   7.967   7.906   4.039 -1.3866  0.1799 -1.7845
 1007MOL0     H38930   8.211   7.823   4.028  0.9800 -1.1930 -0.7695
 1007MOL0     H38931   8.202   7.930   3.883 -0.1702 -2.2040  0.3793
 1007MOL0     H38932   8.411   7.814   3.920 -0.7016  0.4429 -2.8022
 1007MOL0     H38933   8.421   7.986   3.894 -0.4055 -1.9507 -1.7814
 1007MOL0     H38934   8.422   7.857   4.175  1.6273 -1.1507  0.8441
 1007MOL0     H38935   8.457   8.022   4.133 -2.1685 -0.2878 -2.4174
 1007MOL0     H38936   8.648   7.929   3.987  0.6920 -2.2626 -0.7877
 1007MOL0     H38937   8.619   7.774   4.045  1.3695  0.1269  0.2717
 1007MOL0     H38938   8.703   8.008   4.220 -1.6824  0.2299 -0.2192
 1007MOL0     H38939   8.631   7.857   4.272 -1.8053 -1.2068 -1.8185
 1007MOL0     H38940   8.876   7.852   4.082 -0.1561 -0.0615  0.7000
 1007MOL0     H38941   8.822   7.722   4.190 -0.6487 -0.4206 -3.1840
 1007MOL0     H38942   9.013   7.785   4.283 -1.5448 -0.8665 -1.2885
 1007MOL0     H38943   8.890   7.885   4.382 -1.9463 -0.8306 -0.2311
 1007MOL0     H38944   8.940   8.065   4.216  0.3493 -0.8562 -1.6186
 1007MOL0     H38945   9.069   7.966   4.148 -1.9923 -3.3723 -0.9901
 1007MOL0     H38946   8.154   8.292   4.033  3.0419 -3.6813  2.0329
 1007MOL0     H38947   7.941   8.389   4.025 -0.1186  0.9493 -0.0503
 1007MOL0     H38948   7.525   8.469   4.021 -0.5848 -0.5959 -0.5456
 1007MOL0     H38949   7.296   8.542   4.025  1.5907 -0.7742 -1.4014
 1007MOL0     H38950   5.450   7.835   4.684  2.5943 -2.5188 -1.6466
 1007MOL0     H38951   5.187   7.803   4.746  2.2604  1.5439  2.2726
 1007MOL0     H38952   4.799   7.542   4.707  0.9606  0.4359  0.0262
 1007MOL0     H38953   4.578   7.515   4.768 -0.6240  1.6592 -0.2060
 1007MOL0     H38954   4.378   7.547   4.917 -0.1205 -0.5831 -0.8065
 1007MOL0     H38955   4.390   7.377   4.873  0.6240 -1.0426 -0.0683
 1007MOL0     H38956   4.311   7.328   5.118  0.2962 -0.7405 -2.3684
 1007MOL0     H38957   4.186   7.366   5.017  0.8843 -0.8281  0.0442
 1007MOL0     H38958   4.335   7.577   5.190  0.3091 -1.4201  1.9412
 1007MOL0     H38959   4.224   7.615   5.061 -0.9452 -0.7158  0.2773
 1007MOL0     H38960   4.037   7.534   5.187 -1.1830  0.9871  0.8428
 1007MOL0     H38961   4.140   7.603   5.306  0.2480 -1.1850  0.9693
 1007MOL0     H38962   4.141   7.202   5.438 -1.1931 -1.0751 -1.2463
 1007MOL0     H38963   4.706   7.417   5.170  0.4420  0.1705  0.8890
 1007MOL0     H38964   4.941   7.472   5.221 -0.3409  1.2902 -0.4937
 1007MOL0     H38965   4.957   7.306   5.158  0.0245  0.2905  2.2500
 1007MOL0     H38966   5.072   7.438   5.115  0.2495 -2.5760 -1.4238
 1008MOL0     O38967   2.287   8.598   7.174 -0.2197  0.2117  0.3492
 1008MOL0     C38968   2.191   8.518   7.169  0.1414 -0.0093  1.0275
 1008MOL0     O38969   2.200   8.378   7.189 -0.1351  0.2351 -0.1606
 1008MOL0     C38970   2.320   8.319   7.238  0.2505 -0.0150 -0.2789
 1008MOL0     C38971   2.372   8.206   7.173  0.3691 -0.2160 -0.3164
 1008MOL0     C38972   2.502   8.159   7.195 -0.2877 -0.1111 -0.2530
 1008MOL0     C38973   2.583   8.212   7.294  1.1366 -0.1427  0.6199
 1008MOL0     O38974   2.703   8.143   7.307  0.2541 -0.2277 -0.1863
 1008MOL0     C38975   2.803   8.236   7.332 -0.9605 -0.6906 -0.1248
 1008MOL0     C38976   2.929   8.211   7.250  0.4722  0.5760  0.5792
 1008MOL0     C38977   3.038   8.316   7.258 -0.1036 -0.9561 -0.7567
 1008MOL0     C38978   3.159   8.263   7.187 -0.5379 -0.1875  0.8050
 1008MOL0     C38979   3.272   8.372   7.198  0.4190  0.8168  0.6661
 1008MOL0     C38980   3.389   8.312   7.115  0.4839 -0.1008 -0.6467
 1008MOL0     C38981   3.524   8.387   7.129  0.1598  0.0528  1.3615
 1008MOL0     C38982   3.536   8.513   7.046  0.1201 -0.5035  0.0135
 1008MOL0     N38983   3.658   8.585   7.082 -0.0715 -0.2881  0.5040
 1008MOL0     C38984   3.673   8.712   7.141 -0.4049  0.3581  0.2613
 1008MOL0     C38985   3.801   8.736   7.133 -0.7485  0.2285  0.3407
 1008MOL0     C38986   3.862   8.870   7.178 -0.2407  0.3505 -0.2946
 1008MOL0     C38987   4.015   8.877   7.179 -0.5728 -0.0910 -1.0422
 1008MOL0     C38988   4.064   8.808   7.316  0.1089 -0.0457 -0.1385
 1008MOL0     C38989   4.213   8.823   7.358  0.2243 -0.3758  0.4379
 1008MOL0     O38990   4.271   8.930   7.289 -0.0680 -0.1790 -0.1160
 1008MOL0     C38991   4.404   8.935   7.275  0.1544 -0.5599 -0.5523
 1008MOL0     C38992   4.463   9.027   7.189  0.1111  0.2367 -0.3605
 1008MOL0     C38993   4.605   9.042   7.182 -0.2159  0.3619 -0.4107
 1008MOL0     C38994   4.664   9.138   7.088  0.2640  0.6769  0.2581
 1008MOL0     C38995   4.685   8.967   7.267 -0.5411 -0.3819 -0.5434
 1008MOL0     C38996   4.834   8.979   7.274 -0.2221 -0.1174  0.3959
 1008MOL0     O38997   4.884   9.098   7.261  0.2855 -0.1876 -0.2910
 1008MOL0     C38998   5.020   9.109   7.230  0.4320  0.1762  0.8365
 1008MOL0     C38999   5.106   9.173   7.320 -0.0615  0.1177 -0.1146
 1008MOL0     C39000   5.242   9.181   7.296 -0.4795  0.7208 -0.4531
 1008MOL0     C39001   5.301   9.123   7.184  0.2776 -0.7723 -0.3199
 1008MOL0     O39002   5.436   9.136   7.173  0.5513 -0.1939  0.1970
 1008MOL0     C39003   5.503   9.009   7.176  0.1047  0.0318 -0.0755
 1008MOL0     C39004   5.655   9.036   7.183 -0.1133  0.4984 -0.1559
 1008MOL0     C39005   5.743   8.914   7.196  0.9339  0.3674  0.3541
 1008MOL0     C39006   5.871   8.937   7.134 -0.1230  0.5245 -0.0605
 1008MOL0     C39007   5.971   8.821   7.166 -0.1789  0.3677  0.4440
 1008MOL0     C39008   6.119   8.868   7.126  0.3882 -0.0518 -0.8406
 1008MOL0     C39009   6.207   8.753   7.074  0.1012  0.4504  0.2975
 1008MOL0     C39010   6.357   8.787   7.076 -0.7774 -0.0339  0.5075
 1008MOL0    Cl39011   6.393   8.921   6.962  0.1927  0.1261 -0.1563
 1008MOL0     C39012   5.218   9.059   7.091  0.4266 -0.3006 -0.6007
 1008MOL0     C39013   5.080   9.052   7.113  0.2448  0.8667  0.0106
 1008MOL0     O39014   4.895   8.875   7.296  0.2135 -0.3694  0.1891
 1008MOL0     C39015   4.629   8.875   7.358  1.0533  0.8777 -0.3784
 1008MOL0     C39016   4.490   8.847   7.356 -0.0203  0.5257 -0.0824
 1008MOL0     N39017   3.863   8.624   7.083  0.1563 -0.4812  0.5666
 1008MOL0     N39018   3.778   8.535   7.057  0.5576  0.2407  0.1099
 1008MOL0     C39019   2.521   8.316   7.369  0.5372  0.1313  0.7700
 1008MOL0     C39020   2.398   8.378   7.339 -0.2324  0.4756  0.2206
 1008MOL0     C39021   2.057   8.554   7.106  0.4815  0.1061 -0.0637
 1008MOL0     C39022   1.987   8.457   7.034 -0.7169  0.2233 -0.1838
 1008MOL0     C39023   1.868   8.494   6.964 -1.0670 -0.5444 -1.1982
 1008MOL0     C39024   1.817   8.625   6.983 -0.5187  0.2670  0.7335
 1008MOL0     O39025   1.699   8.646   6.923  1.0176  0.8490  0.3687
 1008MOL0     C39026   1.625   8.763   6.971  0.3264 -1.0647  0.3198
 1008MOL0     C39027   1.493   8.785   6.899  0.3711  0.1378  1.6057
 1008MOL0     C39028   1.534   8.790   6.745 -0.0513  0.0321 -0.0539
 1008MOL0     C39029   1.422   8.851   6.662  0.1780 -0.8152  0.0766
 1008MOL0     C39030   1.296   8.771   6.662 -0.6798  0.0563  0.0741
 1008MOL0     C39031   1.195   8.709   6.668  1.1076 -0.8031 -0.4178
 1008MOL0     C39032   1.882   8.709   7.073  0.5053  0.4396 -0.4945
 1008MOL0     C39033   1.998   8.680   7.131 -0.0092  0.7939  0.4295
 1008MOL0     C39034   2.062   8.780   7.224 -0.4464  0.5693  0.4805
 1008MOL0     H39035   2.301   8.159   7.106  1.3020 -1.1940 -0.6451
 1008MOL0     H39036   2.535   8.073   7.137 -1.0938  0.8379 -2.2076
 1008MOL0     H39037   2.827   8.231   7.438 -1.9201  0.6828  0.1848
 1008MOL0     H39038   2.781   8.340   7.307  2.4419  0.1752 -0.0035
 1008MOL0     H39039   2.973   8.112   7.265  1.4881  0.5119 -2.2408
 1008MOL0     H39040   2.893   8.210   7.147  1.1885  3.1739  0.2399
 1008MOL0     H39041   3.001   8.408   7.211 -1.0330 -0.6820  0.4573
 1008MOL0     H39042   3.060   8.343   7.362  3.9003 -1.2737 -1.3625
 1008MOL0     H39043   3.191   8.167   7.229  0.9227 -0.2305 -0.3259
 1008MOL0     H39044   3.138   8.256   7.080 -2.0317 -1.5799  1.1435
 1008MOL0     H39045   3.305   8.385   7.302  1.2336  0.3037  0.4838
 1008MOL0     H39046   3.234   8.465   7.155  2.0179  0.6659 -1.1715
 1008MOL0     H39047   3.402   8.210   7.152  1.0075 -0.7560 -2.4928
 1008MOL0     H39048   3.360   8.302   7.010 -1.4879 -1.8527  0.0008
 1008MOL0     H39049   3.594   8.307   7.102 -3.0569 -2.4662 -0.2193
 1008MOL0     H39050   3.538   8.407   7.236  2.8602 -3.8563  1.9581
 1008MOL0     H39051   3.541   8.493   6.938 -0.3780  1.0749 -0.3328
 1008MOL0     H39052   3.455   8.582   7.072  1.3941  0.6234  1.0809
 1008MOL0     H39053   3.599   8.776   7.187  0.2917  1.3234  0.0892
 1008MOL0     H39054   3.826   8.892   7.279  1.0653 -0.0128  0.2657
 1008MOL0     H39055   3.815   8.942   7.111 -2.3560 -0.5585  0.1160
 1008MOL0     H39056   4.061   8.836   7.089  1.0144  0.6338 -0.5884
 1008MOL0     H39057   4.041   8.983   7.180  2.2036 -0.6128 -3.9630
 1008MOL0     H39058   4.006   8.844   7.401 -1.0334 -1.7479 -0.1417
 1008MOL0     H39059   4.055   8.700   7.300 -0.9811 -0.2159  1.4212
 1008MOL0     H39060   4.230   8.839   7.465 -1.3990  3.2085  0.2873
 1008MOL0     H39061   4.255   8.724   7.337 -0.8318 -0.7929  0.2244
 1008MOL0     H39062   4.401   9.078   7.116 -0.8897 -2.7076 -1.7301
 1008MOL0     H39063   4.768   9.119   7.060  1.0090 -0.6092  3.4547
 1008MOL0     H39064   4.659   9.237   7.135 -2.2237  0.2729  1.0310
 1008MOL0     H39065   4.597   9.144   7.001  1.3209 -0.3627 -0.6614
 1008MOL0     H39066   5.056   9.218   7.405  0.1703 -0.4259  0.3184
 1008MOL0     H39067   5.305   9.228   7.371  0.7427 -0.6397 -0.6001
 1008MOL0     H39068   5.469   8.966   7.271  0.4462 -1.8315 -0.7647
 1008MOL0     H39069   5.486   8.942   7.092  2.5833  0.9694 -1.4362
 1008MOL0     H39070   5.682   9.094   7.094 -1.3207  1.3243 -0.0042
 1008MOL0     H39071   5.673   9.087   7.278 -1.2513  0.5208  0.0624
 1008MOL0     H39072   5.696   8.827   7.149  1.4498 -0.3402  1.1180
 1008MOL0     H39073   5.753   8.890   7.302  0.7613 -1.0231  0.0669
 1008MOL0     H39074   5.904   9.035   7.170  0.2069  1.7216 -3.2463
 1008MOL0     H39075   5.851   8.935   7.026  0.3134 -2.7014 -0.1805
 1008MOL0     H39076   5.957   8.780   7.266  1.3848 -1.4035  0.0186
 1008MOL0     H39077   5.952   8.739   7.096  2.0615  0.3544 -0.2343
 1008MOL0     H39078   6.143   8.904   7.227 -1.9225 -0.4530 -0.0817
 1008MOL0     H39079   6.113   8.949   7.052 -0.5363  0.0393 -0.6791
 1008MOL0     H39080   6.174   8.716   6.976  0.4559 -0.9137  0.6690
 1008MOL0     H39081   6.201   8.661   7.132 -1.4842  0.3835  0.0926
 1008MOL0     H39082   6.420   8.698   7.071 -2.4214 -1.2284  0.2355
 1008MOL0     H39083   6.366   8.840   7.171 -1.8094  0.8681  0.1247
 1008MOL0     H39084   5.256   9.012   7.001 -1.0989  0.7359 -1.8317
 1008MOL0     H39085   5.024   8.989   7.045 -0.0867  1.0588  0.1036
 1008MOL0     H39086   4.685   8.817   7.431 -0.0658  0.7611  0.4159
 1008MOL0     H39087   4.437   8.782   7.425 -1.9837  0.2554 -1.7319
 1008MOL0     H39088   2.568   8.349   7.462 -0.2297  0.6511  0.9833
 1008MOL0     H39089   2.351   8.456   7.397  0.1179  1.7318 -1.1354
 1008MOL0     H39090   2.035   8.362   7.016  1.6089  1.3855 -0.5144
 1008MOL0     H39091   1.800   8.426   6.913 -1.3119 -0.6792 -0.6919
 1008MOL0     H39092   1.601   8.761   7.077  1.6395 -0.3742  0.6499
 1008MOL0     H39093   1.689   8.851   6.955 -1.5241  0.1951 -0.4958
 1008MOL0     H39094   1.445   8.874   6.940  1.2099  0.7503  1.2875
 1008MOL0     H39095   1.417   8.709   6.918  0.4098 -0.2841  0.2100
 1008MOL0     H39096   1.627   8.847   6.734  0.3232 -0.2173  1.5776
 1008MOL0     H39097   1.544   8.688   6.706  0.4700 -0.9132  2.3704
 1008MOL0     H39098   1.450   8.883   6.561  0.3495 -0.0367  0.3650
 1008MOL0     H39099   1.395   8.942   6.716  1.0397  0.5087 -1.6107
 1008MOL0     H39100   1.101   8.665   6.697  1.8408 -0.7380  2.3826
 1008MOL0     H39101   1.845   8.806   7.105 -0.3492 -0.3206  0.9625
 1008MOL0     H39102   2.095   8.732   7.316  1.6375  2.6361  0.8986
 1008MOL0     H39103   2.157   8.804   7.174 -0.1914 -2.7403 -0.9158
 1008MOL0     H39104   2.004   8.869   7.249 -2.4380 -0.7756  0.8638
 1009MOL0     O39105   1.498   5.410   2.571 -0.5221  0.0270  1.1103
 1009MOL0     C39106   1.442   5.520   2.585  0.2233 -0.2520 -0.0050
 1009MOL0     O39107   1.499   5.644   2.578  0.2263 -0.1813 -0.4378
 1009MOL0     C39108   1.618   5.648   2.522  0.2696 -0.4431  0.1383
 1009MOL0     C39109   1.623   5.701   2.386  0.5726 -0.4871  0.7371
 1009MOL0     C39110   1.740   5.727   2.325 -0.3452  0.0850  0.4610
 1009MOL0     C39111   1.858   5.699   2.393 -0.1921  0.1665  0.2628
 1009MOL0     O39112   1.970   5.728   2.336 -0.4325 -0.2626 -0.2613
 1009MOL0     C39113   2.081   5.630   2.344  0.3659  0.0712  0.2952
 1009MOL0     C39114   2.174   5.652   2.222  0.1337  0.6961 -0.2173
 1009MOL0     C39115   2.324   5.687   2.249  1.3536 -0.2078 -0.4669
 1009MOL0     C39116   2.390   5.739   2.111  0.6148  0.0512  0.5855
 1009MOL0     C39117   2.537   5.745   2.090  0.0128 -0.7125 -0.2952
 1009MOL0     C39118   2.599   5.602   2.106  0.0578  0.2815  0.4897
 1009MOL0     C39119   2.745   5.605   2.076 -0.7049 -1.1437  1.0121
 1009MOL0     C39120   2.825   5.681   2.186  0.7594 -0.3652 -0.1985
 1009MOL0     N39121   2.960   5.639   2.200  0.4735 -0.2251  0.0061
 1009MOL0     C39122   3.056   5.640   2.103 -0.4661  0.4693 -0.4952
 1009MOL0     C39123   3.162   5.573   2.160 -0.5912  0.0184  0.3476
 1009MOL0     C39124   3.304   5.561   2.109 -0.0160 -0.3981 -0.2216
 1009MOL0     C39125   3.407   5.649   2.177 -0.4456 -0.3696  0.5061
 1009MOL0     C39126   3.550   5.628   2.132 -0.2453  0.4548  0.4559
 1009MOL0     C39127   3.650   5.716   2.194 -1.0844 -0.3336 -0.1891
 1009MOL0     O39128   3.777   5.677   2.144 -0.7507  0.3043 -0.4113
 1009MOL0     C39129   3.888   5.747   2.183  0.2992 -0.3806 -0.0058
 1009MOL0     C39130   3.881   5.856   2.271 -0.6468 -0.3841  0.4661
 1009MOL0     C39131   4.001   5.911   2.331  0.0529  0.0343 -0.3901
 1009MOL0     C39132   3.970   6.008   2.449  0.5264  0.2007 -0.0216
 1009MOL0     C39133   4.128   5.862   2.292  0.6631 -0.3270 -0.2296
 1009MOL0     C39134   4.250   5.924   2.326 -0.5535 -0.0526 -0.3980
 1009MOL0     O39135   4.363   5.882   2.257 -0.2921  0.4446 -0.1795
 1009MOL0     C39136   4.488   5.913   2.315 -0.1540 -0.0423 -0.0542
 1009MOL0     C39137   4.583   5.951   2.220 -0.1880  0.0484  0.3796
 1009MOL0     C39138   4.712   5.990   2.262  0.4473 -0.2192 -0.5533
 1009MOL0     C39139   4.750   5.977   2.392 -0.4430 -0.8681  0.4911
 1009MOL0     O39140   4.882   5.999   2.430 -0.5424  0.1499  0.2209
 1009MOL0     C39141   4.974   5.954   2.338 -0.0444  0.8668 -0.1040
 1009MOL0     C39142   5.104   5.951   2.401 -0.2802  0.9122 -0.2824
 1009MOL0     C39143   5.207   5.900   2.303 -0.3897 -0.5035  0.0710
 1009MOL0     C39144   5.341   5.900   2.374 -0.2853  0.0345  0.1468
 1009MOL0     C39145   5.440   5.813   2.290  0.1020  0.6639  0.8011
 1009MOL0     C39146   5.574   5.827   2.340 -0.9138  0.4615  0.2395
 1009MOL0     C39147   5.686   5.740   2.277 -0.6201  0.3262 -0.1649
 1009MOL0     C39148   5.832   5.768   2.327 -0.1071  0.6657  0.0381
 1009MOL0    Cl39149   5.857   5.726   2.501 -0.0737 -0.3944 -0.1897
 1009MOL0     C39150   4.656   5.923   2.490 -0.4242 -0.6583  0.2423
 1009MOL0     C39151   4.526   5.897   2.446 -0.1758 -0.5148 -1.2521
 1009MOL0     O39152   4.254   6.020   2.403  0.0549 -0.0989 -0.1104
 1009MOL0     C39153   4.137   5.757   2.197 -0.0529 -0.0266  0.5112
 1009MOL0     C39154   4.019   5.701   2.144 -0.1269  0.0043 -0.1243
 1009MOL0     N39155   3.125   5.540   2.281  0.1761  0.5122 -0.6508
 1009MOL0     N39156   3.008   5.577   2.307  0.4081 -0.7613 -0.0018
 1009MOL0     C39157   1.855   5.647   2.529 -0.2915  0.3574  0.7562
 1009MOL0     C39158   1.733   5.605   2.587 -0.1044  0.5276 -1.1541
 1009MOL0     C39159   1.299   5.516   2.620 -0.0135  0.8129 -0.2390
 1009MOL0     C39160   1.251   5.403   2.693  0.1714 -0.6670  0.2502
 1009MOL0     C39161   1.111   5.388   2.735 -0.4056 -0.7481 -0.4660
 1009MOL0     C39162   1.025   5.492   2.711 -0.1336 -0.2585 -0.3553
 1009MOL0     O39163   0.891   5.465   2.739 -0.1108 -0.0749  0.2905
 1009MOL0     C39164   0.795   5.505   2.644  0.9475 -0.8734  0.2821
 1009MOL0     C39165   0.713   5.389   2.592  0.2150  0.4852 -0.4057
 1009MOL0     C39166   0.652   5.306   2.710 -1.0777 -0.4053 -0.0655
 1009MOL0     C39167   0.524   5.234   2.694  0.9326  0.1453  0.2631
 1009MOL0     C39168   0.413   5.328   2.707 -0.2449 -0.4305 -0.2304
 1009MOL0     C39169   0.319   5.404   2.703  0.3609  0.3620  0.9983
 1009MOL0     C39170   1.065   5.606   2.647 -0.0622 -0.0015  0.8287
 1009MOL0     C39171   1.203   5.616   2.597 -0.1059 -0.6635  0.4439
 1009MOL0     C39172   1.238   5.750   2.536  0.0999 -0.2005 -0.1873
 1009MOL0     H39173   1.533   5.718   2.327 -0.1601 -0.1774  1.9249
 1009MOL0     H39174   1.739   5.765   2.223  0.0057 -0.5646  0.2104
 1009MOL0     H39175   2.043   5.530   2.363 -1.2156  0.9958  2.3526
 1009MOL0     H39176   2.142   5.653   2.432  2.3247  3.1936 -1.6663
 1009MOL0     H39177   2.176   5.561   2.162  0.6077 -1.0543  2.3067
 1009MOL0     H39178   2.131   5.737   2.168 -1.3383 -0.1915 -0.5118
 1009MOL0     H39179   2.329   5.764   2.327 -0.4427 -0.2295 -0.2682
 1009MOL0     H39180   2.374   5.596   2.283 -1.8332 -1.5632  1.0568
 1009MOL0     H39181   2.357   5.669   2.033  1.0070  0.8302 -0.3009
 1009MOL0     H39182   2.354   5.840   2.091  1.6528  0.6100  1.4300
 1009MOL0     H39183   2.577   5.817   2.161 -0.9082  0.5822 -1.0565
 1009MOL0     H39184   2.569   5.783   1.993  0.9529  0.0080  0.2894
 1009MOL0     H39185   2.574   5.562   2.205  0.0600 -0.8091  0.0660
 1009MOL0     H39186   2.552   5.532   2.036  1.1926 -0.9668  0.9391
 1009MOL0     H39187   2.779   5.660   1.988  1.5654  0.6595  2.8995
 1009MOL0     H39188   2.791   5.505   2.072  4.1240  0.7012  2.9186
 1009MOL0     H39189   2.812   5.787   2.164 -2.2257 -0.7972 -1.0055
 1009MOL0     H39190   2.783   5.661   2.286 -1.1245  2.1715 -0.3720
 1009MOL0     H39191   3.070   5.689   2.007  1.0867 -3.1526 -2.2743
 1009MOL0     H39192   3.309   5.580   2.001  1.2501  0.5216 -0.0212
 1009MOL0     H39193   3.336   5.459   2.129  0.4816 -0.4971 -1.4303
 1009MOL0     H39194   3.382   5.755   2.168  0.2290 -0.2314  0.2242
 1009MOL0     H39195   3.409   5.622   2.283  1.1389 -0.2858  0.5247
 1009MOL0     H39196   3.574   5.525   2.157  0.3020  0.3618 -0.3849
 1009MOL0     H39197   3.564   5.646   2.025 -1.3708 -2.7803 -0.3541
 1009MOL0     H39198   3.627   5.821   2.176 -0.4926 -0.1488  0.1275
 1009MOL0     H39199   3.644   5.702   2.302 -0.1833  2.5953  0.3353
 1009MOL0     H39200   3.787   5.888   2.314 -0.5444  1.5087 -0.5978
 1009MOL0     H39201   4.027   5.991   2.541 -0.9239  3.6236  1.7135
 1009MOL0     H39202   3.864   6.027   2.469  0.9128  1.8907  0.5693
 1009MOL0     H39203   4.009   6.106   2.420 -3.2395  1.3845 -1.6358
 1009MOL0     H39204   4.553   5.965   2.116 -0.7761 -1.4154  0.3347
 1009MOL0     H39205   4.781   6.013   2.181 -0.1122 -0.6478 -1.1653
 1009MOL0     H39206   4.950   5.850   2.316  0.2968  0.5611  0.9234
 1009MOL0     H39207   4.973   6.019   2.250  0.2808  3.3512  1.6292
 1009MOL0     H39208   5.120   6.048   2.451  0.8584  0.8902 -0.5687
 1009MOL0     H39209   5.104   5.874   2.479 -0.0062  0.9311 -0.2604
 1009MOL0     H39210   5.209   5.964   2.214 -2.0784 -2.4980 -1.4872
 1009MOL0     H39211   5.180   5.798   2.275 -0.0874 -0.3987 -0.6061
 1009MOL0     H39212   5.330   5.850   2.471  2.6895 -3.7705 -1.2579
 1009MOL0     H39213   5.381   6.001   2.389 -1.3103  0.4300  0.3293
 1009MOL0     H39214   5.400   5.713   2.309 -1.0793  0.8584 -0.4558
 1009MOL0     H39215   5.430   5.830   2.183 -0.7177 -2.1623  0.3388
 1009MOL0     H39216   5.565   5.816   2.448  1.7912 -0.4215  0.4465
 1009MOL0     H39217   5.607   5.930   2.324  2.8556 -0.2918  2.1863
 1009MOL0     H39218   5.682   5.748   2.168 -0.4078 -0.1538 -0.2119
 1009MOL0     H39219   5.673   5.634   2.298 -1.6828  0.4482 -0.1852
 1009MOL0     H39220   5.865   5.871   2.309  0.0147  0.4018 -1.2823
 1009MOL0     H39221   5.900   5.709   2.265  0.7259  1.1255  0.4865
 1009MOL0     H39222   4.692   5.914   2.592  0.1749 -0.1681  0.0830
 1009MOL0     H39223   4.451   5.862   2.517 -0.9249 -0.8015 -2.1679
 1009MOL0     H39224   4.235   5.729   2.159 -0.3878 -0.6541  0.0964
 1009MOL0     H39225   4.031   5.629   2.063  0.5246 -2.6233  2.1386
 1009MOL0     H39226   1.949   5.633   2.582  1.6289 -1.0789 -2.7036
 1009MOL0     H39227   1.724   5.570   2.689 -0.8201 -0.8201 -1.6453
 1009MOL0     H39228   1.316   5.318   2.711 -1.2880 -1.7183  0.7322
 1009MOL0     H39229   1.066   5.301   2.783 -3.3777  1.8243  1.8450
 1009MOL0     H39230   0.727   5.581   2.683  1.9912  1.0485 -1.4036
 1009MOL0     H39231   0.840   5.554   2.557 -1.4972 -1.1925 -1.2528
 1009MOL0     H39232   0.781   5.320   2.542 -0.3397  0.2447 -0.8285
 1009MOL0     H39233   0.635   5.419   2.522 -0.2560  0.9872  0.3201
 1009MOL0     H39234   0.725   5.230   2.739 -0.8403  0.1167  0.7533
 1009MOL0     H39235   0.649   5.365   2.802  0.5972  1.4206 -1.1044
 1009MOL0     H39236   0.518   5.163   2.777  1.2592 -0.0309  0.1394
 1009MOL0     H39237   0.530   5.191   2.593 -2.3903  1.3291 -0.5621
 1009MOL0     H39238   0.230   5.463   2.690  0.0189 -0.7287 -2.7092
 1009MOL0     H39239   1.005   5.696   2.641  0.7899  0.5743  0.6364
 1009MOL0     H39240   1.158   5.823   2.524  2.7872  3.1445  0.8163
 1009MOL0     H39241   1.309   5.804   2.599  1.5262 -1.1593 -0.9336
 1009MOL0     H39242   1.294   5.734   2.444  1.4213 -1.0659  0.7136
 1010MOL0     O39243  10.373  10.853   9.264 -0.4928 -0.2096  0.8947
 1010MOL0     C39244  10.352  10.946   9.183 -0.4393  1.0665  0.4696
 1010MOL0     O39245  10.447  11.019   9.117  0.4273  0.0610  0.1367
 1010MOL0     C39246  10.578  10.987   9.110 -0.7147 -1.5581 -0.0065
 1010MOL0     C39247  10.657  10.999   8.991 -0.0503 -1.0758  0.3145
 1010MOL0     C39248  10.794  10.990   8.993 -0.3707 -0.3568  0.4322
 1010MOL0     C39249  10.859  10.945   9.107  0.4229  0.0595  0.1346
 1010MOL0     O39250  10.991  10.919   9.114 -0.1501 -0.3242 -0.1982
 1010MOL0     C39251  11.081  11.023   9.061  0.3705 -0.5388 -0.3545
 1010MOL0     C39252  11.226  10.982   9.074  0.1091 -0.0431 -0.4695
 1010MOL0     C39253  11.264  10.852   9.009  0.7783  0.3155 -0.6902
 1010MOL0     C39254  11.410  10.821   9.016 -0.2591 -0.0764  0.0413
 1010MOL0     C39255  11.428  10.688   8.939 -1.0179  0.8401 -0.4267
 1010MOL0     C39256  11.567  10.631   8.925 -0.0039 -0.0320 -0.1024
 1010MOL0     C39257  11.630  10.597   9.066 -0.1480  0.7315 -0.6691
 1010MOL0     C39258  11.734  10.481   9.074  0.2642  0.2425  0.2728
 1010MOL0     N39259  11.864  10.511   9.009 -0.0300 -0.0028 -0.7250
 1010MOL0     C39260  11.937  10.628   9.010 -0.4925 -0.3539 -0.3303
 1010MOL0     C39261  12.051  10.599   8.941  0.0868 -0.2351 -0.8243
 1010MOL0     C39262  12.165  10.695   8.913 -0.0817 -0.3496 -0.1567
 1010MOL0     C39263  12.159  10.721   8.766 -0.4016 -0.1320 -1.0513
 1010MOL0     C39264  12.289  10.780   8.723 -0.2397  0.2566 -0.4493
 1010MOL0     C39265  12.326  10.913   8.790 -0.3556 -0.4604 -0.3379
 1010MOL0     O39266  12.452  10.964   8.743 -0.4731  0.1689  0.1264
 1010MOL0     C39267  12.574  10.928   8.798  0.2144  1.0923  0.0478
 1010MOL0     C39268  12.593  10.839   8.911 -0.2540  0.5004 -0.7171
 1010MOL0     C39269  12.724  10.806   8.958  0.2311 -0.1985  0.7562
 1010MOL0     C39270  12.734  10.715   9.065 -0.3763  0.7271  0.3137
 1010MOL0     C39271  12.837  10.860   8.883 -0.1906 -0.3101  0.0121
 1010MOL0     C39272  12.980  10.850   8.919  0.5496 -0.0364  0.4585
 1010MOL0     O39273  13.059  10.961   8.895  0.1075 -0.4466 -0.6704
 1010MOL0     C39274  13.194  10.963   8.926 -0.2409 -0.4820  0.1741
 1010MOL0     C39275  13.294  10.944   8.832 -0.2377  0.5780 -0.2669
 1010MOL0     C39276  13.430  10.943   8.858  0.2447 -0.3766  0.2302
 1010MOL0     C39277  13.478  10.962   8.987  0.3096  0.6369  0.1845
 1010MOL0     O39278  13.615  10.955   9.000  0.5875  0.1842 -0.0349
 1010MOL0     C39279  13.671  10.969   9.129  0.3543  0.3732 -0.5418
 1010MOL0     C39280  13.819  10.990   9.115 -0.2096  0.4993  0.2903
 1010MOL0     C39281  13.906  10.867   9.077  0.9488  0.1560 -0.7852
 1010MOL0     C39282  14.053  10.897   9.081 -0.3128  0.2931 -0.1489
 1010MOL0     C39283  14.089  11.024   9.012  0.0966  0.4132  0.4311
 1010MOL0     C39284  14.052  11.022   8.857 -0.0994 -0.7251  0.3700
 1010MOL0     C39285  14.108  10.891   8.792 -0.2079 -0.0804  0.4442
 1010MOL0     C39286  14.112  10.897   8.641 -0.0643  0.8653 -0.4175
 1010MOL0    Cl39287  14.206  10.753   8.604  0.1395 -0.2625 -0.2013
 1010MOL0     C39288  13.382  10.991   9.084 -0.4216  0.2839  0.0723
 1010MOL0     C39289  13.240  10.992   9.055 -0.8567 -0.0699  0.2421
 1010MOL0     O39290  13.009  10.745   8.971 -0.0383  0.1270 -0.2984
 1010MOL0     C39291  12.808  10.941   8.779  0.0367  0.2539  0.2213
 1010MOL0     C39292  12.683  10.967   8.729 -0.6086  0.3431  0.2682
 1010MOL0     N39293  12.043  10.465   8.901  0.5700  0.2059  0.9269
 1010MOL0     N39294  11.935  10.416   8.942  0.0626 -0.4150 -0.2700
 1010MOL0     C39295  10.786  10.933   9.228 -0.2878 -0.8949 -0.2662
 1010MOL0     C39296  10.650  10.967   9.224 -0.4988 -0.3731 -0.3096
 1010MOL0     C39297  10.221  10.967   9.137 -0.3843  0.5878  0.5718
 1010MOL0     C39298  10.201  11.014   9.007 -0.1906  0.2634  0.0399
 1010MOL0     C39299  10.077  11.037   8.945 -0.0074  0.2261 -0.0557
 1010MOL0     C39300   9.965  11.017   9.023  0.4417 -0.4639  0.5479
 1010MOL0     O39301   9.838  11.023   8.977  1.0104 -0.2073  0.5401
 1010MOL0     C39302   9.812  11.007   8.838 -0.2702  0.0419  0.5660
 1010MOL0     C39303   9.664  10.956   8.825 -0.1553 -0.0210 -1.2220
 1010MOL0     C39304   9.627  10.956   8.675  0.4285 -0.0390 -0.4234
 1010MOL0     C39305   9.488  10.888   8.649  0.0020 -0.2302  0.0285
 1010MOL0     C39306   9.375  10.957   8.704 -0.3899  0.5477  0.3570
 1010MOL0     C39307   9.288  11.021   8.754  0.3121 -0.1513  0.5284
 1010MOL0     C39308   9.977  10.976   9.154  0.3985 -0.0006  0.3024
 1010MOL0     C39309  10.099  10.948   9.213 -0.5815  0.4079  0.2532
 1010MOL0     C39310  10.095  10.901   9.359 -0.5730 -0.2109  0.2047
 1010MOL0     H39311  10.611  11.023   8.895  2.5689  0.9698 -0.5303
 1010MOL0     H39312  10.840  10.991   8.895  0.0573 -1.5938  0.6106
 1010MOL0     H39313  11.064  11.119   9.111  1.1423  0.9797 -2.8320
 1010MOL0     H39314  11.067  11.035   8.953 -1.2811  1.5852  0.0178
 1010MOL0     H39315  11.282  11.060   9.022 -1.0341  1.3200  0.2744
 1010MOL0     H39316  11.253  10.983   9.180  0.7832 -1.2893 -0.6152
 1010MOL0     H39317  11.212  10.772   9.063 -3.4218  3.1015 -0.1101
 1010MOL0     H39318  11.229  10.843   8.905 -0.8397 -0.6689 -0.0938
 1010MOL0     H39319  11.470  10.899   8.968  1.6146 -2.5576 -1.9097
 1010MOL0     H39320  11.432  10.815   9.123 -1.0468 -1.2299  0.1558
 1010MOL0     H39321  11.395  10.700   8.835 -0.2771 -1.5019 -0.9920
 1010MOL0     H39322  11.354  10.617   8.978 -1.3356  1.2367 -0.3068
 1010MOL0     H39323  11.555  10.536   8.874 -0.8460 -0.6222  1.1377
 1010MOL0     H39324  11.626  10.706   8.871  0.8572 -0.2146  0.5670
 1010MOL0     H39325  11.551  10.565   9.134 -1.4054  0.9268 -1.9773
 1010MOL0     H39326  11.671  10.688   9.109 -0.3853  0.4739  0.1123
 1010MOL0     H39327  11.746  10.462   9.181 -1.5152 -1.5430  0.1897
 1010MOL0     H39328  11.682  10.390   9.043  1.6309 -0.7538  0.7987
 1010MOL0     H39329  11.908  10.727   9.046  1.3392  0.5181 -1.1275
 1010MOL0     H39330  12.256  10.643   8.945 -0.0145 -0.2981 -0.2611
 1010MOL0     H39331  12.150  10.775   8.986  0.2525 -2.3893  2.2766
 1010MOL0     H39332  12.149  10.624   8.718 -1.4421 -2.6837  3.6637
 1010MOL0     H39333  12.074  10.786   8.744 -1.8049 -1.0930  1.1210
 1010MOL0     H39334  12.362  10.702   8.746 -1.9094 -2.0498 -2.5556
 1010MOL0     H39335  12.280  10.799   8.616 -0.3949 -2.8069 -1.0562
 1010MOL0     H39336  12.245  10.982   8.765  0.8315  1.0570 -0.1215
 1010MOL0     H39337  12.324  10.898   8.899 -0.9525  0.3264 -0.2309
 1010MOL0     H39338  12.510  10.796   8.966  1.1538 -0.5160  0.7169
 1010MOL0     H39339  12.781  10.624   9.026  0.2906  0.8298  0.8539
 1010MOL0     H39340  12.646  10.687   9.124  2.1021 -0.4412  3.8145
 1010MOL0     H39341  12.808  10.760   9.132 -0.8592 -0.0160  1.3706
 1010MOL0     H39342  13.274  10.933   8.726  0.9352  0.0337 -0.4440
 1010MOL0     H39343  13.503  10.925   8.780 -0.6082  1.6291 -1.1284
 1010MOL0     H39344  13.634  11.060   9.178  2.0609  0.3180  0.9579
 1010MOL0     H39345  13.640  10.893   9.201 -6.0276  1.6747 -1.2427
 1010MOL0     H39346  13.832  11.066   9.038 -1.5767  0.7456  0.2790
 1010MOL0     H39347  13.852  11.020   9.215 -2.3376 -1.0271  1.5273
 1010MOL0     H39348  13.879  10.834   8.976  1.5329 -2.2608 -0.2095
 1010MOL0     H39349  13.883  10.792   9.153 -2.1268  1.6397 -0.1248
 1010MOL0     H39350  14.110  10.810   9.050 -0.1114 -0.2648  1.6572
 1010MOL0     H39351  14.097  10.898   9.181  4.8340  1.0990 -2.1300
 1010MOL0     H39352  14.049  11.112   9.063 -0.2811  0.7645 -0.4484
 1010MOL0     H39353  14.198  11.029   9.021 -0.0782  1.7624  2.0961
 1010MOL0     H39354  14.080  11.110   8.799 -1.2515  0.3884  1.4193
 1010MOL0     H39355  13.943  11.026   8.844 -0.0447  2.5529  0.1426
 1010MOL0     H39356  14.031  10.818   8.818  2.7425 -3.6127 -0.0177
 1010MOL0     H39357  14.204  10.854   8.830 -0.0926 -1.5550 -1.1852
 1010MOL0     H39358  14.173  10.980   8.604 -0.7364  0.7850 -1.7948
 1010MOL0     H39359  14.014  10.891   8.592  0.3367  2.2085 -1.4456
 1010MOL0     H39360  13.422  11.026   9.179 -0.1838 -0.7342  0.3585
 1010MOL0     H39361  13.165  10.998   9.133  0.0069 -0.8851  1.1532
 1010MOL0     H39362  12.890  10.993   8.730  1.1740 -0.0790  1.7194
 1010MOL0     H39363  12.669  11.025   8.638  1.2646  0.2115 -0.1421
 1010MOL0     H39364  10.841  10.888   9.310  1.3715 -1.2557 -1.5301
 1010MOL0     H39365  10.599  10.951   9.318  0.5795 -5.3006 -0.3177
 1010MOL0     H39366  10.291  11.022   8.946 -0.9867 -2.0885 -1.5695
 1010MOL0     H39367  10.076  11.064   8.840  1.0589 -1.0147 -0.4171
 1010MOL0     H39368   9.809  11.104   8.788 -1.3998 -1.2379 -2.0136
 1010MOL0     H39369   9.890  10.949   8.788 -0.8394 -0.4723  0.2693
 1010MOL0     H39370   9.594  11.010   8.889  0.0209 -0.3999 -0.6997
 1010MOL0     H39371   9.668  10.853   8.862  2.3139  1.0449  1.8073
 1010MOL0     H39372   9.637  11.056   8.632  2.1705 -0.3393 -0.7793
 1010MOL0     H39373   9.708  10.899   8.629  0.5424  1.1924 -1.8241
 1010MOL0     H39374   9.492  10.785   8.685 -0.4271 -1.5812 -3.3646
 1010MOL0     H39375   9.465  10.881   8.542 -0.7725 -0.0716  0.1808
 1010MOL0     H39376   9.214  11.083   8.800  0.6803 -0.0298  0.9599
 1010MOL0     H39377   9.887  10.957   9.212 -1.9787 -1.2414 -3.4995
 1010MOL0     H39378  10.096  10.793   9.376  2.5918 -0.2112  0.7093
 1010MOL0     H39379  10.193  10.924   9.402  1.2868 -2.6696 -2.2959
 1010MOL0     H39380  10.015  10.948   9.417 -0.6390 -0.4349  0.2943
 1011MOL0     O39381   1.820   4.619   4.694 -0.2912  0.5715  0.0502
 1011MOL0     C39382   1.733   4.559   4.633  1.0479  0.0402  0.2593
 1011MOL0     O39383   1.754   4.464   4.532 -0.2846  0.4252 -1.1397
 1011MOL0     C39384   1.874   4.461   4.458 -0.1606  0.9770  0.5838
 1011MOL0     C39385   1.869   4.445   4.315 -0.0395 -0.3378 -0.5350
 1011MOL0     C39386   1.981   4.453   4.229  0.1389  0.3935  0.1486
 1011MOL0     C39387   2.101   4.466   4.286  0.1297 -0.5454 -0.6761
 1011MOL0     O39388   2.215   4.465   4.204  0.0940 -0.3278 -0.5205
 1011MOL0     C39389   2.225   4.571   4.115  0.6841 -0.1488 -0.3075
 1011MOL0     C39390   2.369   4.586   4.074 -0.8201 -0.0409  0.0156
 1011MOL0     C39391   2.405   4.711   3.992  0.4168  0.2901  0.0922
 1011MOL0     C39392   2.551   4.707   3.963 -0.1320  0.1962  0.1794
 1011MOL0     C39393   2.587   4.843   3.906  0.1158  0.0367 -0.4855
 1011MOL0     C39394   2.741   4.863   3.868  0.1793 -0.5593 -0.3951
 1011MOL0     C39395   2.832   4.867   3.996 -0.0466  0.0981  0.6884
 1011MOL0     C39396   2.839   5.006   4.059 -1.2622 -0.2975 -0.5444
 1011MOL0     N39397   2.941   5.002   4.162 -0.4981 -0.4561  0.2548
 1011MOL0     C39398   3.082   5.020   4.152 -0.3396 -0.2350  0.0504
 1011MOL0     C39399   3.136   4.996   4.276  0.1174  0.0256  0.2196
 1011MOL0     C39400   3.279   5.011   4.305  0.3312 -0.4876  1.3229
 1011MOL0     C39401   3.368   4.914   4.214  0.9191  0.6720  0.6413
 1011MOL0     C39402   3.520   4.948   4.206 -0.9004  0.1214 -0.5146
 1011MOL0     C39403   3.608   4.842   4.130 -0.1245 -0.5803  0.2108
 1011MOL0     O39404   3.751   4.866   4.156  0.4838  0.0443  0.9803
 1011MOL0     C39405   3.839   4.778   4.099 -0.0569 -0.1187 -0.0741
 1011MOL0     C39406   3.807   4.676   4.015  0.2667  0.3433  0.1285
 1011MOL0     C39407   3.900   4.590   3.955  0.1878 -0.1389  0.1801
 1011MOL0     C39408   3.861   4.506   3.836 -0.3040  0.2507  0.7087
 1011MOL0     C39409   4.037   4.602   3.994 -0.7321 -0.3148 -0.4711
 1011MOL0     C39410   4.149   4.521   3.951  0.7966 -0.4130  0.5101
 1011MOL0     O39411   4.231   4.473   4.053  0.1366  0.4682  0.3614
 1011MOL0     C39412   4.358   4.436   4.000  0.3686  0.3618  0.2233
 1011MOL0     C39413   4.458   4.528   4.008 -0.0787  0.2372 -0.2147
 1011MOL0     C39414   4.589   4.481   3.989  0.2745  0.2603 -0.1755
 1011MOL0     C39415   4.624   4.349   3.958  0.0874 -0.2383 -0.1792
 1011MOL0     O39416   4.753   4.320   3.962 -0.8562  1.0528  0.4463
 1011MOL0     C39417   4.782   4.178   3.982 -0.4372  0.2181 -0.0104
 1011MOL0     C39418   4.922   4.195   4.052  0.1886 -0.1987  0.5547
 1011MOL0     C39419   5.036   4.216   3.952  0.6497  0.1322 -0.1647
 1011MOL0     C39420   5.159   4.256   4.030  0.1719 -1.4471 -0.0010
 1011MOL0     C39421   5.285   4.251   3.941 -0.1031  0.0153 -0.4415
 1011MOL0     C39422   5.411   4.322   4.007 -0.8088  1.0835  0.1148
 1011MOL0     C39423   5.520   4.322   3.899  0.4003  0.8088  0.3124
 1011MOL0     C39424   5.654   4.366   3.948 -0.3692 -0.0538  0.2051
 1011MOL0    Cl39425   5.632   4.533   4.014 -0.3574  0.0837 -0.2588
 1011MOL0     C39426   4.518   4.258   3.937 -0.0430  0.1487  0.4762
 1011MOL0     C39427   4.386   4.303   3.963  0.9892 -0.4148 -0.3784
 1011MOL0     O39428   4.172   4.523   3.832  0.3601 -0.9235 -0.3109
 1011MOL0     C39429   4.070   4.702   4.103  0.9629 -0.0327 -0.0718
 1011MOL0     C39430   3.968   4.782   4.154 -0.1512 -0.0628 -0.2037
 1011MOL0     N39431   3.030   4.946   4.364 -0.5792  0.2528  0.0974
 1011MOL0     N39432   2.924   4.952   4.287  0.0644 -0.9910  0.1286
 1011MOL0     C39433   2.118   4.468   4.427  0.2732 -0.1198  0.2079
 1011MOL0     C39434   2.006   4.472   4.506  0.7140  0.0440 -0.0271
 1011MOL0     C39435   1.597   4.576   4.679  1.5865 -0.0923 -0.2672
 1011MOL0     C39436   1.491   4.520   4.602  0.2662 -0.0997 -0.3038
 1011MOL0     C39437   1.356   4.507   4.654 -0.3280  0.5374  0.0633
 1011MOL0     C39438   1.333   4.555   4.784 -0.0172  0.8103 -0.5704
 1011MOL0     O39439   1.206   4.561   4.841  0.0974  0.7851 -0.0550
 1011MOL0     C39440   1.100   4.488   4.775  0.5994 -0.0553  0.3034
 1011MOL0     C39441   0.970   4.545   4.811  0.6841 -0.1349  0.5040
 1011MOL0     C39442   0.960   4.688   4.759 -0.2300  0.0789 -0.4099
 1011MOL0     C39443   0.848   4.761   4.829 -0.6859 -0.0304  0.5927
 1011MOL0     C39444   0.717   4.703   4.795  0.4606  0.1995 -0.4717
 1011MOL0     C39445   0.611   4.658   4.765  0.4715  0.1045 -0.2080
 1011MOL0     C39446   1.435   4.609   4.859  0.1103 -0.6273  0.5207
 1011MOL0     C39447   1.565   4.625   4.814  0.4228 -0.4184  0.5246
 1011MOL0     C39448   1.666   4.680   4.914 -0.4132  0.3701  0.2218
 1011MOL0     H39449   1.774   4.414   4.271  0.5232 -2.7655 -0.2042
 1011MOL0     H39450   1.966   4.441   4.122  1.0622 -1.0929  0.1621
 1011MOL0     H39451   2.199   4.670   4.152  2.0742  1.1431 -2.5927
 1011MOL0     H39452   2.163   4.552   4.026 -0.6831  3.2077 -0.2023
 1011MOL0     H39453   2.420   4.592   4.171 -0.6182 -0.6484 -0.0516
 1011MOL0     H39454   2.410   4.500   4.021 -0.9574  0.1928 -0.4706
 1011MOL0     H39455   2.353   4.713   3.896  0.1308  0.8636  0.2528
 1011MOL0     H39456   2.370   4.796   4.052 -0.5906 -1.1873  1.6776
 1011MOL0     H39457   2.604   4.680   4.055 -0.9006 -2.2121 -0.0254
 1011MOL0     H39458   2.568   4.632   3.886 -3.5613 -0.0015 -0.5308
 1011MOL0     H39459   2.555   4.923   3.972  1.3002 -0.4344  0.7043
 1011MOL0     H39460   2.530   4.856   3.813  0.7104  1.5409 -0.6487
 1011MOL0     H39461   2.779   4.784   3.803 -2.0123  0.3485 -2.9193
 1011MOL0     H39462   2.757   4.959   3.817 -1.1631  0.9473  1.8327
 1011MOL0     H39463   2.933   4.838   3.965 -0.4775 -1.2090  0.4473
 1011MOL0     H39464   2.787   4.795   4.065 -1.3980 -0.7532 -1.0178
 1011MOL0     H39465   2.877   5.077   3.984  1.6335 -1.2345 -0.0771
 1011MOL0     H39466   2.744   5.037   4.104 -1.6966 -1.9089 -0.2804
 1011MOL0     H39467   3.135   5.065   4.069  0.1902  1.2727  1.1486
 1011MOL0     H39468   3.311   4.984   4.406  0.2847 -2.0659  0.9371
 1011MOL0     H39469   3.310   5.110   4.270  0.5020 -0.9427  0.1421
 1011MOL0     H39470   3.357   4.809   4.243  2.7663  0.8906  2.2542
 1011MOL0     H39471   3.332   4.925   4.111  0.9098  0.1524  0.5879
 1011MOL0     H39472   3.537   5.052   4.178  1.6355 -0.5041 -1.5914
 1011MOL0     H39473   3.560   4.954   4.307  0.2047  0.2972 -0.9472
 1011MOL0     H39474   3.582   4.744   4.169 -0.1146 -0.2549  1.0691
 1011MOL0     H39475   3.588   4.860   4.024  0.1968  0.1008  0.2538
 1011MOL0     H39476   3.708   4.665   3.973  0.9246 -1.1465 -1.1325
 1011MOL0     H39477   3.919   4.539   3.750 -0.6490 -1.4057 -0.2075
 1011MOL0     H39478   3.755   4.511   3.808 -0.6384 -0.3326  1.8119
 1011MOL0     H39479   3.887   4.404   3.865  0.6533  0.1157 -0.5402
 1011MOL0     H39480   4.452   4.628   4.052  0.2960  1.0098 -1.8401
 1011MOL0     H39481   4.674   4.545   4.011 -0.4686  1.0519  0.5168
 1011MOL0     H39482   4.726   4.116   4.052  0.9290 -0.0145  0.9254
 1011MOL0     H39483   4.792   4.129   3.884 -2.1636  2.4718 -1.4157
 1011MOL0     H39484   4.918   4.281   4.119 -1.5276  0.9249 -0.9036
 1011MOL0     H39485   4.927   4.106   4.115 -5.1859  1.2885  3.6840
 1011MOL0     H39486   5.009   4.297   3.884 -2.9734 -0.0047  0.9136
 1011MOL0     H39487   5.050   4.124   3.894  2.2652 -0.1891  0.6658
 1011MOL0     H39488   5.174   4.204   4.124 -0.7204 -1.7633 -0.0305
 1011MOL0     H39489   5.143   4.361   4.056 -2.9948 -1.1401 -2.5382
 1011MOL0     H39490   5.299   4.144   3.923 -3.0906 -0.6680  0.7121
 1011MOL0     H39491   5.268   4.305   3.847  1.5510 -1.5637 -1.7098
 1011MOL0     H39492   5.448   4.258   4.088 -2.5764  2.2886  1.9652
 1011MOL0     H39493   5.386   4.420   4.050  1.1930  1.2969  0.8862
 1011MOL0     H39494   5.502   4.401   3.825  2.2545  0.4653 -0.5386
 1011MOL0     H39495   5.521   4.223   3.853  1.6560 -0.5550  3.0333
 1011MOL0     H39496   5.715   4.360   3.857 -1.3362  1.2610 -0.5539
 1011MOL0     H39497   5.697   4.302   4.026 -1.1311  2.1846  2.6117
 1011MOL0     H39498   4.541   4.157   3.905 -0.2088  0.3192 -0.2026
 1011MOL0     H39499   4.301   4.236   3.955 -0.9980  1.2174  3.8739
 1011MOL0     H39500   4.168   4.712   4.148 -0.1865  2.6815  2.0973
 1011MOL0     H39501   3.982   4.857   4.231 -2.5947  2.3038 -1.8859
 1011MOL0     H39502   2.217   4.470   4.471  0.2546  0.8699  0.2427
 1011MOL0     H39503   2.011   4.479   4.614 -0.1636  0.0479  0.0265
 1011MOL0     H39504   1.513   4.473   4.507 -0.9793 -1.0064 -0.1593
 1011MOL0     H39505   1.286   4.458   4.587  0.6475 -1.3854  0.3763
 1011MOL0     H39506   1.105   4.498   4.667  0.7227  1.4371  0.4369
 1011MOL0     H39507   1.097   4.382   4.803  2.1325 -0.5309 -1.1600
 1011MOL0     H39508   0.964   4.542   4.920  0.9264 -1.0822  0.4975
 1011MOL0     H39509   0.891   4.488   4.761  1.4428 -0.2062 -0.6326
 1011MOL0     H39510   1.053   4.734   4.791  0.2270 -3.5339  4.7579
 1011MOL0     H39511   0.945   4.689   4.651  3.5105  2.3516 -1.0703
 1011MOL0     H39512   0.847   4.864   4.791 -2.4268 -0.7957 -1.6922
 1011MOL0     H39513   0.863   4.757   4.937  0.2591  1.2828  0.5388
 1011MOL0     H39514   0.529   4.600   4.728  0.6610 -1.2086  1.3226
 1011MOL0     H39515   1.404   4.640   4.959  0.5365 -1.4176  0.9072
 1011MOL0     H39516   1.757   4.623   4.935  1.7137  2.7145 -1.8812
 1011MOL0     H39517   1.706   4.776   4.880 -2.2089  0.8923 -0.5001
 1011MOL0     H39518   1.606   4.690   5.005  1.0576  0.9636  1.1805
 1012MOL0     O39519   3.136   3.859   8.327 -0.3671 -0.4621 -0.0272
 1012MOL0     C39520   3.076   3.917   8.239  0.9565 -0.0979 -0.2724
 1012MOL0     O39521   3.133   3.999   8.141  0.1346  0.4411 -0.0318
 1012MOL0     C39522   3.270   4.014   8.124  0.3530  0.5304  0.4112
 1012MOL0     C39523   3.302   4.072   8.000  0.0393  0.6549 -0.0605
 1012MOL0     C39524   3.440   4.091   7.967 -0.3104  0.2455 -0.5242
 1012MOL0     C39525   3.540   4.053   8.066 -0.2144 -0.3597 -0.1777
 1012MOL0     O39526   3.672   4.086   8.048  0.4965 -0.3991 -0.6766
 1012MOL0     C39527   3.689   4.229   8.003 -0.3621 -0.1652 -0.1654
 1012MOL0     C39528   3.820   4.290   8.052  0.7056  0.3054  0.6815
 1012MOL0     C39529   3.825   4.308   8.204 -0.1984  0.0864  0.0652
 1012MOL0     C39530   3.738   4.417   8.264  0.2852 -0.6893 -0.0538
 1012MOL0     C39531   3.747   4.445   8.413  0.1580 -0.5253 -0.0684
 1012MOL0     C39532   3.698   4.581   8.467 -0.5886  0.5430 -0.8713
 1012MOL0     C39533   3.737   4.598   8.612 -0.0891 -0.4747  0.7723
 1012MOL0     C39534   3.681   4.493   8.706  0.1016  0.2674 -0.4124
 1012MOL0     N39535   3.535   4.474   8.698 -0.0970  0.0909 -0.2026
 1012MOL0     C39536   3.460   4.571   8.775  0.6006  0.3733 -0.3568
 1012MOL0     C39537   3.339   4.514   8.767 -0.2067 -0.2895  0.3321
 1012MOL0     C39538   3.216   4.549   8.848 -0.2626  0.3798  0.1421
 1012MOL0     C39539   3.241   4.523   8.992  0.1772 -0.1145 -0.4563
 1012MOL0     C39540   3.253   4.374   9.039 -0.3005  0.5168  0.1190
 1012MOL0     C39541   3.274   4.371   9.193 -0.0064  0.7882  0.4336
 1012MOL0     O39542   3.154   4.411   9.250  0.4586  0.1903  0.4298
 1012MOL0     C39543   3.143   4.436   9.385 -0.5226  0.2396 -0.3392
 1012MOL0     C39544   3.249   4.427   9.471  0.2652 -0.5110 -0.3710
 1012MOL0     C39545   3.252   4.474   9.611 -1.0197 -0.7054  0.5916
 1012MOL0     C39546   3.355   4.420   9.709 -0.2910 -0.0709 -1.1244
 1012MOL0     C39547   3.135   4.553   9.650 -0.6812  0.7501  0.1388
 1012MOL0     C39548   3.136   4.629   9.774  0.3826  0.5877 -0.3038
 1012MOL0     O39549   3.022   4.631   9.832  0.1288  0.0828  0.3782
 1012MOL0     C39550   3.028   4.631   9.974  0.7938 -1.2925 -0.2728
 1012MOL0     C39551   3.065   4.518  10.044  0.1384 -0.3526 -0.3464
 1012MOL0     C39552   3.075   4.525  10.188  0.1835 -0.2204 -0.3057
 1012MOL0     C39553   3.052   4.642  10.259  0.1621 -0.2922  0.9809
 1012MOL0     O39554   3.045   4.638  10.397 -0.4214  0.1407  0.4856
 1012MOL0     C39555   3.129   4.547  10.464  0.0848  0.1801 -0.4304
 1012MOL0     C39556   3.126   4.585  10.616  0.0462 -0.3676  0.0316
 1012MOL0     C39557   3.265   4.563  10.672 -0.8196 -0.6203 -0.3114
 1012MOL0     C39558   3.292   4.406  10.685 -0.1304 -0.6618  0.1569
 1012MOL0     C39559   3.412   4.389  10.771 -0.0248 -0.5786  0.0692
 1012MOL0     C39560   3.365   4.384  10.919  0.9055  0.1282  0.0305
 1012MOL0     C39561   3.481   4.418  11.002 -0.0350 -0.4171 -0.5420
 1012MOL0     C39562   3.453   4.374  11.144  0.2497  0.2063  0.0391
 1012MOL0    Cl39563   3.577   4.432  11.251 -0.0278  0.0383 -0.3780
 1012MOL0     C39564   3.005   4.749  10.188 -0.1894  0.3172  0.5125
 1012MOL0     C39565   2.999   4.752  10.042 -0.1142  0.5433 -0.4110
 1012MOL0     O39566   3.243   4.673   9.817  0.0390 -0.5244 -0.0915
 1012MOL0     C39567   3.022   4.549   9.566  0.0705 -0.3836 -0.4539
 1012MOL0     C39568   3.029   4.488   9.437  0.4968  0.0689  0.8369
 1012MOL0     N39569   3.337   4.415   8.674  0.1506  0.5655  0.2348
 1012MOL0     N39570   3.452   4.389   8.629  0.1378 -0.5505 -0.1917
 1012MOL0     C39571   3.500   3.995   8.177  0.4023  0.4097 -0.9436
 1012MOL0     C39572   3.368   3.966   8.208  0.4676 -0.2493  0.0990
 1012MOL0     C39573   2.926   3.905   8.245 -0.7468  0.8010  1.3458
 1012MOL0     C39574   2.874   3.853   8.365  0.3269  1.0202  0.6722
 1012MOL0     C39575   2.736   3.818   8.375  0.6659 -0.0860 -0.6134
 1012MOL0     C39576   2.648   3.831   8.266  0.0674 -0.4980  0.5170
 1012MOL0     O39577   2.519   3.782   8.265  0.3899 -0.3015 -0.0966
 1012MOL0     C39578   2.455   3.767   8.392  0.2708  0.1461  0.5103
 1012MOL0     C39579   2.329   3.693   8.395  0.3680  0.3485 -0.0291
 1012MOL0     C39580   2.255   3.753   8.514 -0.7018 -0.4735  0.0632
 1012MOL0     C39581   2.128   3.679   8.544  0.0461 -0.1625  0.3463
 1012MOL0     C39582   2.021   3.725   8.452 -1.3566  0.6869  0.4863
 1012MOL0     C39583   1.948   3.762   8.370 -0.3061  0.2762  0.2926
 1012MOL0     C39584   2.699   3.899   8.155  0.5777 -0.3579  0.1271
 1012MOL0     C39585   2.832   3.932   8.143 -0.3758 -0.2770 -0.5115
 1012MOL0     C39586   2.870   3.983   8.004 -0.6890  0.2826  0.4489
 1012MOL0     H39587   3.227   4.111   7.933 -2.2666 -2.2508  0.6433
 1012MOL0     H39588   3.468   4.131   7.870  0.9502 -0.3060 -0.4006
 1012MOL0     H39589   3.604   4.290   8.036 -2.6715 -1.9085 -2.4172
 1012MOL0     H39590   3.682   4.244   7.895  1.3317  1.3817 -0.1051
 1012MOL0     H39591   3.902   4.224   8.021  0.7678  1.0059 -0.7262
 1012MOL0     H39592   3.834   4.378   7.989 -1.2255 -1.2727 -2.2000
 1012MOL0     H39593   3.805   4.213   8.253  1.4778  0.1328  0.9258
 1012MOL0     H39594   3.932   4.330   8.213 -0.0322 -0.7875  0.3141
 1012MOL0     H39595   3.771   4.508   8.214 -3.1584 -0.1087 -1.5569
 1012MOL0     H39596   3.636   4.397   8.229  0.5335 -0.5214 -0.8866
 1012MOL0     H39597   3.851   4.432   8.445 -0.1627 -1.0080  0.8106
 1012MOL0     H39598   3.686   4.368   8.461 -0.0660 -0.0549  0.4124
 1012MOL0     H39599   3.735   4.662   8.403 -1.3320  0.4016 -1.4976
 1012MOL0     H39600   3.589   4.590   8.467 -0.4648  2.4749 -1.0604
 1012MOL0     H39601   3.717   4.703   8.638  2.8776  1.8022 -4.4453
 1012MOL0     H39602   3.847   4.597   8.610  0.0330 -0.7967 -3.8181
 1012MOL0     H39603   3.729   4.401   8.674 -0.1370 -0.0506  0.1333
 1012MOL0     H39604   3.719   4.502   8.808 -0.1727 -1.8080 -0.0870
 1012MOL0     H39605   3.480   4.648   8.849  2.2880 -1.4627  1.2226
 1012MOL0     H39606   3.131   4.488   8.819 -1.1846  0.5947  2.1908
 1012MOL0     H39607   3.185   4.654   8.841 -1.5711 -0.0627 -0.9843
 1012MOL0     H39608   3.340   4.566   9.014  1.6239 -2.4831 -1.8713
 1012MOL0     H39609   3.163   4.574   9.049  0.5351 -0.6433  0.5328
 1012MOL0     H39610   3.162   4.321   9.011 -1.0934  1.6118  0.5554
 1012MOL0     H39611   3.343   4.328   8.997 -0.9375  0.7227 -1.5675
 1012MOL0     H39612   3.304   4.269   9.218  1.4648  0.7348 -1.3492
 1012MOL0     H39613   3.359   4.428   9.232  1.7086 -2.2981  1.5640
 1012MOL0     H39614   3.339   4.383   9.429 -0.0821  2.2103 -4.6311
 1012MOL0     H39615   3.309   4.372   9.797  0.2390 -2.5736 -2.1162
 1012MOL0     H39616   3.428   4.494   9.743 -1.5364 -0.1498  2.0728
 1012MOL0     H39617   3.400   4.334   9.658  1.2658  1.9244 -3.2552
 1012MOL0     H39618   3.114   4.432   9.998  1.7181  0.6371 -0.5797
 1012MOL0     H39619   3.089   4.435  10.247  0.1397  0.0007  0.0485
 1012MOL0     H39620   3.093   4.445  10.448 -1.0726  0.6807 -1.1530
 1012MOL0     H39621   3.227   4.566  10.419 -0.2937 -0.6936 -1.6771
 1012MOL0     H39622   3.103   4.692  10.618  1.5261  0.0898 -2.5813
 1012MOL0     H39623   3.050   4.535  10.676 -1.1424  2.1128  0.7230
 1012MOL0     H39624   3.270   4.607  10.772  3.1707  0.5241 -0.8657
 1012MOL0     H39625   3.341   4.608  10.607 -1.8710  1.3184 -0.2912
 1012MOL0     H39626   3.316   4.369  10.586  0.8965 -5.1383  1.8462
 1012MOL0     H39627   3.198   4.358  10.714 -2.9069  3.3691 -1.2428
 1012MOL0     H39628   3.467   4.298  10.746  0.4446 -0.0092 -1.0677
 1012MOL0     H39629   3.487   4.466  10.748 -0.5676 -0.6191 -2.0434
 1012MOL0     H39630   3.333   4.282  10.941  0.7945  0.3552  0.9554
 1012MOL0     H39631   3.280   4.452  10.929 -0.6443 -1.4153 -1.7526
 1012MOL0     H39632   3.498   4.526  11.005 -0.3861 -0.3733  2.6398
 1012MOL0     H39633   3.571   4.364  10.971  0.1966  0.2354 -1.0453
 1012MOL0     H39634   3.445   4.267  11.165 -1.0751  0.3747  0.4966
 1012MOL0     H39635   3.358   4.413  11.182  1.0224  3.0111 -0.6607
 1012MOL0     H39636   3.003   4.838  10.250  3.9760 -0.1594  1.6287
 1012MOL0     H39637   2.981   4.848   9.995  4.4608  0.7618 -2.2064
 1012MOL0     H39638   2.933   4.604   9.594  0.1009 -0.8306  0.5743
 1012MOL0     H39639   2.936   4.492   9.380  1.5556  2.7536 -0.9194
 1012MOL0     H39640   3.581   3.976   8.248  0.4839  0.6357 -0.9777
 1012MOL0     H39641   3.346   3.926   8.306  1.2510 -0.5883  0.1485
 1012MOL0     H39642   2.938   3.834   8.450  1.3043 -0.0835 -0.2650
 1012MOL0     H39643   2.710   3.770   8.468  0.5594  1.7670  0.3613
 1012MOL0     H39644   2.522   3.725   8.467  1.6680  2.7993  0.8885
 1012MOL0     H39645   2.435   3.871   8.418 -0.9125  0.9156 -2.9116
 1012MOL0     H39646   2.342   3.586   8.413 -0.5276 -0.3763 -2.9700
 1012MOL0     H39647   2.269   3.697   8.303  0.5097 -2.3449 -0.3244
 1012MOL0     H39648   2.324   3.744   8.598  0.4338 -0.3899 -0.8396
 1012MOL0     H39649   2.227   3.858   8.506 -3.8171 -1.2780 -0.7963
 1012MOL0     H39650   2.095   3.709   8.644 -0.0724  1.4957 -0.1645
 1012MOL0     H39651   2.138   3.572   8.522  0.0090 -0.1206  0.1305
 1012MOL0     H39652   1.872   3.804   8.306 -0.7887 -1.1817 -0.1243
 1012MOL0     H39653   2.631   3.918   8.073  0.6102  0.3451  0.2571
 1012MOL0     H39654   2.882   4.091   8.006  0.5699  0.1681 -0.4146
 1012MOL0     H39655   2.968   3.950   7.969 -0.7536  2.0583 -1.5603
 1012MOL0     H39656   2.795   3.949   7.932  2.2449  0.5554 -2.9876
 1013MOL0     O39657   4.155   1.620   1.359 -0.3080 -0.3041  0.0464
 1013MOL0     C39658   4.137   1.738   1.379  0.1597 -0.2633 -0.6175
 1013MOL0     O39659   4.221   1.840   1.361 -0.2919 -0.0033  0.6885
 1013MOL0     C39660   4.318   1.809   1.270  0.2311  0.0205 -0.5903
 1013MOL0     C39661   4.451   1.762   1.307  0.0788 -0.5508  0.2277
 1013MOL0     C39662   4.547   1.744   1.202 -0.4328  0.6358  0.0757
 1013MOL0     C39663   4.512   1.769   1.073 -0.4598 -0.1485  0.3512
 1013MOL0     O39664   4.608   1.739   0.981 -0.1184 -0.2397  0.5622
 1013MOL0     C39665   4.600   1.814   0.856  0.1580  0.2746 -0.3983
 1013MOL0     C39666   4.637   1.962   0.887 -0.4813 -1.2523  0.3355
 1013MOL0     C39667   4.735   2.029   0.787 -0.4808  0.2766 -0.0855
 1013MOL0     C39668   4.790   2.168   0.831 -0.0956  0.0667  0.0210
 1013MOL0     C39669   4.910   2.211   0.742 -0.9125 -0.3388  0.4218
 1013MOL0     C39670   4.964   2.347   0.788  0.4674  0.5165  0.6385
 1013MOL0     C39671   5.056   2.414   0.686  0.0306  0.3004  0.6315
 1013MOL0     C39672   5.123   2.532   0.765 -0.2685 -0.6370  0.4030
 1013MOL0     N39673   5.223   2.499   0.861  0.2799  0.3275 -0.8367
 1013MOL0     C39674   5.357   2.499   0.830  0.0827 -0.5857  0.1959
 1013MOL0     C39675   5.411   2.451   0.938  0.6568  0.1016 -0.1504
 1013MOL0     C39676   5.550   2.392   0.934  1.1846  0.6389  0.0179
 1013MOL0     C39677   5.638   2.503   0.997 -0.7332 -0.0233  1.1269
 1013MOL0     C39678   5.787   2.468   0.976 -0.8347  0.2153 -0.2277
 1013MOL0     C39679   5.898   2.571   1.020  0.4729  0.1872  0.4222
 1013MOL0     O39680   6.030   2.526   0.979  0.2723  0.1264 -0.3713
 1013MOL0     C39681   6.135   2.579   1.051 -0.0286  0.1587 -0.1072
 1013MOL0     C39682   6.245   2.488   1.068  0.2687 -0.4440  0.7982
 1013MOL0     C39683   6.357   2.522   1.146  0.5859 -0.3027 -0.4165
 1013MOL0     C39684   6.468   2.414   1.147  0.1975 -0.9312 -0.5832
 1013MOL0     C39685   6.361   2.649   1.217  0.5797  0.4563 -0.4245
 1013MOL0     C39686   6.482   2.695   1.284 -0.2629 -0.6828 -0.7347
 1013MOL0     O39687   6.602   2.634   1.246 -0.2497  0.3212 -1.0852
 1013MOL0     C39688   6.723   2.648   1.318  0.2494  0.4421 -0.2052
 1013MOL0     C39689   6.761   2.759   1.394 -0.4500 -0.1509 -0.1717
 1013MOL0     C39690   6.891   2.763   1.448  0.3956 -0.3595  0.4577
 1013MOL0     C39691   6.990   2.670   1.417 -0.1629 -0.8883 -0.3818
 1013MOL0     O39692   7.112   2.675   1.476  0.1110 -0.3618 -0.3514
 1013MOL0     C39693   7.222   2.605   1.414 -0.0869  1.0009  0.5768
 1013MOL0     C39694   7.334   2.711   1.423 -0.0968  0.2893  0.5829
 1013MOL0     C39695   7.471   2.638   1.434 -0.0487 -0.0291  0.4785
 1013MOL0     C39696   7.585   2.722   1.381 -0.8749  0.0180 -1.3754
 1013MOL0     C39697   7.721   2.651   1.376 -0.6274  0.5171  0.7746
 1013MOL0     C39698   7.833   2.746   1.330 -0.1416 -0.4554 -0.1477
 1013MOL0     C39699   7.966   2.676   1.335  0.1535 -0.1332  1.1319
 1013MOL0     C39700   8.083   2.748   1.266  0.2575  0.8348 -0.3417
 1013MOL0    Cl39701   8.139   2.871   1.370  0.3152 -0.3159  0.1392
 1013MOL0     C39702   6.953   2.565   1.328 -0.8170 -0.2109  0.5968
 1013MOL0     C39703   6.824   2.552   1.286 -0.1082 -0.1738 -0.0699
 1013MOL0     O39704   6.474   2.773   1.379  0.1097  0.1023 -0.0530
 1013MOL0     C39705   6.243   2.728   1.206  0.1613  0.4361 -0.4558
 1013MOL0     C39706   6.133   2.698   1.120 -0.2076 -0.2208 -0.2147
 1013MOL0     N39707   5.319   2.436   1.039 -1.0316  0.5896 -1.3103
 1013MOL0     N39708   5.202   2.471   0.994  0.1087 -0.0046 -0.0778
 1013MOL0     C39709   4.381   1.810   1.035  0.6669 -0.0793 -0.2114
 1013MOL0     C39710   4.288   1.829   1.130 -0.3991  0.2038  0.5372
 1013MOL0     C39711   4.005   1.765   1.452  0.1307 -0.7575  0.2615
 1013MOL0     C39712   3.991   1.897   1.509 -0.0466 -0.9672 -0.7599
 1013MOL0     C39713   3.878   1.945   1.577 -0.2362 -0.5799  1.0460
 1013MOL0     C39714   3.770   1.863   1.588  0.3743  0.3266  0.0028
 1013MOL0     O39715   3.656   1.935   1.619  0.1142 -0.1983  0.1016
 1013MOL0     C39716   3.529   1.872   1.643 -0.5404 -0.6169 -1.0763
 1013MOL0     C39717   3.409   1.954   1.662 -0.6147  0.1292 -0.6163
 1013MOL0     C39718   3.447   2.080   1.727  0.3268 -0.7367  0.5379
 1013MOL0     C39719   3.480   2.068   1.875 -1.0899 -0.1596  0.0905
 1013MOL0     C39720   3.484   2.193   1.950  0.3967  0.0413  0.3270
 1013MOL0     C39721   3.490   2.295   2.007 -0.4315 -0.2763 -0.1764
 1013MOL0     C39722   3.785   1.723   1.543 -0.3027 -0.1011 -0.0738
 1013MOL0     C39723   3.900   1.670   1.486  0.4758 -0.7121 -0.3444
 1013MOL0     C39724   3.910   1.524   1.448 -0.5181  0.4047  0.4670
 1013MOL0     H39725   4.484   1.752   1.410 -2.0944  0.5194  1.1022
 1013MOL0     H39726   4.647   1.707   1.218 -0.1436  0.9599 -0.8790
 1013MOL0     H39727   4.507   1.808   0.799  0.4269  0.6684 -0.8866
 1013MOL0     H39728   4.676   1.768   0.792 -2.2174 -2.4328 -1.4631
 1013MOL0     H39729   4.545   2.020   0.888  1.5709  2.2976 -1.3669
 1013MOL0     H39730   4.678   1.979   0.988 -1.0352  4.7051 -0.1221
 1013MOL0     H39731   4.824   1.969   0.766  1.0266  1.8673  1.4686
 1013MOL0     H39732   4.673   2.027   0.697  0.0538 -1.1480 -0.4577
 1013MOL0     H39733   4.720   2.250   0.813 -2.0079 -1.9369 -2.6817
 1013MOL0     H39734   4.824   2.159   0.934  0.6498  0.2068 -0.2009
 1013MOL0     H39735   4.882   2.224   0.637 -1.1285 -0.2312  0.4916
 1013MOL0     H39736   4.997   2.145   0.749 -0.7416 -0.0180  1.4301
 1013MOL0     H39737   4.884   2.421   0.801 -1.4247 -0.2716 -4.3489
 1013MOL0     H39738   5.014   2.324   0.883 -0.4437  0.1606  1.0455
 1013MOL0     H39739   4.997   2.443   0.598 -1.3578 -1.8602  0.7799
 1013MOL0     H39740   5.136   2.346   0.655 -2.1976 -1.5969 -1.3853
 1013MOL0     H39741   5.167   2.595   0.687  0.5688 -0.9443  0.6137
 1013MOL0     H39742   5.043   2.594   0.806  0.1534  0.5345 -0.4965
 1013MOL0     H39743   5.401   2.513   0.732 -1.1945  0.5497 -0.2368
 1013MOL0     H39744   5.578   2.362   0.833 -0.4815  0.8803 -0.5438
 1013MOL0     H39745   5.553   2.303   0.997  0.3459  1.5096  1.3487
 1013MOL0     H39746   5.613   2.592   0.939 -2.4440 -0.2352  1.4820
 1013MOL0     H39747   5.620   2.514   1.104  0.6865 -0.6956  1.4542
 1013MOL0     H39748   5.823   2.376   1.023 -1.2469 -0.1753 -0.6620
 1013MOL0     H39749   5.805   2.444   0.870  0.0869 -0.7887  0.1387
 1013MOL0     H39750   5.880   2.670   0.976  3.4205  0.3465 -0.6464
 1013MOL0     H39751   5.885   2.594   1.126  1.5145  2.3752  0.1397
 1013MOL0     H39752   6.227   2.388   1.030 -0.8824 -0.9770  2.5935
 1013MOL0     H39753   6.501   2.404   1.251  0.5594  1.4810 -0.4072
 1013MOL0     H39754   6.544   2.442   1.073  0.3229  0.6960  0.1281
 1013MOL0     H39755   6.422   2.318   1.123  1.0303 -1.2852 -0.8037
 1013MOL0     H39756   6.689   2.835   1.423 -0.0111 -0.4434  1.8057
 1013MOL0     H39757   6.916   2.850   1.508 -1.4465  2.2341 -2.2301
 1013MOL0     H39758   7.249   2.527   1.486  2.6475  1.4249  0.0981
 1013MOL0     H39759   7.214   2.557   1.316 -0.3337 -0.1504  1.1451
 1013MOL0     H39760   7.344   2.783   1.341 -0.6646  0.6986  0.8672
 1013MOL0     H39761   7.318   2.785   1.502 -0.0391  1.6200 -0.6085
 1013MOL0     H39762   7.463   2.542   1.382 -3.9941  0.3703 -0.0074
 1013MOL0     H39763   7.483   2.624   1.541 -1.6167  2.6995  1.1038
 1013MOL0     H39764   7.600   2.803   1.452 -3.8753 -0.6442  0.2183
 1013MOL0     H39765   7.556   2.767   1.285 -0.5212  1.5146 -0.8012
 1013MOL0     H39766   7.757   2.616   1.474  3.2439  0.9523 -0.3023
 1013MOL0     H39767   7.719   2.565   1.308 -4.1751 -0.9860  2.5452
 1013MOL0     H39768   7.843   2.831   1.398  3.5053 -0.7157 -0.1638
 1013MOL0     H39769   7.812   2.795   1.234  0.0414  2.8317  1.3709
 1013MOL0     H39770   7.959   2.582   1.279 -2.6156  2.9586 -4.6942
 1013MOL0     H39771   7.994   2.652   1.438  0.6175 -2.5970  0.4875
 1013MOL0     H39772   8.041   2.797   1.177 -0.7479 -0.0119 -0.3443
 1013MOL0     H39773   8.169   2.683   1.246  0.1135  0.6558 -0.3765
 1013MOL0     H39774   7.020   2.488   1.290 -1.4569  0.7704 -2.7984
 1013MOL0     H39775   6.794   2.475   1.215 -2.1160  0.7077 -0.2391
 1013MOL0     H39776   6.239   2.815   1.270  2.0757  1.7146 -1.9473
 1013MOL0     H39777   6.057   2.768   1.088  2.4933  2.3334 -1.4754
 1013MOL0     H39778   4.353   1.829   0.932  0.9406  2.1087  0.0793
 1013MOL0     H39779   4.195   1.876   1.099  0.1545  0.9302 -0.0679
 1013MOL0     H39780   4.070   1.971   1.506 -0.5084 -0.4894 -1.5603
 1013MOL0     H39781   3.868   2.050   1.604  2.4385 -0.0907  0.3906
 1013MOL0     H39782   3.508   1.794   1.569  1.1366 -2.6646  0.4995
 1013MOL0     H39783   3.530   1.819   1.739  0.0351  0.1846 -0.6339
 1013MOL0     H39784   3.332   1.903   1.721 -1.1736  1.3894 -0.2190
 1013MOL0     H39785   3.364   1.964   1.564  0.5716 -2.5752 -1.5272
 1013MOL0     H39786   3.529   2.127   1.672 -0.0157  1.0091  1.4508
 1013MOL0     H39787   3.361   2.148   1.722  0.6040 -0.4624 -2.4193
 1013MOL0     H39788   3.577   2.023   1.899 -1.9598 -0.6994  2.9433
 1013MOL0     H39789   3.414   1.994   1.920  0.6271 -2.4477 -0.9279
 1013MOL0     H39790   3.492   2.383   2.068 -1.6778 -0.7881  0.6460
 1013MOL0     H39791   3.695   1.663   1.546 -0.7713  0.2180 -3.4315
 1013MOL0     H39792   3.922   1.508   1.341 -1.0212 -0.9142  0.5835
 1013MOL0     H39793   3.993   1.484   1.506 -3.1430 -4.0377  1.6185
 1013MOL0     H39794   3.822   1.464   1.474 -1.0920 -0.6554 -3.3655
 1014MOL0     O39795  10.781   3.059   4.830 -0.4340 -0.6453 -0.4078
 1014MOL0     C39796  10.710   3.028   4.929  0.3817 -0.5255 -0.2751
 1014MOL0     O39797  10.749   2.938   5.033  0.4558  0.6261  0.3090
 1014MOL0     C39798  10.877   2.894   5.037 -1.2726 -0.2395 -0.1722
 1014MOL0     C39799  10.949   2.834   4.935  0.1262  0.0152 -0.1302
 1014MOL0     C39800  11.080   2.803   4.953  0.4873 -0.7890 -0.4648
 1014MOL0     C39801  11.146   2.835   5.068  0.7819 -0.1260  0.2849
 1014MOL0     O39802  11.279   2.815   5.079 -0.1305  0.2089  0.7821
 1014MOL0     C39803  11.365   2.814   4.961  0.2612  0.5824  0.1381
 1014MOL0     C39804  11.507   2.834   5.012 -0.5559  0.7561  0.1715
 1014MOL0     C39805  11.515   2.955   5.114  0.3058 -0.1102 -0.5049
 1014MOL0     C39806  11.654   2.991   5.171  0.5725 -0.0458  0.3830
 1014MOL0     C39807  11.716   2.905   5.279 -0.4643 -0.5823  0.1418
 1014MOL0     C39808  11.660   2.912   5.419  0.6094  0.5608 -0.6512
 1014MOL0     C39809  11.684   3.049   5.491 -0.5193  0.6106 -1.0050
 1014MOL0     C39810  11.609   3.064   5.618  0.1050 -0.5767 -0.9605
 1014MOL0     N39811  11.687   3.007   5.728 -0.2482  0.1545 -0.1054
 1014MOL0     C39812  11.679   2.885   5.784  0.0369  0.1561 -0.7039
 1014MOL0     C39813  11.787   2.878   5.871  0.5866  0.2324 -0.9122
 1014MOL0     C39814  11.850   2.749   5.941  0.4391 -0.7740 -0.0068
 1014MOL0     C39815  11.837   2.763   6.095  0.3848 -0.5527  0.1943
 1014MOL0     C39816  11.882   2.626   6.153  0.3237 -0.2397 -0.6156
 1014MOL0     C39817  11.908   2.623   6.307 -0.3123 -0.2619 -0.6508
 1014MOL0     O39818  11.944   2.494   6.354  0.1654  0.6799 -0.4000
 1014MOL0     C39819  12.072   2.444   6.375 -0.0114  0.1124 -0.4860
 1014MOL0     C39820  12.195   2.505   6.373  0.1991  0.4972 -0.4078
 1014MOL0     C39821  12.313   2.448   6.420 -0.0429  0.6912 -0.7678
 1014MOL0     C39822  12.444   2.519   6.423  0.1784 -0.0608 -0.0380
 1014MOL0     C39823  12.304   2.310   6.464 -0.2093 -0.2329  0.4149
 1014MOL0     C39824  12.420   2.228   6.512  0.2392 -0.1295 -0.0201
 1014MOL0     O39825  12.445   2.101   6.471 -0.7578 -0.0788  0.4011
 1014MOL0     C39826  12.563   2.045   6.504  0.0293 -0.1122 -0.2415
 1014MOL0     C39827  12.688   2.109   6.483 -1.0682  0.5650  0.5709
 1014MOL0     C39828  12.806   2.039   6.519  0.0434 -0.0757 -0.4759
 1014MOL0     C39829  12.795   1.915   6.574 -0.8879  0.4462  0.9891
 1014MOL0     O39830  12.895   1.836   6.619 -1.0621 -0.2538  0.3644
 1014MOL0     C39831  13.024   1.890   6.650  0.2616 -0.3833 -1.3799
 1014MOL0     C39832  13.078   1.799   6.758  0.2867 -0.1966 -0.3213
 1014MOL0     C39833  13.203   1.845   6.828  0.1193 -0.5375 -0.1473
 1014MOL0     C39834  13.315   1.879   6.726  0.9066  0.0439 -1.2836
 1014MOL0     C39835  13.429   1.959   6.788  1.0407  0.1273  0.0740
 1014MOL0     C39836  13.492   2.081   6.712 -0.9291  0.3085 -0.3567
 1014MOL0     C39837  13.528   2.039   6.571 -0.2323 -0.1548  0.4517
 1014MOL0     C39838  13.599   2.152   6.493 -0.4302  0.1638 -0.8122
 1014MOL0    Cl39839  13.575   2.134   6.313  0.1757  0.1567 -0.3511
 1014MOL0     C39840  12.676   1.851   6.586  0.0789  0.9921 -0.6463
 1014MOL0     C39841  12.559   1.921   6.560  0.4083 -0.1778  0.4560
 1014MOL0     O39842  12.493   2.293   6.593 -0.3864 -0.2790  0.2702
 1014MOL0     C39843  12.178   2.244   6.464  0.0074 -0.7501 -0.0381
 1014MOL0     C39844  12.068   2.308   6.414 -0.3292 -0.4484  0.1224
 1014MOL0     N39845  11.850   3.002   5.872 -0.2377 -0.5449  0.4623
 1014MOL0     N39846  11.789   3.080   5.777 -1.0595  0.5351 -1.0481
 1014MOL0     C39847  11.074   2.887   5.176 -0.8863  1.2242  0.3735
 1014MOL0     C39848  10.938   2.914   5.160  0.4984  0.4938  0.3811
 1014MOL0     C39849  10.561   3.062   4.929 -0.5981 -0.1825 -0.7107
 1014MOL0     C39850  10.495   3.017   5.046  0.3483 -0.4168  0.6115
 1014MOL0     C39851  10.359   3.046   5.066  0.3905  0.7217 -0.3297
 1014MOL0     C39852  10.283   3.120   4.968  0.2805  0.4700  0.7513
 1014MOL0     O39853  10.159   3.168   4.988  0.3729 -0.8596 -0.1640
 1014MOL0     C39854  10.081   3.120   5.093  1.2264 -0.0641 -0.3818
 1014MOL0     C39855   9.934   3.142   5.074 -0.4516 -0.6044  0.1759
 1014MOL0     C39856   9.857   3.110   5.204  0.6534 -0.3209  0.0612
 1014MOL0     C39857   9.706   3.119   5.197 -0.5705 -0.2727 -0.7373
 1014MOL0     C39858   9.658   3.248   5.140 -0.1242 -0.2822 -0.0254
 1014MOL0     C39859   9.614   3.353   5.087  0.1946  0.6850  0.0673
 1014MOL0     C39860  10.357   3.170   4.859 -0.4246  0.6956  0.5485
 1014MOL0     C39861  10.494   3.148   4.843 -0.5003 -0.4265  0.2496
 1014MOL0     C39862  10.551   3.210   4.715 -0.1791  0.3127 -0.5253
 1014MOL0     H39863  10.900   2.805   4.842  2.2901 -2.0495 -0.7243
 1014MOL0     H39864  11.134   2.746   4.878  0.4734 -0.3414 -0.8174
 1014MOL0     H39865  11.330   2.885   4.886  0.8485  1.2068  0.4474
 1014MOL0     H39866  11.359   2.713   4.918  2.4914 -0.0253  1.1269
 1014MOL0     H39867  11.546   2.747   5.064 -3.4361  0.4093  1.9864
 1014MOL0     H39868  11.562   2.864   4.922  1.2029  0.5242  1.1495
 1014MOL0     H39869  11.468   3.039   5.063  0.4304  1.6482  2.0833
 1014MOL0     H39870  11.434   2.945   5.188 -1.2150 -0.5761 -2.1585
 1014MOL0     H39871  11.721   2.996   5.085 -0.2065 -1.2368 -0.3228
 1014MOL0     H39872  11.643   3.088   5.220  0.8646  1.4413 -2.2529
 1014MOL0     H39873  11.823   2.924   5.287 -0.4236 -1.3495  1.9523
 1014MOL0     H39874  11.711   2.801   5.245 -2.3796 -0.5744  0.2516
 1014MOL0     H39875  11.551   2.897   5.421  0.3444  2.1714  2.0728
 1014MOL0     H39876  11.710   2.833   5.474 -0.6260 -0.4356 -0.9087
 1014MOL0     H39877  11.652   3.138   5.435 -0.3565  0.2139 -1.7298
 1014MOL0     H39878  11.792   3.058   5.507 -0.3353 -0.3166 -1.6404
 1014MOL0     H39879  11.606   3.170   5.646 -0.1063 -0.7949 -0.1422
 1014MOL0     H39880  11.509   3.020   5.613 -1.1512  1.8156  1.1418
 1014MOL0     H39881  11.599   2.815   5.765 -0.5001  0.5235  0.1155
 1014MOL0     H39882  11.953   2.728   5.910  0.8709  0.4967  0.4620
 1014MOL0     H39883  11.790   2.665   5.907  1.2324 -1.3486 -0.0132
 1014MOL0     H39884  11.905   2.840   6.132  0.5488 -1.6663  2.4005
 1014MOL0     H39885  11.734   2.788   6.122  0.6892  0.7509  0.2144
 1014MOL0     H39886  11.802   2.556   6.130 -0.3787  0.8364 -1.5317
 1014MOL0     H39887  11.976   2.602   6.103 -0.2108  2.5404 -3.2860
 1014MOL0     H39888  11.990   2.690   6.332  0.3272 -1.2331 -0.0824
 1014MOL0     H39889  11.820   2.645   6.368  0.1632 -3.2412  1.3151
 1014MOL0     H39890  12.204   2.600   6.320 -0.5692  0.9827  0.2974
 1014MOL0     H39891  12.449   2.615   6.371 -2.8901  0.1011 -0.2183
 1014MOL0     H39892  12.523   2.457   6.379  0.0140 -0.0531 -0.3450
 1014MOL0     H39893  12.481   2.529   6.525  2.1870  0.3053 -0.7469
 1014MOL0     H39894  12.692   2.206   6.433 -1.5548 -0.4836 -1.6168
 1014MOL0     H39895  12.907   2.075   6.504  0.5059 -1.8094 -2.0117
 1014MOL0     H39896  13.083   1.890   6.558  0.9178 -0.1005 -0.9648
 1014MOL0     H39897  13.022   1.996   6.675 -2.9812 -0.1780 -2.0742
 1014MOL0     H39898  13.003   1.778   6.835 -0.6615  0.3212 -1.0792
 1014MOL0     H39899  13.102   1.702   6.714  1.3355 -0.2711  0.3870
 1014MOL0     H39900  13.238   1.761   6.888 -0.4077 -1.4865 -1.1152
 1014MOL0     H39901  13.180   1.925   6.898  1.1755 -1.6106  1.4857
 1014MOL0     H39902  13.279   1.927   6.634  0.5984  3.4918  0.4518
 1014MOL0     H39903  13.361   1.783   6.702  0.6165 -1.0904  2.1465
 1014MOL0     H39904  13.415   1.997   6.890  1.6544  1.4069 -0.2973
 1014MOL0     H39905  13.504   1.882   6.807 -2.7329 -3.6761  0.9578
 1014MOL0     H39906  13.580   2.108   6.772  0.5457 -0.4206 -2.1256
 1014MOL0     H39907  13.426   2.168   6.712  1.7767  2.7859  3.9580
 1014MOL0     H39908  13.441   2.005   6.513  0.5261  1.4308 -1.7644
 1014MOL0     H39909  13.591   1.950   6.558  2.0129  1.2995  0.8546
 1014MOL0     H39910  13.705   2.137   6.514 -0.1779  2.1784 -0.4975
 1014MOL0     H39911  13.567   2.250   6.530 -0.9461  0.7198 -2.6096
 1014MOL0     H39912  12.670   1.751   6.627 -3.0873  1.3716  0.0856
 1014MOL0     H39913  12.460   1.881   6.580 -0.6155  2.1052  0.2315
 1014MOL0     H39914  12.161   2.140   6.489 -0.8307 -0.5042  0.4199
 1014MOL0     H39915  11.970   2.261   6.412 -0.2884 -0.4957 -0.7221
 1014MOL0     H39916  11.130   2.907   5.267  0.3893 -0.6318  0.0555
 1014MOL0     H39917  10.893   2.952   5.251  2.5312  0.1181  1.6178
 1014MOL0     H39918  10.539   2.964   5.129 -1.7804 -2.3320  0.6176
 1014MOL0     H39919  10.314   3.009   5.157  0.0469 -0.7228 -1.0667
 1014MOL0     H39920  10.098   3.018   5.129 -1.0687  0.8224  3.8452
 1014MOL0     H39921  10.100   3.188   5.177 -0.4246  0.4968 -0.4282
 1014MOL0     H39922   9.892   3.082   4.993 -2.6633  1.4413 -0.3158
 1014MOL0     H39923   9.918   3.248   5.049 -1.0740 -0.6213  0.4744
 1014MOL0     H39924   9.874   3.006   5.232 -0.8626 -1.3052 -2.3284
 1014MOL0     H39925   9.884   3.181   5.283 -2.7269  3.7365 -1.9689
 1014MOL0     H39926   9.670   3.117   5.300  1.8027 -0.1460  0.1718
 1014MOL0     H39927   9.682   3.031   5.137  2.0310 -0.3049 -1.8932
 1014MOL0     H39928   9.577   3.444   5.045  0.8834  1.1245  0.3880
 1014MOL0     H39929  10.304   3.238   4.794  1.8045  0.0769 -2.0616
 1014MOL0     H39930  10.467   3.236   4.651 -2.5072 -0.8371  1.8625
 1014MOL0     H39931  10.616   3.293   4.743  0.4825 -0.2229 -0.4265
 1014MOL0     H39932  10.614   3.138   4.661 -0.9540 -0.7055 -0.1005
 1015MOL0     O39933   3.872  10.138   0.251  0.0687  0.0386 -0.9569
 1015MOL0     C39934   3.786  10.057   0.261  0.0869  0.6356 -0.6702
 1015MOL0     O39935   3.798   9.945   0.338 -0.3682 -0.7521 -0.0538
 1015MOL0     C39936   3.882   9.971   0.449  1.3425  0.8259 -0.1534
 1015MOL0     C39937   4.007   9.919   0.452 -0.2030  0.0400 -0.1609
 1015MOL0     C39938   4.093   9.944   0.565  0.2230  0.2470  0.1224
 1015MOL0     C39939   4.036   9.994   0.684 -0.3213 -0.1357 -0.0270
 1015MOL0     O39940   4.119  10.032   0.791  0.0596 -0.5910  0.5560
 1015MOL0     C39941   4.213   9.938   0.837  0.0764 -0.6339 -0.9417
 1015MOL0     C39942   4.321  10.017   0.900 -0.3406  0.5785 -0.2616
 1015MOL0     C39943   4.423   9.927   0.974  0.4062  0.2632  0.8197
 1015MOL0     C39944   4.519  10.018   1.060  0.5427  0.1902 -0.8304
 1015MOL0     C39945   4.661   9.958   1.067  0.2286  0.1469  0.6673
 1015MOL0     C39946   4.734  10.007   1.197 -0.0476 -0.5107 -0.4545
 1015MOL0     C39947   4.869   9.945   1.216 -0.4686  0.4432  0.5872
 1015MOL0     C39948   4.970   9.990   1.102 -0.5787  0.0422 -0.2309
 1015MOL0     N39949   5.108   9.952   1.149  0.8811  0.7014 -0.2003
 1015MOL0     C39950   5.147   9.820   1.159  0.5569  0.2120  0.8035
 1015MOL0     C39951   5.284   9.829   1.167 -0.4527 -0.1929 -0.4605
 1015MOL0     C39952   5.393   9.718   1.189  0.2200 -0.2138 -0.2528
 1015MOL0     C39953   5.430   9.698   1.332 -0.1335  0.8596 -0.2775
 1015MOL0     C39954   5.553   9.611   1.363 -1.0141  0.6811  0.6346
 1015MOL0     C39955   5.684   9.686   1.333  0.0483  0.3914  0.1189
 1015MOL0     O39956   5.705   9.795   1.429 -0.6268  0.2759 -0.0804
 1015MOL0     C39957   5.833   9.846   1.435  0.5061  0.5025  0.3083
 1015MOL0     C39958   5.947   9.791   1.372  0.3797  0.2144 -0.3345
 1015MOL0     C39959   6.078   9.829   1.404  0.0071 -0.3470 -0.3557
 1015MOL0     C39960   6.190   9.753   1.350 -0.6040 -0.1362 -0.5613
 1015MOL0     C39961   6.099   9.928   1.499 -0.4131 -0.4535 -0.2200
 1015MOL0     C39962   6.229   9.970   1.563  0.2387 -0.0698 -0.0052
 1015MOL0     O39963   6.347   9.890   1.535  0.5675 -0.2241  0.9857
 1015MOL0     C39964   6.469   9.951   1.539  0.0400  0.7472  0.5025
 1015MOL0     C39965   6.501  10.044   1.444 -0.2349  0.0196  0.2421
 1015MOL0     C39966   6.619  10.117   1.451 -0.1489  0.7758  0.0681
 1015MOL0     C39967   6.711  10.093   1.553 -0.3160  0.2909 -0.8026
 1015MOL0     O39968   6.825  10.153   1.555 -0.5300  0.0935 -0.0476
 1015MOL0     C39969   6.874  10.204   1.676  0.1019 -0.1338 -0.0328
 1015MOL0     C39970   7.023  10.177   1.690  0.2276 -0.7803 -0.1645
 1015MOL0     C39971   7.113  10.239   1.578 -0.2978 -0.3189 -0.5683
 1015MOL0     C39972   7.257  10.219   1.614 -0.0731  0.3158 -0.4738
 1015MOL0     C39973   7.359  10.241   1.501  0.2360  0.7290 -0.9822
 1015MOL0     C39974   7.512  10.227   1.541  0.4895  0.5898  0.7789
 1015MOL0     C39975   7.539  10.104   1.635 -0.1463 -0.1691  0.0118
 1015MOL0     C39976   7.692  10.077   1.639  0.5254 -0.1394  0.5979
 1015MOL0    Cl39977   7.718   9.969   1.776 -0.1877  0.2624  0.1049
 1015MOL0     C39978   6.677   9.985   1.645 -0.6592 -0.5535  0.3794
 1015MOL0     C39979   6.557   9.918   1.638 -0.5329 -0.4988 -0.1679
 1015MOL0     O39980   6.229  10.065   1.648 -0.1018  0.6373  0.4867
 1015MOL0     C39981   5.982   9.997   1.549  0.1551  0.6455 -0.6215
 1015MOL0     C39982   5.853   9.950   1.526  0.4712 -0.1729  0.1848
 1015MOL0     N39983   5.319   9.962   1.165  0.5462  0.5613  0.1283
 1015MOL0     N39984   5.213  10.036   1.153  0.2605 -0.8116 -0.1352
 1015MOL0     C39985   3.901  10.039   0.689 -0.2244  0.4903  0.5423
 1015MOL0     C39986   3.824  10.027   0.571  0.0861 -0.0198  0.0196
 1015MOL0     C39987   3.672  10.049   0.169 -0.8302  0.3005 -0.4952
 1015MOL0     C39988   3.615   9.920   0.145  0.0001  0.2293 -0.3746
 1015MOL0     C39989   3.494   9.914   0.069  0.4189  0.9419 -0.5880
 1015MOL0     C39990   3.430  10.025   0.018  0.8662 -0.1976 -0.1722
 1015MOL0     O39991   3.307  10.012  -0.049 -0.6179 -0.4474 -0.2750
 1015MOL0     C39992   3.232  10.128  -0.093 -0.3184  0.2276  0.1548
 1015MOL0     C39993   3.139  10.175   0.019  0.0663 -0.5086  0.2856
 1015MOL0     C39994   3.036  10.067   0.056  0.1767  0.2830 -0.7240
 1015MOL0     C39995   2.964  10.121   0.187  0.2105 -0.4721  0.1914
 1015MOL0     C39996   2.835  10.055   0.210  0.4212  0.1477  0.2030
 1015MOL0     C39997   2.725  10.004   0.239 -0.2524  0.0724  0.6505
 1015MOL0     C39998   3.497  10.151   0.046 -0.1927 -0.0589 -0.6407
 1015MOL0     C39999   3.614  10.163   0.112 -1.5676  0.0918 -0.4188
 1015MOL0     C40000   3.668  10.300   0.130 -0.3088  0.0851 -0.2253
 1015MOL0     H40001   4.044   9.872   0.361 -0.5526  0.5293 -0.5641
 1015MOL0     H40002   4.197   9.912   0.562  0.1133 -0.7835  3.2779
 1015MOL0     H40003   4.255   9.879   0.755  3.1068  2.1670 -1.6048
 1015MOL0     H40004   4.152   9.877   0.905  3.2180  0.3997  3.2239
 1015MOL0     H40005   4.367  10.080   0.824  1.2296  0.3348  0.4556
 1015MOL0     H40006   4.273  10.076   0.979  0.8114  2.1403 -0.6671
 1015MOL0     H40007   4.385   9.839   1.027 -0.4061 -0.5698 -1.0482
 1015MOL0     H40008   4.481   9.890   0.889  0.0046  2.0605 -0.2909
 1015MOL0     H40009   4.533  10.116   1.013  1.4584  0.8447  0.7413
 1015MOL0     H40010   4.473  10.043   1.155 -0.8264 -3.1358 -0.4983
 1015MOL0     H40011   4.720   9.999   0.985  0.1116 -2.5829 -0.9091
 1015MOL0     H40012   4.644   9.850   1.060 -2.1328  0.4965  0.1061
 1015MOL0     H40013   4.739  10.116   1.200 -0.6610 -0.4655 -0.8701
 1015MOL0     H40014   4.673   9.980   1.284 -1.9574 -0.9135 -1.8420
 1015MOL0     H40015   4.870   9.835   1.210 -0.4633  0.4929 -0.6373
 1015MOL0     H40016   4.911   9.977   1.312  1.0250  3.9281 -1.0591
 1015MOL0     H40017   4.961   9.931   1.010  2.9256 -1.2596  0.1016
 1015MOL0     H40018   4.966  10.093   1.065 -1.3841 -0.3664 -1.3485
 1015MOL0     H40019   5.083   9.732   1.152  1.8542 -0.6952 -0.2531
 1015MOL0     H40020   5.483   9.749   1.135  1.4966 -2.2314  0.6062
 1015MOL0     H40021   5.351   9.627   1.146 -0.1989  0.1586 -0.6499
 1015MOL0     H40022   5.451   9.799   1.370 -4.5709  2.3059 -1.1222
 1015MOL0     H40023   5.340   9.657   1.378  1.4342  0.8887  3.1335
 1015MOL0     H40024   5.559   9.586   1.469  0.7489 -0.5433  0.3031
 1015MOL0     H40025   5.539   9.515   1.312  0.4838 -1.0510  3.2402
 1015MOL0     H40026   5.762   9.610   1.325 -0.7159 -0.1938 -3.1174
 1015MOL0     H40027   5.684   9.731   1.233  4.3067  0.9606  0.1956
 1015MOL0     H40028   5.939   9.705   1.306 -0.9382 -0.9691  1.2691
 1015MOL0     H40029   6.152   9.691   1.269 -3.3275 -1.3001  1.4494
 1015MOL0     H40030   6.228   9.689   1.429  0.0709 -0.3671 -1.0659
 1015MOL0     H40031   6.272   9.808   1.302 -0.1697 -0.4275 -0.1573
 1015MOL0     H40032   6.423  10.046   1.369 -0.9645 -3.7670  0.6979
 1015MOL0     H40033   6.635  10.195   1.378 -2.5115  1.2875  0.0159
 1015MOL0     H40034   6.852  10.310   1.684  1.1347  0.1019 -0.1716
 1015MOL0     H40035   6.816  10.162   1.759 -1.6951 -0.0916 -1.2118
 1015MOL0     H40036   7.045  10.219   1.788  0.8034 -0.3222 -0.4809
 1015MOL0     H40037   7.043  10.070   1.702 -1.9570 -1.3581 -1.1227
 1015MOL0     H40038   7.098  10.347   1.582 -2.2200 -0.5836  2.7270
 1015MOL0     H40039   7.089  10.211   1.474  1.6638 -1.8720 -0.6681
 1015MOL0     H40040   7.270  10.123   1.664 -1.1613  0.0289 -0.7080
 1015MOL0     H40041   7.282  10.288   1.695 -1.5274 -0.1111  0.3873
 1015MOL0     H40042   7.339  10.170   1.420 -2.2662  2.4474 -1.9662
 1015MOL0     H40043   7.344  10.343   1.464  1.2830  1.1834 -0.1990
 1015MOL0     H40044   7.542  10.316   1.599 -0.7907  0.7632  1.2064
 1015MOL0     H40045   7.574  10.206   1.454 -0.7084 -4.7684  0.8783
 1015MOL0     H40046   7.485  10.012   1.611  0.6222 -0.9271  1.0449
 1015MOL0     H40047   7.508  10.132   1.737 -3.3441 -0.3899 -0.7723
 1015MOL0     H40048   7.736  10.176   1.653 -1.0446  0.9394 -1.7427
 1015MOL0     H40049   7.732  10.026   1.551  0.3286  0.4760  0.1508
 1015MOL0     H40050   6.745   9.940   1.716 -0.0616 -0.3557 -0.0581
 1015MOL0     H40051   6.533   9.831   1.698  4.3104 -1.3310  0.9896
 1015MOL0     H40052   6.004  10.078   1.618  2.5896  0.9250 -1.6084
 1015MOL0     H40053   5.756   9.983   1.562 -0.4193  2.3235 -3.8223
 1015MOL0     H40054   3.851  10.102   0.761  0.8141  0.6266  1.1733
 1015MOL0     H40055   3.720  10.054   0.561  0.4911  1.0960 -1.4667
 1015MOL0     H40056   3.648   9.827   0.190 -0.0228 -0.3319 -1.4790
 1015MOL0     H40057   3.440   9.820   0.060 -1.3114  1.9345 -0.9560
 1015MOL0     H40058   3.299  10.202  -0.139  0.7942 -1.2595 -0.7138
 1015MOL0     H40059   3.175  10.093  -0.180  2.1490 -0.7402 -1.1759
 1015MOL0     H40060   3.100  10.271  -0.016  1.9313 -0.1850 -1.0635
 1015MOL0     H40061   3.211  10.190   0.100 -1.0464 -1.8046  1.5884
 1015MOL0     H40062   2.967  10.054  -0.028  0.0535 -0.1299 -0.5630
 1015MOL0     H40063   3.079   9.971   0.084  1.8567  1.2182  0.1242
 1015MOL0     H40064   2.945  10.228   0.176 -0.4055 -0.3730  2.0015
 1015MOL0     H40065   3.026  10.112   0.276 -1.6010  0.7215  1.6423
 1015MOL0     H40066   2.623   9.978   0.256 -0.6914  0.9446 -0.6080
 1015MOL0     H40067   3.439  10.237   0.014 -0.1409 -0.2684 -1.3148
 1015MOL0     H40068   3.625  10.341   0.222 -0.4021  0.1238 -0.2863
 1015MOL0     H40069   3.777  10.299   0.121 -0.4271 -2.1803 -2.5986
 1015MOL0     H40070   3.637  10.367   0.049  0.7802  1.0155  0.0891
 1016MOL0     O40071   8.180   1.056   4.935  0.0099  0.4154 -0.2382
 1016MOL0     C40072   8.147   0.958   4.998  0.4448  0.5028 -0.5933
 1016MOL0     O40073   8.216   0.835   5.005  0.0619  0.3292  0.3123
 1016MOL0     C40074   8.326   0.801   4.923 -0.8468  0.2370 -0.9365
 1016MOL0     C40075   8.342   0.669   4.866 -0.1044  0.4732 -0.2996
 1016MOL0     C40076   8.442   0.626   4.785  0.1521  0.4430  0.2078
 1016MOL0     C40077   8.539   0.720   4.742  0.0055 -0.2022 -0.0721
 1016MOL0     O40078   8.638   0.705   4.646 -0.6210 -0.2025 -0.1849
 1016MOL0     C40079   8.645   0.572   4.594 -0.4461  0.2607  0.2120
 1016MOL0     C40080   8.784   0.576   4.521  0.4991  0.3745  0.0109
 1016MOL0     C40081   8.908   0.573   4.610  1.0748 -0.9674  0.2710
 1016MOL0     C40082   9.038   0.571   4.532  0.6084 -0.3431 -0.7423
 1016MOL0     C40083   9.148   0.613   4.622 -0.0883 -0.3201  0.2998
 1016MOL0     C40084   9.283   0.602   4.557  0.2427  0.1716  0.1154
 1016MOL0     C40085   9.387   0.650   4.644 -0.3496  0.6781  0.1870
 1016MOL0     C40086   9.516   0.575   4.609 -0.8526 -1.1558  0.0108
 1016MOL0     N40087   9.629   0.619   4.703  0.3949 -0.3800  0.4377
 1016MOL0     C40088   9.700   0.733   4.686  1.1017 -0.6011  0.3735
 1016MOL0     C40089   9.793   0.716   4.781  0.4370  0.6463 -0.2859
 1016MOL0     C40090   9.913   0.810   4.800  0.0851  0.3328  1.0122
 1016MOL0     C40091   9.873   0.953   4.844  1.3209 -0.2584  0.6921
 1016MOL0     C40092   9.994   1.028   4.906  0.3609  0.1537  0.0696
 1016MOL0     C40093  10.111   1.065   4.815 -0.9411 -1.0249  0.2390
 1016MOL0     O40094  10.203   1.151   4.882  0.0865  0.0270  0.0506
 1016MOL0     C40095  10.328   1.112   4.912  0.4411  0.3434  0.3961
 1016MOL0     C40096  10.383   0.988   4.914 -0.5829  0.0035 -0.1436
 1016MOL0     C40097  10.520   0.963   4.943  0.3315 -0.1117 -0.2117
 1016MOL0     C40098  10.556   0.818   4.937 -0.7089  0.1579 -0.2612
 1016MOL0     C40099  10.600   1.076   4.986 -0.6153 -0.6849 -0.7295
 1016MOL0     C40100  10.743   1.070   5.031  0.2012 -0.2313  0.5704
 1016MOL0     O40101  10.802   1.187   5.062  0.0484  0.3564 -0.3109
 1016MOL0     C40102  10.940   1.199   5.067  0.4294 -1.2616 -0.4746
 1016MOL0     C40103  10.980   1.323   5.126 -0.1438  0.2744 -0.7591
 1016MOL0     C40104  11.116   1.349   5.141  0.7718  0.6287  0.1084
 1016MOL0     C40105  11.220   1.253   5.100 -0.5997 -0.2494  0.5706
 1016MOL0     O40106  11.352   1.275   5.111  0.0394  0.1332 -0.1763
 1016MOL0     C40107  11.399   1.346   5.231  0.2403  0.3058  0.2647
 1016MOL0     C40108  11.532   1.295   5.280 -1.4745 -0.9029 -0.3083
 1016MOL0     C40109  11.633   1.307   5.168 -0.5136 -0.1461 -0.1490
 1016MOL0     C40110  11.769   1.301   5.222 -0.0841  0.2041  0.4675
 1016MOL0     C40111  11.869   1.258   5.114 -0.0631 -0.4022  0.9196
 1016MOL0     C40112  12.004   1.197   5.175  0.7931 -0.1830 -0.7649
 1016MOL0     C40113  12.099   1.317   5.209  0.2935  0.0453 -0.0316
 1016MOL0     C40114  12.208   1.336   5.097 -0.1207 -0.0174  0.2649
 1016MOL0    Cl40115  12.327   1.454   5.151 -0.3865 -0.1777 -0.2717
 1016MOL0     C40116  11.178   1.144   5.027 -0.3728  0.1010  0.1075
 1016MOL0     C40117  11.040   1.119   5.011 -0.4293 -0.9490 -0.4845
 1016MOL0     O40118  10.797   0.961   5.048 -0.6177 -0.2011  0.2505
 1016MOL0     C40119  10.536   1.204   4.977 -0.2388 -0.5102 -0.2766
 1016MOL0     C40120  10.403   1.220   4.939  0.2131 -0.1866 -0.4200
 1016MOL0     N40121   9.780   0.598   4.848 -0.1449  0.5337 -0.0855
 1016MOL0     N40122   9.673   0.548   4.803 -0.5396 -0.3887  0.2445
 1016MOL0     C40123   8.527   0.840   4.795 -0.4768  0.0827 -0.1999
 1016MOL0     C40124   8.429   0.887   4.887 -0.2284  1.3261 -0.1954
 1016MOL0     C40125   8.031   0.962   5.092  0.1124  0.1244  0.0856
 1016MOL0     C40126   8.004   0.847   5.167  1.0399 -0.3844  0.1187
 1016MOL0     C40127   7.909   0.856   5.270  1.1736  0.2594  0.3858
 1016MOL0     C40128   7.828   0.961   5.299 -1.0945 -0.4172 -0.4294
 1016MOL0     O40129   7.732   0.947   5.399 -0.3757  0.0026  0.3232
 1016MOL0     C40130   7.643   1.057   5.431  0.0290 -0.1519  0.7224
 1016MOL0     C40131   7.563   1.029   5.549 -0.5942 -0.3152  0.0390
 1016MOL0     C40132   7.478   0.900   5.551  0.3987 -0.0183 -0.3391
 1016MOL0     C40133   7.368   0.908   5.438 -0.2183  0.9086 -0.0266
 1016MOL0     C40134   7.264   1.006   5.477  0.5517  0.2871  0.1170
 1016MOL0     C40135   7.178   1.093   5.502  0.4770  0.1962 -0.0533
 1016MOL0     C40136   7.856   1.073   5.221 -0.7250 -0.1598 -0.7611
 1016MOL0     C40137   7.955   1.078   5.125 -0.6123  0.0614  0.2679
 1016MOL0     C40138   7.965   1.208   5.052  0.8607 -1.1330  0.5858
 1016MOL0     H40139   8.262   0.599   4.888 -0.9420  0.8832 -1.8691
 1016MOL0     H40140   8.442   0.529   4.737 -1.0915  1.9686 -3.2252
 1016MOL0     H40141   8.569   0.549   4.518 -0.3686  0.8899 -0.0609
 1016MOL0     H40142   8.649   0.486   4.661  0.7635 -0.8517 -1.2245
 1016MOL0     H40143   8.783   0.482   4.465  2.2715 -0.5651  1.4689
 1016MOL0     H40144   8.781   0.651   4.440 -2.8387 -0.4665 -0.8152
 1016MOL0     H40145   8.902   0.660   4.675 -2.0848 -1.1695  0.3740
 1016MOL0     H40146   8.906   0.486   4.675 -0.8494  0.8483  2.7959
 1016MOL0     H40147   9.064   0.466   4.515 -4.0134 -1.5631 -1.6771
 1016MOL0     H40148   9.041   0.624   4.437 -1.5532  0.7831 -0.2608
 1016MOL0     H40149   9.154   0.553   4.714 -2.5628 -2.5676 -0.8527
 1016MOL0     H40150   9.129   0.717   4.650 -0.3276  0.4547 -2.4729
 1016MOL0     H40151   9.304   0.498   4.529 -0.4505 -0.5432  2.0414
 1016MOL0     H40152   9.276   0.662   4.466  0.6253 -0.1264 -0.1135
 1016MOL0     H40153   9.363   0.633   4.750  0.3366  2.1705  0.6008
 1016MOL0     H40154   9.399   0.757   4.627  1.1674  0.5883  0.5658
 1016MOL0     H40155   9.491   0.470   4.630 -2.9599 -0.3266  2.1162
 1016MOL0     H40156   9.548   0.586   4.505 -0.9404  1.3743  0.2014
 1016MOL0     H40157   9.710   0.815   4.615  0.4637  0.2903  1.2768
 1016MOL0     H40158   9.958   0.821   4.701  2.4317  2.6622  2.1903
 1016MOL0     H40159   9.988   0.767   4.867 -0.3040  1.3261  2.1356
 1016MOL0     H40160   9.839   1.010   4.758  1.0939  1.9938  2.1778
 1016MOL0     H40161   9.784   0.953   4.908  0.0068 -0.5921 -1.0569
 1016MOL0     H40162   9.971   1.125   4.951 -0.5170 -1.3804  3.2034
 1016MOL0     H40163  10.027   0.966   4.990  3.6491  0.9705 -0.4829
 1016MOL0     H40164  10.156   0.981   4.762  0.1744  0.9391 -2.0929
 1016MOL0     H40165  10.068   1.123   4.733 -1.2552 -3.2989 -1.2726
 1016MOL0     H40166  10.321   0.906   4.879  0.6061 -0.7663 -0.5053
 1016MOL0     H40167  10.482   0.754   4.888  1.0753 -4.4298  2.3547
 1016MOL0     H40168  10.574   0.777   5.037 -4.6298  1.2016  1.0358
 1016MOL0     H40169  10.643   0.801   4.873 -0.3678 -0.6276  0.3869
 1016MOL0     H40170  10.912   1.395   5.169 -0.3142 -1.6797  2.6377
 1016MOL0     H40171  11.141   1.444   5.185  2.3507 -0.4400  1.6401
 1016MOL0     H40172  11.384   1.454   5.225 -0.1811  0.1984 -0.7892
 1016MOL0     H40173  11.324   1.322   5.307 -1.5759  0.7902 -1.3016
 1016MOL0     H40174  11.567   1.354   5.365 -2.2691 -2.2637  1.0141
 1016MOL0     H40175  11.523   1.191   5.311  0.2575 -1.7518 -2.4178
 1016MOL0     H40176  11.619   1.400   5.111 -1.3531  0.3454  0.8067
 1016MOL0     H40177  11.598   1.222   5.110  0.9434  0.0099 -1.2903
 1016MOL0     H40178  11.780   1.243   5.314 -0.9333 -0.0958  0.3872
 1016MOL0     H40179  11.788   1.405   5.246  0.1655  0.3824 -0.4423
 1016MOL0     H40180  11.831   1.166   5.070 -1.5562 -0.9300  3.1414
 1016MOL0     H40181  11.887   1.342   5.046  0.3592 -0.0370  1.4777
 1016MOL0     H40182  12.048   1.133   5.098  0.7074  1.0023 -1.8316
 1016MOL0     H40183  11.976   1.146   5.268 -1.4034 -0.4672 -1.5132
 1016MOL0     H40184  12.149   1.303   5.305 -1.2218 -2.0839  0.5238
 1016MOL0     H40185  12.034   1.405   5.213  0.1915 -0.0672  1.5902
 1016MOL0     H40186  12.159   1.377   5.008  1.1117 -0.0793 -0.4717
 1016MOL0     H40187  12.258   1.242   5.072  0.6813  0.1483  1.1877
 1016MOL0     H40188  11.242   1.066   4.986  1.0114  0.8105  0.8788
 1016MOL0     H40189  11.003   1.033   4.956 -1.4202 -1.6223  1.1762
 1016MOL0     H40190  10.597   1.291   4.999 -1.8364  0.2438  1.4320
 1016MOL0     H40191  10.360   1.320   4.942 -1.4158 -0.7011  5.3309
 1016MOL0     H40192   8.593   0.913   4.749  0.1373 -1.3877 -1.7713
 1016MOL0     H40193   8.446   0.985   4.932  0.7384 -0.1788  3.0047
 1016MOL0     H40194   8.051   0.749   5.166  2.5571  0.2858  1.3822
 1016MOL0     H40195   7.893   0.757   5.313  0.2203  0.5172  0.6532
 1016MOL0     H40196   7.701   1.145   5.459 -1.4922  0.9407  0.5244
 1016MOL0     H40197   7.585   1.092   5.346  1.7941  1.1931 -0.0008
 1016MOL0     H40198   7.494   1.113   5.559 -0.3069  0.1692 -1.8048
 1016MOL0     H40199   7.624   1.028   5.640 -2.1047  3.7743  1.3171
 1016MOL0     H40200   7.548   0.818   5.535  1.3211 -0.0125  2.8896
 1016MOL0     H40201   7.435   0.893   5.651  5.6800 -1.3529  2.1907
 1016MOL0     H40202   7.319   0.814   5.413 -1.0671  0.5830  2.5717
 1016MOL0     H40203   7.420   0.955   5.354 -3.8346  1.7265 -1.9999
 1016MOL0     H40204   7.109   1.174   5.513  0.9452  0.4735  0.9796
 1016MOL0     H40205   7.799   1.161   5.248  2.7556  1.4200  2.2707
 1016MOL0     H40206   8.060   1.254   5.082  1.2658 -2.1803  0.9432
 1016MOL0     H40207   7.951   1.199   4.944 -4.5763  2.0799  0.6322
 1016MOL0     H40208   7.887   1.277   5.086 -0.1838 -1.9657 -0.0633
 1017MOL0     O40209   4.247   6.914   6.183  0.1861  1.1721  0.3310
 1017MOL0     C40210   4.293   6.802   6.174  0.7614  0.8542 -0.1169
 1017MOL0     O40211   4.425   6.766   6.172  0.6747 -0.2177 -0.0229
 1017MOL0     C40212   4.518   6.864   6.165 -0.9936  0.5771  0.0803
 1017MOL0     C40213   4.521   6.968   6.069  0.8323  0.2634 -0.2684
 1017MOL0     C40214   4.613   7.070   6.086 -1.2222  0.3021  0.4761
 1017MOL0     C40215   4.720   7.060   6.172  0.2034  0.0111 -0.2981
 1017MOL0     O40216   4.822   7.150   6.170  0.4042  0.2745 -0.3268
 1017MOL0     C40217   4.942   7.100   6.121  0.2354  0.3480 -0.3270
 1017MOL0     C40218   4.945   7.026   5.983 -0.4635  0.0199 -0.7966
 1017MOL0     C40219   4.920   7.111   5.856  0.7201 -0.8914  0.3912
 1017MOL0     C40220   5.024   7.223   5.826 -0.1018 -0.0934 -0.6209
 1017MOL0     C40221   5.166   7.184   5.775  0.4140 -0.3216 -0.1780
 1017MOL0     C40222   5.152   7.142   5.629 -0.3874 -1.1684  0.5171
 1017MOL0     C40223   5.279   7.112   5.562  0.6157  0.4500  0.2540
 1017MOL0     C40224   5.358   7.231   5.526  0.3654  0.3344  0.3673
 1017MOL0     N40225   5.471   7.189   5.453 -0.4492 -0.3234 -0.2270
 1017MOL0     C40226   5.481   7.117   5.344  0.0596 -0.7186  0.9822
 1017MOL0     C40227   5.615   7.106   5.317  0.7801  0.2179  0.5817
 1017MOL0     C40228   5.674   7.015   5.205 -0.3674 -0.1908 -0.2760
 1017MOL0     C40229   5.800   7.068   5.141  0.5959  0.8488 -0.2489
 1017MOL0     C40230   5.936   7.035   5.210 -0.6051 -0.6184 -0.4407
 1017MOL0     C40231   6.055   7.117   5.146 -0.2907 -0.2269 -1.1603
 1017MOL0     O40232   6.087   7.073   5.018 -0.2493  0.6392  0.2193
 1017MOL0     C40233   6.178   7.147   4.948 -0.4793  0.1856  0.0050
 1017MOL0     C40234   6.179   7.111   4.811 -0.0285  0.4531  0.2092
 1017MOL0     C40235   6.251   7.189   4.727  0.6432  0.3174  0.1648
 1017MOL0     C40236   6.233   7.152   4.579  0.2257 -0.3295 -0.2096
 1017MOL0     C40237   6.338   7.295   4.773 -0.5191 -0.5798 -0.6169
 1017MOL0     C40238   6.421   7.374   4.678  0.6639  0.9866 -0.4352
 1017MOL0     O40239   6.473   7.309   4.565 -0.6910 -0.7234 -0.5170
 1017MOL0     C40240   6.595   7.343   4.511 -0.4008 -0.8403  0.4572
 1017MOL0     C40241   6.709   7.303   4.584 -0.2914 -0.6339  0.0295
 1017MOL0     C40242   6.836   7.343   4.531 -0.6823 -0.0273 -0.2190
 1017MOL0     C40243   6.853   7.408   4.413 -0.1042 -1.1261 -0.0401
 1017MOL0     O40244   6.972   7.443   4.356  0.1519 -0.2262 -0.1205
 1017MOL0     C40245   7.090   7.420   4.432 -0.7748  0.3634 -0.1319
 1017MOL0     C40246   7.196   7.502   4.360 -0.0760 -0.5766 -0.1949
 1017MOL0     C40247   7.209   7.656   4.395 -0.1279 -0.1834 -0.4054
 1017MOL0     C40248   7.286   7.688   4.526 -0.7814  0.4973  0.0762
 1017MOL0     C40249   7.276   7.838   4.557  0.3187  0.8509  0.4508
 1017MOL0     C40250   7.325   7.861   4.700 -0.1672  0.9552 -0.2593
 1017MOL0     C40251   7.332   8.005   4.729 -0.1550 -0.4125 -0.8650
 1017MOL0     C40252   7.198   8.061   4.749 -0.4680 -0.5994  1.1327
 1017MOL0    Cl40253   7.130   8.121   4.599  0.0778 -0.1973  0.5752
 1017MOL0     C40254   6.740   7.421   4.328 -0.4672  0.2313 -0.3674
 1017MOL0     C40255   6.609   7.395   4.377 -0.2666 -0.5551 -0.9542
 1017MOL0     O40256   6.464   7.479   4.721  0.1570 -0.5562 -0.1390
 1017MOL0     C40257   6.327   7.328   4.908  0.8403  0.0100 -0.7565
 1017MOL0     C40258   6.251   7.248   5.002 -0.3844  1.0074 -0.5451
 1017MOL0     N40259   5.684   7.168   5.416  0.9438 -0.1786  0.2026
 1017MOL0     N40260   5.600   7.221   5.496 -0.1190 -0.0357  0.3584
 1017MOL0     C40261   4.730   6.944   6.250 -0.4705 -0.4489 -1.3612
 1017MOL0     C40262   4.628   6.852   6.254  0.2946  0.1093  1.2993
 1017MOL0     C40263   4.196   6.686   6.148 -0.4099  0.7699 -0.8547
 1017MOL0     C40264   4.253   6.571   6.098  0.2605  0.5218  0.1266
 1017MOL0     C40265   4.171   6.465   6.074  0.1066 -0.4365  0.3140
 1017MOL0     C40266   4.044   6.467   6.121  0.1064  0.0498  0.2009
 1017MOL0     O40267   3.977   6.344   6.114 -0.0648 -0.0040 -0.6048
 1017MOL0     C40268   3.936   6.305   5.987  0.0888 -0.7658  0.0034
 1017MOL0     C40269   3.825   6.197   5.991  0.2527  0.2379 -0.1126
 1017MOL0     C40270   3.746   6.197   6.120  0.0103 -0.7090  0.4010
 1017MOL0     C40271   3.620   6.118   6.112  0.0438  0.0130 -0.0765
 1017MOL0     C40272   3.533   6.133   6.225 -0.3836  0.6508 -0.3348
 1017MOL0     C40273   3.466   6.143   6.330 -0.2125  0.5186  0.7120
 1017MOL0     C40274   3.976   6.577   6.166 -0.0974 -0.0126 -0.3936
 1017MOL0     C40275   4.058   6.689   6.184  0.3611  0.4514  0.6399
 1017MOL0     C40276   3.985   6.808   6.240 -0.3070  0.5673  0.2756
 1017MOL0     H40277   4.447   6.984   5.992  0.1695  0.5666  0.4154
 1017MOL0     H40278   4.617   7.152   6.015 -0.1770  1.0029  1.3203
 1017MOL0     H40279   4.995   7.043   6.198 -0.1106  1.5051  0.8155
 1017MOL0     H40280   5.003   7.190   6.108  1.1712  0.3883  3.1988
 1017MOL0     H40281   5.049   6.993   5.980 -0.9264 -1.8027  0.9306
 1017MOL0     H40282   4.889   6.933   5.994 -0.4354  0.0394 -0.4684
 1017MOL0     H40283   4.904   7.061   5.760  1.8631  1.6508 -1.2402
 1017MOL0     H40284   4.828   7.160   5.888  0.7253 -0.2622 -0.5396
 1017MOL0     H40285   4.985   7.290   5.748 -1.2179 -0.1661 -0.1410
 1017MOL0     H40286   5.035   7.289   5.912 -2.2290  2.6029 -2.2591
 1017MOL0     H40287   5.201   7.098   5.835 -0.6411 -0.0953  0.7935
 1017MOL0     H40288   5.236   7.267   5.786 -1.2220  0.9445  1.3070
 1017MOL0     H40289   5.082   7.059   5.613 -2.4074  0.7643 -1.6197
 1017MOL0     H40290   5.107   7.225   5.573 -1.1646 -2.7844 -1.3645
 1017MOL0     H40291   5.256   7.059   5.469  2.2691 -3.0626  1.6688
 1017MOL0     H40292   5.343   7.039   5.613  0.6512 -0.5962 -1.2150
 1017MOL0     H40293   5.298   7.292   5.458 -0.2546 -0.0241  0.5877
 1017MOL0     H40294   5.381   7.292   5.614  1.1683  1.6389 -0.7016
 1017MOL0     H40295   5.389   7.078   5.300 -1.7776  0.6471  3.3642
 1017MOL0     H40296   5.601   7.010   5.124  1.4755  3.4468 -2.4248
 1017MOL0     H40297   5.696   6.915   5.243  0.8049 -1.4405 -3.8211
 1017MOL0     H40298   5.805   7.011   5.048  1.0259 -0.6613  0.6588
 1017MOL0     H40299   5.788   7.176   5.137 -0.4464  0.7917  0.8367
 1017MOL0     H40300   5.935   7.045   5.319 -2.1451 -3.2746 -0.1362
 1017MOL0     H40301   5.960   6.934   5.175 -0.4618  0.7867 -5.1508
 1017MOL0     H40302   6.017   7.220   5.147 -0.8522 -0.4307 -0.6268
 1017MOL0     H40303   6.144   7.121   5.209 -0.1994 -1.8010 -1.1560
 1017MOL0     H40304   6.110   7.038   4.769 -0.9040  2.4343 -2.0254
 1017MOL0     H40305   6.308   7.075   4.556  0.5618 -0.1830  0.3814
 1017MOL0     H40306   6.243   7.239   4.513 -1.3312 -0.7255 -1.0195
 1017MOL0     H40307   6.140   7.099   4.556 -0.0470 -1.7455  3.4460
 1017MOL0     H40308   6.693   7.258   4.681 -0.1452 -2.7616 -0.8874
 1017MOL0     H40309   6.926   7.337   4.591 -0.2459  1.6833 -0.6669
 1017MOL0     H40310   7.078   7.450   4.536  1.9148 -1.7144  0.9091
 1017MOL0     H40311   7.136   7.321   4.445  1.6551  1.7454  2.9991
 1017MOL0     H40312   7.296   7.462   4.380 -0.2501 -0.8967  0.0329
 1017MOL0     H40313   7.191   7.490   4.251  2.5225  1.8710 -0.7252
 1017MOL0     H40314   7.115   7.711   4.400  0.7463  1.3551 -0.0434
 1017MOL0     H40315   7.267   7.711   4.320 -0.0303 -0.8674 -0.8419
 1017MOL0     H40316   7.389   7.653   4.513 -1.6572 -2.8720  1.1946
 1017MOL0     H40317   7.249   7.630   4.610  1.8172 -1.0952  0.2138
 1017MOL0     H40318   7.342   7.889   4.486  1.4004 -0.1929  0.6711
 1017MOL0     H40319   7.174   7.873   4.541  1.1867  2.1491 -3.6338
 1017MOL0     H40320   7.428   7.823   4.699  0.5329  2.6878  1.0447
 1017MOL0     H40321   7.269   7.795   4.766 -0.9462 -0.6612 -2.4010
 1017MOL0     H40322   7.395   8.052   4.653 -3.2231  3.0302 -1.5283
 1017MOL0     H40323   7.378   8.026   4.826 -0.0982 -1.0794 -0.7418
 1017MOL0     H40324   7.212   8.151   4.810 -1.6070  0.2857  0.1343
 1017MOL0     H40325   7.131   7.993   4.803 -1.4328 -0.7831 -0.2693
 1017MOL0     H40326   6.764   7.456   4.228 -0.1952 -1.4191 -0.9023
 1017MOL0     H40327   6.523   7.404   4.312 -0.5767  0.8771 -0.3937
 1017MOL0     H40328   6.381   7.412   4.949  3.9631 -2.2235  0.0142
 1017MOL0     H40329   6.243   7.272   5.107 -0.9589 -0.0303 -0.3444
 1017MOL0     H40330   4.817   6.934   6.315 -1.4507 -1.4600 -0.1675
 1017MOL0     H40331   4.639   6.766   6.320 -1.4244 -2.8841 -2.0209
 1017MOL0     H40332   4.357   6.550   6.077  0.4236  1.7419 -0.3738
 1017MOL0     H40333   4.212   6.378   6.025 -1.9726 -0.4882 -1.4899
 1017MOL0     H40334   3.907   6.398   5.938 -2.5536 -1.6947 -0.3563
 1017MOL0     H40335   4.019   6.259   5.932 -0.9975 -1.2427 -1.2996
 1017MOL0     H40336   3.878   6.101   5.986 -1.9470 -1.1853  1.7373
 1017MOL0     H40337   3.762   6.210   5.903  0.4874  2.4157 -0.0073
 1017MOL0     H40338   3.806   6.154   6.201  1.3173 -0.6623 -0.5169
 1017MOL0     H40339   3.721   6.302   6.140  1.3443 -0.1135 -0.8490
 1017MOL0     H40340   3.645   6.012   6.096 -3.0505 -0.5534 -2.0595
 1017MOL0     H40341   3.561   6.148   6.025 -1.5168  0.6936  1.1684
 1017MOL0     H40342   3.416   6.156   6.424  2.0039  0.0935  2.0445
 1017MOL0     H40343   3.876   6.574   6.208 -0.0986  2.5832 -0.0719
 1017MOL0     H40344   3.884   6.796   6.281 -0.5191  0.4372 -0.2764
 1017MOL0     H40345   4.046   6.850   6.320  2.0379  0.8051 -1.5360
 1017MOL0     H40346   3.986   6.890   6.168  1.0469 -0.4074 -0.8856
 1018MOL0     O40347   3.248   4.761   6.872 -0.0342 -0.2815 -0.1562
 1018MOL0     C40348   3.296   4.668   6.809 -0.1127 -0.2142  0.2063
 1018MOL0     O40349   3.417   4.671   6.748  0.6900  0.5325  0.1158
 1018MOL0     C40350   3.523   4.747   6.798  0.7639  0.9702  0.1485
 1018MOL0     C40351   3.541   4.758   6.933  0.4285  0.2599  0.4612
 1018MOL0     C40352   3.655   4.809   6.996 -0.7400 -0.1069 -0.1462
 1018MOL0     C40353   3.755   4.854   6.910  1.1082 -0.2732  0.6094
 1018MOL0     O40354   3.873   4.917   6.950 -0.5868  0.1854 -0.2989
 1018MOL0     C40355   3.907   4.926   7.093 -0.2207  0.3943  0.4563
 1018MOL0     C40356   4.057   4.977   7.114  0.1485  0.4733 -0.3484
 1018MOL0     C40357   4.155   4.878   7.067 -0.6304 -0.0489  0.0844
 1018MOL0     C40358   4.305   4.923   7.098 -0.9537  0.1926 -0.0193
 1018MOL0     C40359   4.412   4.838   7.030  0.0882 -0.0386 -0.3375
 1018MOL0     C40360   4.553   4.885   7.049  0.0102 -0.0103  0.1759
 1018MOL0     C40361   4.589   4.897   7.200  0.8685 -0.0254  0.2689
 1018MOL0     C40362   4.732   4.922   7.205 -0.0944 -0.0993  0.1203
 1018MOL0     N40363   4.779   4.934   7.341 -0.1606 -0.0440  0.1054
 1018MOL0     C40364   4.800   4.822   7.421 -0.3228  0.0271 -0.8179
 1018MOL0     C40365   4.832   4.873   7.539  0.0043 -0.7972 -0.7903
 1018MOL0     C40366   4.880   4.793   7.653  0.2281 -0.0064  0.0427
 1018MOL0     C40367   5.030   4.757   7.651 -1.0009 -0.3671 -0.6404
 1018MOL0     C40368   5.127   4.874   7.659  0.0050 -0.8872 -0.1459
 1018MOL0     C40369   5.277   4.843   7.617  0.3420 -0.1916  0.3570
 1018MOL0     O40370   5.357   4.962   7.599 -0.4278 -1.5833  0.2814
 1018MOL0     C40371   5.488   4.957   7.564 -0.0033 -0.1159  0.5116
 1018MOL0     C40372   5.568   4.843   7.572 -1.0440 -0.1195  1.1239
 1018MOL0     C40373   5.706   4.844   7.538 -0.1831  0.4590 -0.8521
 1018MOL0     C40374   5.788   4.717   7.552  0.5662 -0.5914  0.6708
 1018MOL0     C40375   5.765   4.966   7.498  0.2282  1.3739 -0.4262
 1018MOL0     C40376   5.907   4.976   7.472  0.7610 -2.0013 -0.4747
 1018MOL0     O40377   6.001   4.927   7.558  0.1860 -0.1726 -0.0789
 1018MOL0     C40378   6.131   4.928   7.517 -0.5036 -0.5383 -0.1363
 1018MOL0     C40379   6.191   4.812   7.490  0.0572 -0.0095  0.2305
 1018MOL0     C40380   6.329   4.792   7.473 -0.9758  0.9946  0.1420
 1018MOL0     C40381   6.415   4.906   7.467  0.3693 -0.0453 -0.4080
 1018MOL0     O40382   6.543   4.892   7.431 -0.7910 -0.4580 -0.4921
 1018MOL0     C40383   6.599   5.002   7.351 -0.3676  0.3741  0.1286
 1018MOL0     C40384   6.738   4.957   7.307  1.0677 -0.1071  0.0612
 1018MOL0     C40385   6.740   4.829   7.223 -0.5013 -0.7468 -0.3203
 1018MOL0     C40386   6.852   4.741   7.266  0.3346  0.2727  0.1987
 1018MOL0     C40387   6.869   4.608   7.192  0.4373 -0.1510  0.8127
 1018MOL0     C40388   6.988   4.519   7.241  0.7315  0.2324  0.2098
 1018MOL0     C40389   7.109   4.526   7.144  0.7083 -0.1497  0.3160
 1018MOL0     C40390   7.239   4.464   7.207 -0.2145 -0.2386 -0.0529
 1018MOL0    Cl40391   7.373   4.460   7.103 -0.5981  0.2542  0.0714
 1018MOL0     C40392   6.355   5.027   7.508  0.7963 -0.4439  0.9172
 1018MOL0     C40393   6.218   5.040   7.533 -0.2305 -0.3804 -0.7952
 1018MOL0     O40394   5.928   5.024   7.363 -0.3113  0.3392  0.3719
 1018MOL0     C40395   5.689   5.085   7.501  0.7018  0.3983  0.4203
 1018MOL0     C40396   5.551   5.075   7.528  0.0641 -0.0596 -0.2437
 1018MOL0     N40397   4.814   5.015   7.535 -0.6269  0.0621  0.4304
 1018MOL0     N40398   4.776   5.049   7.414  0.7350  0.3335 -0.3666
 1018MOL0     C40399   3.730   4.866   6.774  0.1822 -0.2422  0.0052
 1018MOL0     C40400   3.615   4.812   6.716 -0.5571 -0.2393 -0.5537
 1018MOL0     C40401   3.211   4.548   6.802 -0.4272  1.0515 -0.1470
 1018MOL0     C40402   3.072   4.559   6.785 -0.2201 -0.4450 -0.2531
 1018MOL0     C40403   2.984   4.451   6.775 -0.3280  0.2399 -0.6172
 1018MOL0     C40404   3.041   4.324   6.776  0.6410  0.6640 -0.7651
 1018MOL0     O40405   2.950   4.219   6.784  0.5295 -0.2435 -0.4428
 1018MOL0     C40406   2.996   4.092   6.807 -0.3644  0.1332  1.0478
 1018MOL0     C40407   2.905   3.997   6.735  0.3059  0.6862 -0.6895
 1018MOL0     C40408   2.776   3.967   6.817 -0.7981 -0.1389  0.0700
 1018MOL0     C40409   2.716   3.830   6.780  0.2599 -0.5126  0.2701
 1018MOL0     C40410   2.657   3.838   6.648  0.5356 -0.4968 -0.1579
 1018MOL0     C40411   2.615   3.845   6.534 -0.7676  1.0887  0.0716
 1018MOL0     C40412   3.180   4.306   6.798 -0.5310 -0.0189 -0.0120
 1018MOL0     C40413   3.266   4.418   6.816 -0.4053  0.4816 -0.3699
 1018MOL0     C40414   3.406   4.378   6.837 -0.4352 -0.4025 -0.5853
 1018MOL0     H40415   3.469   4.713   7.001 -0.5103 -1.3001 -1.4871
 1018MOL0     H40416   3.679   4.795   7.101 -0.7354 -1.8899 -0.3631
 1018MOL0     H40417   3.898   4.835   7.153  1.1151 -3.0748 -4.0618
 1018MOL0     H40418   3.841   5.005   7.129 -1.4867  0.3929 -1.7002
 1018MOL0     H40419   4.059   5.081   7.081  0.1970  0.9198  1.0064
 1018MOL0     H40420   4.082   4.989   7.220  1.2237 -3.2213 -0.0426
 1018MOL0     H40421   4.132   4.783   7.116 -1.1604 -1.4774 -2.7165
 1018MOL0     H40422   4.155   4.864   6.958  2.4484  2.2196 -0.3659
 1018MOL0     H40423   4.322   5.028   7.071 -2.9155  1.0800  1.9089
 1018MOL0     H40424   4.324   4.911   7.205  3.7938  0.6304 -0.5789
 1018MOL0     H40425   4.380   4.835   6.925 -2.2659  0.7959  0.2965
 1018MOL0     H40426   4.419   4.738   7.075  3.7855  0.5810  0.8000
 1018MOL0     H40427   4.618   4.820   6.990  0.8938  0.2513  0.8400
 1018MOL0     H40428   4.557   4.985   7.005 -3.1776  0.8016  1.4466
 1018MOL0     H40429   4.579   4.812   7.268 -1.2244  0.3964  0.5656
 1018MOL0     H40430   4.531   4.969   7.258  1.2045  1.2107 -0.8803
 1018MOL0     H40431   4.780   4.843   7.145 -1.7713 -0.6878 -0.5253
 1018MOL0     H40432   4.748   5.015   7.151 -1.3190  0.2374  0.2949
 1018MOL0     H40433   4.794   4.716   7.400  2.2482 -0.6732  1.5232
 1018MOL0     H40434   4.827   4.697   7.649 -0.8364  0.6044 -1.4025
 1018MOL0     H40435   4.849   4.835   7.749 -1.3583 -3.1046  1.0353
 1018MOL0     H40436   5.057   4.695   7.738  4.0802  1.2645 -0.7162
 1018MOL0     H40437   5.050   4.705   7.557  0.0655 -1.9039  0.3894
 1018MOL0     H40438   5.089   4.941   7.582 -0.7152  0.3624  1.2401
 1018MOL0     H40439   5.134   4.920   7.758  1.4767 -3.4545  1.0331
 1018MOL0     H40440   5.319   4.788   7.702 -0.8016  0.6908  1.5380
 1018MOL0     H40441   5.267   4.780   7.528  0.4110 -0.6295  0.6593
 1018MOL0     H40442   5.509   4.753   7.579 -1.2772 -0.1023 -0.3160
 1018MOL0     H40443   5.840   4.720   7.648 -2.0674 -2.7320  2.3242
 1018MOL0     H40444   5.864   4.713   7.474 -0.4521  0.7228 -0.4382
 1018MOL0     H40445   5.725   4.628   7.541  1.0818 -0.7677 -1.2202
 1018MOL0     H40446   6.126   4.725   7.493  2.3891 -1.8856 -0.4230
 1018MOL0     H40447   6.366   4.694   7.447 -0.4518  1.0035  0.8193
 1018MOL0     H40448   6.541   5.019   7.260 -0.7516  0.3367  0.3652
 1018MOL0     H40449   6.611   5.095   7.407 -3.9825  0.2066  1.4735
 1018MOL0     H40450   6.786   5.036   7.248 -0.7757 -1.4548 -3.5277
 1018MOL0     H40451   6.789   4.940   7.403  0.3517 -1.9583  0.1438
 1018MOL0     H40452   6.752   4.847   7.116  2.0881  0.4620  0.1098
 1018MOL0     H40453   6.645   4.776   7.239  0.2969 -2.1237  0.0646
 1018MOL0     H40454   6.832   4.719   7.372 -0.1730  2.1673  0.5460
 1018MOL0     H40455   6.947   4.795   7.273  0.9793 -0.9008  0.8182
 1018MOL0     H40456   6.775   4.554   7.194  0.3892 -0.0634  2.2784
 1018MOL0     H40457   6.883   4.622   7.084  1.6597  0.7301  1.0664
 1018MOL0     H40458   6.953   4.417   7.254 -0.9358  0.5553 -1.4769
 1018MOL0     H40459   7.018   4.560   7.338 -3.7474  0.5794  1.6660
 1018MOL0     H40460   7.128   4.631   7.120  0.0414 -0.4074 -1.5253
 1018MOL0     H40461   7.076   4.471   7.055 -0.9973  1.1053  0.1271
 1018MOL0     H40462   7.221   4.359   7.231  0.8219 -0.9795 -2.2399
 1018MOL0     H40463   7.263   4.529   7.291 -1.8094  0.4332 -0.0720
 1018MOL0     H40464   6.418   5.113   7.526 -0.2648 -0.0064  2.8175
 1018MOL0     H40465   6.164   5.123   7.577 -1.3004 -0.7862 -1.3261
 1018MOL0     H40466   5.733   5.180   7.475 -1.5662  1.5267  0.4625
 1018MOL0     H40467   5.480   5.156   7.521  2.3653  2.3785  1.9077
 1018MOL0     H40468   3.799   4.925   6.716 -2.0090  3.0681  0.4606
 1018MOL0     H40469   3.600   4.820   6.609  0.9272 -1.7627 -0.9231
 1018MOL0     H40470   3.024   4.657   6.789 -0.4422 -0.5869  2.6917
 1018MOL0     H40471   2.877   4.466   6.767 -0.2448  0.3481 -1.5658
 1018MOL0     H40472   3.099   4.069   6.777 -0.2978 -0.3308  1.6187
 1018MOL0     H40473   2.991   4.080   6.915 -2.5966  1.6443  1.1831
 1018MOL0     H40474   2.964   3.907   6.715  1.2619  1.0823  0.2700
 1018MOL0     H40475   2.869   4.041   6.641  0.8797  0.0322 -1.2279
 1018MOL0     H40476   2.801   3.977   6.923  0.3473  1.3466 -0.3056
 1018MOL0     H40477   2.724   4.060   6.792  0.6617  0.4627 -0.8978
 1018MOL0     H40478   2.639   3.809   6.855  1.2632  1.4083  1.9720
 1018MOL0     H40479   2.794   3.753   6.779  0.9202  0.1237 -1.2280
 1018MOL0     H40480   2.585   3.842   6.431  1.1336 -1.8455 -0.5399
 1018MOL0     H40481   3.232   4.211   6.808 -0.6559  0.1144  2.7761
 1018MOL0     H40482   3.460   4.444   6.906  0.9451  0.3874 -2.3361
 1018MOL0     H40483   3.420   4.276   6.875  3.4498 -0.1605 -0.9600
 1018MOL0     H40484   3.468   4.382   6.747  0.8175 -0.9893  0.2205
 1019MOL0     O40485   3.272   9.912   2.857  0.5495  0.7597  0.4978
 1019MOL0     C40486   3.201   9.811   2.882 -0.3874 -0.4596 -0.7006
 1019MOL0     O40487   3.257   9.697   2.911 -0.2564  0.0874  0.3236
 1019MOL0     C40488   3.396   9.685   2.900  0.0596  0.3679  0.2587
 1019MOL0     C40489   3.451   9.592   2.809  0.6623  0.4440  0.1431
 1019MOL0     C40490   3.584   9.564   2.815  0.4447  0.5055 -0.5342
 1019MOL0     C40491   3.669   9.641   2.897 -0.6262 -0.6661 -0.0037
 1019MOL0     O40492   3.807   9.629   2.872 -0.0382 -0.4431 -0.3735
 1019MOL0     C40493   3.900   9.736   2.909 -0.2332  0.2323 -0.7003
 1019MOL0     C40494   4.037   9.731   2.836  0.2246  0.3821 -0.2341
 1019MOL0     C40495   4.028   9.733   2.689 -0.6467 -0.1739 -0.1415
 1019MOL0     C40496   4.168   9.756   2.629 -0.1124 -0.1323  0.7966
 1019MOL0     C40497   4.277   9.679   2.681  0.3702  0.2915 -0.5733
 1019MOL0     C40498   4.402   9.687   2.596 -0.3867 -0.0544  0.5950
 1019MOL0     C40499   4.503   9.600   2.657 -0.2836 -0.5090  0.1935
 1019MOL0     C40500   4.639   9.630   2.598 -0.3382  0.1293 -0.6647
 1019MOL0     N40501   4.747   9.588   2.691  0.4312 -0.1404 -0.3996
 1019MOL0     C40502   4.742   9.476   2.772  0.5378 -0.5345 -0.4919
 1019MOL0     C40503   4.861   9.478   2.838  0.0789 -0.8318  0.7660
 1019MOL0     C40504   4.907   9.385   2.934  0.6453 -0.1883 -0.1931
 1019MOL0     C40505   5.026   9.311   2.887 -0.3672  0.3349  1.0242
 1019MOL0     C40506   5.113   9.237   2.982 -0.3551 -0.6843 -0.0642
 1019MOL0     C40507   5.150   9.314   3.107 -0.2401  0.4152  0.4960
 1019MOL0     O40508   5.220   9.434   3.082 -0.1688 -0.3096  0.2853
 1019MOL0     C40509   5.260   9.516   3.183  0.6641  0.5210 -0.4354
 1019MOL0     C40510   5.232   9.501   3.319  0.4238  0.0228 -0.5231
 1019MOL0     C40511   5.297   9.588   3.409  0.1366 -0.1047  0.2060
 1019MOL0     C40512   5.295   9.548   3.558 -0.2993 -0.3237 -0.6569
 1019MOL0     C40513   5.368   9.703   3.369 -0.2154  0.3132 -0.6797
 1019MOL0     C40514   5.434   9.806   3.456 -0.2643 -0.4188 -0.0076
 1019MOL0     O40515   5.505   9.899   3.384  0.4629 -0.1870  0.4154
 1019MOL0     C40516   5.585   9.991   3.458 -0.2646  1.3854 -0.7754
 1019MOL0     C40517   5.694  10.041   3.385  0.6032  0.5482 -0.2023
 1019MOL0     C40518   5.792  10.115   3.449 -0.3258 -0.5904  1.0413
 1019MOL0     C40519   5.781  10.156   3.581  0.3093 -0.5998  0.5007
 1019MOL0     O40520   5.877  10.249   3.625  0.0497  0.6246 -0.1855
 1019MOL0     C40521   5.868  10.286   3.770  0.3320 -0.6783  0.7384
 1019MOL0     C40522   5.994  10.336   3.815  0.5543 -0.2692  0.3461
 1019MOL0     C40523   6.102  10.232   3.810 -0.6727  0.9734  0.0269
 1019MOL0     C40524   6.247  10.277   3.842  0.1115 -0.0531  0.4352
 1019MOL0     C40525   6.343  10.162   3.863  0.5528 -0.5733 -0.1678
 1019MOL0     C40526   6.477  10.214   3.910 -0.3483  0.1035 -0.2514
 1019MOL0     C40527   6.572  10.098   3.951 -0.0493  0.3100 -0.2281
 1019MOL0     C40528   6.647  10.063   3.833  0.2886  0.0062  0.3899
 1019MOL0    Cl40529   6.765   9.945   3.890 -0.1887 -0.2305 -0.5680
 1019MOL0     C40530   5.668  10.112   3.650  0.1052  0.5071  0.1109
 1019MOL0     C40531   5.568  10.030   3.594  0.9720 -0.5386 -0.6778
 1019MOL0     O40532   5.423   9.791   3.578 -1.0473  0.5576  0.4660
 1019MOL0     C40533   5.385   9.718   3.232 -1.0580  0.3009  0.3183
 1019MOL0     C40534   5.337   9.619   3.142 -0.1732  0.2930 -0.1568
 1019MOL0     N40535   4.933   9.589   2.796  0.3740 -0.1068  0.0757
 1019MOL0     N40536   4.867   9.653   2.705 -0.4053  0.2463  0.9164
 1019MOL0     C40537   3.616   9.731   2.986 -0.3190  0.2127  0.6817
 1019MOL0     C40538   3.483   9.746   2.993  0.9111  0.2541  0.0677
 1019MOL0     C40539   3.053   9.826   2.894 -0.5063  0.8566  0.2554
 1019MOL0     C40540   3.005   9.957   2.893 -0.1809  0.2154 -0.0253
 1019MOL0     C40541   2.873   9.995   2.919 -0.3449  0.0503 -0.3704
 1019MOL0     C40542   2.776   9.895   2.947 -0.0571 -0.4674  0.5242
 1019MOL0     O40543   2.646   9.926   2.978 -0.5462 -1.1872 -0.9310
 1019MOL0     C40544   2.540   9.847   2.928 -0.0191 -0.3439 -0.1048
 1019MOL0     C40545   2.394   9.904   2.955 -1.0957 -0.5345 -0.2355
 1019MOL0     C40546   2.390   9.946   3.109  0.1057  0.1400  0.2639
 1019MOL0     C40547   2.436   9.841   3.214 -0.5128 -0.2686  0.0347
 1019MOL0     C40548   2.414   9.890   3.349 -0.4143  0.0024 -0.0885
 1019MOL0     C40549   2.399   9.936   3.462  0.3789 -0.2007 -0.6637
 1019MOL0     C40550   2.824   9.764   2.942  0.0797  0.3920  0.6470
 1019MOL0     C40551   2.959   9.726   2.910 -0.6566  0.4568  0.2536
 1019MOL0     C40552   2.994   9.578   2.917  0.2461 -0.1532  0.3754
 1019MOL0     H40553   3.385   9.529   2.751 -1.8600  2.0901  1.0583
 1019MOL0     H40554   3.636   9.484   2.762  0.1591  0.2684 -0.4551
 1019MOL0     H40555   3.920   9.722   3.016  2.4366 -1.5052 -1.3402
 1019MOL0     H40556   3.857   9.837   2.906 -3.2163 -0.7448  2.4128
 1019MOL0     H40557   4.094   9.814   2.877 -0.6801  0.1688  1.5888
 1019MOL0     H40558   4.085   9.639   2.871 -0.9324 -0.4608 -0.7584
 1019MOL0     H40559   3.986   9.637   2.656 -1.2819  0.5885 -1.6547
 1019MOL0     H40560   3.975   9.823   2.658  1.2192  1.9535  2.4022
 1019MOL0     H40561   4.161   9.736   2.521 -1.2636  2.0132  0.4121
 1019MOL0     H40562   4.189   9.862   2.644  3.0595 -0.7622  1.6365
 1019MOL0     H40563   4.240   9.576   2.688 -0.4227  0.7040  2.1349
 1019MOL0     H40564   4.304   9.704   2.783  0.3246  1.4865 -0.8414
 1019MOL0     H40565   4.381   9.644   2.497  0.5426 -2.2978  1.3075
 1019MOL0     H40566   4.449   9.785   2.579 -0.2714 -0.6188 -3.2124
 1019MOL0     H40567   4.479   9.493   2.659  2.5718 -1.2447 -0.7825
 1019MOL0     H40568   4.498   9.618   2.765  0.0191  0.1608  0.1036
 1019MOL0     H40569   4.659   9.594   2.497  1.6911  4.2015 -1.9314
 1019MOL0     H40570   4.647   9.738   2.584 -0.6183  0.6497  2.4776
 1019MOL0     H40571   4.661   9.404   2.787 -1.4363  1.6755  0.0149
 1019MOL0     H40572   4.828   9.313   2.952  2.8533 -2.6932  0.1175
 1019MOL0     H40573   4.919   9.439   3.028 -3.5294  1.1041 -0.2320
 1019MOL0     H40574   4.984   9.242   2.812  0.9236  0.9041 -0.2728
 1019MOL0     H40575   5.090   9.377   2.828 -0.6392 -2.0677 -2.2266
 1019MOL0     H40576   5.064   9.143   3.010  0.1860 -1.2577 -0.9645
 1019MOL0     H40577   5.208   9.215   2.932 -0.6394 -2.1064 -0.0383
 1019MOL0     H40578   5.063   9.325   3.173 -0.4003 -0.1514  0.3858
 1019MOL0     H40579   5.218   9.253   3.167  0.0972 -0.5305 -0.8031
 1019MOL0     H40580   5.182   9.408   3.344 -2.0892  1.4153 -0.1322
 1019MOL0     H40581   5.237   9.620   3.616  0.5920 -0.5856  0.6026
 1019MOL0     H40582   5.397   9.553   3.596 -0.8906  0.4572  0.9117
 1019MOL0     H40583   5.251   9.448   3.563 -0.7400 -0.1689 -1.2585
 1019MOL0     H40584   5.714  10.001   3.286  0.5337 -5.0018  1.6892
 1019MOL0     H40585   5.882  10.147   3.398 -1.3061  1.8514  0.7367
 1019MOL0     H40586   5.784  10.353   3.789  0.4253 -0.3556  0.0419
 1019MOL0     H40587   5.856  10.196   3.831  3.1189 -0.5149  1.7132
 1019MOL0     H40588   6.025  10.434   3.776 -1.5075  0.4689  0.4704
 1019MOL0     H40589   5.978  10.349   3.923 -0.9306  0.8360  0.0181
 1019MOL0     H40590   6.095  10.177   3.715 -4.6949  0.9180  0.1735
 1019MOL0     H40591   6.080  10.160   3.890  1.9621  1.5485  1.3706
 1019MOL0     H40592   6.242  10.351   3.922 -0.4061  1.8267 -1.2448
 1019MOL0     H40593   6.291  10.327   3.755 -1.7265 -0.2853 -0.6894
 1019MOL0     H40594   6.313  10.089   3.938  1.3073 -1.0993 -0.3689
 1019MOL0     H40595   6.354  10.098   3.775  4.4234 -0.4133  0.0083
 1019MOL0     H40596   6.466  10.289   3.989  3.8615 -1.3665  2.0911
 1019MOL0     H40597   6.515  10.274   3.827 -2.0410  0.2417 -0.9541
 1019MOL0     H40598   6.530  10.005   3.992  0.9937  0.3004  0.8969
 1019MOL0     H40599   6.647  10.136   4.020 -1.3483  1.0951  0.8093
 1019MOL0     H40600   6.698  10.152   3.795  4.6896 -1.6635  1.7632
 1019MOL0     H40601   6.581  10.023   3.755  2.6869 -2.5321 -0.5353
 1019MOL0     H40602   5.649  10.137   3.754 -2.7070 -1.1389  0.0785
 1019MOL0     H40603   5.488   9.995   3.659  0.7642  1.1682  0.0415
 1019MOL0     H40604   5.430   9.807   3.188 -0.0287 -0.5365 -0.3453
 1019MOL0     H40605   5.341   9.636   3.035 -0.7565 -0.4471 -0.3072
 1019MOL0     H40606   3.679   9.794   3.047  0.2043 -0.4169  0.7991
 1019MOL0     H40607   3.429   9.818   3.055 -3.3754 -2.1448 -0.4544
 1019MOL0     H40608   3.080  10.028   2.862  0.7245 -0.2577  1.0205
 1019MOL0     H40609   2.841  10.099   2.911  1.2035  0.3850 -2.8747
 1019MOL0     H40610   2.570   9.828   2.824 -0.8317 -1.8811 -0.0885
 1019MOL0     H40611   2.544   9.752   2.982 -0.3170  0.1225  0.7540
 1019MOL0     H40612   2.309   9.838   2.935 -0.4200 -1.8482  0.9892
 1019MOL0     H40613   2.373   9.999   2.905  0.2561 -0.2919 -0.3872
 1019MOL0     H40614   2.450  10.037   3.113  0.7251 -0.1968 -1.0296
 1019MOL0     H40615   2.290   9.983   3.132  0.0189  0.6985 -0.9379
 1019MOL0     H40616   2.544   9.833   3.200  0.0359  1.7489  2.3758
 1019MOL0     H40617   2.386   9.744   3.212 -1.2372  0.0857  0.5607
 1019MOL0     H40618   2.383   9.992   3.552  0.9197  1.0284 -1.2979
 1019MOL0     H40619   2.749   9.691   2.970  1.0566 -0.3592  1.3701
 1019MOL0     H40620   2.898   9.527   2.930 -0.1379  0.4728  0.0538
 1019MOL0     H40621   3.034   9.561   2.817 -1.1613 -4.1377  0.3123
 1019MOL0     H40622   3.063   9.542   2.994  3.0513  2.7404 -0.5615
 1020MOL0     O40623   3.690   7.839   7.257  0.3630 -0.2469 -0.5195
 1020MOL0     C40624   3.585   7.901   7.231 -0.3620  0.2016 -0.1782
 1020MOL0     O40625   3.562   7.988   7.122  0.4567 -0.0189  0.0595
 1020MOL0     C40626   3.656   8.048   7.046 -0.3016  0.2552  0.1867
 1020MOL0     C40627   3.611   8.104   6.927  0.4360 -0.6105 -0.5597
 1020MOL0     C40628   3.709   8.163   6.843  0.6289  0.4352 -0.5897
 1020MOL0     C40629   3.842   8.168   6.881  0.6777  0.0570  0.1009
 1020MOL0     O40630   3.936   8.227   6.801  0.3023  0.6615  0.3619
 1020MOL0     C40631   3.902   8.349   6.739  0.5197  0.3238  0.4035
 1020MOL0     C40632   4.029   8.414   6.685  0.2575  0.0366  0.5125
 1020MOL0     C40633   4.084   8.343   6.559  0.4824 -0.0898  0.2058
 1020MOL0     C40634   4.228   8.312   6.582 -0.1371  1.0645 -0.7152
 1020MOL0     C40635   4.262   8.187   6.495  0.0886  0.5136  0.4960
 1020MOL0     C40636   4.398   8.140   6.551 -0.3359  0.1987 -0.3044
 1020MOL0     C40637   4.440   7.999   6.492 -0.1675 -0.1923  1.1865
 1020MOL0     C40638   4.441   8.000   6.346 -0.1252  0.8131  0.0812
 1020MOL0     N40639   4.554   8.081   6.285  0.1301 -0.4960 -0.5771
 1020MOL0     C40640   4.689   8.055   6.285  0.3443  0.2178  0.8416
 1020MOL0     C40641   4.740   8.168   6.221  0.0509 -0.4538 -0.1366
 1020MOL0     C40642   4.888   8.198   6.201  0.9046 -0.4795 -0.4176
 1020MOL0     C40643   4.939   8.234   6.054  0.8236  0.0102  0.3298
 1020MOL0     C40644   4.889   8.129   5.947 -0.7813 -0.7238  0.3970
 1020MOL0     C40645   4.918   7.980   5.975 -0.2753 -0.3847 -0.3698
 1020MOL0     O40646   5.039   7.954   6.046  0.1123  0.0615 -0.1320
 1020MOL0     C40647   5.147   8.018   5.998 -0.1363  0.1059  0.5958
 1020MOL0     C40648   5.229   8.078   6.096  0.1790  0.2281 -0.3146
 1020MOL0     C40649   5.341   8.159   6.067 -0.5678 -0.5210  0.0301
 1020MOL0     C40650   5.426   8.225   6.178  0.6088  0.6181 -0.1293
 1020MOL0     C40651   5.375   8.160   5.924 -0.2391 -0.3750 -0.7326
 1020MOL0     C40652   5.500   8.236   5.880  0.5299  0.0112  0.6503
 1020MOL0     O40653   5.545   8.344   5.945  0.2212 -0.5850  0.0840
 1020MOL0     C40654   5.664   8.391   5.915 -0.6377 -0.4447  0.3745
 1020MOL0     C40655   5.706   8.449   5.794 -0.2482  0.5374  0.0533
 1020MOL0     C40656   5.836   8.497   5.786  0.0248 -0.4227  0.2121
 1020MOL0     C40657   5.932   8.479   5.886  0.6611 -0.4665  0.0743
 1020MOL0     O40658   6.062   8.517   5.851  0.0243 -0.1863 -0.2621
 1020MOL0     C40659   6.152   8.552   5.961  0.6272 -0.0042  0.1028
 1020MOL0     C40660   6.289   8.565   5.913 -0.7588  0.0111  0.4655
 1020MOL0     C40661   6.299   8.640   5.780  0.3475 -0.6704  0.6055
 1020MOL0     C40662   6.447   8.671   5.745 -0.2276  0.3778  0.4747
 1020MOL0     C40663   6.499   8.779   5.825 -0.4641 -0.0390 -0.2867
 1020MOL0     C40664   6.641   8.818   5.784  0.8559 -0.3929 -0.4189
 1020MOL0     C40665   6.746   8.713   5.812 -0.4415 -0.3971 -0.8998
 1020MOL0     C40666   6.895   8.770   5.782  0.0296 -0.5948  0.2177
 1020MOL0    Cl40667   6.955   8.886   5.909 -0.1435 -0.2739 -0.0613
 1020MOL0     C40668   5.884   8.429   6.009  0.4219  0.1889 -0.0180
 1020MOL0     C40669   5.754   8.382   6.019 -0.5916  0.0499 -0.0446
 1020MOL0     O40670   5.558   8.183   5.785  0.5432  0.0862 -0.3097
 1020MOL0     C40671   5.297   8.090   5.826 -0.6626  0.0379 -0.4400
 1020MOL0     C40672   5.186   8.024   5.862  0.3996  0.8187 -0.4606
 1020MOL0     N40673   4.647   8.264   6.216  0.0967 -0.3493 -0.5185
 1020MOL0     N40674   4.533   8.215   6.243 -0.2082  0.5182 -0.3408
 1020MOL0     C40675   3.881   8.121   7.006 -0.5536  1.7039 -0.8450
 1020MOL0     C40676   3.791   8.048   7.089 -0.1488 -0.0203  0.2387
 1020MOL0     C40677   3.492   7.917   7.338  0.3593  0.7258 -0.1032
 1020MOL0     C40678   3.474   8.046   7.387  0.6458 -0.2057 -1.0159
 1020MOL0     C40679   3.369   8.076   7.466  0.3994  0.2021  0.8585
 1020MOL0     C40680   3.275   7.972   7.512 -0.8423 -0.9922 -1.2971
 1020MOL0     O40681   3.166   7.985   7.595 -0.5109 -0.1023  0.4838
 1020MOL0     C40682   3.102   8.117   7.595 -0.0082 -0.0022 -0.5899
 1020MOL0     C40683   2.972   8.116   7.664 -0.0541  0.1796 -0.6910
 1020MOL0     C40684   2.985   8.101   7.815 -0.0038 -0.2212  0.5011
 1020MOL0     C40685   2.868   8.168   7.883 -0.0020  0.5118 -0.0369
 1020MOL0     C40686   2.742   8.105   7.829  0.5523 -0.0573  1.2718
 1020MOL0     C40687   2.641   8.056   7.774 -0.1248  0.2605 -0.3477
 1020MOL0     C40688   3.311   7.844   7.471  0.7742  0.3954 -0.5988
 1020MOL0     C40689   3.409   7.808   7.372 -0.0472  0.0636  0.3184
 1020MOL0     C40690   3.427   7.675   7.318  0.5325  0.9399 -0.1244
 1020MOL0     H40691   3.510   8.093   6.888 -0.5357 -0.8662  1.8916
 1020MOL0     H40692   3.677   8.193   6.744  0.3644 -5.3729 -2.5979
 1020MOL0     H40693   3.859   8.415   6.815 -1.8970  0.1757 -0.7375
 1020MOL0     H40694   3.822   8.325   6.669 -1.2033 -1.9946  2.9260
 1020MOL0     H40695   3.998   8.514   6.654 -0.3632 -0.9404 -2.3211
 1020MOL0     H40696   4.100   8.419   6.768  0.8239 -0.1487  0.0423
 1020MOL0     H40697   4.027   8.250   6.549  0.4545 -0.1157  0.6066
 1020MOL0     H40698   4.071   8.400   6.466 -0.9763 -2.3926 -1.1091
 1020MOL0     H40699   4.301   8.391   6.565  0.4121  0.7749  0.1921
 1020MOL0     H40700   4.239   8.287   6.688  0.2498  0.5998 -0.8638
 1020MOL0     H40701   4.262   8.205   6.387 -0.4251 -0.4299  0.3264
 1020MOL0     H40702   4.188   8.112   6.524  0.4285  0.3313  0.9156
 1020MOL0     H40703   4.469   8.219   6.528  0.2579 -0.6733 -1.5341
 1020MOL0     H40704   4.395   8.136   6.661 -0.1615 -1.4588 -0.3333
 1020MOL0     H40705   4.371   7.919   6.519 -1.8699  1.2114  1.1827
 1020MOL0     H40706   4.540   7.964   6.520  1.1513  1.8103 -0.6652
 1020MOL0     H40707   4.462   7.898   6.313 -0.7213  0.2387  1.3978
 1020MOL0     H40708   4.340   8.020   6.309 -0.0551  1.5939  0.2942
 1020MOL0     H40709   4.759   7.976   6.312  1.6851  0.7457 -0.8905
 1020MOL0     H40710   4.946   8.120   6.250 -1.2351 -0.2800  2.7098
 1020MOL0     H40711   4.897   8.286   6.265 -2.4105 -1.7505  2.1004
 1020MOL0     H40712   4.903   8.330   6.017 -1.5849 -1.3204 -1.0149
 1020MOL0     H40713   5.048   8.244   6.053  1.0902 -2.3177 -0.1422
 1020MOL0     H40714   4.783   8.142   5.927 -0.2643  2.6331 -0.7910
 1020MOL0     H40715   4.948   8.158   5.859 -1.8425 -0.7178 -0.3198
 1020MOL0     H40716   4.835   7.948   6.039 -0.3279 -0.6662 -0.5776
 1020MOL0     H40717   4.927   7.925   5.881  1.3542  2.3591 -1.9421
 1020MOL0     H40718   5.198   8.076   6.200  0.8820  1.9139 -0.0344
 1020MOL0     H40719   5.378   8.237   6.275 -0.9154  4.5238 -1.1719
 1020MOL0     H40720   5.442   8.327   6.140 -1.1323  0.4747 -1.3768
 1020MOL0     H40721   5.522   8.173   6.183 -0.2372 -1.1036 -0.8800
 1020MOL0     H40722   5.630   8.475   5.721  0.9299  1.5579 -0.8453
 1020MOL0     H40723   5.860   8.559   5.701  0.0838  0.6826  1.0050
 1020MOL0     H40724   6.118   8.650   5.994 -0.2372 -0.3939  0.3899
 1020MOL0     H40725   6.153   8.482   6.046  1.5870 -1.8435 -1.3370
 1020MOL0     H40726   6.353   8.613   5.988  1.3414 -2.4123  0.3720
 1020MOL0     H40727   6.327   8.464   5.896  0.5909  0.5030  0.3742
 1020MOL0     H40728   6.242   8.733   5.776 -2.5038 -2.2548  1.3149
 1020MOL0     H40729   6.255   8.573   5.706  2.4936 -1.1436 -0.2976
 1020MOL0     H40730   6.459   8.691   5.639 -0.7199  0.0440  0.3481
 1020MOL0     H40731   6.508   8.581   5.763  1.6046  1.3958 -0.4231
 1020MOL0     H40732   6.429   8.862   5.810 -0.5271 -0.5038 -3.2283
 1020MOL0     H40733   6.502   8.754   5.931 -0.3769 -3.2672 -0.9498
 1020MOL0     H40734   6.682   8.898   5.847 -0.9425  0.4628 -0.2818
 1020MOL0     H40735   6.644   8.859   5.683  2.2705  1.0182  0.1472
 1020MOL0     H40736   6.722   8.622   5.756  0.5895 -1.7589  0.7477
 1020MOL0     H40737   6.754   8.681   5.917 -1.0135 -1.4502 -1.1588
 1020MOL0     H40738   6.899   8.819   5.684  0.3596  0.4094  0.7189
 1020MOL0     H40739   6.962   8.684   5.768 -1.1059 -1.2409 -1.8021
 1020MOL0     H40740   5.947   8.418   6.096  1.9354  0.1449 -1.0783
 1020MOL0     H40741   5.740   8.322   6.109  0.4910  0.9172  0.7367
 1020MOL0     H40742   5.334   8.059   5.729 -3.2570 -1.2451 -1.1228
 1020MOL0     H40743   5.130   7.964   5.791 -3.2477  1.2903  1.7563
 1020MOL0     H40744   3.986   8.134   7.029 -1.0335  2.1111  1.3527
 1020MOL0     H40745   3.818   8.010   7.187  2.4417  1.3019  0.1138
 1020MOL0     H40746   3.539   8.128   7.355 -1.5758  1.3166 -1.9244
 1020MOL0     H40747   3.357   8.182   7.486 -1.6976  0.4689 -1.2994
 1020MOL0     H40748   3.167   8.195   7.637 -0.9101 -0.2823  1.4505
 1020MOL0     H40749   3.072   8.151   7.496 -0.2439 -2.4966 -1.4294
 1020MOL0     H40750   2.922   8.028   7.621  2.1255 -0.9344 -1.1226
 1020MOL0     H40751   2.911   8.202   7.636 -1.5354 -0.2628  0.9911
 1020MOL0     H40752   2.988   8.001   7.859  1.1728  0.3879  1.9124
 1020MOL0     H40753   3.071   8.160   7.849 -0.7343  0.6327  0.9202
 1020MOL0     H40754   2.867   8.273   7.852 -2.4863 -0.0155 -2.0927
 1020MOL0     H40755   2.879   8.162   7.992  0.5185  0.8966 -0.0652
 1020MOL0     H40756   2.546   8.020   7.739 -0.0590  1.5871 -2.0198
 1020MOL0     H40757   3.240   7.775   7.515 -0.6266  0.8019 -2.1460
 1020MOL0     H40758   3.431   7.672   7.209 -0.3976 -1.0537 -0.1555
 1020MOL0     H40759   3.520   7.641   7.363  0.5720  3.4818  1.9856
 1020MOL0     H40760   3.349   7.602   7.345 -0.3741  1.4395 -1.2919
 1021MOL0     O40761   7.955   2.450   0.966  1.1544  0.1841 -0.0537
 1021MOL0     C40762   7.982   2.558   0.919 -0.0224 -1.3947  0.2888
 1021MOL0     O40763   8.111   2.610   0.896 -0.6995 -0.0004  0.4014
 1021MOL0     C40764   8.201   2.505   0.862 -1.5000  0.0749  0.1352
 1021MOL0     C40765   8.315   2.478   0.939  0.3016 -0.8614  0.7387
 1021MOL0     C40766   8.406   2.376   0.911 -0.4086 -0.7294  0.1484
 1021MOL0     C40767   8.393   2.299   0.797  0.4029  0.4697  0.0448
 1021MOL0     O40768   8.476   2.193   0.769 -0.1710  0.4982 -0.6812
 1021MOL0     C40769   8.617   2.220   0.794  0.1778 -0.5214  0.3018
 1021MOL0     C40770   8.696   2.092   0.764  0.7897 -0.1868  0.3198
 1021MOL0     C40771   8.838   2.111   0.792 -0.5870  1.0028 -0.4947
 1021MOL0     C40772   8.920   2.176   0.672 -0.0376  0.2202 -0.5489
 1021MOL0     C40773   9.060   2.112   0.676 -0.0798 -0.0558 -0.5537
 1021MOL0     C40774   9.160   2.183   0.591  0.4846 -0.3703 -0.8313
 1021MOL0     C40775   9.302   2.128   0.601 -0.2205 -0.4692  0.3237
 1021MOL0     C40776   9.378   2.185   0.718 -1.0702  0.0283 -0.6116
 1021MOL0     N40777   9.515   2.139   0.732  0.0130 -0.8239  0.1610
 1021MOL0     C40778   9.621   2.175   0.654 -0.1431 -0.3141 -0.3150
 1021MOL0     C40779   9.723   2.098   0.684 -0.0602  0.1013 -0.2798
 1021MOL0     C40780   9.867   2.086   0.638 -0.1899 -0.2816  0.0465
 1021MOL0     C40781   9.959   2.177   0.726  0.0969  0.6336 -0.1065
 1021MOL0     C40782  10.109   2.181   0.669  0.2841  0.8442 -0.1538
 1021MOL0     C40783  10.195   2.265   0.751  0.1368  0.0566  0.4069
 1021MOL0     O40784  10.334   2.256   0.704  0.0033  0.0543  0.3521
 1021MOL0     C40785  10.439   2.312   0.766  0.7923 -0.3599  0.3960
 1021MOL0     C40786  10.439   2.409   0.857  0.1437 -0.6954  0.1282
 1021MOL0     C40787  10.566   2.447   0.920 -0.5585  0.5913 -0.5638
 1021MOL0     C40788  10.562   2.551   1.027 -0.0858 -0.0812  0.4117
 1021MOL0     C40789  10.689   2.384   0.881 -0.0071  0.1458 -0.1464
 1021MOL0     C40790  10.829   2.416   0.937  0.5311  0.5107 -0.4666
 1021MOL0     O40791  10.925   2.310   0.931  0.0586  0.0773  0.3351
 1021MOL0     C40792  11.045   2.328   0.991 -0.2718  0.7989 -0.5164
 1021MOL0     C40793  11.056   2.373   1.125 -0.1894  0.0286  0.0873
 1021MOL0     C40794  11.184   2.399   1.183  0.5432  0.5066 -0.0776
 1021MOL0     C40795  11.303   2.375   1.108  0.3945 -0.4059  1.1781
 1021MOL0     O40796  11.428   2.409   1.150 -0.1661  0.4300 -0.4596
 1021MOL0     C40797  11.454   2.449   1.287  0.0878  0.0264  0.0546
 1021MOL0     C40798  11.458   2.333   1.396  0.1685 -0.4340  0.4895
 1021MOL0     C40799  11.540   2.210   1.347 -0.2235 -0.5935  0.3803
 1021MOL0     C40800  11.697   2.237   1.340  0.1029 -0.8750  0.5096
 1021MOL0     C40801  11.781   2.126   1.410 -0.1628 -0.8052  0.1994
 1021MOL0     C40802  11.930   2.150   1.440  0.1660 -0.2331  0.7006
 1021MOL0     C40803  11.966   2.296   1.474 -0.3621 -0.1657  0.4497
 1021MOL0     C40804  12.113   2.297   1.521 -0.5797 -0.9025 -0.5678
 1021MOL0    Cl40805  12.195   2.448   1.472  0.5156  0.2318 -0.0956
 1021MOL0     C40806  11.290   2.330   0.982 -0.0016 -0.1418 -0.2408
 1021MOL0     C40807  11.166   2.310   0.923  0.4182  0.0778 -0.5085
 1021MOL0     O40808  10.853   2.532   0.973  0.0676 -0.2735  0.0901
 1021MOL0     C40809  10.684   2.277   0.784 -0.1347  0.0750 -0.6322
 1021MOL0     C40810  10.560   2.256   0.725  0.1317 -0.1879 -0.2938
 1021MOL0     N40811   9.678   2.019   0.794 -0.5440 -0.7777  1.5798
 1021MOL0     N40812   9.554   2.043   0.815 -0.4180 -0.9418  0.4003
 1021MOL0     C40813   8.289   2.329   0.709 -0.3010 -0.7606  0.2381
 1021MOL0     C40814   8.196   2.425   0.738 -0.2658  0.1955 -0.0916
 1021MOL0     C40815   7.861   2.655   0.912 -0.6352 -0.0662  0.3746
 1021MOL0     C40816   7.754   2.642   0.991 -0.3744 -0.1362  0.0590
 1021MOL0     C40817   7.637   2.729   0.972  0.0556  0.0411 -0.6079
 1021MOL0     C40818   7.641   2.839   0.892  0.2722 -0.5252  0.1643
 1021MOL0     O40819   7.525   2.921   0.887 -0.7788 -0.6661  0.6700
 1021MOL0     C40820   7.540   3.039   0.801 -0.5658 -0.0508  0.2893
 1021MOL0     C40821   7.405   3.121   0.792 -0.1561  0.3509  0.2019
 1021MOL0     C40822   7.274   3.032   0.792 -0.0349  0.3634  1.1978
 1021MOL0     C40823   7.280   2.926   0.673  1.1114  0.3725 -0.2584
 1021MOL0     C40824   7.153   2.866   0.635 -0.3603 -0.1537  0.1327
 1021MOL0     C40825   7.039   2.816   0.602  0.1293  0.0621 -0.3681
 1021MOL0     C40826   7.762   2.852   0.819  0.2940  0.3912  0.5621
 1021MOL0     C40827   7.869   2.767   0.820  0.9655  0.3832 -0.4446
 1021MOL0     C40828   7.979   2.815   0.732  0.1576 -0.2248  0.3850
 1021MOL0     H40829   8.327   2.528   1.035  1.2949 -2.1624  1.3287
 1021MOL0     H40830   8.485   2.362   0.984 -0.5778  0.6110  0.6123
 1021MOL0     H40831   8.621   2.238   0.902 -3.7875 -2.4940  0.9661
 1021MOL0     H40832   8.658   2.304   0.736  4.3195 -2.6158 -0.1931
 1021MOL0     H40833   8.663   2.017   0.836 -2.2467  0.2335 -0.4888
 1021MOL0     H40834   8.686   2.056   0.661  2.1581 -0.2668  0.1963
 1021MOL0     H40835   8.851   2.155   0.891 -0.2239  0.0322 -0.0997
 1021MOL0     H40836   8.887   2.019   0.824  0.6841  2.4803  2.1374
 1021MOL0     H40837   8.877   2.151   0.574  1.1948 -0.2251 -1.0031
 1021MOL0     H40838   8.929   2.285   0.673  0.9010  0.1574 -0.7976
 1021MOL0     H40839   9.064   2.006   0.651  0.6815 -0.0941 -0.3112
 1021MOL0     H40840   9.090   2.122   0.781 -2.7770  1.3061  0.1808
 1021MOL0     H40841   9.114   2.164   0.493 -1.0403  2.6432 -0.7947
 1021MOL0     H40842   9.156   2.290   0.614 -0.6966 -0.8445  1.3617
 1021MOL0     H40843   9.359   2.155   0.511 -2.2816  0.0345 -0.8951
 1021MOL0     H40844   9.284   2.022   0.616  3.4515 -1.0650  1.5477
 1021MOL0     H40845   9.378   2.294   0.716  1.6354  0.1145  0.5347
 1021MOL0     H40846   9.329   2.155   0.812 -0.9503  0.8050 -0.2961
 1021MOL0     H40847   9.624   2.253   0.578 -2.5340  2.4603  2.1847
 1021MOL0     H40848   9.865   2.113   0.532 -0.9488  4.6121  1.0822
 1021MOL0     H40849   9.897   1.981   0.651 -1.3730 -0.3638  2.8472
 1021MOL0     H40850   9.922   2.280   0.731  0.9358  0.9481  4.3497
 1021MOL0     H40851   9.964   2.126   0.823 -1.5668 -1.2702 -0.9483
 1021MOL0     H40852  10.152   2.080   0.667 -2.3243 -0.3566 -1.9247
 1021MOL0     H40853  10.113   2.220   0.567 -0.0719  2.0030  0.2705
 1021MOL0     H40854  10.160   2.369   0.742 -1.3572 -0.4986 -0.7113
 1021MOL0     H40855  10.173   2.239   0.854 -2.7286  0.1782 -0.0846
 1021MOL0     H40856  10.350   2.467   0.878  1.0452  1.4345 -1.5197
 1021MOL0     H40857  10.609   2.525   1.122  0.4020  2.4025  0.9308
 1021MOL0     H40858  10.465   2.598   1.047  0.7916  1.0866  2.2209
 1021MOL0     H40859  10.627   2.626   0.980  0.4588 -1.3681 -0.9609
 1021MOL0     H40860  10.964   2.404   1.172 -0.4512  0.5025 -0.7027
 1021MOL0     H40861  11.185   2.445   1.281 -1.3236  2.9254 -1.1116
 1021MOL0     H40862  11.552   2.499   1.285 -0.2886  0.7763 -1.0754
 1021MOL0     H40863  11.379   2.523   1.315 -0.1349 -0.6660  1.3108
 1021MOL0     H40864  11.505   2.358   1.492  0.6883 -2.0166  0.6821
 1021MOL0     H40865  11.356   2.301   1.417 -0.9182  1.5902 -1.2425
 1021MOL0     H40866  11.507   2.175   1.248 -0.1467 -0.2108  0.2172
 1021MOL0     H40867  11.529   2.120   1.408  2.5204 -1.6547 -0.5166
 1021MOL0     H40868  11.726   2.328   1.393  2.7965 -0.2414 -1.8236
 1021MOL0     H40869  11.737   2.246   1.238  0.5898 -2.0769  0.5755
 1021MOL0     H40870  11.744   2.109   1.511 -0.1751 -1.4453  0.0883
 1021MOL0     H40871  11.762   2.030   1.362 -4.5913 -0.9942  1.8406
 1021MOL0     H40872  11.994   2.112   1.360  0.5084  1.3116  0.2087
 1021MOL0     H40873  11.946   2.080   1.523 -0.0417  0.5181  1.3874
 1021MOL0     H40874  11.901   2.333   1.555 -0.5863  2.1797 -0.7147
 1021MOL0     H40875  11.964   2.357   1.383  0.9016  1.3637  1.3882
 1021MOL0     H40876  12.169   2.226   1.459  0.7916  1.8857 -2.7657
 1021MOL0     H40877  12.129   2.283   1.628  0.3524  0.1032 -0.5541
 1021MOL0     H40878  11.376   2.309   0.920 -0.7168  0.4856 -1.4781
 1021MOL0     H40879  11.156   2.272   0.822 -0.0019  0.3961 -0.5867
 1021MOL0     H40880  10.769   2.225   0.741  0.4913 -0.2727  0.9487
 1021MOL0     H40881  10.555   2.173   0.655  2.6957  0.5718 -1.4948
 1021MOL0     H40882   8.268   2.271   0.619 -1.0599 -0.5008  0.2408
 1021MOL0     H40883   8.113   2.450   0.674 -1.4643 -2.8053  0.1204
 1021MOL0     H40884   7.758   2.561   1.062  3.5072  0.3380  0.6168
 1021MOL0     H40885   7.547   2.710   1.030 -0.6506 -2.0373 -2.2500
 1021MOL0     H40886   7.627   3.098   0.832  0.2493 -2.5307  3.2427
 1021MOL0     H40887   7.545   3.003   0.698 -1.5560 -1.6952  0.7833
 1021MOL0     H40888   7.392   3.175   0.697 -2.7933  0.0467  0.3176
 1021MOL0     H40889   7.401   3.189   0.877  1.6836  0.8613 -0.0848
 1021MOL0     H40890   7.260   2.972   0.882 -0.5862 -1.1318  0.1563
 1021MOL0     H40891   7.190   3.096   0.762  0.7041  0.2782 -1.2720
 1021MOL0     H40892   7.361   2.854   0.688  0.9864  0.7091  2.6614
 1021MOL0     H40893   7.303   2.978   0.579 -0.4035 -0.2735 -1.0188
 1021MOL0     H40894   6.949   2.769   0.567  1.6361 -1.2610 -2.7140
 1021MOL0     H40895   7.774   2.931   0.745  1.5497 -0.4585 -0.1758
 1021MOL0     H40896   8.051   2.878   0.785 -0.6434 -0.4435  1.7991
 1021MOL0     H40897   8.018   2.726   0.680  0.2278  1.3918 -2.5137
 1021MOL0     H40898   7.951   2.870   0.642 -0.4097 -1.4460 -0.2103
 1022MOL0     O40899   4.621   5.514   5.190  0.0921  0.0402 -0.1844
 1022MOL0     C40900   4.624   5.538   5.070  0.0173 -0.7536 -0.3248
 1022MOL0     O40901   4.732   5.589   5.005  0.1621 -0.2438  0.2789
 1022MOL0     C40902   4.856   5.589   5.057 -0.1782 -0.2831 -0.6585
 1022MOL0     C40903   4.945   5.700   5.061  0.8120 -0.4895  0.0875
 1022MOL0     C40904   5.057   5.699   5.141  0.0395  0.0208 -0.0371
 1022MOL0     C40905   5.104   5.576   5.190 -0.1494 -1.0412  0.6543
 1022MOL0     O40906   5.230   5.586   5.233 -0.1462 -0.8216  0.5429
 1022MOL0     C40907   5.245   5.589   5.372  0.0817 -1.2249 -0.5295
 1022MOL0     C40908   5.362   5.684   5.417 -0.3533  0.3524 -0.2132
 1022MOL0     C40909   5.492   5.646   5.351  0.3852  0.2233  0.0237
 1022MOL0     C40910   5.592   5.765   5.366 -0.0110 -0.6092 -0.0882
 1022MOL0     C40911   5.725   5.737   5.313 -0.1919 -0.8251  0.4773
 1022MOL0     C40912   5.825   5.853   5.312 -0.3076 -0.6043  0.0359
 1022MOL0     C40913   5.959   5.801   5.258  0.2463 -0.2320  0.4680
 1022MOL0     C40914   6.054   5.925   5.266 -1.6567 -0.6010  0.0846
 1022MOL0     N40915   6.189   5.890   5.216  0.0184 -0.6315  0.2031
 1022MOL0     C40916   6.225   5.909   5.084  0.1013 -0.4831 -0.8957
 1022MOL0     C40917   6.344   5.843   5.066 -0.3839  0.0850 -0.1521
 1022MOL0     C40918   6.426   5.833   4.938  0.8745 -0.1247 -0.3564
 1022MOL0     C40919   6.577   5.799   4.968  0.5910 -0.4867 -0.8043
 1022MOL0     C40920   6.651   5.789   4.841 -0.3466 -0.9735  0.0935
 1022MOL0     C40921   6.794   5.738   4.866 -0.1387  0.1003 -0.5305
 1022MOL0     O40922   6.875   5.762   4.750 -0.3024  0.1136  0.4269
 1022MOL0     C40923   6.973   5.851   4.765 -0.6583 -0.0205 -0.3582
 1022MOL0     C40924   6.965   5.982   4.715 -0.1574  0.2002 -1.0575
 1022MOL0     C40925   7.066   6.079   4.747 -0.6150 -0.7760 -0.1553
 1022MOL0     C40926   7.040   6.227   4.709 -0.1478  0.2628  0.3570
 1022MOL0     C40927   7.181   6.040   4.810 -1.0885  0.2293  0.4991
 1022MOL0     C40928   7.297   6.128   4.831  0.3490 -0.2359  0.8478
 1022MOL0     O40929   7.337   6.192   4.723 -0.5326  0.1331  0.4742
 1022MOL0     C40930   7.441   6.283   4.723 -0.0976 -0.2798  0.0995
 1022MOL0     C40931   7.431   6.396   4.636 -0.3580  0.2355 -0.1954
 1022MOL0     C40932   7.525   6.499   4.634  0.0276 -0.2326 -0.3303
 1022MOL0     C40933   7.635   6.499   4.722  0.8781  0.4252 -0.0244
 1022MOL0     O40934   7.720   6.604   4.733  0.3919  0.0886 -0.0033
 1022MOL0     C40935   7.719   6.712   4.631 -0.4184  1.0460 -0.3354
 1022MOL0     C40936   7.852   6.790   4.627  0.0985  0.5388  0.0616
 1022MOL0     C40937   7.870   6.857   4.763 -0.2710 -0.6860  0.3202
 1022MOL0     C40938   7.998   6.940   4.769 -0.6267  0.1001  0.4581
 1022MOL0     C40939   8.123   6.854   4.794  0.4389 -0.1330  0.4966
 1022MOL0     C40940   8.246   6.932   4.826  0.0002  0.0290  0.2525
 1022MOL0     C40941   8.359   6.839   4.866  0.4497  0.2572 -0.1402
 1022MOL0     C40942   8.483   6.903   4.912 -0.3074 -0.4033  0.2406
 1022MOL0    Cl40943   8.590   6.771   4.980 -0.3681 -0.4192  0.2086
 1022MOL0     C40944   7.652   6.376   4.795 -0.2619 -1.0673 -0.0327
 1022MOL0     C40945   7.553   6.276   4.799 -0.2106 -0.0679 -0.0683
 1022MOL0     O40946   7.356   6.133   4.941  0.5271  0.3105  1.1877
 1022MOL0     C40947   7.194   5.914   4.857 -0.3509  0.2622  0.5701
 1022MOL0     C40948   7.091   5.815   4.834 -0.0384 -0.5867  0.6317
 1022MOL0     N40949   6.386   5.795   5.191 -0.4468 -0.5632  0.5581
 1022MOL0     N40950   6.299   5.826   5.272  0.4467 -1.1160 -1.3018
 1022MOL0     C40951   5.031   5.463   5.177  0.1763  0.0285 -0.5163
 1022MOL0     C40952   4.905   5.473   5.114  0.7496 -0.3533  0.9744
 1022MOL0     C40953   4.501   5.515   4.993 -0.2003  0.8194  0.2669
 1022MOL0     C40954   4.490   5.589   4.869  0.3147  0.6631 -0.5971
 1022MOL0     C40955   4.361   5.598   4.806 -0.5015 -0.3687  0.7778
 1022MOL0     C40956   4.262   5.513   4.850  0.1004  0.4778 -0.9078
 1022MOL0     O40957   4.146   5.517   4.779 -0.6512  0.3010  0.0133
 1022MOL0     C40958   4.029   5.459   4.844 -0.0638  0.5058  0.3433
 1022MOL0     C40959   3.904   5.495   4.767  0.1793 -0.4331  0.2250
 1022MOL0     C40960   3.885   5.647   4.765  1.1108 -0.1396  0.0926
 1022MOL0     C40961   3.773   5.686   4.660 -0.2561  0.2300  0.0002
 1022MOL0     C40962   3.643   5.620   4.686  0.2452  0.2517  0.1490
 1022MOL0     C40963   3.532   5.572   4.705 -0.4528 -0.2821  0.2809
 1022MOL0     C40964   4.277   5.437   4.968 -0.4996  1.0884  0.1856
 1022MOL0     C40965   4.393   5.443   5.040  0.5416  0.6960 -0.9789
 1022MOL0     C40966   4.394   5.339   5.156 -0.0451 -0.0866 -0.0710
 1022MOL0     H40967   4.905   5.787   5.010 -1.8495 -2.4217 -1.4063
 1022MOL0     H40968   5.113   5.791   5.147 -0.3979  0.2659  0.3995
 1022MOL0     H40969   5.258   5.490   5.417 -0.0784 -1.1838 -0.3890
 1022MOL0     H40970   5.157   5.642   5.411 -0.0052 -0.3273 -1.8681
 1022MOL0     H40971   5.319   5.781   5.390 -0.6129  0.3896  0.3180
 1022MOL0     H40972   5.382   5.681   5.524  0.1211  0.2875 -0.2998
 1022MOL0     H40973   5.529   5.554   5.397  1.9145 -0.6057 -2.6460
 1022MOL0     H40974   5.475   5.630   5.245  0.6604  0.1863 -0.0158
 1022MOL0     H40975   5.559   5.851   5.307 -3.5176 -2.0318 -0.4464
 1022MOL0     H40976   5.604   5.788   5.473 -0.8768 -1.7629  0.2684
 1022MOL0     H40977   5.712   5.703   5.209 -0.5162 -2.9505  1.1725
 1022MOL0     H40978   5.770   5.655   5.370 -2.0935 -1.3584  1.2915
 1022MOL0     H40979   5.803   5.939   5.249 -1.5600  0.3865  1.7585
 1022MOL0     H40980   5.843   5.896   5.411  1.1696  0.6888 -0.7529
 1022MOL0     H40981   5.936   5.763   5.158 -1.4662 -0.6113  0.9811
 1022MOL0     H40982   5.985   5.721   5.329 -2.0604 -2.7154 -1.2638
 1022MOL0     H40983   6.018   6.008   5.204 -1.5389  0.6559  1.6321
 1022MOL0     H40984   6.055   5.977   5.362 -1.9967  2.3339 -1.3774
 1022MOL0     H40985   6.170   5.966   5.010  2.0502 -0.1676 -2.1556
 1022MOL0     H40986   6.430   5.931   4.889 -0.9961 -0.3008 -0.9491
 1022MOL0     H40987   6.379   5.764   4.868  1.0479  0.1011 -0.6996
 1022MOL0     H40988   6.619   5.879   5.030  0.1642  1.0497 -2.4121
 1022MOL0     H40989   6.590   5.704   5.020 -3.2345 -2.8147 -3.5043
 1022MOL0     H40990   6.600   5.728   4.766 -0.7921  0.0054 -0.4260
 1022MOL0     H40991   6.655   5.889   4.796 -1.2960 -0.6524  0.6814
 1022MOL0     H40992   6.840   5.780   4.956 -2.6773 -0.4557  1.1312
 1022MOL0     H40993   6.787   5.630   4.878 -0.5290  0.2440  0.5861
 1022MOL0     H40994   6.879   6.010   4.655  1.7719  0.9557 -3.6602
 1022MOL0     H40995   6.956   6.240   4.641 -0.1977  2.7891  0.7920
 1022MOL0     H40996   7.130   6.270   4.664  0.7735 -2.0556 -0.1573
 1022MOL0     H40997   7.018   6.286   4.798  0.8640 -0.1529  0.9104
 1022MOL0     H40998   7.356   6.399   4.558  0.3211  0.8786 -0.8336
 1022MOL0     H40999   7.498   6.590   4.580 -1.9623  0.3974  1.5709
 1022MOL0     H41000   7.709   6.676   4.528  1.5496  3.3293 -1.4246
 1022MOL0     H41001   7.643   6.784   4.661 -0.1648  1.8503 -1.5738
 1022MOL0     H41002   7.934   6.718   4.621 -2.6288 -3.0005  1.7116
 1022MOL0     H41003   7.856   6.868   4.550  0.1047  1.5031  1.0134
 1022MOL0     H41004   7.879   6.791   4.850  0.6983 -0.3511  0.4924
 1022MOL0     H41005   7.788   6.929   4.764 -1.1644 -1.6567 -0.5462
 1022MOL0     H41006   8.000   7.009   4.854 -0.4223  0.4925  0.1390
 1022MOL0     H41007   8.010   6.990   4.672 -0.5327  1.0619  0.9494
 1022MOL0     H41008   8.091   6.784   4.872  0.8307 -0.5186  0.3106
 1022MOL0     H41009   8.146   6.792   4.707 -0.6757  1.9306 -1.3574
 1022MOL0     H41010   8.226   7.000   4.910  0.5994  0.7776 -0.1921
 1022MOL0     H41011   8.276   6.987   4.736  0.2210 -0.7532 -0.1561
 1022MOL0     H41012   8.377   6.774   4.781 -2.3771 -1.0893  0.1880
 1022MOL0     H41013   8.323   6.774   4.946  0.2680 -0.0026 -0.4323
 1022MOL0     H41014   8.449   6.967   4.994  3.1208 -0.0247  1.5186
 1022MOL0     H41015   8.538   6.965   4.842  1.9852  1.5033  3.4589
 1022MOL0     H41016   7.743   6.363   4.852  0.5208  3.6526  0.2099
 1022MOL0     H41017   7.563   6.187   4.860 -2.2874 -0.9227 -0.8841
 1022MOL0     H41018   7.286   5.879   4.902 -0.2105 -1.2630 -0.8438
 1022MOL0     H41019   7.104   5.709   4.857 -1.0899 -1.1881 -1.2801
 1022MOL0     H41020   5.060   5.369   5.223  0.9790  0.7996  0.6191
 1022MOL0     H41021   4.846   5.382   5.109 -0.3937  0.4228 -1.0669
 1022MOL0     H41022   4.565   5.647   4.816 -2.4129  4.1213 -1.0604
 1022MOL0     H41023   4.349   5.649   4.711  0.3965 -0.2177  0.7365
 1022MOL0     H41024   4.034   5.350   4.852 -0.7050  0.3755 -0.7865
 1022MOL0     H41025   4.019   5.511   4.939 -1.6833 -0.0125  0.4879
 1022MOL0     H41026   3.817   5.438   4.800 -0.3284 -0.0834 -0.4967
 1022MOL0     H41027   3.920   5.465   4.664 -3.6415 -1.0889 -0.3156
 1022MOL0     H41028   3.858   5.680   4.865  4.3522  1.9223  0.4554
 1022MOL0     H41029   3.979   5.698   4.741 -0.3741  3.6110  1.5040
 1022MOL0     H41030   3.810   5.657   4.561 -3.7032 -3.7604 -0.3706
 1022MOL0     H41031   3.749   5.793   4.667 -0.5719  0.0889  1.1847
 1022MOL0     H41032   3.436   5.525   4.716 -0.0458 -0.5888  3.5709
 1022MOL0     H41033   4.200   5.370   5.005  0.9302 -1.6368 -1.3524
 1022MOL0     H41034   4.365   5.391   5.248 -1.8258 -1.9558  0.4944
 1022MOL0     H41035   4.320   5.262   5.134  1.6103 -0.9060 -3.3489
 1022MOL0     H41036   4.496   5.300   5.155  0.5579  1.3239 -2.5804
 1023MOL0     O41037   8.711   6.856   7.910 -0.0758 -0.0665 -0.6946
 1023MOL0     C41038   8.660   6.900   8.016 -0.3838 -0.3171  0.1960
 1023MOL0     O41039   8.731   6.921   8.130  0.5820 -0.2003 -0.0877
 1023MOL0     C41040   8.868   6.918   8.147  0.1900  0.2334 -0.2386
 1023MOL0     C41041   8.926   6.962   8.272 -0.2789 -0.9546  0.1239
 1023MOL0     C41042   9.060   6.938   8.304 -0.1012  0.1751 -0.3045
 1023MOL0     C41043   9.149   6.895   8.207  0.2500 -0.4719  0.2809
 1023MOL0     O41044   9.275   6.893   8.255  0.2821 -0.1337  0.2661
 1023MOL0     C41045   9.375   6.891   8.157  0.4894 -0.6880  0.4833
 1023MOL0     C41046   9.512   6.907   8.235  0.2499  0.4828 -0.1894
 1023MOL0     C41047   9.630   6.885   8.135 -0.4674 -0.3149 -0.8838
 1023MOL0     C41048   9.759   6.872   8.219 -0.1186  0.0296 -0.0122
 1023MOL0     C41049   9.881   6.847   8.135 -0.1303  0.4366 -0.0504
 1023MOL0     C41050   9.996   6.817   8.229  0.5639  0.1332 -0.6772
 1023MOL0     C41051  10.119   6.778   8.157 -0.0296 -0.0959 -0.8938
 1023MOL0     C41052  10.223   6.720   8.249  0.0813 -0.4247 -0.3449
 1023MOL0     N41053  10.334   6.655   8.170  0.1820 -0.6872 -0.0849
 1023MOL0     C41054  10.457   6.637   8.224  0.4549 -0.4252  0.6823
 1023MOL0     C41055  10.520   6.550   8.142  0.0284 -0.4146 -0.7524
 1023MOL0     C41056  10.662   6.508   8.160  0.1062 -0.3529 -0.5713
 1023MOL0     C41057  10.699   6.357   8.191 -0.2754 -0.9419  0.4928
 1023MOL0     C41058  10.850   6.337   8.205 -0.5199 -0.8416 -1.1989
 1023MOL0     C41059  10.888   6.194   8.214 -0.1272  0.4383  0.1786
 1023MOL0     O41060  11.024   6.192   8.248 -0.1375  0.1407  0.4473
 1023MOL0     C41061  11.098   6.073   8.258  0.2168 -0.2871 -0.3761
 1023MOL0     C41062  11.043   5.953   8.213 -0.7407 -0.3055  0.0314
 1023MOL0     C41063  11.109   5.831   8.214 -0.0704  0.2580  0.6963
 1023MOL0     C41064  11.047   5.705   8.158  0.3848 -0.7704 -0.2703
 1023MOL0     C41065  11.251   5.831   8.254 -0.0094  0.4337  0.3964
 1023MOL0     C41066  11.350   5.713   8.237 -0.0026  0.3346  0.6365
 1023MOL0     O41067  11.475   5.750   8.257 -0.4185  0.0925  0.8090
 1023MOL0     C41068  11.579   5.664   8.242 -0.6407  0.0025 -0.3766
 1023MOL0     C41069  11.590   5.553   8.328 -0.5735 -0.5032 -0.6747
 1023MOL0     C41070  11.710   5.479   8.329  0.1688  0.3985 -0.8303
 1023MOL0     C41071  11.825   5.519   8.256  0.2932  0.2395 -0.1019
 1023MOL0     O41072  11.940   5.439   8.271  0.0977 -0.1357  0.3597
 1023MOL0     C41073  12.072   5.495   8.284 -0.0310 -0.3367 -0.3241
 1023MOL0     C41074  12.179   5.423   8.201  1.0544  0.7858 -0.3032
 1023MOL0     C41075  12.308   5.502   8.208 -0.6209  0.1974  0.7645
 1023MOL0     C41076  12.422   5.413   8.183 -0.8196 -0.4249 -0.7061
 1023MOL0     C41077  12.557   5.481   8.186  0.4094  1.0079 -0.2328
 1023MOL0     C41078  12.656   5.364   8.148 -0.2298  1.0544  0.1500
 1023MOL0     C41079  12.798   5.394   8.190  0.0037 -0.5917  0.2254
 1023MOL0     C41080  12.838   5.535   8.152  0.0787  0.2199 -1.0785
 1023MOL0    Cl41081  12.800   5.578   7.992 -0.1769 -0.0616 -0.5759
 1023MOL0     C41082  11.817   5.635   8.179  0.4996 -0.3009 -0.2701
 1023MOL0     C41083  11.695   5.710   8.176  0.0100  0.5792 -0.2957
 1023MOL0     O41084  11.312   5.597   8.218  0.4827  0.0038 -0.4161
 1023MOL0     C41085  11.299   5.955   8.296 -0.0176 -0.1960 -0.2154
 1023MOL0     C41086  11.229   6.077   8.305  0.1032  0.2381  0.3877
 1023MOL0     N41087  10.423   6.513   8.046 -0.1308 -0.1063 -0.4902
 1023MOL0     N41088  10.323   6.576   8.064  0.1784 -0.4369  0.3329
 1023MOL0     C41089   9.096   6.866   8.076  0.2178 -0.6937 -0.6499
 1023MOL0     C41090   8.956   6.872   8.047  0.3750 -0.2261  0.2345
 1023MOL0     C41091   8.518   6.944   8.025  0.1338  0.3768 -0.0103
 1023MOL0     C41092   8.447   6.909   8.140  0.5752  0.1651 -0.2056
 1023MOL0     C41093   8.315   6.942   8.162  0.9330  0.2583 -0.0030
 1023MOL0     C41094   8.245   7.008   8.058 -0.3542  0.2691 -0.9581
 1023MOL0     O41095   8.111   7.038   8.093 -1.1286  0.2763  0.9468
 1023MOL0     C41096   8.020   7.050   7.982 -0.9218  0.0616 -0.1333
 1023MOL0     C41097   7.879   7.031   8.033 -0.3110 -0.0467 -0.0060
 1023MOL0     C41098   7.866   7.108   8.164 -0.0261  0.4395  0.6747
 1023MOL0     C41099   7.728   7.141   8.213 -0.1262  0.2927  0.0134
 1023MOL0     C41100   7.688   7.277   8.167  0.0311  0.3640 -0.0205
 1023MOL0     C41101   7.642   7.376   8.112  0.6316 -0.4650 -0.4408
 1023MOL0     C41102   8.310   7.044   7.942 -1.1472 -0.8967 -0.0934
 1023MOL0     C41103   8.448   7.011   7.923 -0.3919  0.2806  0.6177
 1023MOL0     C41104   8.497   7.069   7.792 -0.6917  1.1607  0.1292
 1023MOL0     H41105   8.860   7.003   8.348  1.9767  0.2222  1.5469
 1023MOL0     H41106   9.098   6.972   8.400  2.8235  1.6255 -1.8199
 1023MOL0     H41107   9.356   6.970   8.084  0.6052 -1.5077 -0.4551
 1023MOL0     H41108   9.374   6.799   8.098 -0.0253  0.4925 -1.4344
 1023MOL0     H41109   9.522   7.007   8.279  1.1617  0.6539 -0.7536
 1023MOL0     H41110   9.515   6.826   8.309 -1.2990  0.0591 -0.5685
 1023MOL0     H41111   9.619   6.790   8.083  0.4758 -0.4151 -0.9019
 1023MOL0     H41112   9.636   6.968   8.064 -0.9634  4.8897  4.3811
 1023MOL0     H41113   9.773   6.962   8.280  1.5833 -0.9800  1.1817
 1023MOL0     H41114   9.740   6.796   8.296 -2.3068  1.1600  0.6387
 1023MOL0     H41115   9.909   6.938   8.079  0.1103  1.5925  1.8571
 1023MOL0     H41116   9.861   6.773   8.058 -2.1562 -4.5638  4.6865
 1023MOL0     H41117  10.026   6.907   8.285  1.0430  0.2042 -1.0373
 1023MOL0     H41118   9.968   6.749   8.310  0.4849  2.6430  1.5381
 1023MOL0     H41119  10.158   6.868   8.109 -0.2064  0.8486  0.6733
 1023MOL0     H41120  10.105   6.707   8.075  2.4994 -0.0943 -1.3907
 1023MOL0     H41121  10.248   6.790   8.329  1.8464 -1.4035  0.0121
 1023MOL0     H41122  10.177   6.639   8.307 -0.3277 -0.3446 -0.5534
 1023MOL0     H41123  10.500   6.681   8.313  2.3632  1.6450 -1.1085
 1023MOL0     H41124  10.710   6.566   8.240  2.0413  0.5330 -2.2908
 1023MOL0     H41125  10.701   6.542   8.064  0.3952  2.6183  0.4964
 1023MOL0     H41126  10.654   6.323   8.285  1.4311 -0.3173  1.5877
 1023MOL0     H41127  10.664   6.296   8.107 -2.1182 -1.0143  1.2560
 1023MOL0     H41128  10.895   6.374   8.113  1.2163  0.1028 -0.0308
 1023MOL0     H41129  10.888   6.395   8.290 -0.8633 -1.3041 -0.7187
 1023MOL0     H41130  10.821   6.141   8.282 -0.6680 -0.3293 -0.9181
 1023MOL0     H41131  10.880   6.135   8.122 -1.4695 -1.1638  1.2603
 1023MOL0     H41132  10.947   5.945   8.164  0.5560 -2.4516 -2.4461
 1023MOL0     H41133  11.022   5.638   8.240  2.3293 -2.3014 -0.8662
 1023MOL0     H41134  11.120   5.660   8.090  1.0265 -0.8966  0.4908
 1023MOL0     H41135  10.958   5.737   8.103  0.2190  2.7517  1.7416
 1023MOL0     H41136  11.518   5.499   8.389  3.6852 -5.1988  0.9342
 1023MOL0     H41137  11.707   5.388   8.388 -0.3998  1.3924  0.7627
 1023MOL0     H41138  12.075   5.601   8.258 -1.6618 -0.3756 -0.7986
 1023MOL0     H41139  12.107   5.484   8.387  0.3957 -0.0806 -0.4394
 1023MOL0     H41140  12.192   5.318   8.231  0.9234  0.0924 -2.4761
 1023MOL0     H41141  12.150   5.419   8.095  0.6703 -1.3646 -0.1626
 1023MOL0     H41142  12.319   5.533   8.312  1.9100 -0.9537  0.9160
 1023MOL0     H41143  12.316   5.573   8.126  0.1690 -1.6092 -0.8233
 1023MOL0     H41144  12.397   5.361   8.090 -0.3653 -4.6538  1.2952
 1023MOL0     H41145  12.422   5.337   8.262  1.8169 -1.7972 -1.9214
 1023MOL0     H41146  12.558   5.569   8.120 -2.7031 -0.1323 -2.0107
 1023MOL0     H41147  12.570   5.515   8.289 -1.8083 -1.1314  0.8453
 1023MOL0     H41148  12.660   5.342   8.041  0.8037 -0.3942  0.4490
 1023MOL0     H41149  12.627   5.267   8.189 -1.4177  2.0820  1.8847
 1023MOL0     H41150  12.867   5.323   8.142 -2.9640 -2.4504 -1.6389
 1023MOL0     H41151  12.808   5.381   8.298  1.4951  2.0958  0.4878
 1023MOL0     H41152  12.945   5.556   8.164  0.0292  0.7438 -1.5113
 1023MOL0     H41153  12.794   5.609   8.219 -0.3374 -2.1669  1.4492
 1023MOL0     H41154  11.907   5.672   8.132  1.1661 -1.6486 -0.0983
 1023MOL0     H41155  11.684   5.809   8.135 -1.1516  0.9142  0.7451
 1023MOL0     H41156  11.402   5.973   8.323 -0.9702  2.6111  2.0924
 1023MOL0     H41157  11.276   6.165   8.348  3.0883 -0.7100 -0.6398
 1023MOL0     H41158   9.153   6.831   7.990 -0.8346 -0.3781 -1.4971
 1023MOL0     H41159   8.933   6.841   7.945  1.6125 -1.4598  0.3038
 1023MOL0     H41160   8.495   6.851   8.218  0.7119 -2.3496 -2.0482
 1023MOL0     H41161   8.273   6.908   8.257  2.2055 -1.5938 -0.0462
 1023MOL0     H41162   8.037   7.151   7.943  1.7223  0.7238  2.3809
 1023MOL0     H41163   8.037   6.972   7.908 -0.2859 -0.1317  0.2109
 1023MOL0     H41164   7.872   6.922   8.031 -2.8978  0.0440 -2.6975
 1023MOL0     H41165   7.813   7.074   7.957  0.4575 -1.1915 -1.3651
 1023MOL0     H41166   7.918   7.046   8.238  0.8843 -0.0312 -0.3202
 1023MOL0     H41167   7.918   7.203   8.145 -0.3985  0.5291  0.0641
 1023MOL0     H41168   7.721   7.136   8.322 -0.5479  0.7558  0.0097
 1023MOL0     H41169   7.664   7.064   8.168  1.5231 -1.3308  0.3296
 1023MOL0     H41170   7.590   7.461   8.072 -0.8741 -0.8514  0.6313
 1023MOL0     H41171   8.264   7.104   7.864  1.0776 -1.8761 -2.2830
 1023MOL0     H41172   8.593   7.021   7.770 -0.9906 -0.3747  1.9568
 1023MOL0     H41173   8.434   7.032   7.709  1.8618 -2.6130 -0.3819
 1023MOL0     H41174   8.501   7.178   7.799 -2.8542  1.3916 -1.0123
 1024MOL0     O41175   0.638   2.350  10.821 -0.1838  0.0256  0.5471
 1024MOL0     C41176   0.550   2.354  10.901 -0.3622  0.6676 -0.6037
 1024MOL0     O41177   0.546   2.438  11.004  0.2391  0.8689 -0.1780
 1024MOL0     C41178   0.653   2.522  11.022  0.5174 -0.4956 -0.4703
 1024MOL0     C41179   0.774   2.474  11.072 -0.2948  0.4513  0.0626
 1024MOL0     C41180   0.869   2.568  11.093 -0.1610 -0.4448 -0.3317
 1024MOL0     C41181   0.855   2.706  11.073 -0.6419  0.4460 -0.4657
 1024MOL0     O41182   0.949   2.795  11.124 -0.3250 -0.2519  0.4311
 1024MOL0     C41183   1.029   2.855  11.023  0.1844  0.3514  0.2405
 1024MOL0     C41184   1.116   2.752  10.950  0.2822  0.2149  0.3649
 1024MOL0     C41185   1.226   2.825  10.870 -0.2122  1.2206  0.0424
 1024MOL0     C41186   1.338   2.730  10.819 -0.2851 -0.0585 -0.8443
 1024MOL0     C41187   1.421   2.796  10.705 -0.1448 -0.0261  0.5759
 1024MOL0     C41188   1.526   2.889  10.769 -0.4404 -0.5770 -0.0673
 1024MOL0     C41189   1.616   2.938  10.666 -0.3866 -0.4595  0.8219
 1024MOL0     C41190   1.713   3.043  10.729 -0.2671  0.1660  0.6365
 1024MOL0     N41191   1.819   3.085  10.636  0.2369 -0.4296  0.4620
 1024MOL0     C41192   1.811   3.167  10.521  0.8286 -0.3536  0.1843
 1024MOL0     C41193   1.936   3.180  10.474 -0.0945 -0.6594 -0.1293
 1024MOL0     C41194   1.978   3.270  10.360  0.3128  0.1449 -0.4478
 1024MOL0     C41195   2.076   3.377  10.405 -0.2020 -0.5835  0.1407
 1024MOL0     C41196   2.100   3.465  10.277  0.8442  0.0785 -0.6370
 1024MOL0     C41197   2.224   3.554  10.301  0.1372 -0.5116 -0.5501
 1024MOL0     O41198   2.227   3.626  10.424 -0.0017 -0.3634  0.2458
 1024MOL0     C41199   2.206   3.765  10.416  0.0515  0.3004  0.4574
 1024MOL0     C41200   2.316   3.847  10.415 -0.3492  0.2380 -0.4816
 1024MOL0     C41201   2.304   3.986  10.423  0.0888  0.1645 -0.4614
 1024MOL0     C41202   2.424   4.071  10.426  0.3369  0.3050 -0.7085
 1024MOL0     C41203   2.177   4.046  10.426 -0.0212  0.0240  0.3498
 1024MOL0     C41204   2.159   4.186  10.415 -0.5289  0.5925  0.3890
 1024MOL0     O41205   2.210   4.246  10.304  0.0382 -0.5206 -0.2415
 1024MOL0     C41206   2.213   4.380  10.277  0.4109  0.1254  0.5532
 1024MOL0     C41207   2.229   4.482  10.380  1.0118 -0.4413  0.7368
 1024MOL0     C41208   2.239   4.612  10.337  0.2112  0.3518  0.1221
 1024MOL0     C41209   2.222   4.649  10.205 -0.1380 -0.0282  0.3577
 1024MOL0     O41210   2.221   4.783  10.175 -0.1946 -0.1412  0.3046
 1024MOL0     C41211   2.222   4.821  10.034 -0.6694 -0.1047 -0.3155
 1024MOL0     C41212   2.250   4.969  10.018  0.1794 -0.0672  0.2926
 1024MOL0     C41213   2.368   5.011  10.099  0.5033  0.6849 -0.8929
 1024MOL0     C41214   2.487   4.917  10.084  0.7976  0.3916 -1.2406
 1024MOL0     C41215   2.615   4.983  10.123 -0.5504  0.3296 -0.5893
 1024MOL0     C41216   2.655   5.120  10.058 -0.0707  0.4501  0.4286
 1024MOL0     C41217   2.803   5.147  10.034  0.1342  0.2380  0.7830
 1024MOL0     C41218   2.828   5.184   9.884  0.0602  0.4745  0.2366
 1024MOL0    Cl41219   3.013   5.201   9.890 -0.3595  0.3913  0.4912
 1024MOL0     C41220   2.213   4.546  10.109 -0.3992 -0.6338  0.2022
 1024MOL0     C41221   2.209   4.417  10.143 -0.3437 -0.4035 -0.1882
 1024MOL0     O41222   2.097   4.230  10.509  0.1109 -0.9323 -0.3630
 1024MOL0     C41223   2.064   3.966  10.430  0.0168  0.6080  0.1068
 1024MOL0     C41224   2.080   3.824  10.418  0.0480 -0.0096 -0.2448
 1024MOL0     N41225   2.021   3.095  10.552 -0.4930  0.1465  0.2828
 1024MOL0     N41226   1.948   3.037  10.645  0.4317 -1.0813  0.3236
 1024MOL0     C41227   0.733   2.752  11.028 -0.2076 -0.0395 -0.1829
 1024MOL0     C41228   0.635   2.660  10.988  0.0479  0.1168 -0.9236
 1024MOL0     C41229   0.419   2.276  10.881 -0.2469 -0.2736  0.0839
 1024MOL0     C41230   0.311   2.312  10.967  0.4188  0.4529 -0.4269
 1024MOL0     C41231   0.191   2.236  10.955  0.2175  0.2385 -0.1278
 1024MOL0     C41232   0.175   2.128  10.863  0.0686 -0.4165  0.8746
 1024MOL0     O41233   0.049   2.066  10.862 -0.1522 -0.6131 -0.2128
 1024MOL0     C41234   0.031   1.951  10.777 -0.3551 -0.2148  0.8796
 1024MOL0     C41235   0.034   1.968  10.624  0.0511 -0.5530  0.0050
 1024MOL0     C41236  -0.086   2.042  10.579 -0.3102  0.2482 -0.5899
 1024MOL0     C41237  -0.058   2.130  10.461  0.3980 -0.5937  0.1133
 1024MOL0     C41238  -0.185   2.175  10.406 -0.5464  1.3140  0.4678
 1024MOL0     C41239  -0.283   2.227  10.361 -0.0062  0.0237  0.2303
 1024MOL0     C41240   0.294   2.089  10.786  0.5283 -0.1235 -0.3741
 1024MOL0     C41241   0.412   2.163  10.792  0.8404  0.1432  0.1279
 1024MOL0     C41242   0.534   2.102  10.716  0.4257 -0.5092  0.6067
 1024MOL0     H41243   0.787   2.370  11.098 -0.9039  0.0655 -1.1232
 1024MOL0     H41244   0.965   2.536  11.133  0.7267  0.0173 -1.9895
 1024MOL0     H41245   1.087   2.929  11.077  0.1404  0.2332  0.4517
 1024MOL0     H41246   0.963   2.897  10.946  1.2707 -0.8008 -1.4100
 1024MOL0     H41247   1.161   2.681  11.020 -1.0267 -0.9893  0.0400
 1024MOL0     H41248   1.055   2.688  10.886 -0.7152  0.9894  0.4944
 1024MOL0     H41249   1.162   2.864  10.790  1.7327  0.2296 -2.1197
 1024MOL0     H41250   1.284   2.908  10.913  4.0377  0.9721 -4.3920
 1024MOL0     H41251   1.399   2.706  10.906  0.1503  0.8315 -0.8943
 1024MOL0     H41252   1.301   2.636  10.777 -0.4830  0.4375 -1.8076
 1024MOL0     H41253   1.364   2.857  10.635 -0.4259  0.7304  1.4581
 1024MOL0     H41254   1.475   2.713  10.657  0.7221 -0.7245  2.6247
 1024MOL0     H41255   1.482   2.972  10.825 -1.1789 -0.2802 -1.0472
 1024MOL0     H41256   1.572   2.828  10.847 -0.8338 -0.2694  0.4111
 1024MOL0     H41257   1.567   2.995  10.586  0.7018 -1.2795 -0.4637
 1024MOL0     H41258   1.659   2.851  10.615 -2.8602 -0.4411 -1.6046
 1024MOL0     H41259   1.666   3.139  10.751  0.1924  0.5868 -0.1497
 1024MOL0     H41260   1.752   2.990  10.816 -2.3866 -0.9795  0.9518
 1024MOL0     H41261   1.725   3.210  10.472 -0.3694 -1.8344  0.8937
 1024MOL0     H41262   1.891   3.317  10.314 -0.0653 -0.3987 -0.2915
 1024MOL0     H41263   2.016   3.209  10.277 -1.5711 -1.0777 -0.4810
 1024MOL0     H41264   2.031   3.436  10.485 -2.4142 -1.4941 -0.3770
 1024MOL0     H41265   2.175   3.334  10.422  0.0894 -0.5946 -1.4141
 1024MOL0     H41266   2.116   3.400  10.191 -0.2828 -0.8584 -0.1778
 1024MOL0     H41267   2.015   3.533  10.264  0.3659 -0.2042  0.8151
 1024MOL0     H41268   2.316   3.496  10.313  0.2116 -0.8570 -2.4158
 1024MOL0     H41269   2.246   3.624  10.220  0.2876  0.7271  0.5327
 1024MOL0     H41270   2.411   3.797  10.427 -0.2453  0.7574  0.9766
 1024MOL0     H41271   2.461   4.106  10.329  2.0267  0.9646  0.1259
 1024MOL0     H41272   2.503   4.014  10.477 -1.8903 -2.0758  0.2998
 1024MOL0     H41273   2.409   4.148  10.502  1.4400 -0.4593  0.3391
 1024MOL0     H41274   2.244   4.454  10.483  0.0174  1.1043  1.3303
 1024MOL0     H41275   2.250   4.676  10.423  2.0163 -1.1420  1.0548
 1024MOL0     H41276   2.298   4.759   9.985 -1.8544 -1.4853 -0.5049
 1024MOL0     H41277   2.127   4.797   9.985 -2.8711 -0.2039  3.5564
 1024MOL0     H41278   2.259   5.000   9.914  0.9566 -2.0315 -0.2608
 1024MOL0     H41279   2.158   5.022  10.046 -0.0602 -0.3968  0.1277
 1024MOL0     H41280   2.347   5.001  10.206 -2.4601 -1.0719 -1.5184
 1024MOL0     H41281   2.399   5.112  10.074  1.8534  0.2188 -1.1905
 1024MOL0     H41282   2.503   4.897   9.977  2.3304 -1.3670 -0.7316
 1024MOL0     H41283   2.472   4.817  10.127  2.0912 -0.3878 -2.4944
 1024MOL0     H41284   2.607   4.993  10.232  0.5764 -0.2017 -0.4381
 1024MOL0     H41285   2.698   4.911  10.114  0.0052  1.1010 -1.9567
 1024MOL0     H41286   2.611   5.197  10.122 -3.6022  0.8144 -2.1592
 1024MOL0     H41287   2.613   5.112   9.958 -1.2408 -3.6127  1.0575
 1024MOL0     H41288   2.857   5.059  10.067  3.8895  0.8684 -2.9020
 1024MOL0     H41289   2.827   5.232  10.098  0.8625 -0.2374  1.1408
 1024MOL0     H41290   2.769   5.268   9.847 -0.3943 -0.3515 -0.9685
 1024MOL0     H41291   2.794   5.098   9.826 -0.8724 -0.4609  2.0868
 1024MOL0     H41292   2.197   4.572  10.005 -0.2997  1.0298  0.5744
 1024MOL0     H41293   2.179   4.346  10.066 -0.5880 -0.7559  0.2257
 1024MOL0     H41294   1.963   4.004  10.421 -0.9931 -1.8672  0.0052
 1024MOL0     H41295   1.991   3.763  10.404 -0.0555  0.0725  0.0565
 1024MOL0     H41296   0.716   2.860  11.028  1.3671  0.2611  1.5550
 1024MOL0     H41297   0.538   2.701  10.960  0.4060  0.9381 -1.0035
 1024MOL0     H41298   0.332   2.377  11.051  0.2083 -0.3064  0.2331
 1024MOL0     H41299   0.118   2.253  11.034  2.4559  1.3172  1.8535
 1024MOL0     H41300   0.116   1.883  10.794  0.0587 -0.0211 -0.3047
 1024MOL0     H41301  -0.063   1.901  10.799  1.1206 -4.3177 -0.9574
 1024MOL0     H41302   0.044   1.867  10.582  0.0883 -0.8057  0.6111
 1024MOL0     H41303   0.120   2.028  10.593 -1.7482  2.6156  0.7801
 1024MOL0     H41304  -0.158   1.968  10.542  0.9918  0.0812 -3.0282
 1024MOL0     H41305  -0.128   2.111  10.652 -0.0751  1.0392 -1.1749
 1024MOL0     H41306  -0.003   2.072  10.386 -0.9642 -1.0523 -0.5552
 1024MOL0     H41307  -0.001   2.217  10.495 -0.9278  0.1998  0.3729
 1024MOL0     H41308  -0.367   2.276  10.317  0.3500  1.5102  1.1489
 1024MOL0     H41309   0.289   1.995  10.732 -0.0390 -0.9769  1.0918
 1024MOL0     H41310   0.503   2.014  10.658  2.3612 -0.2909 -0.8579
 1024MOL0     H41311   0.578   2.179  10.652 -0.0991 -0.9056 -0.2539
 1024MOL0     H41312   0.610   2.068  10.787  2.1910  3.3575  0.8314
  11.35775  11.35775  11.35775
